/*--------------------------------*- C++ -*----------------------------------*\
  =========                 |
  \\      /  F ield         | OpenFOAM: The Open Source CFD Toolbox
   \\    /   O peration     | Website:  https://openfoam.org
    \\  /    A nd           | Version:  7
     \\/     M anipulation  |
\*---------------------------------------------------------------------------*/
FoamFile
{
    version     2.0;
    format      ascii;
    class       volScalarField;
    location    "0.01";
    object      dsmcRhoNMean;
}
// * * * * * * * * * * * * * * * * * * * * * * * * * * * * * * * * * * * * * //

dimensions      [0 -3 0 0 0 0 0];

internalField   nonuniform List<scalar> 
546
(
8.8434
8.9542
8.8244
8.7104
8.699
8.5224
8.4948
8.4354
8.5572
8.4616
8.1824
8.121
8.1286
8.0306
8.1016
7.761
7.8756
8.1346
7.8268
7.7048
8.7244
8.8724
9.0962
8.8166
8.7732
8.6338
8.6606
8.7694
8.454
8.3904
8.4812
8.4808
8.2146
8.2272
8.3682
7.8564
7.9162
8.041
7.867
7.7094
8.9814
9.1726
8.924
8.7032
8.6804
8.7756
8.6484
8.3896
8.5008
8.4916
8.2974
8.4612
8.4056
8.3452
8.117
7.824
7.886
8.084
7.9282
7.6338
9.1284
9.1108
8.6206
8.649
8.605
8.8034
8.6448
8.1608
8.1676
8.3658
8.3462
8.3432
8.357
8.1642
8.0746
8.209
7.7458
8.1076
7.9344
7.9578
9.0472
8.9472
8.6112
8.892
8.667
8.669
8.9848
8.7634
8.5316
8.4182
8.4086
8.2394
8.0088
8.1632
8.018
7.9808
7.9868
8.0764
8.0786
7.9062
8.751
8.7296
8.794
8.9356
8.9422
8.7508
8.6894
8.68
8.697
8.4152
8.592
8.4084
7.9448
8.2738
8.1692
8.243
8.0884
8.0636
8.0266
8.0474
8.9418
9.0694
9.0134
8.9182
8.6734
8.896
8.7352
8.6296
8.6698
8.7596
8.4848
8.416
8.08
8.23
8.357
8.2306
8.417
8.1808
8.18
7.9048
8.9406
8.9502
8.7436
8.669
8.7676
8.7302
8.6424
8.6106
8.6752
8.7432
8.9302
8.5398
8.2628
8.6344
8.4032
8.3656
8.1386
8.0418
8.1026
8.1024
8.9654
8.8582
9.0172
8.8388
8.9538
8.9954
8.7264
8.3754
8.6198
8.6962
8.8574
8.843
8.7048
8.7776
8.8322
8.4556
8.227
8.3724
8.23
8.2876
8.81
9.1802
9.3326
9.0536
9.154
9.2122
8.8548
8.839
8.7422
8.639
8.6358
8.4148
8.4664
8.4748
8.6552
8.3806
8.2736
8.287
8.2446
8.2048
8.9646
9.5032
9.2378
9.2432
8.9952
8.8336
8.8862
8.7246
8.7818
8.6678
8.3736
8.568
8.554
8.4884
8.6214
8.476
8.428
8.5706
8.5248
8.3406
8.7292
9.112
9.1796
9.0588
8.8754
9.1852
9.0824
8.7194
8.79
9.0096
8.7664
8.6832
8.4808
8.6286
8.3878
8.4722
8.4648
8.5516
8.3128
8.3572
8.9548
9.212
8.965
9.115
8.9988
9.016
9.1282
9.1558
8.58
8.9018
8.7432
8.5828
8.6636
8.7836
8.5008
8.3956
8.467
8.5832
8.477
8.5198
9.337
9.1522
9.149
9.2076
9.1692
9.1008
8.9086
8.8498
8.9558
9.1476
8.8696
8.3694
8.9068
9.0042
8.5036
8.5828
8.6934
8.5404
8.5632
8.6814
9.0544
9.205
9.2864
9.2322
9.4866
9.0744
9.1088
8.9358
9.057
9.246
9.0934
8.6398
8.9508
9.111
8.8234
8.6558
8.5976
8.8096
8.753
8.7464
9.1866
9.4382
9.0712
8.7574
9.2492
9.0966
9.102
9.0716
9.0622
9.1032
9.0838
8.765
9.0898
8.8334
9.0964
9.0756
8.972
8.9554
8.8298
8.618
9.1886
9.5784
9.3906
9.0708
9.0444
9.2518
9.2458
8.9742
9.0198
9.1522
9.156
9.0136
9.122
8.8888
8.8352
8.8784
8.7064
8.7976
9.0334
9.0462
9.3288
9.4714
9.2838
9.3684
9.2004
9.0076
9.0196
9.2686
9.218
9.4148
9.3188
9.0516
9.0392
9.0538
9.1754
8.8764
8.6262
8.6588
8.9802
8.8466
7.1128
7.0926
6.9876
7.0616
6.7268
6.775
7.7974
7.6744
7.469
7.5564
7.3852
7.277
7.0052
6.913
6.8652
6.8556
7.6012
7.7712
7.492
7.4538
7.6062
7.4132
7.4198
7.1472
7.1186
6.8846
7.964
7.6704
7.637
7.716
7.5482
7.6572
7.37
7.4228
7.245
6.9658
7.9648
7.8502
7.6276
7.5828
7.5232
7.3904
7.3478
7.237
7.0664
7.1824
7.6298
7.4642
7.4636
7.6546
7.6046
7.511
7.4136
7.329
7.2902
7.2718
7.8332
7.5026
7.4954
7.7756
7.8292
7.7412
7.3734
7.3558
7.371
7.2314
7.8698
7.7662
7.9428
7.7456
7.7688
7.7788
7.626
7.5398
7.3662
7.6416
8.1306
8.0558
7.8122
7.727
7.682
7.7318
7.7794
7.6326
7.6242
7.5488
8.1324
8.0804
8.0274
8.0982
7.9694
7.8174
7.791
7.8826
7.7746
7.4672
8.0828
8.0594
8.1904
8.1812
7.9504
8.0764
7.7176
7.769
7.8262
7.74
8.288
8.1718
8.3594
7.9082
7.9976
7.7042
7.732
7.6838
7.808
7.8226
8.1628
8.331
8.0432
7.8408
7.818
7.6766
7.942
7.8862
7.7708
7.6824
8.3218
8.3976
8.291
8.1916
8.0362
8.1704
8.2064
7.9422
7.8486
7.882
8.4294
8.2484
8.4596
8.1044
8.0752
8.1354
8.1498
8.3496
8.0936
7.952
8.4208
8.57
8.539
8.2506
8.2462
8.023
8.2612
8.275
8.1798
8.208
8.6128
8.585
8.4994
8.3896
8.5216
8.456
8.5368
8.5764
8.4906
8.0624
8.783
8.9664
8.6528
8.6486
8.525
8.5258
8.5522
8.3106
8.435
8.3038
9.0238
8.9034
8.7236
8.5946
8.5256
8.7348
8.4508
8.508
8.153
8.2852
)
;

boundaryField
{
    flow
    {
        type            calculated;
        value           nonuniform List<scalar> 
48
(
8.8434
8.7244
8.9814
9.1284
9.0472
8.751
8.9418
8.9406
8.9654
8.81
8.9646
8.7292
8.9548
9.337
9.0544
9.1866
9.1886
9.3288
9.3288
9.4714
9.2838
9.3684
9.2004
9.0076
9.0196
9.2686
9.218
9.4148
9.3188
9.0516
9.0392
9.0538
9.1754
8.8764
8.6262
8.6588
8.9802
8.8466
9.0238
8.9034
8.7236
8.5946
8.5256
8.7348
8.4508
8.508
8.153
8.2852
)
;
    }
    obstacle
    {
        type            calculated;
        value           nonuniform 0();
    }
    frontAndBack
    {
        type            empty;
    }
    procBoundary2to0
    {
        type            processor;
        value           nonuniform List<scalar> 
31
(
9.034
8.8568
8.848
8.6734
8.8738
8.3626
8.399
8.4694
8.464
8.3374
7.9692
7.978
8.0566
8.213
7.9294
7.7096
7.9286
7.8786
7.861
7.7922
7.1758
6.9818
6.8724
7.2362
6.9266
6.7834
7.6882
7.3626
7.3368
7.3714
7.3714
)
;
    }
    procBoundary2to3
    {
        type            processor;
        value           nonuniform List<scalar> 
19
(
6.5738
6.7786
7.0026
6.7152
6.9556
7.1728
7.2862
7.2848
7.3668
7.4618
7.5054
7.4734
7.822
7.7994
7.9022
8.3406
8.3482
8.2588
8.3828
)
;
    }
}


// ************************************************************************* //
