/*--------------------------------*- C++ -*----------------------------------*\
  =========                 |
  \\      /  F ield         | OpenFOAM: The Open Source CFD Toolbox
   \\    /   O peration     | Website:  https://openfoam.org
    \\  /    A nd           | Version:  7
     \\/     M anipulation  |
\*---------------------------------------------------------------------------*/
FoamFile
{
    version     2.0;
    format      ascii;
    class       volScalarField;
    location    "0.01";
    object      iDof;
}
// * * * * * * * * * * * * * * * * * * * * * * * * * * * * * * * * * * * * * //

dimensions      [0 -3 0 0 0 0 0];

internalField   nonuniform List<scalar> 
546
(
1.874519654e+20
1.874519654e+20
2.082799616e+20
1.24967977e+20
2.082799616e+20
1.874519654e+20
1.041399808e+20
1.041399808e+20
2.291079578e+20
1.666239693e+20
2.499359539e+20
2.291079578e+20
1.666239693e+20
1.666239693e+20
1.457959731e+20
2.291079578e+20
2.499359539e+20
2.707639501e+20
1.457959731e+20
2.082799616e+20
1.457959731e+20
1.874519654e+20
1.874519654e+20
2.291079578e+20
1.874519654e+20
1.24967977e+20
2.499359539e+20
2.499359539e+20
1.874519654e+20
2.082799616e+20
1.457959731e+20
2.291079578e+20
1.666239693e+20
1.874519654e+20
1.874519654e+20
2.082799616e+20
2.915919462e+20
1.457959731e+20
2.499359539e+20
2.707639501e+20
1.666239693e+20
1.874519654e+20
1.457959731e+20
2.291079578e+20
2.082799616e+20
1.457959731e+20
1.874519654e+20
2.291079578e+20
2.707639501e+20
2.291079578e+20
1.041399808e+20
2.499359539e+20
2.707639501e+20
1.874519654e+20
2.707639501e+20
2.082799616e+20
1.041399808e+20
2.915919462e+20
2.291079578e+20
1.457959731e+20
1.041399808e+20
2.499359539e+20
1.874519654e+20
2.499359539e+20
2.082799616e+20
2.707639501e+20
2.291079578e+20
2.082799616e+20
2.291079578e+20
2.499359539e+20
1.874519654e+20
2.915919462e+20
2.082799616e+20
1.457959731e+20
2.082799616e+20
2.082799616e+20
1.041399808e+20
3.540759347e+20
1.874519654e+20
8.331198464e+19
1.041399808e+20
2.499359539e+20
1.874519654e+20
2.499359539e+20
1.666239693e+20
2.291079578e+20
1.041399808e+20
2.291079578e+20
3.124199424e+20
1.874519654e+20
2.499359539e+20
2.291079578e+20
2.915919462e+20
2.291079578e+20
2.082799616e+20
2.291079578e+20
2.291079578e+20
1.457959731e+20
1.874519654e+20
1.874519654e+20
1.874519654e+20
1.24967977e+20
2.082799616e+20
1.874519654e+20
1.874519654e+20
2.915919462e+20
2.291079578e+20
1.457959731e+20
2.082799616e+20
1.041399808e+20
1.874519654e+20
2.707639501e+20
1.874519654e+20
1.666239693e+20
1.874519654e+20
3.124199424e+20
2.915919462e+20
1.874519654e+20
3.540759347e+20
1.666239693e+20
1.666239693e+20
2.499359539e+20
1.666239693e+20
1.874519654e+20
1.457959731e+20
1.457959731e+20
2.082799616e+20
1.874519654e+20
1.874519654e+20
2.291079578e+20
1.874519654e+20
2.082799616e+20
1.666239693e+20
2.291079578e+20
1.041399808e+20
2.707639501e+20
1.666239693e+20
1.457959731e+20
1.874519654e+20
2.499359539e+20
1.666239693e+20
2.915919462e+20
1.874519654e+20
2.707639501e+20
1.666239693e+20
2.499359539e+20
2.082799616e+20
1.24967977e+20
2.082799616e+20
2.499359539e+20
1.874519654e+20
1.666239693e+20
1.874519654e+20
1.666239693e+20
1.457959731e+20
2.291079578e+20
1.24967977e+20
2.499359539e+20
2.291079578e+20
1.24967977e+20
1.24967977e+20
1.666239693e+20
2.291079578e+20
1.041399808e+20
2.707639501e+20
2.082799616e+20
2.291079578e+20
1.457959731e+20
1.666239693e+20
1.874519654e+20
1.457959731e+20
1.24967977e+20
1.666239693e+20
1.666239693e+20
2.291079578e+20
2.291079578e+20
2.499359539e+20
2.291079578e+20
2.915919462e+20
2.499359539e+20
1.457959731e+20
2.499359539e+20
1.457959731e+20
1.874519654e+20
1.24967977e+20
1.666239693e+20
1.457959731e+20
1.666239693e+20
1.874519654e+20
2.499359539e+20
2.082799616e+20
6.248398848e+19
1.874519654e+20
3.332479385e+20
1.041399808e+20
2.082799616e+20
2.291079578e+20
1.24967977e+20
1.874519654e+20
1.24967977e+20
1.24967977e+20
1.666239693e+20
1.874519654e+20
2.291079578e+20
1.24967977e+20
2.291079578e+20
1.457959731e+20
2.499359539e+20
2.915919462e+20
2.499359539e+20
1.457959731e+20
1.666239693e+20
3.124199424e+20
1.666239693e+20
1.874519654e+20
2.291079578e+20
2.291079578e+20
2.499359539e+20
1.24967977e+20
1.457959731e+20
1.666239693e+20
2.707639501e+20
1.874519654e+20
2.082799616e+20
2.082799616e+20
1.874519654e+20
2.291079578e+20
3.124199424e+20
1.666239693e+20
2.915919462e+20
6.248398848e+19
1.874519654e+20
2.291079578e+20
1.666239693e+20
1.666239693e+20
1.24967977e+20
2.082799616e+20
1.457959731e+20
2.082799616e+20
2.291079578e+20
1.24967977e+20
2.082799616e+20
2.499359539e+20
2.499359539e+20
6.248398848e+19
2.291079578e+20
1.666239693e+20
2.291079578e+20
1.24967977e+20
1.041399808e+20
2.082799616e+20
2.707639501e+20
2.499359539e+20
2.915919462e+20
1.457959731e+20
2.915919462e+20
2.707639501e+20
2.499359539e+20
1.874519654e+20
1.666239693e+20
1.24967977e+20
1.874519654e+20
2.499359539e+20
2.082799616e+20
1.874519654e+20
3.332479385e+20
2.707639501e+20
1.666239693e+20
2.915919462e+20
2.291079578e+20
2.082799616e+20
8.331198464e+19
1.457959731e+20
1.457959731e+20
8.331198464e+19
1.041399808e+20
2.499359539e+20
1.874519654e+20
2.291079578e+20
1.041399808e+20
1.24967977e+20
1.457959731e+20
1.041399808e+20
2.499359539e+20
2.915919462e+20
2.082799616e+20
2.499359539e+20
1.457959731e+20
1.24967977e+20
8.331198464e+19
2.291079578e+20
2.082799616e+20
1.457959731e+20
1.874519654e+20
2.915919462e+20
1.666239693e+20
2.707639501e+20
1.041399808e+20
2.499359539e+20
2.915919462e+20
2.082799616e+20
8.331198464e+19
2.915919462e+20
2.915919462e+20
1.457959731e+20
2.291079578e+20
3.540759347e+20
2.082799616e+20
1.874519654e+20
2.707639501e+20
2.707639501e+20
1.457959731e+20
2.291079578e+20
1.666239693e+20
1.874519654e+20
1.457959731e+20
1.041399808e+20
1.457959731e+20
1.666239693e+20
3.124199424e+20
1.666239693e+20
1.874519654e+20
1.874519654e+20
2.291079578e+20
1.457959731e+20
1.666239693e+20
1.666239693e+20
1.457959731e+20
2.499359539e+20
2.082799616e+20
1.874519654e+20
2.499359539e+20
1.666239693e+20
8.331198464e+19
2.082799616e+20
1.874519654e+20
2.499359539e+20
2.082799616e+20
2.707639501e+20
1.24967977e+20
1.666239693e+20
2.082799616e+20
1.666239693e+20
1.457959731e+20
2.291079578e+20
1.874519654e+20
1.24967977e+20
1.874519654e+20
1.24967977e+20
1.666239693e+20
2.291079578e+20
2.499359539e+20
1.457959731e+20
1.874519654e+20
1.457959731e+20
2.291079578e+20
1.457959731e+20
2.291079578e+20
3.124199424e+20
2.499359539e+20
2.363774608e+20
1.514855908e+20
6.538470358e+19
1.975609287e+20
2.432076433e+20
3.340599706e+20
1.672148603e+20
1.894102292e+20
2.966781239e+20
3.414246389e+20
6.446658021e+19
1.947671882e+20
1.961541121e+20
3.073170002e+20
1.326587136e+20
4.454132941e+19
1.045092884e+20
3.998660394e+20
1.271477674e+20
1.707123195e+20
3.008440389e+20
3.462527814e+20
1.743592108e+20
3.292682145e+20
2.210978576e+20
2.672479765e+20
2.090185754e+20
1.052279051e+20
2.331042402e+20
2.347294393e+20
3.00844041e+20
1.947671882e+20
3.051286189e+20
1.975609301e+20
1.547684992e+20
2.4497731e+20
1.463130028e+20
2.315013897e+20
1.907216511e+20
1.066952004e+20
3.00844041e+20
1.947671882e+20
2.179490119e+20
2.414633556e+20
2.21097856e+20
2.227066471e+20
1.045092877e+20
3.367292941e+20
2.754868294e+20
2.133904008e+20
2.793551809e+20
1.298447921e+20
2.179490135e+20
1.756097156e+20
1.547685003e+20
2.895186412e+20
1.463130028e+20
1.262734861e+20
2.754868294e+20
2.133903993e+20
2.148886007e+20
1.29844793e+20
1.743592108e+20
6.58536429e+19
1.326587145e+20
1.336239892e+20
1.463130037e+20
1.262734861e+20
2.542955348e+20
1.920513607e+20
1.933997406e+20
1.514855908e+20
6.538470404e+19
1.756097144e+20
2.874272128e+20
1.781653177e+20
1.672148603e+20
2.735925533e+20
2.331042418e+20
2.133904008e+20
2.148886007e+20
2.380487856e+20
2.397439131e+20
1.536585001e+20
2.432076433e+20
2.672479765e+20
2.090185754e+20
2.315013897e+20
3.390607108e+20
2.133903979e+20
1.504220195e+20
8.656319536e+19
1.30769409e+20
2.195121445e+20
1.989880718e+20
2.895186412e+20
2.299204329e+20
1.683646482e+20
2.542955365e+20
1.707123206e+20
2.793551828e+20
1.29844793e+20
2.179490119e+20
2.195121415e+20
2.653174272e+20
1.781653177e+20
1.881167191e+20
2.735925533e+20
1.695303565e+20
2.77407521e+20
1.504220205e+20
2.81330383e+20
2.833337175e+20
1.756097156e+20
2.210978576e+20
2.227066471e+20
2.299204329e+20
2.525469706e+20
3.602520052e+20
2.133903993e+20
1.719108806e+20
3.029711816e+20
2.179490119e+20
2.634145716e+20
1.105489288e+20
2.449773118e+20
2.090185754e+20
1.894102292e+20
3.390607154e+20
1.280342405e+20
1.933997406e+20
2.596895861e+20
1.961541135e+20
1.975609301e+20
2.653174272e+20
2.895186391e+20
1.881167178e+20
2.315013897e+20
8.476517769e+19
1.707123195e+20
1.933997406e+20
1.298447921e+20
2.615388143e+20
2.195121415e+20
1.768782848e+20
1.558946541e+20
2.508222905e+20
1.683646482e+20
1.059564735e+20
1.493732795e+20
1.504220195e+20
1.298447921e+20
1.961541121e+20
2.41463359e+20
2.874272148e+20
2.449773118e+20
1.672148614e+20
1.683646482e+20
2.119129457e+20
2.56068481e+20
2.363774608e+20
8.656319476e+19
2.179490119e+20
1.536585001e+20
1.547685003e+20
2.672479765e+20
2.090185754e+20
1.683646482e+20
1.907216511e+20
3.20085599e+20
1.933997406e+20
2.596895861e+20
3.48718424e+20
6.58536429e+19
2.21097856e+20
2.672479765e+20
2.71724148e+20
2.735925515e+20
1.48339062e+20
2.56068481e+20
2.148886007e+20
2.380487856e+20
2.179490119e+20
1.756097144e+20
1.989880718e+20
2.449773118e+20
)
;

boundaryField
{
    flow
    {
        type            zeroGradient;
    }
    obstacle
    {
        type            calculated;
        value           nonuniform 0();
    }
    frontAndBack
    {
        type            empty;
    }
    procBoundary2to0
    {
        type            processor;
        value           nonuniform List<scalar> 
31
(
1.457959731e+20
2.082799616e+20
1.874519654e+20
2.082799616e+20
2.291079578e+20
2.915919462e+20
1.041399808e+20
2.082799616e+20
1.041399808e+20
1.457959731e+20
1.666239693e+20
2.915919462e+20
1.666239693e+20
1.874519654e+20
3.332479385e+20
1.666239693e+20
2.082799616e+20
2.082799616e+20
1.457959731e+20
2.499359539e+20
2.578663208e+20
1.731263895e+20
3.269235202e+20
3.073170023e+20
3.537565721e+20
2.449773118e+20
1.881167178e+20
1.68364647e+20
2.331042402e+20
1.920513607e+20
1.920513607e+20
)
;
    }
    procBoundary2to3
    {
        type            processor;
        value           nonuniform List<scalar> 
19
(
3.140746287e+20
1.794712164e+20
1.794712177e+20
2.243390205e+20
4.486780409e+19
3.365085331e+20
1.346034132e+20
2.916407266e+20
1.346034132e+20
1.794712164e+20
1.346034123e+20
3.140746309e+20
2.019051184e+20
2.243390205e+20
1.346034142e+20
2.692068246e+20
2.019051184e+20
1.794712177e+20
1.121695102e+20
)
;
    }
}


// ************************************************************************* //
