/*--------------------------------*- C++ -*----------------------------------*\
  =========                 |
  \\      /  F ield         | OpenFOAM: The Open Source CFD Toolbox
   \\    /   O peration     | Website:  https://openfoam.org
    \\  /    A nd           | Version:  7
     \\/     M anipulation  |
\*---------------------------------------------------------------------------*/
FoamFile
{
    version     2.0;
    format      ascii;
    class       volScalarField;
    location    "0.01";
    object      internalT;
}
// * * * * * * * * * * * * * * * * * * * * * * * * * * * * * * * * * * * * * //

dimensions      [1 2 -2 0 0 0 0];

internalField   nonuniform List<scalar> 
546
(
307.7386423
309.3336952
307.1700746
308.8330266
317.145488
316.9232154
317.9426342
317.663956
324.1269099
328.0297684
332.3947874
331.1447273
335.2355113
341.2749097
339.7434729
345.8520939
346.3264582
340.7080234
360.0601086
361.7306304
311.8320638
321.6478838
306.1298761
320.4749573
313.9868943
316.6216221
324.2182313
315.3744995
318.9736488
325.0693283
338.2962729
319.6423431
320.5728352
349.6835962
342.8987436
344.7467299
353.257819
341.626806
343.591278
357.1484075
313.1545114
313.9772392
304.5960556
308.5512574
313.786221
312.5378308
315.973917
313.2891595
314.1403323
324.8484933
332.753066
324.9569693
325.3555831
342.8284134
348.7718628
335.4657939
339.8132478
345.0591402
355.1942558
351.112624
310.5130234
304.4396528
316.7800377
310.1578596
311.5502447
328.0489113
317.8574183
319.2364348
306.2195554
319.481172
322.0445527
330.8475905
325.1580126
327.949182
337.0617313
342.3542205
346.7027867
339.0383615
343.5779723
356.2052097
307.4652286
307.5562252
314.8318052
309.3229249
316.149237
310.9535508
310.8347553
314.3011103
312.4261731
322.6509477
323.2435516
336.9048487
338.3364563
331.8521856
331.0660614
346.6695658
342.7999535
344.5665751
341.5160866
346.4615154
308.9008429
303.1833426
312.1049339
318.0876537
312.144525
316.6181857
316.2247752
320.9225235
320.9152174
320.4310153
319.7956804
324.9635853
332.5426488
330.6479481
328.1429802
341.8947538
347.7597867
338.209427
343.7881511
348.397756
304.5942631
306.3797095
314.1222176
307.1708929
309.2776497
313.690024
312.1499205
313.581213
322.6560299
316.8254145
330.8982817
326.8127054
332.9200734
323.7197415
323.9880389
333.3686187
334.7630415
335.5532601
339.6618049
339.5619503
301.5346174
310.775433
306.2377302
307.430618
305.8434073
295.9160238
314.2320706
314.2303757
320.8272082
333.5066774
331.3372707
330.0266561
318.6658454
319.542122
328.1606135
320.5602394
325.0398373
329.7811406
334.6885088
329.0728248
297.6934887
301.9237335
311.8671707
304.8085865
311.5443418
311.2290504
316.5284115
318.205778
320.506388
320.0109231
320.8648816
327.5200436
320.3091251
322.1652217
328.2566275
337.8026418
325.6982319
324.6317246
334.8886847
340.0403519
301.1940319
302.0928404
312.1290312
302.5734532
315.0661198
307.6909415
310.6389362
313.6599863
310.6202701
316.1220622
323.4309817
327.8562057
324.322413
326.4920972
314.3725649
329.1346342
324.3435477
334.0427207
333.5403861
337.2251667
299.250762
305.6996851
309.8567868
310.289679
307.9816429
302.2714339
304.4756145
305.9573637
311.5693387
320.8448462
316.0553572
315.6149233
320.6282616
323.2958898
324.1932219
320.8647996
330.9404978
329.1965339
328.5075605
323.7995363
299.9721996
310.6502014
308.5062108
306.2266305
297.2314305
321.5401073
305.8153752
313.1668257
315.8712014
316.6904725
315.713684
311.1012535
326.426687
321.9395768
318.9353345
330.8778649
317.3832949
321.7324442
322.6255931
318.355937
301.6316386
306.7613513
299.9264572
311.6461754
303.4904243
309.5438367
316.9547742
314.8812056
312.34022
316.7806779
319.913542
317.7561133
319.9779046
314.2560345
324.9511146
320.3602016
327.0098182
326.7777341
321.5371339
321.30572
301.6230964
310.6509673
312.9807808
304.552119
316.0810235
309.8891721
313.0137241
313.9398883
316.3789903
306.4666706
308.2402609
311.6043499
326.4992645
318.8617498
324.625246
320.0195771
330.9202948
319.3830722
329.0331922
326.9887174
303.7458393
302.0946524
299.6553931
309.0394273
302.7280038
311.4451307
309.0626372
320.4936596
319.6119596
314.6863636
317.0017671
323.642977
328.1301239
313.1760215
311.5892581
316.5592325
328.6467954
319.3311313
320.1110285
317.8680356
296.4571957
300.1273819
300.9072757
304.6900699
300.6917087
305.1792428
313.0054391
317.4823467
316.0197722
312.9039983
306.6527835
318.5244252
313.5632186
311.8297951
322.830201
314.4705479
325.0658782
319.6853633
312.0199643
311.8445083
305.1813437
300.2171674
298.6463317
299.9546971
301.5798879
306.8822795
312.5925099
308.784277
317.5238226
312.8598443
310.6186073
305.6871825
312.9800021
316.7774923
320.8532993
318.2344324
318.8530054
319.9325946
313.4765306
319.9009872
310.4388905
305.1269878
303.0651565
303.2222498
309.2665972
308.8453643
300.3511362
306.7506225
304.0336678
302.6314969
310.9918285
303.3923344
298.1192723
316.3632513
315.0671674
311.6941283
316.0281369
308.7268353
311.8862102
307.5472253
378.7327519
373.5056235
376.8517656
378.8365511
382.7432752
385.0993971
346.5315025
356.2788939
372.5420202
369.1007964
370.1996764
385.1092158
367.2486491
365.6002737
375.2895374
371.97964
349.7942461
360.2321377
359.6884801
373.4377903
388.2535892
374.6660758
379.2091664
369.3357539
365.9333307
358.7224429
351.8132819
352.4495679
351.5328944
358.5399131
361.5558636
375.0835882
369.7483116
370.0379036
370.3614588
364.976738
353.5566501
350.7528368
346.7270972
358.1630688
359.0163335
360.1608354
355.9986897
361.7555216
351.2128638
357.059368
350.9145142
353.9059331
348.2514612
365.0921942
353.8511702
358.5712164
347.2548948
354.4417426
360.3831996
366.1171334
349.3897807
343.5321447
345.7566181
354.4451171
350.8453001
342.3748384
335.2113531
352.7167469
349.2375963
363.8350776
339.3932032
334.4996582
341.0638153
346.6387088
345.8015581
348.8119079
350.9283315
350.7465301
360.392707
353.7842604
336.8737653
337.7650905
340.0348854
339.774338
339.2760326
347.5355762
355.7371648
348.3125994
353.5637391
359.5801622
339.0371067
343.9726237
337.3969226
336.0784268
342.8680707
342.6894986
342.4112988
340.7306057
346.3237877
347.1158473
344.3544402
347.5646914
345.4751726
336.4251132
343.3132024
338.7788167
336.4706097
343.1244364
342.81032
339.8717785
328.7537622
339.9118139
335.7704332
341.6148519
333.0634651
340.613557
339.527693
345.9697367
343.0933841
334.6768047
322.1583272
333.6536557
329.4365558
322.7524701
327.9483959
332.4726606
339.0891838
335.5096517
331.7371391
333.3402291
323.7730408
331.8374545
331.3746998
330.7375391
331.3507748
333.119132
334.3726125
334.03844
333.1019148
334.4604229
323.5784148
328.6418878
327.8655336
326.1944359
327.5190169
327.9756564
327.2512234
321.0196118
324.6330346
341.0383799
319.7661677
324.3754845
319.6012141
327.726022
330.3984958
324.9370332
312.2922602
322.7961631
321.2222884
338.7724495
307.289614
314.2861133
315.8924351
315.2943421
328.2396403
319.9695634
306.3596218
319.7317102
317.6341457
323.9713003
310.9320346
316.067443
316.220781
323.0564078
305.9537092
314.2622992
310.998867
312.6309118
312.5609134
311.168192
301.1365573
304.036953
317.734323
308.6611245
299.1320827
309.4860729
309.4426385
310.3025676
308.3452795
317.2336477
)
;

boundaryField
{
    flow
    {
        type            calculated;
        value           nonuniform List<scalar> 
48
(
307.7386423
311.8320638
313.1545114
310.5130234
307.4652286
308.9008429
304.5942631
301.5346174
297.6934887
301.1940319
299.250762
299.9721996
301.6316386
301.6230964
303.7458393
296.4571957
305.1813437
310.4388905
310.4388905
305.1269878
303.0651565
303.2222498
309.2665972
308.8453643
300.3511362
306.7506225
304.0336678
302.6314969
310.9918285
303.3923344
298.1192723
316.3632513
315.0671674
311.6941283
316.0281369
308.7268353
311.8862102
307.5472253
301.1365573
304.036953
317.734323
308.6611245
299.1320827
309.4860729
309.4426385
310.3025676
308.3452795
317.2336477
)
;
    }
    obstacle
    {
        type            calculated;
        value           nonuniform 0();
    }
    frontAndBack
    {
        type            empty;
    }
    procBoundary2to0
    {
        type            processor;
        value           nonuniform List<scalar> 
31
(
298.8931622
310.7733139
315.2612102
317.1818634
320.9921378
327.4667824
321.7216263
330.3531597
330.6063831
327.1987552
333.3259618
334.6156572
327.3766825
344.1521087
351.2887806
352.6993772
353.484268
347.3290134
358.1574539
363.5186265
372.8443438
375.2482439
379.8070986
372.8163471
386.5393011
377.3447611
365.0169556
369.5228399
371.1097348
365.7942682
365.7942682
)
;
    }
    procBoundary2to3
    {
        type            processor;
        value           nonuniform List<scalar> 
19
(
378.2317124
364.8565293
364.0245751
366.2992284
367.9853293
371.3790898
368.6321811
369.0990708
353.6627426
343.0199487
344.4099133
348.2818324
325.7154926
338.3071888
345.0332389
324.6318316
316.0773657
314.6103617
311.8916657
)
;
    }
}


// ************************************************************************* //
