/*--------------------------------*- C++ -*----------------------------------*\
  =========                 |
  \\      /  F ield         | OpenFOAM: The Open Source CFD Toolbox
   \\    /   O peration     | Website:  https://openfoam.org
    \\  /    A nd           | Version:  7
     \\/     M anipulation  |
\*---------------------------------------------------------------------------*/
FoamFile
{
    version     2.0;
    format      ascii;
    class       volScalarField;
    location    "0.01";
    object      rhoNMean;
}
// * * * * * * * * * * * * * * * * * * * * * * * * * * * * * * * * * * * * * //

dimensions      [0 -3 0 0 0 0 0];

internalField   nonuniform List<scalar> 
546
(
9.209515062e+19
9.32490216e+19
9.189728465e+19
9.071008887e+19
9.059136929e+19
8.875225723e+19
8.846483089e+19
8.78462394e+19
8.911466437e+19
8.811908615e+19
8.521149789e+19
8.45720784e+19
8.465122479e+19
8.363065298e+19
8.437004684e+19
8.08230391e+19
8.201648328e+19
8.471370878e+19
8.150828017e+19
8.02377724e+19
9.085588485e+19
9.239715656e+19
9.472780933e+19
9.181605547e+19
9.136408795e+19
8.991237662e+19
9.019147177e+19
9.132451476e+19
8.803993977e+19
8.737760949e+19
8.832320051e+19
8.831903491e+19
8.554682863e+19
8.5678045e+19
8.714641873e+19
8.181653451e+19
8.24392916e+19
8.373895856e+19
8.192692289e+19
8.02856768e+19
9.353228235e+19
9.552343879e+19
9.293451886e+19
9.063510809e+19
9.039766893e+19
9.138908155e+19
9.006442099e+19
8.736927829e+19
8.852731488e+19
8.843150609e+19
8.640910767e+19
8.811492055e+19
8.753590226e+19
8.690689677e+19
8.453042241e+19
8.147912098e+19
8.212478886e+19
8.418676048e+19
8.256425958e+19
7.949837854e+19
9.506314007e+19
9.48798537e+19
8.977491185e+19
9.007066939e+19
8.961245348e+19
9.167859069e+19
9.00269306e+19
8.498655553e+19
8.505737072e+19
8.712142513e+19
8.691731077e+19
8.688606878e+19
8.702978195e+19
8.502196312e+19
8.408886889e+19
8.548851024e+19
8.066474633e+19
8.443253083e+19
8.262882636e+19
8.287251392e+19
9.421752343e+19
9.317612362e+19
8.967702026e+19
9.260127092e+19
9.025812136e+19
9.027894935e+19
9.356768995e+19
9.126203077e+19
8.884806602e+19
8.766711863e+19
8.756714425e+19
8.580509578e+19
8.340362782e+19
8.501154912e+19
8.34994366e+19
8.311203587e+19
8.317451986e+19
8.410761409e+19
8.413052489e+19
8.233515162e+19
9.11328972e+19
9.091003764e+19
9.158069911e+19
9.305532124e+19
9.312405363e+19
9.11308144e+19
9.049139491e+19
9.039350333e+19
9.05705413e+19
8.763587664e+19
8.94770715e+19
8.756506145e+19
8.273713194e+19
8.616333731e+19
8.507403311e+19
8.584258617e+19
8.423258207e+19
8.397431492e+19
8.358899699e+19
8.380560815e+19
9.311988803e+19
9.444871418e+19
9.386553029e+19
9.287411767e+19
9.032477094e+19
9.264292692e+19
9.096835603e+19
8.986863783e+19
9.028728055e+19
9.122245758e+19
8.836069091e+19
8.764420784e+19
8.414510448e+19
8.57072042e+19
8.702978195e+19
8.571345259e+19
8.765462184e+19
8.519483549e+19
8.518650429e+19
8.232057202e+19
9.310739123e+19
9.320736561e+19
9.105583361e+19
9.027894935e+19
9.130576956e+19
9.091628604e+19
9.0001937e+19
8.967077186e+19
9.034351614e+19
9.105166801e+19
9.299908565e+19
8.89334608e+19
8.604878333e+19
8.991862502e+19
8.751090866e+19
8.711934234e+19
8.475536477e+19
8.374728976e+19
8.438046084e+19
8.437837804e+19
9.336565838e+19
9.224927779e+19
9.390510348e+19
9.204724623e+19
9.324485601e+19
9.367807833e+19
9.087671284e+19
8.722139952e+19
8.976658065e+19
9.05622101e+19
9.224094659e+19
9.209098502e+19
9.065177048e+19
9.140990954e+19
9.197851384e+19
8.805660216e+19
8.56759622e+19
8.719015752e+19
8.57072042e+19
8.630705048e+19
9.174732308e+19
9.560258517e+19
9.718967848e+19
9.428417301e+19
9.532973842e+19
9.593583311e+19
9.22138702e+19
9.204932903e+19
9.104125401e+19
8.996652941e+19
8.993320462e+19
8.763171104e+19
8.816907334e+19
8.825655093e+19
9.013523618e+19
8.727555231e+19
8.616125451e+19
8.630080209e+19
8.585924857e+19
8.544477144e+19
9.335732718e+19
9.896630655e+19
9.620243146e+19
9.625866705e+19
9.367599553e+19
9.199309344e+19
9.254086974e+19
9.085796765e+19
9.145364834e+19
9.026645255e+19
8.720265432e+19
8.922713555e+19
8.908133957e+19
8.83981813e+19
8.978324304e+19
8.826904772e+19
8.776917582e+19
8.925421194e+19
8.877725083e+19
8.685899238e+19
9.090587204e+19
9.48923505e+19
9.559633677e+19
9.43383258e+19
9.242839856e+19
9.565465516e+19
9.458409616e+19
9.080381486e+19
9.153904312e+19
9.38259571e+19
9.129327277e+19
9.042682813e+19
8.831903491e+19
8.985822383e+19
8.735053309e+19
8.822947453e+19
8.815241094e+19
8.905634598e+19
8.656948324e+19
8.703186475e+19
9.325527e+19
9.593375031e+19
9.336149278e+19
9.49235925e+19
9.371348592e+19
9.389260669e+19
9.506105727e+19
9.534848362e+19
8.935210352e+19
9.270332811e+19
9.105166801e+19
8.938126272e+19
9.022271376e+19
9.147239353e+19
8.852731488e+19
8.743176228e+19
8.817532174e+19
8.938542832e+19
8.827946172e+19
8.872518084e+19
9.723550007e+19
9.531099322e+19
9.527766843e+19
9.588792872e+19
9.548803119e+19
9.477571372e+19
9.277414329e+19
9.216180021e+19
9.3265684e+19
9.526308883e+19
9.236799737e+19
8.715891553e+19
9.27553981e+19
9.376972151e+19
8.855647407e+19
8.938126272e+19
9.053305091e+19
8.89397092e+19
8.917714836e+19
9.040808293e+19
9.429250421e+19
9.586085232e+19
9.670855177e+19
9.614411307e+19
9.879343418e+19
9.450078417e+19
9.485902571e+19
9.305740404e+19
9.431958061e+19
9.628782624e+19
9.469865014e+19
8.997486061e+19
9.321361401e+19
9.48819365e+19
9.188687066e+19
9.014148458e+19
8.953538989e+19
9.174315748e+19
9.115372519e+19
9.10849928e+19
9.566923476e+19
9.828939668e+19
9.446745938e+19
9.119954678e+19
9.632115104e+19
9.473197493e+19
9.478821052e+19
9.447162498e+19
9.43737334e+19
9.480070732e+19
9.459867576e+19
9.127869317e+19
9.466115974e+19
9.199101064e+19
9.472989213e+19
9.451328097e+19
9.343439077e+19
9.32615184e+19
9.195352024e+19
8.974783545e+19
9.569006275e+19
9.974943921e+19
9.779369037e+19
9.446329378e+19
9.418836423e+19
9.634822743e+19
9.628574344e+19
9.345730157e+19
9.393217988e+19
9.531099322e+19
9.535056642e+19
9.386761309e+19
9.499649048e+19
9.256794613e+19
9.200975583e+19
9.245964055e+19
9.066843288e+19
9.161818951e+19
9.407381025e+19
9.420710943e+19
9.715010529e+19
9.863514141e+19
9.668147537e+19
9.756249961e+19
9.581294793e+19
9.38051291e+19
9.393009708e+19
9.65231826e+19
9.59962343e+19
9.804570912e+19
9.70459653e+19
9.426334502e+19
9.413421144e+19
9.428625581e+19
9.555259798e+19
9.243881255e+19
8.983323023e+19
9.017272657e+19
9.351978555e+19
9.212847541e+19
7.642298196e+19
7.674476439e+19
7.614702579e+19
7.750534745e+19
7.436405342e+19
7.54418767e+19
8.149007198e+19
8.07561035e+19
7.913888956e+19
8.062316068e+19
7.93497647e+19
7.874004603e+19
7.633882146e+19
7.587437223e+19
7.589405005e+19
7.633938448e+19
7.943960029e+19
8.177470962e+19
7.938258944e+19
7.952846793e+19
8.172428317e+19
8.021378498e+19
8.085690451e+19
7.844485942e+19
7.869536045e+19
7.666230912e+19
8.323119672e+19
8.071401234e+19
8.09189583e+19
8.232601607e+19
8.110110679e+19
8.285396186e+19
8.031421146e+19
8.146973732e+19
8.009269834e+19
7.756649756e+19
8.323955746e+19
8.260600952e+19
8.081935922e+19
8.090483656e+19
8.083249604e+19
7.996707932e+19
8.00722875e+19
7.943046838e+19
7.811829448e+19
7.99784111e+19
7.973849632e+19
7.854421241e+19
7.908167306e+19
8.16709081e+19
8.170709265e+19
8.127201948e+19
8.078934031e+19
8.044022536e+19
8.059238006e+19
8.097390981e+19
8.186421523e+19
7.894828809e+19
7.941861464e+19
8.296191946e+19
8.412029163e+19
8.376287599e+19
8.035126279e+19
8.073437107e+19
8.148561541e+19
8.052404296e+19
8.224671978e+19
8.172209567e+19
8.415910724e+19
8.264183442e+19
8.347132806e+19
8.416972242e+19
8.310395883e+19
8.275388279e+19
8.143255135e+19
8.509175571e+19
8.497232145e+19
8.47694958e+19
8.277531626e+19
8.244338135e+19
8.253871153e+19
8.366116365e+19
8.477562718e+19
8.377241913e+19
8.428471428e+19
8.405839687e+19
8.499113312e+19
8.502835588e+19
8.505549842e+19
8.640390601e+19
8.562666013e+19
8.458739042e+19
8.490203879e+19
8.651632153e+19
8.594737017e+19
8.314975375e+19
8.447276705e+19
8.480737785e+19
8.678259009e+19
8.728947735e+19
8.542251714e+19
8.738987387e+19
8.410216473e+19
8.526949135e+19
8.651780203e+19
8.618747242e+19
8.661729822e+19
8.59901395e+19
8.85732539e+19
8.437669838e+19
8.592965365e+19
8.336252063e+19
8.425908861e+19
8.433437081e+19
8.63166036e+19
8.710725087e+19
8.530884136e+19
8.766536716e+19
8.522290965e+19
8.365757216e+19
8.399995402e+19
8.306387761e+19
8.654755264e+19
8.65558331e+19
8.590536158e+19
8.554607727e+19
8.697053903e+19
8.83661856e+19
8.784851222e+19
8.740044036e+19
8.634438865e+19
8.840699142e+19
8.942883983e+19
8.717046772e+19
8.676543163e+19
8.776868899e+19
8.809505897e+19
8.679618467e+19
8.963493715e+19
8.647005762e+19
8.676342142e+19
8.802827683e+19
8.881204288e+19
9.164192881e+19
8.947388037e+19
8.854816351e+19
8.800518098e+19
9.018031468e+19
9.047623276e+19
8.802994144e+19
8.860071835e+19
8.681206394e+19
9.00260195e+19
9.08231498e+19
9.042681277e+19
9.139880796e+19
9.00117599e+19
9.033815654e+19
9.005664452e+19
8.951300533e+19
9.155973499e+19
9.149729686e+19
9.302935626e+19
9.413119716e+19
9.386267347e+19
8.977750357e+19
9.179050738e+19
9.435154884e+19
9.168201681e+19
9.227641039e+19
9.159626605e+19
9.225256137e+19
9.31971783e+19
9.121388078e+19
9.324802077e+19
9.24655728e+19
9.430709103e+19
9.368861241e+19
9.243218864e+19
9.170025693e+19
9.160271271e+19
9.451402419e+19
9.209217551e+19
9.338046563e+19
9.013054164e+19
9.225845562e+19
)
;

boundaryField
{
    flow
    {
        type            calculated;
        value           nonuniform List<scalar> 
48
(
9.209515062e+19
9.085588485e+19
9.353228235e+19
9.506314007e+19
9.421752343e+19
9.11328972e+19
9.311988803e+19
9.310739123e+19
9.336565838e+19
9.174732308e+19
9.335732718e+19
9.090587204e+19
9.325527e+19
9.723550007e+19
9.429250421e+19
9.566923476e+19
9.569006275e+19
9.715010529e+19
9.715010529e+19
9.863514141e+19
9.668147537e+19
9.756249961e+19
9.581294793e+19
9.38051291e+19
9.393009708e+19
9.65231826e+19
9.59962343e+19
9.804570912e+19
9.70459653e+19
9.426334502e+19
9.413421144e+19
9.428625581e+19
9.555259798e+19
9.243881255e+19
8.983323023e+19
9.017272657e+19
9.351978555e+19
9.212847541e+19
9.430709103e+19
9.368861241e+19
9.243218864e+19
9.170025693e+19
9.160271271e+19
9.451402419e+19
9.209217551e+19
9.338046563e+19
9.013054164e+19
9.225845562e+19
)
;
    }
    obstacle
    {
        type            calculated;
        value           nonuniform 0();
    }
    frontAndBack
    {
        type            empty;
    }
    procBoundary2to0
    {
        type            processor;
        value           nonuniform List<scalar> 
31
(
9.408005865e+19
9.223469819e+19
9.214305501e+19
9.032477094e+19
9.241173616e+19
8.708810034e+19
8.746716987e+19
8.820031534e+19
8.814407975e+19
8.682566759e+19
8.29912335e+19
8.308287668e+19
8.390141693e+19
8.553016623e+19
8.257675637e+19
8.028775959e+19
8.256842517e+19
8.204772527e+19
8.18644389e+19
8.114795584e+19
7.709988105e+19
7.554586414e+19
7.489164001e+19
7.942168901e+19
7.657282101e+19
7.553541349e+19
8.034883056e+19
7.74750969e+19
7.773814499e+19
7.864930002e+19
7.864930002e+19
)
;
    }
    procBoundary2to3
    {
        type            processor;
        value           nonuniform List<scalar> 
19
(
7.373799264e+19
7.603522421e+19
7.85478218e+19
7.532406951e+19
7.802062454e+19
8.045694688e+19
8.172894913e+19
8.171324482e+19
8.263303539e+19
8.369864515e+19
8.418770421e+19
8.382876238e+19
8.773899091e+19
8.748548781e+19
8.863859165e+19
9.355610171e+19
9.364135054e+19
9.263855578e+19
9.402945704e+19
)
;
    }
}


// ************************************************************************* //
