/*--------------------------------*- C++ -*----------------------------------*\
  =========                 |
  \\      /  F ield         | OpenFOAM: The Open Source CFD Toolbox
   \\    /   O peration     | Website:  https://openfoam.org
    \\  /    A nd           | Version:  7
     \\/     M anipulation  |
\*---------------------------------------------------------------------------*/
FoamFile
{
    version     2.0;
    format      ascii;
    class       vectorField;
    location    "0.004/lagrangian/dsmc";
    object      U;
}
// * * * * * * * * * * * * * * * * * * * * * * * * * * * * * * * * * * * * * //


6015
(
(2053.517957 -156.2031055 -52.61494971)
(1353.468017 -186.6773287 188.2569463)
(873.9709725 7.129258739 -69.54375007)
(1764.109922 467.8988064 84.30983703)
(586.3503259 -239.5433636 -26.60079904)
(1025.276064 -353.0176717 748.4107681)
(1474.708657 -671.8823658 244.3399136)
(1361.507788 1400.010142 -287.9259056)
(1650.000248 495.3804857 -534.8392217)
(1514.639079 559.8745006 268.0720391)
(1997.313136 461.0001009 -402.3684133)
(1708.535846 519.4732628 459.4835047)
(1407.350424 -182.6423638 -87.28832372)
(1774.469937 1027.631259 18.95768037)
(772.615769 -41.60909031 457.4552911)
(1068.162218 -9.543022577 204.6896618)
(1079.348363 72.63402033 1129.661675)
(969.5143065 509.9302447 161.9698575)
(1194.368339 -64.65304571 -53.94427157)
(1676.304118 625.5322085 33.09445806)
(1212.628755 106.8565174 21.47997773)
(1309.054539 326.0519776 326.1399213)
(937.1128516 122.5646238 346.9948958)
(1449.128852 229.733623 144.9843334)
(746.9548204 939.7542079 960.6937214)
(1381.164969 686.9924969 93.47549387)
(1466.545457 1334.039606 -35.25309266)
(2077.131722 -39.21245833 83.67598366)
(484.4637022 397.0703522 510.4965425)
(825.2430416 -220.7696987 -9.088633692)
(1582.294183 187.943642 407.0328451)
(1592.462712 -105.9472086 -330.4156832)
(1510.012611 131.6071944 401.8544248)
(1042.015016 186.3189307 -196.4658052)
(635.2323 906.0432702 155.3877435)
(1051.182091 -240.2287004 -526.7793367)
(1333.166981 57.07071792 96.37414098)
(1257.394503 267.8013971 50.75368297)
(1346.031383 -228.6146049 53.96815475)
(1764.26012 -666.2170491 -131.304595)
(1344.889155 -123.2143727 514.5619278)
(1172.935908 220.8850272 244.4797715)
(1492.632414 -752.7419313 252.8855953)
(1263.845046 -207.3989665 543.7057649)
(1434.136949 126.0785982 437.0415304)
(2033.43946 710.7798506 593.9774824)
(1410.525491 -39.48075473 264.9735667)
(751.9115772 345.404847 224.5541823)
(1258.564142 158.7777348 -42.33753808)
(1569.563671 173.2263159 468.1238433)
(763.903023 162.825172 -268.9747098)
(251.2853963 745.9103087 -28.49641423)
(891.1045195 -773.5114854 462.1081147)
(1402.535552 176.4301825 -201.7456213)
(1616.649953 -590.4366495 398.281853)
(1562.523738 759.6898318 255.0209229)
(1119.274477 -151.5113385 -111.8110374)
(1523.925907 461.5466752 -595.5169018)
(1053.374074 268.1611212 105.2735031)
(620.5298805 82.97376535 649.8310898)
(2031.182566 531.6077817 86.40362486)
(2263.203026 66.51327472 -168.1612444)
(1043.66829 341.7586883 -118.5917135)
(1915.111189 110.7602902 -393.8854892)
(796.6572385 -91.35218406 -94.11544069)
(1538.380481 -6.044615151 99.32570921)
(1212.32344 101.799862 -391.6859262)
(1880.406735 447.3374046 -80.66993672)
(999.6985009 147.8899317 -641.4464243)
(1423.715873 886.2268199 -116.9213597)
(1422.641303 -16.00485718 259.1534681)
(1631.856206 340.0358208 -326.8194594)
(1630.525339 -411.3512312 -129.1786361)
(1354.214081 373.8516271 192.5653277)
(1778.297687 112.854926 273.5839812)
(926.0004951 615.8648233 794.4697606)
(1312.464757 231.3536625 -194.8343123)
(1279.100438 1037.177521 -468.9923086)
(1362.741843 -59.4040552 -178.3508269)
(1437.106308 2.477451504 -201.6046239)
(1298.82225 240.7326297 153.9438188)
(1364.66628 -178.1488048 286.4809479)
(1451.279563 647.6186234 157.0720012)
(1465.28915 363.5456053 538.7016639)
(1512.629639 -76.15310233 100.8001637)
(1471.560821 451.5083457 179.8701096)
(981.6493058 -272.2030264 29.2197535)
(1527.430055 363.4673721 -237.3023775)
(1100.06071 -36.31556002 584.7676316)
(2531.982703 478.6849204 -785.9391128)
(2184.863104 360.3563353 -168.4509998)
(723.7533771 92.73154009 524.0474127)
(1806.322785 527.5967763 620.4670063)
(972.3711154 199.4984852 24.53666499)
(2253.360369 103.5161272 -438.0847422)
(1714.17945 719.2480624 -571.3957544)
(1577.264528 -416.0684202 -229.5324001)
(1511.229452 128.0620394 172.3337887)
(1527.724309 690.331405 -138.0034322)
(929.9495332 459.8938357 -0.9643924788)
(1641.740456 870.1181099 167.9217269)
(1547.496995 226.5432407 317.1066002)
(1357.433796 202.1854838 124.3968103)
(1340.890067 -493.4679822 -74.48938862)
(1734.562679 -282.7160373 521.0408824)
(1403.840883 -362.6099104 -138.9477926)
(888.4494805 -398.4429266 -133.1352868)
(1864.109144 793.1852915 559.9978419)
(233.0614284 574.4225932 305.8304818)
(1489.865677 239.2850996 -151.4860787)
(1443.889382 323.5040202 -466.8130732)
(1541.42082 203.1517387 79.12860445)
(792.6993906 -635.7149769 -215.8088674)
(1671.836629 241.9369136 368.4505959)
(1971.409323 344.2403046 39.79730255)
(1318.820644 -573.0122911 -229.2392048)
(862.9521915 129.4306385 6.299732428)
(1584.932052 -211.6046549 -289.6459845)
(2100.469663 46.03882531 -8.532680364)
(1834.948074 -284.9531652 444.5665249)
(2140.860103 209.9955653 730.1790636)
(1250.685124 -794.9888311 -184.4443837)
(1747.494749 -276.9318568 -84.94382004)
(1390.607156 69.51222571 -632.1162075)
(1592.160422 -632.1474961 -48.09882111)
(1015.522882 263.2018555 -167.8670336)
(1605.931992 -211.8500084 -180.205714)
(1092.364097 172.662212 -304.8909385)
(1697.204865 43.24846441 65.01993221)
(1488.078138 -134.737916 -227.8329561)
(1122.794278 -182.5587064 -56.18991394)
(802.4903059 1408.86189 57.92200147)
(1486.603 -186.7853029 -484.8933896)
(390.3817042 304.0015696 -195.3859878)
(1492.536819 114.9483104 -124.1713759)
(1520.946078 -488.1906936 1.203024831)
(1427.165505 -64.69554548 154.6403169)
(1737.658267 124.3416783 -800.2733648)
(950.7898591 -161.244482 -190.6754112)
(1800.629047 -115.8449034 -447.6678713)
(1808.397411 -162.464705 -10.59344979)
(1280.723074 375.7196927 -27.84264279)
(983.4836149 -149.0135512 98.29496218)
(1357.191206 -304.7053334 137.5240127)
(1140.469587 -160.7272768 -148.0563009)
(998.6737205 883.8193819 -465.2507366)
(2075.403316 -89.41679932 54.31757754)
(1662.505282 526.6462096 553.5370642)
(1976.356588 110.5843009 -236.9407329)
(1157.234048 621.8737114 -319.2731023)
(1057.624905 -129.9579587 477.7846291)
(2061.333805 803.1062678 180.0143741)
(1563.092901 -733.5811554 146.5041742)
(1338.736426 -446.895192 23.6394957)
(1373.412669 815.0292878 -331.9497717)
(2158.203928 -17.51158748 -272.3979847)
(1655.214752 23.74557187 -33.75634627)
(1188.142427 744.478382 430.5869935)
(1237.322948 -13.92896832 3.69863072)
(1386.559413 -287.0429755 409.0774217)
(1671.161505 1114.14369 52.81198444)
(1112.71375 -65.21190734 -383.9281616)
(1161.550823 55.60553405 128.1871883)
(1618.550158 291.1880351 -96.68687735)
(1235.886722 200.3172024 229.4145126)
(1500.738788 -33.7882996 298.5601872)
(1985.138964 413.9562501 -166.3075267)
(2040.565796 762.279391 86.9965464)
(1874.223215 -150.6714538 -501.8118054)
(1592.371974 -109.8477536 180.0677775)
(1450.482483 41.62158857 -242.5520302)
(424.1913255 572.3497322 202.0328494)
(1538.625235 371.5216328 -373.94281)
(1706.442767 54.43577094 -217.0711019)
(604.9969236 522.6203463 91.90833501)
(1728.521987 -164.0393115 -125.7230664)
(1215.621553 49.17898879 -446.2302465)
(1240.687468 -201.2264452 -66.00721103)
(1297.2723 561.2766081 637.0729704)
(1538.84382 -187.5135254 80.8423772)
(1616.430751 -329.9934822 -127.264399)
(478.6948427 43.47071658 -189.950277)
(1669.092725 418.5192008 47.14286977)
(1490.422874 998.39179 -412.7449449)
(814.1211192 368.2585315 108.2181334)
(1428.655222 163.873837 -97.31868986)
(1564.976054 -14.63981574 -642.8510795)
(1758.548626 212.757216 -181.4886921)
(1459.878811 300.0773829 -553.075764)
(1517.391394 -301.2796487 -162.0171131)
(1767.717472 396.3793346 153.494845)
(1179.008643 428.8362056 -281.7993177)
(1641.609804 130.077689 -536.8099319)
(1251.951081 228.3110043 39.37659133)
(1147.892987 785.346897 -403.5690759)
(1427.30829 253.526202 1009.558384)
(1586.044044 -198.0619342 424.1749013)
(1382.320186 320.6230252 515.5625684)
(2236.509771 -238.8663511 -466.4019331)
(908.5982461 -114.0281699 -299.6365722)
(1993.141169 281.2233291 290.4341456)
(1292.962974 -8.891977857 368.2234361)
(1437.792925 148.5314129 -145.5630494)
(1659.933649 -361.0599096 356.0866813)
(1290.065037 813.8208142 174.8148565)
(1749.515463 -136.1741875 -437.0633297)
(1536.845889 -163.4889009 -180.6737996)
(1824.741159 -51.8431408 354.8866589)
(1543.979138 -117.1106935 631.697061)
(1976.205499 346.7634519 568.5122399)
(1281.97381 -746.4155254 446.0984899)
(1927.566433 58.10554203 310.8937169)
(1393.288415 447.0230072 -440.2436482)
(1452.907407 1261.394084 561.0364238)
(1328.030675 -55.40686914 -246.6342053)
(1426.735299 -205.9684445 -287.7789801)
(2404.525904 29.78280968 -315.4431772)
(1697.505971 -96.75822455 155.2161642)
(1417.683995 242.1053956 174.2416106)
(1640.247343 -84.22244202 294.5198446)
(1479.317861 -51.98994573 -362.7104886)
(2132.567696 -20.74087308 -50.30807811)
(1824.41563 -79.59398102 139.0111892)
(1985.482247 166.1013071 -584.8101395)
(1209.833469 509.7361936 93.45574338)
(1839.837706 127.6532806 593.5725716)
(1534.270261 34.42240515 57.9002784)
(1692.804765 588.0179123 -541.4560377)
(2016.531315 -57.12700857 -806.9900679)
(1418.565179 728.7916855 193.5433802)
(1049.59786 105.7891795 112.1082748)
(1258.792122 35.70811789 -363.8185522)
(1521.986349 -610.1772869 42.65648929)
(1784.067933 339.9582782 -220.5249107)
(2058.969783 148.7823495 370.0852489)
(970.0217412 657.0154198 -72.05173555)
(1600.486792 -42.98795226 277.8705114)
(1031.112264 550.3289559 414.0656587)
(1476.891794 908.6661702 55.99885916)
(1515.386259 143.8841864 -479.8804359)
(1329.182577 425.3171721 29.75738114)
(1993.186654 234.7337144 396.3591387)
(1467.277682 265.911084 108.625188)
(1792.607584 -426.0025104 118.4249948)
(1270.794977 195.0741828 86.95387515)
(1569.176279 151.6603079 232.4586208)
(2055.735676 449.655379 163.9428268)
(1651.621343 427.5543513 700.969803)
(1620.128312 -61.06033325 335.8636862)
(1952.46075 105.6912497 165.8148579)
(1628.884987 49.6756647 547.1878275)
(1715.856692 -74.43128489 62.58009715)
(1447.089727 440.2877573 534.289738)
(1229.610667 -58.92901004 -351.8823878)
(1403.54759 469.004392 -751.6524177)
(1479.312164 55.70563228 434.026911)
(1682.538286 -277.9189801 192.2295965)
(1965.67886 197.0291883 359.4329374)
(1877.5684 -398.3583913 49.82164797)
(1717.096956 359.1516294 219.7657678)
(1799.844621 134.7989637 292.0518225)
(1260.998799 596.697958 146.1176757)
(1179.407542 323.6447795 73.7456407)
(1372.091473 133.5952375 296.2803304)
(1783.993158 49.26618511 -292.6336598)
(1510.940162 202.6515158 -125.204745)
(627.1331735 -127.4814734 49.35326112)
(773.9195276 -332.5279595 405.1587118)
(1303.85923 609.6870035 66.66184928)
(1164.598875 -81.89616406 126.1023565)
(1101.766733 1028.726229 -91.1853909)
(2028.128557 -562.5023562 -372.9669967)
(1848.112101 -99.45129128 106.3833213)
(2168.063612 304.4164304 381.2274838)
(1888.818847 1345.083603 380.5207345)
(1622.997333 247.2192157 320.8696003)
(1459.608881 279.1466999 -437.5348715)
(1497.485751 553.2219439 -605.234422)
(2340.086613 14.52480789 -17.55509571)
(1266.963924 -131.0423311 -44.59038986)
(1490.033936 306.3266464 107.3363424)
(1373.702643 -808.2435262 381.0092933)
(881.0448122 191.489027 348.5748946)
(1496.178196 -181.8431536 -250.300203)
(1541.61743 314.1641616 293.6831098)
(1610.427805 -16.01310891 840.5247894)
(1929.29531 177.3049132 -124.153923)
(870.7820161 172.3336933 371.2349503)
(1529.499905 27.85565125 -165.0206867)
(1719.131406 -203.4147991 -170.2919083)
(1774.989137 794.2473016 572.5149193)
(1921.583911 -122.5386259 -109.8071586)
(1557.74871 838.0334442 -36.84838321)
(1200.758556 276.0923973 713.7412083)
(2079.060425 61.96560827 -617.37942)
(1195.718816 170.8584245 21.74054749)
(1367.380151 -177.1539146 150.9595264)
(1795.788637 -118.3186875 15.77604075)
(1400.853511 111.9907221 649.5893029)
(1705.488866 -107.3419263 150.8193441)
(1356.625269 -199.5648035 -473.4666958)
(1275.177054 -247.5948779 -256.1938081)
(1900.737571 264.4444027 -495.9529852)
(1787.991666 700.6818066 258.354472)
(1831.707126 443.310051 -9.582082854)
(1523.470523 503.0062603 58.69031644)
(1496.196278 413.8164904 -374.2918754)
(1173.112514 43.04021601 239.5351519)
(1570.073977 289.6069718 355.0320058)
(1586.768833 -218.8805202 -275.078122)
(1884.439633 -154.2730671 20.95158861)
(1654.991023 -352.3879987 -127.4764442)
(1307.79421 -106.9126598 124.4561095)
(1505.401714 586.1726442 128.7016866)
(1791.421043 -19.56442959 387.5121882)
(1578.274568 -287.7248685 -332.3052453)
(1821.708158 -148.011503 189.2985263)
(1513.862385 795.9097618 801.0071278)
(1443.359113 17.58673402 -249.2377886)
(1356.164854 -149.9397734 -483.5167367)
(2008.268215 222.4639104 -315.9168788)
(1893.196701 269.7444086 39.02525419)
(892.8779898 4.085414759 224.9907505)
(1277.193307 1070.794417 -176.2332731)
(1736.192573 189.1609875 151.1378227)
(1698.200565 -208.4811169 -371.5925787)
(1826.739867 -95.48699668 122.9320791)
(1566.940961 230.8455313 -127.4889109)
(1680.39387 661.2676095 415.6240182)
(1415.591448 -213.4492809 -452.9157521)
(1796.505592 -450.4145202 -325.9935261)
(1211.836893 267.8478966 261.2115241)
(1799.393594 366.7821786 373.0735081)
(1785.658762 -653.5279689 -231.8752721)
(1539.421832 64.48510553 -152.0366213)
(1725.974141 -197.0113858 -30.84080593)
(2694.398886 258.5699863 -350.9052674)
(1176.796347 625.7356725 -1241.967729)
(1997.06909 667.7992872 -197.7531464)
(1521.282451 -72.52130813 325.4074607)
(903.1009035 941.5622196 -399.3321116)
(962.3279936 929.2535057 143.6775939)
(1763.174661 -69.7753387 175.5373745)
(2182.564908 -124.5468288 -440.1066664)
(1278.788885 43.73322594 -295.5361857)
(1437.613333 125.8990111 -234.6201876)
(1237.776343 -281.2408008 -268.6956513)
(757.5078164 452.5471799 -413.8506862)
(1267.245998 -135.5809661 -486.6281766)
(1409.116829 -195.1230444 466.2141475)
(2099.789822 357.7294621 539.9436053)
(1500.764857 -402.8042742 484.2133927)
(1392.783611 470.2177777 -178.5798673)
(1435.138415 1112.021412 331.9263229)
(1710.092834 -133.9567876 -731.710492)
(1385.439447 587.8660478 -24.42260862)
(1919.208793 -25.11711518 -390.3608333)
(1780.800448 -446.0979765 -124.3257722)
(1765.863685 775.981277 -557.6924895)
(1202.614069 -275.4143371 118.8346067)
(1345.744823 87.72700063 87.36733668)
(1492.195462 387.9874962 420.1797551)
(1565.52008 86.92027306 229.2508766)
(1854.101357 -427.5445714 107.7540515)
(1448.210501 921.5481886 1064.819319)
(1818.986476 -149.1379559 -58.03028115)
(2129.707449 -297.1577604 -273.7944789)
(1439.262722 -54.37153943 309.4588409)
(2149.622343 294.844781 131.8726343)
(1791.683729 46.44642194 -76.62138668)
(1491.023086 -123.4742447 318.0165233)
(1796.016644 371.0915276 -451.7008164)
(1952.466018 572.8260751 405.4877343)
(1601.86065 444.5132136 -37.38751475)
(1949.714996 192.8052684 -507.1115482)
(1649.9065 287.2600257 -43.255477)
(1296.202041 61.83410315 -184.1107389)
(1611.273734 -328.5971345 186.6461063)
(1840.98872 414.4025908 451.3344652)
(1781.74015 -571.0769104 490.938458)
(2069.667562 -202.5074012 -253.9553835)
(2008.589051 -229.2597373 -444.6701253)
(1839.289764 -293.9891493 -121.1865221)
(1243.557589 -21.0894271 57.64051971)
(2009.933788 893.2650508 -162.6229698)
(1182.165851 85.19914018 -140.6492904)
(1025.161765 -11.08812376 599.6717912)
(1872.620742 142.9836312 -172.3760266)
(1738.796145 -46.97340752 237.4201715)
(1595.450757 -42.2328519 -93.1975225)
(1643.982977 339.5173701 235.9822523)
(2045.147736 73.69913515 354.401628)
(1769.228953 52.08777253 -208.9780026)
(1890.747284 448.1649528 -74.92489633)
(2146.650992 -99.5966928 -428.0684261)
(1393.059165 357.8966156 718.1988723)
(1875.822694 -12.17240019 550.8788966)
(1676.370656 84.17034027 -611.7812495)
(1954.825976 -168.9344649 514.005922)
(1287.539317 424.8418788 189.2449764)
(2342.966488 -234.3936638 226.2843515)
(1565.431582 5.44408811 -597.5642124)
(1845.058734 167.0062637 -537.9286328)
(1535.086931 235.8030331 401.3602877)
(1272.10205 463.2752788 -202.5570094)
(1031.37591 -256.5762048 26.27429977)
(1062.073621 -300.0438036 153.8616361)
(1827.975371 505.7435876 261.981999)
(1472.966273 442.624695 -153.4850307)
(1699.666474 -548.0101194 481.5188552)
(1447.601203 453.4306218 -619.8055446)
(1116.464303 -140.9698965 437.5963791)
(1274.578681 246.8900082 -196.1965532)
(1746.994403 187.3085351 167.5237708)
(1286.349088 259.1744491 -292.475613)
(1722.774076 45.93541427 -124.1849199)
(1857.652595 -711.6042924 -623.9052624)
(1426.140414 -598.4248921 -775.8199282)
(1383.008333 602.997891 -303.6798098)
(1464.714446 -90.22193687 163.8607427)
(1951.424617 401.3079759 -422.1543638)
(1569.318427 -58.67921215 200.1582231)
(1774.360804 -174.6237066 33.79707113)
(1539.125018 393.1353066 -246.4575984)
(1530.35636 -369.0872518 167.6465451)
(1789.510619 -595.8895063 -390.5998943)
(860.2438879 705.3783412 -24.86745909)
(1644.453283 -183.3479829 -465.2374318)
(1507.946428 599.1776291 309.559014)
(1945.454649 -320.702107 441.2297551)
(1618.611266 -131.8194755 -387.1759416)
(2141.097298 252.8253953 -160.4908699)
(1246.085493 -744.4334216 -129.5171792)
(1430.513618 -50.04602611 631.1195415)
(1389.810346 -299.1877171 572.1005825)
(1319.390284 -504.7358469 -256.3391707)
(1640.04838 -250.9192342 348.5065165)
(978.6375749 700.5017683 152.5722009)
(1511.329605 -487.9778872 -975.8460328)
(1457.533493 -243.1770196 -7.200392976)
(1595.282278 11.1148906 -185.2323339)
(1166.949506 230.0750261 150.4266073)
(1452.94502 -151.2513154 222.7507859)
(898.6638733 275.8318952 -326.4016107)
(1794.831383 -151.9714042 -42.13082763)
(1891.537413 81.92811303 57.39624843)
(1780.294386 81.04621277 -294.178178)
(1688.183372 115.0766089 -415.1528741)
(1477.268338 668.8005931 -863.584963)
(1556.250428 666.9681529 -247.4593603)
(1285.174108 139.0284099 323.1969469)
(1388.777242 -194.2315545 -167.2429806)
(1538.314005 -90.61747534 125.6459711)
(1013.908992 -196.1822014 -249.3717077)
(1576.947158 385.3568233 -607.7166808)
(1790.132272 -32.94798943 -261.7390866)
(1544.894946 60.72171127 -660.6938822)
(1910.731614 19.76840013 784.0050977)
(1219.181376 -185.9035408 46.95030129)
(1841.269603 107.2316967 -224.7282688)
(2063.655716 334.891485 86.94340027)
(1544.588592 -568.5509755 -129.6065948)
(656.5182739 694.8759967 42.83957565)
(1625.589172 486.0633833 -788.8148469)
(1934.668771 777.0291833 49.52740646)
(1027.299647 532.526112 160.8602563)
(2072.3739 -279.4100715 -522.2876747)
(1823.151895 298.7168199 39.30700017)
(2048.212632 332.0091987 190.5120066)
(1982.993803 132.1892179 -323.7863365)
(1620.627404 -598.1603873 612.420747)
(1226.596938 1276.215007 -403.8509533)
(767.9919389 715.293897 -380.9118174)
(1252.235245 28.20853504 624.7204273)
(1362.102735 369.9612775 343.1626712)
(1348.350448 285.9402373 -232.7562531)
(-24.62037806 -145.894695 464.4476234)
(1472.294169 19.61553673 25.54234679)
(1794.60763 198.2997622 -19.65016179)
(1369.411648 133.7740373 -192.1295087)
(872.5728403 463.1849423 -691.5783867)
(1551.833689 -248.9027467 -435.7184702)
(1834.257552 -217.0850887 -218.6187886)
(1225.961126 475.7641051 16.17806767)
(2261.839065 785.8520674 436.3464446)
(2150.001974 390.0358057 215.086092)
(1323.204571 580.6163511 430.6106094)
(1887.355464 374.9487243 17.15764772)
(1580.368682 -94.13041833 105.7503904)
(832.0450191 -230.0704293 353.8442153)
(1880.935516 86.5672614 -474.848478)
(2115.24589 -431.7277928 -82.45375745)
(1546.702006 -92.67300612 -440.70389)
(1840.718078 -1.680900561 50.12611933)
(1888.40277 -16.64490671 428.0318327)
(1693.219776 -161.4720484 382.0495956)
(1250.868024 787.7638926 278.6133361)
(2253.468915 152.7289941 -318.2369722)
(1588.065639 238.3844513 463.1009356)
(1297.750905 60.86357645 373.1491623)
(1715.217543 -322.7618776 -186.873907)
(618.6316807 409.2504929 481.0871743)
(1666.01146 411.4262681 -23.81953298)
(2636.774319 -573.2424505 201.1315306)
(886.3648429 -134.6346485 353.6716165)
(2349.738292 -58.19478045 263.1879007)
(2631.826631 822.7254512 -121.1185431)
(1427.229714 13.50187444 177.2550294)
(1236.844503 193.404624 128.0075514)
(2455.416049 424.7044559 -53.50456824)
(1668.800265 -93.69677782 -236.250101)
(1554.210205 834.5658458 52.03532495)
(1524.696653 -91.76034462 -49.6113818)
(1361.754636 -130.1335794 -82.16342563)
(1928.941655 -100.9250877 -36.93417494)
(1974.502137 132.081304 -108.376574)
(1593.997255 278.1878452 -188.7836915)
(1724.873797 -20.070659 45.20458065)
(1553.332646 241.6137188 194.2073035)
(581.6367369 954.4562239 93.59478891)
(2160.799071 -555.1492688 580.8924095)
(712.2206538 321.5169115 -58.83818727)
(564.6282074 751.8276873 -184.4369769)
(1537.61185 -369.6790851 215.7493334)
(1663.441987 -241.0391835 -98.03157934)
(2173.978244 60.29102385 567.6169655)
(1378.279589 -10.25405755 -254.3699273)
(1290.247998 -78.88435186 244.2276392)
(1492.521073 68.43884187 -354.6506431)
(1295.816967 -240.5039952 139.74821)
(910.4559821 1165.620169 -31.47958952)
(1244.401209 202.0573453 118.1180065)
(1238.060062 1024.109925 -83.5025923)
(1516.780515 -23.81814504 -151.6598198)
(1112.259044 -269.1548951 -128.4581109)
(2438.733142 486.5566927 -48.80683794)
(1296.274901 528.2583783 -242.151516)
(1183.444422 76.27419974 -488.9692132)
(2078.309926 394.6609682 -281.6059152)
(745.1882135 329.519178 44.33370762)
(1826.721023 -584.3337927 -657.2444443)
(1470.085752 778.5828009 -183.2701595)
(1736.375381 66.04062782 -30.46649771)
(1843.860483 -37.71650909 -180.6264907)
(1549.532034 104.3409009 176.3485919)
(1670.228868 223.2713256 53.33839837)
(1316.427716 16.92692102 127.3356853)
(2010.389202 -106.8104635 -422.2129127)
(1675.735109 967.7107539 -647.0686707)
(2099.480394 184.317451 712.2984588)
(1721.737976 158.4099681 17.66981316)
(1817.557908 307.5057703 -401.6879845)
(1427.71811 114.0352047 0.650549093)
(2291.61408 -68.63019339 192.6915179)
(2068.836215 71.25364884 22.77214197)
(1384.635242 141.3189347 -321.292417)
(1429.337284 -94.24097609 114.2801165)
(1312.837314 268.4458346 -275.5994467)
(1611.088342 6.287938658 168.6343464)
(408.3514526 -355.6424312 -665.8386428)
(2032.88622 531.3799989 -51.28152424)
(1787.314827 133.3330534 -203.0724063)
(1502.169913 531.3046571 -253.1330475)
(1835.544217 -441.4710914 234.8558372)
(1293.805773 244.8887708 5.41418615)
(1743.086359 105.914502 563.2991677)
(1603.151233 -12.50236071 147.4250556)
(1751.759956 -199.4733039 -219.9813428)
(1921.404726 588.4831448 547.2578697)
(1501.117984 -200.0112843 -189.1505605)
(1794.827093 -23.46582097 -405.7175484)
(678.3397845 528.4978304 168.1178544)
(1976.939258 912.3486654 75.20849582)
(1234.751496 -23.40416092 -561.5532539)
(1579.505717 9.935404905 -24.08311075)
(1381.888423 338.9139649 -222.2771796)
(1373.386119 350.3148419 236.1741411)
(1925.900066 196.0061284 806.2959458)
(1428.928689 557.0950957 203.2959425)
(1815.549665 -49.37933156 608.4228899)
(1853.620048 104.6529643 -97.13381835)
(1744.311145 -311.3501773 -135.4486419)
(1632.748897 -192.5895746 -302.4892727)
(1903.2693 -355.9399256 226.9524492)
(1767.616329 331.2657204 742.6429922)
(674.4315475 253.9145488 688.6696078)
(1722.531537 314.0195205 -346.0024625)
(1749.991419 -549.1808954 -821.325928)
(1553.205075 241.0643808 739.5804868)
(1370.16535 437.0697667 -778.8692237)
(1553.660044 -291.6659445 -438.4963681)
(1822.054712 358.863244 -198.0715561)
(2082.692775 -279.0908464 177.9957151)
(1966.058362 -696.8729464 -3.52072468)
(1870.336268 -670.7673497 -93.55140537)
(1375.741625 -710.8699709 335.5228063)
(1815.334342 -197.0610033 460.5847838)
(1039.745119 -98.08338817 -375.0021026)
(1833.104114 41.77788035 116.4332013)
(1714.5187 133.428397 442.566088)
(1477.427447 -846.3670211 143.2973044)
(2578.688381 398.0786867 -445.9736279)
(1826.623002 -26.00562113 445.07032)
(1551.921737 -226.6731431 -99.86569625)
(1423.750146 75.27595491 347.971232)
(1067.352313 285.4566426 162.7541406)
(1854.3578 550.5790564 688.2032104)
(2022.815339 -78.000644 417.363829)
(1542.825387 606.6209163 774.9464697)
(2001.312588 358.3521076 -733.5742973)
(1826.505498 -379.4936585 -244.3511295)
(1711.306696 -217.2665699 -0.4452821674)
(1688.253202 231.1730715 -200.6340155)
(1769.401377 -153.8822493 -21.7940733)
(1827.888436 283.4077909 -745.7503893)
(664.791014 41.44867235 530.4137962)
(2000.645479 154.8380663 -28.90345342)
(1393.4655 589.3465088 -184.3432113)
(1831.100152 -120.3186854 340.4771591)
(1441.256621 -509.4068734 464.8965037)
(1971.423805 493.720423 -317.0212117)
(1963.629132 1132.909451 -97.09519496)
(2373.891077 309.1522155 -194.0581484)
(1662.054582 423.5237499 482.7860529)
(1560.856635 -45.03730181 -29.60626625)
(1977.576014 467.4163675 -282.8318897)
(1723.567491 50.23215479 759.9342403)
(814.8895561 -65.37332939 -331.1595094)
(2275.764225 -227.7123429 254.9277519)
(1747.128122 -0.3708033929 -96.24359134)
(850.140654 -154.1753122 105.863673)
(1541.326218 140.9760565 -397.1184651)
(1318.189783 -308.425422 17.41395945)
(1641.207826 719.1506008 -296.2771568)
(1440.203648 -235.1200273 -478.0783379)
(1341.38563 -352.3406739 73.64588172)
(1467.239921 29.27095768 -551.5153553)
(1711.624723 1528.828493 6.125531091)
(1710.59749 356.3187608 -310.2956281)
(1810.823891 275.2374853 16.74320137)
(2175.916207 186.1640743 709.8356327)
(1572.930952 -320.7790383 147.8485305)
(913.1653443 716.0760498 251.672939)
(1380.013938 240.9119659 188.2298423)
(1410.728168 407.1242538 -430.1539332)
(2052.860855 451.7646607 -252.4313634)
(1715.066304 -651.6619862 -99.98954908)
(1490.681192 277.0746482 44.07223191)
(1670.362754 -198.4794631 26.34483317)
(1570.467152 472.2181145 715.8365)
(1606.041607 119.0091398 -543.1254798)
(1875.264765 729.1427375 -13.03132412)
(1628.156466 37.20837082 236.8028357)
(1340.913513 778.819682 -319.7560284)
(1299.213156 -56.67595335 28.75149525)
(1451.243801 1026.762152 -376.9810541)
(1711.562319 -154.6520351 60.96758064)
(852.850789 -404.0272333 331.788597)
(1818.519475 312.9249325 -76.62222765)
(1584.619653 -52.32698639 -139.296544)
(1833.395198 31.8901827 -131.707868)
(1270.3763 -389.0853782 16.37437885)
(1856.510559 154.7735632 -141.3080011)
(1885.561978 366.8382749 -219.5937316)
(1663.021707 -86.24069612 317.9389546)
(1544.326172 655.7040604 -105.753007)
(1438.528766 590.7272524 55.13006654)
(1748.438925 -464.6581553 482.430722)
(2038.779094 224.5851172 -314.2987135)
(1710.918299 -111.4846572 640.1639168)
(1680.47708 1322.486511 122.8807932)
(2074.463666 -50.43716514 363.0871508)
(2141.485267 152.3797833 -200.5780764)
(1517.925879 694.7153605 -147.7328404)
(1793.035009 67.45106984 355.019962)
(1023.335031 153.1052029 -304.9151973)
(1703.586463 -109.5117835 -206.381572)
(1649.441173 274.7902109 273.8854573)
(1835.050072 -30.70866887 -88.66023326)
(1867.610611 43.93094744 -40.35430772)
(1994.8602 -5.039641215 -643.7756989)
(1485.810343 111.2541505 -185.2988564)
(1916.950196 -71.01930887 264.8302938)
(1344.401027 -279.0547815 158.1468529)
(1845.15391 298.2262136 -87.71750543)
(1822.080853 -84.84214944 530.8560292)
(1418.289137 362.8849865 -489.4146118)
(1669.793638 -267.7179799 175.9683886)
(2084.971302 312.5996092 -33.4579721)
(1673.410684 128.8271311 262.525028)
(1801.567744 243.8158793 322.2624733)
(1956.472103 110.703178 -480.0485853)
(1657.782671 -337.5129954 97.4770642)
(1726.041852 520.7058439 -244.8829613)
(1409.416351 -186.9513881 257.9640685)
(2070.748233 233.0999892 189.0422336)
(1544.487215 -213.4420569 66.14153352)
(1858.974834 142.8337086 -860.362792)
(1606.43664 -49.23301602 182.9570499)
(1140.256718 -710.5171314 253.7634905)
(1725.781295 -5.735728636 43.94868743)
(1382.435128 -363.0121553 -159.3879372)
(1529.631171 755.8131727 378.3140746)
(1835.021241 559.8151799 -425.8046777)
(2133.64392 -62.34267917 -167.720989)
(1176.483153 386.024012 -762.7626985)
(1497.221297 -198.7404245 264.3705737)
(1109.929676 -186.8118006 114.2755004)
(1895.465014 -112.7681655 -20.83909445)
(1560.301096 -378.9175654 29.78573298)
(1170.835555 796.894572 -497.3114871)
(1566.043384 84.1931473 -704.4039599)
(1163.110602 99.80453694 -479.2706551)
(1829.780994 561.5610094 -26.14375157)
(1316.414259 1109.649461 -659.8509557)
(2159.841061 -225.1733197 167.8087344)
(1043.844123 210.1517632 406.6262381)
(1878.088364 1048.811924 98.02158187)
(2006.810078 -303.6246134 -14.96342986)
(1669.035346 -236.4057214 242.3498576)
(1810.716734 481.7830718 -4.863157242)
(1321.966175 -474.8378024 340.3979367)
(1907.036773 55.57368525 -39.35759823)
(1106.100464 53.07975197 -226.47907)
(1411.897617 60.81186676 515.8631084)
(1593.064728 867.7335554 -502.6423688)
(1367.066147 1099.072219 26.99604097)
(1369.567305 326.0795831 589.458323)
(2117.422592 199.0919557 392.0137209)
(1601.181526 853.5365547 102.3254028)
(1023.007867 64.36021863 -899.6661495)
(2250.324125 367.1164427 -192.2031309)
(1586.503248 217.6998022 -317.7186966)
(1863.943729 253.979352 48.76465555)
(1548.059177 8.111535637 449.4394468)
(1720.635915 12.06002028 529.1623921)
(1899.686492 -492.2417981 -27.60157899)
(1815.210017 -239.9136576 152.4171777)
(896.026713 319.7292497 -94.53718734)
(1656.246029 -284.2898309 93.17592328)
(1661.530524 -186.0051821 -54.90345391)
(1736.331502 527.3640261 398.9908554)
(1693.349705 159.0705372 33.75475871)
(1832.206223 167.7456456 1067.103887)
(2009.773947 -310.7642978 191.87534)
(2196.000673 155.7736552 -409.1299297)
(1706.97745 187.9257439 -648.170059)
(1765.971509 557.2052491 -194.7921819)
(1797.693983 -44.95854761 -100.4033954)
(1642.754652 -190.0280035 1.533564811)
(2036.540404 309.7820178 426.6638825)
(1381.136448 1149.698803 -523.1915877)
(642.1035223 -160.0657866 514.7827473)
(1656.555838 267.9627431 -36.79839764)
(1213.646127 364.0063065 -203.4645097)
(1329.259859 53.86583149 -24.24233496)
(1315.358667 282.265871 60.1341636)
(1490.68295 146.1059611 757.7812088)
(917.1541045 -93.60368447 579.42783)
(1422.436316 40.84630432 -192.5262268)
(2317.359661 -300.8350558 -86.5627846)