/*--------------------------------*- C++ -*----------------------------------*\
  =========                 |
  \\      /  F ield         | OpenFOAM: The Open Source CFD Toolbox
   \\    /   O peration     | Website:  https://openfoam.org
    \\  /    A nd           | Version:  7
     \\/     M anipulation  |
\*---------------------------------------------------------------------------*/
FoamFile
{
    version     2.0;
    format      ascii;
    class       volScalarField;
    location    "0.002";
    object      internalE;
}
// * * * * * * * * * * * * * * * * * * * * * * * * * * * * * * * * * * * * * //

dimensions      [1 -1 -2 0 0 0 0];

internalField   nonuniform List<scalar> 
5120
(
0.4084202596
0.2765377387
0.4153267491
0.4798660408
0.3674072987
0.5013186827
0.3724562923
0.2417645778
0.3355374695
0.2952295544
0.3928812005
0.2832955736
0.2179610258
0.5244919467
0.3157511815
0.3853230895
0.470690731
0.2397316735
0.3186331519
0.2021260523
0.5820840747
0.1565930427
0.5015135449
0.3529503697
0.4059453847
0.6992250299
0.1243838154
0.5393532181
0.2831588756
0.2536028389
0.3493304016
0.5409214201
0.3283093879
0.2320694237
0.3827266355
0.3734159538
0.1341574837
0.5487402679
0.7215959934
0.1235096606
0.4754120101
0.1785992341
0.5435559686
0.3018631013
0.2612282467
0.4010097937
0.4290354371
0.407406648
0.4730237614
0.7431829408
0.5411726925
0.2643558819
0.4247187281
0.3272650881
0.1736437447
0.4226009565
0.2244753006
0.2509163357
0.470127553
0.145829827
0.4703630181
0.5747003442
0.259767749
0.3594218463
0.3897670556
0.2057930602
0.3228917315
0.2629846347
0.5870947571
0.3931118679
0.3224996324
0.4415668273
0.3151809966
0.1129782131
0.2561784905
0.1847862799
0.370080718
0.7240568514
0.4124842333
0.6061292815
0.3729104913
0.2528442767
0.4586531499
0.6307791008
0.2001113185
0.385797676
0.3079882412
0.1849801868
0.6896917936
0.6530501236
0.3204885285
0.3352603981
0.4373201181
0.5742437169
0.5440170461
0.3472219893
0.477202807
0.3115428072
0.4731265423
0.4904283797
0.4825633043
0.5634296664
0.4711977107
0.2555415257
0.2351422501
0.09025483452
0.495422341
0.7048919734
0.3073847148
0.4388347001
0.1498401685
0.3748594059
0.3585289479
0.3008500534
0.656184901
0.541593496
0.4106289055
0.3278738667
0.2808637557
0.425621679
0.582242686
0.2849243319
0.4711495072
0.1608166208
0.4729683323
0.3507738377
0.3090233167
0.2202584974
0.8039255137
0.6684810613
0.3275027753
0.5492424042
0.5395588823
0.3223777158
0.3494964381
0.4617248877
0.4526100302
0.4065024176
0.4230460388
0.4261527216
0.5807606007
0.6770672964
0.5343554159
0.3210368601
0.8114238972
0.149248799
0.3059765937
0.4915630791
0.2330928269
0.2442868241
0.1261823717
0.3002062203
0.2087394597
0.4935559155
0.1222738281
0.3861288376
0.7312485949
0.6054562547
0.3315041818
0.4303567534
0.475167806
0.4733306916
0.4815706239
0.6327591021
0.6778354163
0.2474962035
0.7367342833
0.3112991733
0.6243798496
0.4008179965
0.688408328
0.0792256244
0.3904012036
0.2293180056
0.6792729941
0.4680268927
0.2806261941
0.1044889826
0.5150954584
0.7219246092
0.3933929359
0.4306251427
0.3776961904
0.1121147895
0.256362852
0.4658623683
0.3370353901
0.1263363815
0.3031293118
0.5727117506
0.6975425033
0.5855886987
0.3255702104
0.4007274994
0.2294184665
0.1371288091
0.4513513457
0.3745119287
0.2321481502
0.3062337123
0.3215616548
0.3610390923
1.002368679
0.2332851634
0.3045849432
0.3412156918
0.6729346545
0.4432579748
0.7399566459
0.5114264175
0.4648611999
0.2730743942
0.3004193295
0.2174691226
0.5721181079
0.1432560389
0.2033235314
0.6192764403
0.3096495748
0.591292593
0.4077792946
0.3662238823
0.4128685153
0.4867208762
0.2767854638
0.3971264332
0.4255768424
0.5393795744
0.3081436249
0.1015588122
0.5944238629
0.3828381208
0.1903580304
0.3057831134
0.2718444446
0.5796006033
0.2660741704
0.2175257416
0.5201691276
0.3975027005
0.1821365766
0.3131969995
0.3605917375
0.2686563021
0.6188310094
0.6704818844
0.2006507156
0.539825364
0.4084073581
0.4819303529
0.2006219256
0.4141285663
0.4417182644
0.456355865
0.2464177323
0.1888568586
0.5342394883
0.4312084521
0.2161116602
0.430950857
0.3838944572
0.1945993536
0.5773158597
0.4944778304
0.6603189849
0.224182802
0.7180511104
0.3816202118
0.4487151524
0.2903800737
0.1209011311
0.2370456686
0.4413263228
0.4314217795
0.6907142705
0.4189972775
0.4001794621
0.2880555427
0.4051231928
0.5564009514
0.4910111225
0.2687265633
0.4908521595
0.3182275944
0.3794122311
0.5138946053
0.1813635571
0.4047880937
0.2665678611
0.6631752376
0.1286622627
0.2672710897
0.8170615303
0.160886425
0.459416558
0.2550700721
0.5956917933
0.2212372275
0.510239152
0.3772319017
0.3916068651
0.3406658064
0.2244268228
0.2698994362
0.5129663223
0.5680583208
0.5571936551
0.2403632726
0.26666735
0.1248501918
0.6160792986
0.295940714
0.247060037
0.3507312921
0.3125625708
0.4076699859
0.4560776138
0.5461893649
0.3809456597
0.211163789
0.2362818931
0.2252583967
0.126118917
0.6116499374
0.3684333434
0.2148557639
0.1489658663
0.9394326151
0.3941913906
0.5182290541
0.4494612474
0.2461711441
0.6300923366
0.1120654381
0.5697484162
0.8034808409
0.2526463235
0.4595713742
0.360665803
0.6590334179
0.550116412
0.3400340125
0.4663574578
0.281114867
0.6150818659
0.5086515931
0.2537388495
0.5913749777
0.4240526212
0.6262922064
0.4861046152
0.4481369781
0.6569777623
0.7684229898
0.5504404426
0.4002029225
0.3481159646
0.3196393746
0.4061995598
0.5599970841
0.4044986659
0.2850246904
0.3244900938
0.3221664643
0.3479878599
0.1474996293
0.07464716235
0.6768352818
0.2019829806
0.8200469074
0.7656791951
0.5857510584
0.4822228499
0.1582714863
0.3472181754
0.6537943983
0.2172370056
0.7699519406
0.6764237277
0.4319300374
0.2423878971
0.2152358767
0.4438550767
0.4774615888
0.5131040856
0.6247462766
0.3245084859
0.2875895664
0.3315256699
0.5007506181
0.4884995052
0.5672835828
0.4964198364
0.4371235863
0.4874241249
0.5866288216
0.3500193637
0.3955362623
0.3800455648
0.4699704644
0.2395324927
0.7177470007
0.349479007
0.2373805279
0.2063753919
0.2823439156
0.5397700436
0.5721283692
0.4036092946
0.5952576095
0.6303787925
0.127768605
0.4188015098
0.4950784197
0.3019273095
0.4419452603
0.4149282191
0.3227881206
0.1463433283
0.4325351269
0.2737723859
0.5064124801
0.5633242718
0.4462225635
0.5279865486
0.4199549539
0.3185367157
0.6501455693
0.4580211866
0.388168965
0.3519413124
0.4271328718
0.4329679461
0.2311532175
0.3323632832
0.3119401299
0.2722458309
0.4215460503
0.1428184187
0.182230709
0.2661297377
0.3686568904
0.2726323453
0.287127045
0.3544182636
0.4635221579
0.3215236872
0.6291580474
0.364757461
0.3986313829
0.520954465
0.5651259297
0.3473192525
0.6782989779
0.4580998809
0.4246829961
0.243708274
0.3521500011
1.091568687
0.3930146931
0.3810095212
0.3772200167
0.4294815641
0.4820782673
0.2513084185
0.3463425481
0.5710023928
0.4404046628
0.7598846107
0.1143003879
0.3973814198
0.1525770899
0.4724106443
0.184428413
0.3839710156
0.4821926547
0.2216287366
0.6962601134
0.4456872435
0.2339863681
0.406526771
0.401925152
0.4699734536
0.3239188442
0.2811078627
0.4777139193
0.5380245369
0.1721812268
0.373267181
0.4470226374
0.3976027628
0.6335446514
0.5458910776
0.5562516184
0.4942026376
0.4402626218
0.2938487298
0.2426141505
0.3068534192
0.3596518249
0.3583082187
0.4042135629
0.4753539649
0.1343128183
0.2176192276
0.1967403803
0.3824510135
0.4787635327
0.66818634
0.2675421825
0.4970940845
0.399724423
0.2035423267
0.5654038929
0.09293073869
0.4351669879
0.3879337161
0.2857169949
0.4748398015
0.4656533457
0.4313373681
0.1312989362
0.2993381242
0.8279930541
0.5239219177
0.5338594721
0.3937080623
0.3251531689
0.4328998223
0.3598744172
0.4019886621
0.2852921695
0.1358219989
0.3490784705
0.3730247413
0.5297804834
0.3974147523
0.6112843789
0.4511058078
0.2044621281
0.1304377434
0.6370188085
0.4666657423
0.1600433923
0.5770860739
0.5980105783
0.7298374092
0.2353421621
0.4046472853
0.3376242541
0.2797692289
0.4903298128
0.3188535667
0.3441025019
0.2409462223
0.3012214318
0.4695577425
0.09771334944
0.5231303345
0.2367696335
0.2275358665
0.2551375995
0.3056289777
0.1379156653
0.4935317892
0.339227744
0.3041790505
0.4072639694
0.559435731
0.362776062
0.8201006138
0.291254273
0.08109461926
0.396094731
0.427623052
0.2730123483
0.4137156344
0.2790764647
0.479234619
0.2689653855
0.5339258903
0.534838537
0.3730060611
0.1779688232
0.4587276987
0.254187325
0.6455078961
0.2703533298
0.8019475151
0.3857368336
0.5518171216
0.303925308
0.4712317302
0.5777520809
0.3176557364
0.4051121187
0.2429554173
0.3466378963
0.3559839932
0.200784486
0.4270110486
0.6501918318
0.4108138365
0.2816513982
0.4646698631
0.5042402042
0.448687398
0.4220962419
0.2269829699
0.3272116876
0.5087241909
0.2362529555
0.327323058
0.3293355234
0.6569453578
0.6091079575
0.3224288232
0.2857159762
0.3902494291
0.3774961597
0.3379059982
0.3223843932
0.2847370191
0.3612719962
0.3294661996
0.7637692267
0.372817963
0.3359539714
0.4757852186
0.2798682101
0.6587463955
0.6936351267
0.5118354168
0.2497844614
0.3654036287
0.3522924552
0.4512796567
0.4731086121
0.4188720764
0.5031468179
0.5149861084
0.2614750546
0.538191852
0.3419989223
0.49744738
0.1860465962
0.3785582288
0.4057578059
0.1676439752
0.5847593954
0.3410071615
0.483850344
0.4001862211
0.6746884359
0.4289598313
0.2974465222
0.4240657595
0.5025037645
0.5571220115
0.2329440687
0.3279708937
0.4279221956
0.2116954128
0.594534325
0.272088582
0.2445840802
0.3347329188
0.3270397028
0.3776204177
0.362504
0.3432799892
0.3136492155
0.4374250018
0.464875591
0.4731774803
0.2166873383
0.1282165658
0.3864903463
0.5967212245
0.4352063415
0.2447457271
0.5616254497
0.4363972664
0.2183622817
0.3813313478
0.2932221032
0.6156808077
0.4676086874
0.4553645966
0.3909686246
0.2952582356
0.5140452623
0.5153946466
0.4017411716
0.4617434917
0.5494089536
0.05488191607
0.4685685361
0.4031024885
0.4064679132
0.312880684
0.8553431157
0.6421166801
0.4942724016
0.3278646726
0.400307868
0.3192968592
0.4492937639
0.3687818958
0.1214868655
0.2796488167
0.5584686197
0.5607162406
0.3544553594
0.1574943605
0.8112914988
0.2561062397
0.2684766436
0.3806671269
0.4506861517
0.3588644084
0.2082209577
0.446704783
0.1549761909
0.2336006611
0.512710965
0.2927573907
0.3258864533
0.4078749832
0.5594793932
0.4068499899
0.3417991581
0.6770533342
0.3836152617
0.7143942973
0.4804289106
0.1348084677
0.3746649559
0.3393304714
0.2588862101
0.4076228124
0.2479716927
0.5281132132
0.4486835265
0.4569127019
0.1523696842
0.381950554
1.037492684
0.4576852941
0.2380064054
0.338008428
0.2973862545
0.399702986
0.4462765197
0.3022399288
0.627736693
0.3543632432
0.3768738223
0.4718160333
0.2194816374
0.1607933369
0.3052544335
0.3249210145
0.2859702154
0.4741484321
0.6288998062
0.4772861636
0.4475612735
0.4837506208
0.2835198808
0.435754272
0.1484875956
0.3628983876
0.3596648064
0.6074644599
0.3845700455
0.09837616871
0.2498776213
0.1463892723
0.5780986589
0.3231069699
0.5174426522
0.2755321559
0.201956555
0.6280979627
0.4203218424
0.5716289456
0.3808640603
0.2674943315
0.4676537924
0.2730970058
0.4397185633
0.222734975
0.4373617948
0.4311583003
0.4998427819
0.43870727
0.7081301516
0.4611664365
0.722369571
0.488846151
0.5764504104
0.2061197508
0.4699294423
0.4330443842
0.4094172814
0.2717876427
0.2040579363
0.3752929084
0.2375731221
0.4795432043
0.2973568324
0.4441074067
0.3507175242
0.2748204843
0.8534650909
0.3051340644
0.3296554015
0.6489775768
0.3661066816
0.6191001339
0.8276166964
0.4454834325
0.2044210128
0.1127773003
0.7957124028
0.4271158207
0.3522478882
0.262961164
0.7229357568
0.2598045443
0.3209714157
0.2536740291
0.2239288805
0.5100335103
0.2388693605
0.393930573
0.2006488513
0.7609624576
0.3330006414
0.5226004672
0.5475478885
0.387875777
0.3743647162
0.2257836378
0.3590660741
0.3145975087
0.6868302551
0.2820640331
0.4498899179
0.5013970836
0.6212435433
0.3264470447
0.3404154163
0.3800117
0.1725582289
0.6677161584
0.2515524848
0.2357836707
0.3890465114
0.6207010527
0.367490303
0.5039775484
0.3004637291
0.5258684717
0.7218732053
0.5272387068
0.6306973089
0.3796361755
0.1848877315
0.9944147873
0.2860480647
0.3511199916
0.3230332021
0.7152141458
0.4956122131
0.1462601412
0.1739309122
0.2147567258
0.4028936081
0.6186980161
0.3720137374
0.3342933038
0.3501951511
0.4289137903
0.7255941276
0.3007234132
0.4127744798
0.6467568684
0.449305888
0.5453036449
0.2779774488
0.6134815332
0.5910290872
0.3564556708
0.8058932888
0.3837706863
0.229809153
0.449193689
0.3063703364
0.1405505619
0.6583711545
0.3723052493
0.4364541784
0.370440997
0.2855496213
0.4160444416
0.2553686704
0.6406457613
0.3200677486
0.3871445975
0.7654827922
0.8780559844
0.7076273499
0.2461247216
0.3239933686
0.3414204889
0.2786343862
0.321651359
0.4826995117
0.6915803957
0.5233871871
0.2785270456
0.5723457513
0.4661516442
0.6093906069
0.416951025
0.1979484273
0.3541915041
0.3151314647
0.2767751889
0.1488942789
0.2502929723
0.6727887777
0.1768952192
0.3915908845
0.1733122468
0.7357192675
0.3783226273
0.5341935522
0.4391013028
0.4506614894
0.6049548264
0.2484548795
0.4820022563
0.4355324987
0.2451329551
0.4830139372
0.2371679588
0.3981898382
0.2350185973
0.1957347638
0.6170496243
0.4234689454
0.5036422016
0.3056763354
0.6199764976
0.4793417596
0.4759287177
0.1047890495
0.4151747973
0.588706562
0.4293030895
0.2559025637
0.458432588
0.3874430494
0.1481873186
0.4514445913
0.6165834206
0.3053942783
0.341302225
0.5935559225
0.4122624279
0.3386920852
0.4950305513
0.2208314179
0.1170364265
0.9071583107
0.189145757
0.4376207183
0.3963656917
0.2262474701
0.222399716
0.7560910855
0.1597734763
0.4698687389
0.1965807975
0.4625187127
0.657100584
0.444663612
0.3567060822
0.255414027
0.2129988268
0.4365396373
0.4091923194
0.7117735742
0.4592953352
0.2640584791
0.737566481
0.4507396144
0.5857408417
0.3857781152
0.3987221512
0.250134904
0.2406955072
0.5067042661
0.1482908499
0.3434180125
0.2208826112
0.3672314383
0.5251691362
0.09201216588
0.3109941834
0.5213259116
0.5237838561
0.6664761729
0.7639195362
0.7189500339
0.8383903258
0.2322120597
0.495321671
0.4036085568
0.4596075123
0.278259332
0.3737296083
0.2033197856
0.2918861504
0.2384953683
0.7942914781
0.4208398878
0.4340959152
0.3390306848
0.1976145716
0.1105376374
0.2669615851
0.1877022635
0.4626628244
0.6128620469
0.214906859
0.4290413711
0.398203558
0.536068338
0.3146544151
0.1815802408
0.3267517197
0.4862982844
0.2594209945
0.4383906071
0.575904277
0.5574898934
0.6530009735
0.7257649051
0.4565180885
0.2898231237
0.5341305931
0.5861555816
0.09613991133
0.5839598027
0.2830808929
0.365267984
0.5766562992
0.3114888082
0.4417160751
0.4576776145
0.4375700293
0.9328989191
0.08989293866
0.635402364
0.4840985355
0.7523469336
0.9034146745
0.4993760436
0.4187262898
0.3908597033
0.7195533528
0.3675484454
0.4640193948
0.3370215229
0.2365126152
0.8383038146
0.5728592956
0.4078587899
0.2634723878
0.4783899395
0.7535480165
0.4119386572
0.3421977526
0.4223960123
0.2266166865
0.7488759405
0.4972994622
0.8125457048
0.5871235712
0.3222342424
0.3397438202
0.5188832588
0.3948432364
0.4965357693
0.3422852404
0.08466510757
0.5281432507
0.3953946369
0.1808599209
0.3491628912
0.4232734549
0.08220023682
0.3645732397
0.2180108416
0.2283531216
0.468403243
0.2626795709
0.9010672229
0.1791439905
0.4027477044
0.356864659
0.3277785358
0.411810769
0.5342749726
0.354791257
0.6948279271
0.340098523
0.3878514081
0.6163402199
0.217266211
0.2625973531
0.6885831938
0.2879167636
0.5922559979
0.4161336227
0.4909162545
0.4489814067
0.3688626658
0.4280854385
0.6781425145
0.5153395307
0.4415487476
0.3157156449
0.3109651514
0.2132075251
0.4013720465
0.1196632598
0.09290061977
0.5558403542
0.4827443831
0.2213309688
0.3363050992
0.3112501491
0.5715758173
0.6553735002
0.3166098334
0.3750860702
0.616634883
0.7187716655
0.1636369728
0.468267715
0.5392550965
0.5384335785
0.3673113568
0.4583153386
0.338615739
0.5033511509
0.4174234751
0.2031890232
0.4407349281
0.4551287329
0.3617018054
0.4692158247
0.18778782
0.6158512466
0.4675449458
0.3498040135
0.1479793402
0.8694487149
0.2420455766
0.3907907687
0.09439299788
0.6081426499
0.3783367506
0.3896815196
0.6353828312
0.3567862333
0.2149426232
0.3702552571
0.3085643339
0.5498608906
0.1903678837
0.8171719637
0.5781615206
0.5594877034
0.3011395646
0.3595166262
0.2251042572
0.2100703862
0.4709486911
0.3813658257
0.4566267465
0.7271878872
0.5536865379
0.449350659
0.5204220631
0.3008979604
0.3294417721
0.4139865166
0.3800615057
0.5660364278
0.5537590851
0.4220940412
0.2688130148
0.6786736927
0.4462267047
0.3157098631
0.5606234881
0.1684191253
0.1307447829
0.5688837701
0.3986397215
0.4631817954
0.3209752306
0.3875944518
0.277426663
0.3216139998
0.270349077
0.4010343413
0.4072611597
0.5641933086
0.2532027782
0.3566160579
0.3023335295
0.3102980175
0.2635016056
0.3937455929
0.4225990115
0.5387408823
0.2491806607
0.5608759053
0.4169535756
0.6391075822
0.529063323
0.5448606242
0.4642348451
0.4501156579
0.5763491183
0.4362823027
0.4479881609
0.4793309645
0.77285508
0.5505745488
0.2536648818
0.3202638134
0.82851738
0.4184454627
0.3640729462
0.4598023313
0.3374169708
0.5589706416
0.7307945301
0.2912407049
0.5753343873
0.6281157093
0.5688460874
0.7775787028
0.3985837734
0.1787035667
0.5028954606
0.2500284982
0.4448074408
0.5520251039
0.4544643138
0.4382535291
0.2788744016
0.3977806056
0.2934991591
0.3505521181
0.8484622139
0.3349779499
0.1939784083
0.5800621723
0.4433907708
0.5047241655
0.40349847
0.2170610036
0.549844398
0.1344100925
0.8679064897
0.1142651509
0.6094610363
0.2425181165
0.2941290161
0.3354214798
0.2374924537
0.5453104056
0.3262397389
0.5566000937
0.3416088096
0.578099937
0.5661452964
0.2338981206
0.3987565745
0.6178785258
0.1200549888
0.5281885109
0.4158373214
0.2902037318
0.3217070082
0.8566308031
0.4703761452
0.5680921112
0.1865022642
0.3438615951
0.1396720114
0.4420395055
0.4141291341
0.3636014563
0.3169909686
0.8475314964
0.3017494466
0.3567910436
0.5121146174
0.348503157
0.1812249588
0.3536994234
0.259213182
0.1698460979
0.2592833083
0.6087442034
0.5916435889
0.392241707
0.1028413539
0.4195050756
0.305147097
0.2687711321
0.3780605654
0.3944390177
0.2694321197
0.6764098039
0.5020182762
0.5018180338
0.7944559042
0.1540228946
0.6028216958
0.172829885
0.3543318949
0.6053973736
0.3610910843
0.1910657161
0.3796504645
0.5219579842
0.202222637
0.2827950564
0.1769731173
0.7389953788
0.3755617894
0.6318957352
0.5433642652
0.2302173183
0.1373585626
0.419141943
0.3162631908
0.4368528377
0.203896131
0.2607246115
0.730907972
0.1991449178
0.1176925041
0.2989750101
0.3618158243
0.2100646619
0.5114843311
0.4613866117
0.7251778872
0.6620329873
0.3869781385
0.2671456248
0.4225793637
0.4074446056
0.3015257589
0.1212300567
0.3685330579
0.4335453779
0.5261139961
0.1495504069
0.3156893038
0.5067209046
0.5010540395
0.5807396651
0.4187225406
0.4959511545
0.2963925966
0.2216542083
0.3045205881
0.2138825991
0.4022936331
0.8892200442
0.3124683032
0.3136430497
0.4528728013
0.2229380571
0.4963443514
0.5498268506
0.5998497028
0.5368557146
0.6343843288
0.2211690918
0.5595615682
0.8053377553
0.5915823153
0.2614354269
0.4386186847
0.5934307102
0.4394382862
0.483770036
0.4386397421
0.4337599485
0.3007734222
0.7995312428
0.1042618637
0.2950189255
0.3093471088
0.4178816497
0.2460804286
0.4293207953
0.4523257168
0.3820363636
0.2613967359
0.3509215841
0.7738148597
0.5294998278
0.5805341893
0.3425017792
0.506876771
0.4760842991
0.3778439614
0.5172502288
0.5074608912
0.4010688216
0.4458569252
0.4545736455
0.2541314352
0.1576222848
0.4265024326
0.5139836948
0.7420204509
0.3208944009
0.6758668375
0.5501269551
0.6817290184
0.4247251006
0.4587528741
0.4990019939
0.4408450331
0.3593941204
0.339238759
0.387403094
0.6206860059
0.04872470148
0.3578272829
0.6363388523
0.4530531568
0.4872559864
0.2529278295
0.3740001477
0.5724344581
0.4099017795
0.2492750681
0.3483270065
0.4724300417
0.6426003709
0.09877317442
0.3334371725
0.465584418
0.3159332786
0.3568211071
0.5374849418
0.3978388682
0.3673815771
0.3679217321
0.3712543768
0.6778113034
0.392995671
0.29470191
0.6551237925
0.3016120174
0.3323811907
0.3526498148
0.5366322369
0.2633646187
0.5060127746
0.3427222567
0.2790858366
0.4511250377
0.4810827145
0.31830467
0.1289801672
0.4050796834
0.5857854167
0.3928761453
0.6945170599
0.2421232339
0.3658958146
0.3291972623
0.533234618
0.3533987858
0.3806200812
0.4959106582
0.4215112331
0.5472872906
0.7506699476
0.4011621038
0.2816341513
0.5051793238
0.1955245934
0.5813443671
0.2260384255
0.4457676849
0.2692546011
0.2933565577
0.5488877076
0.2844436888
0.2739384326
0.4451523563
0.4419077344
0.3150824932
0.2325335383
0.3319614509
0.3905224624
0.1679099579
0.3320186462
0.5003533362
0.3480443476
0.8468198849
0.5840321274
0.6645398498
0.5049598921
0.3469640143
0.5440434022
0.1051287501
0.3929670942
0.2876811308
0.5222683809
0.788222347
0.3883455532
0.3356660525
0.6451024297
0.3846915227
0.261973445
0.5014539469
0.349355845
0.5822199684
0.6761915373
0.5247003103
0.3903177575
0.3828979395
0.1485293673
0.2612089116
0.3953721675
0.3427949104
0.4726093303
0.8381084265
0.3394299879
0.5386899239
0.3832888755
0.439141349
0.1691892415
0.1735900875
0.5713864514
0.246390504
0.4579737256
0.6519327744
0.3781300901
0.8076983299
0.435547163
0.3980346394
0.5216845685
0.2616640068
0.3286766838
0.3695411021
0.3917224526
0.5021494509
0.355055291
0.2140526444
0.6564937164
0.1180450534
0.7307298647
0.4257840961
0.3888649209
0.6743951744
0.2057011011
0.2557618446
0.4073215293
0.435318833
0.2910306195
0.383793781
0.4313851001
0.4856123715
0.3768096074
0.429714966
0.4206661866
0.4463758679
0.2959025079
0.1840511301
0.6411967001
0.7730831761
0.4063279494
0.2880886055
0.3481834242
0.3590489047
0.2531135227
0.5180285781
0.6815327554
0.8212062149
0.7427008682
0.1856563493
0.4412017916
0.2416231366
0.06699167942
0.0962221449
0.4371682474
0.5722535574
0.7889274672
0.4787309455
0.1730472363
0.7172007848
0.4649482359
0.399347939
0.5371521745
0.5824086243
0.2986749645
0.3815939919
0.4872724331
0.5798402786
0.4703927297
0.4372639338
0.5935106608
0.46318415
0.4943401377
0.4413851563
0.5931928753
0.500101799
0.6775015176
0.4405476315
0.6491868231
0.3296921444
0.6216835263
0.3248673321
0.3254887658
0.1558318033
0.4317104784
0.4241453851
0.2716595453
0.614736189
0.4859245796
0.7922521624
0.219731714
0.6218945292
0.7067198726
0.4449664303
0.3265841145
0.5949094881
0.3691541579
0.2920202332
0.4221417975
0.4744716871
0.6424849998
0.08085717765
0.07624051211
0.466070612
0.4233970763
0.2751211337
0.3790249918
0.4711548561
0.9291026615
0.4282038197
0.5769976083
0.7826179361
0.4470073631
0.3755340889
0.3678064032
0.5828029789
0.3056077257
0.4108769676
0.1256246714
0.5006893827
0.4946184414
0.5188664163
0.6470123262
0.5589923606
0.2177440083
0.2248820367
0.3528507704
0.8392045112
0.4958876078
0.2585126167
0.2682265671
0.4743564352
0.4920726424
0.3050772715
0.2708998236
0.2672679809
0.3077622469
0.2906606629
0.2582516905
0.2508240232
0.3636273805
0.7661455484
0.5555595426
0.4506823196
0.2150452863
0.7200800347
0.3504877862
0.2711339424
0.3479365009
0.3377405038
0.3637388307
0.3628548241
0.4418116175
0.2245225399
0.4947731646
0.2114530487
0.4165159411
0.3118120215
0.8807619211
0.4420335304
0.5191412595
0.4001885998
0.2137333062
0.3361053981
0.4593824902
0.4221767109
0.4387936003
0.4610316484
0.4829519167
0.5787333885
0.2222359241
0.2941416801
0.2495472919
0.2223321926
0.5939844142
0.7871800234
0.3808073106
0.4859732603
0.6295065081
0.3916813417
0.3454439053
0.5037384548
0.6045843028
0.4414852436
0.1996692814
0.5361473261
0.4751059279
0.6633764529
0.2885751895
0.3536361332
0.5469282492
0.5909891367
0.1573263736
0.2229585488
0.2318771095
0.3958966779
0.5067835886
0.3757958615
0.6052925647
0.4048136741
0.4578126804
0.3761974065
0.2354833427
0.6248610931
0.3263005049
0.1663811872
0.1664222555
0.6669902782
0.3573723445
0.205986668
0.48706793
0.4901660844
0.4091519448
0.2309380125
0.4135650629
0.1160408278
0.4467315267
0.2111670713
0.2329874933
0.4316377087
0.1854160007
0.4775416437
0.3845725625
0.3745160297
0.4125685998
0.2542026075
0.2955959919
0.306453122
0.3202016453
0.2641446879
0.3512244996
0.5848246568
0.3216464639
0.4186242839
0.3604004204
0.5572084833
0.443590172
0.5142378155
0.3482977939
0.4892362887
0.6413113048
0.3777470389
0.7177756915
0.4873732442
0.5020514953
0.4812108238
0.679857141
0.2228960323
0.3351932643
0.4648404159
0.3650260907
0.4254538281
0.3293819205
0.3372426358
0.4977482274
0.2383037568
0.5380131061
0.5647261663
0.3721742416
0.8547251918
0.727187972
0.2731786242
0.4958175028
0.4265310447
0.3042260122
0.4091275512
0.3049574945
0.2320563216
0.1824930525
0.1108130688
0.5436727668
0.3736732466
0.1995891819
0.2251984919
0.4580789362
0.6101831456
0.2921137296
0.603512345
0.3497188218
0.4738595052
0.4844484589
0.5201378534
0.1812001645
0.2631249264
0.9268843695
0.4921433318
0.2517611943
0.2926048059
0.4404628328
0.5778058704
0.7463969751
0.4201887313
0.2061233969
0.6364998224
0.6849369981
0.9464762868
0.5108304933
0.7609471042
0.3369960724
0.3000050803
0.3647427891
0.4658392664
0.7589201618
0.4989691803
0.4660870237
0.4766322431
0.3246926733
0.2767926994
0.2453906392
0.3788740027
0.2251473642
0.3720004424
0.3628080128
0.5177744508
0.3169554092
0.3720985793
0.6135943907
0.4819127005
0.2644352942
0.6683443491
0.4011722107
0.4292517936
0.2109038792
0.5994578962
0.1066364182
0.3900539859
0.2480700963
0.5848643087
0.3127517137
0.4662483024
0.6010443109
0.464384804
0.2896943439
0.3345529198
0.5479274478
0.3306942362
0.517259413
0.1392954116
0.2750413782
0.3412031253
0.2990600595
0.5205663464
0.2105749485
0.1343997105
0.4131583132
0.4906033769
0.6363278877
0.6572149314
0.2958878439
0.5328097485
0.2742363288
0.1666727039
0.5297097366
0.4252365441
0.2256984229
0.5757022029
0.3247131802
0.4060662922
0.2966939733
0.3932879104
0.6165086627
0.2287787181
0.5533635618
0.4682746133
0.2878130922
0.1866208452
0.3489818002
0.269344388
0.3129666346
0.1798792245
0.4117101215
0.3373867069
0.1747799306
0.6044364441
0.6512086743
0.3914287871
0.4361707108
0.3334109521
0.4088303596
0.4307228847
0.3529723929
0.2176561418
0.4197276387
0.08908398706
0.3593327138
0.5846937077
0.478834762
0.5855642874
0.2957371735
0.5736979523
0.4041007269
0.4927927805
0.4965016832
0.4464170896
0.2254659625
0.2962082698
0.3033447473
0.4468884443
0.4161310393
0.3679714324
0.7981204723
0.7549998362
0.3223884812
0.2663080787
0.3327808669
0.1710428768
0.4207094689
0.4552323059
0.1610564702
0.5069255241
0.3470295901
0.4165472721
0.4706606231
0.3716495165
0.3753102513
0.1173907259
0.2935481046
0.661306794
0.1711511071
0.2770765488
0.3809995226
0.2632009109
0.6315463254
0.3986181868
0.425787374
0.524811495
0.3611021377
0.3404623972
0.2857751425
0.3574233759
0.6849299819
0.1656345
0.493036939
0.9486748946
0.4502142739
0.3604299215
0.358675524
0.4622301879
0.4702220697
0.601018555
0.1454472504
0.3218807229
0.3972152772
0.2951642473
0.2531046515
0.649011746
0.4654147827
0.2963478861
0.5259637674
0.4068496844
0.1429362883
0.3795119572
0.797237136
0.6513321803
0.5317897494
0.542561337
0.4162961293
0.3243998292
0.3371354855
0.1873885267
0.605615872
0.254543212
0.3919218406
0.3545108996
0.266653099
0.3666976064
0.2136576947
0.276249746
0.5300909294
0.5581486619
0.206768664
0.5927584832
0.4776089539
0.2398195387
0.3824275536
0.2862848765
0.3913625123
0.4910939572
0.1974175819
0.6440393276
0.2649255252
0.4239447371
0.6692951387
0.2327997309
0.615575425
0.2064886631
0.2602330262
0.2017427466
0.3513093106
0.2965706693
0.4085986853
0.3959342753
0.2732276509
0.4850826868
0.3276309696
0.2381390099
0.6166608731
0.2315091633
0.4159249497
0.4548822205
0.1465508126
0.3585624232
0.6605906243
0.2382844838
0.4154677193
0.8193125047
0.3252536479
0.4408322159
0.4355262321
0.1695536807
0.2733680759
0.2614517043
0.7746388374
0.417689851
0.8385343789
0.3798488252
0.5611817659
0.2282466942
0.3979033183
0.316508912
0.3520640671
0.4466486519
0.3384606506
0.6599964903
0.4790372132
0.2720128253
0.3409031051
0.2297164968
0.3655339351
0.6626551665
0.5717360039
0.3256107302
0.3823198534
0.3058116929
0.06252822687
0.3864927307
0.1887366444
0.4343322466
0.380640148
0.2901483942
0.294792581
0.1105811876
0.5581247077
0.6395779786
0.3071740145
0.2910174028
0.2783962856
0.3236333056
0.3728163687
0.4591093987
0.5872522656
0.4249143098
0.537618831
0.3578920988
0.6198070769
0.7672501999
0.274026346
0.4359694682
0.4575374123
0.2987379278
0.7083162913
0.2206295873
0.3371113648
0.5110567688
0.8822665589
0.5692836943
0.8100287746
0.2539715582
0.3403695832
0.4020504279
0.1582234091
0.2129668592
0.7254153831
0.1016560898
0.3558927287
0.4360596001
0.769588787
0.4538176446
0.3580540181
0.1995637101
0.1953371259
0.3742163324
0.6915826723
0.4015278704
0.2152336333
0.4979819044
0.716007823
0.2224852153
0.7261761509
0.2918789565
0.176320502
0.515433785
0.431124414
0.3432945799
0.472233645
0.4477316849
0.3659433638
0.327454912
0.4252202801
0.1396523629
0.6358311877
0.5588323477
0.286264309
0.3435504652
0.2889558038
0.175452598
0.4901470193
0.3432716865
0.1903909251
0.3532299966
0.3285092733
0.1708493659
0.1434859627
0.1340845704
0.4626879815
0.3695932399
0.3076888136
0.3196343103
0.5184848579
0.3763669984
0.6728566537
0.5530663692
0.3998035226
0.8810961785
0.5234196271
0.4273667822
0.4335648478
0.3645741009
0.3187513116
0.3746615792
0.1689404733
0.3075679354
0.2488488564
0.3999964965
0.2091514707
0.3940968188
0.3226950783
0.6687847392
0.292760575
0.3290477879
0.2266113324
0.5599576545
0.251106401
0.3299779443
0.3615773162
0.4606076592
0.8379487954
0.7751853
0.5967165164
0.2531126841
0.1464409712
0.2980437626
0.4182781793
0.7283041241
0.5241057118
0.3066476245
0.6035817869
0.2166564823
0.4194338484
0.1704576796
0.3732790407
0.1271557541
0.5168596037
0.3851466096
0.6695405936
0.266334312
0.2228821431
0.522921302
0.4613955317
0.3677634417
0.3142900661
0.3494802639
0.4712889036
0.4912123974
0.2701184293
0.3227344975
0.6681102328
0.3431991539
0.3105009477
0.2144762852
0.3856892852
0.4159648742
0.30614437
0.4204139377
0.1122926746
0.1430727128
0.4052403998
0.187912626
0.4505132354
0.2604241703
0.253578218
0.1751715877
0.3223433146
0.577068597
0.3671826653
0.3740149403
0.4928085874
0.4186385596
0.3965104422
0.2657248
0.475631646
0.3350747506
0.215795339
0.5659506305
0.3336636493
0.8213132505
0.4976884358
0.5983978188
0.2695807948