/*--------------------------------*- C++ -*----------------------------------*\
  =========                 |
  \\      /  F ield         | OpenFOAM: The Open Source CFD Toolbox
   \\    /   O peration     | Website:  https://openfoam.org
    \\  /    A nd           | Version:  7
     \\/     M anipulation  |
\*---------------------------------------------------------------------------*/
FoamFile
{
    version     2.0;
    format      ascii;
    class       volScalarField;
    location    "0.6";
    object      alpha.water;
}
// * * * * * * * * * * * * * * * * * * * * * * * * * * * * * * * * * * * * * //

dimensions      [0 0 0 0 0 0 0];

internalField   nonuniform List<scalar> 
2268
(
1
1
1
1
1
1
1
1
1
1
1
1
1
1
1
1
1
1
1
0.993725
0.954589
0.954537
0.98306
1
1
1
1
1
1
1
1
1
1
1
1
1
1
1
1
1
1
1
0.999602
0.974058
0.955567
0.996182
1
1
1
1
1
1
1
1
1
1
1
1
1
1
1
0.999999
1
1
1
1
0.999838
0.955689
0.996185
1
1
1
1
1
1
1
1
1
1
1
1
1
1
1
1
1
1
1
1
1
0.982885
0.99796
1
1
1
1
1
1
1
1
1
1
1
1
1
1
1
1
1
1
1
1
1
1
0.999747
1
1
1
1
1
1
1
1
1
1
1
1
1
1
1
1
1
1
1
1
1
1
0.999586
1
1
0.999999
0.999999
0.999999
1
1
1
1
1
1
1
1
1
1
1
1
1
1
1
1
0.999999
0.999555
0.9987
0.996576
0.996311
0.998673
0.999971
0.99998
0.999988
0.999994
0.999997
0.999999
1
1
1
1
1
1
1
1
1
1
1
1
0.999556
2.33774e-09
8.67706e-10
8.64278e-10
-5.67232e-09
1.13879e-05
0.000272716
0.0026601
0.0319209
0.318827
0.614755
0.736715
0.807901
0.885743
0.946591
0.969559
0.994296
0.961162
0.89722
0.878723
3.54191e-09
8.8689e-10
8.64278e-10
3.7422e-06
0.00015614
0.0126772
0.0482869
0.0485166
0.031842
0.0277206
0.0447423
0.0942598
0.305236
0.709972
0.956407
0.997853
0.999126
0.999125
0.992604
4.62908e-08
6.9937e-09
9.3601e-08
1.20367e-05
0.00454505
0.0172212
0.0173117
0.00302786
0.000353447
2.74428e-05
0.000125196
0.000644762
0.00364241
0.141354
0.688268
0.999138
0.999138
0.999124
0.999124
9.21632e-07
2.03511e-07
6.32713e-06
5.04738e-05
0.00817549
0.0113126
0.000284119
8.00918e-06
3.422e-06
6.1253e-06
3.0714e-05
0.000184377
0.00081747
0.012934
0.489079
0.999138
0.999124
0.999124
0.999115
9.53366e-06
4.15088e-06
1.69682e-05
0.000393652
0.00423959
0.00197093
8.80808e-06
3.74441e-06
2.71833e-06
3.07104e-06
1.20333e-05
4.89385e-05
0.000251657
0.00241257
0.361516
0.999128
0.999124
0.999129
0.999069
0.000219594
0.00355186
0.000229984
0.000346072
0.000740201
2.97731e-05
5.65361e-06
2.90785e-06
2.51591e-06
1.86996e-06
1.7726e-06
1.00281e-05
7.63408e-05
0.000576477
0.190584
0.999117
0.999124
0.9986
0.997488
0.126308
0.0509229
0.000147538
8.60199e-05
0.000109785
6.18466e-05
9.4985e-06
3.10976e-06
2.38406e-06
1.61692e-06
1.93564e-07
1.13238e-06
1.6555e-05
0.00027727
0.298847
0.976292
0.999113
0.99829
0.912841
0.673529
0.0679938
2.9746e-05
2.25721e-05
3.38018e-05
5.53751e-05
2.10232e-05
2.76178e-06
1.26539e-06
1.55814e-06
1.41477e-07
1.09029e-07
1.61121e-06
0.000371727
0.610483
0.990344
0.999081
0.99889
0.865153
0.521766
0.521684
0.533007
0.565444
0.615714
0.672273
0.736552
0.803285
0.867515
0.924289
0.968416
0.994494
1
1
1
1
1
1
1
1
1
1
0.999722
-6.95377e-10
-4.16372e-10
-2.14237e-10
-7.54072e-11
0.00418879
0.0219033
0.0484284
0.0870177
0.142117
0.220115
0.332545
0.494147
0.676245
0.835261
0.958884
1
1
1
1
1
1
1
0.999999
-1.56351e-09
-1.90603e-09
-2.36737e-09
-2.58825e-09
-3.93259e-09
-1.01453e-08
-2.10791e-08
-3.16833e-08
-3.57445e-08
-3.09211e-08
0
9.50714e-05
0.0196529
0.0866597
0.213634
0.455986
0.831913
1
1
1
1
1
0.999999
-1.35707e-09
-1.99389e-09
-3.40845e-09
-4.01937e-09
-6.88931e-09
-1.92429e-08
-4.06359e-08
-6.48231e-08
-8.37588e-08
-9.16507e-08
-4.42888e-08
-3.12342e-12
1.53039e-07
4.52069e-07
9.06474e-07
0.00413146
0.0460559
0.167919
0.425672
0.854895
0.994697
0.997
0.999997
-8.63748e-10
-1.3449e-09
-2.58358e-09
-3.32496e-09
-5.82135e-09
-1.59634e-08
-3.29212e-08
-5.24195e-08
-6.94785e-08
-8.03815e-08
-8.23995e-08
-4.37691e-08
-1.4961e-09
2.30355e-09
4.68422e-09
2.34974e-08
1.65181e-08
3.02426e-10
0.00238985
0.0394412
0.14499
0.381138
0.770576
-4.13823e-10
-6.26761e-10
-1.3142e-09
-1.8011e-09
-2.72891e-09
-5.82284e-09
-1.08571e-08
-1.67705e-08
-2.23439e-08
-2.66356e-08
-2.96988e-08
-3.01865e-08
-3.90826e-12
-2.41018e-12
-6.59847e-13
-1.71904e-10
4.93462e-11
5.27769e-12
8.54925e-14
-2.33363e-29
-7.82e-15
-1.67606e-10
0.0141305
-1.63553e-10
-2.27429e-10
-4.9296e-10
-7.10685e-10
-9.09187e-10
-1.09057e-09
-1.25252e-09
-1.3934e-09
-1.51233e-09
-1.60796e-09
-1.81813e-09
-2.48826e-09
-2.03081e-09
-8.79312e-10
-5.39945e-14
-2.77634e-13
-7.99463e-13
1.51775e-10
1.96507e-11
-1.16681e-29
-1.73774e-12
-6.49062e-09
-5.17837e-09
-5.30592e-11
-6.72177e-11
-1.42849e-10
-2.15885e-10
-2.86779e-10
-3.53983e-10
-4.16647e-10
-4.74422e-10
-5.27141e-10
-5.74403e-10
-6.15115e-10
-6.5791e-10
-6.97183e-10
-6.95369e-10
-6.35757e-10
-5.25422e-10
-4.59291e-10
-4.70853e-10
-3.02025e-10
-1.35572e-10
-4.94423e-11
-1.71389e-11
-9.36079e-11
-1.42111e-11
-1.61851e-11
-3.32453e-11
-5.23659e-11
-7.15024e-11
-8.96761e-11
-1.06554e-10
-1.22064e-10
-1.36138e-10
-1.48606e-10
-1.59193e-10
-1.67477e-10
-1.73975e-10
-1.79514e-10
-1.8057e-10
-1.73348e-10
-1.57978e-10
-1.37163e-10
-1.14973e-10
-8.50419e-11
-5.08116e-11
-2.26588e-11
-5.86463e-12
-3.22926e-12
-3.27816e-12
-6.42496e-12
-1.06066e-11
-1.48802e-11
-1.87734e-11
-2.21466e-11
-2.4976e-11
-2.72025e-11
-2.87298e-11
-2.94558e-11
-2.94804e-11
-2.85157e-11
-2.64943e-11
-2.36228e-11
-1.91504e-11
-1.27961e-11
-5.91527e-12
-3.86264e-13
8.45898e-12
2.3921e-11
3.79776e-11
4.7193e-11
-6.96922e-13
-6.30147e-13
-1.16228e-12
-2.01667e-12
-2.9354e-12
-3.67728e-12
-4.19234e-12
-4.48351e-12
-4.52241e-12
-4.28208e-12
-3.6921e-12
-3.0304e-12
-2.07665e-12
-7.38908e-13
8.63051e-14
1.65708e-12
4.11981e-12
7.80086e-12
1.29746e-11
1.92298e-11
2.57172e-11
3.41735e-11
5.24691e-11
-1.70721e-13
-1.428e-13
-2.48351e-13
-4.51589e-13
-6.53918e-13
-7.84139e-13
-8.28354e-13
-7.91621e-13
-6.69074e-13
-4.7642e-13
-1.55931e-13
4.62261e-14
3.09815e-13
8.32598e-13
1.16848e-12
1.16885e-12
1.08138e-12
1.10363e-12
1.3112e-12
1.95457e-12
3.26225e-12
4.89765e-12
6.10804e-12
-4.75507e-14
-3.93605e-14
-6.66892e-14
-1.18714e-13
-1.62358e-13
-1.78053e-13
-1.67183e-13
-1.34561e-13
-8.04101e-14
-2.69277e-14
5.28594e-14
1.25426e-13
8.24003e-14
3.64537e-14
5.95689e-14
4.7733e-14
4.85469e-14
6.39907e-14
1.07239e-13
1.86906e-13
3.07904e-13
4.69236e-13
6.82557e-13
-1.27199e-14
-1.06043e-14
-1.7646e-14
-2.95744e-14
-3.72116e-14
-3.65073e-14
-2.93037e-14
-1.87124e-14
-5.21978e-15
1.43691e-15
1.16412e-15
1.41404e-14
5.44927e-15
1.9286e-15
1.91544e-15
2.33298e-15
3.79478e-15
7.30925e-15
1.35619e-14
2.22378e-14
3.3173e-14
4.82822e-14
8.17391e-14
-2.93579e-15
-2.42829e-15
-3.92791e-15
-6.14881e-15
-7.07173e-15
-6.11542e-15
-4.01577e-15
-1.82979e-15
1.45104e-16
8.34902e-17
6.39896e-17
6.62182e-17
7.13995e-17
8.46917e-17
1.1042e-16
1.67132e-16
3.02916e-16
5.63453e-16
9.2013e-16
1.44094e-15
2.90995e-15
8.67921e-15
3.44965e-14
-5.59029e-16
-4.51469e-16
-7.03013e-16
-1.02244e-15
-1.07127e-15
-8.06744e-16
-4.14018e-16
-1.36395e-16
-4.98147e-19
2.77992e-18
4.29857e-18
5.27812e-18
5.60994e-18
5.55546e-18
6.59219e-18
9.27107e-18
1.46539e-17
2.39904e-17
5.47126e-17
2.41034e-16
1.56481e-15
8.57371e-15
7.06172e-14
-8.19468e-17
-6.37266e-17
-9.48718e-17
-1.27812e-16
-1.21988e-16
-7.943e-17
-3.03756e-17
-7.43082e-18
-5.25532e-19
1.69406e-19
2.81272e-19
3.16071e-19
2.88202e-19
2.32726e-19
2.71535e-19
3.62694e-19
6.77475e-19
3.0035e-18
2.44801e-17
2.11554e-16
1.99194e-15
1.82464e-14
1.89418e-13
-8.1768e-18
-6.05606e-18
-8.57934e-18
-1.07056e-17
-9.34135e-18
-5.27122e-18
-1.481e-18
-1.17445e-19
1.16563e-19
1.32349e-20
1.46692e-20
1.54828e-20
1.18005e-20
8.15763e-21
9.53345e-21
2.14014e-20
1.68892e-19
1.99367e-18
2.17705e-17
2.12688e-16
2.65831e-15
3.40624e-14
3.87595e-13
-4.1427e-19
-2.89749e-19
-3.89456e-19
-4.52067e-19
-3.63658e-19
-1.82459e-19
-5.32273e-20
-7.82639e-21
1.71118e-21
4.79056e-22
5.77585e-22
5.63284e-22
3.7271e-22
2.4339e-22
5.78459e-22
6.68647e-21
1.07124e-19
1.45412e-18
1.63384e-17
1.71058e-16
3.04769e-15
5.07733e-14
6.0543e-13
-2.51639e-24
-7.54289e-24
-1.41686e-23
-8.22499e-24
6.75861e-24
1.87637e-22
4.93462e-22
3.317e-22
1.05904e-23
1.43071e-23
1.60175e-23
1.37762e-23
9.18653e-24
1.10583e-23
1.67439e-22
3.39585e-21
5.59812e-20
7.81235e-19
9.27207e-18
1.07245e-16
2.82338e-15
6.18748e-14
7.65098e-13
-3.20799e-25
-9.50252e-25
-1.85746e-24
-1.20393e-24
-1.8487e-26
5.84869e-25
4.50882e-24
1.56158e-25
2.44805e-25
2.95279e-25
2.65842e-25
1.96462e-25
1.79209e-25
2.74257e-24
6.76004e-23
1.31064e-21
2.27592e-20
3.36815e-19
4.02009e-18
5.21535e-17
1.94821e-15
6.6037e-14
8.26691e-13
-2.05351e-26
-6.01705e-26
-1.2147e-25
-7.8852e-26
-7.9971e-27
6.44076e-28
2.69319e-27
5.98108e-27
7.47223e-27
6.11865e-27
3.11194e-27
1.74661e-27
2.96718e-26
9.1264e-25
2.08283e-23
4.30653e-22
8.07513e-21
1.19955e-19
1.40372e-18
2.08623e-17
1.27735e-15
5.32887e-14
6.75439e-13
2.35636e-57
-9.64929e-54
-1.59231e-43
2.0518e-32
1.63275e-30
8.67506e-30
6.87781e-29
1.71853e-28
2.24751e-28
1.84499e-28
1.20702e-28
2.27079e-28
8.89804e-27
2.40544e-25
5.77506e-24
1.2835e-22
2.48948e-21
3.62907e-20
4.14609e-19
7.44493e-18
7.72464e-16
4.01204e-14
4.97909e-13
-1.30998e-44
-5.00869e-49
6.05356e-45
1.89068e-41
4.70567e-37
1.35721e-33
3.80559e-32
1.77862e-31
3.56712e-31
5.1798e-31
1.61752e-30
5.97527e-29
2.00628e-27
5.75788e-26
1.46692e-24
3.36113e-23
6.61935e-22
9.53507e-21
1.11362e-19
2.81381e-18
4.66552e-16
2.84864e-14
3.56235e-13
-6.05509e-45
-1.72288e-43
-2.35202e-46
5.09588e-44
4.22147e-41
1.11255e-36
1.89544e-34
2.13785e-33
7.01868e-33
1.67515e-32
3.14408e-31
1.29207e-29
4.23673e-28
1.27097e-26
3.27984e-25
7.55941e-24
1.49501e-22
2.25513e-21
3.18149e-20
1.38371e-18
2.83637e-16
1.81482e-14
2.34412e-13
1.49093e-47
4.38961e-66
3.43187e-50
2.0982e-46
9.41317e-44
3.33723e-39
1.66452e-36
2.76005e-35
1.26799e-34
1.12893e-33
5.85403e-32
2.24314e-30
7.94269e-29
2.43003e-27
6.29281e-26
1.42094e-24
2.91465e-23
5.27568e-22
1.19653e-20
8.30363e-19
1.67541e-16
1.0599e-14
1.45158e-13
2.22445e-48
2.33627e-51
1.30731e-51
5.52946e-48
3.91115e-44
1.95274e-42
1.85187e-39
1.2732e-37
2.87059e-36
1.84153e-34
8.80235e-33
3.47313e-31
1.25035e-29
3.90567e-28
1.00771e-26
2.28435e-25
5.3881e-24
1.46664e-22
5.82962e-21
4.98557e-19
9.34745e-17
5.72179e-15
8.17378e-14
1.03355e-51
-2.01654e-53
1.29601e-68
8.62602e-50
3.87074e-45
1.17484e-42
6.85998e-41
5.38094e-39
4.52523e-37
2.47347e-35
1.07389e-33
4.42423e-32
1.5947e-30
5.04665e-29
1.34297e-27
3.40079e-26
1.15096e-24
5.25515e-23
2.86043e-21
2.69957e-19
4.81264e-17
2.82264e-15
4.00972e-14
-2.25866e-54
-2.23479e-51
0
1.47716e-51
1.00392e-46
6.17773e-44
9.07985e-42
7.5735e-40
4.5385e-38
2.30628e-36
1.12424e-34
4.4397e-33
1.54299e-31
4.82067e-30
1.40809e-28
5.2574e-27
3.04232e-25
1.90804e-23
1.20651e-21
1.27427e-19
2.24955e-17
1.24637e-15
1.66253e-14
-4.26048e-53
-4.13389e-51
-5.73583e-50
4.3544e-66
8.42683e-48
5.60637e-45
5.52031e-43
4.58653e-41
3.16565e-39
1.86136e-37
8.62706e-36
3.04156e-34
8.68249e-33
2.03349e-31
7.45803e-30
8.2379e-28
7.55863e-26
5.63956e-24
4.00747e-22
5.05381e-20
9.3299e-18
4.7655e-16
5.59902e-15
-2.42733e-53
-2.59766e-51
-4.88973e-50
-1.12692e-51
4.43199e-50
2.83893e-46
3.33745e-44
2.92862e-42
1.97724e-40
9.82737e-39
2.66302e-37
2.87709e-36
2.49875e-34
2.2958e-32
1.92346e-30
1.48012e-28
1.29304e-26
1.11693e-24
9.42009e-23
1.57569e-20
3.17164e-18
1.47484e-16
1.53162e-15
-9.36109e-54
-1.15768e-51
-2.86598e-50
-1.66044e-49
1.42546e-52
1.14358e-47
1.33465e-45
1.17122e-43
4.71447e-42
3.8878e-41
3.89331e-39
4.65859e-37
5.01881e-35
4.85651e-33
4.24347e-31
3.3585e-29
2.41848e-27
1.74474e-25
1.62131e-23
3.46622e-21
7.22426e-19
3.31397e-17
3.91563e-16
-2.18319e-54
-2.91153e-52
-7.66355e-51
-5.18875e-50
4.57581e-54
3.27178e-49
3.00148e-47
4.85916e-46
2.00564e-44
3.07293e-42
4.4696e-40
5.78122e-38
6.66034e-36
6.8636e-34
6.35424e-32
5.3043e-30
3.99379e-28
2.82386e-26
2.59671e-24
5.16568e-22
1.08007e-19
5.95312e-18
1.08097e-16
-2.71496e-55
-3.68999e-53
-9.97929e-52
-7.20241e-51
1.38308e-54
3.19373e-51
3.99319e-50
6.59939e-48
1.33993e-45
2.42521e-43
3.87143e-41
5.46395e-39
6.84663e-37
7.64684e-35
7.64072e-33
6.85298e-31
5.51317e-29
4.09609e-27
3.7924e-25
5.61798e-23
1.14577e-20
9.89974e-19
3.56604e-17
-2.40554e-58
-2.54417e-56
-6.12641e-55
-4.78505e-54
3.12109e-60
4.10445e-54
1.17412e-51
3.09171e-49
7.12397e-47
1.43898e-44
2.55639e-42
4.00977e-40
5.57264e-38
6.88418e-36
7.58321e-34
7.47249e-32
6.60635e-30
5.22073e-28
3.83843e-26
4.39482e-24
1.00871e-21
1.57684e-19
9.42293e-18
-1.0213e-58
-7.66007e-57
-1.72625e-55
-1.44864e-54
8.35591e-63
5.97964e-56
2.04471e-53
6.07244e-51
1.58314e-48
3.6293e-46
7.32681e-44
1.30534e-41
2.05717e-39
2.8752e-37
3.57353e-35
3.96093e-33
3.92728e-31
3.48303e-29
2.7691e-27
2.5184e-25
6.66215e-23
1.57087e-20
1.16836e-18
-2.55523e-59
-1.24853e-57
-2.44476e-56
-2.03919e-55
1.69008e-63
4.37348e-58
1.69642e-55
5.7589e-53
1.73958e-50
4.65239e-48
1.09866e-45
2.28964e-43
4.21532e-41
6.86944e-39
9.93314e-37
1.27768e-34
1.46631e-32
1.5059e-30
1.37232e-28
1.17461e-26
2.92929e-24
1.15943e-21
1.17345e-19
-1.02499e-66
-6.77643e-66
1.01242e-66
1.76575e-62
3.15318e-61
3.487e-61
1.72396e-58
7.92735e-56
3.30585e-53
1.22659e-50
4.01711e-48
1.15953e-45
2.95594e-43
6.67254e-41
1.28722e-38
1.99923e-36
2.76333e-34
3.4093e-32
3.72548e-30
4.10495e-28
2.14992e-25
5.72568e-23
7.24925e-21
-5.81078e-67
-5.09671e-66
-4.13961e-65
-1.97096e-64
9.3498e-85
2.27735e-66
2.54184e-63
1.6008e-60
9.19171e-58
4.65984e-55
2.05326e-52
7.80645e-50
2.54919e-47
7.11347e-45
1.68249e-42
3.35102e-40
6.32337e-38
1.27495e-35
1.51743e-32
9.87593e-29
1.28263e-26
1.26005e-24
2.77354e-22
-1.43107e-67
-8.44359e-67
-5.90198e-66
-3.03891e-65
0
4.54956e-76
1.25615e-69
1.4427e-66
1.29575e-63
1.05735e-60
8.26865e-58
5.66108e-55
3.40919e-52
1.81923e-49
8.68583e-47
3.76023e-44
1.50527e-41
5.70207e-39
2.69935e-36
1.08802e-31
7.19379e-29
3.84494e-27
2.86103e-25
-3.26667e-89
-1.36653e-86
-6.67447e-84
-4.36417e-81
-3.15839e-78
1.47934e-95
6.82556e-88
-4.02096e-80
-7.54198e-79
-1.5734e-75
-3.01591e-72
-4.21164e-69
-4.388e-67
3.22406e-62
1.44864e-58
3.45571e-54
1.00439e-50
1.43404e-47
4.96632e-41
5.49795e-35
2.43708e-31
1.60206e-29
2.04998e-28
8.01253e-100
-1.11676e-101
-6.35897e-99
-4.39409e-96
-4.38939e-93
0
-1.70768e-94
-1.93024e-93
-9.96963e-94
3.63446e-88
2.17395e-85
-9.24491e-82
-4.89627e-78
-2.38791e-74
-9.80869e-71
-3.49057e-67
-1.08328e-63
-2.94046e-60
-7.01673e-57
-1.47443e-53
3.33835e-41
1.65195e-35
3.96153e-33
0.999626
0.999627
0.999739
0.999996
0.999999
0.999808
0.99989
0.999999
0.999999
0.999998
0.999999
0.999999
0.999998
0.999998
0.999998
0.999999
0.963011
0.979868
0.989745
0.996461
0.0558016
0.105906
0.177127
0.298776
-3.32579e-09
-1.75154e-09
-7.71627e-10
-1.22952e-10
-2.41162e-09
-5.83748e-09
-7.37384e-09
-4.77022e-09
-1.24403e-12
-4.81464e-14
-1.30739e-11
-1.7188e-10
5.32968e-11
5.73442e-11
6.93895e-11
6.74405e-11
7.42274e-11
9.40527e-11
1.62575e-10
2.07142e-10
6.81488e-12
7.19034e-12
7.58691e-12
9.07556e-12
8.79908e-13
1.0394e-12
1.24964e-12
1.51285e-12
1.23961e-13
1.68767e-13
2.39119e-13
3.38543e-13
7.37808e-14
1.20366e-13
1.98456e-13
3.13173e-13
1.73531e-13
3.02587e-13
5.19505e-13
8.15405e-13
4.75034e-13
8.46054e-13
1.45574e-12
2.24005e-12
9.78966e-13
1.7642e-12
3.01789e-12
4.72667e-12
1.53377e-12
2.77021e-12
4.79044e-12
7.62902e-12
1.94792e-12
3.53171e-12
6.23332e-12
9.72681e-12
2.12708e-12
3.89749e-12
6.89974e-12
1.18396e-11
1.82219e-12
3.49201e-12
6.68924e-12
1.66971e-11
1.4043e-12
2.93452e-12
6.8335e-12
2.04134e-11
1.07756e-12
2.67346e-12
7.05674e-12
1.57576e-11
7.89369e-13
2.20148e-12
5.61067e-12
1.15086e-11
5.5097e-13
1.53209e-12
3.27346e-12
5.90929e-12
3.27869e-13
8.28508e-13
1.53913e-12
2.4856e-12
1.57225e-13
3.42465e-13
5.38476e-13
6.47714e-13
6.01729e-14
1.09867e-13
1.39563e-13
8.5381e-14
1.77645e-14
2.99841e-14
4.07948e-14
4.10552e-14
4.50331e-15
8.83062e-15
2.16561e-14
9.71124e-14
1.53021e-15
5.35085e-15
1.2546e-14
1.30065e-14
6.69484e-16
4.70944e-15
1.46411e-14
1.47245e-14
3.24146e-16
3.79189e-15
1.48708e-14
1.33969e-14
9.42944e-17
1.61676e-15
8.18609e-15
5.73496e-15
1.21334e-17
2.34572e-16
1.28576e-15
9.13929e-16
1.3107e-18
3.33288e-17
2.04924e-16
1.37276e-16
7.76099e-20
3.05303e-18
2.50758e-17
1.4891e-17
4.73309e-21
2.11455e-19
1.14789e-18
1.20939e-19
2.69434e-24
3.86252e-22
4.91229e-21
5.07444e-22
5.83787e-28
2.78726e-25
9.19427e-24
1.2226e-24
5.35279e-35
6.9731e-30
9.29182e-28
-3.42775e-31
0.933823
0.0409284
1.15103e-05
1.43748e-05
1.21246e-05
1.5978e-05
2.43672e-05
6.54771e-06
4.11159e-07
3.46851e-07
9.33083e-08
1.00507e-07
1.0992e-07
7.7036e-06
0.788322
0.998987
0.999061
0.999001
0.86496
0.946681
0.0933918
8.58488e-06
6.9005e-06
3.96606e-06
2.94381e-06
5.09573e-06
3.3635e-06
2.86509e-07
8.75052e-08
8.55441e-08
8.73067e-08
1.71993e-07
0.172086
0.919656
0.998656
0.998987
0.999006
0.867066
0.999999
0.572042
4.58441e-06
2.90368e-06
1.66033e-06
8.29969e-07
3.45186e-07
1.99145e-07
9.32425e-08
8.55441e-08
8.53491e-08
8.53736e-08
2.14859e-06
0.570956
0.983174
0.995821
0.998656
0.998967
0.868532
0.999999
0.999998
0.508932
4.54682e-06
1.98188e-06
4.92322e-07
1.59291e-07
9.36153e-08
8.61959e-08
8.53936e-08
8.54537e-08
-6.69814e-08
0.153942
0.864242
0.96882
0.94449
0.932079
0.988894
0.868199
0.999924
0.999938
0.999126
0.697154
0.236779
3.13591e-06
5.13825e-07
1.37642e-07
9.64101e-08
8.6416e-08
8.5423e-08
0.0212778
0.748534
0.906862
0.900072
0.631307
0.727649
0.96308
0.869617
0.69668
0.99993
0.999527
0.999123
0.946385
0.677891
0.298789
0.0211502
4.35342e-07
1.0906e-07
0.0421682
0.697442
0.91525
0.907706
0.538482
0.541972
0.752998
0.961533
0.871379
0.0134423
0.151876
0.493642
0.873023
0.954157
0.954157
0.939475
0.749654
0.478424
0.519304
0.802191
0.9228
0.919437
0.448415
0.45498
0.611998
0.958832
0.959118
0.865833
-3.24018e-09
-6.0614e-09
0.0039611
0.106707
0.382678
0.663332
0.841545
0.88184
0.899313
0.918249
0.9228
0.922435
0.416779
0.387841
0.739227
0.844993
0.791878
0.920588
0.91498
-1.86195e-09
-4.67498e-11
1.53225e-07
1.29637e-05
0.000279742
0.039997
0.159252
0.369518
0.546759
0.650076
0.667042
0.44299
0.33893
0.805576
0.862427
0.676467
0.130677
0.279194
0.868332
-9.1292e-12
-7.23071e-12
-4.43176e-09
1.18978e-07
1.65486e-06
2.56898e-05
0.000142894
0.00141128
0.0262712
0.070892
0.0949999
0.123889
0.711781
0.857058
0.862427
0.226802
0.0355637
0.034374
0.412052
2.03247e-10
7.86103e-12
1.35387e-11
1.38332e-09
8.84839e-08
1.42742e-06
1.2065e-05
8.1173e-05
0.000242639
0.000723739
0.00174617
0.0362888
0.390339
0.713571
0.78067
0.249984
0.0343762
0.0343327
0.0343333
1.19596e-11
5.567e-12
4.96482e-12
3.53141e-11
3.94816e-09
1.07269e-07
1.62453e-06
1.8331e-05
0.000109009
0.000300864
0.000845451
0.00956051
0.0191818
0.137973
0.362479
0.400327
0.217868
0.0343317
0.0343322
2.25169e-12
4.48319e-12
4.47295e-12
5.17209e-12
2.04721e-10
3.78453e-09
1.00051e-07
2.45464e-06
4.28199e-05
0.000179456
0.000269276
3.61323e-05
0.000153519
0.000706416
0.181465
0.40102
0.351603
0.0343792
0.0343333
6.50957e-13
1.91751e-12
4.21887e-12
4.48058e-12
1.18799e-11
3.40002e-10
3.11409e-09
1.25031e-06
2.97196e-05
4.41924e-05
2.77722e-05
9.04024e-06
8.03214e-06
2.5339e-05
0.0279173
0.288746
0.357826
0.24051
0.0343803
6.86502e-13
2.20216e-12
5.22636e-12
8.10935e-12
9.17959e-12
3.02763e-11
1.2901e-09
2.24335e-06
1.30376e-05
7.77729e-06
5.49298e-06
1.62984e-06
2.33179e-06
5.76109e-06
2.53638e-05
0.00813008
0.358947
0.370761
0.0822316
1.68706e-12
5.02181e-12
1.19953e-11
1.63192e-11
1.65786e-11
2.91282e-11
2.30258e-08
1.07484e-06
1.2175e-06
1.65444e-06
1.27252e-06
7.71536e-07
1.21555e-06
1.84264e-06
4.65319e-06
0.000216334
0.0865082
0.397563
0.405153
5.81959e-12
1.24909e-11
2.92229e-11
4.16483e-11
4.15937e-11
4.53006e-11
8.15635e-09
9.65646e-08
1.21249e-07
3.79515e-07
3.80204e-07
6.27964e-07
8.46659e-07
9.84931e-07
3.5818e-06
5.14524e-05
0.000210584
0.29844
0.405152
1.62514e-11
2.51685e-11
4.34159e-11
7.82808e-11
6.60746e-11
9.65421e-11
1.32007e-09
1.5275e-09
3.79442e-08
1.02999e-07
2.07871e-07
4.00891e-07
9.97937e-07
2.82355e-05
2.99573e-05
0.000271836
0.00105837
0.0207431
0.405189
2.82175e-11
3.33741e-11
4.44609e-11
1.35111e-10
7.2239e-11
7.85276e-11
3.22924e-10
5.8264e-10
8.73037e-09
3.68543e-08
1.32146e-07
1.7522e-07
5.26503e-07
0.000333494
0.00430187
0.00139478
0.00993204
0.0196919
0.405055
5.03585e-11
4.05709e-11
4.8479e-11
3.25176e-10
7.23413e-11
7.48938e-11
1.82056e-10
5.12162e-10
2.17017e-09
1.5415e-08
5.01426e-08
5.57372e-08
3.76071e-07
8.95798e-06
0.0124979
0.0832184
0.142963
0.0762672
0.403158
1.0648e-10
5.733e-11
4.85537e-11
9.47688e-10
1.80029e-09
7.09319e-10
2.18626e-10
1.07104e-09
5.95348e-09
1.0685e-08
1.51007e-08
6.78031e-08
1.61837e-07
2.71001e-06
0.0147927
0.191368
0.191226
0.191276
0.139706
1.49582e-10
6.36166e-11
6.06931e-11
2.9884e-09
1.12908e-08
6.30285e-09
6.18376e-10
1.611e-09
1.33115e-08
1.34057e-08
1.1825e-08
1.08471e-07
1.13619e-07
2.64389e-07
0.0068994
0.126214
0.191379
0.191157
0.0358904
1.51469e-10
9.205e-11
3.30383e-10
6.84635e-09
1.38378e-08
1.2438e-08
2.47709e-09
1.50971e-09
1.30606e-08
1.11574e-08
4.57298e-09
5.98346e-07
0.000101893
6.7856e-05
0.0004951
4.39243e-05
0.191157
0.185695
0.0355341
9.73603e-11
2.3148e-10
6.33226e-10
7.0121e-09
1.38378e-08
1.13137e-08
6.60131e-09
1.50971e-09
7.29562e-09
5.58568e-09
4.46283e-09
4.57298e-09
0.0003688
0.000153497
6.20722e-06
6.88219e-06
0.166412
0.0658189
0.0355267
5.0604e-11
2.34431e-10
5.31618e-10
4.63586e-09
1.38378e-08
1.3738e-08
1.22216e-08
3.68515e-08
6.66956e-09
4.46279e-09
4.44582e-09
4.31476e-05
0.000369683
0.000195955
2.764e-06
5.39108e-06
0.0130907
0.0264353
0.034883
2.87154e-11
1.48858e-10
2.69611e-10
1.99988e-09
8.96922e-09
1.60947e-08
1.55527e-08
6.57914e-08
9.82912e-09
4.44604e-09
4.44349e-09
0.000136677
0.000364819
5.99822e-05
1.68482e-06
2.76387e-06
0.00885424
0.141183
0.035897
1.34107e-11
6.55391e-11
2.92104e-10
2.09822e-09
3.98333e-09
1.60521e-08
1.38628e-08
2.75282e-08
6.95067e-09
4.44358e-09
4.4434e-09
0.00012485
5.63322e-05
1.79425e-06
1.65116e-06
1.68387e-06
0.105867
0.191009
0.0551068
5.6259e-12
3.46541e-11
4.45723e-10
2.7188e-09
3.4531e-09
7.17346e-09
6.0138e-09
7.19591e-08
4.52755e-09
4.44332e-09
4.4434e-09
9.29743e-06
1.41655e-06
1.62196e-06
1.64586e-06
1.6469e-06
0.182145
0.191109
0.126047
2.5172e-12
2.06931e-11
4.12061e-10
2.46134e-09
3.17365e-09
3.17855e-09
3.43949e-09
9.33862e-08
4.45904e-09
4.4434e-09
4.44332e-09
4.44339e-09
1.29343e-06
1.62237e-06
1.63165e-06
0.00475958
0.191109
0.191109
0.163301
1.89096e-12
1.43548e-11
2.04568e-10
1.11396e-09
9.58506e-10
1.4688e-07
3.61164e-09
4.15336e-09
3.13804e-06
3.81045e-06
5.2757e-06
4.61791e-06
2.81336e-06
1.63165e-06
1.64773e-06
0.0382782
0.191088
0.191109
0.104535
1.89574e-12
7.89489e-12
3.65773e-11
1.40483e-10
4.33278e-11
4.46583e-07
3.27589e-06
5.81422e-07
6.16168e-06
6.22551e-06
6.22551e-06
6.22551e-06
3.55021e-06
1.67204e-06
1.65473e-06
0.0252003
0.190283
0.191088
0.103814
2.37543e-12
1.15825e-11
3.24664e-11
3.84405e-11
4.09016e-11
3.66512e-07
1.08662e-05
1.12817e-05
4.29884e-06
3.81752e-06
3.32772e-06
2.48273e-06
1.7951e-06
1.7284e-06
1.67904e-06
1.75049e-06
0.0868202
0.190584
0.103681
3.37954e-12
3.23373e-11
1.16093e-10
1.49968e-10
4.33278e-11
2.04492e-08
9.33797e-06
1.13243e-05
2.76222e-06
2.0081e-06
1.91272e-06
1.86734e-06
1.83979e-06
1.7726e-06
2.32001e-06
1.61221e-06
0.00491458
0.189264
0.104438
4.2886e-12
6.32123e-11
2.73097e-10
3.97461e-10
4.36122e-11
4.03617e-11
1.07798e-06
4.5294e-06
2.15345e-05
2.11626e-06
3.02901e-05
0.000129728
0.000195222
0.000150505
2.73364e-05
1.30906e-06
9.33599e-08
0.131909
0.122435
3.32525e-12
6.22275e-11
2.97872e-10
4.89484e-10
7.47022e-11
6.10664e-11
2.69839e-11
9.78537e-09
1.65739e-05
0.000270048
0.000452774
0.000475392
0.000475681
0.000450743
5.27634e-05
1.4285e-07
4.19466e-08
0.00869225
0.0911137
5.05437e-13
1.98616e-11
1.91525e-10
4.98082e-10
3.96878e-10
6.32253e-10
4.41005e-10
2.27936e-09
1.14668e-08
0.000299282
0.000475321
0.000475698
0.000475629
0.00042132
3.55745e-05
4.19441e-08
6.63022e-09
4.19466e-08
0.0627281
7.39025e-14
2.85218e-12
5.482e-11
3.96876e-10
9.85853e-10
1.45701e-09
2.00235e-08
2.99368e-09
1.86626e-09
2.75968e-05
0.000173101
0.000450344
0.000384314
0.000106767
1.54365e-07
5.31038e-09
1.10249e-09
0.00099684
0.0181754
1.18301e-14
6.86581e-13
1.42081e-11
1.67563e-10
8.46928e-10
1.58935e-09
2.35565e-08
2.94227e-09
2.6486e-10
9.41845e-10
9.76669e-08
2.71562e-05
1.61843e-05
3.57089e-06
5.42512e-07
4.91044e-10
2.57735e-10
1.97913e-10
1.98989e-10
1.07229e-15
1.09273e-13
2.74611e-12
3.06223e-11
2.89018e-10
1.07557e-09
9.03147e-09
2.18309e-09
1.72718e-10
6.9903e-11
2.30976e-09
5.31622e-09
1.07047e-09
1.08116e-08
6.2065e-10
6.45128e-10
1.13727e-09
4.84239e-10
1.97913e-10
5.27782e-18
1.62829e-15
1.28447e-13
3.61152e-12
5.47508e-11
3.73443e-10
3.40888e-10
1.2095e-09
1.87023e-10
1.10268e-10
2.87207e-11
6.19046e-11
1.13586e-10
4.56317e-10
6.12809e-10
6.71674e-10
5.86633e-10
2.91136e-10
1.98389e-10
2.51203e-20
7.10585e-18
1.75114e-15
2.70164e-13
7.91198e-12
4.84935e-11
2.59862e-11
3.52977e-10
8.86565e-11
2.63689e-11
1.93608e-11
4.46567e-12
5.94349e-11
2.05408e-10
6.23516e-10
7.31885e-10
4.93605e-10
2.92691e-10
2.72044e-05
9.63103e-23
4.72718e-20
1.40953e-17
4.50816e-15
2.46939e-13
1.2915e-12
2.25147e-12
1.6602e-11
2.21613e-11
2.15114e-11
1.43425e-11
2.3321e-12
2.23517e-12
3.82786e-12
6.95797e-11
7.08908e-11
9.3345e-29
2.03739e-08
3.6165e-05
)
;

boundaryField
{
    leftWall
    {
        type            zeroGradient;
    }
    rightWall
    {
        type            zeroGradient;
    }
    lowerWall
    {
        type            zeroGradient;
    }
    atmosphere
    {
        type            inletOutlet;
        inletValue      uniform 0;
        value           nonuniform List<scalar> 
46
(
8.01253e-100
0
0
0
0
0
0
0
0
0
0
0
0
0
0
0
0
0
0
0
0
0
0
0
0
0
0
9.63103e-23
4.72718e-20
1.40953e-17
4.50816e-15
2.46939e-13
1.2915e-12
2.25147e-12
1.6602e-11
2.21613e-11
2.15114e-11
1.43425e-11
2.3321e-12
2.23517e-12
0
0
0
0
0
3.6165e-05
)
;
    }
    defaultFaces
    {
        type            empty;
    }
}


// ************************************************************************* //
