/*--------------------------------*- C++ -*----------------------------------*\
  =========                 |
  \\      /  F ield         | OpenFOAM: The Open Source CFD Toolbox
   \\    /   O peration     | Website:  https://openfoam.org
    \\  /    A nd           | Version:  7
     \\/     M anipulation  |
\*---------------------------------------------------------------------------*/
FoamFile
{
    version     2.0;
    format      ascii;
    class       volScalarField;
    location    "0.004";
    object      T;
}
// * * * * * * * * * * * * * * * * * * * * * * * * * * * * * * * * * * * * * //

dimensions      [0 0 0 1 0 0 0];

internalField   nonuniform List<scalar> 
1000
(
179.35
215.446
267.434
275.397
276.11
276.206
276.232
276.225
276.171
276.09
276.048
276.043
276.046
276.048
276.039
276.018
275.985
275.917
275.852
275.819
275.8
275.786
275.773
275.748
275.684
275.587
275.479
275.393
275.332
275.274
275.199
275.092
274.948
274.766
274.563
274.353
274.117
273.823
273.512
273.354
273.32
273.323
273.347
273.416
273.581
273.841
274.219
274.701
275.257
275.86
276.486
277.12
277.756
278.393
279.032
279.674
280.319
280.969
281.623
282.282
282.946
283.614
284.285
284.959
285.637
286.316
286.998
287.681
288.366
289.052
289.739
290.427
291.117
291.807
292.498
293.189
293.882
294.575
295.269
295.964
296.659
297.356
298.053
298.75
299.449
300.148
300.848
301.549
302.25
302.952
303.655
304.359
305.063
305.769
306.475
307.182
307.89
308.599
309.309
310.019
310.731
311.444
312.158
312.872
313.588
314.305
315.023
315.743
316.463
317.185
317.908
318.632
319.358
320.084
320.813
321.542
322.273
323.006
323.74
324.475
325.212
325.951
326.692
327.434
328.178
328.924
329.672
330.422
331.174
331.928
332.685
333.443
334.204
334.968
335.733
336.501
337.273
338.052
338.847
339.678
340.581
341.624
342.922
344.621
346.468
347.607
348.087
348.286
348.37
348.406
348.421
348.427
348.43
348.431
348.432
348.432
348.432
348.432
348.432
348.432
348.432
348.432
348.432
348.432
348.432
348.432
348.432
348.432
348.432
348.432
348.432
348.432
348.432
348.432
348.432
348.432
348.432
348.432
348.432
348.432
348.432
348.432
348.432
348.432
348.432
348.432
348.432
348.432
348.432
348.432
348.432
348.432
348.432
348.432
348.432
348.432
348.432
348.432
348.432
348.432
348.432
348.432
348.432
348.432
348.432
348.432
348.432
348.432
348.432
348.432
348.432
348.432
348.432
348.432
348.432
348.432
348.432
348.432
348.432
348.432
348.432
348.432
348.432
348.432
348.432
348.432
348.432
348.432
348.432
348.432
348.432
348.432
348.432
348.432
348.432
348.432
348.432
348.432
348.432
348.432
348.432
348.432
348.432
348.432
348.432
348.432
348.432
348.432
348.432
348.432
348.432
348.432
348.432
348.432
348.432
348.432
348.432
348.432
348.432
348.432
348.432
348.432
348.432
348.432
348.432
348.432
348.432
348.432
348.432
348.432
348.432
348.432
348.432
348.432
348.432
348.432
348.432
348.432
348.432
348.432
348.432
348.432
348.432
348.432
348.432
348.432
348.432
348.432
348.432
348.432
348.432
348.432
348.432
348.432
348.432
348.432
348.432
348.432
348.432
348.432
348.432
348.432
348.432
348.432
348.432
348.432
348.432
348.432
348.432
348.432
348.432
348.432
348.432
348.432
348.432
348.432
348.432
348.432
348.432
348.432
348.432
348.432
348.432
348.432
348.432
348.432
348.432
348.432
348.432
348.432
348.432
348.432
348.432
348.432
348.432
348.432
348.432
348.432
348.432
348.432
348.432
348.432
348.432
348.432
348.432
348.432
348.431
348.431
348.429
348.425
348.414
348.391
348.335
348.205
347.892
347.132
345.556
343.699
342.222
341.077
340.119
339.259
338.45
337.665
336.89
336.119
335.351
334.584
333.819
333.056
332.295
331.536
330.779
330.024
329.271
328.519
327.769
327.02
326.274
325.528
324.784
324.042
323.3
322.56
321.822
321.084
320.348
319.613
318.879
318.146
317.415
316.684
315.955
315.226
314.499
313.772
313.047
312.323
311.599
310.877
310.156
309.435
308.716
307.997
307.28
306.563
305.847
305.132
304.418
303.705
302.993
302.281
301.571
300.861
300.152
299.444
298.737
298.031
297.326
296.621
295.917
295.214
294.512
293.811
293.11
292.411
291.712
291.014
290.316
289.62
288.924
288.229
287.535
286.842
286.149
285.458
284.767
284.076
283.387
282.698
282.011
281.324
280.637
279.952
279.267
278.583
277.9
277.218
276.536
275.855
275.176
274.496
273.818
273.14
272.464
271.788
271.112
270.438
269.765
269.092
268.42
267.749
267.079
266.41
265.741
265.074
264.407
263.741
263.077
262.413
261.75
261.088
260.427
259.767
259.108
258.45
257.793
257.137
256.483
255.829
255.177
254.526
253.876
253.228
252.582
251.939
251.3
250.669
250.053
249.465
248.928
248.473
248.129
247.901
247.77
247.696
247.643
247.593
247.551
247.525
247.519
247.517
247.519
247.523
247.524
247.524
247.525
247.526
247.528
247.538
247.562
247.585
247.593
247.597
247.601
247.602
247.603
247.605
247.613
247.628
247.638
247.647
247.652
247.652
247.651
247.651
247.657
247.674
247.693
247.704
247.703
247.698
247.676
247.651
247.637
247.633
247.63
247.626
247.617
247.602
247.587
247.584
247.583
247.587
247.595
247.594
247.592
247.586
247.578
247.576
247.574
247.579
247.591
247.595
247.594
247.593
247.59
247.589
247.588
247.595
247.608
247.613
247.612
247.61
247.608
247.605
247.606
247.613
247.614
247.612
247.603
247.584
247.566
247.553
247.545
247.546
247.553
247.55
247.545
247.534
247.521
247.511
247.5
247.505
247.515
247.513
247.508
247.5
247.49
247.481
247.47
247.479
247.489
247.486
247.479
247.471
247.46
247.446
247.431
247.442
247.442
247.436
247.43
247.43
247.429
247.43
247.458
247.538
247.682
247.955
248.486
249.489
251.322
254.617
260.445
270.517
287.508
314.366
347.369
375.932
391.384
397.331
398.391
398.621
399.114
399.441
399.643
399.887
400.499
400.653
400.182
399.322
398.121
396.771
396.192
395.971
395.927
396.355
397.439
397.868
398.089
398.233
398.027
397.409
397.379
397.583
397.852
398.321
398.943
399.026
398.869
398.504
397.812
396.94
396.635
396.551
396.581
397.012
397.77
398.059
398.23
398.317
398.131
397.65
397.583
397.618
397.698
397.949
398.325
398.348
398.199
397.958
397.555
397.048
396.913
396.91
396.997
397.363
397.931
398.165
398.282
398.324
398.17
397.779
397.684
397.66
397.65
397.761
398.029
398.055
397.961
397.82
397.593
397.283
397.213
397.243
397.356
397.617
398.007
398.167
398.215
398.221
398.099
397.781
397.656
397.607
397.577
397.617
397.811
397.859
397.814
397.739
397.631
397.446
397.398
397.451
397.576
397.764
397.804
397.552
394.73
371.955
303.909
280.553
278.881
278.756
278.747
278.746
278.746
278.746
278.746
278.746
278.746
278.746
278.746
278.746
278.746
278.746
278.746
278.746
278.746
278.746
278.746
278.746
278.746
278.746
278.746
278.746
278.746
278.746
278.746
278.746
278.746
278.746
278.746
278.746
278.746
278.746
278.746
278.746
278.746
278.746
278.746
278.746
278.746
278.746
278.746
278.746
278.746
278.746
278.746
278.746
278.746
278.746
278.746
278.746
278.746
278.746
278.746
278.746
278.746
278.746
278.746
278.746
278.746
278.746
278.746
278.746
278.746
278.746
278.746
278.746
278.746
278.746
278.746
278.746
278.746
278.746
278.746
278.746
278.746
278.746
278.746
278.746
278.746
278.746
278.746
278.746
278.746
278.746
278.746
278.746
278.746
278.746
278.746
278.746
278.746
278.746
278.746
278.746
278.746
278.746
278.746
278.746
278.746
278.746
278.746
278.746
278.746
278.746
278.746
278.746
278.746
278.746
278.746
278.746
278.746
278.746
278.746
278.746
278.746
278.746
278.746
278.746
278.746
278.746
278.746
278.746
278.746
278.746
278.746
278.746
278.746
278.746
278.746
278.746
278.746
278.746
278.746
278.746
278.745
278.745
278.743
278.739
278.73
278.71
278.665
278.564
278.337
277.816
276.752
275.363
274.145
273.154
272.306
271.535
270.806
270.098
269.401
268.71
268.023
267.34
266.659
265.981
265.306
264.633
263.962
263.294
262.627
261.963
261.3
260.639
259.98
259.322
258.666
258.011
257.358
256.706
256.056
255.407
254.76
254.113
253.468
252.824
252.182
251.54
250.9
250.261
249.623
248.986
248.35
247.715
247.081
246.448
245.816
245.184
244.554
243.925
243.296
242.668
242.041
241.415
240.789
240.164
239.54
238.917
238.294
237.673
237.052
236.431
235.812
235.193
234.575
233.958
233.341
232.726
232.112
231.498
230.886
230.275
229.666
229.058
228.453
227.85
227.25
226.654
226.061
225.474
224.891
224.313
223.74
223.171
222.606
222.044
221.487
220.937
220.406
219.912
219.48
219.133
218.894
218.739
218.67
218.649
218.646
218.679
218.827
219.081
219.296
219.461
219.608
219.762
219.917
220.048
220.146
220.213
220.259
220.297
220.348
220.427
220.518
220.587
220.622
220.631
220.64
220.648
220.661
220.693
220.76
220.811
220.84
220.849
220.843
220.825
220.817
220.801
220.409
214.104
173.024
144.186
)
;

boundaryField
{
    sides
    {
        type            zeroGradient;
    }
    null
    {
        type            empty;
    }
}


// ************************************************************************* //
