/*--------------------------------*- C++ -*----------------------------------*\
  =========                 |
  \\      /  F ield         | OpenFOAM: The Open Source CFD Toolbox
   \\    /   O peration     | Website:  https://openfoam.org
    \\  /    A nd           | Version:  7
     \\/     M anipulation  |
\*---------------------------------------------------------------------------*/
FoamFile
{
    version     2.0;
    format      ascii;
    class       volScalarField;
    location    "0.00108/fluid";
    object      rho;
}
// * * * * * * * * * * * * * * * * * * * * * * * * * * * * * * * * * * * * * //

dimensions      [1 -3 0 0 0 0 0];

internalField   nonuniform List<scalar> 
100
(
0.000422582682932601
0.000422582682932601
0.000422582682932601
0.000422582682932601
0.0004225826829326
0.0004225826829326
0.0004225826829326
0.0004225826829326
0.0004225826829326
0.0004225826829326
0.0004225826829326
0.0004225826829326
0.0004225826829326
0.0004225826829326
0.0004225826829326
0.0004225826829326
0.000422582682932601
0.0004225826829326
0.0004225826829326
0.000422582682932599
0.000422582682932593
0.000422582682932561
0.000422582682932379
0.000422582682931336
0.0004225826829253
0.000422582682890102
0.000422582682683637
0.000422582681468666
0.000422582674316258
0.000422582632316936
0.000422582386963317
0.000422580964253187
0.000422572768716569
0.000422526193927253
0.000422284352122677
0.000422068845173329
0.000422020919113611
0.000422014342630536
0.000422017155094411
0.000422044787087609
0.000422059401511083
0.00042205998792323
0.000422047106867287
0.000421950176250021
0.000421545763772161
0.000421260973227296
0.000421144150430549
0.000421055509194432
0.000420897562433087
0.000420306084944273
0.000418241834631374
0.000416994489559957
0.000416814009492427
0.000416618906110354
0.000416532608305946
0.000416654927561635
0.00041682543049476
0.000417296076243539
0.000419930711468619
0.000423568660308636
0.00042498741284703
0.000424787206719632
0.000425077433585718
0.000425819508229041
0.000426448230516754
0.000425973389985381
0.0004257148036621
0.000425803333146588
0.000425634571625444
0.000425436840878264
0.00042588191291636
0.00042686401033947
0.000427360587786711
0.000427193041730302
0.000427254648412093
0.000427269971994798
0.000426359271705358
0.000422999139799471
0.000420937263540909
0.000421615632513397
0.000423066954442406
0.000423433890216438
0.000423905313597323
0.000423824239625423
0.000423333222164537
0.00042321278422982
0.000423722993301511
0.000424475851367284
0.000424333056222857
0.000423036802439014
0.000421162887297001
0.000420753071663727
0.000421542102589029
0.000424092848989971
0.000424690932611318
0.000423683074296715
0.000422777840486796
0.000423442616551241
0.000424825607957451
0.000430653464848307
)
;

boundaryField
{
    fluidSide
    {
        type            calculated;
        value           uniform 0.000422582682932601;
    }
    fluidBound
    {
        type            calculated;
        value           uniform 0.000422031250968453;
    }
    nullDims
    {
        type            empty;
    }
}


// ************************************************************************* //
