/*--------------------------------*- C++ -*----------------------------------*\
  =========                 |
  \\      /  F ield         | OpenFOAM: The Open Source CFD Toolbox
   \\    /   O peration     | Website:  https://openfoam.org
    \\  /    A nd           | Version:  7
     \\/     M anipulation  |
\*---------------------------------------------------------------------------*/
FoamFile
{
    version     2.0;
    format      ascii;
    class       volVectorField;
    location    "0.00108/fluid";
    object      U;
}
// * * * * * * * * * * * * * * * * * * * * * * * * * * * * * * * * * * * * * //

dimensions      [0 1 -1 0 0 0 0];

internalField   nonuniform List<vector> 
100
(
(-1.26139320196773e-13 0 0)
(-1.58505193095896e-13 0 0)
(-2.84073120964477e-13 0 0)
(-3.561693628525e-13 0 0)
(-2.02806675215013e-13 0 0)
(-2.38357883322778e-13 0 0)
(-5.47646968513109e-13 0 0)
(-5.84680042758283e-13 0 0)
(-5.07166120382582e-13 0 0)
(-6.41842061877887e-13 0 0)
(-7.93156675503716e-13 0 0)
(-7.30165318294343e-13 0 0)
(-5.40604649956556e-13 0 0)
(-6.29115906436525e-13 0 0)
(-5.7130429638812e-13 0 0)
(-6.42494586005733e-13 0 0)
(-5.68401346171146e-13 0 0)
(-5.26847537181388e-13 0 0)
(-3.62395078354216e-13 0 0)
(1.1549017862655e-12 0 0)
(9.22647007082718e-12 0 0)
(5.44131777710024e-11 0 0)
(3.13012938303831e-10 0 0)
(1.79523598801864e-09 0 0)
(1.03707265916536e-08 0 0)
(6.03815948687655e-08 0 0)
(3.53728643281065e-07 0 0)
(2.07997271396004e-06 0 0)
(1.22421920806674e-05 0 0)
(7.1915285510802e-05 0 0)
(0.000420516369189257 0 0)
(0.00244191899320493 0 0)
(0.0140862709435095 0 0)
(0.0802617930491398 0 0)
(0.423964568261525 0 0)
(0.730433279714011 0 0)
(0.798594141577587 0 0)
(0.807949623527222 0 0)
(0.803947653786105 0 0)
(0.764644651466126 0 0)
(0.74385940892696 0 0)
(0.743025181960514 0 0)
(0.761345326529976 0 0)
(0.899210681587347 0 0)
(1.47465150176554 0 0)
(1.88296348612737 0 0)
(2.0394910346764 0 0)
(2.17429087224401 0 0)
(2.40569272771466 0 0)
(3.24458091872634 0 0)
(6.18650874288748 0 0)
(7.89042128305025 0 0)
(8.51028866001494 0 0)
(8.38138484031947 0 0)
(8.4692137259837 0 0)
(8.56431057964276 0 0)
(8.40485770485721 0 0)
(7.56550792128504 0 0)
(3.57707850166186 0 0)
(-1.62315306324531 0 0)
(-2.54529158589785 0 0)
(-3.59592825176042 0 0)
(-4.26864780982906 0 0)
(-4.19910240452531 0 0)
(-4.60506919635027 0 0)
(-5.28830651305816 0 0)
(-5.06809861724434 0 0)
(-4.30859128210926 0 0)
(-3.60207030770715 0 0)
(-4.27456495087261 0 0)
(-5.3370930343726 0 0)
(-5.91440283855345 0 0)
(-6.09175967017145 0 0)
(-6.71054237153001 0 0)
(-7.16839106406711 0 0)
(-6.55176279288079 0 0)
(-4.82236555589155 0 0)
(-0.344298402092888 0 0)
(1.10344815685795 0 0)
(1.89511902464453 0 0)
(0.302715911724688 0 0)
(-2.12671959331079 0 0)
(-1.95062508077035 0 0)
(-1.38728752905391 0 0)
(-1.00755987123453 0 0)
(-1.09035480495111 0 0)
(-1.73480995023372 0 0)
(-2.42356355654962 0 0)
(-2.5977775091725 0 0)
(-0.78392759200227 0 0)
(2.29216281955313 0 0)
(2.51849253749693 0 0)
(1.36913036949249 0 0)
(-2.1983975077475 0 0)
(-2.64960418367486 0 0)
(-1.27416278625175 0 0)
(-0.375572767909217 0 0)
(-1.11393647077321 0 0)
(-3.51727389219034 0 0)
(5.39416397436571 0 0)
)
;

boundaryField
{
    fluidSide
    {
        type            zeroGradient;
    }
    fluidBound
    {
        type            codedFixedValue;
        value           uniform (-10.0418438345791 1.39085896000006 16.8493459800904);
        name            HPCFluidU;
    }
    nullDims
    {
        type            empty;
    }
}


// ************************************************************************* //
