/*--------------------------------*- C++ -*----------------------------------*\
  =========                 |
  \\      /  F ield         | OpenFOAM: The Open Source CFD Toolbox
   \\    /   O peration     | Website:  https://openfoam.org
    \\  /    A nd           | Version:  7
     \\/     M anipulation  |
\*---------------------------------------------------------------------------*/
FoamFile
{
    version     2.0;
    format      ascii;
    class       volVectorField;
    location    "0.00108/fluid";
    object      U;
}
// * * * * * * * * * * * * * * * * * * * * * * * * * * * * * * * * * * * * * //

dimensions      [0 1 -1 0 0 0 0];

internalField   nonuniform List<vector> 
100
(
(2.00000000000037 0 0)
(2.00000000000035 0 0)
(2.00000000000042 0 0)
(2.00000000000049 0 0)
(2.00000000000045 0 0)
(2.0000000000004 0 0)
(2.00000000000042 0 0)
(2.00000000000049 0 0)
(2.00000000000051 0 0)
(2.00000000000057 0 0)
(2.00000000000058 0 0)
(2.00000000000047 0 0)
(2.00000000000042 0 0)
(2.00000000000042 0 0)
(2.00000000000041 0 0)
(2.0000000000004 0 0)
(2.00000000000026 0 0)
(2.0000000000002 0 0)
(2.00000000000022 0 0)
(2.00000000000033 0 0)
(2.00000000000037 0 0)
(2.00000000000034 0 0)
(2.00000000000017 0 0)
(2.00000000000011 0 0)
(2.0000000000001 0 0)
(2.00000000000003 0 0)
(2.00000000000005 0 0)
(2.00000000000005 0 0)
(2.00000000000005 0 0)
(1.99999999999998 0 0)
(2.00000000000001 0 0)
(1.99999999999998 0 0)
(2 0 0)
(2.00000000000003 0 0)
(1.99999999999995 0 0)
(1.99999999999994 0 0)
(1.99999999999995 0 0)
(2 0 0)
(2.00000000000003 0 0)
(2.00000000000001 0 0)
(1.99999999999997 0 0)
(1.99999999999982 0 0)
(1.99999999999983 0 0)
(1.99999999999986 0 0)
(1.99999999999985 0 0)
(1.99999999999982 0 0)
(1.9999999999998 0 0)
(1.99999999999986 0 0)
(1.99999999999997 0 0)
(1.99999999999991 0 0)
(1.99999999999992 0 0)
(1.99999999999994 0 0)
(1.99999999999988 0 0)
(1.99999999999982 0 0)
(1.99999999999977 0 0)
(1.99999999999983 0 0)
(1.99999999999996 0 0)
(1.99999999999985 0 0)
(1.99999999999986 0 0)
(1.99999999999986 0 0)
(1.99999999999993 0 0)
(2 0 0)
(2.00000000000005 0 0)
(2 0 0)
(1.99999999999992 0 0)
(1.99999999999979 0 0)
(1.99999999999986 0 0)
(1.99999999999986 0 0)
(1.9999999999998 0 0)
(1.99999999999985 0 0)
(1.99999999999985 0 0)
(1.99999999999977 0 0)
(1.99999999999978 0 0)
(1.99999999999986 0 0)
(1.99999999999996 0 0)
(1.99999999999998 0 0)
(2.00000000000001 0 0)
(1.99999999999994 0 0)
(1.99999999999986 0 0)
(1.99999999999989 0 0)
(1.99999999999994 0 0)
(1.99999999999988 0 0)
(1.99999999999986 0 0)
(1.99999999999988 0 0)
(1.99999999999982 0 0)
(1.99999999999979 0 0)
(1.99999999999983 0 0)
(1.99999999999983 0 0)
(1.99999999999983 0 0)
(1.99999999999986 0 0)
(1.99999999999986 0 0)
(1.99999999999986 0 0)
(1.99999999999979 0 0)
(1.9999999999998 0 0)
(1.99999999999983 0 0)
(1.99999999999985 0 0)
(1.99999999999986 0 0)
(1.99999999999984 0 0)
(1.99999999999979 0 0)
(1.9999999999998 0 0)
)
;

boundaryField
{
    fluidSide
    {
        type            zeroGradient;
    }
    fluidBound
    {
        type            zeroGradient;
    }
    nullDims
    {
        type            empty;
    }
}


// ************************************************************************* //
