/*--------------------------------*- C++ -*----------------------------------*\
  =========                 |
  \\      /  F ield         | OpenFOAM: The Open Source CFD Toolbox
   \\    /   O peration     | Website:  https://openfoam.org
    \\  /    A nd           | Version:  7
     \\/     M anipulation  |
\*---------------------------------------------------------------------------*/
FoamFile
{
    version     2.0;
    format      ascii;
    class       volScalarField;
    location    "0.00072";
    object      iDof;
}
// * * * * * * * * * * * * * * * * * * * * * * * * * * * * * * * * * * * * * //

dimensions      [0 -3 0 0 0 0 0];

internalField   nonuniform List<scalar> 
125
(
8.07143e+22
1.02143e+23
9.21429e+22
9.35714e+22
8.42857e+22
8.35714e+22
7.35714e+22
8.78571e+22
1.01429e+23
8.14286e+22
1.10714e+23
9.35714e+22
9.42857e+22
1.02143e+23
8.64286e+22
8.71429e+22
9.5e+22
9.92857e+22
9.78571e+22
1.10714e+23
1.08571e+23
1.10714e+23
1.29286e+23
1.24286e+23
1.37857e+23
1.37857e+23
1.20714e+23
1.25714e+23
1.32143e+23
1.32857e+23
1.30714e+23
1.21429e+23
1.19286e+23
1.12143e+23
5.78571e+22
6.14286e+22
5.07143e+22
5.07143e+22
4.42857e+22
5.71429e+22
4.78571e+22
6.57143e+22
6e+22
4.42857e+22
5.21429e+22
5.14286e+22
6.35714e+22
4.21429e+22
5.21429e+22
5.71429e+22
4.92857e+22
5.64286e+22
4.14286e+22
4.78571e+22
4.64286e+22
5.21429e+22
3.85714e+22
5.35714e+22
6.14286e+22
5.42857e+22
6e+22
4.5e+22
4.5e+22
5.07143e+22
5.5e+22
4.92857e+22
5.14286e+22
5.57143e+22
5.5e+22
5.85714e+22
4.85714e+22
5.42857e+22
4.92857e+22
5.21429e+22
6.64286e+22
4.57143e+22
4.64286e+22
5.64286e+22
6.42857e+22
5.64286e+22
6.14286e+22
6.07143e+22
5.21429e+22
4.71429e+22
4.71429e+22
5.35714e+22
4.42857e+22
5.28571e+22
4.28571e+22
6.71429e+22
5.92857e+22
4.92857e+22
5.42857e+22
4.42857e+22
3.71429e+22
5e+22
5.5e+22
6.07143e+22
4.35714e+22
5.42857e+22
6.07143e+22
4.28571e+22
5.35714e+22
5.42857e+22
5.78571e+22
5.14286e+22
5.42857e+22
4.92857e+22
5.92857e+22
6.14286e+22
5.21429e+22
5.71429e+22
4.35714e+22
4.92857e+22
6.14286e+22
6.21429e+22
6.85714e+22
5.57143e+22
4.64286e+22
5.28571e+22
4.5e+22
5.57143e+22
4.85714e+22
6.07143e+22
4.85714e+22
)
;

boundaryField
{
    sides
    {
        type            symmetry;
    }
    empty
    {
        type            empty;
    }
    procBoundary2to1
    {
        type            processor;
        value           uniform 9.28571e+22;
    }
    procBoundary2to3
    {
        type            processor;
        value           uniform 5.78571e+22;
    }
}


// ************************************************************************* //
