/*--------------------------------*- C++ -*----------------------------------*\
  =========                 |
  \\      /  F ield         | OpenFOAM: The Open Source CFD Toolbox
   \\    /   O peration     | Website:  https://openfoam.org
    \\  /    A nd           | Version:  7
     \\/     M anipulation  |
\*---------------------------------------------------------------------------*/
FoamFile
{
    version     2.0;
    format      ascii;
    class       volScalarField;
    location    "0.00072";
    object      linearKE;
}
// * * * * * * * * * * * * * * * * * * * * * * * * * * * * * * * * * * * * * //

dimensions      [1 -1 -2 0 0 0 0];

internalField   nonuniform List<scalar> 
125
(
782.068
933.511
955.354
803.562
730.439
752.383
629.944
784
911.344
674.702
991.997
857.726
771.707
975.253
858.616
765.839
767.838
869.151
744.051
923.341
806.59
862.034
1004.48
904.04
834.597
997.177
785.033
844.519
918.021
837.812
895.2
803.191
805.506
693.741
201.038
191.814
173.332
166.924
120.328
178.772
163.333
199.157
207.177
157.338
143.181
155.859
186.634
131.09
170.324
181.071
136.706
192.7
134.345
141.928
147.993
167.924
157.524
163.112
179.646
165.383
207.327
140.241
161.424
165.222
175.523
129.757
141.656
150.275
155.586
172.121
167.439
157.355
141.661
203.789
218.165
158.882
154.941
173.505
205.507
174.168
189.822
188.13
140.031
153.577
145.587
157.676
142.597
152.339
136.512
202.979
200.763
153.492
174.842
133.275
133.726
179.385
167.575
189.652
128.281
174.772
199.701
136.389
165.874
188.431
195.088
168.47
140.576
142.767
144.81
203.252
180.824
175.944
131.854
168.951
181.874
194.457
233.482
159.088
167.483
174.856
165.37
199.218
120.949
196.07
122.996
)
;

boundaryField
{
    sides
    {
        type            symmetry;
    }
    empty
    {
        type            empty;
    }
    procBoundary2to1
    {
        type            processor;
        value           uniform 779.628;
    }
    procBoundary2to3
    {
        type            processor;
        value           uniform 205.121;
    }
}


// ************************************************************************* //
