/*--------------------------------*- C++ -*----------------------------------*\
  =========                 |
  \\      /  F ield         | OpenFOAM: The Open Source CFD Toolbox
   \\    /   O peration     | Website:  https://openfoam.org
    \\  /    A nd           | Version:  7
     \\/     M anipulation  |
\*---------------------------------------------------------------------------*/
FoamFile
{
    version     2.0;
    format      ascii;
    class       volScalarField;
    location    "0.00072";
    object      linearKE;
}
// * * * * * * * * * * * * * * * * * * * * * * * * * * * * * * * * * * * * * //

dimensions      [1 -1 -2 0 0 0 0];

internalField   nonuniform List<scalar> 
125
(
763.325
929.244
862.861
673.773
713.069
816.838
736.722
794.206
685.877
1009.45
921.175
838.366
694.044
796.744
892.31
810.94
730.91
771.409
955.194
742.72
781.966
880.687
918.759
914.922
908.735
844.233
994.247
660.312
919.561
772.418
895.988
767.424
813.094
684.6
257.783
144.413
144.29
170.349
186.465
153.328
192.102
155.357
186.019
188.249
143.588
165.146
150.737
159.791
129.508
179.102
183.66
134.518
180.502
126.181
148.457
153.48
179.353
147.359
183.679
176.004
177.185
145.22
232.349
159.738
160.402
175.245
139.897
155.519
131.27
170.18
176.453
186.872
161.69
136.692
146.212
158.705
148.818
179.717
242.408
173.616
178.501
136.688
210.777
177.018
125.293
142.078
157.633
130.582
182.664
129.59
132.093
175.082
187.451
164.194
165.086
220.1
157.536
160.619
141.765
170.452
189.424
147.714
199.915
153.693
153.815
158.15
174.041
182.461
165.64
148.764
131.079
194.768
216.517
175.443
199.022
153.466
157.605
155.392
157.266
151.04
226.437
133.914
189.038
200.619
147.187
)
;

boundaryField
{
    sides
    {
        type            symmetry;
    }
    empty
    {
        type            empty;
    }
    procBoundary2to1
    {
        type            processor;
        value           uniform 768.558;
    }
    procBoundary2to3
    {
        type            processor;
        value           uniform 200.365;
    }
}


// ************************************************************************* //
