/*--------------------------------*- C++ -*----------------------------------*\
  =========                 |
  \\      /  F ield         | OpenFOAM: The Open Source CFD Toolbox
   \\    /   O peration     | Website:  https://openfoam.org
    \\  /    A nd           | Version:  7
     \\/     M anipulation  |
\*---------------------------------------------------------------------------*/
FoamFile
{
    version     2.0;
    format      ascii;
    class       volScalarField;
    location    "0.00072";
    object      rhoM;
}
// * * * * * * * * * * * * * * * * * * * * * * * * * * * * * * * * * * * * * //

dimensions      [1 -3 0 0 0 0 0];

internalField   nonuniform List<scalar> 
125
(
0.00187661
0.00237482
0.00214232
0.00217554
0.00195964
0.00194304
0.00171054
0.00204268
0.00235821
0.00189321
0.00257411
0.00217554
0.00219214
0.00237482
0.00200946
0.00202607
0.00220875
0.00230839
0.00227518
0.00257411
0.00252429
0.00257411
0.00300589
0.00288964
0.00320518
0.00320518
0.00280661
0.00292286
0.00307232
0.00308893
0.00303911
0.00282321
0.00277339
0.00260732
0.00134518
0.00142821
0.00117911
0.00117911
0.00102964
0.00132857
0.00111268
0.00152786
0.001395
0.00102964
0.00121232
0.00119571
0.00147804
0.000979821
0.00121232
0.00132857
0.00114589
0.00131196
0.000963214
0.00111268
0.00107946
0.00121232
0.000896786
0.00124554
0.00142821
0.00126214
0.001395
0.00104625
0.00104625
0.00117911
0.00127875
0.00114589
0.00119571
0.00129536
0.00127875
0.00136179
0.00112929
0.00126214
0.00114589
0.00121232
0.00154446
0.00106286
0.00107946
0.00131196
0.00149464
0.00131196
0.00142821
0.00141161
0.00121232
0.00109607
0.00109607
0.00124554
0.00102964
0.00122893
0.000996429
0.00156107
0.00137839
0.00114589
0.00126214
0.00102964
0.000863571
0.0011625
0.00127875
0.00141161
0.00101304
0.00126214
0.00141161
0.000996429
0.00124554
0.00126214
0.00134518
0.00119571
0.00126214
0.00114589
0.00137839
0.00142821
0.00121232
0.00132857
0.00101304
0.00114589
0.00142821
0.00144482
0.00159429
0.00129536
0.00107946
0.00122893
0.00104625
0.00129536
0.00112929
0.00141161
0.00112929
)
;

boundaryField
{
    sides
    {
        type            symmetry;
    }
    empty
    {
        type            empty;
    }
    procBoundary2to1
    {
        type            processor;
        value           uniform 0.00215893;
    }
    procBoundary2to3
    {
        type            processor;
        value           uniform 0.00134518;
    }
}


// ************************************************************************* //
