/*--------------------------------*- C++ -*----------------------------------*\
  =========                 |
  \\      /  F ield         | OpenFOAM: The Open Source CFD Toolbox
   \\    /   O peration     | Website:  https://openfoam.org
    \\  /    A nd           | Version:  7
     \\/     M anipulation  |
\*---------------------------------------------------------------------------*/
FoamFile
{
    version     2.0;
    format      ascii;
    class       surfaceScalarField;
    location    "0.4";
    object      alphaPhi0.water;
}
// * * * * * * * * * * * * * * * * * * * * * * * * * * * * * * * * * * * * * //

dimensions      [0 3 -1 0 0 0 0];

internalField   nonuniform List<scalar> 
3742
(
-3.21458e-18
5.50842e-18
-2.23635e-18
3.19961e-18
-1.24039e-18
1.43317e-18
-5.3657e-19
4.70995e-19
-1.75566e-19
1.04912e-19
-4.35513e-20
1.70134e-20
-8.1208e-21
2.05128e-21
-8.10182e-22
2.56202e-23
6.17404e-22
-3.52625e-22
8.38359e-22
-5.01602e-22
1.16019e-21
-7.18738e-22
2.0723e-21
-1.63484e-21
7.31125e-21
-7.86003e-21
4.58148e-20
-5.22163e-20
3.32325e-19
-3.60766e-19
2.40322e-18
-2.47543e-18
1.61373e-17
-1.59841e-17
8.97566e-17
-8.6446e-17
3.87133e-16
-3.66169e-16
1.30285e-15
-1.19989e-15
3.51104e-15
-3.12798e-15
8.10933e-15
-6.5843e-15
2.19992e-14
-1.59793e-14
3.0802e-14
-2.94833e-14
-2.41856e-14
-5.12741e-28
8.95321e-26
-6.77889e-27
1.06653e-24
-7.07923e-26
6.84111e-24
-4.74544e-25
2.79474e-23
-2.12963e-24
8.0742e-23
-6.89293e-24
1.82807e-22
-1.85471e-23
3.93511e-22
-5.42371e-23
1.04163e-21
-2.01398e-22
3.3936e-21
-8.07557e-22
1.125e-20
-3.00674e-21
3.43416e-20
-9.95688e-21
9.39215e-20
-2.8944e-20
2.27593e-19
-7.34876e-20
4.84805e-19
-1.62009e-19
9.01925e-19
-3.08675e-19
1.45694e-18
-5.05491e-19
2.02985e-18
-7.06043e-19
2.41719e-18
-8.32338e-19
2.4305e-18
-8.16715e-19
2.02993e-18
-6.5495e-19
1.3766e-18
-4.18829e-19
7.33634e-19
-2.06557e-19
2.92366e-19
-7.47842e-20
8.00969e-20
-1.83674e-20
1.28046e-20
-3.28739e-21
1.26531e-21
-4.37806e-22
7.12841e-23
-6.04308e-24
-1.69374e-23
6.92958e-23
-4.8245e-23
9.84335e-23
-7.24739e-23
1.77574e-22
-1.62352e-22
6.40531e-22
-8.1174e-22
4.42852e-21
-5.9861e-21
3.57698e-20
-4.48241e-20
2.88548e-19
-3.21072e-19
2.16058e-18
-2.31802e-18
1.49074e-17
-1.57846e-17
8.46491e-17
-8.94284e-17
3.72392e-16
-3.8826e-16
1.28505e-15
-1.33043e-15
3.54963e-15
-3.59433e-15
8.47993e-15
-7.98072e-15
2.18211e-14
-1.79162e-14
3.58296e-14
-4.13594e-14
-2.92814e-14
5.05559e-28
2.90183e-26
1.14226e-26
3.27429e-25
6.26914e-26
1.99134e-24
1.81229e-25
7.71117e-24
3.05704e-25
2.13881e-23
2.10937e-25
4.90054e-23
-4.45249e-25
1.18409e-22
-3.44049e-24
3.60737e-22
-2.02015e-23
1.23298e-21
-1.01797e-22
4.03499e-21
-4.31328e-22
1.19237e-20
-1.54614e-21
3.13378e-20
-4.71999e-21
7.27323e-20
-1.23074e-20
1.47971e-19
-2.74324e-20
2.62219e-19
-5.22392e-20
4.02833e-19
-8.47577e-20
5.32988e-19
-1.1648e-19
6.02196e-19
-1.34275e-19
5.74092e-19
-1.27986e-19
4.53913e-19
-9.87501e-20
2.90332e-19
-5.97632e-20
1.446e-19
-2.70175e-20
5.26746e-20
-8.39169e-21
1.2483e-20
-1.52035e-21
1.4508e-21
-1.70179e-22
6.36688e-23
-1.08515e-23
4.0247e-25
4.52847e-24
-3.80784e-24
6.49986e-24
-6.13305e-24
1.19941e-23
-1.30906e-23
4.13108e-23
-6.29769e-23
3.05152e-22
-5.08171e-22
2.73599e-21
-4.15531e-21
2.27996e-20
-3.11421e-20
1.78334e-19
-2.28211e-19
1.44119e-18
-1.70824e-18
1.0949e-17
-1.24003e-17
6.85269e-17
-7.67438e-17
3.24684e-16
-3.68934e-16
1.16334e-15
-1.3531e-15
3.36116e-15
-3.96207e-15
8.40626e-15
-9.40783e-15
2.07479e-14
-2.07343e-14
3.87911e-14
-4.99164e-14
-3.4941e-14
8.07541e-28
7.38682e-27
1.03864e-26
7.94453e-26
5.82624e-26
4.60036e-25
2.01314e-25
1.70229e-24
5.2801e-25
4.61562e-24
1.37885e-24
1.10586e-23
4.34171e-24
3.02659e-23
1.47541e-23
1.01142e-22
4.6237e-23
3.50338e-22
1.25637e-22
1.12054e-21
2.88932e-22
3.19971e-21
5.4719e-22
8.10126e-21
8.06895e-22
1.80991e-20
7.87611e-22
3.53497e-20
6.25277e-23
5.99213e-20
-1.24291e-21
8.77875e-20
-3.62697e-21
1.10635e-19
-6.67224e-21
1.19044e-19
-9.18816e-21
1.08181e-19
-9.84747e-21
8.16614e-20
-8.21185e-21
4.99142e-20
-5.19572e-21
2.37303e-20
-2.35998e-21
8.19201e-21
-6.87507e-22
1.79034e-21
-9.70982e-23
1.72663e-22
-5.1271e-24
8.67015e-25
-3.86471e-26
-1.39799e-25
3.44779e-25
-4.3887e-25
6.11067e-25
-9.00778e-25
1.96233e-24
-3.94168e-24
1.46158e-23
-3.32429e-23
1.48267e-22
-3.02782e-22
1.37615e-21
-2.49937e-21
1.15898e-20
-1.94165e-20
9.65009e-20
-1.49891e-19
8.13976e-19
-1.19156e-18
6.60486e-18
-9.32966e-18
4.5198e-17
-6.32955e-17
2.38353e-16
-3.36072e-16
9.60374e-16
-1.3636e-15
3.07206e-15
-4.36757e-15
8.15957e-15
-1.11877e-14
1.96779e-14
-2.41332e-14
3.65184e-14
-5.36789e-14
-4.97592e-14
3.25664e-28
1.39646e-27
3.84771e-27
1.437e-26
2.09707e-26
7.96356e-26
7.32723e-26
2.84213e-25
2.1023e-25
7.66992e-25
6.57467e-25
1.96071e-24
2.42921e-24
5.954e-24
9.07598e-24
2.08143e-23
3.07054e-23
7.11853e-23
9.12553e-23
2.1995e-22
2.37123e-22
6.03802e-22
5.36788e-22
1.47699e-21
1.04926e-21
3.2122e-21
1.75737e-21
6.10263e-21
2.50794e-21
1.00113e-20
3.02698e-21
1.41333e-20
3.05258e-21
1.71095e-20
2.52456e-21
1.76432e-20
1.66132e-21
1.53574e-20
8.26014e-22
1.11116e-20
2.80369e-22
6.51841e-21
4.91111e-23
2.97981e-21
-8.6184e-24
9.92466e-22
-1.68432e-23
2.11304e-22
-3.33522e-24
2.04395e-23
-2.68131e-26
-8.67842e-27
1.06136e-26
-2.4641e-26
1.9747e-26
-5.83177e-26
6.54026e-26
-2.41501e-25
4.87678e-25
-1.99828e-24
5.56376e-24
-1.94632e-23
6.06506e-23
-1.78298e-22
5.86574e-22
-1.52202e-21
5.32163e-21
-1.23373e-20
4.75254e-20
-9.85594e-20
4.33046e-19
-8.15721e-19
3.84441e-18
-6.80673e-18
2.92833e-17
-5.07555e-17
1.73345e-16
-3.02609e-16
7.82571e-16
-1.39268e-15
2.75331e-15
-4.90738e-15
7.77627e-15
-1.35112e-14
1.84975e-14
-2.94963e-14
3.78214e-14
-5.75453e-14
-9.97749e-14
7.85979e-29
1.75416e-28
8.86538e-28
1.7324e-27
4.70671e-27
9.23825e-27
1.66172e-26
3.20876e-26
5.18043e-26
8.73424e-26
1.83496e-25
2.38403e-25
7.25547e-25
7.72674e-25
2.74365e-24
2.70713e-24
9.21094e-24
8.88488e-24
2.70919e-23
2.58396e-23
7.01849e-23
6.64412e-23
1.60047e-22
1.56561e-22
3.15963e-22
3.42346e-22
5.34082e-22
6.55636e-22
7.70397e-22
1.06894e-21
9.4462e-22
1.48341e-21
9.77165e-22
1.74885e-21
8.4389e-22
1.74121e-21
5.97872e-22
1.45825e-21
3.37888e-22
1.01419e-21
1.45732e-22
5.7192e-22
4.45365e-23
2.51506e-22
8.36595e-24
8.07408e-23
6.72707e-25
1.66687e-23
-2.13463e-28
1.60376e-24
-1.43404e-28
-7.94368e-28
-5.6325e-29
-3.73207e-27
5.96644e-28
-1.87239e-26
8.48445e-27
-1.53262e-25
1.29838e-25
-1.45746e-24
1.81035e-24
-1.377e-23
2.18232e-23
-1.25498e-22
2.35431e-22
-1.08952e-21
2.33963e-21
-9.05435e-21
2.239e-20
-7.44978e-20
2.16511e-19
-6.27925e-19
2.07058e-18
-5.38333e-18
1.7557e-17
-4.28825e-17
1.18719e-16
-2.83422e-16
6.11672e-16
-1.44808e-15
2.38403e-15
-5.5461e-15
7.17783e-15
-1.61429e-14
1.74055e-14
-3.68963e-14
3.68134e-14
-6.83657e-14
-1.35174e-13
1.15035e-29
1.10366e-29
1.2523e-28
1.04927e-28
6.5181e-28
5.4118e-28
2.34269e-27
1.84161e-27
7.87916e-27
5.07246e-27
3.01208e-26
1.44492e-26
1.20773e-25
4.72706e-26
4.43694e-25
1.56066e-25
1.42003e-24
4.51846e-25
3.96405e-24
1.04209e-24
1.00282e-23
1.60405e-24
2.33192e-23
2.6172e-24
4.70959e-23
9.29309e-24
8.03554e-23
2.49874e-23
1.15851e-22
4.75901e-23
1.40872e-22
7.19282e-23
1.43586e-22
8.72458e-23
1.22127e-22
8.54089e-23
8.55038e-23
6.93392e-23
4.80532e-23
4.65193e-23
2.08148e-23
2.52529e-23
6.49078e-24
1.06842e-23
1.27966e-24
3.3032e-24
1.15094e-25
6.5886e-25
-3.50955e-29
6.19432e-26
-4.3957e-29
-1.79748e-28
-1.88008e-28
-1.66799e-27
-1.02361e-27
-1.4857e-26
-6.04032e-27
-1.40503e-25
-2.10646e-26
-1.32016e-24
1.74234e-25
-1.21131e-23
5.1368e-24
-1.08419e-22
7.70801e-23
-9.41043e-22
9.2594e-22
-7.93035e-21
1.0052e-20
-6.63439e-20
1.04892e-19
-5.55565e-19
1.06816e-18
-4.71632e-18
9.92505e-18
-3.86428e-17
7.58377e-17
-2.75256e-16
4.3887e-16
-1.52081e-15
1.86667e-15
-6.18051e-15
5.98643e-15
-1.87605e-14
1.53024e-14
-4.41241e-14
3.43975e-14
-8.3144e-14
-1.40939e-13
8.02315e-31
-2.46143e-45
8.47909e-30
-1.18421e-42
4.34877e-29
-2.59035e-40
1.59197e-28
-3.81461e-38
5.62676e-28
-4.23958e-36
2.18698e-27
-3.80506e-34
8.32476e-27
-2.88143e-32
2.71826e-26
-1.89785e-30
6.9517e-26
-1.1118e-28
1.17066e-25
-5.89344e-27
2.06659e-25
-2.83214e-25
7.86482e-25
-1.09828e-24
2.24794e-24
-1.68855e-24
4.51734e-24
-1.85048e-24
7.15411e-24
-1.75291e-24
9.03198e-24
-8.72495e-25
9.14159e-24
-2.22789e-25
7.62069e-24
-6.18672e-26
5.21181e-24
-1.52172e-26
2.86147e-24
-5.03673e-27
1.21384e-24
-3.28223e-27
3.7261e-25
-1.8231e-27
7.29741e-26
-4.13534e-28
6.65004e-27
-7.96134e-29
-1.70244e-29
-4.11321e-29
-2.59113e-29
-1.26125e-28
-2.30328e-28
-1.33992e-27
-2.00977e-27
-1.34925e-26
-1.66482e-26
-1.30968e-25
-1.27433e-25
-1.2294e-24
-8.83588e-25
-1.12807e-23
-5.17796e-24
-1.01307e-22
-2.00396e-23
-8.87774e-22
4.58676e-23
-7.57153e-21
2.19161e-21
-6.3198e-20
3.32728e-20
-5.22712e-19
4.05584e-19
-4.36658e-18
4.33044e-18
-3.60745e-17
3.81861e-17
-2.68677e-16
2.50384e-16
-1.56249e-15
1.16561e-15
-6.63542e-15
4.00394e-15
-2.05498e-14
1.07581e-14
-4.89775e-14
2.50042e-14
-9.4764e-14
-1.48111e-13
-2.46297e-45
1.54401e-48
-1.18666e-42
-1.10788e-47
-2.60222e-40
-2.30436e-45
-3.84065e-38
-3.16918e-43
-4.27805e-36
-3.27555e-41
-3.84795e-34
-2.72698e-39
-2.92002e-32
-1.91054e-37
-1.92714e-30
-1.16099e-35
-1.13113e-28
-6.25475e-34
-6.18221e-27
-1.49827e-32
-6.91827e-26
-7.14352e-31
-1.54089e-25
-3.22109e-29
-1.96663e-25
-1.9092e-27
-1.96809e-25
-7.01841e-27
-1.46951e-25
-5.13672e-28
-4.32913e-26
-1.29251e-29
-1.25344e-26
-1.23286e-29
-3.11067e-27
-1.18509e-29
-8.88766e-28
-3.5164e-30
-5.68149e-28
-3.22e-31
-3.57464e-28
-9.27399e-33
-9.60805e-29
-9.4339e-33
-1.61148e-29
-6.20454e-32
-5.58902e-30
-7.15294e-31
-6.01452e-30
-8.45902e-30
-2.70882e-29
-9.62528e-29
-2.83049e-28
-1.05658e-27
-2.7215e-27
-1.0939e-26
-2.44366e-26
-1.08625e-25
-2.09351e-25
-1.04622e-24
-1.71694e-24
-9.80155e-24
-1.34377e-23
-8.95586e-23
-9.93593e-23
-7.98657e-22
-6.81416e-22
-6.93358e-21
-4.29158e-21
-5.85338e-20
-2.47802e-20
-4.8596e-19
-1.23513e-19
-4.05017e-18
-3.1191e-19
-3.36809e-17
2.96154e-18
-2.56566e-16
4.63977e-17
-1.54422e-15
3.16862e-16
-6.64249e-15
1.37487e-15
-2.07089e-14
4.42768e-15
-5.04747e-14
1.18247e-14
-1.01779e-13
-1.71272e-13
-6.41523e-50
1.38942e-48
-1.1157e-47
-1.36304e-52
-2.32727e-45
-3.94467e-50
-3.21535e-43
-6.88249e-48
-3.33649e-41
-8.64551e-46
-2.78754e-39
-8.53293e-44
-1.95906e-37
-6.95489e-42
-1.19373e-35
-4.83889e-40
-6.44642e-34
-2.9484e-38
-2.02651e-32
-1.09326e-36
-7.34529e-31
-6.04412e-35
-2.5508e-29
-2.34206e-34
-8.49149e-28
-3.29562e-34
-6.41989e-29
-6.05063e-34
-9.13e-31
-7.71262e-34
-8.97461e-31
-8.23233e-34
-9.11592e-31
-7.39756e-34
-4.51671e-31
-4.88948e-34
-4.86291e-32
-3.61684e-34
-7.83679e-34
-3.16433e-34
-7.96346e-34
-4.36608e-34
-1.42051e-33
-2.56796e-33
-1.36549e-32
-3.30555e-32
-1.62109e-31
-4.26616e-31
-2.1235e-30
-5.23778e-30
-2.51487e-29
-6.13045e-29
-2.65804e-28
-6.7812e-28
-2.6597e-27
-7.21313e-27
-2.55916e-26
-7.43365e-26
-2.36602e-25
-7.41903e-25
-2.10637e-24
-7.18214e-24
-1.81274e-23
-6.75886e-23
-1.50876e-22
-6.19132e-22
-1.20901e-21
-5.51634e-21
-9.32614e-21
-4.77577e-20
-7.10111e-20
-4.04336e-19
-5.59437e-19
-3.40553e-18
-4.50837e-18
-2.857e-17
-3.20481e-17
-2.22109e-16
-1.63729e-16
-1.38142e-15
-5.50019e-16
-6.10973e-15
-1.33487e-15
-1.9236e-14
-2.30032e-15
-4.81728e-14
-2.36108e-15
-1.03838e-13
-1.85413e-13
-9.65128e-55
9.27368e-50
-2.37902e-52
-1.77716e-53
-5.66829e-50
-3.19763e-51
-9.13691e-48
-3.80581e-49
-1.1028e-45
-3.39565e-47
-1.0596e-43
-2.42385e-45
-8.45667e-42
-1.44485e-43
-5.77896e-40
-7.41312e-42
-3.45659e-38
-3.34872e-40
-1.33433e-36
-1.00387e-38
-1.24683e-35
-5.63365e-37
-1.77184e-35
-1.12573e-35
-3.54983e-35
-3.93026e-35
-5.52114e-35
-6.71566e-35
-6.62429e-35
-8.43718e-35
-6.75081e-35
-8.90164e-35
-5.03393e-35
-7.42463e-35
-3.58925e-35
-4.49382e-35
-3.01534e-35
-3.16396e-35
-3.17035e-35
-2.92205e-35
-6.7247e-35
-9.94689e-35
-6.79044e-34
-1.23757e-33
-9.60244e-33
-1.74845e-32
-1.27304e-31
-2.28821e-31
-1.53547e-30
-2.82966e-30
-1.75328e-29
-3.3344e-29
-1.92325e-28
-3.78364e-28
-2.03019e-27
-4.14338e-27
-2.0614e-26
-4.38343e-26
-2.0164e-25
-4.49434e-25
-1.90553e-24
-4.47334e-24
-1.74512e-23
-4.32633e-23
-1.55153e-22
-4.06931e-22
-1.33676e-21
-3.72227e-21
-1.11666e-20
-3.30991e-20
-9.21819e-20
-2.87409e-19
-7.82662e-19
-2.46814e-18
-6.84503e-18
-2.10104e-17
-5.4363e-17
-1.67281e-16
-3.18327e-16
-1.08492e-15
-1.22187e-15
-5.03689e-15
-3.28701e-15
-1.64446e-14
-7.85363e-15
-4.17913e-14
-1.57613e-14
-9.61936e-14
-1.93484e-13
-1.54161e-55
-3.66185e-57
-1.65462e-53
-1.76152e-54
-2.88535e-51
-3.04786e-52
-3.43844e-49
-3.55472e-50
-3.07273e-47
-3.11595e-48
-2.1981e-45
-2.18613e-46
-1.31383e-43
-1.27995e-44
-6.7628e-42
-6.44153e-43
-3.06641e-40
-2.85095e-41
-9.32321e-39
-8.52901e-40
-2.23563e-37
-4.79808e-38
-1.8646e-36
-8.60537e-37
-4.48388e-36
-2.88056e-36
-6.84031e-36
-5.00936e-36
-8.06018e-36
-6.26877e-36
-7.98394e-36
-6.57828e-36
-5.37407e-36
-5.37021e-36
-3.47427e-36
-3.39255e-36
-3.16805e-36
-2.69012e-36
-3.99492e-36
-4.49355e-36
-2.59539e-35
-3.86606e-35
-3.82594e-34
-5.80587e-34
-5.41751e-33
-8.08033e-33
-7.1327e-32
-1.06878e-31
-8.897e-31
-1.35253e-30
-1.05855e-29
-1.64037e-29
-1.20653e-28
-1.90658e-28
-1.31897e-27
-2.13135e-27
-1.38901e-26
-2.30157e-26
-1.41448e-25
-2.41018e-25
-1.39555e-24
-2.45217e-24
-1.33676e-23
-2.42493e-23
-1.24538e-22
-2.33218e-22
-1.12789e-21
-2.18228e-21
-9.93235e-21
-1.98655e-20
-8.62046e-20
-1.76405e-19
-7.61984e-19
-1.54188e-18
-6.91658e-18
-1.33057e-17
-5.81104e-17
-1.08363e-16
-3.70076e-16
-7.36907e-16
-1.56689e-15
-3.66772e-15
-4.53584e-15
-1.28275e-14
-1.05608e-14
-3.37529e-14
-2.42936e-14
-7.79095e-14
-1.85704e-13
-3.53247e-57
-1.29378e-58
-1.73882e-54
-3.61134e-56
-2.99324e-52
-6.42936e-54
-3.49764e-50
-8.10956e-52
-3.0681e-48
-7.74571e-50
-2.15276e-46
-5.88554e-48
-1.2603e-44
-3.69889e-46
-6.34215e-43
-1.97981e-44
-2.80676e-41
-9.24621e-43
-8.66298e-40
-3.03241e-41
-1.95865e-38
-1.40748e-39
-1.40383e-37
-3.97992e-38
-3.4891e-37
-1.65068e-37
-5.35292e-37
-3.22671e-37
-6.27806e-37
-4.32832e-37
-6.16684e-37
-4.68217e-37
-4.14885e-37
-4.32133e-37
-3.08338e-37
-3.0402e-37
-3.34119e-37
-3.05431e-37
-1.13201e-36
-1.27612e-36
-1.23861e-35
-1.63979e-35
-1.88206e-34
-2.43216e-34
-2.66557e-33
-3.41181e-33
-3.59739e-32
-4.59338e-32
-4.63545e-31
-5.92334e-31
-5.69259e-30
-7.31926e-30
-6.67342e-29
-8.67434e-29
-7.5048e-28
-9.89303e-28
-8.14026e-27
-1.08903e-26
-8.5532e-26
-1.16146e-25
-8.72207e-25
-1.20361e-24
-8.64393e-24
-1.21241e-23
-8.34006e-23
-1.18735e-22
-7.83643e-22
-1.1311e-21
-7.16897e-21
-1.04817e-20
-6.44204e-20
-9.45907e-20
-5.83639e-19
-8.35811e-19
-5.39416e-18
-7.25299e-18
-4.70032e-17
-5.99189e-17
-3.23769e-16
-4.27032e-16
-1.53039e-15
-2.31381e-15
-4.87259e-15
-8.94349e-15
-1.14034e-14
-2.54192e-14
-2.46735e-14
-5.96026e-14
-1.4326e-13
-1.14312e-58
-6.58637e-60
-3.14762e-56
-2.13616e-57
-6.88913e-54
-3.97672e-55
-9.25635e-52
-4.65784e-53
-8.92757e-50
-3.97216e-51
-6.75153e-48
-2.675e-49
-4.20447e-46
-1.49117e-47
-2.22635e-44
-7.09809e-46
-1.02888e-42
-2.95912e-44
-2.98922e-41
-9.34704e-43
-7.44081e-40
-3.66272e-41
-7.54846e-39
-1.42001e-39
-2.23254e-38
-7.84306e-39
-3.7981e-38
-1.76152e-38
-4.71534e-38
-2.55336e-38
-4.89783e-38
-2.8521e-38
-3.63343e-38
-2.76932e-38
-3.43443e-38
-2.35456e-38
-5.02664e-38
-5.55498e-38
-3.71029e-37
-4.69043e-37
-5.56159e-36
-6.93076e-36
-8.39453e-35
-1.00943e-34
-1.20802e-33
-1.41158e-33
-1.66171e-32
-1.89352e-32
-2.18346e-31
-2.44931e-31
-2.7407e-30
-3.05291e-30
-3.29549e-29
-3.66668e-29
-3.80577e-28
-4.25058e-28
-4.23657e-27
-4.75848e-27
-4.56931e-26
-5.15498e-26
-4.78675e-25
-5.42321e-25
-4.87474e-24
-5.54481e-24
-4.8324e-23
-5.50766e-23
-4.66683e-22
-5.31497e-22
-4.38825e-21
-4.98134e-21
-4.03622e-20
-4.53143e-20
-3.69803e-19
-4.00787e-19
-3.41909e-18
-3.45331e-18
-3.03432e-17
-2.85096e-17
-2.24323e-16
-2.1075e-16
-1.19489e-15
-1.24549e-15
-4.35635e-15
-5.41536e-15
-1.12293e-14
-1.73893e-14
-2.26887e-14
-4.48746e-14
-1.12085e-13
-8.96631e-60
-1.39416e-61
-2.0762e-57
-4.3141e-59
-3.87694e-55
-8.02446e-57
-4.53699e-53
-9.37051e-55
-3.8671e-51
-7.9529e-53
-2.60397e-49
-5.32696e-51
-1.45223e-47
-2.95551e-49
-6.94433e-46
-1.40396e-47
-2.90891e-44
-5.84741e-46
-9.29576e-43
-1.8618e-44
-2.31384e-41
-6.69511e-43
-3.25254e-40
-3.07278e-41
-1.19073e-39
-2.94614e-40
-2.27487e-39
-8.24922e-40
-2.99386e-39
-1.3252e-39
-3.14435e-39
-1.54407e-39
-2.84586e-39
-1.52062e-39
-3.33395e-39
-1.95695e-39
-1.28649e-38
-1.4672e-38
-1.60442e-37
-2.02153e-37
-2.4921e-36
-2.97902e-36
-3.73059e-35
-4.25378e-35
-5.33694e-34
-5.86522e-34
-7.33118e-33
-7.81478e-33
-9.68994e-32
-1.00648e-31
-1.23156e-30
-1.25375e-30
-1.5079e-29
-1.5116e-29
-1.77913e-28
-1.76666e-28
-2.0242e-27
-1.99794e-27
-2.23059e-26
-2.18821e-26
-2.3878e-25
-2.3263e-25
-2.48443e-24
-2.40051e-24
-2.51412e-23
-2.40305e-23
-2.47597e-22
-2.33315e-22
-2.3705e-21
-2.19445e-21
-2.20771e-20
-1.99425e-20
-2.01904e-19
-1.74839e-19
-1.83542e-18
-1.47841e-18
-1.62427e-17
-1.19797e-17
-1.26689e-16
-8.98843e-17
-7.54044e-16
-5.73505e-16
-3.17402e-15
-2.82662e-15
-9.59477e-15
-1.05285e-14
-2.1669e-14
-3.18684e-14
-9.2653e-14
-1.35787e-61
-9.44306e-64
-4.2639e-59
-2.71989e-61
-8.05525e-57
-6.54363e-59
-9.36861e-55
-8.65812e-57
-7.95183e-53
-8.00344e-55
-5.33903e-51
-5.73098e-53
-2.96984e-49
-3.36117e-51
-1.41428e-47
-1.67168e-49
-5.90799e-46
-7.23544e-48
-1.91572e-44
-2.45742e-46
-5.66775e-43
-8.2289e-45
-9.95866e-42
-3.5465e-43
-5.25336e-41
-7.81984e-42
-1.17783e-40
-2.91574e-41
-1.65538e-40
-5.23351e-41
-1.7644e-40
-6.34331e-41
-1.76823e-40
-7.65095e-41
-4.14448e-40
-4.33138e-40
-4.74292e-39
-5.65128e-39
-7.34864e-38
-8.49099e-38
-1.12464e-36
-1.25114e-36
-1.65776e-35
-1.77904e-35
-2.35544e-34
-2.44323e-34
-3.22576e-33
-3.24763e-33
-4.26127e-32
-4.17329e-32
-5.43419e-31
-5.19545e-31
-6.71002e-30
-6.26496e-30
-8.01332e-29
-7.3261e-29
-9.25206e-28
-8.30134e-28
-1.03572e-26
-9.12799e-27
-1.12559e-25
-9.74186e-26
-1.18734e-24
-1.00731e-24
-1.21645e-23
-1.00797e-23
-1.21086e-22
-9.75877e-23
-1.16863e-21
-9.12498e-22
-1.09088e-20
-8.21106e-21
-9.86847e-20
-7.0853e-20
-8.71245e-19
-5.85278e-19
-7.5034e-18
-4.61061e-18
-6.00083e-17
-3.42067e-17
-3.94441e-16
-2.29179e-16
-1.92439e-15
-1.28129e-15
-6.90741e-15
-5.69717e-15
-1.86257e-14
-2.09049e-14
-7.18639e-14
-9.09488e-64
-1.12488e-65
-5.6042e-61
-5.37036e-63
-9.17214e-59
-8.7007e-61
-1.05591e-56
-9.57639e-59
-9.28426e-55
-7.99848e-57
-6.48682e-53
-5.33603e-55
-3.73948e-51
-2.95085e-53
-1.83752e-49
-1.39499e-51
-7.8751e-48
-5.7647e-50
-2.49319e-46
-1.93144e-48
-8.26749e-45
-6.41879e-47
-1.96212e-43
-2.18945e-45
-1.70175e-42
-8.54553e-44
-4.57953e-42
-5.19698e-43
-6.43857e-42
-1.09008e-42
-7.17416e-42
-1.70596e-42
-1.37779e-41
-1.00367e-41
-1.45587e-40
-1.39255e-40
-2.16359e-39
-2.22097e-39
-3.2337e-38
-3.45147e-38
-4.91588e-37
-5.1418e-37
-7.25502e-36
-7.35063e-36
-1.03219e-34
-1.01109e-34
-1.41519e-33
-1.34135e-33
-1.87372e-32
-1.71938e-32
-2.39738e-31
-2.13302e-31
-2.97089e-30
-2.56496e-30
-3.56356e-29
-2.99788e-29
-4.14284e-28
-3.39551e-28
-4.67669e-27
-3.72879e-27
-5.12174e-26
-3.96992e-26
-5.43315e-25
-4.09085e-25
-5.5839e-24
-4.07004e-24
-5.56046e-23
-3.9035e-23
-5.3531e-22
-3.60416e-22
-4.96208e-21
-3.1945e-21
-4.42307e-20
-2.70594e-20
-3.79316e-19
-2.18591e-19
-3.13673e-18
-1.6785e-18
-2.47429e-17
-1.21999e-17
-1.7422e-16
-8.28376e-17
-9.95482e-16
-5.05368e-16
-4.43549e-15
-2.64307e-15
-1.38359e-14
-1.19999e-14
-4.92026e-14
-1.65946e-65
-4.11171e-68
-5.46034e-63
-1.59647e-65
-8.68795e-61
-2.5677e-63
-9.58666e-59
-2.82999e-61
-8.03225e-57
-2.36371e-59
-5.37745e-55
-1.5757e-57
-2.9843e-53
-8.6889e-56
-1.41574e-51
-4.08514e-54
-5.87078e-50
-1.67397e-52
-1.97846e-48
-5.58484e-51
-6.57529e-47
-1.83717e-49
-1.69742e-45
-5.44872e-48
-2.60455e-44
-2.02668e-46
-8.61997e-44
-3.51555e-45
-1.26509e-43
-1.46362e-44
-2.87007e-43
-1.5593e-43
-4.47878e-42
-2.57479e-42
-7.17243e-41
-4.47636e-41
-1.12334e-39
-7.49424e-40
-1.72015e-38
-1.19568e-38
-2.53544e-37
-1.82218e-37
-3.59864e-36
-2.66028e-36
-4.93073e-35
-3.73017e-35
-6.54078e-34
-5.03419e-34
-8.408e-33
-6.55074e-33
-1.04909e-31
-8.22978e-32
-1.27996e-30
-9.99224e-31
-1.54239e-29
-1.17351e-29
-1.80013e-28
-1.33243e-28
-2.03695e-27
-1.46228e-27
-2.23428e-26
-1.55006e-26
-2.37094e-25
-1.5852e-25
-2.42971e-24
-1.56151e-24
-2.40326e-23
-1.47886e-23
-2.29181e-22
-1.34373e-22
-2.09839e-21
-1.16841e-21
-1.84035e-20
-9.69453e-21
-1.54251e-19
-7.65307e-20
-1.23466e-18
-5.72943e-19
-9.44114e-18
-4.05342e-18
-6.77641e-17
-2.70312e-17
-4.29686e-16
-1.6994e-16
-2.32396e-15
-9.87918e-16
-9.33537e-15
-5.19632e-15
-2.53223e-14
-3.81397e-68
-1.36865e-69
-1.5621e-65
-4.18347e-67
-2.47092e-63
-6.44767e-65
-2.73403e-61
-7.16286e-63
-2.2968e-59
-6.12061e-61
-1.53278e-57
-4.14741e-59
-8.45069e-56
-2.30682e-57
-3.97153e-54
-1.08569e-55
-1.62811e-52
-4.42715e-54
-5.56874e-51
-1.50801e-52
-1.74889e-49
-4.76924e-51
-5.28066e-48
-1.34029e-49
-1.17517e-46
-3.43967e-48
-4.57145e-46
-8.10016e-47
-2.83458e-45
-1.72139e-45
-8.94025e-44
-3.43133e-44
-1.64462e-42
-6.55414e-43
-2.84999e-41
-1.18574e-41
-4.75006e-40
-2.03271e-40
-7.56103e-39
-3.31319e-39
-1.15133e-37
-5.15095e-38
-1.68204e-36
-7.65933e-37
-2.36395e-35
-1.09186e-35
-3.20316e-34
-1.49505e-34
-4.19235e-33
-1.96931e-33
-5.30733e-32
-2.49828e-32
-6.50503e-31
-3.05468e-31
-7.72308e-30
-3.60122e-30
-8.88224e-29
-4.09349e-29
-9.89159e-28
-4.48479e-28
-1.06585e-26
-4.73247e-27
-1.10974e-25
-4.8049e-26
-1.11431e-24
-4.68765e-25
-1.07685e-23
-4.3873e-24
-9.99199e-23
-3.93189e-23
-8.87916e-22
-3.36713e-22
-7.53156e-21
-2.74906e-21
-6.07938e-20
-2.1346e-20
-4.64987e-19
-1.5723e-19
-3.35649e-18
-1.09572e-18
-2.32068e-17
-7.20705e-18
-1.54737e-16
-4.46494e-17
-9.16964e-16
-2.59435e-16
-4.76842e-15
-1.40965e-15
-7.20695e-15
-7.04454e-70
-1.84307e-70
-2.55938e-67
-5.64716e-68
-5.181e-65
-1.07104e-65
-6.43981e-63
-1.27457e-63
-5.56408e-61
-1.08272e-61
-3.72141e-59
-7.19426e-60
-2.03477e-57
-3.92979e-58
-9.44134e-56
-1.82529e-56
-3.80264e-54
-7.37193e-55
-1.21205e-52
-2.60729e-53
-3.64712e-51
-8.29674e-52
-1.01826e-49
-2.38319e-50
-2.60672e-48
-6.25337e-49
-6.09447e-47
-1.51141e-47
-1.27683e-45
-3.38819e-46
-2.52462e-44
-7.08761e-45
-4.80163e-43
-1.39084e-43
-8.68005e-42
-2.57193e-42
-1.48913e-40
-4.49967e-41
-2.43174e-39
-7.47396e-40
-3.79188e-38
-1.18213e-38
-5.66184e-37
-1.78496e-37
-8.11435e-36
-2.57849e-36
-1.1184e-34
-3.56971e-35
-1.48478e-33
-4.74263e-34
-1.90087e-32
-6.05277e-33
-2.34854e-31
-7.42526e-32
-2.80125e-30
-8.75823e-31
-3.22555e-29
-9.93225e-30
-3.58407e-28
-1.08256e-28
-3.84007e-27
-1.13329e-27
-3.9629e-26
-1.13846e-26
-3.9336e-25
-1.09618e-25
-3.74915e-24
-1.01024e-24
-3.42453e-23
-8.89765e-24
-2.99132e-22
-7.47611e-23
-2.49291e-21
-5.98156e-22
-1.97724e-20
-4.54806e-21
-1.4888e-19
-3.27939e-20
-1.06157e-18
-2.2375e-19
-7.15075e-18
-1.44143e-18
-4.54357e-17
-8.74857e-18
-2.73027e-16
-4.9913e-17
-1.55295e-15
-2.67618e-16
-1.33846e-15
-1.29771e-70
-2.07838e-71
-4.86542e-68
-6.9542e-69
-9.28668e-66
-1.35689e-66
-1.09986e-63
-1.64849e-64
-9.29882e-62
-1.42725e-62
-6.15037e-60
-9.64794e-61
-3.34595e-58
-5.3611e-59
-1.54839e-56
-2.53452e-57
-6.2324e-55
-1.04322e-55
-2.12741e-53
-3.81225e-54
-6.72435e-52
-1.24305e-52
-1.92588e-50
-3.66631e-51
-5.04282e-49
-9.87674e-50
-1.21718e-47
-2.4498e-48
-2.72686e-46
-5.63315e-47
-5.70445e-45
-1.2079e-45
-1.12026e-43
-2.4276e-44
-2.07465e-42
-4.59304e-43
-3.63778e-41
-8.21208e-42
-6.06042e-40
-1.39208e-40
-9.6217e-39
-2.24362e-39
-1.45949e-37
-3.44623e-38
-2.11976e-36
-5.05478e-37
-2.9531e-35
-7.09107e-36
-3.95162e-34
-9.52589e-35
-5.08411e-33
-1.22649e-33
-6.29334e-32
-1.51434e-32
-7.49723e-31
-1.79343e-31
-8.59523e-30
-2.03712e-30
-9.47971e-29
-2.21857e-29
-1.00515e-27
-2.31524e-28
-1.02366e-26
-2.3133e-27
-1.00017e-25
-2.21075e-26
-9.36215e-25
-2.01839e-25
-8.38276e-24
-1.75814e-24
-7.16734e-23
-1.45898e-23
-5.84094e-22
-1.15167e-22
-4.52801e-21
-8.63298e-22
-3.33244e-20
-6.13593e-21
-2.32415e-19
-4.12814e-20
-1.53343e-18
-2.62339e-19
-9.55684e-18
-1.57178e-18
-5.66005e-17
-8.85272e-18
-3.1478e-16
-4.70483e-17
-2.45021e-16
-1.61605e-71
-1.54798e-72
-6.41182e-69
-5.07634e-70
-1.26195e-66
-1.17101e-67
-1.50842e-64
-1.53749e-65
-1.28615e-62
-1.38968e-63
-8.63216e-61
-9.73478e-62
-4.77502e-59
-5.57603e-60
-2.24538e-57
-2.71043e-58
-9.12556e-56
-1.15184e-56
-3.31017e-54
-4.31308e-55
-1.07795e-52
-1.44462e-53
-3.17798e-51
-4.37769e-52
-8.56257e-50
-1.21151e-50
-2.12536e-48
-3.08621e-49
-4.89329e-47
-7.28532e-48
-1.05113e-45
-1.60284e-46
-2.11742e-44
-3.30284e-45
-4.0175e-43
-6.40165e-44
-7.20711e-42
-1.17136e-42
-1.22646e-40
-2.02975e-41
-1.98545e-39
-3.33967e-40
-3.06489e-38
-5.22937e-39
-4.52049e-37
-7.80694e-38
-6.38072e-36
-1.11285e-36
-8.63003e-35
-1.51635e-35
-1.11945e-33
-1.97661e-34
-1.39344e-32
-2.46619e-33
-1.66485e-31
-2.94581e-32
-1.90921e-30
-3.36835e-31
-2.10083e-29
-3.68583e-30
-2.21681e-28
-3.85804e-29
-2.24148e-27
-3.86025e-28
-2.16967e-26
-3.68907e-27
-2.00817e-25
-3.36376e-26
-1.77505e-24
-2.92293e-25
-1.49641e-23
-2.41757e-24
-1.20134e-22
-1.90093e-23
-9.17255e-22
-1.41938e-22
-6.64705e-21
-1.00554e-21
-4.56529e-20
-6.74019e-21
-2.97167e-19
-4.27794e-20
-1.83195e-18
-2.56871e-19
-1.05086e-17
-1.45445e-18
-5.80409e-17
-7.75658e-18
-4.01287e-17
-1.27179e-72
-1.24051e-73
-8.64073e-70
-5.92893e-71
-1.40099e-67
-1.01879e-68
-1.54179e-65
-1.17177e-66
-1.32741e-63
-1.03494e-64
-9.12401e-62
-7.29314e-63
-5.16824e-60
-4.26148e-61
-2.48576e-58
-2.14036e-59
-1.05393e-56
-9.32099e-58
-3.94818e-55
-3.58268e-56
-1.3238e-53
-1.2322e-54
-4.01777e-52
-3.83456e-53
-1.11415e-50
-1.08973e-51
-2.84521e-49
-2.85004e-50
-6.73587e-48
-6.90506e-49
-1.48685e-46
-1.55846e-47
-3.07522e-45
-3.2925e-46
-5.98496e-44
-6.53789e-45
-1.10004e-42
-1.22452e-43
-1.91549e-41
-2.16983e-42
-3.16844e-40
-3.6468e-41
-4.98979e-39
-5.82564e-40
-7.49521e-38
-8.86175e-39
-1.07547e-36
-1.28544e-37
-1.47585e-35
-1.77975e-36
-1.93862e-34
-2.35379e-35
-2.43861e-33
-2.9756e-34
-2.93826e-32
-3.5963e-33
-3.39134e-31
-4.15487e-32
-3.74898e-30
-4.58874e-31
-3.96658e-29
-4.84483e-30
-4.0141e-28
-4.88452e-29
-3.88269e-27
-4.69685e-28
-3.58565e-26
-4.30922e-27
-3.1591e-25
-3.76897e-26
-2.65307e-24
-3.1398e-25
-2.12361e-23
-2.48909e-24
-1.62084e-22
-1.87602e-23
-1.17028e-21
-1.34293e-22
-7.9562e-21
-9.11965e-22
-5.12691e-20
-5.87111e-21
-3.11161e-19
-3.59213e-20
-1.76684e-18
-2.08578e-19
-9.72519e-18
-1.1342e-18
-5.85368e-18
-1.13158e-73
-5.99228e-75
-5.64205e-71
-2.99017e-72
-9.67479e-69
-5.19725e-70
-1.1119e-66
-6.07616e-68
-9.81549e-65
-5.46627e-66
-6.91676e-63
-3.9303e-64
-4.03766e-61
-2.3695e-62
-2.02847e-59
-1.21923e-60
-8.84786e-58
-5.44573e-59
-3.40794e-56
-2.14787e-57
-1.17506e-54
-7.58252e-56
-3.66751e-53
-2.42243e-54
-1.04573e-51
-7.06758e-53
-2.74512e-50
-1.8975e-51
-6.67788e-49
-4.71823e-50
-1.51388e-47
-1.09262e-48
-3.21351e-46
-2.36741e-47
-6.41366e-45
-4.8187e-46
-1.20784e-43
-9.24592e-45
-2.15265e-42
-1.67708e-43
-3.64015e-41
-2.88338e-42
-5.85373e-40
-4.70922e-41
-8.96621e-39
-7.31605e-40
-1.30985e-37
-1.08217e-38
-1.82738e-36
-1.52668e-37
-2.43742e-35
-2.05567e-36
-3.10872e-34
-2.64319e-35
-3.79254e-33
-3.24632e-34
-4.42937e-32
-3.80866e-33
-4.95485e-31
-4.26801e-32
-5.30299e-30
-4.56708e-31
-5.40918e-29
-4.66477e-30
-5.24785e-28
-4.54539e-29
-4.85802e-27
-4.22312e-28
-4.28912e-26
-3.73889e-27
-3.6089e-25
-3.15215e-26
-2.89153e-24
-2.52883e-25
-2.20422e-23
-1.92918e-24
-1.59739e-22
-1.39839e-23
-1.10003e-21
-9.62296e-23
-7.17873e-21
-6.29225e-22
-4.41191e-20
-3.91036e-21
-2.60985e-19
-2.32767e-20
-1.49885e-18
-1.28204e-19
-6.68683e-19
-5.69488e-75
-2.13655e-76
-2.87767e-72
-1.09503e-73
-4.97805e-70
-1.92302e-71
-5.84752e-68
-2.30048e-69
-5.27268e-66
-2.12556e-67
-3.79571e-64
-1.56906e-65
-2.29385e-62
-9.74002e-64
-1.18285e-60
-5.13826e-62
-5.29752e-59
-2.35474e-60
-2.09591e-57
-9.53417e-59
-7.425e-56
-3.45676e-57
-2.38135e-54
-1.13459e-55
-6.97749e-53
-3.40156e-54
-1.88206e-51
-9.38629e-53
-4.70374e-50
-2.3994e-51
-1.09511e-48
-5.70998e-50
-2.38649e-47
-1.27099e-48
-4.88782e-46
-2.65751e-47
-9.4394e-45
-5.2364e-46
-1.72493e-43
-9.75015e-45
-2.99008e-42
-1.71954e-43
-4.92532e-41
-2.87791e-42
-7.71013e-40
-4.5781e-41
-1.1473e-38
-6.93082e-40
-1.6283e-37
-9.99573e-39
-2.20608e-36
-1.37434e-37
-2.85473e-35
-1.80238e-36
-3.52932e-34
-2.25527e-35
-4.16905e-33
-2.69278e-34
-4.70508e-32
-3.06785e-33
-5.0721e-31
-3.33444e-32
-5.22094e-30
-3.45651e-31
-5.12924e-29
-3.41596e-30
-4.80701e-28
-3.21702e-29
-4.29503e-27
-2.88566e-28
-3.65652e-26
-2.46409e-27
-2.96425e-25
-2.00197e-26
-2.28685e-24
-1.54668e-25
-1.67791e-23
-1.13559e-24
-1.17232e-22
-7.91878e-24
-7.69462e-22
-5.25798e-23
-4.82177e-21
-3.3404e-22
-3.02648e-20
-2.00761e-21
-1.77044e-19
-1.11893e-20
-5.89659e-20
-2.06584e-76
-5.81054e-78
-8.28991e-74
-2.38197e-75
-1.64874e-71
-4.80233e-73
-2.17434e-69
-6.3815e-71
-2.06556e-67
-6.18356e-69
-1.53843e-65
-4.74651e-67
-9.5708e-64
-3.02209e-65
-5.06407e-62
-1.63677e-63
-2.32874e-60
-7.70758e-62
-9.46573e-59
-3.20931e-60
-3.44692e-57
-1.1973e-58
-1.13679e-55
-4.0444e-57
-3.42728e-54
-1.24912e-55
-9.51948e-53
-3.55308e-54
-2.45093e-51
-9.36497e-53
-5.86506e-50
-2.29898e-51
-1.31141e-48
-5.27936e-50
-2.75454e-47
-1.13829e-48
-5.45298e-46
-2.31156e-47
-1.02021e-44
-4.43293e-46
-1.80812e-43
-8.04588e-45
-3.04151e-42
-1.3847e-43
-4.86373e-41
-2.2631e-42
-7.40333e-40
-3.51681e-41
-1.07374e-38
-5.20129e-40
-1.48496e-37
-7.32671e-39
-1.95929e-36
-9.83484e-38
-2.46715e-35
-1.25843e-36
-2.96527e-34
-1.53522e-35
-3.40174e-33
-1.78567e-34
-3.72429e-32
-1.98006e-33
-3.8903e-31
-2.09274e-32
-3.87593e-30
-2.10763e-31
-3.68171e-29
-2.02196e-30
-3.33286e-28
-1.84709e-29
-2.874e-27
-1.60608e-28
-2.35971e-26
-1.32873e-27
-1.84392e-25
-1.04544e-26
-1.37093e-24
-7.81864e-26
-9.67441e-24
-5.56191e-25
-6.47412e-23
-3.76782e-24
-4.22885e-22
-2.46011e-23
-2.71994e-21
-1.49844e-22
-1.61846e-20
-8.50776e-22
-4.56144e-21
-5.69503e-78
-1.14371e-79
-2.3394e-75
-4.82251e-77
-4.72017e-73
-9.91214e-75
-6.28463e-71
-1.34801e-72
-6.10372e-69
-1.33836e-70
-4.7034e-67
-1.05758e-68
-3.00423e-65
-6.91871e-67
-1.63332e-63
-3.85287e-65
-7.72717e-62
-1.86697e-63
-3.23681e-60
-8.01195e-62
-1.21473e-58
-3.0851e-60
-4.11882e-57
-1.07723e-58
-1.27688e-55
-3.44032e-57
-3.64592e-54
-1.01215e-55
-9.64698e-53