/*--------------------------------*- C++ -*----------------------------------*\
  =========                 |
  \\      /  F ield         | OpenFOAM: The Open Source CFD Toolbox
   \\    /   O peration     | Website:  https://openfoam.org
    \\  /    A nd           | Version:  7
     \\/     M anipulation  |
\*---------------------------------------------------------------------------*/
FoamFile
{
    version     2.0;
    format      ascii;
    class       volScalarField;
    location    "0.4";
    object      p;
}
// * * * * * * * * * * * * * * * * * * * * * * * * * * * * * * * * * * * * * //

dimensions      [1 -1 -2 0 0 0 0];

internalField   nonuniform List<scalar> 
1915
(
-3.55889
-3.59718
-3.63892
-3.68403
-3.73253
-3.78435
-3.83929
-3.89701
-3.95701
-4.01871
-4.08145
-4.14464
-4.20785
-4.27097
-4.33435
-4.3988
-4.4656
-4.53637
-4.61278
-4.69625
-4.78759
-4.8867
-4.99249
-5.1036
-5.21782
-3.33702
-3.33949
-3.34203
-3.3456
-3.35014
-3.35572
-3.36242
-3.37033
-3.37954
-3.39013
-3.40222
-3.41589
-3.43126
-3.44845
-3.46757
-3.48875
-3.51217
-3.53798
-3.56642
-3.5978
-3.63239
-3.67033
-3.71156
-3.75613
-3.80407
-3.85534
-3.90975
-3.96698
-4.02653
-4.08782
-4.15021
-4.21313
-4.27621
-4.33943
-4.40321
-4.46845
-4.53649
-4.60893
-4.68739
-4.77317
-4.86696
-4.96863
-5.07711
-5.1909
-5.30875
-3.40581
-3.40823
-3.41134
-3.41545
-3.42049
-3.42651
-3.4336
-3.44185
-3.45135
-3.46221
-3.47452
-3.48838
-3.50391
-3.52121
-3.5404
-3.56162
-3.58503
-3.6108
-3.63916
-3.67034
-3.70457
-3.74197
-3.78259
-3.82654
-3.87387
-3.92455
-3.97839
-4.03507
-4.09412
-4.15495
-4.21693
-4.27954
-4.34246
-4.40578
-4.47002
-4.53618
-4.60565
-4.67999
-4.76071
-4.84896
-4.9453
-5.04961
-5.16093
-5.27786
-5.39885
-3.47351
-3.47585
-3.47951
-3.48413
-3.48962
-3.49604
-3.50348
-3.51203
-3.5218
-3.5329
-3.54541
-3.55945
-3.57511
-3.59252
-3.61178
-3.63303
-3.6564
-3.68208
-3.71025
-3.74112
-3.77487
-3.81166
-3.85164
-3.89494
-3.94164
-3.99172
-4.04502
-4.10121
-4.15983
-4.22028
-4.28194
-4.34429
-4.40711
-4.47054
-4.53522
-4.60224
-4.67305
-4.74918
-4.83205
-4.92265
-5.02145
-5.12828
-5.24237
-5.3624
-5.48672
-3.54006
-3.54257
-3.54666
-3.55174
-3.55763
-3.56439
-3.57213
-3.58094
-3.59094
-3.60223
-3.61491
-3.62908
-3.64485
-3.66233
-3.68161
-3.70283
-3.72611
-3.75161
-3.77949
-3.80995
-3.84316
-3.87933
-3.91865
-3.96128
-4.00733
-4.05682
-4.1096
-4.16536
-4.2236
-4.28373
-4.34512
-4.40728
-4.47001
-4.53355
-4.59862
-4.6664
-4.73838
-4.81607
-4.9008
-4.99348
-5.09447
-5.20361
-5.32021
-5.4431
-5.57054
-3.60566
-3.60838
-3.61284
-3.61832
-3.62456
-3.63162
-3.63961
-3.64864
-3.65882
-3.67025
-3.68305
-3.69732
-3.71315
-3.73064
-3.74989
-3.77101
-3.79413
-3.81937
-3.84689
-3.87687
-3.9095
-3.94502
-3.98364
-4.02558
-4.07097
-4.11986
-4.17212
-4.22743
-4.28531
-4.34513
-4.40626
-4.46821
-4.53084
-4.59445
-4.65984
-4.72825
-4.80118
-4.88014
-4.96637
-5.06069
-5.16344
-5.2745
-5.39327
-5.51869
-5.64892
-3.6704
-3.67331
-3.6781
-3.68391
-3.69045
-3.69776
-3.70595
-3.71515
-3.72547
-3.73701
-3.74988
-3.76419
-3.78003
-3.79748
-3.81664
-3.83761
-3.86049
-3.8854
-3.91249
-3.94193
-3.97394
-4.00876
-4.04664
-4.08783
-4.13251
-4.18075
-4.23245
-4.28729
-4.34477
-4.40425
-4.46508
-4.52679
-4.58927
-4.65288
-4.71847
-4.78734
-4.86097
-4.94083
-5.02808
-5.12351
-5.22746
-5.33989
-5.46034
-5.58783
-5.72046
-3.73434
-3.73741
-3.74247
-3.74856
-3.75533
-3.76284
-3.77119
-3.78051
-3.79091
-3.80251
-3.81541
-3.82971
-3.8455
-3.86286
-3.88187
-3.90262
-3.9252
-3.94972
-3.97632
-4.00517
-4.0365
-4.07056
-4.10765
-4.14803
-4.19193
-4.23944
-4.29048
-4.34475
-4.40174
-4.4608
-4.52127
-4.58269
-4.64496
-4.70847
-4.77412
-4.84323
-4.91724
-4.99756
-5.0853
-5.1812
-5.28567
-5.3988
-5.52029
-5.64926
-5.7838
-3.79755
-3.80074
-3.806
-3.8123
-3.81925
-3.82689
-3.83535
-3.84474
-3.85519
-3.86679
-3.87966
-3.8939
-3.90958
-3.92679
-3.94559
-3.96606
-3.98828
-4.01235
-4.03839
-4.0666
-4.09719
-4.13044
-4.16666
-4.20615
-4.24917
-4.29585
-4.34611
-4.39967
-4.45602
-4.51451
-4.57449
-4.6355
-4.69746
-4.76078
-4.82635
-4.89544
-4.96947
-5.04977
-5.13738
-5.23307
-5.33732
-5.45039
-5.57215
-5.70185
-5.83767
-3.86006
-3.86332
-3.86872
-3.87517
-3.88223
-3.88996
-3.89847
-3.90789
-3.91832
-3.92988
-3.94267
-3.95679
-3.97231
-3.9893
-4.00783
-4.02796
-4.04975
-4.0733
-4.09873
-4.12623
-4.15602
-4.18839
-4.22366
-4.26218
-4.30421
-4.3499
-4.39922
-4.45189
-4.50743
-4.56518
-4.62451
-4.68497
-4.74648
-4.80942
-4.87468
-4.94345
-5.01708
-5.09681
-5.18368
-5.27846
-5.38173
-5.49391
-5.61504
-5.74456
-5.8809
-3.92192
-3.92522
-3.9307
-3.93722
-3.94434
-3.9521
-3.96061
-3.96999
-3.98036
-3.99183
-4.00449
-4.01843
-4.03373
-4.05045
-4.06864
-4.08836
-4.10966
-4.13263
-4.15739
-4.18411
-4.21303
-4.24445
-4.27869
-4.31611
-4.35701
-4.40156
-4.44974
-4.50132
-4.55582
-4.61263
-4.67112
-4.73086
-4.79174
-4.85413
-4.91881
-4.9869
-5.05965
-5.13823
-5.22367
-5.31677
-5.41825
-5.52863
-5.64812
-5.77641
-5.91232
-3.9832
-3.9865
-3.99199
-3.99853
-4.00565
-4.01338
-4.02184
-4.03114
-4.0414
-4.05272
-4.06519
-4.07891
-4.09393
-4.11031
-4.1281
-4.14734
-4.16809
-4.19042
-4.21445
-4.24033
-4.26831
-4.29868
-4.33179
-4.36799
-4.4076
-4.45081
-4.49764
-4.54787
-4.60109
-4.65671
-4.71415
-4.77296
-4.83303
-4.89464
-4.95847
-5.02552
-5.0969
-5.17375
-5.25706
-5.34772
-5.44653
-5.55413
-5.67087
-5.79668
-5.93077
-4.04396
-4.04723
-4.05269
-4.05919
-4.06624
-4.0739
-4.08225
-4.09143
-4.10153
-4.11265
-4.12489
-4.13831
-4.153
-4.16898
-4.18631
-4.20502
-4.22516
-4.24679
-4.27001
-4.295
-4.32196
-4.3512
-4.38307
-4.41791
-4.45606
-4.49772
-4.54295
-4.59157
-4.64322
-4.69738
-4.75349
-4.81114
-4.87016
-4.93074
-4.99344
-5.05908
-5.12865
-5.2032
-5.28373
-5.37119
-5.46645
-5.57025
-5.68307
-5.80507
-5.93586
-4.10426
-4.10748
-4.11286
-4.11927
-4.12622
-4.13375
-4.14196
-4.15096
-4.16085
-4.17173
-4.18368
-4.19677
-4.21106
-4.22659
-4.24341
-4.26153
-4.28099
-4.30186
-4.32423
-4.34824
-4.37412
-4.40215
-4.43267
-4.46602
-4.50253
-4.54243
-4.58581
-4.63253
-4.6823
-4.73467
-4.78915
-4.84533
-4.90302
-4.9623
-5.02356
-5.08743
-5.15477
-5.22653
-5.30369
-5.38724
-5.4781
-5.57708
-5.68477
-5.80159
-5.92752
-4.16418
-4.16732
-4.17259
-4.17887
-4.18567
-4.19304
-4.20106
-4.20985
-4.21949
-4.23007
-4.24169
-4.25439
-4.26824
-4.28327
-4.29952
-4.31699
-4.33573
-4.35578
-4.37724
-4.40023
-4.42496
-4.45169
-4.48076
-4.51249
-4.5472
-4.58514
-4.62641
-4.67095
-4.71852
-4.76876
-4.82125
-4.87562
-4.93164
-4.98928
-5.04876
-5.11053
-5.17527
-5.24381
-5.31709
-5.39609
-5.48177
-5.57495
-5.67636
-5.78659
-5.90598
-4.22378
-4.22684
-4.23196
-4.23807
-4.2447
-4.25186
-4.25966
-4.26819
-4.27754
-4.2878
-4.29903
-4.3113
-4.32466
-4.33914
-4.35476
-4.37155
-4.38951
-4.4087
-4.42919
-4.4511
-4.47462
-4.5
-4.52753
-4.55752
-4.5903
-4.62609
-4.66503
-4.70711
-4.75216
-4.79992
-4.85005
-4.90221
-4.95616
-5.01178
-5.06912
-5.12844
-5.19023
-5.2552
-5.32419
-5.39813
-5.47794
-5.56447
-5.65848
-5.76072
-5.8718
-4.28311
-4.28608
-4.29103
-4.29695
-4.30337
-4.3103
-4.31785
-4.32609
-4.33512
-4.345
-4.35582
-4.36761
-4.38044
-4.39432
-4.40927
-4.42532
-4.44246
-4.46074
-4.48022
-4.50101
-4.52328
-4.54723
-4.57316
-4.60133
-4.63206
-4.66555
-4.70198
-4.74135
-4.7836
-4.82854
-4.87591
-4.92545
-4.9769
-5.03007
-5.08487
-5.14138
-5.19991
-5.26099
-5.32537
-5.39385
-5.46728
-5.54644
-5.63212
-5.72511
-5.82612
-4.34223
-4.3451
-4.34987
-4.35557
-4.36176
-4.36844
-4.3757
-4.38363
-4.3923
-4.40178
-4.41213
-4.42341
-4.43566
-4.4489
-4.46315
-4.47841
-4.49469
-4.51203
-4.53046
-4.55009
-4.57106
-4.59355
-4.61782
-4.64412
-4.6727
-4.7038
-4.73756
-4.77405
-4.81326
-4.85507
-4.89933
-4.94584
-4.99434
-5.0446
-5.09643
-5.14975
-5.20469
-5.26164
-5.32116
-5.3839
-5.45058
-5.52188
-5.59854
-5.68131
-5.77076
-4.40118
-4.40394
-4.40852
-4.414
-4.41993
-4.42633
-4.43329
-4.44088
-4.44915
-4.45819
-4.46806
-4.47879
-4.49043
-4.50299
-4.51649
-4.53093
-4.54631
-4.56266
-4.58002
-4.59846
-4.6181
-4.6391
-4.66168
-4.68606
-4.71247
-4.7411
-4.77211
-4.80559
-4.84157
-4.88003
-4.92087
-4.96395
-5.00908
-5.05598
-5.1044
-5.15414
-5.20519
-5.25775
-5.31222
-5.36906
-5.4288
-5.49199
-5.55925
-5.63116
-5.70818
-4.45998
-4.46265
-4.46703
-4.47226
-4.47793
-4.48404
-4.49067
-4.49789
-4.50575
-4.51432
-4.52366
-4.53381
-4.5448
-4.55665
-4.56937
-4.58295
-4.59741
-4.61275
-4.629
-4.64622
-4.66451
-4.68401
-4.70489
-4.72734
-4.75155
-4.7777
-4.80592
-4.83633
-4.86899
-4.90391
-4.9411
-4.98046
-5.02183
-5.06496
-5.10955
-5.15533
-5.20217
-5.25014
-5.29942
-5.35031
-5.40309
-5.45815
-5.51594
-5.57688
-5.64125
-4.51869
-4.52126
-4.52544
-4.53041
-4.5358
-4.5416
-4.54789
-4.55471
-4.56214
-4.57023
-4.57901
-4.58855
-4.59886
-4.60997
-4.62187
-4.63458
-4.64807
-4.66237
-4.67749
-4.69348
-4.71041
-4.7284
-4.74758
-4.76811
-4.79014
-4.81383
-4.83928
-4.86662
-4.89591
-4.92723
-4.96061
-4.99603
-5.03337
-5.07239
-5.11278
-5.15426
-5.1966
-5.23976
-5.28378
-5.32874
-5.37472
-5.42189
-5.47051
-5.52083
-5.5729
-4.57732
-4.5798
-4.58377
-4.58849
-4.59359
-4.59907
-4.60499
-4.61141
-4.61838
-4.62595
-4.63417
-4.64307
-4.65268
-4.66301
-4.67408
-4.68588
-4.6984
-4.71163
-4.72561
-4.74035
-4.75591
-4.77239
-4.78988
-4.80852
-4.82842
-4.84969
-4.87244
-4.89676
-4.92273
-4.95045
-4.97998
-5.01135
-5.04446
-5.07914
-5.11508
-5.15197
-5.18956
-5.22774
-5.26642
-5.30553
-5.34498
-5.38469
-5.42473
-5.46516
-5.50581
-4.63592
-4.63831
-4.64207
-4.64653
-4.65133
-4.65648
-4.66203
-4.66803
-4.67453
-4.68156
-4.68919
-4.69743
-4.70632
-4.71586
-4.72607
-4.73694
-4.74847
-4.76063
-4.77345
-4.78694
-4.80114
-4.81611
-4.83195
-4.84873
-4.86655
-4.88549
-4.90562
-4.92703
-4.94978
-4.97398
-4.99972
-5.02703
-5.05588
-5.0861
-5.11743
-5.14957
-5.18225
-5.2153
-5.2486
-5.28196
-5.31515
-5.34792
-5.38012
-5.41164
-5.44213
-4.69451
-4.69682
-4.70037
-4.70457
-4.70907
-4.71388
-4.71905
-4.72462
-4.73063
-4.73712
-4.74414
-4.75171
-4.75986
-4.7686
-4.77794
-4.78787
-4.79839
-4.80947
-4.82113
-4.83336
-4.84621
-4.85971
-4.87391
-4.88889
-4.90471
-4.92141
-4.93906
-4.95769
-4.97738
-4.9982
-5.02026
-5.04363
-5.06827
-5.09408
-5.1208
-5.14816
-5.17588
-5.20378
-5.2317
-5.25942
-5.28663
-5.31296
-5.3381
-5.36177
-5.38357
-4.75314
-4.75537
-4.75872
-4.76265
-4.76685
-4.77132
-4.7761
-4.78123
-4.78675
-4.79269
-4.79909
-4.80598
-4.81338
-4.82131
-4.82977
-4.83876
-4.84826
-4.85827
-4.86877
-4.87976
-4.89127
-4.90331
-4.91593
-4.92917
-4.94306
-4.95764
-4.97293
-4.98896
-5.00576
-5.02342
-5.04201
-5.06161
-5.08222
-5.10375
-5.126
-5.1487
-5.17157
-5.19443
-5.2171
-5.23936
-5.26089
-5.28126
-5.30005
-5.31693
-5.33149
-4.81184
-4.814
-4.81715
-4.82082
-4.82472
-4.82885
-4.83324
-4.83792
-4.84294
-4.84832
-4.8541
-4.8603
-4.86696
-4.87407
-4.88165
-4.8897
-4.89819
-4.90712
-4.91648
-4.92625
-4.93644
-4.94707
-4.95815
-4.96971
-4.98178
-4.99435
-5.00743
-5.02103
-5.03517
-5.04988
-5.06525
-5.08134
-5.09817
-5.11568
-5.13369
-5.15197
-5.17025
-5.18833
-5.20602
-5.22312
-5.23932
-5.25423
-5.26738
-5.27841
-5.28704
-4.87067
-4.87275
-4.87571
-4.87913
-4.88273
-4.88651
-4.89051
-4.89475
-4.89927
-4.90409
-4.90924
-4.91476
-4.92066
-4.92696
-4.93367
-4.94077
-4.94827
-4.95614
-4.96437
-4.97294
-4.98185
-4.99111
-5.00071
-5.01067
-5.021
-5.03168
-5.04271
-5.05407
-5.06576
-5.07779
-5.09022
-5.1031
-5.11645
-5.13024
-5.14434
-5.15853
-5.17258
-5.18626
-5.19938
-5.21176
-5.22312
-5.23309
-5.24127
-5.24731
-5.25108
-4.92967
-4.93168
-4.93445
-4.93762
-4.94093
-4.94437
-4.94798
-4.95178
-4.95579
-4.96005
-4.96458
-4.96941
-4.97456
-4.98006
-4.9859
-4.99208
-4.99859
-5.00542
-5.01255
-5.01996
-5.02763
-5.03556
-5.04374
-5.05218
-5.06087
-5.06979
-5.07891
-5.08822
-5.09768
-5.10729
-5.11708
-5.12707
-5.13729
-5.14773
-5.15828
-5.16877
-5.17899
-5.18873
-5.1978
-5.20599
-5.21307
-5.21873
-5.22261
-5.22444
-5.2242
-4.98889
-4.99083
-4.99342
-4.99634
-4.99936
-5.00247
-5.0057
-5.00905
-5.01257
-5.01627
-5.02018
-5.02433
-5.02874
-5.03344
-5.03842
-5.0437
-5.04925
-5.05506
-5.06112
-5.0674
-5.07388
-5.08054
-5.08738
-5.09438
-5.10152
-5.1088
-5.11617
-5.1236
-5.13105
-5.1385
-5.14594
-5.15338
-5.16085
-5.16831
-5.17571
-5.18292
-5.18976
-5.19603
-5.20156
-5.20615
-5.20959
-5.21162
-5.21191
-5.21027
-5.20673
-5.04837
-5.05025
-5.05266
-5.05535
-5.05809
-5.06088
-5.06372
-5.06664
-5.06966
-5.07281
-5.07611
-5.07959
-5.08328
-5.08719
-5.09134
-5.09573
-5.10035
-5.10518
-5.1102
-5.1154
-5.12074
-5.1262
-5.13176
-5.13741
-5.14312
-5.14887
-5.15462
-5.16034
-5.16598
-5.1715
-5.17689
-5.18212
-5.18719
-5.19209
-5.19676
-5.20112
-5.20502
-5.2083
-5.21081
-5.21236
-5.21278
-5.21183
-5.20925
-5.20487
-5.19868
-5.10819
-5.11
-5.11223
-5.11469
-5.11717
-5.11964
-5.12211
-5.1246
-5.12714
-5.12974
-5.13245
-5.13528
-5.13826
-5.14141
-5.14475
-5.14828
-5.15199
-5.15587
-5.15991
-5.16407
-5.16833
-5.17265
-5.17703
-5.18142
-5.1858
-5.19014
-5.19442
-5.19858
-5.2026
-5.20641
-5.20999
-5.21332
-5.21636
-5.21909
-5.22146
-5.2234
-5.22482
-5.22557
-5.22554
-5.22457
-5.22253
-5.2192
-5.21438
-5.20792
-5.19975
-5.16839
-5.17012
-5.17218
-5.17443
-5.17666
-5.17882
-5.18093
-5.183
-5.18506
-5.18713
-5.18925
-5.19145
-5.19375
-5.19617
-5.19873
-5.20143
-5.20427
-5.20725
-5.21034
-5.21352
-5.21676
-5.22003
-5.22329
-5.22652
-5.22969
-5.23275
-5.23569
-5.23845
-5.241
-5.2433
-5.24531
-5.24699
-5.24831
-5.24924
-5.24972
-5.24969
-5.24907
-5.24776
-5.24565
-5.24265
-5.23862
-5.23342
-5.22689
-5.21888
-5.20938
-5.229
-5.23065
-5.23255
-5.23462
-5.23662
-5.23849
-5.24024
-5.2419
-5.24349
-5.24504
-5.24659
-5.24817
-5.24981
-5.25153
-5.25334
-5.25526
-5.25728
-5.25939
-5.26159
-5.26385
-5.26613
-5.26841
-5.27066
-5.27282
-5.27488
-5.2768
-5.27852
-5.28004
-5.28129
-5.28225
-5.28288
-5.28315
-5.28302
-5.28245
-5.2814
-5.2798
-5.27758
-5.27465
-5.27093
-5.26634
-5.26079
-5.25417
-5.24635
-5.23726
-5.22693
-5.29004
-5.29162
-5.2934
-5.29532
-5.2971
-5.29869
-5.3001
-5.30134
-5.30247
-5.30351
-5.30451
-5.3055
-5.30651
-5.30756
-5.30867
-5.30984
-5.31108
-5.31238
-5.31374
-5.31513
-5.31652
-5.31789
-5.31919
-5.3204
-5.32146
-5.32235
-5.32301
-5.32342
-5.32354
-5.32334
-5.32277
-5.32183
-5.32047
-5.31866
-5.31637
-5.31353
-5.31007
-5.30593
-5.30103
-5.29529
-5.28865
-5.28103
-5.27236
-5.26259
-5.25179
-5.35158
-5.35311
-5.35481
-5.35661
-5.3582
-5.35951
-5.36056
-5.36139
-5.36206
-5.3626
-5.36307
-5.36349
-5.36391
-5.36433
-5.36477
-5.36525
-5.36577
-5.36631
-5.36688
-5.36746
-5.36802
-5.36855
-5.36899
-5.36932
-5.3695
-5.36948
-5.36922
-5.36868
-5.36783
-5.36663
-5.36505
-5.36308
-5.36069
-5.35785
-5.35455
-5.35073
-5.34633
-5.34131
-5.33557
-5.32907
-5.32175
-5.31354
-5.3044
-5.29432
-5.28335
-5.41381
-5.41524
-5.41685
-5.41859
-5.41999
-5.421
-5.42168
-5.4221
-5.4223
-5.42236
-5.42232
-5.42221
-5.42207
-5.4219
-5.42174
-5.42157
-5.42141
-5.42126
-5.42111
-5.42094
-5.42073
-5.42048
-5.42013
-5.41967
-5.41905
-5.41824
-5.41718
-5.41583
-5.41416
-5.41214
-5.40973
-5.40692
-5.40369
-5.40003
-5.39591
-5.39132
-5.38621
-5.38054
-5.37425
-5.36729
-5.3596
-5.35115
-5.34188
-5.33181
-5.32096
-5.47658
-5.47807
-5.47957
-5.4813
-5.48254
-5.48324
-5.48353
-5.48351
-5.48326
-5.48284
-5.48231
-5.4817
-5.48104
-5.48034
-5.47961
-5.47886
-5.47809
-5.4773
-5.47648
-5.47563
-5.47472
-5.47375
-5.47269
-5.47151
-5.47018
-5.46866
-5.4669
-5.46488
-5.46254
-5.45985
-5.45679
-5.45332
-5.44944
-5.44514
-5.44041
-5.43524
-5.4296
-5.42349
-5.41684
-5.40963
-5.40182
-5.39337
-5.38424
-5.37443
-5.36398
-5.5388
-5.54164
-5.54316
-5.54495
-5.546
-5.54633
-5.54618
-5.54569
-5.54497
-5.5441
-5.54311
-5.54204
-5.5409
-5.53971
-5.53848
-5.5372
-5.53588
-5.53452
-5.5331
-5.53162
-5.53008
-5.52847
-5.52675
-5.52492
-5.52295
-5.5208
-5.51844
-5.51584
-5.51295
-5.50973
-5.50616
-5.50221
-5.49786
-5.4931
-5.48794
-5.48238
-5.4764
-5.47
-5.46317
-5.45588
-5.44811
-5.43983
-5.43101
-5.42165
-5.41179
-5.59989
-5.60663
-5.60822
-5.60989
-5.61054
-5.61034
-5.60964
-5.60865
-5.60746
-5.60614
-5.60472
-5.60322
-5.60166
-5.60004
-5.59835
-5.59661
-5.5948
-5.59293
-5.59098
-5.58896
-5.58686
-5.58466
-5.58237
-5.57996
-5.57741
-5.57471
-5.57181
-5.56871
-5.56535
-5.5617
-5.55774
-5.55344
-5.54877
-5.54373
-5.53832
-5.53254
-5.52639
-5.51988
-5.51301
-5.50579
-5.49819
-5.49022
-5.48184
-5.47305
-5.46388
-5.66305
-5.67439
-5.67494
-5.67598
-5.67601
-5.67513
-5.67381
-5.67229
-5.67065
-5.66891
-5.6671
-5.66522
-5.66327
-5.66126
-5.65918
-5.65702
-5.65479
-5.65247
-5.65007
-5.64757
-5.64498
-5.64229
-5.63949
-5.63657
-5.63352
-5.63032
-5.62696
-5.62342
-5.61966
-5.61566
-5.61139
-5.60683
-5.60196
-5.59676
-5.59124
-5.58539
-5.57924
-5.57278
-5.56604
-5.55902
-5.55174
-5.54418
-5.53635
-5.52823
-5.51981
-5.72892
-5.74871
-5.7448
-5.74374
-5.74291
-5.74138
-5.73946
-5.73744
-5.73536
-5.73323
-5.73104
-5.7288
-5.72651
-5.72414
-5.72171
-5.71919
-5.71659
-5.71389
-5.7111
-5.7082
-5.70519
-5.70207
-5.69883
-5.69547
-5.69199
-5.68836
-5.68459
-5.68065
-5.67654
-5.67222
-5.66769
-5.66292
-5.6579
-5.65261
-5.64707
-5.64126
-5.63521
-5.62893
-5.62244
-5.61576
-5.60892
-5.60191
-5.59474
-5.5874
-5.57981
-5.77031
-5.84468
-5.82939
-5.81798
-5.81339
-5.81048
-5.80767
-5.80496
-5.80234
-5.79978
-5.79722
-5.79463
-5.79201
-5.78934
-5.7866
-5.78378
-5.78087
-5.77787
-5.77476
-5.77154
-5.7682
-5.76474
-5.76116
-5.75745
-5.75361
-5.74963
-5.74551
-5.74125
-5.73683
-5.73225
-5.72749
-5.72256
-5.71743
-5.71212
-5.70662
-5.70094
-5.6951
-5.68912
-5.68303
-5.67684
-5.6706
-5.6643
-5.65797
-5.65156
-5.64498
-5.74308
-5.97767
-5.92753
-5.89208
-5.87975
-5.87359
-5.86892
-5.86505
-5.86168
-5.85856
-5.85557
-5.85262
-5.84968
-5.84671
-5.84368
-5.84058
-5.83739
-5.83411
-5.83072
-5.82721
-5.82359
-5.81984
-5.81597
-5.81197
-5.80784
-5.80358
-5.79919
-5.79468
-5.79005
-5.78529
-5.78041
-5.77543
-5.77034
-5.76515
-5.75989
-5.75456
-5.74919
-5.74381
-5.73842
-5.73307
-5.72776
-5.72249
-5.71724
-5.71192
-5.7063
)
;

boundaryField
{
    leftWall
    {
        type            calculated;
        value           nonuniform List<scalar> 
42
(
-3.33702
-3.40581
-3.47351
-3.54006
-3.60566
-3.6704
-3.73434
-3.79755
-3.86006
-3.92192
-3.9832
-4.04396
-4.10426
-4.16418
-4.22378
-4.28311
-4.34223
-4.40118
-4.45998
-4.51869
-4.57732
-4.63592
-4.69451
-4.75314
-4.81184
-4.87067
-4.92967
-4.98889
-5.04837
-5.10819
-5.16839
-5.229
-5.29004
-5.35158
-5.41381
-5.47658
-5.5388
-5.59989
-5.66305
-5.72892
-5.77031
-5.74308
)
;
    }
    rightWall
    {
        type            calculated;
        value           nonuniform 0();
    }
    lowerWall
    {
        type            calculated;
        value           nonuniform 0();
    }
    atmosphere
    {
        type            calculated;
        value           nonuniform List<scalar> 
45
(
-5.80625
-5.92898
-5.91543
-5.90659
-5.90033
-5.89533
-5.8911
-5.88738
-5.88398
-5.88077
-5.87766
-5.8746
-5.87153
-5.86843
-5.86527
-5.86204
-5.85872
-5.8553
-5.85178
-5.84814
-5.84438
-5.8405
-5.83649
-5.83236
-5.82811
-5.82374
-5.81926
-5.81467
-5.80997
-5.80519
-5.80033
-5.7954
-5.79043
-5.78543
-5.78043
-5.77544
-5.7705
-5.76564
-5.76088
-5.75627
-5.75184
-5.74764
-5.74371
-5.74011
-5.73691
)
;
    }
    defaultFaces
    {
        type            empty;
    }
    procBoundary2to0
    {
        type            processor;
        value           nonuniform List<scalar> 
46
(
-3.48458
-3.52315
-3.56524
-3.61077
-3.6597
-3.71191
-3.7672
-3.82519
-3.88539
-3.94721
-4.01001
-4.07322
-4.13641
-4.19946
-4.26264
-4.32671
-4.39286
-4.46262
-4.53762
-4.61926
-4.70838
-4.805
-4.90839
-5.01626
-5.12615
-3.26708
-3.26954
-3.27149
-3.2745
-3.2785
-3.2836
-3.28989
-3.29744
-3.30634
-3.31667
-3.32854
-3.34204
-3.35728
-3.37438
-3.39346
-3.41466
-3.43813
-3.46402
-3.49254
-3.52406
-3.52406
)
;
    }
    procBoundary2to3
    {
        type            processor;
        value           nonuniform List<scalar> 
43
(
-5.33183
-5.42766
-5.52173
-5.6128
-5.69972
-5.78087
-5.8549
-5.92049
-5.97636
-6.02125
-6.0534
-6.07129
-6.07424
-6.06199
-6.03465
-5.99239
-5.93605
-5.86785
-5.79107
-5.70944
-5.62671
-5.54632
-5.47107
-5.40296
-5.34329
-5.29292
-5.25236
-5.22178
-5.20119
-5.19059
-5.18983
-5.19836
-5.21533
-5.23993
-5.27147
-5.30934
-5.35289
-5.40143
-5.45431
-5.51103
-5.57187
-5.63803
-5.69998
)
;
    }
}


// ************************************************************************* //
