/*--------------------------------*- C++ -*----------------------------------*\
  =========                 |
  \\      /  F ield         | OpenFOAM: The Open Source CFD Toolbox
   \\    /   O peration     | Website:  https://openfoam.org
    \\  /    A nd           | Version:  7
     \\/     M anipulation  |
\*---------------------------------------------------------------------------*/
FoamFile
{
    version     2.0;
    format      ascii;
    class       volScalarField;
    location    "0.4";
    object      p_rgh;
}
// * * * * * * * * * * * * * * * * * * * * * * * * * * * * * * * * * * * * * //

dimensions      [1 -1 -2 0 0 0 0];

internalField   nonuniform List<scalar> 
1915
(
-1.2146
-1.2529
-1.29463
-1.33975
-1.38825
-1.44006
-1.49501
-1.55272
-1.61273
-1.67443
-1.73717
-1.80035
-1.86356
-1.92669
-1.99007
-2.05451
-2.12132
-2.19209
-2.2685
-2.35197
-2.4433
-2.54242
-2.64821
-2.75931
-2.87354
-0.927409
-0.929879
-0.932426
-0.935994
-0.940531
-0.946111
-0.952815
-0.960726
-0.969932
-0.980527
-0.992609
-1.00628
-1.02165
-1.03884
-1.05796
-1.07915
-1.10256
-1.12837
-1.15681
-1.18819
-1.22278
-1.26072
-1.30195
-1.34652
-1.39446
-1.44573
-1.50015
-1.55737
-1.61692
-1.67821
-1.7406
-1.80352
-1.86661
-1.92982
-1.9936
-2.05884
-2.12688
-2.19933
-2.27778
-2.36356
-2.45735
-2.55903
-2.6675
-2.78129
-2.89914
-0.93027
-0.932694
-0.935801
-0.93991
-0.944947
-0.950968
-0.958059
-0.966309
-0.975813
-0.986669
-0.998977
-1.01284
-1.02837
-1.04567
-1.06486
-1.08608
-1.10949
-1.13526
-1.16362
-1.1948
-1.22903
-1.26643
-1.30705
-1.351
-1.39833
-1.44901
-1.50285
-1.55953
-1.61858
-1.67941
-1.74139
-1.804
-1.86692
-1.93024
-1.99448
-2.06064
-2.13011
-2.20445
-2.28517
-2.37342
-2.46976
-2.57407
-2.68539
-2.80231
-2.92331
-0.931423
-0.933769
-0.937422
-0.942051
-0.947541
-0.953958
-0.961394
-0.969948
-0.97972
-0.990811
-1.00332
-1.01736
-1.03303
-1.05044
-1.0697
-1.09094
-1.11432
-1.14
-1.16817
-1.19903
-1.23278
-1.26957
-1.30955
-1.35286
-1.39956
-1.44963
-1.50293
-1.55913
-1.61775
-1.6782
-1.73985
-1.80221
-1.86502
-1.92845
-1.99313
-2.06016
-2.13096
-2.2071
-2.28996
-2.38057
-2.47937
-2.5862
-2.70028
-2.82031
-2.94463
-0.930815
-0.933325
-0.937412
-0.942494
-0.948385
-0.955148
-0.962885
-0.971699
-0.981696
-0.992983
-1.00566
-1.01984
-1.03561
-1.05308
-1.07236
-1.09358
-1.11686
-1.14236
-1.17025
-1.2007
-1.23392
-1.27009
-1.3094
-1.35203
-1.39809
-1.44757
-1.50035
-1.55611
-1.61436
-1.67449
-1.73588
-1.79804
-1.86077
-1.9243
-1.98937
-2.05716
-2.12913
-2.20682
-2.29156
-2.38423
-2.48522
-2.59436
-2.71096
-2.83385
-2.96129
-0.928625
-0.931346
-0.93581
-0.941288
-0.947527
-0.954589
-0.962579
-0.971608
-0.981786
-0.993223
-1.00602
-1.02029
-1.03612
-1.05361
-1.07286
-1.09398
-1.1171
-1.14233
-1.16985
-1.19983
-1.23247
-1.26799
-1.30661
-1.34855
-1.39394
-1.44283
-1.49509
-1.5504
-1.60828
-1.6681
-1.72923
-1.79118
-1.85381
-1.91742
-1.9828
-2.05121
-2.12415
-2.2031
-2.28933
-2.38366
-2.48641
-2.59747
-2.71624
-2.84166
-2.97189
-0.924949
-0.927864
-0.932653
-0.938469
-0.945002
-0.952312
-0.960508
-0.969706
-0.98002
-0.991561
-1.00444
-1.01874
-1.03458
-1.05203
-1.0712
-1.09216
-1.11504
-1.13995
-1.16704
-1.19648
-1.22849
-1.26331
-1.30119
-1.34238
-1.38707
-1.43531
-1.487
-1.54185
-1.59933
-1.6588
-1.71963
-1.78135
-1.84383
-1.90743
-1.97303
-2.04189
-2.11552
-2.19538
-2.28264
-2.37806
-2.48201
-2.59444
-2.7149
-2.84239
-2.97501
-0.919847
-0.922919
-0.927975
-0.934067
-0.940838
-0.948343
-0.956696
-0.966015
-0.976417
-0.988015
-1.00092
-1.01521
-1.031
-1.04836
-1.06738
-1.08813
-1.11071
-1.13522
-1.16182
-1.19067
-1.222
-1.25606
-1.29315
-1.33353
-1.37743
-1.42494
-1.47599
-1.53026
-1.58725
-1.6463
-1.70677
-1.76819
-1.83046
-1.89397
-1.95963
-2.02873
-2.10275
-2.18307
-2.2708
-2.3667
-2.47117
-2.5843
-2.7058
-2.83477
-2.96929
-0.913361
-0.916549
-0.921809
-0.928113
-0.935062
-0.942707
-0.951166
-0.960556
-0.970998
-0.982603
-0.995477
-1.00971
-1.0254
-1.0426
-1.06141
-1.08188
-1.10409
-1.12816
-1.15421
-1.18241
-1.213
-1.24625
-1.28247
-1.32197
-1.36499
-1.41166
-1.46192
-1.51548
-1.57183
-1.63032
-1.6903
-1.75132
-1.81328
-1.87659
-1.94216
-2.01125
-2.08529
-2.16558
-2.2532
-2.34888
-2.45314
-2.5662
-2.68796
-2.81765
-2.95348
-0.905534
-0.908795
-0.914194
-0.920642
-0.927708
-0.935437
-0.943948
-0.95336
-0.963791
-0.975353
-0.988147
-1.00227
-1.01779
-1.03478
-1.05331
-1.07343
-1.09522
-1.11877
-1.14421
-1.1717
-1.20149
-1.23386
-1.26914
-1.30766
-1.34968
-1.39538
-1.4447
-1.49737
-1.5529
-1.61065
-1.66999
-1.73045
-1.79195
-1.8549
-1.92015
-1.98893
-2.06255
-2.14229
-2.22916
-2.32393
-2.42721
-2.53939
-2.66051
-2.79003
-2.92637
-0.896408
-0.899703
-0.90518
-0.911705
-0.918826
-0.926582
-0.935093
-0.944476
-0.954846
-0.966312
-0.978973
-0.992916
-1.00822
-1.02493
-1.04312
-1.06284
-1.08414
-1.10711
-1.13188
-1.1586
-1.18752
-1.21893
-1.25317
-1.2906
-1.33149
-1.37604
-1.42423
-1.4758
-1.5303
-1.58711
-1.6456
-1.70534
-1.76623
-1.82861
-1.89329
-1.96138
-2.03413
-2.11271
-2.19815
-2.29126
-2.39273
-2.50311
-2.6226
-2.7509
-2.88679
-0.886036
-0.889331
-0.894826
-0.901367
-0.908484
-0.916213
-0.924672
-0.933975
-0.944233
-0.955552
-0.968027
-0.98174
-0.996759
-1.01314
-1.03093
-1.05017
-1.07092
-1.09326
-1.11728
-1.14317
-1.17114
-1.20152
-1.23462
-1.27082
-1.31043
-1.35364
-1.40047
-1.45071
-1.50392
-1.55954
-1.61698
-1.67579
-1.73586
-1.79747
-1.8613
-1.92835
-1.99973
-2.07658
-2.15989
-2.25056
-2.34936
-2.45696
-2.5737
-2.69951
-2.8336
-0.874478
-0.877743
-0.883204
-0.889704
-0.896762
-0.904414
-0.912772
-0.921946
-0.932044
-0.943166
-0.955403
-0.968831
-0.983513
-0.999499
-1.01683
-1.03554
-1.05568
-1.07731
-1.10053
-1.12551
-1.15248
-1.18172
-1.21358
-1.24843
-1.28658
-1.32824
-1.37347
-1.42209
-1.47374
-1.5279
-1.58401
-1.64165
-1.70068
-1.76126
-1.82396
-1.88959
-1.95917
-2.03372
-2.11425
-2.20171
-2.29697
-2.40077
-2.51358
-2.63559
-2.76638
-0.861795
-0.865006
-0.870389
-0.876798
-0.883751
-0.891279
-0.89949
-0.90849
-0.918381
-0.929258
-0.941207
-0.954298
-0.968589
-0.984125
-1.00094
-1.01906
-1.03852
-1.05939
-1.08176
-1.10577
-1.13165
-1.15968
-1.1902
-1.22355
-1.26006
-1.29997
-1.34334
-1.39006
-1.43984
-1.4922
-1.54668
-1.60286
-1.66055
-1.71984
-1.78109
-1.84496
-1.9123
-1.98406
-2.06122
-2.14477
-2.23563
-2.33461
-2.4423
-2.55912
-2.68504
-0.848049
-0.851188
-0.856456
-0.862733
-0.869539
-0.876903
-0.884927
-0.893712
-0.903353
-0.91394
-0.925552
-0.938257
-0.952107
-0.967139
-0.983381
-1.00086
-1.0196
-1.03965
-1.0611
-1.08409
-1.10882
-1.13556
-1.16462
-1.19635
-1.23107
-1.26901
-1.31028
-1.35482
-1.40239
-1.45263
-1.50512
-1.55949
-1.61551
-1.67315
-1.73263
-1.7944
-1.85913
-1.92767
-2.00095
-2.07996
-2.16563
-2.25882
-2.36022
-2.47045
-2.58984
-0.833298
-0.836352
-0.841476
-0.847587
-0.854212
-0.861376
-0.869178
-0.877709
-0.88706
-0.897315
-0.908548
-0.920821
-0.93418
-0.948659
-0.964281
-0.981063
-0.999028
-1.01822
-1.03871
-1.06062
-1.08414
-1.10952
-1.13704
-1.16704
-1.19982
-1.23561
-1.27455
-1.31663
-1.36168
-1.40944
-1.45956
-1.51173
-1.56568
-1.6213
-1.67864
-1.73796
-1.79975
-1.86471
-1.9337
-2.00765
-2.08746
-2.17398
-2.268
-2.37023
-2.48131
-0.817591
-0.820553
-0.825511
-0.831428
-0.837844
-0.84478
-0.852327
-0.860571
-0.869596
-0.879481
-0.890293
-0.902091
-0.914915
-0.928796
-0.943752
-0.959794
-0.976939
-0.99522
-1.0147
-1.03549
-1.05775
-1.08171
-1.10763
-1.13581
-1.16653
-1.20003
-1.23645
-1.27583
-1.31808
-1.36302
-1.41039
-1.45993
-1.51138
-1.56455
-1.61935
-1.67586
-1.73438
-1.79547
-1.85985
-1.92833
-2.00176
-2.08092
-2.1666
-2.25959
-2.36059
-0.800973
-0.803838
-0.808613
-0.814316
-0.8205
-0.827182
-0.834446
-0.842373
-0.85104
-0.860518
-0.870873
-0.882156
-0.894405
-0.907645
-0.921892
-0.937152
-0.953436
-0.970769
-0.989204
-1.00883
-1.0298
-1.0523
-1.07656
-1.10286
-1.13145
-1.16254
-1.1963
-1.2328
-1.272
-1.31381
-1.35808
-1.40458
-1.45308
-1.50334
-1.55517
-1.60849
-1.66343
-1.72038
-1.7799
-1.84264
-1.90932
-1.98062
-2.05729
-2.14005
-2.22951
-0.783479
-0.786245
-0.790826
-0.796299
-0.802231
-0.808637
-0.815595
-0.823178
-0.831457
-0.840498
-0.850361
-0.861092
-0.872728
-0.88529
-0.898789
-0.91323
-0.928617
-0.944967
-0.962322
-0.980759
-1.0004
-1.02141
-1.04399
-1.06837
-1.09477
-1.1234
-1.15441
-1.18789
-1.22388
-1.26233
-1.30317
-1.34626
-1.39138
-1.43829
-1.4867
-1.53644
-1.58749
-1.64006
-1.69452
-1.75137
-1.8111
-1.87429
-1.94155
-2.01347
-2.09048
-0.765139
-0.767807
-0.772187
-0.777416
-0.783082
-0.789194
-0.795824
-0.80304
-0.810904
-0.819479
-0.828819
-0.838967
-0.849956
-0.861805
-0.874522
-0.888109
-0.902565
-0.917903
-0.934151
-0.951372
-0.969664
-0.989164
-1.01004
-1.03249
-1.05671
-1.08285
-1.11108
-1.14149
-1.17414
-1.20907
-1.24625
-1.28561
-1.32699
-1.37012
-1.4147
-1.46048
-1.50733
-1.55529
-1.60458
-1.65546
-1.70825
-1.7633
-1.82109
-1.88204
-1.94641
-0.745979
-0.748552
-0.752726
-0.757703
-0.763089
-0.768892
-0.775177
-0.782004
-0.789431
-0.797515
-0.806304
-0.81584
-0.826152
-0.837257
-0.849162
-0.861866
-0.875364
-0.889663
-0.904782
-0.920768
-0.9377
-0.955687
-0.974867
-0.995397
-1.01743
-1.04111
-1.06657
-1.09391
-1.1232
-1.15452
-1.1879
-1.22332
-1.26066
-1.29968
-1.34007
-1.38155
-1.42389
-1.46705
-1.51107
-1.55603
-1.60201
-1.64918
-1.6978
-1.74812
-1.80019
-0.726024
-0.728506
-0.732472
-0.73719
-0.742287
-0.747769
-0.753693
-0.760114
-0.767084
-0.774654
-0.78287
-0.791769
-0.801379
-0.811715
-0.822782
-0.834578
-0.847097
-0.860336
-0.874309
-0.889049
-0.904614
-0.92109
-0.938585
-0.957221
-0.977118
-0.998391
-1.02114
-1.04546
-1.07143
-1.09915
-1.12868
-1.16005
-1.19317
-1.22784
-1.26378
-1.30067
-1.33827
-1.37644
-1.41512
-1.45424
-1.49368
-1.53339
-1.57343
-1.61386
-1.65451
-0.705302
-0.707696
-0.711455
-0.715911
-0.720712
-0.725861
-0.731413
-0.737413
-0.74391
-0.750949
-0.758572
-0.766815
-0.775702
-0.785249
-0.795459
-0.806329
-0.817849
-0.830016
-0.842832
-0.856319
-0.870519
-0.885496
-0.90133
-0.918112
-0.935932
-0.954873
-0.975009
-0.996413
-1.01917
-1.04337
-1.0691
-1.09641
-1.12526
-1.15548
-1.18682
-1.21895
-1.25164
-1.28469
-1.31798
-1.35135
-1.38454
-1.4173
-1.44951
-1.48103
-1.51152
-0.68384
-0.68615
-0.689705
-0.693897
-0.698397
-0.703208
-0.708377
-0.713946
-0.719957
-0.726452
-0.733468
-0.741039
-0.749189
-0.757932
-0.767272
-0.777203
-0.787716
-0.798802
-0.810458
-0.822694
-0.835539
-0.849035
-0.863242
-0.878222
-0.894038
-0.910743
-0.928387
-0.947019
-0.966705
-0.987533
-1.00959
-1.03296
-1.0576
-1.08341
-1.11013
-1.13749
-1.16521
-1.19311
-1.22103
-1.24875
-1.27596
-1.30229
-1.32743
-1.3511
-1.3729
-0.661671
-0.663901
-0.667254
-0.671184
-0.675381
-0.67985
-0.684631
-0.689761
-0.695278
-0.701218
-0.707618
-0.714509
-0.721912
-0.729843
-0.738305
-0.747292
-0.756794
-0.766799
-0.777298
-0.788293
-0.799799
-0.811843
-0.824464
-0.837703
-0.851597
-0.866177
-0.881466
-0.897491
-0.914296
-0.931951
-0.950542
-0.970141
-0.990754
-1.01229
-1.03454
-1.05723
-1.08011
-1.10296
-1.12563
-1.14789
-1.16942
-1.18979
-1.20858
-1.22546
-1.24002
-0.638828
-0.640983
-0.644138
-0.647809
-0.651705
-0.65583
-0.66022
-0.664907
-0.669924
-0.675305
-0.681083
-0.687287
-0.69394
-0.701056
-0.708638
-0.716682
-0.725176
-0.734107
-0.743461
-0.753233
-0.763425
-0.774052
-0.785136
-0.7967
-0.808763
-0.821335
-0.834419
-0.848018
-0.862152
-0.876868
-0.892237
-0.908325
-0.925156
-0.942663
-0.960676
-0.978952
-0.997235
-1.01531
-1.033
-1.0501
-1.06631
-1.08121
-1.09436
-1.10539
-1.11402
-0.615351
-0.617434
-0.620395
-0.623811
-0.62741
-0.631193
-0.635191
-0.639434
-0.643948
-0.648767
-0.653921
-0.659438
-0.66534
-0.671641
-0.678347
-0.685455
-0.692951
-0.700822
-0.70905
-0.717623
-0.726535
-0.735788
-0.745391
-0.755353
-0.765679
-0.776364
-0.787395
-0.798754
-0.81044
-0.822473
-0.8349
-0.847777
-0.861131
-0.874923
-0.88902
-0.903212
-0.917259
-0.930939
-0.944065
-0.956441
-0.967798
-0.977774
-0.985952
-0.991991
-0.995759
-0.591281
-0.593293
-0.596065
-0.599232
-0.602538
-0.605982
-0.609591
-0.613389
-0.617402
-0.621659
-0.626189
-0.631021
-0.636175
-0.641668
-0.647507
-0.653689
-0.660203
-0.667034
-0.674161
-0.681567
-0.689239
-0.697168
-0.705353
-0.713791
-0.722478
-0.731397
-0.740525
-0.749831
-0.759292
-0.768904
-0.778688
-0.78868
-0.798904
-0.809338
-0.819887
-0.83038
-0.840605
-0.850345
-0.859408
-0.8676
-0.874682
-0.880345
-0.884225
-0.886049
-0.885816
-0.566658
-0.568602
-0.571189
-0.574113
-0.577133
-0.580244
-0.583468
-0.586825
-0.590338
-0.594037
-0.597948
-0.6021
-0.606515
-0.61121
-0.616194
-0.621467
-0.62702
-0.632835
-0.638892
-0.64517
-0.651649
-0.658313
-0.665149
-0.672147
-0.679294
-0.686568
-0.69394
-0.701369
-0.70882
-0.716268
-0.723709
-0.731154
-0.738617
-0.746082
-0.753483
-0.76069
-0.767528
-0.773805
-0.779334
-0.783925
-0.787366
-0.789387
-0.78968
-0.788041
-0.784504
-0.541527
-0.543404
-0.54581
-0.5485
-0.551243
-0.554028
-0.556872
-0.559794
-0.562814
-0.56596
-0.569261
-0.572744
-0.576433
-0.580347
-0.584496
-0.588882
-0.593498
-0.598329
-0.603354
-0.608549
-0.613888
-0.619349
-0.624913
-0.630559
-0.63627
-0.642019
-0.647774
-0.653493
-0.659134
-0.664658
-0.67004
-0.67527
-0.680344
-0.685243
-0.689917
-0.694271
-0.698169
-0.701453
-0.703958
-0.705515
-0.705934
-0.704985
-0.702405
-0.698027
-0.691838
-0.515937
-0.517746
-0.519975
-0.522441
-0.524918
-0.527387
-0.529859
-0.532352
-0.534887
-0.537491
-0.540194
-0.543024
-0.546007
-0.549161
-0.552499
-0.556026
-0.559738
-0.563621
-0.567655
-0.571816
-0.576074
-0.580403
-0.584775
-0.589164
-0.593545
-0.597891
-0.602166
-0.606332
-0.610344
-0.614159
-0.617742
-0.621064
-0.624104
-0.626834
-0.629209
-0.631153
-0.632565
-0.633319
-0.633284
-0.632321
-0.630274
-0.626951
-0.622133
-0.615666
-0.6075
-0.489938
-0.491671
-0.493728
-0.495985
-0.49821
-0.500374
-0.502483
-0.504555
-0.506612
-0.508686
-0.510805
-0.513001
-0.515299
-0.51772
-0.520279
-0.522981
-0.525826
-0.528802
-0.531893
-0.535072
-0.538312
-0.541581
-0.544846
-0.548075
-0.551239
-0.554304
-0.557237
-0.56
-0.562552
-0.564852
-0.56686
-0.568541
-0.569863
-0.570789
-0.571271
-0.571244
-0.570624
-0.569312
-0.567205
-0.564198
-0.56017
-0.554976
-0.54844
-0.54043
-0.530928
-0.463552
-0.465205
-0.467107
-0.469177
-0.471169
-0.47304
-0.474795
-0.476451
-0.478039
-0.479592
-0.481143
-0.482725
-0.484364
-0.486083
-0.487897
-0.489813
-0.491833
-0.493949
-0.496145
-0.498399
-0.500684
-0.502966
-0.505209
-0.507378
-0.509437
-0.511349
-0.513079
-0.514589
-0.515843
-0.516803
-0.517435
-0.517703
-0.517573
-0.517006
-0.515954
-0.514354
-0.512132
-0.509204
-0.505486
-0.500893
-0.495339
-0.488719
-0.480907
-0.471815
-0.461479
-0.436785
-0.43837
-0.44015
-0.44207
-0.443852
-0.445441
-0.446844
-0.44809
-0.449214
-0.450256
-0.451255
-0.452246
-0.453256
-0.454307
-0.455415
-0.456588
-0.457829
-0.459133
-0.460489
-0.461876
-0.463269
-0.464635
-0.46594
-0.467146
-0.468211
-0.469096
-0.469763
-0.470173
-0.470291
-0.470084
-0.469522
-0.468576
-0.467217
-0.46541
-0.463115
-0.460274
-0.456822
-0.452681
-0.447777
-0.442038
-0.435397
-0.427781
-0.419109
-0.409338
-0.398534
-0.409709
-0.411235
-0.412934
-0.414743
-0.416329
-0.417636
-0.418686
-0.419519
-0.420183
-0.420727
-0.421194
-0.421621
-0.422034
-0.422456
-0.422902
-0.42338
-0.423894
-0.424441
-0.425011
-0.425589
-0.426153
-0.426674
-0.427119
-0.42745
-0.427627
-0.427607
-0.427347
-0.426809
-0.425955
-0.424753
-0.423178
-0.421205
-0.418814
-0.415981
-0.412675
-0.408854
-0.404463
-0.399435
-0.393702
-0.387201
-0.379873
-0.371668
-0.36253
-0.352446
-0.341475
-0.382498
-0.383925
-0.385537
-0.387273
-0.388672
-0.389687
-0.390368
-0.390781
-0.390988
-0.391047
-0.391004
-0.390896
-0.390751
-0.390588
-0.390421
-0.390257
-0.390099
-0.389946
-0.38979
-0.38962
-0.389417
-0.389159
-0.388817
-0.388356
-0.387738
-0.386921
-0.385861
-0.384516
-0.382849
-0.380825
-0.378418
-0.375606
-0.372375
-0.368711
-0.364596
-0.360005
-0.354898
-0.349228
-0.342939
-0.335976
-0.328288
-0.319833
-0.310569
-0.300492
-0.289647
-0.35499
-0.356478
-0.357979
-0.359713
-0.360948
-0.361652
-0.361942
-0.361919
-0.361667
-0.361251
-0.360722
-0.360114
-0.359453
-0.358753
-0.358025
-0.357275
-0.356505
-0.355713
-0.354893
-0.354037
-0.353133
-0.352161
-0.3511
-0.34992
-0.348589
-0.347067
-0.345315
-0.343289
-0.340951
-0.338264
-0.335199
-0.331733
-0.327854
-0.323552
-0.31882
-0.313647
-0.308015
-0.301896
-0.295253
-0.288045
-0.280233
-0.271779
-0.262648
-0.252838
-0.242387
-0.326098
-0.328943
-0.330459
-0.332249
-0.333297
-0.333633
-0.333478
-0.33299
-0.332273
-0.331396
-0.330407
-0.329335
-0.3282
-0.327013
-0.32578
-0.324503
-0.323182
-0.321815
-0.320397
-0.318923
-0.317383
-0.315765
-0.314052
-0.312222
-0.31025
-0.308102
-0.305744
-0.303137
-0.300244
-0.297027
-0.293455
-0.289504
-0.285155
-0.280402
-0.275242
-0.269674
-0.263696
-0.257299
-0.250467
-0.243178
-0.235408
-0.227127
-0.21831
-0.208953
-0.19909
-0.295232
-0.30197
-0.303565
-0.305231
-0.305881
-0.305681
-0.304981
-0.303987
-0.302799
-0.301477
-0.300058
-0.298563
-0.297001
-0.295378
-0.293694
-0.291949
-0.290141
-0.288266
-0.286321
-0.284299
-0.282196
-0.280003
-0.277708
-0.275297
-0.272751
-0.270046
-0.267155
-0.264047
-0.260688
-0.257044
-0.253084
-0.24878
-0.244115
-0.239076
-0.233662
-0.227877
-0.221728
-0.215219
-0.208354
-0.201129
-0.193534
-0.185556
-0.177178
-0.168395
-0.159225
-0.265583
-0.276918
-0.277464
-0.278512
-0.278535
-0.277654
-0.276337
-0.274819
-0.273176
-0.271439
-0.269626
-0.267746
-0.265801
-0.263788
-0.261706
-0.259551
-0.257317
-0.255001
-0.252597
-0.250102
-0.24751
-0.244817
-0.242015
-0.239095
-0.236045
-0.23285
-0.229491
-0.225946
-0.222188
-0.218189
-0.213922
-0.209362
-0.20449
-0.199293
-0.19377
-0.187923
-0.181765
-0.175309
-0.168567
-0.16155
-0.154264
-0.146711
-0.13888
-0.130762
-0.122342
-0.237778
-0.257566
-0.253656
-0.2526
-0.251765
-0.250234
-0.24832
-0.246292
-0.244211
-0.242081
-0.239898
-0.23766
-0.235363
-0.232999
-0.230563
-0.228047
-0.225444
-0.222748
-0.219953
-0.217054
-0.214046
-0.210926
-0.207689
-0.20433
-0.200842
-0.197217
-0.193444
-0.189508
-0.185392
-0.181078
-0.176545
-0.171775
-0.166752
-0.161468
-0.155921
-0.150115
-0.144063
-0.137783
-0.131295
-0.124619
-0.117772
-0.110765
-0.103598
-0.0962504
-0.0886649
-0.184622
-0.258989
-0.243704
-0.232292
-0.227704
-0.22479
-0.221984
-0.21927
-0.216657
-0.21409
-0.211529
-0.208947
-0.206327
-0.203653
-0.200913
-0.198094
-0.195186
-0.192181
-0.189071
-0.18585
-0.182512
-0.179053
-0.17547
-0.17176
-0.167918
-0.163941
-0.159824
-0.15556
-0.151142
-0.146561
-0.141806
-0.13687
-0.131746
-0.126433
-0.120932
-0.115254
-0.109415
-0.103436
-0.0973403
-0.0911559
-0.0849081
-0.0786148
-0.0722796
-0.065873
-0.0592894
-0.0619707
-0.296561
-0.246422
-0.210969
-0.198645
-0.192478
-0.187809
-0.183943
-0.180568
-0.177452
-0.17446
-0.171516
-0.168573
-0.165598
-0.16257
-0.15947
-0.156283
-0.152999
-0.149608
-0.146104
-0.14248
-0.138734
-0.134861
-0.13086
-0.12673
-0.122472
-0.118086
-0.113573
-0.108936
-0.104179
-0.0993041
-0.0943179
-0.089228
-0.0840444
-0.0787808
-0.0734544
-0.0680857
-0.0626976
-0.0573144
-0.0519592
-0.0466487
-0.0413838
-0.0361336
-0.0308078
-0.025192
)
;

boundaryField
{
    leftWall
    {
        type            fixedFluxPressure;
        gradient        uniform 0;
        value           nonuniform List<scalar> 
42
(
-0.927409
-0.93027
-0.931423
-0.930815
-0.928625
-0.924949
-0.919847
-0.913361
-0.905534
-0.896408
-0.886036
-0.874478
-0.861795
-0.848049
-0.833298
-0.817591
-0.800973
-0.783479
-0.765139
-0.745979
-0.726024
-0.705302
-0.68384
-0.661671
-0.638828
-0.615351
-0.591281
-0.566658
-0.541527
-0.515937
-0.489938
-0.463552
-0.436785
-0.409709
-0.382498
-0.35499
-0.326098
-0.295232
-0.265583
-0.237778
-0.184622
-0.0619707
)
;
    }
    rightWall
    {
        type            fixedFluxPressure;
        gradient        nonuniform 0();
        value           nonuniform 0();
    }
    lowerWall
    {
        type            fixedFluxPressure;
        gradient        nonuniform 0();
        value           nonuniform 0();
    }
    atmosphere
    {
        type            totalPressure;
        rho             rho;
        psi             none;
        gamma           1;
        p0              uniform 0;
        value           nonuniform List<scalar> 
45
(
-0.0772061
-0.199942
-0.186394
-0.17755
-0.171291
-0.166289
-0.16206
-0.158338
-0.154936
-0.151726
-0.14862
-0.145555
-0.142489
-0.139389
-0.136233
-0.133002
-0.129682
-0.126263
-0.122736
-0.119096
-0.115337
-0.111456
-0.107452
-0.103324
-0.0990739
-0.0947041
-0.0902193
-0.0856259
-0.0809321
-0.0761481
-0.0712865
-0.0663617
-0.0613906
-0.0563925
-0.051389
-0.0464041
-0.0414647
-0.0366004
-0.0318438
-0.0272306
-0.0228003
-0.0185962
-0.0146673
-0.0110694
-0.00786718
)
;
    }
    defaultFaces
    {
        type            empty;
    }
    procBoundary2to0
    {
        type            processor;
        value           nonuniform List<scalar> 
46
(
-1.20503
-1.2436
-1.28568
-1.33121
-1.38014
-1.43235
-1.48764
-1.54563
-1.60583
-1.66765
-1.73045
-1.79366
-1.85685
-1.9199
-1.98309
-2.04716
-2.1133
-2.18307
-2.25806
-2.3397
-2.42882
-2.52544
-2.62883
-2.7367
-2.84659
-0.922802
-0.925261
-0.927205
-0.930213
-0.934216
-0.939318
-0.945607
-0.95316
-0.962058
-0.972391
-0.984255
-0.997754
-1.013
-1.03009
-1.04918
-1.07037
-1.09384
-1.11973
-1.14826
-1.17978
-1.17978
)
;
    }
    procBoundary2to3
    {
        type            processor;
        value           nonuniform List<scalar> 
43
(
-2.98755
-3.01805
-3.04619
-3.07071
-3.09047
-3.10383
-3.10945
-3.10598
-3.09216
-3.06671
-3.02788
-2.97411
-2.90474
-2.81951
-2.71851
-2.6019
-2.47053
-2.32658
-2.17337
-2.01459
-1.854
-1.69502
-1.54046
-1.39229
-1.25182
-1.11991
-0.997045
-0.883395
-0.778958
-0.683741
-0.597581
-0.519912
-0.449886
-0.386675
-0.329595
-0.278023
-0.231298
-0.188727
-0.14965
-0.113557
-0.0807215
-0.0523395
-0.0188679
)
;
    }
}


// ************************************************************************* //
