/*--------------------------------*- C++ -*----------------------------------*\
  =========                 |
  \\      /  F ield         | OpenFOAM: The Open Source CFD Toolbox
   \\    /   O peration     | Website:  https://openfoam.org
    \\  /    A nd           | Version:  7
     \\/     M anipulation  |
\*---------------------------------------------------------------------------*/
FoamFile
{
    version     2.0;
    format      ascii;
    class       Cloud<dsmcParcel>;
    location    "0.00108/lagrangian/dsmc";
    object      positions;
}
// * * * * * * * * * * * * * * * * * * * * * * * * * * * * * * * * * * * * * //

27913
(
(0.844915 0.0775425 0.0775425 0) 1 0 1
(0.748665 0.125667 0 0.125667) 1 1 1
(0.650094 0.174953 0.174953 0) 2 1 1
(0.705539 0.147231 0 0.147231) 4 4 1
(0.971006 0.0144972 0.0144972 0) 5 4 1
(0.864641 0.0676797 0 0.0676797) 0 0 1
(0.128701 0.43565 0 0.43565) 4 4 1
(0.389364 0.305318 0.305318 0) 5 4 1
(0.834339 0.0828305 0.0828305 0) 2 1 1
(0.135795 0.432103 0 0.432103) 2 2 1
(0.200235 0.399882 0.399882 0) 5 5 2
(0.285766 0.357117 0.357117 0) 2 1 1
(0.843414 0.0782931 0 0.0782931) 3 2 2
(0.717758 0.141121 0 0.141121) 4 3 2
(0.839401 0.0802997 0.0802997 0) 5 5 2
(0.0898125 0.455094 0 0.455094) 8 7 2
(0.616514 0.191743 0.191743 0) 1 0 1
(0.808893 0.0955534 0 0.0955534) 5 4 2
(0.309846 0.345077 0.345077 0) 1 1 2
(0.230871 0.384564 0.384564 0) 3 2 1
(0.612864 0.193568 0.193568 0) 5 4 1
(0.598172 0.200914 0.200914 0) 2 1 1
(0.738924 0.130538 0.130538 0) 1 0 1
(0.445109 0.277446 0 0.277446) 7 6 2
(0.129495 0.435252 0 0.435252) 2 1 2
(0.460142 0.269929 0.269929 0) 4 3 1
(0.760981 0.11951 0 0.11951) 4 4 1
(0.99529 0.00235521 0.00235521 0) 3 2 1
(0.79535 0.102325 0.102325 0) 4 3 1
(0.329203 0.335398 0 0.335398) 4 4 1
(0.543547 0.228226 0 0.228226) 2 2 1
(0.939673 0.0301636 0 0.0301636) 4 4 1
(0.815109 0.0924454 0 0.0924454) 5 5 1
(0.950308 0.0248458 0.0248458 0) 3 3 2
(0.746628 0.126686 0 0.126686) 0 0 1
(0.0110633 0.494468 0 0.494468) 3 3 1
(0.00368232 0.498159 0 0.498159) 1 1 1
(0.804718 0.097641 0.097641 0) 4 4 2
(0.6356 0.1822 0.1822 0) 6 5 1
(0.364185 0.317907 0 0.317907) 3 3 1
(0.854902 0.0725492 0 0.0725492) 8 8 1
(0.325624 0.337188 0.337188 0) 5 4 1
(0.795836 0.102082 0.102082 0) 2 2 2
(0.567464 0.216268 0.216268 0) 0 0 2
(0.294453 0.352774 0.352774 0) 3 2 1
(0.548182 0.225909 0 0.225909) 1 0 2
(0.431528 0.284236 0 0.284236) 7 7 1
(0.704137 0.147931 0.147931 0) 6 6 2
(0.201178 0.399411 0 0.399411) 2 2 1
(0.273461 0.363269 0.363269 0) 3 2 1
(0.255659 0.372171 0 0.372171) 3 2 2
(0.889703 0.0551486 0 0.0551486) 5 4 2
(0.600785 0.199607 0 0.199607) 4 3 2
(0.00373266 0.498134 0 0.498134) 4 3 2
(0.332643 0.333679 0.333679 0) 3 3 2
(0.750413 0.124793 0 0.124793) 5 5 1
(0.403863 0.298068 0.298068 0) 3 2 1
(0.133276 0.433362 0 0.433362) 1 1 1
(0.935864 0.0320682 0.0320682 0) 3 3 2
(0.953579 0.0232104 0.0232104 0) 2 2 2
(0.699936 0.150032 0 0.150032) 2 1 2
(0.40572 0.29714 0.29714 0) 2 2 2
(0.541514 0.229243 0 0.229243) 4 3 2
(0.735564 0.132218 0.132218 0) 4 4 2
(0.691067 0.154467 0 0.154467) 3 3 1
(0.940034 0.0299831 0 0.0299831) 1 1 1
(0.540804 0.229598 0 0.229598) 0 0 1
(0.105606 0.447197 0.447197 0) 7 6 1
(0.963427 0.0182864 0.0182864 0) 4 3 1
(0.893341 0.0533294 0 0.0533294) 5 5 1
(0.295341 0.35233 0 0.35233) 2 1 2
(0.142333 0.428834 0 0.428834) 3 2 2
(0.654731 0.172635 0 0.172635) 4 3 2
(0.893228 0.0533859 0.0533859 0) 1 0 1
(0.037003 0.481499 0 0.481499) 7 6 2
(0.879018 0.0604908 0 0.0604908) 2 1 2
(0.371584 0.314208 0 0.314208) 3 2 2
(0.90288 0.0485599 0 0.0485599) 3 2 2
(0.981433 0.00928362 0.00928362 0) 1 1 2
(0.134415 0.432792 0 0.432792) 2 1 2
(0.502737 0.248631 0.248631 0) 1 1 2
(0.638397 0.180801 0 0.180801) 4 4 1
(0.432361 0.28382 0.28382 0) 4 4 2
(0.543657 0.228172 0 0.228172) 7 6 2
(0.61994 0.19003 0.19003 0) 3 2 1
(0.382273 0.308863 0.308863 0) 4 3 1
(0.784916 0.107542 0 0.107542) 1 1 1
(0.253316 0.373342 0 0.373342) 7 7 1
(0.317086 0.341457 0.341457 0) 2 2 2
(0.531695 0.234153 0 0.234153) 4 3 2
(0.249503 0.375248 0 0.375248) 3 2 2
(0.993343 0.00332844 0 0.00332844) 2 1 2
(0.516158 0.241921 0 0.241921) 1 0 2
(0.19895 0.400525 0.400525 0) 2 1 1
(0.557809 0.221095 0 0.221095) 3 2 2
(0.454622 0.272689 0.272689 0) 0 0 2
(0.833373 0.0833137 0 0.0833137) 1 1 1
(0.123655 0.438173 0.438173 0) 8 7 1
(0.469274 0.265363 0 0.265363) 3 3 1
(0.483669 0.258165 0.258165 0) 6 5 1
(0.194878 0.402561 0.402561 0) 3 2 1
(0.193791 0.403105 0.403105 0) 5 4 1
(0.895618 0.0521912 0.0521912 0) 6 5 1
(0.0235991 0.4882 0 0.4882) 4 4 1
(0.739573 0.130214 0.130214 0) 2 2 2
(0.501801 0.249099 0 0.249099) 2 1 2
(0.143373 0.428313 0 0.428313) 3 3 1
(0.33438 0.33281 0.33281 0) 5 5 2
(0.779527 0.110236 0.110236 0) 3 2 1
(0.515321 0.24234 0 0.24234) 1 0 2
(0.743809 0.128095 0 0.128095) 8 7 2
(0.0165831 0.491708 0.491708 0) 3 2 1
(0.040299 0.47985 0 0.47985) 2 2 1
(0.904308 0.0478459 0 0.0478459) 1 0 2
(0.389347 0.305326 0 0.305326) 2 2 1
(0.853212 0.0733938 0 0.0733938) 5 5 1
(0.467611 0.266195 0 0.266195) 0 0 1
(0.190713 0.404644 0.404644 0) 14 14 2
(0.168843 0.415578 0 0.415578) 3 3 1
(0.630106 0.184947 0.184947 0) 3 2 1
(0.6054 0.1973 0 0.1973) 5 5 1
(0.582632 0.208684 0 0.208684) 0 624 1
(0.914682 0.0426588 0 0.0426588) 4 3 2
(0.0696186 0.465191 0 0.465191) 3 3 1
(0.379837 0.310082 0 0.310082) 7 6 2
(0.825202 0.0873991 0.0873991 0) 2 2 2
(0.383855 0.308073 0.308073 0) 3 3 2
(0.335152 0.332424 0 0.332424) 3 3 1
(0.647182 0.176409 0.176409 0) 2 2 2
(0.899179 0.0504104 0.0504104 0) 2 1 1
(0.0208466 0.489577 0 0.489577) 3 3 1
(0.159011 0.420495 0 0.420495) 4 4 1
(0.717921 0.141039 0 0.141039) 7 7 1
(0.208526 0.395737 0 0.395737) 4 3 2
(0.513894 0.243053 0 0.243053) 1 1 1
(0.501283 0.249358 0 0.249358) 2 2 1
(0.512399 0.2438 0.2438 0) 7 7 2
(0.177246 0.411377 0 0.411377) 2 1 2
(0.0816189 0.459191 0.459191 0) 6 5 1
(0.795798 0.102101 0.102101 0) 4 4 2
(0.589088 0.205456 0.205456 0) 2 2 2
(0.599884 0.200058 0.200058 0) 2 2 2
(0.450902 0.274549 0 0.274549) 5 4 2
(0.453757 0.273122 0.273122 0) 3 2 1
(0.409562 0.295219 0 0.295219) 3 3 1
(0.38006 0.30997 0 0.30997) 4 4 1
(0.45444 0.27278 0.27278 0) 3 2 1
(0.321492 0.339254 0 0.339254) 4 4 1
(0.235664 0.382168 0.382168 0) 4 3 1
(0.274075 0.362963 0 0.362963) 8 8 1
(0.647699 0.17615 0 0.17615) 0 0 1
(0.381516 0.309242 0.309242 0) 4 3 1
(0.892438 0.0537811 0 0.0537811) 1 1 1
(0.400133 0.299934 0.299934 0) 5 4 1
(0.947388 0.026306 0 0.026306) 6 6 1
(0.305921 0.34704 0 0.34704) 2 2 1
(0.824298 0.0878511 0 0.0878511) 6 5 2
(0.200404 0.399798 0 0.399798) 8 8 1
(0.152379 0.423811 0.423811 0) 7 6 1
(0.646474 0.176763 0.176763 0) 1 0 1
(0.555685 0.222157 0.222157 0) 4 3 1
(0.992201 0.00389951 0.00389951 0) 3 2 1
(0.25335 0.373325 0 0.373325) 3 2 2
(0.714027 0.142987 0 0.142987) 7 6 2
(0.134438 0.432781 0.432781 0) 2 1 1
(0.568538 0.215731 0.215731 0) 7 6 1
(0.00321746 0.498391 0.498391 0) 5 5 2
(0.168732 0.415634 0.415634 0) 6 5 1
(0.802774 0.0986132 0 0.0986132) 8 8 1
(0.799697 0.100152 0 0.100152) 5 4 2
(0.543846 0.228077 0.228077 0) 5 5 2
(0.892559 0.0537206 0 0.0537206) 2 1 2
(0.0436421 0.478179 0 0.478179) 8 7 2
(0.288959 0.355521 0.355521 0) 3 3 2
(0.625511 0.187245 0.187245 0) 3 3 2
(0.304832 0.347584 0.347584 0) 4 4 2
(0.0357807 0.48211 0 0.48211) 8 7 2
(0.99639 0.00180488 0.00180488 0) 6 6 2
(0.534502 0.232749 0 0.232749) 1 1 1
(0.204212 0.397894 0.397894 0) 4 4 2
(0.876196 0.0619019 0.0619019 0) 4 4 2
(0.856079 0.0719605 0.0719605 0) 1 0 1
(0.220547 0.389727 0 0.389727) 5 4 2
(0.704094 0.147953 0.147953 0) 2 2 2
(0.825377 0.0873116 0.0873116 0) 8 7 1
(0.873212 0.0633942 0.0633942 0) 3 3 2
(0.836423 0.0817887 0.0817887 0) 8 8 2
(0.305724 0.347138 0 0.347138) 3 2 2
(0.352761 0.323619 0.323619 0) 1 1 2
(0.0573304 0.471335 0.471335 0) 5 5 2
(0.462009 0.268995 0 0.268995) 3 2 2
(0.635769 0.182115 0.182115 0) 3 3 2
(0.876045 0.0619774 0 0.0619774) 3 3 1
(0.053979 0.473011 0 0.473011) 1 1 1
(0.915984 0.042008 0 0.042008) 1 0 2
(0.372935 0.313532 0 0.313532) 4 4 1
(0.623664 0.188168 0 0.188168) 1 1 1
(0.789221 0.105389 0.105389 0) 1 0 1
(0.919735 0.0401327 0.0401327 0) 4 3 1
(0.270076 0.364962 0.364962 0) 4 4 2
(0.686383 0.156809 0 0.156809) 3 2 2
(0.67517 0.162415 0 0.162415) 3 2 2
(0.817215 0.0913926 0.0913926 0) 5 5 2
(0.0974657 0.451267 0.451267 0) 2 2 2
(0.227394 0.386303 0.386303 0) 3 3 2
(0.682766 0.158617 0.158617 0) 7 6 1
(0.352819 0.323591 0.323591 0) 2 2 2
(0.837608 0.0811958 0 0.0811958) 2 1 2
(0.370407 0.314796 0 0.314796) 3 2 2
(0.356252 0.321874 0.321874 0) 5 4 1
(0.0279709 0.486015 0 0.486015) 2 1 2
(0.743232 0.128384 0.128384 0) 4 3 1
(0.601448 0.199276 0 0.199276) 4 3 2
(0.298056 0.350972 0.350972 0) 2 2 2
(0.509372 0.245314 0.245314 0) 5 5 2
(0.399193 0.300404 0 0.300404) 4 3 2
(0.550224 0.224888 0.224888 0) 6 6 2
(0.824219 0.0878907 0.0878907 0) 2 2 2
(0.573217 0.213391 0 0.213391) 6 5 2
(0.355272 0.322364 0 0.322364) 2 1 2
(0.304793 0.347604 0 0.347604) 4 3 2
(0.786167 0.106916 0 0.106916) 0 0 1
(0.211657 0.394171 0.394171 0) 1 0 1
(0.66177 0.169115 0 0.169115) 8 7 2
(0.945014 0.0274929 0 0.0274929) 7 6 2
(0.265394 0.367303 0.367303 0) 1 1 2
(0.52651 0.236745 0 0.236745) 5 4 2
(0.158019 0.42099 0.42099 0) 2 2 2
(0.469615 0.265193 0.265193 0) 2 2 2
(0.483243 0.258379 0.258379 0) 4 3 1
(0.901326 0.0493368 0.0493368 0) 3 2 1
(0.12741 0.436295 0.436295 0) 4 3 1
(0.466862 0.266569 0 0.266569) 2 1 2
(0.440445 0.279778 0 0.279778) 3 3 1
(0.513127 0.243437 0.243437 0) 9 9 2
(0.140144 0.429928 0 0.429928) 2 2 1
(0.128009 0.435995 0 0.435995) 5 4 2
(0.401376 0.299312 0.299312 0) 1 1 2
(0.738283 0.130858 0 0.130858) 1 1 1
(0.727599 0.1362 0.1362 0) 2 1 1
(0.712373 0.143813 0 0.143813) 4 3 2
(0.435902 0.282049 0 0.282049) 0 0 1
(0.223213 0.388394 0 0.388394) 1 1 1
(0.63049 0.184755 0.184755 0) 1 0 1
(0.590672 0.204664 0.204664 0) 10 9 1
(0.517834 0.241083 0.241083 0) 3 2 1
(0.0282643 0.485868 0.485868 0) 0 0 2
(0.989618 0.00519119 0 0.00519119) 1 1 1
(0.245518 0.377241 0.377241 0) 5 5 2
(0.785108 0.107446 0 0.107446) 3 2 2
(0.178176 0.410912 0 0.410912) 8 8 1
(0.834296 0.0828519 0.0828519 0) 5 4 1
(0.208039 0.395981 0.395981 0) 2 2 2
(0.241563 0.379219 0.379219 0) 4 3 1
(0.852068 0.0739658 0 0.0739658) 3 3 1
(0.914707 0.0426463 0 0.0426463) 7 7 1
(0.666102 0.166949 0.166949 0) 3 2 1
(0.503112 0.248444 0.248444 0) 3 3 2
(0.419914 0.290043 0.290043 0) 5 5 2
(0.0675004 0.46625 0.46625 0) 7 6 1
(0.29678 0.35161 0 0.35161) 4 4 1
(0.952017 0.0239913 0.0239913 0) 4 3 1
(0.76843 0.115785 0.115785 0) 4 3 1
(0.289473 0.355263 0 0.355263) 4 4 1
(0.0430596 0.47847 0 0.47847) 3 2 2
(0.786704 0.106648 0 0.106648) 1 1 1
(0.960391 0.0198045 0.0198045 0) 1 1 2
(0.620459 0.189771 0.189771 0) 1 1 2
(0.184942 0.407529 0 0.407529) 4 3 2
(0.615676 0.192162 0 0.192162) 1 0 2
(0.0840551 0.457972 0.457972 0) 3 2 1
(0.160556 0.419722 0 0.419722) 8 8 1
(0.52551 0.237245 0 0.237245) 3 3 1
(0.959843 0.0200784 0 0.0200784) 7 7 1
(0.656493 0.171753 0 0.171753) 5 4 2
(0.912606 0.043697 0.043697 0) 7 6 1
(0.97568 0.0121602 0.0121602 0) 5 5 2
(0.829728 0.0851361 0 0.0851361) 4 4 1
(0.340664 0.329668 0.329668 0) 4 3 1
(0.970059 0.0149704 0.0149704 0) 8 7 1
(0.854904 0.0725482 0 0.0725482) 4 4 1
(0.228194 0.385903 0 0.385903) 3 2 2
(0.460509 0.269746 0 0.269746) 7 6 2
(0.803343 0.0983285 0 0.0983285) 8 8 1
(0.99562 0.00218976 0 0.00218976) 5 5 1
(0.919879 0.0400605 0 0.0400605) 2 1 2
(0.726658 0.136671 0 0.136671) 6 5 2
(0.0387771 0.480611 0 0.480611) 4 3 2
(0.0511344 0.474433 0 0.474433) 1 0 2
(0.356821 0.321589 0 0.321589) 4 3 2
(0.179231 0.410384 0 0.410384) 4 3 2
(0.313055 0.343472 0.343472 0) 4 3 1
(0.841049 0.0794756 0.0794756 0) 6 6 2
(0.0294677 0.485266 0 0.485266) 1 0 2
(0.505505 0.247248 0 0.247248) 4 3 2
(0.207622 0.396189 0 0.396189) 0 0 1
(0.000880787 0.49956 0 0.49956) 4 3 2
(0.200834 0.399583 0.399583 0) 3 3 2
(0.398212 0.300894 0.300894 0) 3 2 1
(0.644551 0.177725 0 0.177725) 5 4 2
(0.949691 0.0251545 0 0.0251545) 3 2 2
(0.968523 0.0157385 0.0157385 0) 3 2 1
(0.976485 0.0117575 0.0117575 0) 4 3 1
(0.796354 0.101823 0 0.101823) 4 4 1
(0.46069 0.269655 0 0.269655) 2 2 1
(0.31651 0.341745 0.341745 0) 3 2 1
(0.468964 0.265518 0 0.265518) 1 1 1
(0.713137 0.143431 0 0.143431) 5 5 1
(0.505549 0.247226 0 0.247226) 9 8 2
(0.971267 0.0143664 0.0143664 0) 10 9 1
(0.0174349 0.491283 0.491283 0) 3 3 2
(0.129331 0.435335 0 0.435335) 2 1 2
(0.69256 0.15372 0 0.15372) 3 3 1
(0.323205 0.338398 0 0.338398) 6 6 1
(0.0223679 0.488816 0 0.488816) 3 3 1
(0.40991 0.295045 0 0.295045) 3 3 1
(0.535662 0.232169 0 0.232169) 2 1 2
(0.307532 0.346234 0 0.346234) 4 3 2
(0.817746 0.0911268 0.0911268 0) 2 1 1
(0.176494 0.411753 0.411753 0) 5 4 1
(0.0813271 0.459336 0.459336 0) 4 4 2
(0.949184 0.0254082 0.0254082 0) 4 4 2
(0.181819 0.40909 0 0.40909) 3 2 2
(0.590103 0.204949 0 0.204949) 4 3 2
(0.401649 0.299176 0.299176 0) 5 4 1
(0.351395 0.324303 0 0.324303) 5 5 1
(0.553131 0.223435 0.223435 0) 1 0 1
(0.595123 0.202438 0 0.202438) 2 1 2
(0.468046 0.265977 0 0.265977) 3 3 1
(0.337445 0.331277 0 0.331277) 4 3 2
(0.194256 0.402872 0.402872 0) 5 5 2
(0.160028 0.419986 0.419986 0) 6 6 2
(0.196552 0.401724 0.401724 0) 2 2 2
(0.207058 0.396471 0.396471 0) 1 1 2
(0.787196 0.106402 0.106402 0) 1 0 1
(0.738738 0.130631 0.130631 0) 3 3 2
(0.557251 0.221374 0.221374 0) 8 7 1
(0.564191 0.217905 0 0.217905) 9 9 1
(0.127828 0.436086 0 0.436086) 3 2 2
(0.224307 0.387846 0.387846 0) 5 4 1
(0.925596 0.037202 0.037202 0) 1 1 2
(0.578182 0.210909 0.210909 0) 6 5 1
(0.908826 0.0455871 0.0455871 0) 5 5 2
(0.278593 0.360704 0 0.360704) 2 2 1
(0.99665 0.00167507 0.00167507 0) 5 5 2
(0.742139 0.128931 0 0.128931) 1 0 2
(0.402716 0.298642 0.298642 0) 1 0 1
(0.735704 0.132148 0.132148 0) 5 4 1
(0.564573 0.217713 0 0.217713) 1 0 2
(0.895249 0.0523754 0 0.0523754) 3 2 2
(0.910979 0.0445105 0.0445105 0) 2 2 2
(0.662857 0.168571 0.168571 0) 1 1 2
(0.727908 0.136046 0.136046 0) 7 7 2
(0.317279 0.34136 0 0.34136) 4 3 2
(0.440784 0.279608 0.279608 0) 7 7 2
(0.642834 0.178583 0 0.178583) 2 2 1
(0.389169 0.305415 0.305415 0) 4 3 1
(0.126894 0.436553 0 0.436553) 3 2 2
(0.397024 0.301488 0.301488 0) 7 7 2
(0.388214 0.305893 0.305893 0) 2 2 2
(0.254038 0.372981 0 0.372981) 8 8 1
(0.185337 0.407331 0.407331 0) 0 0 2
(0.521829 0.239085 0 0.239085) 3 2 2
(0.0790227 0.460489 0 0.460489) 2 2 1
(0.639768 0.180116 0 0.180116) 4 3 2
(0.631266 0.184367 0 0.184367) 2 1 2
(0.216963 0.391518 0.391518 0) 5 4 1
(0.0571607 0.47142 0.47142 0) 3 3 2
(0.559454 0.220273 0.220273 0) 8 8 2
(0.987447 0.00627671 0 0.00627671) 2 2 1
(0.845336 0.0773322 0 0.0773322) 4 3 2
(0.710208 0.144896 0 0.144896) 3 2 2
(0.150726 0.424637 0.424637 0) 5 5 2
(0.940093 0.0299534 0 0.0299534) 6 5 2
(0.753077 0.123462 0 0.123462) 2 1 2
(0.165748 0.417126 0 0.417126) 9 8 2
(0.286806 0.356597 0 0.356597) 4 4 1
(0.332256 0.333872 0 0.333872) 6 5 2
(0.879585 0.0602073 0 0.0602073) 1 0 2
(0.723001 0.1385 0 0.1385) 5 5 1
(0.854712 0.0726439 0.0726439 0) 3 3 2
(0.381894 0.309053 0 0.309053) 8 8 1
(0.625425 0.187288 0 0.187288) 5 4 2
(0.157567 0.421217 0 0.421217) 6 5 2
(0.805981 0.0970094 0.0970094 0) 7 7 2
(0.637218 0.181391 0.181391 0) 11 10 1
(0.219998 0.390001 0 0.390001) 2 1 2
(0.382003 0.308998 0 0.308998) 9 8 2
(0.445462 0.277269 0 0.277269) 3 3 1
(0.588087 0.205956 0 0.205956) 2 2 1
(0.869188 0.065406 0 0.065406) 4 4 1
(0.320819 0.33959 0.33959 0) 5 5 2
(0.478346 0.260827 0 0.260827) 3 3 1
(0.949978 0.0250112 0.0250112 0) 4 3 1
(0.400767 0.299617 0.299617 0) 4 3 1
(0.0277773 0.486111 0 0.486111) 2 2 1
(0.525365 0.237318 0.237318 0) 6 6 2
(0.595243 0.202378 0 0.202378) 6 5 2
(0.949434 0.0252832 0.0252832 0) 6 5 1
(0.132958 0.433521 0.433521 0) 0 0 2
(0.0160506 0.491975 0.491975 0) 4 3 1
(0.0129185 0.493541 0.493541 0) 9 8 1
(0.571065 0.214468 0 0.214468) 5 4 2
(0.282648 0.358676 0.358676 0) 11 10 1
(0.135764 0.432118 0 0.432118) 0 0 1
(0.992041 0.00397947 0.00397947 0) 1 1 2
(0.472561 0.263719 0.263719 0) 2 1 1
(0.683597 0.158201 0.158201 0) 2 1 1
(0.295584 0.352208 0 0.352208) 2 2 1
(0.0989632 0.450518 0.450518 0) 5 4 1
(0.94818 0.0259101 0 0.0259101) 3 3 1
(0.319584 0.340208 0.340208 0) 5 4 1
(0.897146 0.051427 0.051427 0) 6 5 1
(0.851961 0.0740193 0 0.0740193) 3 2 2
(0.684277 0.157862 0 0.157862) 7 7 1
(0.978476 0.0107621 0.0107621 0) 5 5 2
(0.975827 0.0120866 0 0.0120866) 7 6 2
(0.532829 0.233585 0 0.233585) 5 4 2
(0.358471 0.320764 0.320764 0) 4 4 2
(0.280249 0.359875 0.359875 0) 1 0 1
(0.7106 0.1447 0 0.1447) 5 4 2
(0.669701 0.16515 0.16515 0) 8 8 2
(0.398742 0.300629 0.300629 0) 8 7 1
(0.11271 0.443645 0.443645 0) 4 3 1
(0.842063 0.0789686 0 0.0789686) 2 1 2
(0.399179 0.300411 0.300411 0) 1 1 2
(0.131201 0.4344 0.4344 0) 3 3 2
(0.678837 0.160581 0 0.160581) 4 3 2
(0.178217 0.410892 0.410892 0) 3 2 1
(0.760642 0.119679 0.119679 0) 2 1 1
(0.337664 0.331168 0.331168 0) 5 4 1
(0.133362 0.433319 0 0.433319) 4 3 2
(0.506219 0.24689 0.24689 0) 3 3 2
(0.437639 0.28118 0 0.28118) 0 624 1
(0.131053 0.434474 0 0.434474) 0 0 1
(0.0673859 0.466307 0.466307 0) 2 2 2
(0.882423 0.0587885 0.0587885 0) 0 624 2
(0.968987 0.0155063 0 0.0155063) 8 8 1
(0.0977266 0.451137 0 0.451137) 2 2 1
(0.0931596 0.45342 0.45342 0) 1 0 1
(0.211798 0.394101 0.394101 0) 5 4 1
(0.686886 0.156557 0 0.156557) 1 1 1
(0.792465 0.103767 0 0.103767) 1 0 2
(0.1622 0.4189 0 0.4189) 0 0 1
(0.91268 0.0436601 0 0.0436601) 3 2 2
(0.24603 0.376985 0 0.376985) 2 2 1
(0.19167 0.404165 0.404165 0) 0 0 2
(0.5802 0.2099 0.2099 0) 2 2 2
(0.498991 0.250504 0 0.250504) 3 2 2
(0.554518 0.222741 0.222741 0) 6 6 2
(0.688376 0.155812 0 0.155812) 2 2 1
(0.798199 0.100901 0.100901 0) 0 0 2
(0.300101 0.349949 0.349949 0) 1 0 1
(0.38212 0.30894 0 0.30894) 2 2 1
(0.481545 0.259228 0 0.259228) 6 6 1
(0.0185614 0.490719 0 0.490719) 4 4 1
(0.0401145 0.479943 0.479943 0) 4 3 1
(0.446158 0.276921 0.276921 0) 1 0 1
(0.172856 0.413572 0 0.413572) 4 4 1
(0.426836 0.286582 0.286582 0) 2 1 1
(0.73144 0.13428 0 0.13428) 6 6 1
(0.816961 0.0915193 0.0915193 0) 3 3 2
(0.615157 0.192422 0 0.192422) 2 2 1
(0.399563 0.300218 0.300218 0) 6 5 1
(0.103518 0.448241 0.448241 0) 7 6 1
(0.160011 0.419995 0.419995 0) 7 6 1
(0.329334 0.335333 0 0.335333) 3 3 1
(0.987386 0.00630694 0.00630694 0) 2 1 1
(0.251191 0.374405 0 0.374405) 4 4 1
(0.160875 0.419562 0 0.419562) 3 2 2
(0.748237 0.125882 0 0.125882) 5 5 1
(0.0795018 0.460249 0 0.460249) 2 2 1
(0.176668 0.411666 0 0.411666) 5 5 1
(0.823255 0.0883726 0.0883726 0) 3 2 1
(0.552234 0.223883 0.223883 0) 1 1 2
(0.136057 0.431972 0.431972 0) 1 1 2
(0.138852 0.430574 0.430574 0) 0 0 2
(0.0829287 0.458536 0.458536 0) 2 2 2
(0.510365 0.244817 0 0.244817) 6 6 1
(0.567427 0.216287 0 0.216287) 4 4 1
(0.664788 0.167606 0.167606 0) 2 2 2
(0.597778 0.201111 0 0.201111) 0 624 1
(0.636605 0.181697 0 0.181697) 1 1 1
(0.0187891 0.490605 0 0.490605) 3 2 2
(0.0154096 0.492295 0 0.492295) 7 6 2
(0.020443 0.489779 0.489779 0) 5 5 2
(0.762768 0.118616 0 0.118616) 5 5 1
(0.434972 0.282514 0 0.282514) 4 4 1
(0.951125 0.0244377 0.0244377 0) 6 6 2
(0.523502 0.238249 0 0.238249) 6 5 2
(0.654353 0.172824 0 0.172824) 5 5 1
(0.0450973 0.477451 0.477451 0) 4 3 1
(0.922222 0.0388889 0 0.0388889) 7 6 2
(0.714804 0.142598 0.142598 0) 4 3 1
(0.892598 0.0537012 0 0.0537012) 6 6 1
(0.01314 0.49343 0.49343 0) 2 2 2
(0.210723 0.394639 0.394639 0) 9 8 1
(0.356449 0.321775 0.321775 0) 1 0 1
(0.285283 0.357358 0 0.357358) 5 4 2
(0.015828 0.492086 0.492086 0) 6 5 1
(0.307857 0.346072 0.346072 0) 5 4 1
(0.729999 0.135 0.135 0) 6 6 2
(0.842841 0.0785796 0 0.0785796) 3 2 2
(0.956518 0.0217409 0.0217409 0) 5 4 1
(0.92265 0.0386752 0.0386752 0) 4 4 2
(0.781152 0.109424 0.109424 0) 3 3 2
(0.809932 0.0950339 0 0.0950339) 4 3 2
(0.85116 0.0744199 0 0.0744199) 5 5 1
(0.24595 0.377025 0 0.377025) 7 7 1
(0.280483 0.359759 0 0.359759) 5 5 1
(0.764671 0.117664 0.117664 0) 1 1 2
(0.044223 0.477889 0 0.477889) 5 4 2
(0.960373 0.0198135 0 0.0198135) 0 624 1
(0.365149 0.317425 0.317425 0) 9 8 1
(0.839001 0.0804997 0 0.0804997) 7 6 2
(0.831878 0.084061 0 0.084061) 7 6 2
(0.583943 0.208029 0.208029 0) 2 1 1
(0.487026 0.256487 0.256487 0) 2 1 1
(0.2535 0.37325 0.37325 0) 3 2 1
(0.951639 0.0241806 0 0.0241806) 1 1 1
(0.252079 0.37396 0.37396 0) 12 11 1
(0.879671 0.0601643 0.0601643 0) 6 6 2
(0.898429 0.0507854 0 0.0507854) 7 7 1
(0.0733717 0.463314 0.463314 0) 6 5 1
(0.803404 0.0982979 0 0.0982979) 5 4 2
(0.162744 0.418628 0.418628 0) 1 0 1
(0.0470212 0.476489 0.476489 0) 5 4 1
(0.861539 0.0692307 0 0.0692307) 3 2 2
(0.857144 0.071428 0.071428 0) 2 2 2
(0.925339 0.0373307 0 0.0373307) 2 1 2
(0.878083 0.0609585 0 0.0609585) 3 3 1
(0.709795 0.145103 0 0.145103) 4 3 2
(0.585298 0.207351 0 0.207351) 12 11 2
(0.0590601 0.47047 0 0.47047) 8 7 2
(0.917782 0.041109 0.041109 0) 7 7 2
(0.38044 0.30978 0.30978 0) 7 7 2
(0.615677 0.192161 0.192161 0) 3 2 1
(0.0826476 0.458676 0 0.458676) 0 0 1
(0.264224 0.367888 0 0.367888) 4 3 2
(0.569676 0.215162 0.215162 0) 3 3 2
(0.691555 0.154223 0 0.154223) 1 1 1
(0.45626 0.27187 0 0.27187) 7 7 1
(0.659212 0.170394 0.170394 0) 3 3 2
(0.979412 0.0102939 0.0102939 0) 2 2 2
(0.693158 0.153421 0 0.153421) 9 8 2
(0.625461 0.18727 0 0.18727) 7 7 1
(0.110123 0.444939 0 0.444939) 2 2 1
(0.159181 0.420409 0.420409 0) 2 2 2
(0.383459 0.30827 0 0.30827) 7 6 2
(0.658601 0.170699 0 0.170699) 1 0 2
(0.284892 0.357554 0.357554 0) 2 2 2
(0.727214 0.136393 0.136393 0) 2 1 1
(0.233562 0.383219 0 0.383219) 8 7 2
(0.944553 0.0277237 0 0.0277237) 5 4 2
(0.629468 0.185266 0 0.185266) 3 2 2
(0.838962 0.0805189 0.0805189 0) 5 5 2
(0.963001 0.0184997 0 0.0184997) 2 1 2
(0.381161 0.30942 0 0.30942) 4 4 1
(0.30054 0.34973 0 0.34973) 4 4 1
(0.806482 0.0967591 0.0967591 0) 6 6 2
(0.436885 0.281557 0 0.281557) 5 4 2
(0.226605 0.386698 0 0.386698) 3 2 2
(0.185362 0.407319 0.407319 0) 3 2 1
(0.632748 0.183626 0 0.183626) 5 4 2
(0.454873 0.272564 0.272564 0) 1 1 2
(0.134241 0.432879 0 0.432879) 8 8 1
(0.89091 0.0545449 0 0.0545449) 7 6 2
(0.438585 0.280708 0.280708 0) 3 2 1
(0.225851 0.387074 0 0.387074) 1 1 1
(0.312846 0.343577 0.343577 0) 5 5 2
(0.879896 0.060052 0.060052 0) 9 8 1
(0.34579 0.327105 0.327105 0) 5 4 1
(0.143368 0.428316 0 0.428316) 3 3 1
(0.616717 0.191642 0.191642 0) 6 5 1
(0.844479 0.0777607 0 0.0777607) 4 4 1
(0.263069 0.368466 0.368466 0) 3 2 1
(0.701976 0.149012 0.149012 0) 1 1 2
(0.733519 0.133241 0 0.133241) 7 7 1
(0.401533 0.299234 0.299234 0) 2 1 1
(0.957646 0.021177 0 0.021177) 6 5 2
(0.00521212 0.497394 0.497394 0) 8 7 1
(0.251495 0.374253 0 0.374253) 1 1 1
(0.04122 0.47939 0 0.47939) 6 5 2
(0.425103 0.287449 0 0.287449) 4 3 2
(0.657891 0.171054 0.171054 0) 2 2 2
(0.928222 0.0358892 0 0.0358892) 11 11 1
(0.0631916 0.468404 0 0.468404) 2 1 2
(0.233021 0.38349 0 0.38349) 6 6 1
(0.640259 0.179871 0.179871 0) 3 3 2
(0.785661 0.107169 0.107169 0) 7 7 2
(0.772934 0.113533 0.113533 0) 5 5 2
(0.671053 0.164474 0 0.164474) 4 4 1
(0.196284 0.401858 0 0.401858) 7 6 2
(0.243881 0.37806 0.37806 0) 2 2 2
(0.5547 0.22265 0 0.22265) 4 3 2
(0.409002 0.295499 0 0.295499) 1 0 2
(0.892597 0.0537016 0.0537016 0) 0 0 2
(0.215796 0.392102 0 0.392102) 8 7 2
(0.918245 0.0408775 0.0408775 0) 9 8 1
(0.156262 0.421869 0 0.421869) 9 8 2
(0.742014 0.128993 0.128993 0) 5 4 1
(0.986648 0.00667604 0.00667604 0) 6 5 1
(0.847289 0.0763557 0 0.0763557) 6 5 2
(0.820692 0.0896539 0 0.0896539) 2 2 1
(0.479158 0.260421 0 0.260421) 7 6 2
(0.378618 0.310691 0.310691 0) 5 5 2
(0.160467 0.419766 0.419766 0) 3 2 1
(0.454156 0.272922 0.272922 0) 2 1 1
(0.184013 0.407994 0.407994 0) 3 2 1
(0.982619 0.00869072 0.00869072 0) 4 3 1
(0.379436 0.310282 0 0.310282) 4 4 1
(0.540446 0.229777 0 0.229777) 2 2 1
(0.821857 0.0890713 0.0890713 0) 8 7 1
(0.60508 0.19746 0 0.19746) 3 3 1
(0.0386766 0.480662 0.480662 0) 6 5 1
(0.634593 0.182704 0 0.182704) 6 6 1
(0.442628 0.278686 0 0.278686) 4 3 2
(0.949566 0.025217 0.025217 0) 2 2 2
(0.682844 0.158578 0 0.158578) 2 2 1
(0.356498 0.321751 0 0.321751) 7 6 2
(0.989367 0.00531635 0.00531635 0) 3 3 2
(0.790445 0.104778 0 0.104778) 7 6 2
(0.110055 0.444973 0 0.444973) 2 1 2
(0.201536 0.399232 0.399232 0) 6 6 2
(0.266973 0.366514 0.366514 0) 4 3 1
(0.122492 0.438754 0 0.438754) 5 4 2
(0.636202 0.181899 0 0.181899) 3 2 2
(0.0278387 0.486081 0.486081 0) 4 4 2
(0.845787 0.0771063 0 0.0771063) 4 3 2
(0.894803 0.0525986 0.0525986 0) 9 8 1
(0.0881834 0.455908 0 0.455908) 5 5 1
(0.0513852 0.474307 0.474307 0) 7 6 1
(0.429991 0.285005 0 0.285005) 7 7 1
(0.958283 0.0208584 0 0.0208584) 2 2 1
(0.348727 0.325637 0 0.325637) 4 3 2
(0.474668 0.262666 0 0.262666) 2 2 1
(0.753475 0.123262 0.123262 0) 2 1 1
(0.213763 0.393118 0 0.393118) 7 7 1
(0.427979 0.286011 0 0.286011) 8 8 1
(0.873595 0.0632025 0.0632025 0) 6 5 1
(0.271482 0.364259 0 0.364259) 3 3 1
(0.333117 0.333442 0.333442 0) 5 4 1
(0.0127052 0.493647 0.493647 0) 15 15 2
(0.756398 0.121801 0.121801 0) 4 3 1
(0.738912 0.130544 0.130544 0) 0 624 2
(0.677683 0.161158 0.161158 0) 3 2 1
(0.261655 0.369172 0 0.369172) 3 3 1
(0.762009 0.118995 0.118995 0) 6 6 2
(0.734566 0.132717 0.132717 0) 5 5 2
(0.721928 0.139036 0.139036 0) 3 3 2
(0.496228 0.251886 0.251886 0) 5 5 2
(0.951692 0.024154 0.024154 0) 1 0 1
(0.00811781 0.495941 0 0.495941) 0 0 1
(0.752464 0.123768 0 0.123768) 4 3 2
(0.536743 0.231628 0.231628 0) 5 4 1
(0.60876 0.19562 0 0.19562) 7 6 2
(0.679613 0.160194 0.160194 0) 5 4 1
(0.931205 0.0343975 0 0.0343975) 7 7 1
(0.386143 0.306929 0 0.306929) 7 7 1
(0.00858903 0.495705 0 0.495705) 1 0 2
(0.704512 0.147744 0 0.147744) 1 0 2
(0.420656 0.289672 0.289672 0) 1 1 2
(0.193121 0.40344 0 0.40344) 4 3 2
(0.112216 0.443892 0 0.443892) 10 10 1
(0.832451 0.0837743 0 0.0837743) 3 2 2
(0.57317 0.213415 0 0.213415) 3 3 1
(0.612134 0.193933 0 0.193933) 1 1 1
(0.818489 0.0907556 0.0907556 0) 9 9 2
(0.988019 0.0059903 0.0059903 0) 4 3 1
(0.94471 0.0276452 0.0276452 0) 2 1 1
(0.114078 0.442961 0.442961 0) 2 1 1
(0.321905 0.339047 0.339047 0) 8 8 2
(0.625084 0.187458 0 0.187458) 4 4 1
(0.319183 0.340408 0.340408 0) 0 0 2
(0.098707 0.450647 0 0.450647) 5 4 2
(0.550061 0.22497 0 0.22497) 2 1 2
(0.667014 0.166493 0 0.166493) 8 8 1
(0.178179 0.41091 0.41091 0) 10 10 2
(0.159188 0.420406 0.420406 0) 4 4 2
(0.83001 0.0849948 0.0849948 0) 2 1 1
(0.592532 0.203734 0.203734 0) 5 4 1
(0.227967 0.386016 0.386016 0) 3 2 1
(0.763808 0.118096 0 0.118096) 7 7 1
(0.851332 0.074334 0 0.074334) 3 3 1
(0.0535453 0.473227 0.473227 0) 9 8 1
(0.673365 0.163317 0 0.163317) 3 2 2
(0.866696 0.0666521 0 0.0666521) 8 8 1
(0.806537 0.0967315 0.0967315 0) 1 0 1
(0.180709 0.409646 0 0.409646) 5 5 1
(0.945475 0.0272625 0.0272625 0) 3 2 1
(0.214652 0.392674 0.392674 0) 9 9 2
(0.974287 0.0128567 0 0.0128567) 1 1 1
(0.484909 0.257546 0.257546 0) 1 1 2
(0.735435 0.132282 0.132282 0) 8 8 2
(0.833275 0.0833624 0 0.0833624) 3 3 1
(0.488381 0.255809 0.255809 0) 3 3 2
(0.367485 0.316257 0.316257 0) 6 6 2
(0.27588 0.36206 0 0.36206) 5 4 2
(0.499079 0.250461 0.250461 0) 4 4 2
(0.650805 0.174597 0 0.174597) 4 4 1
(0.255722 0.372139 0 0.372139) 7 6 2
(0.694034 0.152983 0.152983 0) 4 4 2
(0.286816 0.356592 0.356592 0) 4 4 2
(0.0283549 0.485823 0 0.485823) 5 4 2
(0.377396 0.311302 0 0.311302) 3 3 1
(0.2454 0.3773 0.3773 0) 5 4 1
(0.943648 0.0281761 0 0.0281761) 2 2 1
(0.311017 0.344492 0.344492 0) 1 1 2
(0.497982 0.251009 0 0.251009) 4 3 2
(0.349306 0.325347 0 0.325347) 3 2 2
(0.140447 0.429776 0.429776 0) 6 5 1
(0.256774 0.371613 0 0.371613) 10 10 1
(0.48058 0.25971 0.25971 0) 5 4 1
(0.876837 0.0615816 0 0.0615816) 5 5 1
(0.856433 0.0717837 0 0.0717837) 7 7 1
(0.63466 0.18267 0.18267 0) 4 3 1
(0.0553503 0.472325 0.472325 0) 2 1 1
(0.999071 0.00046429 0 0.00046429) 6 6 1
(0.576096 0.211952 0.211952 0) 5 4 1
(0.704252 0.147874 0.147874 0) 2 2 2
(0.987465 0.00626755 0.00626755 0) 6 5 1
(0.0879872 0.456006 0.456006 0) 8 7 1
(0.384034 0.307983 0 0.307983) 9 9 1
(0.939101 0.0304495 0.0304495 0) 1 1 2
(0.288765 0.355618 0.355618 0) 2 1 1
(0.730764 0.134618 0.134618 0) 6 5 1
(0.569881 0.21506 0 0.21506) 7 7 1
(0.297514 0.351243 0 0.351243) 5 5 1
(0.644504 0.177748 0 0.177748) 9 9 1
(0.589883 0.205058 0 0.205058) 10 9 2
(0.176906 0.411547 0.411547 0) 6 5 1
(0.923168 0.038416 0 0.038416) 2 1 2
(0.702083 0.148959 0.148959 0) 3 3 2
(0.976285 0.0118577 0.0118577 0) 5 5 2
(0.519973 0.240014 0 0.240014) 8 7 2
(0.686493 0.156753 0.156753 0) 2 2 2
(0.333235 0.333383 0.333383 0) 9 9 2
(0.56287 0.218565 0.218565 0) 6 6 2
(0.858993 0.0705033 0 0.0705033) 8 7 2
(0.0756505 0.462175 0 0.462175) 6 5 2
(0.11342 0.44329 0.44329 0) 0 0 2
(0.432673 0.283664 0.283664 0) 10 9 1
(0.0453129 0.477344 0.477344 0) 7 7 2
(0.493048 0.253476 0 0.253476) 10 9 2
(0.437599 0.2812 0 0.2812) 7 6 2
(0.320059 0.33997 0 0.33997) 10 9 2
(0.0799743 0.460013 0 0.460013) 7 6 2
(0.644524 0.177738 0.177738 0) 8 8 2
(0.025847 0.487077 0.487077 0) 5 5 2
(0.227392 0.386304 0.386304 0) 9 9 2
(0.0862366 0.456882 0 0.456882) 1 0 2
(0.808919 0.0955406 0.0955406 0) 5 5 2
(0.256504 0.371748 0 0.371748) 10 10 1
(0.413199 0.2934 0.2934 0) 5 5 2
(0.811052 0.094474 0 0.094474) 3 3 1
(0.0507057 0.474647 0.474647 0) 6 6 2
(0.264865 0.367568 0.367568 0) 13 12 1
(0.824837 0.0875815 0 0.0875815) 2 1 2
(0.076808 0.461596 0 0.461596) 4 4 1
(0.793761 0.10312 0 0.10312) 2 1 2
(0.570761 0.21462 0.21462 0) 4 4 2
(0.30992 0.34504 0 0.34504) 13 12 2
(0.807458 0.0962709 0.0962709 0) 8 8 2
(0.574932 0.212534 0.212534 0) 5 5 2
(0.951113 0.0244434 0 0.0244434) 2 2 1
(0.94767 0.026165 0 0.026165) 6 6 1
(0.0390455 0.480477 0.480477 0) 4 4 2
(0.643584 0.178208 0 0.178208) 4 4 1
(0.320567 0.339717 0.339717 0) 4 3 1
(0.503717 0.248142 0 0.248142) 7 7 1
(0.511072 0.244464 0.244464 0) 5 4 1
(0.668093 0.165954 0 0.165954) 5 5 1
(0.620707 0.189647 0 0.189647) 1 1 1
(0.267174 0.366413 0.366413 0) 4 4 2
(0.902431 0.0487844 0 0.0487844) 5 5 1
(0.972761 0.0136194 0.0136194 0) 2 1 1
(0.973268 0.0133662 0.0133662 0) 6 6 2
(0.00237237 0.498814 0 0.498814) 7 6 2
(0.709635 0.145183 0 0.145183) 11 10 2
(0.370134 0.314933 0.314933 0) 5 4 1
(0.215884 0.392058 0 0.392058) 2 1 2
(0.844006 0.0779969 0.0779969 0) 10 10 2
(0.15114 0.42443 0.42443 0) 1 1 2
(0.254678 0.372661 0.372661 0) 5 4 1
(0.358201 0.320899 0 0.320899) 5 5 1
(0.0808425 0.459579 0.459579 0) 0 0 2
(0.80844 0.09578 0 0.09578) 5 5 1