/*--------------------------------*- C++ -*----------------------------------*\
  =========                 |
  \\      /  F ield         | OpenFOAM: The Open Source CFD Toolbox
   \\    /   O peration     | Website:  https://openfoam.org
    \\  /    A nd           | Version:  7
     \\/     M anipulation  |
\*---------------------------------------------------------------------------*/
FoamFile
{
    version     2.0;
    format      ascii;
    class       volScalarField;
    location    "0.1";
    object      alpha.water;
}
// * * * * * * * * * * * * * * * * * * * * * * * * * * * * * * * * * * * * * //

dimensions      [0 0 0 0 0 0 0];

internalField   nonuniform List<scalar> 
1915
(
0.999936
0.999945
0.999954
0.308023
6.40249e-05
-7.20159e-07
7.53305e-09
1.41997e-11
6.40183e-12
6.35304e-12
4.24805e-12
4.14956e-13
2.33232e-14
1.16636e-15
5.87462e-17
3.09932e-18
1.71488e-19
9.93609e-21
6.01495e-22
3.79522e-23
2.48353e-24
1.6789e-25
1.15952e-26
8.12217e-28
5.7348e-29
0.993088
0.995791
0.997584
0.99861
0.999187
0.99949
0.999637
0.999716
0.999759
0.999783
0.999797
0.999801
0.999798
0.999789
0.999779
0.999764
0.999747
0.999727
0.999706
0.999686
0.999674
0.999686
0.999733
0.235286
3.486e-05
1.11944e-07
1.55371e-09
2.5676e-11
2.47816e-11
6.41138e-12
2.17376e-12
1.18181e-13
5.28354e-15
2.41188e-16
1.11904e-17
5.48353e-19
2.84532e-20
1.55886e-21
8.97746e-23
5.41611e-24
3.39774e-25
2.20238e-26
1.46186e-27
9.90698e-29
6.80977e-30
0.810071
0.919391
0.979975
0.99316
0.995814
0.997271
0.998061
0.998479
0.998712
0.998842
0.998904
0.998923
0.99891
0.99887
0.998806
0.998724
0.998628
0.998521
0.998406
0.99829
0.998189
0.998191
0.998421
0.174912
1.32534e-05
-2.11101e-08
8.57264e-11
5.76466e-11
2.79125e-11
5.17734e-12
6.58172e-13
2.54125e-14
1.0181e-15
4.31295e-17
1.88794e-18
8.78609e-20
4.34569e-21
2.27652e-22
1.25659e-23
7.27613e-25
4.38493e-26
2.73105e-27
1.7453e-28
1.14208e-29
7.56216e-31
0.162014
0.318484
0.514228
0.700647
0.832035
0.909149
0.950933
0.971274
0.981298
0.986022
0.987534
0.98777
0.987097
0.98553
0.982289
0.978094
0.973117
0.967353
0.960853
0.953403
0.946243
0.945078
0.960071
0.121571
-4.36205e-06
-3.62431e-08
-3.01009e-11
2.12342e-11
1.93277e-11
2.51672e-12
1.24357e-13
4.4266e-15
1.71085e-16
6.91369e-18
2.90595e-19
1.29937e-20
6.17527e-22
3.11099e-23
1.65358e-24
9.22973e-26
5.36848e-27
3.23044e-28
1.99582e-29
1.2614e-30
8.04165e-32
5.92656e-18
3.56857e-18
0.0159256
0.079995
0.168403
0.265258
0.353467
0.426067
0.477646
0.507282
0.521324
0.522913
0.515296
0.500539
0.480923
0.456454
0.430177
0.403623
0.378183
0.355583
0.335916
0.329743
0.40876
0.0574634
-3.88238e-06
-3.93954e-09
2.07181e-28
6.79022e-12
5.965e-12
6.00693e-13
1.7943e-14
6.70136e-16
2.55873e-17
1.0041e-18
4.08947e-20
1.7679e-21
8.11718e-23
3.95267e-24
2.03284e-25
1.09891e-26
6.19545e-28
3.61475e-29
2.16578e-30
1.32698e-31
8.18616e-33
7.97216e-20
-3.9777e-20
-5.9864e-18
-8.31498e-18
-6.15112e-30
-3.34554e-19
-1.66551e-14
-3.4729e-11
-5.15336e-09
0.00254951
0.00441699
0.00457254
0.00345079
0.00129847
-3.8375e-08
-8.16335e-09
-1.75307e-09
-3.24849e-10
-2.37118e-11
-4.4703e-14
-1.55388e-21
-5.80825e-22
0
0.00891082
-2.63339e-07
-8.7468e-10
7.2397e-11
4.45938e-12
6.2705e-13
7.31323e-14
2.24943e-15
8.85201e-17
3.36635e-18
1.29924e-19
5.17617e-21
2.18162e-22
9.75211e-24
4.6221e-25
2.3141e-26
1.21799e-27
6.68649e-29
3.79837e-30
2.21566e-31
1.32133e-32
7.91453e-34
3.78412e-20
-1.65364e-20
-1.88075e-17
-1.27957e-15
-4.25112e-14
-1.23229e-12
-1.50075e-11
-1.93642e-10
-1.07944e-10
-2.65241e-11
-9.28017e-11
-1.20255e-10
-9.03217e-11
-4.12937e-11
-6.5946e-11
-3.59999e-11
-1.08074e-08
-4.10778e-09
-1.18595e-09
-2.81813e-10
-1.40038e-11
-5.27059e-11
-6.09717e-10
-1.0909e-08
-1.09552e-07
0
3.33896e-11
1.57407e-12
4.52193e-14
6.03044e-15
2.33985e-16
9.68849e-18
3.74892e-19
1.45227e-20
5.75633e-22
2.39913e-23
1.0565e-24
4.9217e-26
2.41839e-27
1.24782e-28
6.70941e-30
3.72974e-31
2.12748e-32
1.23946e-33
7.23072e-35
-8.32201e-20
-3.50047e-20
-1.06259e-17
-6.98598e-16
-2.34219e-14
-1.05114e-12
-2.84772e-11
-2.89066e-10
-1.63611e-10
-8.1956e-11
-1.44285e-10
-1.90048e-10
-1.77651e-10
-1.25184e-10
-1.03425e-10
-5.54691e-11
-2.3323e-11
-6.60991e-12
-3.9792e-13
-4.56849e-13
-1.08385e-11
-1.54634e-10
-1.31015e-09
-6.06176e-09
-1.22602e-08
0
3.0887e-12
1.76872e-13
3.3161e-15
3.32005e-16
1.67899e-17
7.99678e-19
3.32805e-20
1.3451e-21
5.46147e-23
2.30177e-24
1.01591e-25
4.71491e-27
2.29846e-28
1.17281e-29
6.22117e-31
3.40477e-32
1.90886e-33
1.0911e-34
6.22172e-36
0
-3.36619e-41
-7.7303e-41
0
0
0
0
0
-6.1497e-44
-3.93581e-42
0
-4.80558e-52
-3.8371e-48
-2.0635e-36
-3.24804e-39
-1.41627e-34
-1.45016e-29
2.61853e-16
3.4068e-15
1.99809e-13
3.36483e-12
1.54731e-11
1.97488e-11
4.88802e-15
2.19833e-20
4.95565e-13
1.9247e-13
2.18229e-15
1.33377e-16
9.51072e-18
5.15827e-19
3.49774e-20
1.9779e-21
9.46388e-23
4.21513e-24
1.86616e-25
8.4791e-27
3.99836e-28
1.96263e-29
1.00182e-30
5.29062e-32
2.87186e-33
1.59227e-34
8.97546e-36
5.02364e-37
-3.30786e-43
-1.83936e-40
-4.5665e-40
7.58391e-37
9.73784e-35
3.57227e-33
5.51522e-32
1.71786e-30
4.42013e-29
6.10166e-28
2.18861e-26
6.92534e-25
1.94852e-23
4.91914e-22
1.12019e-20
2.317e-19
4.36935e-18
7.68687e-17
2.29173e-15
1.34215e-13
3.44633e-12
2.09386e-11
3.97437e-11
4.12663e-11
2.40061e-11
5.84848e-16
1.49252e-16
2.63515e-17
-7.2793e-19
6.82405e-19
3.11457e-20
1.40522e-21
6.89822e-23
4.13855e-24
2.24065e-25
1.1822e-26
5.90472e-28
2.92841e-29
1.48011e-30
7.68115e-32
4.08783e-33
2.22176e-34
1.22745e-35
6.86542e-37
3.79012e-38
-3.16356e-41
-2.7406e-39
-1.44998e-37
-5.83971e-36
-1.55924e-34
-1.11934e-33
0
-1.97348e-45
-7.10134e-32
-3.50058e-29
-1.93981e-27
7.34758e-26
1.3804e-24
1.76359e-23
1.93345e-22
1.43951e-21
-3.95193e-22
-2.91515e-19
8.32289e-16
1.4277e-14
4.35403e-14
6.04576e-14
6.11367e-14
3.59127e-14
2.7152e-15
7.7749e-16
1.41172e-17
3.25098e-18
4.61532e-19
5.99581e-20
2.7758e-21
1.13358e-22
4.55742e-24
1.94604e-25
9.76644e-27
5.73337e-28
3.09431e-29
1.73988e-30
9.55705e-32
5.19238e-33
2.83374e-34
1.56184e-35
8.68195e-37
4.85505e-38
2.65887e-39
-6.468e-41
-6.59545e-39
-4.09551e-37
-1.9637e-35
-7.75854e-34
-2.48736e-32
-6.29901e-31
-1.2436e-29
-1.84863e-28
-1.80321e-27
-3.32871e-27
-2.27404e-26
-4.4917e-25
-7.40188e-24
-1.13254e-22
-1.58681e-21
-1.99318e-20
-1.75105e-19
2.32046e-17
1.90127e-16
4.50447e-16
5.63759e-16
4.19733e-16
1.50934e-16
9.43061e-17
5.66484e-17
4.35046e-19
1.46419e-19
2.65447e-20
4.14602e-21
2.10935e-22
9.05518e-24
3.70401e-25
1.46921e-26
6.37727e-28
2.98259e-29
1.64822e-30
9.22965e-32
5.12581e-33
2.95327e-34
1.72183e-35
9.85147e-37
5.58328e-38
3.15215e-39
1.72455e-40
0
-3.2475e-45
-3.28637e-48
-3.5954e-43
-2.34395e-41
-1.12145e-39
-4.5831e-38
-1.63518e-36
-5.14396e-35
-1.43023e-33
-3.52696e-32
4.50779e-31
-1.48843e-28
-2.94983e-28
1.01843e-27
-1.66229e-26
-3.81122e-25
2.03056e-21
1.19445e-19
8.56099e-19
2.21087e-18
3.33302e-18
3.97173e-18
4.27619e-18
3.87691e-18
1.43877e-18
2.44339e-20
7.33477e-21
1.2675e-21
2.33375e-22
1.38611e-23
6.32223e-25
2.63594e-26
1.07452e-27
4.57705e-29
2.0629e-30
1.03808e-31
5.52384e-33
2.96678e-34
1.64622e-35
9.31419e-37
5.38907e-38
3.20867e-39
1.8623e-40
1.02694e-41
-5.84588e-48
-1.12935e-48
-1.41262e-45
-9.82584e-44
-4.53142e-42
-1.70384e-40
-5.52966e-39
-1.11515e-37
-2.57327e-36
-6.23586e-35
-1.33298e-33
-6.05547e-32
-1.81995e-31
6.49636e-31
-5.50919e-30
-1.22769e-28
-2.30817e-27
7.80467e-26
1.48642e-23
2.85798e-22
3.20197e-21
2.2742e-20
7.48594e-20
1.21935e-19
1.29401e-19
4.40216e-20
9.84385e-22
4.11024e-22
5.32248e-23
1.00015e-23
7.63341e-25
3.93476e-26
1.69192e-27
7.00734e-29
3.03696e-30
1.38651e-31
6.57266e-33
3.52967e-34
1.8894e-35
1.01073e-36
5.46278e-38
3.02138e-39
1.71445e-40
9.77153e-42
5.53833e-43
-7.29279e-48
-7.12609e-46
-3.7219e-44
-1.24058e-42
-2.90032e-41
-4.36022e-40
-1.90237e-39
-9.32313e-39
-3.00824e-37
-5.95971e-36
-1.09816e-34
-6.27713e-34
-2.70008e-33
-6.53647e-32
-9.09901e-31
-9.92701e-30
-9.55962e-29
8.56293e-28
8.32142e-26
1.33612e-24
2.07735e-23
2.39786e-22
1.12848e-21
2.22555e-21
2.54988e-21
1.08762e-21
4.13972e-23
8.98494e-24
1.99419e-24
3.28662e-25
3.19351e-26
2.02066e-27
9.60312e-29
4.15004e-30
1.87402e-31
8.58043e-33
4.03337e-34
2.16692e-35
1.16115e-36
6.21629e-38
3.3455e-39
1.8063e-40
9.7989e-42
5.30469e-43
2.84583e-44
-1.57287e-63
-4.04796e-59
-2.58499e-52
-3.38386e-50
-2.25273e-48
-1.04895e-46
-3.85347e-45
9.3049e-43
-8.77383e-42
-3.98199e-41
5.6703e-39
7.2975e-38
7.05261e-37
-1.37531e-35
-3.08591e-34
4.73864e-33
6.25956e-32
2.8468e-29
6.97794e-28
9.1812e-27
1.31286e-25
1.76165e-24
1.03993e-23
2.38557e-23
2.93039e-23
1.63634e-23
1.55582e-24
1.4741e-25
5.96674e-26
8.63892e-27
9.92245e-28
8.30007e-29
4.85264e-30
2.25058e-31
1.0472e-32
4.89097e-34
2.39819e-35
1.26861e-36
6.75722e-38
3.61651e-39
1.94621e-40
1.04912e-41
5.66783e-43
3.00161e-44
1.54635e-45
1.40138e-57
-1.10607e-54
-1.71173e-52
-1.26451e-50
-6.11353e-49
-2.30537e-47
-7.24515e-46
-3.31087e-44
-6.40947e-43
-2.14179e-42
-6.83299e-41
-1.52861e-39
-2.96448e-38
-4.2294e-37
-2.94409e-37
7.05224e-36
2.16487e-34
1.23093e-31
2.06862e-30
2.47039e-29
2.76948e-28
3.50683e-27
3.33597e-26
1.36289e-25
2.47207e-25
2.74256e-25
1.12874e-25
2.89598e-27
1.34149e-27
1.91684e-28
2.42807e-29
2.46073e-30
1.82779e-31
1.04941e-32
5.19946e-34
2.61214e-35
1.34576e-36
7.02127e-38
3.71746e-39
1.98436e-40
1.06613e-41
5.74218e-43
3.1002e-44
1.63502e-45
8.38125e-47
-4.03956e-58
-4.65781e-56
-4.21101e-54
-2.21796e-52
-8.95474e-51
-2.955e-49
-8.46726e-48
-1.3545e-46
-3.33332e-46
-1.57216e-44
-3.51408e-43
-5.71575e-42
-6.27716e-41
-1.38166e-40
6.01512e-40
3.34332e-39
3.11246e-36
1.93062e-34
3.03818e-33
3.66976e-32
3.74983e-31
3.98565e-30
5.40453e-29
4.79867e-28
1.55469e-27
2.2056e-27
1.53709e-27
9.55989e-29
2.0564e-29
3.63198e-30
4.64255e-31
5.75736e-32
5.02788e-33
3.43692e-34
2.11279e-35
1.19866e-36
6.54799e-38
3.50977e-39
1.87849e-40
1.01222e-41
5.47475e-43
2.96037e-44
1.59695e-45
8.40241e-47
4.30235e-48
2.77438e-64
4.57993e-62
-3.76312e-59
2.22091e-58
1.52521e-57
-9.55397e-56
-4.65653e-54
-3.303e-52
-9.20016e-51
-3.59607e-49
-1.60494e-47
-1.64413e-46
3.55255e-46
-1.17075e-45
-4.07553e-44
-3.79369e-42
9.91088e-39
2.74117e-37
4.25372e-36
5.26504e-35
5.54864e-34
5.6806e-33
7.22151e-32
8.31502e-31
4.0924e-30
8.10553e-30
9.24164e-30
4.54577e-30
4.56893e-31
3.61148e-32
7.01078e-33
1.0881e-33
1.13507e-34
8.87603e-36
6.28118e-37
4.00057e-38
2.36641e-39
1.34725e-40
7.54599e-42
4.21394e-43
2.34503e-44
1.30009e-45
7.15015e-47
3.89179e-48
2.02346e-49
2.95988e-68
-2.5648e-63
5.97957e-64
-8.75526e-61
-4.64386e-59
-1.85176e-57
-7.03762e-56
-2.11304e-54
-6.03062e-53
-1.67998e-51
-2.17513e-50
-4.98357e-50
-1.71856e-48
-3.19511e-47
-6.31402e-46
-1.11634e-44
5.03049e-42
1.25266e-40
1.98342e-39
2.58965e-38
2.94524e-37
2.96786e-36
2.91351e-35
3.69776e-34
4.88332e-33
2.62341e-32
4.89877e-32
4.86978e-32
7.87487e-33
1.99505e-34
1.06948e-34
1.62073e-35
2.09698e-36
1.9418e-37
1.58006e-38
1.11034e-39
7.14171e-41
4.362e-42
2.59195e-43
1.51879e-44
8.79396e-46
5.04124e-47
2.85086e-48
1.59766e-49
8.44849e-51
-6.16711e-70
1.67891e-69
-2.76758e-65
-1.301e-63
-4.90763e-62
-2.09246e-60
-6.44101e-59
-1.76203e-57
-3.80621e-56
-4.55983e-55
-1.02719e-55
-2.4658e-53
-7.18327e-52
-1.41276e-50
-2.45507e-49
1.3507e-47
1.93109e-45
4.61011e-44
7.47386e-43
1.01143e-41
1.20836e-40
1.29964e-39
1.27675e-38
1.24864e-37
1.46479e-36
1.71518e-35
9.62079e-35
1.98633e-34
2.01177e-34
3.16198e-36
1.37134e-36
1.83765e-37
3.06587e-38
3.63273e-39
3.43136e-40
2.70895e-41
1.91674e-42
1.26668e-43
8.03448e-45
4.97009e-46
3.01069e-47
1.79168e-48
1.04539e-49
6.0022e-51
3.2313e-52
3.25964e-76
6.47528e-74
-3.44371e-72
-6.16012e-68
2.16356e-68
-2.68893e-65
3.14516e-65
-3.55808e-63
-1.31882e-61
-4.24157e-60
-9.14058e-59
-2.4872e-57
-9.09694e-56
-1.60288e-54
-2.587e-53
7.23753e-51
9.13049e-49
2.29313e-47
3.95769e-46
5.74381e-45
7.43311e-44
8.7897e-43
9.51317e-42
9.77517e-41
1.21279e-39
2.08528e-38
1.85482e-37
5.10731e-37
6.10169e-37
1.65739e-37
3.06651e-39
2.39534e-39
3.60795e-40
5.58376e-41
6.24843e-42
5.66825e-43
4.48554e-44
3.24808e-45
2.22145e-46
1.46301e-47
9.33949e-49
5.80754e-50
3.51633e-51
2.08105e-52
1.14628e-53
4.4982e-80
-1.48483e-76
9.56495e-76
6.8383e-74
-1.41299e-70
1.63923e-70
-5.57164e-68
-2.22407e-66
-6.82355e-65
-1.60364e-63
-4.15044e-62
-1.28177e-60
-2.02764e-59
-3.40596e-58
-5.39404e-57
6.10664e-55
7.95573e-53
2.14598e-51
3.94872e-50
6.11621e-49
8.4654e-48
1.07812e-46
1.28342e-45
1.42887e-44
1.50454e-43
1.75411e-42
3.02143e-41
3.82021e-40
1.4725e-39
1.96316e-39
1.11802e-40
7.47378e-42
2.19786e-42
5.03465e-43
9.41773e-44
9.99391e-45
9.02209e-46
7.26833e-47
5.42579e-48
3.84274e-49
2.6073e-50
1.70672e-51
1.07942e-52
6.62749e-54
3.75436e-55
-2.00924e-81
-9.92975e-83
3.81033e-80
2.17439e-78
1.14248e-75
-7.97897e-73
-4.27333e-71
-1.26783e-69
-3.27813e-68
-8.9084e-67
-2.46044e-65
-3.76176e-64
-6.60253e-63
-1.1764e-61
-1.70121e-60
1.46146e-58
2.69397e-56
8.04154e-55
1.59226e-53
2.64294e-52
3.91848e-51
5.3497e-50
6.83703e-49
8.18924e-48
9.27218e-47
1.1436e-45
1.97543e-44
2.75209e-43
1.45762e-42
3.04801e-42
3.3787e-42
2.62965e-44
3.39561e-44
6.4481e-45
1.12227e-45
1.46155e-46
1.54186e-47
1.40733e-48
1.16308e-49
8.96058e-51
6.52371e-52
4.53203e-53
3.01515e-54
1.93264e-55
1.13203e-56
2.29119e-89
-1.13284e-88
-9.16607e-84
-1.01804e-81
4.06844e-81
2.33543e-78
8.03751e-77
2.3295e-75
5.96577e-74
1.4409e-72
3.28236e-71
7.24852e-70
1.51966e-68
3.0446e-67
2.34607e-66
4.62381e-63
2.15013e-60
7.68666e-59
1.67699e-57
3.03207e-56
4.88645e-55
7.25477e-54
1.01183e-52
1.34266e-51
1.69657e-50
2.03719e-49
2.61915e-48
5.20796e-47
9.54649e-46
5.25051e-45
8.75729e-45
2.7613e-45
5.71336e-47
5.00118e-47
1.05282e-47
1.73982e-48
2.20945e-49
2.33543e-50
2.17275e-51
1.84501e-52
1.45687e-53
1.08379e-54
7.64334e-56
5.14905e-57
3.13662e-58
1.91305e-93
-1.17153e-89
-1.53591e-87
1.34225e-85
6.26711e-84
3.18623e-82
1.16406e-80
3.668e-79
1.02689e-77
2.68534e-76
6.6862e-75
1.54306e-73
3.39614e-72
7.17952e-71
1.34038e-69
1.18513e-67
8.00488e-65
3.72672e-63
9.04614e-62
1.78227e-60
3.10906e-59
4.9829e-58
7.48955e-57
1.07054e-55
1.47028e-54
1.94465e-53
2.46284e-52
3.19769e-51
5.90576e-50
1.38211e-48
1.09499e-47
2.13069e-47
6.14566e-49
1.88929e-49
7.12673e-50
1.65046e-50
2.61453e-51
3.28612e-52
3.50995e-53
3.33536e-54
2.89129e-55
2.32632e-56
1.7538e-57
1.25079e-58
7.97304e-60
-8.26052e-96
-2.35655e-93
-1.09291e-91
2.12971e-90
1.34802e-88
6.9684e-87
2.66661e-85
8.73862e-84
2.56987e-82
7.11089e-81
1.82955e-79
4.47266e-78
1.0493e-76
2.38081e-75
4.96611e-74
5.54291e-72
9.07002e-69
7.82226e-67
2.20069e-65
4.82651e-64
9.26596e-63
1.62816e-61
2.68046e-60
4.19781e-59
6.323e-58
9.17919e-57
1.27484e-55
1.8425e-54
3.92853e-53
9.3062e-52
7.93936e-51
2.20226e-50
2.83851e-50
3.25784e-52
4.4769e-52
1.20975e-52
2.50828e-53
3.87298e-54
4.86183e-55
5.26182e-56
5.07665e-57
4.46716e-58
3.63343e-59
2.7651e-60
1.85653e-61
-3.87158e-101
-8.19643e-99
5.51841e-97
4.3886e-95
2.69184e-93
1.43115e-91
5.89174e-90
2.07677e-88
6.62664e-87
1.95142e-85
5.38532e-84
1.40998e-82
3.53738e-81
8.57249e-80
1.98136e-78
6.47073e-77
1.34601e-73
2.70137e-71
9.49019e-70
2.36152e-68
5.03575e-67
9.75424e-66
1.76509e-64
3.03458e-63
5.0164e-62
8.05066e-61
1.25928e-59
1.90277e-58
2.90131e-57
6.27356e-56
2.12351e-54
2.45229e-53
6.01383e-53
2.3786e-53
8.57193e-55
6.99686e-55
1.90776e-55
3.76914e-56
5.71991e-57
7.1972e-58
7.8507e-59
7.64944e-60
6.78093e-61
5.55412e-62
3.9552e-63
-1.15213e-105
1.69154e-103
2.52062e-101
2.31888e-99
1.56513e-97
8.67654e-96
3.81884e-94
1.47152e-92
5.11344e-91
1.63062e-89
4.83964e-88
1.3528e-86
3.59796e-85
9.18731e-84
2.26069e-82
5.20419e-81
1.06462e-78
8.59214e-76
4.31626e-74
1.24046e-72
2.94231e-71
6.24605e-70
1.22895e-68
2.28525e-67
4.06802e-66
7.00036e-65
1.17391e-63
1.92361e-62
3.0596e-61
4.91539e-60
1.04938e-58
3.59766e-57
5.06985e-56
1.39688e-55
7.17509e-57
2.29877e-57
1.0561e-57
2.98116e-58
5.65419e-59
8.47555e-60
1.06426e-60
1.16437e-61
1.13757e-62
1.01231e-63
7.70233e-65
-1.32249e-110
4.3387e-109
1.26312e-106
1.02477e-104
9.31242e-103
9.78386e-101
4.61547e-99
1.87489e-97
6.88411e-96
2.32822e-94
7.36127e-93
2.20207e-91
6.2944e-90
1.7336e-88
4.6331e-87
1.18528e-85
6.4176e-84
2.09221e-80
3.89084e-78
1.42661e-76
3.94455e-75
9.5158e-74
2.10738e-72
4.39449e-71
8.76329e-70
1.68971e-68
3.17876e-67
5.86211e-66
1.05071e-64
1.88222e-63
4.50886e-62
1.74979e-60
2.95682e-59
1.27351e-58
1.95934e-58
4.01044e-60
4.99728e-60
1.87203e-60
4.63646e-61
8.52658e-62
1.25859e-62
1.57067e-63
1.71225e-64
1.67228e-65
1.37022e-66
-1.07224e-116
1.72548e-113
4.81653e-113
6.1814e-111
9.9952e-108
2.12526e-105
1.07596e-103
4.80915e-102
1.941e-100
7.19694e-99
2.48541e-97
8.08546e-96
2.50201e-94
7.42832e-93
2.13242e-91
5.95444e-90
1.56183e-88
3.8866e-86
5.2993e-83
3.28412e-81
1.10868e-79
3.08705e-78
7.73312e-77
1.80775e-75
4.02372e-74
8.64032e-73
1.80763e-71
3.71542e-70
7.54752e-69
1.50675e-67
2.97317e-66
7.39631e-65
4.1753e-63
1.06111e-61
3.93699e-61
1.76967e-61
1.10493e-62
9.31468e-63
3.1062e-63
7.26389e-64
1.29178e-64
1.87211e-65
2.30936e-66
2.5022e-67
2.2351e-68
5.68071e-123
2.29421e-120
5.19855e-118
7.13612e-116
7.17636e-112
4.63768e-110
2.54721e-108
1.23643e-106
5.41977e-105
2.18092e-103
8.16191e-102
2.87142e-100
9.58417e-99
3.06007e-97
9.41692e-96
2.81252e-94
8.13677e-93
2.55243e-91
4.37104e-88
1.49221e-85
6.99877e-84
2.32066e-82
6.63377e-81
1.73574e-79
4.27596e-78
1.00826e-76
2.30119e-75
5.12791e-74
1.12364e-72
2.4242e-71
5.11331e-70
1.1221e-68
3.52453e-67
1.59098e-65
2.80343e-64
9.56716e-64
9.35765e-65
3.00536e-65
1.67653e-65
5.18711e-66
1.14446e-66
1.96623e-67
2.7871e-68
3.39021e-69
3.33514e-70
-2.59487e-126
1.39947e-125
2.9049e-123
2.4247e-119
5.69058e-117
3.94733e-115
2.33619e-113
1.22628e-111
5.83437e-110
2.55752e-108
1.04614e-106
4.0343e-105
1.47945e-103
5.19849e-102
1.76237e-100
5.80155e-99
1.86606e-97
5.80983e-96
2.63122e-94
9.24188e-91
2.48885e-88
1.15069e-86
4.02784e-85
1.24008e-83
3.53606e-82
9.57923e-81
2.50359e-79
6.38119e-78
1.59998e-76
3.97279e-75
9.73455e-74
2.35016e-72
6.8071e-71
4.33675e-69
1.65495e-67
1.02408e-66
1.43963e-66
9.06783e-68
6.68063e-68
3.06856e-68
8.70142e-69
1.81601e-69
3.00708e-70
4.16028e-71
4.55116e-72
2.02271e-133
8.49884e-131
1.64566e-126
7.80276e-124
7.93437e-122
5.97855e-120
3.88779e-118
2.24968e-116
1.18215e-114
5.7225e-113
2.58195e-111
1.09618e-109
4.41445e-108
1.69821e-106
6.28111e-105
2.24735e-103
7.81978e-102
2.66719e-100
8.64854e-99
5.50858e-97
1.74666e-93
3.02949e-91
1.44793e-89
5.40709e-88
1.79312e-86
5.53402e-85
1.62758e-83
4.62824e-82
1.28565e-80
3.51796e-79
9.54148e-78
2.55572e-76
6.77313e-75
2.16587e-73
1.62249e-71
7.02829e-70
3.65809e-69
1.33292e-69
1.92759e-70
1.48718e-70
5.64763e-71
1.47063e-71
2.89961e-72
4.62794e-73
5.68869e-74
5.92276e-139
2.67351e-136
6.4308e-134
1.10283e-129
3.97151e-127
3.23456e-125
2.29233e-123
1.45337e-121
8.40001e-120
4.49609e-118
2.25343e-116
1.06683e-114
4.80527e-113
2.07209e-111
8.60248e-110
3.45688e-108
1.35166e-106
5.16907e-105
1.94423e-103
7.14593e-102
3.31316e-100
1.2653e-96
4.64709e-94
2.59358e-92
1.09838e-90
4.11361e-89
1.43541e-87
4.78714e-86
1.54941e-84
4.91957e-83
1.54511e-81
4.8059e-80
1.46926e-78
4.91743e-77
3.10969e-75
2.17766e-73
3.17891e-72
8.68613e-72
1.68758e-72
5.46565e-73
3.1095e-73
1.04191e-73
2.49969e-74
4.67453e-75
6.52869e-76
1.11164e-144
5.40715e-142
1.12585e-136
2.0922e-134
2.18626e-132
1.92554e-130
1.50751e-128
1.06273e-126
6.87066e-125
4.1281e-123
2.32788e-121
1.24178e-119
6.30629e-118
3.06562e-116
1.43349e-114
6.47729e-113
2.84084e-111
1.21401e-109
5.0854e-108
2.0975e-106
8.51874e-105
3.46373e-103
5.84776e-100
4.91603e-97
3.51236e-95
1.73428e-93
7.42804e-92
2.94492e-90
1.11331e-88
4.0826e-87
1.4694e-85
5.23719e-84
1.85024e-82
6.43317e-81
2.54275e-79
2.56313e-77
1.98441e-75
1.48831e-74
1.36369e-74
3.50534e-75
1.40165e-75
6.45015e-76
1.9288e-76
4.29834e-77
6.90249e-78
2.09383e-150
5.59891e-145
2.71764e-142
4.5119e-140
5.53152e-138
5.45093e-136
4.76969e-134
3.77792e-132
2.76333e-130
1.89084e-128
1.22165e-126
7.50228e-125
4.40222e-123
2.47916e-121
1.34527e-119
7.06017e-118
3.59685e-116
1.78557e-114
8.66987e-113
4.13642e-111
1.94692e-109
9.08539e-108
4.11655e-106
5.14776e-104
2.61195e-100
4.33653e-98
2.80632e-96
1.46803e-94
6.95906e-93
3.12185e-91
1.35536e-89
5.77635e-88
2.43633e-86
1.01235e-84
4.3047e-83
2.86623e-81
4.07703e-79
1.33084e-77
5.21129e-77
1.81314e-77
6.50487e-78
3.46679e-78
1.33537e-78
3.61238e-79
6.75307e-80
4.75911e-151
1.60632e-150
1.92833e-148
3.42293e-146
4.35988e-144
4.74102e-142
4.59313e-140
4.12323e-138
3.48279e-136
2.78894e-134
2.12987e-132
1.55645e-130
1.09186e-128
7.37315e-127
4.80558e-125
3.03121e-123
1.85561e-121
1.10573e-119
6.43422e-118
3.6638e-116
2.05569e-114
1.1392e-112
6.25667e-111
3.42213e-109
1.83769e-107
1.05056e-104
4.90578e-101
5.59262e-99
3.8643e-97
2.27764e-95
1.2418e-93
6.48317e-92
3.3039e-90
1.6573e-88
8.14407e-87
4.38775e-85
5.72898e-83
6.81137e-81
7.99758e-80
1.13677e-79
5.46378e-80
1.61499e-80
8.373e-81
2.80063e-81
6.14981e-82
4.50891e-152
4.6962e-151
4.97657e-151
5.98255e-151
1.86941e-150
1.59822e-148
1.80139e-146
1.92908e-144
1.98263e-142
1.96663e-140
1.87226e-138
1.71306e-136
1.50812e-134
1.27947e-132
1.04804e-130
8.30686e-129
6.38648e-127
4.77519e-125
3.48236e-123
2.48427e-121
1.73933e-119
1.19881e-117
8.17332e-116
5.52763e-114
3.72595e-112
2.51299e-110
1.6769e-108
7.30568e-106
4.14316e-102
5.51598e-100
4.59796e-98
3.30089e-96
2.20826e-94
1.4233e-92
8.92685e-91
5.55885e-89
4.86078e-87
1.29149e-84
7.69128e-83
3.63644e-82
2.27526e-82
1.66135e-82
4.72112e-83
2.01294e-83
5.25417e-84
2.75422e-157
6.64404e-155
5.06202e-153
1.58463e-151
4.9386e-151
5.14738e-151
4.65019e-151
8.24198e-151
7.65761e-151
8.07146e-151
3.01665e-149
7.70485e-147
3.43687e-142
7.89705e-140
1.2232e-137
1.60644e-135
1.91202e-133
2.12684e-131
2.25527e-129
2.29361e-127
2.25699e-125
2.16403e-123
2.02592e-121
1.88308e-119
1.72616e-117
1.5749e-115
1.43717e-113
1.31815e-111
1.20399e-109
4.05244e-107
5.5183e-103
1.23732e-100
1.39988e-98
1.3277e-96
1.16249e-94
9.65533e-93
8.57834e-91
2.1118e-88
4.10654e-86
5.82541e-85
1.09125e-84
9.10154e-85
4.39184e-85
1.55001e-85
4.26793e-86
1.86969e-163
3.94378e-161
4.77132e-159
3.86264e-157
2.35592e-155
1.07279e-153
3.2555e-152
3.80929e-151
3.20432e-151
3.68132e-151
4.47106e-151
7.09255e-151
5.41424e-151
-4.27688e-150
-7.25747e-148
-1.00217e-145
-1.24324e-143
-1.26961e-141
-6.88221e-140
1.83805e-137
8.54753e-135
8.10083e-131
1.95052e-128
3.5814e-126
5.78315e-124
9.07972e-122
1.36706e-119
2.03606e-117
3.03176e-115
4.54822e-113
6.89949e-111
1.14428e-108
1.8224e-104
3.6781e-101
6.61306e-99
9.07116e-97
1.12574e-94
2.02486e-92
9.30496e-90
6.13783e-88
3.41348e-87
3.69299e-87
3.57162e-87
1.57695e-87
4.9548e-88
3.65859e-172
3.91764e-170
4.05999e-168
4.71512e-166
5.75492e-164
6.69204e-162
6.97307e-160
6.26704e-158
4.69279e-156
2.78907e-154
1.19333e-152
2.69959e-151
3.50215e-151
3.50271e-151
2.92439e-151
5.62056e-152
1.26771e-151
-6.28977e-150
-1.24331e-147
-2.6758e-145
-5.59073e-143
-1.13629e-140
-2.24873e-138
-4.33137e-136
-8.07738e-134
-1.42705e-131
-2.18624e-129
-1.54433e-127
1.48525e-123
1.53498e-120
7.92653e-118
3.65984e-115
1.66042e-112
7.53012e-110
2.15428e-106
1.39369e-101
5.63716e-99
1.48277e-96
1.19484e-93
4.24802e-91
6.65273e-90
1.59833e-89
1.73838e-89
1.15808e-89
4.70897e-90
1.32364e-190
6.06634e-189
6.46213e-187
1.41524e-184
4.68876e-182
1.86949e-179
7.78256e-177
3.12516e-174
1.16753e-171
3.99721e-169
1.24368e-166
3.48716e-164
8.71081e-162
1.90657e-159
3.56648e-157
5.45968e-155
6.13753e-153
3.11206e-151
3.16007e-151
2.84785e-151
1.64597e-151
1.89887e-151
7.83303e-150
-8.77321e-148
-5.17827e-145
2.03768e-141
-1.63611e-139
-8.78442e-137
-4.72031e-134
-2.50591e-131
-1.31595e-128
-6.83877e-126
-3.51616e-123
-1.78593e-120
-8.92975e-118
-4.36465e-115
-2.05798e-112
9.66027e-104
9.23122e-98
1.95785e-94
1.0102e-92
2.92497e-91
2.62116e-90
3.17873e-90
1.02616e-90
)
;

boundaryField
{
    leftWall
    {
        type            zeroGradient;
    }
    rightWall
    {
        type            zeroGradient;
    }
    lowerWall
    {
        type            zeroGradient;
    }
    atmosphere
    {
        type            inletOutlet;
        inletValue      uniform 0;
        value           nonuniform List<scalar> 
45
(
0
0
0
0
0
0
0
0
0
0
0
0
0
0
0
0
0
0
0
0
0
0
0
0
0
0
0
0
0
0
0
0
0
0
0
0
0
0
0
1.95785e-94
1.0102e-92
2.92497e-91
2.62116e-90
3.17873e-90
1.02616e-90
)
;
    }
    defaultFaces
    {
        type            empty;
    }
    procBoundary2to0
    {
        type            processor;
        value           nonuniform List<scalar> 
46
(
0.999988
0.99999
0.999992
0.383647
0.000107915
-9.54784e-07
2.02235e-08
2.32541e-10
9.18429e-12
6.76167e-12
5.61625e-12
1.10759e-12
8.69982e-14
4.72806e-15
2.62976e-16
1.53043e-17
9.20306e-19
5.71761e-20
3.67346e-21
2.43747e-22
1.665e-23
1.16565e-24
8.31311e-26
6.00022e-27
4.35512e-28
0.998344
0.998994
0.999404
0.999677
0.999819
0.999889
0.999926
0.999945
0.999956
0.999961
0.999964
0.999965
0.999964
0.999962
0.99996
0.999956
0.999952
0.999948
0.999943
0.999938
0.999938
)
;
    }
    procBoundary2to3
    {
        type            processor;
        value           nonuniform List<scalar> 
43
(
4.02795e-30
4.64128e-31
4.95857e-32
5.08449e-33
5.01073e-34
4.7005e-35
4.17961e-36
3.51273e-37
2.78116e-38
2.06662e-39
1.43531e-40
9.27339e-42
5.54273e-43
3.03712e-44
1.55397e-45
8.34756e-47
4.49827e-48
2.30105e-49
1.05876e-50
4.43864e-52
1.7322e-53
6.29105e-55
2.11884e-56
6.60479e-58
1.90249e-59
5.05699e-61
1.23901e-62
2.79575e-64
5.80673e-66
1.10996e-67
1.94782e-69
3.14621e-71
4.70833e-73
6.52075e-75
8.36713e-77
9.98275e-79
1.1126e-80
1.16517e-82
1.15502e-84
1.12701e-86
1.45604e-88
1.53545e-90
2.60562e-91
)
;
    }
}


// ************************************************************************* //
