/*--------------------------------*- C++ -*----------------------------------*\
  =========                 |
  \\      /  F ield         | OpenFOAM: The Open Source CFD Toolbox
   \\    /   O peration     | Website:  https://openfoam.org
    \\  /    A nd           | Version:  7
     \\/     M anipulation  |
\*---------------------------------------------------------------------------*/
FoamFile
{
    version     2.0;
    format      ascii;
    class       volScalarField;
    location    "0.1";
    object      nut;
}
// * * * * * * * * * * * * * * * * * * * * * * * * * * * * * * * * * * * * * //

dimensions      [0 2 -1 0 0 0 0];

internalField   nonuniform List<scalar> 
1915
(
0.0106572
0.0108918
0.0111732
0.0115364
0.0120155
0.012449
0.0124695
0.0121576
0.0117209
0.0113017
0.0109591
0.0106888
0.0104608
0.0102513
0.0100537
0.00987207
0.00971245
0.00957813
0.00946885
0.0093819
0.0093135
0.00925976
0.00921717
0.00918281
0.00915443
0.000125209
0.000922588
0.00188448
0.00284978
0.00378854
0.00467774
0.00549929
0.00624069
0.0068955
0.00746365
0.00795081
0.00836708
0.00872526
0.00903899
0.00932099
0.00958152
0.00982737
0.0100619
0.0102862
0.0105026
0.0107182
0.0109497
0.0112237
0.0115743
0.0120372
0.0124193
0.0123693
0.0120311
0.0116059
0.0112177
0.0109087
0.0106647
0.0104535
0.0102538
0.0100619
0.00988334
0.0097251
0.00959084
0.00948065
0.00939218
0.00932196
0.00926632
0.0092219
0.00918591
0.00915612
0.000126341
0.000915596
0.0018822
0.00286205
0.00381422
0.0047144
0.00554496
0.00629304
0.00695294
0.00752514
0.00801567
0.00843477
0.00879524
0.00911061
0.00939344
0.00965396
0.00989923
0.0101331
0.0103575
0.0105746
0.0107909
0.0110198
0.0112843
0.0116157
0.0120512
0.0123595
0.0122331
0.0118735
0.0114719
0.0111268
0.0108589
0.0106438
0.0104496
0.0102594
0.0100727
0.00989697
0.0097398
0.00960526
0.00949381
0.0094035
0.00933116
0.00927338
0.00922696
0.0091892
0.00915792
0.000128862
0.000898758
0.00187499
0.002876
0.00384539
0.00475807
0.00559751
0.00635272
0.00701878
0.00759576
0.00809007
0.00851218
0.00887497
0.00919193
0.00947551
0.00973602
0.00998092
0.0102148
0.0104403
0.0106599
0.0108784
0.0111059
0.0113595
0.0116649
0.0120595
0.012264
0.0120577
0.0116933
0.0113336
0.0110426
0.0108187
0.0106309
0.0104513
0.0102685
0.0100859
0.00991235
0.00975579
0.0096206
0.0095076
0.0094152
0.00934056
0.0092805
0.00923199
0.00919241
0.00915962
0.00013413
0.000871265
0.00186303
0.00289142
0.00388162
0.00480894
0.0056587
0.00642151
0.00709337
0.00767571
0.00817458
0.00860013
0.00896557
0.00928446
0.00956925
0.00983038
0.0100757
0.0103107
0.0105386
0.0107621
0.0109845
0.011212
0.0114539
0.0117252
0.0120574
0.0121357
0.0118569
0.0115151
0.0112149
0.0109817
0.0107969
0.0106298
0.0104595
0.010281
0.0101007
0.00992829
0.00977182
0.00963571
0.00952101
0.00942644
0.00934947
0.00928714
0.00923657
0.00919521
0.00916097
0.000135533
0.000883051
0.00184671
0.00289641
0.00391334
0.00486137
0.00572524
0.00649777
0.0071768
0.00776461
0.00826851
0.00869845
0.0090675
0.00938955
0.00967701
0.00994041
0.0101881
0.010426
0.010658
0.0108867
0.0111145
0.0113439
0.0115746
0.0118024
0.0120284
0.0119576
0.0116656
0.0113775
0.0111416
0.0109563
0.0107974
0.0106404
0.0104728
0.0102949
0.0101151
0.00994294
0.0097862
0.00964909
0.00953277
0.00943619
0.00935707
0.00929266
0.00924021
0.00919724
0.00916169
0.000134298
0.000883666
0.00179277
0.00285251
0.00390557
0.00488813
0.00577692
0.00656625
0.00725729
0.00785411
0.00836494
0.00880115
0.00917603
0.00950347
0.00979594
0.0100641
0.0103165
0.0105591
0.0107961
0.0110295
0.0112597
0.0114862
0.0117032
0.0118814
0.0119457
0.0117859
0.0115409
0.0113131
0.0111247
0.0109657
0.0108155
0.0106577
0.0104869
0.0103069
0.0101261
0.00995385
0.00979685
0.00965903
0.00954149
0.00944334
0.0093625
0.00929639
0.0092424
0.00919811
0.0091615
0.000133555
0.000891926
0.00179114
0.00283969
0.00390695
0.0049161
0.00583238
0.00664031
0.007344
0.00794897
0.00846489
0.00890444
0.00928188
0.0096114
0.00990565
0.0101752
0.010428
0.0106702
0.0109053
0.0111342
0.011355
0.0115616
0.0117418
0.0118606
0.0118318
0.0116875
0.0114953
0.0113099
0.0111451
0.0109923
0.0108377
0.0106724
0.0104955
0.0103122
0.0101304
0.00995824
0.00980157
0.00966375
0.00954577
0.00944679
0.00936491
0.00929769
0.00924265
0.00919747
0.00916014
0.000133903
0.000910009
0.00186337
0.00290845
0.0039692
0.00498233
0.00590679
0.00672387
0.00743351
0.00804085
0.00855612
0.008993
0.0093666
0.00969166
0.00998104
0.0102452
0.0104921
0.0107273
0.0109536
0.0111705
0.0113739
0.0115541
0.0116934
0.0117636
0.0117372
0.0116304
0.0114806
0.0113228
0.0111675
0.0110115
0.0108482
0.0106743
0.0104917
0.010306
0.0101244
0.00995344
0.00979826
0.00966163
0.00954433
0.00944556
0.00936355
0.00929601
0.00924057
0.00919502
0.0091574
0.000135076
0.000942467
0.00196343
0.00302187
0.00407454
0.00507584
0.00599247
0.00680669
0.00751375
0.0081174
0.00862758
0.00905808
0.00942423
0.0097409
0.0100211
0.0102755
0.0105119
0.0107355
0.0109483
0.0111493
0.011333
0.0114898
0.0116048
0.0116607
0.0116467
0.0115709
0.0114525
0.0113136
0.0111637
0.0110042
0.0108344
0.0106552
0.01047
0.0102845
0.0101051
0.00993731
0.00978532
0.00965143
0.00953623
0.00943894
0.00935788
0.00929093
0.00923586
0.00919054
0.00915311
0.000135754
0.00098183
0.00204849
0.00312204
0.00417087
0.00516281
0.0060703
0.0068768
0.00757668
0.00817308
0.0086756
0.00909782
0.00945489
0.00976162
0.0100311
0.0102738
0.0104977
0.0107075
0.0109052
0.0110893
0.0112547
0.0113931
0.0114935
0.011545
0.0115415
0.0114861
0.011389
0.011264
0.0111199
0.0109609
0.0107899
0.0106103
0.010427
0.0102453
0.0100709
0.00990861
0.00976183
0.00963249
0.00952098
0.00942655
0.00934764
0.00928228
0.00922838
0.00918395
0.00914723
0.000135659
0.00101065
0.00210929
0.00319655
0.00424522
0.00523055
0.00612939
0.00692682
0.00761762
0.008205
0.00869844
0.00911131
0.00945855
0.00975479
0.010013
0.0102436
0.0104543
0.0106499
0.0108322
0.0109998
0.0111485
0.0112716
0.0113609
0.0114086
0.0114104
0.0113671
0.0112841
0.0111706
0.0110341
0.0108801
0.0107135
0.010539
0.010362
0.0101879
0.0100215
0.00986716
0.00972773
0.00960478
0.0094986
0.00940844
0.00933287
0.00927009
0.00921817
0.00917529
0.00913979
0.000135082
0.00102816
0.00214728
0.00324525
0.00429505
0.00527566
0.00616689
0.00695538
0.00763663
0.00821421
0.00869772
0.00910049
0.00943731
0.00972264
0.00996927
0.0101875
0.010385
0.0105663
0.0107333
0.010885
0.0110179
0.0111269
0.0112054
0.011248
0.011251
0.0112144
0.0111413
0.0110382
0.0109111
0.0107661
0.0106084
0.0104436
0.0102769
0.0101135
0.00995798
0.0098139
0.00968381
0.00956899
0.00946964
0.00938505
0.00931393
0.00925464
0.00920546
0.00916472
0.00913092
0.000134252
0.00103704
0.00216761
0.00327264
0.00432329
0.00529999
0.00618444
0.00696449
0.00763634
0.00820394
0.00867711
0.00906924
0.0093951
0.00966902
0.00990367
0.0101093
0.0102932
0.0104601
0.0106119
0.010748
0.0108656
0.0109608
0.0110287
0.0110649
0.0110668
0.0110339
0.0109686
0.0108752
0.010759
0.0106256
0.0104802
0.0103283
0.010175
0.0100251
0.00988259
0.00975072
0.00963163
0.00952639
0.00943513
0.00935721
0.00929145
0.00923643
0.00919061
0.00915253
0.00912084
0.000133299
0.00104011
0.00217523
0.00328366
0.00433412
0.00530707
0.00618523
0.00695736
0.00762018
0.00817795
0.00864069
0.00902188
0.0093363
0.00959828
0.0098204
0.0100128
0.0101828
0.0103351
0.0104717
0.0105924
0.0106953
0.0107773
0.0108346
0.0108642
0.010864
0.0108337
0.010775
0.0106912
0.0105868
0.0104666
0.0103356
0.0101988
0.010061
0.00992632
0.00979848
0.0096802
0.00957332
0.00947872
0.00939647
0.009326
0.0092663
0.00921612
0.00917414
0.00913909
0.00910982
0.000132313
0.00103951
0.00217407
0.00328257
0.00433143
0.00530042
0.00617261
0.00693729
0.00759155
0.00813987
0.00859236
0.00896257
0.00926533
0.00951496
0.00972408
0.00990282
0.0100586
0.0101961
0.0103176
0.0104234
0.0105121
0.0105816
0.0106291
0.0106524
0.0106501
0.010622
0.0105696
0.0104953
0.0104031
0.0102971
0.0101816
0.0100612
0.0099399
0.00982157
0.00970929
0.00960538
0.00951137
0.00942799
0.00935527
0.00929271
0.00923946
0.00919446
0.00915662
0.00912485
0.00909819
0.000131333
0.00103672
0.00216709
0.00327283
0.00431863
0.00528325
0.00614967
0.00690738
0.00755367
0.00809309
0.00853578
0.0088953
0.00918649
0.00942372
0.00961966
0.00978453
0.00992587
0.0100486
0.0101553
0.0102468
0.0103222
0.0103802
0.0104189
0.0104367
0.0104327
0.010407
0.0103607
0.0102961
0.0102162
0.0101246
0.010025
0.0099213
0.009817
0.00971529
0.00961877
0.00952938
0.00944837
0.0093763
0.00931319
0.00925863
0.00921193
0.00917222
0.00913862
0.00911024
0.00908628
0.000130376
0.00103271
0.00215647
0.00325721
0.00429861
0.0052584
0.00611918
0.00687042
0.00750941
0.00804067
0.00847429
0.00882376
0.00910391
0.00932913
0.00951217
0.00966341
0.00979062
0.00989901
0.00999158
0.0100695
0.0101327
0.0101804
0.0102113
0.0102245
0.0102195
0.0101964
0.0101563
0.0101012
0.0100335
0.00995609
0.00987216
0.00978487
0.00969717
0.00961167
0.00953048
0.00945516
0.00938671
0.00932557
0.00927177
0.00922498
0.00918466
0.00915014
0.00912071
0.00909568
0.00907441
0.000129451
0.00102807
0.0021437
0.00323785
0.00427375
0.00522828
0.00608356
0.00682884
0.00746129
0.00798531
0.00841084
0.00875125
0.00902128
0.00923536
0.00940633
0.00954474
0.00965863
0.00975356
0.00983296
0.00989852
0.00995072
0.00998927
0.0100136
0.0100231
0.0100176
0.00999741
0.00996353
0.00991751
0.00986142
0.00979757
0.00972849
0.00965672
0.00958463
0.00951431
0.00944742
0.00938519
0.00932841
0.00927744
0.0092323
0.00919277
0.00915845
0.00912883
0.00910337
0.00908154
0.00906286
0.00012856
0.00102315
0.0021298
0.0032163
0.00424594
0.00519491
0.00604485
0.00678471
0.00741145
0.00792926
0.00834785
0.00868044
0.00894166
0.00914591
0.0093061
0.00943299
0.00953487
0.0096177
0.00968531
0.0097399
0.00978246
0.00981322
0.00983202
0.0098387
0.00983328
0.00981615
0.00978818
0.00975064
0.00970521
0.00965378
0.00959823
0.00954053
0.00948255
0.00942587
0.00937181
0.0093213
0.00927497
0.00923311
0.00919577
0.0091628
0.00913392
0.00910877
0.00908696
0.00906811
0.00905183
0.000127701
0.00101812
0.00211541
0.00319367
0.00421657
0.00515984
0.00600467
0.0067397
0.00736158
0.00787424
0.00828717
0.00861334
0.00886725
0.00906325
0.00921431
0.00933136
0.00942295
0.00949537
0.00955289
0.00959816
0.00963261
0.00965692
0.00967133
0.00967595
0.00967097
0.00965685
0.00963431
0.00960439
0.0095684
0.00952781
0.00948406
0.00943861
0.00939284
0.00934797
0.00930497
0.00926459
0.00922729
0.00919333
0.00916277
0.00913555
0.00911147
0.0090903
0.00907176
0.00905559
0.00904151
0.000126872
0.0010131
0.00210094
0.00317069
0.00418666
0.00512424
0.00596426
0.00669503
0.0073129
0.00782149
0.00823
0.00855118
0.00879936
0.00898881
0.00913254
0.00924161
0.00932482
0.00938875
0.00943803
0.00947572
0.00950365
0.00952285
0.00953389
0.0095371
0.00953281
0.00952147
0.00950371
0.00948034
0.00945236
0.00942087
0.009387
0.00935177
0.00931619
0.00928115
0.00924738
0.00921543
0.0091857
0.00915839
0.00913359
0.00911126
0.00909131
0.00907359
0.00905792
0.00904412
0.009032
0.000126075
0.00100815
0.00208663
0.00314787
0.00415688
0.00508892
0.00592449
0.00665158
0.00726623
0.00777174
0.00817702
0.00849456
0.00873851
0.00892307
0.00906124
0.00916419
0.00924091
0.00929824
0.00934114
0.00937296
0.00939587
0.00941121
0.00941979
0.00942212
0.00941862
0.00940974
0.009396
0.00937804
0.0093566
0.0093325
0.00930657
0.00927957
0.00925218
0.00922507
0.00919875
0.00917367
0.00915011
0.00912825
0.0091082
0.00908996
0.00907349
0.0090587
0.00904549
0.00903374
0.00902334
0.000125306
0.00100333
0.00207266
0.00312553
0.00412774
0.00505447
0.00588598
0.00660994
0.00722208
0.00772539
0.00812848
0.00844357
0.00868465
0.00886578
0.00899999
0.00909851
0.00917048
0.00922296
0.00926113
0.00928862
0.00930787
0.00932043
0.00932732
0.00932917
0.00932647
0.00931966
0.00930919
0.00929554
0.00927928
0.00926098
0.00924126
0.00922067
0.00919969
0.00917879
0.00915836
0.00913871
0.00912007
0.00910261
0.00908641
0.00907152
0.00905793
0.00904559
0.00903446
0.00902447
0.00901554
0.000124563
0.000998642
0.00205913
0.00310388
0.00409956
0.00502128
0.00584911
0.00657045
0.00718071
0.00768257
0.00808433
0.00839798
0.00863731
0.00881628
0.00894788
0.0090434
0.00911209
0.00916117
0.00919602
0.00922048
0.00923717
0.00924785
0.00925364
0.00925531
0.00925337
0.00924826
0.00924036
0.00923006
0.00921778
0.00920393
0.00918895
0.00917324
0.00915718
0.00914106
0.00912517
0.00910975
0.00909498
0.009081
0.00906789
0.0090557
0.00904446
0.00903415
0.00902476
0.00901625
0.00900859
0.000123844
0.000994082
0.00204607
0.00308307
0.00407254
0.00498959
0.00581413
0.00653328
0.00714218
0.00764319
0.00804434
0.00835735
0.00859584
0.00877365
0.00890373
0.00899739
0.00906398
0.00911084
0.0091435
0.00916594
0.00918095
0.00919041
0.00919557
0.00919724
0.00919599
0.00919224
0.00918633
0.00917858
0.00916931
0.00915882
0.00914741
0.00913538
0.00912301
0.00911052
0.0090981
0.00908593
0.00907417
0.00906291
0.00905225
0.00904223
0.00903289
0.00902424
0.00901629
0.00900903
0.00900243
0.000123153
0.000989658
0.00203354
0.00306319
0.00404681
0.00495955
0.00578114
0.00649849
0.00710646
0.00760712
0.0080082
0.00832121
0.00855955
0.00873697
0.00886637
0.00895906
0.00902445
0.00906997
0.00910127
0.00912246
0.00913643
0.00914517
0.00915
0.0091518
0.00915116
0.00914849
0.00914411
0.00913828
0.00913126
0.00912327
0.00911453
0.00910526
0.00909565
0.00908588
0.00907609
0.00906641
0.00905696
0.00904783
0.0090391
0.00903081
0.009023
0.00901571
0.00900894
0.00900271
0.008997
0.000122503
0.000985414
0.00202162
0.00304435
0.0040225
0.00493126
0.00575023
0.00646612
0.00707351
0.00757419
0.00797563
0.0082891
0.00852783
0.00870543
0.00883475
0.00892711
0.00899195
0.00903678
0.00906733
0.00908781
0.00910121
0.00910957
0.00911429
0.00911628
0.00911616
0.00911435
0.00911113
0.00910675
0.00910141
0.00909527
0.00908852
0.0090813
0.00907376
0.00906603
0.00905823
0.00905045
0.00904279
0.00903531
0.00902808
0.00902116
0.00901459
0.00900839
0.00900259
0.00899722
0.00899226
0.000121899
0.000981414
0.00201044
0.00302668
0.00399974
0.00490484
0.0057215
0.0064362
0.0070433
0.0075443
0.00794641
0.00826068
0.00850016
0.00867834
0.00880801
0.00890049
0.00896524
0.00900983
0.00904006
0.0090602
0.00907332
0.00908154
0.00908628
0.0090885
0.00908883
0.00908769
0.00908536
0.00908207
0.00907797
0.00907322
0.00906794
0.00906225
0.00905626
0.00905007
0.00904377
0.00903744
0.00903114
0.00902494
0.0090189
0.00901307
0.00900747
0.00900216
0.00899715
0.00899247
0.00898814
0.000121342
0.000977719
0.00200008
0.00301031
0.00397866
0.00488045
0.00569508
0.00640886
0.00701589
0.00751743
0.00792044
0.00823573
0.0084762
0.00865523
0.00878553
0.00887842
0.00894338
0.00898802
0.0090182
0.00903826
0.00905131
0.00905952
0.00906435
0.00906681
0.00906751
0.0090669
0.00906526
0.00906279
0.00905963
0.00905591
0.00905172
0.00904717
0.00904234
0.00903731
0.00903214
0.0090269
0.00902166
0.00901645
0.00901133
0.00900634
0.00900152
0.00899691
0.00899254
0.00898843
0.00898459
0.000120829
0.000974392
0.00199066
0.00299539
0.00395948
0.00485832
0.00567123
0.00638434
0.00699151
0.00749376
0.00789779
0.00821424
0.00845583
0.00863584
0.00876694
0.00886041
0.00892575
0.00897062
0.00900092
0.00902103
0.00903413
0.00904241
0.00904738
0.00905005
0.00905108
0.00905089
0.00904976
0.0090479
0.00904544
0.00904249
0.00903912
0.00903542
0.00903145
0.00902728
0.00902296
0.00901854
0.00901408
0.00900962
0.0090052
0.00900086
0.00899664
0.00899258
0.0089887
0.00898503
0.00898159
0.000120362
0.000971506
0.00198233
0.00298217
0.00394254
0.0048389
0.00565048
0.0063632
0.0069707
0.00747376
0.00787888
0.00819651
0.00843923
0.00862024
0.00875216
0.00884625
0.00891205
0.00895722
0.00898771
0.00900796
0.00902115
0.00902954
0.00903466
0.00903752
0.00903879
0.00903893
0.0090382
0.0090368
0.00903485
0.00903246
0.00902969
0.00902661
0.00902326
0.00901972
0.00901601
0.00901219
0.0090083
0.00900438
0.00900046
0.0089966
0.00899281
0.00898914
0.00898562
0.00898228
0.00897913
0.000119945
0.000969158
0.00197535
0.00297112
0.00392854
0.0048231
0.00563386
0.00634653
0.00695454
0.00745844
0.00786458
0.00818325
0.00842696
0.00860882
0.00874144
0.00883608
0.00890228
0.00894773
0.00897842
0.00899879
0.0090121
0.00902059
0.00902582
0.00902883
0.00903031
0.00903068
0.00903024
0.00902917
0.0090276
0.0090256
0.00902325
0.0090206
0.0090177
0.00901458
0.00901129
0.00900786
0.00900435
0.00900077
0.00899717
0.0089936
0.00899007
0.00898665
0.00898334
0.0089802
0.00897724
0.00011958
0.000967503
0.00197022
0.0029632
0.00391891
0.0048127
0.0056234
0.00633646
0.00694508
0.0074497
0.00785654
0.00817586
0.00842013
0.00860246
0.00873545
0.00883037
0.00889676
0.00894236
0.00897314
0.00899359
0.00900695
0.0090155
0.00902082
0.00902393
0.00902554
0.00902608
0.00902585
0.009025
0.00902368
0.00902195
0.00901988
0.00901751
0.00901487
0.00901201
0.00900895
0.00900573
0.00900239
0.00899897
0.00899549
0.00899201
0.00898857
0.00898521
0.00898196
0.00897887
0.00897595
0.000119272
0.000966893
0.00196806
0.00296043
0.00391648
0.00481118
0.0056229
0.00633681
0.00694596
0.00745077
0.00785753
0.0081766
0.00842054
0.00860253
0.00873522
0.00882988
0.00889608
0.00894152
0.00897218
0.00899256
0.00900588
0.00901442
0.00901976
0.00902293
0.00902462
0.00902527
0.00902516
0.00902447
0.0090233
0.00902174
0.00901983
0.0090176
0.00901509
0.00901232
0.00900932
0.00900612
0.00900276
0.00899927
0.0089957
0.0089921
0.00898851
0.008985
0.00898161
0.00897838
0.00897536
0.000119049
0.000968191
0.00197129
0.00296694
0.00392687
0.0048251
0.0056393
0.00635434
0.00696332
0.00746694
0.00787189
0.0081889
0.00843081
0.00861099
0.00874216
0.00883563
0.00890091
0.00894569
0.00897589
0.00899595
0.00900907
0.0090175
0.00902278
0.00902595
0.00902767
0.00902838
0.00902836
0.00902776
0.00902669
0.00902522
0.00902338
0.0090212
0.00901869
0.00901587
0.00901277
0.00900941
0.00900581
0.00900204
0.00899813
0.00899415
0.00899017
0.00898625
0.00898247
0.00897889
0.00897554
0.000119015
0.000973359
0.00198502
0.00299103
0.00396084
0.00486654
0.0056848
0.00640039
0.00700702
0.00750633
0.00790599
0.00821754
0.00845439
0.00863022
0.00875785
0.00884859
0.00891185
0.00895517
0.00898437
0.00900375
0.00901644
0.0090246
0.00902975
0.00903286
0.00903458
0.00903533
0.00903537
0.00903485
0.00903385
0.00903244
0.00903063
0.00902843
0.00902584
0.00902288
0.00901955
0.00901586
0.00901186
0.00900757
0.00900308
0.00899844
0.00899377
0.00898915
0.00898469
0.00898048
0.00897659
0.000119444
0.000986312
0.00201929
0.00304862
0.00403822
0.00495677
0.00577982
0.00649299
0.00709191
0.00758048
0.00796834
0.00826848
0.00849521
0.00866263
0.00878362
0.00886932
0.00892891
0.00896964
0.00899707
0.00901528
0.00902722
0.00903494
0.00903984
0.00904285
0.00904456
0.00904536
0.00904547
0.00904505
0.00904415
0.00904282
0.00904105
0.00903884
0.00903618
0.00903304
0.00902943
0.00902533
0.00902079
0.00901584
0.00901055
0.00900502
0.00899938
0.00899376
0.00898833
0.0089832
0.0089785
0.000121035
0.00101384
0.00209258
0.00316884
0.00419411
0.00513144
0.00595655
0.00665868
0.00723837
0.00770404
0.00806884
0.00834795
0.00855682
0.00870986
0.00881979
0.00889729
0.008951
0.00898765
0.00901232
0.00902873
0.00903954
0.00904659
0.00905112
0.00905397
0.00905566
0.00905654
0.00905678
0.00905652
0.00905579
0.00905462
0.00905299
0.00905087
0.00904822
0.009045
0.00904117
0.00903672
0.00903167
0.00902605
0.00901993
0.00901342
0.00900666
0.00899983
0.00899317
0.00898688
0.00898112
0.000125558
0.00106603
0.00223776
0.00340425
0.00448867
0.00544718
0.00626162
0.00693226
0.00747028
0.00789221
0.00821626
0.0084603
0.00864063
0.00877147
0.00886475
0.00893017
0.00897536
0.00900616
0.00902693
0.00904081
0.00905003
0.00905614
0.00906017
0.00906279
0.00906446
0.00906542
0.00906585
0.00906582
0.00906537
0.00906449
0.00906315
0.0090613
0.00905886
0.00905578
0.00905199
0.00904745
0.00904215
0.00903615
0.00902951
0.00902229
0.00901457
0.00900657
0.00899862
0.00899105
0.00898413
0.000136423
0.0011599
0.00252085
0.00385595
0.00502564
0.00598877
0.00675449
0.0073506
0.00780786
0.00815418
0.00841321
0.00860441
0.00874358
0.00884345
0.00891411
0.00896342
0.00899741
0.00902061
0.00903632
0.00904692
0.00905407
0.00905892
0.00906224
0.00906451
0.00906607
0.0090671
0.00906771
0.00906795
0.00906785
0.00906737
0.00906648
0.00906511
0.00906317
0.00906057
0.00905722
0.00905306
0.00904807
0.00904234
0.00903602
0.00902912
0.00902126
0.0090126
0.00900367
0.00899498
0.00898695
0.000159244
0.00136093
0.00313756
0.00476175
0.00599353
0.00687158
0.00749172
0.00793348
0.00825147
0.00848182
0.00864882
0.00876945
0.00885596
0.00891742
0.00896063
0.00899071
0.00901147
0.00902569
0.00903542
0.00904208
0.00904669
0.00904992
0.00905223
0.00905391
0.00905515
0.00905607
0.00905672
0.00905714
0.00905731
0.00905723
0.00905685
0.0090561
0.0090549
0.00905316
0.00905076
0.0090476
0.00904365
0.0090391
0.00903448
0.00903049
0.0090244
0.00901631
0.00900712
0.00899779
0.00898899
0.00020947
0.00216192
0.00504085
0.0068228
0.0077227
0.00819601
0.00846939
0.00864146
0.00875657
0.00883643
0.00889286
0.00893299
0.00896151
0.00898166
0.00899581
0.00900568
0.00901252
0.00901725
0.00902052
0.00902282
0.00902444
0.00902563
0.00902651
0.00902719
0.00902771
0.00902813
0.00902846
0.0090287
0.00902885
0.0090289
0.00902884
0.00902863
0.00902824
0.00902761
0.00902666
0.00902529
0.00902336
0.00902089
0.0090188
0.00902438
0.0090231
0.009017
0.0090084
0.008999
0.00898991
)
;

boundaryField
{
    leftWall
    {
        type            nutkWallFunction;
        Cmu             0.09;
        kappa           0.41;
        E               9.8;
        value           nonuniform List<scalar> 
42
(
1.46994e-05
1.47926e-05
1.50179e-05
9.77334e-06
1.0161e-05
1.0249e-05
1.02176e-05
1.01993e-05
1.02881e-05
1.03958e-05
1.04151e-05
1.03447e-05
1.0228e-05
1.009e-05
9.94722e-06
9.80711e-06
9.6718e-06
9.54171e-06
9.41686e-06
9.297e-06
9.18176e-06
9.07089e-06
8.96403e-06
8.86042e-06
8.75965e-06
8.66252e-06
8.57081e-06
8.48587e-06
8.40772e-06
8.3356e-06
8.26921e-06
8.20898e-06
8.15545e-06
8.1092e-06
8.07323e-06
8.05924e-06
8.10032e-06
8.28757e-06
8.86941e-06
1.03766e-05
1.37274e-05
2.11541e-05
)
;
    }
    rightWall
    {
        type            nutkWallFunction;
        Cmu             0.09;
        kappa           0.41;
        E               9.8;
        value           nonuniform 0();
    }
    lowerWall
    {
        type            nutkWallFunction;
        Cmu             0.09;
        kappa           0.41;
        E               9.8;
        value           nonuniform 0();
    }
    atmosphere
    {
        type            calculated;
        value           nonuniform List<scalar> 
45
(
0.009
0.009
0.009
0.009
0.009
0.009
0.009
0.009
0.009
0.009
0.009
0.009
0.009
0.009
0.009
0.009
0.009
0.009
0.009
0.009
0.009
0.009
0.009
0.009
0.009
0.009
0.009
0.009
0.009
0.009
0.009
0.009
0.009
0.009
0.009
0.009
0.009
0.009
0.009
0.00902438
0.0090231
0.009017
0.0090084
0.008999
0.00898991
)
;
    }
    defaultFaces
    {
        type            empty;
    }
    procBoundary2to0
    {
        type            processor;
        value           nonuniform List<scalar> 
46
(
0.0106046
0.0108422
0.0111282
0.0114975
0.0119824
0.0124559
0.0125395
0.0122515
0.0118098
0.0113702
0.0110029
0.0107115
0.010469
0.0102508
0.010048
0.00986333
0.00970224
0.00956761
0.00945888
0.00937307
0.00930615
0.009254
0.009213
0.00918012
0.00915305
0.000124343
0.000924341
0.00188277
0.00283824
0.00376564
0.00464535
0.00545966
0.00619555
0.00684603
0.00741062
0.00789471
0.00830825
0.00866406
0.00897593
0.00925674
0.00951691
0.00976315
0.00999846
0.0102236
0.0104406
0.0104406
)
;
    }
    procBoundary2to3
    {
        type            processor;
        value           nonuniform List<scalar> 
43
(
0.00913037
0.00913089
0.00913147
0.00913196
0.00913217
0.00913188
0.0091309
0.00912902
0.00912609
0.00912201
0.00911674
0.0091103
0.0091028
0.00909441
0.00908532
0.00907579
0.00906605
0.00905634
0.00904686
0.00903781
0.00902928
0.00902139
0.00901415
0.0090076
0.00900172
0.00899647
0.00899182
0.00898772
0.00898414
0.00898104
0.0089784
0.00897621
0.00897447
0.00897324
0.00897256
0.00897248
0.00897306
0.00897427
0.00897601
0.00897799
0.00897985
0.00898115
0.00898172
)
;
    }
}


// ************************************************************************* //
