/*--------------------------------*- C++ -*----------------------------------*\
  =========                 |
  \\      /  F ield         | OpenFOAM: The Open Source CFD Toolbox
   \\    /   O peration     | Website:  https://openfoam.org
    \\  /    A nd           | Version:  7
     \\/     M anipulation  |
\*---------------------------------------------------------------------------*/
FoamFile
{
    version     2.0;
    format      ascii;
    class       surfaceScalarField;
    location    "0.1";
    object      phi;
}
// * * * * * * * * * * * * * * * * * * * * * * * * * * * * * * * * * * * * * //

dimensions      [0 3 -1 0 0 0 0];

internalField   nonuniform List<scalar> 
3742
(
4.48619e-06
-4.44141e-05
4.66164e-06
-4.43962e-05
4.8549e-06
-4.41066e-05
5.03556e-06
-4.33077e-05
5.22014e-06
-4.20706e-05
3.30565e-06
-2.02617e-05
1.33375e-06
-2.23724e-06
-3.27739e-07
1.15202e-05
-1.61177e-06
2.14731e-05
-2.52238e-06
2.82056e-05
-3.10003e-06
3.23732e-05
-3.40405e-06
3.46221e-05
-3.49469e-06
3.55208e-05
-3.4248e-06
3.55222e-05
-3.2377e-06
3.49597e-05
-2.96779e-06
3.40664e-05
-2.64189e-06
3.29976e-05
-2.2805e-06
3.18524e-05
-1.89929e-06
3.06902e-05
-1.51011e-06
2.9544e-05
-1.12189e-06
2.84299e-05
-7.41026e-07
2.73538e-05
-3.72542e-07
2.63164e-05
-2.10912e-08
2.53151e-05
2.43471e-05
-7.42666e-07
-6.08279e-05
-7.33294e-07
-5.93589e-05
-5.00437e-07
-5.61848e-05
-1.90102e-07
-5.31631e-05
1.4335e-07
-5.04925e-05
4.78674e-07
-4.82378e-05
8.05776e-07
-4.64063e-05
1.12011e-06
-4.49776e-05
1.42e-06
-4.39167e-05
1.70478e-06
-4.31812e-05
1.97395e-06
-4.27252e-05
2.22693e-06
-4.25028e-05
2.4631e-06
-4.24695e-05
2.68175e-06
-4.25838e-05
2.88234e-06
-4.28075e-05
3.06477e-06
-4.31054e-05
3.22962e-06
-4.34448e-05
3.37865e-06
-4.37938e-05
3.51447e-06
-4.41191e-05
3.64246e-06
-4.43836e-05
3.77162e-06
-4.45432e-05
3.91475e-06
-4.45393e-05
4.07997e-06
-4.42718e-05
4.24016e-06
-4.34679e-05
4.41697e-06
-4.22474e-05
2.62136e-06
-1.84661e-05
3.67753e-07
1.637e-08
-1.68313e-06
1.35711e-05
-3.27696e-06
2.30669e-05
-4.37708e-06
2.93057e-05
-5.0391e-06
3.30352e-05
-5.35063e-06
3.49336e-05
-5.39894e-06
3.55691e-05
-5.25744e-06
3.53806e-05
-4.98363e-06
3.46859e-05
-4.62112e-06
3.37039e-05
-4.2024e-06
3.25789e-05
-3.75136e-06
3.14013e-05
-3.28542e-06
3.02243e-05
-2.81716e-06
2.90757e-05
-2.35558e-06
2.79683e-05
-1.90718e-06
2.69054e-05
-1.47632e-06
2.58856e-05
-1.06675e-06
2.49055e-05
2.39608e-05
-7.70025e-07
-6.00578e-05
-1.37656e-06
-5.87523e-05
-1.28091e-06
-5.62805e-05
-9.58746e-07
-5.34852e-05
-5.75687e-07
-5.08756e-05
-1.82959e-07
-4.86306e-05
2.00035e-07
-4.67893e-05
5.64986e-07
-4.53425e-05
9.08371e-07
-4.42601e-05
1.22866e-06
-4.35015e-05
1.52514e-06
-4.30217e-05
1.79745e-06
-4.27751e-05
2.0451e-06
-4.27172e-05
2.26756e-06
-4.28063e-05
2.46438e-06
-4.30043e-05
2.63552e-06
-4.32765e-05
2.78162e-06
-4.35909e-05
2.90426e-06
-4.39165e-05
3.00673e-06
-4.42216e-05
3.09451e-06
-4.44714e-05
3.18089e-06
-4.46296e-05
3.29262e-06
-4.4651e-05
3.42376e-06
-4.44029e-05
3.49316e-06
-4.35373e-05
3.42349e-06
-4.21777e-05
1.0914e-06
-1.6134e-05
-1.62357e-06
2.7313e-06
-3.98106e-06
1.59286e-05
-5.72839e-06
2.48142e-05
-6.85222e-06
3.04295e-05
-7.45416e-06
3.36372e-05
-7.65773e-06
3.51372e-05
-7.57471e-06
3.54861e-05
-7.29415e-06
3.51001e-05
-6.88286e-06
3.42746e-05
-6.38963e-06
3.32106e-05
-5.84952e-06
3.20387e-05
-5.28735e-06
3.08392e-05
-4.72043e-06
2.96573e-05
-4.16069e-06
2.8516e-05
-3.61632e-06
2.74239e-05
-3.09283e-06
2.63819e-05
-2.59403e-06
2.53868e-05
-2.1225e-06
2.4434e-05
2.35185e-05
5.81197e-07
-6.06391e-05
-2.62798e-06
-5.55432e-05
-2.62676e-06
-5.62817e-05
-2.1786e-06
-5.39334e-05
-1.65839e-06
-5.13958e-05
-1.13083e-06
-4.91581e-05
-6.17686e-07
-4.73025e-05
-1.31528e-07
-4.58287e-05
3.2104e-07
-4.47127e-05
7.36445e-07
-4.39169e-05
1.11324e-06
-4.33985e-05
1.45083e-06
-4.31127e-05
1.74916e-06
-4.30155e-05
2.008e-06
-4.30652e-05
2.22747e-06
-4.32238e-05
2.40752e-06
-4.34566e-05
2.54862e-06
-4.3732e-05
2.65208e-06
-4.40199e-05
2.72071e-06
-4.42902e-05
2.75936e-06
-4.451e-05
2.77686e-06
-4.46471e-05
2.84298e-06
-4.47171e-05
2.98477e-06
-4.45447e-05
2.84297e-06
-4.33955e-05
1.33745e-06
-4.06722e-05
-2.14522e-06
-1.26513e-05
-5.25608e-06
5.84212e-06
-7.64102e-06
1.83135e-05
-9.22115e-06
2.63943e-05
-1.00982e-05
3.13066e-05
-1.043e-05
3.3969e-05
-1.03697e-05
3.50769e-05
-1.00421e-05
3.51584e-05
-9.54065e-06
3.45986e-05
-8.93294e-06
3.36669e-05
-8.26649e-06
3.25442e-05
-7.57428e-06
3.13465e-05
-6.87866e-06
3.01435e-05
-6.19449e-06
2.89731e-05
-5.53139e-06
2.78529e-05
-4.89546e-06
2.6788e-05
-4.29048e-06
2.5777e-05
-3.71872e-06
2.4815e-05
-3.18132e-06
2.38966e-05
2.30165e-05
5.80958e-06
-6.64486e-05
-4.80575e-06
-4.49278e-05
-5.19556e-06
-5.58918e-05
-4.41702e-06
-5.4712e-05
-3.47386e-06
-5.23389e-05
-2.57151e-06
-5.00605e-05
-1.75098e-06
-4.8123e-05
-1.01937e-06
-4.65603e-05
-3.61831e-07
-4.53702e-05
2.28156e-07
-4.45069e-05
7.5187e-07
-4.39222e-05
1.21073e-06
-4.35715e-05
1.60697e-06
-4.34117e-05
1.94093e-06
-4.33991e-05
2.21364e-06
-4.34965e-05
2.42514e-06
-4.36681e-05
2.5756e-06
-4.38824e-05
2.66571e-06
-4.411e-05
2.69493e-06
-4.43194e-05
2.66591e-06
-4.4481e-05
2.56338e-06
-4.45446e-05
2.41185e-06
-4.45656e-05
2.56276e-06
-4.46956e-05
2.03297e-06
-4.28658e-05
-3.5534e-06
-3.50859e-05
-8.02637e-06
-8.17838e-06
-1.10938e-05
8.90951e-06
-1.29291e-05
2.01489e-05
-1.38642e-05
2.73294e-05
-1.41451e-05
3.15875e-05
-1.39613e-05
3.37853e-05
-1.34663e-05
3.45819e-05
-1.27753e-05
3.44674e-05
-1.19703e-05
3.37936e-05
-1.11085e-05
3.2805e-05
-1.02285e-05
3.16642e-05
-9.3559e-06
3.04739e-05
-8.50693e-06
2.92945e-05
-7.69142e-06
2.81576e-05
-6.91496e-06
2.70764e-05
-6.18039e-06
2.60534e-05
-5.48889e-06
2.50854e-05
-4.84061e-06
2.41667e-05
-4.23507e-06
2.32911e-05
2.24531e-05
-1.62362e-06
-6.4825e-05
-1.13241e-06
-4.54191e-05
-4.84565e-06
-5.21788e-05
-6.22428e-06
-5.33333e-05
-5.72791e-06
-5.28353e-05
-4.57942e-06
-5.1209e-05
-3.37793e-06
-4.93245e-05
-2.26647e-06
-4.76718e-05
-1.26369e-06
-4.6373e-05
-3.73911e-07
-4.53967e-05
3.93338e-07
-4.46894e-05
1.05e-06
-4.42282e-05
1.6074e-06
-4.39691e-05
2.06433e-06
-4.3856e-05
2.41748e-06
-4.38497e-05
2.6737e-06
-4.39243e-05
2.8367e-06
-4.40454e-05
2.90963e-06
-4.4183e-05
2.89389e-06
-4.43037e-05
2.79802e-06
-4.43851e-05
2.57539e-06
-4.4322e-05
1.86613e-06
-4.38563e-05
-2.47707e-07
-4.25818e-05
-3.22685e-06
-3.98866e-05
-1.24037e-05
-2.5909e-05
-1.68589e-05
-3.72317e-06
-1.88845e-05
1.09351e-05
-1.95337e-05
2.07981e-05
-1.94017e-05
2.71973e-05
-1.87944e-05
3.09802e-05
-1.7897e-05
3.28879e-05
-1.6833e-05
3.35179e-05
-1.56867e-05
3.3321e-05
-1.45152e-05
3.26222e-05
-1.33562e-05
3.1646e-05
-1.22333e-05
3.05412e-05
-1.11602e-05
2.94009e-05
-1.01443e-05
2.82786e-05
-9.18831e-06
2.72016e-05
-8.29236e-06
2.61804e-05
-7.45513e-06
2.52162e-05
-6.67453e-06
2.43048e-05
-5.94818e-06
2.34403e-05
-5.27362e-06
2.26165e-05
2.18282e-05
-7.99351e-07
-6.40257e-05
3.94432e-06
-5.01625e-05
2.69878e-06
-5.09332e-05
8.29429e-07
-5.14639e-05
-8.57009e-07
-5.11488e-05
-1.87167e-06
-5.01944e-05
-2.21998e-06
-4.89761e-05
-2.10363e-06
-4.77881e-05
-1.67261e-06
-4.6804e-05
-1.20951e-06
-4.58597e-05
-7.74217e-07
-4.51248e-05
-4.40922e-07
-4.45614e-05
-2.66888e-07
-4.41432e-05
-2.162e-07
-4.39068e-05
-2.53594e-07
-4.38122e-05
-4.0921e-07
-4.37687e-05
-7.12594e-07
-4.37421e-05
-1.18948e-06
-4.37061e-05
-1.8657e-06
-4.36275e-05
-2.83199e-06
-4.34189e-05
-4.26525e-06
-4.28887e-05
-6.50922e-06
-4.16123e-05
-1.03288e-05
-3.87623e-05
-1.72679e-05
-3.29475e-05
-2.52524e-05
-1.79245e-05
-2.7355e-05
-1.62053e-06
-2.73947e-05
1.09748e-05
-2.65347e-05
1.99381e-05
-2.51905e-05
2.58532e-05
-2.36109e-05
2.94006e-05
-2.19402e-05
3.12172e-05
-2.02626e-05
3.18403e-05
-1.86289e-05
3.16872e-05
-1.70682e-05
3.10616e-05
-1.55966e-05
3.01744e-05
-1.42207e-05
2.91653e-05
-1.2941e-05
2.81212e-05
-1.17546e-05
2.70922e-05
-1.06563e-05
2.61033e-05
-9.64027e-06
2.51644e-05
-8.70058e-06
2.42765e-05
-7.83158e-06
2.34358e-05
-7.02816e-06
2.26369e-05
-6.2858e-06
2.18742e-05
2.11431e-05
1.27309e-07
-6.41529e-05
4.54704e-06
-5.45825e-05
4.89985e-06
-5.12859e-05
3.44216e-06
-5.00064e-05
1.54196e-06
-4.92487e-05
-1.45419e-07
-4.8507e-05
-1.43399e-06
-4.76875e-05
-2.36324e-06
-4.68589e-05
-3.08727e-06
-4.608e-05
-3.61246e-06
-4.53345e-05
-4.05044e-06
-4.46867e-05
-4.45633e-06
-4.41556e-05
-4.85731e-06
-4.37422e-05
-5.30931e-06
-4.34548e-05
-5.8598e-06
-4.32618e-05
-6.5262e-06
-4.31024e-05
-7.34024e-06
-4.2928e-05
-8.35875e-06
-4.26875e-05
-9.6903e-06
-4.22959e-05
-1.15061e-05
-4.16031e-05
-1.40919e-05
-4.03028e-05
-1.78329e-05
-3.78713e-05
-2.31711e-05
-3.34241e-05
-3.02863e-05
-2.58322e-05
-3.45465e-05
-1.36644e-05
-3.54362e-05
-7.30821e-07
-3.44904e-05
1.00291e-05
-3.26499e-05
1.80976e-05
-3.04124e-05
2.36157e-05
-2.80538e-05
2.70421e-05
-2.57242e-05
2.88876e-05
-2.35015e-05
2.96177e-05
-2.14223e-05
2.9608e-05
-1.94999e-05
2.91392e-05
-1.77347e-05
2.84092e-05
-1.61197e-05
2.75503e-05
-1.46442e-05
2.66457e-05
-1.32959e-05
2.57439e-05
-1.20625e-05
2.48699e-05
-1.09325e-05
2.40344e-05
-9.8955e-06
2.32395e-05
-8.94261e-06
2.24829e-05
-8.0661e-06
2.17604e-05
-7.25944e-06
2.10675e-05
2.04009e-05
-1.03141e-07
-6.40497e-05
2.10958e-06
-5.67952e-05
2.8251e-06
-5.20015e-05
2.1607e-06
-4.93419e-05
7.67653e-07
-4.78555e-05
-8.50577e-07
-4.68889e-05
-2.42327e-06
-4.61148e-05
-3.86048e-06
-4.54216e-05
-5.16135e-06
-4.47791e-05
-6.31984e-06
-4.4176e-05
-7.37292e-06
-4.36337e-05
-8.36262e-06
-4.31659e-05
-9.32827e-06
-4.27766e-05
-1.0323e-05
-4.246e-05
-1.13975e-05
-4.21873e-05
-1.25931e-05
-4.19068e-05
-1.39642e-05
-4.15569e-05
-1.55952e-05
-4.10565e-05
-1.76111e-05
-4.02801e-05
-2.01868e-05
-3.90274e-05
-2.35174e-05
-3.69722e-05
-2.77449e-05
-3.36437e-05
-3.27318e-05
-2.84372e-05
-3.7756e-05
-2.0808e-05
-4.05967e-05
-1.08237e-05
-4.09314e-05
-3.96088e-07
-3.96e-05
8.69766e-06
-3.73131e-05
1.58107e-05
-3.45863e-05
2.08888e-05
-3.17379e-05
2.41937e-05
-2.89523e-05
2.6102e-05
-2.63255e-05
2.69908e-05
-2.38992e-05
2.71817e-05
-2.16846e-05
2.69246e-05
-1.96759e-05
2.64004e-05
-1.78586e-05
2.5733e-05
-1.62147e-05
2.50018e-05
-1.47255e-05
2.42546e-05
-1.33732e-05
2.35176e-05
-1.2142e-05
2.28032e-05
-1.10181e-05
2.21156e-05
-9.98977e-06
2.14545e-05
-9.04716e-06
2.08178e-05
-8.18211e-06
2.02025e-05
1.96067e-05
-1.34365e-06
-6.27061e-05
-9.44447e-07
-5.71945e-05
-6.4794e-07
-5.2298e-05
-9.83758e-07
-4.90062e-05
-1.90251e-06
-4.69368e-05
-3.19588e-06
-4.55955e-05
-4.66648e-06
-4.46443e-05
-6.18877e-06
-4.38993e-05
-7.69722e-06
-4.32706e-05
-9.15815e-06
-4.27151e-05
-1.05704e-05
-4.22214e-05
-1.19522e-05
-4.17842e-05
-1.33339e-05
-4.13948e-05
-1.47585e-05
-4.10354e-05
-1.62745e-05
-4.06713e-05
-1.79322e-05
-4.02491e-05
-1.97932e-05
-3.9696e-05
-2.19372e-05
-3.89125e-05
-2.44624e-05
-3.77548e-05
-2.74713e-05
-3.60185e-05
-3.10171e-05
-3.34264e-05
-3.5029e-05
-2.96318e-05
-3.91619e-05
-2.43043e-05
-4.26715e-05
-1.72983e-05
-4.45186e-05
-8.97652e-06
-4.44589e-05
-4.55802e-07
-4.29375e-05
7.17629e-06
-4.04877e-05
1.33609e-05
-3.75612e-05
1.79623e-05
-3.44804e-05
2.11129e-05
-3.14495e-05
2.3071e-05
-2.8583e-05
2.41242e-05
-2.59352e-05
2.45339e-05
-2.35229e-05
2.45124e-05
-2.13417e-05
2.42192e-05
-1.93755e-05
2.37668e-05
-1.76037e-05
2.323e-05
-1.60045e-05
2.26554e-05
-1.45573e-05
2.20704e-05
-1.32437e-05
2.14896e-05
-1.20477e-05
2.09197e-05
-1.0956e-05
2.03628e-05
-9.95711e-06
1.98189e-05
-9.04179e-06
1.92871e-05
1.87672e-05
-2.32627e-06
-6.03798e-05
-3.14605e-06
-5.63748e-05
-3.51696e-06
-5.19271e-05
-3.99171e-06
-4.85316e-05
-4.78498e-06
-4.61435e-05
-5.8926e-06
-4.44879e-05
-7.22988e-06
-4.3307e-05
-8.70794e-06
-4.24212e-05
-1.02602e-05
-4.17184e-05
-1.18439e-05
-4.11314e-05
-1.34431e-05
-4.06222e-05
-1.50623e-05
-4.0165e-05
-1.67218e-05
-3.97354e-05
-1.84539e-05
-3.93033e-05
-2.02985e-05
-3.88267e-05
-2.23004e-05
-3.82472e-05
-2.45098e-05
-3.74866e-05
-2.69815e-05
-3.64409e-05
-2.97651e-05
-3.49712e-05
-3.28843e-05
-3.28992e-05
-3.62944e-05
-3.00163e-05
-3.98169e-05
-2.61094e-05
-4.30899e-05
-2.10312e-05
-4.55653e-05
-1.48229e-05
-4.66921e-05
-7.84975e-06
-4.63292e-05
-8.18764e-07
-4.47297e-05
5.57686e-06
-4.22801e-05
1.09113e-05
-3.93528e-05
1.5035e-05
-3.62418e-05
1.80019e-05
-3.31501e-05
1.99792e-05
-3.02013e-05
2.11755e-05
-2.74605e-05
2.17931e-05
-2.49527e-05
2.20047e-05
-2.26788e-05
2.19453e-05
-2.06257e-05
2.17137e-05
-1.8774e-05
2.13782e-05
-1.71021e-05
2.09835e-05
-1.55891e-05
2.05575e-05
-1.42161e-05
2.01166e-05
-1.29665e-05
1.96701e-05
-1.18262e-05
1.92224e-05
-1.07831e-05
1.87759e-05
-9.82754e-06
1.83315e-05
1.78908e-05
-2.6883e-06
-5.76916e-05
-4.2905e-06
-5.47726e-05
-5.28947e-06
-5.09281e-05
-6.12227e-06
-4.76987e-05
-7.04576e-06
-4.522e-05
-8.15606e-06
-4.33776e-05
-9.45371e-06
-4.20093e-05
-1.09025e-05
-4.09724e-05
-1.24614e-05
-4.01596e-05
-1.40982e-05
-3.94946e-05
-1.57966e-05
-3.89238e-05
-1.75559e-05
-3.84056e-05
-1.93888e-05
-3.79025e-05
-2.13178e-05
-3.73743e-05
-2.3372e-05
-3.67725e-05
-2.55828e-05
-3.60364e-05
-2.79809e-05
-3.50885e-05
-3.05903e-05
-3.38315e-05
-3.34156e-05
-3.21458e-05
-3.64223e-05
-2.98926e-05
-3.95089e-05
-2.69297e-05
-4.24763e-05
-2.31419e-05
-4.5016e-05
-1.84915e-05
-4.67527e-05
-1.30861e-05
-4.7373e-05
-7.22951e-06
-4.68035e-05
-1.38826e-06
-4.52083e-05
3.98174e-06
-4.28674e-05
8.57036e-06
-4.00751e-05
1.22427e-05
-3.70825e-05
1.50092e-05
-3.4076e-05
1.69727e-05
-3.1178e-05
1.82775e-05
-2.8459e-05
1.90741e-05
-2.59514e-05
1.94971e-05
-2.36627e-05
1.96566e-05
-2.15851e-05
1.96361e-05
-1.97031e-05
1.94962e-05
-1.7998e-05
1.92784e-05
-1.64508e-05
1.90102e-05
-1.50437e-05
1.87095e-05
-1.37608e-05
1.83871e-05
-1.25883e-05
1.805e-05
-1.15147e-05
1.77023e-05
-1.05301e-05
1.73469e-05
1.69868e-05
-2.69811e-06
-5.49934e-05
-4.71077e-06
-5.276e-05
-6.17717e-06
-4.94618e-05
-7.37773e-06
-4.64982e-05
-8.53031e-06
-4.40675e-05
-9.7542e-06
-4.21537e-05
-1.10951e-05
-4.06684e-05
-1.25572e-05
-3.95103e-05
-1.41275e-05
-3.85892e-05
-1.5791e-05
-3.78312e-05
-1.75382e-05
-3.71766e-05
-1.93688e-05
-3.65751e-05
-2.12907e-05
-3.59806e-05
-2.33184e-05
-3.53466e-05
-2.54693e-05
-3.46216e-05
-2.77601e-05
-3.37456e-05
-3.02012e-05
-3.26474e-05
-3.27897e-05
-3.12429e-05
-3.54982e-05
-2.94373e-05
-3.82598e-05
-2.7131e-05
-4.09534e-05
-2.42361e-05
-4.33945e-05
-2.07008e-05
-4.53439e-05
-1.65421e-05
-4.65503e-05
-1.18797e-05
-4.68306e-05
-6.94922e-06
-4.61519e-05
-2.06693e-06
-4.46309e-05
2.46077e-06
-4.24721e-05
6.41148e-06
-3.99028e-05
9.67336e-06
-3.71286e-05
1.22351e-05
-3.43114e-05
1.41555e-05
-3.15647e-05
1.55309e-05
-2.89591e-05
1.64685e-05
-2.65316e-05
1.70696e-05
-2.42958e-05
1.74207e-05
-2.225e-05
1.75904e-05
-2.03841e-05
1.76303e-05
-1.86836e-05
1.75779e-05
-1.7133e-05
1.74596e-05
-1.57169e-05
1.72934e-05
-1.44215e-05
1.70917e-05
-1.32341e-05
1.68627e-05
-1.21442e-05
1.66123e-05
-1.11425e-05
1.63451e-05
1.60654e-05
-2.60695e-06
-5.23865e-05
-4.77582e-06
-5.05912e-05
-6.52218e-06
-4.77154e-05
-8.00258e-06
-4.50178e-05
-9.3716e-06
-4.26985e-05
-1.07354e-05
-4.07899e-05
-1.21536e-05
-3.92502e-05
-1.36524e-05
-3.80115e-05
-1.5239e-05
-3.70027e-05
-1.69129e-05
-3.61573e-05
-1.86731e-05
-3.54163e-05
-2.05214e-05
-3.47268e-05
-2.2463e-05
-3.40389e-05
-2.45058e-05
-3.33038e-05
-2.66573e-05
-3.24702e-05
-2.89208e-05
-3.14821e-05
-3.12907e-05
-3.02775e-05
-3.37453e-05
-2.87884e-05
-3.62386e-05
-2.6944e-05
-3.86917e-05
-2.46778e-05
-4.0987e-05
-2.19407e-05
-4.29695e-05
-1.87183e-05
-4.44614e-05
-1.50502e-05
-4.52962e-05
-1.1045e-05
-4.53657e-05
-6.87973e-06
-4.46599e-05
-2.7727e-06
-4.32658e-05
1.06663e-06
-4.13339e-05
4.47957e-06
-3.90375e-05
7.37697e-06
-3.65401e-05
9.73779e-06
-3.3977e-05
1.15924e-05
-3.14482e-05
1.3002e-05
-2.90203e-05
1.40405e-05
-2.67322e-05
1.47815e-05
-2.4602e-05
1.52906e-05
-2.26339e-05
1.56223e-05
-2.08233e-05
1.58196e-05
-1.91607e-05
1.59153e-05
-1.76346e-05
1.59335e-05
-1.62331e-05
1.58919e-05
-1.49447e-05
1.58033e-05
-1.37591e-05
1.5677e-05
-1.26669e-05
1.55201e-05
-1.16599e-05
1.53382e-05
1.51367e-05
-2.47682e-06
-4.99097e-05
-4.67965e-06
-4.83883e-05
-6.56701e-06
-4.58281e-05
-8.2248e-06
-4.33601e-05
-9.753e-06
-4.11702e-05
-1.12346e-05
-3.93083e-05
-1.27263e-05
-3.77585e-05
-1.42618e-05
-3.64761e-05
-1.58591e-05
-3.54054e-05
-1.75272e-05
-3.44892e-05
-1.92712e-05
-3.36723e-05
-2.1095e-05
-3.2903e-05
-2.30021e-05
-3.21318e-05
-2.49954e-05
-3.13105e-05
-2.70746e-05
-3.03909e-05
-2.92334e-05
-2.93233e-05
-3.14551e-05
-2.80558e-05
-3.37074e-05
-2.65361e-05
-3.59375e-05
-2.47139e-05
-3.80677e-05
-2.25476e-05
-3.9995e-05
-2.00135e-05
-4.15962e-05
-1.71171e-05
-4.2743e-05
-1.39034e-05
-4.3325e-05
-1.04629e-05
-4.32783e-05
-6.92647e-06
-4.26045e-05
-3.44656e-06
-4.13695e-05
-1.68381e-07
-3.96845e-05
2.79456e-06
-3.76802e-05
5.3727e-06
-3.54841e-05
7.54171e-06
-3.32058e-05
9.31414e-06
-3.09306e-05
1.07267e-05
-2.87185e-05
1.18284e-05
-2.66079e-05
1.26709e-05
-2.46198e-05
1.33025e-05
-2.2763e-05
1.37655e-05
-2.10378e-05
1.40944e-05
-1.94397e-05
1.43172e-05
-1.79615e-05
1.44553e-05
-1.65949e-05
1.45252e-05
-1.53313e-05
1.45397e-05
-1.41625e-05
1.45083e-05
-1.30811e-05
1.44387e-05
-1.20803e-05
1.43374e-05
1.42105e-05
-2.34693e-06
-4.75628e-05
-4.51845e-06
-4.62168e-05
-6.45632e-06
-4.38902e-05
-8.20604e-06
-4.16104e-05
-9.83035e-06
-3.95459e-05
-1.13898e-05
-3.77488e-05
-1.29316e-05
-3.62167e-05
-1.44888e-05
-3.49189e-05
-1.60831e-05
-3.38111e-05
-1.77279e-05
-3.28443e-05
-1.94317e-05
-3.19686e-05
-2.11993e-05
-3.11354e-05
-2.30331e-05
-3.0298e-05
-2.49321e-05
-2.94115e-05
-2.6891e-05
-2.84321e-05
-2.88971e-05
-2.73171e-05
-3.09279e-05
-2.6025e-05
-3.29474e-05
-2.45166e-05
-3.49036e-05
-2.27577e-05
-3.67271e-05
-2.07241e-05
-3.8333e-05
-1.84076e-05
-3.96272e-05
-1.58228e-05
-4.05184e-05
-1.30122e-05
-4.09336e-05
-1.00477e-05
-4.08347e-05
-7.02536e-06
-4.02286e-05
-4.05271e-06
-3.91653e-05
-1.23174e-06
-3.77265e-05
1.35586e-06
-3.60101e-05
3.65632e-06
-3.41139e-05
5.64551e-06
-3.2125e-05
7.32521e-06
-3.0114e-05
8.7157e-06
-2.81335e-05
9.8479e-06
-2.62195e-05
1.07569e-05
-2.43945e-05
1.14775e-05
-2.26702e-05
1.20412e-05
-2.10514e-05
1.24755e-05
-1.95375e-05
1.28033e-05
-1.81253e-05
1.30431e-05
-1.68099e-05
1.32099e-05
-1.55858e-05
1.33155e-05
-1.4447e-05
1.33695e-05
-1.3388e-05
1.33798e-05
-1.24037e-05
1.3353e-05
1.32959e-05
-2.22822e-06
-4.53347e-05
-4.33665e-06
-4.41084e-05
-6.2699e-06
-4.19569e-05
-8.04997e-06
-3.98303e-05
-9.7169e-06
-3.7879e-05
-1.13131e-05
-3.61526e-05
-1.28755e-05
-3.46543e-05
-1.44331e-05
-3.33612e-05
-1.6007e-05
-3.22372e-05
-1.76118e-05
-3.12396e-05
-1.92564e-05
-3.03239e-05
-2.0946e-05
-2.94458e-05
-2.26816e-05
-2.85624e-05
-2.44599e-05
-2.76332e-05
-2.62723e-05
-2.66197e-05
-2.81032e-05
-2.54862e-05
-2.99282e-05
-2.42001e-05
-3.1712e-05
-2.27328e-05
-3.34077e-05
-2.10619e-05
-3.49571e-05
-1.91747e-05
-3.62929e-05
-1.70718e-05
-3.73452e-05
-1.47706e-05
-3.80494e-05
-1.2308e-05
-3.83573e-05
-9.73985e-06
-3.82462e-05
-7.13652e-06
-3.77243e-05
-4.57464e-06
-3.68293e-05
-2.12671e-06
-3.56213e-05
1.47837e-07
-3.41725e-05
2.20756e-06
-3.25573e-05
4.03031e-06
-3.08439e-05
5.61176e-06
-2.90896e-05
6.96144e-06
-2.73395e-05
8.09778e-06
-2.56263e-05
9.04374e-06
-2.39724e-05
9.82349e-06
-2.23915e-05
1.04603e-05
-2.08911e-05
1.09751e-05
-1.94742e-05
1.13864e-05
-1.81408e-05
1.17098e-05
-1.6889e-05
1.19581e-05
-1.57159e-05
1.21424e-05
-1.46178e-05
1.22714e-05
-1.35911e-05
1.23531e-05
-1.26321e-05
1.2394e-05
1.24009e-05
-2.11893e-06
-4.32158e-05
-4.1519e-06
-4.20754e-05
-6.04838e-06
-4.00605e-05
-7.81818e-06
-3.80606e-05
-9.48723e-06
-3.621e-05
-1.10852e-05
-3.45546e-05
-1.26405e-05
-3.3099e-05
-1.41772e-05
-3.18246e-05
-1.57138e-05
-3.07006e-05
-1.72638e-05
-2.96896e-05
-1.88359e-05
-2.87519e-05
-2.04341e-05
-2.78475e-05
-2.20585e-05
-2.69381e-05
-2.37043e-05
-2.59875e-05
-2.53613e-05
-2.49627e-05
-2.70132e-05
-2.38344e-05
-2.86363e-05
-2.2577e-05
-3.01989e-05
-2.11702e-05
-3.16608e-05
-1.95999e-05
-3.29751e-05
-1.78605e-05
-3.40901e-05
-1.59568e-05
-3.49543e-05
-1.39063e-05
-3.55227e-05
-1.17396e-05
-3.5763e-05
-9.49952e-06
-3.56618e-05
-7.23774e-06
-3.5227e-05
-5.00949e-06
-3.44867e-05
-2.86704e-06
-3.34846e-05
-8.5418e-07
-3.22741e-05
9.97041e-07
-3.09111e-05
2.66722e-06
-2.94483e-05
4.14899e-06
-2.7932e-05
5.44513e-06
-2.63999e-05
6.56565e-06
-2.4881e-05
7.52488e-06
-2.33967e-05
8.33913e-06
-2.19614e-05
9.025e-06
-2.05846e-05
9.59829e-06
-1.92715e-05
1.00734e-05
-1.80248e-05
1.0463e-05
-1.6845e-05
1.07783e-05
-1.57313e-05
1.10287e-05
-1.46822e-05
1.12223e-05
-1.36956e-05
1.13665e-05
-1.27692e-05
1.14676e-05
1.15323e-05
-2.01844e-06
-4.11973e-05
-3.97194e-06
-4.0122e-05
-5.8125e-06
-3.822e-05
-7.54538e-06
-3.63277e-05
-9.18754e-06
-3.45678e-05
-1.07605e-05
-3.29817e-05
-1.22861e-05
-3.15734e-05
-1.37838e-05
-3.0327e-05
-1.5269e-05
-2.92153e-05
-1.67534e-05
-2.82053e-05
-1.82441e-05
-2.72612e-05
-1.97445e-05
-2.63472e-05
-2.12533e-05
-2.54293e-05
-2.2765e-05
-2.44757e-05
-2.42693e-05
-2.34584e-05
-2.57505e-05
-2.23532e-05
-2.71871e-05
-2.11404e-05
-2.85519e-05
-1.98055e-05
-2.98119e-05
-1.83399e-05
-3.093e-05
-1.67423e-05
-3.18674e-05
-1.50194e-05
-3.25868e-05
-1.3187e-05
-3.30564e-05
-1.127e-05
-3.3255e-05
-9.30104e-06
-3.31742e-05
-7.31853e-06
-3.2821e-05
-5.36269e-06
-3.22162e-05
-3.4718e-06
-3.13918e-05
-1.67859e-06
-3.03868e-05
-8.00436e-09
-2.9243e-05
1.52339e-06
-2.80011e-05
2.90717e-06
-2.66981e-05
4.1421e-06
-2.53651e-05
5.23268e-06
-2.40275e-05
6.18725e-06
-2.27048e-05
7.01641e-06
-2.14115e-05
7.73167e-06
-2.01578e-05
8.34462e-06
-1.89507e-05
8.86628e-06
-1.77945e-05
9.30681e-06
-1.66915e-05
9.67534e-06
-1.56429e-05
9.98001e-06
-1.46485e-05
1.0228e-05
-1.3708e-05
1.04259e-05
-1.28201e-05
1.05797e-05
1.06957e-05
-1.92569e-06
-3.92717e-05
-3.79759e-06
-3.82501e-05
-5.57098e-06
-3.64465e-05
-7.24939e-06
-3.46493e-05
-8.84485e-06
-3.29724e-05
-1.03737e-05
-3.14528e-05
-1.1853e-05
-3.00941e-05
-1.3298e-05
-2.88819e-05
-1.47216e-05
-2.77918e-05
-1.6133e-05
-2.67938e-05
-1.7538e-05
-2.58561e-05
-1.89388e-05
-2.49465e-05
-2.03334e-05
-2.40346e-05
-2.17163e-05
-2.30929e-05
-2.30774e-05
-2.20974e-05
-2.44024e-05
-2.10281e-05
-2.5673e-05
-1.98698e-05
-2.68663e-05
-1.86122e-05
-2.7956e-05
-1.72502e-05
-2.89135e-05
-1.57849e-05
-2.97097e-05
-1.42232e-05
-3.03177e-05
-1.25791e-05
-3.07153e-05
-1.08724e-05
-3.08881e-05
-9.1283e-06
-3.08311e-05
-7.37549e-06
-3.05501e-05
-5.64375e-06
-3.00603e-05
-3.96153e-06
-2.93853e-05
-2.35366e-06
-2.85535e-05
-8.39774e-07
-2.75963e-05
5.66217e-07
-2.65451e-05
1.85591e-06
-2.54289e-05
3.02594e-06
-2.42735e-05
4.07732e-06
-2.31007e-05
5.01437e-06
-2.19278e-05
5.84358e-06
-2.07689e-05
6.57269e-06
-1.96342e-05
7.20995e-06
-1.85316e-05
7.76362e-06
-1.74664e-05
8.2416e-06
-1.64423e-05
8.65128e-06
-1.54618e-05
8.99943e-06
-1.4526e-05
9.29224e-06
-1.36355e-05
9.53547e-06
-1.27904e-05
9.73467e-06
9.89561e-06
-1.83653e-06
-3.74352e-05
-3.62492e-06
-3.64617e-05
-5.32467e-06
-3.47468e-05
-6.9378e-06
-3.30362e-05
-8.47397e-06
-3.14362e-05
-9.9462e-06
-2.99806e-05
-1.13678e-05
-2.86724e-05
-1.27512e-05
-2.74985e-05
-1.41064e-05
-2.64365e-05
-1.54409e-05
-2.54594e-05
-1.6759e-05
-2.4538e-05
-1.80619e-05
-2.36436e-05
-1.93474e-05
-2.27492e-05
-2.06099e-05
-2.18304e-05
-2.18405e-05
-2.08668e-05
-2.30266e-05
-1.98419e-05
-2.41527e-05
-1.87437e-05
-2.52002e-05
-1.75647e-05
-2.61484e-05
-1.6302e-05
-2.69755e-05
-1.49577e-05
-2.766e-05
-1.35388e-05
-2.81822e-05
-1.20569e-05
-2.85266e-05
-1.0528e-05
-2.86835e-05
-8.97144e-06
-2.86499e-05
-7.4091e-06
-2.84303e-05
-5.86335e-06
-2.80361e-05
-4.35569e-06
-2.74846e-05
-2.9052e-06
-2.67969e-05
-1.5275e-06
-2.59964e-05
-2.34268e-07
-2.51072e-05
9.66675e-07
-2.41523e-05
2.07107e-06
-2.31528e-05
3.07786e-06
-2.21271e-05
3.98866e-06
-2.10907e-05
4.80714e-06
-2.00562e-05
5.53824e-06
-1.9034e-05
6.18767e-06
-1.80318e-05
6.76144e-06
-1.70558e-05
7.26557e-06
-1.61105e-05
7.7059e-06
-1.5199e-05
8.08793e-06
-1.43236e-05
8.41687e-06
-1.34858e-05
8.69769e-06
-1.26865e-05
8.93531e-06
9.13503e-06
-1.74767e-06
-3.56875e-05
-3.45119e-06
-3.47582e-05
-5.0733e-06
-3.31247e-05
-6.61502e-06
-3.14945e-05
-8.08454e-06
-2.99666e-05
-9.49245e-06
-2.85727e-05
-1.08495e-05
-2.73154e-05
-1.21656e-05
-2.61824e-05
-1.34487e-05
-2.51534e-05
-1.47048e-05
-2.42033e-05
-1.59371e-05
-2.33058e-05
-1.71459e-05
-2.24348e-05
-1.83291e-05
-2.1566e-05
-1.94814e-05
-2.06781e-05
-2.0595e-05
-1.97533e-05
-2.16591e-05
-1.87778e-05
-2.2661e-05
-1.77418e-05
-2.35858e-05
-1.66399e-05
-2.44173e-05
-1.54705e-05
-2.51388e-05
-1.42362e-05
-2.57345e-05
-1.29432e-05
-2.61901e-05
-1.16013e-05
-2.64947e-05
-1.02234e-05
-2.66415e-05
-8.82459e-06
-2.66289e-05
-7.42167e-06
-2.64605e-05
-6.03177e-06
-2.61449e-05
-4.67139e-06
-2.56946e-05
-3.35543e-06
-2.51257e-05
-2.09644e-06
-2.44557e-05
-9.04252e-07
-2.37031e-05
2.14118e-07
-2.28862e-05
1.2542e-06
-2.20222e-05
2.21382e-06
-2.11265e-05
3.09292e-06
-2.02125e-05
3.89319e-06
-1.92918e-05
4.61756e-06
-1.8374e-05
5.26981e-06
-1.74668e-05
5.85421e-06
-1.65765e-05
6.37523e-06
-1.57079e-05
6.83735e-06
-1.4865e-05
7.24496e-06
-1.40504e-05
7.60234e-06
-1.32665e-05
7.91371e-06
-1.25145e-05
8.18337e-06
8.41606e-06
-1.66056e-06
-3.4027e-05
-3.27831e-06
-3.31405e-05
-4.81993e-06
-3.15831e-05
-6.28661e-06
-3.00278e-05
-7.68511e-06
-2.85681e-05
-9.02406e-06
-2.72337e-05
-1.03123e-05
-2.60271e-05
-1.15579e-05
-2.49369e-05
-1.27673e-05
-2.39439e-05
-1.39452e-05
-2.30254e-05
-1.5094e-05
-2.2157e-05
-1.62136e-05
-2.13151e-05
-1.73019e-05
-2.04777e-05
-1.83542e-05
-1.96258e-05
-1.93637e-05
-1.87438e-05
-2.03215e-05
-1.782e-05
-2.12171e-05
-1.68462e-05
-2.20386e-05
-1.58184e-05
-2.27736e-05
-1.47356e-05
-2.34093e-05
-1.36005e-05
-2.3934e-05
-1.24186e-05
-2.43372e-05
-1.11981e-05
-2.46113e-05
-9.94932e-06
-2.47516e-05
-8.6843e-06
-2.47571e-05
-7.4161e-06
-2.46309e-05
-6.15806e-06
-2.43792e-05
-4.92306e-06
-2.40118e-05
-3.72288e-06
-2.35404e-05
-2.56774e-06
-2.29788e-05
-1.46591e-06
-2.2341e-05
-4.23613e-07
-2.16417e-05
5.54821e-07
-2.08946e-05
1.46676e-06
-2.01128e-05
2.31112e-06
-1.93079e-05
3.08827e-06
-1.84901e-05
3.79974e-06
-1.76681e-05
4.44785e-06
-1.68495e-05
5.03553e-06
-1.60403e-05
5.56599e-06
-1.52455e-05
6.04258e-06
-1.44693e-05
6.46874e-06
-1.37148e-05
6.84791e-06
-1.29847e-05
7.1836e-06
-1.22809e-05
7.47952e-06
7.73987e-06
-1.57655e-06
-3.24505e-05
-3.10828e-06
-3.16088e-05
-4.56792e-06
-3.01234e-05
-5.95736e-06
-2.86383e-05
-7.28216e-06
-2.72433e-05
-8.54942e-06
-2.59664e-05
-9.76651e-06
-2.481e-05
-1.09401e-05
-2.37633e-05
-1.20755e-05
-2.28085e-05
-1.31765e-05
-2.19244e-05
-1.42449e-05
-2.10886e-05
-1.52806e-05
-2.02794e-05
-1.62814e-05
-1.94769e-05
-1.72433e-05
-1.8664e-05
-1.81603e-05
-1.78268e-05
-1.90254e-05
-1.6955e-05
-1.98298e-05
-1.60418e-05
-2.05642e-05
-1.50839e-05
-2.12189e-05
-1.40809e-05
-2.17843e-05
-1.30352e-05
-2.22514e-05
-1.19515e-05
-2.26128e-05
-1.08367e-05
-2.28629e-05
-9.6992e-06
-2.29986e-05
-8.54864e-06
-2.30193e-05
-7.39538e-06
-2.29275e-05
-6.24994e-06
-2.2728e-05
-5.12256e-06
-2.24281e-05
-4.0227e-06
-2.20371e-05
-2.95874e-06
-2.15654e-05
-1.93765e-06
-2.1024e-05
-9.6495e-07
-2.04245e-05
-4.46689e-08
-1.97782e-05
8.20449e-07
-1.90959e-05
1.62881e-06
-1.83876e-05
2.37992e-06
-1.76621e-05
3.0743e-06
-1.69275e-05
3.71325e-06
-1.61907e-05
4.29864e-06
-1.54573e-05
4.83267e-06
-1.47326e-05
5.31782e-06
-1.40205e-05
5.75668e-06
-1.33245e-05
6.15196e-06
-1.26475e-05
6.50656e-06
-1.19916e-05
6.82364e-06
7.10684e-06
-1.49202e-06
-3.09584e-05
-2.93837e-06
-3.01624e-05
-4.31654e-06
-2.87453e-05
-5.62827e-06
-2.73266e-05
-6.87832e-06
-2.59932e-05
-8.07281e-06
-2.47719e-05
-9.21798e-06
-2.36648e-05
-1.03195e-05
-2.26618e-05
-1.13819e-05
-2.17461e-05
-1.24084e-05
-2.0898e-05
-1.34003e-05
-2.00967e-05
-1.43573e-05
-1.93224e-05
-1.52776e-05
-1.85566e-05
-1.61577e-05
-1.77839e-05
-1.69927e-05
-1.69918e-05
-1.77765e-05
-1.61712e-05
-1.85022e-05
-1.53161e-05
-1.91625e-05
-1.44237e-05
-1.97498e-05
-1.34937e-05
-2.02567e-05
-1.25284e-05
-2.06766e-05
-1.15317e-05
-2.10038e-05
-1.05094e-05
-2.12346e-05
-9.46847e-06
-2.13666e-05
-8.41666e-06
-2.13997e-05
-7.3623e-06
-2.13358e-05
-6.31385e-06
-2.11788e-05
-5.27956e-06
-2.09343e-05
-4.26714e-06
-2.06095e-05
-3.28352e-06
-2.02125e-05
-2.33462e-06
-1.97522e-05
-1.42528e-06
-1.92376e-05
-5.59222e-07
-1.8678e-05
2.60877e-07
-1.80824e-05
1.03321e-06
-1.74593e-05
1.75679e-06
-1.68165e-05
2.43146e-06
-1.6161e-05
3.05775e-06
-1.54991e-05
3.63673e-06
-1.48362e-05
4.16985e-06
-1.41772e-05
4.65884e-06
-1.35262e-05
5.10561e-06
-1.28865e-05
5.51228e-06
-1.22611e-05
5.88117e-06
-1.16524e-05
6.21494e-06
6.51675e-06
-1.40212e-06
-2.95563e-05
-2.76426e-06
-2.88002e-05
-4.06276e-06
-2.74468e-05
-5.29792e-06
-2.60914e-05
-6.47393e-06
-2.48172e-05
-7.59622e-06
-2.36496e-05
-8.67034e-06
-2.25907e-05
-9.70122e-06
-2.16309e-05
-1.06928e-05
-2.07545e-05
-1.16478e-05
-1.9943e-05
-1.25672e-05
-1.91773e-05
-1.3451e-05
-1.84386e-05
-1.42973e-05
-1.77103e-05
-1.51033e-05
-1.69779e-05
-1.58649e-05
-1.62303e-05
-1.65771e-05
-1.5459e-05
-1.72344e-05
-1.46588e-05
-1.78309e-05
-1.38272e-05
-1.83608e-05
-1.29639e-05
-1.88183e-05
-1.20709e-05
-1.91984e-05
-1.11515e-05
-1.94972e-05
-1.02107e-05
-1.97116e-05
-9.25404e-06
-1.98403e-05
-8.28803e-06
-1.98831e-05
-7.31942e-06
-1.98418e-05
-6.35513e-06
-1.97195e-05
-5.40191e-06
-1.95205e-05
-4.46611e-06
-1.92505e-05
-3.55352e-06
-1.89159e-05
-2.66919e-06
-1.85238e-05
-1.81736e-06
-1.80816e-05
-1.00144e-06
-1.75968e-05
-2.23979e-07
-1.70767e-05
5.1317e-07
-1.65287e-05
1.20878e-06
-1.59595e-05
1.86225e-06
-1.53753e-05
2.47357e-06
-1.47818e-05
3.04322e-06
-1.4184e-05
3.57205e-06
-1.35863e-05
4.06121e-06
-1.29928e-05
4.51207e-06
-1.24067e-05
4.92622e-06
-1.1831e-05
5.3055e-06
-1.12682e-05
5.65217e-06
5.96887e-06
-1.30727e-06
-2.8249e-05
-2.58599e-06
-2.75215e-05
-3.80637e-06
-2.62264e-05
-4.96676e-06
-2.4931e-05
-6.07049e-06
-2.37135e-05
-7.12238e-06
-2.25977e-05
-8.12742e-06
-2.15857e-05
-9.08995e-06
-2.06683e-05
-1.00135e-05
-1.9831e-05
-1.09004e-05
-1.90562e-05
-1.17516e-05
-1.8326e-05
-1.2567e-05
-1.76232e-05
-1.33451e-05
-1.69321e-05
-1.40836e-05
-1.62395e-05
-1.47791e-05
-1.55348e-05
-1.54275e-05
-1.48106e-05
-1.60244e-05
-1.40619e-05
-1.65652e-05
-1.32864e-05
-1.70452e-05
-1.24839e-05
-1.74602e-05
-1.1656e-05
-1.78063e-05
-1.08055e-05
-1.80804e-05
-9.93652e-06