/*--------------------------------*- C++ -*----------------------------------*\
  =========                 |
  \\      /  F ield         | OpenFOAM: The Open Source CFD Toolbox
   \\    /   O peration     | Website:  https://openfoam.org
    \\  /    A nd           | Version:  7
     \\/     M anipulation  |
\*---------------------------------------------------------------------------*/
FoamFile
{
    version     2.0;
    format      ascii;
    class       scalarField;
    location    "0.0036/lagrangian/dsmc";
    object      Ei;
}
// * * * * * * * * * * * * * * * * * * * * * * * * * * * * * * * * * * * * * //


14078
(
7.71717e-21
2.44521e-21
3.22144e-21
7.37829e-21
2.91681e-21
1.61709e-22
7.50936e-21
2.21648e-21
1.07136e-20
2.35579e-21
1.7891e-20
1.50097e-20
1.82083e-20
2.05083e-20
5.51475e-21
2.63522e-21
2.75295e-21
1.63982e-21
5.65602e-22
1.64278e-20
9.94747e-21
3.68413e-21
3.60163e-21
2.52891e-21
2.45924e-21
2.14909e-20
8.477e-22
1.49973e-21
3.34459e-21
1.11006e-21
1.17364e-20
9.40302e-21
1.18976e-21
3.01493e-21
5.16369e-21
6.2823e-21
8.73172e-21
3.25759e-21
1.10873e-20
1.02643e-20
1.87074e-22
5.98465e-22
3.94981e-21
4.75883e-21
5.6421e-21
8.42247e-21
2.52253e-20
1.02987e-21
1.42625e-21
1.05994e-20
7.70462e-21
7.24597e-21
3.97454e-21
1.336e-20
1.25071e-22
7.0616e-21
6.62502e-22
6.74177e-21
3.09237e-21
5.74053e-21
1.28335e-20
1.0071e-20
1.15345e-21
3.8273e-21
2.29702e-21
4.12519e-20
1.40009e-20
3.34758e-21
6.56562e-21
1.51979e-20
1.94262e-21
3.12025e-21
2.90907e-21
9.00145e-21
1.78439e-20
2.417e-21
5.80387e-21
1.43377e-20
1.69222e-20
1.24848e-20
2.09676e-21
7.89859e-21
1.05564e-20
2.28771e-22
4.49402e-21
5.0886e-21
6.07735e-21
2.25336e-21
1.53699e-20
1.68305e-21
9.03089e-22
1.58363e-20
1.22946e-20
3.38691e-21
1.76756e-20
1.14526e-22
5.58621e-21
4.35575e-20
6.56851e-21
7.78444e-22
4.3863e-21
5.79171e-21
8.31494e-21
1.41959e-22
4.32735e-21
6.81985e-21
1.15726e-20
4.99774e-21
1.11016e-20
1.00719e-21
2.84258e-20
1.59199e-20
3.83142e-21
1.29351e-20
6.70899e-22
2.71746e-21
6.98194e-22
1.20524e-20
1.94352e-21
6.62127e-21
9.54296e-21
1.03906e-21
1.39327e-21
3.79954e-21
6.32213e-21
9.52288e-22
5.71286e-21
3.33086e-22
1.73654e-21
1.44719e-21
3.93065e-21
1.15893e-20
6.06819e-21
1.29347e-21
1.05758e-20
8.18331e-22
1.49546e-21
6.83042e-21
1.70586e-20
2.65938e-21
7.3517e-21
2.93579e-20
8.06823e-21
3.8284e-21
6.33367e-21
1.26109e-20
1.40558e-21
5.04303e-21
2.52258e-21
4.4876e-21
5.24287e-21
2.70884e-22
1.63697e-20
1.50583e-20
8.82573e-22
7.63491e-22
9.70199e-21
3.87756e-20
7.84648e-21
4.67521e-21
9.78474e-22
6.9586e-21
6.36002e-21
1.25811e-21
1.0072e-20
4.10477e-21
9.30825e-21
8.04698e-21
1.02168e-21
3.21545e-20
3.98695e-22
2.84331e-20
3.89992e-22
1.06917e-21
1.11028e-21
5.20585e-21
2.83826e-22
1.32793e-21
9.64348e-21
3.66321e-20
2.13822e-21
9.5985e-21
1.34424e-21
7.8246e-22
2.06212e-21
4.18832e-21
1.54182e-21
5.41753e-21
1.01255e-20
1.07106e-20
8.81951e-21
6.94652e-21
1.34533e-20
6.09229e-21
8.57929e-21
9.09936e-21
3.80651e-22
1.61728e-21
6.06286e-21
4.61302e-21
1.9384e-21
5.28461e-21
4.10744e-20
1.40551e-21
2.28446e-21
3.68893e-21
6.97371e-22
3.7583e-21
9.21614e-21
1.23374e-21
1.32735e-20
8.39807e-21
1.32752e-20
8.61289e-22
1.46645e-21
2.5187e-20
3.34484e-21
5.46571e-21
1.13576e-20
2.38146e-21
1.00546e-20
9.5182e-21
2.33178e-21
1.31147e-20
2.06698e-21
6.57458e-21
4.29565e-21
3.75773e-22
7.36281e-21
9.66774e-22
7.30552e-21
1.65012e-20
2.33583e-22
5.46035e-22
8.95407e-21
1.44525e-20
1.41431e-21
2.73805e-21
6.73782e-22
4.64921e-21
2.38978e-21
1.88681e-20
1.11219e-20
1.7242e-22
1.98393e-21
8.47185e-21
7.2372e-22
2.54537e-20
1.23131e-21
1.41143e-20
1.34356e-21
4.88314e-21
4.19355e-21
3.49934e-21
6.93256e-21
4.34248e-22
4.55353e-21
9.46571e-21
5.26353e-21
4.65812e-21
3.93017e-21
9.08699e-21
2.49598e-21
3.73465e-21
1.12399e-20
2.07279e-20
5.71744e-21
2.21544e-22
1.3786e-20
8.97789e-21
1.03742e-21
7.98069e-22
3.98242e-21
2.59404e-21
5.50461e-21
1.83279e-20
2.42291e-20
2.10302e-21
5.39022e-22
2.33162e-21
8.23022e-21
5.42404e-23
5.50773e-21
7.10912e-21
4.93616e-21
1.56258e-21
5.97744e-21
9.6719e-23
2.97513e-21
1.8545e-21
1.13451e-20
3.71846e-21
4.04025e-21
1.48577e-20
4.62113e-21
3.24975e-21
3.71126e-21
1.12297e-21
7.06791e-21
2.91692e-21
6.84749e-21
8.95169e-21
6.90279e-21
3.61415e-21
1.66888e-20
1.49198e-20
1.00877e-20
7.53257e-22
2.33434e-21
1.06311e-20
3.11697e-21
3.74186e-20
8.13021e-22
1.36295e-20
3.13066e-20
2.45676e-20
2.73932e-20
4.3826e-22
4.62572e-21
8.18156e-21
1.53605e-20
2.9e-21
1.38126e-20
1.4919e-20
3.00783e-22
3.18483e-21
1.09368e-21
2.21236e-21
9.57752e-21
3.62676e-21
8.88581e-21
1.39276e-20
6.44342e-22
6.18765e-21
4.42793e-21
1.29804e-20
7.9817e-21
9.85188e-21
4.33148e-21
5.42765e-21
1.63551e-20
1.84744e-21
9.26414e-21
9.20568e-21
7.52348e-21
4.00265e-21
5.67966e-22
3.12964e-22
3.85946e-21
4.62578e-21
1.08028e-22
1.12889e-20
4.48193e-20
1.37141e-21
9.6209e-21
1.65251e-21
1.06157e-20
1.02799e-20
4.92875e-21
9.33309e-21
9.36674e-21
2.6061e-21
1.15157e-22
8.32436e-21
6.26694e-21
1.88074e-21
4.7903e-21
1.71924e-21
2.7337e-21
9.15214e-23
1.1723e-21
1.01172e-20
7.92607e-21
6.78727e-21
6.43101e-21
1.99682e-21
3.17911e-21
6.17105e-21
2.22879e-21
1.14239e-20
1.31366e-20
2.12037e-21
2.71223e-21
2.23368e-20
1.80992e-20
1.04854e-21
7.86464e-21
1.2953e-21
2.07137e-20
1.67596e-21
2.15279e-20
2.50161e-20
9.99317e-21
3.35481e-21
2.14965e-21
3.76832e-21
1.59532e-20
4.6469e-21
1.38816e-21
1.99678e-21
1.44966e-20
1.47777e-20
1.05993e-20
1.36859e-20
6.61135e-21
5.32368e-21
3.57392e-21
3.59059e-22
9.63092e-21
1.20141e-20
2.32966e-21
4.21163e-21
5.38249e-21
4.67987e-21
3.93747e-21
2.42611e-21
4.11404e-21
1.32431e-20
4.24048e-21
1.40665e-20
2.2429e-20
1.381e-20
5.00976e-21
2.04719e-20
1.54795e-21
1.04445e-21
2.71098e-20
2.12856e-21
1.92654e-20
6.22028e-22
1.29554e-20
5.18753e-21
9.73212e-21
9.49215e-21
2.88364e-20
6.70337e-21
4.45653e-21
1.21643e-21
2.67829e-21
1.16962e-20
1.29122e-21
5.54897e-22
9.38835e-21
2.46551e-20
7.60059e-21
5.02469e-21
3.3961e-21
1.76837e-21
3.2635e-21
1.30716e-21
7.91492e-21
2.41932e-21
1.06871e-21
5.48484e-21
2.25189e-21
4.87509e-21
3.43418e-21
3.11206e-21
5.31489e-21
3.48264e-22
5.51267e-21
6.93937e-21
1.10674e-20
3.21304e-21
4.86498e-20
3.38136e-21
4.48464e-21
2.25612e-21
5.66923e-21
1.29493e-20
1.27436e-20
8.40626e-22
1.04179e-20
3.20703e-21
3.03296e-21
4.43361e-21
3.85524e-20
5.04225e-21
1.72344e-20
6.48487e-21
2.63889e-20
1.88529e-21
1.87514e-20
9.397e-22
1.31211e-20
2.92653e-20
6.76563e-21
9.5065e-22
8.07767e-21
2.3163e-22
1.72314e-20
1.23106e-22
2.60224e-21
3.71543e-21
1.17251e-20
3.24192e-21
1.54642e-20
7.92263e-22
4.92351e-23
7.64151e-21
3.01013e-21
2.14109e-21
5.58461e-21
2.23462e-22
1.23749e-20
2.1194e-22
7.04008e-21
8.47578e-21
1.01264e-20
1.32842e-21
2.15025e-20
1.96088e-20
4.09295e-21
1.18434e-21
1.30722e-20
6.97974e-22
9.58494e-21
3.38526e-21
1.38775e-20
1.37552e-21
1.31986e-21
2.56106e-21
1.00034e-21
7.74527e-22
1.08071e-20
5.68387e-21
1.22973e-21
1.71033e-21
2.18049e-21
8.95197e-22
5.32892e-21
2.43701e-21
3.74146e-23
5.91553e-21
8.73222e-21
3.2765e-21
1.29412e-20
2.69395e-21
2.53062e-21
9.73346e-23
1.19629e-21
4.82854e-23
3.62146e-21
1.14022e-20
9.21107e-21
6.39889e-21
1.72561e-21
6.19882e-21
1.44545e-20
2.18996e-21
1.98562e-20
4.44517e-21
5.72825e-21
4.86187e-21
4.643e-21
4.73581e-21
3.81259e-21
4.44437e-22
2.74164e-21
2.3361e-22
1.41277e-20
7.47993e-21
1.17859e-21
1.17172e-20
3.00447e-21
1.40284e-21
1.97444e-20
1.08827e-20
1.97913e-21
2.28476e-21
7.04954e-21
1.64316e-21
1.7686e-20
2.00303e-21
1.53149e-21
2.13937e-20
8.21502e-21
3.09417e-21
2.4447e-21
7.51705e-21
2.80292e-21
1.296e-20
1.55798e-21
1.52399e-20
4.41288e-22
1.17905e-20
7.26119e-21
9.90217e-22
1.02577e-20
6.69091e-21
6.94047e-22
5.24058e-21
8.62778e-21
2.71616e-21
1.96189e-21
3.80434e-21
4.78192e-21
8.32077e-21
2.30415e-20
5.25266e-21
8.0909e-21
1.67162e-22
7.07649e-21
1.29372e-20
7.31358e-21
4.5153e-21
2.22517e-20
2.57119e-21
4.48547e-21
5.00195e-21
7.05152e-22
1.32383e-21
1.65019e-21
6.39855e-21
8.49916e-21
2.68372e-22
4.01323e-21
7.25733e-21
5.73035e-22
1.37693e-20
5.99045e-21
8.60869e-21
5.00949e-21
2.96403e-21
1.07726e-20
9.90317e-22
4.24409e-21
2.16548e-21
4.90997e-21
3.04782e-21
1.83857e-21
2.17637e-21
1.43548e-20
7.01169e-21
1.27535e-21
8.13417e-22
1.8715e-20
2.6108e-21
5.5227e-21
3.42942e-22
5.38911e-21
1.03968e-20
1.16095e-20
4.88071e-21
9.11817e-21
2.15176e-22
2.07746e-20
4.48247e-21
3.11526e-21
5.25415e-21
2.2706e-21
1.37124e-20
1.02427e-20
5.41673e-22
5.24479e-21
1.35026e-20
2.84495e-21
6.67723e-22
1.17725e-20
9.92518e-21
4.29063e-21
9.1025e-21
1.3351e-21
4.44076e-21
9.88667e-22
1.54876e-20
1.77991e-21
1.98072e-20
5.24174e-21
9.51732e-21
3.83782e-22
1.20664e-20
1.48479e-21
2.12417e-22
6.93483e-21
1.62226e-20
1.30205e-20
2.21673e-20
1.00122e-20
4.95417e-21
5.61168e-22
7.78213e-21
6.39726e-21
1.64144e-20
1.58095e-21
4.2081e-21
6.47131e-21
2.56454e-21
1.72675e-21
2.55395e-21
9.25551e-22
9.53543e-23
1.92211e-21
9.85174e-22
2.06137e-20
2.88788e-21
1.44059e-20
1.31584e-20
9.30194e-21
3.92458e-21
9.8577e-21
5.63522e-21
1.46868e-22
9.91758e-22
7.31168e-21
5.94218e-21
3.52789e-21
7.03212e-21
2.75812e-21
3.2738e-21
4.93965e-21
6.67181e-21
1.19641e-21
3.0964e-21
1.82046e-20
1.46917e-21
4.50841e-21
1.10385e-22
6.27272e-21
3.549e-21
1.91174e-20
5.86049e-21
3.15036e-21
4.04347e-22
1.35148e-20
4.07399e-21
1.39217e-20
4.71563e-21
6.30337e-21
9.96883e-22
6.89477e-21
8.08751e-21
6.14877e-21
1.35469e-20
1.85298e-21
1.28672e-20
5.80044e-21
5.52857e-21
2.37866e-21
1.45015e-21
1.95686e-21
1.13774e-21
2.95438e-21
1.35344e-20
1.45693e-20
3.79563e-22
5.11612e-21
1.01776e-20
8.20477e-21
6.4239e-21
7.08263e-21
3.24739e-21
9.9003e-21
2.53284e-21
1.33771e-20
1.61024e-21
9.1949e-21
2.45917e-21
3.06222e-21
8.06164e-21
1.2602e-20
6.09881e-21
1.97893e-21
6.61725e-21
5.08065e-22
7.37152e-22
3.38654e-21
8.76347e-22
5.1938e-21
1.50883e-21
8.04903e-21
1.47011e-21
2.2606e-21
3.47546e-21
2.38736e-21
1.66468e-20
4.61787e-21
4.37994e-21
3.77221e-21
2.64297e-21
5.66816e-21
6.45279e-21
7.14357e-22
7.05473e-21
1.76846e-22
1.25788e-21
4.20706e-21
6.91236e-21
4.97708e-21
8.66798e-22
7.60772e-21
2.42458e-21
1.4165e-21
6.83605e-21
1.14411e-20
9.19323e-21
5.33195e-21
1.27672e-20
8.72159e-22
2.08344e-20
2.78799e-21
4.08549e-21
5.3763e-21
9.81721e-22
2.62008e-21
6.19176e-21
1.78283e-21
2.59492e-20
4.11581e-21
1.08523e-20
1.08145e-20
8.15367e-21
2.33714e-20
4.19845e-21
6.06e-21
1.03852e-21
6.9854e-21
1.61518e-21
2.25556e-21
5.24998e-22
2.59921e-20
2.65346e-21
4.03762e-21
3.43619e-21
1.37783e-20
5.8659e-21
7.98808e-21
6.62723e-21
7.98806e-21
7.45237e-21
2.62599e-21
2.68216e-21
1.1997e-21
1.99257e-21
2.14865e-21
8.00566e-21
2.47214e-22
1.04957e-20
2.41143e-21
9.46672e-22
4.00495e-21
1.30894e-21
4.43276e-21
1.22471e-20
2.46847e-21
7.61729e-22
2.46409e-21
1.1582e-20
4.96924e-21
5.07937e-21
1.11468e-20
1.26424e-20
6.36795e-22
1.17338e-21
1.25858e-21
7.90831e-21
7.19372e-22
1.2908e-21
2.84486e-21
1.37059e-20
1.46572e-21
1.30706e-20
8.30419e-22
3.12801e-21
6.90834e-21
9.67824e-21
6.28374e-22
3.43741e-21
4.35567e-22
1.66351e-21
8.27881e-21
1.1254e-20
1.26129e-20
7.15067e-21
3.02904e-21
2.79569e-21
1.13527e-20
9.32513e-22
5.95702e-21
1.65952e-21
8.3257e-21
7.17186e-22
9.2752e-21
3.95462e-21
3.64228e-22
9.28892e-21
4.76952e-21
3.095e-21
3.8926e-21
1.01253e-20
1.08447e-21
2.15029e-21
1.32229e-21
9.03213e-21
1.19073e-20
1.31336e-20
4.09434e-21
3.10832e-22
1.85545e-21
4.93108e-21
9.32567e-23
1.37735e-21
3.6697e-21
1.11657e-20
4.01606e-21
6.58237e-21
8.86485e-21
3.72746e-20
2.17532e-21
1.28116e-22
2.21965e-21
2.53515e-21
6.0421e-21
1.62023e-21
1.65877e-21
4.01191e-21
1.80811e-20
3.20463e-21
1.35699e-20
2.30167e-20
2.33013e-20
5.40929e-21
1.93206e-21
1.15081e-20
1.01677e-21
6.4255e-22
7.21534e-21
7.019e-21
4.40594e-21
3.18857e-21
1.26329e-20
1.14591e-21
1.32323e-21
8.52054e-21
7.09411e-23
1.20271e-20
4.6158e-21
6.37015e-21
6.79756e-21
4.04133e-21
1.30025e-21
5.00993e-21
5.8794e-22
1.3207e-20
6.08755e-21
5.88857e-21
9.4084e-21
1.29204e-20
3.62654e-22
2.59574e-20
3.95533e-21
1.13201e-22
1.82987e-21
3.89504e-21
7.30243e-21
4.27067e-21
1.65231e-22
1.98301e-21
2.59699e-21
1.30724e-20
2.76747e-20
1.89507e-20
3.24156e-21
2.18111e-21
5.91154e-22
7.16638e-21
1.88135e-21
1.54406e-20
1.14327e-20
5.67067e-21
1.07607e-21
2.90571e-20
1.15977e-20
8.45804e-21
1.27097e-21
4.52738e-21
9.54468e-21
5.85947e-21
4.23229e-22
4.45667e-21
8.12302e-21
6.31058e-22
4.03378e-21
6.41442e-21
3.32183e-22
2.1493e-20
2.12614e-21
1.27676e-21
3.14148e-22
1.08364e-20
2.53717e-20
1.35947e-21
1.29497e-20
5.06939e-21
2.95788e-22
1.1326e-20
2.46042e-21
5.25271e-21
6.3114e-21
1.85754e-21
9.83666e-21
1.84256e-21
1.98014e-21
1.54847e-20
1.26766e-22
4.66231e-22
1.89243e-21
1.27737e-20
2.51882e-21
7.97397e-21
1.50435e-22
6.09438e-21
2.7006e-21
8.29444e-21
2.80313e-21
2.37145e-20
1.30534e-20
3.83782e-21
9.34665e-22
1.31911e-20
6.57108e-21
1.86612e-21
5.08523e-21
3.01791e-20
1.65863e-20
5.32015e-21
2.09968e-21
1.09313e-20
2.39737e-21
9.02337e-21
2.1745e-21
1.3667e-20
1.06505e-20
5.80054e-21
1.83923e-20
4.77197e-21
4.62306e-21
3.46554e-21
1.12169e-21
1.07652e-21
1.46791e-20
1.31686e-21
2.08945e-21
1.34637e-20
4.11594e-21
2.65292e-21
3.57801e-21
3.03462e-20
2.01302e-21
5.17394e-21
6.98469e-22
7.04968e-21
1.46247e-20
2.56301e-21
3.9914e-21
6.98697e-21
8.76687e-22
1.05708e-20
6.3223e-21
1.66549e-21
3.8261e-21
4.42695e-21
4.56021e-21
2.36404e-21
2.44866e-21
3.17449e-21
3.86836e-22
9.68717e-21
7.34486e-21
7.87932e-21
4.13674e-21
1.30012e-20
1.76313e-21
2.4839e-21
7.03701e-21
3.82964e-21
1.58673e-20
2.73715e-21
1.07336e-20
1.60217e-21
4.33787e-22
5.54446e-21
8.56438e-22
5.92061e-21
6.32755e-21
5.6546e-21
1.28843e-20
1.18826e-22
2.30755e-21
1.47086e-20
1.03225e-20
6.14359e-22
3.0581e-21
7.60461e-21
2.44156e-21
9.19883e-21
1.07425e-20
1.30637e-21
1.35388e-20
1.85134e-20
7.35792e-21
7.95111e-21
1.0927e-20
1.22604e-20
1.30546e-21
5.13709e-21
4.06231e-21
1.56815e-21
6.45975e-21
1.7036e-21
4.84737e-21
6.04471e-21
1.53108e-21
1.80141e-21
2.10514e-21
5.73154e-21
9.32927e-21
1.61866e-21
2.02585e-21
1.06063e-22
1.73072e-20
1.83373e-21
1.21783e-23
2.98292e-21
1.67776e-21
1.00148e-21
1.83444e-20
2.63876e-20
2.93777e-20
4.07289e-22
2.17257e-21
1.8767e-20
1.08832e-21
8.56482e-21
9.69965e-22
1.97138e-20
2.55791e-20
3.56416e-21
8.35177e-21
2.54117e-21
1.41588e-21
5.45535e-21
1.09282e-20
8.81368e-22
1.48366e-20
1.05186e-20
6.66916e-21
7.07751e-22
2.59296e-21
7.8805e-21
1.1682e-20
7.34629e-22
1.44731e-21
1.68012e-20
1.21671e-21
2.78821e-21
4.78058e-21
7.45428e-21
4.5202e-21
2.74019e-21
5.59537e-21
5.59215e-22
1.20682e-20
2.58314e-20
9.98982e-22
2.89031e-21
1.11328e-20
4.87681e-21
1.85187e-20
3.53698e-20
1.52355e-22
8.4364e-22
1.11812e-21
8.36867e-21
1.78472e-20
8.81207e-21
2.08627e-21
1.15221e-20
1.39888e-20
1.82564e-22
6.33803e-21
5.07182e-21
1.53629e-20
2.79569e-21
1.13541e-21
5.4056e-21
1.35226e-20
5.05601e-21
1.38102e-21
6.47502e-22
9.13355e-21
2.52842e-21
7.17213e-23
1.58039e-20
9.53885e-21
3.85488e-21
2.33162e-21
1.37129e-20
1.06998e-21
1.08824e-20
2.7682e-21
8.41628e-21
3.67162e-22
6.65623e-22
7.6339e-21
1.07427e-21
2.50736e-21
3.476e-22
1.1074e-20
9.877e-21
3.08889e-21
1.06118e-20
1.33941e-21
7.11595e-22
4.29284e-21
8.23294e-21
1.46005e-21
1.25708e-20
1.23429e-20
5.21226e-21
3.60299e-20
1.00614e-20
4.49713e-21
8.51572e-22
2.15527e-21
5.54209e-21
3.38514e-21
2.09257e-21
2.64841e-21
1.83799e-21
1.98055e-20
2.24476e-21
5.94124e-21
1.82058e-21
3.53507e-21
3.87243e-21
1.15135e-21
5.44086e-23
8.38832e-22
1.15058e-20
4.7321e-21
9.55523e-21
3.54839e-21
3.20571e-22
6.29774e-21
4.51233e-21
1.14898e-20
1.12691e-20
7.76543e-21
1.04804e-20
3.98689e-21
4.44706e-21
8.83407e-21
6.00492e-21
8.57831e-22
3.24881e-21
2.9728e-21
8.64454e-21
1.17708e-21
8.126e-21
1.07949e-20
4.64747e-21
7.2213e-22
1.90273e-21
1.00172e-20
8.46172e-21
4.12875e-21
1.60254e-20
2.65362e-20
5.83371e-21
6.14134e-21
9.81525e-21
1.75218e-20
3.52069e-21
1.31403e-20
1.14245e-21
2.43225e-21
7.01843e-22
1.651e-21
3.65493e-22
3.6627e-21
4.97583e-21
1.96794e-21
1.31026e-22
4.86884e-21
5.6468e-21
3.63747e-21
2.86773e-21
5.30768e-21
2.53236e-21
9.76939e-21
1.60219e-21
1.06123e-21
2.0768e-22
2.09807e-20
4.16725e-21
3.15933e-21
5.13017e-21
2.63969e-21
2.2804e-21
5.72897e-22
2.59145e-20
1.13935e-20
1.38011e-21
5.52708e-21
1.19077e-20
5.77687e-22
2.12486e-20
2.72538e-22
6.99235e-22
6.66688e-22
2.16385e-22
4.8124e-22
6.54789e-21
7.58902e-21
1.85955e-20
2.86334e-21
2.49743e-22
9.26049e-21
1.7905e-20
2.44016e-21
2.2211e-21
2.87128e-21
1.22134e-21
7.27035e-21
1.03591e-21
5.57102e-21
1.13124e-20
1.2571e-20
7.65464e-22
1.07026e-20
9.65964e-21
5.47808e-21
3.28959e-21
5.50348e-21
7.08492e-21
1.59693e-20
3.80545e-21
1.35395e-20
3.17439e-21
5.32094e-21
2.05443e-21
1.75738e-21
5.54859e-21
9.59347e-21
3.01413e-21
6.02379e-22
3.0386e-21
3.38216e-21
2.78114e-21
1.46197e-20
5.80193e-21
1.0831e-20
6.51613e-22
3.33663e-21
6.20311e-22
5.66355e-21
6.71009e-21
3.13343e-20
1.12652e-21
1.76583e-21
6.07286e-22
5.41355e-21
6.76616e-22
5.22743e-21
1.49679e-20
4.09232e-21
1.79826e-21
7.29352e-21
4.93234e-21
1.12558e-22
4.64292e-21
5.2017e-21
2.26629e-21
5.88789e-22
2.60737e-21
1.73325e-20
1.35721e-20
1.78786e-21
1.14342e-20
1.35648e-21
1.74813e-20
4.32416e-21
4.476e-21
5.80118e-21
6.07487e-23
2.09224e-21
3.07435e-21
4.53515e-22
3.8364e-21
1.19135e-20
5.7919e-21
7.97893e-21
8.00317e-21
1.34066e-20
8.98631e-22
4.89306e-21
7.65721e-21
9.70837e-21
9.18365e-22
2.11888e-20
1.67081e-20
2.83311e-22
9.44206e-21
9.65037e-21
3.86785e-21
6.73328e-21
1.52599e-21
2.00973e-21
8.64776e-21
2.00462e-21
5.74171e-21
5.33511e-22
3.13141e-21
1.89151e-21
7.27844e-21
1.71029e-20
1.42526e-21
5.29191e-21
4.63236e-22
1.0269e-21
4.0739e-21
1.2718e-22
3.29077e-21
1.92721e-20
7.13341e-21
1.10584e-20
8.96173e-21
9.91898e-21
9.64502e-21
5.23834e-21
1.45795e-20
2.33322e-21
2.39487e-21
1.20675e-20
6.94694e-21
7.63679e-21
6.40866e-21
1.4444e-20
2.55566e-21
9.29926e-21
4.41323e-21
6.51717e-22
3.20723e-21
9.354e-21
3.97377e-21
2.14977e-21
3.51303e-22
5.29322e-21
8.553e-22
1.54135e-20
3.01329e-20
3.34787e-20
6.85126e-21
2.54384e-21
9.27549e-21
5.67161e-21
2.92982e-21
1.59826e-21
1.78251e-21
7.70241e-21
4.5937e-21
6.67311e-21
4.02501e-24
2.95611e-21
7.72827e-21
1.32321e-20
6.37542e-21
1.47116e-20
8.2181e-21
1.34337e-21
9.01872e-21
7.9626e-21
3.23287e-21
7.24406e-21
6.09684e-21
3.44246e-21
1.01862e-20
1.05867e-20
1.79993e-20
2.4488e-21
4.74114e-21
5.51836e-22
4.22579e-21
8.19949e-21
2.80307e-22
2.4383e-21
4.58965e-21
5.54246e-21
2.14035e-22
1.39268e-20
2.52607e-20
2.70083e-21
8.47653e-22
1.16202e-20
4.55261e-21
6.11985e-21
8.66841e-21
1.56992e-20
1.2823e-20
4.4476e-21
7.59528e-21
7.44194e-21
1.12934e-20
1.96814e-21
2.49533e-21
7.45465e-21
6.1469e-22
2.50281e-21
1.06607e-20
7.58973e-22
1.96342e-21
2.20628e-21
7.29607e-21
6.38812e-21
2.92006e-21
1.84471e-21
9.26614e-21
6.9497e-21
5.79646e-21
4.69408e-21
2.07711e-20
3.6048e-21
3.24366e-21
5.54241e-21
1.90813e-21
8.1437e-21
4.29355e-21
3.25888e-20
8.37828e-21
1.05303e-20
4.28951e-21
8.9084e-21
1.88652e-21
3.69321e-22
1.79794e-21
1.34764e-20
2.89098e-20
1.01945e-21
2.57565e-20
3.38136e-22
2.56797e-20
4.03526e-21
3.27627e-21
1.00738e-21
6.80861e-21
4.63122e-22
1.66312e-20
5.58486e-22
1.9666e-22
7.59793e-21
1.36426e-20
6.3859e-21
2.14501e-20
7.5701e-21
8.12816e-21
8.53066e-21
1.78795e-21
1.68289e-20
3.48268e-21
1.22567e-20
1.44989e-20
1.59345e-21
7.33066e-21
1.31782e-20
4.79905e-21
1.81536e-21
9.20498e-21
5.86283e-22
3.37375e-20
7.14058e-21
4.28314e-21
1.20485e-20
1.55798e-20
1.67792e-20
2.57195e-21
3.66493e-21
1.65234e-21
6.89611e-21
5.72015e-21
1.97924e-21
6.41539e-22
9.14643e-22
2.02392e-21
3.16481e-21
1.15374e-22
2.54275e-21
2.20189e-21
4.81981e-21
1.3048e-21
1.79721e-20
3.05982e-21
4.05211e-21
8.39362e-22
6.87044e-22
9.84849e-22
1.05831e-21
2.75676e-22
4.69752e-23
2.90683e-21
3.4015e-21
1.30741e-21
3.64021e-21
2.98782e-21
4.62237e-21
2.02724e-20
7.74026e-23
9.19763e-21
1.71817e-21
1.88378e-21
8.37477e-21
7.63213e-22
3.63551e-21
8.82352e-22
1.35872e-21
5.75986e-21
1.08395e-21
1.0018e-21
7.4194e-21
1.20878e-21
1.20451e-20
4.20951e-22
2.46545e-21
1.42756e-20
1.63919e-20
3.37352e-21
4.26702e-21
5.44368e-21
8.35802e-21
1.02969e-20
6.32594e-21
1.79602e-21
2.5507e-21
7.81043e-21
5.93743e-23
2.91875e-23
4.32493e-21
3.23069e-21
1.312e-21
3.61476e-21
7.48994e-21
1.34852e-21
1.84549e-22
1.88849e-22
1.68148e-20
2.70813e-21
1.23671e-20
7.11369e-21
1.06104e-20
2.27624e-20
9.09766e-21
2.5417e-20
1.51997e-20
3.25857e-22
3.23281e-21
1.06742e-21
1.21961e-20
2.22848e-22
5.22647e-21
6.75046e-21
1.73716e-20
3.95932e-22
2.84629e-21
1.81616e-21
4.37924e-21
8.89326e-22
3.40316e-21
1.08146e-20
3.28223e-22
5.55712e-21
3.86668e-22
5.18757e-21
1.20093e-20
1.73881e-21
4.31527e-21
1.47991e-20
2.07533e-21
5.50169e-21
3.30548e-21
6.80565e-21
3.24149e-20
1.33942e-21
2.7326e-21
4.00161e-21
3.62182e-22
1.21268e-20
6.93025e-21
1.53677e-20
6.92801e-21
1.92353e-20
4.97605e-21
2.18445e-21
3.32399e-22
1.85964e-23
3.46524e-21
1.59372e-21
6.54362e-21
4.17447e-21
1.55127e-20
3.52495e-21
2.06953e-21
1.3072e-20
1.57573e-20
3.72286e-21
2.26835e-21
3.32963e-22
1.14943e-21
4.73091e-21
3.36514e-21
7.18034e-21
3.31076e-21
5.25384e-21
6.73887e-21
1.31678e-20
7.98126e-21
1.47601e-21
3.49461e-21
1.40715e-20
1.50238e-21
5.56344e-21
2.35811e-21
1.24423e-21
8.05758e-21
1.93532e-21
1.78425e-20
1.07072e-21
7.65812e-21
1.91136e-21
3.11461e-21
8.43251e-21
1.87989e-20
5.32193e-21
3.31028e-21
2.71092e-21
3.52475e-21
1.28842e-22
1.88284e-20
1.14482e-20
2.85196e-21
7.24928e-21
3.25566e-20
3.00883e-21
1.22124e-20
4.50534e-22
5.32225e-21
1.37597e-20
1.11082e-20
2.46644e-20
2.63346e-20
2.52435e-21
1.22405e-21
7.32828e-22
2.32611e-22
6.33319e-22
3.79218e-21
2.99113e-21
3.12744e-21
3.09291e-21
1.67973e-21
9.27991e-21
3.93178e-21
1.91636e-21
1.18456e-20
6.26836e-21
2.78214e-21
2.12593e-22
6.0787e-21
1.24241e-22
1.54404e-20
7.63748e-21
6.63868e-21
4.58066e-21
1.53835e-20
2.95621e-21
3.19856e-22
3.31931e-21
3.01167e-21
1.17359e-20
2.19013e-20
9.27815e-21
4.30722e-22
1.66567e-20
7.64272e-23
4.50714e-22
5.03072e-24
3.44279e-21
2.6539e-21
1.04662e-20
8.09793e-22
1.71237e-21
1.96906e-21
1.9218e-21
2.42526e-21
1.67488e-21
5.43204e-21
9.88667e-22
2.31205e-21
5.20666e-21
6.27794e-22
1.08851e-20
3.53166e-21
2.56836e-21
1.01431e-20
2.87424e-21
1.511e-21
2.26621e-21
1.2047e-21
7.90827e-21
1.13905e-20
1.76649e-20
2.25376e-21
8.56964e-21
1.19206e-20
2.27976e-21
1.71399e-20
5.64429e-21
9.01202e-22
2.95386e-21
3.71539e-21
5.08902e-21
8.38712e-21
7.98407e-21
5.06955e-21
7.2147e-22
6.00418e-21
1.99008e-21
1.18594e-20
7.41152e-21
5.83368e-21
2.33217e-20
2.2595e-21
3.45152e-20
2.94136e-21
6.66852e-22
2.14968e-21
2.57078e-22
3.56575e-21
2.41617e-21
1.18522e-20
5.43581e-21
2.10672e-21
5.09275e-21
2.84408e-20
3.21557e-21
4.68221e-21
1.0991e-20
1.68623e-21
1.56549e-21
8.43569e-21
1.97775e-20
1.26879e-20
4.18634e-21
2.11387e-20
2.45526e-20
3.69839e-21
9.51821e-21
2.83517e-20
1.22491e-20
7.14971e-22
6.25206e-22
2.14794e-21
4.87098e-21
6.00853e-21
3.56295e-22
8.09244e-21
1.97134e-21
7.51124e-22
5.25593e-21
2.79354e-21
1.44473e-21
1.39387e-21
8.59506e-21
3.84998e-21
1.02913e-20
1.55975e-20
8.00478e-21
6.26346e-21
1.18757e-20
5.77974e-21
1.36149e-21
3.87509e-21
1.1172e-20
9.24173e-21
2.05924e-20
9.95533e-21
8.8439e-21
7.96797e-22
4.81717e-21
3.99642e-21
1.32445e-20
1.28929e-21
1.78026e-20
4.08242e-21
3.13232e-21
9.39298e-21
8.11873e-21
1.01787e-20
4.40392e-21
3.45556e-21
1.24038e-21
2.39003e-22
3.43677e-21
4.3525e-22
1.8636e-20
5.07097e-21
1.22949e-21
5.90095e-21
7.76732e-21
1.31676e-20
6.8679e-22
1.38632e-20
2.53722e-21
1.72798e-20
3.49816e-22
1.00418e-21
2.45736e-22
1.108e-20
5.60745e-22
9.22191e-22
2.05645e-20
1.65806e-21
5.56616e-21
2.50977e-20
5.76729e-21
3.89383e-22
4.69859e-21
2.87475e-21
5.77239e-21
6.57101e-21
7.35107e-21
2.39215e-21
1.42568e-20
4.36397e-21
3.37206e-23
4.33086e-20
2.29362e-20
1.01867e-20
4.68683e-21
1.83946e-21
2.1818e-21
5.8213e-21
3.78616e-21
5.96963e-21
1.56385e-20
2.25642e-20
6.69148e-21
1.16839e-20
7.39197e-22
1.35248e-20
1.85554e-20
8.51516e-21
1.12979e-20
1.39455e-21
5.10684e-21
9.97378e-21
5.62623e-22
2.08523e-21
8.38913e-21
2.34598e-20
3.80871e-21
1.25641e-21
2.74378e-20
1.9747e-20
4.69071e-21
6.63188e-22
1.50543e-20
2.55774e-20
8.90745e-21
4.0186e-21
2.02699e-21
7.47187e-21
5.0175e-21
2.27987e-21
3.78954e-21
1.17405e-20
5.82508e-21
1.2411e-20
4.76985e-21
2.16416e-21
1.89363e-20
1.50658e-20
6.485e-21
1.09458e-20
4.14497e-21
1.35525e-20
3.90663e-22
2.67572e-20
8.65436e-21
5.73722e-22
4.02547e-21
6.2682e-21
5.35134e-21
6.73246e-21
1.59839e-21
1.29472e-21
3.01244e-20
1.45434e-20
2.79619e-22
5.41131e-21
5.94547e-21
7.72373e-21
6.27607e-22
3.33128e-21
1.31118e-20
6.82992e-21
1.4398e-21
5.32447e-21
3.20753e-21
1.643e-20
3.69467e-21
1.4996e-22
1.75491e-21
1.28274e-20
2.28305e-21
3.57835e-21
5.10699e-22
1.2542e-20
1.89835e-20
8.76369e-21
3.64051e-21
6.79992e-22
1.25629e-20
1.03274e-20
8.878e-22
6.64049e-21
1.00098e-21
4.73276e-20
3.68596e-22
2.82205e-21
1.06037e-20
6.136e-21
2.73445e-21
3.81281e-21
6.82652e-21
7.60279e-22
4.23812e-20
1.06709e-20
7.61648e-21
1.56584e-21
7.59649e-21
3.47494e-21
4.70877e-21
9.72029e-21
2.49111e-21
3.09387e-21
2.31457e-21
3.11929e-21
8.63686e-22
3.08611e-21
6.33098e-22
2.12043e-21
1.63994e-20
1.56951e-21
1.21975e-21
1.3058e-21
3.17231e-21
3.36667e-21
1.43158e-20
5.72305e-21
4.22364e-21
4.18628e-21
4.77648e-22
6.68023e-21
4.61374e-21
4.2168e-23
1.00674e-20
1.97227e-22
1.23482e-20
1.88811e-20
1.50455e-20
3.50049e-21
2.15119e-20
2.1573e-20
4.44452e-21
1.82343e-22
6.70274e-21
1.91997e-20
1.31085e-21
6.20096e-21
5.15528e-21
8.01484e-22
2.65414e-21
6.20134e-21
6.45227e-22
1.33817e-21
1.70933e-20
4.30121e-22
7.30881e-21
1.37159e-20
1.01972e-20
9.11598e-21
1.25969e-20
1.59565e-20
8.56741e-21
5.56449e-21
5.07677e-21
3.96616e-21
8.25189e-21
3.06418e-20
1.42802e-20
5.15352e-21
5.21605e-22
8.07545e-21
8.43144e-21
4.71955e-22
4.41637e-21
2.31106e-21
5.2308e-22
8.05643e-23
2.64675e-21
6.33171e-21
2.39615e-21
4.17722e-21
2.02062e-20
1.33782e-21
2.43467e-21
7.82002e-21
5.07209e-21
1.0025e-20
1.19197e-20
1.56302e-20
2.67266e-21
1.05261e-21
5.49086e-21
8.43367e-21
1.2552e-20
1.22098e-20
4.85114e-21
2.85831e-21
1.11718e-20
3.70293e-21
8.88145e-21
1.41355e-21
1.16914e-20
1.22443e-20
6.72912e-21
3.85134e-22
8.84381e-21
3.3227e-21
2.02794e-21
5.27613e-22
1.62945e-20
2.38084e-21
1.14834e-20
2.8149e-21
7.08327e-21
1.91438e-21
3.56563e-21
2.05926e-21
3.28497e-22
4.01006e-21
2.30398e-21
2.95052e-21
8.28752e-21
3.75244e-21
1.36704e-20
1.53384e-20
8.84322e-21
3.00871e-21
2.01252e-21
2.32076e-21
1.24289e-21
1.48977e-22
4.42826e-21
1.14315e-21
5.56334e-21
7.61265e-21
2.90411e-21
3.95165e-22
2.60635e-21
1.10526e-20
2.14853e-21
5.64517e-21
4.42252e-21
3.1416e-22
7.27896e-21
9.55034e-22
1.12867e-20
9.18942e-21
4.90205e-21
1.48698e-20
2.84047e-21
1.07444e-20
7.13498e-21
2.83937e-22
5.60727e-21
5.7508e-21
2.75929e-21
1.12047e-21
1.26487e-22
8.93018e-22
8.33073e-21
2.60043e-21
4.55938e-21
2.82987e-20
1.041e-20
4.07019e-21
6.90886e-21
9.49313e-21
7.55648e-21
8.88641e-21
4.00746e-21
1.03157e-20
4.21705e-21
1.0224e-20
4.53719e-21
1.52057e-20
8.1314e-21
5.67659e-21
5.70067e-21
8.83593e-21
2.32256e-21
3.27727e-21
1.48415e-20
5.00936e-21
2.64229e-21
3.06419e-20
1.247e-21
5.94598e-21
2.30437e-20
1.32606e-21
1.30497e-20
1.02493e-20
5.94277e-22
9.5368e-21
1.19776e-20
2.2749e-21
3.9537e-21
7.21847e-23
1.52646e-20
3.79129e-21
1.64541e-21
1.40721e-20
2.27532e-21
9.38962e-21
2.08915e-20
1.32907e-20
2.43656e-22
4.57826e-22
2.99759e-21
6.44899e-21
1.27469e-20
8.14467e-21
4.21213e-20
1.5499e-20
3.58008e-20
5.04621e-21
2.354e-20
1.33851e-20
1.08702e-20
1.58585e-20
1.52799e-20
2.1918e-20
1.74664e-21
4.63783e-21
6.79131e-21
5.49707e-22
4.40501e-21
2.80346e-21
7.16401e-21
7.58918e-21
6.88888e-23
2.61264e-22
3.43644e-21
9.0918e-21
1.17235e-21
1.58689e-22
7.344e-21
3.17349e-21
5.2749e-22
4.00086e-22
2.06057e-21
2.7889e-22
3.95561e-21
4.72315e-21
1.13177e-20
1.09036e-20
6.83632e-21
2.09859e-22
4.57871e-21
4.95372e-22
7.38606e-22
2.76958e-21
6.16381e-21
4.97987e-22
5.75318e-22
4.9177e-21
2.29082e-20
5.091e-21
7.20675e-21
1.81458e-21
3.94201e-21
9.05394e-21
5.85623e-21
6.57188e-21
1.04898e-21
6.47019e-21
1.56222e-21
4.26511e-21
6.49672e-21
3.82401e-21
1.27896e-20
5.88355e-22
9.8919e-21
1.43652e-20
8.79492e-22
1.52995e-21
7.05841e-21
3.24005e-21
1.0154e-20
1.38793e-20
1.1641e-20
2.67171e-20
2.64869e-21
3.09543e-21
1.0234e-21
1.79922e-21
6.9453e-21
4.73428e-21
6.64527e-22
2.95796e-21
1.0571e-21
3.99455e-21
1.2556e-20
5.5868e-21
1.61684e-21
8.72309e-21
2.7521e-20
8.73318e-21
1.41042e-21
2.33357e-21
9.9145e-21
6.39488e-21
6.1945e-21
1.33017e-21
2.60521e-21
1.94124e-20
6.10034e-21
2.997e-21
1.52845e-21
7.93871e-21
3.24719e-21
1.67804e-21
1.09129e-21
3.46105e-21
2.2055e-20
2.83493e-21
6.23539e-22
4.85636e-21
1.51776e-21
1.12477e-20
2.05866e-21
9.79066e-21
1.64758e-21
5.10041e-21
6.68657e-21
2.5867e-21
1.57408e-21
1.182e-20
2.37503e-22
3.45138e-20
1.84571e-20
3.15799e-21
4.18673e-21
1.3964e-21
1.87996e-21
7.38601e-21
1.59663e-20
5.3995e-21
7.74572e-21
3.64956e-21
4.05465e-21
3.13357e-21
1.98797e-21
8.40713e-21
2.43725e-21
1.45406e-20
1.54324e-22
1.80255e-21
1.19291e-22
5.43997e-21
1.51349e-21
1.01847e-20
4.43361e-21
8.92584e-21
2.33127e-21
4.08667e-22
1.24631e-20
8.40804e-21
2.30855e-22
1.46865e-20
5.13776e-21
2.50394e-20
4.37938e-22
6.49445e-21
2.72833e-21
1.6537e-21
3.64717e-21
3.08446e-21
1.74564e-20
5.90369e-21
8.65808e-21
1.23566e-20
2.26936e-21
3.59255e-21
2.48279e-21
7.89285e-21
8.06288e-22
3.32142e-21
9.51681e-22
1.64424e-21
5.15132e-21
2.9434e-21
9.38416e-21
1.47767e-20
8.33932e-21
1.81835e-20
3.56269e-21
8.18426e-21
3.62814e-21
9.81601e-21
3.45319e-21
3.25217e-21
4.89533e-21
9.67643e-21
9.42895e-23
2.14912e-21
5.84635e-21
1.34576e-20
3.29555e-21
3.84717e-21
1.11532e-20
8.68151e-21
2.24814e-22
6.04456e-21
1.16395e-20
1.74513e-20
2.19234e-21
1.39899e-20
2.47323e-22
1.75721e-21
1.15478e-22
3.06367e-21
4.62545e-21
6.36048e-21
3.78783e-21
3.73993e-22
1.59847e-20
2.20862e-21
1.12359e-20
5.31853e-21
1.7304e-20
6.94674e-22
2.03989e-20
4.15664e-21
1.19636e-20
5.78646e-21
5.50123e-21
1.02165e-20
5.02943e-21
1.7603e-22
1.91315e-21
2.2163e-21
4.65108e-21
3.24212e-21
3.19587e-21
3.32512e-21
6.74039e-21
1.07466e-20
4.45212e-21