/*--------------------------------*- C++ -*----------------------------------*\
  =========                 |
  \\      /  F ield         | OpenFOAM: The Open Source CFD Toolbox
   \\    /   O peration     | Website:  https://openfoam.org
    \\  /    A nd           | Version:  7
     \\/     M anipulation  |
\*---------------------------------------------------------------------------*/
FoamFile
{
    version     2.0;
    format      ascii;
    class       volScalarField;
    location    "0.005";
    object      iDof;
}
// * * * * * * * * * * * * * * * * * * * * * * * * * * * * * * * * * * * * * //

dimensions      [0 -3 0 0 0 0 0];

internalField   nonuniform List<scalar> 
250
(
1.746e+20
1.749e+20
1.689e+20
1.788e+20
1.659e+20
1.785e+20
1.743e+20
1.656e+20
1.716e+20
1.704e+20
1.794e+20
1.824e+20
1.719e+20
1.686e+20
1.668e+20
1.644e+20
1.677e+20
1.638e+20
1.632e+20
1.803e+20
1.794e+20
1.665e+20
1.68e+20
1.782e+20
1.758e+20
1.737e+20
1.677e+20
1.629e+20
1.767e+20
1.692e+20
1.647e+20
1.74e+20
1.674e+20
1.764e+20
1.824e+20
1.647e+20
1.722e+20
1.704e+20
1.614e+20
1.716e+20
1.716e+20
1.668e+20
1.665e+20
1.704e+20
1.764e+20
1.794e+20
1.644e+20
1.665e+20
1.683e+20
1.623e+20
1.677e+20
1.665e+20
1.803e+20
1.617e+20
1.761e+20
1.665e+20
1.674e+20
1.758e+20
1.752e+20
1.803e+20
1.764e+20
1.749e+20
1.692e+20
1.722e+20
1.68e+20
1.692e+20
1.728e+20
1.635e+20
1.797e+20
1.788e+20
1.782e+20
1.722e+20
1.629e+20
1.689e+20
1.731e+20
1.677e+20
1.653e+20
1.707e+20
1.611e+20
1.761e+20
1.812e+20
1.767e+20
1.65e+20
1.683e+20
1.722e+20
1.83e+20
1.71e+20
1.548e+20
1.704e+20
1.584e+20
1.65e+20
1.695e+20
1.788e+20
1.683e+20
1.809e+20
1.893e+20
1.689e+20
1.758e+20
1.74e+20
1.785e+20
1.761e+20
1.695e+20
1.674e+20
1.737e+20
1.764e+20
1.722e+20
1.749e+20
1.665e+20
1.749e+20
1.704e+20
1.767e+20
1.623e+20
1.878e+20
1.827e+20
1.77e+20
1.77e+20
1.767e+20
1.77e+20
1.854e+20
1.608e+20
1.992e+20
1.752e+20
1.896e+20
1.839e+20
1.851e+20
1.848e+20
1.893e+20
1.962e+20
1.671e+20
1.788e+20
1.881e+20
1.935e+20
1.86e+20
1.821e+20
1.809e+20
2.055e+20
1.785e+20
1.95e+20
1.911e+20
1.968e+20
1.932e+20
2.004e+20
2.031e+20
1.926e+20
2.088e+20
2.043e+20
2.181e+20
2.061e+20
2.151e+20
2.241e+20
2.073e+20
2.112e+20
2.151e+20
2.028e+20
2.088e+20
2.214e+20
2.022e+20
2.316e+20
2.418e+20
2.163e+20
2.262e+20
2.265e+20
2.307e+20
2.226e+20
2.355e+20
2.253e+20
2.46e+20
2.334e+20
2.424e+20
2.403e+20
2.406e+20
2.415e+20
2.475e+20
2.469e+20
2.55e+20
2.394e+20
2.49e+20
2.679e+20
2.712e+20
2.523e+20
2.61e+20
2.589e+20
2.649e+20
2.715e+20
2.808e+20
2.709e+20
2.643e+20
2.886e+20
2.853e+20
2.925e+20
3.006e+20
3.165e+20
2.979e+20
2.988e+20
2.805e+20
2.922e+20
3.039e+20
3.048e+20
3.132e+20
2.928e+20
2.919e+20
2.904e+20
3.243e+20
3.309e+20
3.135e+20
3.045e+20
3.192e+20
3.192e+20
3.285e+20
3.198e+20
3.048e+20
3.282e+20
3.111e+20
3.303e+20
3.387e+20
3.36e+20
3.375e+20
3.39e+20
3.354e+20
3.294e+20
3.36e+20
3.555e+20
3.312e+20
3.579e+20
3.525e+20
3.561e+20
3.438e+20
3.612e+20
3.48e+20
3.516e+20
3.609e+20
3.447e+20
3.549e+20
3.624e+20
3.57e+20
3.372e+20
3.591e+20
3.594e+20
3.534e+20
3.36e+20
3.594e+20
3.564e+20
3.72e+20
3.555e+20
3.555e+20
3.462e+20
3.669e+20
3.564e+20
3.753e+20
3.54e+20
)
;

boundaryField
{
    sides
    {
        type            symmetry;
    }
    empty
    {
        type            empty;
    }
    procBoundary1to0
    {
        type            processor;
        value           uniform 1.674e+20;
    }
    procBoundary1to2
    {
        type            processor;
        value           uniform 3.651e+20;
    }
}


// ************************************************************************* //
