/*--------------------------------*- C++ -*----------------------------------*\
  =========                 |
  \\      /  F ield         | OpenFOAM: The Open Source CFD Toolbox
   \\    /   O peration     | Website:  https://openfoam.org
    \\  /    A nd           | Version:  7
     \\/     M anipulation  |
\*---------------------------------------------------------------------------*/
FoamFile
{
    version     2.0;
    format      ascii;
    class       scalarField;
    location    "0.004/lagrangian/dsmc";
    object      Ei;
}
// * * * * * * * * * * * * * * * * * * * * * * * * * * * * * * * * * * * * * //


5439
(
7.709011826e-21
2.660466404e-21
1.101048514e-20
6.198614011e-21
6.798056466e-22
5.102399405e-21
4.937584224e-21
7.913585118e-21
4.572546762e-21
1.151902052e-20
1.20535073e-20
3.04982943e-22
9.584284343e-21
6.828949979e-21
6.407625175e-21
3.644690827e-21
3.830144751e-21
8.710020291e-21
2.2259803e-21
3.749881622e-21
5.088324802e-21
6.239446264e-21
5.775176535e-22
7.903066739e-21
7.684534875e-22
1.5377906e-21
1.103460022e-20
3.054618708e-21
1.428391001e-20
5.446217231e-21
8.914201898e-22
4.23288793e-21
2.962343373e-21
6.145570145e-21
7.185434995e-22
6.856919842e-21
1.807806456e-21
1.737474859e-21
9.518456752e-21
3.602598258e-21
1.388959186e-21
1.187376333e-20
5.158101052e-23
1.761752321e-21
2.42252548e-22
6.978784863e-22
6.935987548e-22
9.239080907e-21
6.566876365e-23
4.687638821e-21
9.834050526e-21
1.80361559e-20
3.152501489e-21
3.668778018e-21
4.23268415e-21
2.020100568e-21
9.646766673e-21
6.195969645e-21
7.424482693e-21
4.732413663e-23
4.41646156e-21
2.365330582e-21
8.418431324e-21
5.779472635e-21
4.870623851e-22
2.791147857e-21
1.744527786e-21
4.676765482e-21
8.42342487e-22
1.234011028e-20
4.197115763e-21
5.754194661e-21
5.634383499e-22
3.666240836e-22
2.726161655e-20
8.714873298e-21
1.305528662e-20
8.913308032e-21
1.201524049e-21
4.952387521e-21
1.339090099e-20
9.769937093e-21
1.235884855e-21
2.550308758e-21
7.245848921e-21
2.698258667e-21
7.15192924e-22
6.358748092e-21
3.346691833e-21
7.724475652e-22
6.49057126e-22
8.728845956e-22
6.506730676e-21
5.814023281e-21
1.865592908e-20
3.63262013e-22
1.340492592e-20
1.664131762e-21
1.02262567e-21
4.247830845e-22
1.029660115e-20
2.485557685e-21
7.24034548e-21
6.000983995e-21
4.549219562e-21
1.463130372e-20
3.947541111e-21
3.07458666e-21
4.895668873e-23
1.179480593e-21
1.101729736e-22
2.148918947e-21
2.401372814e-21
1.119899948e-20
8.635392129e-21
5.802424911e-21
1.744932864e-22
4.28334242e-22
9.270698007e-22
1.715453196e-21
8.371078793e-21
4.960127127e-21
1.020560333e-21
5.244720307e-21
1.400023238e-21
8.252197646e-22
1.990286829e-22
1.518915633e-21
2.881706401e-21
8.070216847e-21
8.586507803e-21
4.920546869e-21
4.962621799e-21
2.97697501e-20
2.918028632e-21
2.750051486e-21
4.057532429e-22
1.108918562e-21
9.378988724e-22
9.282222835e-22
1.598135704e-21
3.229487552e-20
1.198098858e-22
2.933460049e-21
8.212001326e-21
5.225804005e-22
4.95060818e-21
1.936677521e-21
8.312029142e-21
5.163308837e-21
3.180022812e-21
9.874133987e-21
4.701819225e-21
8.231507987e-21
7.314256175e-21
9.088023947e-21
2.483003268e-21
8.115095656e-22
7.978751494e-22
9.407777578e-21
2.960556204e-21
4.413665681e-23
8.784846408e-21
2.955796241e-21
2.220127309e-21
1.983091838e-23
6.687944196e-22
3.476900589e-20
7.69831977e-21
2.639657831e-21
3.844071749e-21
1.391291816e-22
3.282155862e-21
8.187843228e-22
3.178695794e-21
2.936966745e-20
3.450638345e-21
2.277470164e-21
3.789051157e-21
4.133311318e-21
3.299676815e-21
6.096227961e-21
3.00015077e-21
1.739128448e-21
2.382199744e-22
2.507584123e-21
3.840684756e-22
1.874189352e-20
3.087851707e-21
6.161765227e-21
5.183098282e-21
2.972409023e-21
1.648299207e-20
7.223292464e-21
6.619146123e-21
6.685105448e-22
5.855249401e-21
1.332618299e-20
1.182437126e-20
1.474956529e-20
9.896747654e-22
9.665929397e-21
4.358442895e-21
6.0025255e-22
4.159967343e-22
2.477471865e-21
5.624339493e-21
2.167882808e-21
1.013027086e-20
4.783245797e-21
1.802178069e-21
5.454134405e-21
7.803468462e-21
3.537457625e-22
1.845870923e-21
4.517305023e-21
2.247689805e-21
4.181108776e-21
1.184326738e-21
1.535407601e-20
2.3637529e-21
3.395019456e-21
3.28160908e-21
5.853399389e-21
2.346456277e-21
3.749034217e-22
2.146922462e-21
8.205767403e-21
1.928036526e-21
2.89532822e-21
7.47198222e-22
1.548515958e-21
4.123503055e-21
9.224235499e-22
9.163854353e-22
4.796475836e-23
7.911348277e-21
2.106239036e-21
3.830858233e-21
8.079296417e-21
1.825381232e-20
1.13359579e-21
1.463973806e-20
7.693473905e-21
5.99941662e-21
5.370589504e-21
2.552576949e-21
3.749291444e-21
9.164446756e-21
2.068254894e-21
2.151466404e-20
1.399379427e-21
1.00385493e-21
3.442035504e-21
8.153576126e-21
2.435669675e-21
7.929974014e-22
2.59582431e-21
1.04350005e-21
1.694851619e-21
1.893625647e-21
9.231378547e-21
7.852689693e-22
7.020769869e-22
2.14202683e-21
3.439424785e-21
3.186200114e-21
4.87268917e-23
6.236450494e-21
2.067899741e-21
5.311331563e-21
1.768828583e-21
5.266840568e-21
6.790494749e-21
8.85666635e-22
2.157835976e-21
1.295689885e-21
4.98448266e-21
6.508660179e-21
3.046645525e-21
8.247885212e-21
6.888175592e-21
7.771318165e-21
6.744119284e-22
5.776334598e-21
4.360601793e-21
2.415930551e-22
1.998082352e-21
5.309542591e-21
8.262889566e-22
7.355360577e-21
4.598530236e-21
3.738455973e-21
1.802826201e-21
3.184528344e-21
4.874943844e-21
9.483722066e-21
5.698187002e-21
4.734758999e-21
3.005298834e-21
1.831580799e-21
6.418406498e-22
5.769929342e-21
9.920617152e-21
4.78799813e-21
5.621283274e-21
8.215009696e-21
4.381331138e-22
1.40372914e-21
2.005506115e-21
1.861197236e-21
1.189219818e-22
8.759266427e-21
1.542030058e-21
3.905442363e-22
2.596611426e-20
5.594217948e-22
4.575132745e-21
4.152584633e-21
8.305485711e-22
4.494593471e-22
5.154305717e-21
4.090543399e-22
1.133926023e-21
9.872310921e-21
8.231495835e-21
8.130189628e-22
1.383163075e-20
2.894764578e-21
9.167151898e-21
1.134930739e-21
1.847111313e-22
8.016817515e-22
3.055972574e-21
1.93481125e-21
8.173467352e-22
8.579894529e-22
4.069966284e-21
3.32732778e-21
1.760480408e-21
1.931537901e-21
2.886974323e-21
1.844060158e-22
1.408309015e-21
9.397754533e-23
3.194215552e-21
1.960197288e-21
7.177058077e-21
1.687909318e-21
6.341784432e-22
6.072359116e-21
9.263634412e-21
2.906541112e-21
6.798446492e-21
7.057248932e-21
1.081099519e-22
5.240518124e-21
5.159368926e-21
3.127268676e-21
9.819239411e-21
8.140307421e-21
1.268077969e-20
1.256314917e-21
8.794110845e-21
7.746655504e-21
5.938266063e-21
3.103019957e-21
1.603763025e-21
2.958790541e-21
1.451363408e-21
1.291642193e-20
5.893658857e-21
3.941116003e-21
9.06767447e-22
1.524138919e-21
4.026213392e-21
6.179139629e-22
3.338893177e-21
1.66423014e-21
4.604902541e-21
8.053023775e-21
1.62614266e-21
9.909914044e-21
1.756966299e-20
5.1863664e-22
3.232844952e-21
2.910339952e-21
6.827033075e-21
8.522420012e-22
4.740700359e-21
5.833153393e-21
4.884979657e-21
8.90857414e-23
1.832074185e-20
2.434435372e-22
8.853655253e-21
5.254402451e-21
1.564748548e-21
7.458777919e-21
6.055158523e-22
5.857715795e-21
3.693069243e-21
3.189268007e-21
7.479064507e-21
4.329136486e-21
6.397682658e-21
5.738007623e-21
5.568505808e-21
1.167491621e-20
2.19651659e-20
9.566957812e-21
5.813190759e-21
6.540346919e-21
6.166758866e-22
1.142129038e-21
2.800647365e-21
5.371507059e-22
1.206452455e-22
3.422048876e-22
1.671119677e-21
4.974828355e-21
8.208638872e-21
3.846126011e-21
4.735920235e-21
2.739882376e-21
4.715798327e-23
2.547300166e-21
5.284730771e-21
1.949994306e-20
2.418879754e-20
7.629603417e-21
2.157646607e-22
3.651625629e-21
1.122502929e-20
5.183414033e-22
1.186568531e-21
9.138490967e-22
3.155507285e-21
3.81785235e-21
5.090945306e-21
4.342886536e-21
1.449946915e-20
2.983893114e-21
1.935875699e-20
1.809636844e-20
1.536905366e-21
9.597635685e-22
1.85513962e-21
3.505450902e-21
1.653390262e-21
4.957649632e-21
1.200929212e-20
3.219463261e-21
7.190214375e-21
1.571444981e-21
6.345004561e-21
2.720515429e-21
5.118273696e-22
3.024254373e-21
1.110329834e-21
2.459610276e-21
5.294415848e-21
8.356662922e-21
6.444779632e-22
1.980885377e-20
5.560285077e-21
4.583247401e-21
2.201114763e-21
6.224273006e-23
1.985558339e-20
4.671870221e-21
1.511732028e-21
9.111668681e-21
2.698910286e-21
8.626656585e-22
2.484144328e-21
1.345664785e-20
1.180553706e-22
3.785535275e-21
2.116334907e-21
6.77905199e-22
6.507671408e-21
6.574770633e-21
4.529664871e-21
6.559313696e-21
4.996726277e-21
3.605771692e-21
3.23056175e-22
4.379331503e-21
4.58770025e-21
2.604446439e-22
1.141772326e-21
6.645497793e-21
8.039646072e-22
1.822692991e-20
2.428493674e-21
2.011387045e-21
3.157674251e-21
2.385125445e-21
1.127569401e-20
3.191388301e-21
2.142835754e-22
1.459813764e-20
3.102287896e-21
1.294660393e-21
6.229401977e-21
4.154124014e-21
2.013561629e-21
2.17014157e-21
7.11005235e-21
7.829666268e-21
5.934185473e-21
5.263323547e-21
5.664716438e-21
1.67599215e-22
4.012829851e-21
1.114919606e-20
1.537224266e-20
1.254330862e-20
3.42308761e-21
9.063502719e-22
5.749110316e-21
3.795528013e-21
7.180588158e-21
6.890839313e-21
5.090933295e-22
2.577563219e-21
1.765990345e-21
3.138345751e-21
1.818086089e-21
4.435399741e-21
9.585848952e-22
7.687071599e-21
2.377693444e-20
7.709415061e-22
2.406353922e-21
4.923832116e-22
2.731415668e-21
5.600575757e-21
2.088634826e-21
4.7096127e-21
1.148540957e-21
3.417893597e-22
2.937367056e-20
2.050978249e-21
6.243166926e-22
2.95726819e-21
4.016833045e-21
5.570701903e-21
2.15351163e-21
4.722203863e-21
1.756714802e-21
3.52176586e-21
6.736866669e-23
2.059112721e-20
7.421487047e-21
1.123105009e-21
4.473370916e-21
2.116326373e-21
3.280400521e-21
5.219166492e-21
1.142610415e-21
8.575242062e-22
9.113360495e-22
3.625294529e-21
7.988948848e-22
3.083899585e-21
1.519521535e-20
1.130132657e-22
1.98120351e-21
1.759450831e-21
8.606636121e-22
9.028925408e-22
2.799702486e-21
9.379697147e-21
9.292315899e-22
2.979891152e-22
2.567441739e-21
1.875893182e-21
1.15483475e-20
2.254321297e-21
3.283470237e-21
1.575304956e-20
2.161686168e-20
7.553387028e-21
5.251794518e-21
2.706846655e-21
9.475553593e-21
2.908115214e-21
1.493165306e-21
1.794854051e-21
7.574836042e-22
2.99433262e-22
4.280930469e-22
6.246557924e-21
7.035564642e-22
2.50777231e-20
1.633978885e-21
5.515105653e-21
5.843404964e-22
1.459572319e-21
1.050827601e-21
1.480512079e-21
9.262630568e-22
4.880328406e-21
1.973657223e-21
1.016847331e-20
1.671679955e-21
6.462383082e-22
2.353828706e-22
2.350138749e-22
1.380326208e-20
6.107494214e-21
6.099621395e-22
1.7180364e-20
2.74800135e-22
1.273958826e-26
7.582922112e-22
1.25556614e-21
4.804158924e-21
2.31317422e-21
3.057402731e-21
1.450910627e-21
2.630145338e-21
2.068314157e-21
9.747016008e-21
4.573855837e-23
5.476870811e-21
3.281485448e-21
1.001386992e-21
3.554792995e-21
8.766952393e-21
2.732535574e-20
7.915500396e-21
3.150475672e-22
2.046649566e-21
2.363518874e-21
1.548799151e-20
2.171989392e-21
6.807118703e-21
1.071859692e-20
1.165441104e-21
3.235842266e-21
5.713037853e-21
2.111431986e-22
3.994546152e-21
2.741135282e-21
3.087403008e-20
9.797889639e-21
8.682646766e-21
2.304123585e-20
5.409783496e-21
1.64956183e-22
3.317524527e-21
9.479930087e-21
8.133961013e-21
8.574864419e-21
4.106621487e-21
2.243065429e-21
3.958422755e-21
4.425229322e-20
3.990894159e-21
4.211793005e-21
3.205495754e-21
3.114087441e-21
1.886595098e-21
4.469849315e-21
1.235018424e-20
7.920258268e-21
3.946134337e-21
1.654710199e-22
7.246625827e-22
7.998838067e-21
1.090028893e-20
6.071766467e-21
5.12004989e-21
3.03798003e-21
1.986656851e-21
1.435916681e-21
4.678746286e-21
3.537230802e-21
1.119741716e-21
4.128994252e-21
2.755977258e-21
4.669671647e-21
1.171139746e-21
2.61691731e-21
4.02022683e-21
1.185438533e-20
9.020290908e-21
3.426546002e-21
6.857697821e-21
2.347032821e-21
4.381683025e-21
8.999672013e-21
8.570212209e-21
6.629728359e-21
1.925164716e-22
7.988169574e-21
4.969870262e-21
8.992665566e-21
3.838011042e-21
3.134384481e-21
9.006946634e-21
1.181963469e-20
2.130112909e-21
2.75650367e-22
1.178320989e-20
3.750800802e-22
1.066962168e-20
2.000119424e-21
1.402793292e-20
6.540949045e-21
1.679492542e-21
1.019977074e-21
6.988118697e-22
4.633095383e-21
4.3146177e-21
4.675614852e-21
2.385139221e-21
1.011468603e-20
1.474382794e-21
8.35307443e-21
1.908674065e-21
3.276428382e-21
1.230679257e-20
6.201910389e-21
1.705124952e-21
1.68932938e-20
1.54156149e-21
1.027647761e-21
2.504487564e-21
1.873191447e-21
2.725667993e-21
1.629405301e-21
1.417074809e-20
3.45552581e-21
1.759177712e-21
6.388802938e-21
1.313019091e-21
2.716916583e-20
3.659829697e-21
6.009927195e-21
3.944909477e-21
4.891572496e-21
5.721496095e-21
1.313861286e-20
8.648345629e-21
6.00093459e-21
1.394273359e-21
1.401510398e-22
1.054616085e-21
1.300532131e-20
2.768989038e-21
1.774465568e-20
5.588553433e-21
3.123253003e-21
4.380407403e-21
2.890633735e-22
7.448911953e-21
1.594840731e-20
9.85417071e-21
1.660491397e-21
5.015751849e-21
1.348139798e-20
2.957736883e-21
7.956453308e-21
1.078959287e-20
7.098808949e-23
3.747224053e-21
1.602077707e-20
9.807439282e-22
4.822875529e-21
5.055570666e-22
2.2027011e-20
1.212609969e-20
9.687170833e-21
8.175498087e-21
1.822812556e-23
7.802128929e-21
7.877591264e-22
7.797232587e-22
1.074609686e-21
5.441361777e-21
9.298617592e-21
1.674044303e-21
2.306047546e-21
7.985242668e-22
1.127991221e-20
4.832137246e-21
1.879209732e-21
3.133598395e-21
2.947134877e-21
6.822457217e-21
1.23623097e-21
1.648544702e-21
8.286301963e-21
3.049625165e-21
1.885363173e-21
5.565578216e-21
1.135937185e-20
4.558435931e-21
6.612034946e-21
2.828689814e-21
1.905977842e-21
7.728883578e-22
3.171994204e-21
9.540659073e-21
4.153272365e-21
9.815787799e-21
7.094704547e-22
1.781760864e-21
5.490553445e-21
7.577302775e-21
5.631037768e-21
3.662991141e-20
1.01194599e-21
1.708166885e-21
1.35291408e-21
2.024971502e-23
9.762319582e-22
1.33564622e-20
1.482972658e-21
1.068211206e-20
1.135747397e-20
5.206426928e-22
5.366483225e-22
1.388874438e-20
1.296943841e-21
1.065293956e-21
5.723911961e-21
1.067611549e-21
5.82556081e-21
6.777202077e-21
1.778143386e-20
1.299836215e-21
2.52319069e-21
1.142141317e-20
7.57353569e-21
9.8850742e-21
6.362766266e-22
1.30269843e-21
8.420169788e-21
4.805661592e-21
1.007989053e-20
7.324025158e-22
1.561114479e-20
5.887908741e-22
5.087454057e-21
9.527591345e-21
1.387590638e-22
6.951020779e-21
2.175749367e-21
1.315388202e-21
4.326719475e-21
1.102536973e-20
1.144065117e-20
2.486708516e-22
5.127760568e-21
1.200354612e-20
2.425632667e-23
1.085955412e-20
4.060723016e-21
4.157184703e-21
1.313489029e-20
7.063595769e-21
2.20160675e-21
6.589721066e-21
4.674910977e-21
3.425936107e-21
8.355558016e-22
4.62783837e-22
3.988346794e-21
3.003635372e-21
2.336673071e-21
3.934933996e-21
9.163689174e-23
4.125316124e-21
1.637139406e-21
8.557549315e-21
2.6862726e-21
7.675901436e-21
6.152402026e-22
5.082061731e-21
3.845946598e-21
1.489480143e-20
3.587515982e-21
5.721176615e-21
2.089300578e-21
1.786175228e-20
7.746464163e-21
7.645434363e-21
8.380733441e-21
2.631354091e-20
7.816860766e-22
8.258107254e-21
4.094650985e-21
3.486346108e-21
1.608890007e-21
6.390591267e-21
2.169242825e-21
2.120461359e-21
1.089491764e-21
3.151640634e-21
1.260859942e-20
9.084570288e-22
2.456006609e-21
1.185777674e-21
8.374905128e-22
2.070939461e-21
1.912492045e-21
1.229092591e-21
3.127459197e-22
1.613468801e-20
7.198278781e-22
4.410334252e-21
2.074281641e-21
2.163209341e-21
3.361504209e-21
1.656114515e-21
1.279829052e-21
7.07718928e-21
3.728794011e-21
4.3475317e-21
2.254624858e-21
1.525640643e-21
1.201526624e-20
4.277970075e-21
7.585021042e-21
9.548492479e-21
4.310744763e-21
8.790993115e-21
2.726235577e-21
3.616848218e-22
4.038002187e-22
1.573627576e-20
7.078391919e-21
4.579482656e-21
1.681455196e-21
1.008334482e-20
1.181710532e-20
4.51088231e-21
3.981992788e-22
3.834508576e-21
1.222131298e-20
1.020110728e-22
2.017637752e-21
1.013654156e-20
1.704247946e-21
8.004573682e-21
1.040990094e-20
8.349430838e-21
1.335336654e-21
1.485242516e-23
6.138527893e-21
4.197438932e-21
1.01672284e-20
6.848958172e-21
9.955210468e-21
1.467699767e-22
9.167072718e-21
1.70811976e-20
4.263586932e-22
1.773646255e-21
1.135062882e-20
1.652969782e-21
9.319776838e-21
4.301310048e-21
1.023710166e-23
1.563517294e-21
1.147960337e-20
2.065204798e-22
7.354462825e-21
3.662378311e-22
1.013889445e-21
6.623021208e-21
8.070601026e-21
5.004372292e-22
1.33213255e-20
1.219865426e-20
2.605659784e-21
4.257738027e-21
2.006064843e-21
6.510829811e-22
4.485511883e-22
1.128398596e-20
1.690380603e-22
4.039984343e-22
1.54014475e-21
1.770133657e-20
1.548359403e-21
1.390634818e-20
1.508378931e-20
2.677503388e-21
4.202836029e-22
8.356488156e-22
4.355886442e-21
7.627921738e-21
1.137539283e-20
7.875099288e-22
2.941691271e-21
3.440534247e-21
1.014944214e-20
1.089892155e-21
6.795721699e-21
4.02591785e-21
5.049164312e-21
1.094879119e-20
4.252376425e-21
7.411133472e-21
1.600163808e-20
4.701625983e-21
5.859758976e-22
4.087610473e-22
1.371448786e-21
2.532098537e-21
1.3525434e-21
1.062763831e-20
1.20856679e-20
8.037624e-21
1.379488108e-21
2.505367554e-21
7.461289482e-21
1.386109949e-20
1.849220749e-21
1.399412708e-21
3.657950174e-22
1.696456799e-21
2.642092733e-21
7.325832331e-21
5.426004938e-21
2.732504184e-22
2.202795578e-21
2.660955632e-21
2.613632063e-21
1.543645945e-20
8.539740905e-21
1.585717262e-20
1.767441884e-20
1.52328395e-20
3.12823476e-21
2.052582372e-21
9.340404406e-21
4.286305349e-21
1.477219995e-23
3.1401967e-21
2.623812834e-21
2.693788254e-21
1.035333055e-21
5.619063223e-22
4.874664241e-21
5.554856507e-21
2.945966479e-22
2.102403011e-20
3.625969521e-21
2.036827421e-21
4.904096686e-21
2.067779154e-22
1.390687321e-21
3.428982288e-21
5.474310221e-21
1.274357794e-22
5.515926195e-22
8.356243032e-21
4.921642806e-21
8.655174503e-21
2.732519194e-20
4.039326684e-21
5.362280539e-22
4.086098348e-21
7.779878893e-22
5.892156902e-21
5.656480999e-22
3.372138968e-22
4.0556733e-21
5.607231658e-21
1.227002862e-21
4.760316576e-21
1.402323787e-22
5.968623933e-21
2.003560814e-21
8.009247709e-22
7.883890854e-22
3.48410429e-22
6.425970876e-21
8.445902287e-22
3.964879722e-22
6.525806351e-21
1.696483927e-21
6.475797668e-22
9.362097059e-22
7.310431147e-21
1.672200765e-20
2.976026436e-21
7.848926105e-21
3.787060411e-21
1.934518478e-21
4.647155924e-21
1.852647143e-21
5.959540484e-21
3.704827535e-21
1.85702872e-21
5.734587245e-21
1.404714256e-21
4.568845929e-21
1.902840071e-21
1.472629012e-20
5.794078555e-21
3.477227676e-21
4.278203521e-21
2.945916513e-21
1.580492847e-21
6.544108933e-21
1.424170532e-21
8.914420746e-21
4.959630997e-21
4.902975313e-22
4.477782649e-21
2.969367817e-21
4.443294277e-21
2.750748566e-21
1.753158521e-21
1.603312567e-22
7.35461206e-21
8.604045831e-21
5.665199591e-22
3.625873646e-21
2.358646528e-21
1.824895225e-21
1.897266689e-20
2.532504594e-21
1.81462245e-22
9.301732393e-21
1.899146601e-21
9.586701921e-22
1.453249287e-21
1.019148044e-21
1.50155488e-21
5.374121217e-22
4.618469622e-21
1.006708774e-21
5.350366913e-21
1.283769593e-22
1.133970156e-20
1.163866454e-21
5.34929165e-21
3.199149144e-22
5.371926495e-21
1.858057364e-21
4.575961058e-22
9.6193306e-21
3.710508224e-21
3.390290282e-21
2.873418796e-21
1.175571359e-21
1.764084395e-20
1.390653184e-20
1.668122941e-21
3.027817981e-21
2.054907317e-21
1.411967631e-21
2.385537404e-21
4.704245514e-22
1.711834239e-21
2.649062436e-21
1.331705815e-21
1.779726583e-21
7.105429057e-21
1.144799221e-20
1.972404992e-20
6.073778623e-21
4.466835204e-21
8.189440859e-21
6.106742049e-21
5.194237202e-21
1.52151055e-21
2.876386849e-21
7.851815742e-21
2.147587742e-21
5.996838877e-22
1.024746504e-21
9.444644127e-22
8.634021303e-21
1.221264676e-21
1.054019628e-20
1.132346502e-20
8.155572621e-23
1.92785422e-21
3.258200627e-21
8.378947493e-21
4.946936598e-21
1.482403285e-21
5.944915237e-21
8.086497382e-21
2.338402782e-21
4.60020307e-21
1.302828539e-21
1.359984089e-20
1.074759365e-20
5.570303695e-21
7.882340156e-21
1.061582611e-20
3.130767887e-22
2.697083649e-21
7.63177491e-21
6.419230251e-21
4.206582337e-21
1.317442601e-20
7.575623657e-21
8.75353967e-21
8.173816153e-21
4.475245709e-22
5.854868655e-21
1.311217032e-20
2.184865455e-20
9.167439348e-23
3.895461941e-21
7.126896822e-23
2.33248147e-21
1.476095171e-21
5.893801797e-22
6.820682862e-21
3.467405203e-22
9.43011796e-21
5.784931795e-21
2.212694078e-22
2.094156619e-20
7.295889407e-21
3.713392235e-21
1.546886588e-21
1.103048851e-21
1.519625912e-21
6.829144139e-22
1.856770856e-21
1.713328844e-21
8.390469656e-21
4.553293238e-21
2.6070653e-21
1.374653836e-21
1.973416345e-20
5.859237939e-22
6.582905175e-21
9.938379354e-22
1.534761925e-20
3.161737802e-23
3.992819831e-21
1.047582866e-20
5.734643047e-21
3.026618208e-21
1.431504707e-21
1.01245326e-22
6.766896711e-21
1.320283047e-20
2.994687825e-22
1.408594765e-20
7.024731311e-21
2.608557124e-22
8.217825342e-21
1.865684746e-21
9.246794436e-22
2.510062274e-22
1.326505497e-20
4.230155222e-21
7.568942745e-21
5.153805767e-21
2.955070488e-22
7.385003232e-21
4.844568311e-22
1.004994587e-21
1.154351024e-21
6.409299912e-21
3.744928922e-21
1.220444862e-21
6.952712836e-21
1.591218835e-21
1.623814613e-21
1.950606819e-21
2.955628294e-21
7.631563577e-22
3.607834136e-21
4.034523182e-21
5.088048826e-22
2.246843031e-21
8.261780444e-21
3.291226099e-22
1.578966271e-21
1.156425302e-21
4.106678221e-22
7.811352927e-21
1.618204363e-20
3.138350105e-21
2.541038298e-21
5.66006778e-22
3.377109657e-21
1.540267954e-21
4.508797211e-21
5.189748381e-21
3.377162812e-21
2.494440263e-21
3.165850676e-22
1.419140846e-21
1.063305793e-21
1.089840038e-21
2.045725642e-21
2.467856916e-20
6.03424081e-21
5.698971049e-21
5.417326849e-21
3.772583753e-21
1.570808202e-21
1.276449539e-21
6.087723961e-21
8.414459905e-21
1.861933277e-20
5.454089504e-21
6.207413004e-21
6.359377487e-21
9.76373127e-21
2.15160047e-21
6.894051857e-21
5.189820687e-21
1.206803057e-21
1.396004565e-20
1.246607021e-20
4.354953487e-21
6.629031732e-21
5.819639627e-22
8.636081418e-22
1.007129657e-20
6.796840658e-21
4.843769057e-21
2.960255392e-21
2.671751686e-21
1.727909604e-21
3.935363277e-21
1.278973965e-22
5.973443634e-21
1.017899381e-21
1.99603345e-20
1.736048594e-20
1.118331719e-22
1.520444498e-21
6.482154864e-21
9.173931185e-22
1.853068857e-21
9.2629499e-21
1.015317666e-20
2.349412273e-22
5.507519748e-22
6.652122663e-23
1.165374057e-22
4.468748036e-21
1.175054509e-21
1.393945487e-21
5.219861732e-21
4.149297957e-21
7.201304797e-22
3.218854614e-21
1.932019618e-20
1.268022145e-20
7.865643117e-21
4.363898178e-21
1.404147795e-20
2.404456494e-21
3.472717915e-21
4.643429026e-22
2.21328546e-21
4.334375384e-21
5.03093093e-21
1.658391874e-21
2.40570605e-22
4.894092763e-21
2.673862029e-21
7.936582572e-22
3.60885616e-21
2.549241512e-22
2.637693049e-21
3.38278442e-21
1.51552176e-20
2.500458767e-21
3.534674683e-22
5.10665019e-22
9.842703771e-21
1.487278293e-21
1.013002861e-21
8.003647557e-21
9.579244337e-23
6.36966054e-21
2.039287126e-21
4.25034038e-22
3.134281579e-21
5.764194689e-22
8.493823113e-21
6.187722595e-21
8.27557109e-21
4.443546806e-21
1.868736781e-22
1.496215958e-21
8.225443492e-22
3.469187235e-21
2.843183617e-21
7.655511916e-21
6.056557359e-21
6.634004854e-22
1.897115798e-21
9.73861131e-22
9.389601348e-21
2.222331925e-21
1.896461691e-21
1.387272505e-21
8.329780132e-21
7.531117674e-21
5.041079592e-21
1.742641935e-21
3.895593385e-21
9.000577313e-22
1.977282249e-20
3.162461738e-20
1.813861792e-21
9.821831284e-21
3.605579398e-21
5.603720622e-21
1.0430897e-20
1.038470135e-21
1.019990576e-21
1.253314117e-21
5.743376315e-22
4.559917527e-21
5.42646253e-21
4.316379882e-21
3.436803992e-21
7.213877853e-21
2.103976156e-20
2.673956056e-21
1.322490183e-20
1.555471177e-21
6.99002128e-21
3.714785068e-21
4.760318472e-21
7.947126857e-21
1.012129283e-21
5.947352418e-21
1.676352918e-20
3.136834144e-21
9.802385051e-23
3.740439013e-21
8.021832065e-21
4.305944091e-21
7.17829485e-21
4.674722592e-21
9.938612158e-21
1.713752502e-20
2.211008738e-21
1.020065911e-20
1.650475453e-21
1.657813612e-21
2.738565081e-21
1.493724791e-21
2.522939697e-21
7.512813046e-22
3.518781292e-21
1.741863607e-21
2.130421351e-21
3.313025619e-21
1.861166528e-21
8.324952605e-21
4.877221743e-21
3.839636842e-21
4.440874126e-21
2.845747812e-21
1.765879086e-21
5.669397448e-21
2.638254894e-21
8.07071892e-21
5.692364953e-21
1.271276439e-20
2.488538338e-21
7.659693786e-23
2.72349115e-20
3.416281238e-21
2.664301906e-21
7.489055836e-21
6.425964647e-22
2.978684695e-21
1.529653929e-21
6.100662645e-21
1.109800635e-21
1.538218357e-21
1.497001123e-22
9.352476283e-21
2.836770441e-21
4.017856727e-21
9.885720199e-21
3.531392361e-22
1.663359039e-21
8.365443933e-21
4.145859757e-22
1.151409062e-20
3.834674685e-21
1.486018431e-20
1.306923464e-21
1.213614633e-21
7.723857746e-22
5.400898652e-21
2.51748671e-22
1.630338744e-21
9.60303223e-22
1.323992093e-20
2.5594058e-21
3.306256731e-21
9.278547357e-21
4.128049302e-21
2.917187653e-21
4.423112568e-22
6.133647057e-21
2.214897503e-21
8.04672753e-22
8.592050351e-21
2.554954775e-21
7.40496068e-21
4.922346187e-22
5.764304806e-21
9.077245396e-21
3.361097265e-21
3.020881058e-21
5.320179481e-21
1.060637634e-20
1.59663702e-20
1.386567346e-20
1.460994081e-20
1.786296432e-21
2.447509084e-21
8.90632661e-21
8.607740728e-22
1.166235796e-21
1.503233411e-21
3.428862424e-21
1.451798187e-20
2.515651007e-21
2.919561339e-21
8.074440085e-22
7.574719444e-22
5.857043226e-21
2.218655136e-21
4.138407148e-21
1.026994332e-20
9.453637895e-21
1.053428181e-21
1.949523747e-21
4.389159256e-21
1.322523251e-20
6.393795261e-21
4.720253151e-21
6.357695325e-21
1.381871635e-20
7.635626954e-21
2.606618861e-20
3.843688377e-21
8.441353623e-21
3.26600991e-21
3.147868584e-21
1.092175405e-20
1.350632941e-20
6.505651692e-22
8.423086635e-22
1.913933586e-21
5.101907544e-22
8.954869359e-21
2.486532289e-21
2.585051074e-20
1.28312419e-21
3.561048909e-21
1.65396563e-20
3.188626544e-21
2.469748575e-21
4.903155163e-21
5.873975919e-21
9.871498193e-22
9.479371418e-22
4.43500648e-21
9.636653205e-21
5.381498925e-21
1.080766607e-21
3.107148717e-21
4.60037626e-21
9.883688648e-22
4.412425322e-21
2.807082789e-21
6.025754973e-21
3.237212816e-23
1.257556437e-21
6.026893976e-21
3.489944356e-21
2.041246598e-21
6.583154948e-22
1.923626577e-22
1.859621613e-21
7.7836324e-21
6.297730446e-21
2.35369456e-21
3.191182665e-22
4.475545553e-20
1.018576083e-20
1.636449688e-21
5.389375337e-21
1.836625787e-21
1.047840452e-22
2.070389365e-21
3.044360723e-22
2.462001231e-22
3.934688186e-21
8.381873307e-22
3.808689183e-22
3.677880141e-21
3.655240578e-21
1.389503319e-20
1.505626468e-21
4.507378854e-21
3.247215407e-21
2.908913815e-21
7.922798559e-21
1.022645774e-20
1.38908073e-21
6.414624254e-22
2.890427908e-21
3.322303298e-22
2.956457325e-21
1.01547977e-21
3.14242723e-21
7.032997187e-21
7.353919493e-22
2.323548468e-21
5.354453304e-21
1.436120249e-21
7.644887341e-22
3.196603952e-21
7.230735616e-21
1.448361476e-20
8.239761714e-21
3.251423698e-21
3.069667865e-22
7.348237125e-21
4.87695466e-22
7.071590472e-23
4.092595964e-21
3.90528128e-21
2.403430211e-21
5.564813415e-21
3.005116291e-21
4.001739724e-21
1.860402114e-21
9.37617238e-21
2.488442098e-21
1.166963334e-22
8.339573701e-21
1.106503793e-20
5.923306321e-22
4.015813848e-21
4.856078354e-21
5.47453686e-21
5.226591325e-21
1.050480003e-20
6.05807878e-21
1.143201256e-21
5.298598931e-21
2.602918168e-21
6.311363144e-22
2.321976365e-21
5.420815198e-21
3.14728214e-21
2.658820541e-21
1.174762618e-21
3.031151559e-21
6.327347995e-21
1.738066693e-21
3.088092098e-21
8.474094179e-21
1.348761446e-20
1.899089101e-21
4.249593442e-21
4.109944668e-22
7.04410489e-21
1.018102995e-20
4.870203777e-22
3.178969815e-22
3.405438694e-21
3.227204039e-21
3.112547736e-21
1.298742814e-20
9.239724927e-21
1.982546337e-21
1.287657951e-21
4.937937271e-21
1.553375424e-22
3.490002318e-21
4.703100093e-22
7.146437548e-22
4.243838119e-22
1.940191423e-21
1.735071604e-22
1.146646885e-21
6.033546253e-21
3.445346377e-23
3.605222336e-21
8.974984213e-21
2.948562184e-22
3.015304597e-21
1.81832792e-22
2.274965593e-21
3.967978923e-21
6.861150171e-22
4.779899053e-21
7.170308243e-21
2.053649147e-21
4.528040071e-21
2.822829529e-21
1.589950515e-21
1.692796303e-21
4.99504282e-21
6.094750203e-22
2.009831664e-22
5.58473856e-21
7.077393772e-22
7.883745655e-21
2.418984907e-21
1.17437259e-20
4.792801193e-21
3.075782599e-21
4.257390869e-21
4.517078246e-21
1.923646155e-21
1.567806872e-21
2.43452381e-21
2.851645773e-21
1.819540338e-20
1.57239405e-21
2.975373541e-21
6.115701437e-21
3.262854857e-21
8.760780424e-22
3.688335174e-21
7.569703677e-22
2.718454348e-21
5.886985386e-21
8.588083304e-21
3.155764814e-21
2.245029659e-21
2.336480876e-21
8.770196376e-21
3.663052119e-21
1.258333752e-20
5.100849992e-23
3.694210986e-21
1.73952065e-21
1.650735876e-21
5.641183305e-21
3.678796975e-21
1.706427127e-21
7.923909342e-21
1.426741584e-20
1.196941537e-20
3.479152898e-21
2.418118907e-20
5.161000828e-21
9.805424556e-21
1.157419224e-21
5.008817151e-21
6.158229086e-21
5.882561344e-21
3.369198902e-21
6.040848438e-22
1.026082678e-20
1.815357923e-21
1.939683821e-21
6.94008651e-22
4.497233738e-21
4.966112552e-21
3.884322534e-21
2.22829924e-21
4.844156001e-21
8.98366402e-21
4.647568636e-21
1.213722637e-20
4.033199933e-21
7.031453219e-21
5.359125303e-21
2.131215168e-21
1.391629583e-21
1.247426832e-20
5.932317925e-21
5.225034471e-21
5.473845353e-21
2.320477411e-21
7.9635781e-21
5.676513719e-22
1.288994996e-21
3.737586895e-23
1.121171417e-21
9.639311656e-22
2.48083877e-21
3.491814934e-21
1.030500403e-21
1.703986413e-21
2.557413621e-21
5.565246351e-23
1.508491777e-22
5.343234284e-21
9.702175164e-21
1.692693982e-20
7.589978549e-21
7.228929949e-21
1.141431465e-20
1.321805619e-20
5.151070009e-21
7.425543205e-21
1.149679527e-21
3.879194775e-21
1.920389382e-21
5.767311719e-21
2.035572831e-20
2.68189459e-20
1.779682418e-20
1.79187902e-21
4.263891516e-22
3.409223346e-21
1.145512807e-21
1.190399252e-20
1.221808585e-21
1.440663123e-21
4.326645642e-21
1.157766742e-20
2.061278585e-21
6.26073444e-21
5.062338211e-22
3.585186821e-21
1.503341826e-22
1.08320008e-21
1.143975346e-20
2.72201305e-22
3.189224497e-20
3.371985226e-21
6.768947837e-22
1.475466837e-21
2.922386365e-21
4.015825524e-21
5.232987823e-22
5.201523742e-21
1.873583012e-20
4.122001957e-21