/*--------------------------------*- C++ -*----------------------------------*\
  =========                 |
  \\      /  F ield         | OpenFOAM: The Open Source CFD Toolbox
   \\    /   O peration     | Website:  https://openfoam.org
    \\  /    A nd           | Version:  7
     \\/     M anipulation  |
\*---------------------------------------------------------------------------*/
FoamFile
{
    version     2.0;
    format      ascii;
    class       Cloud<dsmcParcel>;
    location    "0.004/lagrangian/dsmc";
    object      positions;
}
// * * * * * * * * * * * * * * * * * * * * * * * * * * * * * * * * * * * * * //

5439
(
(0.08318396385 0.08921571211 0.369192306 0.4584080181) 403 767 2
(0.2633561618 0.3683219191 0.0577003315 0.3106215876) 436 833 1
(0.3470148071 0.3221686344 0.3264925965 0.004323962105) 235 471 2
(0.4510644133 0.2532331725 0.02123462086 0.2744677933) 450 861 2
(0.1192043783 0.1120507029 0.3283471079 0.4403978108) 503 962 2
(0.204439967 0.2169744587 0.3977800165 0.1808055578) 600 679 1
(0.4349032031 0.2825483985 0.02711656287 0.2554318356) 217 434 2
(0.06604636637 0.4345397967 0.03243702011 0.4669768168) 547 1046 2
(0.2096607564 0.3951696218 0.2502334931 0.1449361286) 247 455 1
(0.5574166263 0.03347097611 0.1878207107 0.2212916868) 156 312 1
(0.1089160032 0.4455419984 0.145458993 0.3000830054) 417 795 1
(0.5819263171 0.2090368415 0.1302014239 0.07883541757) 351 700 2
(0.7079773307 0.1114311655 0.03458016918 0.1460113347) 50 61 2
(0.7268178085 0.07321094186 0.1365910958 0.0633801539) 142 285 2
(0.1142459473 0.1240090283 0.318867998 0.4428770263) 26 52 1
(0.3625750121 0.1222142301 0.318712494 0.1964982639) 560 519 1
(0.04066866302 0.3492264206 0.1304392479 0.4796656685) 180 360 1
(0.4737585935 0.2631207033 0.1724869333 0.09063376991) 404 808 2
(0.4721292982 0.05568731908 0.2639353509 0.2082480318) 174 349 2
(0.2332852917 0.1475317861 0.3833573542 0.2358255681) 578 1124 2
(0.04210436308 0.0973094908 0.3816383277 0.4789478185) 507 970 2
(0.1444708002 0.4277645999 0.1442194025 0.2835451975) 132 262 2
(0.3946487749 0.007725446609 0.3026756126 0.294950166) 192 382 1
(0.03090124622 0.1229026967 0.4845493769 0.3616466802) 67 132 1
(0.02089012981 0.2244000499 0.2651548852 0.4895549351) 262 524 1
(0.03622715456 0.07224742206 0.4096390007 0.4818864227) 309 618 1
(0.1192206144 0.003668813117 0.4367208797 0.4403896928) 163 287 2
(0.4878095934 0.2560952033 0.2460368072 0.01005839613) 518 1009 2
(0.1943594925 0.4028202538 0.00733188977 0.395488364) 203 404 2
(0.2292475483 0.2775763622 0.3853762258 0.1077998637) 538 1048 2
(0.1657070406 0.0311096489 0.3860368308 0.4171464797) 223 407 2
(0.6293177031 0.1456800253 0.1853411485 0.0396611232) 119 238 2
(0.153713584 0.423143208 0.2893223005 0.1338209075) 304 608 2
(0.6567977522 0.1675750685 0.004026055407 0.1716011239) 373 746 1
(0.1875647161 0.406217642 0.3783499163 0.02786772566) 377 715 1
(0.2397506666 0.3338408323 0.3801246667 0.04628383438) 257 512 1
(0.08843186327 0.4557840684 0.004447380138 0.4513366882) 368 734 2
(0.6579848069 0.07538849499 0.1710075965 0.09561910154) 546 1063 2
(0.3489309996 0.2744959949 0.3255345002 0.05103850527) 477 929 1
(0.345504748 0.327247626 0.2660919137 0.06115571225) 211 383 1
(0.5282806467 0.09621673179 0.1396429449 0.2358596766) 495 965 1
(0.3786807025 0.2902895339 0.3106596488 0.02037011491) 134 266 1
(0.6123294077 0.1938352962 0.1317455509 0.06208974529) 268 497 1
(0.3141727597 0.3429136202 0.01026070653 0.3326529136) 582 1112 1
(0.4190969079 0.126954718 0.1634968281 0.2904515461) 303 567 2
(0.6117716465 0.1941141768 0.03942038422 0.1546937926) 597 1157 2
(0.02213630007 0.433454847 0.05547700299 0.48893185) 191 343 2
(0.1013141104 0.01394426539 0.4493429448 0.4353986794) 474 923 1
(0.2820077126 0.3589961437 0.1554220857 0.203574058) 88 177 1
(0.2337127168 0.3831436416 0.1207129122 0.2624307294) 614 1189 2
(0.2442002254 0.3778998873 0.1351028684 0.2427970189) 357 675 1
(0.2992846961 0.3503576519 0.1092408165 0.2411168354) 252 504 2
(0.5482446555 0.2258776722 0.1426587338 0.08321893843) 188 337 1
(0.6140041774 0.1519298854 0.1929979113 0.04106802592) 257 512 1
(0.5747082386 0.2126458807 0.164328485 0.04831739566) 275 550 2
(0.2739877339 0.1266766659 0.2363294671 0.363006133) 192 345 2
(0.5562398312 0.0216380948 0.2002419896 0.2218800844) 74 148 1
(0.2184460344 0.3907769828 0.3364762253 0.05430075751) 571 1110 1
(0.5111761356 0.01561625938 0.2444119322 0.2287956728) 445 868 1
(0.1337457808 0.4033924314 0.4331271096 0.02973467814) 31 63 2
(0.1935359018 0.4032320491 0.1394052898 0.2638267593) 621 1186 1
(0.6278682895 0.007111443211 0.1860658553 0.1789544121) 453 886 2
(0.1686483442 0.4156758279 0.05600971467 0.3596661132) 357 714 2
(0.898737251 0.03144905596 0.05063137448 0.01918231852) 44 89 2
(0.1517830042 0.4241084979 0.3459519064 0.07815659154) 149 299 1
(0.6837788313 0.1581105844 0.07704558 0.08106500437) 178 357 1
(0.4574904548 0.2712547726 0.2337910743 0.0374636983) 215 430 2
(0.6035287118 0.01610036577 0.1821352783 0.1982356441) 143 247 2
(0.3581659479 0.193853754 0.320917026 0.1270632721) 262 525 2
(0.3409921559 0.1160938772 0.2134100448 0.3295039221) 615 1175 2
(0.169208095 0.4153959525 0.2108028763 0.2045930762) 541 1053 1
(0.01241244284 0.3043227319 0.4937937786 0.1894710467) 542 1052 1
(0.5640980402 0.1343811908 0.2179509799 0.08356978904) 181 360 1
(0.6787170535 0.1606414733 0.1125695715 0.04807190175) 174 349 1
(0.7844571579 0.01399309145 0.09377832962 0.1077714211) 584 1116 2
(0.4018247932 0.2990876034 0.04858530213 0.2505023013) 97 192 2
(0.3044056151 0.3477971925 0.2918075394 0.05598965305) 405 811 1
(0.09293369292 0.4365366314 0.4535331535 0.01699652214) 57 112 1
(0.02005070929 0.4899746454 0.465774609 0.0242000364) 490 937 1
(0.1407646463 0.4296176769 0.100527572 0.3290901049) 257 514 2
(0.2309279801 0.38453601 0.2571829109 0.1273530991) 479 933 2
(0.6811221432 0.09404772506 0.06539120337 0.1594389284) 78 156 1
(0.6738829748 0.1630585126 0.1398045854 0.02325392723) 235 431 1
(0.109202033 0.4453989835 0.06737937119 0.3780196123) 572 1093 1
(0.9474848831 0.02625755846 0.008753432488 0.01750412597) 44 86 2
(0.02212090065 0.4889395497 0.1485333316 0.3404062181) 155 308 2
(0.4518745282 0.1772616256 0.09680111025 0.2740627359) 531 1015 2
(0.2365268735 0.1926341863 0.1891023769 0.3817365632) 208 377 2
(0.3988991908 0.1328684682 0.1676819364 0.3005504046) 79 159 1
(0.673889653 0.1337217939 0.1630551735 0.02933337962) 185 371 2
(0.02927880122 0.4853605994 0.06184131894 0.4235192805) 515 1004 1
(0.7498349391 0.02144569432 0.1036368362 0.1250825305) 294 588 1
(0.4115235632 0.2942382184 0.2205958262 0.07364239226) 330 660 2
(0.1141446552 0.1521041818 0.2908234906 0.4429276724) 73 107 2
(0.02056282468 0.4897185877 0.2475949354 0.2421236523) 11 1289 2
(0.5876601941 0.206169903 0.09138867223 0.1147812307) 92 185 1
(0.01438173 0.492809135 0.3812977253 0.1115114097) 334 666 2
(0.6715947306 0.1642026347 0.1157525692 0.04845006548) 73 107 1
(0.07155461873 0.3152327279 0.1489899627 0.4642226906) 127 215 2
(0.603505573 0.1837800219 0.1982472135 0.01446719155) 214 426 1
(0.7485280188 0.1257359906 0.0215889825 0.1041470081) 379 758 1
(0.7453476369 0.1273261816 0.1059850869 0.02134109467) 522 1017 1
(0.005702050585 0.4971489747 0.08595866402 0.4111903107) 201 400 2
(0.6599604999 0.17001975 0.006149721994 0.163870028) 219 439 2
(0.1631548693 0.4184225654 0.07486394209 0.3435586233) 647 1236 1
(0.4508234552 0.0916102949 0.2745882724 0.1829779775) 148 294 1
(0.7337538305 0.1331230847 0.1177039761 0.01541910866) 149 299 1
(0.4231800667 0.2884099667 0.1944183437 0.09399162294) 129 259 1
(0.3315323496 0.3003740712 0.3342338252 0.03385975394) 385 771 2
(0.02965124192 0.4619548303 0.485174379 0.02321954869) 316 633 2
(0.4016583013 0.2991708494 0.2411027768 0.05806807259) 444 868 2
(0.02005247224 0.4899737639 0.1759983238 0.3139754401) 464 906 2
(0.553959441 0.05985524952 0.2230202795 0.16316503) 236 473 2
(0.2210717149 0.3894641425 0.2894178089 0.1000463337) 591 1145 2
(0.1687759214 0.4156120393 0.09781559087 0.3177964484) 273 544 2
(0.5643878816 0.192860104 0.02494595519 0.2178060592) 267 495 2
(0.02317697592 0.3761600825 0.1122514296 0.488411512) 321 642 1
(0.7387441805 0.1306279098 0.0307305113 0.09989739846) 544 1056 2
(0.5505035348 0.08645907964 0.2247482326 0.138289153) 608 1181 2
(0.3288976145 0.3355511927 0.1039033944 0.2316477983) 580 1126 2
(0.002062667279 0.1605773844 0.4989686664 0.338391282) 206 410 1
(0.08952484199 0.455237579 0.2346689893 0.2205685897) 645 2658 1
(0.5558325711 0.215086887 0.2220837145 0.006996827426) 369 736 1
(0.6076746831 0.1961626585 0.03841232936 0.1577503291) 172 345 1
(0.5870097463 0.2064951269 0.1768551864 0.02963994047) 194 389 1
(0.1588635301 0.004536628284 0.4160316067 0.420568235) 616 1195 1
(0.5118475751 0.2362535408 0.2440762124 0.007822671599) 186 373 2
(0.2636957251 0.3681521375 0.3554882835 0.01266385395) 495 963 2
(0.5655051739 0.217247413 0.1993534226 0.01789399048) 546 1063 1
(0.2173699051 0.2913110116 0.1000040359 0.3913150475) 411 822 1
(0.02643563811 0.4867821809 0.4370093302 0.0497728507) 44 86 2
(0.1518406109 0.3442689836 0.07981071096 0.4240796945) 550 1051 2
(0.3558892761 0.3220553619 0.07319962451 0.2488557374) 274 546 2
(0.3698983324 0.06789605036 0.3150508338 0.2471547834) 562 1093 2
(0.2910109195 0.3544945402 0.07274830735 0.2817462329) 99 196 2
(0.428104718 0.285947641 0.1816911189 0.1042565221) 427 846 2
(0.2084712031 0.3957643984 0.2716438413 0.1241205571) 192 345 1
(0.03966782815 0.4801660859 0.1268897674 0.3532763185) 213 387 1
(0.2640938927 0.03443110245 0.3679530537 0.3335219512) 234 469 2
(0.8982124486 0.02245236665 0.0508937757 0.02844140905) 632 1223 1
(0.1530862129 0.4145632184 0.008893675156 0.4234568936) 463 904 1
(0.1531065751 0.3237624907 0.09968422179 0.4234467124) 217 434 1
(0.6236025357 0.1241470908 0.1881987322 0.06405164139) 614 1189 1
(0.222136894 0.388931553 0.173561039 0.215370514) 365 728 2
(0.03442370345 0.4827881483 0.2854461233 0.197342025) 295 551 1
(0.5619671258 0.08896450496 0.1300519322 0.2190164371) 313 587 2
(0.005252190914 0.4973739045 0.434400737 0.06297316751) 265 491 1
(0.1669375399 0.03422904257 0.3823021875 0.41653123) 520 1012 1
(0.4295229239 0.285238538 0.1497932973 0.1354452407) 353 706 2
(0.1719891191 0.4140054405 0.2748411116 0.1391643289) 142 285 1
(0.1303961057 0.1001479458 0.4348019471 0.3346540014) 424 843 1
(0.6252603143 0.1873698429 0.1102589162 0.07711092666) 419 838 1
(0.34892139 0.325539305 0.1142257658 0.2113135392) 155 311 1
(0.3811668554 0.20950915 0.09990742228 0.3094165723) 75 111 2
(0.1708964068 0.3372106841 0.4145517966 0.07734111244) 316 630 1
(0.254808618 0.372595691 0.1212178705 0.2513778205) 325 650 2
(0.4296361851 0.01974606507 0.2851819075 0.2654358424) 41 83 2
(0.3899828207 0.3050085897 0.2220394655 0.0829691242) 419 836 2
(0.4264675312 0.2867662344 0.04331225309 0.2434539813) 311 583 1
(0.2770372891 0.3614813554 0.1007805345 0.2607008209) 44 49 1
(0.1547823712 0.4226088144 0.1315127836 0.2910960308) 170 338 2
(0.7839482578 0.04617452486 0.1080258711 0.06185134625) 98 197 2
(0.5837194161 0.003821824177 0.2043184678 0.208140292) 238 476 1
(0.04330768193 0.478346159 0.2434210289 0.2349251301) 470 159 2
(0.145019252 0.3990798745 0.02841049957 0.427490374) 127 254 1
(0.6319626978 0.1840186511 0.01179538401 0.1722232671) 175 348 2
(0.3364962286 0.3128540038 0.3317518857 0.0188978819) 164 326 1
(0.5840235318 0.1896983394 0.01828989466 0.2079882341) 641 1242 1
(0.6956354302 0.05336778395 0.09881450093 0.1521822849) 468 914 1
(0.06105082185 0.4694745891 0.2553565824 0.2141180067) 255 471 1
(0.2497843348 0.3751078326 0.3036535622 0.07145427037) 172 342 2
(0.01245902388 0.4350079059 0.05876258211 0.4937704881) 67 95 2
(0.4022277537 0.0581435333 0.2407425899 0.2988861232) 607 1160 2
(0.57789557 0.211052215 0.0677689062 0.1432833088) 169 339 1
(0.09978282755 0.07894733277 0.3711612534 0.4501085862) 354 669 2
(0.3115973986 0.19489059 0.3442013007 0.1493107106) 444 869 2
(0.9129661596 0.02512298964 0.04351692022 0.01839393057) 256 510 1
(0.2246309371 0.3876845314 0.3629951429 0.02468938855) 271 542 2
(0.8009451261 0.09952743697 0.0815636217 0.01796381527) 456 889 2
(0.932066378 0.01915672827 0.03396681099 0.01481008272) 579 1125 2
(0.2992083959 0.08581013215 0.350395802 0.2645856699) 258 517 2
(0.1081411052 0.4459294474 0.2373523572 0.2085770902) 32 62 2
(0.300914758 0.349542621 0.2961296798 0.05341294121) 442 862 2
(0.02499777955 0.07013512136 0.4875011102 0.4173659889) 482 938 1
(0.2735536304 0.3632231848 0.2673095696 0.09591361524) 281 560 2
(0.2561506368 0.2012950091 0.1706296725 0.3719246816) 249 459 2
(0.6743011734 0.1628494133 0.1321176101 0.0307318032) 223 447 1
(0.150954658 0.424522671 0.1458840652 0.2786386058) 138 277 1
(0.03007836714 0.02443254996 0.4605282665 0.4849608164) 77 154 1
(0.863793111 0.06810344451 0.05246910181 0.0156343427) 383 764 2
(0.8158538987 0.09207305067 0.01626763447 0.0758054162) 444 1302 2
(0.1773377818 0.049785764 0.4113311091 0.3615453451) 304 609 2
(0.5730099711 0.2134950145 0.1405740509 0.0729209636) 299 596 2
(0.3959024437 0.3020487782 0.1356593035 0.1663894746) 76 113 1
(0.6230361128 0.1884819436 0.1696997797 0.01878216396) 142 282 2
(0.843222634 0.07838868298 0.02808192859 0.05030675439) 260 520 2
(0.4831001387 0.2361332836 0.02231664706 0.2584499306) 297 594 1
(0.1301925403 0.0757783681 0.4349037299 0.3591253618) 137 275 2
(0.2613277907 0.3693361047 0.2995242308 0.0698118739) 187 375 1
(0.2983274032 0.3508362984 0.2401695729 0.1106667255) 253 467 1
(0.462405264 0.01261926869 0.2561780993 0.268797368) 275 511 2
(0.2075441928 0.09641024935 0.2998176542 0.3962279036) 524 1020 1
(0.5521707493 0.2239146254 0.1961304834 0.02778414197) 194 349 1
(0.1868902092 0.4065548954 0.05396108622 0.3525938092) 359 718 1
(0.4608613595 0.2354500983 0.03411922198 0.2695693203) 39 79 1
(0.7872207583 0.1063896208 0.06295259469 0.04343702615) 133 227 1
(0.4644506516 0.1246729398 0.2677746742 0.1431017344) 181 363 2
(0.5239900473 0.2380049764 0.02401577265 0.2139892037) 505 966 1
(0.02605132225 0.4869743389 0.2626088605 0.2243654784) 455 887 2
(0.09596682657 0.4520165867 0.2834519419 0.1685646448) 562 1090 2
(0.1694956926 0.2012025038 0.4152521537 0.2140496499) 450 880 2
(0.1510248539 0.140011878 0.2844756951 0.424487573) 232 464 1
(0.8499831785 0.006453885337 0.06855452541 0.07500841075) 258 516 1
(0.2287356902 0.3856321549 0.02810699872 0.3575251562) 97 192 2
(0.6702164132 0.05001033375 0.1148814596 0.1648917934) 252 465 2
(0.3510397656 0.2181007179 0.1063793993 0.3244801172) 206 412 1
(0.1943399056 0.4028300472 0.0899353894 0.3128946578) 227 454 2
(0.2101337596 0.3949331202 0.3323041425 0.06262897766) 73 146 2
(0.2675104741 0.1058074841 0.2604372788 0.366244763) 415 830 1
(0.3048868755 0.3028430528 0.04471350939 0.3475565622) 481 938 1
(0.07127101131 0.2552099722 0.2091545222 0.4643644943) 264 528 1
(0.3524942047 0.3237528977 0.01717442639 0.3065784713) 110 218 2
(0.4799943388 0.2402510553 0.01975177532 0.2600028306) 445 870 1
(0.4057296117 0.05413864499 0.2429965492 0.2971351942) 203 406 1
(0.7450838987 0.08336028151 0.04409776915 0.1274580507) 176 352 1
(0.05483196192 0.472584019 0.009889702693 0.4626943163) 526 1022 2
(0.505272396 0.2110547477 0.247363802 0.03630905425) 520 1013 2
(0.09389516859 0.4518315753 0.4530524157 0.001220840364) 605 1175 2
(0.06293543204 0.468532284 0.05274143677 0.4157908472) 544 1056 2
(0.3269852264 0.3365073868 0.03297000491 0.3035373819) 305 611 1
(0.006384623775 0.4968076881 0.1319767278 0.3648309603) 272 505 1
(0.3365821467 0.3317089266 0.2084735169 0.1232354097) 213 427 1
(0.3382975262 0.2288299486 0.3308512369 0.1020212883) 169 336 1
(0.01949737314 0.4902513134 0.2902373148 0.2000139987) 567 1103 1
(0.3648643442 0.10702052 0.2105473079 0.3175678279) 226 413 2
(0.5150808753 0.1905164979 0.05194306445 0.2424595624) 431 823 2
(0.1963180068 0.4018409966 0.04703662256 0.3548043741) 300 601 1
(0.2384605008 0.3807697496 0.1490881951 0.2316815546) 32 64 2
(0.5445024956 0.1747167496 0.05303200262 0.2277487522) 235 470 1
(0.4698186692 0.2650906654 0.1905563559 0.07453430946) 73 147 1
(0.7440016018 0.1279991991 0.02091075742 0.1070884417) 333 667 1
(0.6566511248 0.02959233206 0.1716744376 0.1420821055) 110 221 2
(0.136211379 0.252498812 0.4318943105 0.1793954985) 190 378 1
(0.407123911 0.1285428711 0.1678951734 0.2964380445) 453 885 1
(0.3497808457 0.2032062823 0.1219032949 0.3251095772) 171 342 1
(0.4491397992 0.2754301004 0.07052710722 0.2049029932) 469 916 1
(0.07867004598 0.460664977 0.001397285182 0.4592676918) 514 999 2
(0.06246988827 0.4687650559 0.2676929523 0.2010721035) 158 317 1
(0.5508179959 0.07613469623 0.1484563058 0.2245910021) 495 947 2
(0.1995279172 0.3285143895 0.4002360414 0.07172165193) 524 1018 1
(0.06427231775 0.4678638411 0.3793201624 0.08854367876) 532 1033 2
(0.04389949622 0.4780502519 0.2110851885 0.2669650633) 192 345 1
(0.2022511138 0.3988744431 0.2261377824 0.1727366607) 355 671 1
(0.5167777784 0.021304586 0.2416111108 0.2203065248) 42 85 2
(0.6262491069 0.1868754465 0.1112897759 0.07558567065) 331 662 2
(0.3726915012 0.02206025356 0.3136542494 0.2915939959) 568 1105 2
(0.4582178961 0.2708910519 0.1603924912 0.1104985607) 284 566 2
(0.2295289214 0.1521998378 0.3852355393 0.2330357015) 64 129 2
(0.1525731512 0.1433710637 0.4237134244 0.2803423607) 173 344 1
(0.3254552491 0.3372723755 0.0005469862786 0.3367253892) 46 53 1
(0.07078764863 0.4646061757 0.4065572555 0.0580489202) 488 953 1
(0.1734765942 0.4132617029 0.2903176759 0.122944027) 309 619 1
(0.1643209528 0.4178395236 0.1657957701 0.2520437535) 156 312 2
(0.1096510056 0.4451744972 0.1196685001 0.3255059971) 144 288 2
(0.2526261583 0.2196826482 0.1540042727 0.3736869208) 601 1148 2
(0.2170740407 0.3914629797 0.2678885304 0.1235744493) 134 229 1
(0.6801000757 0.1599499621 0.01574794494 0.1442020172) 271 503 1
(0.3315918205 0.07831317809 0.2558909116 0.3342040897) 267 495 2
(0.2003786341 0.1595455267 0.3998106829 0.2402651563) 76 150 1
(0.2555137201 0.3722431399 0.07415543624 0.2980877037) 148 297 1
(0.01381479517 0.3927310852 0.4930926024 0.1003615172) 560 519 1
(0.1347140706 0.4141127223 0.01853024246 0.4326429647) 74 148 1
(0.15548176 0.42225912 0.4045254232 0.01773369675) 81 162 2
(0.1578954519 0.4210522741 0.0165204916 0.4045317825) 86 172 2
(0.06295623359 0.3276968632 0.4685218832 0.14082502) 626 1212 1
(0.5149504386 0.2425247807 0.09708495935 0.1454398214) 378 757 1
(0.07399018309 0.04882916111 0.4141757473 0.4630049085) 387 735 2
(0.3930488626 0.1863445067 0.117131062 0.3034755687) 250 500 1
(0.158715425 0.3789022903 0.04173999723 0.4206422875) 144 249 2
(0.3749391084 0.09474630949 0.3125304458 0.2177841363) 152 305 2
(0.08440295724 0.04988161161 0.4079169098 0.4577985214) 650 1253 1
(0.3906761577 0.1875364027 0.3046619212 0.1171255184) 114 229 2
(0.06905587857 7.815374123e-05 0.465393907 0.4654720607) 222 444 1
(0.3067032662 0.3466483669 0.2052651598 0.1413832071) 370 740 2
(0.2413945912 0.2902319548 0.08907074957 0.3793027044) 166 293 2
(0.4786838495 0.2606580753 0.01616643441 0.2444916409) 237 472 2
(0.08191025463 0.4590448727 0.4059728384 0.05307203429) 533 1038 1
(0.4911509014 0.2544245493 0.209232177 0.04519237236) 351 663 1
(0.385543893 0.3072280535 0.1586867699 0.1485412836) 257 514 2
(0.007847427751 0.4960762861 0.2242039977 0.2718722884) 285 571 1
(0.1616310865 0.3203678566 0.09881660015 0.4191844567) 384 729 2
(0.460671896 0.2122924638 0.05737158818 0.269664052) 358 677 2
(0.03595958133 0.07824981903 0.4820202093 0.4037703903) 229 456 1
(0.4060297848 0.2002105488 0.09677455881 0.2969851076) 208 377 2
(0.635245399 0.10872002 0.1823773005 0.07365728048) 206 410 1
(0.1297325175 0.4351337412 0.07501494685 0.3601187944) 135 231 1
(0.07569977746 0.141200737 0.4621501113 0.3209493742) 436 2653 2
(0.0724831725 0.2614729842 0.4637584138 0.2022854296) 208 417 2
(0.5221308731 0.1716014035 0.2389345634 0.0673331599) 256 513 2
(0.2638037013 0.0722826809 0.3680981494 0.2958154685) 15 31 2
(0.2041780668 0.3979109666 0.3446287065 0.05328226012) 166 333 1
(0.8585917133 0.02212395042 0.07070414336 0.04858019294) 364 726 1
(0.177170504 0.2750308039 0.1363839441 0.411414748) 505 984 1
(0.3387003573 0.3306498213 0.2939690545 0.03668076685) 264 526 2
(0.3552031709 0.2333695936 0.3223984146 0.08902882094) 348 697 2
(0.4388866177 0.07307825961 0.2074784315 0.2805566911) 424 844 1
(0.3630508132 0.3184745934 0.2588281577 0.05964643572) 553 1076 1
(0.4342088509 0.2828955746 0.1553792757 0.1275162989) 629 1220 1
(0.207542051 0.3962289745 0.3058137892 0.09041518535) 298 596 2
(0.4595388265 0.2533434332 0.01688715351 0.2702305867) 78 156 1
(0.4205998271 0.170535155 0.2897000865 0.1191649314) 111 220 1
(0.2420505451 0.3789747275 0.1800129497 0.1989617778) 321 640 2
(0.4048720587 0.1415518515 0.1560121191 0.2975639706) 131 223 2
(0.5620369426 0.1661594298 0.2189815287 0.05282209894) 514 1002 2
(0.8771203181 0.004816777168 0.0566230638 0.06143984097) 157 314 1
(0.3692864353 0.2039879802 0.3153567823 0.1113688022) 318 637 2
(0.398162279 0.03674873385 0.3009188605 0.2641701267) 295 588 1
(0.02475785846 0.04188026979 0.4876210708 0.445740801) 188 377 2
(0.1700922294 0.1564675716 0.2584863137 0.4149538853) 369 699 2
(0.01696928333 0.4915153583 0.4719755515 0.01953980684) 211 383 1
(0.5181160695 0.2409419653 0.0825025931 0.1584393722) 247 492 2
(0.1072499854 0.4463750073 0.3940689902 0.05230601713) 214 426 2
(0.0367962054 0.4816018973 0.04234826559 0.4392536317) 453 883 2
(0.3387656355 0.3306171822 0.1119073772 0.2187098051) 108 216 2
(0.7775382951 0.1112308524 0.01180714842 0.09942370401) 355 671 1
(0.2434763923 0.3782618039 0.338820256 0.03944154782) 610 1165 1
(0.525213587 0.115497227 0.2373932065 0.1218959795) 316 633 2
(0.009869373856 0.2096641821 0.4950653131 0.285401131) 215 431 2
(0.07076774085 0.4646161296 0.257396313 0.2072198166) 212 422 2
(0.2818797408 0.3590601296 0.1804661385 0.1785939911) 440 39 2
(0.2186729312 0.1893076745 0.2013558599 0.3906635344) 136 233 2
(0.4769062467 0.0535490864 0.2615468767 0.2079977903) 458 896 2
(0.3350612689 0.3324693656 0.2887452659 0.04372409972) 631 1221 2
(0.1247807765 0.4376096117 0.3307019724 0.1069076393) 101 200 2
(0.7818763894 0.1090618053 0.0432601 0.06580170532) 461 901 1
(0.4761507536 0.2619246232 0.1173758471 0.1445487761) 102 205 1
(0.3955005589 0.178801116 0.3022497205 0.1234486045) 97 195 2
(0.3421129473 0.3289435264 0.1132538839 0.2156896425) 601 1167 1
(0.1219479534 0.1748174736 0.4390260233 0.2642085496) 303 604 1
(0.6426364624 0.01920634743 0.1786817688 0.1594754214) 363 727 2
(0.5727452111 0.1271904872 0.2136273945 0.08643690726) 262 522 1
(0.06136447027 0.4693177649 0.3430135439 0.126304221) 326 652 2
(0.5907932915 0.1544946402 0.05010871404 0.2046033542) 156 273 2
(0.224601026 0.387699487 0.09266187182 0.2950376152) 127 252 2
(0.3540962882 0.3229518559 0.2582596006 0.06469225536) 87 175 1
(0.002111398571 0.4989443007 0.3103719613 0.1885723394) 282 565 1
(0.1272230286 0.4116371626 0.02475132313 0.4363884857) 452 883 1
(0.4864574691 0.2259864276 0.2567712654 0.03078483788) 88 174 1
(0.4126561291 0.2936719355 0.1004493136 0.1932226218) 31 23 1
(0.2973920866 0.3513039567 0.01576604901 0.3355379077) 428 2645 1
(0.1902511462 0.3313148184 0.4048744269 0.07355960846) 295 591 2
(0.332087946 0.333956027 0.2836347156 0.05032131144) 215 428 2
(0.05744867539 0.4712756623 0.384177424 0.08709823829) 156 312 2
(0.7076180326 0.1461909837 0.09068100668 0.05550997704) 625 1210 2
(0.06379085612 0.2997137023 0.1683908696 0.4681045719) 164 328 1
(0.1355830584 0.4322084708 0.3948263596 0.03738211125) 483 940 2
(0.0965030707 0.4517484646 0.2621619596 0.189586505) 352 702 2
(0.1098991405 0.4450504298 0.3022432895 0.1428071403) 462 900 2
(0.2999096571 0.3500451715 0.08863341209 0.2614117594) 115 230 2
(0.7863868854 0.06538572849 0.04142082883 0.1068065573) 378 717 2
(0.2178715744 0.1683068948 0.222757318 0.3910642128) 117 195 2
(0.5738566663 0.192751857 0.02031980988 0.2130716669) 200 400 1
(0.1753632881 0.1782632641 0.4123183559 0.2340550918) 189 376 1
(0.1479768657 0.4260115672 0.3354314343 0.09058013287) 405 810 2
(0.2503622956 0.3748188522 0.1658636638 0.2089551884) 304 609 1
(0.6289633227 0.1855183387 0.15600044 0.02951789863) 414 826 2
(0.04123411273 0.4793829436 0.4186645697 0.06071837397) 531 1031 2
(0.06708366854 0.4664581657 0.3765262857 0.08993188003) 144 249 1
(0.5598084763 0.2101398137 0.009955948155 0.2200957619) 376 752 1
(0.8357613991 0.08211930043 0.02927973743 0.052839563) 404 806 2
(0.4808244393 0.2595877804 0.02608215662 0.2335056237) 132 265 1
(0.3751207403 0.3124396298 0.1055501992 0.2068894307) 527 1024 2
(0.117420652 0.441289674 0.00632869999 0.434960974) 178 356 2
(0.3629596336 0.2016627013 0.1168574819 0.3185201832) 555 1079 1
(0.3946273323 0.3026863338 0.298914384 0.00377194981) 540 439 2
(0.6825306543 0.1057893478 0.1587346728 0.05294532507) 256 510 1
(0.2139037152 0.05212329037 0.340924852 0.3930481424) 522 998 2
(0.4789919135 0.2605040433 0.05717651754 0.2033275257) 196 390 2
(0.09736615167 0.1456463998 0.4513169242 0.3056705244) 113 227 2
(0.09282198577 0.4535890071 0.4489851418 0.004603865363) 54 108 2
(0.1376564665 0.2222194631 0.2089523037 0.4311717668) 510 975 2
(0.5036779724 0.2438532117 0.2481610138 0.004307802065) 212 425 2
(0.455463537 0.2721801561 0.2722682315 8.807537366e-05) 315 628 1
(0.3428595642 0.3285702179 0.323570038 0.005000179953) 530 1032 1
(0.1108332321 0.444583384 0.4136137404 0.03096964352) 185 368 2
(0.2254362591 0.3586205408 0.02866132964 0.3872818705) 627 1198 2
(0.3500323885 0.3223534945 0.3249838057 0.00263031123) 564 1094 1
(0.8461533759 0.03690621201 0.04001710003 0.07692331205) 449 2616 1
(0.004915437622 0.4975422812 0.1903671364 0.3071751448) 243 486 2
(0.2775869444 0.3612065278 0.1314625182 0.2297440096) 157 275 1
(0.4843094871 0.007460026903 0.2503852296 0.2578452565) 584 1116 2
(0.4876237324 0.2561881338 0.0616956886 0.1944924452) 438 857 2
(0.510140652 0.244929674 0.1230763158 0.1218533582) 170 341 1
(0.06849773417 0.4657511329 0.1755255916 0.2902255413) 534 1037 2
(0.7435883913 0.1282058043 0.0852713921 0.04293441225) 596 1158 1
(0.3155400802 0.1561079497 0.1861220102 0.3422299599) 583 1132 1
(0.01014608976 0.1300975753 0.3648293798 0.4949269551) 388 737 2
(0.01276991717 0.4936150414 0.4365677836 0.05704725786) 586 1139 1
(0.1428782621 0.2124075946 0.428560869 0.2161532743) 273 544 1
(0.4009045659 0.1509317034 0.1486160136 0.2995477171) 11 22 1
(0.1221556187 0.4389221907 0.4046396125 0.03428257817) 278 557 1
(0.2568235976 0.3354498338 0.3715882012 0.03613836742) 192 382 1
(0.5600086931 0.1773355135 0.2199956535 0.04266013993) 453 883 1
(0.5274012031 0.02799966728 0.2362993984 0.2082997312) 268 537 2
(0.5280446752 0.2359776624 0.1152671132 0.1207105492) 259 518 1
(0.3644638975 0.0768558848 0.3177680513 0.2409121665) 445 871 2
(0.1226250259 0.4386874871 0.2673307292 0.1713567579) 191 382 2
(0.4018242401 0.2726257565 0.02646212347 0.2990878799) 573 1095 2
(0.04410088286 0.2099742081 0.2679753505 0.4779495586) 415 830 1
(0.0486178251 0.2799431715 0.4756910875 0.195747916) 514 999 1
(0.04912140168 0.1877012204 0.4754392992 0.2877380787) 308 617 2
(0.2246405426 0.3876797287 0.3260726192 0.06160710953) 258 514 2
(0.4845239485 0.2544914941 0.2577380258 0.003246531699) 552 1074 2
(0.5467604187 0.1950099024 0.2266197906 0.03160988828) 123 247 2
(0.1698596009 0.4101242423 0.004945957315 0.4150701996) 623 1208 1
(0.09891052508 0.4505447375 0.05929629289 0.3912484446) 289 579 1
(0.1926711092 0.4036644454 0.1269685271 0.2766959183) 437 857 2
(0.004545288349 0.4977273558 0.2144633297 0.2832640262) 89 139 1
(0.5029910277 0.2035253807 0.2485044862 0.04497910549) 109 219 2
(0.347883895 0.3260580525 0.1595525968 0.1665054557) 457 875 1
(0.2488909385 0.3069970877 0.06855744298 0.3755545307) 172 344 1
(0.3940759816 0.009084666214 0.293877343 0.3029620092) 616 1177 2
(0.2572521827 0.3713739086 0.311349035 0.06002487368) 255 510 2
(0.5723019594 0.2138490203 0.0818561994 0.1319928209) 196 392 2
(0.4898387153 0.2550806423 0.2488570036 0.006223638703) 19 1297 2
(0.269749744 0.2006651665 0.1644599614 0.365125128) 591 1129 2
(0.02163225321 0.4891838734 0.4807508336 0.008433039748) 222 442 2
(0.2471605376 0.1319692468 0.2444504845 0.3764197312) 444 868 1
(0.5059958173 0.2168920971 0.03010999427 0.2470020913) 394 788 1
(0.3424390594 0.3287804703 0.0692956782 0.2594847921) 518 1007 2
(0.2198603148 0.3900698426 0.04297949373 0.3470903489) 600 679 2
(0.2396130142 0.3801934929 0.2972563085 0.08293718442) 314 589 1
(0.7995747588 0.05035923374 0.1002126206 0.04985338685) 467 913 2
(0.7365827951 0.1317086024 0.0661398594 0.06556874303) 312 625 1
(0.2102036958 0.008144244293 0.3867539078 0.3948981521) 237 435 2
(0.1637348938 0.4181325531 0.2983667953 0.1197657578) 27 52 2
(0.2615348863 0.2453803116 0.1238522453 0.3692325569) 612 1169 2
(0.1641772281 0.4179113859 0.05102438651 0.3668869994) 267 532 2
(0.2458702944 0.3770648528 0.1534121562 0.2236526966) 537 1027 1
(0.6033329106 0.1983335447 0.06564540167 0.132688143) 449 1307 2
(0.5188597502 0.02061873423 0.2199513907 0.2405701249) 175 350 1
(0.2767916409 0.01915063164 0.3424535479 0.3616041796) 238 476 1
(0.1989579078 0.4005210461 0.0532363196 0.3472847265) 86 133 1
(0.6076665886 0.06725535143 0.1289113543 0.1961667057) 472 921 1
(0.2063138188 0.3968430906 0.02586012063 0.37098297) 547 1062 2
(0.3460122009 0.3269938996 0.3053104923 0.02168340728) 182 362 2
(0.4640940935 0.2679529533 0.1846896143 0.08326333899) 225 411 1
(0.2858954023 0.2128419101 0.3570522989 0.1442103887) 318 637 2
(0.2177816782 0.3911091609 0.3389817591 0.05212740185) 264 528 2
(0.4950972947 0.2524513526 0.1255521874 0.1268991653) 210 418 2
(0.4440994695 0.1761522032 0.101798062 0.2779502652) 517 1007 1
(0.230148947 0.3849255265 0.2621708504 0.1227546761) 295 591 1
(0.1597502768 0.2292900993 0.1908347623 0.4201248616) 292 545 2
(0.7722260443 0.05404218679 0.1138869779 0.05984479108) 308 614 1