/*--------------------------------*- C++ -*----------------------------------*\
  =========                 |
  \\      /  F ield         | OpenFOAM: The Open Source CFD Toolbox
   \\    /   O peration     | Website:  https://openfoam.org
    \\  /    A nd           | Version:  7
     \\/     M anipulation  |
\*---------------------------------------------------------------------------*/
FoamFile
{
    version     2.0;
    format      ascii;
    class       vectorField;
    location    "0.002/lagrangian/dsmc";
    object      U;
}
// * * * * * * * * * * * * * * * * * * * * * * * * * * * * * * * * * * * * * //


2996
(
(-375.0654604 -75.88692981 163.8124138)
(3.475874695 -245.1288929 -90.84569814)
(142.9748622 -475.1286413 -213.3971631)
(395.6296757 336.3681618 146.0844661)
(969.6835573 -494.5129467 -286.7889677)
(33.3060055 -42.98475582 8.215783877)
(14.12694002 -314.2094666 -121.4573126)
(-198.5458277 79.5632006 269.4879322)
(122.7776603 244.6406308 -997.3249024)
(-161.2330654 255.8047918 -0.918782442)
(299.3036103 3.544233202 -57.93151654)
(128.5566281 -385.1452393 -128.5265163)
(-166.5867897 501.1771704 283.938181)
(-276.0141537 133.6325715 94.00097709)
(-309.4206044 221.0444725 92.75124487)
(-786.6161805 -220.5023553 10.43647832)
(347.6010086 270.7821519 -578.1706636)
(87.85885082 466.6837941 -388.2070965)
(-346.6946652 6.124455709 11.27090022)
(537.0920499 413.0163783 433.0462529)
(-854.8492494 111.14891 28.83996066)
(65.3128891 -438.1689745 -503.7473171)
(-111.9027938 157.506423 -111.5403548)
(-436.996173 293.9942779 357.9922972)
(678.5071763 29.42481257 419.9789897)
(206.6861177 117.5135434 -380.7856044)
(-74.75638938 -299.0627305 418.1334206)
(-143.4438402 200.0579437 -340.0338286)
(311.3855554 -560.1357108 -508.1040008)
(-26.30625254 24.89537832 -343.8989178)
(-455.4790746 968.2057362 281.1057253)
(-84.4586025 -701.4864128 0.1434053794)
(-295.2660818 92.87509985 413.1669452)
(-969.9611337 315.3088346 -300.6412378)
(-144.8470616 -452.3630815 117.8440902)
(-208.5633545 952.9925517 270.414279)
(-154.9010653 647.9814447 290.1127587)
(51.31538171 120.1189063 -504.6184309)
(19.23431285 257.2090811 -472.7159492)
(-112.3513812 19.22245932 -218.0737462)
(570.5254963 -415.6654321 748.881524)
(-259.1368626 -66.86944954 522.8129803)
(332.7447044 -335.1260695 -317.5920231)
(175.308295 9.281937265 200.1926325)
(2.511927414 498.9570163 -249.7409593)
(250.522641 182.605549 66.27129618)
(83.74287539 965.6534137 -872.0738023)
(304.3819231 -545.1731055 -201.1897885)
(375.2805395 373.5769492 -562.484021)
(449.0649379 162.7902254 221.4972681)
(225.0293871 -113.0259055 32.29044102)
(-234.8048331 -424.6496354 -199.813535)
(82.84670719 -322.3350377 -2.039932649)
(-32.69843398 -451.5735525 -196.1874372)
(-211.9110141 -620.8781944 486.1797374)
(137.7605211 211.9500013 -101.8259496)
(182.275967 285.982663 456.5768668)
(-73.45376037 -132.191477 305.9328139)
(-93.88959519 -122.5708146 -240.4543879)
(374.4173085 -610.5653128 247.1903703)
(-55.52028961 -285.7729576 96.41752752)
(116.3819601 333.5132259 -303.4097189)
(326.4778341 206.1567267 -35.92686266)
(-40.02509783 248.6391563 -545.0894735)
(269.3470854 127.8477298 328.2438327)
(144.7012925 337.9249909 301.505701)
(35.57619409 278.1787194 287.678228)
(-55.68095676 578.9178171 543.0182675)
(-284.2854087 10.0771758 135.8169852)
(-220.9164427 -277.9623401 39.78720884)
(152.4095317 135.3930514 238.4243757)
(-234.2262433 115.7993823 -21.33111897)
(-617.3408115 -1263.757175 -97.69436395)
(744.182976 980.4643562 91.42454727)
(33.42635049 696.2455564 571.6852759)
(-314.2181833 -206.7276159 -182.6373797)
(249.4361042 -218.4185128 392.1490589)
(-68.43289863 89.5840988 -15.43050756)
(-141.314239 -296.6810637 -289.1722702)
(183.2328377 -216.1462194 -48.84779447)
(411.1663013 -334.1810742 344.8639162)
(-664.7063977 665.1028565 1.737380367)
(299.4885685 107.9241655 -218.7898714)
(488.9814347 305.8361232 -109.6367997)
(44.74917571 1.738291933 58.52485039)
(-756.8221198 -1.440954253 306.0920943)
(-491.2687192 560.2033903 -6.127478492)
(-194.2315043 44.84025207 -215.5038564)
(-232.2083691 -561.2215682 -165.5865382)
(-18.18148076 -560.5208578 -38.29626992)
(156.3682463 -52.79113009 -29.19581539)
(-529.3082194 -116.7460504 264.4372507)
(295.1866362 673.5817212 -6.866424225)
(492.7709867 532.4026411 -227.3544627)
(-176.2653051 246.9997988 -767.0187856)
(99.87591337 -40.87234204 48.08183177)
(-110.144611 -114.3146573 -221.7702001)
(116.9477961 -424.1828692 772.661084)
(-83.5140645 -157.0452414 180.4754805)
(99.64167552 331.3023632 53.61847604)
(-263.492976 -290.1995879 46.62063443)
(-124.8355961 -379.9120548 632.6824869)
(143.6920702 -385.6216873 247.9008255)
(370.7066355 -31.29026362 299.2567317)
(-41.8285264 325.4018459 323.7243017)
(361.6437582 -295.1296836 -107.9269987)
(8.842827991 657.9824956 349.5502635)
(-457.5826728 65.8696817 -350.5771917)
(375.3082595 1016.659195 352.8388747)
(14.07075859 346.1572006 -311.0467119)
(191.7262103 83.31221868 -143.8807031)
(-10.0856701 402.9851348 224.1079387)
(-536.0301057 488.2150078 -99.28070269)
(214.82588 506.9750339 -14.26115441)
(186.2769939 -159.5658722 236.3149307)
(-85.54284706 -197.4495627 238.9970177)
(358.5299636 21.48397011 -286.0709995)
(340.9879201 5.979024248 176.6588925)
(193.2553917 310.2766576 -272.6981466)
(-639.6327915 182.8626763 -384.6577682)
(-587.8289702 -404.45645 -129.678177)
(-9.030428661 859.4294397 186.0327588)
(109.6264362 310.6863062 -281.8206233)
(174.0214499 -239.6796952 289.7041458)
(-50.95845681 57.57923842 193.8475597)
(429.4414633 47.22233734 296.5279915)
(-517.5989272 68.24850414 398.0001282)
(-22.56367312 -64.08181944 -57.79556804)
(719.9918934 317.9125242 -77.72589667)
(504.3620345 -347.3404986 -146.1734963)
(-460.3845005 150.7097106 213.0486677)
(-629.2694097 -186.9650377 -422.9397628)
(-45.87244375 438.6078125 332.1181611)
(386.3104209 467.5833272 -243.8882054)
(638.9160915 432.8134744 47.79923151)
(398.530656 14.77810374 -190.1729013)
(-211.9678843 468.3039053 -375.8495538)
(-141.8971859 -349.6971479 -812.3134059)
(416.5800192 152.4346042 -362.5683)
(77.5736776 -231.3843669 -40.30438984)
(527.714164 24.25618246 40.35673795)
(-225.9326618 -113.6896364 -425.8650238)
(30.76479811 13.58416726 -619.5476668)
(-172.1444798 88.91891449 112.0280008)
(74.29640432 745.7702778 -12.44312176)
(-209.0515091 387.9458972 -67.73969998)
(-119.4616406 258.072897 -261.9916228)
(770.0269148 3.296986423 -61.25041131)
(-254.4498422 19.6785696 415.5732169)
(-233.4515369 537.3847244 -470.0717852)
(461.8807484 371.1860029 -391.2237148)
(-234.9519224 -291.5989158 209.4080485)
(-172.1968366 -520.4229774 -314.475908)
(79.34547514 186.9229724 425.3863332)
(474.3960651 115.0089578 118.403303)
(119.1892502 -71.93621667 477.7697197)
(278.8886192 -620.6856318 471.4188775)
(49.40146625 1011.426714 92.42391707)
(-157.3256983 688.4289562 32.84276475)
(-529.9156972 143.8898343 -918.8931913)
(-2.625641624 422.0053561 -411.2297498)
(43.1338557 146.784554 -478.1601676)
(-499.7903264 207.7261251 169.6250485)
(246.6922883 -37.67701318 -176.3989416)
(-91.60040441 -480.9171121 231.7608165)
(308.6853442 351.6606086 -8.609647666)
(-6.430843324 -25.60356864 -463.8835094)
(-210.2355014 346.3187699 529.3914262)
(208.5417372 -205.0827057 147.7506805)
(-225.9596866 -69.61765271 -612.9476172)
(-220.695032 -274.388397 -16.19134366)
(-250.8510199 116.8076737 -609.2987262)
(482.4960458 246.4344783 124.7215364)
(697.5779398 -128.2199835 426.8060872)
(269.3133846 440.2873893 53.35190561)
(-294.6331222 -231.776057 293.4513304)
(-209.6460082 -58.86363825 276.4801036)
(5.472831975 74.03939213 53.38343248)
(160.2171153 52.36209269 -669.9793115)
(-453.7835023 215.5691088 295.3919243)
(36.98215187 164.2509372 -484.1534618)
(162.9953291 221.3038481 -246.3011122)
(-28.40209184 -267.8356838 -818.5142776)
(-113.8878931 -394.3793992 29.03070221)
(-603.9816995 -62.67424262 299.9648653)
(-214.8999825 225.853068 -413.6962861)
(-394.6733261 -493.8677447 854.2811678)
(256.9076768 220.4944192 -496.0274163)
(-607.9560507 366.1336704 -669.1795193)
(-283.9897743 587.6340248 139.9994473)
(-138.6057015 31.9131269 -687.9114718)
(-274.6528968 218.7196262 -600.2327897)
(-465.6653819 80.61892917 542.7990971)
(-263.4117218 76.16421024 -190.972403)
(-194.0835466 -222.6215527 147.261178)
(-594.2265392 -133.7062198 583.4367769)
(25.23579566 602.6341247 -237.5836671)
(-221.9963832 -349.2190052 214.9797444)
(281.6726219 665.241652 395.4124727)
(-25.49532316 -66.79033357 105.7023607)
(904.7125267 218.0665798 -248.9002358)
(-634.9592395 -10.88660924 281.3362949)
(-45.35727405 878.6193265 -361.8792755)
(-379.4698417 270.3715724 -9.919693773)
(732.0282737 17.64791699 -158.58772)
(-414.024417 343.7999558 87.28235207)
(-549.3757095 -98.22955726 32.45149453)
(-154.5268857 -106.2105088 -332.7596657)
(352.951896 338.5062256 285.9726414)
(-365.0369732 -300.7363707 -314.5995705)
(-45.94936698 -283.6234115 -65.87622333)
(-672.0946398 -337.8548278 -180.9634713)
(-175.1590345 -506.4712699 -557.7740293)
(-776.5204586 435.0791683 221.9878532)
(288.5362233 308.489082 559.8442051)
(-27.10956763 -315.7687594 -197.5272111)
(541.1706168 70.30740654 52.3192146)
(566.9005981 259.9450927 -438.8222611)
(-543.5157362 253.7795422 -146.6487984)
(379.9739749 -7.397161169 45.56620473)
(95.81448582 55.24254738 6.35579862)
(41.52618003 104.6190684 328.8242945)
(75.07789054 -567.9883113 272.2114104)
(134.2102411 -654.6057283 241.6345515)
(258.0277442 282.4122863 78.83722789)
(16.52285122 -351.2804261 157.3687455)
(-109.6774287 295.4543411 31.46901993)
(-360.8283589 488.581095 -559.5933309)
(-176.0860831 -56.95440065 675.3751813)
(-491.7151913 -265.3671481 -812.9302755)
(159.6029474 44.97558248 -215.3076666)
(-170.3966619 -157.6087915 280.7745623)
(282.4999067 -179.8477708 175.3201021)
(-874.2124549 -84.51758518 258.7332616)
(108.0951375 10.38178378 -79.32800015)
(-1045.164237 562.0351325 248.0527571)
(-140.2759358 -160.2841331 -166.4466481)
(-892.698638 533.7079537 -351.6577222)
(186.5567535 256.878276 304.0546072)
(-635.8950198 -770.4896311 208.4624869)
(-235.3271619 -348.6933102 -168.8640758)
(266.9771686 409.1728089 88.61751955)
(-273.0328406 364.4949001 561.2692826)
(454.854349 9.027292258 -359.1486376)
(-116.2353173 -128.5289306 703.0710984)
(-27.41445557 57.43504056 483.2197202)
(473.6556838 715.7167446 368.5311845)
(9.645484363 740.0397564 44.29675847)
(402.0830984 -115.492988 -774.6745574)
(233.5074308 -238.4216734 5.649156329)
(-507.8652797 -60.72890993 100.2971311)
(-87.92598091 488.4471901 -51.41170117)
(-85.37001749 155.9803974 827.7622487)
(-560.1719713 -291.9584992 57.30843207)
(-57.08363997 417.6185118 191.1274326)
(-200.2991743 206.7030907 450.0030266)
(-175.8131555 113.0570652 -406.974259)
(-228.4491193 277.8778358 93.56787569)
(-43.78044072 -273.2917202 -253.7313349)
(-775.912813 -49.27307756 145.9868675)
(518.2468914 507.1663585 108.4732348)
(173.1606536 -356.1303137 -251.0063098)
(-337.7745107 75.03144321 -137.9798639)
(189.100038 192.7351526 -351.8805012)
(40.90681544 -159.3858472 -270.0248644)
(324.0764007 -62.3326512 390.9989332)
(-468.8211216 45.91407475 -186.6909342)
(92.18129383 275.4558349 -432.5831101)
(-210.6355791 61.90110516 -324.8884153)
(-116.6118749 -337.5423141 -445.9862085)
(175.8947898 374.0913802 -351.7504039)
(58.63020571 -393.3954353 -495.3151184)
(107.8453482 -55.60123064 284.195041)
(-265.5290044 -205.9972886 14.3398198)
(12.73662724 1.438533911 -436.530469)
(-125.0322892 596.6388392 156.7390709)
(-120.5043042 259.9349414 129.7810928)
(147.1469245 825.4584559 -128.7572009)
(167.2783018 -84.86077361 998.8053415)
(85.25930501 -492.5305389 -224.4410299)
(-123.992874 297.0491955 17.33608801)
(233.5628571 -38.79603574 567.0120181)
(120.811593 -838.9477148 7.509796285)
(-484.4722254 266.3739364 103.5259522)
(102.0037467 -191.6559394 -885.1726066)
(-552.5785923 -16.58114783 -463.2330628)
(-34.45983134 207.4174016 -55.33287252)
(166.2114296 71.15403691 570.8187659)
(23.59720617 44.57205105 405.4442215)
(117.7319837 490.479651 109.2245193)
(136.7652284 -165.282619 -528.3422281)
(-341.4052003 207.3684891 44.75560035)
(-418.9719953 13.78890688 26.32902114)
(50.71093264 445.1535923 -119.8440362)
(-174.7965832 342.9162328 -438.8497774)
(-440.2529833 739.3155836 288.6501325)
(37.55826022 -167.946708 -484.6443525)
(-268.6595951 167.9765809 -293.6066929)
(109.1850805 253.0340872 -519.8773339)
(517.7904574 67.47587324 -232.5447172)
(-30.25175153 -73.72875286 64.40497369)
(-376.5195455 356.6128666 529.2668645)
(-29.82346021 245.4608146 -387.2723209)
(-614.1816493 81.99919103 225.0345544)
(941.5685515 179.4554787 -565.9552118)
(-34.63978949 144.8007783 -688.9629305)
(-115.3584178 447.8511799 49.72492912)
(175.2994377 256.2803725 -854.4220546)
(195.6234356 -131.9253247 52.08921439)
(458.5528378 459.0409844 665.0560056)
(106.6983243 603.6678947 258.4127177)
(-238.1658129 297.5107977 -132.5721114)
(668.0230032 -79.56614257 -325.9941478)
(317.5728876 163.7903968 636.3227949)
(429.7889375 383.924662 -175.7418455)
(-114.5959432 -151.5582386 334.4900729)
(255.7281611 598.8205411 339.6645104)
(367.3512054 -699.0567264 283.1867936)
(-558.3603775 -146.6440362 -594.2790918)
(-145.0200725 214.3364367 -448.2174022)
(-208.4129076 -129.482692 -48.13936799)
(-33.24663006 180.2482391 -412.318675)
(187.9082591 -76.10627953 -495.3712772)
(-13.40469381 31.24085555 526.3257894)
(-503.2241515 139.3285218 150.4592064)
(451.8446498 -114.6244896 489.6497868)
(-166.9233053 399.6050809 -222.2504751)
(-641.8587476 -81.55536813 312.0211513)
(138.7207881 87.44118084 -683.4828168)
(255.3101707 356.3733028 -647.2789283)
(-39.71396631 -294.9654646 5.818539313)
(292.5728955 -516.3406281 -196.1768756)
(-37.17753672 63.90118993 -245.3653345)
(-570.6150314 -191.4383942 -294.372155)
(143.5574534 612.8231735 148.6167612)
(-310.7560093 -114.6418292 -310.3134084)
(71.66247898 -446.5096378 -67.77019342)
(700.3904359 528.9846094 389.863457)
(-110.5882819 233.5380658 275.697646)
(198.5107096 6.751267115 533.2812742)
(533.3220498 -465.0827716 122.3145147)
(96.29885958 -154.8151683 302.8478914)
(540.3538665 271.9795426 180.0943072)
(171.8516157 251.8079724 -447.9802246)
(-130.6948448 274.8460069 -299.3488877)
(273.4544802 -130.3406029 104.5511217)
(296.0377705 663.5773825 681.5484192)
(38.22539747 131.270426 543.9082034)
(227.1766839 218.3791885 -295.922389)
(111.5249775 77.258865 -261.7340006)
(755.5202024 -517.4819897 398.317958)
(-63.63004382 130.5691678 79.82794627)
(-408.632886 701.9292771 -175.3069028)
(-502.0809559 -563.1905944 463.0315311)
(-669.6826998 173.7973865 429.4274603)
(34.96915441 280.7336459 366.8672417)
(315.2756733 -236.3367149 -367.0636494)
(-175.7323963 183.45446 480.6607365)
(41.04948785 -207.5140831 -483.0067717)
(-233.8819818 85.7188271 -369.641114)
(322.6110955 404.7242564 477.5378735)
(313.3891698 137.727596 -104.9215726)
(155.4973152 312.6679738 125.5626489)
(-352.0230134 -299.9613735 61.32732146)
(93.40257959 20.61377322 317.5637327)
(128.1595498 81.12012535 392.7601476)
(-473.0908127 810.696368 44.95083439)
(-343.5080145 -152.6172195 -412.164316)
(-11.98778597 1031.39898 29.78112665)
(307.4922208 235.9346561 215.0015561)
(-49.03363062 443.3618072 28.89253389)
(-436.6956404 -63.66439418 -50.17036617)
(189.7224775 268.1225544 129.0305362)
(53.45368398 262.9906643 -34.81283563)
(166.8906476 130.5182582 754.6688268)
(-461.8530618 856.6214218 315.7286794)
(390.1063935 380.1823194 -63.9485572)
(535.3307981 -26.47024538 419.9195143)
(-10.50691871 408.5620482 268.2849552)
(61.28890858 400.6815215 -167.5430238)
(-74.79668932 133.5693398 616.2497779)
(256.4963061 565.2195604 271.1368152)
(189.3429109 197.6060042 -115.4429071)
(-7.665194563 131.1979952 359.4120661)
(152.1949081 -97.66106384 758.8118501)
(-446.1395373 403.4893606 34.64765209)
(549.0024 550.3715897 723.53557)
(-190.3587493 261.0187087 -144.3494962)
(-146.7464989 10.78547224 308.3656041)
(386.0162963 -157.7630059 397.6258817)
(-289.3614181 -68.1707631 -368.0331952)
(-82.25320385 -637.3152468 -907.2532468)
(-382.2688166 102.987487 -259.2517425)
(-305.7705973 526.1564561 99.16651109)
(-9.966286675 -303.2033344 -216.1563441)
(-160.1412729 -395.2331596 -573.7627364)
(-462.2015874 477.9673246 45.94067506)
(-203.3212756 475.9645257 -716.9916417)
(-109.1045454 61.12155527 182.0299838)
(-84.25728564 602.1794011 -269.360826)
(821.9289196 48.25600725 763.6043211)
(219.9147766 -62.60590596 -432.2595042)
(231.4227566 160.5931319 -254.1759534)
(216.0349365 -503.4479046 -121.6373298)
(-139.49195 123.2721426 -523.3535845)
(-7.755684063 -655.1139552 -138.8689804)
(-27.01788307 -219.434343 -312.2283918)
(-636.5047193 -188.9693751 -464.9319141)
(370.0465842 421.3718279 67.36560284)
(475.9570102 -110.9474364 -18.47490186)
(340.6095323 -161.2418428 198.3401063)
(-184.7606759 -421.5172461 -134.2518952)
(236.1477181 -257.8473814 168.3999898)
(-253.8603777 -56.87436027 105.4653878)
(-298.2007763 -266.8921027 -211.3331877)
(274.0579322 -139.4163085 -258.4731182)
(-709.1154358 385.4031342 303.8853651)
(116.4095016 621.5534823 157.679341)
(-252.4941979 515.4882231 -280.0834312)
(-22.80217163 254.103402 540.6937906)
(128.172691 -141.9116197 268.2963904)
(56.43100206 -74.32460462 -217.9335652)
(284.0974449 -313.2069539 361.5833969)
(-355.8164085 265.4494579 -9.97357504)
(-296.5576642 250.4746774 262.9101969)
(-46.28059425 647.3238086 -392.1200325)
(-187.2575008 307.5735671 -358.1800017)
(660.3655487 255.7794338 -184.7833425)
(-81.20725451 225.5036767 450.7351256)
(-51.10116085 -35.14770909 -668.2639694)
(110.5609623 -145.5117849 180.0396653)
(-347.9765865 -453.8602687 -230.9774128)
(-254.1459461 791.2705752 -577.915785)
(293.7439736 295.301935 -8.457515287)
(-292.0139794 -151.1827213 418.006308)
(-7.771353175 87.67626776 -415.3484207)
(6.760491897 -75.70159295 -705.3022467)
(-481.334094 -710.1918319 -408.3661734)
(169.2471205 -204.8298916 -164.9663754)
(-111.313002 449.9564212 -278.7139213)
(-244.6849299 -487.3010758 73.80449135)
(-57.49674389 -480.2236402 12.64784668)
(-91.35606043 -108.4981622 65.87935482)
(-374.9474369 130.3499809 -590.2185865)
(-529.8191998 469.0355393 -540.5547681)
(-131.3613864 516.965808 -471.9427522)
(100.3313342 -283.0900037 -92.78622479)
(397.6093499 295.0065601 204.4621214)
(77.16270934 260.2539184 -110.6674264)
(-53.24288227 213.1128077 96.17159949)
(-260.981178 264.5878531 147.5768854)
(-465.7959262 270.7007153 71.05325858)
(384.9567236 566.9850456 -642.6789987)
(148.1762891 22.77777185 483.0400342)
(22.62216253 340.8401748 -833.5507516)
(-299.1911771 161.7329705 -308.5117207)
(304.2160439 -88.70072543 211.6755125)
(118.4369019 -24.3247448 -292.6941423)
(174.9252692 239.6091887 475.6958554)
(-243.0981909 663.6617945 438.5219783)
(56.57993611 -395.4226953 -78.32840987)
(844.4877324 -47.87872958 406.4008005)
(219.4842757 -426.3156719 298.082342)
(210.9330937 -167.8774677 94.96804723)
(-212.4454479 -16.51975294 56.16740226)
(-117.0508255 -462.2475296 -29.21488311)
(-466.5608971 333.3377003 -101.2605602)
(70.94002868 1036.233266 -194.8672915)
(-302.840623 -408.9144352 -572.6894053)
(-399.9471021 -53.24476542 551.7479289)
(-521.4929246 213.3750675 212.759803)
(105.8565235 58.94399096 288.0006325)
(-99.46831665 154.7725362 367.9023106)
(790.0380703 147.2377861 484.2334584)
(-327.7543539 -123.4174762 272.6423354)
(591.4347991 226.5814419 393.0501635)
(120.8720681 519.9401099 433.932728)
(128.0619393 -77.5709655 573.6286224)
(66.68123824 316.6793528 -126.0670928)
(-296.8078825 28.06364026 -56.57345404)
(-140.8099271 -82.16466696 538.0348985)
(-306.1175508 143.0162887 -132.7610284)
(-507.4607372 971.3953845 -346.5266272)
(-384.0753916 193.2663683 116.9849921)
(-543.0784408 -117.9261903 -66.64913977)
(17.80065147 132.2155138 -290.169369)
(169.9250283 459.2345346 -148.3909453)
(-386.4853809 164.9102675 168.0705683)
(390.9091053 -418.4291112 -372.6794153)
(627.2996805 557.8152822 9.641484281)
(673.3202029 -853.2268219 376.6721741)
(153.2659053 23.90787946 -358.5042748)
(245.5714972 316.6668674 -73.53459044)
(853.6045882 61.60471084 274.3006158)
(-27.69351935 570.7585706 280.7188127)
(-209.1418312 -254.9618716 -62.90332146)
(16.5670329 -910.9967387 685.5743314)
(81.71087622 -56.05956647 796.6602585)
(-399.6477388 73.41362712 216.8520893)
(117.4117563 154.4292291 -51.43932283)
(684.7303938 -135.2535001 -440.3547688)
(329.0838476 -593.0595063 89.16595145)
(-304.764954 -437.6559729 405.5739468)
(-430.4013105 -9.688285916 -199.8792037)
(337.4446893 17.13004948 -11.70391869)
(-510.0897177 -345.9028316 104.6544546)
(126.9580148 60.12866328 -489.3085133)
(221.0672319 -72.5151137 -12.8854658)
(156.6208515 -328.8277537 164.5682875)
(-211.8741533 -391.19777 1130.92211)
(-326.7970331 1008.688289 -198.5822071)
(502.9659872 350.1283623 -362.3704679)
(-130.5617588 380.4987885 -254.3914309)
(-69.28675294 635.0608902 69.85006993)
(-119.3661742 129.4515697 18.99790752)
(-251.9803903 -77.70310871 13.79779065)
(-14.54031992 -272.245731 -0.2247185207)
(-182.4875537 -48.63655205 744.1907807)
(3.997617443 -177.7963046 588.8280327)
(-1095.300451 409.1676892 270.957449)
(187.5343204 -349.0098351 -21.16042773)
(215.1167357 20.55665019 -204.1928683)
(-23.14336097 29.09282717 -397.8742594)
(-80.14726939 -81.29024047 -820.8458823)
(-85.7457386 -183.4448893 -297.3783696)
(258.1575825 -372.155455 228.8934538)
(10.11853266 -35.78576302 -171.1186308)
(113.1455457 -349.9823967 -176.9620215)
(-0.3133200237 -43.62406181 113.0878446)
(-348.482756 301.6028271 38.40263864)
(340.1020184 -316.0604438 -438.1687072)
(236.8966357 -869.2549691 182.2121854)
(-925.4427153 768.4422604 -41.75415452)
(217.7546809 122.3284449 296.74864)
(-158.4626324 -245.7245666 -217.8305841)
(-343.2918551 -97.82929698 134.1825703)
(-382.8734103 -107.3238537 158.6193044)
(-3.326628621 203.0756988 200.0662062)
(-442.9157341 216.0422514 215.5851894)
(-730.406487 130.2226692 180.5116358)
(330.2970816 -754.6902727 487.9599047)
(307.0045912 0.7233672341 -757.8543405)
(448.14957 276.8649843 212.8634843)
(-139.742116 -222.1587717 85.58918491)
(578.0665714 112.3593685 -47.89046058)
(349.0871047 -265.6911143 -529.2851608)
(-387.2606536 -124.4163513 17.34836962)
(55.84643169 523.5407609 448.1721186)
(-183.4641125 112.9449533 516.5668104)
(-7.049970242 108.1698705 245.3854673)
(-226.9823366 -389.6292917 -313.5904133)
(2.59949708 303.1110168 -916.6260729)
(-351.3863891 203.4392876 7.785607909)
(-15.27887697 -651.5974809 -7.458994459)
(-281.006495 111.0297084 52.70821656)
(65.70845325 287.0506231 -326.8779549)
(-336.2972615 456.7355791 -178.0517251)
(-363.1089996 -586.9581916 268.4634049)
(-254.8339685 -618.5443224 -88.50494882)
(96.95407768 260.8050317 -535.9865626)
(-324.2959493 -110.9332191 526.9665725)
(24.64970185 23.84468159 -103.6541831)
(-83.62916845 299.3418815 246.3032662)
(-511.7868048 -368.8643604 -238.1178894)
(-283.7294063 -206.5851627 884.5991059)
(648.1037901 229.1737423 -510.1874236)
(12.20239896 -222.3449092 397.176291)
(-247.8587692 490.0594601 303.4528389)
(-401.7746711 689.8262393 -392.4320286)
(-295.2253791 132.2182689 -214.2444223)
(-494.2174771 700.9309207 -349.4645778)
(-939.6268843 33.68115718 254.6150063)
(-622.1153014 -205.7680418 -56.84529312)
(552.9632154 350.3649732 -140.7766251)
(21.32440486 78.7215841 -15.93335742)
(296.7836681 484.0320551 -74.15110221)
(-216.0758792 295.5488536 -24.84242744)
(-312.8276811 473.0896161 -281.8780441)
(571.525101 -367.5826151 51.85225327)
(-74.15761575 53.04492434 -97.6958346)
(907.514693 -485.4273803 155.0433788)
(77.45795459 261.6463902 308.5385921)
(71.12511786 92.89551086 581.3498606)
(104.9779885 81.92193687 391.3384697)
(-565.7904987 529.0778361 -185.8599337)
(24.02183671 41.80011171 -204.5209342)
(98.33611638 -31.06435054 495.9865285)
(-401.0356761 82.60113834 -455.4176491)
(368.336365 49.16460165 -232.692908)
(-391.1936055 -110.5053157 -381.9920556)
(441.057432 377.2178093 91.68029658)
(794.8475401 244.8232167 303.5165077)
(-66.84133622 178.5728863 -21.26823549)
(-69.7462691 -489.6174299 416.082324)
(-364.9148623 -93.20873028 32.98836444)
(234.0394735 244.9258132 -258.2886564)
(278.0180727 492.9857274 157.9453468)
(-48.6490829 120.4852969 -270.9873257)
(-670.1757879 146.9499438 117.1049153)
(102.886494 185.3503796 -580.1503392)
(-153.3587189 -69.26540878 755.5750236)
(157.682411 -285.9080355 147.6467396)
(322.5957633 111.6237613 -318.2861024)
(101.1576244 -588.4435789 180.2075733)
(79.79385519 640.5125064 201.7147622)
(184.368821 -317.1349588 -594.3621007)
(-383.5369489 43.32176095 -527.4150471)
(870.0398576 753.7868473 202.3579351)
(-51.03651028 143.6144262 176.4643837)
(377.1354966 -331.7470872 162.6290196)
(746.8220304 -249.235035 -248.9005026)
(-343.5922043 -32.74372349 421.1484132)
(-76.19925688 31.04991802 47.2357356)
(-1145.087532 -43.10155043 -253.9367525)
(349.7319467 -175.6953037 202.5769882)
(-64.16106948 -522.426113 205.4123323)
(-357.3785031 -182.4950791 375.51689)
(-6.207172967 -67.1220502 159.3972474)
(-287.7046275 187.4665517 -157.7456234)
(-642.9735972 220.4891787 -293.3250017)
(15.57547691 -74.15152231 -4.417243249)
(101.3552066 -154.4120321 -138.7247666)
(-146.1611039 229.6365543 498.2298135)
(91.66092587 64.26736744 208.009365)
(519.2441012 -635.7946959 -302.7424865)
(-1049.429525 -79.96979996 254.3037542)
(866.8584196 645.9411078 -373.5465567)
(-334.4673503 101.5526714 163.9916682)
(297.9164416 -920.046409 -217.420866)
(-578.4349754 -252.730004 -211.5011621)
(-473.8459521 -223.1191407 42.36638709)
(138.1769288 1166.481674 888.8777763)
(175.9103386 517.2611898 36.49797444)
(84.38575406 158.8573647 -64.67556821)
(-140.4985413 -128.2730162 -126.1026994)
(270.3978065 -460.7674253 -384.4624167)
(215.5612283 431.166643 -209.9027046)
(-251.0370606 46.90904846 -66.14627642)
(-265.3247087 -407.3092888 -375.2517788)
(-777.2667451 623.0097044 123.1002824)
(-31.92694647 123.7365382 482.0419421)
(319.1307907 128.3892251 -304.7619797)
(432.0378733 225.7293063 251.1741929)
(-250.3237347 71.12007115 -304.0015197)
(-206.1627648 -345.3712164 -143.690974)
(-625.6243783 613.5051242 -403.871967)
(-186.1941083 920.0479586 -42.29867552)
(110.538125 -39.81267394 -256.3723859)
(-52.16635115 162.5475511 -298.8162758)
(-297.1380797 605.9812977 -656.7623283)
(330.2178395 31.24622389 90.47011776)
(-306.7409947 14.4600145 551.6295358)
(623.3036618 158.3332773 -547.4606259)
(-266.9713186 -128.9282871 -199.1067758)
(-372.6043094 -606.1807055 160.4308791)
(-68.68675801 508.0663451 -14.71021701)
(-411.6213183 -67.10725712 255.4989431)
(-0.4658723325 -79.16061922 215.1906648)
(-831.1537669 178.4404399 32.3423838)
(-285.71785 166.4077061 -304.8989436)
(454.4022018 706.3606808 -4.199744806)
(-196.1582634 467.9659512 -486.9893678)
(-170.2432224 -112.0866919 646.3153545)
(-553.3639412 1006.482876 -132.1062823)
(-520.9156381 -237.3871497 -678.4653283)
(45.58542853 319.1103273 -321.0165512)
(-119.689673 -537.5964131 -88.16747031)
(-216.9639653 -203.3448497 605.7582393)
(36.96066644 48.47169326 -331.2757966)
(385.7163896 -1.715202593 -308.8453291)
(59.53176858 -79.05226966 -532.6209187)
(-77.58530166 -318.6992571 554.4313901)
(-136.9241512 -233.9113463 653.9165448)
(617.0285809 -25.15182907 -268.5226569)
(-11.88286166 378.8146733 462.2181889)
(70.52496521 -34.08573117 -49.98691727)
(138.8711692 -109.8049194 -363.6644387)
(123.2387997 0.7387299761 -404.7973259)
(203.7555947 247.4154416 -827.553154)
(-510.8408743 -328.6859541 -417.7674765)
(-23.03490575 107.5098615 785.1411905)
(792.5488818 49.6931466 685.7252389)
(-397.2432206 -321.5484864 296.5998834)
(290.1163598 141.170049 -499.6928456)
(384.117809 741.3228195 92.42454195)
(679.0941714 35.13742887 -94.53139762)
(828.7565926 562.2033231 643.4792625)
(314.1174473 552.4297138 -192.7686442)
(68.02913252 -294.4117585 -630.6561137)
(312.4643322 696.799327 -516.6981428)
(-308.0303627 -148.3549244 145.0491469)
(387.6494241 2.946316434 -252.0590641)
(657.3308672 497.0103053 209.901221)
(-188.4255192 635.8786901 -281.2519906)
(115.7273393 62.18836646 641.8176335)
(-446.2138435 141.9550137 306.1136461)
(99.72803996 -615.2963316 321.6822739)
(-603.0229153 460.0949784 -467.8547124)
(427.0327579 -464.7398161 128.6445181)
(-163.8023541 -402.958262 428.2554875)
(515.9976468 -64.12250408 161.1629511)
(190.6224102 125.7364256 112.8955922)
(397.1856993 462.2225143 -512.9657738)
(-440.7533338 -87.3702437 251.7319111)
(-121.9059974 -91.82730009 526.582415)
(-84.01416102 -81.17959546 -586.2180971)
(-666.6157089 494.0862063 88.38065663)
(1008.823694 42.59042171 94.47685548)
(-441.5595309 152.4877932 198.2326697)
(-4.40707819 -629.5575097 531.3815139)
(565.2482375 258.8633297 -107.2968948)
(632.9402078 -40.19265388 176.1444399)
(-461.4889926 -386.6204991 488.7500942)
(220.2878968 -18.1343375 698.3957203)
(-129.3955669 443.0739168 -43.172299)
(105.9976345 87.79464413 -428.6415457)
(-415.5822535 -119.0240152 -517.4797761)
(-191.5636444 -294.7011474 -437.0845091)
(125.8800043 305.7103732 646.0976169)
(83.42375715 505.8369733 -141.409288)
(-875.6807476 -44.21881398 406.8458624)
(222.8551137 565.4491381 112.7159192)
(223.4519705 -368.3529209 110.9855074)
(364.8130963 164.9405546 70.5908111)
(68.41888465 540.8976841 -366.744047)
(-416.4337242 -91.71673875 332.460415)
(341.3623676 -230.9933634 -189.7706725)
(-296.5774216 319.2862489 -529.1807748)
(-471.094903 -133.8046565 247.5085358)
(-407.3440714 353.8834704 348.8631359)
(422.2739557 112.3013917 -399.9371208)
(595.190063 253.68227 131.6093219)
(88.92821853 385.2805155 -106.6782447)
(272.1657449 -52.57408555 515.7628788)
(-543.116747 -191.5842508 518.0541781)
(-243.8421935 225.0434295 157.3833281)
(-15.95268368 -8.909320169 -292.1109467)
(64.23555093 334.2230142 -172.5192708)
(245.636741 689.9254182 -126.1733353)
(379.1465986 -559.4898563 -158.2928378)
(415.375702 43.02060189 295.1777039)
(-211.2730029 -89.06916709 128.4099086)
(140.9163634 96.73969363 -430.7790487)
(-716.7339324 -487.6511815 -324.6459506)
(-184.6065315 -238.3435502 163.6522367)
(-69.75165565 -319.5005961 -397.8696252)
(-113.3568415 -23.05946647 89.75764613)
(40.12848541 88.98024441 -131.2865786)
(-155.7238208 96.73143995 -254.5928537)
(156.6012785 317.1183223 -234.8977956)