/*--------------------------------*- C++ -*----------------------------------*\
  =========                 |
  \\      /  F ield         | OpenFOAM: The Open Source CFD Toolbox
   \\    /   O peration     | Website:  https://openfoam.org
    \\  /    A nd           | Version:  7
     \\/     M anipulation  |
\*---------------------------------------------------------------------------*/
FoamFile
{
    version     2.0;
    format      ascii;
    class       volScalarField;
    location    "0.01";
    object      internalEMean;
}
// * * * * * * * * * * * * * * * * * * * * * * * * * * * * * * * * * * * * * //

dimensions      [1 -1 -2 0 0 0 0];

internalField   nonuniform List<scalar> 
1000
(
2.24866
2.12904
2.16699
2.26535
2.24791
2.20441
2.29139
2.26161
2.40969
2.34075
2.31459
2.2975
2.28194
2.26253
2.24579
2.24006
2.3434
2.31992
2.25172
2.27511
2.24722
2.27365
2.21843
2.2255
2.26472
2.33936
2.28179
2.33064
2.27034
2.27038
2.22125
2.25847
2.21743
2.2792
2.30055
2.29487
2.27382
2.2753
2.2811
2.32234
2.2454
2.2961
2.29947
2.21883
2.21191
2.19426
2.23694
2.24585
2.20601
2.15788
2.22873
2.2556
2.28719
2.363
2.31979
2.30598
2.31497
2.24537
2.27059
2.23323
2.25923
2.24434
2.25675
2.23466
2.2847
2.29647
2.28194
2.31086
2.34885
2.30384
2.31689
2.2941
2.31774
2.26614
2.18738
2.26878
2.26667
2.32179
2.27035
2.2772
2.35137
2.27196
2.27207
2.29559
2.27252
2.1951
2.26143
2.25386
2.18563
2.11335
2.25316
2.24163
2.18283
2.21677
2.18756
2.16356
2.20811
2.30335
2.19873
2.27161
2.42114
2.31853
2.28729
2.20894
2.32419
2.37804
2.30777
2.22634
2.37007
2.2381
2.37214
2.33261
2.2549
2.28934
2.31008
2.27235
2.25831
2.32508
2.22295
2.25609
2.22183
2.25278
2.27264
2.2126
2.28874
2.28447
2.24266
2.20899
2.21423
2.27965
2.14245
2.16265
2.22614
2.25108
2.3025
2.27075
2.20891
2.20677
2.18689
2.29234
2.29922
2.29761
2.17808
2.16781
2.18692
2.21129
2.29345
2.23157
2.27564
2.29898
2.25681
2.27604
2.24034
2.3482
2.35726
2.28042
2.27345
2.25297
2.2573
2.24184
2.2708
2.21658
2.30635
2.20621
2.27884
2.2909
2.29651
2.23476
2.19724
2.21024
2.16661
2.33027
2.22456
2.23472
2.17806
2.25431
2.28505
2.19615
2.17223
2.19777
2.25111
2.16311
2.20486
2.1245
2.17434
2.14976
2.26225
2.17579
2.1742
2.13253
2.12066
2.23728
2.1789
2.11724
2.19367
2.24214
2.15218
2.17145
2.1745
2.23216
2.21121
2.15902
2.19588
2.22333
2.25286
2.08707
2.15765
2.13312
2.11121
2.09543
2.09588
2.101
2.15435
2.20308
2.20014
2.19507
2.1578
2.22767
2.11163
2.1839
2.17915
2.09599
2.12141
2.14886
2.1647
2.23407
2.22926
2.12474
2.07602
2.13813
2.06304
2.1205
2.19005
2.11889
2.19325
2.16363
2.09096
2.17369
2.06613
2.13931
2.09485
2.14378
2.15028
2.04381
2.13772
2.06352
2.16008
2.10516
2.08299
2.04693
2.08623
2.14919
2.01125
2.0764
2.04402
1.99356
2.03095
2.02009
2.00074
2.05904
2.08742
2.13084
2.09918
2.02599
1.9342
1.98025
2.03896
2.00521
2.0115
1.98473
1.99657
2.00053
2.03648
2.0526
1.99437
1.95183
1.96159
2.00109
1.98176
2.04523
1.99546
1.96877
2.03014
1.93315
1.96955
1.96827
1.99285
2.03543
1.95303
1.88521
1.84163
1.95276
1.99456
2.01037
1.98094
1.99026
1.95507
2.00807
1.9446
1.99476
1.96453
1.98209
2.02444
1.99066
1.96631
2.00102
2.05075
2.08281
2.04756
1.89149
1.91369
1.84604
1.91944
1.92021
1.84729
1.96388
1.88315
1.91237
1.89915
1.9064
1.93573
1.85003
1.88688
1.93623
1.82207
1.79895
1.87163
1.8805
1.8044
1.96529
1.90701
1.8675
1.88602
1.83744
1.85384
1.8896
1.89293
1.85456
1.86633
1.83106
1.84178
1.79679
1.81486
1.81344
1.7283
1.77854
1.81741
1.7407
1.7502
1.7878
1.75736
1.81887
1.75352
1.73862
1.72818
1.75257
1.68583
1.71911
1.68605
1.72233
1.75521
1.76699
1.68803
1.71387
1.7363
1.76906
1.68777
1.62864
1.67069
1.71826
1.74819
1.72229
1.67819
1.65808
1.67737
1.64023
1.63935
1.67976
1.68554
1.66113
1.60036
1.61523
1.70939
1.71474
1.68799
1.60133
1.62042
1.6207
1.69134
1.62945
1.59504
1.53895
1.57853
1.57823
1.55139
1.55666
1.52855
1.58142
1.57442
1.64362
1.5628
1.56562
1.61654
1.60309
1.58031
1.57609
1.54305
1.61739
1.58059
1.53525
1.5168
1.54741
1.51033
1.50958
1.50772
1.50871
1.53754
1.52006
1.51702
1.54283
1.54587
1.46759
1.48447
1.47392
1.46445
1.51734
1.47228
1.48855
1.50746
1.46331
1.45391
1.39157
1.41303
1.44155
1.41685
1.43731
1.36633
1.41575
1.43668
1.4705
1.50719
1.43949
1.43302
1.44881
1.42939
1.44291
1.46121
1.39834
1.33005
1.34768
1.33257
1.36185
1.36302
1.37795
1.36918
1.33061
1.3514
1.39813
1.36729
1.36881
1.35084
1.28304
1.28157
1.32926
1.29851
1.31494
1.36777
1.4136
1.31209
1.32071
1.30595
1.32167
1.32905
1.3365
1.32526
1.31092
1.30507
1.35915
1.29673
1.31879
1.34136
1.30556
1.2872
1.28187
1.28356
1.2798
1.29444
1.34497
1.32353
1.2885
1.2809
1.2317
1.20934
1.27008
1.27461
1.27454
1.21707
1.18384
1.20107
1.15772
1.20026
1.18062
1.25199
1.26104
1.23694
1.25825
1.22188
1.16098
1.24755
1.2344
1.23643
1.21254
1.18048
1.1798
1.2066
1.22427
1.19867
1.22833
1.1912
1.15569
1.15476
1.17387
1.13557
1.14375
1.10267
1.16236
1.10947
1.12115
1.15106
1.14882
1.14685
1.18607
1.17005
1.13054
1.16982
1.20289
1.15307
1.16753
1.16659
1.14699
1.17069
1.14722
1.14781
1.15705
1.15027
1.17799
1.23102
1.14425
1.16325
1.18816
1.24699
1.25567
1.23124
1.15724
1.16662
1.19018
1.14805
1.17922
1.13365
1.09733
1.13529
1.14657
1.08931
1.12943
1.13688
1.13376
1.15309
1.1111
1.12971
1.17742
1.11064
1.08463
1.11658
1.14295
1.15163
1.10104
1.13361
1.12103
1.09285
1.10649
1.08277
1.09018
1.09443
1.15271
1.08587
1.01743
1.07632
1.07067
1.08288
1.11979
1.11394
1.16344
1.13949
1.17875
1.13963
1.14248
1.10881
1.14047
1.18391
1.14283
1.11472
1.0853
1.11583
1.16357
1.08189
1.09366
1.12232
1.05903
1.0901
1.10824
1.19793
1.16851
1.07345
1.07582
1.07783
1.07031
1.05582
1.06253
1.15192
1.14605
1.18631
1.16783
1.11791
1.06154
1.05213
1.05666
1.1221
1.15233
1.07258
1.07836
1.06813
1.01716
1.05281
1.05313
1.11621
1.11173
1.06247
1.12057
1.10656
1.112
1.10305
1.0657
1.09446
1.05653
1.07466
1.04483
1.04408
1.01063
1.0059
1.01005
0.954873
0.988325
1.03211
1.06598
1.03854
1.05897
1.08127
1.09346
1.13507
1.0552
1.07959
1.01928
1.07566
1.04113
1.04176
0.998769
0.988241
1.05588
1.02606
1.03043
1.04537
1.06831
1.03548
1.00199
1.00562
0.996985
1.05414
1.06114
1.01751
1.10753
1.09539
1.02225
0.943654
1.03294
1.00249
1.04492
0.994821
1.0485
1.05692
1.05124
1.04313
1.00651
0.988522
0.955737
1.01736
1.0191
1.11229
1.09057
1.02637
1.07869
1.04128
1.07369
1.0054
1.01334
0.994554
1.02895
1.05611
1.01365
1.06252
1.07753
0.960736
0.985919
0.992657
0.967928
0.963169
0.984008
0.903153
0.914553
0.964981
1.00874
1.03418
0.94037
0.916433
0.935089
0.976714
0.998087
0.998083
0.945271
0.976367
0.978096
1.01049
0.955481
0.92372
0.950485
0.98398
0.949577
0.917722
0.952912
0.956641
1.02716
0.949444
0.977337
1.04747
1.02288
0.990536
1.03278
0.990606
0.999482
0.952896
0.956912
1.00946
0.972776
0.947154
0.922223
0.893032
0.941564
0.947094
0.936279
0.908755
0.904311
0.964985
0.927002
0.956839
0.855062
0.919642
0.905584
0.898898
0.95659
1.00302
0.987135
0.920238
0.907391
0.907106
0.955959
0.930765
0.892594
0.938586
0.895367
0.905139
0.896026
0.93907
0.967206
0.934321
0.967356
0.898613
0.87312
0.923211
0.867387
0.915701
0.887888
0.854452
0.899816
0.907325
0.94334
0.907897
0.943573
0.882087
0.876383
0.898047
0.909351
0.918181
0.894193
0.914671
0.915276
0.888848
0.84675
0.868595
0.894375
0.950456
0.89739
0.890467
0.902761
0.968956
0.933869
0.925564
0.940967
0.85894
0.893349
0.914455
0.876989
0.893003
0.898246
0.949038
0.955454
0.898299
0.896434
0.891319
0.861549
0.885602
0.874261
0.846013
0.881708
0.814228
0.870825
0.862979
0.915714
0.876816
0.854822
0.815228
0.811254
0.817385
0.872382
0.826848
0.823349
0.812587
0.807319
0.829063
0.854904
0.865402
0.838917
0.892395
0.874746
0.855783
0.90338
0.876496
0.860802
0.909628
0.901866
0.856195
0.800234
0.766793
0.762755
0.796981
0.79947
0.793804
0.765369
0.782695
0.78782
0.782239
0.819403
0.851138
0.824202
0.824117
0.823688
0.852284
0.826705
0.869303
0.779003
0.839323
0.81617
0.807044
0.821748
0.80684
0.794255
0.865927
0.815768
0.838017
0.826422
0.817505
0.822908
0.795158
0.778916
0.760664
0.765638
0.795786
0.807126
0.812342
0.805351
0.795231
0.77219
0.757046
0.80944
0.828808
0.826945
0.835634
0.795894
0.7687
0.767509
0.797145
0.817014
0.821681
0.842375
0.835598
0.880736
0.821186
0.819986
0.811074
0.810423
0.821161
0.795262
0.879762
0.81188
0.750103
0.760624
0.749201
0.713677
0.741873
0.751519
0.744662
0.754162
0.758631
0.794151
0.785265
0.77005
0.836966
0.799728
0.736132
0.827546
0.825794
0.726682
0.762924
0.779401
0.75503
0.719329
0.691647
0.748503
0.733761
0.781583
0.711315
0.726017
0.70056
0.762146
0.776865
0.764031
0.752145
0.730208
0.731455
0.711118
0.720174
0.670094
0.694344
0.699261
0.679811
0.677551
0.741845
0.768636
0.744449
0.717161
0.730352
0.723442
0.760614
0.765274
0.740614
0.74609
0.724489
0.730906
0.6485
0.664126
0.689656
0.782679
0.720436
0.71187
0.757554
0.765285
0.811102
0.814069
0.766374
0.779079
0.729488
0.76574
0.775166
0.773558
0.758944
0.778013
0.776727
0.755236
0.720431
0.708851
0.728152
0.752507
)
;

boundaryField
{
    sides
    {
        type            symmetry;
    }
    empty
    {
        type            empty;
    }
}


// ************************************************************************* //
