/*--------------------------------*- C++ -*----------------------------------*\
  =========                 |
  \\      /  F ield         | OpenFOAM: The Open Source CFD Toolbox
   \\    /   O peration     | Website:  https://openfoam.org
    \\  /    A nd           | Version:  7
     \\/     M anipulation  |
\*---------------------------------------------------------------------------*/
FoamFile
{
    version     2.0;
    format      ascii;
    class       volScalarField;
    location    "0.01";
    object      linearKEMean;
}
// * * * * * * * * * * * * * * * * * * * * * * * * * * * * * * * * * * * * * //

dimensions      [1 -1 -2 0 0 0 0];

internalField   nonuniform List<scalar> 
1000
(
3.43869
3.39431
3.36481
3.41451
3.41305
3.33411
3.43372
3.41952
3.49371
3.42224
3.469
3.34753
3.35933
3.43749
3.39448
3.42236
3.47985
3.43591
3.41808
3.44384
3.44581
3.37743
3.42701
3.4822
3.42076
3.41441
3.41096
3.49903
3.35343
3.33649
3.38113
3.3943
3.3432
3.37336
3.37069
3.37679
3.37802
3.43517
3.40908
3.42936
3.39052
3.3925
3.38771
3.39624
3.42304
3.41286
3.44444
3.42021
3.39782
3.35391
3.4561
3.45736
3.47277
3.42485
3.48445
3.51666
3.41995
3.4158
3.40529
3.38302
3.38348
3.39777
3.3939
3.42021
3.43738
3.47205
3.37917
3.38716
3.40598
3.42137
3.4493
3.44509
3.42452
3.40492
3.34283
3.41366
3.39242
3.39243
3.35495
3.40454
3.38879
3.39586
3.42582
3.39473
3.42063
3.34658
3.4166
3.39507
3.30619
3.27592
3.35228
3.35207
3.37542
3.35404
3.37813
3.32226
3.365
3.40109
3.35176
3.38858
3.43487
3.39605
3.38464
3.3688
3.43291
3.45062
3.39566
3.40411
3.46114
3.41029
3.49697
3.46295
3.35226
3.37355
3.41152
3.40492
3.3808
3.46663
3.39951
3.46913
3.39366
3.42383
3.4649
3.39555
3.45489
3.34204
3.41403
3.36431
3.40354
3.41124
3.34582
3.35683
3.39844
3.37222
3.43269
3.39594
3.41546
3.39388
3.37205
3.45384
3.47058
3.44089
3.41152
3.33166
3.34967
3.36228
3.39081
3.36708
3.4062
3.43461
3.34102
3.38678
3.39482
3.3647
3.42133
3.33711
3.4043
3.39225
3.30014
3.3518
3.42024
3.36969
3.41122
3.38405
3.43788
3.44569
3.37648
3.43016
3.34032
3.41339
3.33975
3.33866
3.35763
3.32842
3.29577
3.351
3.30158
3.35255
3.36533
3.36291
3.35124
3.24476
3.28179
3.27644
3.22167
3.25621
3.29596
3.25179
3.32159
3.28064
3.27203
3.32169
3.3278
3.25932
3.28776
3.28834
3.26142
3.31599
3.32884
3.37899
3.32055
3.2473
3.25293
3.32213
3.31729
3.2084
3.28001
3.23912
3.24693
3.27116
3.23816
3.21453
3.26165
3.26692
3.27923
3.22852
3.24758
3.26084
3.25891
3.26421
3.26473
3.19719
3.21795
3.17714
3.20469
3.2925
3.22255
3.21916
3.21781
3.22869
3.17975
3.23973
3.21814
3.16059
3.24917
3.16553
3.21164
3.16403
3.15011
3.19577
3.17522
3.184
3.12616
3.08155
3.17084
3.14561
3.14428
3.14519
3.15837
3.0992
3.17467
3.16486
3.06543
3.09555
3.14478
3.12014
3.11641
3.11681
3.08794
3.06311
3.06571
3.08038
3.05161
3.06408
3.033
3.02856
3.07534
3.01114
3.10364
3.08063
3.07222
3.00266
3.04077
3.08677
2.99706
2.99902
2.9834
3.05769
3.0584
3.09115
3.02112
2.98256
3.02636
2.98427
2.98421
3.02263
3.04378
3.00447
2.92526
2.95946
2.934
3.01119
3.0247
3.0187
2.98326
2.99742
3.00884
3.01452
3.00311
3.0491
2.9438
2.91435
3.01045
2.91245
2.94082
2.95184
2.97861
3.02636
2.97726
2.88077
2.9216
2.86669
2.89168
2.8755
2.86255
2.92918
2.89819
2.93233
2.88976
2.86257
2.90453
2.85215
2.87568
2.91363
2.82415
2.81306
2.84914
2.82699
2.78489
2.87511
2.87901
2.81871
2.82947
2.79292
2.76135
2.79
2.83577
2.73538
2.74638
2.79763
2.7646
2.70716
2.72373
2.75139
2.76595
2.761
2.72408
2.74585
2.7139
2.7544
2.72978
2.79308
2.72388
2.72942
2.75602
2.6771
2.68093
2.70685
2.68243
2.74283
2.73596
2.72723
2.63826
2.67214
2.65898
2.64475
2.61795
2.60521
2.60408
2.6743
2.64492
2.61653
2.57762
2.53612
2.59836
2.5999
2.5792
2.6256
2.57689
2.62314
2.56789
2.54588
2.62411
2.62975
2.55353
2.53273
2.52449
2.58203
2.61832
2.5544
2.53009
2.55117
2.5519
2.55746
2.52372
2.50282
2.46453
2.45265
2.4521
2.47844
2.50143
2.43667
2.4458
2.54007
2.48483
2.40612
2.43473
2.50783
2.47803
2.43594
2.42755
2.45386
2.48754
2.44382
2.40537
2.37121
2.45167
2.37773
2.37577
2.38719
2.40636
2.34611
2.3256
2.3228
2.34094
2.31903
2.3248
2.301
2.33325
2.34475
2.31624
2.3409
2.38131
2.29451
2.29493
2.27574
2.27373
2.28748
2.32349
2.29844
2.25354
2.28644
2.30412
2.3
2.23993
2.25138
2.31221
2.24874
2.19344
2.21034
2.18945
2.21063
2.17409
2.19398
2.18851
2.14542
2.13756
2.20959
2.23685
2.18425
2.16496
2.1506
2.14771
2.14863
2.18039
2.12039
2.17266
2.19061
2.11262
2.18132
2.15107
2.16917
2.1297
2.11286
2.18209
2.14132
2.12174
2.15783
2.16066
2.16116
2.18633
2.06014
2.12549
2.09039
2.09974
2.08429
2.07448
2.09299
2.06259
2.07296
2.07941
2.05548
2.05835
2.10148
2.04813
2.09794
2.10451
2.01097
1.96846
1.99675
2.00475
1.99323
2.04219
2.04813
2.03854
2.02144
1.9764
1.96342
1.98861
1.95115
1.98167
2.00064
1.98079
1.99079
2.0049
2.01384
2.03192
2.03995
1.98499
1.95937
1.99469
2.0013
1.9616
1.96917
1.90709
1.93654
1.91328
1.92634
1.94283
1.92083
1.95221
1.99595
1.94517
1.93492
1.96059
1.95753
1.95324
1.94033
1.90684
1.96103
1.99687
1.96203
1.8966
1.93529
1.92821
1.94633
1.99273
1.89156
1.88351
1.94028
1.98336
1.95742
1.94432
1.91821
1.92956
1.90259
1.91116
1.91658
1.83967
1.84831
1.91574
1.92924
1.87951
1.88862
1.90574
1.89268
1.84342
1.89381
1.87279
1.95194
1.82498
1.80721
1.83861
1.83769
1.82924
1.88118
1.87321
1.88386
1.8394
1.82109
1.82879
1.80145
1.83707
1.87726
1.78961
1.76475
1.88987
1.90073
1.8081
1.83196
1.85484
1.83553
1.79803
1.82799
1.83853
1.8504
1.8063
1.83783
1.85495
1.86693
1.83525
1.79218
1.81676
1.85393
1.78978
1.75554
1.80617
1.73923
1.79
1.81859
1.86814
1.89152
1.8241
1.73706
1.76029
1.73986
1.75828
1.7516
1.77595
1.80486
1.81064
1.77704
1.83851
1.82641
1.75641
1.7326
1.76755
1.77511
1.68488
1.73482
1.69048
1.76765
1.74704
1.77432
1.81123
1.77382
1.7412
1.722
1.74947
1.77921
1.75086
1.66945
1.76441
1.69322
1.74149
1.71165
1.69051
1.65904
1.67719
1.71452
1.68099
1.68082
1.70145
1.72485
1.74821
1.72069
1.73329
1.73391
1.72999
1.69719
1.77662
1.7323
1.72083
1.73294
1.67794
1.6285
1.70324
1.67123
1.66463
1.65428
1.66631
1.70047
1.64957
1.6437
1.63262
1.65476
1.66409
1.6457
1.61373
1.64015
1.6311
1.64429
1.67962
1.64067
1.62176
1.61513
1.69354
1.7239
1.67828
1.71198
1.64196
1.63218
1.61255
1.6
1.62428
1.58429
1.62886
1.71142
1.60324
1.63662
1.61964
1.60691
1.58219
1.64206
1.55002
1.59006
1.60638
1.5674
1.60115
1.61143
1.5752
1.59663
1.60886
1.55365
1.59035
1.614
1.58137
1.57714
1.52252
1.56777
1.63899
1.58881
1.55955
1.58137
1.53927
1.54895
1.5157
1.49629
1.49823
1.58777
1.51857
1.52184
1.50944
1.45366
1.53763
1.57205
1.5432
1.56565
1.53277
1.58325
1.48498
1.49921
1.54449
1.52685
1.53486
1.57324
1.59313
1.55253
1.48874
1.51477
1.49529
1.47164
1.49389
1.47748
1.50287
1.56311
1.52155
1.50254
1.54043
1.51147
1.54466
1.51229
1.57074
1.46114
1.45304
1.4702
1.53755
1.5544
1.5424
1.53483
1.53794
1.47872
1.42725
1.46134
1.42906
1.50181
1.47569
1.42869
1.44001
1.42764
1.493
1.46899
1.47893
1.49459
1.4441
1.44363
1.52793
1.47893
1.46163
1.41558
1.41873
1.49516
1.4627
1.46468
1.42156
1.43708
1.40634
1.41898
1.38968
1.39351
1.4452
1.41419
1.40862
1.42106
1.39657
1.40152
1.38524
1.42196
1.44977
1.4032
1.38564
1.40449
1.4394
1.41917
1.41722
1.46054
1.39848
1.40976
1.41301
1.37198
1.3822
1.34736
1.36149
1.38692
1.37323
1.35362
1.31036
1.38379
1.4357
1.35874
1.32241
1.34804
1.30461
1.37053
1.31129
1.3737
1.38744
1.34734
1.35095
1.34034
1.32856
1.33622
1.3635
1.32619
1.31424
1.29494
1.34763
1.33438
1.31644
1.30512
1.33046
1.3308
1.30781
1.35313
1.30877
1.28943
1.33833
1.34568
1.30521
1.26175
1.26322
1.28698
1.22556
1.24968
1.26342
1.23668
1.27455
1.2628
1.22161
1.26419
1.30561
1.26891
1.31292
1.27221
1.28265
1.20877
1.25948
1.20365
1.24523
1.2651
1.24912
1.28079
1.2434
1.24594
1.32806
1.26839
1.25192
1.25238
1.26764
1.29469
1.19293
1.25454
1.26364
1.22208
1.29993
1.24697
1.27762
1.23447
1.23492
1.24517
1.18994
1.23061
1.26971
1.24837
1.25705
1.2299
1.21574
1.21259
1.22304
1.22314
1.24708
1.28662
1.26949
1.29737
1.2458
1.22218
1.22287
1.19504
1.25877
1.20507
1.24993
1.20679
1.15737
1.20243
1.18204
1.16089
1.1649
1.21668
1.20951
1.21631
1.20567
1.19503
1.1599
1.17249
1.22095
1.21794
1.1641
1.19283
1.2029
1.16934
1.15027
1.14782
1.1828
1.17226
1.14964
1.15559
1.11708
1.16939
1.16758
1.1559
1.1438
1.19119
1.17822
1.16268
1.19123
1.15892
1.16065
1.15744
1.14282
1.09103
1.07935
1.09255
1.12239
1.09592
1.11562
1.15138
1.17797
1.11752
1.11808
1.15405
1.17399
1.15361
1.11958
1.14943
1.11003
1.06908
1.04069
1.08271
1.06279
1.14831
1.13908
1.13322
1.11496
1.09823
1.12733
1.16597
1.16235
1.17439
1.17769
1.17742
1.17704
1.16812
1.17342
1.17404
1.12904
1.12911
1.13596
1.16127
1.16849
1.18125
)
;

boundaryField
{
    sides
    {
        type            symmetry;
    }
    empty
    {
        type            empty;
    }
}


// ************************************************************************* //
