/*--------------------------------*- C++ -*----------------------------------*\
  =========                 |
  \\      /  F ield         | OpenFOAM: The Open Source CFD Toolbox
   \\    /   O peration     | Website:  https://openfoam.org
    \\  /    A nd           | Version:  7
     \\/     M anipulation  |
\*---------------------------------------------------------------------------*/
FoamFile
{
    version     2.0;
    format      ascii;
    class       volScalarField;
    location    "0.01";
    object      linearKE;
}
// * * * * * * * * * * * * * * * * * * * * * * * * * * * * * * * * * * * * * //

dimensions      [1 -1 -2 0 0 0 0];

internalField   nonuniform List<scalar> 
1000
(
3.27271
2.99126
2.53885
4.1343
3.79741
3.3884
4.61933
1.97019
1.84284
4.03027
3.95068
3.73326
2.73562
3.98336
1.67789
6.48117
2.79486
5.00086
2.80594
3.81408
3.43205
2.2786
4.46168
3.77499
2.92603
2.1011
2.99651
2.45644
2.24736
1.82528
3.0771
3.76963
3.38393
4.05963
4.27864
2.08834
4.07875
3.93915
3.04153
2.92988
2.52839
1.83088
5.56245
2.72639
2.7356
2.48512
4.83056
3.95919
3.92528
3.84977
4.75275
3.69921
4.5108
2.65488
2.89601
2.92902
4.4887
3.79827
3.13994
3.8482
3.97573
4.43526
3.29093
3.39462
0.877182
2.96914
4.81152
3.32938
1.96446
3.13408
3.88862
3.57911
2.71866
4.53162
3.53442
3.29395
3.35433
2.21814
2.51453
2.88216
2.18008
2.8818
2.6796
4.7489
4.1308
3.15781
3.85277
3.65766
2.47898
4.77363
2.76578
2.1788
3.07999
4.7085
2.36259
3.70289
5.03448
2.26358
3.58813
2.76332
2.80894
1.64551
3.63251
2.82362
2.62675
2.81216
2.77253
3.33888
4.35447
4.48417
2.15121
2.88521
3.4621
4.64106
2.68978
2.56924
3.3038
2.51173
1.04702
3.74163
3.11365
3.20942
4.52289
3.2655
3.67849
4.35545
2.85487
2.03292
4.99948
1.83408
2.92775
2.46976
4.65854
3.2186
4.0315
2.88408
2.93453
3.24623
1.90378
2.2889
2.69796
4.0675
4.55142
2.71035
3.30565
3.98313
2.74966
1.82834
3.4434
3.56078
2.44055
2.35417
3.78622
3.23588
1.94443
4.22617
2.90281
1.74936
1.78298
3.09548
3.51417
3.97748
1.93988
2.83906
5.64632
2.5149
2.9401
1.80677
1.63322
1.47535
2.8017
3.28941
3.32043
2.75135
1.45959
2.34733
1.80858
3.78105
2.2078
3.41198
2.65521
2.36505
2.90809
3.19942
3.37174
2.27972
1.48691
3.48825
3.29624
1.91849
2.03556
2.7708
4.22634
2.55638
1.46746
3.01749
1.8785
1.60712
1.98764
3.92429
1.08967
2.51972
2.3047
1.74496
1.69767
2.53142
2.35559
2.15941
1.99462
2.66498
2.25428
0.921686
2.66827
1.38302
4.11447
5.37507
4.07556
3.39512
4.49607
4.96251
3.3393
2.56209
1.3977
1.24902
2.89246
3.15478
2.05749
1.81086
0.79674
1.67619
1.36498
1.79472
1.33591
2.03804
1.69204
1.96598
1.72773
4.11721
1.83275
2.27855
2.52186
2.49972
2.28461
1.2618
2.21135
1.33253
2.246
3.97304
1.41858
2.99716
1.4805
2.87493
1.92993
1.85849
2.06868
2.6263
1.79081
2.52445
1.52773
1.63171
1.63937
2.97184
2.34269
3.50242
1.36357
2.11972
2.10432
2.78252
3.15034
3.97302
2.74393
2.56229
0.860704
2.97482
3.04191
2.86773
0.806775
1.95964
1.93766
2.03242
3.2852
1.56203
1.48934
1.78697
1.15291
2.08037
3.85142
1.66298
2.10002
2.94549
2.29321
1.06592
2.49559
1.2753
1.84686
0.971381
1.84916
0.995776
2.06251
1.62584
2.18497
3.74869
2.04043
1.10073
2.59266
1.4841
2.07986
1.89277
2.68796
3.06534
2.55626
1.48268
0.636223
1.58929
1.64231
2.26945
3.02173
2.22544
2.44767
1.82475
1.55128
0.603358
1.4911
1.62239
1.33722
1.26808
3.24143
1.06708
1.43264
2.02405
1.8779
1.96188
2.64312
2.77156
1.97151
1.1296
2.42456
1.59589
1.66528
1.27751
2.2396
1.71192
1.488
2.07647
1.5934
1.98841
2.15742
2.21841
2.49202
1.97108
1.48906
1.27731
1.62825
0.484732
1.29723
2.0894
1.37847
1.53345
2.4878
1.58095
2.47963
0.418717
1.887
1.84594
1.58368
1.56843
2.29941
2.35598
1.88753
2.55896
2.19143
1.47516
0.751212
0.555466
1.80772
0.784954
2.4787
3.47946
1.14256
1.00664
2.91622
2.11003
2.25217
1.66116
1.55739
2.35116
2.6093
1.46376
1.79668
2.01077
2.85994
2.82742
2.55421
1.93149
1.8039
1.78919
0.907622
4.41912
3.49729
3.14206
3.02944
3.28426
1.92991
2.54111
1.88589
1.52807
1.52655
2.5751
1.28049
1.30485
1.75983
1.92057
1.66045
2.53339
2.8403
2.36074
2.49152
1.86019
2.2046
2.01045
1.55372
2.27281
1.92128
1.92133
3.39555
1.17334
2.05578
1.64653
2.02304
0.701518
1.96251
1.95829
3.79393
2.50441
3.24418
2.19783
1.42385
0.547379
2.56127
1.54957
1.78763
0.839274
2.25404
2.78966
2.89139
1.46188
2.22122
1.88806
2.29068
1.75089
1.84776
1.91391
1.69919
1.93257
1.04888
2.88149
1.01377
1.39225
2.11004
2.25355
1.74952
1.08429
3.49383
1.53086
0.385545
1.72044
0.971738
3.39964
2.1412
2.06347
1.03547
1.24714
2.65197
1.77704
1.13815
2.31177
1.2554
2.33165
2.37604
1.61403
2.21534
3.3933
1.83121
3.18486
0.776127
1.16797
2.44093
1.88818
1.20936
1.55993
1.53968
0.991344
2.24155
2.54994
0.976662
1.55619
2.20584
2.15924
2.77315
3.0882
3.32609
1.78783
2.2342
1.8669
3.22934
1.52807
1.8574
1.16494
1.8667
3.93548
3.77037
2.64151
2.81808
1.4988
2.0873
1.51088
1.95545
1.27785
2.62755
1.99747
1.75478
2.00471
1.90394
2.33438
2.25882
2.63345
0.843147
1.17639
1.61898
2.47636
1.09901
1.42961
3.76627
2.14148
2.02821
1.33277
2.72291
1.87954
2.79216
3.23879
1.43003
2.36236
2.74208
2.87613
2.81193
2.32294
1.04653
1.32276
0.873621
1.84089
2.33786
1.20442
2.80286
1.99012
0.927206
1.2966
2.93624
2.45547
0.953344
0.890492
1.97102
2.53183
2.95676
2.55706
3.18103
2.18582
2.56164
0.764825
1.10573
1.42798
3.77955
1.3618
2.77432
2.3295
1.17973
1.22067
2.29522
1.44875
0.954517
2.59666
1.63871
1.93353
1.54598
1.03037
0.929701
2.49788
2.27704
1.59945
2.50839
1.37317
1.69662
2.58712
2.13694
1.40666
2.51786
1.72845
1.6144
3.16805
1.03602
2.09399
2.51176
2.26096
1.17212
1.57443
2.13785
1.4023
2.79829
2.27939
1.76502
2.03262
2.66873
1.52167
2.37301
3.2115
2.17109
1.09642
1.62865
2.5688
0.423073
0.946145
3.33698
1.6685
2.12038
1.51125
2.36022
1.16042
0.84628
1.99541
2.92737
2.28899
1.48561
3.43259
1.0944
3.66717
1.86547
2.3912
1.4858
1.9369
2.89149
1.00793
2.62882
1.02193
2.26444
1.51707
1.16921
3.09667
1.95325
2.90266
1.47959
2.15264
3.04218
0.975326
2.2411
1.88001
2.73489
1.2352
2.61039
1.15783
2.32187
2.40937
2.61554
1.93762
1.74988
1.07031
2.38897
0.888972
1.06721
1.74684
3.17313
2.90675
2.96498
3.57013
2.41857
2.47393
2.50486
0.90161
1.42849
1.86882
2.09465
1.71048
2.52846
2.62879
2.62865
2.25904
1.21523
1.98524
4.53986
2.93481
0.554254
2.6266
2.33746
1.49594
1.14718
1.61428
2.4274
2.26494
2.49317
0.988666
1.62084
2.63144
0.799734
1.25798
2.68303
4.0124
2.44116
1.37521
1.01706
2.26363
1.82542
3.31316
2.24136
1.01215
2.77115
1.01714
1.44822
2.07158
0.762327
2.77515
1.93713
1.66678
2.1109
1.48273
0.857316
1.25157
1.18585
1.5748
0.972603
0.36728
2.85299
1.98043
1.01696
1.88109
1.46892
1.67412
1.70338
1.24247
1.67071
1.65105
1.31495
3.78605
0.952896
3.79588
3.34707
1.2508
1.25368
0.460065
3.68242
1.96098
1.45971
1.67682
1.22517
1.43034
2.0378
2.21889
3.25904
0.5812
2.3801
1.07373
3.47168
2.441
0.725949
3.59863
0.858326
1.2273
3.15611
0.949704
2.29891
2.03375
1.75622
1.58978
2.24885
3.6171
1.3177
1.93588
1.70254
1.5101
0.785438
1.90832
0.28705
2.18923
0.367066
1.11615
1.85432
2.92022
2.60442
2.30076
1.7199
1.37052
2.0087
1.04578
1.44544
1.71888
2.83913
1.40771
2.26374
1.76301
2.37586
3.93205
1.3091
1.33992
3.54317
0.627788
1.79648
0.445003
2.60559
2.28486
1.22781
1.54629
2.83595
3.09679
2.99293
3.57252
1.34479
3.42979
1.85711
2.74203
3.80012
2.81841
1.63629
2.27924
3.03894
0.944868
2.51319
3.36817
1.07553
2.5612
1.40733
2.35569
0.704922
0.424338
1.14624
3.35139
2.05607
1.33993
1.98528
0.133516
2.35708
2.64052
2.45582
2.26176
1.71879
2.15711
2.49965
1.63734
2.18585
2.76142
2.38497
1.54023
4.53221
1.90893
1.25319
1.51301
0.619336
1.29365
1.77163
2.32624
2.86199
1.27985
3.07926
1.11145
1.55448
2.34507
1.81206
2.08055
1.30049
2.21248
0.969233
1.75165
2.02698
3.68371
1.94895
2.85908
1.94534
0.990245
1.50156
1.10999
2.67978
1.60865
0.440247
1.05656
1.26901
2.21532
2.31422
2.10315
0.715567
1.06498
0.914997
0.859397
3.49869
0.649832
2.00599
1.22224
3.37731
4.877
3.98338
1.80527
2.279
1.96364
1.15893
1.02065
1.4165
0.894898
3.23929
1.61158
2.47324
2.26851
0.280888
1.53578
2.49858
3.55353
0.563233
2.16926
0.110762
1.35558
1.65702
1.26186
1.54667
2.14964
2.07964
2.44476
2.74076
0.440308
1.12419
1.96829
1.79803
0.921475
1.70043
1.93489
1.73643
1.54327
1.34444
1.82648
2.39738
1.15845
0.499533
2.83071
3.13813
1.08855
2.57809
3.18734
1.01874
1.20364
1.43316
3.55656
1.80622
1.36861
0.584644
3.51756
1.73933
0.901703
1.22973
1.8982
0.610253
1.40438
5.33507
2.45245
2.26414
2.36572
3.96404
1.39284
1.25208
0.766541
1.44499
1.59066
0.679079
0.596417
2.2939
2.55907
1.65634
1.28785
2.39936
1.87192
2.15739
3.87321
3.60484
5.03109
2.27145
3.24427
4.65568
3.02477
1.91674
2.48138
3.75465
3.29708
2.17543
2.03196
2.86798
4.95171
2.22477
5.69183
3.87732
2.91465
4.27307
5.74222
4.24162
4.73212
3.35357
1.74255
2.51368
2.82234
)
;

boundaryField
{
    sides
    {
        type            symmetry;
    }
    empty
    {
        type            empty;
    }
}


// ************************************************************************* //
