/*--------------------------------*- C++ -*----------------------------------*\
  =========                 |
  \\      /  F ield         | OpenFOAM: The Open Source CFD Toolbox
   \\    /   O peration     | Website:  https://openfoam.org
    \\  /    A nd           | Version:  7
     \\/     M anipulation  |
\*---------------------------------------------------------------------------*/
FoamFile
{
    version     2.0;
    format      ascii;
    class       volVectorField;
    location    "0.01";
    object      UMean;
}
// * * * * * * * * * * * * * * * * * * * * * * * * * * * * * * * * * * * * * //

dimensions      [0 1 -1 0 0 0 0];

internalField   nonuniform List<vector> 
1000
(
(0.0026249 25.5332 12.4305)
(-0.308601 33.9326 12.878)
(0.0864299 29.9243 2.10915)
(0.234972 8.99968 -4.13631)
(0.253799 0.777128 1.862)
(0.208724 6.60671 10.6674)
(0.211212 -4.4335 25.9618)
(-0.0205191 0.289484 22.7339)
(0.405479 10.8513 16.3465)
(0.490012 5.65648 -0.656974)
(0.582562 -0.573873 -22.8899)
(0.604804 -6.97033 -11.0125)
(0.124176 -10.2555 5.84199)
(-0.000792724 -15.9655 -15.6319)
(0.677565 -6.64037 -23.3172)
(0.849685 8.07219 -20.4114)
(1.06666 21.466 -35.3858)
(0.860482 26.0328 -20.6574)
(0.513498 21.8969 -8.82817)
(0.642693 32.0252 -0.230435)
(0.548781 25.9039 12.3457)
(0.775527 7.18478 23.5815)
(0.606843 1.09363 34.3295)
(0.793128 10.5681 36.3106)
(0.724518 5.46074 34.8564)
(0.57354 5.63906 30.7419)
(0.736539 4.21608 11.4319)
(0.904944 0.289858 13.6873)
(0.884468 -10.0179 20.6133)
(1.26043 -13.873 20.7351)
(1.27243 -14.5698 10.614)
(1.37875 -5.54276 22.5147)
(1.29584 4.74913 18.9997)
(1.47276 6.20615 11.4087)
(1.42986 16.3672 2.53543)
(1.28226 0.490598 6.44578)
(1.20905 1.91076 -6.54899)
(1.34453 14.4123 -6.98315)
(1.31895 12.8529 -3.80604)
(1.5337 11.5226 -8.77225)
(1.50404 14.086 -17.7537)
(1.80674 6.56944 -18.447)
(2.07779 17.82 -30.8739)
(2.05035 16.6825 -32.6895)
(1.62658 30.0474 -45.6493)
(1.72884 47.5753 -43.6661)
(1.61049 53.2519 -40.872)
(1.52827 48.6415 -41.6808)
(1.13162 47.3888 -29.379)
(1.09034 28.0458 -20.1584)
(0.6769 28.8305 -28.1928)
(0.695021 16.0223 -21.3349)
(0.691946 36.0707 -19.7463)
(0.201433 27.6391 -22.5698)
(0.412886 36.675 -19.4238)
(0.538555 39.3437 -18.5797)
(0.775191 54.417 -16.2183)
(0.676766 46.1596 -28.9278)
(1.03059 32.6832 -30.8732)
(0.858057 20.3245 -10.6401)
(0.753532 14.5383 -5.13887)
(0.527801 2.54423 -15.9386)
(0.136967 -6.23157 -2.49172)
(0.589957 -12.8803 -2.72774)
(1.09965 -16.5221 4.12412)
(1.41428 7.50707 14.2223)
(1.64472 -3.94053 10.1252)
(1.71654 -7.27069 12.5902)
(1.89228 1.30362 0.477216)
(2.08398 -0.774598 -1.4535)
(1.69497 -10.4681 -3.50238)
(1.65168 -14.7813 0.812325)
(1.65227 -12.154 5.88331)
(1.79932 -14.0618 8.24033)
(1.9264 -27.1181 11.2613)
(1.82139 -30.1349 35.4861)
(1.66478 -30.4858 21.267)
(1.61842 -32.5112 17.3685)
(1.77886 -37.0357 17.4124)
(2.18367 -13.969 20.0419)
(1.93529 -8.56684 20.1416)
(2.11539 -10.9366 27.8355)
(2.42251 -1.80802 20.0575)
(2.27674 -11.698 36.8408)
(1.95167 -25.8618 44.8863)
(2.15751 -13.3781 30.6227)
(2.18305 -14.1759 37.904)
(2.59828 -14.6759 34.756)
(2.54241 -12.0816 9.39904)
(2.57107 -8.84723 18.9384)
(2.32887 -17.938 11.2891)
(2.62608 -11.9817 -6.30734)
(2.56194 0.0614778 -14.4607)
(2.43668 5.72859 -13.0616)
(2.45281 8.07764 -3.09264)
(2.44801 18.5814 -15.7888)
(2.73421 12.4013 -9.00021)
(2.63732 18.6147 -2.11759)
(2.77262 15.4936 9.33097)
(2.61217 0.976953 31.1352)
(2.48833 5.08991 39.0417)
(2.60503 9.57279 38.9471)
(2.69701 -12.9151 36.7621)
(2.62253 -19.4261 33.9396)
(2.81271 -11.1823 37.0059)
(2.94195 -17.6624 31.4079)
(2.97953 -21.1131 36.6187)
(3.15326 -14.0559 25.8325)
(2.86283 -14.4733 21.0864)
(3.05639 -12.5856 23.5129)
(3.01071 -9.58713 24.5722)
(2.98244 -26.1939 19.8145)
(3.02778 -28.3206 13.403)
(2.55639 -13.0246 16.7748)
(2.15608 -5.60604 11.0527)
(2.4549 2.3075 18.0751)
(2.75333 -1.32673 30.6891)
(2.70196 9.61021 29.7074)
(2.97393 9.42587 35.4511)
(3.28527 13.9275 39.7912)
(3.37976 20.308 23.837)
(3.59878 27.8468 20.812)
(3.50619 32.3175 9.52648)
(3.49984 7.02022 -3.71978)
(3.82288 -3.71735 -3.37398)
(3.67291 -6.65755 3.12771)
(3.69423 -23.6902 -1.59906)
(3.85149 -22.9639 2.46739)
(3.6765 -6.21497 15.305)
(3.52864 3.45613 25.746)
(4.05801 1.84043 21.4052)
(3.9348 2.64354 19.5196)
(4.08314 7.45356 5.63675)
(3.67254 14.4924 10.585)
(3.8015 -0.70174 19.2929)
(3.84703 -9.86244 21.4927)
(3.65689 -25.6877 7.28786)
(3.58654 -35.8896 -5.96448)
(3.83524 -50.7062 -16.302)
(3.9757 -44.9454 -24.7929)
(4.26934 -59.0098 -19.8432)
(4.47082 -55.3374 -19.6542)
(3.97145 -49.3941 -17.8441)
(4.10447 -35.7515 -19.3907)
(4.30801 -36.7417 -25.9979)
(4.65303 -38.4304 -5.09109)
(5.01514 -43.1932 3.01824)
(5.01354 -33.1942 4.31513)
(5.3706 -32.5223 5.58169)
(5.50555 -42.0553 7.64855)
(5.65517 -37.7718 -2.50487)
(5.50664 -32.5976 -15.5485)
(5.66569 -13.2143 -10.1069)
(5.57189 2.24939 -12.4655)
(5.52709 -3.43888 -38.6483)
(6.05337 8.43 -43.9199)
(5.73258 10.1162 -46.0884)
(5.97474 16.6421 -41.3503)
(6.98526 32.546 -27.8436)
(7.05454 42.7186 -31.0429)
(6.87135 45.545 -37.6853)
(7.12126 59.6022 -53.9963)
(7.22075 56.8838 -51.905)
(7.47795 48.7977 -47.477)
(7.1274 59.0098 -38.8553)
(6.9077 59.9297 -42.6096)
(6.81295 26.291 -34.6843)
(6.84185 13.2395 -23.4518)
(7.54738 8.0644 -23.5154)
(7.45822 22.7165 -26.3315)
(7.88719 15.7888 -28.6836)
(7.63059 16.3876 -16.683)
(8.1914 29.614 -10.1699)
(8.54032 23.9902 -6.83652)
(9.09065 20.176 -15.5371)
(9.08671 9.30021 2.04698)
(9.47493 -0.695492 -2.00251)
(9.86832 1.18559 -14.0787)
(10.244 -10.8079 -23.7323)
(9.88361 -6.85668 -17.4976)
(9.84554 -0.67751 -10.0292)
(10.5439 2.30595 -3.10257)
(10.5087 -7.89024 9.91286)
(11.1885 -20.9114 13.488)
(11.1005 -0.983732 19.2067)
(10.9278 -2.09679 15.0598)
(10.8136 6.85452 10.5979)
(11.5991 11.5264 6.01133)
(10.8301 4.90883 -8.3884)
(11.56 17.0864 -8.97383)
(11.9651 26.9426 8.37278)
(12.2324 26.3794 14.9142)
(12.1266 16.2505 12.2571)
(12.1042 16.7344 5.88348)
(12.7491 11.2072 25.2775)
(12.7827 14.2746 20.5783)
(13.2135 -4.46034 6.71266)
(13.2172 1.9506 -8.11706)
(13.7012 1.93155 -18.7934)
(13.1977 5.34733 -21.3428)
(13.9175 13.8518 -11.0032)
(14.316 28.6127 -3.18514)
(14.0832 18.3851 -7.45274)
(13.8756 9.86061 -20.4809)
(14.3324 15.9755 -8.0782)
(15.5757 16.3358 5.28638)
(15.4093 19.0573 15.8324)
(16.0259 15.1093 14.696)
(16.2277 14.5135 14.0012)
(16.2369 9.68889 11.6171)
(16.6501 24.121 16.4473)
(16.5431 23.6106 14.3591)
(16.8368 9.53322 27.5868)
(16.6036 3.70112 1.84687)
(16.6527 -10.5262 2.09102)
(17.1698 -13.1344 -1.80761)
(16.8834 -22.0338 5.44482)
(16.807 -14.0423 -12.5623)
(17.0605 -21.7236 -10.9813)
(16.9492 -19.946 -20.3874)
(16.6419 -26.4309 -18.8751)
(17.6372 -23.113 0.672496)
(18.4501 -18.2516 -4.48402)
(18.3721 -9.83875 -3.60629)
(18.9288 -7.26017 -28.1281)
(17.626 -6.13642 -22.9152)
(18.3116 -0.616609 -18.4093)
(19.2204 12.7392 -16.7852)
(19.783 22.2754 -19.1355)
(20.054 34.0427 -32.0165)
(20.1711 28.1366 -16.7379)
(20.5236 41.099 -27.4713)
(20.9834 16.4854 -20.8388)
(22.1278 14.5971 -16.0478)
(22.0487 18.0273 -5.94717)
(22.6075 20.601 12.436)
(23.6806 4.23415 -12.4913)
(22.7218 9.22757 -19.6513)
(23.7975 16.2695 -9.95503)
(23.476 11.7006 2.11841)
(24.0004 9.27901 10.1634)
(23.6301 12.3532 6.88126)
(23.8653 -2.74186 1.7199)
(24.6267 5.27931 3.46833)
(23.9962 -1.05237 12.2343)
(25.1645 -19.9706 6.67457)
(25.0085 1.48081 0.163532)
(25.6703 2.9127 -15.5893)
(25.4926 -18.4618 -8.02806)
(26.56 -19.1197 3.00846)
(26.6188 -12.0211 8.60085)
(26.0942 -26.37 1.90955)
(27.9729 -24.8296 2.4569)
(28.2221 -25.7827 -8.67191)
(28.0662 -20.4839 1.95321)
(27.9438 -15.6879 15.6503)
(27.8518 -19.2408 13.1835)
(28.2229 -15.097 11.3288)
(29.197 -19.7434 10.9242)
(30.0858 -12.3256 2.57279)
(30.5382 -4.2244 -4.27227)
(31.2097 1.83712 -13.3865)
(31.8273 4.08101 -5.40025)
(32.1631 -6.53437 -14.0614)
(33.093 -20.4576 -19.1045)
(32.5199 -11.7384 -23.709)
(32.6139 -20.226 -30.5587)
(33.2872 -11.6319 -23.488)
(32.6338 -16.1389 -24.5016)
(33.424 -17.7301 -19.5716)
(33.7547 -23.1487 -22.2781)
(34.4483 -15.4205 -15.0425)
(34.0297 -18.3215 -17.5651)
(34.2731 -12.6885 -10.7057)
(34.9524 -16.8008 -8.29869)
(35.5519 -8.3415 -22.4263)
(36.1579 -11.102 -18.178)
(36.6268 -15.7887 -9.03203)
(36.5962 -13.6244 -16.6966)
(35.1004 -22.8657 -13.1615)
(36.6245 -33.9311 -4.18615)
(37.5832 -26.4804 -9.099)
(37.7817 -22.236 -12.3041)
(40.2731 -7.61058 -13.7912)
(40.8231 -2.37279 -20.1316)
(40.0409 -16.6214 -20.2655)
(39.7301 -19.3341 -21.9463)
(39.7462 -22.9959 -10.0898)
(40.4361 -29.8981 -4.16367)
(41.2488 -36.7949 -5.42105)
(42.7104 -42.9338 -2.48562)
(41.2377 -46.6298 -5.17977)
(40.509 -46.1003 10.4566)
(40.9969 -43.7624 11.2421)
(42.0186 -26.2132 15.4288)
(42.1373 -19.9215 18.287)
(42.1029 -23.7252 17.0303)
(42.3575 -30.9845 26.7164)
(43.401 -26.6794 14.8938)
(43.6798 -12.864 7.81798)
(46.0328 -7.06821 13.861)
(44.5771 -7.91206 33.2707)
(44.7053 -5.21678 20.1979)
(46.4683 3.49003 13.7141)
(46.97 3.69279 3.41238)
(47.0694 8.81843 -4.68364)
(46.8069 3.19034 -6.28877)
(45.8507 1.01157 7.75348)
(46.7696 0.925654 -10.7204)
(48.2566 -3.57991 -3.67784)
(47.2393 -2.34161 -16.5838)
(49.3621 -8.67027 -12.2155)
(49.2647 4.3676 -15.217)
(50.1917 1.29558 -35.1895)
(51.7378 -26.4836 -25.0787)
(49.9752 -18.0459 -21.4489)
(52.1542 -13.3237 -15.5713)
(50.9906 -37.3713 -23.6596)
(50.4355 -28.7791 -29.1192)
(52.0609 -33.5951 -26.9555)
(50.8082 -13.7143 -19.006)
(52.9779 -15.5562 -24.2522)
(53.759 -29.6287 -36.6124)
(54.0466 -19.9346 -39.4802)
(57.0215 -14.9534 -36.5398)
(58.1101 -16.0477 -26.2027)
(56.5431 -1.37194 -21.3749)
(57.3298 3.73824 -14.3031)
(60.7694 10.1322 -8.87146)
(58.4684 18.0196 -10.0287)
(59.1856 2.26797 -21.9509)
(59.2891 11.0793 -9.58876)
(59.8994 -1.01671 6.99696)
(60.8649 -13.0799 3.88171)
(62.4403 -5.00314 4.51016)
(61.9493 1.82157 -1.55903)
(63.1887 -5.30741 14.8257)
(65.2939 -17.4374 -1.14277)
(65.0064 -14.4273 0.189426)
(64.8657 -12.6307 7.13975)
(64.2064 -4.65767 7.56573)
(65.3461 -8.20809 -4.07586)
(65.8902 2.25748 -1.02275)
(64.5471 1.81105 -13.5608)
(65.269 -3.22953 -5.3451)
(65.7804 -22.1366 -11.9293)
(67.2006 -10.9051 -18.4778)
(67.5279 -4.6222 -12.6549)
(67.8493 -16.626 -8.55405)
(66.6217 -7.59503 -4.76169)
(68.1869 3.76093 -26.1401)
(68.1866 11.7781 -13.8697)
(71.5223 20.9003 -13.6934)
(71.1112 16.2771 -0.858113)
(73.0818 15.0494 9.59554)
(75.437 18.7847 -6.86469)
(76.7584 13.7229 -18.2949)
(76.5072 8.11662 -14.5965)
(75.4364 3.07251 -19.8018)
(75.1075 10.1871 -27.7962)
(76.1447 22.9439 -13.5423)
(76.6154 22.516 -9.62607)
(80.3423 26.7884 -14.2104)
(79.3265 16.0178 -11.285)
(79.0396 16.592 -0.412704)
(79.7416 3.18894 8.37965)
(81.7454 18.1925 -3.23468)
(83.1677 11.9618 2.11254)
(81.6616 2.36609 -0.433841)
(80.05 -5.3846 -17.5902)
(80.8725 -4.20124 -10.838)
(83.2044 -3.15888 -21.2722)
(85.6067 -4.56235 -10.9055)
(88.3002 -4.97846 -10.0568)
(86.8629 1.12213 -15.0284)
(88.9083 -8.37708 -21.0469)
(90.1015 -12.2182 -12.9251)
(88.0997 -5.61388 -13.8374)
(88.818 -31.9661 -12.2501)
(90.9412 -27.9271 -1.62484)
(94.1985 -23.8666 5.16002)
(93.1482 -17.9472 9.17471)
(90.4801 -1.87381 11.713)
(89.5986 -4.75116 19.442)
(93.1473 -11.7964 16.0297)
(92.7564 -10.4079 6.24953)
(93.5323 -11.1201 10.845)
(93.4697 -14.1888 12.8951)
(92.4557 -18.7287 15.1256)
(96.5422 -21.1645 20.7078)
(98.5641 -26.357 18.1048)
(99.8041 -26.9772 6.15247)
(99.7053 -28.4538 -13.2628)
(98.8454 -28.322 -11.6776)
(100.687 -23.7125 -13.8203)
(99.7444 -18.9081 -6.7097)
(102.267 -24.901 -24.5517)
(102.31 -18.7157 -18.2833)
(103.49 -3.74101 -4.24777)
(99.1144 -8.49399 -14.5746)
(100.442 -16.1106 -22.6759)
(104.105 -15.8565 -12.243)
(103.28 -10.7618 -11.1237)
(98.7433 -12.9959 -3.89027)
(100.538 -2.74589 0.57939)
(106.264 14.4915 -5.53124)
(107.276 9.6861 -7.67669)
(103.181 -3.14048 -17.2745)
(106.531 5.83861 -11.3607)
(108.969 14.5319 -8.76253)
(111.274 17.4546 -9.97086)
(107.548 16.1117 -8.62878)
(109.92 16.166 -12.8476)
(111.265 0.682998 -17.1387)
(112.18 -0.194729 -19.5824)
(114.364 4.5421 -14.148)
(110.255 12.7045 -9.28487)
(115.375 12.3565 -16.3163)
(115.808 7.21279 -9.13086)
(112.407 15.456 -9.82893)
(113.326 15.536 -15.6827)
(116.672 18.7871 -19.8823)
(117.524 15.2605 -22.2513)
(117.006 17.5361 -19.4414)
(118.216 11.7359 -33.1819)
(119.08 -1.59493 -16.2582)
(123.466 3.00441 -16.1892)
(123.067 12.8255 -9.24014)
(121.707 4.12976 -15.6713)
(123.704 8.52304 -18.9309)
(125.105 15.539 -17.3182)
(123.857 1.42914 -13.0297)
(125.959 2.26373 -17.0263)
(126.542 4.64888 -14.2265)
(123.655 -9.65985 -4.5992)
(125.835 5.05679 -4.94503)
(128.822 15.5837 4.83983)
(127.281 5.89032 4.49657)
(125.198 5.21757 -2.43698)
(127.771 7.31258 -10.1682)
(130.484 10.8236 5.5632)
(131.615 13.2451 -10.2451)
(131.058 14.811 -5.39204)
(133.306 19.9696 -8.34655)
(130.873 -3.30425 -6.8147)
(133.698 -3.79601 -14.257)
(130.796 11.1198 -5.31716)
(137.502 -3.94862 3.91271)
(142.245 9.37259 -4.9171)
(138.817 8.45514 -8.76924)
(141.051 5.34997 -12.1538)
(138.655 11.8612 -18.9792)
(141.393 9.6569 -11.1841)
(139.363 -1.66525 -0.58426)
(138.639 -6.11128 0.796419)
(142.108 6.02966 0.0220683)
(143.59 7.88946 1.5798)
(139.052 5.34814 7.49902)
(140.242 3.72973 2.478)
(147.064 -3.62263 10.6933)
(149.698 4.49599 8.39039)
(155.034 15.7893 -16.8029)
(154.477 17.5299 -16.8243)
(152.126 8.81472 -11.4619)
(153.983 6.15232 0.425107)
(155.139 -3.58274 -0.450824)
(149.006 4.0011 -3.96805)
(148.291 -3.34318 -1.97067)
(155.478 6.90119 -9.50261)
(152.921 -7.99256 -4.55006)
(156.465 -9.47419 -7.50824)
(157.679 -5.63287 4.81586)
(158.65 -8.36602 -7.2474)
(158.719 -21.9169 -3.06465)
(158.262 -14.617 -16.6639)
(160.49 3.22847 -14.8679)
(161.49 -0.017556 -10.1854)
(159.14 -5.55935 -4.81132)
(161.589 -7.10289 -1.26224)
(163.032 -21.4234 -5.35334)
(157.294 -14.6343 -9.85105)
(165.739 -5.52096 -10.4571)
(163.989 -8.19851 -9.52808)
(164.197 -3.3269 -12.5973)
(160.327 -4.90282 -4.17834)
(164.69 -10.8424 -7.24119)
(166.985 -12.8131 4.63552)
(169.135 -6.37222 -7.93141)
(167.765 -8.13361 -11.4891)
(172.222 -6.38419 -3.65775)
(171.452 -4.06782 -2.268)
(174.451 -2.20935 -0.339498)
(178.014 -1.66089 -4.94028)
(169.628 -2.74952 -9.78643)
(173.769 5.0012 -3.60586)
(173.394 12.0836 -5.37178)
(176.272 9.94317 -10.5962)
(182.249 6.68131 -8.54517)
(184.214 2.15222 -4.21303)
(187.707 4.05331 -8.16796)
(185.916 -0.796912 -13.1396)
(182.724 -6.28955 -11.9463)
(174.841 -2.64824 -14.9723)
(177.286 9.88989 -16.4603)
(179.148 7.59485 -9.98541)
(176.392 -6.15369 5.40951)
(179.397 2.98068 6.73462)
(183.697 -14.0103 0.335121)
(177.636 -4.59541 -9.93989)
(181.2 10.7901 -0.432158)
(177.985 9.60162 -2.36973)
(173.729 1.99578 -13.6741)
(178.816 2.89179 -12.0444)
(180.907 -0.064066 -8.25701)
(179.004 -11.1486 -16.0808)
(174.213 -8.21054 -24.241)
(176.499 -6.74271 -1.04306)
(171.604 -5.55838 -10.9414)
(177.388 -1.94858 -19.1503)
(179.106 -1.74418 -22.5634)
(179.538 -3.79872 -31.8446)
(176.384 0.932704 -7.47071)
(179.917 -9.57004 -3.00601)
(179.476 -5.81783 -18.4937)
(182.445 5.83027 -5.63768)
(181.043 16.1013 -17.2461)
(179.779 21.4173 -3.20043)
(178.029 10.9911 -3.89179)
(179.389 12.9935 -4.90582)
(175.307 7.72015 -11.9636)
(177.731 -6.78319 -21.3563)
(174.4 5.71904 -7.97617)
(174.939 13.7102 -6.41756)
(176.01 -1.39345 -4.51709)
(172.747 -3.71572 -2.62746)
(170.713 6.08175 -8.96518)
(172.465 -0.112622 -17.8832)
(170.586 0.524107 0.773409)
(177.398 3.13104 -3.18771)
(172.989 6.5792 -11.5717)
(168.466 2.13874 -0.959856)
(168.364 4.08212 -5.31054)
(170.975 -1.42882 -6.9122)
(164.105 5.46158 -16.0425)
(166.68 -3.77349 -13.5491)
(167.031 -2.66508 -4.48141)
(161.322 -4.67271 -15.1468)
(171.047 -1.97596 -19.5784)
(175.086 2.23837 -12.4412)
(169.116 2.21977 -18.5508)
(162.9 -4.53913 -11.3694)
(163.574 -1.27808 -12.5256)
(164.641 9.07286 -13.6281)
(169.084 12.8535 -10.002)
(164.05 16.4271 -14.2802)
(164.348 4.52707 -7.45671)
(168.77 9.52935 -18.3666)
(168.167 4.46238 4.94164)
(170.45 11.9912 -3.62408)
(170.832 17.0619 -2.20687)
(161.565 8.23428 3.05031)
(166.499 8.02778 -6.72624)
(172.571 -13.1513 0.0343017)
(169.712 -2.73334 3.03579)
(164.497 15.5613 2.07291)
(169.326 8.11003 -1.38132)
(169.68 17.5698 -2.65891)
(165.891 18.4163 -12.7957)
(164.634 20.719 -6.41565)
(162.776 19.0986 -0.576388)
(170.216 19.5181 -6.29888)
(176.001 13.6001 -7.38701)
(171.273 -6.09434 -6.07292)
(168.416 -6.10609 -5.43162)
(167.429 11.2444 -6.51531)
(169.569 25.7814 2.46349)
(167.105 20.1436 -0.209913)
(162.595 3.89647 -8.77772)
(169.116 17.599 13.7245)
(171.153 17.3758 9.64836)
(177.228 15.853 4.54558)
(174.114 13.5758 -6.8174)
(172.168 4.88319 6.93162)
(163.988 10.2177 -3.16493)
(175.132 15.2692 0.371592)
(180.079 6.87948 1.53272)
(166.603 -3.5822 3.40974)
(167.778 -1.63817 -0.252205)
(172.425 -5.2932 5.53622)
(169.76 3.09486 16.7262)
(171.195 22.925 10.1371)
(165.942 11.6952 2.31392)
(172.537 -0.659181 8.44495)
(169.33 -4.91071 10.3321)
(166.331 -3.61392 -1.93714)
(166.137 5.9998 8.82325)
(169.863 12.4132 -5.41418)
(168.174 -4.82623 0.95863)
(162.877 6.92267 1.59592)
(164.862 10.9899 -6.67791)
(169.759 4.85559 10.2762)
(165.883 2.61022 20.7774)
(169.059 -1.53496 7.91805)
(161.542 -6.3711 0.893737)
(168.043 -3.4142 7.19263)
(173.829 3.05616 14.1308)
(167.784 -6.63993 4.84506)
(173.695 -13.6514 16.0943)
(161.49 -10.9777 15.837)
(162.05 -1.23711 21.2016)
(156.125 22.021 2.93361)
(157.701 10.9703 4.09724)
(162.626 0.218225 8.8611)
(164.089 18.9054 4.81564)
(161.322 14.2266 10.6126)
(163.246 11.3215 9.1937)
(161.791 17.0623 6.67217)
(157.385 29.9889 16.2828)
(154.509 17.3368 4.94484)
(154.606 -0.640132 9.04049)
(150.918 15.2592 4.08172)
(156.836 9.40039 29.794)
(154.634 5.92357 16.9664)
(157.339 17.8276 9.52929)
(160.67 8.71727 3.826)
(159.632 3.37856 4.2437)
(154.441 -0.303059 15.413)
(155.175 -3.85755 25.4957)
(161.257 -14.9453 15.4021)
(155.621 -7.56007 18.9341)
(156.538 -12.4121 18.3022)
(152.492 -20.387 14.823)
(153.164 -8.19019 4.29293)
(149.287 -18.0867 4.28869)
(146.097 9.91254 12.2275)
(151.932 -7.69184 -1.49499)
(152.313 -21.2903 10.0063)
(150.587 -14.7754 15.6905)
(151.824 -14.2803 20.4692)
(150.952 0.955165 30.7616)
(149.361 13.7001 6.50481)
(151.169 9.42924 -2.94287)
(147.813 -4.3709 2.91866)
(156.045 -5.74288 -0.0749028)
(153.028 2.65295 -2.15988)
(154.704 4.77739 -3.68827)
(154.835 8.78425 8.1721)
(151.78 -4.43759 20.0473)
(154.388 -15.095 18.3064)
(152.173 -9.76999 2.2522)
(152.795 -9.69768 1.49251)
(152.387 6.13852 1.99979)
(147.648 10.0245 11.2236)
(141.292 5.48048 9.13549)
(141.139 21.2413 7.03498)
(137.536 22.9886 10.4318)
(142.331 22.1934 19.1269)
(146.861 21.6594 25.2807)
(140.791 24.9508 19.0712)
(146.457 27.1969 29.1845)
(141.428 21.8169 26.1336)
(145.978 28.3819 10.6697)
(142.468 18.2644 21.7319)
(140.72 -6.67503 8.53548)
(143.266 -9.1175 4.2046)
(149.595 -12.0001 -3.3895)
(144.141 -5.0846 8.34803)
(142.112 -2.31184 11.9438)
(148.038 10.8199 -11.8229)
(146.139 11.4668 -14.7274)
(143.834 31.5973 -16.8408)
(138.432 20.9339 10.154)
(145.676 19.1965 4.32686)
(144.88 10.3512 0.277117)
(143.328 24.4314 -14.0777)
(141.337 1.56305 15.8479)
(139.028 3.45495 17.1157)
(138.774 -3.39036 9.22908)
(143.443 11.7332 16.2569)
(138.334 22.3342 9.85644)
(139.048 14.3721 30.8444)
(141.505 17.1873 14.8799)
(142.313 5.96443 23.9746)
(139.156 -6.07938 8.90039)
(142.078 8.73061 7.47959)
(138.399 14.6939 6.82742)
(137.566 16.8746 -3.29423)
(129.374 29.6593 -8.18639)
(131.952 25.7018 -11.0588)
(132.447 39.9811 -12.411)
(133.107 28.0021 -4.06517)
(135.439 30.1709 -7.22676)
(134.079 23.238 6.73291)
(139.063 15.9774 2.14812)
(135.461 14.5747 -8.27576)
(136.128 6.25188 -10.1901)
(129.348 25.4297 8.81491)
(122.825 36.5084 8.1957)
(130.97 25.7616 -11.2951)
(127.935 23.3061 -1.2229)
(129.863 19.3112 11.0608)
(127.595 7.95473 6.46252)
(132.37 11.0091 -8.05375)
(128.687 -3.67726 -1.81382)
(132.348 19.566 14.1931)
(130.418 6.30518 14.9814)
(128.192 0.85931 15.4823)
(127.787 4.86961 4.11334)
(125.112 9.21895 7.47742)
(124.541 10.0981 11.1741)
(127.279 15.8093 11.2108)
(121.823 9.36579 12.3255)
(123.693 18.5494 -3.79213)
(125.65 27.9278 -15.5486)
(122.393 35.7183 -21.5843)
(121.214 24.6747 -12.4157)
(126.71 26.0745 -21.5157)
(129.786 45.516 -19.3607)
(126.096 27.7021 8.51145)
(120.765 45.2632 7.70743)
(116.144 43.9926 14.349)
(121.828 49.7683 35.0619)
(124.645 44.7896 22.1237)
(121.824 45.3106 27.8443)
(120.478 32.5095 8.3415)
(120.848 38.8358 19.4034)
(129.255 38.6999 20.2577)
(133.301 48.9012 9.91584)
(126.119 36.061 24.8973)
(120.519 43.8068 15.3102)
(121.828 35.9021 18.2966)
(122.994 21.3444 20.8014)
(123.99 26.102 21.673)
(129.044 18.617 26.7479)
(120.577 26.5663 30.3069)
(117.748 20.3147 12.5845)
(117.7 2.59871 19.8011)
(117.912 1.54149 7.01031)
(121.365 8.94459 35.1713)
(114.878 1.58264 34.5193)
(123.823 9.51357 29.7417)
(120.988 1.41592 24.6294)
(113.14 10.2432 2.59091)
(112.463 14.7646 3.91083)
(115.551 23.287 22.1038)
(113.933 44.8003 7.00727)
(110.56 43.3762 13.6801)
(113.09 35.8488 11.727)
(117.58 34.4892 -3.66762)
(114.339 25.4027 8.08919)
(114.372 37.8617 -11.5863)
(117.296 39.8894 -6.82936)
(117.102 60.8908 -10.4535)
(115.728 63.3933 -3.74795)
(114.91 62.2072 -13.5979)
(111.611 45.66 -20.6676)
(110.946 36.2506 -9.82863)
(114.339 21.2558 5.58675)
(115.524 33.3665 1.03666)
(115.333 34.3455 -7.66181)
(107.301 21.352 1.80664)
(108.126 33.4897 -10.8224)
(106.844 29.9762 -9.04459)
(115.644 11.0337 0.91859)
(112.42 31.3079 -13.088)
(109.788 12.8077 -4.40323)
(106.733 41.3095 -11.8567)
(104.749 50.5921 -0.518579)
(104.738 25.4939 -14.7448)
(102.908 15.9702 -24.0552)
(102.881 4.07639 -2.87233)
(106.42 -8.55526 -5.06314)
(110.123 -1.93057 -1.26405)
(104.265 -5.69679 0.359669)
(105.358 -2.76037 -9.10298)
(104.168 3.37605 -1.76108)
(102.613 -2.26719 21.8423)
(106.037 -14.3528 17.6294)
(105.899 -1.36015 2.24928)
(108.4 -3.27717 -4.0941)
(105.42 6.94112 5.67941)
(107.517 -2.14138 16.3412)
(107.487 12.1004 3.44769)
(103.573 -7.60352 -5.8398)
(107.1 14.8665 20.8506)
(107.769 16.136 -0.279431)
(101.293 9.13116 2.04486)
(107.104 -1.66249 -10.2606)
(104.138 -9.00077 1.55026)
(105.525 -6.34701 21.1517)
(106.978 -15.7713 13.4483)
(98.0514 -7.14197 28.3748)
(101.436 3.53611 1.01414)
(100.025 -5.56018 6.74468)
(103.4 -9.99841 18.1507)
(99.6017 6.8908 -1.56481)
(102.957 -6.74219 18.23)
(101.989 -8.26901 30.7619)
(103.925 -13.1117 23.4856)
(101.837 0.9303 17.9861)
(101.051 -5.66201 11.6482)
(105.207 -14.0887 2.47825)
(103.119 -17.6857 6.13996)
(99.7247 -21.8636 0.563799)
(101.199 6.88012 -1.83728)
(102.922 20.4076 26.7252)
(103.119 1.61496 7.58567)
(100.036 1.20121 -4.17738)
(96.6891 -11.8874 -7.22296)
(103.334 -27.9377 12.3308)
(102.445 -11.4045 25.1016)
(96.9464 -9.15104 5.15809)
(94.1827 -17.857 3.68021)
(94.4106 -5.01944 -27.2278)
(94.4407 6.22572 4.4548)
(92.0496 22.3911 11.0814)
(97.5179 43.0399 29.0836)
(93.259 41.2104 42.1783)
(91.6275 41.5544 29.743)
(97.0213 58.3139 23.6513)
(95.4816 43.8155 15.2054)
(94.7204 22.0925 15.3186)
(92.9195 33.4119 26.1254)
(90.1705 22.6613 14.1295)
(91.3159 40.7916 37.0189)
(93.0864 31.6098 22.5833)
(92.6181 26.9384 26.7066)
(90.7595 13.7229 47.7746)
(89.1012 21.6874 37.1473)
(89.8681 -2.76895 31.1173)
(91.5187 15.5697 36.1735)
(89.3269 5.55929 25.5329)
(93.1549 18.7018 16.5707)
(88.4326 22.0916 29.8455)
(90.5923 25.5408 17.3851)
(85.7302 25.8731 36.9944)
(87.5316 16.447 41.4089)
(88.4798 14.1651 22.0157)
(89.3982 -0.27394 27.4538)
(89.5535 6.80795 38.7179)
(86.9456 2.43823 63.4038)
(80.6856 0.900535 54.1362)
(80.0143 8.39324 65.2226)
(80.6894 11.5729 55.8032)
(82.003 17.17 80.6656)
(82.2947 20.1011 70.1607)
(79.6014 4.91986 60.2046)
(81.5012 -19.1383 71.7734)
(83.3191 -15.461 55.4537)
(83.5671 -19.2381 58.7114)
(78.272 -18.837 74.1082)
(78.8623 -38.524 69.3962)
(77.4298 -26.9973 51.5326)
(76.87 -9.0971 52.6016)
(79.2624 -30.4052 36.3056)
(78.4136 -51.1848 49.5305)
(75.6652 -55.1952 49.0199)
(74.5899 -47.7849 27.4781)
(76.4591 -36.7387 7.71564)
(78.1751 -55.1343 10.4762)
(80.5614 -47.22 1.19944)
(78.0485 -60.7626 -4.05727)
(77.3129 -49.1569 9.67543)
(76.419 -44.1201 15.3996)
(76.1851 -31.9852 20.9828)
(76.5771 -29.0851 0.253273)
(77.2946 -16.6996 -18.9302)
(77.5395 0.41148 -23.3072)
(77.4763 22.5644 -5.1471)
(74.1649 17.9002 10.3175)
(70.8297 14.1895 3.8197)
(73.8713 9.3687 25.7164)
(70.5864 8.78393 25.6542)
(72.13 11.5606 12.1377)
(69.9208 20.4795 2.65917)
(73.7122 6.27559 6.95013)
(70.798 -11.1911 -3.85129)
(75.537 -18.7199 4.53642)
(71.2112 3.2157 11.3006)
(72.998 7.83395 -4.25638)
(78.4176 27.5568 -3.64452)
(75.1776 -1.4536 -24.284)
(75.0174 -10.4536 -18.1863)
(74.1291 -14.9768 -17.786)
(69.2483 10.7118 -5.95944)
(71.5282 -11.5784 -17.4508)
(69.7925 -13.9816 -15.7871)
(70.7866 -3.22786 -28.4335)
(72.0554 -3.23282 -29.2552)
(69.318 -25.0692 -41.9283)
(70.1619 -17.947 -21.1064)
(67.2791 -28.3934 -12.4274)
(67.4351 -7.38241 -11.6703)
(66.2661 10.7515 -1.13535)
(62.4953 2.90958 -8.78124)
(62.5015 7.87066 2.17161)
(63.8085 2.8398 0.817152)
(64.0405 -6.11596 26.4657)
(64.3382 2.24566 26.7361)
(66.044 -8.78285 27.7338)
(67.2629 -24.722 4.8371)
(63.9383 -24.7832 -9.85517)
(61.2609 -26.8293 -1.00349)
(61.5868 -25.5067 -5.17525)
(61.1727 -18.666 14.2251)
(63.0965 -37.1904 34.2947)
(63.4006 -20.6744 22.5654)
(61.6566 -21.8264 26.4297)
(59.0413 -18.5836 31.869)
(57.7693 7.57797 3.86014)
(56.1838 7.95804 9.0887)
(56.3444 34.7191 -16.3669)
(57.7036 35.32 -4.52902)
(57.445 31.8666 -5.59867)
(58.1587 58.7874 -22.6717)
(55.7944 53.4981 -16.4499)
(57.5654 43.0739 -9.76159)
(59.6592 23.1346 -4.2835)
(56.9225 27.9283 -5.11125)
(54.0804 18.4198 -16.2773)
(51.5192 16.8361 -3.55908)
(53.0926 13.7054 -8.79969)
(55.9572 15.9145 -1.0674)
(52.9089 18.7853 -2.54631)
(53.1194 13.8766 -17.7751)
(55.8436 10.6643 -5.86016)
(54.941 13.2188 -5.05093)
(52.441 15.8001 10.8848)
(52.0028 18.6665 33.7887)
(49.7844 24.6639 20.0448)
(49.2144 18.6068 16.1265)
(50.4443 23.6243 20.9242)
(50.3835 6.27839 4.27894)
(49.5058 16.2231 -13.3008)
(46.3457 44.9855 -18.92)
(46.902 30.2715 -10.9417)
(47.712 24.0842 1.96278)
(44.653 23.4176 -11.7917)
(43.6501 46.0393 -0.142223)
(44.0549 48.9107 -10.7856)
(44.3447 27.4292 -16.038)
(43.8432 19.8057 -6.64695)
(42.2875 24.2149 -28.4068)
(42.7634 20.2531 -33.9289)
(42.3898 25.5042 -20.2969)
(42.0388 12.6905 1.14869)
(43.2479 51.489 -1.12729)
(41.8038 72.0434 -13.2867)
(40.451 44.4054 -9.8137)
(42.8458 30.9661 12.7144)
(46.3404 23.8796 15.2879)
(43.9449 46.0064 26.1766)
(43.6709 51.3343 16.9744)
(45.4527 29.8317 3.2101)
(43.1544 15.4763 -0.945558)
(43.0982 0.931844 -19.7953)
(43.0073 9.4961 -39.2681)
(42.0205 4.90725 -18.7903)
(39.2646 27.9236 -39.7403)
(40.6234 -3.33791 -18.9383)
(38.2047 13.6686 -31.7406)
(39.1584 20.7123 -22.1643)
(38.9309 7.78734 -23.3019)
(39.2634 24.5758 -16.2887)
(37.5142 29.9937 -30.9883)
(37.034 57.0413 -26.3853)
(36.9351 77.6036 -20.7061)
(38.7733 86.0531 -27.4563)
(37.4289 63.4164 -30.2275)
(37.131 57.5095 -14.4909)
(35.84 60.9089 -11.5123)
(33.8697 54.3754 -33.7812)
(34.9516 40.3765 -43.8785)
(33.0864 24.9116 -53.8326)
(32.9782 25.5901 -49.5857)
(30.7159 18.389 -34.8091)
(31.6415 18.1255 -37.3264)
(31.2126 24.9505 -24.1406)
(30.014 11.5828 -19.0121)
(26.2282 5.42702 -31.0912)
(25.3912 6.10233 -0.288593)
(24.1203 -6.76949 -11.8876)
(23.3247 -18.1691 -9.77702)
(22.2988 -22.285 -23.3287)
(20.4537 -19.1301 -8.68893)
(19.1564 -30.2235 6.05327)
(18.9773 -17.6115 2.12529)
(17.0657 -28.72 -4.03765)
(16.0608 -43.4281 -17.777)
(13.3458 -34.8506 -4.46402)
(11.6545 -54.2418 -14.5307)
(10.0219 -55.6587 -17.101)
(9.29565 -68.8576 -13.5989)
(7.53758 -67.0634 -34.9784)
(5.57788 -71.399 -32.4901)
(4.40369 -86.6222 -42.3272)
(2.73388 -109.463 -31.9394)
(2.544 -112.029 -2.31929)
(1.36698 -90.3416 13.4205)
(0.789728 -91.3659 26.6377)
)
;

boundaryField
{
    sides
    {
        type            symmetry;
    }
    empty
    {
        type            empty;
    }
}


// ************************************************************************* //
