/*--------------------------------*- C++ -*----------------------------------*\
  =========                 |
  \\      /  F ield         | OpenFOAM: The Open Source CFD Toolbox
   \\    /   O peration     | Website:  https://openfoam.org
    \\  /    A nd           | Version:  7
     \\/     M anipulation  |
\*---------------------------------------------------------------------------*/
FoamFile
{
    version     2.0;
    format      ascii;
    class       volScalarField;
    location    "0.00324";
    object      internalE;
}
// * * * * * * * * * * * * * * * * * * * * * * * * * * * * * * * * * * * * * //

dimensions      [1 -1 -2 0 0 0 0];

internalField   nonuniform List<scalar> 
125
(
366.061
349.071
416.571
409.775
475.644
357.011
456.2
436.776
539.835
390.19
496.16
447.588
348.783
421.223
384.306
376.889
411.586
335.921
472.083
337.986
441.255
532.087
372.249
417.676
348.753
386.056
466.761
422.629
338.447
574.891
474.235
357.334
424.297
380.432
470.54
438.487
509.637
450.464
462.851
385.118
389.268
462.346
414.621
414.074
367.847
334.188
512.815
373.089
487.916
440.968
372.387
346.126
468.712
333.497
485.399
447.553
475.956
384.189
392.879
452.821
602.568
453.308
402.244
441.582
427.392
451.694
400.039
351.803
392.479
454.902
445.871
494.385
394.612
446.292
541.12
423.316
399.101
487.434
459.856
488.349
437.036
375.932
484.852
405.372
554.133
456.987
419.544
475.585
432.351
444.427
477.258
457.384
474.692
450.919
445.132
375.557
454.61
391.57
474.298
376.323
388.552
404.552
471.22
422.861
448.372
429.04
404.155
429.482
435.873
448.485
483.164
389.825
426.4
381.94
439.344
462.65
471.972
350.503
428.755
424.102
384.637
448.077
410.247
372.397
422.49
)
;

boundaryField
{
    sides
    {
        type            symmetry;
    }
    empty
    {
        type            empty;
    }
    procBoundary2to1
    {
        type            processor;
        value           uniform 323.454;
    }
    procBoundary2to3
    {
        type            processor;
        value           uniform 466.326;
    }
}


// ************************************************************************* //
