/*--------------------------------*- C++ -*----------------------------------*\
  =========                 |
  \\      /  F ield         | OpenFOAM: The Open Source CFD Toolbox
   \\    /   O peration     | Website:  https://openfoam.org
    \\  /    A nd           | Version:  7
     \\/     M anipulation  |
\*---------------------------------------------------------------------------*/
FoamFile
{
    version     2.0;
    format      ascii;
    class       volScalarField;
    location    "0.00324";
    object      linearKE;
}
// * * * * * * * * * * * * * * * * * * * * * * * * * * * * * * * * * * * * * //

dimensions      [1 -1 -2 0 0 0 0];

internalField   nonuniform List<scalar> 
125
(
903.049
797.252
645.737
764.833
756.363
735.841
804.579
879.208
780.189
898.957
888.343
790.344
718.871
861.412
893.469
879.089
803.582
821.561
803.59
862.481
921.293
821.075
902.726
905.534
717.013
858.222
836.534
866.897
669.519
858.094
915.001
716.071
785.162
944.517
794.445
800.256
824.959
712.79
734.141
751.601
1060.39
800.59
740.382
830.356
737.712
902.216
702.639
737.505
834.848
839.671
873.277
777.894
828.797
790.14
756.572
752.774
695.846
738.567
902.905
732.103
856.991
783.504
651.355
867.471
756.22
911.794
916.803
980.474
873.676
638.007
899.413
961.98
800.902
818.446
879.258
883.851
709.866
864.996
983.288
682.885
807.305
882.866
813.857
889.006
790.277
616.297
897.888
896.554
876.499
855.154
864.168
869.323
796.614
852.866
866.656
798.487
854.549
862.3
798.879
815.614
724.271
987.51
959.117
839.315
999.418
939.82
861.761
825.965
866.805
895.153
806.184
845.701
941.44
936.84
818.364
793.803
894.643
885.401
927.458
932.842
916.758
863.346
928.332
918.065
964.55
)
;

boundaryField
{
    sides
    {
        type            symmetry;
    }
    empty
    {
        type            empty;
    }
    procBoundary2to1
    {
        type            processor;
        value           uniform 807.552;
    }
    procBoundary2to3
    {
        type            processor;
        value           uniform 850.955;
    }
}


// ************************************************************************* //
