/*--------------------------------*- C++ -*----------------------------------*\
  =========                 |
  \\      /  F ield         | OpenFOAM: The Open Source CFD Toolbox
   \\    /   O peration     | Website:  https://openfoam.org
    \\  /    A nd           | Version:  7
     \\/     M anipulation  |
\*---------------------------------------------------------------------------*/
FoamFile
{
    version     2.0;
    format      ascii;
    class       volVectorField;
    location    "0.00324";
    object      momentum;
}
// * * * * * * * * * * * * * * * * * * * * * * * * * * * * * * * * * * * * * //

dimensions      [1 -2 -1 0 0 0 0];

internalField   nonuniform List<vector> 
125
(
(0.663886 0.0416532 0.106468)
(0.791529 -0.0376706 0.075718)
(0.868136 0.00797939 -0.00291754)
(0.971753 0.0696804 -0.0534367)
(0.915729 -0.0280548 -0.00229661)
(0.626061 0.0265547 -0.021391)
(0.759012 -0.0427617 -0.0317118)
(0.903645 -0.0136235 0.0837621)
(0.877488 -0.147507 0.02713)
(0.832321 -0.0990605 0.0879386)
(1.02971 0.0767388 0.191203)
(0.921262 -0.0206051 0.0971688)
(0.763959 0.0127069 -0.120247)
(0.749606 -0.00336044 -0.166075)
(0.693538 0.126895 -0.0181821)
(0.880275 0.0468417 -0.0351842)
(0.783432 -0.0098272 -0.0447683)
(0.689604 0.0483942 -0.0784019)
(0.870408 0.0681041 0.114529)
(0.625585 -0.0880266 -0.0487395)
(0.876791 0.1428 0.142004)
(1.0426 -0.0443752 -0.0895749)
(0.906939 -0.0435276 -0.0235187)
(0.810396 0.0910403 -0.0408441)
(0.783063 0.0618704 -0.0791942)
(0.66307 0.161983 -0.0181043)
(0.894422 0.000145809 0.00541154)
(0.861229 0.0659875 -0.0302936)
(0.769736 -0.0590661 -0.0807497)
(0.870792 0.0464408 -0.0177876)
(0.96577 -0.106607 -0.0144467)
(0.787672 0.0352379 -0.201041)
(0.855124 -0.025065 0.156636)
(0.835633 -0.0357196 0.0509691)
(0.777441 0.126868 0.129539)
(0.908071 0.117972 0.181669)
(0.847454 -0.0588542 -0.0400432)
(0.758717 0.00135094 -0.0164071)
(1.07163 0.092707 -0.000715574)
(0.920678 0.0489883 0.0115359)
(0.812004 -0.128547 -0.0533479)
(0.901659 0.0531738 -0.0370763)
(0.760593 -0.0313256 -0.0221762)
(0.827999 -0.0271061 0.039933)
(0.818063 0.0337651 0.0850408)
(0.76192 -0.028248 -0.0566211)
(0.90057 -0.130532 -0.0791566)
(0.772356 0.0382271 0.0475297)
(0.853052 -0.0617253 -0.163637)
(0.824152 -0.101605 0.0156742)
(0.818253 0.00682177 -0.0567511)
(0.750123 -0.0977442 0.0577103)
(0.857228 0.0511661 -0.0094135)
(0.724709 -0.00305933 -0.00957403)
(1.01923 -0.117203 0.0827859)
(0.876898 0.0826675 0.0252394)
(0.821062 -0.066037 0.0669958)
(0.973371 0.0471058 -0.0884248)
(0.587672 0.0319048 -0.0336342)
(0.999439 0.162104 -0.177328)
(1.17692 0.147911 0.0858786)
(0.841813 0.0120863 0.0297396)
(0.776161 0.0138683 0.00243013)
(0.923921 0.00779172 0.00394399)
(0.748393 -0.0566054 -0.049931)
(0.703986 -0.134327 0.0757869)
(0.886371 -0.0678111 -0.0406043)
(0.765034 -0.0345788 0.0137552)
(0.818927 0.0445695 -0.0188165)
(0.707442 -0.0433175 -0.110977)
(0.73553 -0.127446 0.0525675)
(1.01479 -0.00179481 0.14149)
(0.828012 -0.0245149 -0.0854807)
(0.796943 0.103182 0.0194221)
(0.931233 -0.0640706 0.128632)
(0.848039 -0.0269106 0.00226122)
(0.930337 -0.0148353 -0.0608879)
(0.697578 -0.0273815 -0.111267)
(0.847489 0.128466 0.147876)
(0.845968 -0.0550842 0.084053)
(0.906818 0.0850165 0.0694334)
(0.804694 -0.0640443 -0.00471037)
(0.90201 -0.0193868 0.072)
(0.87632 -0.0627212 0.00651164)
(0.92907 0.041518 -0.0868489)
(0.991475 0.0446401 -0.214311)
(0.908979 -0.0924079 0.0130547)
(0.826977 -0.0358945 0.109318)
(0.89484 0.0642121 -0.0122002)
(0.997988 -0.0142275 0.0915725)
(1.0471 0.00393288 -0.0947059)
(0.899953 0.106647 -0.033146)
(1.17045 -0.0732511 0.10413)
(1.22702 -0.045334 -0.00872739)
(0.997755 -0.0658344 -0.0986499)
(0.985206 0.156912 0.0474605)
(1.1365 0.0574904 0.0909597)
(1.17195 -0.151603 0.110975)
(1.02329 -0.0761523 -0.134097)
(0.892662 0.0695093 0.16941)
(1.17093 -0.0572722 -0.107596)
(1.10183 0.0735904 -0.0969014)
(1.16388 -0.038807 -0.0249858)
(1.18761 0.126299 -0.155139)
(1.29459 -0.116565 -0.00713285)
(1.11357 -0.0568081 -0.0664994)
(1.19266 -0.0178554 -0.0173946)
(1.31413 0.0412376 0.0849564)
(1.22623 0.0509259 0.155209)
(1.36353 0.0595785 0.0334191)
(1.38496 -0.055323 0.0151022)
(1.27274 0.0174702 0.14257)
(1.33013 0.0819793 -0.0291337)
(1.27255 0.0232862 -0.0326045)
(1.05936 -0.0745372 0.0843227)
(1.39295 0.0259237 -0.0337649)
(1.36741 0.0982421 -0.148839)
(1.18507 0.0268753 -0.129563)
(1.33317 0.00284252 0.0371365)
(1.18182 0.0280002 -0.0146669)
(1.07415 -0.0158116 0.163913)
(1.15685 0.0263925 -0.0402046)
(1.17288 -0.00926429 -0.0845307)
(1.02723 0.0614206 -0.0610289)
(1.25464 -0.0657659 0.11322)
)
;

boundaryField
{
    sides
    {
        type            symmetry;
    }
    empty
    {
        type            empty;
    }
    procBoundary2to1
    {
        type            processor;
        value           uniform (0.624327 0.0912578 -0.0641204);
    }
    procBoundary2to3
    {
        type            processor;
        value           uniform (1.15853 -0.140653 0.121709);
    }
}


// ************************************************************************* //
