/*--------------------------------*- C++ -*----------------------------------*\
  =========                 |
  \\      /  F ield         | OpenFOAM: The Open Source CFD Toolbox
   \\    /   O peration     | Website:  https://openfoam.org
    \\  /    A nd           | Version:  7
     \\/     M anipulation  |
\*---------------------------------------------------------------------------*/
FoamFile
{
    version     2.0;
    format      ascii;
    class       volScalarField;
    location    "0.002";
    object      p;
}
// * * * * * * * * * * * * * * * * * * * * * * * * * * * * * * * * * * * * * //

dimensions      [1 -1 -2 0 0 0 0];

internalField   nonuniform List<scalar> 
1000
(
1.25562e+06
55133.8
43839.1
43920.2
43923.1
43885.3
43802.5
43684
43554.4
43459.8
43403.9
43361.5
43305.4
43205.5
43030.6
42792.8
42677.8
42665
42681.9
42736.5
42890.9
43156.2
43535.7
44021.1
44579.7
45191
45840.9
46523
47234.1
47971.6
48733
49515.6
50316.9
51134.6
51967.2
52813.4
53672.6
54544.2
55428
56323.9
57232
58152.2
59084.7
60029.6
60987.1
61957.6
62941.2
63938.3
64949.3
65974.7
67014.7
68069.9
69140.7
70227.7
71331.5
72452.4
73591.3
74748.6
75925.2
77121.8
78339.5
79579.1
80842.1
82130.1
83445.6
84793.1
86182.2
87633.6
89191.2
90940.2
93018.1
95478.1
97715.2
98979.6
99551.9
99806.1
99917.8
99965.9
99986.2
99994.5
99997.9
99999.2
99999.7
99999.9
100000
100000
100000
100000
100000
100000
100000
100000
100000
100000
100000
100000
100000
100000
100000
100000
100000
100000
100000
100000
100000
100000
100000
100000
100000
100000
100000
100000
100000
100000
100000
100000
100000
100000
100000
100000
100000
100000
100000
100000
100000
100000
100000
100000
100000
100000
100000
100000
100000
100000
100000
100000
100000
100000
100000
100000
100000
100000
100000
100000
100000
100000
100000
100000
100000
100000
100000
100000
100000
100000
100000
100000
100000
100000
100000
100000
100000
100000
100000
100000
100000
100000
100000
100000
100000
100000
100000
100000
100000
100000
100000
100000
100000
100000
100000
100000
100000
100000
100000
100000
100000
100000
100000
100000
100000
100000
100000
100000
100000
100000
100000
100000
100000
100000
100000
100000
100000
100000
100000
100000
100000
100000
100000
100000
100000
100000
100000
100000
100000
100000
100000
100000
100000
100000
100000
100000
100000
100000
100000
100000
100000
100000
100000
100000
100000
100000
100000
100000
100000
100000
100000
100000
100000
100000
100000
100000
100000
100000
100000
100000
100000
100000
100000
100000
100000
100000
100000
100000
100000
100000
100000
100000
100000
100000
100000
100000
100000
100000
100000
100000
100000
100000
100000
100000
100000
100000
100000
100000
100000
100000
100000
100000
100000
100000
100000
100000
100000
100000
100000
100000
100000
100000
100000
100000
100000
100000
100000
100000
100000
100000
100000
100000
100000
100000
100000
100000
100000
100000
100000
100000
100000
100000
100000
100000
100000
100000
100000
100000
100000
100000
100000
100000
100000
100000
100000
100000
100000
100000
100000
100000
100000
100000
100000
100000
100000
100000
100000
100000
100000
100000
100000
100000
100000
100000
100000
100000
100000
100000
100000
100000
100000
100000
100000
100000
100000
100000
100000
100000
100000
100000
100000
100000
100000
100000
100000
100000
100000
100000
100000
100000
100000
100000
100000
100000
100000
100000
100000
100000
100000
100000
100000
100000
100000
100000
100000
100000
100000
100000
100000
100000
100000
100000
100000
100000
100000
100000
100000
100000
100000
100000
100000
100000
100000
100000
100000
100000
100000
100000
100000
100000
100000
100000
100000
100000
100000
100000
100000
100000
100000
100000
100000
100000
99999.9
99999.8
99999.5
99998.6
99996.5
99991
99977.5
99945.3
99870.1
99698.3
99311.5
98446.9
96670
94199.4
91924
90033.2
88392
86889.2
85463.9
84086.1
82742.4
81426.3
80134.8
78866.2
77619.1
76392.5
75185.6
73997.5
72827.7
71675.5
70540.6
69422.4
68320.6
67234.7
66164.5
65109.6
64069.7
63044.5
62033.8
61037.2
60054.7
59085.8
58130.5
57188.5
56259.6
55343.6
54440.3
53549.6
52671.2
51805.1
50951
50108.7
49278.3
48459.4
47652
46855.9
46071.1
45297.3
44534.4
43782.4
43041.2
42310.5
41590.5
40880.8
40181.6
39492.7
38814
38145.6
37487.3
36839.2
36201.2
35573.3
34955.5
34347.9
33750.9
33165.1
32592.7
32039.4
31517.5
31055.4
30692.2
30458.1
30355.4
30328.9
30323.7
30309.8
30268.6
30253
30250.6
30254.4
30257.5
30257.9
30257.5
30259.1
30259.8
30258.9
30258.2
30260
30272.3
30284.6
30290.5
30292.9
30294.2
30294.9
30294.9
30294.1
30296.1
30304.6
30312.1
30315.3
30316.6
30317.7
30318
30317.3
30316.8
30323.1
30335.6
30343.5
30345.8
30345.1
30338.8
30326.3
30315.7
30312
30314.5
30314.3
30309.8
30305.4
30301.4
30296.4
30291.4
30293.4
30301.8
30304.5
30302.4
30300.4
30299.2
30296.4
30293.2
30300.9
30319.8
30354
30413.9
30067.7
30224
30711.1
30730.7
30301.4
30042.8
30021.3
30032.3
30061.4
30159.3
30423.3
30622.3
30640.9
30599.1
30458.4
30174.2
30069
30053.5
30065
30157.8
30425.2
30558.9
30577.1
30569.9
30474.8
30209.9
30079.5
30067.2
30080.1
30146.1
30350.3
30503.3
30528.4
30517.5
30470.6
30304.8
30135.2
30107.5
30109.3
30140.8
30276.2
30451.2
30491.8
30497.3
30471.8
30344.9
30187.8
30157.9
30142.9
30085.7
29582
25637
14207
10334.2
10026.4
10002.1
10000.2
10000
10000
10000
10000
10000
10000
10000
10000
10000
10000
10000
10000
10000
10000
10000
10000
10000
10000
10000
10000
10000
10000
10000
10000
10000
10000
10000
10000
10000
10000
10000
10000
10000
10000
10000
10000
10000
10000
10000
10000
10000
10000
10000
10000
10000
10000
10000
10000
10000
10000
10000
10000
10000
10000
10000
10000
10000
10000
10000
10000
10000
10000
10000
10000
10000
10000
10000
10000
10000
10000
10000
10000
10000
10000
10000
10000
10000
10000
10000
10000
10000
10000
10000
10000
10000
10000
10000
10000
10000
10000
10000
10000
10000
10000
10000
10000
10000
10000
10000
10000
10000
10000
10000
10000
10000
10000
10000
10000
10000
10000
10000
10000
10000
10000
10000
10000
10000
10000
10000
10000
10000
10000
10000
10000
10000
10000
10000
10000
10000
10000
10000
10000
10000
10000
10000
10000
10000
10000
10000
10000
10000
10000
10000
10000
10000
10000
10000
10000
10000
10000
10000
10000
10000
10000
10000
10000
10000
10000
10000
10000
10000
10000
10000
10000
10000
10000
10000
10000
10000
10000
10000
10000
10000
10000
10000
10000
10000
10000
10000
10000
10000
10000
10000
10000
10000
10000
10000
10000
10000
10000
10000
10000
10000
10000
10000
10000
10000
10000
10000
10000
10000
10000
10000
10000
10000
10000
10000
10000
10000
10000
10000
10000
10000
10000
10000
10000
10000
10000
10000
10000
10000
10000
10000
10000
10000
10000
10000
10000
10000
10000
10000
10000
10000
10000
10000
10000
10000
10000
10000
10000
10000
10000
10000
10000
10000
10000
10000
10000
10000
10000
10000
10000
10000
10000
10000
10000
10000
10000
10000
10000
10000
10000
10000
10000
10000
10000
10000
10000
10000
10000
10000
10000
10000
10000
10000
10000
10000
10000
10000
10000
10000
10000
10000
10000
10000
10000
10000
10000
10000
10000
10000
10000
10000
10000
10000
10000
10000
10000
10000
10000
10000
10000
10000
10000
10000
10000
10000
9999.99
9999.97
9999.93
9999.81
9999.5
9998.73
9996.85
9992.41
9982.21
9959.39
9909.41
9802.67
9607.58
9366.5
9145.06
8952.53
8779.27
8617.48
8462.83
8313.15
8167.37
8024.94
7885.54
7748.96
7615.04
7483.63
7354.62
7227.92
7103.42
6981.06
6860.75
6742.42
6626
6511.44
6398.66
6287.62
6178.26
6070.54
5964.42
5859.86
5756.85
5655.35
5555.37
5456.91
5359.99
5264.65
5170.96
5079.07
4989.15
4901.49
4816.44
4734.41
4655.82
4581.12
4510.86
4445.99
4388.11
4340.06
4303.66
4280.89
4269.65
4265.04
4264.9
4270.48
4291.87
4314.39
4327.1
4333.41
4337.73
4342.33
4349.4
4360.33
4371.6
4391.18
4384.89
5434.58
113464
)
;

boundaryField
{
    sides
    {
        type            codedFixedValue;
        value           uniform 0.1;
        name            HPCFluid;
        code            #{
        operator==(min(10, 0.1));
  #};
    }
    null
    {
        type            empty;
    }
}


// ************************************************************************* //
