/*--------------------------------*- C++ -*----------------------------------*\
  =========                 |
  \\      /  F ield         | OpenFOAM: The Open Source CFD Toolbox
   \\    /   O peration     | Website:  https://openfoam.org
    \\  /    A nd           | Version:  7
     \\/     M anipulation  |
\*---------------------------------------------------------------------------*/
FoamFile
{
    version     2.0;
    format      ascii;
    class       volScalarField;
    location    "0.002";
    object      T;
}
// * * * * * * * * * * * * * * * * * * * * * * * * * * * * * * * * * * * * * //

dimensions      [0 0 0 1 0 0 0];

internalField   nonuniform List<scalar> 
1000
(
185.991
221.14
267.982
274.773
275.292
275.249
275.084
274.873
274.644
274.475
274.375
274.3
274.201
274.021
273.705
273.273
273.064
273.041
273.074
273.175
273.458
273.941
274.629
275.501
276.497
277.577
278.714
279.894
281.112
282.361
283.636
284.932
286.244
287.568
288.9
290.239
291.582
292.929
294.28
295.634
296.99
298.349
299.71
301.074
302.441
303.81
305.183
306.559
307.939
309.322
310.71
312.103
313.501
314.904
316.312
317.727
319.149
320.578
322.014
323.459
324.913
326.376
327.851
329.338
330.839
332.36
333.91
335.511
337.208
339.089
341.291
343.852
346.138
347.412
347.985
348.239
348.35
348.398
348.418
348.427
348.43
348.431
348.432
348.432
348.432
348.432
348.432
348.432
348.432
348.432
348.432
348.432
348.432
348.432
348.432
348.432
348.432
348.432
348.432
348.432
348.432
348.432
348.432
348.432
348.432
348.432
348.432
348.432
348.432
348.432
348.432
348.432
348.432
348.432
348.432
348.432
348.432
348.432
348.432
348.432
348.432
348.432
348.432
348.432
348.432
348.432
348.432
348.432
348.432
348.432
348.432
348.432
348.432
348.432
348.432
348.432
348.432
348.432
348.432
348.432
348.432
348.432
348.432
348.432
348.432
348.432
348.432
348.432
348.432
348.432
348.432
348.432
348.432
348.432
348.432
348.432
348.432
348.432
348.432
348.432
348.432
348.432
348.432
348.432
348.432
348.432
348.432
348.432
348.432
348.432
348.432
348.432
348.432
348.432
348.432
348.432
348.432
348.432
348.432
348.432
348.432
348.432
348.432
348.432
348.432
348.432
348.432
348.432
348.432
348.432
348.432
348.432
348.432
348.432
348.432
348.432
348.432
348.432
348.432
348.432
348.432
348.432
348.432
348.432
348.432
348.432
348.432
348.432
348.432
348.432
348.432
348.432
348.432
348.432
348.432
348.432
348.432
348.432
348.432
348.432
348.432
348.432
348.432
348.432
348.432
348.432
348.432
348.432
348.432
348.432
348.432
348.432
348.432
348.432
348.432
348.432
348.432
348.432
348.432
348.432
348.432
348.432
348.432
348.432
348.432
348.432
348.432
348.432
348.432
348.432
348.432
348.432
348.432
348.432
348.432
348.432
348.432
348.432
348.432
348.432
348.432
348.432
348.432
348.432
348.432
348.432
348.432
348.432
348.432
348.432
348.432
348.432
348.432
348.432
348.432
348.432
348.432
348.432
348.432
348.432
348.432
348.432
348.432
348.432
348.432
348.432
348.432
348.432
348.432
348.432
348.432
348.432
348.432
348.432
348.432
348.432
348.432
348.432
348.432
348.432
348.432
348.432
348.432
348.432
348.432
348.432
348.432
348.432
348.432
348.432
348.432
348.432
348.432
348.432
348.432
348.432
348.432
348.432
348.432
348.432
348.432
348.432
348.432
348.432
348.432
348.432
348.432
348.432
348.432
348.432
348.432
348.432
348.432
348.432
348.432
348.432
348.432
348.432
348.432
348.432
348.432
348.432
348.432
348.432
348.432
348.432
348.432
348.432
348.432
348.432
348.432
348.432
348.432
348.432
348.432
348.432
348.432
348.432
348.432
348.432
348.432
348.432
348.432
348.432
348.432
348.432
348.432
348.432
348.432
348.432
348.432
348.432
348.432
348.432
348.432
348.432
348.432
348.432
348.432
348.432
348.432
348.432
348.432
348.432
348.432
348.432
348.432
348.432
348.432
348.432
348.432
348.432
348.432
348.432
348.432
348.432
348.432
348.432
348.432
348.432
348.432
348.432
348.432
348.432
348.432
348.432
348.432
348.432
348.432
348.432
348.432
348.432
348.432
348.432
348.432
348.432
348.432
348.432
348.431
348.431
348.428
348.423
348.41
348.378
348.303
348.131
347.745
346.877
345.075
342.527
340.136
338.117
336.34
334.692
333.111
331.564
330.039
328.527
327.027
325.536
324.054
322.58
321.113
319.652
318.197
316.748
315.304
313.865
312.431
311.001
309.576
308.155
306.739
305.326
303.917
302.511
301.109
299.711
298.316
296.924
295.536
294.151
292.769
291.39
290.014
288.641
287.271
285.904
284.54
283.178
281.82
280.465
279.112
277.762
276.416
275.072
273.731
272.393
271.059
269.727
268.399
267.074
265.753
264.435
263.121
261.811
260.506
259.205
257.909
256.618
255.333
254.057
252.795
251.559
250.379
249.323
248.484
247.941
247.701
247.635
247.621
247.587
247.488
247.458
247.443
247.45
247.453
247.452
247.45
247.454
247.453
247.449
247.442
247.444
247.47
247.494
247.509
247.515
247.515
247.514
247.509
247.498
247.498
247.513
247.529
247.536
247.537
247.536
247.532
247.523
247.511
247.52
247.544
247.564
247.564
247.559
247.538
247.498
247.461
247.439
247.442
247.44
247.428
247.413
247.389
247.349
247.295
247.288
247.309
247.358
247.465
247.732
248.333
249.582
252.048
256.742
265.323
280.455
305.665
339.564
371.79
390.37
397.418
398.754
399.062
399.483
399.685
399.722
399.754
400.22
400.455
399.999
399.174
398.101
396.751
396.122
395.903
395.838
396.11
397.239
398.005
398.336
398.608
398.597
397.902
397.534
397.562
397.654
397.834
398.429
398.823
398.756
398.468
398.02
397.212
396.495
396.351
396.361
396.564
397.301
398.224
398.563
398.707
398.715
398.311
397.679
397.53
397.424
397.12
395.105
378.818
316.81
281.68
278.964
278.763
278.747
278.746
278.746
278.746
278.746
278.746
278.746
278.746
278.746
278.746
278.746
278.746
278.746
278.746
278.746
278.746
278.746
278.746
278.746
278.746
278.746
278.746
278.746
278.746
278.746
278.746
278.746
278.746
278.746
278.746
278.746
278.746
278.746
278.746
278.746
278.746
278.746
278.746
278.746
278.746
278.746
278.746
278.746
278.746
278.746
278.746
278.746
278.746
278.746
278.746
278.746
278.746
278.746
278.746
278.746
278.746
278.746
278.746
278.746
278.746
278.746
278.746
278.746
278.746
278.746
278.746
278.746
278.746
278.746
278.746
278.746
278.746
278.746
278.746
278.746
278.746
278.746
278.746
278.746
278.746
278.746
278.746
278.746
278.746
278.746
278.746
278.746
278.746
278.746
278.746
278.746
278.746
278.746
278.746
278.746
278.746
278.746
278.746
278.746
278.746
278.746
278.746
278.746
278.746
278.746
278.746
278.746
278.746
278.746
278.746
278.746
278.746
278.746
278.746
278.746
278.746
278.746
278.746
278.746
278.746
278.746
278.746
278.746
278.746
278.746
278.746
278.746
278.746
278.746
278.746
278.746
278.746
278.746
278.746
278.746
278.746
278.746
278.746
278.746
278.746
278.746
278.746
278.746
278.746
278.746
278.746
278.746
278.746
278.746
278.746
278.746
278.746
278.746
278.746
278.746
278.746
278.746
278.746
278.746
278.746
278.746
278.746
278.746
278.746
278.746
278.746
278.746
278.746
278.746
278.746
278.746
278.746
278.746
278.746
278.746
278.746
278.746
278.746
278.746
278.746
278.746
278.746
278.746
278.746
278.746
278.746
278.746
278.746
278.746
278.746
278.746
278.746
278.746
278.746
278.746
278.746
278.746
278.746
278.746
278.746
278.746
278.746
278.746
278.746
278.746
278.746
278.746
278.746
278.746
278.746
278.746
278.746
278.746
278.746
278.746
278.746
278.746
278.746
278.746
278.746
278.746
278.746
278.746
278.746
278.746
278.746
278.746
278.746
278.746
278.746
278.746
278.746
278.746
278.746
278.746
278.746
278.746
278.746
278.746
278.746
278.746
278.746
278.746
278.746
278.746
278.746
278.746
278.746
278.746
278.746
278.746
278.746
278.746
278.746
278.746
278.746
278.746
278.746
278.746
278.746
278.746
278.746
278.746
278.746
278.746
278.746
278.746
278.746
278.746
278.746
278.746
278.746
278.746
278.746
278.746
278.746
278.746
278.746
278.746
278.746
278.746
278.746
278.746
278.746
278.746
278.746
278.746
278.746
278.746
278.746
278.746
278.746
278.746
278.746
278.746
278.746
278.746
278.746
278.746
278.746
278.746
278.746
278.746
278.746
278.746
278.746
278.746
278.746
278.746
278.746
278.745
278.744
278.742
278.736
278.721
278.686
278.604
278.422
278.022
277.163
275.574
273.576
271.708
270.057
268.55
267.123
265.742
264.388
263.052
261.73
260.421
259.122
257.832
256.55
255.276
254.01
252.749
251.495
250.247
249.004
247.766
246.532
245.302
244.076
242.854
241.634
240.418
239.204
237.993
236.785
235.579
234.376
233.178
231.983
230.794
229.613
228.442
227.286
226.151
225.042
223.966
222.932
221.948
221.03
220.203
219.51
218.982
218.649
218.484
218.416
218.412
218.493
218.804
219.131
219.314
219.403
219.465
219.53
219.632
219.8
219.969
219.822
214.612
177.945
149.893
)
;

boundaryField
{
    sides
    {
        type            zeroGradient;
    }
    null
    {
        type            empty;
    }
}


// ************************************************************************* //
