/*--------------------------------*- C++ -*----------------------------------*\
  =========                 |
  \\      /  F ield         | OpenFOAM: The Open Source CFD Toolbox
   \\    /   O peration     | Website:  https://openfoam.org
    \\  /    A nd           | Version:  7
     \\/     M anipulation  |
\*---------------------------------------------------------------------------*/
FoamFile
{
    version     2.0;
    format      ascii;
    class       scalarField;
    location    "0.00036/lagrangian/dsmc";
    object      Ei;
}
// * * * * * * * * * * * * * * * * * * * * * * * * * * * * * * * * * * * * * //


9206
(
2.18881e-21
1.24596e-20
4.42047e-21
4.48309e-22
9.46608e-21
1.86713e-21
6.69029e-21
3.7885e-21
1.81243e-20
1.39641e-21
4.21958e-21
2.98544e-21
3.21497e-21
6.47398e-21
2.33287e-21
7.40703e-21
1.78073e-22
1.52474e-22
3.66269e-21
6.94814e-22
7.32641e-21
1.78415e-23
1.15216e-21
6.4534e-21
4.34567e-21
3.96194e-21
5.64382e-21
7.69882e-21
6.58805e-21
2.09974e-22
7.88996e-22
2.53364e-21
1.09713e-21
7.8466e-21
7.3137e-21
2.52427e-20
5.06584e-22
3.56475e-21
3.54823e-21
1.07326e-21
2.1006e-21
1.21692e-20
9.85068e-22
2.58149e-21
4.61047e-21
1.90354e-21
3.80415e-21
2.56913e-21
1.56204e-20
2.48092e-21
1.59603e-21
6.95619e-21
2.84948e-22
3.94563e-22
3.05034e-22
9.68289e-22
3.48189e-21
8.562e-22
3.04657e-21
3.74689e-21
4.33818e-22
1.02361e-20
8.85463e-22
1.70638e-20
3.87768e-21
5.33745e-21
4.10389e-21
6.42909e-21
6.57362e-21
1.2525e-20
3.38194e-21
1.83842e-21
1.31237e-21
1.03378e-21
5.89027e-21
3.18892e-20
2.4517e-23
1.06586e-21
1.29019e-21
2.31699e-21
1.55855e-21
3.85969e-21
2.30205e-20
1.3604e-22
5.35259e-21
1.9795e-21
4.68062e-21
5.56468e-21
7.97495e-22
1.51724e-20
4.41897e-21
1.0627e-20
1.43811e-21
9.25783e-22
5.57242e-21
6.41019e-21
3.82204e-23
3.8994e-22
2.70143e-21
1.00239e-21
2.71959e-21
2.18816e-21
2.56137e-21
1.45324e-20
2.82912e-21
2.0512e-23
4.8421e-21
7.4974e-22
2.43852e-21
3.4104e-21
6.30284e-21
2.19311e-21
3.62178e-21
1.08766e-21
1.56115e-21
6.89582e-21
2.40752e-21
2.58489e-21
2.19725e-21
6.36537e-21
3.39037e-21
2.36277e-21
1.04533e-20
6.05781e-22
2.60097e-21
3.72524e-21
4.84947e-21
2.57939e-22
3.00614e-22
2.57489e-21
2.33436e-21
4.96432e-21
3.74908e-21
3.04771e-21
5.67178e-22
3.12954e-21
7.28765e-22
9.28201e-21
5.26828e-21
3.9158e-21
9.9375e-22
3.58678e-21
2.04715e-21
8.47427e-21
5.55174e-21
1.29809e-20
5.3351e-23
2.51238e-21
2.10879e-21
5.0349e-21
1.60364e-21
3.6692e-21
2.32303e-21
7.45983e-22
1.07999e-20
2.2947e-21
3.25743e-22
6.0781e-22
6.14778e-21
3.93822e-21
7.48134e-22
2.0959e-22
6.08811e-21
2.56878e-21
5.38214e-21
1.48288e-21
5.98125e-23
5.62405e-22
1.83861e-21
2.61649e-21
4.39524e-21
2.16457e-21
2.07327e-21
1.45278e-20
6.64837e-21
1.15116e-21
6.76469e-21
3.3498e-21
5.64146e-21
2.87829e-21
5.41223e-21
3.5342e-22
6.59992e-21
8.55908e-21
1.47127e-21
9.57002e-22
3.26072e-21
3.76467e-21
2.27769e-21
9.40169e-22
1.35851e-22
3.2978e-22
1.74025e-21
2.24091e-21
1.04437e-20
1.57102e-21
2.66003e-21
7.73826e-21
2.66645e-21
9.31784e-21
2.31642e-21
5.92776e-21
3.35708e-21
2.30094e-21
5.68263e-21
3.83715e-21
1.13119e-20
4.78002e-21
1.38545e-22
5.98939e-21
1.53566e-20
3.66676e-21
2.45627e-21
5.83407e-21
1.41413e-20
2.19749e-21
3.78116e-21
1.27094e-21
3.20129e-21
3.64775e-21
4.1006e-21
3.69653e-21
4.70243e-21
7.12995e-21
1.35049e-21
3.07273e-21
8.85525e-21
4.54926e-21
5.4777e-21
5.47185e-21
2.35441e-21
3.71168e-21
4.05693e-21
4.49995e-21
3.67176e-21
9.60759e-21
9.83208e-21
6.26208e-21
4.61872e-21
8.63141e-21
1.48102e-21
1.56991e-21
7.82151e-21
5.36124e-23
4.61602e-21
3.21619e-21
2.37717e-21
1.24278e-20
2.66131e-21
7.71405e-21
2.50833e-23
1.91176e-21
4.37149e-22
4.97322e-21
6.03514e-22
4.97167e-21
1.57049e-20
3.04574e-21
4.53249e-21
7.18974e-21
2.23825e-21
6.52728e-21
1.24458e-21
1.05232e-20
1.03376e-20
6.8564e-21
1.3883e-20
1.03466e-20
1.26017e-20
9.33519e-23
1.41446e-21
1.63987e-21
2.56842e-21
6.57838e-21
6.11959e-22
6.30626e-21
3.35721e-22
5.0948e-22
7.57273e-21
7.86489e-21
2.50878e-20
8.65657e-22
6.85216e-22
1.30626e-20
2.56198e-21
4.02877e-21
3.05872e-21
4.19539e-21
1.08644e-20
1.24953e-20
1.90914e-21
1.51797e-22
1.5677e-21
9.82724e-22
3.52077e-21
2.4701e-22
7.78361e-22
6.52272e-21
3.15119e-21
9.56745e-21
5.81932e-21
4.75462e-22
5.0331e-21
1.03218e-20
1.30741e-20
9.6241e-23
4.85152e-21
7.07144e-21
3.06741e-22
1.23853e-20
7.3565e-21
2.74103e-21
1.81673e-21
5.31168e-22
1.75874e-21
1.13239e-20
1.30638e-20
4.16511e-21
7.04616e-21
4.03155e-21
2.66643e-21
5.89973e-21
5.64139e-22
7.44634e-22
2.60517e-21
1.30309e-21
4.29432e-21
2.24536e-21
2.55695e-21
6.32931e-22
7.63273e-22
4.71639e-22
3.99934e-21
3.30617e-21
6.33873e-21
2.37194e-21
1.14177e-21
1.87332e-21
1.4952e-21
4.50139e-21
1.30315e-21
1.59074e-21
2.2001e-21
1.6233e-21
6.20507e-21
1.40354e-21
1.05363e-21
4.85226e-21
5.08306e-21
1.4029e-21
4.135e-21
4.69305e-21
4.81517e-22
2.85947e-21
4.43094e-21
4.41649e-24
2.00987e-21
8.13625e-21
7.09137e-21
4.58397e-21
1.22146e-20
7.03248e-21
1.34295e-21
9.15982e-22
9.39282e-21
2.42712e-22
1.99763e-22
9.71768e-21
6.35483e-22
2.04489e-21
3.87101e-21
1.88688e-21
3.67056e-21
3.7139e-21
2.36234e-21
2.25412e-21
7.72e-22
7.9423e-23
1.72534e-21
1.7345e-21
3.68345e-21
8.46038e-22
1.69347e-20
7.22233e-21
1.05171e-21
1.59487e-21
5.56343e-22
3.10989e-21
5.48162e-21
2.16493e-21
2.83089e-21
3.42194e-22
3.99685e-21
1.4326e-20
6.63901e-21
4.15587e-22
1.92472e-22
5.70561e-21
2.03208e-21
3.79268e-21
1.85386e-21
7.85925e-21
7.05805e-21
3.85525e-21
3.83077e-21
4.1576e-21
1.26276e-21
1.1733e-21
1.88948e-21
4.66019e-21
6.62832e-21
8.82644e-21
5.53296e-21
1.68079e-21
3.14259e-22
1.09867e-20
2.06754e-20
1.98884e-21
1.22643e-21
4.66904e-22
6.12688e-21
1.45115e-21
9.22839e-21
1.0684e-20
5.50737e-21
1.76648e-21
1.28361e-21
2.68119e-21
3.70869e-21
2.46398e-21
1.74332e-21
3.37754e-21
2.47361e-21
1.8866e-21
8.50793e-21
2.25788e-23
1.72872e-20
1.07435e-20
2.67278e-21
2.03171e-21
6.76046e-22
4.40081e-21
6.30687e-21
5.12162e-21
4.99713e-22
2.51552e-21
1.04962e-21
4.53652e-21
3.04797e-22
4.41488e-22
2.30492e-21
2.06302e-21
6.818e-22
8.03271e-22
4.60733e-22
6.5837e-21
2.04293e-21
4.40706e-21
1.09065e-20
7.43923e-21
5.99205e-21
2.02295e-20
1.11338e-21
4.73531e-21
1.46087e-21
1.47279e-21
1.65602e-21
1.1303e-21
7.11149e-21
2.09298e-21
5.07533e-22
8.58115e-21
9.11981e-21
4.72939e-22
5.52918e-21
3.072e-21
5.87996e-21
2.20485e-21
1.458e-21
6.13806e-21
1.35554e-20
5.46222e-21
1.34495e-20
8.94062e-22
7.37331e-21
5.33203e-21
2.46957e-21
5.97882e-22
3.61013e-21
3.3621e-22
8.50741e-21
3.72357e-21
4.00227e-21
3.70786e-21
4.69002e-22
2.93985e-21
2.47308e-21
3.65891e-21
3.52245e-21
7.52067e-21
7.65202e-21
3.07794e-21
3.89725e-22
7.77507e-21
1.09205e-20
7.54933e-21
3.53056e-21
1.65738e-21
1.03265e-20
2.9997e-21
6.53162e-21
1.07926e-21
5.18572e-21
2.51748e-21
1.10608e-20
2.42036e-21
5.46449e-21
1.42483e-20
2.0255e-21
3.92299e-21
5.4203e-22
7.93025e-21
4.68689e-21
7.37035e-21
1.26586e-20
2.48741e-22
1.76006e-21
2.94885e-22
1.36453e-21
1.28392e-21
6.79805e-21
2.38136e-21
6.9227e-22
1.1225e-21
6.08866e-21
4.39316e-21
1.29225e-22
7.33056e-21
7.54611e-21
4.16467e-21
4.57654e-21
2.40267e-21
7.69967e-21
2.34695e-21
1.19704e-20
1.36955e-21
1.50846e-21
1.51154e-21
2.77168e-21
4.6795e-21
4.77102e-21
5.75882e-21
1.74334e-20
1.83407e-20
1.13364e-20
2.42612e-21
1.58724e-20
7.85234e-22
3.00944e-21
2.00151e-21
1.04464e-21
9.47965e-21
1.26188e-20
9.24209e-21
1.26673e-21
2.02973e-20
5.0033e-21
1.11417e-23
6.28218e-21
1.16129e-20
5.55551e-21
1.22145e-21
5.07611e-22
3.14932e-21
1.79279e-21
4.55605e-21
1.36641e-20
3.07214e-21
4.09555e-22
7.0936e-21
7.2305e-21
3.07477e-21
5.23889e-21
7.6475e-21
9.81349e-22
7.62744e-21
2.56202e-21
3.96825e-22
5.30027e-21
1.5858e-21
2.31416e-21
1.30199e-21
9.42104e-21
9.68383e-24
8.68918e-22
8.52358e-21
1.50032e-20
2.21389e-21
6.08804e-21
2.41488e-21
1.62711e-21
5.1483e-21
9.57646e-22
3.80069e-21
1.36466e-21
3.07135e-21
5.51631e-21
1.17669e-20
7.49517e-21
2.56659e-21
3.91291e-21
1.74463e-22
2.37141e-21
7.2797e-21
9.4875e-22
3.06861e-21
2.96547e-21
2.96832e-23
1.19184e-21
8.54775e-22
5.99788e-21
2.1031e-20
7.82774e-21
7.52232e-21
8.32469e-21
4.21701e-21
8.25234e-21
2.08949e-21
1.07787e-21
5.65433e-21
3.06579e-21
1.19736e-20
1.56773e-21
3.78949e-21
4.21873e-22
4.15241e-21
2.58822e-22
5.40813e-21
1.48989e-22
1.1009e-21
5.36114e-22
1.59854e-22
6.30238e-21
3.16731e-21
6.12578e-21
2.21077e-21
4.7146e-21
2.91623e-21
7.92348e-21
3.92134e-21
3.15484e-24
7.33477e-21
4.29028e-22
7.33363e-22
3.91228e-21
2.85155e-21
9.3167e-21
1.71592e-20
1.48899e-21
8.13041e-23
2.55378e-21
3.4613e-21
4.54527e-22
4.46037e-22
1.76483e-22
8.37901e-21
7.27607e-22
5.34325e-21
2.48196e-23
2.38707e-21
4.42172e-21
3.39958e-21
3.82837e-22
2.87167e-21
3.36272e-21
2.61622e-21
6.2425e-21
3.43e-21
2.31892e-21
3.79535e-21
2.88806e-22
2.24537e-22
3.8745e-21
1.21241e-21
2.79424e-21
1.46891e-20
1.81077e-21
2.84153e-22
6.37532e-21
8.9984e-21
3.08281e-21
3.45628e-21
1.17262e-20
1.69194e-20
1.55874e-21
8.97963e-22
8.25608e-21
7.83066e-21
1.96428e-21
4.12227e-21
4.10383e-21
1.95952e-21
1.15059e-21
3.28479e-22
7.78363e-21
8.73898e-22
7.38848e-21
3.98144e-21
3.16834e-21
8.35898e-22
1.78618e-21
4.54151e-21
1.97753e-21
1.25895e-21
2.4164e-22
7.0903e-22
4.54118e-21
7.55747e-22
9.72789e-21
6.10901e-22
1.53975e-21
2.28358e-20
7.31209e-21
2.04174e-20
6.17437e-21
1.51043e-20
5.07888e-21
8.67171e-21
9.5388e-21
1.58257e-20
3.76455e-21
1.65118e-20
5.32488e-21
3.13933e-21
1.67316e-21
1.33982e-21
1.07563e-22
2.36069e-21
9.31545e-22
1.57703e-20
6.40194e-22
4.52563e-21
7.05139e-21
7.50071e-21
8.83273e-22
3.38818e-21
8.60293e-21
4.1318e-21
8.86032e-21
1.48151e-21
1.28275e-20
3.54764e-21
1.35026e-20
6.91353e-21
3.85154e-21
2.50751e-21
6.11281e-21
7.52044e-22
1.71799e-22
1.63595e-21
3.77094e-21
8.11167e-22
4.23103e-21
1.02178e-21
1.39213e-21
7.28978e-21
5.84707e-21
8.38739e-21
1.33675e-21
5.0494e-21
2.71226e-22
3.53273e-21
1.02226e-21
6.20861e-22
8.43925e-21
5.60021e-21
2.2049e-21
1.63606e-21
5.48365e-21
1.04989e-20
1.91031e-21
5.83791e-22
3.97603e-21
1.47627e-21
8.41183e-21
5.984e-21
5.2575e-22
9.17301e-21
2.12636e-21
4.89017e-21
6.12899e-21
4.40956e-21
1.26014e-20
2.03227e-21
5.43649e-21
4.4215e-21
3.97435e-22
2.74153e-21
3.71572e-22
8.6647e-22
3.95542e-21
2.25423e-21
3.75155e-21
6.37945e-21
6.77517e-21
5.75957e-21
2.598e-21
1.39405e-20
2.66006e-21
2.94063e-21
2.87658e-22
4.22376e-21
6.14852e-22
9.61846e-21
1.75875e-21
1.06145e-21
1.31912e-23
8.0204e-21
1.21666e-20
3.85947e-21
2.10091e-22
7.82344e-21
1.7208e-21
4.39276e-22
3.14189e-22
1.9958e-21
3.72296e-22
6.78685e-21
1.48917e-21
6.47853e-22
5.77763e-21
6.78475e-22
1.53669e-20
1.26439e-20
2.35937e-21
6.23335e-21
9.27524e-21
8.15014e-21
7.80201e-21
1.42689e-21
4.93849e-21
5.34163e-21
8.93245e-22
2.78457e-21
1.53091e-21
2.12674e-21
4.21445e-21
3.28282e-21
1.26399e-21
8.27937e-21
1.10095e-20
2.53125e-21
3.47222e-21
4.00273e-22
9.21399e-21
4.53151e-21
1.46823e-21
9.94748e-21
5.23736e-22
6.124e-22
6.2374e-21
4.29494e-21
8.59406e-22
5.51221e-21
6.03371e-22
3.73993e-23
6.64727e-21
1.05356e-21
2.66795e-21
1.05365e-21
4.7669e-22
2.16983e-21
5.04698e-21
2.71889e-21
3.74125e-21
5.94674e-21
5.31695e-22
4.07841e-23
3.90646e-21
5.68583e-22
2.70801e-21
1.05605e-21
6.98906e-21
6.24084e-21
1.20729e-21
1.11069e-21
4.14093e-21
1.58816e-20
1.43698e-21
8.92497e-21
3.36579e-21
5.36287e-21
2.53572e-22
6.91583e-21
5.83516e-22
1.21468e-21
1.59704e-21
1.19393e-20
7.75278e-21
1.60432e-21
2.82362e-21
1.28905e-22
2.35832e-21
5.58358e-21
1.65923e-21
3.69244e-21
5.56445e-21
2.15066e-20
2.11094e-21
4.72301e-21
1.01274e-21
2.09698e-21
7.80048e-21
4.28072e-22
1.21385e-20
3.80625e-21
2.46452e-21
2.04754e-20
2.00728e-21
4.61616e-22
1.23281e-20
2.46621e-22
5.93331e-21
3.99915e-21
9.90277e-21
9.61692e-22
2.4975e-21
8.50469e-22
6.03427e-21
2.6793e-21
1.11234e-21
2.94149e-21
3.23984e-21
1.69717e-21
8.75667e-21
3.27241e-21
5.39516e-22
5.27529e-21
1.73508e-21
2.02165e-21
8.9143e-21
4.47785e-21
2.15267e-21
2.27372e-21
3.37412e-22
4.88299e-23
9.78592e-23
1.01169e-22
1.32261e-21
8.3038e-24
1.14557e-21
5.35299e-21
1.03944e-21
4.81518e-21
4.26453e-21
3.71884e-22
1.85131e-21
2.50497e-21
2.06971e-21
8.51661e-21
2.37601e-21
2.48356e-21
5.87701e-21
5.96918e-21
6.9663e-22
2.6716e-21
3.03498e-21
2.61456e-22
7.10119e-22
6.5804e-21
8.80117e-21
3.18301e-21
7.83501e-21
4.67703e-22
1.03244e-21
5.37806e-21
1.76546e-21
5.54619e-21
1.88122e-21
4.73422e-21
1.88456e-21
1.13077e-21
1.83705e-21
3.59609e-21
1.16528e-21
2.46359e-21
1.87351e-23
1.86097e-21
1.50506e-20
1.464e-20
5.02553e-21
1.63478e-20
6.95176e-21
3.31132e-22
7.24278e-21
1.10579e-20
1.18907e-21
4.69648e-21
1.72347e-21
1.32593e-21
8.29284e-21
3.45597e-21
5.00285e-22
3.09321e-21
1.63031e-21
1.71623e-21
2.35344e-22
5.5376e-21
6.76104e-22
3.28734e-22
7.03677e-21
1.97546e-23
7.97968e-21
5.25477e-22
6.56203e-21
1.14096e-20
4.00919e-22
2.8784e-21
1.55051e-22
5.43186e-21
4.52665e-22
2.01316e-21
4.77367e-21
4.02908e-22
2.9355e-21
1.66524e-21
9.78502e-21
5.38235e-21
4.53513e-21
1.73931e-21
8.31709e-22
1.18236e-21
3.67059e-21
1.05166e-21
1.49654e-21
1.04147e-20
6.16756e-21
8.81807e-22
8.78131e-21
6.73402e-22
6.602e-21
9.79321e-21
4.71994e-21
3.78342e-22
6.34748e-21
4.15497e-22
2.72023e-23
1.762e-21
9.98634e-22
1.55455e-21
2.33001e-21
5.98747e-21
9.03171e-22
3.74395e-22
2.5729e-21
1.78903e-21
8.05415e-21
1.55998e-21
1.97768e-21
2.27816e-22
1.5787e-20
3.9178e-21
1.29798e-20
3.09338e-22
1.01322e-20
3.00439e-21
2.84731e-20
6.47378e-21
2.11126e-21
5.84006e-21
1.05429e-21
5.17197e-21
2.20221e-21
1.88638e-20
1.0149e-20
2.71375e-21
1.15615e-23
1.38224e-21
4.56362e-22
4.76293e-21
2.11567e-22
2.16416e-21
4.35078e-21
1.61142e-21
8.39567e-22
5.47945e-21
6.08563e-21
1.84045e-21
5.72704e-21
3.39858e-21
8.61006e-21
1.85934e-21
4.96149e-22
7.45391e-22
2.38856e-21
2.24227e-21
1.43047e-21
1.83219e-22
2.62163e-21
3.74978e-21
4.29511e-23
5.09572e-21
4.78298e-21
6.81594e-21
1.16975e-21
1.94743e-20
1.75539e-21
2.66865e-22
7.54923e-21
1.14124e-20
5.27238e-21
7.54224e-22
1.2938e-21
1.00801e-20
1.92463e-21
1.09956e-20
1.61306e-21
9.78918e-22
3.83075e-21
9.59806e-23
2.71771e-21
1.60913e-21
4.68765e-22
2.62794e-21
5.41068e-22
3.44735e-21
5.45482e-22
1.95436e-21
1.09982e-21
7.19706e-22
4.5775e-21
1.46633e-21
2.64261e-21
1.10853e-20
2.97733e-22
7.35416e-21
8.85337e-21
1.33586e-21
2.58941e-21
7.53063e-21
2.18332e-21
1.81629e-20
9.08651e-21
3.60312e-21
2.81886e-21
1.79572e-21
5.55823e-21
1.34609e-21
2.24444e-21
7.82106e-22
6.1719e-21
2.19941e-21
1.24886e-23
5.01988e-21
5.62427e-21
1.21748e-21
5.53287e-21
1.20846e-20
4.40089e-22
8.1636e-22
5.01508e-23
8.64749e-21
7.71582e-21
1.49243e-21
1.39966e-21
1.40089e-20
1.53512e-21
1.68591e-21
7.07375e-21
5.00997e-21
3.34778e-21
1.43021e-20
1.98739e-21
2.77609e-21
2.02982e-21
1.81189e-22
3.94459e-21
1.8872e-20
2.47338e-21
6.90224e-21
2.81363e-21
2.10689e-21
2.11009e-22
1.52806e-20
2.52136e-21
6.54724e-21
3.85035e-21
3.62038e-21
4.87003e-21
2.64868e-21
8.96602e-22
1.41802e-20
2.8986e-21
3.32084e-21
1.31354e-20
3.65063e-21
2.32103e-21
1.05506e-21
4.52951e-21
3.28041e-21
6.50057e-21
6.84216e-22
1.8926e-21
6.20158e-21
7.65047e-21
1.40331e-20
1.25646e-20
6.52835e-22
5.79263e-21
1.81633e-21
2.06501e-20
4.25851e-21
4.52188e-21
3.96256e-21
2.36779e-22
2.94268e-21
1.07181e-20
8.36687e-22
2.21109e-21
8.75581e-21
3.9093e-21
1.20027e-21
2.38046e-21
6.43168e-21
3.8452e-21
4.03262e-21
7.74072e-21
1.14807e-20
1.64303e-21
1.85293e-22
6.57952e-21
3.62035e-21
4.18789e-21
8.47478e-22
8.25289e-21
2.22511e-21
1.62935e-21
2.1645e-21
9.99626e-21
3.51273e-21
2.80172e-21
1.66457e-21
1.0851e-23
3.99736e-21
8.32443e-21
1.08101e-20
2.40648e-21
5.87157e-21
7.99765e-21
5.81187e-21
7.15863e-21
1.86734e-22
6.46274e-21
3.75806e-21
1.17196e-20
4.83995e-21
8.1779e-21
5.55958e-22
2.2059e-21
5.36615e-21
1.18702e-20
1.50408e-20
2.18889e-22
2.5695e-21
2.90734e-21
1.22745e-21
5.69179e-21
1.33622e-21
2.18363e-22
1.59867e-20
2.23061e-21
4.37275e-21
1.18822e-21
8.90053e-21
4.66642e-21
3.96342e-21
8.65336e-21
2.74108e-21
1.64961e-22
1.02263e-20
5.33576e-21
2.01319e-21
4.0671e-21
3.93985e-21
2.6376e-21
3.74756e-21
3.19785e-21
4.01785e-21
5.48178e-22
5.11264e-22
1.95571e-21
1.70347e-21
3.95159e-22
1.06359e-21
5.25593e-21
3.15005e-21
2.30502e-22
3.85453e-21
1.62753e-21
2.80252e-21
2.1878e-21
4.50352e-21
2.51093e-23
1.26096e-20
3.64243e-21
1.5614e-20
5.14863e-22
2.8567e-21
1.47412e-21
1.79323e-21
6.16915e-22
1.39975e-21
1.00336e-20
6.09358e-22
7.37456e-21
2.26993e-21
4.54476e-22
2.95842e-21
9.45093e-21
3.69398e-21
1.23427e-20
3.9477e-21
1.42117e-20
6.52127e-22
8.32782e-22
1.05374e-20
3.33473e-22
3.50977e-21
8.71264e-22
7.739e-21
1.41594e-20
2.51422e-20
9.50048e-21
1.56387e-22
2.07992e-21
8.42575e-21
1.6618e-20
7.27739e-21
1.35358e-21
3.98202e-21
2.97003e-21
1.02646e-21
3.61216e-21
1.24455e-21
3.3471e-22
3.55197e-21
3.60053e-21
4.32426e-21
9.01718e-21
1.31048e-21
1.22633e-20
5.67709e-21
7.91146e-21
1.54084e-21
2.02446e-20
7.22184e-21
2.8015e-22
3.93201e-21
3.17094e-21
8.45712e-22
8.80838e-21
1.29507e-21
1.06505e-20
1.25644e-21
3.8564e-21
1.27865e-21
3.36506e-21
9.46388e-21
9.06959e-21
1.95333e-21
1.17601e-21
1.13654e-21
3.57773e-21
4.19316e-21
1.48835e-21
2.00698e-21
4.22803e-21
3.63683e-21
1.37817e-20
1.83661e-21
1.10496e-21
4.856e-21
1.3846e-21
1.6946e-21
8.9376e-22
4.35796e-21
1.08033e-21
1.10444e-20
4.11635e-21
4.01762e-22
1.4746e-20
2.43267e-23
1.3459e-22
6.47758e-21
2.23329e-21
2.71766e-21
4.05583e-22
1.27389e-20
7.76022e-22
2.13559e-20
1.25752e-21
1.30028e-21
5.21615e-21
1.72564e-21
8.63867e-22
5.12777e-22
7.70771e-22
1.41631e-21
4.38614e-21
6.00671e-22
4.08294e-21
3.20015e-22
6.31268e-21
4.70141e-21
1.5924e-21
3.59591e-22
1.09364e-21
2.04005e-21
7.91856e-21
2.49691e-21
5.45094e-22
3.36286e-21
1.26716e-21
3.18692e-21
9.40285e-21
1.1738e-20
3.91459e-21
5.60915e-21
2.548e-21
1.01421e-21
3.32839e-21
2.69217e-22
4.3201e-22
8.27946e-21
3.45511e-21
5.61437e-21
1.53389e-21
4.54355e-21
2.06244e-21
3.2587e-21
5.16443e-21
6.87224e-22
2.81086e-21
6.40629e-23
2.05874e-21
4.47928e-21
5.57889e-21
2.48956e-21
2.95085e-22
2.11207e-22
6.00028e-23
2.44097e-21
3.27054e-21
8.25107e-21
1.3083e-23
1.13212e-20
2.20099e-21
2.39904e-21
4.88775e-21
2.76607e-21
8.03125e-22
6.48647e-21
6.65999e-21
1.64252e-21
4.94464e-23
3.12061e-21
8.91281e-23
1.20688e-21
3.35884e-22
6.82561e-21
6.78186e-22
8.74366e-22
2.04755e-20
1.78708e-22
7.62404e-22
4.28341e-21
1.35601e-21
9.98857e-21
1.17128e-21
4.85166e-21
2.60985e-21
3.20568e-21
5.16485e-22
8.43195e-21
4.26921e-21
3.08908e-21
8.74831e-22
2.24848e-21
1.8877e-21
4.70825e-21
1.30145e-20
5.09349e-21
4.20006e-22
9.93721e-22
6.5923e-21
3.6907e-21
2.57405e-23
1.99199e-22
7.69547e-21
1.88436e-21
1.02126e-20
2.95699e-21
2.50713e-21
5.00222e-21
6.45454e-22
3.66079e-21
5.53854e-21
3.31111e-22
7.63365e-21
7.2404e-21
1.5516e-21
6.27891e-21
1.19859e-21
3.2252e-21
3.1234e-22
2.10028e-21
1.42927e-20
1.2527e-21
1.63555e-21
7.74493e-21
2.40099e-21
8.80538e-23
9.81682e-24
1.93502e-21
2.00937e-21
5.6118e-21
2.21328e-21
2.45229e-21
6.76082e-21
3.29187e-21
2.08487e-21
1.87798e-22
4.96422e-21
3.00694e-21
1.39624e-20
6.66341e-21
2.30524e-21
2.16263e-21
3.4124e-21
3.26859e-21
9.10508e-22
1.70471e-21
5.94755e-21
1.93545e-21
4.00424e-21
1.22148e-21
4.57626e-22
7.50881e-22
1.13355e-20
4.42586e-21
1.39767e-21
3.49104e-21
1.97462e-22
5.45664e-22
1.19712e-21
2.95624e-21
5.42837e-21
1.09177e-21
2.9016e-21
4.27343e-21
1.35791e-20
1.71257e-21
1.58981e-21
9.14443e-22
6.73344e-21
3.39137e-22
1.37918e-21
7.99605e-22
9.11676e-21
1.03793e-20
1.44405e-20
2.25949e-21
7.11881e-21
7.53449e-22
1.0324e-20
5.0044e-22
3.10262e-22
2.44759e-21
1.87444e-21
1.05326e-21
6.27585e-21
1.13606e-21
8.87544e-22
9.27905e-22
2.59254e-22
2.04224e-20
1.06274e-22
3.9486e-22
3.49392e-21
3.53115e-21
3.11261e-21
1.74945e-21
2.56574e-21
1.19202e-21
1.18969e-21
1.28494e-21
2.08453e-21
1.18188e-20
1.01863e-22
8.63065e-23
1.04696e-20
1.19583e-21
4.02199e-21
7.73958e-21
4.60436e-21
8.97497e-21
3.19759e-21
2.46538e-21
7.72429e-21
1.59998e-20
2.52053e-23
1.25379e-21
1.09922e-21
5.74164e-21
6.21779e-21
1.01463e-20
4.31198e-21
9.67593e-22
1.94543e-21
1.71051e-21
2.24722e-21
9.63013e-22
1.39776e-22
1.7965e-21
1.04497e-20
4.78409e-21
6.90423e-21
3.5405e-21
1.51696e-22
8.07992e-21
3.21616e-21
9.01295e-22
9.2193e-22
9.99154e-21
1.5481e-21
1.92716e-21
3.49207e-21
4.2543e-21
2.16567e-21
6.373e-22
4.72786e-21
3.33901e-22
5.02567e-21
9.24041e-22
2.09968e-21
1.06659e-21
6.26057e-22
6.11616e-21
1.42372e-22
2.95892e-21
5.24571e-21
3.58928e-23
1.32448e-20
5.81243e-22
2.21915e-21
1.53401e-21
2.63626e-21
2.69752e-21
8.7741e-22
2.40662e-21
1.21945e-21
1.09262e-21
1.12548e-20
3.59257e-21
8.19293e-21
6.88789e-21
1.20487e-20
6.46415e-22
7.41234e-22
7.07373e-21
3.65993e-21
1.9224e-22
1.44182e-20
1.028e-21
1.57031e-21
2.1741e-22
1.30944e-21
4.6768e-22
7.11507e-21
1.75965e-21
2.74587e-21
1.51237e-21
1.50915e-21
6.02812e-21
3.40357e-21
2.309e-23
8.51765e-22
4.77203e-21
2.39434e-21
2.99195e-21
3.36242e-21
9.33948e-21
1.87255e-21
2.80847e-22
1.66178e-21
9.08514e-22
3.88849e-23
4.80502e-21
1.93667e-21
2.76651e-22
8.58921e-21
7.66125e-21
5.72251e-21
1.90497e-21
4.20214e-21
3.2748e-21
5.36382e-23
1.52528e-21
7.41402e-21
5.93647e-21
2.00507e-21
2.57172e-21
2.69532e-22
3.04095e-21
7.90692e-21
8.34116e-22
7.0279e-22
5.19779e-21
4.0541e-21
5.26329e-22
1.42728e-20
1.33372e-20
1.85836e-22
2.37948e-20
2.03886e-21
3.83767e-21
6.56565e-22
4.25972e-21
6.73334e-22
1.99965e-20
2.52828e-22
7.76555e-21
9.97289e-21
4.07593e-21
9.08114e-22
9.55986e-22
2.54045e-21
2.05261e-21
2.81973e-21
6.804e-21
2.32551e-21
4.08789e-21
1.03539e-20
8.35312e-21
3.61484e-21
3.96237e-21
1.33324e-21
4.14911e-21
4.62616e-21
8.52297e-21
1.45215e-20
1.68069e-23
2.34874e-21
1.36572e-21
4.83284e-21
1.45044e-21
1.44106e-21
3.04047e-22
7.50736e-22
8.45067e-21
4.16876e-21
4.2457e-21
2.08862e-21
7.84756e-21
4.14236e-21
6.47547e-21
4.05367e-23
9.19666e-22
1.06006e-21
3.64707e-21
5.15039e-22
2.25315e-21
6.86865e-22
4.84213e-21
5.12957e-21
4.45403e-21
4.84523e-21
2.21816e-21
6.6407e-22
2.26407e-21
2.53091e-21
8.08561e-22
4.31599e-21
2.39847e-22
1.11329e-20
2.03976e-20
5.25373e-21
2.06532e-21
1.09213e-21
8.17873e-21
8.04933e-22
2.02844e-21
4.04311e-21
4.00704e-21
2.66952e-21
7.74187e-21
3.80078e-21
8.98374e-22
5.35165e-21
4.3779e-21
2.38616e-21
1.30716e-21
1.14421e-21
5.47731e-21
5.01038e-21
4.57129e-21
4.04142e-21
1.56677e-21
1.63312e-20
2.41548e-21
3.73788e-21
7.41e-22
9.42458e-22
2.78916e-21
1.80093e-21
3.97988e-21
9.59597e-21
1.56652e-20
1.40635e-21
1.42322e-21
1.22742e-21
3.96252e-21
5.27464e-21
1.09332e-21
3.50767e-21
2.33537e-21
9.3228e-22
5.2547e-21
4.6271e-21
2.76041e-21
3.58146e-22
2.02264e-21
8.80599e-22
8.20917e-22
5.58685e-21
5.92956e-21
1.76748e-20
4.41293e-21
4.88933e-21
1.03101e-21
3.23545e-21
5.00886e-21
2.31943e-21
1.58627e-21
3.78401e-21
6.92583e-21
7.98507e-21
1.10874e-21
3.08799e-22
9.60949e-21
2.29201e-21
8.43292e-21
4.15237e-21
6.39078e-21
3.77987e-21
6.17571e-21
3.99908e-21
6.81397e-21
4.04491e-21
9.25729e-22
1.12702e-20
3.48956e-21
7.84337e-21
6.75257e-22
8.04145e-21
6.08456e-22
9.59277e-22
2.83386e-21
1.67482e-22
7.91612e-21
8.50272e-21
1.29635e-21
5.94297e-21
9.92406e-22
8.77885e-21
7.19866e-22
2.53375e-21
2.9551e-22
1.95572e-21
2.51702e-21
2.97311e-21
3.39872e-22
8.37845e-22
4.47733e-21
2.42322e-21
6.58152e-21
1.6614e-22
4.34809e-21
2.99827e-22
8.4667e-21
1.77273e-21
7.93036e-21
5.19978e-21
1.12888e-20
5.02265e-21
1.53602e-21
7.45277e-21
1.26198e-20
3.54946e-21
3.4401e-21
1.38689e-21
1.41094e-20
6.55496e-21
8.17885e-22
8.72274e-23
3.63199e-21
5.5064e-22
3.51605e-21
1.81394e-21
1.32535e-21
1.48134e-20
2.44367e-21
1.53412e-21
9.48607e-22
1.77143e-20
3.4256e-21
9.39994e-22
9.49378e-21
5.09879e-22
6.95891e-21
2.87655e-21
4.16875e-21
4.35475e-21
9.26057e-22
5.86518e-21
2.16615e-21
4.02052e-21
6.50522e-21
8.72668e-22
2.61196e-21
1.06604e-20
1.0577e-20
2.56508e-22
5.35217e-21
9.19033e-21
7.09504e-21
4.59023e-21
2.89342e-22
1.00412e-21
4.31708e-21
8.12483e-21
1.70872e-21
4.38755e-21
9.30137e-22
4.81562e-22
1.22443e-21
2.13765e-21
3.05706e-21
8.1898e-21
1.22294e-21
6.03508e-21
1.26072e-20
3.13952e-21
2.92536e-21
2.69197e-21
4.884e-21
1.48926e-21
1.63474e-21
1.13104e-20
5.26239e-23
1.99133e-21
1.76396e-20
2.30893e-21
1.41121e-21
3.88207e-21
3.27155e-21
6.79946e-21
3.48243e-21
8.58232e-21
1.60412e-21
6.44822e-21
1.11752e-20
5.94519e-22
3.62515e-21
8.31316e-21
7.1805e-22
2.38525e-21
9.53238e-21
2.98503e-21
5.40688e-21
1.22206e-21
5.35447e-21
1.32325e-20
5.25284e-21
2.10679e-22
4.43094e-21
8.69432e-22
7.54507e-22
4.19352e-21
1.30098e-20
1.74342e-21
4.59195e-21
1.21107e-21
9.42387e-22
5.08808e-21
1.13199e-20
1.37905e-20
3.90343e-21
1.04221e-20
9.9546e-21
3.16717e-21
9.87791e-22
7.3405e-21
7.63064e-22
1.03478e-20
2.07518e-22
6.13484e-21
4.77038e-22
1.16735e-21
4.98031e-21
5.98644e-22
5.72435e-21
3.36844e-21
5.27933e-21
6.69472e-22
7.11114e-21
4.13561e-21
1.09105e-20
5.07296e-21
2.90179e-21
9.91651e-21
6.76158e-21
2.82355e-21
4.14781e-22
2.54092e-21
4.22648e-21
1.03372e-21
5.77594e-21
5.35207e-22
5.95107e-21
3.67706e-21
7.77339e-23
2.70652e-21
6.77028e-21
3.48349e-21
3.19124e-21
1.50369e-20
2.01739e-21
2.38786e-21
4.29222e-21
1.73421e-21
1.14841e-21
1.65101e-21
1.39664e-20
1.03583e-21
6.74122e-21
6.44651e-21
1.35204e-21
7.46502e-21
1.01506e-20
4.56799e-21
2.72669e-21
2.40298e-21
5.03482e-22
9.82458e-22
6.68391e-21
5.60377e-21
3.1269e-21
2.06463e-21
4.89458e-23
3.7124e-21
1.28652e-21
8.05782e-22
1.82906e-22
7.56616e-21
3.96812e-21
4.53233e-21
5.02812e-21
1.20546e-20
4.9589e-21
2.31383e-22
7.0161e-21
1.08386e-21
7.63655e-22
9.46556e-21
7.15825e-21
1.11454e-20
2.92001e-21
3.72983e-22
3.64879e-21
3.32356e-21
1.24221e-21
5.42022e-21
7.84401e-21
5.39503e-21
8.52188e-21
8.16994e-21
9.00897e-21
6.27631e-21
5.80059e-22
1.26042e-22
1.01983e-20
2.03153e-21
1.2306e-20
4.23828e-22
2.54687e-21
7.13866e-21
3.51673e-22
7.3325e-21
4.69238e-21
3.40799e-21
1.24078e-21
2.47961e-21
1.12192e-22
4.77098e-22
2.29238e-21
2.23172e-22
1.62264e-20
1.14545e-20
2.53735e-21
4.65558e-21
3.38323e-21
3.51389e-21
3.53708e-22
2.44868e-21
6.55478e-21
5.16497e-21
6.23095e-21
2.84359e-21
1.53348e-20
1.55962e-21
3.30559e-22
5.77201e-21
1.79483e-22
1.17456e-21
3.40744e-21
6.53773e-22
4.29878e-22
5.98211e-22
8.3334e-22
1.78776e-21
5.96533e-21
8.9464e-22
2.31776e-21
7.09702e-21
6.73501e-21
1.29318e-21
2.90003e-21
2.45894e-21
7.49092e-23
4.47809e-22
2.3284e-21
4.2806e-21
2.62978e-22
1.52456e-22
1.26314e-21
2.72933e-21
4.09074e-21
6.95574e-21
1.36188e-20
4.4556e-21
3.57422e-21
3.78631e-21
1.03458e-20
8.41357e-21
2.57638e-21
3.16061e-21
4.09462e-21
2.21579e-21
6.96658e-21
4.55193e-21
1.50848e-21
4.60671e-21
1.64582e-20
2.01322e-21
2.13319e-22
5.41807e-21
2.56188e-21
1.72871e-21
1.73645e-21
9.47096e-21
3.20447e-21
1.36426e-20
1.91168e-21
3.06545e-21
1.13015e-20
1.33695e-21
1.75059e-20
1.26998e-21
7.22666e-21
7.56691e-22
3.93156e-22
2.28748e-21
4.19953e-21
4.97119e-21
1.08966e-20
2.67227e-21
4.53526e-22
2.24818e-21
3.44538e-21
4.97686e-21
2.09865e-21
1.05641e-21
3.65293e-21
6.06395e-21
6.36918e-21
1.02907e-21
9.49575e-22
1.12714e-20
9.41789e-22
1.42954e-20
1.5608e-21
2.44256e-22
6.43321e-21
2.0349e-21
8.15977e-21
1.96968e-21
1.33441e-21
5.848e-21
2.96148e-21
3.19369e-21
8.60146e-21
8.45908e-22
5.11055e-21
1.47822e-21
2.69871e-23
8.09461e-22
1.50809e-21
9.71423e-21
2.00099e-21
7.04152e-21
1.3869e-20
1.31959e-20
2.36675e-21
2.5063e-21
1.30314e-21
7.84644e-22
2.89303e-21
1.08869e-21
7.19605e-21
1.12828e-21
5.22705e-21
3.9954e-22
5.34336e-22
2.85298e-21
3.36094e-21
4.65541e-21
1.35148e-21
9.76574e-22
1.79579e-21
7.37464e-21
7.14174e-21
2.00866e-22
4.41357e-21
6.6173e-22
1.95865e-21
1.27224e-21
3.24717e-21
7.34121e-21
8.32091e-22
1.75053e-21
1.15395e-21
1.80367e-20
6.52358e-21
1.62152e-22
1.16423e-21
1.53707e-20
9.11665e-22
1.85452e-21
2.01643e-21
1.10483e-21
4.90028e-22
3.22125e-21
4.36493e-21
1.31419e-20
9.16842e-21
4.64874e-21
1.10145e-20
5.93402e-22
9.28389e-21
1.03514e-21
1.43235e-21
3.78596e-22
7.69166e-22
2.85941e-21
1.20969e-20
3.43562e-21
9.55082e-21
9.79685e-21
3.68055e-22
5.1663e-21
1.81753e-21
1.50387e-21
5.57645e-21
1.44495e-21
6.63913e-21
2.70647e-21
5.91222e-21
1.76643e-21
8.6845e-21
7.81504e-21
1.4093e-21
6.29033e-21
7.19607e-22
2.7841e-22
3.10057e-22
4.46303e-22
2.48327e-22
5.43914e-21
4.15158e-21
2.28194e-21
6.76707e-21
7.05915e-21
5.68207e-21
1.68767e-22
4.32343e-20
1.41865e-21
2.13179e-21
1.73883e-20
4.65594e-22
5.36463e-21
2.21813e-21
1.37668e-21
2.88542e-21
4.23872e-21
1.56463e-21
2.93519e-21
2.05795e-22
2.13894e-21
1.8365e-20
4.42752e-21
6.07973e-21
2.52463e-21
3.79259e-21
2.3566e-22
3.45014e-21
1.23017e-21
1.90457e-22
2.83122e-21
3.67158e-21
2.69258e-21
1.10176e-21
5.19513e-21
4.71945e-21
5.0293e-21
9.04196e-21
6.71137e-22
1.04196e-21
1.66163e-20
1.59482e-21
9.7554e-22
6.99654e-21
1.15899e-20
1.47591e-21
1.92403e-21
1.66097e-21
7.46551e-22
4.35352e-22
4.25169e-21
1.82733e-22
2.7497e-21
1.13996e-21
2.51898e-21
2.27922e-21
6.3348e-22
4.19811e-22
1.61276e-20
9.17207e-22
1.91137e-21
1.35803e-20
3.94453e-21
4.11802e-21
6.76654e-21
2.69763e-21
8.00393e-21
7.99758e-21
2.09384e-21
9.24381e-21
4.7925e-21
2.19377e-21
1.87913e-21
8.87443e-21
3.27213e-21
5.74389e-22
1.23441e-21
2.07748e-21
1.68911e-21
2.39027e-21
5.81411e-21
6.97074e-22
2.89901e-21
1.70011e-21
3.57963e-21
2.03058e-22
2.64434e-21
1.29376e-20
6.18444e-21
1.87588e-21
2.44456e-22
7.12084e-22
6.69334e-22
3.21188e-21
6.07242e-21
3.16482e-23
2.43797e-22
1.18273e-20
2.6612e-22
7.31428e-21
6.10872e-22
8.61354e-21
1.16379e-20
6.66523e-22
3.59335e-21
1.09016e-20
6.70061e-21
7.51678e-22
1.46388e-21
1.04405e-21
3.17406e-21
7.45147e-21
2.47595e-21
1.17854e-21
6.75161e-21
4.01022e-21
1.36147e-21
1.26204e-21
2.17576e-21
2.65958e-22
1.46255e-21
4.29563e-21
7.41029e-22
3.98823e-21
8.08287e-21
4.20124e-21
4.70055e-21
5.39379e-21
2.20093e-21
1.1641e-21
2.69502e-21
6.60271e-21
5.61995e-21
1.95034e-21
1.44984e-23
2.26639e-21
7.51591e-22
3.47601e-21
5.28512e-21
7.7742e-21
1.56498e-21
6.52389e-22
1.43581e-21
1.76353e-21
6.27961e-21
1.27561e-20
1.43136e-20
6.26162e-21
2.54232e-22
1.60129e-21
1.07904e-21
1.29016e-21
1.27746e-21
4.7817e-22
3.65989e-21
9.84949e-21
2.60929e-21
2.27607e-21
2.16253e-21
2.69862e-21
3.6662e-22
5.09725e-21
8.10407e-21
1.84218e-22
8.62366e-21
8.36471e-22
3.20657e-21
1.58727e-22
5.09702e-22
4.40914e-22
7.72995e-22