/*--------------------------------*- C++ -*----------------------------------*\
  =========                 |
  \\      /  F ield         | OpenFOAM: The Open Source CFD Toolbox
   \\    /   O peration     | Website:  https://openfoam.org
    \\  /    A nd           | Version:  7
     \\/     M anipulation  |
\*---------------------------------------------------------------------------*/
FoamFile
{
    version     2.0;
    format      ascii;
    class       vectorField;
    location    "0.00036/lagrangian/dsmc";
    object      U;
}
// * * * * * * * * * * * * * * * * * * * * * * * * * * * * * * * * * * * * * //


9198
(
(-568.014 643.993 59.5636)
(110.657 187.867 -30.9371)
(-130.256 -475.997 -605.124)
(200.53 -439.393 -254.097)
(-396.377 70.9121 -612.437)
(-562.924 86.5285 388.983)
(-167.429 563.555 -521.524)
(101.117 331.545 -407.831)
(154.911 138.942 99.0666)
(-64.1598 -397.479 -156.711)
(-348.359 56.1222 -496.216)
(-37.1324 219.985 124.064)
(220.324 -252.707 186.839)
(5.73685 45.5591 471.813)
(82.1546 342.976 -15.2171)
(131.498 184.559 -19.9252)
(-1173.34 257.161 199.861)
(-125.532 -409.964 -166.821)
(-386.732 -133.034 -34.1822)
(99.6152 106.03 269.101)
(31.1508 -89.453 -343.251)
(-46.5977 479.621 97.1747)
(256.701 162.564 -663.769)
(39.0123 143.32 -160.686)
(14.5838 -223.398 511.895)
(-522.655 -188.071 -64.3652)
(-18.1627 87.3798 -252.237)
(673.809 -151.713 532.844)
(-555.672 -5.50834 -9.18956)
(637.658 408.275 440.714)
(581.466 -496.284 -251.113)
(478.111 269.346 -16.083)
(112.539 -591.039 -82.366)
(-240.784 -402.838 231.969)
(286.861 -230.898 -95.884)
(383.678 -322.177 -344.007)
(529.189 48.543 54.6578)
(21.7376 -177.855 -353.371)
(245.113 -759.295 174.392)
(-390.442 240.149 22.8284)
(287.351 337.891 271.029)
(-131.421 496.149 -95.5987)
(-250.687 -519.217 239.454)
(123.043 -575.433 -200.484)
(-670.215 97.3443 32.2014)
(-328.331 -135.688 198.799)
(236.223 1.30939 51.8085)
(-338.932 -117.952 -153.144)
(-81.1244 77.4892 178.012)
(712.066 312.381 29.296)
(149.967 255.874 165.245)
(-560.726 436.843 27.6794)
(46.965 -276.282 94.5657)
(310.646 -42.5001 -107.175)
(11.9483 101.011 49.4731)
(413.251 10.0035 530.01)
(-113.718 240.338 -389.75)
(132.323 -317.083 95.3683)
(161.302 353.385 -146.42)
(209.389 67.3494 -324.56)
(-368.111 -61.9019 221.889)
(-33.2263 85.1546 383.353)
(463.271 696.643 -32.7779)
(-127.429 279.41 -164.621)
(187.746 317.237 -883.392)
(145.147 71.8592 299.556)
(345.791 -21.6072 103.876)
(-89.9503 266.856 -95.4676)
(-142.321 301.56 -79.0185)
(-140.145 85.6374 650.566)
(220.231 -382.594 92.2882)
(-440.39 43.6123 210.92)
(-377.238 -120.068 -575.681)
(292.297 -186.155 -104.726)
(-153.219 -4.14742 -365.627)
(-137.7 -92.74 -234.108)
(238.722 -385.011 14.2456)
(6.62632 689.491 322.288)
(299.771 -268.91 -206.565)
(-244.223 -342.834 -404.02)
(-109.613 -449.971 181.08)
(27.6339 472.995 -118.022)
(251.136 -48.2807 -1.18494)
(117.022 112.165 -95.1119)
(78.8353 -199.047 -76.4309)
(-184.147 -484.435 152.52)
(-70.302 -100.516 -166.99)
(-386.776 -527.562 80.368)
(-231.687 -266.581 -62.0347)
(-310.908 47.7043 136.123)
(-91.5417 520.982 41.1235)
(-485.132 -111.404 233.823)
(574.494 -183.566 359.121)
(486.648 -136.463 -14.1425)
(-4.88447 231.837 8.92743)
(-134.398 112.825 -142.402)
(-197.347 647.599 -156.907)
(-5.37179 -539.997 -645.586)
(-325.739 114.402 228.707)
(-379.934 -137.978 74.5317)
(71.236 -89.4276 23.729)
(-82.4023 234.065 -102.556)
(-388.227 12.027 517.337)
(-14.0845 -373.906 177.525)
(-110.539 -207.582 410.005)
(354.356 -365.399 67.3024)
(374.569 248.149 -260.932)
(314.7 -107.983 -201.7)
(494.959 8.87057 -187.406)
(142.486 295.073 123.664)
(10.0244 -409.002 -175.251)
(473.147 406.238 -298.272)
(45.7444 -6.48758 -117.73)
(-388.787 -232.24 -685.06)
(-173.452 -335.741 403.901)
(-41.0929 237.251 164.223)
(587.307 348.533 -660.371)
(212.375 -314.922 518.015)
(-22.0941 -25.5777 94.4734)
(-602.854 -128.366 -156.781)
(167.376 -115.392 -445.293)
(-178.498 408.273 -104.696)
(-66.1859 -398.756 -331.484)
(442.159 -81.1517 508.329)
(-68.4705 -248.014 -154.047)
(-133.485 292.8 -100.676)
(-257.431 183.176 321.052)
(78.1569 -470.564 716.545)
(333.537 -190.092 -155.969)
(662.2 476.718 -154.521)
(417.11 311.117 -58.6974)
(-390.235 199.636 195.224)
(466.517 76.9685 136.851)
(-344.567 275.527 52.1409)
(-296.765 -78.8865 -676.82)
(232.615 367.968 34.4685)
(-330.426 -464.317 -202.966)
(-49.1259 242.038 -173.192)
(780.449 -16.744 -219.743)
(-126.117 -17.3283 -150.254)
(-474.378 -440.486 -50.9868)
(-42.8418 -3.59023 -596.43)
(279.691 -305.157 -591.082)
(75.2068 -293.495 49.7339)
(90.0218 93.7671 -212.938)
(-136.192 -163.515 -424.388)
(210.586 -133.18 492.07)
(115.763 658.218 197.621)
(-418.231 -160.616 -297.322)
(509.887 -86.8804 102.978)
(-43.7061 631.299 209.748)
(-311.586 -47.004 434.603)
(-122.177 23.1377 -452.058)
(-749.712 73.556 -308.646)
(-90.1658 -54.2099 329.975)
(-189.816 -585.056 -176.461)
(234.555 1.81911 756.317)
(-404.673 -287.436 296.998)
(-362.214 9.6404 703.047)
(376.863 -117.103 -44.5575)
(-239.759 -169.862 -119.109)
(-139.606 292.435 -269.367)
(92.0111 279.718 148.687)
(-99.67 -276.769 -712.418)
(-230.616 195.905 -359.18)
(-31.877 -258.102 -315.337)
(13.3965 204.572 36.0262)
(-281.012 601.045 383.856)
(699.352 123.124 141.799)
(-273.851 -123.24 189.004)
(-148.888 238.726 177.378)
(68.1992 -539.734 461.187)
(-407.71 -27.4123 -226.505)
(-76.8747 -212.441 -96.3406)
(-340.547 14.3895 -145.838)
(-166.117 277.547 320.992)
(90.0804 208.57 620.444)
(-231.839 -586.592 474.526)
(39.7215 -707.495 -236.08)
(98.3853 247.816 -177.555)
(-97.1681 284.727 -110.553)
(557.932 99.4374 571.752)
(220.442 130.248 699.366)
(-316.727 -700.204 -477.939)
(11.5207 -627.997 -109.86)
(288.185 -112.748 179.523)
(115.961 313.372 -479.083)
(168.285 316.358 258.542)
(98.4231 -267.836 -193.587)
(501.588 46.1581 -324.357)
(-161.268 160.717 392.801)
(-325.171 -106.421 -181.844)
(146.529 135.69 324.994)
(42.6329 447.173 -412.323)
(70.9403 -199.119 293.08)
(-106.33 -145.598 -516.44)
(218.604 155.265 147.314)
(109.974 148.344 158.554)
(305.505 -88.5153 -464.168)
(-115.184 19.7818 -42.4654)
(-138.184 652.411 508.128)
(-80.4826 253.069 107.228)
(-3.74547 611.46 179.953)
(304.986 52.9907 -132.622)
(589.069 138.902 89.3693)
(831.156 125.851 -461.372)
(-31.4883 585.444 229.375)
(-451.264 357.887 -167.616)
(864.622 293.607 48.2558)
(92.4694 -99.0643 -267.94)
(288.81 47.6439 -29.8784)
(302.236 178.847 -358.055)
(-200.073 495.861 83.5425)
(-48.3685 -159.684 -194.118)
(145.359 -241.212 141.307)
(175.705 -179.324 -77.9754)
(11.6176 534.881 257.52)
(-69.1863 -564.483 -337.185)
(-365.117 176.269 -369.619)
(33.1338 -219.551 105.625)
(76.7063 23.5569 -447.192)
(161.425 -43.8449 88.3522)
(-197.233 -74.2281 223.293)
(97.324 333.378 -407.367)
(144.571 697.207 538.989)
(98.5784 59.8742 -311.649)
(70.4231 -166.628 598.795)
(125.568 -211.788 301.819)
(153.615 -181.303 -157.974)
(-124.689 155.855 308.369)
(-227.717 669.852 31.3091)
(153.493 -18.3484 395.164)
(-310.715 -13.5573 -636.676)
(217.511 -177.733 -595.247)
(-426.453 113.628 -175.114)
(-991.505 -1.33997 -165.002)
(-250.488 -111.771 -15.633)
(-424.584 -884.151 269.693)
(582.276 368.888 -410.358)
(45.6497 -100.804 100.821)
(-183.262 142.204 139.888)
(63.2218 -167.663 -150.207)
(-708.508 -23.0158 -287.826)
(-300.574 129.009 137.937)
(418.547 668.474 -177.434)
(-73.7337 -269.42 584.213)
(-1195.52 -67.4891 -513.266)
(-136.585 251.658 7.16899)
(-61.453 -234.907 177.709)
(225.848 -231.235 -108.026)
(-202.894 0.488756 -207.561)
(16.6817 -333.788 116.086)
(266.605 -311.161 551.539)
(195.684 496.76 64.4182)
(541.377 -176.789 -34.7975)
(475.221 81.9625 156.244)
(-178.677 894.929 -187.046)
(-43.9864 392.998 69.1025)
(-612.043 -185.265 527.57)
(391.347 -40.6107 -271.102)
(204.459 426.891 -28.4983)
(-130.838 -130.42 -277.439)
(96.8895 -166.955 722.927)
(-5.31696 -144.631 -511.994)
(-63.1589 312.287 393.556)
(236.725 578.568 -93.355)
(-87.6176 -147.084 347.473)
(-552.856 418.799 -120.739)
(60.2237 142.257 179.036)
(-108.289 -383.282 179.203)
(438.672 724.935 631.874)
(267.947 -351.938 876.993)
(-231.265 281.524 -38.904)
(-365.392 11.3847 -8.66311)
(193.951 782.912 -451.43)
(407.675 781.348 -150.079)
(-483.073 -170.555 130.692)
(-138.777 -126.287 196.73)
(-199.941 332.807 -86.8174)
(-114.574 -298.791 645.012)
(-131.607 -144.862 -123.626)
(-317.808 -197.092 -104.507)
(-202.539 -111.201 193.825)
(362.076 -196.747 237.414)
(294.186 64.6317 538.995)
(-81.0852 -130.373 -187.352)
(-257.263 557.017 254.266)
(12.7851 -292.859 10.1838)
(450.01 59.1778 -129.555)
(447.645 133.586 -182.963)
(-500.78 102.364 -62.2834)
(-278.123 -504.375 -908.433)
(41.514 389.244 227.116)
(-400.984 -182.271 -372.436)
(-271.22 376.71 235.957)
(154.441 -240.83 -792.766)
(-389.291 -453.507 24.4097)
(-277.035 -353.014 -418.979)
(244.988 -55.6884 27.741)
(273.922 -169.877 421.116)
(-281.645 -93.0499 169.705)
(16.116 273.063 -108.591)
(72.0898 -301.636 -684.587)
(-319.861 120.038 -108.783)
(-258.965 122.792 113.942)
(-106.339 248.978 -272.212)
(419.344 -203.721 -284.038)
(357.742 29.4936 -99.2602)
(-90.0606 247.299 -243.162)
(-41.3165 -23.3073 -467.39)
(136.683 81.9425 534.475)
(41.3327 339.526 -416.373)
(324.789 -436.28 -88.0898)
(20.3102 -307.503 -54.6751)
(338.382 -499.788 13.1571)
(-505.903 169.946 230.635)
(398.471 -542.524 -47.185)
(-427.157 292.543 17.4682)
(256.303 -53.4331 359.458)
(-122.638 1.45918 -180.563)
(18.4354 -61.6877 368.507)
(-237.099 -69.2188 -101.769)
(46.2468 -278.102 -78.7983)
(203.649 58.1534 -865.557)
(-104.933 354.841 231.452)
(120.948 -74.2432 398.458)
(399.195 584.852 573.804)
(-163.438 -184.669 -19.2507)
(76.8677 -324.461 229.187)
(-209.602 282.008 -169.637)
(-39.1714 151.908 36.4336)
(-72.8468 -477.653 635.748)
(171.142 138.585 365.044)
(-698.458 524.128 385.858)
(228.047 288.906 18.294)
(-138.893 -389.261 669.085)
(-486.876 -351.15 161.77)
(61.7906 -79.992 -362.509)
(266.869 -467.214 -113.485)
(-352.827 -263.993 480.265)
(-209.895 673.079 294.91)
(-20.1299 -195.104 390.852)
(-337.047 504.873 -184.237)
(-702.08 -306.613 -123.705)
(406.794 275.391 335.173)
(147.471 -189.491 160.859)
(13.3728 646.782 166.727)
(616.851 -2.30471 -244.387)
(487.099 -143.266 -283.741)
(-304.315 -189.005 -352.078)
(293.907 213.762 -568.193)
(84.9225 87.783 8.13914)
(-27.6272 147.889 202.926)
(328.867 -171.314 -54.5781)
(-601.251 -34.6116 -81.7776)
(37.7451 325.488 602.31)
(-82.0341 82.4735 -190.099)
(139.74 580.97 -755.568)
(97.6249 307.427 349.256)
(-215.064 138.698 434.424)
(-77.1657 -154.129 453.442)
(-323.82 -270.574 58.0261)
(-372.11 137.653 16.5629)
(75.8706 203.715 129.105)
(-290.898 363.666 -170.437)
(-39.6481 -175.385 -194.539)
(7.83081 134.661 -271.418)
(117.917 211.918 377.818)
(-195.339 -7.57195 -555.833)
(235.665 522.699 -46.8889)
(567.071 -137.618 -67.3368)
(179.642 169.664 -738.173)
(16.3305 -424.301 14.8861)
(525.168 -209.135 189.008)
(363.765 83.932 -112.815)
(-595.769 -245.974 -181.197)
(155.684 113.779 -228.751)
(298.339 -353.326 413.449)
(-280.419 372.194 539.976)
(29.9063 828.574 -209.632)
(-280.947 383.863 -188.321)
(-276.381 -350.332 -359.358)
(-55.6043 -94.6096 76.6346)
(-219.471 390.673 -230.831)
(-179.461 -129.053 -748.19)
(-218.609 126.715 -148.134)
(-37.8511 -323.65 192.089)
(-212.679 -106.527 301.943)
(37.591 295.973 -561.714)
(-682.561 233.009 157.649)
(299.058 -425.006 -315.974)
(119.309 477.696 -234.874)
(-408.161 552.451 -14.4026)
(-6.25473 -115.507 -320.874)
(290.312 -20.2463 939.161)
(-160.836 -61.4088 -95.6707)
(-170.217 176.64 91.6752)
(-7.27849 -222.025 -182.713)
(-173.71 -20.0279 498.687)
(495.81 -132.078 120.202)
(14.5828 395.127 -277.018)
(-524.989 -247.767 24.7025)
(260.025 -223.574 -186.179)
(315.824 -12.4163 -238.531)
(372.527 -468.46 -385.027)
(527.784 281.105 435.404)
(-399.599 -245.04 28.1047)
(-246.693 550.932 -59.5571)
(-153.555 -89.3676 -57.8492)
(98.8625 43.2868 -141.871)
(-355.904 158.585 34.1492)
(-203.896 -103.981 51.3798)
(-73.0096 -21.3681 -847.969)
(-532.437 255.836 51.2439)
(-209.879 -171.176 141.587)
(295.095 -11.939 -170.06)
(136.637 -47.8212 272.126)
(-53.8985 119.98 315.707)
(-335.547 48.7203 -126.68)
(143.277 421.798 -530.471)
(-163.862 333.66 423.769)
(662.007 -0.978931 409.201)
(125.27 36.2106 -18.3714)
(-77.0257 -55.3994 114.734)
(65.1848 108.037 162.51)
(-272.569 378.884 94.2757)
(-402.156 224.9 -31.5984)
(-404.761 -3.99633 27.9602)
(-522.855 -376.756 7.53933)
(16.0141 23.8648 139.033)
(78.3449 -41.8162 386.796)
(-504.019 -292.182 -166.474)
(204.112 213.16 -360.371)
(538.559 -218.442 162)
(237.431 -574.443 -167.397)
(90.5365 132.627 -67.1968)
(-134.606 23.1521 -628.088)
(122.548 338.232 153.41)
(-120.002 420.22 -597.861)
(99.5908 355.496 -100.314)
(-120.201 296.867 -39.0935)
(418.526 797.667 77.161)
(517.149 -141.01 -313.553)
(362.311 -273.631 -295.257)
(14.7393 547.297 -186.609)
(-734.945 -182.742 -5.92117)
(205.965 373.438 23.1657)
(-142.314 500.08 -380.295)
(-59.3061 -855.454 -168.524)
(-179.569 -76.9667 -775.446)
(-232.504 -71.2863 -299.491)
(46.7659 -10.6084 -302.918)
(-315.272 380.802 -312.152)
(210.587 18.56 132.888)
(-246.853 -52.3238 -229.372)
(262.838 427.268 -313.558)
(-502.399 -266.3 11.7767)
(31.3155 182.234 -306.334)
(55.6441 -375.913 -228.003)
(-390.96 -541.668 234.331)
(-28.9318 446.029 876.582)
(237.205 -480.856 359.052)
(-298.772 498.515 51.7479)
(71.7444 295.433 36.1432)
(746.49 310.946 476.113)
(328.328 44.7942 81.8626)
(225.898 -234.035 -467.257)
(-103.38 135.959 -134.181)
(-149.167 84.6382 -121.744)
(-364.195 -135.709 -71.0299)
(-12.7749 -141.433 -162.483)
(213.897 -304.292 109.911)
(169.086 -287.344 -437.712)
(187.995 -185.114 -307.734)
(354.663 403.972 188.569)
(-110.226 261.939 205.763)
(230.736 -424.25 -292.734)
(102.443 475.431 -75.4739)
(611.11 -346.735 -142.554)
(307.203 683.276 304.081)
(151.118 -252.67 -194.219)
(345.053 -107.76 -428.391)
(-270.77 -352.595 -313.044)
(40.2509 62.3684 -445.701)
(280.374 157.047 213.319)
(-166.206 -520.76 -204.112)
(-19.0005 33.3164 269.688)
(511.132 -472.625 147.992)
(-977.935 192.248 7.35549)
(-438.976 -218.099 204.132)
(-32.4869 763.871 202.582)
(329.883 16.6738 -717.92)
(196.245 255.479 -281.349)
(-83.8294 -177.366 -176.875)
(-166.975 -503.488 -270.755)
(-292.339 -10.6368 -376.41)
(74.0171 410.519 538.239)
(-597.72 -135.905 286.419)
(235.49 631.897 -122.861)
(-162.38 -412.356 -356.264)
(-142.155 172.968 -48.4025)
(93.0997 -470.724 46.4402)
(256.548 428.657 236.028)
(66.6496 -24.1708 110.496)
(-109.406 201.72 -146.019)
(-292.086 50.4291 136.026)
(690.884 394.68 441.294)
(365.302 -377.004 -773.884)
(378.022 -398.782 90.2618)
(45.5997 -347.603 -396.78)
(96.4226 190.818 171.124)
(-103.481 3.2057 -165.12)
(-258.115 -175.167 -123.833)
(-206.965 62.8554 545.772)
(92.5445 19.0291 -565.552)
(-379.844 -142.88 -554.057)
(180.413 -170.891 267.559)
(269.9 -161.16 26.7025)
(305.465 147.589 174.736)
(-192.675 59.0145 -295.319)
(-307.013 100.845 467.45)
(78.2963 -680.144 -137.606)
(-460.208 -60.6941 165.229)
(-26.6197 -773.765 214.071)
(483.751 -331.265 -462.943)
(276.221 -225.57 260.464)
(-97.5015 -346.555 -549.943)
(124.004 -111.505 -66.9029)
(211.727 -179.561 217.169)
(180.163 -1007.95 29.8556)
(323.393 49.519 4.9655)
(-52.4269 350.39 74.9405)
(-127.636 -332.295 -130.303)
(77.4024 -106.054 -222.429)
(-208.629 170.91 224.63)
(-226.247 -371.573 520.909)
(280.604 362.923 142.439)
(350.614 44.2408 -21.0179)
(-161.523 -185.14 384.748)
(-220.927 -583.159 -10.9978)
(-362.308 -171.651 191.392)
(158.898 24.8988 -103.083)
(-578.945 -61.3598 -187.83)
(-26.708 -38.9837 130.17)
(-156.531 -485.531 -145.936)
(-53.7145 306.526 505.825)
(612.707 -523.469 -84.902)
(409.604 235.312 304.607)
(12.2176 -133.109 -231.301)
(259.861 -320.865 81.5656)
(-83.1778 -713.15 513.91)
(35.9899 -306.324 -82.6918)
(81.6566 -328.594 -117.429)
(713.3 -514.957 -371.975)
(418.446 -459.53 -49.9081)
(-641.011 -142.185 -323.164)
(6.93186 -143.929 55.8136)
(521.964 -53.6994 -149.079)
(196.92 367.625 -195.619)
(-88.7271 -32.7079 193.964)
(84.5546 29.507 109.696)
(349.539 -335.715 -224.452)
(-255.563 -375.336 239.917)
(-236.492 65.1607 -586.687)
(182.768 416.553 132.776)
(-342.211 204.397 -365.094)
(-33.6695 697.903 -281.371)
(391.382 27.6435 244.373)
(-136.938 -54.576 -195.739)
(-33.8849 254.825 406.383)
(369.861 279.618 -38.3188)
(-250.528 -230.579 79.7996)
(34.503 -57.6436 130.162)
(245.177 31.759 23.7278)
(279.593 -251.99 -112.439)
(69.7256 287.921 -74.2796)
(28.7098 164.806 451.92)
(445.424 -383.867 -212.94)
(226.216 311.538 -413.218)
(-470.381 45.2133 -144.505)
(-34.4603 577.225 296.606)
(216.026 516.086 -382.877)
(-327.689 405.798 680.546)
(-147.126 -344.956 245.67)
(252.106 -230.989 -85.0634)
(24.5084 4.15319 -165.716)
(-37.2577 -228.565 -426.051)
(478.803 -347.271 36.2053)
(279.613 -407.764 115.96)
(-471.196 301.297 -436.47)
(246.051 -340.643 -685.976)
(319.007 326.578 16.4649)
(544.214 -376.258 448.915)
(40.9115 -330.194 -207.592)
(-124.304 512.826 217.228)
(293.696 67.8924 404.172)
(67.9342 -374.904 -62.2225)
(-460.471 201.569 213.441)
(-465.274 -132.818 98.6489)
(150.029 -406.855 44.8284)
(-20.1947 -84.5566 -225.965)
(-406.573 350.455 -209.225)
(330.871 19.3467 326.315)
(43.6565 400.96 819.759)
(71.5878 -214.739 25.4584)
(-5.71895 238.93 324.974)
(-160.876 -610.798 73.0703)
(-594.425 -190.703 -68.2159)
(389.598 239.717 -375.078)
(-53.278 -278.168 -120.498)
(623.866 -19.6967 6.75111)
(292.048 596.352 212.002)
(80.4479 579.521 185.597)
(327.885 -304.675 1.77727)
(-195.818 182.469 121.824)
(4.79676 -327.961 -71.5309)
(-465.141 37.979 97.8428)
(-187.689 -102.505 54.5801)
(-257.666 167.327 257.165)
(-37.0748 150.605 -150.982)
(31.6308 264.023 204.255)
(-586.542 216.214 364.292)
(-84.045 313.478 250.045)
(59.5054 -399.734 -11.3211)
(185.264 -231.935 461.537)
(105.673 -33.1116 165.634)
(102.907 -71.8787 247.465)
(641.539 52.6547 338.945)
(-33.4138 341.029 212.606)
(-220.558 -234.063 373.439)
(9.2704 53.9177 -227.155)
(213.032 47.0904 214.127)
(93.0834 144.573 355.562)
(-111.812 -184.949 110.528)
(478.729 -55.6162 948.142)
(-109.777 138.069 -245.032)
(49.8845 210.364 49.7856)
(270.51 -536.306 -112.584)
(286.059 196.542 224.695)
(260.524 -40.6753 274.356)
(264.369 112.655 34.0008)
(386.092 -91.8979 -350.929)
(303.068 -463.042 479.246)
(-94.8079 181.166 -148.416)
(108.151 -140.266 -178.331)
(-323.729 276.363 0.764385)
(-252.712 399.161 112.472)
(542.082 436.761 -295.542)
(-282.806 268.343 510.589)
(-740.857 -154.671 50.5461)
(-444.373 221.238 -585.312)
(142.884 -251.285 186.361)
(378.381 661.46 -217.851)
(47.3453 -50.0895 -441.799)
(43.7586 359.603 107.633)
(-77.2262 -831.883 -908.2)
(-15.8483 498.711 -279.999)
(-126.013 -270.105 551.641)
(-171.36 574.098 -101.616)
(297.87 67.5823 68.3715)
(-236.407 175.36 -174.29)
(-443.958 115.362 52.097)
(-257.025 -290.291 84.8412)
(-138.932 -149.869 233.311)
(-180.311 -603.583 -9.12176)
(47.3316 -93.1645 150.813)
(-211.133 389.632 -109.523)
(-264.124 376.75 -297.28)
(-515.588 -23.7846 -107.708)
(-465.537 154.987 -270.97)
(217.015 69.6673 44.1749)
(-178.943 158.419 -45.6964)
(-223.345 439.956 376.987)
(-150.779 -190.271 -41.5624)
(492.885 -355.335 130.831)
(-124.172 204.983 244.487)
(369.409 218.914 162.827)
(-312.824 471.042 -160.022)
(-129.903 356.585 -465.588)
(-524.272 -198.069 -233.375)
(-201.976 127.9 -348.927)
(726.184 26.2007 -122.219)
(-18.9154 125.127 -232.153)
(398.292 244.247 -376.011)
(164.971 229.732 858.927)
(78.1672 120.239 160.552)
(-264.299 505.207 52.129)
(243.484 34.2161 145.694)
(-86.9883 41.6117 39.6273)
(157.148 -486.726 300.645)
(-226.367 261.638 -192.155)
(-307.331 -119.814 256.16)
(-62.868 -330.169 115.529)
(364.99 108.778 397.022)
(-209.444 143.678 -49.1982)
(280.676 -148.685 -371.334)
(-242.046 610.132 292.045)
(331.923 -162.83 147.206)
(-273.88 -47.5012 317.842)
(-80.5785 555.853 248.873)
(92.6005 20.2419 -428.644)
(102.737 8.9708 192.677)
(134.549 321.788 345.944)
(-457.754 -9.22817 -574.258)
(303.54 753.735 35.6832)
(-321.613 273.975 -68.6428)
(260.897 -580.512 -191.74)
(-577.12 38.301 -262.831)
(-379.807 -257.196 143.953)
(-266.193 -240.912 320.395)
(-183.731 124.327 -500.443)
(-513.736 -428.16 -228.503)
(-56.591 531.166 220.359)
(148.979 596.126 108.317)
(-112.419 -228.926 -82.5129)
(-100.828 -313.787 -9.93656)
(322.283 -572.907 316.612)
(280.474 230.267 -20.1024)
(-380.166 15.4968 221.643)
(-205.225 -118.776 313.726)
(106.036 21.7888 -144.226)
(-471.07 74.3255 -462.152)
(87.2064 307.094 425.112)
(79.1046 112.395 466.703)
(587.118 207.386 123.725)
(-232.387 90.9277 -248.198)
(364.902 -179.708 -121.533)
(11.3858 -15.7473 -389.553)
(686.101 -536.607 516.969)
(-229.493 -237.827 53.9186)
(-516.445 217.419 120.264)
(-81.3689 -148.539 -359.109)
(129.631 295.808 -296.883)
(-69.117 72.4741 -143.734)
(56.1236 -180.745 61.0864)
(-704.328 561.206 -104.221)
(-640.551 -519.588 311.43)
(-36.2919 -198.715 -214.119)
(302.125 182.221 -430.619)
(-56.4783 230.447 -30.6877)
(210.501 -89.177 374.156)
(123.504 31.9583 -135.665)
(76.6848 187.485 -469.176)
(-401.74 -78.1531 -268.251)
(-137.045 31.5268 -293.375)
(-28.2236 392.093 -365.653)
(70.8963 -467.145 9.5468)
(-219.306 -22.3436 141.321)
(-325.752 -323.321 -537.669)
(-381.24 -273.052 2.01565)
(-132.578 99.59 791.371)
(394.599 -71.7225 100.524)
(94.7353 -364.948 74.7813)
(240.384 8.98755 -233.258)
(-344.728 168.453 -108.412)
(-577.443 29.4624 -111.824)
(-104.417 -508.918 520.027)
(-155.027 -73.0658 128.767)
(-192.926 404.47 272.006)
(-28.7283 -328.067 71.4271)
(139.258 -358.877 110.872)
(202.295 175.59 2.01248)
(81.2918 -102.714 -129.002)
(16.4367 320.048 -20.2757)
(-177.149 312.478 -270.972)
(-204.439 -274.183 -266.912)
(-177.429 -577.46 537.004)
(383.28 -372.867 -158.541)
(-544.13 -131.69 590.239)
(-102.569 237.873 -298.635)
(12.7153 214.632 -2.51964)
(-97.6285 -50.6559 -231.279)
(-44.0877 -171.901 -223.22)
(489.788 13.1787 316.903)
(-636.766 -203.092 -120.216)
(-122.527 -413.198 -540.591)
(80.9557 -281.477 -679.236)
(-306.251 -204.391 86.9259)
(613.045 426.558 285.364)
(-78.0473 -75.7938 114.674)
(49.1164 -153.726 -421.093)
(-19.6795 107.406 -698.26)
(317.71 -183.419 -21.8452)
(92.4835 -229.677 -167.983)
(-59.2739 -439.067 -477.454)
(54.38 22.1081 -118.166)
(194.077 361.898 -142.527)
(-359.202 -73.5464 469.936)
(168.257 -115.405 452.218)
(78.4338 -814.927 -295.114)
(366.793 241.967 -331.011)
(192.624 522.821 -98.6715)
(684.779 -63.0578 43.1772)
(-105.003 364.836 -206.567)
(-353.886 607.872 608.382)
(-272.098 -23.8879 203.122)
(-191.13 -422.906 66.8698)
(12.8954 -88.7628 135.61)
(225.682 6.8051 -446.561)
(-76.9126 -18.2066 18.5202)
(71.4679 -49.4879 -379.365)
(413.977 -397.024 -365.868)
(-141.641 -129.638 237.835)
(-111.509 36.4038 304.83)
(284.249 -15.4691 -361.521)
(-188.495 9.37543 -71.3537)
(476.309 152.032 -362.585)
(87.6738 18.7723 -494.497)
(-266.941 271.255 -322.303)
(-259.799 141.124 -6.62571)
(-332.856 -389.559 146.469)
(150.563 -162.595 34.476)
(407.117 380.955 55.9563)
(60.0972 240.334 585.271)
(-516.301 256.112 -81.1414)
(159.465 -102.677 -12.9366)
(-551.729 25.6483 -380.536)
(348.961 -143.556 -486.647)
(-183.836 -544.435 -89.6847)
(-107.057 -112.486 159.75)
(115.548 193.056 350.426)
(123.268 123.216 -8.3772)
(-372.396 -321.351 539.298)
(22.3499 -56.4698 102.513)
(-270.953 333.435 18.9896)
(-145.727 586.364 -250.473)
(-66.1553 98.5719 -10.9281)
(218.188 -285.616 58.4891)
(-447.417 -380.095 323.487)
(320.865 -172.913 710.798)
(328.01 -283.191 123.345)
(-405.791 -242.043 197.662)
(-53.3663 -413.669 -13.5183)
(548.522 99.3212 504.2)
(-11.603 193.785 335.437)
(529.263 222.145 -369.981)
(219.49 201.325 178.094)
(214.351 -731.818 -611.248)
(304.941 190.071 90.9806)
(-72.4416 -290.103 -156.433)
(-75.9888 -324.418 -219.052)
(-201.997 169.243 -78.5112)
(-137.107 357.437 -51.8783)
(710.677 47.7962 -122.212)
(-360.718 -56.6923 56.3484)
(-235.608 161.909 445.751)
(-266.965 318.501 556.207)
(-259.873 -271.691 -214.338)
(415.489 230.552 50.2484)
(-256.904 189.377 -10.0189)
(-102.5 -60.881 206.192)
(-25.0602 175.722 -58.0539)
(155.777 167.413 548.659)
(55.1506 -504.538 -748.302)
(68.5944 -379.99 39.7217)
(182.857 -259.191 -341.041)
(471.737 128.685 326.181)
(-171.495 639.55 110.909)
(-560.1 478.818 270.497)
(-376.481 -26.7254 219.307)
(-167.572 39.2736 -167.792)
(-106.542 357.266 11.241)
(182.363 175.807 355.562)
(775.895 120.4 436.904)
(313.509 -207.595 -505.846)
(-126.098 -131.101 -145)
(891.15 -235.903 230.474)
(179.736 -200.209 -87.5237)
(-78.5583 -516.139 -364.475)
(198.693 293.821 -415.046)
(-184.704 -100.021 191.132)
(-154.77 -159.946 -362.237)
(367.013 57.1176 -3.46146)
(-537.164 -451.164 -187.645)
(-546.504 481.169 270.86)
(329.239 -423.045 279.752)
(-36.6433 266.876 -63.5448)
(332.259 -16.268 213.659)
(-113.9 485.491 -367.529)
(49.8222 -5.67054 190.829)
(-214.763 199.011 -201.349)
(-44.9869 -126.186 -38.789)
(-296.724 56.49 -121.009)
(22.4932 -4.27635 -375.574)
(-327.049 199.511 274.872)
(-418.07 132.093 183.22)
(-39.9746 -357.051 -358.138)
(53.9768 -305.714 -105.13)
(-476.967 -341.661 331.009)
(390.084 192.553 526.758)
(-193.18 568.231 -331.631)
(61.075 297.673 5.31458)
(249.458 173.378 -139.856)
(-97.1097 295.664 150.091)
(416.331 -152.17 168.814)
(162.1 124.004 424.918)
(14.9847 -445.087 229.578)
(311.356 -14.8481 -118.941)
(16.4041 234.032 323.726)
(-113.73 -160.27 -276.347)
(-299.081 237.734 26.7889)
(-319.802 40.512 291.47)
(-68.3335 35.9229 186.131)
(98.5045 -356.293 -29.1261)
(-14.3728 -64.4177 -482.482)
(-18.739 25.7006 126.875)
(456.258 87.65 204.512)
(-49.8825 -176.244 -276.245)
(504.676 385.016 -94.8722)
(202.409 -286.856 -399.082)
(149.146 -186.922 -289.526)
(-259.606 283.206 173.797)
(486.09 -155.897 -36.3556)
(-232.363 127.77 -61.9395)
(-312.405 313.59 353.568)
(54.7538 410.169 519.004)
(45.8682 -320.323 15.1656)
(369.802 -194.578 -799.243)
(23.3526 -497.31 -306.833)
(-55.7539 54.1742 -498.381)
(-353.698 547.449 -49.6966)
(815.41 -296.691 616.925)
(-171.722 610.323 -364.694)
(353.808 -228.935 310.945)
(-225.98 -15.2611 -37.7522)
(27.5998 -262.866 160.765)
(-31.0072 -459.323 311.685)
(239.236 73.6218 301.573)
(54.578 535.097 364.473)
(-163.263 211.987 252.49)
(348.716 -132.975 -276.845)
(-324.65 -66.6226 525.102)
(355.5 -433.433 -36.7143)
(-288.868 -361.035 -92.4948)
(-108.604 42.8952 -62.6802)
(-442.036 -790.215 156.053)
(320.048 -641.671 152.571)
(-21.4018 -377.564 -105.744)
(-221.144 -416.624 278.266)
(-115.85 106.351 401.83)
(187.912 171.933 19.9542)
(31.6545 182.15 3.9667)
(391.229 260.972 369.698)
(-138.015 255.475 -56.8339)
(-70.9757 513.027 197.243)
(238.566 -294.864 -269.239)
(376.012 -114.283 -111.336)
(-311.606 408.818 -373.016)
(116.967 -34.733 -14.3746)
(-134.417 94.9681 -140.479)
(-136.655 -51.129 151.654)
(83.1347 163.425 169.161)
(358.216 136.118 -211.477)
(-93.9597 139.112 276.296)
(-451.038 -44.3796 -248.661)
(-192.905 154.433 135.678)
(-179.653 259.789 155.82)
(-24.8628 -7.65101 -312.938)
(-516.528 -518.859 -40.479)
(-222.812 -2.9443 -101.789)
(-187.784 -142.907 -899.495)
(69.717 5.52197 262.182)
(-681.421 -171.644 287.641)
(-761.602 149.753 -149.71)
(-41.8134 30.1654 -113.184)
(-20.8636 -333.946 145.553)
(-701.108 -553.987 -277.867)
(-122.601 -303.336 46.116)
(-115.734 203.758 -149.83)
(719.775 173.595 -149.249)
(-70.0112 -45.1247 -221.647)
(-319.182 569.883 16.8675)
(4.27987 -439.292 -35.9813)
(223.279 -78.5187 -63.0691)
(-177.527 -740.544 -13.6915)
(-199.903 338.097 49.0762)
(-291.223 397.886 271.359)
(11.6803 -721.582 298.03)
(-62.9746 -174.892 80.5041)
(-179.655 289.289 71.1671)
(-52.7963 73.0667 -49.6477)
(-315.759 -479.921 -283.896)
(-26.1167 426.278 -432.144)
(191.206 112.472 231.082)
(-72.9413 -211.989 895.677)
(93.286 -204.621 -9.03367)
(-431.913 -72.3137 46.6339)
(-464.482 -392.88 -396.136)
(370.791 -376.799 481.681)
(-83.0888 231.573 615.94)
(-115.759 489.395 -289.807)
(116.859 380.808 66.0978)
(-425.726 43.0723 -207.549)
(73.4114 -87.9618 -381.102)
(360.025 -35.311 1.30062)
(-136.043 -600.816 -69.561)
(-617.256 164.487 -154.68)
(-247.872 177.195 120.212)
(39.885 341.034 -114.196)
(284.812 -151.468 442.206)
(-53.0552 56.1693 162.199)
(-135.686 501.106 -118.1)
(131.765 515.718 -588.671)
(354.056 596.01 -476.545)
(135.167 -207.034 275.045)
(-306.995 -2.89453 -437.881)
(72.1387 486.391 256.567)
(240.442 -795.3 -6.1849)
(-171.289 -112.387 681.215)
(147.363 -73.5426 243.325)
(116.28 -490.663 480.483)
(413.296 243.538 -61.2503)
(-418.093 -93.1237 -67.4243)
(-38.7681 24.0634 50.1042)
(70.6526 -294.191 -130.543)
(-174.642 -462.619 60.5231)
(-100.931 502.641 48.0399)
(-64.8483 6.03619 -286.426)
(48.6481 -235.506 221.362)
(-31.4557 53.5363 59.9478)
(355.516 -88.1376 -97.5707)
(68.8269 224.209 647.394)
(514.76 16.0098 576.918)
(-142.013 253.736 372.186)
(-416.937 200.104 126.755)
(240.867 181.94 -51.6913)
(22.1068 -111.774 0.856035)
(64.1165 65.1383 -41.9362)
(-315.701 453.585 51.5427)
(-540.716 -283.578 359.806)
(-350.101 -194.872 -152.42)
(-127.659 252.007 320.894)
(-63.4739 -42.0722 269.146)
(44.5043 -902.441 186.139)
(254.719 561.562 -644.009)
(289.693 118.395 145.349)
(-1.04407 -487.805 216.027)
(-544.951 -776.235 204.786)
(230.05 -178.225 -361.409)
(62.3215 -180.451 -269.398)
(385.134 36.7903 -174.583)
(-367.206 457.287 -71.0322)
(-413.159 -140.554 -290.004)
(-76.3864 -236.831 300.891)
(11.4012 301.186 37.4886)
(677.701 274.128 293.122)
(-410.196 360.548 97.6725)
(253.737 -84.0411 -268.963)
(349.304 120.932 73.2825)
(-174.202 -72.8201 287.256)
(-86.7947 -62.5068 -371.767)
(210.837 291.907 -60.8955)
(-107.018 7.93554 155.403)
(-228.946 -375.305 103.862)
(42.082 601.73 -414.251)
(-76.3317 75.9207 -88.8718)
(-417.48 -471.972 -372.129)
(-322.316 -480.758 -363.941)
(-202.314 215.097 352.022)
(-519.133 -367.657 -287.033)
(134.124 170.349 796.229)
(270.435 134.697 -44.8666)
(522.07 -89.4133 336.531)
(11.687 -557.193 -35.2471)
(104.42 207.216 174.342)
(225.521 -14.8546 3.60308)
(241.844 121.244 308.036)
(-5.81437 280.564 -41.1304)
(-91.3068 542.066 321.376)
(-96.0789 -304.831 -625.703)
(-83.3069 -509.193 97.3838)
(-56.0812 -55.8523 194.13)
(252.305 77.5012 -294.672)
(-261.433 62.418 201.514)
(95.7051 204.831 154.659)
(-376.996 261.552 -516.623)
(206.422 -73.9405 241.002)
(-203.16 -79.9029 43.3871)
(450.74 155.441 259.325)
(244.38 237.039 -735.77)