/*--------------------------------*- C++ -*----------------------------------*\
  =========                 |
  \\      /  F ield         | OpenFOAM: The Open Source CFD Toolbox
   \\    /   O peration     | Website:  https://openfoam.org
    \\  /    A nd           | Version:  7
     \\/     M anipulation  |
\*---------------------------------------------------------------------------*/
FoamFile
{
    version     2.0;
    format      ascii;
    class       volScalarField;
    location    "0.0175";
    object      rhoN;
}
// * * * * * * * * * * * * * * * * * * * * * * * * * * * * * * * * * * * * * //

dimensions      [0 -3 0 0 0 0 0];

internalField   nonuniform List<scalar> 
250
(
1.356e+20
1.3635e+20
1.32e+20
1.2405e+20
1.275e+20
1.314e+20
1.2e+20
1.191e+20
1.2645e+20
1.338e+20
1.2135e+20
1.299e+20
1.2495e+20
1.2885e+20
1.2345e+20
1.2285e+20
1.152e+20
1.392e+20
1.2315e+20
1.239e+20
1.2e+20
1.134e+20
1.2885e+20
1.284e+20
1.332e+20
1.251e+20
1.26e+20
1.2345e+20
1.2495e+20
1.3245e+20
1.176e+20
1.2165e+20
1.245e+20
1.2915e+20
1.239e+20
1.206e+20
1.278e+20
1.2645e+20
1.242e+20
1.2135e+20
1.2375e+20
1.2345e+20
1.3395e+20
1.23e+20
1.215e+20
1.1925e+20
1.2315e+20
1.2795e+20
1.236e+20
1.1625e+20
1.26e+20
1.2195e+20
1.263e+20
1.191e+20
1.2225e+20
1.2435e+20
1.206e+20
1.272e+20
1.2945e+20
1.1835e+20
1.263e+20
1.2135e+20
1.23e+20
1.2315e+20
1.2255e+20
1.287e+20
1.185e+20
1.263e+20
1.1985e+20
1.2885e+20
1.3245e+20
1.236e+20
1.269e+20
1.227e+20
1.254e+20
1.227e+20
1.1325e+20
1.221e+20
1.2465e+20
1.1415e+20
1.29e+20
1.2195e+20
1.191e+20
1.251e+20
1.134e+20
1.2435e+20
1.2075e+20
1.122e+20
1.1775e+20
1.1955e+20
1.2675e+20
1.2375e+20
1.17e+20
1.2435e+20
1.2375e+20
1.179e+20
1.2225e+20
1.2645e+20
1.176e+20
1.218e+20
1.143e+20
1.236e+20
1.2015e+20
1.1925e+20
1.224e+20
1.1625e+20
1.2585e+20
1.1565e+20
1.23e+20
1.221e+20
1.1685e+20
1.1325e+20
1.194e+20
1.1655e+20
1.2015e+20
1.2435e+20
1.221e+20
1.296e+20
1.203e+20
1.2165e+20
1.2495e+20
1.197e+20
1.2105e+20
1.284e+20
1.149e+20
1.2165e+20
1.26e+20
1.245e+20
1.2315e+20
1.215e+20
1.1925e+20
1.275e+20
1.1475e+20
1.2135e+20
1.224e+20
1.2405e+20
1.2e+20
1.1955e+20
1.227e+20
1.0935e+20
1.245e+20
1.104e+20
1.2315e+20
1.254e+20
1.1565e+20
1.1895e+20
1.1775e+20
1.2165e+20
1.1295e+20
1.209e+20
1.113e+20
1.152e+20
1.11e+20
1.1805e+20
1.161e+20
1.2015e+20
1.137e+20
1.1835e+20
1.1955e+20
1.2195e+20
1.2435e+20
1.1265e+20
1.2135e+20
1.278e+20
1.158e+20
1.185e+20
1.1145e+20
1.146e+20
1.1835e+20
1.2765e+20
1.203e+20
1.134e+20
1.197e+20
1.1625e+20
1.152e+20
1.164e+20
1.1985e+20
1.2465e+20
1.2255e+20
1.185e+20
1.152e+20
1.152e+20
1.167e+20
1.1145e+20
1.1115e+20
1.104e+20
1.11e+20
1.2465e+20
1.1475e+20
1.1835e+20
1.098e+20
1.2195e+20
1.1805e+20
1.149e+20
1.107e+20
1.2435e+20
1.0935e+20
1.1295e+20
1.1115e+20
1.146e+20
1.101e+20
1.1775e+20
1.233e+20
1.152e+20
1.0545e+20
1.152e+20
1.137e+20
1.209e+20
1.1535e+20
1.1385e+20
1.236e+20
1.1745e+20
1.2285e+20
1.146e+20
1.1115e+20
1.0815e+20
1.107e+20
1.08e+20
1.185e+20
1.224e+20
1.2135e+20
1.1685e+20
1.182e+20
1.0965e+20
1.149e+20
1.1415e+20
1.1445e+20
1.149e+20
1.1115e+20
1.1655e+20
1.1265e+20
1.152e+20
1.1355e+20
1.1085e+20
1.14e+20
1.188e+20
1.149e+20
1.1565e+20
1.149e+20
1.1475e+20
1.143e+20
1.1415e+20
1.161e+20
1.1325e+20
1.1295e+20
1.176e+20
1.1355e+20
1.0995e+20
1.089e+20
1.125e+20
)
;

boundaryField
{
    sides
    {
        type            symmetry;
    }
    empty
    {
        type            empty;
    }
    procBoundary2to1
    {
        type            processor;
        value           uniform 1.1955e+20;
    }
    procBoundary2to3
    {
        type            processor;
        value           uniform 1.1295e+20;
    }
}


// ************************************************************************* //
