/*--------------------------------*- C++ -*----------------------------------*\
  =========                 |
  \\      /  F ield         | OpenFOAM: The Open Source CFD Toolbox
   \\    /   O peration     | Website:  https://openfoam.org
    \\  /    A nd           | Version:  7
     \\/     M anipulation  |
\*---------------------------------------------------------------------------*/
FoamFile
{
    version     2.0;
    format      ascii;
    class       volVectorField;
    location    "0.004";
    object      fD;
}
// * * * * * * * * * * * * * * * * * * * * * * * * * * * * * * * * * * * * * //

dimensions      [1 -1 -2 0 0 0 0];

internalField   uniform (0 0 0);

boundaryField
{
    flow
    {
        type            zeroGradient;
    }
    obstacle
    {
        type            calculated;
        value           nonuniform List<vector> 
30
(
(4.147783984 -3.609547101 -0.3816727374)
(3.223083234 -2.812886995 -3.250714698)
(0 0 0)
(5.170032815 -2.49169524 1.727829739)
(0 0 0)
(0 0 0)
(2.290171453 -4.649166192 -2.666401103)
(3.604135591 -1.83038898 -2.884446871)
(2.491008642 -1.918846085 -4.170235899)
(0 0 0)
(1.859098139 -2.336442563 4.201776555)
(2.670358978 -6.050381806 -4.109659027)
(2.727466641 -4.578655556 -0.4101066214)
(3.167560427 -7.307112679 1.852782814)
(1.147530387 -0.4874492348 0.837889587)
(1.570281103 -1.093331261 0.1886095054)
(2.931972251 -2.321985662 -0.02238683562)
(0 0 0)
(1.022134531 -2.271861764 -1.586083997)
(0 0 0)
(0.4476883037 -1.167211238 1.091843628)
(6.58989938 -3.939588653 0.7009449141)
(2.310756242 -4.222752824 -0.9581479635)
(0 0 0)
(6.213174353 -4.320225841 1.693310856)
(5.781848299 -6.128119059 0.5251836408)
(6.169446731 -3.73489216 0.5020348359)
(0 0 0)
(5.864414663 -6.828211825 3.393288518)
(0 0 0)
)
;
    }
    frontAndBack
    {
        type            empty;
    }
    procBoundary1to0
    {
        type            processor;
        value           uniform (0 0 0);
    }
    procBoundary1to3
    {
        type            processor;
        value           uniform (0 0 0);
    }
}


// ************************************************************************* //
