/*--------------------------------*- C++ -*----------------------------------*\
  =========                 |
  \\      /  F ield         | OpenFOAM: The Open Source CFD Toolbox
   \\    /   O peration     | Website:  https://openfoam.org
    \\  /    A nd           | Version:  7
     \\/     M anipulation  |
\*---------------------------------------------------------------------------*/
FoamFile
{
    version     2.0;
    format      ascii;
    class       volScalarField;
    location    "0.004";
    object      internalE;
}
// * * * * * * * * * * * * * * * * * * * * * * * * * * * * * * * * * * * * * //

dimensions      [1 -1 -2 0 0 0 0];

internalField   nonuniform List<scalar> 
546
(
3.083176172
1.893422145
2.628054125
2.507385858
4.029263654
2.051381632
3.344535746
2.279568506
2.7094877
3.384085591
2.446186497
3.547489483
2.182999524
2.529359064
2.064751349
2.577428964
3.385550083
3.241391417
1.866349309
2.130124222
3.140409145
3.738875861
0.9325121498
2.282680959
2.434842268
1.811576647
0.9577122517
4.261722819
2.10678513
3.409405627
2.859852942
1.139378405
3.893821289
3.293164053
2.543220821
4.306960009
2.867261676
2.98805457
3.528314033
1.463232196
2.939950461
3.014542784
3.17553043
3.003946088
1.836281799
2.063204642
1.389310338
2.937239269
2.312318097
2.695506382
4.345104663
2.484166514
1.743434151
2.266793525
3.811353357
2.086353408
3.527991787
3.318666296
1.495872346
1.560922387
2.614122775
1.430182974
1.926104124
4.846881058
2.491631855
2.724292591
2.017563232
3.051705628
3.515802211
3.367448318
3.69333621
3.59416337
4.9948102
4.113168824
3.465675447
2.104344806
2.531794852
2.847479396
1.516223226
3.389531459
2.46312819
3.468610468
1.888924292
2.717827923
1.999501088
2.785073307
1.537942772
2.143898833
2.441852588
1.961845159
3.189463479
2.052897251
3.674796093
1.401272589
2.685343223
2.424347373
2.640686851
1.635749293
3.287516467
2.845162817
1.152875994
4.094348357
2.609880529
2.203799052
3.346249746
1.654642467
3.77279046
3.697429012
2.306261869
2.030614015
2.571264403
1.366183257
1.872449043
2.544548987
1.290158216
2.404359648
3.873728813
1.486024495
2.647362147
0.9405471962
1.358327209
2.804920776
1.356375993
2.374001367
3.060545344
3.015385555
3.02608975
1.405882593
2.473674094
5.285737942
1.963384127
3.403057372
2.488960125
1.924486888
2.805125253
2.135884636
4.764604193
4.269508694
3.333222042
5.65366529
1.946286082
1.881571686
3.572949468
2.598150911
3.882466299
2.47765689
2.043810625
1.937970145
1.902818274
1.415872869
1.207769419
1.947758838
2.048878099
2.561507536
3.456727173
1.715791751
2.508166701
2.651555308
1.569190154
3.340564975
3.42576378
4.33765247
2.914671375
1.062775491
3.073049544
2.2198191
2.522512353
3.017381295
3.149197726
2.150230594
3.017393986
2.889435519
1.694208452
5.00706253
3.852025779
2.387548938
2.028867778
2.382373633
1.74813127
3.03435316
0.8991617869
1.947703702
1.244367396
2.607838229
0.9125507839
2.460638042
2.864788327
1.839320928
1.614453388
3.024060469
3.20828749
2.775046355
1.455071576
2.793500264
3.826783289
2.995611455
3.832186888
1.610275691
3.22331701
2.166044745
3.023668163
2.34256292
2.524758083
3.594339595
2.660617707
2.021229412
1.671535497
0.9668647881
3.053165538
2.191627789
0.727305495
0.9591778148
2.987843479
2.069336376
0.9174333237
1.21455201
1.468863781
1.192910213
2.029395305
1.449761999
3.221505729
3.089994842
2.681067183
2.178444182
4.525354245
3.711347119
1.336821319
2.619393737
2.872772455
2.236999825
3.80320604
2.560857634
2.146573782
2.333619192
1.439412811
2.852335872
2.814170415
1.2659674
3.256993642
1.928701208
0.7513501522
0.5605288046
1.526262376
0.2560458497
2.936849217
1.606667287
1.670819589
2.301442998
1.686883212
1.650297491
1.408796103
1.747988309
3.458790083
2.388011777
5.261899179
2.620039747
3.168232262
2.337955585
2.634761073
3.187544328
2.407210483
2.51109859
2.690797065
2.132556095
3.603766043
1.592546209
3.373172445
2.70501994
3.330560765
3.723669086
1.003773902
0.9868462446
1.294085058
1.511806873
1.091630247
0.8695208123
1.385900247
3.016560994
0.9854754728
1.697597515
2.856509204
1.976893253
2.161282182
1.192674841
2.196914955
1.383671563
0.9171070384
4.791204558
1.627968847
3.870042539
1.050509303
1.663656992
2.946202001
2.345350485
2.753638365
1.837198524
2.843194523
1.815313306
3.455100178
2.560379543
0.4612628579
1.167134322
0.7144823702
1.403240899
1.666573253
1.603504813
1.489379934
0.3288934051
1.297497857
1.281147601
1.268721142
1.481486236
1.277892278
1.84543884
2.323027978
4.260253491
2.92246667
3.687202889
3.437650869
1.83543855
2.197272631
1.982266198
2.684646151
2.437655656
2.087394756
2.768106171
2.424559544
2.737432914
0.7694830057
5.710717824
1.235354319
0.6441428369
0.809020549
1.664628184
1.245476906
0.9615842902
1.328660278
1.203870432
1.680267596
0.6511636687
2.074310267
1.231393798
1.294706171
2.37015244
2.970676726
2.931261023
2.609156264
3.282125018
4.029923117
2.224830534
2.621829019
3.545076127
1.829062171
2.155330183
2.321892799
1.907004064
3.021234991
2.93258969
2.109722182
2.28150476
1.001688953
0.7255939698
0.4983708421
1.106212912
0.5210475449
1.773205423
1.363527077
1.268574511
1.206004141
1.077988739
1.657852991
1.000598857
1.40980856
1.919859766
2.277828225
1.493640741
1.448173968
1.993757173
2.594274176
3.773765313
1.922506102
4.337508458
3.707561766
1.832108683
2.80559647
3.014559597
2.940207383
1.428713409
1.606189687
3.212196059
0.4426379429
0.8449894877
1.09952602
0.3047474032
0.6620584775
0.556380202
0.8818039116
1.396565765
1.360388947
2.1249385
1.401935583
0.8771824269
0.5009606976
2.596803966
2.700526207
1.158905297
3.331070058
1.772596671
2.073086297
1.390682263
1.697788595
1.919745047
2.728775847
2.557849802
2.557213947
2.370798851
1.788386845
3.320326077
2.527183488
2.682584666
0.3167676575
0.5525005571
0.59084842
0.5399289229
0.476563956
2.072066987
0.8952819955
0.3148302888
0.1621284558
0.5685345798
1.318528069
1.272544134
0.9707731172
0.9998930696
2.221305207
0.6923938604
1.33711114
2.097888729
2.537987103
2.979974839
1.65480013
2.61716663
2.85937449
2.272257119
1.661561595
2.804548888
2.227799253
3.066816693
2.353126184
2.198057535
0.4324229141
0.3768853145
0.8495702602
0.1195031734
1.025841698
1.327246355
1.527046492
0.8230824343
1.535689251
0.9313203654
0.4985373501
0.5846090845
1.181747079
1.341214414
1.149186773
1.634595162
0.7667095578
0.4679049043
0.954191003
2.236525389
2.818833684
2.489511826
2.180080076
1.9416747
1.394477871
2.072571048
2.084493224
3.087599205
3.588375122
0.2876402023
0.6395534973
0.4840523707
0.3873295909
0.6368115805
0.6861990681
0.6675576477
1.039276526
0.6881903063
0.9178258245
1.043219809
1.213580832
0.5933681607
1.374247316
0.7324486188
1.166607071
0.6650211525
0.7872748595
1.8533838
2.12756954
1.283749041
1.457675083
1.691406355
2.196217255
0.4071005418
0.374538033
0.3789507936
0.5233863115
0.2206187494
1.231816821
0.5852910984
0.9899113369
0.386241448
0.9355117885
0.9040707178
0.9716112889
0.5165232565
1.137364204
1.413508073
1.499489792
1.050046305
1.648225833
0.9007416765
0.6572900321
0.07056297292
0.2107640385
0.1845815093
0.5332835871
0.8338119983
0.6433418446
0.637394594
1.47276243
0.3182423565
0.5610248207
0.4086642022
0.4909854428
0.2264960857
0.5344218338
0.7906008783
0.4174511125
0.7355968629
0.1323830773
0.9643491042
0.43476717
0.835323373
0.5804579395
0.4516986768
)
;

boundaryField
{
    flow
    {
        type            zeroGradient;
    }
    obstacle
    {
        type            calculated;
        value           nonuniform List<scalar> 
30
(
8.025884628e-19
1.305653915e-18
0
7.427131542e-19
0
0
4.463294417e-20
1.506849446e-18
1.367563048e-18
0
1.292874262e-18
6.118015968e-19
1.09996009e-18
7.101349359e-19
1.491111291e-17
4.329222535e-19
2.456046195e-18
0
3.256153246e-18
0
6.830800201e-19
1.4326391e-18
8.261364935e-19
0
1.462151235e-18
1.083092915e-18
9.33300309e-19
0
2.282946245e-18
0
)
;
    }
    frontAndBack
    {
        type            empty;
    }
    procBoundary1to0
    {
        type            processor;
        value           nonuniform List<scalar> 
21
(
2.005478883
3.006533338
2.138698419
2.513751014
1.053545475
0.7092193931
2.172192284
2.292258367
1.76288601
0.440626539
0.6077483914
0.8141397778
0.5906495596
0.4031199865
0.1847858489
0.1386835366
0.8135130197
0.7219297899
0.9067083035
0.4730941838
0.4383978723
)
;
    }
    procBoundary1to3
    {
        type            processor;
        value           nonuniform List<scalar> 
36
(
1.051529382
1.519796293
1.301225849
2.673998845
2.150062805
1.051529382
3.276012336
0.743469212
1.789781053
1.417681953
2.289806246
1.519796293
1.827111308
0.6911438543
1.586477561
1.466377684
1.738840422
0.743469212
2.197371349
0.1840151592
0.8628761248
0.2188117389
0.645384623
0.8262164223
0.6911438543
0.3214276663
0.2418883722
0.59108148
0.5894967759
0.6034778176
0.8912026235
0.1840151592
0.3733809005
0.3119731788
0.2418883722
0.3931120928
)
;
    }
}


// ************************************************************************* //
