/*--------------------------------*- C++ -*----------------------------------*\
  =========                 |
  \\      /  F ield         | OpenFOAM: The Open Source CFD Toolbox
   \\    /   O peration     | Website:  https://openfoam.org
    \\  /    A nd           | Version:  7
     \\/     M anipulation  |
\*---------------------------------------------------------------------------*/
FoamFile
{
    version     2.0;
    format      ascii;
    class       volScalarField;
    location    "0.004";
    object      internalT;
}
// * * * * * * * * * * * * * * * * * * * * * * * * * * * * * * * * * * * * * //

dimensions      [1 2 -2 0 0 0 0];

internalField   nonuniform List<scalar> 
546
(
705.8013028
704.376876
694.8326148
690.8813714
706.5388635
702.0388256
700.7272814
691.8861576
682.2634006
693.8060333
688.3179393
691.7066308
689.0093693
683.2307282
688.8118775
679.9184219
693.3998155
696.3370794
685.1028601
683.5109904
692.6297486
681.8176935
686.018016
682.7796693
666.5116326
658.7831942
672.9405212
667.7612415
664.2900139
682.7310521
757.979479
762.8300785
764.8574256
757.0556784
769.2691759
773.6934318
781.2658946
783.6158911
786.1768253
771.3912974
776.9367274
778.105364
766.5088439
771.2825204
765.9859768
745.0646073
756.0715171
753.8617873
758.0142516
756.6007427
747.5611457
737.6440039
752.5147024
738.1081831
732.4460069
711.9480433
721.4231679
725.4734256
719.3363246
731.1089288
760.4304176
770.5247536
768.7758019
779.665886
784.4283734
791.6803304
790.0767237
791.6081044
813.4653695
816.320514
811.816608
800.8984864
804.5242758
820.9480119
798.9504591
788.215716
782.4294782
799.5125531
813.3654461
799.0819606
790.1762116
777.8563581
800.0692467
796.5970325
777.9344014
769.2447629
764.7639669
763.9568243
752.2250278
740.0271233
719.734374
750.5885393
776.9263509
787.6363194
786.642338
791.4436614
804.5570657
800.493029
797.4646876
818.7127496
812.9732544
818.4961795
831.9249
828.2923156
837.5200664
821.8527277
810.2525878
809.3821512
798.8799753
787.1077985
797.4703171
807.4674235
807.2671141
816.9831678
804.1601073
783.0475944
785.8720189
784.8598296
789.0452813
779.045314
678.4281995
707.7985785
719.7015936
735.9301407
757.0036407
762.1825584
771.6770222
783.7110011
799.1586459
796.6880979
805.3221764
813.4823951
812.3384438
810.1102979
816.2056255
810.5259466
815.4561273
799.780835
805.1239913
803.5288113
811.7458651
827.3699123
819.8770765
806.7972398
809.5973822
805.0474399
792.3573526
798.2741137
811.5358337
795.3236014
631.1758782
647.400782
674.7541486
683.5345041
701.3236488
725.8287834
746.9002016
743.9340519
766.8031006
769.5124638
782.7772424
794.9615655
795.7168045
801.8543517
802.1820075
808.1944287
815.3676263
825.6350774
827.5062271
831.4569173
825.6029093
838.5519021
818.0007795
817.7389454
805.6093619
810.6152638
811.2493939
808.0174609
817.4399243
804.012784
592.4005068
621.1136392
630.9523115
645.8970672
676.5366099
693.745851
706.9873366
721.6873265
735.8435911
754.9847281
756.3328
757.3478254
777.9794952
792.4203481
797.901345
798.049074
793.457891
804.2915432
807.9898822
804.5948367
826.2927012
818.6672803
819.7405162
820.0967485
813.3805184
811.0985821
813.7248125
826.8883284
802.097456
791.9858691
541.1102196
562.0129335
591.7313905
610.1666751
617.8341094
650.2446845
667.0816223
681.3754432
706.387575
723.9352029
743.4272906
743.6830247
746.921797
766.2826585
765.2730373
770.1803266
780.3745175
792.6814631
793.5764203
792.3566443
795.4196917
818.8524595
820.1258157
816.9523322
816.1752698
817.1468309
821.508262
816.9388394
809.9009882
799.6630072
493.8359872
502.6707706
537.1218152
559.5025766
585.2974524
607.4515407
628.9501043
652.192739
669.0677568
681.5251254
698.9454282
717.6683286
732.5951666
737.0230143
739.5177307
761.587098
762.9310514
770.5352617
775.6478927
787.4745001
785.3894125
797.1929773
793.5365293
795.6862996
808.1952671
805.2316496
800.3659658
803.7765173
806.8816817
795.6991202
451.8278682
475.5497975
498.5306919
520.5885411
540.954423
563.2730226
594.143495
618.1877276
627.3748121
639.1867364
653.9159255
667.766708
687.2147969
689.8780297
710.2800892
721.1524961
744.5750492
751.600609
756.783549
758.5223494
763.0005014
763.7024282
778.051071
790.7292262
784.3066554
794.1185161
795.9306853
785.537718
786.2182343
793.7751268
429.44689
446.672805
474.3016052
487.5363265
499.9390036
520.7600483
545.9677405
568.7542853
586.7019551
598.0364821
610.6284021
643.0029879
659.4232641
677.0750952
680.7688712
700.4723972
709.7290182
710.9436546
727.412008
737.2845753
755.210438
761.7399643
771.7469815
766.5138794
776.003665
776.7728503
773.1596724
774.1647001
768.0805134
773.7352325
396.2489437
414.8752478
425.6511509
443.6696721
465.8830519
480.8934583
502.2812304
525.16947
547.9552297
571.912248
586.5438192
604.7618367
627.7981623
643.43973
662.0730386
673.7873372
684.3253321
688.9762707
689.3583233
710.5505591
725.7661463
729.0347288
748.8448456
755.9656957
752.1329781
760.9746347
764.5002869
761.9930595
751.0224778
742.1694582
369.500699
382.6135407
405.3677407
421.6293217
433.0303425
445.9286065
467.019488
481.6901272
503.2980959
515.0587366
534.2433886
564.4379862
577.396863
598.2736324
620.8752181
646.0906636
655.1875877
670.4333892
680.888022
685.6147448
693.3841495
705.8443472
715.6422388
717.1097431
718.5611964
737.9953265
736.4588812
759.4781883
763.3646381
755.1461015
353.421606
360.3434045
373.3885687
393.1658101
406.3270866
419.2117425
428.6937047
448.3873595
475.3013778
491.2384139
497.9601585
520.0943695
539.6660679
561.8099123
578.0587436
599.4351413
618.5500286
634.4594507
650.1837464
662.6157311
679.571941
682.7696307
690.210769
705.7554461
722.2819925
725.0350452
734.7960728
723.621914
733.8875635
728.0108479
346.7199312
352.1520938
358.7515363
361.9817747
380.4303669
392.5326142
406.8446532
423.9574126
432.7569256
447.653886
480.5263524
488.637263
508.1143166
530.5659053
548.9221786
562.1704932
576.8187117
595.4809304
612.6975293
625.2063323
637.0976181
654.0946479
657.9385719
668.9142074
686.6918355
699.7739827
711.7910295
708.8371446
709.8195716
706.964309
332.4620328
336.8055796
341.3209307
349.1997889
359.241711
373.2701556
385.2976949
393.9544627
412.0224158
416.9189631
425.4762199
453.5746246
474.7548637
498.310476
510.4286044
528.5084167
546.9088075
560.0439229
582.6324531
595.766194
616.4215606
622.4068417
640.5923051
650.7485359
657.8613536
662.9023298
676.512359
688.4442147
694.4960276
328.144566
337.4970778
342.5700681
342.0160028
347.0323837
358.3498915
368.6183021
375.7674115
395.268354
412.0353846
421.4258727
429.0689686
450.3802938
463.3187052
489.0522182
506.0149907
519.6259383
536.4486081
550.2175544
561.4434709
584.8039863
605.1892262
614.2190081
631.9461642
318.2265319
321.0861037
324.6923147
327.6671798
338.1548724
345.6270939
362.2587152
369.9448447
379.7806808
388.8425998
400.7353936
404.7580845
420.4861238
435.4567665
451.8869463
463.8900603
487.2002419
504.7267578
522.6391503
304.1912935
309.2724721
318.8469937
326.6583643
327.9970261
331.2604502
339.5266948
345.8099542
351.3371945
362.0672394
378.2949817
394.6902535
402.5734694
412.5173664
310.4450342
314.0367527
315.2468499
317.2074192
320.8863244
323.1857104
329.2564292
338.1940184
306.7946511
309.6957403
)
;

boundaryField
{
    flow
    {
        type            calculated;
        value           nonuniform List<scalar> 
15
(
682.7310521
731.1089288
740.0271233
779.045314
795.3236014
804.012784
791.9858691
799.6630072
795.6991202
793.7751268
773.7352325
742.1694582
755.1461015
728.0108479
706.964309
)
;
    }
    obstacle
    {
        type            calculated;
        value           nonuniform List<scalar> 
30
(
658.7346694
593.2620579
659.8522888
625.9188937
615.1595793
623.1822931
649.6776692
643.5992282
626.6007894
614.8587798
614.566702
637.3411973
642.6939259
608.4037977
627.7651708
603.9414904
616.8124551
651.4362775
627.3849381
613.4425067
640.1057783
626.7396697
623.7012152
610.7584177
606.5404844
612.6204347
634.4377958
622.5538573
624.2140159
670.4131027
)
;
    }
    frontAndBack
    {
        type            empty;
    }
    procBoundary1to0
    {
        type            processor;
        value           nonuniform List<scalar> 
21
(
701.7672408
763.0746424
749.0632029
705.1636506
654.4602378
618.0260808
564.9809352
513.7502973
460.3377976
426.7620889
417.1690459
373.7380273
356.8858883
353.7422814
338.7692486
326.5952687
323.1058156
314.6229632
305.6367271
305.5446917
306.6372159
)
;
    }
    procBoundary1to3
    {
        type            processor;
        value           nonuniform List<scalar> 
36
(
707.4099999
643.8932481
654.6097989
663.7907259
668.1729336
707.4099999
674.1555186
543.0076067
550.0635596
567.5500218
595.6249886
643.8932481
604.1488147
426.5529104
439.5189362
461.1766959
481.8586668
543.0076067
493.4996879
344.1715055
351.7858266
360.4499402
372.5122923
381.1382298
426.5529104
388.6903429
310.3678934
310.1849284
318.2292069
322.4762299
325.5129291
344.1715055
329.350173
310.4778745
310.3678934
310.6575374
)
;
    }
}


// ************************************************************************* //
