/*--------------------------------*- C++ -*----------------------------------*\
  =========                 |
  \\      /  F ield         | OpenFOAM: The Open Source CFD Toolbox
   \\    /   O peration     | Website:  https://openfoam.org
    \\  /    A nd           | Version:  7
     \\/     M anipulation  |
\*---------------------------------------------------------------------------*/
FoamFile
{
    version     2.0;
    format      ascii;
    class       volScalarField;
    location    "0.004";
    object      linearKE;
}
// * * * * * * * * * * * * * * * * * * * * * * * * * * * * * * * * * * * * * //

dimensions      [1 -1 -2 0 0 0 0];

internalField   nonuniform List<scalar> 
546
(
0.3771691827
0.129378006
1.014105696
0.3821292239
0.3570004279
0.5921084507
0.8880085588
0.2727332427
0.4671925492
0.713307316
1.316944595
0.55177259
0.7765650835
0.7311639026
0.2049620191
0.5514748064
0.5372765665
0.4888381803
0.4171260461
0.7759695173
0.6736421118
0.566820838
1.186317327
0.6163154013
1.242894133
0.7267123052
0.907108465
0.1216368652
0.9697636078
0.812072318
0.8601186397
0.7940064237
0.5072036236
0.7177538315
0.7550862027
0.8100125946
0.5903027927
0.5921900087
0.2577945575
1.914153444
0.8060151325
0.8052022582
0.691971704
0.240072453
0.7332167895
0.6067384643
0.4729688742
1.383147441
0.8832271157
0.6916875765
0.899582516
0.7987056698
0.3375846338
0.9264862477
0.8471145167
0.2457353214
0.6055232537
0.528197553
0.396085833
0.8481080583
0.4675453313
0.9426879516
0.4378409512
0.9144434563
0.3129352695
0.5007031191
1.170496138
0.5811124976
0.07886330509
0.6537934798
0.4341788627
0.3788324972
0.3107280417
0.3382803602
0.9174757093
0.8239707413
0.6250359247
0.2280796245
0.3972869502
0.6565694256
0.6001162232
0.4734536929
0.6888083928
0.2901237966
0.7547935382
0.743207145
0.01302054485
0.8230132492
0.6771508152
0.2212610572
1.192479681
0.4641152384
0.3498161905
1.290269265
0.1917202793
0.137730302
0.8949303464
0.4841112098
0.4348167951
0.1420020426
0
1.21861742
0.9120482815
0.3220249241
0.8057049763
0.7445181877
0.3950368516
0.5986760984
0.3270183317
0.2738085574
0.5758940227
0.3672214557
0.533840984
0.8957722156
0.4085733366
0.9897401792
0.6648831826
0.3547911246
0.4930321415
0.6465600506
0.4148367136
0.1688723082
0.9161953303
0.5085070739
0.3926155702
0.3406980273
0.949619129
0.6683110333
0.4143785185
0.8261318448
0.9914081735
0.4468252346
0.8386394919
0.8173382998
0.1176280045
0.1620496935
0.9676625153
0.738774871
0.736267485
0.1374151109
0.9207241474
0.542824052
0.9429111594
0.4873812955
0.514365848
1.091980749
0.6265801405
0.5328027974
1.462692556
0.6144542275
0.5017475953
1.338543959
0.5010140066
0.1904094746
0.2021904177
0.4043609777
0.3410470079
0.6690125238
0.4380395055
0.9443244607
0.4654625578
0.2863256344
0.6160875296
0.5372426437
0.8042204427
0.3464670129
0.6418150744
0.9311367597
0.3963265768
0.2534987662
0.6831922801
0.6999471071
0.8731956403
0.519119464
1.336844396
0.1418053206
0.3381465465
0.6397819543
0.4863144822
0.5508631241
1.393937525
0.8330448474
1.192822309
0.3034558739
0.04450809564
0.7192550378
1.153249276
0.340642229
0.03243420239
1.732222497
0.4865492139
0.6975819125
0.2839241972
0.7551393873
0.2059902462
0.2706021831
0.8092719674
0.3530027104
0.9340832239
0.9694823739
0.06106631818
0.4151468047
0.7749669878
0.786693229
0.9666407996
0.1783768721
0.512511503
0.9501806158
0.5373154293
0.5264991149
0.588923244
0.2893301356
0.7478432834
0.232781146
0.6052678643
1.428017954
0.3875063157
0.6776997588
1.279630432
0.8129337805
0.2663748049
0.05408289102
0.4085969244
0.5140904334
1.020742541
1.177782853
0.8090663927
0.9891757142
0.8618742511
0.4192252996
0.1957655472
0.6447363895
0.5249561664
0.4062882341
0.4442056688
0.2595289455
1.137509432
0.7765462864
0.6092991194
0.4797995425
0.1794223849
0.7398747395
0.06895330783
0.3849710405
1.432148041
0.6074551681
0.7179249273
0.06402071984
1.327639206
0.7269966696
1.262092095
0.808810218
0.4340049838
0.5394683669
0.6755674106
0.5119674407
0.4743987269
0.6080968278
0.9276521127
0.3935338333
0.7688055072
0.3383308701
1.419609888
0.7253057411
1.707604259
0.6386330837
0.3260525434
0.9029574075
0.7911392517
1.20506046
1.264213972
0.5216154742
0.529832229
0.3204052105
0.9727273673
0.8705601264
0.5938673639
1.003337287
0.780279607
0.9148279972
0.9515373379
0.9795984492
0.7812994571
0.2193779517
2.087024171
1.750806155
0.3098632518
0.3034780638
0.2492020488
1.295211986
0.6643443126
0.1107835115
0.8257888656
0.65235312
0.4932254831
0.6351575725
0.1529670875
0.4302982437
0.7261515377
0.2244006321
0.6590195274
0.6050170623
0.3855934344
0.2081987304
0.7269574647
0.9272772654
0.649921102
0.44793059
0.7642955264
0.2184487876
0.3547673544
0.5790657639
0.6766075228
0.6151512832
1.157224384
0.7554669545
0.8982519584
0.8547529166
1.460139818
0.5707931867
0.809486126
1.208247803
0.5151410007
0.3645061691
0.9412935932
0.9000292709
0.5908881375
1.318321693
0.7143665872
0.7527428798
0.3952155027
0.750345501
0.2816527379
0.3029308444
0.609807748
1.173856574
1.289956631
0.2795892279
0.9586913867
0.1677998595
1.703532808
0.1425636218
0.8252083448
0.5086374468
0.3255787261
1.29429129
1.07021946
0.5363440029
0.8203225078
0.4586707976
0.944751905
0.4148473256
0.5380056242
0.3061427804
0.7688252091
0.504436196
0.4667656229
0.6830122951
0.6838936978
0.6502871359
0.2754950926
0.7739219298
0.5511412921
0.3672861842
0.5825777052
1.402088068
1.228911915
0.5285453489
0.7541958186
0.5599994233
0.8129093193
0.1859859033
0.1788612442
0.8829950529
0.3052831946
0.1635200863
0.8777061182
0.5607705092
1.159191869
0.7869457715
1.136233131
0.9903715982
0.05686577803
1.096017617
0.660963421
0.2158374541
0.4525692148
0.08891023532
0.8739302712
0.4578716166
0.6132025654
0.1277202059
0.865365998
0.3218099305
0.4529035296
0.4324340841
0.8774847359
0.4922689494
0.5775218117
1.079827972
0.7783378857
0.7677393196
0.6527147767
1.079223495
0.1395208993
0.9193402961
0.4807915324
0.9560555621
0.5532422138
1.666059857
1.025584813
0.2879694307
0.2196384815
0.8831033467
0.419408749
1.368891107
0.4677669478
1.138999655
0.287373141
0.6554559347
0.6915354425
1.058571719
1.15530167
1.02836624
0.8643074173
0.6452982701
0.9282834664
0.9741537369
0.5347698429
0.7715151674
0.6750172954
0.521895879
1.006604732
0.8260113021
0.5308591946
0.1000074429
1.506851456
0.853685364
0.8822246232
0.8599143003
0.2823165403
0.1872529159
0.8314692671
1.012164951
0.9662447167
1.033818825
0.2037288114
1.154012602
0.4647627444
0.452886122
0.9442255985
0.4238787726
0.5687947468
0.3502932244
0.4124706388
0.586112394
0.4482250118
0.5842407172
0.8237338595
0.4131985429
0.5909913211
0.5905278083
0.4979929025
1.0015585
0.4633659906
0.3769069375
1.211384207
0.4482763133
0.7964216809
0.7345485012
0.3938071665
0.7191539695
0.2327575444
0.3732870494
0.3319472533
0.8087704651
0.862761752
0.2926834869
0.2001777637
0.1330506295
0.5587596107
0.6513198775
0.8039170637
0.5484826859
0.3236280714
0.8393221149
1.103550138
1.159444695
0.3434813185
0.4868270748
0.2874791831
0.5206766998
0.1659057068
1.101308187
0.7058950345
0.5110304865
0.1117751743
0.647420353
1.073011202
0.4176601781
0.1291188592
0.6201671807
0.4044790019
0.6087830842
0.2366908987
0.4144280225
0.6209161547
0.2353552045
0.5818991893
0.7930264179
0.1798800996
0.39074308
0.4848033202
0.7388807611
0.7538332273
0.3079746156
0.3974639348
0.9004206461
0.3836289651
0.2481619178
0.4108068452
0.8876316946
0.7508769423
0.1472850529
0.1817681226
0.4869623659
1.178593785
0.478512742
1.072618798
0.9782842942
0.3923189098
0.546783544
0.9120626882
0.8513059159
0.6619138038
0.4418891343
0.5522266139
0.7025429987
0.5423753358
0.6463574128
0.732833543
0.9845496877
0.2586971805
1.067558437
0.3172602598
0.09183477054
)
;

boundaryField
{
    flow
    {
        type            zeroGradient;
    }
    obstacle
    {
        type            calculated;
        value           nonuniform List<scalar> 
30
(
0
0
0
0
0
5.022740204e-18
0
0
1.960547835e-19
0
4.832028527e-19
0
0
0
0
4.467671895e-19
0
0
0
0
0
0
2.323772483e-18
0
0
0
3.104315643e-18
0
0
0
)
;
    }
    frontAndBack
    {
        type            empty;
    }
    procBoundary1to0
    {
        type            processor;
        value           nonuniform List<scalar> 
21
(
0.4685491738
1.026216372
0.5266110632
0.1255314526
0.6880273568
0.7940786051
0.4371083048
0.894450657
0.456597603
0.8061637788
0.1867803115
0.3878110717
1.157553551
0.8304593069
0.6685935581
0.7121596662
0.603908922
1.156835688
0.5526766212
1.121471363
0.4542967219
)
;
    }
    procBoundary1to3
    {
        type            processor;
        value           nonuniform List<scalar> 
36
(
0.4704140328
0.7223362121
0.7639373099
0.4290745654
0.2738693884
0.4704140328
1.323674821
1.226293688
0.8047799628
0.5731171048
0.8394154123
0.7223362121
0.35393305
1.221286136
0.1487528103
0.3425596779
0.7231378397
1.226293688
0.6527529611
2.002339526
0.8810051015
0.4660370245
0.8841809717
1.041161505
1.221286136
0.2555390224
0.8162974784
0.1795169006
1.33997788
0.1636081428
0.4579627489
2.002339526
0.6188242225
0.4196485598
0.8162974784
1.027557873
)
;
    }
}


// ************************************************************************* //
