/*--------------------------------*- C++ -*----------------------------------*\
  =========                 |
  \\      /  F ield         | OpenFOAM: The Open Source CFD Toolbox
   \\    /   O peration     | Website:  https://openfoam.org
    \\  /    A nd           | Version:  7
     \\/     M anipulation  |
\*---------------------------------------------------------------------------*/
FoamFile
{
    version     2.0;
    format      ascii;
    class       volVectorField;
    location    "0.004";
    object      momentumMean;
}
// * * * * * * * * * * * * * * * * * * * * * * * * * * * * * * * * * * * * * //

dimensions      [1 -2 -1 0 0 0 0];

internalField   nonuniform List<vector> 
546
(
(0.005445165366 0.001550782229 -9.673611906e-06)
(0.005280528526 0.001446903841 1.668656035e-06)
(0.005064826781 0.001428805208 0.0001155223325)
(0.004787670696 0.001341180952 4.204960269e-05)
(0.004583265678 0.001313214725 -5.099427501e-05)
(0.004463910563 0.001236560047 -1.069479555e-05)
(0.004338210909 0.001199181741 0.0001593282497)
(0.004197605705 0.001142111284 -2.326456683e-05)
(0.004126415702 0.001172998739 -6.729338307e-05)
(0.003944925756 0.001101298852 3.792210098e-05)
(0.003867001933 0.001059487563 -5.94248885e-05)
(0.003767576418 0.001038242042 -4.80623083e-05)
(0.003651326089 0.0009686609459 -7.806074064e-06)
(0.003582671762 0.001015355867 6.703380782e-05)
(0.003617937604 0.000904227611 3.286473963e-05)
(0.003558716213 0.0009797444046 -2.966636704e-05)
(0.00343440973 0.0009390859805 0.0001389201182)
(0.003369779336 0.0009161963801 0.0001494900597)
(0.0032969264 0.0009186557808 4.584477925e-05)
(0.00322791103 0.0009067702316 1.007709455e-05)
(0.003229770806 0.000824105912 -0.0001439303731)
(0.003246160349 0.0008469171789 3.026721431e-05)
(0.003256376729 0.0008811203479 -9.851776126e-05)
(0.003212067541 0.0008453154397 2.360777561e-05)
(0.003268598167 0.0008079923538 -0.0001079831069)
(0.003193369176 0.0009414118329 -8.293081561e-05)
(0.003168900597 0.0008726910733 7.899769324e-05)
(0.003222915416 0.0008498030025 -1.272697654e-05)
(0.003275000923 0.000831216382 -0.000108932531)
(0.003654285475 0.0006599890453 -4.960721292e-05)
(0.008433053814 0.00252249377 3.50504183e-05)
(0.008147201889 0.002521078214 -3.505638319e-05)
(0.007780158019 0.002421372892 -3.259640775e-05)
(0.007664843799 0.002278834223 4.757949073e-05)
(0.007446674437 0.002170860666 6.615469509e-05)
(0.007075124845 0.002134066982 0.000188829265)
(0.006812686115 0.002012618607 9.475797947e-05)
(0.006662057219 0.001874608106 -1.437231972e-05)
(0.006445033259 0.001813395212 5.344247473e-06)
(0.006419764661 0.001846920189 2.354258266e-05)
(0.006193943687 0.00179464202 4.903872234e-06)
(0.0060247466 0.001730246064 -7.518539832e-05)
(0.005934172171 0.001678409218 5.409879844e-05)
(0.005712960777 0.001590948014 0.0001454230695)
(0.005490788655 0.001510684372 0.0001058076566)
(0.00546057435 0.001513694067 0.0001041114851)
(0.00540160793 0.001499108825 -1.772224632e-05)
(0.005264416323 0.001519053556 7.145977178e-05)
(0.005222174591 0.001426019011 7.765340425e-05)
(0.005105743313 0.001437471144 -8.728334646e-05)
(0.005012864801 0.001286586221 -0.0001298146406)
(0.004877880436 0.001302133335 -1.525140436e-05)
(0.004771758393 0.001289754677 -0.0001061002661)
(0.004779908332 0.00129312366 -7.606326483e-05)
(0.004659624414 0.001215156954 -0.0001651318306)
(0.004696554125 0.001285089098 -9.024945942e-05)
(0.004765370531 0.001161380348 5.28813592e-06)
(0.004766012553 0.001223781397 7.727704774e-06)
(0.004883440764 0.001089460172 2.29785117e-05)
(0.005060396384 0.0007684392854 1.107797357e-05)
(0.01031593495 0.003276944938 3.773601745e-05)
(0.01012071778 0.003227963845 8.398960467e-05)
(0.009953648838 0.003113437377 -6.676473641e-05)
(0.009643757111 0.002998048204 -5.818041071e-05)
(0.009459193883 0.002877826858 6.443545088e-05)
(0.009333142497 0.002921906702 8.096394398e-05)
(0.009054570601 0.002837460096 3.398778654e-05)
(0.008631220697 0.002567270822 3.70423341e-05)
(0.008297793667 0.002490511389 -4.935665405e-05)
(0.007986249858 0.002381379354 -0.0001069838721)
(0.007821735657 0.002350689053 5.772349351e-05)
(0.007621135636 0.002252619331 6.381382548e-06)
(0.007368846283 0.002170558555 5.936211133e-05)
(0.007312880519 0.002116396285 7.071140796e-05)
(0.007161457709 0.002077212463 7.600144049e-05)
(0.006923820435 0.001973821671 0.0001595446515)
(0.006875793872 0.001930901925 -1.236367518e-05)
(0.006749373522 0.001934420564 4.621136837e-05)
(0.006595658678 0.001829672058 3.260752746e-05)
(0.006491787877 0.001838438876 6.539357625e-05)
(0.006414004558 0.001774049919 1.722881347e-05)
(0.006201139848 0.001751410576 -1.067685436e-05)
(0.006122633686 0.001700929393 -6.301624274e-05)
(0.005948338226 0.001587577789 -5.107884923e-05)
(0.006028677035 0.00152693348 -0.0001293531899)
(0.005953383838 0.001567414045 -3.634124829e-05)
(0.005865037419 0.001535507325 5.303112093e-05)
(0.005830824947 0.001427094556 -9.546598383e-06)
(0.005947084927 0.001262959321 2.519144855e-05)
(0.006093371237 0.0009336846255 9.610555924e-05)
(0.01163137836 0.003712581477 7.755361432e-05)
(0.01145072105 0.003650903707 2.203798108e-06)
(0.01126312367 0.003677573554 9.044050181e-06)
(0.01108346979 0.003536306746 9.689552526e-06)
(0.01083084356 0.00339939158 9.343586917e-05)
(0.01054699332 0.003370842558 -8.399780395e-05)
(0.01034034704 0.003417006551 -6.385640787e-06)
(0.01011070922 0.003226515104 7.720438469e-05)
(0.009962540824 0.003121929367 6.369307988e-05)
(0.0097337951 0.003012892827 0.0001279375049)
(0.009444947739 0.002909008659 -2.337000321e-05)
(0.009358735024 0.002821452821 9.696110395e-05)
(0.009168098775 0.002812654946 0.000122609196)
(0.008895417328 0.002596191452 7.061193171e-05)
(0.008723449256 0.002621448246 3.714501877e-05)
(0.008454011022 0.002477183271 -5.235534333e-05)
(0.008284731039 0.002368246955 -0.0001482649833)
(0.00803883801 0.002394985722 -2.741905151e-05)
(0.007924246385 0.002269680143 -7.055015555e-05)
(0.007809105639 0.002226591818 1.478268005e-05)
(0.007582858518 0.00220014601 -9.360989934e-05)
(0.007546638237 0.002137384075 -3.893748676e-05)
(0.007424141234 0.002114562047 -9.598027016e-05)
(0.007357698321 0.001964276495 -9.326823104e-05)
(0.007102822454 0.001917988191 1.273430771e-05)
(0.006906248793 0.00193148235 6.989928172e-05)
(0.006994212766 0.001777090887 -9.256454057e-06)
(0.006981578052 0.001687372518 7.617948706e-05)
(0.006976511545 0.0014625862 -2.016576837e-05)
(0.006803475113 0.001137966648 -3.057742267e-05)
(0.01193791609 0.003690526733 0.0001601819185)
(0.01215255713 0.003903746953 2.272436322e-05)
(0.01215888144 0.003925540111 -5.109323651e-05)
(0.0120772635 0.003904167878 1.18049097e-05)
(0.01190232121 0.003943092501 -3.155834451e-05)
(0.01182577481 0.003857578909 2.184339098e-05)
(0.01161664114 0.003827594788 -2.05641314e-05)
(0.01146123447 0.003679480307 3.067962548e-05)
(0.01125137559 0.0035783767 -4.144603876e-06)
(0.0110854012 0.003539479858 -2.153892162e-06)
(0.01082668245 0.003419044657 1.887641952e-05)
(0.01065059553 0.003242164227 3.07082362e-05)
(0.01044382955 0.003229395195 1.956530302e-05)
(0.0102130811 0.00317271969 -2.939620187e-05)
(0.00992921653 0.003126792159 -9.831900544e-06)
(0.009687638974 0.002942912441 -2.029184838e-05)
(0.009355871477 0.002836879234 -0.000120038069)
(0.009311540778 0.002751321049 -3.472945223e-05)
(0.009085954257 0.00267916479 -8.347547024e-05)
(0.008833816504 0.002614654278 -5.174917145e-05)
(0.008769639625 0.002546845029 -6.624564522e-06)
(0.008610412296 0.002481057488 6.788064882e-05)
(0.008410868516 0.002457531422 -2.646953195e-05)
(0.008252691304 0.002387190156 -0.000120897413)
(0.008050223908 0.002246587548 -1.277482321e-05)
(0.008073404495 0.002173022958 -1.635720374e-05)
(0.007902144381 0.002039372235 8.13445276e-07)
(0.007739985404 0.001892794819 -2.953549706e-05)
(0.007605638571 0.001719142363 1.789563506e-07)
(0.007535410042 0.001399878036 -5.596027371e-05)
(0.01178995379 0.003341071873 4.352793353e-05)
(0.01220868176 0.003694283177 0.0001146950957)
(0.01242899348 0.003909057548 8.441192586e-05)
(0.01252915558 0.004006820591 -3.064719257e-07)
(0.01272974033 0.004091313911 5.291409133e-05)
(0.01271543567 0.004040314969 -1.410388562e-05)
(0.01278408108 0.004251844774 6.801569378e-05)
(0.01259193971 0.004130966144 -4.902735238e-05)
(0.01245538701 0.004017870299 8.473859999e-06)
(0.01232786365 0.003953960319 -3.167046424e-06)
(0.01216287816 0.003860197693 5.486984863e-06)
(0.01182525474 0.003701799426 -5.411202576e-05)
(0.01160903855 0.003765065868 -8.365958168e-06)
(0.01130876867 0.003645717879 3.775807387e-05)
(0.01117781196 0.003471017556 6.197473943e-06)
(0.01095559142 0.003472928947 7.75174687e-05)
(0.01076255984 0.003362168764 5.983809268e-05)
(0.01036050353 0.003177026018 -9.267393252e-05)
(0.01012974089 0.003108518369 -0.0001007664153)
(0.009952489835 0.003008283248 -3.304703633e-05)
(0.00969078614 0.002861148088 6.768429035e-06)
(0.009470665727 0.002886140576 7.988878363e-05)
(0.009456413071 0.002707407384 4.184383853e-05)
(0.009388108651 0.002752291868 -4.57930582e-05)
(0.009195098403 0.00260379493 -1.504824023e-05)
(0.008949185778 0.002514794697 1.477262337e-05)
(0.00885674152 0.002355338291 -1.535606019e-05)
(0.008758579913 0.002189729923 -4.153521076e-05)
(0.00863117748 0.00201082335 -1.636037306e-05)
(0.008446781152 0.001722690041 3.707764033e-05)
(0.01151650906 0.002992611154 2.053487382e-05)
(0.01181172224 0.003308862801 8.042340697e-05)
(0.01221957336 0.003651285179 2.373255302e-05)
(0.01264930611 0.003762934419 1.579286069e-05)
(0.01283942818 0.004018826515 2.792766796e-05)
(0.0130074276 0.004118121167 -3.878555392e-05)
(0.0130886218 0.004203392033 5.8895398e-06)
(0.01320210569 0.004353412487 -8.728388125e-06)
(0.01318988616 0.004313884443 1.830965968e-05)
(0.0129200009 0.004186141641 2.290264226e-05)
(0.01276073871 0.004220527682 -6.117041092e-07)
(0.0124287741 0.004030711988 6.360955266e-05)
(0.01227578231 0.004067744265 -1.199514364e-05)
(0.01218237674 0.003905434019 6.325526496e-05)
(0.01205272798 0.003920255666 1.77909144e-05)
(0.01197194411 0.003820195345 -8.548808408e-06)
(0.01169232681 0.003720726484 -5.658345357e-05)
(0.01148864715 0.003657139542 2.585811287e-05)
(0.01117385391 0.003486424502 3.258628303e-05)
(0.0110852582 0.003395916867 3.105646196e-05)
(0.01083631094 0.003325612456 -1.358283677e-05)
(0.01070127885 0.003180917679 -1.346498456e-05)
(0.01037493878 0.003061952118 2.218149066e-05)
(0.01015654559 0.003043979361 -5.304766546e-05)
(0.01007254684 0.002952408799 8.822167644e-06)
(0.009999913887 0.002748052838 -4.912650881e-06)
(0.009821144363 0.002691379598 3.695410104e-05)
(0.009716421374 0.00251802866 -1.904471298e-05)
(0.009449460372 0.00234145064 5.66366366e-06)
(0.009210151313 0.00200120522 -8.420544775e-06)
(0.01100499569 0.0025003953 -6.992940656e-05)
(0.01144554975 0.002894846448 -6.160203331e-05)
(0.01185792937 0.003089379855 -3.632041762e-05)
(0.01221076869 0.003426197957 6.138297849e-06)
(0.01267704515 0.003706043391 -1.647968256e-05)
(0.01292978129 0.003968902494 -2.073572934e-05)
(0.01315658764 0.004094032756 1.897159501e-06)
(0.01331492497 0.004192535019 3.050374822e-05)
(0.01325302019 0.004372130641 4.948302271e-05)
(0.0133875639 0.004454593148 1.233074903e-05)
(0.01335423243 0.004455339505 2.81135411e-05)
(0.01339380018 0.004392848681 3.987559947e-05)
(0.01336463292 0.004367585774 0.0001181179054)
(0.01314014221 0.004294702035 3.570237802e-05)
(0.0128299495 0.004055860323 1.043381465e-05)
(0.01268666964 0.00416521895 7.261733246e-05)
(0.01259169094 0.004148267733 9.165382517e-05)
(0.01242410279 0.003957447359 2.473909691e-05)
(0.01220058799 0.003900253197 1.874906937e-05)
(0.01191312481 0.003789633352 1.935317429e-05)
(0.01184315927 0.003639751929 3.681949838e-05)
(0.01158696189 0.003585575517 0.000108715151)
(0.01133567177 0.003442349172 9.963051215e-05)
(0.0111412296 0.003383319882 7.361078452e-05)
(0.01094200945 0.003186302115 -6.832943159e-05)
(0.01076058698 0.003094699623 -6.670392513e-06)
(0.01064266757 0.002963984816 -3.038424718e-05)
(0.01039002251 0.002839735136 -1.034500087e-05)
(0.0102947662 0.002575990054 -1.272349242e-05)
(0.01011879886 0.002434845319 -5.121665485e-05)
(0.010356455 0.002012188115 -2.679012091e-05)
(0.01086641733 0.002296937316 -4.488518853e-05)
(0.0113153708 0.002686452658 -3.662510202e-05)
(0.01170777807 0.002920710303 2.104356581e-05)
(0.01207840307 0.003168304873 7.214001731e-05)
(0.01254496286 0.00353033634 1.840281453e-05)
(0.01278036595 0.003880072523 -2.467646769e-05)
(0.0130640838 0.004040710448 2.392880118e-05)
(0.01342124556 0.004196606139 4.617083964e-05)
(0.0137600023 0.004356061309 6.486356028e-05)
(0.01387912108 0.004491419519 6.94424463e-05)
(0.01382056708 0.004535924662 7.113698497e-06)
(0.01380748393 0.00455291474 -4.188869138e-05)
(0.01374763636 0.004571175779 -9.211039906e-06)
(0.01354190335 0.004450300497 3.247421962e-05)
(0.01338040327 0.004318653426 -4.297719959e-05)
(0.01327635139 0.004305387886 1.005100603e-05)
(0.01328012233 0.004332436136 4.589161071e-05)
(0.013200231 0.004234785987 -1.552462198e-05)
(0.0129768656 0.004087196112 -1.210391956e-05)
(0.01274298939 0.003994530283 5.796885826e-05)
(0.01264346539 0.004016606268 1.431116025e-05)
(0.01225104798 0.003831964854 7.72251419e-06)
(0.01196106737 0.003650801942 1.34887924e-05)
(0.01182263043 0.003585486879 7.753577088e-05)
(0.01158993678 0.003381699864 -5.114041847e-05)
(0.01133247709 0.003204477047 -0.0001130928489)
(0.01130737008 0.003156450842 -3.213018962e-05)
(0.01099773519 0.002932604554 -9.214604726e-07)
(0.01064546997 0.00266584305 -3.020635892e-05)
(0.0099393018 0.001524194947 -4.358044626e-05)
(0.01039178903 0.001850399643 -3.758772053e-05)
(0.0107935171 0.002224404023 -1.655789117e-05)
(0.01102714982 0.002417564012 -1.760634726e-05)
(0.01142283399 0.002695341531 -4.041208462e-05)
(0.01188227648 0.003080900288 -8.310776284e-06)
(0.0123770085 0.003332219994 3.696796595e-05)
(0.01290483211 0.003689317626 8.210402845e-06)
(0.01321446046 0.003907512782 -6.409202052e-07)
(0.01334104737 0.004077190096 6.824916361e-05)
(0.01356030869 0.004333421922 -1.522090385e-05)
(0.01381603545 0.004525113949 1.419392675e-05)
(0.01380175756 0.004514567596 3.042518656e-05)
(0.0139162447 0.004580367425 -1.158463411e-05)
(0.01408693815 0.004610443065 1.570220401e-05)
(0.01400398302 0.004536450972 3.651500206e-05)
(0.01392198958 0.004475364389 4.61249688e-05)
(0.01396375602 0.00449019597 1.36969605e-05)
(0.01374837707 0.004452717059 5.038484664e-05)
(0.01358146537 0.004444688003 5.707014224e-05)
(0.01323868724 0.004284957888 6.865541444e-06)
(0.01292982779 0.004155865523 4.439081278e-05)
(0.01295163424 0.004148681558 -4.095500204e-05)
(0.01288873707 0.004004276677 -2.139784655e-05)
(0.01269427603 0.00386088843 -7.960390939e-05)
(0.01251915474 0.003729542049 -0.0001265435602)
(0.01219506872 0.003537740658 -4.102840524e-05)
(0.01193534624 0.003415137047 -2.460797287e-05)
(0.01175445396 0.003225551134 -6.274668411e-05)
(0.01144095802 0.003136642955 -4.146049115e-05)
(0.009679964046 0.001226226026 1.795103024e-05)
(0.009819215763 0.001394686512 3.684119301e-05)
(0.01022416421 0.001709555038 -1.982656223e-05)
(0.01071147107 0.002059292005 5.715668751e-06)
(0.01100664764 0.00228636943 2.076470921e-05)
(0.01152917105 0.002543321781 -2.621677076e-05)
(0.01184678924 0.002887659517 -3.262936906e-05)
(0.01220997546 0.003163435615 -3.29698017e-05)
(0.0126679431 0.003495447039 -2.531250077e-05)
(0.01300156099 0.003794953279 -3.057127604e-05)
(0.01334327118 0.004005384105 -6.205058926e-05)
(0.01377272284 0.00424106095 -6.717580174e-06)
(0.01405578708 0.004426242968 -3.339476602e-05)
(0.01437807515 0.004577461688 -3.424423502e-05)
(0.0145002875 0.004670908806 -4.771724414e-05)
(0.01449735554 0.00463287091 6.077147102e-05)
(0.01430223985 0.004700023266 1.502762942e-06)
(0.01406796595 0.004529787074 -3.540703529e-06)
(0.0139809139 0.004620370312 7.128396671e-06)
(0.0139752541 0.00465506137 6.333897762e-05)
(0.01398275242 0.004574510155 -9.483611567e-06)
(0.01398216809 0.004459438663 -2.36044033e-06)
(0.01381286335 0.004386358656 -2.724673081e-06)
(0.01349683525 0.0042005443 7.158431107e-05)
(0.01327121574 0.004145659049 4.078296198e-05)
(0.01313835463 0.004070279424 3.502155463e-05)
(0.01277535132 0.003839109836 -1.486069238e-05)
(0.01261018472 0.003678265885 2.635712493e-05)
(0.01234692289 0.003602655565 -1.212700074e-06)
(0.01219157669 0.003358131656 2.862747264e-06)
(0.009087930453 0.0008201811817 1.682783764e-05)
(0.009410589477 0.001065234357 2.951559294e-05)
(0.009784130956 0.001240196423 4.255435317e-05)
(0.01011043612 0.001555101292 5.867101149e-05)
(0.01067102204 0.001853062402 2.056228942e-05)
(0.01102313672 0.002108111571 2.593045532e-06)
(0.01132301449 0.002400251931 -4.955210432e-06)
(0.01173977848 0.002742368456 -9.134013372e-06)
(0.01205042778 0.003062222819 -4.767106826e-05)
(0.01267352918 0.003387256602 -5.151527743e-06)
(0.01308918739 0.003606161489 1.56341369e-05)
(0.01339334717 0.003835090227 3.296669028e-05)
(0.01378878666 0.00408466499 -2.85176522e-06)
(0.01411039589 0.00423557775 2.891600166e-07)
(0.01439930789 0.004525945056 2.584897244e-06)
(0.01451612481 0.004698258231 2.005349007e-05)
(0.01458706393 0.004738028631 7.417625898e-05)
(0.01464336155 0.004782925524 8.892842277e-05)
(0.01464126587 0.00473943474 6.068197837e-05)
(0.01474764128 0.004738366341 4.072896575e-07)
(0.01473223071 0.00477449025 1.810296256e-05)
(0.01435232673 0.004680058811 -2.889455939e-06)
(0.01422955083 0.004643383382 -7.324384149e-05)
(0.0141495344 0.004497488964 -5.356502427e-05)
(0.01388832757 0.004339880926 1.004933921e-05)
(0.01378258748 0.004377974926 3.048738482e-05)
(0.01354431721 0.004175560615 1.196589541e-05)
(0.01322781849 0.003949125349 2.898577313e-05)
(0.01306368604 0.003778162826 2.10756722e-05)
(0.01303598126 0.003695237235 -9.219964196e-06)
(0.009081371954 0.0006391901136 -1.854786963e-05)
(0.009271190594 0.0007738229392 -8.111335463e-06)
(0.009456624055 0.0009324979359 -2.236605675e-05)
(0.009642384453 0.001119534957 -1.187015063e-05)
(0.0098703454 0.001356868135 -1.20278695e-05)
(0.01020837637 0.001661924011 -1.369415434e-05)
(0.01065815923 0.001978728763 -4.733675863e-06)
(0.01111592461 0.002241863272 -3.832724356e-05)
(0.01166347069 0.002537859616 -5.107964984e-05)
(0.01211391069 0.002794284611 -5.644360927e-05)
(0.01258381183 0.003131662404 -1.104109504e-05)
(0.01299319458 0.003481921085 -5.334069348e-05)
(0.01342387549 0.003694105947 -1.964361741e-05)
(0.01385950804 0.003988159267 5.331896226e-06)
(0.01405342888 0.004149561413 -1.701289717e-05)
(0.01445325644 0.004506517465 5.09732149e-05)
(0.01481163413 0.004676391183 5.821862727e-05)
(0.01499157968 0.004765913164 2.170714077e-05)
(0.01497864723 0.004723471955 2.917837129e-05)
(0.0149373424 0.004723334278 4.042169028e-05)
(0.0149578982 0.004807703705 1.935567265e-05)
(0.01508441373 0.004945257383 3.569387263e-05)
(0.01487888588 0.004818918999 6.056191324e-05)
(0.01463271403 0.004784147992 7.590719447e-05)
(0.01446065935 0.004614298605 9.490170756e-05)
(0.01430431761 0.004483424498 5.74678425e-05)
(0.01427192274 0.00449538119 3.611402439e-05)
(0.01418100897 0.004332107672 2.173222808e-05)
(0.01384662923 0.004148974488 2.996129722e-05)
(0.01347147372 0.003784954287 1.565583748e-05)
(0.008709001769 0.00049547913 -3.081244714e-05)
(0.008858979217 0.0005795150196 -4.556091059e-05)
(0.009081271998 0.0007038948341 -2.462980252e-05)
(0.009416925346 0.0009040961085 -1.08165867e-05)
(0.009590277868 0.001045014096 6.795062801e-06)
(0.009908482582 0.001254653734 1.133175579e-05)
(0.01025192328 0.001493314915 -9.001701501e-06)
(0.01072372931 0.001738990457 5.337161147e-05)
(0.0110693679 0.002033875422 3.258350251e-05)
(0.01159083787 0.002379132455 5.082005121e-06)
(0.0120580035 0.002669234954 -5.136796912e-05)
(0.01250408134 0.00291795791 -1.882666954e-05)
(0.01284095826 0.003281438657 -6.845807198e-05)
(0.01326137351 0.003615852216 -3.449340931e-05)
(0.01366819059 0.003852047788 -2.970738832e-05)
(0.01404422961 0.004057471707 -8.231406341e-05)
(0.01445442631 0.004311169744 -5.231024734e-05)
(0.01478337629 0.004554322675 -4.300114975e-05)
(0.01493673815 0.004717916935 2.436430665e-05)
(0.0149472083 0.004749773621 3.100209436e-06)
(0.0150116604 0.004783358866 -5.524848543e-05)
(0.01495731033 0.004884641646 1.873321798e-05)
(0.01498102761 0.004931627653 2.31438304e-05)
(0.01504222372 0.005004285544 -3.409130463e-05)
(0.0148080392 0.004757395101 -1.569035764e-05)
(0.01480132106 0.004667030733 2.697212088e-05)
(0.01462888222 0.00455178346 1.490912924e-05)
(0.01463606216 0.00451655366 3.06704617e-05)
(0.01444314119 0.004320173506 -3.279999931e-05)
(0.01432396447 0.004120197963 3.360905685e-06)
(0.008819663933 0.0003727849771 1.338977373e-05)
(0.008943988044 0.0004345078645 7.109988016e-06)
(0.009006954366 0.0005305038212 -4.22836845e-06)
(0.009134166996 0.0006240107384 7.067036513e-06)
(0.009390960009 0.0007836510337 -1.555268046e-05)
(0.009631077172 0.0009624454522 2.787107901e-05)
(0.009802235576 0.001143212573 2.764226436e-05)
(0.01008485873 0.001335777154 3.10017911e-05)
(0.01040918662 0.00155826768 2.41244441e-05)
(0.01075866458 0.001813801407 4.977165677e-05)
(0.0111027939 0.002164104422 2.160002123e-05)
(0.01154616739 0.002480435866 1.278317143e-05)
(0.01193812976 0.002730041957 -2.126311945e-05)
(0.01246987511 0.003041251053 -8.063078113e-06)
(0.0129954272 0.003331191883 9.387073985e-06)
(0.01336870762 0.00365284837 2.209977461e-05)
(0.01371445245 0.003941452069 4.427264323e-06)
(0.01409104861 0.004131042416 2.565217164e-05)
(0.01453209339 0.00444177532 3.136534397e-06)
(0.0149750141 0.004658583087 3.656261739e-06)
(0.01503969342 0.004700248391 1.763786329e-05)
(0.01532111362 0.004893535949 -5.682492878e-05)
(0.01536966929 0.004966892696 2.45140395e-05)
(0.01534976768 0.005001176242 -1.641573844e-06)
(0.01540765908 0.004913802023 5.36817978e-06)
(0.01525163162 0.004846287857 -7.481977881e-05)
(0.01501101492 0.004695424947 -7.595222831e-05)
(0.01486577649 0.004631640168 -9.512264009e-05)
(0.01475239305 0.004543055235 -3.264514808e-05)
(0.0144795064 0.004387121593 -2.32552395e-05)
(0.008766593479 0.0002673206578 -3.83250308e-06)
(0.008784217561 0.0003461943628 4.049170902e-07)
(0.008853841223 0.0004173104334 -9.776395697e-06)
(0.00891608312 0.0005043677747 -1.62275215e-05)
(0.009084215386 0.0005888053757 1.110153937e-05)
(0.009183227462 0.0007191641807 5.673823888e-06)
(0.009382153786 0.0008376117859 -1.77824747e-06)
(0.009664555884 0.001042307388 -1.120850904e-05)
(0.009982265892 0.001272981536 2.219965144e-05)
(0.0101412668 0.001418659405 2.672731135e-05)
(0.01052922163 0.001697791365 -1.179454772e-05)
(0.01099793488 0.001995692225 2.425542771e-05)
(0.01149432607 0.002265193145 2.543757399e-05)
(0.01186856053 0.002530950239 -2.00386456e-05)
(0.01231116562 0.002879223245 -6.829620202e-05)
(0.01282455007 0.003188745873 -2.615896405e-05)
(0.01327293183 0.003478057956 -5.66286893e-05)
(0.01363841151 0.00378397604 -1.481653878e-05)
(0.01391640218 0.004022455993 -3.18921503e-05)
(0.01431646783 0.004269022394 -9.8770068e-06)
(0.0145971626 0.004400371384 -1.60441414e-05)
(0.01493801199 0.004570973578 1.10513287e-05)
(0.0154435682 0.004853052252 8.037863399e-06)
(0.01568011299 0.005030405936 -2.335373019e-05)
(0.01561440371 0.005034322201 -5.272732378e-06)
(0.01554215178 0.00493600519 3.017480901e-06)
(0.01552740999 0.004894653074 -3.740061008e-05)
(0.0153446807 0.004813406821 -2.840001363e-05)
(0.01520464886 0.004699235376 -4.443425525e-05)
(0.008507249186 0.0001815409757 2.283066848e-05)
(0.008588650984 0.0002650790036 3.228328858e-05)
(0.008708085106 0.0003071576206 2.781296509e-05)
(0.0089220198 0.0003740824833 1.698293031e-05)
(0.009054145672 0.0004441509465 8.950703854e-06)
(0.009115681302 0.0005370738023 -2.805122151e-06)
(0.009202715288 0.0006851416188 -1.129326512e-05)
(0.009320574155 0.0007691790009 9.691141402e-06)
(0.009536429752 0.0009387572393 1.470384839e-05)
(0.009973130585 0.001141185798 -3.633128356e-05)
(0.01029969567 0.001326170096 -3.886356356e-05)
(0.0105483903 0.001546420088 -3.562770054e-05)
(0.01098544525 0.001840816548 4.588531335e-05)
(0.01136547671 0.002094256184 5.30438939e-05)
(0.0116972585 0.002419029752 4.917222486e-06)
(0.01210292089 0.002718695741 -1.021805083e-05)
(0.01250122337 0.00305837563 -4.553541512e-05)
(0.01297778821 0.003346413453 6.570522929e-06)
(0.0135444827 0.003639335151 -4.914122972e-05)
(0.01386922357 0.00385368833 -4.040995214e-06)
(0.01440003472 0.004154833046 3.244082586e-05)
(0.01462043169 0.004266430818 -6.146936298e-06)
(0.01486203253 0.004442227326 -1.507001955e-05)
(0.01528956473 0.004768164105 -3.631943984e-05)
(0.0084860043 0.0001411188837 2.46060769e-05)
(0.008579051739 0.0001511204397 2.25004429e-05)
(0.008564165627 0.000202814945 9.898840753e-06)
(0.008566011914 0.0002576181683 -1.614904488e-05)
(0.00857258911 0.0003225582925 -2.725563055e-06)
(0.008640470615 0.0004065814732 4.260483315e-06)
(0.00883910694 0.0004875127903 -2.379472732e-05)
(0.009054649555 0.0005687584374 -1.857818464e-05)
(0.009252393973 0.0006516911509 6.853202473e-06)
(0.009379224955 0.0008348945242 1.456252689e-05)
(0.009536715756 0.001008013756 -2.025016241e-05)
(0.00980399558 0.001203693982 -4.641473943e-05)
(0.01002509985 0.001394100788 -4.507050031e-05)
(0.01039682449 0.001659298871 -1.642276994e-05)
(0.01088265504 0.001944833003 1.847661174e-05)
(0.01139132184 0.002215282008 4.410826265e-06)
(0.01190456087 0.002514073148 -1.197895738e-05)
(0.01241921846 0.002791296701 -5.80461135e-05)
(0.01298864077 0.003199043753 -1.936397054e-05)
(0.0084269389 9.795879591e-05 -1.802487983e-05)
(0.00852049702 0.0001283671316 -2.291754607e-05)
(0.008537434657 0.0001748677384 -1.713098007e-05)
(0.008611276306 0.0002239836417 -1.061949293e-05)
(0.008699617138 0.0002781133895 8.530416668e-06)
(0.008829457797 0.0002923194222 2.594387638e-06)
(0.008818004602 0.0003632737411 8.430870095e-06)
(0.008842064971 0.0004690593543 -8.087503268e-06)
(0.008817805407 0.0005683305738 -1.070133944e-05)
(0.008971029743 0.0006550071802 -1.159359345e-05)
(0.009190724875 0.0007413094786 -1.724081226e-05)
(0.009463935852 0.0009163196602 -3.793138996e-05)
(0.009770831286 0.001071265522 -2.527321421e-05)
(0.01016124815 0.001273586296 -2.377406045e-05)
(0.008504284342 0.0001050056198 2.862531633e-06)
(0.008504586627 0.0001120409415 -1.146318152e-06)
(0.008450190555 0.0001333853141 7.691699603e-07)
(0.008468559636 0.0001543331494 -1.703277197e-05)
(0.008497672539 0.0002161096125 -2.339867325e-05)
(0.008466184624 0.0002624947669 -3.545850129e-05)
(0.008584994415 0.0003123762844 -5.067295032e-05)
(0.008757755365 0.0003667864947 -5.129707015e-05)
(0.008332463753 7.187351901e-05 -2.046389249e-05)
(0.008314535092 9.410780993e-05 -2.473387979e-05)
)
;

boundaryField
{
    flow
    {
        type            calculated;
        value           nonuniform List<vector> 
15
(
(0.003654285475 0.0006599890453 -4.960721292e-05)
(0.005060396384 0.0007684392854 1.107797357e-05)
(0.006093371237 0.0009336846255 9.610555924e-05)
(0.006803475113 0.001137966648 -3.057742267e-05)
(0.007535410042 0.001399878036 -5.596027371e-05)
(0.008446781152 0.001722690041 3.707764033e-05)
(0.009210151313 0.00200120522 -8.420544775e-06)
(0.01011879886 0.002434845319 -5.121665485e-05)
(0.01064546997 0.00266584305 -3.020635892e-05)
(0.01144095802 0.003136642955 -4.146049115e-05)
(0.01219157669 0.003358131656 2.862747264e-06)
(0.01303598126 0.003695237235 -9.219964196e-06)
(0.01347147372 0.003784954287 1.565583748e-05)
(0.01432396447 0.004120197963 3.360905685e-06)
(0.0144795064 0.004387121593 -2.32552395e-05)
)
;
    }
    obstacle
    {
        type            calculated;
        value           nonuniform List<vector> 
30
(
(1.35237006e-21 3.623664661e-22 -4.988254617e-23)
(1.156012132e-21 3.097525176e-22 -1.503036559e-23)
(1.247923581e-21 3.343801148e-22 2.082384191e-22)
(1.100279997e-21 2.948191371e-22 1.809353199e-22)
(1.031936258e-21 2.765064862e-22 -2.540721803e-23)
(9.790307732e-22 2.623305055e-22 4.335456204e-23)
(9.877324011e-22 2.646620997e-22 7.031779161e-23)
(8.765338862e-22 2.348665462e-22 -8.581724666e-23)
(1.039091599e-21 2.784237553e-22 1.129121317e-23)
(9.278168107e-22 2.486077656e-22 6.769854071e-23)
(9.57472978e-22 2.565541104e-22 4.645706875e-23)
(8.151790381e-22 2.184265653e-22 4.987640738e-23)
(8.951144563e-22 2.398451961e-22 6.548959136e-24)
(8.612624311e-22 2.307745722e-22 5.262345312e-24)
(8.654957048e-22 2.319088756e-22 1.942332399e-23)
(8.333036733e-22 2.232830456e-22 6.603788598e-23)
(8.524769746e-22 2.284205173e-22 6.532551348e-23)
(8.410848546e-22 2.25368008e-22 1.429514319e-22)
(8.429085489e-22 2.258566643e-22 1.641571527e-23)
(8.872606493e-22 2.377407749e-22 -2.451758588e-23)
(7.050923873e-22 1.889289361e-22 1.349565126e-23)
(7.949987564e-22 2.130192741e-22 3.838442619e-23)
(7.979735383e-22 2.138163656e-22 2.646823963e-23)
(9.052344094e-22 2.425568294e-22 1.861132405e-22)
(7.868243095e-22 2.108289377e-22 5.974948881e-24)
(7.807766713e-22 2.092084789e-22 -3.510411429e-23)
(8.953070093e-22 2.398967894e-22 -1.075024097e-23)
(7.86397484e-22 2.107145712e-22 2.802027425e-23)
(8.345685891e-22 2.236219799e-22 -1.001840271e-22)
(7.776967317e-22 2.083832106e-22 4.18703879e-23)
)
;
    }
    frontAndBack
    {
        type            empty;
    }
    procBoundary1to0
    {
        type            processor;
        value           nonuniform List<vector> 
21
(
(0.005658671725 0.001639942332 0.0001127680653)
(0.008775493756 0.002623763446 8.603256261e-05)
(0.01056090637 0.003314400532 8.630234304e-05)
(0.01157196066 0.003560780277 2.761798999e-05)
(0.01173978887 0.003502536619 0.0001331238057)
(0.01151205424 0.003271896981 4.070545529e-06)
(0.01104590714 0.002696041901 -3.578247645e-05)
(0.0106716863 0.002171655555 -5.739462938e-05)
(0.009892744983 0.00167655445 -8.044336048e-06)
(0.009671012606 0.00125499637 -1.964626583e-05)
(0.009456824899 0.0009267260092 2.256618823e-05)
(0.008808743838 0.0006847569335 6.205368808e-06)