/*--------------------------------*- C++ -*----------------------------------*\
  =========                 |
  \\      /  F ield         | OpenFOAM: The Open Source CFD Toolbox
   \\    /   O peration     | Website:  https://openfoam.org
    \\  /    A nd           | Version:  7
     \\/     M anipulation  |
\*---------------------------------------------------------------------------*/
FoamFile
{
    version     2.0;
    format      ascii;
    class       volVectorField;
    location    "0.004";
    object      momentum;
}
// * * * * * * * * * * * * * * * * * * * * * * * * * * * * * * * * * * * * * //

dimensions      [1 -2 -1 0 0 0 0];

internalField   nonuniform List<vector> 
546
(
(0.007234649535 -0.0001565721525 0.002233787876)
(0.005247817121 0.0007576079336 -0.0003612413005)
(0.005062761191 0.001358029316 -0.0002213820677)
(0.001774132526 0.001638071085 -0.0007424945246)
(0.008295618164 -0.0001830283339 -0.0006967452253)
(0.00169593876 0.002314279 -0.001992017928)
(0.003811033533 -0.0003257172049 0.0003021378729)
(0.004336402255 0.0003285384759 -0.001575125099)
(0.003897633116 0.001645654227 0.0008697659767)
(0.004720421226 -0.0005976485452 -0.0004336698072)
(0.006096304624 0.0009835047641 0.001591719369)
(0.003252805249 0.002686654452 -0.0001102516139)
(0.003684451952 0.002179947891 -0.0006590089602)
(0.004442411743 0.002424485892 0.001514605652)
(0.004508910293 -0.0005495225777 -0.0005082819302)
(0.002181509184 0.0005568023401 -0.002376153465)
(0.002977013886 0.001855822367 0.001305300278)
(0.003948344198 0.0008280133387 -0.001296540682)
(0.002552881468 0.0007526036412 0.0003566913752)
(0.003045118996 -0.0006794110823 -0.0003056340612)
(0.004009779036 0.00125432131 -0.001390701678)
(0.001424308772 0.001388227137 0.0003774002078)
(0.001679766661 0.0007870780384 0.000308030567)
(-0.0002954444514 -6.646840306e-05 -0.0005143453371)
(0.002777692138 0.001109819428 0.001338821907)
(0.002611678681 -0.0001857264748 -0.002078441517)
(0.001121887504 0.0001712002991 -0.003145985265)
(0.005732368104 -0.0003752263531 -0.001640771144)
(0.001588260552 0.002272961233 -0.002558237821)
(0.004895682528 -0.0003724451758 -0.0009630564509)
(0.009924639607 0.002280096425 -0.0001880306036)
(0.006851581476 0.0002836816105 0.001039919917)
(0.005462442599 0.005080428374 0.002709169659)
(0.007774769275 0.001300303187 -0.0001856935402)
(0.004847504955 0.0003913389012 0.0004346446284)
(0.01016074845 0.001922096359 0.0006174659785)
(0.004634291892 0.002329459936 -0.001889340303)
(0.006145433157 0.001012624083 0.0009227898442)
(0.009130285452 0.001245946144 -6.453982145e-05)
(0.005272486073 0.0022709276 -0.001476485151)
(0.005664061914 0.000252795186 0.001403941253)
(0.005667534129 0.001444513404 0.0002541220183)
(0.004881684344 0.002221261241 -0.0006734772919)
(0.00601393235 0.002745517464 -3.16163734e-05)
(0.006807055159 -0.0002883034657 -0.0002919228883)
(0.007268375814 -0.001142243351 0.0002534710452)
(0.004542417828 0.001629645768 0.0007460612438)
(0.003418402751 0.003076088406 0.0006773167335)
(0.00538995562 0.001633266836 0.002233385972)
(0.006030525265 0.001861388621 -0.0004628753624)
(0.005704422804 0.0005188251339 -0.0003821909625)
(0.003879687966 0.001161973874 0.001000411059)
(0.002982009904 0.002445186195 0.0004136281439)
(0.004698619867 0.0007648755992 -0.001428165408)
(0.007470312647 0.0003876901908 0.0004135374809)
(0.00158234929 0.001095333461 0.0003638862702)
(0.007194314083 0.001511877386 0.001372402214)
(0.007093308955 0.002249541317 0.0005534598725)
(0.002103849834 0.001882724301 -0.0008836622534)
(0.00547331144 0.0008794098696 -0.0002588957787)
(0.013315618 0.001878540431 0.00203491218)
(0.007818187232 0.002026918357 0.001117959769)
(0.006114095282 0.001139896434 0.001067850353)
(0.0124107707 0.003745738629 0.000782253668)
(0.007550528859 0.002649776237 -0.0008050736983)
(0.0065767807 0.002320143957 -0.001069972919)
(0.006801800712 0.001816785043 0.0001754164286)
(0.005717684515 0.003356360095 0.0001520825868)
(0.008574854413 0.002150301308 0.002618836178)
(0.009411797398 0.002854113673 0.0003375457241)
(0.008552335944 0.002874369028 0.0006860214865)
(0.007228354857 -0.000771776026 0.001959285803)
(0.01014133744 0.004361193934 -0.001361632392)
(0.008009485173 0.003215290083 -0.0008147455781)
(0.01103668559 0.00192475807 -0.002654005757)
(0.007044723613 0.003186558107 0.000324238713)
(0.007031542873 0.001270037684 0.001331133161)
(0.0112390103 0.0009552380403 0.001001952123)
(0.005521775823 0.001154391148 0.001795567831)
(0.005783400924 0.003269679141 0.0003200982607)
(0.005292090232 0.00152289655 0.0009629278561)
(0.005003089281 0.002057811941 0.001887390704)
(0.004686702323 0.0005606144314 -0.001464152561)
(0.00368664965 0.0006297394605 -0.001268368701)
(0.004631145249 0.0001894798671 0.0004698499743)
(0.008740588855 0.002531147942 0.000514818999)
(0.003901829108 0.001722296958 0.0006329124422)
(0.008326841155 0.001640923475 -0.002242218027)
(0.003809536963 0.0007528324821 2.253679871e-05)
(0.004291317483 0.001166461957 -0.002165711668)
(0.01011501152 0.003716572408 -0.002193235414)
(0.01094470828 0.002904728762 0.000295144495)
(0.01194902438 0.002599721291 0.0003043710001)
(0.009271777518 0.004265508934 -0.000459401261)
(0.009938099446 0.004962948667 -0.001457505742)
(0.008904158641 0.002934629208 0.0003794287653)
(0.01059669599 0.003384430066 0.001076971605)
(0.007238048772 0.002532334166 0.001142146118)
(0.01534265309 0.008432764697 -0.001259766523)
(0.00740273287 0.003956912415 -8.598174234e-06)
(0.005104679968 0.002805097447 0.0002714588972)
(0.01126351621 0.003455642858 -0.000205737485)
(0.009858943869 0.001898246246 -0.0001979568702)
(0.00915114294 0.002642256358 0.002093967629)
(0.00966267439 0.002253131332 0.001310141647)
(0.007159192981 0.002002892591 0.001015346664)
(0.007649425616 0.00361798956 0.001967061493)
(0.00998817796 0.003051495343 0.002333704915)
(0.007993390461 0.003045879152 -0.001897048297)
(0.004674979452 0.003414064189 0.002395225113)
(0.004923846266 0.002503850225 0.0002991476948)
(0.003127240233 0.001620582561 0.0007250495579)
(0.00779137045 0.002289382784 0.003903931051)
(0.00558119887 0.002603524647 -0.00057403032)
(0.004359624954 0.0005276679448 0.0003097657626)
(0.005425321054 0.001988725989 -0.0003529554724)
(0.009101442629 0.003424008845 0.001535059416)
(0.008753975436 0.001038923805 -0.0004557385955)
(0.004831872541 0.0009230081628 0.001718201183)
(0.003507833917 0.0008181873498 0.0002702360829)
(0.009202357221 0.002182005723 0.001240459771)
(0.01133193469 0.003264355827 -0.0003042839831)
(0.01068602812 0.003697760322 0.0003024532635)
(0.01337666378 0.001561318974 -0.000545412636)
(0.01323974226 0.003639096882 0.001083796473)
(0.01122468613 0.005717609997 -0.0002284071925)
(0.01258642141 0.006734146732 -0.001456421809)
(0.008498422884 0.003689550981 -0.0002278874483)
(0.01175841056 0.002881528517 -0.0008637666445)
(0.01451376416 0.004699909202 0.001652149823)
(0.01296286663 0.003272528082 -0.000233829921)
(0.01488775876 0.005988308419 0.001784243271)
(0.008707370944 0.005238059905 0.001171587737)
(0.005837854686 0.002263013183 -0.003014586734)
(0.01138041077 0.005016242885 0.001117381519)
(0.006309939364 0.003312825382 0.001178955835)
(0.01328237406 0.006601184574 0.00280747687)
(0.01084092139 0.004400504448 0.0008833846696)
(0.01011868469 0.003240360317 -0.001159363281)
(0.0118897072 0.004223798454 0.001213251311)
(0.002025604382 0.002935082964 -0.001025909044)
(0.006628646313 0.001861670371 0.0005308650666)
(0.01454603561 0.00513909704 0.001213902841)
(0.009992298546 0.0004985677144 -0.001589869711)
(0.01012230593 0.004345766648 -0.0007237657252)
(0.01110696698 0.004061370182 0.000522254873)
(0.01037459453 0.001584960693 -0.001125063545)
(0.008025126433 0.002613494243 0.001152957411)
(0.007492904456 8.88980266e-05 -0.0002190024474)
(0.004865808325 0.0002639787178 -0.0006026305804)
(0.01130763723 0.00179886802 0.001181099945)
(0.01336879294 0.004419131908 -0.002850565657)
(0.01196778215 0.003152048377 -0.0008990017675)
(0.01253143088 0.001920163225 0.001570544634)
(0.01629133457 0.003219701015 -0.001380316752)
(0.009056459025 0.005119171878 -0.0001433572372)
(0.01443596393 0.004280194375 -0.0008088634509)
(0.01328472556 0.002917019125 -0.001172139045)
(0.008945108849 0.002856583738 0.0004131159177)
(0.0118669167 0.006435565084 0.003054718226)
(0.01129784563 0.005501697012 0.001824401002)
(0.01218044966 0.00763210634 0.0006585379051)
(0.01231224589 0.004529745376 -0.001470370276)
(0.00651777505 0.002388241695 -0.001552691264)
(0.01142435222 0.003184726187 0.001323548182)
(0.00944705957 0.002081801693 0.002149107504)
(0.01360670807 0.005508056881 -0.0004981780984)
(0.01281129387 0.002684577043 -0.002875713473)
(0.0124201333 0.00503199248 -0.002260583214)
(0.007680142018 0.002741382655 -0.0020111287)
(0.01412363898 0.003701026363 -0.000715526569)
(0.0108223178 0.003972653437 -0.002336346334)
(0.007980050194 0.003727689479 -0.0013864828)
(0.01389032556 0.00226998509 -0.000756577015)
(0.01376389271 0.004014328144 -0.0003966293736)
(0.008263672226 0.002994848213 0.0008649933718)
(0.009533416162 0.002612478654 -0.0008937778759)
(0.01229751242 0.004427812429 -0.0002599195882)
(0.008128559026 0.002494861148 5.659107737e-05)
(0.009661760418 0.0023925741 0.001124055275)
(0.00808904869 0.002275486056 -0.001286784665)
(0.009461053883 0.004525481803 0.001043442304)
(0.008988690854 0.002866573482 0.0006935455974)
(0.008181765597 0.003807135451 0.0005760786943)
(0.009960526164 0.004070669376 0.0007472365786)
(0.01222510779 0.002620654224 -0.0009083487695)
(0.01119632751 0.003190949651 0.001003933876)
(0.01083655366 0.00214853373 -0.0001744489061)
(0.00745885365 0.004872197463 -0.001452706617)
(0.0101348917 0.003822576181 0.0002169523845)
(0.01350128934 0.00314617771 -3.832303617e-05)
(0.01024919881 0.003409210672 -0.0002079811523)
(0.0117596306 0.003751406729 5.562047881e-05)
(0.01389990597 0.004540408528 0.0002136051325)
(0.01416968734 0.006075328279 7.477044834e-05)
(0.006922495284 0.002199030794 0.001271070533)
(0.01496726446 0.004528193747 0.002293533386)
(0.004988211148 0.003541200924 0.0007633242286)
(0.009530025117 0.004401193528 -0.0005987563501)
(0.01148417133 0.003574230841 -0.0007227992031)
(0.01230449707 0.00438602606 0.0005271021856)
(0.0093554433 0.001698529112 0.001218307994)
(0.007932828118 0.00144226281 0.002458360464)
(0.007702034849 0.001859031237 0.001055313612)
(0.0113894992 0.003424740495 0.001843091558)
(0.01185333331 0.002690667075 0.000288317365)
(0.01110046088 0.002722197264 0.002084274721)
(0.008243401601 0.0004374923769 -0.001275720442)
(0.007922618843 0.00260042838 0.0004370160523)
(0.006624010874 0.002937128288 -0.001024154767)
(0.009440314716 0.003625871547 0.0009981878201)
(0.008434445067 0.002006402523 0.0005520666094)
(0.01825664499 0.00686728491 -0.001639110326)
(0.00966081879 0.003519294146 0.0009111781479)
(0.009272227047 0.0006026821004 -0.0001050912996)
(0.01404841826 0.003026732414 -6.504343608e-05)
(0.01487616428 0.003527958519 0.001428391585)
(0.007709280292 0.003197329527 0.0009522917376)
(0.01540097712 0.006471602744 0.0003100911236)
(0.01244040786 0.004457907125 -0.0003165491726)
(0.01575714969 0.004381438385 -0.002568751334)
(0.01472235588 0.004446664262 0.0005683091112)
(0.01456238593 0.002489612705 4.853552751e-05)
(0.01108697148 0.004605212627 -0.0003311740611)
(0.01328026544 0.005615033235 -0.001254633523)
(0.01079897606 0.003911459352 -0.0002504350049)
(0.005664357353 0.002543713222 0.0009348286937)
(0.01332842252 0.006612090274 0.001674597105)
(0.00973002536 0.004045714168 2.15823848e-05)
(0.007565022863 0.005005479814 -0.00205158244)
(0.01740307547 0.003936306634 0.0009806255019)
(0.01473460394 0.002767316866 0.001675511657)
(0.01190335681 0.005522268693 -0.0002833726045)
(0.01398653042 0.003317011918 0.002925050205)
(0.008434047805 0.00061740085 -0.0006649168261)
(0.01120752289 0.002520134644 -0.0008866192066)
(0.01108956693 0.004653806624 -0.0004027510917)
(0.006538710259 0.001531128618 -0.001021752809)
(0.01411771885 0.001123135157 -0.001237226143)
(0.009394438166 0.002025655673 0.00193377899)
(0.006427742423 0.00305933075 -0.001059202642)
(0.01026218717 0.003153605118 0.0007759623655)
(0.009418024872 0.002690523826 0.0001297441931)
(0.007600481683 0.0001463982102 -0.0003357403714)
(0.01709685748 0.005471535754 0.0002085099114)
(0.01507342302 0.003444981088 9.701044515e-05)
(0.013932751 0.003240115811 0.00365482607)
(0.01163995136 0.003402274464 -0.00101048446)
(0.01040000333 0.005531884005 -0.0007283479563)
(0.01312525877 0.002584700372 0.0006603841941)
(0.01152385896 0.002167386702 -0.0006361753108)
(0.0124674476 0.005980878651 0.0002849276262)
(0.01353173968 0.005389395289 0.0006378873818)
(0.01211460413 0.004209941384 0.0006468954127)
(0.0217075498 0.005224568284 0.0006542176142)
(0.0156065009 0.004069040297 0.001877910806)
(0.01553968631 0.006162588753 -0.0008890314788)
(0.01318694459 0.004704296947 0.000139940406)
(0.01503640434 0.004497182622 -0.002078219988)
(0.01646588458 0.006076585845 -0.001480681231)
(0.01345146585 0.004793713534 -0.0001929155493)
(0.01513583451 0.003433472391 0.0007642500793)
(0.01430022223 0.00489347902 0.001401577738)
(0.01319111193 0.003379788261 0.00166165432)
(0.01478098164 0.005333221121 -0.001367519658)
(0.007814806001 0.001673252614 -0.00112367272)
(0.01072934615 0.005450428245 -0.002463827227)
(0.01227692311 0.001225740203 0.001268045039)
(0.01349649857 0.00534998896 -0.001530445537)
(0.014441257 0.003856342436 0.0004652015866)
(0.01055230415 0.0009019359623 0.0005581590216)
(0.007012987056 0.002110605336 0.0006295452362)
(0.0107064398 0.002705003927 0.0001187427717)
(0.01020306479 0.003262649677 -0.0006009698432)
(0.01235003942 0.001886959387 -0.0004987669714)
(0.006412741771 0.001047891746 0.0002777255532)
(0.01329333809 0.00552951155 -0.0001515183989)
(0.0254783996 0.005113575501 -0.001046740063)
(0.01171760278 0.002399114533 0.0003452663283)
(0.0128051312 0.001383690803 -0.002552123196)
(0.01303840691 0.002561838344 -0.0004259986936)
(0.01446275439 0.003714947856 -0.001100832806)
(0.0176248492 0.00610650232 0.00252155767)
(0.007678910965 0.001148731289 -0.0004885218644)
(0.01835767056 0.008869748533 -0.00114035942)
(0.0103767252 0.003356391234 0.0008597387222)
(0.01020121447 0.003211616693 0.0001917038317)
(0.01636955991 0.00461807857 -0.0001747938616)
(0.008614697597 0.00209558441 -0.0002732927545)
(0.01655936874 0.007040834399 -0.002739011616)
(0.009086640318 0.001767400353 0.00188285931)
(0.006085120749 0.001416587982 -0.000623706156)
(0.01785520529 0.005026615105 -0.0001723842686)
(0.0106680455 0.004266997547 0.002941222351)
(0.007529080084 0.005748023806 -3.346290445e-05)
(0.006070862612 0.002612261527 -0.001598387255)
(0.007492288121 0.004008099309 0.001523783331)
(0.009279032868 0.002792018107 0.001563057231)
(0.01140576186 0.0009086848379 0.0008540746719)
(0.01266121729 0.003092413278 0.0004351728858)
(0.008881811899 0.001757382569 -0.001112982052)
(0.01231637854 0.004032363555 0.0005932837668)
(0.00738011147 0.0006694876329 0.0001456401752)
(0.01136046477 0.002448987587 0.001898148115)
(0.01539670236 0.003728961392 -0.0004002746361)
(0.01347228349 0.002691051357 -0.0008479019515)
(0.01164095351 0.004683927446 0.0003000859433)
(0.004957214942 0.001850441458 -0.0003911886662)
(0.01543774989 0.002752982746 0.0009686742782)
(0.0105933743 0.003090753338 -0.000420376968)
(0.0122211308 0.003838625334 -0.0009215235838)
(0.008752341395 0.002498621074 -0.00162825023)
(0.01019928755 0.004815856722 -0.001138925245)
(0.01236864221 0.005718571229 -0.0001433580241)
(0.009986227806 0.001598546064 0.001334977394)
(0.02468756999 0.005205830638 0.0001366352093)
(0.01815140103 0.007436714344 0.001850835942)
(0.02279726174 0.006877033873 -0.001609459065)
(0.0136893357 0.00369415921 0.0008524972286)
(0.009813086976 0.003048399313 0.002735663546)
(0.01395892685 0.004176369464 -0.001548495669)
(0.01140501035 0.004073176448 -0.0005528365031)
(0.01397166285 0.005519409503 0.0007367011368)
(0.01389495092 0.006768940955 -0.001342340262)
(0.00998181999 0.003778844673 -0.001221081879)
(0.01328878041 0.0008950544701 9.651996706e-05)
(0.01272911919 0.004620806117 -0.0003641123676)
(0.01794328451 0.004546159127 -0.0008568145449)
(0.007924675944 0.001023290579 -0.0008835950281)
(0.01751682666 0.005067159309 -0.0002275640283)
(0.006641601758 0.001464350039 0.000146681604)
(0.007546259603 0.0003835413152 -0.001101133591)
(0.006953721107 0.000513378359 -0.000178915195)
(0.01205765435 0.002582566443 0.0002214745154)
(0.0152516265 0.003344246945 0.00017654887)
(0.01208906752 0.000752931519 0.0001695848808)
(0.01198389053 0.003145576003 -0.00107215916)
(0.01331947904 0.002897330478 -0.001184186173)
(0.01585608678 0.003998142869 0.001299311015)
(0.008659745746 0.002072985832 -0.0008812247277)
(0.01340609546 0.004726825975 0.0003211424834)
(0.01654006271 0.005018140352 0.001249540269)
(0.008696786521 0.002977718577 0.0007139202742)
(0.01351800662 0.004766744214 -0.001257507253)
(0.01932518333 0.007928460898 0.0003178068675)
(0.01494998205 0.003965453637 -0.0002316359313)
(0.01492889079 0.005211040968 -0.001199161221)
(0.01802691893 0.008069236891 -0.001298206856)
(0.02136922555 0.008909675233 0.0003383380968)
(0.01103422663 0.004227027807 0.0009487700334)
(0.01388594563 0.005551963009 0.002309417238)
(0.0195592065 0.008102251221 -0.00430064718)
(0.008353905005 0.003042491618 0.001037559298)
(0.01251193059 0.001395079086 0.0009961366662)
(0.01258467024 0.007039280052 -0.002453089125)
(0.008539202209 0.004012720924 0.0009143794674)
(0.01729671851 0.00662311538 -0.00073058082)
(0.01018100075 0.003618748333 0.0001703399407)
(0.01120690272 0.003328905452 -0.0006844594646)
(0.01480571645 0.004737740516 -0.002305057928)
(0.007243212367 0.000912952549 -2.439034824e-05)
(0.006746031234 0.0009573986984 0.0005178289579)
(0.0115446289 0.0002547566334 0.0007908627098)
(0.01366102907 0.002287948075 -0.0003072512439)
(0.01268341803 0.00156513116 0.001156453426)
(0.01508504704 0.001150599109 -0.0003793261698)
(0.01226443883 0.002070351858 -0.0007509486542)
(0.01025577272 0.001115374688 -0.001681070334)
(0.01054692839 0.002150264218 -0.0008754571349)
(0.01352222134 0.001077960083 -0.0005970386216)
(0.01491031827 0.002174796133 -0.001361306912)
(0.009121106997 0.001100740068 -0.0001154271649)
(0.01274370903 0.002225031298 -0.0001610993646)
(0.01147274722 0.005941402807 -0.000921865237)
(0.014904516 0.004345430675 0.0004215130572)
(0.01510668234 0.00338788218 -0.001205856608)
(0.01580790324 0.002751297363 0.000307171981)
(0.01533331977 0.006825339416 -0.002023243447)
(0.01956429237 0.006036121155 -0.0003172207714)
(0.01782156326 0.01013816709 0.0005958048774)
(0.01687026693 0.004368934248 -0.002271703583)
(0.01947315018 0.008094085185 -0.001288338567)
(0.01479482378 0.005294774709 0.0004897203908)
(0.01094951792 0.004488807744 0.0003380146985)
(0.01435573185 0.002355152981 0.001331059057)
(0.01800348247 0.009839738115 -0.0001787139914)
(0.01752152177 0.006643722167 -0.0001226646847)
(0.01163460327 0.002903040163 -0.0008489224417)
(0.01013257252 0.00278425351 0.0001204058255)
(0.01575878488 0.006892513039 -0.0007944143603)
(0.007672077189 0.001025663594 -0.0005917256741)
(0.008424604041 0.001807022614 0.0002538968925)
(0.01323668268 0.0006490664573 0.001974240595)
(0.007742461529 0.00291055983 -0.0005686492477)
(0.0092952596 -0.0002185823968 8.675399688e-06)
(0.009929283104 0.0001573008466 5.652352818e-05)
(0.01128115115 0.001415381431 -0.0003966198625)
(0.01396588263 0.003822225781 0.001441900297)
(0.01731070064 0.003447470071 0.0008379125085)
(0.009245152513 0.003690797099 -9.364532434e-05)
(0.01581698588 0.002999890845 -0.0005619147597)
(0.009306178066 0.001739789216 0.0007170017448)
(0.005353789408 0.001372918283 -0.0006860302629)
(0.02010980786 0.00727903754 -0.00200939985)
(0.01684812307 0.005493835375 5.553155866e-05)
(0.01248405408 0.004830645537 0.0008272340275)
(0.01654810246 0.007015308253 -0.0004404087432)
(0.0163353659 0.008711667423 -0.001530633943)
(0.0157786654 0.005925744952 6.796253756e-05)
(0.01412300483 0.004525801859 0.0001363548026)
(0.01186637952 0.004711858932 0.0002392316316)
(0.01254120304 0.004014685279 0.0003273982474)
(0.01503027017 0.004006959262 0.0006621770181)
(0.01113367836 0.003986308469 -0.0004206298407)
(0.01141495528 0.004606742434 0.000685132962)
(0.01903593629 0.006484047354 0.0002555411589)
(0.01458969244 0.005878483121 -0.001635227748)
(0.01500919204 0.006032700552 0.001832858128)
(0.01286887942 0.004349660712 -0.0006953287008)
(0.01689697909 0.003303419161 -0.0002460613517)
(0.005404600944 0.0004384477618 0.000417031284)
(0.007975339096 0.0005076267293 0.0006683642766)
(0.008376606349 0.0008344362059 0.0003481324578)
(0.007740736518 0.0007951890032 -0.0004244388376)
(0.00719721021 0.0006668455 -0.0006856256044)
(0.01244515088 0.001972646461 -0.0008663662705)
(0.0102307484 0.002981219696 -0.0001853742032)
(0.003165782183 0.0007448966746 0.0003107533903)
(0.006326407788 0.001065948173 0.0004782116595)
(0.005809143342 0.001769955169 0.0001850086812)
(0.01108301238 0.00121360838 -0.0001360968316)
(0.009862895524 0.001752835425 -0.0003289081666)
(0.01018699541 0.002161368071 0.0003296472574)
(0.01012809902 0.002196618083 -0.0002296794819)
(0.01253847199 0.005337358527 0.0002914605512)
(0.01171271781 0.005430264577 -0.001116216699)
(0.0196605484 0.003212684271 -0.003005677077)
(0.01231280143 0.002757395938 -0.0009403282129)
(0.01462376972 0.004667317488 0.0007230351886)
(0.01632973396 0.005936004849 -2.810884796e-05)
(0.01336731813 0.003682619778 -0.0009336156114)
(0.01610280141 0.005936839754 -0.001235065657)
(0.01865488603 0.007883813263 0.001067205679)
(0.01093712585 0.005002080879 0.001127438296)
(0.01538399182 0.004913602961 0.002097046512)
(0.01724995413 0.00798930378 2.284757684e-05)
(0.01636084891 0.006974817378 -6.666795405e-06)
(0.01749597229 0.003581532591 0.001572602123)
(0.01692132632 0.004571914273 0.0005861363302)
(0.01692637077 0.006628523257 -0.0003269449723)
(0.01082200074 -0.0006419068957 -0.0004280415949)
(0.008119896389 0.001009878863 0.0002611470311)
(0.008129575487 0.001362241356 0.000274106736)
(0.003444355788 0.0008481934479 0.0002851257106)
(0.009394424229 -0.0007858222671 -0.000191309724)
(0.01628461862 0.00280138483 -0.0001220571359)
(0.01548536784 0.0006243559191 0.0007222164245)
(0.01686812534 0.0007241986898 -0.00131087472)
(0.01264115075 0.001631580494 0.001436070817)
(0.007257010694 0.001860673043 0.0009020977523)
(0.0083481363 0.002388593947 -0.0003040051519)
(0.008780476859 0.003208869442 -0.0006217173847)
(0.01096696335 0.001966716182 -0.0008378372803)
(0.01342533807 0.002751395718 -0.0004567608801)
(0.01117328081 0.004405393103 -0.0001140190995)
(0.009855016375 0.00361405775 -0.0004254176339)
(0.009607493974 0.001564000565 0.0023492478)
(0.00797369786 0.002587343108 0.00104320769)
(0.01678269668 0.005579563703 0.001074385475)
(0.01411697899 0.008028953956 -0.0008591673338)
(0.01523685186 0.005971680512 -0.0007415108574)
(0.01949836183 0.005168062979 -0.001149683122)
(0.01226294219 0.005900812105 -0.002270902586)
(0.01644934429 0.005768762138 -0.001277686025)
(0.01076417629 0.004746386985 0.0002462630725)
(0.01646529393 0.005608984327 -0.0002132676172)
(0.01979160674 0.003419119925 0.00180810336)
(0.02021730964 0.005323343116 -0.0006019904139)
(0.01348734386 0.006153040287 0.0004136512659)
(0.005382086194 -0.0004050358362 0.0004174772961)
(0.01115425705 -0.0003262492416 -0.0007021485617)
(0.007389070164 0.0004774098935 0.0002007112364)
(0.01140496609 -0.0008036033257 0.0001729710759)
(0.009328780289 0.0001916021722 -0.0007444496926)
(0.01158600044 0.001685602347 -0.0001278055257)
(0.01106558032 4.272365347e-05 -0.0009261716133)
(0.0108546563 -0.0003478392329 5.96740288e-06)
(0.008975965632 -0.0001713936586 0.0001240280524)
(0.00852820009 0.002463249425 -0.0002542385556)
(0.01615111425 0.001431723811 0.0002442314311)
(0.01247320259 0.002066223439 2.957584802e-05)
(0.01056078041 0.001669587473 -0.0003785560903)
(0.0170274885 0.003456333438 -0.0004129183123)
(0.01324769445 -0.000214241097 -0.0007459513472)
(0.01519442739 0.003093710311 -0.0004704831251)
(0.008053495999 0.0009396876897 0.0003563664758)
(0.008015990633 0.002599400889 0.0007715806802)
(0.01983992708 0.004199924279 0.002779767195)
(0.02009909999 0.003862178586 -0.002764923693)
(0.01087102 0.003304912039 -0.001276609266)
(0.01973976456 0.007602547829 0.00164880561)
(0.0205797669 0.004033543531 -0.0009240550349)
(0.0176650723 0.005057678426 0.0009481957124)
(0.006704293772 0.0002848323343 0.0002210204329)
(0.006805763135 -0.001230684387 -0.0005780311242)
(0.005234042967 -6.897520601e-05 -0.0003888741582)
(0.01024405415 0.0005403961923 0.000204787081)
(0.005251401683 0.0001499084385 9.760689713e-05)
(0.00885229813 0.000830042218 -6.532475241e-05)
(0.00781880775 0.0004064285055 0.0001750991311)
(0.01129581999 0.001089364242 -0.0002074065362)
(0.004825895843 0.0005451024866 -0.001538539823)
(0.008806556893 0.001539778271 -0.0003368278326)
(0.009191909315 0.0008243279513 0.001011301664)
(0.01000389174 0.001588022358 0.001578887618)
(0.007039257229 0.001020262178 0.001043675244)
(0.0111585436 0.001128800187 -0.001502308053)
(0.0145440827 0.002607072259 0.0005644643642)
(0.01492629578 0.003666614131 0.0005854317942)
(0.01353626352 0.003135809635 0.0008981730226)
(0.01229382707 0.004336396478 0.0009114246099)
(0.00918888023 0.002069335234 0.001026603933)
(0.009464005541 -0.0004589905281 0.0003698434569)
(0.001978881057 6.882001202e-05 -0.0003208353746)
(0.004777954043 0.0004862835018 0.0004490055243)
(0.007681432567 0.0001883863954 0.0005062941159)
(0.01345824137 -0.001076058225 -0.0006437813658)
(0.0116068126 -0.000855649566 6.683116435e-05)
(0.01170946147 0.0002696220718 -0.0003677626311)
(0.007088781062 0.0007149764462 -0.000980866106)
(0.01052840466 0.001183106499 -0.0009756119599)
(0.009578221291 -0.0001202813886 -0.0001722880276)
(0.01189131185 0.001415991755 7.306305252e-05)
(0.009857079263 -0.0003524410956 0.0001310659286)
(0.009647603857 0.0003982364336 -0.0006055827304)
(0.009169883002 0.001107312877 0.000241129702)
(0.01242185552 2.121911182e-05 0.00018700564)
(0.00772125428 -0.0002083060035 0.0003826162961)
(0.01043183918 0.0004381025655 -6.331463452e-05)
(0.009126841875 0.001185324572 -4.191325928e-05)
(0.005982665631 0.0002944827701 0.0003142929196)
(0.01106567687 0.001042591835 -0.0006287511226)
(0.00541608778 0.001461928676 -0.0001191004341)
(0.01156437006 0.0005927110471 -0.0001201452147)
(0.01227541573 -0.0004293264789 -0.0003555561479)
(0.007356770933 0.000997001371 0.0003719782261)
)
;

boundaryField
{
    flow
    {
        type            zeroGradient;
    }
    obstacle
    {
        type            calculated;
        value           nonuniform List<vector> 
30
(
(3.922094524e-21 1.050922062e-21 5.125174861e-21)
(-7.999157141e-22 -2.1433677e-22 1.143907075e-22)
(0 0 0)
(4.068657056e-22 1.090193374e-22 -9.907632994e-23)
(0 0 0)
(0 0 0)
(6.26371942e-22 1.678358563e-22 -6.091300199e-22)
(3.232605157e-21 8.661739386e-22 -5.496297064e-21)
(-8.738229813e-22 -2.341401626e-22 1.253852639e-21)
(0 0 0)
(1.857895814e-21 4.978216813e-22 1.915936993e-21)
(2.536378072e-22 6.796204574e-23 -4.348203166e-22)
(4.309297589e-21 1.154672811e-21 8.244863703e-22)
(1.583126847e-21 4.241975588e-22 1.816796158e-21)
(5.573535449e-21 1.493424325e-21 7.483111235e-21)
(-7.172368451e-22 -1.921830328e-22 -2.678086326e-21)
(1.110290096e-21 2.975013352e-22 -1.400589753e-21)
(0 0 0)
(1.519477157e-21 4.071426758e-22 1.084593006e-20)
(0 0 0)
(6.993213018e-22 1.873825784e-22 -9.229149606e-23)
(7.386737741e-23 1.979270406e-23 -1.279862004e-22)
(4.911120419e-22 1.315930753e-22 -1.033058682e-21)
(0 0 0)
(-1.090213461e-21 -2.921218157e-22 -2.902999325e-22)
(3.8711437e-21 1.03726983e-21 -5.422961348e-21)
(-1.99344539e-22 -5.341420807e-23 8.726537761e-22)
(0 0 0)
(1.559488388e-20 4.17863655e-21 -1.232008036e-20)
(0 0 0)
)
;
    }
    frontAndBack
    {
        type            empty;
    }
    procBoundary1to0
    {
        type            processor;
        value           nonuniform List<vector> 
21
(
(0.005185102157 0.0006825672466 0.001198783369)
(0.01155822493 0.003296733957 0.001497998709)
(0.008165543149 0.004153070165 -0.0001685250574)
(0.01177148372 0.004878208126 9.635631966e-05)
(0.01070871358 0.003217679692 -7.028672942e-05)
(0.008617181112 0.001615700273 0.0003287264715)
(0.01439576838 0.00376457574 0.0001918770986)
(0.01175442395 0.001601622109 -0.0002553728127)
(0.009945757992 0.002982998577 0.0007472627044)
(0.005667570871 0.001898426309 0.0001715619288)
(0.008626763046 0.0007146171917 -0.0005643075051)
(0.009563696993 0.002001707116 -0.0001002854433)
(0.007051221316 0.001029762543 0.001062045825)
(0.006283585968 0.0005116743406 0.0006723126079)
(0.009814546065 0.0001373857099 -3.191059491e-05)
(0.005274409479 0.000358755522 0.0001529455906)
(0.005529584798 -0.0001764631968 0.0001656175205)
(0.009620733438 -0.0004278055606 0.0004448635032)
(0.0154571086 0.0007175052068 0.0005433314076)
(0.006058276101 1.788870907e-05 2.65457985e-05)
(0.008176156859 0.000512703374 -0.0009527907125)
)
;
    }
    procBoundary1to3
    {
        type            processor;
        value           nonuniform List<vector> 
36
(
(0.01314832746 0.00244981708 -0.001160386516)
(0.01148729315 0.002817443191 0.0006719344796)
(0.01131595222 0.001450845351 6.983001333e-05)
(0.0143749344 0.006323465638 0.0007868510572)
(0.01641905743 0.007673220039 0.001585456432)
(0.01314832746 0.00244981708 -0.001160386516)
(0.01485141631 0.006861223585 8.282125543e-05)
(0.01201149189 0.001912869738 0.001681814527)
(0.01749893002 0.003962195706 -0.0003306079738)
(0.01364741572 0.003895877259 0.001437268424)
(0.01697467968 0.004404683268 0.001479290036)
(0.01148729315 0.002817443191 0.0006719344796)
(0.01201902369 0.002975252101 0.0001982887431)
(0.01187338812 0.002961296344 -0.00106451471)
(0.01854794817 0.003467123463 0.000242496204)
(0.01266352423 0.002123437881 0.0009142130409)