/*--------------------------------*- C++ -*----------------------------------*\
  =========                 |
  \\      /  F ield         | OpenFOAM: The Open Source CFD Toolbox
   \\    /   O peration     | Website:  https://openfoam.org
    \\  /    A nd           | Version:  7
     \\/     M anipulation  |
\*---------------------------------------------------------------------------*/
FoamFile
{
    version     2.0;
    format      ascii;
    class       volScalarField;
    location    "0.004";
    object      rhoMMean;
}
// * * * * * * * * * * * * * * * * * * * * * * * * * * * * * * * * * * * * * //

dimensions      [1 -3 0 0 0 0 0];

internalField   nonuniform List<scalar> 
546
(
1.462112733e-05
1.451485421e-05
1.487703987e-05
1.462563371e-05
1.447224607e-05
1.450457711e-05
1.464116128e-05
1.459939209e-05
1.436282206e-05
1.388530099e-05
1.356630624e-05
1.373160868e-05
1.403713421e-05
1.37739509e-05
1.405310698e-05
1.406241809e-05
1.369928487e-05
1.364021057e-05
1.361016603e-05
1.355609099e-05
1.335514208e-05
1.33701589e-05
1.322203764e-05
1.334769286e-05
1.324447033e-05
1.293369753e-05
1.2279728e-05
1.17386911e-05
1.074324003e-05
8.866295089e-06
1.297991421e-05
1.305485841e-05
1.319713141e-05
1.335207893e-05
1.316779186e-05
1.294937459e-05
1.296510513e-05
1.304818332e-05
1.272916665e-05
1.284426644e-05
1.272016712e-05
1.257656169e-05
1.290951276e-05
1.266425209e-05
1.280266592e-05
1.268107517e-05
1.248651291e-05
1.238787184e-05
1.23683875e-05
1.257594074e-05
1.241719486e-05
1.234843044e-05
1.219631964e-05
1.226087345e-05
1.188198072e-05
1.173063117e-05
1.128501066e-05
1.056008512e-05
9.727984818e-06
8.350617947e-06
1.229771057e-05
1.243645008e-05
1.252943794e-05
1.244051797e-05
1.247575636e-05
1.265534618e-05
1.267964291e-05
1.217276597e-05
1.223216436e-05
1.200708183e-05
1.210225342e-05
1.201567207e-05
1.208665191e-05
1.202207342e-05
1.230478411e-05
1.190956815e-05
1.174976284e-05
1.178911888e-05
1.17623448e-05
1.168966415e-05
1.174987248e-05
1.151307192e-05
1.169954899e-05
1.129924546e-05
1.137212112e-05
1.124802961e-05
1.058833583e-05
1.004935286e-05
9.415947626e-06
8.401428939e-06
1.161706957e-05
1.169543512e-05
1.186262627e-05
1.194051636e-05
1.192474088e-05
1.204903023e-05
1.206316969e-05
1.203732302e-05
1.210011849e-05
1.193884036e-05
1.196151171e-05
1.200330316e-05
1.200475609e-05
1.184991911e-05
1.186002026e-05
1.155175681e-05
1.166699252e-05
1.152885633e-05
1.154828861e-05
1.139901483e-05
1.124856106e-05
1.148892451e-05
1.145720672e-05
1.13098502e-05
1.10445802e-05
1.070467304e-05
1.051469174e-05
1.010799568e-05
9.360958669e-06
8.392374164e-06
1.071528055e-05
1.108850261e-05
1.143778361e-05
1.171275858e-05
1.174204629e-05
1.183088053e-05
1.195325874e-05
1.195274766e-05
1.180362501e-05
1.189845029e-05
1.186833142e-05
1.180403082e-05
1.178074509e-05
1.170094882e-05
1.170656831e-05
1.146541766e-05
1.144262167e-05
1.155519301e-05
1.143703725e-05
1.123498252e-05
1.139073156e-05
1.142872472e-05
1.118098064e-05
1.098136653e-05
1.063120983e-05
1.068113982e-05
1.035418419e-05
9.807820181e-06
9.376392048e-06
8.520514693e-06
9.804566771e-06
1.042534539e-05
1.075058089e-05
1.101576703e-05
1.141387311e-05
1.146621682e-05
1.196184491e-05
1.181531918e-05
1.176406312e-05
1.19123372e-05
1.198813744e-05
1.170159512e-05
1.186067962e-05
1.161695153e-05
1.175029018e-05
1.159587668e-05
1.172080366e-05
1.129803261e-05
1.126519731e-05
1.123821144e-05
1.109549726e-05
1.116951932e-05
1.109916168e-05
1.099838414e-05
1.093027541e-05
1.060819509e-05
1.028312441e-05
1.000424876e-05
9.533781382e-06
8.925085274e-06
9.034680328e-06
9.446433313e-06
9.871744317e-06
1.039650611e-05
1.074094445e-05
1.100775878e-05
1.130955241e-05
1.156868619e-05
1.17463816e-05
1.162400272e-05
1.17041056e-05
1.144104562e-05
1.149057113e-05
1.150204706e-05
1.162270479e-05
1.171598359e-05
1.169402974e-05
1.165833379e-05
1.143182606e-05
1.132250458e-05
1.135065308e-05
1.134548382e-05
1.111263675e-05
1.087036042e-05
1.082146676e-05
1.079163569e-05
1.053889194e-05
1.024730831e-05
9.728742491e-06
9.18282622e-06
8.117399349e-06
8.636604203e-06
9.063335096e-06
9.513241159e-06
1.001151799e-05
1.032241663e-05
1.064885947e-05
1.096556046e-05
1.114722626e-05
1.136236243e-05
1.152939876e-05
1.157888599e-05
1.171708541e-05
1.172922857e-05
1.153922031e-05
1.151859564e-05
1.16653365e-05
1.15644218e-05
1.156288824e-05
1.139842027e-05
1.143557137e-05
1.135102942e-05
1.111552252e-05
1.103362911e-05
1.085918653e-05
1.066975878e-05
1.059983261e-05
1.022193233e-05
9.985404059e-06
9.614423055e-06
7.28763471e-06
7.806506454e-06
8.288112222e-06
8.715224638e-06
9.150362435e-06
9.628923804e-06
9.957397231e-06
1.033039348e-05
1.072931711e-05
1.110684236e-05
1.131929928e-05
1.144947249e-05
1.156591938e-05
1.163510968e-05
1.156322092e-05
1.156240022e-05
1.157299399e-05
1.174416604e-05
1.17318322e-05
1.164882486e-05
1.152533485e-05
1.158939183e-05
1.135901111e-05
1.110923542e-05
1.111670704e-05
1.080284791e-05
1.054708777e-05
1.050792345e-05
1.013431419e-05
9.750283343e-06
6.723917856e-06
7.163255565e-06
7.625009063e-06
7.894079326e-06
8.292960869e-06
8.763011664e-06
9.2335903e-06
9.7744257e-06
1.011880221e-05
1.030712858e-05
1.062427193e-05
1.096344238e-05
1.105082204e-05
1.128434508e-05
1.155999035e-05
1.152980799e-05
1.162439899e-05
1.164829631e-05
1.1606486e-05
1.169818271e-05
1.134905276e-05
1.128820421e-05
1.143014594e-05
1.140499902e-05
1.123816477e-05
1.111257195e-05
1.081113059e-05
1.060295173e-05
1.044833192e-05
1.005650869e-05
6.326763421e-06
6.508760827e-06
6.968703267e-06
7.423806874e-06
7.696752471e-06
8.158442175e-06
8.57209875e-06
8.918511994e-06
9.348686163e-06
9.743550311e-06
1.00450159e-05
1.052782391e-05
1.089417098e-05
1.121337883e-05
1.145184232e-05
1.153986419e-05
1.151772181e-05
1.129153453e-05
1.137372683e-05
1.14797499e-05
1.156464753e-05
1.165353083e-05
1.155056454e-05
1.136535504e-05
1.125971949e-05
1.127684102e-05
1.096397242e-05
1.072733364e-05
1.051945256e-05
1.03786642e-05
5.776959986e-06
6.105192795e-06
6.402405875e-06
6.717892921e-06
7.201279488e-06
7.562267943e-06
7.8826343e-06
8.289103222e-06
8.671615344e-06
9.190148423e-06
9.617473765e-06
9.909599733e-06
1.027263163e-05
1.056708404e-05
1.094338212e-05
1.116348023e-05
1.130600114e-05
1.141826857e-05
1.143686538e-05
1.166610844e-05
1.177042843e-05
1.159217149e-05
1.148993705e-05
1.152179718e-05
1.135564362e-05
1.13798701e-05
1.121570677e-05
1.090204205e-05
1.081811204e-05
1.071279854e-05
5.605493934e-06
5.78119315e-06
5.989138032e-06
6.223441572e-06
6.457421283e-06
6.799347076e-06
7.181020949e-06
7.562813935e-06
8.074124564e-06
8.502063143e-06
9.00177475e-06
9.366073441e-06
9.769673951e-06
1.019121852e-05
1.040036434e-05
1.077198081e-05
1.118427379e-05
1.138671818e-05
1.153621605e-05
1.150311462e-05
1.157270698e-05
1.184885804e-05
1.175188007e-05
1.160896694e-05
1.144176566e-05
1.139680621e-05
1.150975008e-05
1.141536312e-05
1.116807358e-05
1.082705712e-05
5.309801308e-06
5.454461777e-06
5.64016509e-06
5.930896607e-06
6.073209051e-06
6.381135462e-06
6.699705394e-06
7.077571753e-06
7.432767061e-06
7.918598524e-06
8.330835208e-06
8.742065907e-06
9.073279792e-06
9.527018707e-06
9.866542898e-06
1.026717852e-05
1.06387569e-05
1.096681297e-05
1.11086397e-05
1.127207626e-05
1.14423358e-05
1.14085482e-05
1.153755068e-05
1.161234896e-05
1.14868936e-05
1.151255761e-05
1.14852384e-05
1.154735978e-05
1.141109131e-05
1.12896103e-05
5.290543299e-06
5.384293603e-06
5.458866688e-06
5.597819417e-06
5.816077432e-06
6.041302757e-06
6.240362046e-06
6.500380651e-06
6.79012934e-06
7.085991195e-06
7.452628262e-06
7.842724343e-06
8.240070395e-06
8.686895134e-06
9.163348823e-06
9.516802811e-06
9.883312524e-06
1.019436384e-05
1.065500136e-05
1.107381559e-05
1.112753843e-05
1.15100352e-05
1.160696982e-05
1.162129819e-05
1.165100282e-05
1.161238705e-05
1.149160773e-05
1.139883846e-05
1.135372856e-05
1.110515633e-05
5.206631606e-06
5.232975978e-06
5.29873701e-06
5.382902503e-06
5.510889052e-06
5.653986633e-06
5.838041392e-06
6.075178739e-06
6.357393712e-06
6.517826902e-06
6.870744821e-06
7.285204669e-06
7.698814202e-06
8.014147113e-06
8.463389375e-06
8.907168045e-06
9.324235868e-06
9.668756604e-06
9.955609535e-06
1.034320448e-05
1.059391462e-05
1.088636643e-05
1.137008795e-05
1.172123821e-05
1.167478763e-05
1.158666136e-05
1.164448817e-05
1.15340683e-05
1.147535029e-05
4.997460371e-06
5.076925896e-06
5.176580683e-06
5.343512175e-06
5.441658542e-06
5.524904117e-06
5.640018523e-06
5.76597106e-06
5.966230716e-06
6.307870211e-06
6.546038161e-06
6.790126076e-06
7.161756662e-06
7.501802884e-06
7.840666461e-06
8.209932544e-06
8.552369788e-06
8.986198677e-06
9.484881016e-06
9.815069443e-06
1.028352263e-05
1.051416114e-05
1.074638867e-05
1.118055373e-05
4.968593696e-06
5.036329194e-06
5.067643035e-06
5.089362825e-06
5.106607253e-06
5.177081399e-06
5.331102359e-06
5.519136803e-06
5.646575386e-06
5.782974235e-06
5.942812156e-06
6.203123475e-06
6.387304116e-06
6.713691394e-06
7.150777954e-06
7.561356293e-06
7.998695137e-06
8.410247684e-06
8.957457531e-06
4.902767243e-06
4.976291229e-06
5.001999384e-06
5.058646421e-06
5.125288397e-06
5.231062833e-06
5.24946386e-06
5.316600229e-06
5.341136819e-06
5.479933797e-06
5.664488298e-06
5.877448233e-06
6.1413646e-06
6.461566532e-06
4.94115038e-06
4.952913653e-06
4.932367866e-06
4.961751393e-06
5.019178087e-06
5.017849724e-06
5.097855357e-06
5.224970007e-06
4.845187155e-06
4.835337417e-06
)
;

boundaryField
{
    flow
    {
        type            calculated;
        value           nonuniform List<scalar> 
15
(
8.866295089e-06
8.350617947e-06
8.401428939e-06
8.392374164e-06
8.520514693e-06
8.925085274e-06
9.18282622e-06
9.614423055e-06
9.750283343e-06
1.005650869e-05
1.03786642e-05
1.071279854e-05
1.082705712e-05
1.12896103e-05
1.110515633e-05
)
;
    }
    obstacle
    {
        type            calculated;
        value           nonuniform List<scalar> 
30
(
6.482024712e-24
6.150019456e-24
6.625014268e-24
6.694898148e-24
6.274670321e-24
6.338204416e-24
6.35968035e-24
6.298143212e-24
6.359660597e-24
5.945205054e-24
5.856061214e-24
5.903282958e-24
6.156878401e-24
6.320653076e-24
6.07946106e-24
6.169006238e-24
5.744797286e-24
5.921886499e-24
5.988083549e-24
5.885595162e-24
5.715194642e-24
5.728747732e-24
5.702914129e-24
5.861890157e-24
5.576965451e-24
5.460208754e-24
5.489904129e-24
4.976225467e-24
4.714773922e-24
3.840024623e-24
)
;
    }
    frontAndBack
    {
        type            empty;
    }
    procBoundary1to0
    {
        type            processor;
        value           nonuniform List<scalar> 
21
(
1.508836142e-05
1.318634866e-05
1.215968282e-05
1.120773284e-05
1.026364518e-05
9.485836872e-06
8.506914988e-06
7.757860222e-06
6.817521046e-06
6.426218452e-06
6.04405006e-06
5.530271305e-06
5.449284232e-06
5.249419677e-06
5.111445709e-06
5.107788754e-06
4.989759019e-06
4.941612292e-06
4.907059279e-06
4.963366723e-06
4.777768237e-06
)
;
    }
    procBoundary1to3
    {
        type            processor;
        value           nonuniform List<scalar> 
36
(
1.15256657e-05
1.14977735e-05
1.167307244e-05
1.167624138e-05
1.171202181e-05
1.15256657e-05
1.174166021e-05
9.314658259e-06
9.617888671e-06
9.877356118e-06
1.028995663e-05
1.14977735e-05
1.061020139e-05
6.678277414e-06
7.008542001e-06
7.431726986e-06
7.850235908e-06
9.314658259e-06
8.15831222e-06
5.3127853e-06
5.455697383e-06
5.548375206e-06
5.663347812e-06
5.736568512e-06
6.678277414e-06
5.893519654e-06
4.904954839e-06
4.951195304e-06
4.96331974e-06
5.03643431e-06
5.052222568e-06
5.3127853e-06
5.092506129e-06
4.847758831e-06
4.904954839e-06
4.876828087e-06
)
;
    }
}


// ************************************************************************* //
