/*--------------------------------*- C++ -*----------------------------------*\
  =========                 |
  \\      /  F ield         | OpenFOAM: The Open Source CFD Toolbox
   \\    /   O peration     | Website:  https://openfoam.org
    \\  /    A nd           | Version:  7
     \\/     M anipulation  |
\*---------------------------------------------------------------------------*/
FoamFile
{
    version     2.0;
    format      ascii;
    class       volScalarField;
    location    "0.004";
    object      rhoM;
}
// * * * * * * * * * * * * * * * * * * * * * * * * * * * * * * * * * * * * * //

dimensions      [1 -3 0 0 0 0 0];

internalField   nonuniform List<scalar> 
546
(
1.639020888e-06
1.576318624e-06
5.519564452e-06
1.675871828e-06
3.30055391e-06
2.242804595e-06
6.234417784e-06
2.905530319e-06
3.324468328e-06
3.589058675e-06
4.020030147e-06
2.269320882e-06
3.431337672e-06
3.705368347e-06
1.826442925e-06
3.849825503e-06
5.402080793e-06
2.383327381e-06
2.488993743e-06
4.32812792e-06
2.531748521e-06
2.6414469e-06
3.90826291e-06
1.254697373e-06
5.333750013e-06
2.554434127e-06
4.510739789e-06
1.950839864e-06
4.311387875e-06
4.068616618e-06
3.352297995e-06
2.85161124e-06
3.780798057e-06
3.885059014e-06
3.914395461e-06
4.562690319e-06
2.182327815e-06
3.377055301e-06
1.187037759e-06
5.105335684e-06
4.180289087e-06
4.619410066e-06
2.368975849e-06
1.811645661e-06
1.909190338e-06
3.013520604e-06
1.856774665e-06
5.021132616e-06
3.175398826e-06
5.279190117e-06
3.229944358e-06
5.107363002e-06
1.332265095e-06
4.570066538e-06
3.344857164e-06
1.368132946e-06
3.313696158e-06
1.950839866e-06
3.468248188e-06
2.649543768e-06
3.352297993e-06
2.176562676e-06
2.192753588e-06
4.799838216e-06
2.378867126e-06
1.701373728e-06
3.896745771e-06
2.277460934e-06
1.18703776e-06
2.792130569e-06
3.457187191e-06
2.269320882e-06
2.859448058e-06
1.15304576e-06
5.231086533e-06
5.607880556e-06
2.447659019e-06
1.787495534e-06
2.488993743e-06
3.635877667e-06
3.841128581e-06
2.465916098e-06
2.66453019e-06
3.136743432e-06
3.344857164e-06
2.554434127e-06
7.36130561e-07
3.994257218e-06
4.031094032e-06
1.987157828e-06
3.203785561e-06
2.627197705e-06
2.268114551e-06
4.570225887e-06
2.686712359e-06
1.15994286e-06
2.883253964e-06
2.905530319e-06
2.770390274e-06
5.584261138e-07
2.693262673e-289
2.917419403e-06
4.575116893e-06
1.811645663e-06
2.906159185e-06
3.516110106e-06
4.304433684e-06
2.468153332e-06
2.403451541e-06
3.635877667e-06
1.920564294e-06
1.320723451e-06
3.731198165e-06
5.646138173e-06
2.079000094e-06
4.013482954e-06
3.866348394e-06
3.994257225e-06
3.37481691e-06
4.257218539e-06
1.564764672e-06
1.050879082e-06
3.931519981e-06
3.275817898e-06
2.839710517e-06
2.319885723e-06
5.065581779e-06
4.789738472e-06
3.561113278e-06
5.902263789e-06
3.939900677e-06
2.917419407e-06
3.512755075e-06
3.459137284e-06
5.81231837e-07
1.841483902e-06
5.402080797e-06
4.510126732e-06
4.3771246e-06
1.211959221e-06
3.667105373e-06
3.786639545e-06
3.90826291e-06
5.018789491e-06
3.977785706e-06
5.929308539e-06
4.510739773e-06
4.644537189e-06
8.062188071e-06
4.731002573e-06
2.756453556e-06
3.678076792e-06
2.19275359e-06
1.751797586e-06
1.765025574e-06
1.624292603e-06
2.805581866e-06
2.905530319e-06
2.374075519e-06
1.754779004e-06
1.205815377e-06
1.782758962e-06
2.287558445e-06
2.306091519e-06
5.313833943e-06
2.427502253e-06
3.122664975e-06
7.489285948e-06
3.089856628e-06
1.817938835e-06
4.452312817e-06
2.465916104e-06
5.329060408e-06
3.136743432e-06
5.153535487e-06
1.277217064e-06
1.933174206e-06
2.601119823e-06
4.217956583e-06
3.406230654e-06
7.077671777e-06
4.80376038e-06
3.780798054e-06
3.351743654e-06
1.074684944e-06
3.944178326e-06
3.35116382e-06
3.2987831e-06
5.540780547e-07
5.743262466e-06
2.974473712e-06
3.565517931e-06
2.940865463e-06
4.199814206e-06
5.812318366e-07
1.758055052e-06
3.629427729e-06
1.787495534e-06
3.089856639e-06
6.146066803e-06
6.111842339e-07
1.937202486e-06
4.9749309e-06
3.226056321e-06
4.61071429e-06
1.915825612e-06
4.694218139e-06
4.551959691e-06
4.124525339e-06
4.825303583e-06
3.725373785e-06
1.576318624e-06
2.646740783e-06
2.209187187e-06
2.763211438e-06
6.264064044e-06
2.727909769e-06
2.827258118e-06
4.590387741e-06
4.546909574e-06
2.411630754e-06
5.673302201e-07
2.450393252e-06
2.306091523e-06
5.479328789e-06
4.185557317e-06
1.856774662e-06
3.659817003e-06
5.493308144e-06
3.722148297e-06
1.222368449e-06
5.019597541e-06
3.819730514e-06
2.598707608e-06
3.977785678e-06
2.645349985e-06
6.535653066e-06
4.086834679e-06
5.250216987e-06
3.974315626e-06
2.23486533e-06
4.427929864e-06
1.663405431e-06
2.666576787e-06
6.21676351e-06
3.325666332e-06
3.35116382e-06
1.099594367e-06
4.511506088e-06
2.313205117e-06
5.305974983e-06
3.971311547e-06
2.450393256e-06
2.388168547e-06
3.652885854e-06
3.096949433e-06
3.12266497e-06
3.063985186e-06
4.377124596e-06
1.817938826e-06
4.015151796e-06
3.78663957e-06
3.90826292e-06
4.480753664e-06
5.876571272e-06
4.561175604e-06
2.577565607e-06
3.901679735e-06
4.311387864e-06
4.825303539e-06
4.469730657e-06
3.302246268e-06
3.402171827e-06
2.742502543e-06
3.914395461e-06
4.408528065e-06
4.675344013e-06
3.92685249e-06
2.216312217e-06
4.546909557e-06
6.431660928e-06
3.484749623e-06
2.940865449e-06
1.729568642e-06
8.30274052e-06
7.951953973e-06
1.181768717e-06
1.872321493e-06
2.574535941e-06
5.020378201e-06
3.928140192e-06
2.02496787e-06
4.44159691e-06
3.942717845e-06
2.531714148e-06
3.28395854e-06
1.288782792e-06
3.901679735e-06
7.312479638e-06
1.324771875e-06
4.246962009e-06
3.75288129e-06
2.797462695e-06
1.675871825e-06
2.839710517e-06
3.479828589e-06
3.896745792e-06
3.926852502e-06
4.036309689e-06
2.313205114e-06
3.617446114e-06
4.780946667e-06
3.431337683e-06
2.964691424e-06
5.313833973e-06
4.185557313e-06
3.713549293e-06
4.170822892e-06
8.153386307e-06
3.116168688e-06
5.063497047e-06
6.252555683e-06
6.218663624e-07
5.197415216e-06
6.509499803e-06
6.749748844e-06
4.602478976e-06
5.945097093e-06
6.186788009e-06
4.068616666e-06
2.086352904e-06
4.27832086e-06
2.797462722e-06
3.199892151e-06
2.763211436e-06
6.651332635e-06
3.273491698e-06
2.905530288e-06
5.38111071e-06
1.116852234e-06
6.02907695e-06
1.134660449e-06
4.003227297e-06
2.964691424e-06
2.573169583e-06
6.110470068e-06
6.752092747e-06
3.14881114e-06
4.291582396e-06
2.596459725e-06
4.976485401e-06
3.082395088e-06
3.819730482e-06
1.254697371e-06
5.876571374e-06
4.561175644e-06
4.049826737e-06
8.081091941e-06
3.374816898e-06
5.487689433e-06
2.682197329e-06
3.752881276e-06
3.780798049e-06
2.20918719e-06
5.373424715e-06
7.26984468e-06
6.389762027e-06
4.476649688e-06
3.561113284e-06
3.988483451e-06
5.065586558e-06
3.971311509e-06
1.715668828e-06
4.199814206e-06
2.407674755e-06
1.924912739e-06
5.992965138e-06
4.851480726e-06
4.892445281e-06
4.500669234e-06
4.976485485e-06
5.636076655e-06
6.218663624e-07
6.541425453e-06
3.254749902e-06
2.006741459e-06
4.694218097e-06
1.300559912e-06
6.749633796e-06
3.406230654e-06
4.694294003e-06
2.101758167e-06
4.385507167e-06
1.599946064e-06
3.224054829e-06
2.165723461e-06
1.091163899e-06
1.649391545e-06
3.957428039e-06
5.18483634e-06
5.788688447e-06
2.917419403e-06
2.450393242e-06
4.694260029e-06
5.812318352e-07
5.607880565e-06
2.447659015e-06
5.021132592e-06
3.605177311e-06
5.540087123e-06
5.674681229e-06
1.937202469e-06
2.575997822e-06
7.168774139e-06
3.887678433e-06
4.561175604e-06
3.958087539e-06
6.130252019e-06
2.625108494e-06
5.29908755e-06
3.278041791e-06
3.902490354e-06
4.914855358e-06
6.246097726e-06
5.065579517e-06
4.408528081e-06
4.910237584e-06
5.182991277e-06
3.957428039e-06
5.743262453e-06
2.814214776e-06
2.836651122e-06
5.309841331e-06
3.541214305e-06
5.313833973e-06
1.172036704e-06
7.595341847e-06
3.063985186e-06
5.149071924e-06
5.540087169e-06
2.444736919e-06
2.641446915e-06
4.085327665e-06
5.286728083e-06
3.887678467e-06
7.206525676e-06
1.933174206e-06
7.245657004e-06
2.718539799e-06
5.29908755e-06
5.364394658e-06
2.7020022e-06
3.251449893e-06
3.885059022e-06
3.530051144e-06
3.867097212e-06
2.337672028e-06
5.654516261e-06
4.986702538e-06
5.025835051e-06
3.617446114e-06
2.836651078e-06
2.940865449e-06
6.423828708e-06
3.071654004e-06
3.013520609e-06
5.317959227e-06
2.46815334e-06
3.690719511e-06
4.241857295e-06
3.229944385e-06
3.257925944e-06
1.865599087e-06
2.509394741e-06
3.254749902e-06
5.10886821e-06
5.246870331e-06
5.294817137e-06
1.96883137e-06
1.043176445e-06
3.227441761e-06
3.176088953e-06
3.275817907e-06
3.377052986e-06
3.944178308e-06
4.987909644e-06
4.633194021e-06
4.036309658e-06
3.430057365e-06
3.61744617e-06
3.565517953e-06
5.391258734e-06
1.811645663e-06
5.479328758e-06
3.013520585e-06
3.12266497e-06
1.276489646e-06
2.488993741e-06
5.106648805e-06
3.22994433e-06
6.164790177e-07
3.109331786e-06
3.764092145e-06
4.917062686e-06
1.651123136e-06
2.797462681e-06
4.342448593e-06
1.765025572e-06
3.325666342e-06
4.442327761e-06
2.827258131e-06
3.878546389e-06
2.23370445e-06
4.020030125e-06
4.132848145e-06
1.225196631e-06
2.882614403e-06
4.898096962e-06
1.75805507e-06
2.954421769e-06
3.148811114e-06
5.578850366e-06
4.543986892e-06
1.576318625e-06
2.722101758e-06
4.875763983e-06
6.677606894e-06
2.165723461e-06
5.143253838e-06
4.554921855e-06
4.511506095e-06
4.147484779e-06
3.537316672e-06
6.644473932e-06
2.940865449e-06
2.388168544e-06
3.278041767e-06
4.427929835e-06
2.646740775e-06
4.418374381e-06
4.298739804e-06
6.186982941e-06
3.428835918e-06
5.732788463e-06
1.564764679e-06
1.125683603e-06
)
;

boundaryField
{
    flow
    {
        type            zeroGradient;
    }
    obstacle
    {
        type            calculated;
        value           nonuniform List<scalar> 
30
(
2.225073859e-308
2.225073859e-308
2.225073859e-308
2.225073859e-308
2.225073859e-308
7.273633184e-23
2.225073859e-308
2.225073859e-308
1.358149959e-23
2.225073859e-308
2.681806749e-24
2.225073859e-308
2.225073859e-308
2.225073859e-308
2.225073859e-308
5.204435644e-24
2.225073859e-308
2.225073859e-308
2.225073859e-308
2.225073859e-308
2.225073859e-308
2.225073859e-308
1.629075656e-23
2.225073859e-308
2.225073859e-308
2.225073859e-308
1.024447188e-23
2.225073859e-308
2.225073859e-308
2.225073859e-308
)
;
    }
    frontAndBack
    {
        type            empty;
    }
    procBoundary1to0
    {
        type            processor;
        value           nonuniform List<scalar> 
21
(
2.588964772e-06
4.216059536e-06
2.588964772e-06
1.553378863e-06
2.736396575e-06
2.071171819e-06
2.736396573e-06
4.363491336e-06
3.845698382e-06
4.142343636e-06
2.144887718e-06
2.736396584e-06
4.80756839e-06
4.142343606e-06
3.180473627e-06
4.66013659e-06
3.771982481e-06
3.698266581e-06
4.437207268e-06
3.698266581e-06
3.771982481e-06
)
;
    }
    procBoundary1to3
    {
        type            processor;
        value           nonuniform List<scalar> 
36
(
3.406230685e-06
4.790928782e-06
3.922567107e-06
3.958087574e-06
2.693697314e-06
3.406230685e-06
8.905327727e-06
7.530567239e-06
5.063497047e-06
3.78663957e-06
3.731198175e-06
4.790928782e-06
3.136743427e-06
6.143308008e-06
5.860183473e-07
2.447659015e-06
5.36248662e-06
7.530567239e-06
3.089856626e-06
9.655971895e-06
1.675278338e-06
2.251371803e-06
5.186740283e-06
4.0846447e-06
6.143308008e-06
3.046768445e-06
4.914855358e-06
2.742502549e-06
5.67942103e-06
1.624292608e-06
2.883253986e-06
9.655971895e-06
4.083396905e-06
4.395474428e-06
4.914855358e-06
4.878564862e-06
)
;
    }
}


// ************************************************************************* //
