/*--------------------------------*- C++ -*----------------------------------*\
  =========                 |
  \\      /  F ield         | OpenFOAM: The Open Source CFD Toolbox
   \\    /   O peration     | Website:  https://openfoam.org
    \\  /    A nd           | Version:  7
     \\/     M anipulation  |
\*---------------------------------------------------------------------------*/
FoamFile
{
    version     2.0;
    format      ascii;
    class       volScalarField;
    location    "0.004";
    object      rhoN;
}
// * * * * * * * * * * * * * * * * * * * * * * * * * * * * * * * * * * * * * //

dimensions      [0 -3 0 0 0 0 0];

internalField   nonuniform List<scalar> 
546
(
3.365085317e+19
3.389932525e+19
1.138383132e+20
3.440744241e+19
6.93345125e+19
4.657469827e+19
1.290623977e+20
5.91179767e+19
7.149394255e+19
7.205498243e+19
8.472904682e+19
4.880259961e+19
7.379220801e+19
7.439004912e+19
3.74988282e+19
7.56152711e+19
1.143647138e+20
5.125435227e+19
5.168712995e+19
9.122273708e+19
5.257498747e+19
5.303045372e+19
8.024082075e+19
2.69827392e+19
1.088909307e+20
5.493406725e+19
9.700515675e+19
4.195354546e+19
8.468091938e+19
8.546915379e+19
6.730170638e+19
5.649887541e+19
7.968681921e+19
8.028403229e+19
8.089026458e+19
9.314939661e+19
4.693178097e+19
7.094157204e+19
2.383131418e+19
1.080824736e+20
8.472904682e+19
9.760519923e+19
4.91948053e+19
3.719502453e+19
3.749882817e+19
6.301272592e+19
3.812157127e+19
1.025087045e+20
6.460891238e+19
1.042545567e+20
6.571873439e+19
1.060609075e+20
2.674694027e+19
9.44395872e+19
6.805683169e+19
2.746703365e+19
6.928939774e+19
4.19535455e+19
7.056743281e+19
5.697943586e+19
6.730170633e+19
4.519910033e+19
4.553532527e+19
1.032223272e+20
4.622300837e+19
3.49310237e+19
8.213061664e+19
4.729438136e+19
2.38313142e+19
6.004581869e+19
7.262489722e+19
4.880259961e+19
6.149350663e+19
2.479668302e+19
1.124964846e+20
1.134229067e+20
5.082876169e+19
3.844076417e+19
5.168712995e+19
7.819091756e+19
7.886248113e+19
5.303045372e+19
5.349388055e+19
6.7456848e+19
6.805683169e+19
5.493406725e+19
1.385787954e+19
8.390709092e+19
8.468091938e+19
4.273457694e+19
6.730170633e+19
5.649887537e+19
4.553532527e+19
9.175317982e+19
5.777876042e+19
2.328734913e+19
5.866472621e+19
5.91179767e+19
5.957828546e+19
1.200916374e+19
2.693262673e-289
6.100324947e+19
9.83896106e+19
3.719502456e+19
6.249804699e+19
7.56152711e+19
8.895033296e+19
5.125435223e+19
5.168712991e+19
7.819091756e+19
3.943124063e+19
2.651522688e+19
8.024082075e+19
1.214223263e+20
4.083409901e+19
8.240110088e+19
8.314727729e+19
8.390709107e+19
7.056743288e+19
8.546915356e+19
3.365085317e+19
2.259955015e+19
7.968681916e+19
6.881488477e+19
5.777876042e+19
4.65746983e+19
1.055965072e+20
9.458876272e+19
7.149394255e+19
1.200916373e+20
8.472904682e+19
6.100324956e+19
7.379220801e+19
7.439004912e+19
1.24996094e+19
3.780763555e+19
1.143647139e+20
8.969511655e+19
9.045247741e+19
2.606363917e+19
7.886248113e+19
7.954568051e+19
8.024082075e+19
1.079309568e+20
8.166819817e+19
1.236016511e+20
9.700515641e+19
9.789160642e+19
1.693618389e+20
9.971401303e+19
5.608475536e+19
7.909842564e+19
4.55353253e+19
3.440744243e+19
3.466725627e+19
3.493102373e+19
5.866472621e+19
5.91179767e+19
4.766262837e+19
3.602749119e+19
2.420829907e+19
3.660194968e+19
4.919480526e+19
4.9593366e+19
1.124964845e+20
5.041018073e+19
6.353595212e+19
1.537630567e+20
6.460891244e+19
3.909545881e+19
9.200622814e+19
5.303045385e+19
1.069877616e+20
6.7456848e+19
1.088909299e+20
2.746703363e+19
4.157363883e+19
5.593806071e+19
8.468091915e+19
7.122429437e+19
1.458203637e+20
1.016979757e+20
7.968681916e+19
6.881488477e+19
2.311150417e+19
8.150572203e+19
7.039767146e+19
7.094157204e+19
1.191565709e+19
1.200916374e+20
6.052074778e+19
7.320389948e+19
6.149350667e+19
8.678839064e+19
1.249960939e+19
3.780763552e+19
7.624314254e+19
3.844076417e+19
6.460891265e+19
1.303181969e+20
1.314374697e+19
3.977284053e+19
1.069877613e+20
6.745684847e+19
9.527956553e+19
4.12005508e+19
9.700515727e+19
9.789160625e+19
8.468091991e+19
9.971401394e+19
7.851865739e+19
3.389932525e+19
5.691915662e+19
4.587658991e+19
5.777876042e+19
1.280804202e+20
5.866472621e+19
5.91179767e+19
9.53252568e+19
9.60733099e+19
4.841659815e+19
1.220064989e+19
4.91948053e+19
4.959336608e+19
1.124964849e+20
8.82178165e+19
3.812157121e+19
7.688152797e+19
1.162960418e+20
7.819091724e+19
2.628749353e+19
1.060609063e+20
8.024082027e+19
5.396547831e+19
8.16681976e+19
5.493406677e+19
1.385787936e+20
8.390709032e+19
1.129078922e+20
8.546915325e+19
4.486780426e+19
9.039820066e+19
3.415149392e+19
5.734573735e+19
1.27113273e+20
6.986204746e+19
7.039767146e+19
2.364719068e+19
9.532525673e+19
4.803665491e+19
1.089373457e+20
8.540454939e+19
4.919480538e+19
4.959336616e+19
7.499765645e+19
6.301272551e+19
6.353595201e+19
6.40679405e+19
9.045247734e+19
3.909545862e+19
7.886248126e+19
7.954568105e+19
8.024082096e+19
9.443958704e+19
1.225022964e+20
9.61346177e+19
5.543151844e+19
8.390709107e+19
8.468091915e+19
9.971401303e+19
8.973560845e+19
6.779865045e+19
6.83029879e+19
5.734573735e+19
8.089026458e+19
9.314939654e+19
9.38635618e+19
8.276516751e+19
4.766262833e+19
9.607330953e+19
1.331456455e+20
7.320389936e+19
6.149350638e+19
3.719502456e+19
1.74994531e+20
1.638330877e+20
2.541438101e+19
3.84407643e+19
5.168712991e+19
1.042545572e+20
7.886248126e+19
3.977284019e+19
9.361429112e+19
8.094821746e+19
5.444546554e+19
6.866758407e+19
2.771575897e+19
8.390709107e+19
1.552483518e+20
2.848971775e+19
8.973560845e+19
7.909842535e+19
5.691915633e+19
3.440744233e+19
5.777876042e+19
6.986204756e+19
8.213061707e+19
8.276516776e+19
8.340959977e+19
4.803665484e+19
7.262489688e+19
9.760519915e+19
7.379220824e+19
6.19917076e+19
1.124964851e+20
8.821781643e+19
7.62431418e+19
8.969511596e+19
1.679831722e+20
6.51590977e+19
1.05149975e+20
1.325761351e+20
1.337347016e+19
1.079309566e+20
1.361136627e+20
1.373351681e+20
9.700515727e+19
1.258606366e+20
1.270213799e+20
8.546915481e+19
4.486780438e+19
9.039820105e+19
5.691915687e+19
6.881488497e+19
5.777876037e+19
1.397240943e+20
7.039767093e+19
5.911797608e+19
1.072409132e+20
2.40183276e+19
1.210414967e+20
2.440129998e+19
8.609090961e+19
6.19917076e+19
4.999843743e+19
1.26025452e+20
1.397790956e+20
6.40679405e+19
9.045247734e+19
5.212727816e+19
1.051499741e+20
6.628806642e+19
8.024081959e+19
2.698273915e+19
1.225022985e+20
9.613461854e+19
8.314727766e+19
1.678141821e+20
7.056743262e+19
1.13958871e+20
5.608475512e+19
7.909842506e+19
7.968681904e+19
4.587658998e+19
1.155575207e+20
1.513677699e+20
1.290623986e+20
9.458876315e+19
7.149394266e+19
8.406414597e+19
1.089373453e+20
8.540454859e+19
3.689610383e+19
8.678839064e+19
4.999843743e+19
3.780763531e+19
1.27071904e+20
1.025087048e+20
1.033742598e+20
9.122273754e+19
1.051499759e+20
1.193185216e+20
1.337347016e+19
1.349136958e+20
6.805683133e+19
4.120055008e+19
9.700515641e+19
2.796903036e+19
1.411348652e+20
7.122429437e+19
1.009525592e+20
4.519910036e+19
9.107065033e+19
3.440744223e+19
6.933451245e+19
4.65746981e+19
2.346589031e+19
3.547078591e+19
8.340959977e+19
1.080824734e+20
1.210414948e+20
6.100324947e+19
4.919480511e+19
9.918673137e+19
1.249960936e+19
1.134229068e+20
5.082876161e+19
1.02508704e+20
7.753069486e+19
1.172863759e+20
1.182937209e+20
3.977284019e+19
5.349388064e+19
1.484050653e+20
8.16681976e+19
9.61346177e+19
8.314727692e+19
1.258606355e+20
5.64539461e+19
1.13958872e+20
6.730170662e+19
7.909842621e+19
1.024544824e+20
1.261606224e+20
1.040017694e+20
9.314939689e+19
1.055965072e+20
1.064123585e+20
8.340959977e+19
1.200916371e+20
6.052074787e+19
6.100324995e+19
1.106883124e+20
7.439004912e+19
1.124964851e+20
2.520509041e+19
1.524862848e+20
6.40679405e+19
1.033742607e+20
1.172863768e+20
5.257498751e+19
5.303045403e+19
8.024082096e+19
1.079309566e+20
8.166819831e+19
1.510686863e+20
4.157363883e+19
1.53829667e+20
5.645394661e+19
1.13958872e+20
1.121695102e+20
5.649887505e+19
6.830298775e+19
8.028403246e+19
6.933451245e+19
8.150572227e+19
4.693178132e+19
1.182359539e+20
1.072409148e+20
1.080824742e+20
7.262489688e+19
6.100324899e+19
6.149350638e+19
1.363817567e+20
6.249804679e+19
6.301272602e+19
1.143647146e+20
5.12543524e+19
7.753069486e+19
9.122273754e+19
6.571873494e+19
6.628806754e+19
4.012041048e+19
5.396547831e+19
6.805683133e+19
1.098681335e+20
1.108630359e+20
1.118761214e+20
4.234045957e+19
2.243390205e+19
6.779865055e+19
6.830298825e+19
6.881488497e+19
6.933451245e+19
8.150572167e+19
1.055965064e+20
9.458876172e+19
8.340959913e+19
7.205498281e+19
7.262489801e+19
7.320389993e+19
1.106883124e+20
3.719502456e+19
1.124964842e+20
6.301272551e+19
6.353595201e+19
2.56271762e+19
5.168712991e+19
1.042545563e+20
6.571873383e+19
1.325761328e+19
6.686735023e+19
8.094821816e+19
1.009525599e+20
3.389932527e+19
5.691915604e+19
9.175317928e+19
3.466725622e+19
6.986204766e+19
9.386356265e+19
5.911797697e+19
8.340959977e+19
4.803665484e+19
8.472904636e+19
8.540454926e+19
2.459740275e+19
6.19917076e+19
9.999687567e+19
3.780763592e+19
6.353595201e+19
6.406793997e+19
1.162960423e+20
8.973560883e+19
3.389932527e+19
5.691915687e+19
1.032223275e+20
1.386690249e+20
4.65746981e+19
1.055965064e+20
9.458876244e+19
9.532525688e+19
8.406414597e+19
7.262489744e+19
1.342071488e+20
6.149350638e+19
4.959336608e+19
6.730170614e+19
9.039820007e+19
5.691915646e+19
9.175317996e+19
9.244601728e+19
1.280804207e+20
7.039767146e+19
1.182359539e+20
3.365085331e+19
2.259955035e+19
)
;

boundaryField
{
    flow
    {
        type            zeroGradient;
    }
    obstacle
    {
        type            calculated;
        value           nonuniform List<scalar> 
30
(
2.225073859e-308
2.225073859e-308
2.225073859e-308
2.225073859e-308
2.225073859e-308
1564.22219
2.225073859e-308
2.225073859e-308
292.0752601
2.225073859e-308
57.67326343
2.225073859e-308
2.225073859e-308
2.225073859e-308
2.225073859e-308
97.97506861
2.225073859e-308
2.225073859e-308
2.225073859e-308
2.225073859e-308
2.225073859e-308
2.225073859e-308
350.3388506
2.225073859e-308
2.225073859e-308
2.225073859e-308
220.3112232
2.225073859e-308
2.225073859e-308
2.225073859e-308
)
;
    }
    frontAndBack
    {
        type            empty;
    }
    procBoundary1to0
    {
        type            processor;
        value           nonuniform List<scalar> 
21
(
5.567666177e+19
8.908265883e+19
5.567666177e+19
3.340599706e+19
5.567666181e+19
4.454132945e+19
5.567666177e+19
8.908265883e+19
7.794732648e+19
8.908265883e+19
4.454132941e+19
5.567666201e+19
1.002179912e+20
8.908265819e+19
6.681199412e+19
1.002179912e+20
7.794732648e+19
7.794732648e+19
8.908265946e+19
7.794732648e+19
7.794732648e+19
)
;
    }
    procBoundary1to3
    {
        type            processor;
        value           nonuniform List<scalar> 
36
(
7.122429502e+19
9.527956553e+19
8.240110161e+19
8.314727766e+19
5.593806071e+19
7.122429502e+19
1.834753248e+20
1.563818345e+20
1.05149975e+20
7.954568105e+19
8.024082096e+19
9.527956553e+19
6.745684789e+19
1.249960936e+20
1.26025451e+19
5.082876161e+19
1.153222929e+20
1.563818345e+20
6.460891238e+19
2.025661709e+20
3.602749113e+19
4.841659792e+19
1.09805849e+20
8.609090961e+19
1.249960936e+20
6.19917076e+19
1.024544824e+20
5.734573747e+19
1.155575207e+20
3.493102383e+19
5.866472665e+19
2.025661709e+20
8.276516776e+19
8.973560819e+19
1.024544824e+20
1.016979751e+20
)
;
    }
}


// ************************************************************************* //
