/*--------------------------------*- C++ -*----------------------------------*\
  =========                 |
  \\      /  F ield         | OpenFOAM: The Open Source CFD Toolbox
   \\    /   O peration     | Website:  https://openfoam.org
    \\  /    A nd           | Version:  7
     \\/     M anipulation  |
\*---------------------------------------------------------------------------*/
FoamFile
{
    version     2.0;
    format      ascii;
    class       volScalarField;
    location    "0.004";
    object      translationalT;
}
// * * * * * * * * * * * * * * * * * * * * * * * * * * * * * * * * * * * * * //

dimensions      [1 2 -2 0 0 0 0];

internalField   nonuniform List<scalar> 
546
(
932.5598384
916.4650655
894.6435358
894.4812471
873.2938846
865.5860115
857.6079455
855.2680346
834.724869
840.1488272
835.7693382
826.1303432
824.1464415
817.9568946
813.7044786
809.0178521
795.4603042
802.7125313
789.1421105
790.9094264
792.548442
775.9455525
785.3526098
776.6158194
760.1570914
761.9499724
759.8126239
769.4852631
754.4441477
739.5452807
1026.63854
1016.824676
1003.67081
982.3797812
974.9531565
965.8908087
959.84129
947.3283489
964.4241075
939.8076926
929.3945541
932.3022954
917.3931072
915.7319096
904.9754411
889.3601358
889.4890662
892.9796332
867.2512761
858.6012188
864.1400505
850.3014241
840.9232206
845.1894144
848.824004
829.5289809
834.2017526
812.4725178
788.4242651
744.4156862
1038.705118
1026.7127
1020.401091
1010.252904
999.0485295
1002.473371
985.0373267
980.5396095
973.3385428
971.3803416
974.5297587
973.5612851
966.6235804
941.4868693
941.373223
943.5830032
940.1668147
936.4688854
933.6875449
913.7057051
904.2070054
900.2094315
904.7285854
905.7798434
883.8700139
869.221793
863.4388111
843.891176
805.3774908
743.4093219
1039.097638
1019.251806
1021.890341
1000.323936
998.3439226
998.9534774
995.3454906
985.1461971
977.6687212
976.6489613
974.7127677
970.2382275
970.9963584
963.350026
963.1696439
957.4760368
941.8860582
940.6278924
948.25974
937.097088
934.1296468
920.3830084
915.3573489
897.7845202
897.217524
877.2264093
858.8098779
835.6188137
805.7084225
744.7793413
998.9973352
987.6713454
982.4733216
986.1925773
971.8435434
967.8971751
974.8521723
975.5026544
959.4567108
952.1557921
958.3972792
949.2741786
949.5496227
944.3940418
940.8150991
931.303957
941.535454
922.7611463
927.898608
932.3010854
924.8053172
932.108402
909.6197094
906.3898313
893.6891319
879.8699448
860.4590262
833.9132352
818.1929998
773.4316261
970.4592879
973.1038953
965.9597708
956.2675111
956.1812846
936.8374398
949.2294495
930.745402
925.0412212
927.3535962
932.7885011
920.3754269
922.0692959
921.536579
922.6297265
918.8175337
929.0324184
931.4000307
933.1396169
928.9049739
928.8616426
933.0563919
920.1000698
906.9745694
893.8955434
886.4741315
861.5470807
850.7535801
820.2351315
780.4928868
936.5425752
944.2710415
935.540933
938.759779
927.9099464
925.7592586
927.0889569
919.1263052
922.3514463
918.3132196
929.2691241
916.9090238
924.7234029
912.7974159
911.5483256
909.1322953
908.3546503
909.6784822
918.2981609
901.5087212
910.2861993
917.0056278
914.4734721
906.6149417
889.0096147
876.4703889
866.702778
848.8886493
817.0137168
783.8766429
898.2580394
921.7891783
925.3438388
914.7057244
918.0920177
913.1600985
910.5715092
912.4581503
906.7717583
901.4762711
897.9078845
885.8849294
896.0770853
898.4753688
897.2330819
894.0823256
899.0644504
898.4294735
900.0179796
892.0733019
882.7626375
893.928981
884.4009393
891.015658
880.1178571
860.7947983
852.2744521
840.9493386
817.4333954
793.9728962
852.2883229
868.4160777
885.3503155
888.8896333
886.1137898
890.496398
889.4679282
891.2902437
888.9645895
882.7304373
880.7223359
882.7268044
872.417622
881.6891202
869.1897235
874.6575022
879.3346056
875.2589355
867.5840555
868.6968909
864.360513
854.4142355
870.9798454
866.0250119
869.7095204
861.6273485
840.3961163
828.567811
822.2973891
794.0068405
783.0413089
804.4029436
845.059115
848.5677013
856.7016505
860.7169225
870.2889696
880.5420584
875.7268031
867.6270743
867.0402257
864.6565443
861.4661154
855.2394977
868.4488416
855.762826
858.5534841
853.0034516
850.0233947
854.920665
840.6934168
856.0445714
862.7661903
850.6319323
850.2902132
843.7702451
839.1357054
822.2700389
798.909555
781.2997167
715.8919591
726.559941
786.1207374
809.5917823
807.6366523
822.2244312
844.4859074
840.467561
846.2542349
850.7134514
841.6244414
853.2648254
843.0482486
836.8136538
846.6168234
846.8639722
851.8425339
837.8346597
844.1374127
844.2384444
842.6353488
848.515229
850.4302995
842.5149099
833.205896
839.768378
819.0656459
801.3745561
793.0003576
783.6237095
640.0858079
693.1999501
704.6043123
747.3295245
770.6546913
789.1539527
800.1901386
803.9195099
827.6783886
830.9795503
843.5749352
844.8603199
836.3030983
833.3484999
839.0999018
836.1947216
825.0892791
819.6444039
819.9844234
827.1507336
824.4738013
831.8247498
820.0942709
829.8786126
813.6238857
817.2057696
807.7604113
799.0333276
797.8618549
774.8846782
576.4174375
608.8696535
644.9858292
681.2056395
712.6690774
747.3792907
767.2619661
765.1071552
783.1013338
794.3693546
809.9320672
812.4200326
811.2207771
814.0828563
807.6120704
811.3751599
820.3730233
813.287049
808.3815916
809.433972
812.1187376
816.1552006
815.9887678
806.5092513
800.1131898
794.9813442
809.4021785
793.1677754
796.810978
785.6415109
530.6323607
559.1221743
589.1488566
628.5897847
640.7238336
680.9942042
709.1285208
724.9999716
743.9323599
767.6992186
788.3255964
798.0051018
788.5624608
803.8079043
796.7560107
801.4841306
802.288891
798.3989178
796.2270862
794.739383
804.4432683
803.3398525
808.921273
801.3120595
794.3476452
795.6965963
792.2193476
784.6486963
783.2417688
772.0571495
479.7592485
492.412915
517.7571122
550.5267862
584.2470709
618.5413597
658.8621387
683.804943
704.7238864
732.1790803
758.6503763
765.6614061
781.5589852
777.3306974
789.9216538
790.8728413
797.2342843
793.464307
790.1221407
792.6844006
779.2444991
787.7253192
786.3175209
798.0643557
792.8853281
773.2753041
786.9887714
779.475715
767.5477581
758.3120173
430.9046936
451.2021259
472.6956859
501.6530873
520.1383453
568.2018389
596.1437438
624.9978983
654.2988732
671.8088502
699.8746827
720.1015772
740.1085419
746.8079173
766.7822293
777.2633706
779.9249478
778.9003706
783.1805848
795.1723134
779.7924045
776.6727517
779.1890037
792.1924212
780.9435787
784.2205671
774.5147094
765.7463038
770.5613073
396.6421052
420.475574
443.4625913
469.4274314
481.9650709
509.9922799
545.6027671
569.2754193
608.2588606
628.4144394
652.4233832
676.097352
699.8547509
707.0900675
729.48766
746.8206193
757.5569224
769.9325531
773.8134645
770.363358
779.6925792
774.9832178
770.349309
775.5022997
380.1522493
390.7099053
420.4820508
433.967713
451.1763924
476.2247679
499.8578369
525.8715315
540.9270462
573.213506
605.8146332
640.7636512
647.0253194
682.5190041
705.3043908
718.3424192
738.2719455
745.7678601
759.6804308
351.7150486
367.3714981
382.6547112
402.0165008
421.4603586
441.4183706
463.5621649
483.928651
502.2786385
530.6308596
556.5303725
581.4819486
606.8897859
630.3001257
347.895525
358.3183005
370.6651944
381.0486516
403.8219379
417.2809699
427.2605259
444.1349335
342.5534788
339.723849
)
;

boundaryField
{
    flow
    {
        type            calculated;
        value           nonuniform List<scalar> 
15
(
739.5452807
744.4156862
743.4093219
744.7793413
773.4316261
780.4928868
783.8766429
793.9728962
794.0068405
781.2997167
783.6237095
774.8846782
785.6415109
772.0571495
758.3120173
)
;
    }
    obstacle
    {
        type            calculated;
        value           nonuniform List<scalar> 
30
(
803.7049552
794.1795773
791.0324318
774.9292733
780.9088785
752.7931868
728.1889086
758.6852643
737.8597979
740.7399038
752.9671975
750.1840677
727.9851808
691.4369677
730.2327219
719.3715362
732.0200976
710.587152
693.4409384
740.3305304
713.1494156
692.0574228
709.0387454
727.0294084
693.2310106
697.6631167
680.0460081
701.3578376
706.0412307
720.4273272
)
;
    }
    frontAndBack
    {
        type            empty;
    }
    procBoundary1to0
    {
        type            processor;
        value           nonuniform List<scalar> 
21
(
941.3863862
1046.726023
1055.259753
1035.097993
1005.168811
980.6726145
940.6580088
902.585562
824.3682739
744.6993302
659.4730765
609.8039341
534.7566972
495.0829384
443.2239801
399.2841101
382.1348901
366.8654239
345.1577265
345.6042023
336.0131114
)
;
    }
    procBoundary1to3
    {
        type            processor;
        value           nonuniform List<scalar> 
36
(
768.2565242
775.0567103
770.0274013
766.8352649
763.1130097
768.2565242
750.7524559
760.8556754
764.3939712
764.0269432
766.6422713
775.0567103
760.1642678
657.7046541
671.8802691
700.15944
710.6228775
760.8556754
723.4946351
462.5574851
484.4678425
505.5588342
527.5293941
550.9463639
657.7046541
574.4212148
350.8899947
358.2190644
374.6070905
385.2899756
401.7765267
462.5574851
416.6335513
328.0354023
350.8899947
336.3985455
)
;
    }
}


// ************************************************************************* //
