/*--------------------------------*- C++ -*----------------------------------*\
  =========                 |
  \\      /  F ield         | OpenFOAM: The Open Source CFD Toolbox
   \\    /   O peration     | Website:  https://openfoam.org
    \\  /    A nd           | Version:  7
     \\/     M anipulation  |
\*---------------------------------------------------------------------------*/
FoamFile
{
    version     2.0;
    format      ascii;
    class       volVectorField;
    location    "0.004";
    object      UMean;
}
// * * * * * * * * * * * * * * * * * * * * * * * * * * * * * * * * * * * * * //

dimensions      [0 1 -1 0 0 0 0];

internalField   nonuniform List<vector> 
546
(
(87.63573496 25.14584726 28.52164312)
(81.83565863 26.42227266 -6.581427019)
(84.00262618 21.05860384 -30.4081456)
(72.58095631 22.5783717 -4.737053466)
(87.49079639 17.22143207 -5.538938158)
(80.02831704 29.8871811 -1.407174542)
(75.87963625 23.24557315 -5.660672253)
(71.72783698 21.45091368 -5.325764037)
(75.94579944 17.00899259 10.25946391)
(88.70112876 20.66115939 -1.094290705)
(100.0617871 19.74644946 -0.631595931)
(90.20736719 30.74083302 30.37526451)
(76.50379863 18.50871443 26.05864321)
(96.6125646 20.07674471 8.031770092)
(96.1186794 28.94768498 9.026065772)
(107.8077336 30.19005799 13.85848658)
(97.71073226 28.01285374 -1.060566308)
(98.15284745 22.39395307 -21.72358463)
(89.58518142 28.59982441 -18.7033031)
(86.81464938 19.70053866 3.403116359)
(107.2729404 33.91939155 10.03570207)
(89.44087726 20.15679301 12.85397581)
(73.58550698 25.94912258 13.94641016)
(84.07374324 21.14568408 -6.704009118)
(95.77754515 24.34166781 -7.633627488)
(89.41970954 24.22084574 -11.60568246)
(96.46660284 24.98639233 14.53112602)
(88.96685739 24.80934031 -6.002435035)
(90.81490071 23.37013037 10.87163238)
(85.49540716 21.20633087 -0.1323957838)
(111.4838665 34.10670611 -4.49038389)
(103.9465593 24.90504638 -26.75539982)
(100.6862198 37.8432485 -20.45545756)
(115.3112032 14.45038341 -9.588453156)
(105.4299082 32.72199622 17.01354676)
(110.3854724 30.53701498 2.296151744)
(120.1566681 41.4579869 -8.213593503)
(117.134729 29.1012159 -6.222150757)
(136.5439843 32.61617454 -0.1633154537)
(147.9318936 23.01040016 12.31704509)
(114.2344035 28.49125579 16.39528836)
(124.4890973 43.51970705 16.46501006)
(127.2306705 41.4810487 14.79152329)
(122.28227 21.81568344 -14.80507297)
(121.4695394 28.62815463 -9.503399601)
(121.6773642 32.91162882 26.57231568)
(123.7632029 33.69913887 12.89906337)
(120.9114123 37.38307638 2.897536767)
(132.0503113 32.41279784 10.78221015)
(143.8435886 36.72347386 3.545162838)
(108.0402335 28.70333171 1.822921309)
(121.8610865 39.98069793 3.549728614)
(124.4520768 39.92382842 8.633339579)
(127.2492834 19.20177253 5.996164191)
(126.2038246 32.47941101 0.2673923236)
(113.4575838 38.85739855 28.99477942)
(107.7914374 15.62868964 9.322032168)
(111.8299253 39.64261146 7.827082631)
(98.08218453 28.0297856 19.80655525)
(102.6612088 19.95215897 -0.3389023086)
(115.4678584 33.15350892 -18.73948111)
(112.5228587 23.18093524 -17.54538075)
(131.5281562 46.70395075 -6.844687312)
(115.6534527 25.21156151 10.11218767)
(123.7694378 38.97764486 3.634479939)
(132.9943781 27.22538798 -2.103364192)
(140.9366186 33.97263641 6.653606373)
(153.8734333 31.03708413 0.208201556)
(149.5904634 27.48543929 0.225806473)
(148.5887064 48.60380708 -8.898643883)
(132.1233504 32.05229694 -5.408633343)
(132.5239102 42.41952474 -6.584196112)
(138.9830124 37.71515096 -1.744130063)
(136.3724178 30.05808488 0.6260116263)
(137.9641904 39.97905056 9.448074997)
(143.1955845 31.92519533 23.61052918)
(149.4444057 38.97633766 6.445771867)
(148.0724039 36.94281395 1.624529279)
(137.575188 36.70217575 20.31825534)
(147.3814402 48.43079594 16.619479)
(156.2677563 33.98515536 -2.406271146)
(161.0450057 44.34782255 2.09303096)
(157.950963 50.75973782 10.39313621)
(132.9146136 28.87586891 5.859770754)
(128.4002702 30.04592807 0.9524117367)
(120.0627087 39.59446022 9.909227856)
(118.1333007 35.18926671 -7.581455601)
(114.1058952 35.33082675 3.42335343)
(110.8876684 27.92404556 3.678300685)
(111.6893384 21.79734574 -8.693499248)
(129.6661671 37.47510869 -20.89964421)
(139.430615 36.19395198 -6.115381458)
(140.6900254 39.65020483 -3.065909143)
(142.1024935 29.86741657 1.806435413)
(152.3500536 32.62101863 -1.379873014)
(158.487763 38.43731265 1.710266907)
(148.3493591 38.40357794 -4.547729373)
(142.6134323 25.70452896 11.67890555)
(158.2526395 34.47929672 10.83015782)
(148.5255863 50.43424948 -12.487799)
(146.5700263 46.49040667 -4.528492663)
(158.4554239 37.73969927 5.266964761)
(151.5869648 45.1420269 4.528414573)
(150.6404551 31.07629265 0.4011036294)
(168.1212174 42.01075697 -1.490857025)
(170.5210364 34.9898617 4.154489845)
(155.4002718 47.01827718 1.760535271)
(163.3976859 43.58477547 13.96768308)
(151.3815864 27.6458352 18.49558934)
(161.6765577 52.07544375 25.08075604)
(154.0516007 41.54929916 -11.11256469)
(150.4189724 45.14888964 -8.698223454)
(142.67993 41.640918 -2.475995635)
(143.9008714 36.41598584 -3.288952917)
(143.0550717 41.00397586 -7.109340753)
(126.3663265 42.22880598 -29.36357924)
(137.8719118 31.61214911 -15.91940105)
(142.2328927 44.42862353 -6.819533439)
(115.5635801 36.68177507 -1.099693437)
(122.2581718 32.87692397 -9.300390177)
(130.5930438 16.79298169 -2.567457246)
(146.7766016 50.2183703 -7.680238232)
(132.4281132 36.96978781 -14.74352528)
(143.7062853 32.71505406 -7.644691171)
(128.9183618 32.88492282 -11.95995795)
(145.1526233 32.43778378 -5.894844159)
(152.3112446 28.33177453 -5.755949623)
(155.099792 34.37509426 7.183276839)
(152.7293373 32.92821454 0.5647959688)
(141.4888041 45.76685813 -25.1074146)
(167.7173101 42.98237828 3.208846409)
(153.1529906 36.82650133 3.697155996)
(168.0002638 45.16087894 4.849932552)
(179.5353386 38.32447762 -7.852846428)
(172.742391 38.94397205 -0.8084325823)
(166.5678939 36.24124219 2.941420857)
(173.5290545 46.37000094 -4.655555721)
(179.2437515 52.25847761 1.970806145)
(160.8410611 33.01874801 6.490695281)
(168.3302877 52.29479515 -21.77984316)
(164.1103045 47.94710335 -19.92324339)
(152.3301486 46.35117562 -13.102113)
(154.4180951 43.44069173 -12.99906193)
(154.8657766 41.36001427 -3.070407192)
(140.7580822 40.76700695 -20.51864297)
(146.3492213 39.43172725 -4.065910288)
(151.5010979 35.94913749 -10.89862731)
(128.474287 43.01303379 -1.816175647)
(140.1475962 41.10539595 0.3278111978)
(131.1695515 30.90926457 -11.51832825)
(115.4618106 14.00589711 -7.03840432)
(118.8627726 48.6340589 -18.7749884)
(146.6765115 26.10394963 -4.490024642)
(144.5341407 46.00445423 0.5180027239)
(142.9948609 34.27716566 -13.15832997)
(150.6255062 20.68830712 16.32017456)
(159.7781737 19.22814478 13.71679747)
(165.0499721 42.98638679 17.42846736)
(149.4299908 28.5760812 -5.387327393)
(172.8876029 47.39381107 -13.85588435)
(169.037683 46.0957066 2.330540761)
(165.342968 33.35189565 -6.900708972)
(157.0164915 38.69487948 -20.74504597)
(170.5161922 29.85763199 1.706589805)
(177.842863 46.25465593 12.45344015)
(170.3099055 35.99926493 1.179145136)
(174.5760278 45.54991302 0.06915588718)
(179.0135428 60.81023878 1.826829095)
(173.0675659 40.09510604 7.315708384)
(169.1695057 52.43035258 -5.410580923)
(155.8780487 49.25340529 -12.8507183)
(145.9286848 37.47449482 -17.57386737)
(163.6735532 38.30995684 -20.03341139)
(176.6673629 51.56669826 -1.570788587)
(164.1297716 50.74016813 -23.85351956)
(165.9014249 32.29080022 11.47600095)
(150.6495085 43.69185083 -6.141986588)
(151.1045312 47.1713143 -3.88947659)
(139.7510352 46.40007111 -11.29540222)
(138.2210729 32.12123609 -8.276756543)
(132.3139848 29.05407366 -3.756791367)
(131.8905797 38.43249726 0.5098388796)
(124.8057983 24.29665297 -19.35625611)
(139.9374904 35.03590094 -19.95421596)
(148.8192904 26.29515291 -16.48720006)
(147.1965681 22.56114816 11.33006197)
(153.9757259 16.01747217 11.83869225)
(150.2221655 45.41342029 24.26979884)
(146.2504704 34.4364215 11.86587761)
(149.1927004 26.70299643 -8.520311487)
(166.9334902 42.95736584 -18.24514542)
(170.3333824 45.31611926 -6.983046669)
(161.4054052 29.09719356 -4.660583268)
(165.7361691 29.83382788 13.46451756)
(166.0059936 29.14465282 12.06102629)
(178.6511608 40.37885919 10.22045785)
(186.2750651 48.37639797 -23.81204526)
(184.9583297 63.32326023 -0.2059742297)
(192.0861485 47.88364976 -13.02442209)
(180.6328692 59.32397964 -13.17847639)
(201.7236345 52.27206159 -4.164106793)
(177.0554234 43.20367199 14.89296206)
(174.7246341 37.02039923 10.65970194)
(162.238061 44.70926923 1.401627801)
(188.335156 45.68052442 1.53660227)
(157.8674801 50.13693309 -1.157090052)
(140.2156673 45.82999466 -18.09996214)
(159.0710352 45.10837824 0.7005945344)
(149.7778338 46.55695943 -16.02889266)
(131.3951436 36.73516126 -7.424768473)
(100.8096532 24.14011796 5.663822186)
(119.224292 18.18156878 2.197286485)
(142.7658499 24.57741853 -3.973370173)
(138.2208936 24.61477467 -11.18932764)
(146.7686423 20.43295106 6.865999874)
(153.4579356 18.96555509 17.75593865)
(144.4439253 28.36160416 9.287493844)
(163.5615446 42.53135498 1.092313091)
(137.7051324 38.22224542 -0.4171845415)
(150.6203081 15.73102891 -13.80891109)
(157.0871428 31.05795309 -8.540991651)
(165.6463159 38.48130456 -5.405247117)
(184.7494525 31.02675677 20.11764946)
(166.4499094 27.15733606 10.88330244)
(159.6361157 23.05355266 1.483645662)
(179.3711535 42.31077825 4.455251375)
(176.2813863 45.00512546 -4.822563163)
(183.8900598 58.04861389 0.673277673)
(178.4291827 54.5337923 3.452141573)
(187.9689827 45.49212437 6.72381679)
(188.2868326 68.21489736 10.48607732)
(179.0299629 50.2787639 -4.685518032)
(163.7610446 28.27929387 21.28198778)
(165.6252235 49.58174631 12.9899603)
(144.9804769 41.83293936 -8.181041506)
(170.0357255 52.25769672 -14.26651427)
(168.2618841 49.2138421 0.1264830135)
(161.4530686 34.914045 -17.66106366)
(151.2916153 48.69825246 -1.061858333)
(158.2986225 48.36232436 -2.061244561)
(136.1216715 22.78425195 2.567881249)
(140.0093044 14.65648652 -8.893913992)
(146.1581527 20.50380819 3.991037559)
(149.1165476 21.07887461 19.99561583)
(140.2841032 24.94625369 7.151062746)
(152.8274141 16.42632738 12.07938886)
(142.5528112 26.92684944 9.995328985)
(151.6115939 37.61528112 -0.7562824863)
(161.7997109 46.22286667 -0.8947992552)
(165.5807929 16.79053488 -11.53974816)
(171.1146097 25.3307328 -5.654335158)
(173.6808343 23.46478808 4.962593556)
(190.6194244 41.46517054 17.76020306)
(173.2008455 29.95264038 -14.00839037)
(161.1831418 26.46836145 15.13416515)
(165.3401905 33.33301977 1.535655662)
(167.4770699 41.79718613 -5.588196398)
(181.2069132 50.51774693 -15.05818712)
(185.4607775 50.10837228 1.527957612)
(195.1517861 40.52215373 14.92491239)
(169.3383793 65.23771505 17.53764059)
(176.6441112 52.57083163 9.150713347)
(167.7030537 35.100843 13.56578787)
(165.5248547 46.88540979 -0.6638820008)
(170.3250244 49.42919453 8.288210899)
(156.1660857 37.99389234 3.146113615)
(159.8606015 44.47979299 -12.50170416)
(149.4309276 35.21136133 -16.51247159)
(158.232764 43.78576011 3.809343111)
(153.50335 44.78153696 1.687880103)
(140.451532 18.80906628 -5.547196412)
(131.8259883 4.858746775 -15.48655863)
(139.040272 23.40718072 5.676712199)
(126.9668248 21.51011348 16.18504653)
(136.7670718 9.452948084 14.13025481)
(129.9428703 27.80361183 4.674600592)
(141.5003511 22.34091471 -1.4797979)
(147.4639215 27.92665844 -0.8981644573)
(154.740325 39.12337399 -9.615090154)
(159.0510215 10.38873825 -12.97293055)
(167.7212273 20.08000609 1.632259527)
(181.3970434 24.41240373 6.613520489)
(164.4388836 33.14779888 7.616512424)
(164.6421884 29.74699422 0.2505724864)
(175.5693694 34.06650538 -5.770435632)
(172.0295891 32.87370387 -15.33894014)
(149.8269902 35.47677995 2.560424995)
(160.2375601 52.79595078 -2.575105187)
(165.2753346 41.25916323 -0.01741096489)
(172.8356537 45.26747482 -4.795428656)
(173.713284 53.90194877 -20.76502839)
(166.0971382 39.9884457 -7.914446243)
(168.7007188 40.94936675 4.063389569)
(172.407958 42.85012765 14.77768283)
(191.3967114 55.02406824 8.338015766)
(176.2615296 43.70831295 4.916823104)
(167.2433661 48.86391157 -11.44643924)
(155.4985054 46.55349385 4.133092332)
(128.3428115 27.09234399 1.068818971)
(135.5171511 36.02195458 10.47014789)
(111.3401626 9.227026928 2.742544576)
(125.8882529 9.367852366 -9.707558898)
(108.4954214 17.46042739 9.773162276)
(104.1964876 13.07241374 24.41843978)
(136.5755118 2.700957533 13.37676004)
(143.3258685 23.95328432 -0.4004351325)
(142.8975519 26.01909934 22.74943994)
(135.6364355 26.2617651 -4.672491108)
(150.0075361 18.47831514 -18.16407015)
(148.6933196 13.57060503 -11.10780687)
(161.3833347 14.05473259 -0.8382649612)
(147.1245979 23.18359492 -15.08266744)
(162.6122328 31.33833763 -1.172765744)
(185.0550228 20.21392346 -14.89471884)
(174.3436643 33.27405688 -12.98450292)
(156.5618451 40.73600031 1.625922447)
(159.9122958 37.6982487 5.954345285)
(165.9571309 42.13819429 11.84923425)
(183.4737637 32.44516001 -7.621107275)
(176.1955204 59.1017676 0.1676101145)
(176.0583167 47.52646964 2.042193121)
(165.9236025 41.15407 -4.02168116)
(149.5477369 42.43445228 -6.9157833)
(156.5782722 33.13649619 16.41744856)
(172.6838523 39.79447256 9.78244964)
(163.1420486 51.73035861 13.19666673)
(157.4513387 48.58492421 -9.582416012)
(167.8466216 44.28812317 -0.5313608656)
(159.2183165 31.7918594 22.86840388)
(157.6874886 36.7035694 3.413710516)
(123.063266 17.31853202 -3.553933077)
(110.191357 4.767114149 6.809125435)
(115.3806205 19.63560618 4.68754011)
(125.8450144 3.326224678 -4.52419454)
(110.7481281 -2.590162098 -17.9367154)
(114.042939 20.32871218 -16.58442225)
(124.7037213 20.01510777 28.28082915)
(134.0911873 11.28957065 9.855946958)
(147.1402042 20.04286685 -2.405496411)
(145.6644632 11.85870631 8.882996747)
(153.7925756 4.346642333 5.335845602)
(150.9063785 23.65326709 -8.049513994)
(173.1732853 32.41108738 -0.1681536483)
(162.0480165 15.56964422 -1.594631429)
(146.9736663 24.4626807 -7.198683236)
(162.0809227 45.65753348 -6.989729794)
(175.6426834 38.30575388 3.209320947)
(172.2630316 43.77164397 2.010664709)
(154.5682057 35.79106336 -5.229432673)
(136.4092019 46.90000479 7.84508015)
(153.2605944 35.12376947 6.3576147)
(159.3551212 39.54093946 3.477842965)
(163.1993876 39.06854854 17.53610041)
(175.4409956 35.35516561 17.16887055)
(167.5347539 27.72917524 12.27683147)
(166.4909356 41.70089355 22.41966202)
(171.3600964 47.19870128 9.772578843)
(171.5477903 42.44351412 -4.153565626)
(169.0470228 33.23625056 12.86535834)
(160.9353674 31.64069157 2.361332242)
(93.62624017 2.120088053 -14.4587987)
(91.66778766 3.791736543 -9.269887245)
(104.9513681 8.948448935 -18.77697906)
(117.5396976 5.075906243 -6.075944777)
(119.1166576 8.378383911 -14.39718852)
(119.1715363 4.541369756 -14.8211915)
(127.424197 12.71608454 -5.129618755)
(126.767245 7.633835547 -8.563185654)
(135.6370807 8.248264742 -0.8732029918)
(143.1983513 13.88635137 0.1599966613)
(145.2801219 5.610940484 5.202733322)
(139.9915714 11.40424446 4.029537046)
(149.0406622 16.19381768 -4.369209107)
(161.3022547 25.77918939 12.49166752)
(159.4563656 21.93249105 -1.458878763)
(166.6063835 34.89999976 5.410309828)
(162.1769344 40.44923922 -8.469826127)
(151.4601574 47.51618261 0.7524229526)
(159.00947 47.07347239 12.8210629)
(150.3445647 42.2240005 3.764607547)
(166.2079543 39.57458538 2.187740261)
(177.1645031 29.9996707 0.4516489244)
(164.7521833 27.14255967 14.04090256)
(178.4556891 27.97693824 16.69367401)
(165.8095624 42.86444407 6.257435596)
(175.5066963 31.01989228 12.51912794)
(167.3535455 38.6804968 5.377477195)
(174.6462577 40.44359624 1.159271031)
(170.0563845 33.79373156 8.837099392)
(147.8437992 35.92248766 4.194685191)
(101.2661102 4.041347194 -14.56187691)
(112.1131706 3.907478243 -0.4211570556)
(105.4615849 7.64249594 -16.48345352)
(123.1760609 -11.36305149 5.108500675)
(115.8891497 16.37513943 -3.105894612)
(113.7403485 -0.5967601136 -12.19071577)
(128.2712322 2.354845687 -13.21346485)
(141.6486593 9.622674784 -13.95878695)
(138.343867 9.022667236 -12.63649531)
(152.7487929 11.16802025 -5.683447499)
(151.6004952 4.72532359 -2.717670207)
(155.8233946 22.42125628 -1.871938541)
(159.8737504 11.35406674 -7.408506475)
(142.5230545 22.62873701 9.392439974)
(133.8735514 18.86133174 0.1922134601)
(139.5907628 20.87374774 -22.45042687)
(135.8408247 39.275934 7.932518806)
(166.5272515 41.58974517 3.531125834)
(149.144896 42.14072526 5.111545795)
(165.846028 42.75081494 -13.13992912)
(179.6949488 28.26500712 -13.39181408)
(161.7762757 34.87811859 -16.40078405)
(161.9512239 27.77521792 2.715557124)
(155.0811649 19.48409853 10.2121358)
(149.1724885 40.45815752 8.814270665)
(155.335478 24.30187396 -1.522849967)
(145.3168633 31.05719821 7.726086153)
(141.4500486 34.25566524 -6.10300254)
(147.0934398 31.45483486 0.3835063284)
(153.8080736 25.79970167 6.985124662)
(121.4457623 -2.007783055 14.749947)
(114.5470452 17.7750965 9.640973679)
(123.792842 -0.7959521752 0.03277146377)
(121.5047341 -11.31866299 2.989113362)
(124.8298615 22.79441131 -4.215465132)
(138.8749718 -0.1568969379 13.35453124)
(123.9554293 4.677379878 -8.061735563)
(113.4150278 -2.233451967 -5.942441584)
(128.6052927 0.7812417115 1.449103605)
(122.355336 -4.037752923 -1.911671397)
(132.0021356 12.14243121 -15.79241523)
(133.2363152 13.88263219 2.766237296)
(135.8098653 6.667350257 -22.18419717)
(140.2633235 17.99409334 -10.59447744)
(145.3838437 32.03542568 1.004759052)
(141.6650571 21.26715604 5.864260783)
(142.5323067 23.86936699 22.52495318)
(146.4182434 35.47662202 -0.6718810401)
(163.765992 46.98327292 -6.542513896)
(154.5195839 24.72589488 -0.2944691607)
(165.7810918 32.53189171 -4.64226097)
(170.7239392 33.99733673 -7.45445017)
(164.3721701 31.52796831 0.8996752921)
(153.9351737 20.14914222 2.276035203)
(150.4483833 41.97046715 6.328679901)
(137.6093019 28.97303791 -5.496958124)
(140.4349125 15.51629862 7.458038459)
(144.1833066 26.11725586 -5.775259744)
(148.8424689 27.57472088 7.903065442)
(140.5677927 21.5979752 -3.600393121)
(91.36857706 4.447740841 -2.508197698)
(108.5818548 10.40701907 -3.123757243)
(115.5565763 -10.40727612 13.61941743)
(129.2767102 -1.127821726 2.243680441)
(124.8941274 5.680876233 -7.255709367)
(121.0019088 -3.243318228 9.258942111)
(133.6719543 11.80460165 14.33748798)
(143.548234 2.951728275 13.463951)
(130.5375989 2.736887594 13.33772572)
(136.6636178 -4.563291871 21.35019649)
(137.1627467 10.16293628 -15.43632231)
(157.349304 9.746167235 1.376172295)
(148.3949252 7.389641209 -14.44360021)
(141.0695544 16.99918226 -3.58343137)
(150.5923566 22.75739653 -10.50188536)
(147.5425433 27.03022225 -0.9507367792)
(144.0895195 22.24226007 30.01258133)
(150.3377844 24.04374264 -1.286643802)
(156.8780795 49.68517584 -7.414918326)
(145.7085686 19.40590674 -8.97382684)
(163.4040796 27.31579251 3.176801088)
(158.4650213 25.69600592 -4.021467965)
(152.6109329 32.05594667 -17.72027173)
(137.5476604 32.17268367 -8.447769555)
(151.0422649 21.10103019 14.99393565)
(166.7847777 25.56476432 6.821016162)
(157.9040317 24.33669939 2.463463873)
(147.855926 30.89791366 -4.072352616)
(154.5891041 27.28429241 -0.5541322335)
(118.6440992 -4.869260951 12.79483465)
(117.7230511 -0.04435387596 13.65192487)
(123.0765696 -11.08314369 10.16808707)
(124.339893 -9.448210983 9.944135572)
(133.1620212 14.02780886 15.76540421)
(127.6922019 -1.226517438 17.525955)
(131.002417 -11.27530767 14.40650937)
(121.5330867 15.16017357 17.9022594)
(125.3773996 1.029214082 4.52884674)
(124.3165595 -8.847867174 -5.122027329)
(132.9551933 -0.03302563819 -18.40867375)
(124.1487358 -2.384545843 -24.12663733)
(137.2092861 20.52943729 -7.342603429)
(135.2794814 17.56615393 1.557920263)
(130.5719013 13.92911985 1.272845809)
(147.7486411 34.89256421 17.53496659)
(150.8838734 16.14435888 -6.494541514)
(140.6893515 25.33966619 -5.268254951)
(155.0462566 28.4549419 3.695779279)
(164.3450902 24.22941024 -7.324439729)
(159.4485224 20.46978764 8.861542056)
(150.5182231 28.06717794 2.260374666)
(134.3002137 37.7454096 6.178513807)
(141.1609919 24.80163562 -5.670718133)
(106.1774471 -11.44150578 15.80818978)
(109.391195 -7.707874146 4.169360839)
(110.0931312 -8.437617147 -3.908909342)
(113.4264615 -14.18366833 8.959196645)
(122.2887552 12.32015236 -7.249254725)
(134.6089091 -0.9900911065 0.2574904843)
(125.0816606 -13.28254248 -3.353038868)
(112.6348435 11.88938341 17.2302795)
(128.6895175 5.674274923 15.1688467)
(117.4624832 -10.11881224 -3.924659086)
(114.9110073 10.39802832 -12.15409566)
(109.6548863 -6.839949932 -9.306425923)
(113.0772315 10.31406739 -6.529772701)
(121.9387972 6.287997099 -5.096108808)
(137.2559036 16.61324863 -5.48234876)
(128.8815884 21.94514547 -10.56114883)
(131.718798 10.91424794 -13.3833065)
(134.2594181 25.12528226 -15.14184903)
(139.583461 13.71862029 -8.723625769)
(108.3095271 -2.707803829 -7.44967499)
(106.2489203 -12.43371285 -6.092179055)
(117.6437849 -3.697315132 10.8072344)
(109.5635723 -12.98750055 -0.9701730526)
(98.94205697 0.7257535021 8.601314276)
(114.8372306 -11.99638315 7.796219497)
(113.992236 2.935472701 1.030345369)
(127.0096262 -1.285366518 3.935496997)
(125.5624561 2.347400743 -1.225218404)
(127.1381119 0.3576365243 -4.725063169)
(124.489813 10.30678033 -2.861631132)
(129.8662174 -6.531980009 8.760792457)
(134.9497722 7.41556206 -21.65589582)
(126.5836998 4.460211359 7.424505234)
(102.2178634 -13.8660828 -14.31845073)
(113.2701823 -10.99279331 -10.59394804)
(108.1395147 -5.437250043 -0.1739627338)
(114.7523538 1.960215808 4.942084619)
(102.7840706 2.087996434 -11.36517937)
(111.1807551 -19.29424604 -11.69471911)
(112.0386162 -2.102275728 -36.39863747)
(125.3492803 -6.798873861 -22.56801638)
(90.00524526 -22.4837895 -12.79442857)
(101.5731307 -13.8844486 -7.674585448)
)
;

boundaryField
{
    flow
    {
        type            calculated;
        value           nonuniform List<vector> 
15
(
(85.49540716 21.20633087 -0.1323957838)
(102.6612088 19.95215897 -0.3389023086)
(111.6893384 21.79734574 -8.693499248)
(122.2581718 32.87692397 -9.300390177)
(131.1695515 30.90926457 -11.51832825)
(138.2210729 32.12123609 -8.276756543)
(131.3951436 36.73516126 -7.424768473)
(158.2986225 48.36232436 -2.061244561)
(153.50335 44.78153696 1.687880103)
(135.5171511 36.02195458 10.47014789)
(157.6874886 36.7035694 3.413710516)
(160.9353674 31.64069157 2.361332242)
(147.8437992 35.92248766 4.194685191)
(153.8080736 25.79970167 6.985124662)
(140.5677927 21.5979752 -3.600393121)
)
;
    }
    obstacle
    {
        type            calculated;
        value           nonuniform List<vector> 
30
(
(46.45647122 12.44797397 27.04770296)
(53.50299714 14.3360849 4.959346164)
(21.62803075 5.795213356 -31.00835828)
(81.249671 21.77078377 19.17342622)
(47.03996794 12.60432138 -4.75885125)
(26.52683594 7.10784428 -6.836342591)
(80.20000001 21.48952527 -35.30822447)
(41.5477936 11.13269771 -28.67191365)
(85.18711472 22.82581863 -0.6442807323)
(88.61184411 23.74347211 -2.630289474)
(35.748846 9.578874388 -2.566739393)
(27.1304309 7.269577064 16.3736273)
(47.58310457 12.74985447 5.504598367)
(46.58942847 12.48359969 16.06241508)
(68.59239203 18.37927608 1.303569171)
(39.43728781 10.56718939 20.55101574)
(75.9350087 20.3467243 10.63774675)
(58.20079296 15.5948555 -15.34941899)
(60.58830608 16.23458763 2.979154123)
(52.91371923 14.17818836 -25.39568128)
(14.0424571 3.762665047 13.46488567)
(48.35045965 12.95546658 10.52133267)
(89.62758691 24.01563958 -4.529408756)
(125.1417109 33.53162045 11.74084308)
(56.47411017 15.13219217 -4.632598725)
(58.96009408 15.79830962 17.09452786)
(61.60967363 16.50826224 -1.728827105)
(45.9545049 12.3134725 -14.27290497)
(42.12619743 11.2876806 30.92897969)
(50.58477807 13.55415039 9.283733153)
)
;
    }
    frontAndBack
    {
        type            empty;
    }
    procBoundary1to0
    {
        type            processor;
        value           nonuniform List<vector> 
21
(
(86.38844505 20.94009522 10.14922602)
(110.6756879 31.41137816 7.454206669)
(114.3913899 36.50137508 -16.31201973)
(122.5372746 26.35602495 -18.33616098)
(114.8517635 23.11357222 -18.25265136)
(130.6715171 23.93899389 0.301642104)
(131.0578715 18.59193684 -7.612408422)
(111.0973324 22.53636888 -4.395040031)
(121.9152704 29.35810401 -18.66772616)
(124.1065654 21.94447014 -6.25214926)
(131.8248661 17.84386673 -5.688435833)
(108.4727117 16.50146968 -8.35474703)
(105.6844859 15.77689321 16.25737703)
(89.84841178 10.88302743 14.5115166)
(120.3148352 7.573894016 30.11784983)
(110.9256707 -10.57895646 4.617761957)
(95.78860709 1.698916411 -0.6687462988)
(109.019919 -6.874536106 14.26823225)
(110.3463688 -4.829808948 -19.16679402)
(96.56102503 -17.69303707 -32.15876672)
(84.04472463 -16.58321159 -9.975601382)
)
;
    }
    procBoundary1to3
    {
        type            processor;
        value           nonuniform List<vector> 
36
(
(143.3315137 19.28963877 -2.455731211)
(143.4317117 11.36422472 -6.248183041)
(146.5946606 21.65485542 -6.669084986)
(139.6026608 24.83648524 -4.210471989)
(142.1112653 25.29664191 -2.950468845)
(143.3315137 19.28963877 -2.455731211)
(132.8698189 25.43656798 4.39198155)
(133.287659 21.74603396 5.505901119)
(146.3089023 28.62339682 -1.537006036)
(142.2847565 36.81511086 -9.16223197)
(156.297711 27.52958768 5.362572737)
(143.4317117 11.36422472 -6.248183041)
(170.8072387 20.59957844 3.386527669)
(124.945248 13.55252832 -22.44134238)
(146.6940878 22.36936834 -22.05186972)
(138.0445633 20.650372 -18.47919604)
(139.7899042 19.13803824 3.273309181)
(133.287659 21.74603396 5.505901119)
(133.6049236 12.90512022 5.972617889)
(109.2438743 -6.049247534 -2.940081493)
(113.5415007 -0.426647783 -15.1459834)
(122.7842819 15.27023412 1.59930773)
(120.7260987 -15.67407937 -5.555995284)
(109.4337789 12.09509649 -4.037977872)
(124.945248 13.55252832 -22.44134238)
(118.1204939 1.971727657 -4.18634925)
(110.6342445 -6.684906938 -0.6016952114)
(106.2513277 0.9333381216 14.65980972)
(108.2610673 -0.6397694995 5.583647731)
(110.3147205 -13.24813218 3.186446951)
(119.404889 -11.64199503 -15.84676128)
(109.2438743 -6.049247534 -2.940081493)
(117.052988 0.6832869653 -13.47740553)
(116.524232 -27.97270129 -11.83236534)
(110.6342445 -6.684906938 -0.6016952114)
(121.5045935 -14.62397132 -18.62887072)
)
;
    }
}


// ************************************************************************* //
