/*--------------------------------*- C++ -*----------------------------------*\
  =========                 |
  \\      /  F ield         | OpenFOAM: The Open Source CFD Toolbox
   \\    /   O peration     | Website:  https://openfoam.org
    \\  /    A nd           | Version:  7
     \\/     M anipulation  |
\*---------------------------------------------------------------------------*/
FoamFile
{
    version     2.0;
    format      ascii;
    class       volVectorField;
    location    "0.004";
    object      UMean;
}
// * * * * * * * * * * * * * * * * * * * * * * * * * * * * * * * * * * * * * //

dimensions      [0 1 -1 0 0 0 0];

internalField   nonuniform List<vector> 
546
(
(372.4176147 106.0644774 -0.6616187442)
(363.8016924 99.68435233 0.1149619563)
(340.44587 96.04096112 7.765142359)
(327.3479147 91.70070707 2.875061931)
(316.6934598 90.7402154 -3.523590933)
(307.758753 85.25309201 -0.7373393565)
(296.3023783 81.90482418 10.88221396)
(287.5192118 78.2300576 -1.593529832)
(287.2983934 81.66909917 -4.685247982)
(284.1080478 79.31400646 2.731096792)
(285.0445703 78.09698117 -4.380329285)
(274.3725448 75.60964382 -3.500122193)
(260.1190553 69.00703033 -0.5561016907)
(260.1048739 73.71565895 4.866708782)
(257.4475246 64.34360832 2.338610222)
(253.065738 69.67111901 -2.10962061)
(250.6999279 68.55000017 10.14068394)
(247.047457 67.16878564 10.9595126)
(242.239984 67.49776447 3.368421748)
(238.1151788 66.89024383 0.7433628587)
(241.8372478 61.70701193 -10.77715027)
(242.7914562 63.34383796 2.263788675)
(246.284031 66.64028433 -7.451027135)
(240.6458986 63.33045335 1.768678368)
(246.7896478 61.00601489 -8.153070999)
(246.9030351 72.78752504 -6.411995905)
(258.0595105 71.06762245 6.433179402)
(274.5549217 72.39333544 -1.084190429)
(304.8429445 77.37110778 -10.13963486)
(412.1547318 74.43797422 -5.595032922)
(649.7002734 194.3382466 2.70035824)
(624.0743204 193.1141752 -2.685313168)
(589.5340264 183.4772131 -2.469961595)
(574.0562081 170.6726148 3.563451878)
(565.521882 164.8614049 5.023977883)
(546.3680735 164.8007761 14.58211466)
(525.4632376 155.2334969 7.308693492)
(510.5735455 143.6681307 -1.101480518)
(506.3201259 142.4598533 0.4198426827)
(499.8155939 143.7933569 1.832925435)
(486.9388609 141.0863555 0.3855194817)
(479.0456048 137.5770347 -5.978215683)
(459.674372 130.0133669 4.190615048)
(451.1092117 125.6251062 11.48295758)
(428.8785391 117.9976406 8.264501885)
(430.6081524 119.3663823 8.209988797)
(432.5953908 120.0582449 -1.419311096)
(424.9653524 122.6242551 5.768526886)
(422.2195165 115.2954668 6.278377375)
(405.9929526 114.3032695 -6.940502365)
(403.7034821 103.6132747 -10.45442567)
(395.0202788 105.4492991 -1.235088495)
(391.2457637 105.7494978 -8.69936745)
(389.850556 105.4674992 -6.203739491)
(392.1588936 102.2688879 -13.89766862)
(400.3667029 109.5498681 -7.693487087)
(422.2743489 102.9135357 0.4685982209)
(451.3233082 115.8874557 0.7317843259)
(501.9992172 111.9923799 2.362103984)
(605.9906484 92.0218468 1.326605245)
(838.8500357 266.467886 3.068540053)
(813.7947497 259.5566921 6.75350314)
(794.4210173 248.4897879 -5.328629801)
(775.1893559 240.9906253 -4.676687165)
(758.2060445 230.673538 5.164853257)
(737.4861475 230.8831905 6.397608002)
(714.1029653 223.7807575 2.680500293)
(709.0599388 210.9028324 3.043049885)
(678.3585818 203.6034929 -4.034989442)
(665.1282945 198.3312338 -8.910064376)
(646.3040712 194.2356494 4.769648387)
(634.266281 187.4734362 0.5310882747)
(609.6681145 179.5831112 4.911377589)
(608.287794 176.0425354 5.881798047)
(582.0059616 168.8134017 6.176576509)
(581.3662047 165.7341094 13.39634229)
(585.1857578 164.3353956 -1.052248914)
(572.5087336 164.0852537 3.919832247)
(560.7435244 155.5533433 2.772196192)
(555.344259 157.2704615 5.594136444)
(545.8786526 150.9846104 1.466297911)
(538.6173118 152.1236546 -0.9273679895)
(523.3221975 145.3841848 -5.386211281)
(526.4367651 140.5029915 -4.520553998)
(530.1277544 134.2698924 -11.37458777)
(529.2823761 139.3500994 -3.23089906)
(553.9149411 145.0187592 5.008447197)
(580.2189482 142.0086025 -0.9499714575)
(631.5970695 134.1298158 2.675402365)
(725.2779594 111.1340264 11.43919206)
(1001.231704 319.5798609 6.675832821)
(979.076104 312.1648464 0.1884323316)
(949.4629107 310.0134381 0.762398644)
(928.2236587 296.1602864 0.8114852181)
(908.266575 285.0704777 7.835463268)
(875.3396008 279.7604863 -6.971333154)
(857.1832535 283.2594284 -0.5293501585)
(839.9466556 268.0425787 6.413750344)
(823.3424184 258.0081648 5.263839351)
(815.3049048 252.3605925 10.71607468)
(789.611545 243.1974094 -1.953766696)
(779.6799679 235.056366 8.077868454)
(763.7055434 234.2950515 10.21338502)
(750.6732532 219.0893818 5.958853479)
(735.5340939 221.0323582 3.131952387)
(731.83769 214.4421244 -4.532240782)
(710.0999699 202.9869266 -12.70807219)
(697.2797456 207.7383613 -2.378297615)
(686.1836112 196.5382247 -6.109143779)
(685.0684691 195.331952 1.296838391)
(674.1180921 195.5935518 -8.321944369)
(656.8620264 186.038656 -3.389132439)
(647.988765 184.5617434 -8.377283616)
(650.5566554 173.678383 -8.246637167)
(643.1047922 173.6587681 1.152991556)
(645.1620489 180.4335679 6.529791376)
(665.1847659 169.0102697 -0.8803352759)
(690.6985589 166.934432 7.536557142)
(745.2774648 156.2432067 -2.154241792)
(810.6734734 135.5953185 -3.643477051)
(1114.102056 344.4171822 14.94892437)
(1095.960163 352.0535719 2.049362661)
(1063.045241 343.2081113 -4.467057452)
(1031.120331 333.326078 1.007867585)
(1013.649658 335.8096539 -2.687635846)
(999.5684412 326.0601694 1.846303065)
(971.8388422 320.2134974 -1.720378672)
(958.8786436 307.8355212 2.566742504)
(953.2135746 303.1591309 -0.351129748)
(931.6676486 297.4740216 -0.1810229156)
(912.2329054 288.0813263 1.590486384)
(902.2846255 274.6658558 2.601504238)
(886.5168942 274.1248681 1.660786552)
(872.842131 271.1506339 -2.51229215)
(848.1748255 267.0972464 -0.8398618867)
(844.9442718 256.6772994 -1.769830719)
(817.6335587 247.9221384 -10.49043414)
(805.8316955 238.1025609 -3.005527661)
(794.4325145 234.2533938 -7.298697071)
(786.2777253 232.7243743 -4.606074939)
(769.8925728 223.5892415 -0.5815749839)
(753.4009706 217.0896184 5.939477106)
(752.2478383 219.795696 -2.367371236)
(751.5176989 217.3855276 -11.00932318)
(757.2255686 211.320027 -1.201634002)
(755.856082 203.4448566 -1.531409945)
(763.1836785 196.9611701 0.07856198622)
(789.1646932 192.9883281 -3.011423182)
(811.1476709 183.347961 0.01908584343)
(884.3843727 164.2950087 -6.567710487)
(1202.49615 340.7669049 4.43955705)
(1171.057774 354.3559509 11.00156316)
(1156.122967 363.613612 7.851847888)
(1137.383855 363.7350517 -0.02782120617)
(1115.286652 358.450972 4.635945294)
(1108.947778 352.3668731 -1.23003828)
(1068.73824 355.4505851 5.686053805)
(1065.729966 349.6279772 -4.149473378)
(1058.765741 341.5376352 0.7203174541)
(1034.882025 331.9214568 -0.2658627245)
(1014.576136 322.0014546 0.4577011977)
(1010.567757 316.3499838 -4.624329009)
(978.7835869 317.4409888 -0.7053523435)
(973.4712799 313.827416 3.250256643)
(951.2796528 295.3984543 0.5274315654)
(944.7833671 299.4968851 6.684916614)
(918.2441878 286.8547978 5.105289228)
(917.0183772 281.2017037 -8.202661092)
(899.2066995 275.9399843 -8.94493124)
(885.5937522 267.6834534 -2.940595709)
(873.3980923 257.8656928 0.6100158358)
(847.902712 258.3943402 7.152392266)
(851.9934517 243.9289977 3.76999991)
(853.5898122 250.2451118 -4.163616912)
(841.2503857 238.2186023 -1.376748496)
(843.6105959 237.0615054 1.392567091)
(861.2889595 229.0488959 -1.493326307)
(875.4860181 218.8799955 -4.151757093)
(905.3257186 210.9156136 -1.716042397)
(946.4090138 193.0166478 4.154317767)
(1274.700226 331.2359757 2.272894344)
(1250.389628 350.2764156 8.513626711)
(1237.833251 369.8723409 2.404089111)
(1216.688181 361.942212 1.519054625)
(1195.372367 374.1595103 2.600112876)
(1181.659941 374.1107748 -3.523474186)
(1157.30679 371.6674082 0.5207579917)
(1141.193172 376.3100161 -0.7544839561)
(1122.889295 367.2521965 1.558748924)
(1111.49328 360.1291004 1.970288792)
(1090.278843 360.6023243 -0.05226406274)
(1086.332011 352.3027632 5.559767416)
(1068.33526 354.0071435 -1.043911873)
(1059.148574 339.5425177 5.499478886)
(1036.998547 337.2928881 1.530703456)
(1021.847122 326.0669763 -0.7296705684)
(999.854376 318.1731676 -4.838661679)
(985.4450348 313.6931577 2.217993869)
(977.4338633 304.9752931 2.850488003)
(979.0464752 299.9262966 2.742896834)
(954.6861186 292.988644 -1.196656851)
(943.2192598 280.3686233 -1.186814487)
(933.6162979 275.5378572 1.996060085)
(934.3338395 280.0256148 -4.880028204)
(930.7931228 272.8288932 0.8152469381)
(926.635607 254.6465538 -0.4552276432)
(931.8953468 255.3759553 3.506450321)
(948.1925482 245.7258614 -1.858508831)
(971.2930917 240.6735138 0.5821578344)
(1002.975674 217.9291181 -0.9169883621)
(1355.729245 308.0291104 -8.61475499)
(1325.237267 335.18341 -7.132668334)
(1308.34061 340.8656771 -4.007400944)
(1283.555046 360.1504367 0.6452372799)
(1266.246054 370.1779686 -1.646072311)
(1252.592465 384.4935383 -2.008805697)
(1235.492653 384.4573936 0.1781561215)
(1214.249379 382.3365924 2.781777397)
(1188.907436 392.21691 4.439043537)
(1178.237711 392.0481481 1.085227576)
(1158.276568 386.4329439 2.438422131)
(1156.74342 379.3843973 3.443820029)
(1140.610694 372.7536005 10.08082653)
(1120.290403 366.1538361 3.043881174)
(1111.85584 351.4847809 0.9042044758)
(1101.407675 361.6082274 6.304356429)
(1079.410862 355.6063498 7.856937959)
(1074.338432 342.2088392 2.139242008)
(1055.150559 337.3078694 1.621486689)
(1045.155778 332.4700495 1.697882148)
(1035.642111 318.2833468 3.219734037)
(1020.785116 315.8810874 9.577558736)
(1019.805569 309.688471 8.96318747)
(1009.752049 306.6370864 6.671493468)
(1007.626991 293.4199635 -6.292315857)
(1008.512676 290.0440101 -0.625168071)
(1004.041098 279.6256246 -2.866483678)
(1016.444071 277.8080547 -1.012039655)
(1030.981434 257.9755449 -1.27420907)
(1052.46033 253.2492387 -5.327064823)
(1421.099632 276.1099032 -3.676106443)
(1391.969301 294.2337049 -5.749715164)
(1365.253087 324.1332387 -4.41899205)
(1343.370775 335.127369 2.414575261)
(1319.991766 346.2491125 7.883842615)
(1302.841638 366.6387243 1.911201594)
(1283.50468 389.667343 -2.478204606)
(1264.625963 391.147777 2.316349441)
(1250.894668 391.1345051 4.303241218)
(1238.876168 392.1961947 5.839964066)
(1226.146667 396.7930708 6.13487148)
(1207.092038 396.1688772 0.6213123358)
(1193.807727 393.6491851 -3.621734684)
(1181.564827 392.8777559 -0.7916590528)
(1171.118622 384.8668574 2.808406053)
(1157.234053 373.5083845 -3.716979068)
(1147.183815 372.0202302 0.8684879677)
(1130.78462 368.9011312 3.907609154)
(1125.163639 360.9654414 -1.32329049)
(1114.006413 350.8676765 -1.039067864)
(1105.650253 346.5869179 5.029689725)
(1090.951586 346.5761041 1.234849979)
(1078.531208 337.3502162 0.6798579661)
(1076.67782 328.6276512 1.214196287)
(1063.501124 322.5313814 6.97470668)
(1072.859386 313.0378111 -4.733975605)
(1074.465041 303.8257684 -10.72266121)
(1076.080363 300.387689 -3.057710666)
(1085.197774 289.3737554 -0.09092479824)
(1091.811345 273.4118544 -3.097998065)
(1478.200956 226.682565 -6.481406702)
(1450.707563 258.3182502 -5.247295756)
(1415.541544 291.724771 -2.17152413)
(1396.888651 306.2502811 -2.230323073)
(1377.413227 325.0155854 -4.873058641)
(1355.958081 351.5800738 -0.948392699)
(1340.43293 360.8802086 4.003639402)
(1320.264996 377.4459737 0.8399882609)
(1305.931294 386.1635697 -0.06333953288)
(1294.351503 395.5699267 6.621549647)
(1276.351807 407.8794245 -1.432653828)
(1260.191368 412.7457227 1.294659675)
(1248.934922 408.527762 2.75320573)
(1233.234592 405.9045866 -1.026611117)
(1218.594283 398.8275877 1.35832328)
(1214.589439 393.4541648 3.167008688)
(1197.65242 384.9974863 3.967944395)
(1198.780976 385.4809194 1.175876724)
(1184.542597 383.6404111 4.341093993)
(1160.989336 379.9468783 4.87854769)
(1166.501516 377.5608397 0.6049440065)
(1145.428232 368.1600233 3.932495547)
(1133.111888 362.9596316 -3.583069041)
(1130.095412 351.0983797 -1.876181358)
(1129.568421 343.551506 -7.083354894)
(1126.575809 335.6146593 -11.38742325)
(1128.010491 327.2313316 -3.795015231)
(1125.662603 322.0930487 -2.320860596)
(1125.007709 308.7144587 -6.005425993)
(1137.666995 311.9017795 -4.122751985)
(1530.002531 193.8156914 2.837316499)
(1508.615238 214.2783471 5.660246856)
(1467.154479 245.3189601 -2.845086305)
(1442.854219 277.3902985 0.7699107544)
(1430.037887 297.0563804 2.69785332)
(1413.158395 311.7411053 -3.213453034)
(1382.017355 336.8672715 -3.806462106)
(1369.059712 354.704419 -3.696782796)
(1355.050632 373.8971421 -2.707599799)
(1334.376133 389.4836233 -3.137591028)
(1328.347442 398.743431 -6.177251473)
(1308.221239 402.8430743 -0.638078698)
(1290.21172 406.2946116 -3.065379282)
(1282.225043 408.2143087 -3.053873015)
(1266.196922 407.8740062 -4.166774463)
(1256.284762 401.4666754 5.266220645)
(1241.759446 408.0688304 0.1304739745)
(1245.886103 401.1666494 -0.3135715096)
(1229.228915 406.2318692 0.626742384)
(1217.383151 405.5019848 5.517452746)
(1209.09456 395.5598423 -0.8200519333)
(1199.822465 382.668457 -0.2025515154)
(1195.860453 379.7527507 -0.2358909014)
(1187.541894 369.5920001 6.298466773)
(1178.645325 368.1849314 3.622022911)
(1165.074032 360.9414567 3.105617484)
(1165.211916 350.1568307 -1.355411324)
(1175.519019 342.8872456 2.457006168)
(1173.72295 342.4755751 -0.1152816715)
(1174.676862 323.5610665 0.2758300307)
(1573.133703 141.9745305 2.912922658)
(1541.40742 174.4800522 4.834506286)
(1528.195985 193.7078728 6.646619099)
(1505.001082 231.4864661 8.733543714)
(1481.823064 257.3240498 2.855366112)
(1457.649584 278.7671088 0.3428925756)
(1436.450564 304.4987043 -0.628623661)
(1416.290541 330.8401865 -1.101930224)
(1389.640488 353.1317635 -5.497368871)
(1379.034222 368.5747439 -0.5605489167)
(1360.979786 374.9593269 1.625597042)
(1351.55279 387.0075815 3.326742873)
(1342.283764 397.6259576 -0.2776080484)
(1335.315953 400.827488 0.0273642204)
(1315.80052 413.578271 0.236206432)
(1300.322526 420.8596365 1.796347524)
(1290.205418 419.0720108 6.560786441)
(1282.450265 418.883607 7.788258109)
(1280.181709 414.3998014 5.305822563)
(1264.144025 406.1651205 0.03491221256)
(1251.630796 405.6343639 1.538003707)
(1238.105108 403.725809 -0.2492592472)
(1238.435926 404.1260941 -6.374607725)
(1228.066609 390.346132 -4.649016418)
(1223.033061 382.1783311 0.8849643003)
(1211.137505 384.7122057 2.67906264)
(1207.620482 372.2958082 1.066887327)
(1213.334019 362.2372149 2.658747141)
(1207.575406 349.2441944 1.948183946)
(1216.860489 344.9366869 -0.8606494524)
(1620.084164 114.0292222 -3.308873374)
(1603.68117 133.8517706 -1.403055607)
(1578.962449 155.6981874 -3.73443668)
(1549.365306 179.8900085 -1.907329007)
(1528.527406 210.1253854 -1.862642838)
(1501.375978 244.4240591 -2.014039611)
(1484.212246 275.5497829 -0.6591925991)
(1469.813314 296.4324247 -5.067854887)
(1444.549263 314.320097 -6.326339089)
(1424.820128 328.6595929 -6.63881323)
(1397.925651 347.8938866 -1.226546469)
(1387.261659 371.758892 -5.695096651)
(1374.035158 378.1196758 -2.010672773)
(1359.946116 391.3329166 0.5231853498)
(1351.243901 398.9823123 -1.635798191)
(1341.745468 418.3555043 4.732018724)
(1324.326855 418.1220231 5.205400759)
(1316.584765 418.5501992 1.906356197)
(1298.402107 409.4472515 2.529284399)
(1298.547645 410.6135108 3.513977877)
(1292.515072 415.4346699 1.672527671)
(1273.068989 417.3615185 3.012431452)
(1266.085579 410.0551548 5.153380812)
(1260.466508 412.1079865 6.538669188)
(1263.848586 403.2855366 8.294323653)
(1255.116332 393.3930626 5.042451495)
(1239.985459 390.5715726 3.137689709)
(1242.274015 379.4980175 1.903770196)
(1239.840437 371.5031475 2.682763235)
(1244.241493 349.582924 1.445991953)
(1640.1747 93.31406229 -5.802937879)
(1624.171106 106.2460502 -8.35296175)
(1610.10748 124.8003955 -4.366858439)
(1587.774323 152.4383527 -1.823769224)
(1579.112095 172.0695084 1.118858703)
(1552.777345 196.6191975 1.775821224)
(1530.205088 222.8926239 -1.343596617)
(1515.170695 245.7043909 7.540949542)
(1489.266084 273.6363733 4.383764786)
(1463.748646 300.4486776 0.641780879)
(1447.394313 320.4042437 -6.166004709)
(1430.334828 333.7835634 -2.153572135)
(1415.249894 361.6595908 -7.545019392)
(1391.975173 379.5365925 -3.620587969)
(1385.306965 390.4151462 -3.010921721)
(1367.876246 395.1885808 -8.017203877)
(1358.657449 405.2324708 -4.916951091)
(1348.01025 415.2822419 -3.921025177)
(1344.605511 424.7069905 2.193275443)
(1326.038607 421.3752207 0.2750344626)
(1311.940207 418.0404201 -4.828427201)
(1311.061676 428.1562877 1.642033469)
(1298.458228 427.4414725 2.005956987)
(1295.364424 430.9451568 -2.935780241)
(1289.124781 414.1585415 -1.365935664)
(1285.667491 405.3860917 2.342843511)
(1273.711673 396.3159754 1.2981123)
(1267.481263 391.1330163 2.65605838)
(1265.710772 378.5942457 -2.874396359)
(1268.77404 364.9548438 0.2976989989)
(1667.062045 70.46251321 2.530888222)
(1661.125619 80.69914022 1.320505259)
(1649.967819 97.18204373 -0.7745872343)
(1631.736631 111.4738958 1.262462396)
(1614.655258 134.7387553 -2.674084147)
(1594.205349 159.3109121 4.613421993)
(1570.779949 183.196514 4.429593052)
(1551.425873 205.4921436 4.76922703)
(1532.987974 229.4901323 3.552869598)
(1518.300585 255.970034 7.023951258)
(1489.782331 290.3813723 2.898309223)
(1472.213849 316.2722234 1.629940167)
(1448.789779 331.3129411 -2.580453617)
(1435.481253 350.0964391 -0.9281887243)
(1418.196279 363.5343309 1.024415218)
(1404.74778 383.8314655 2.322184776)
(1387.637234 398.7986882 0.4479534886)
(1382.239131 405.2280733 2.516309212)
(1363.87532 416.8723373 0.2943720317)
(1352.290362 420.6845463 0.3301718101)
(1351.574161 422.3978574 1.585064244)
(1331.109189 425.1538648 -4.936990009)
(1324.175864 427.9232884 2.112010273)
(1320.830722 430.3457462 -0.141255634)
(1322.43201 421.7492777 0.4607483033)
(1313.393323 417.337782 -6.443100669)
(1306.258905 408.5959997 -6.609364861)
(1304.148361 406.3256258 -8.344941501)
(1299.343469 400.1377356 -2.875279951)
(1303.854351 395.0526642 -2.094093844)
(1683.736078 51.34234146 -0.7360810923)
(1678.627534 66.15630651 0.07737797611)
(1670.934263 78.75658532 -1.845042635)
(1656.37091 93.69810699 -3.014641542)
(1648.411953 106.8439902 2.014473393)
(1624.203957 127.1959464 1.003508543)
(1607.072159 143.474794 -0.3045965848)
(1590.826591 171.5681848 -1.844967782)
(1570.182113 200.2363851 3.491942209)
(1555.927605 217.6583433 4.100647617)
(1532.471647 247.1044129 -1.716633061)
(1509.626068 273.9377018 3.329409235)
(1492.999541 294.2262386 3.304089866)
(1480.951168 315.8103043 -2.500409004)
(1454.637743 340.1974218 -8.06960415)
(1439.801069 357.9977223 -2.936844115)
(1423.487352 373.0126527 -6.073279365)
(1410.565191 391.3611848 -1.532414083)
(1397.845319 404.0391478 -3.203435228)
(1384.142397 412.7369235 -0.9549271526)
(1377.881843 415.3678354 -1.51446769)
(1372.176114 419.8805547 1.015153106)
(1358.262862 426.8262718 0.7069306264)
(1337.752267 429.170182 -1.992428596)
(1337.446488 431.2131717 -0.4516341151)
(1341.383104 426.0075474 0.2604271244)
(1333.455775 420.3407659 -3.211872394)
(1330.378866 417.3208183 -2.462272019)
(1324.983418 409.5069218 -3.872148048)
(1702.314487 36.32664637 4.568454132)
(1691.703042 52.21250202 6.358826038)
(1682.207936 59.33600564 5.372844895)
(1669.69205 70.00685524 3.17823367)
(1663.857738 81.6205102 1.644848493)
(1649.925702 97.20961504 -0.5077232277)
(1631.681749 121.4786115 -2.002345396)
(1616.479524 133.3997332 1.680747493)
(1598.401102 157.3451119 2.4645122)
(1581.061476 180.9145972 -5.759675191)
(1573.424324 202.5912565 -5.936959518)
(1553.489609 227.745416 -5.246986602)
(1533.903729 257.0342215 6.406991401)
(1515.032704 279.1670505 7.070819471)
(1491.870437 308.5234863 0.6271434336)
(1474.180308 331.1471473 -1.244596198)
(1461.726244 357.6056352 -5.324303819)
(1444.191106 372.394777 0.7311793524)
(1428.007656 383.6985561 -5.18100645)
(1413.054044 392.629757 -0.4117133595)
(1400.301749 404.0281912 3.154641365)
(1390.546663 405.7794778 -0.5846340202)
(1382.979249 413.3693154 -1.402333381)
(1367.514088 426.4694059 -3.248447324)
(1707.928806 28.40217822 4.952322207)
(1703.433475 30.00606869 4.467627518)
(1689.970183 40.02155313 1.953342152)
(1683.120699 50.6189433 -3.173097583)
(1678.724971 63.1648914 -0.5337326566)
(1668.984887 78.5348813 0.8229508071)
(1658.026116 91.44690112 -4.463378438)
(1640.591614 103.0520637 -3.366139543)
(1638.585043 115.4135217 1.213691841)
(1621.868709 144.3711299 2.518172535)
(1604.747972 169.6189833 -3.407505046)
(1580.493379 194.0464327 -7.482478726)
(1569.535388 218.2612198 -7.056263408)
(1548.600298 247.1514959 -2.446160983)
(1521.884067 271.9750236 2.583860366)
(1506.518328 292.9741599 0.5833379746)
(1488.312864 314.31041 -1.497613945)
(1476.676897 331.8923301 -6.901831632)
(1450.036545 357.1374737 -2.161770846)
(1718.812761 19.98030725 -3.676470642)
(1712.218322 25.79574339 -4.605346637)
(1706.80442 34.95956817 -3.424826506)
(1702.288634 44.2773863 -2.099275587)
(1697.390754 54.26297369 1.664377886)
(1687.889838 55.8814588 0.4959580339)
(1679.791468 69.20206536 1.60604403)
(1663.105103 88.22543243 -1.521179498)
(1650.92296 106.4062938 -2.003569614)
(1637.069 119.5283017 -2.115644802)
(1622.51635 130.8696284 -3.043666322)
(1610.21169 155.9043353 -6.453717405)
(1590.987007 174.4344444 -4.115244063)
(1572.567287 197.1017849 -3.679302896)
(1721.114252 21.25124956 0.5793249372)
(1717.087602 22.62121841 -0.2314431933)
(1713.211744 27.04285604 0.1559433483)
(1706.768229 31.10457118 -3.432814467)
(1693.040652 43.05677319 -4.661853562)
(1687.213665 52.31220171 -7.066473338)
(1684.040408 61.27601952 -9.940052585)
(1676.13505 70.19877515 -9.817677439)
(1719.740329 14.83400263 -4.22355047)
(1719.535655 19.46251147 -5.11523347)
)
;

boundaryField
{
    flow
    {
        type            calculated;
        value           nonuniform List<vector> 
15
(
(412.1547318 74.43797422 -5.595032922)
(605.9906484 92.0218468 1.326605245)
(725.2779594 111.1340264 11.43919206)
(810.6734734 135.5953185 -3.643477051)
(884.3843727 164.2950087 -6.567710487)
(946.4090138 193.0166478 4.154317767)
(1002.975674 217.9291181 -0.9169883621)
(1052.46033 253.2492387 -5.327064823)
(1091.811345 273.4118544 -3.097998065)
(1137.666995 311.9017795 -4.122751985)
(1174.676862 323.5610665 0.2758300307)
(1216.860489 344.9366869 -0.8606494524)
(1244.241493 349.582924 1.445991953)
(1268.77404 364.9548438 0.2976989989)
(1303.854351 395.0526642 -2.094093844)
)
;
    }
    obstacle
    {
        type            calculated;
        value           nonuniform List<vector> 
30
(
(208.6338945 55.90328365 -7.695519284)
(187.9688576 50.36610369 -2.443954152)
(188.3654179 50.47236145 31.43214651)
(164.3460397 44.03638869 27.02585101)
(164.4606339 44.06709389 -4.049171786)
(154.4650044 41.38877327 6.840196244)
(155.3116425 41.61562926 11.05681225)
(139.1733812 37.29139499 -13.62580109)
(163.3879015 43.77965633 1.77544273)
(156.0613641 41.81651656 11.38708255)
(163.5011901 43.81001172 7.933159687)
(138.0891012 37.00086323 8.448927103)
(145.3844624 38.95564936 1.063681741)
(136.2616205 36.51119107 0.8325635419)
(142.3638866 38.1462885 3.194908858)
(135.0790778 36.19432969 10.70478509)
(148.3911324 39.76128416 11.3712478)
(142.0298844 38.05679288 24.1395089)
(140.7643267 37.71768754 2.741397165)
(150.7512197 40.39366765 -4.165693563)
(123.371544 33.05730564 2.361363367)
(138.7735669 37.18426506 6.700317065)
(139.9238215 37.49247503 4.641178008)
(154.4270509 41.37860364 31.74969771)
(141.0846663 37.80352227 1.071362004)
(142.9939232 38.31510632 -6.429079156)
(163.0824488 43.69781033 -1.958183735)
(158.0309191 42.34425722 5.630828916)
(177.0113695 47.43005361 -21.24895674)
(202.5238919 54.26611312 10.90367693)
)
;
    }
    frontAndBack
    {
        type            empty;
    }
    procBoundary1to0
    {
        type            processor;
        value           nonuniform List<vector> 
21
(
(375.0355368 108.6892265 7.473844388)
(665.4983863 198.9757372 6.524365827)
(868.5182436 272.5729429 7.097417284)
(1032.497903 317.7074551 2.464190608)
(1143.822557 341.2565962 12.97042165)
(1213.604492 344.9244411 0.42911823)
(1298.462152 316.923574 -4.206281185)
(1375.596621 279.9297091 -7.398255155)
(1451.076559 245.9184854 -1.179950307)
(1504.930571 195.2931384 -3.05720479)
(1564.650326 153.3286455 3.733620338)
(1592.823092 123.8197723 1.122073126)
(1641.87446 91.54679972 2.310959385)
(1656.814568 76.9929708 -2.88655792)
(1680.998857 61.79179662 0.7115403531)
(1694.323209 34.1518855 -1.642749128)
(1710.196021 27.18279144 2.159757947)
(1710.164144 22.06124685 3.064335184)
(1722.206726 16.6506082 1.842905351)
(1722.765237 19.02315949 3.527343065)
(1722.606995 13.14102259 -5.461870734)
)
;
    }
    procBoundary1to3
    {
        type            processor;
        value           nonuniform List<vector> 
36
(
(1319.385425 397.6542633 -6.04504147)
(1360.056924 430.1009936 -7.650824815)
(1354.621153 428.2574883 -3.095675331)
(1355.40008 427.2208579 0.1184928007)
(1352.101043 418.0112381 0.283846426)
(1319.385425 397.6542633 -6.04504147)
(1354.632878 415.2525243 -0.2315678728)
(1439.025216 372.7743378 -0.3452645015)
(1428.130503 386.5997218 -3.112130358)
(1425.204847 398.8013802 -1.370852256)
(1409.895604 403.8265208 3.129269275)
(1360.056924 430.1009936 -7.650824815)
(1397.625023 409.4299979 4.899323569)
(1558.00553 224.7627198 -0.9800192083)
(1541.790278 249.9026543 -2.953066165)
(1523.527399 278.7922944 0.4885667363)
(1511.77137 299.5718551 2.143335771)
(1439.025216 372.7743378 -0.3452645015)
(1496.925788 315.9155045 1.830653213)
(1665.738286 74.16698624 -7.087634017)
(1657.343629 95.30283081 -8.316167414)
(1645.857387 108.8225197 -1.721437218)
(1632.823186 124.8930763 0.9550227616)
(1624.078476 143.8063494 1.597013113)
(1558.00553 224.7627198 -0.9800192083)
(1614.864093 160.6083811 -3.665010613)
(1712.513379 25.86028188 -5.006019794)
(1707.20597 25.07749031 -3.369750492)
(1700.877587 32.40294067 -1.400373442)
(1695.494244 39.15550508 1.139886208)
(1691.434263 46.98901242 1.307460079)
(1665.738286 74.16698624 -7.087634017)
(1685.736973 52.22891023 0.6960410655)
(1723.241057 9.226000312 -0.6026467233)
(1712.513379 25.86028188 -5.006019794)
(1720.775022 10.02858261 -1.837465367)
)
;
    }
}


// ************************************************************************* //
