/*--------------------------------*- C++ -*----------------------------------*\
  =========                 |
  \\      /  F ield         | OpenFOAM: The Open Source CFD Toolbox
   \\    /   O peration     | Website:  https://openfoam.org
    \\  /    A nd           | Version:  7
     \\/     M anipulation  |
\*---------------------------------------------------------------------------*/
FoamFile
{
    version     2.0;
    format      ascii;
    class       volScalarField;
    location    "0.0125";
    object      internalE;
}
// * * * * * * * * * * * * * * * * * * * * * * * * * * * * * * * * * * * * * //

dimensions      [1 -1 -2 0 0 0 0];

internalField   nonuniform List<scalar> 
250
(
0.243452
0.25844
0.276895
0.279737
0.29103
0.275945
0.284855
0.281474
0.30698
0.277559
0.264175
0.263031
0.278677
0.245296
0.291664
0.263274
0.29127
0.281543
0.266731
0.307071
0.295218
0.289646
0.283419
0.256434
0.282368
0.299618
0.293489
0.313418
0.318528
0.278446
0.304643
0.291754
0.299062
0.295851
0.314801
0.313805
0.322691
0.338526
0.299074
0.308501
0.313333
0.32825
0.311914
0.340116
0.299619
0.328601
0.303197
0.339094
0.327854
0.325226
0.318857
0.311921
0.324916
0.322565
0.31645
0.322083
0.329325
0.31976
0.327049
0.330554
0.334952
0.327795
0.343743
0.348971
0.328914
0.320583
0.341158
0.319427
0.352612
0.319223
0.330229
0.346004
0.378041
0.335584
0.32964
0.342802
0.321742
0.33579
0.343977
0.348311
0.355063
0.346796
0.352602
0.379785
0.361823
0.326461
0.330696
0.362148
0.371349
0.357847
0.383047
0.350137
0.370774
0.350165
0.328523
0.36472
0.332021
0.358949
0.358024
0.395699
0.34083
0.374954
0.361131
0.360478
0.373289
0.367928
0.374866
0.357897
0.366398
0.394761
0.389257
0.349038
0.34905
0.37092
0.398431
0.346991
0.360427
0.380003
0.329294
0.348042
0.375517
0.362653
0.399148
0.384549
0.363456
0.363646
0.400732
0.358953
0.355897
0.384913
0.360441
0.377174
0.35459
0.365223
0.389196
0.352426
0.389715
0.368642
0.39433
0.388189
0.452675
0.376755
0.364892
0.374668
0.391502
0.380986
0.386506
0.392686
0.372971
0.35802
0.375008
0.387317
0.363378
0.379698
0.360168
0.397229
0.353227
0.380303
0.366716
0.417625
0.37776
0.393556
0.391295
0.390988
0.381356
0.370518
0.379715
0.370246
0.420471
0.430629
0.370974
0.421681
0.355629
0.385143
0.390922
0.364909
0.377488
0.393416
0.371701
0.386347
0.362165
0.394676
0.374901
0.364107
0.383056
0.355226
0.4058
0.398189
0.371854
0.387977
0.401969
0.370819
0.413504
0.400197
0.383262
0.406286
0.349531
0.406409
0.389463
0.385513
0.400352
0.413413
0.365924
0.379195
0.394834
0.392662
0.401824
0.382532
0.375676
0.375915
0.416036
0.389029
0.422305
0.415765
0.393468
0.388652
0.398759
0.400792
0.376343
0.392103
0.378716
0.397835
0.391021
0.392458
0.390416
0.400941
0.394681
0.385129
0.375873
0.41795
0.398859
0.385849
0.37024
0.380442
0.357506
0.388287
0.374343
0.372558
0.397859
0.435454
0.35552
0.384725
0.38759
0.39578
0.400752
0.365748
0.411806
0.410424
0.406003
0.401613
)
;

boundaryField
{
    sides
    {
        type            symmetry;
    }
    empty
    {
        type            empty;
    }
    procBoundary3to2
    {
        type            processor;
        value           uniform 0.268772;
    }
}


// ************************************************************************* //
