/*--------------------------------*- C++ -*----------------------------------*\
  =========                 |
  \\      /  F ield         | OpenFOAM: The Open Source CFD Toolbox
   \\    /   O peration     | Website:  https://openfoam.org
    \\  /    A nd           | Version:  7
     \\/     M anipulation  |
\*---------------------------------------------------------------------------*/
FoamFile
{
    version     2.0;
    format      ascii;
    class       volScalarField;
    location    "0.00288";
    object      T;
}
// * * * * * * * * * * * * * * * * * * * * * * * * * * * * * * * * * * * * * //

dimensions      [0 0 0 1 0 0 0];

internalField   nonuniform List<scalar> 
500
(
900
900
900
900
900
900
900
900
900
900
900
900
900
900
900
900
900
900
900
900
900
900
900
900
900
900
900
900
900
900
900
900
900
900
900
900
900
900
900
900
900
900
900
900
900
900
900
900
900
900
900
900
900
900
900
900
900
900
900
900
900
900
900
900
900
900
900
900
900
900
900
900
900
900
900
900
900
900
900
900
900
900
900
900
900
900
900
900
900
900
900
900
900
900
900
900
900
900
900
900
900
900
900
900
900
900
900
900
900
900
900
900
900
900
900
900
900
900
900
900
900
900
900
900
899.999
899.998
899.995
899.986
899.961
899.894
899.705
899.171
897.634
893.043
884.288
877.364
872.956
869.78
867.176
864.83
862.583
860.355
858.11
855.838
853.543
851.234
848.917
846.597
844.28
841.965
839.654
837.348
835.046
832.748
830.454
828.164
825.879
823.598
821.321
819.048
816.779
814.513
812.252
809.994
807.74
805.49
803.243
801
798.76
796.524
794.292
792.062
789.837
787.614
785.395
783.179
780.966
778.757
776.551
774.348
772.148
769.952
767.759
765.569
763.382
761.198
759.017
756.84
754.666
752.495
750.327
748.162
746.001
743.843
741.688
739.537
737.389
735.244
733.103
730.965
728.83
726.7
724.573
722.449
720.329
718.213
716.1
713.991
711.886
709.784
707.685
705.59
703.499
701.41
699.326
697.247
695.178
693.128
691.114
689.168
687.345
685.712
684.353
683.332
682.618
682.224
682.048
681.97
681.942
681.992
682.161
682.309
682.39
682.412
682.419
682.42
682.421
682.411
682.37
682.318
682.27
682.229
682.207
682.176
682.132
682.088
682.051
682.027
682.024
682.012
681.996
681.976
681.965
681.964
681.971
681.971
681.972
681.974
681.989
682.01
682.035
682.053
682.063
682.068
682.084
682.104
682.124
682.135
682.136
682.132
682.133
682.141
682.158
682.182
682.201
682.211
682.213
682.208
682.204
682.186
682.149
682.107
682.07
682.04
682.018
681.992
681.967
681.944
681.933
681.928
681.921
681.901
681.873
681.844
681.817
681.804
681.792
681.77
681.746
681.723
681.705
681.697
681.687
681.681
681.672
681.654
681.628
681.605
681.582
681.548
681.526
681.501
681.469
681.449
681.43
681.429
681.43
681.437
681.433
681.412
681.34
681.166
680.829
680.169
678.849
676.275
671.354
662.12
645.119
614.672
565.359
514.148
487.935
478.258
474.804
473.965
474.326
476.125
477.224
478.138
478.881
479.094
478.961
478.001
476.039
474.883
474.279
474.039
474.308
475.769
476.738
477.326
477.952
478.3
478.268
477.311
476.595
476.457
476.34
476.262
476.475
477.361
477.582
477.344
476.895
476.493
475.957
475.006
474.657
474.743
475.183
475.792
476.633
477.875
478.435
478.534
478.536
478.43
477.939
476.795
475.995
475.281
473.26
456.605
373.66
304.784
300.254
300.014
300.001
300
300
300
300
300
300
300
300
300
300
300
300
300
300
300
300
300
300
300
300
300
300
300
300
300
300
300
300
300
300
300
300
300
300
300
300
300
300
300
300
300
300
300
300
300
300
300
300
300
300
300
300
300
300
300
300
300
300
300
300
300
300
300
300
300
300
300
300
300
300
300
300
300
300
300
300
300
300
300
300
300
300
300
300
300
300
300
300
300
300
300
300
300
300
300
300
300
300
300
300
300
300
300
300
300
300
300
300
300
300
300
)
;

boundaryField
{
    sides
    {
        type            zeroGradient;
    }
    empty
    {
        type            empty;
    }
}


// ************************************************************************* //
