/*--------------------------------*- C++ -*----------------------------------*\
  =========                 |
  \\      /  F ield         | OpenFOAM: The Open Source CFD Toolbox
   \\    /   O peration     | Website:  https://openfoam.org
    \\  /    A nd           | Version:  7
     \\/     M anipulation  |
\*---------------------------------------------------------------------------*/
FoamFile
{
    version     2.0;
    format      ascii;
    class       volScalarField;
    location    "0.008";
    object      internalT;
}
// * * * * * * * * * * * * * * * * * * * * * * * * * * * * * * * * * * * * * //

dimensions      [1 2 -2 0 0 0 0];

internalField   nonuniform List<scalar> 
654
(
331.9878722
372.9555044
375.6199508
359.1405619
346.396529
338.5386266
327.2107329
384.5032158
388.6136375
380.9299721
370.4464741
392.2557935
359.2204433
355.8062315
346.1286144
348.6131197
341.5125107
321.1129372
396.6627078
399.857976
401.687822
381.6926005
374.4966718
361.7644393
379.208909
366.3492316
366.0286274
362.8077834
351.0728012
348.5414092
342.3463558
335.6911373
323.4602676
319.4341025
399.6432502
395.1931238
391.0302505
394.1136605
407.6200113
393.0318325
394.0789494
397.1276374
388.2410993
376.5631745
373.6410971
379.3282599
378.9327794
363.9866671
354.2039915
359.958637
352.1613284
343.2491318
348.8966521
349.4279086
332.1043019
327.5846627
392.1169072
398.3990867
399.2623795
395.3434267
393.5733208
396.4952206
382.225074
386.8005514
388.4102948
400.1881247
412.8904416
395.2004576
402.2310708
388.1485059
391.9509081
381.6524344
373.4270163
368.7288824
375.9169222
366.163336
361.2579611
351.4678855
354.5916746
353.6438884
351.4581378
338.0192908
337.5706303
333.1396985
379.160178
376.4112387
383.0304582
402.9513462
393.7917442
394.5589844
387.7913152
386.4579372
397.0864709
392.1525512
395.1725147
394.854676
405.108335
383.4004628
379.0239684
385.7138195
382.9620834
381.5668192
374.2994845
365.264593
369.3304497
361.9290481
358.6647236
350.587736
333.5081893
343.8350553
350.9719738
340.9144848
336.1268657
323.3671695
364.1059076
364.0366929
371.6884422
388.5369099
380.5223857
383.1854655
376.8037012
386.5702779
383.5434308
388.1500303
388.6392332
400.9305793
402.7739004
374.9810807
362.1590657
371.1180773
364.9241426
378.2100102
380.7639666
360.8257781
362.324137
361.0186211
352.2690629
341.990882
348.1014622
349.3523244
342.3704461
332.6363749
333.5492716
346.1861826
365.2104872
378.560119
378.4186741
375.4810682
366.5031511
368.3952239
368.328326
381.1039267
371.5191949
382.8741533
380.4533398
385.972417
369.3930218
353.313967
371.6341011
373.2978225
387.6657284
369.0568512
369.0149381
361.0161072
365.4152299
352.8211305
354.3063913
354.1881254
342.3076525
341.9980703
339.7236593
342.2167464
337.3688846
336.1188311
366.6280491
367.9078041
384.1439671
385.1517768
360.8264898
360.1512601
368.4899824
374.793781
377.9775116
368.4144057
378.3479299
370.9444778
373.7200354
363.9444987
363.9098525
374.1675585
374.1300626
362.2543643
378.3861151
367.8594116
353.7897909
353.8382436
350.4563416
354.2716296
353.8251474
345.359742
344.9448058
328.5672792
331.5946037
323.493963
364.0492475
357.6619202
367.8528853
375.0761033
355.8790045
376.0794269
367.0452183
375.9743368
372.9337674
370.7692432
386.7389511
364.8758659
369.7165037
367.3478541
366.8369321
378.6784645
373.7208729
363.6450089
361.7873533
361.0176835
354.4436218
363.8380254
361.146698
351.6818455
330.6757667
342.3795827
344.4163969
325.3446661
335.5610039
309.923705
365.2663827
371.2100858
375.3263897
365.0959938
369.1544874
365.6143987
367.9242517
373.6486929
356.7571154
356.4907459
359.5637869
359.0223226
358.8295318
361.0892469
362.7194841
370.3249213
370.2917804
370.0003243
365.1519994
354.1290146
356.1263675
354.3400436
350.5425765
342.3020931
343.6679784
330.3629072
333.6839873
334.4732482
322.3864858
320.4342441
371.6570233
358.7560232
364.463027
368.2937729
355.1130214
365.7347238
358.1315392
351.1665529
370.9772442
365.1250743
363.1460292
364.1799636
373.4461179
354.5424964
359.8833317
362.9436792
372.8711545
364.6868339
358.1843462
357.8022734
346.4122492
350.8371365
353.4973045
345.0150498
336.2803217
330.0143996
325.4057837
332.9921108
333.979805
322.2900127
373.1993245
368.2078088
361.0667465
359.5183904
377.0824455
366.0823897
354.926976
352.91413
356.0619861
364.4302633
363.8253694
356.0077813
356.6229258
347.9155654
357.9493603
367.6824599
351.5580503
343.1259042
350.0394084
341.3199635
354.9296047
347.4664312
345.5402215
339.0049873
349.2062136
332.942872
333.0127523
329.0768527
337.4010205
332.5120844
357.6428084
359.3274776
358.6917346
349.5268788
374.9626946
357.7819295
348.4212701
350.7514876
356.5082917
360.9418446
355.2293605
358.9765739
351.3813824
343.9159439
351.8798128
350.1234598
341.9860385
345.3688295
348.7782512
342.9986133
358.1863209
335.8016843
322.0686313
344.8612587
352.0433202
350.2757023
342.5696037
327.4926616
329.3170475
325.3901179
341.3408588
347.4880777
341.3751756
357.0579782
356.7472707
350.1096364
347.7375678
348.8599659
344.3191349
353.3423172
346.6162354
352.6202862
353.7309316
351.3637583
356.7513227
346.0658846
335.8390691
336.2089072
347.6364686
352.6060529
342.3682745
338.0217363
338.0741803
337.3372812
336.3591436
344.9934208
337.0702844
325.8698117
326.8402736
318.8893706
346.1185535
341.7010692
342.4372016
348.1495577
340.9273365
359.3308669
363.4397018
354.7007303
345.1553856
351.6707297
337.3252844
354.0685826
350.4529503
342.8416569
343.3576646
331.1588296
334.2557998
334.5938195
339.0386631
343.3518284
340.7852662
334.691672
339.4024924
335.7304172
337.2900624
336.8458146
337.203048
329.7489469
333.7098496
330.8397213
345.4234196
325.8497755
346.332036
338.6135762
348.7539128
351.7978889
348.8672366
354.2126018
352.3368696
340.8656659
336.5189308
337.9814079
344.5817851
343.0023423
351.577708
343.7171374
330.279929
337.0377458
336.2941161
334.4664073
331.4771471
334.0274073
331.6808602
334.5638295
335.1475342
328.8033315
338.1872481
329.202524
328.4032578
332.6495315
319.7752487
328.3344839
344.9276792
339.3547754
328.6446291
337.9663778
339.4277225
351.769299
340.6189628
337.3150441
327.8735432
331.5895406
341.9095015
342.7616416
336.1388025
339.0810373
331.003401
335.4154508
337.8583447
330.8305468
334.5697345
330.4935642
335.3888392
333.1248223
323.0518941
321.252139
325.0323426
330.6640499
323.9011178
308.2585653
333.9687729
332.2482901
347.0128845
342.3540388
323.7284526
319.8887656
345.6154608
335.8796934
339.624522
341.6097992
335.8019807
333.8907581
337.9727585
335.0866918
333.9755045
321.5004413
325.6437993
329.8569423
341.2355661
322.020828
336.6601695
333.377037
334.17794
331.4904468
332.5017502
324.0177544
332.523931
316.6668574
323.8484198
307.9452505
338.5315015
342.8654424
336.6500099
334.1353377
329.3153431
321.2039142
324.7808868
315.2448978
319.2515371
328.3663159
327.1714473
329.9764002
344.8559178
331.9489168
327.7208387
324.9142861
322.1061455
320.4129492
332.7540295
328.2451559
325.7991672
322.3958801
326.0739458
312.570847
325.6889672
329.6993585
332.0474875
330.6355348
318.4984889
314.6300196
323.7237935
334.759934
330.9069579
326.4523525
327.3625407
328.1274293
326.6613526
317.7519598
323.1827879
333.6939206
340.0623197
324.3776042
334.3662302
332.2431339
313.4995977
321.0192182
318.5405959
325.7828721
317.0605038
326.3228847
325.8125663
327.5568089
334.1041183
318.3285918
331.2560733
321.8811303
326.3988321
334.0179044
317.1812675
325.8184649
313.0471605
317.7925874
326.9858835
333.322454
324.0982562
325.9165414
329.2509857
319.9800935
322.575224
320.9009364
318.8733695
320.235421
332.9154467
328.9996806
318.6637953
322.8757373
314.2071874
324.9659112
327.8052569
329.1017714
322.2506799
331.1654712
324.2390013
319.1475354
321.9473258
319.8392478
329.0412928
326.9525747
314.4892681
325.2043454
314.4406585
314.5776337
322.9738645
325.4325368
320.1263228
335.2306936
333.3480443
313.6672241
313.6131769
314.582324
317.3593675
319.1185911
321.5717899
317.076368
319.5347646
319.6702395
312.4124526
317.2511776
324.5614816
320.0384602
310.5752866
318.3280886
317.6333619
328.3970151
318.3742005
319.9734473
326.8640106
323.628318
318.5171628
315.7089348
316.4418162
303.9029892
321.1282863
323.4962845
317.6240226
310.7224053
316.2262497
315.1871036
308.9340241
308.1695889
309.0647282
309.8411775
316.7316506
312.5517047
311.0373288
309.4964122
310.9327585
318.3098544
309.986604
314.2350339
311.681547
309.0061778
318.4355459
314.9416341
304.4275699
308.7700801
310.8147888
306.3351025
307.9676874
312.4547161
)
;

boundaryField
{
    flow
    {
        type            calculated;
        value           nonuniform List<scalar> 
55
(
331.9878722
327.2107329
321.1129372
319.4341025
327.5846627
333.1396985
323.3671695
346.1861826
336.1188311
323.493963
309.923705
320.4342441
322.2900127
332.5120844
325.3901179
318.8893706
330.8397213
332.6495315
308.2585653
307.9452505
314.6300196
325.8184649
325.2043454
315.7089348
312.4547161
316.4418162
303.9029892
321.1282863
323.4962845
317.6240226
310.7224053
316.2262497
315.1871036
308.9340241
308.1695889
309.0647282
309.8411775
316.7316506
312.5517047
311.0373288
309.4964122
310.9327585
318.3098544
309.986604
314.2350339
311.681547
309.0061778
318.4355459
314.9416341
304.4275699
308.7700801
310.8147888
306.3351025
307.9676874
312.4547161
)
;
    }
    obstacle
    {
        type            calculated;
        value           nonuniform 0();
    }
    frontAndBack
    {
        type            empty;
    }
    procBoundary3to1
    {
        type            processor;
        value           nonuniform List<scalar> 
36
(
331.7395681
361.9968096
375.2874615
357.4612828
345.3968061
332.7850481
332.7850481
392.2910886
397.649856
382.2673898
376.6376923
385.2348124
385.2348124
410.1353372
395.6634762
390.6446022
389.2265338
385.8725828
385.8725828
403.8667052
385.1364117
403.2044152
412.6838074
399.8904384
399.611433
399.611433
381.8721157
402.0206839
413.3351244
410.9979464
384.2423785
400.4977099
400.4977099
396.4086715
394.5578131
394.5578131
)
;
    }
    procBoundary3to2
    {
        type            processor;
        value           nonuniform List<scalar> 
19
(
390.6564841
371.02605
357.3519557
361.2027476
356.5128128
365.2448603
365.7519714
353.7574245
357.2589991
342.8514334
341.7070709
336.3168282
328.5077186
327.5903645
340.5587953
339.0765389
322.1029188
313.4667482
319.272443
)
;
    }
}


// ************************************************************************* //
