/*--------------------------------*- C++ -*----------------------------------*\
  =========                 |
  \\      /  F ield         | OpenFOAM: The Open Source CFD Toolbox
   \\    /   O peration     | Website:  https://openfoam.org
    \\  /    A nd           | Version:  7
     \\/     M anipulation  |
\*---------------------------------------------------------------------------*/
FoamFile
{
    version     2.0;
    format      ascii;
    class       volScalarField;
    location    "0.008";
    object      linearKE;
}
// * * * * * * * * * * * * * * * * * * * * * * * * * * * * * * * * * * * * * //

dimensions      [1 -1 -2 0 0 0 0];

internalField   nonuniform List<scalar> 
654
(
0.5657948826
1.123120814
0.9396980718
0.2732897899
0.8445380466
0.3782183257
0.4794592747
0.6923770985
0.9036366409
0.4008646618
0.8020523924
1.018501148
0.4091332388
0.7945463632
0.4913352648
0.5929736333
0.3491460622
1.264904987
0.6658504889
0.4167712132
0.327801738
0.9857346752
0.4760463106
0.6584877024
0.9020339406
0.3422013612
0.3021260364
1.127273792
0.9677729957
0.8584260326
0.7308426837
0.6603405496
0.04430248321
0.5190973801
0.3299549372
0.5985025408
0.5602676817
0.8607073514
0.8965687921
1.420900465
0.5717430666
0.8500623004
0.5976615435
0.6434954284
0.8927948172
0.6981359019
0.4477866047
1.159254699
0.3549948601
0.9194533648
0.2999892373
0.4155330949
0.63829608
0.2637870337
0.4287761473
0.6280097863
0.7215966329
1.176452695
0.4626470649
0.9039721825
0.6593864797
0.6619472248
0.7180017762
0.4771320843
0.6736404999
0.7149196546
0.2428760609
0.4325533973
0.09929376676
0.5598963563
0.4627510745
0.2687071535
1.017229087
0.7583390544
0.8043177046
0.6011240563
0.899047009
0.8285266008
0.1877520831
1.027610314
0.5595530297
0.6020492265
0.7933898976
0.688974329
0.5803983623
0.2937490783
0.6346824064
0.2241132095
0.5849035748
0.7097554089
1.134876213
0.4206059346
0.8163949746
0.521944352
0.6244029748
0.2688468542
0.9894986992
0.4236343747
0.6311348207
0.8104595516
0.5771868807
0.3383692316
0.04772421526
0.7987924108
0.3447581906
0.4991780365
0.526057386
0.8659426911
0.3034187145
0.9872975594
0.5029529413
0.6826936818
1.100502916
0.6352037329
0.5116702884
0.6854940556
0.3919366907
0.9899828408
0.7046040227
1.018324235
0.903378048
1.044407055
0.4170932778
0.2422497909
0.5716697926
0.5259534613
1.22448235
0.6123205836
0.9550662372
0.2760052112
0.5551070186
0.2547142768
0.5472060273
0.7438617311
0.4435092428
0.6413439884
0.4431961221
0.1613866669
0.6875224414
0.4368333372
0.406156565
0.3690714305
0.8590056981
0.7544848493
0.6078035945
0.2410730958
0.8931330011
0.3696410295
0.954846456
0.3878516563
1.21737318
0.2700962244
0.4040714642
0.5494850049
1.177859275
0.2710544748
0.6382989217
0.9341587107
0.5892789731
0.6895873412
0.5295438143
0.7497794332
0.3920770641
0.3200691242
0.690747274
0.8954215975
1.096595508
0.765386178
0.6888948481
1.320827352
0.6638523173
1.003496576
0.2561729805
0.4708476116
0.419047877
0.8154528878
1.310433687
0.3996728435
0.5534296285
0.5415246779
1.009611162
0.6906315411
0.7129231776
1.360365302
0.3111376107
0.8714328779
0.1416207694
1.058995446
0.3528899057
0.3575332621
0.5896064922
0.2391317271
0.4849752857
0.5987848446
0.9093868072
0.4781100129
0.2993597662
0.4432692091
1.056583402
1.244536599
0.7868966202
0.4185336647
0.4207684126
0.4835894402
0.1944123008
0.2093879191
0.7289747289
0.3984457822
0.4689943317
0.1549424309
0.5243054558
0.4042869961
0.6918428998
0.5676891208
2.353335591
0.2135842039
0.1948172593
0.9240971295
1.475576625
0.7202534392
0.553842123
0.6029757977
0.5628635444
0.5516316336
0.1148293104
0.7455525896
0.9538897109
0.6801381388
1.024003649
0.1823361896
0.17623556
0.4436041138
0.3573898796
0.9575393605
0.2804443907
0.7592782796
0.7998143925
0.2017952951
0.3890770418
0.528906235
0.8459576448
1.018541036
1.300628399
0.4321505488
0.8797377452
1.027646127
0.9450823557
0.9021495985
0.3862014812
0.9429986278
0.6476725521
0.7120847623
1.073215606
0.4758538642
0.6146113952
0.660056135
0.4615849555
0.3483668862
0.5002175141
0.9379973949
0.2865923074
0.4339547303
0.5002387482
0.630216979
0.5438889409
0.5153516322
1.028928666
0.4068918545
0.3052864644
1.073524469
0.3902111003
0.9471864024
0.2414590554
0.3071892242
0.528311858
0.2515619029
0.5304599579
0.1526298565
0.4334828071
0.6451915185
0.4974114299
0.7258698285
0.5672621681
0.5497089141
0.5006113379
0.9950494207
0.2976755683
0.7301978816
0.4478967913
0.3161515086
0.8912069015
0.2193008033
0.9789826894
0.6391354261
0.1929230416
0.858291193
0.7221776286
0.5986350668
0.6376648369
0.6559812455
0.9267570243
0.6924314471
0.4377506578
0.2559663821
0.7027995609
1.13475826
0.4655001903
0.3091795241
0.5621461791
0.4431429986
1.741911229
1.441698157
0.02528812226
0.4539417737
1.463558164
0.8554950461
1.172215437
0.5843149715
0.1453649968
0.251129627
0.6041659095
0.4212062411
0.6678961051
0.576122448
0.6816943934
1.097328752
0.2817286636
0.3666612166
0.7406662422
1.171702806
0.8975375202
0.2971264474
0.6291698849
0.1244323586
0.7976091022
0.4535138883
0.3707684334
0.821467856
0.5423021843
0.1751939704
0.4461136624
0.4400095963
0.7128871425
0.5373567824
0.5399005308
0.6276520457
0.4511099192
0.3508836412
0.3892266637
0.1625450808
0.2256939716
0.8586991235
0.5491890553
0.615985698
0.2824175892
0.5976708355
0.7667427173
1.067901054
0.5946264715
0.6644245155
0.3821708926
1.005148854
0.06523081148
0.1734115155
0.6096019755
0.8506477433
0.6005373422
0.3092767853
0.9476604321
0.261173902
1.132622149
0.6402640444
0.7063283725
0.4926687915
0.5986599979
0.5375307957
0.7426379474
0.6996000915
0.6794322433
0.6048913576
1.150087325
0.447799086
0.4420172532
0.6267233554
0.5242438751
0.6794791512
0.5747651324
0.8039250575
0.9774547196
0.5431021438
0.6941127363
0.08797375228
0.7668424847
0.677872064
0.8954436865
0.6109147499
0.2465617499
0.4878266536
0.7468691421
0.674772836
0.9917432879
0.3098891386
0.8615108904
0.1959015619
0.6910832548
0.4035888676
0.5368423581
0.4911904379
1.346471661
0.9914903506
0.8574837106
0.9280844504
0.583337069
0.7736382216
1.269165377
1.081876568
0.441193409
0.3370831904
0.6413376101
0
0.5932505438
1.147608489
0.3555512938
0.8907218486
1.226127785
0.4620334367
0.6424174896
0.5864604586
0.5517632784
0.06831932352
0.300698333
0.39886338
0.6449853873
0.6450084201
0.7328622793
0.8996923399
0.4976824347
0.9553477909
0.4543311506
0.3615109351
0.5194678462
0.3618433
0.418064033
0.8754583838
0.7571857161
0.5926993184
0.3602446509
0.726018935
1.066010407
0.7713975733
0.6177434396
0.3061892955
0.6919142005
0.3340729402
0.4755713948
0.8722071362
0.6742066019
0.7069472926
0.7191922191
0.5139055011
0.6635158764
0.5219359686
1.188003444
0.3203320028
0.473700083
0.8759270415
0.3839382632
0.4826871288
0.006052501071
1.331352151
0.78499143
1.054420248
1.385335077
0.7083052701
0.5687058927
1.155469046
1.512379517
0.3923423201
0.4797154985
0.154186006
0.5086568327
1.057052604
0.9082271385
0.3422494874
0.6582021967
1.566561217
0.9045610545
0.8273095157
0.5429126315
0.7212265633
0.2342173005
1.375587685
0.5328453123
0.6849520713
0.6420275461
0.6726442018
0.9911526396
0.7506488947
0.4023704102
0.1420276416
0.6522710183
1.851685988
0.257223295
0.6225967549
1.082816212
0.6745214514
0.8288225508
0.5345387018
0.751152045
0.6090984747
0.5316472797
0.9826598636
1.265043056
0.3441034805
0.5708776533
0.8821267339
0.2895548185
0.8191849954
0.4069498235
0.659046873
0.1502091446
1.243099569
0.7110849877
0.7568786772
0.7102700325
0.9183807997
0.9716089262
0.7389549726
0.9592077059
0.6650815334
0.4758332167
0.8253780682
0.4852735557
0.6661557091
0.3166577948
0.793353978
1.400496402
0.6862785072
0.3778219492
0.5687449299
0.5077491563
0.4654235683
0.1159057798
0.7094838724
0.2874550884
0.5037309917
0.1769477443
0.7715163141
1.260525188
0.7439300715
0.2255844418
1.11470999
0.9153508677
0.4708805689
0.2330860183
0.7626693276
0.4351266218
0.6884669999
0.6280129592
0.4683123234
0.4806953394
0.4857211035
0.4049339551
0.2678373689
0.6054117361
0.4816525561
0.6667302742
0.5489944546
0.7319023144
0.5218228214
0.935839576
0.4979711191
0.8056650243
0.5734570775
0.7294831681
0.8304016487
0.8872474425
0.4274730117
0.6083329377
0.5289022536
0.5555971966
0.863066414
0.6580790703
0.6234796223
0.1423757993
0.7578643361
0.2916936769
0.2703069635
0.3637066906
0.6351435111
0.4347965175
1.097299963
0.2323543498
0.4692646576
0.4696777143
0.3353542121
0.674092988
0.5759233225
0.9733797083
0.7414304261
0.6001958434
0.4286978999
1.070110424
0.6626754417
0.5149215614
0.5311668249
1.324720638
0.7606377343
0.7816480551
0.6616050414
1.002178624
0.9291966769
0.7784524884
0.852922195
0.1750145273
0.5774367294
0.2538649266
0.4081373249
0.8225278387
0.2978366137
0.4481708175
1.214600947
0.8913019184
1.243773145
0.9727077689
0.5307768685
0.5692014823
0.2967896166
1.051271944
0.7216068386
1.14799395
0.3851779187
0.2873085175
0.5696519445
0.6476564586
0.5520170755
0.5380779275
0.3474146513
0.5274825022
0.3818498532
0.7829283058
0.4499127113
0.3701221734
0.3488844635
0.6206814568
0.7896079328
0.4989631978
0.3978354709
0.794451482
0.5390249943
0.6786854503
0.4373078305
0.7488264811
0.3308505718
)
;

boundaryField
{
    flow
    {
        type            zeroGradient;
    }
    obstacle
    {
        type            calculated;
        value           nonuniform 0();
    }
    frontAndBack
    {
        type            empty;
    }
    procBoundary3to1
    {
        type            processor;
        value           nonuniform List<scalar> 
36
(
0.5032520748
0.4056656626
0.3606924481
0.940726303
1.287539111
0.7832928951
0.7832928951
0.6332190131
0.7856037344
0.610023866
0.379300322
0.2728907147
0.2728907147
0.4777791544
0.7787126235
0.3648723958
0.3004502953
0.977692477
0.977692477
0.2481852507
1.096753514
0.4276935923
0.3304026786
0.8620673747
1.0065183
1.0065183
1.229527102
0.7183992601
1.150530641
0.7105948269
0.3093625825
0.8205276135
0.8205276135
1.118373609
0.4219719751
0.4219719751
)
;
    }
    procBoundary3to2
    {
        type            processor;
        value           nonuniform List<scalar> 
19
(
0.1781144326
0.4265257208
0.3697547059
0.9038648124
0.3784144307
0.5791744468
0.4017665427
0.4431031033
0.1649777747
0.5987012437
1.055210508
0.4838815542
1.109216246
0.7296792702
1.182353209
0.45639107
0.9779291786
0.5655044475
0.8366409
)
;
    }
}


// ************************************************************************* //
