/*--------------------------------*- C++ -*----------------------------------*\
  =========                 |
  \\      /  F ield         | OpenFOAM: The Open Source CFD Toolbox
   \\    /   O peration     | Website:  https://openfoam.org
    \\  /    A nd           | Version:  7
     \\/     M anipulation  |
\*---------------------------------------------------------------------------*/
FoamFile
{
    version     2.0;
    format      ascii;
    class       volScalarField;
    location    "0.008";
    object      linearKE;
}
// * * * * * * * * * * * * * * * * * * * * * * * * * * * * * * * * * * * * * //

dimensions      [1 -1 -2 0 0 0 0];

internalField   nonuniform List<scalar> 
654
(
7.863474784
20.30229206
22.18864683
20.13266754
12.25890897
14.34036241
23.34466538
18.66802508
21.43667817
22.07197986
11.92296457
19.39022344
19.39882577
12.24878552
12.99125133
14.06556187
12.11151416
10.09415876
12.91969068
10.56777894
7.755482599
9.281141777
13.90025627
9.972961538
16.31420569
11.14729512
15.42015155
17.74381032
16.09288949
24.97331232
12.14986904
8.462696592
27.65708839
23.29112285
10.9684918
11.70858218
14.94559738
6.770393346
7.658136662
6.014503006
8.784481879
7.540732011
11.83998633
7.493992396
8.623015576
16.13222762
15.20549859
19.43916378
15.44130074
17.21254467
17.00235623
9.568559281
18.21358942
12.47168049
19.20909936
26.30532022
9.461242088
7.420411871
6.109634003
6.852687196
9.084378385
13.50100507
12.56771682
12.80951792
4.013546804
9.490576013
10.39062877
10.15764487
8.159556417
8.490695545
9.153697405
5.765858589
8.610109393
8.695970831
18.01073721
11.43852687
10.35909078
10.78340966
16.7200431
15.81251507
12.05818408
22.22532296
13.72395041
19.03730564
8.282972603
8.178452059
6.855154213
4.654123059
7.182367145
10.95933813
11.65383508
8.810569179
13.14610584
11.11314396
7.9235029
6.651109602
8.699974737
3.849469934
5.889775336
10.23424163
9.081621309
12.20683913
9.169826075
7.664324175
7.974954403
14.56054374
7.016707925
11.91516965
15.42224594
10.66133166
11.383101
13.91324094
16.32394782
13.2645746
8.585247069
7.351945637
11.29466714
6.900536706
8.082090048
6.797822152
12.14569578
9.076336876
7.829836424
6.458132196
11.67469295
10.19548684
9.540139974
1.927784004
7.685442765
9.799054565
18.26769452
5.678863077
9.569248774
10.75349522
9.654274827
8.679832916
12.15144572
10.70372278
11.03574251
18.47846376
10.76440632
13.62842876
19.06803582
18.88743542
8.252084382
9.601538336
4.68653925
2.497620517
5.15294842
5.344887252
9.758455246
5.26704718
10.15386775
5.92278207
4.604812634
10.25828182
13.33502992
7.104736922
9.370727577
10.9179337
8.934445554
13.27506722
10.88873139
6.799838194
11.21694042
17.0709933
13.31740443
9.598175764
21.30072166
19.93828109
21.57151949
12.17916054
14.11179767
9.671796554
7.676899118
8.510959548
1.489557377
3.497427115
8.731119919
7.856633448
5.284291591
5.969720122
5.873925206
8.28587873
7.374123262
6.598003161
11.08839904
2.414912923
9.834583502
10.91289102
5.420322577
8.3350456
12.47926404
5.434709174
6.24681483
6.00605908
10.66091391
14.5571953
6.144997572
8.034509576
8.200936377
10.53374722
15.33247644
20.07301712
5.650785152
6.392069373
5.167327587
3.351503785
9.020993335
9.244816129
7.649850495
9.761959643
6.071248758
14.11875046
7.201050369
3.657046274
6.485770246
6.453874464
6.121674015
12.03030242
7.375872468
7.97963414
9.035499509
11.95628225
8.715660521
5.047818553
16.69733459
10.0621469
6.473550807
16.97542409
7.00785789
14.62625681
16.49621031
14.31582011
10.5205807
9.380371737
4.977803497
5.981801099
7.512472252
7.668363036
6.826804455
6.935080015
5.566725326
9.607007499
13.08939137
8.515649564
7.463767846
9.749281536
5.79603861
7.440996054
6.15455147
13.20967268
10.23934461
11.51129583
10.8819418
7.032246902
14.2601518
11.01471981
10.44333575
10.12404321
6.739625846
14.23546273
6.053075713
13.16291047
6.437713142
7.658301786
9.556723568
10.95017594
7.594165865
5.94942987
9.411001279
12.43002012
10.12176012
6.645564091
5.263424173
10.94153608
4.294334925
8.048916419
9.080696132
8.324475924
9.544917159
8.342637064
11.88765807
2.235071693
8.004206871
6.754686942
13.77980337
5.196947604
9.899342029
13.80865192
9.316944726
11.51875104
13.94379566
8.602632521
5.54559696
6.820239465
9.021003071
10.62720279
14.55484384
4.996314811
12.50061943
8.584883507
12.4752998
5.303388419
6.627896403
8.775910051
12.75499676
10.46555885
3.642929405
12.23857952
4.021421519
8.091627945
6.00206655
11.53789223
8.505594485
8.930686816
4.94327819
8.633802095
5.768729391
9.080541092
4.799566057
17.53889267
8.318407618
12.54746382
9.229554073
10.55072444
9.720388233
3.44855764
4.419383988
8.202993192
8.042430728
3.737627299
5.765861109
3.85164742
4.612121841
12.49024986
6.422410098
14.42901322
7.789725749
4.288534748
8.895065324
10.06198484
15.25166994
7.087252879
6.753063861
8.834457232
9.071239296
7.581950742
7.815655982
6.383011433
5.505425489
10.68165152
8.549423262
15.73907411
9.135362096
10.9163711
7.942288175
3.967339425
8.342711614
6.938264854
10.01758252
8.527226986
2.008123276
9.573640741
10.06116308
6.528024815
5.732569691
11.68936472
8.515575823
10.14203549
5.953570487
6.862448765
8.580931125
10.38727268
5.930173477
9.180898283
10.46529549
6.372255494
11.04598364
7.954020403
9.033044108
11.21255905
3.690119576
13.67923911
6.802222429
7.367902864
10.81829509
4.992450642
5.738174667
4.507732379
4.899234377
8.911202718
6.540889946
7.764046652
9.605672475
3.607397261
1.75929441
5.107789453
7.068442962
6.253648698
3.330933934
10.17661735
3.530600917
4.436988221
11.45832596
8.394106667
1.843186741
8.290404454
16.97578891
10.80700245
5.849356095
9.655251698
6.817278113
8.252901219
3.49534165
5.905575531
5.512851987
7.673097708
9.270267941
9.68130838
6.432400939
6.109308739
5.631462239
11.21650944
1.413475853
15.35481876
16.59663362
7.162215141
4.093677188
2.40484641
6.364313578
6.206447052
3.438710862
2.965203595
6.171030821
5.890458888
6.793806075
11.64786158
15.1060135
12.23731408
4.408411505
8.384337151
10.53877223
6.881766532
10.54703205
8.188728462
7.424895554
7.637047618
8.900832663
13.74266883
10.08890506
4.425266106
4.125540314
7.913921046
8.494986194
3.091511378
6.71318049
10.46152839
3.104611943
7.503620551
12.4983454
7.56297456
12.91318363
6.713340135
9.613731332
4.83274084
8.956621506
13.6841718
11.22819417
10.98256919
2.005067796
9.163974282
9.897988347
9.48150641
12.42252025
3.509406623
7.847033867
3.930219224
5.45716112
8.05112686
6.927842346
6.805104835
7.612803545
4.715286645
10.74989327
9.497758976
10.38513628
5.746213766
3.403267907
13.87856836
10.66209642
6.636973669
18.457241
7.102684734
8.929087319
9.603625493
7.130841849
2.498738149
10.55761941
1.549906825
6.777612475
2.633139705
4.258013652
7.159512068
9.006914134
8.537165386
6.47306315
9.087156496
11.75190278
5.876603786
5.946337461
3.877210394
8.1162047
5.70662843
9.333542629
7.231328201
7.099185175
12.80922105
11.13356529
6.600330222
10.3594189
11.06105049
8.517112452
8.234614866
8.26050007
5.74808476
4.716945951
7.311871127
9.23185806
11.64222963
11.96754683
10.52284147
5.370441965
8.96115019
4.557647169
4.930989159
8.462929078
7.167733904
9.056036216
12.04006942
5.228357512
4.972698754
6.146812123
9.676115084
5.864132018
2.926644627
4.34420625
9.620556678
6.536058989
4.531392668
1.435380173
6.341933158
9.63806189
3.336003016
7.197120597
12.30697481
6.699466556
15.10732541
10.94252087
7.983598618
15.19619001
4.818117248
10.70678111
5.58249697
7.81398884
7.902511449
11.35903595
4.063177087
6.441761881
8.444516639
3.369074534
8.569961412
11.48869833
8.482564017
8.137614337
7.459395968
12.90809259
3.437194263
12.03668789
8.100600333
9.661276353
6.404939273
6.546119567
5.345291213
4.773335299
5.681247386
4.253203811
9.324148533
11.49155837
12.67828467
7.120646261
9.051020319
10.04580907
8.428085971
10.18965191
12.84658182
5.722235143
5.605686667
10.5595631
7.482229603
9.772131241
5.878151146
3.97194512
6.263369894
8.392803567
10.94945469
5.713521967
4.640719265
7.726460771
7.679922011
8.195800964
2.94645163
4.46959449
9.262102547
5.956934722
8.027722874
6.580157498
6.376148724
6.472052194
5.674348292
12.63530152
6.878186808
8.748573327
8.839997858
2.323805559
9.912373053
8.345083935
7.573168851
7.21089067
8.05031681
6.037973971
12.19809558
9.872891262
9.50797567
10.00107247
7.71513032
6.279962947
5.548194236
9.23897966
7.550886566
5.405287886
8.779073901
7.886217158
7.530860673
5.601708499
7.056711286
8.712716555
17.54855452
11.2172633
9.619412745
7.804393524
8.620741732
10.18645471
8.630525295
)
;

boundaryField
{
    flow
    {
        type            zeroGradient;
    }
    obstacle
    {
        type            calculated;
        value           nonuniform 0();
    }
    frontAndBack
    {
        type            empty;
    }
    procBoundary3to1
    {
        type            processor;
        value           nonuniform List<scalar> 
36
(
14.20043673
11.08838485
11.1327013
17.60957796
10.18879887
13.1586335
13.1586335
9.043487499
11.75120226
10.86707947
22.85206735
13.4240463
13.4240463
11.28119987
3.326878938
14.12766925
15.17267488
18.86465223
18.86465223
8.286314247
4.046480114
8.836990636
8.657837331
10.17220933
10.81371465
10.81371465
4.586591142
11.23333578
5.110590107
9.371895403
7.197999329
14.80223422
14.80223422
8.367067003
4.514421574
4.514421574
)
;
    }
    procBoundary3to2
    {
        type            processor;
        value           nonuniform List<scalar> 
19
(
6.809247124
4.804845599
7.750068501
9.143970141
12.34874373
3.484336052
10.66256144
8.650234963
7.642135336
8.176171019
8.70099649
6.57807102
9.854181658
12.08300298
8.697026467
11.88739517
3.961709738
11.13853654
9.024584197
)
;
    }
}


// ************************************************************************* //
