/*--------------------------------*- C++ -*----------------------------------*\
  =========                 |
  \\      /  F ield         | OpenFOAM: The Open Source CFD Toolbox
   \\    /   O peration     | Website:  https://openfoam.org
    \\  /    A nd           | Version:  7
     \\/     M anipulation  |
\*---------------------------------------------------------------------------*/
FoamFile
{
    version     2.0;
    format      ascii;
    class       volScalarField;
    location    "0.008";
    object      linearKEMean;
}
// * * * * * * * * * * * * * * * * * * * * * * * * * * * * * * * * * * * * * //

dimensions      [1 -1 -2 0 0 0 0];

internalField   nonuniform List<scalar> 
654
(
14.82492027
15.64335235
15.76299655
15.71086653
15.64300292
15.56953017
15.26508078
13.53325086
13.95202378
14.43767429
14.80486514
15.12806917
15.60165963
15.73927061
15.89304089
15.85573487
15.81914891
15.80561566
10.39595594
10.80437747
11.33404555
11.88340947
12.34432453
12.80234733
13.36725757
13.8770513
14.43626052
14.79076784
15.09846183
15.46275534
15.68920219
15.89504996
15.83763611
15.90939089
8.588022156
8.701907167
8.814953607
8.963151598
9.172375516
9.443876705
9.747354811
10.1261798
10.49049627
10.8945993
11.39374254
11.96469202
12.48922286
13.03136916
13.61593165
14.08941309
14.5006012
15.06145359
15.34927682
15.671427
15.90261947
15.90008606
8.041132486
8.070549384
8.086804237
8.16927156
8.236081819
8.247513066
8.300703875
8.343185054
8.480775328
8.659597454
8.901830614
9.085037371
9.342949007
9.634163369
9.953086347
10.4248424
10.90444959
11.33665657
11.86260163
12.45215911
13.0006923
13.44239286
13.97074067
14.39327094
14.88814743
15.29456167
15.48583873
15.68989457
7.914266551
7.966308622
8.003905731
8.058923026
8.106632829
8.135680748
8.139151917
8.179909963
8.267382668
8.360539519
8.522293204
8.626567662
8.712748253
8.774209755
9.035034777
9.304440697
9.556493977
9.786784267
10.19259925
10.64187865
11.05991239
11.48702857
11.98122961
12.57014827
13.23709192
13.70393761
14.17280716
14.54034376
14.98360547
15.49117805
8.045462612
8.001380073
7.966286533
7.944342379
7.943891078
7.955264605
8.036537097
8.048299862
8.130827266
8.170964741
8.184582384
8.285462315
8.460131462
8.694502995
8.811748774
8.979879265
9.167216006
9.396671955
9.796498263
10.14481175
10.52167931
10.95866842
11.35080236
11.85083642
12.40219048
12.93981094
13.4496271
14.11194682
14.60286592
14.94242053
7.776102879
7.759729658
7.846522657
7.875662694
7.884883696
7.906748217
7.994148206
7.995574398
8.022706909
8.128283955
8.256547048
8.413722947
8.451798855
8.514120729
8.576013706
8.707739188
8.948935188
9.132825417
9.281824199
9.553653965
9.904128138
10.28957189
10.67292396
11.1492593
11.69930475
12.29702922
12.84603865
13.29164629
13.86084165
14.39390658
7.873436273
7.866385394
7.895015828
7.901902693
7.91964542
7.938168331
8.046319556
8.075718172
8.14083798
8.148211154
8.130570962
8.17029807
8.232628533
8.265902068
8.399206625
8.475981221
8.638589835
8.793304899
8.941140571
9.055761012
9.368410189
9.63972774
10.00739822
10.4663048
10.87312424
11.46899011
12.04905174
12.69170398
13.26487484
13.74606945
7.942387857
7.882589458
7.874273077
7.887632448
7.932215318
7.897219557
7.940403837
7.993398113
7.990751892
7.971792101
8.002653865
8.070726628
8.068465838
8.195528741
8.298453902
8.307873711
8.391224924
8.460355584
8.647008919
8.808156135
9.036066709
9.334226932
9.734173675
9.996105768
10.36025248
10.80261362
11.22538863
11.85653068
12.37350584
13.0046465
7.874690355
7.913885336
7.926728818
7.974585833
8.000000169
8.062094935
8.031022064
7.992698605
8.000414449
8.052039096
8.093506228
8.109911951
8.133070632
8.151107735
8.200606054
8.284816398
8.355688359
8.436735521
8.562406287
8.733970025
8.838387974
8.988849038
9.234119395
9.565764831
9.993761477
10.23177604
10.68237702
11.19777896
11.72285579
12.2705092
7.85625498
7.881066719
7.913488911
7.84372876
7.852020204
7.869896461
7.850116809
7.898269742
7.971512044
7.879850127
7.911382872
7.990316506
7.964605055
8.007997344
8.043711532
8.111582594
8.185404876
8.276345659
8.346888919
8.500208064
8.590675077
8.766121605
8.856393412
9.091425485
9.359065391
9.718343153
10.09602852
10.48209792
10.98766146
11.51893011
8.033570866
7.94483746
7.911718243
7.936189716
7.951955863
7.962433253
7.98200212
7.954225788
7.957129155
8.05753664
8.026018404
7.979568155
8.013416071
8.115894511
8.05567438
8.123681177
8.168601715
8.160405387
8.224928355
8.305491173
8.527985423
8.629489811
8.799150928
8.979972073
9.12182201
9.392125378
9.705485664
9.973208834
10.42917578
10.93697281
7.806912047
7.857743819
7.883729304
7.905329511
7.884177876
7.863065688
7.91658613
7.868639515
7.855411745
7.865127375
7.861109227
7.927719046
7.93103613
8.002287985
8.067336254
8.139729932
8.181434607
8.403578417
8.44567066
8.46147728
8.486958277
8.617284863
8.655869843
8.706236765
8.949030075
9.096022665
9.371972455
9.707208751
9.910777697
10.2558247
7.856694537
7.860478093
7.824583626
7.79939223
7.751654639
7.769917409
7.761733829
7.803437714
7.814011907
7.807059053
7.89190096
7.936027796
7.995471003
8.002460806
8.01138779
8.076566989
8.12554396
8.114750662
8.196601581
8.287400604
8.411875897
8.42550801
8.532277831
8.683338099
8.800915517
8.901657682
9.118449097
9.277975248
9.487065451
9.744614946
7.800347929
7.787142053
7.77996289
7.789647715
7.861949865
7.828015435
7.852555065
7.820305793
7.857112233
7.870967908
7.872666577
7.890053713
7.878187684
7.93402871
7.881907612
7.932494675
7.930072122
8.009398246
8.066105844
8.145580587
8.111364804
8.215725725
8.292876192
8.389271672
8.438104864
8.540466602
8.688272759
8.857387948
9.099878124
9.396138277
7.968866738
7.929715654
7.918516377
7.866612086
7.842063418
7.846387317
7.829108429
7.916690901
7.918696075
7.942465855
7.953997734
7.985164715
7.969877154
8.005940497
8.053562683
7.998827588
8.03204892
7.953964182
7.964447472
7.925735898
8.093938884
8.089058462
8.104560188
8.193323072
8.252200719
8.328371945
8.435361474
8.613765925
8.773383767
8.988496487
7.818848819
7.831973245
7.891015171
7.921219118
8.00422215
7.987784378
8.003370358
7.963495721
7.90376108
7.906492336
7.904258774
7.895967715
7.909053648
7.86961541
7.89223212
7.911355106
7.90922598
8.009019936
8.021051615
7.985401505
7.975213554
8.019647222
8.01489782
8.068832914
8.051276615
8.161769919
8.255558903
8.335248208
8.549936123
8.689608108
7.888532821
7.880357481
7.889320012
7.878815908
7.900662345
7.893683536
7.933370411
7.918444762
7.985288773
7.92221466
7.897591495
7.861059069
7.871093132
7.851752027
7.883924728
7.854759509
7.801861576
7.787179688
7.784619381
7.861024717
7.88772827
7.915905206
7.890317195
8.070788988
8.153154586
8.288919256
8.34500261
8.431026992
8.490576202
8.630597656
7.827538301
7.865333391
7.830542198
7.830993627
7.796397752
7.814165794
7.765797523
7.81887327
7.841024123
7.845145034
7.940641337
7.907331614
7.909711602
7.94599136
7.94350632
7.915968066
7.940202698
7.988815947
7.923662342
7.953053888
7.919846882
7.973697338
8.063638633
8.051076898
8.065895134
8.116042229
8.224124071
8.290977866
8.383678405
8.476160172
7.858580053
7.83613026
7.842783182
7.813347034
7.863570961
7.863955774
7.847392463
7.792705257
7.799202023
7.815901326
7.777892162
7.834655789
7.851275713
7.810857847
7.820535445
7.833218452
7.853308881
7.894757258
7.870911188
7.91989233
7.991723076
7.964348254
7.993277893
7.982932178
7.979167772
8.043492758
8.072725996
8.114234326
8.242741505
8.304798062
7.846532075
7.863997146
7.898278936
7.866712942
7.90506341
7.852131752
7.930729114
7.923085823
7.881506841
7.852384503
7.835483034
7.782236064
7.875614147
7.871848493
7.967027873
7.919797165
7.878868737
7.895937544
7.930882652
7.948760443
7.920676019
7.965066075
7.972041413
8.05611324
8.078101721
8.076132884
8.137525976
8.137929789
8.210054316
8.220093906
7.859608233
7.845832489
7.859650695
7.832522357
7.834334732
7.810990402
7.806257182
7.825512344
7.834286207
7.839988544
7.827792702
7.86701018
7.833898851
7.77906859
7.765286266
7.827744348
7.8750012
7.932402946
7.892214683
7.906269076
7.874394726
7.892954435
7.904636189
7.911553731
7.976154923
7.963730756
7.981630079
7.976449966
8.017842971
8.114581643
7.720686821
7.701424643
7.678872635
7.66078867
7.667411982
7.696192307
7.713314906
7.693121929
7.680963546
7.676145955
7.749010464
7.749585609
7.754190622
7.720105018
7.731094115
7.713084602
7.691561029
7.711065482
7.729830707
7.748377373
7.796668092
7.808879155
7.791508606
7.779739921
7.782286835
7.745707032
7.759888673
7.814547354
7.861435506
7.925918741
)
;

boundaryField
{
    flow
    {
        type            calculated;
        value           nonuniform List<scalar> 
55
(
14.82492027
15.26508078
15.80561566
15.90939089
15.90008606
15.68989457
15.49117805
14.94242053
14.39390658
13.74606945
13.0046465
12.2705092
11.51893011
10.93697281
10.2558247
9.744614946
9.396138277
8.988496487
8.689608108
8.630597656
8.476160172
8.304798062
8.220093906
8.114581643
7.925918741
7.720686821
7.701424643
7.678872635
7.66078867
7.667411982
7.696192307
7.713314906
7.693121929
7.680963546
7.676145955
7.749010464
7.749585609
7.754190622
7.720105018
7.731094115
7.713084602
7.691561029
7.711065482
7.729830707
7.748377373
7.796668092
7.808879155
7.791508606
7.779739921
7.782286835
7.745707032
7.759888673
7.814547354
7.861435506
7.925918741
)
;
    }
    obstacle
    {
        type            calculated;
        value           nonuniform 0();
    }
    frontAndBack
    {
        type            empty;
    }
    procBoundary3to1
    {
        type            processor;
        value           nonuniform List<scalar> 
36
(
14.00172424
15.45698561
15.424576
15.29333821
15.09927491
14.90993022
14.90993022
14.02266912
14.62068453
14.90596743
15.19411201
15.4946139
15.4946139
10.89758781
11.35554603
12.02215672
12.49326946
13.05862976
13.05862976
8.608880862
8.854395714
9.083867283
9.376828754
9.665813503
10.03029601
10.03029601
7.93633469
7.988616464
8.067655327
8.130455352
8.226450378
8.426471207
8.426471207
7.958546183
7.958570877
7.958570877
)
;
    }
    procBoundary3to2
    {
        type            processor;
        value           nonuniform List<scalar> 
19
(
7.918021792
7.977100184
7.82807419
7.855546785
7.868179451
7.779225109
7.904302881
7.941969382
7.869032799
7.885099894
7.80239298
7.946707184
7.759085292
7.901328974
7.81496775
7.874495767
7.876156014
7.853766864
7.700162817
)
;
    }
}


// ************************************************************************* //
