/*--------------------------------*- C++ -*----------------------------------*\
  =========                 |
  \\      /  F ield         | OpenFOAM: The Open Source CFD Toolbox
   \\    /   O peration     | Website:  https://openfoam.org
    \\  /    A nd           | Version:  7
     \\/     M anipulation  |
\*---------------------------------------------------------------------------*/
FoamFile
{
    version     2.0;
    format      ascii;
    class       volVectorField;
    location    "0.008";
    object      momentumMean;
}
// * * * * * * * * * * * * * * * * * * * * * * * * * * * * * * * * * * * * * //

dimensions      [1 -2 -1 0 0 0 0];

internalField   nonuniform List<vector> 
654
(
(0.0003357770088 5.36022768e-05 -1.890686316e-05)
(0.0002694790053 2.59571767e-05 7.780778505e-06)
(0.0002820271904 5.546961898e-05 -6.553325582e-06)
(0.0002603519553 3.443353143e-05 -2.547837229e-05)
(0.0002658081042 5.302068998e-05 -4.654735989e-06)
(0.0002766406159 4.271783208e-05 -1.345754544e-05)
(0.0003030359328 5.227527641e-05 -4.657883631e-05)
(0.0002169212978 6.14352654e-05 -4.134598364e-06)
(0.0002410447111 3.318853058e-05 5.975551972e-06)
(0.0002328469553 3.51720386e-05 -2.229786994e-05)
(0.0002496177567 4.864512475e-05 -1.752749645e-06)
(0.0002821538155 2.644844141e-05 1.052164759e-05)
(0.0002542311794 3.561022347e-05 -4.816980814e-05)
(0.0002687121693 5.488224069e-05 -2.157474133e-05)
(0.0002303569051 4.157795538e-05 7.744081785e-06)
(0.0002580194052 3.493005041e-05 3.398024571e-06)
(0.0003095963826 3.173153573e-05 -3.311684649e-05)
(0.0003611542119 6.815071954e-05 4.18015137e-06)
(0.0002516489325 1.020825348e-05 -1.60276652e-05)
(0.0002673933287 5.906922832e-05 -1.801509391e-05)
(0.0002485543712 6.926483225e-05 -5.119621e-05)
(0.0002561709595 5.558999338e-05 2.133516848e-05)
(0.0002225704031 3.766496821e-05 1.794742956e-05)
(0.0002480489485 3.418321508e-05 1.882497015e-05)
(0.0002675911991 3.448874503e-05 6.881601914e-08)
(0.0002456418677 4.260459969e-05 -4.502142628e-05)
(0.0002690813969 2.624508139e-05 1.426748168e-05)
(0.0002834964476 4.299501142e-05 4.835958448e-05)
(0.0002859614157 2.992977788e-05 -2.43882318e-06)
(0.0002234836392 6.48707495e-05 -1.161127773e-05)
(0.0002575761229 5.557221305e-05 -8.817918275e-06)
(0.0002774724553 1.154504907e-05 2.043333086e-05)
(0.0003014997019 2.578352688e-06 3.002878473e-05)
(0.0002969789609 6.036125515e-05 2.666237598e-05)
(0.0001667238289 -2.806462756e-05 8.970164732e-06)
(0.0001888411929 -1.946391494e-05 -3.634668064e-05)
(0.0002246883129 3.830438159e-05 -3.095472025e-05)
(0.0002247882602 9.709140748e-06 4.263025317e-05)
(0.0001971856732 1.905534929e-05 2.864625112e-05)
(0.0002325582326 -2.097946773e-06 2.291982823e-06)
(0.0002021634057 8.160551377e-06 3.188011589e-06)
(0.0001936039986 3.509298433e-05 -2.508685776e-05)
(0.0002502507698 4.209607716e-05 -4.916576236e-06)
(0.0002413480483 8.166844401e-05 7.78870028e-05)
(0.000243562342 4.417585627e-05 2.244113783e-05)
(0.0002362051353 5.840285681e-06 4.475628504e-05)
(0.0002150531889 4.951378005e-05 1.854635003e-05)
(0.0002254957632 3.991051696e-05 1.114372661e-05)
(0.0002224329836 2.149651171e-05 5.98829503e-06)
(0.0002303126253 2.485964303e-05 -7.228240785e-07)
(0.0002256664975 4.560688173e-05 -4.317274454e-06)
(0.0002366624916 5.102363466e-05 -3.471864144e-05)
(0.000251156461 3.834869917e-05 2.16122567e-05)
(0.0002683721522 1.039044635e-06 3.383615124e-05)
(0.0002419051946 1.897761274e-05 4.620495837e-05)
(0.000318681857 1.892239131e-05 6.910039658e-06)
(0.0001754567834 -2.350588942e-05 1.395204289e-05)
(0.0001620306686 9.949997002e-06 6.421572888e-05)
(0.0001811960764 1.234654299e-05 6.807833487e-05)
(0.0001988364338 -5.847392955e-06 4.858127154e-05)
(0.0001967500247 -2.151435624e-05 -1.022338292e-05)
(0.0001936302333 7.637058416e-06 -3.536285952e-05)
(0.0001980557182 -9.167550403e-06 4.028135696e-05)
(0.0001750133929 -3.697459497e-05 3.492031976e-05)
(0.0001990744113 1.56843763e-05 4.876845288e-05)
(0.0002073605822 5.724491988e-06 2.263547047e-05)
(0.0002321995996 1.381522536e-05 -7.857225385e-06)
(0.0001909761278 -1.418762202e-05 1.181537427e-05)
(0.0001903963568 5.015329684e-05 1.364912877e-06)
(0.0002010162353 1.340640388e-05 -6.883305296e-06)
(0.0001981566153 1.321935467e-05 7.942589786e-06)
(0.0002287697453 7.103535186e-05 1.470537241e-05)
(0.0002585614594 4.360340443e-05 6.207923066e-05)
(0.0002514569737 3.716853128e-05 1.067125789e-05)
(0.0002503881662 2.111079138e-05 2.746930868e-05)
(0.0002685125258 5.238835209e-05 1.890157981e-05)
(0.0002638055821 2.468513297e-05 -7.262009904e-06)
(0.000248243089 2.361819491e-05 -7.400503433e-06)
(0.0002506874149 4.697167609e-05 -2.648899009e-05)
(0.00025539371 4.816508966e-05 -1.691189276e-05)
(0.000262742342 1.72795468e-05 -2.271528374e-05)
(0.0002866055301 -1.839821135e-06 4.602869961e-06)
(0.0002789262046 1.68908267e-05 8.204530607e-06)
(0.0002885505803 4.222031293e-05 1.743536067e-05)
(0.0001795621027 -3.762945656e-05 -2.72581861e-05)
(0.0001998870355 -1.424191322e-05 -9.87050264e-08)
(0.0001657416569 7.182156903e-06 -4.111655131e-07)
(0.0001743487431 1.343673315e-05 1.955806602e-06)
(0.0001698586253 -6.263172012e-06 1.209477324e-05)
(0.0001840306612 -1.791306807e-05 2.614625369e-05)
(0.000175990555 -1.249178988e-05 1.31872627e-05)
(0.0001521037229 -2.793931439e-06 -1.995039349e-06)
(0.0001659163783 -2.259817173e-06 -9.702220138e-06)
(0.0001865132692 -5.127553566e-05 1.895901955e-05)
(0.0001864568526 -8.685334797e-06 4.061856162e-05)
(0.0002042882065 1.220953073e-05 5.055091064e-05)
(0.0002009595483 2.774068012e-05 5.337913007e-05)
(0.0002101851848 -9.616249968e-07 3.7747823e-05)
(0.0002212188401 4.048770218e-05 6.089592824e-05)
(0.0002167368036 1.894954674e-05 3.305016624e-05)
(0.0002077667953 2.301774855e-05 2.502713592e-05)
(0.000179392357 3.281616902e-05 2.171519755e-05)
(0.0002290617636 4.607099076e-05 5.259866423e-05)
(0.0002408140798 3.150548164e-05 1.812201326e-06)
(0.0002369865991 2.858476399e-05 -1.295519548e-05)
(0.0002604906814 1.167303239e-05 -2.521339196e-05)
(0.0002414916524 5.117088186e-05 -6.169230522e-07)
(0.0002067101498 2.461379592e-05 3.390505398e-06)
(0.0002205292148 3.979651742e-05 5.895188864e-06)
(0.0002338155831 4.14322159e-05 3.381702773e-05)
(0.0002477652728 2.263510979e-05 7.043614162e-06)
(0.0002458166708 -1.468248047e-05 -1.162223726e-05)
(0.0002703083692 1.871384263e-05 -3.261049536e-05)
(0.000297925595 2.738185073e-05 1.291069326e-05)
(0.000148896762 -1.680825871e-05 -3.541286188e-05)
(0.0001457765954 -1.207765938e-05 -1.180798095e-05)
(0.0001562895164 -2.634878905e-05 -3.542588236e-05)
(0.0001905733371 5.414732956e-06 -2.555824953e-05)
(0.0001902370144 1.06667692e-05 3.747511518e-05)
(0.0001648939121 2.737208939e-06 -1.283141626e-05)
(0.0001686902826 -2.917315558e-05 -2.031374089e-05)
(0.0001904912462 -1.730924463e-06 3.255621125e-06)
(0.0001968937973 -1.5041175e-05 -3.073617319e-06)
(0.0002045855951 -1.179253656e-05 2.583956578e-05)
(0.000166896468 -2.091334999e-05 3.301777734e-05)
(0.0001709993731 -7.860519208e-06 2.032398161e-05)
(0.0001830074186 1.521735755e-05 2.703002588e-05)
(0.0001941430515 -9.345929859e-06 2.766217708e-05)
(0.0002017285284 3.913897854e-05 2.494485908e-05)
(0.0001908625036 3.015647369e-05 4.675593442e-05)
(0.0001869957542 2.283490158e-05 -1.22097849e-05)
(0.0002223068806 4.493961703e-05 2.409051171e-05)
(0.0002138860914 -2.165424872e-06 4.272625201e-05)
(0.0002352772092 1.361706273e-05 1.621630717e-06)
(0.0002831184371 2.866643105e-05 5.135556453e-05)
(0.0002674744386 2.68618082e-05 4.293266403e-05)
(0.0002583950959 6.707179954e-05 4.334686072e-05)
(0.0002615462831 3.18156754e-05 -3.43373577e-05)
(0.0002567369992 5.077777878e-05 3.77927652e-05)
(0.0002591579483 3.113884595e-05 1.3602483e-06)
(0.0002819881687 2.217659637e-06 6.354762074e-06)
(0.0002836739202 -8.55036866e-06 4.140694083e-06)
(0.000296809442 4.289527209e-06 8.428420914e-06)
(0.0003361192249 4.417486421e-05 2.131099769e-05)
(0.0001357552801 5.791104719e-06 -3.073105122e-05)
(0.0001470991199 -2.580654359e-05 -1.513273222e-05)
(0.0001379227407 -2.486612777e-05 -5.052062379e-05)
(0.0001538801375 -1.993872029e-05 -4.146566885e-05)
(0.0001729113524 6.288859909e-06 2.852365832e-05)
(0.0001816378931 -3.267068958e-06 3.524181244e-05)
(0.0001962355137 -3.555212522e-05 1.693046372e-06)
(0.0001725577073 1.620130873e-06 1.255201638e-05)
(0.0001898163998 -2.492692249e-05 -7.150904044e-07)
(0.0002057796473 -2.536090671e-05 3.443092811e-05)
(0.0002105036689 2.443863164e-05 3.624853062e-05)
(0.0001839163562 -5.871520553e-06 2.97534507e-05)
(0.0001905389135 -1.367481223e-05 1.132779584e-05)
(0.000214807088 1.415955584e-05 -3.389177364e-05)
(0.0001923356171 2.269847714e-05 1.817031031e-05)
(0.0002202448256 1.876702414e-05 6.465364123e-05)
(0.0002361397887 2.820989091e-05 4.713801923e-05)
(0.0002465478436 3.483763071e-05 2.775742393e-05)
(0.0002395747046 2.726114306e-05 -4.136244189e-06)
(0.0002671171635 -3.450176268e-05 3.314819951e-05)
(0.0002783135291 2.059364729e-05 1.484185178e-05)
(0.000254995796 4.918118154e-05 4.645616072e-06)
(0.0002451737001 5.643579831e-05 3.359025367e-05)
(0.0002557942971 4.704395434e-05 -4.127974404e-06)
(0.0002921887986 4.209794338e-05 1.420400527e-05)
(0.0002960977744 2.085185403e-05 -5.374171343e-06)
(0.000292269979 1.483359596e-06 -1.812864205e-06)
(0.0002553856536 -1.092527125e-05 -4.31389458e-05)
(0.0002567245883 -1.347859122e-05 -5.193290295e-06)
(0.0003135927969 3.184934985e-05 -6.544288121e-06)
(0.0001913237975 -9.587520183e-06 5.500008807e-06)
(0.0001791129366 -2.354613244e-05 1.5512357e-05)
(0.0001962520105 -9.817084116e-06 3.629704424e-06)
(0.0001862568129 -3.081363111e-05 -4.973719634e-06)
(0.0001818254263 2.229514464e-05 3.584920895e-07)
(0.0001699410056 -1.190684112e-05 1.09961319e-05)
(0.0001532705056 -2.017184283e-05 3.1274085e-05)
(0.0001678096993 -1.17849341e-05 3.385636383e-05)
(0.0001659967706 -3.303566848e-05 4.243710537e-07)
(0.0001679852176 -3.140983797e-05 -1.89026899e-06)
(0.0001973729071 -2.657703123e-06 2.088016134e-05)
(0.0002110243587 1.087046399e-05 2.847492045e-05)
(0.0002087801548 1.291531062e-06 1.196088221e-05)
(0.0001923912043 -1.185311797e-05 -2.359626126e-05)
(0.0002143613991 2.174342065e-05 1.361513246e-05)
(0.0002295143175 1.380460717e-05 1.620336316e-05)
(0.000235817149 3.307342869e-05 9.760602287e-06)
(0.0002478424432 -1.744922651e-06 1.872047661e-05)
(0.0002707266355 2.623080772e-05 8.14283809e-06)
(0.0002345812955 -2.207120301e-05 3.627602628e-05)
(0.0002008975552 3.900283324e-05 4.153567263e-05)
(0.0002081865268 5.192629596e-05 4.118507108e-06)
(0.0002189895534 4.872742606e-05 8.2319159e-06)
(0.0002568401136 6.469247221e-06 2.333074533e-05)
(0.0002566039608 3.001405884e-05 1.015381726e-05)
(0.0002596213673 1.468336149e-05 2.061424959e-05)
(0.0003012773118 -9.738826357e-07 -2.038460123e-05)
(0.000301869946 1.82919691e-05 5.159384471e-05)
(0.0002791728508 -1.263650487e-05 -8.834790808e-07)
(0.0003073265992 7.141441868e-06 -2.012061428e-05)
(0.0001599009237 -6.208031452e-06 -6.916910395e-06)
(0.0001502047171 -3.437742267e-05 -1.235764546e-05)
(0.00017410803 -3.008162388e-05 4.475603945e-06)
(0.0001723120621 -2.061140786e-05 1.265739491e-05)
(0.0001650452816 1.15650896e-05 -4.207902256e-05)
(0.0001795343844 7.657264064e-06 -5.61393429e-06)
(0.0001926872204 -9.509733325e-06 8.825945407e-06)
(0.0001930504733 -2.140267225e-05 7.321739501e-06)
(0.0001846447455 -2.900537647e-05 -5.338089304e-05)
(0.0002115080794 -3.182080854e-05 -5.689217811e-06)
(0.0001971453087 -2.639078829e-05 -1.897057755e-05)
(0.0002170422142 -4.123088075e-07 4.084371134e-05)
(0.0002293769389 4.518941353e-06 6.127454359e-05)
(0.0002473287497 -8.168469713e-06 3.849291864e-06)
(0.0002548026263 1.540365461e-05 -2.535488326e-05)
(0.0002201898456 2.226541423e-05 3.824664025e-05)
(0.0002224865101 8.736751742e-06 9.457414714e-06)
(0.0002213973544 2.630207904e-05 1.028692433e-05)
(0.0002145067723 5.799334104e-06 -1.690137819e-05)
(0.0002026945803 -3.465345744e-06 -2.354500931e-05)
(0.0002123791946 3.784907114e-05 -9.136996852e-06)
(0.00026021798 2.092082528e-05 2.315730657e-05)
(0.0002854456841 4.869616816e-05 2.421187234e-05)
(0.000252545515 -2.067071038e-07 5.641038605e-06)
(0.0002751444244 3.906837339e-05 6.04972636e-06)
(0.000268773238 6.12715846e-06 2.467880258e-05)
(0.0002592753464 3.817215162e-06 2.668055162e-05)
(0.0002670373185 2.107954461e-05 -3.074133878e-05)
(0.0002510266268 -1.619163871e-05 3.907322838e-06)
(0.0002913376909 6.729399608e-07 -7.161707881e-05)
(0.0001649725982 -2.570896679e-05 -1.92137662e-05)
(0.0001728553729 -1.850995179e-05 2.615780271e-05)
(0.0001563179448 -5.088966523e-05 3.961373244e-05)
(0.0001685833921 -7.937469904e-06 2.555322487e-06)
(0.0001599215178 1.07024859e-05 3.776111976e-05)
(0.00016612221 5.179476015e-06 1.717291594e-05)
(0.0001579212583 -4.037739768e-05 7.987590246e-06)
(0.0001978060462 -4.524519129e-06 9.162256951e-06)
(0.0002242193239 -5.603227623e-05 -3.178239665e-05)
(0.000218422511 -4.134925832e-05 -3.745080487e-06)
(0.0001947704297 -1.592032765e-05 -5.939275184e-05)
(0.0002090901103 -1.019313182e-05 -1.162310882e-05)
(0.0002131239775 -2.772299199e-06 1.328506049e-05)
(0.0002374397742 -2.173383196e-05 5.742249748e-05)
(0.0002435938769 2.104675118e-05 4.17895289e-05)
(0.0002349207703 4.700263991e-05 4.704079611e-06)
(0.000215482497 1.27973319e-05 -1.396227898e-06)
(0.0002178491822 4.657205993e-06 3.341359425e-05)
(0.0002441539719 1.908152552e-05 4.233988246e-05)
(0.000242728897 1.536872012e-05 4.369452273e-06)
(0.0002467897648 3.753206691e-06 1.666723312e-05)
(0.000253617679 1.27815618e-05 3.476955948e-05)
(0.000247628515 5.308409546e-05 4.388968521e-05)
(0.0002382831811 1.442645494e-05 -2.867753059e-05)
(0.0002401795001 1.247330754e-05 -6.333929169e-06)
(0.0002760200819 9.892062615e-06 3.226615775e-05)
(0.0002589238093 -1.165649656e-05 3.505285929e-05)
(0.0002508772126 4.011410256e-05 -9.163431173e-06)
(0.0002556516479 -1.934493726e-05 1.613833978e-05)
(0.0002714077118 4.405686982e-06 5.420719742e-05)
(0.0001645444127 -2.44695381e-05 5.625175186e-06)
(0.0001658264591 -2.121958546e-05 2.105703975e-05)
(0.0001695542826 -2.148573531e-05 1.371918956e-05)
(0.000153614721 -2.511547475e-05 -7.869381951e-06)
(0.0001531037625 1.638039951e-05 -3.498313398e-06)
(0.0001730294739 -1.162732837e-05 2.034240186e-05)
(0.0002095343713 -5.188213676e-05 1.704648489e-06)
(0.0002138156644 -2.676826186e-05 -2.348682053e-05)
(0.000198724472 -3.108849288e-05 7.178148448e-06)
(0.0001633903564 -3.211715578e-05 4.786826912e-06)
(0.0001890797741 -6.080525659e-06 -3.970851392e-05)
(0.0002261538953 -4.829140115e-05 -4.993310392e-06)
(0.0002245212611 -4.284735025e-06 -1.114583601e-06)
(0.0002073851806 -2.862777571e-05 2.450039802e-05)
(0.0001972840952 2.46788891e-05 4.446140595e-05)
(0.0002276513169 4.391542815e-05 2.221020873e-05)
(0.0002119635106 8.941347213e-06 2.063403968e-05)
(0.0002496560773 -6.121254352e-06 3.724715497e-05)
(0.0002419789374 7.843008664e-06 1.225662914e-05)
(0.0002506128882 2.519272511e-05 1.825482675e-05)
(0.000240494442 1.204530356e-06 2.054389929e-05)
(0.0002167730834 3.593556329e-06 2.8854473e-05)
(0.0002609294826 4.502068061e-05 2.919735496e-05)
(0.000281650262 2.430469863e-05 -2.438551085e-05)
(0.000267798419 4.136227103e-06 4.161578406e-06)
(0.0002733423807 -8.806413775e-06 3.765878995e-05)
(0.0002410311282 3.76736542e-05 -4.410269758e-06)
(0.0002265280728 2.798706232e-05 -1.02649343e-05)
(0.000224812863 2.342367189e-06 1.568122063e-05)
(0.0002779449529 -2.562484772e-05 1.857372038e-05)
(0.0001494253436 -1.485589299e-05 7.586552034e-06)
(0.0001486380637 -3.593122645e-05 1.379655512e-05)
(0.0001685768469 -4.825912175e-05 -1.304833726e-05)
(0.0001406846146 1.001629738e-05 -1.232155662e-05)
(0.0001596439713 3.89843801e-07 2.331371648e-05)
(0.0001846743335 -4.139383416e-05 1.139340248e-05)
(0.0001920900469 -5.342996953e-05 1.508877701e-05)
(0.0001824145224 -2.073162129e-05 2.784038324e-05)
(0.0001900153904 -3.038163066e-05 3.023751073e-05)
(0.0002294447083 -3.332391308e-05 -3.851420761e-05)
(0.0002168751023 -3.235024602e-05 -1.949421038e-05)
(0.0001861336908 -3.105033775e-05 1.901152491e-05)
(0.0001535188163 -3.655826383e-06 -1.432452322e-06)
(0.0001760769057 -1.894612563e-05 1.578554491e-05)
(0.0001987808937 3.959164941e-06 -1.39917457e-05)
(0.0002302904284 2.625689783e-05 4.514945525e-05)
(0.0002403632301 1.027308266e-05 2.788243614e-05)
(0.0002516625395 -8.970128119e-06 1.328947248e-05)
(0.0002375924498 1.221732786e-05 3.112559588e-05)
(0.0002416245671 9.079740436e-06 3.772654212e-06)
(0.0002803493792 1.991629304e-05 -2.715410077e-05)
(0.0002809239895 1.689785905e-05 -4.157702387e-06)
(0.0002619838731 1.443756645e-05 4.014096737e-05)
(0.0002628908425 2.692965418e-05 -2.751386211e-05)
(0.0002651698894 2.988099987e-05 5.143925211e-06)
(0.0002314926479 1.274770103e-06 2.712218188e-06)
(0.0002299623219 1.823272181e-05 4.615485985e-05)
(0.0002740666426 1.742427034e-05 4.05573493e-06)
(0.0002906172208 -3.009892321e-05 5.239512214e-05)
(0.000342469292 -4.658705215e-06 3.55401393e-05)
(0.0001284791051 1.911802212e-05 2.736991853e-05)
(0.000118745387 -3.838708294e-05 3.070603312e-05)
(0.0001236669104 -4.223681965e-05 2.657518812e-06)
(0.0001431463138 -1.708621427e-05 -7.516962955e-06)
(0.0001763559918 -1.979516311e-05 5.45963229e-05)
(0.0001824998559 -6.031314196e-05 4.761692507e-05)
(0.0001860130869 -3.326081728e-05 2.077307749e-05)
(0.0001771274884 -4.820329368e-05 2.967447661e-05)
(0.0002141841446 -3.597613329e-05 -1.176230551e-05)
(0.0002057637187 -3.338564587e-05 -1.157216947e-05)
(0.000237061156 -2.335337231e-05 -1.40180457e-05)
(0.0001951447188 2.837561595e-07 6.959038888e-06)
(0.0002230036485 -1.585875098e-05 -3.346115699e-05)
(0.0002224560657 -2.518239126e-05 4.851874277e-06)
(0.0002246361115 7.054757735e-06 3.126651326e-06)
(0.0002011470697 -6.369755129e-08 2.219547884e-06)
(0.0002306903615 1.190672362e-05 1.795228566e-05)
(0.0002158947121 -7.986948892e-06 1.840340117e-05)
(0.0002485414015 5.59452628e-07 -8.030582854e-06)
(0.0002469198408 3.241054909e-06 -5.978664297e-06)
(0.0002255880783 -4.530115275e-06 -4.870463915e-06)
(0.0002231648535 4.279295739e-05 1.02723117e-05)
(0.0002350853629 -1.533163009e-06 5.526472496e-05)
(0.0002578173408 1.389512362e-05 -1.172892007e-05)
(0.0002709025721 3.903623247e-05 4.328760088e-05)
(0.0002603879582 1.053087086e-05 5.539002876e-05)
(0.0002711154544 2.930495829e-05 3.406677797e-05)
(0.0003024016062 -3.365854281e-05 4.874684933e-05)
(0.0003290322119 5.193684018e-06 6.147380077e-05)
(0.0003099472665 -1.497224824e-05 1.6471982e-05)
(0.0001221782676 -2.170913801e-06 2.977293952e-05)
(0.0001470347277 -3.384336387e-05 1.707322619e-05)
(0.0001303370373 -5.004742695e-05 -4.190041883e-06)
(0.0001518620408 -1.026463159e-05 -7.256860694e-06)
(0.0001365761995 -4.543918382e-05 1.967982027e-05)
(0.0001356909764 -5.794148198e-05 2.668552373e-05)
(0.0001775169243 -4.149846766e-05 8.577181717e-06)
(0.0001511737351 -4.784301929e-05 -4.481508784e-05)
(0.0001520129642 -6.187772416e-05 -4.957281399e-05)
(0.0001815551741 -3.558449164e-05 -2.947769752e-05)
(0.0001705592883 -3.610466075e-05 -2.643114072e-05)
(0.0002193554374 -1.120313771e-05 6.336740048e-06)
(0.0002361373821 -6.04651984e-06 -7.492176308e-07)
(0.0002151734311 -3.680144356e-05 1.202985337e-06)
(0.000214149656 1.146121328e-05 1.830596209e-05)
(0.000230223677 5.550888504e-06 2.802132172e-05)
(0.000231286437 -8.747978049e-06 1.416341197e-05)
(0.0002600343083 -7.070465142e-06 3.519715508e-05)
(0.0002213253241 9.552441917e-06 2.972116749e-05)
(0.0002314812979 1.003261305e-05 1.741850172e-05)
(0.0002407608937 -1.409445571e-05 1.176025509e-06)
(0.0002703689758 3.68929798e-05 5.01605427e-05)
(0.0002335283814 1.462341162e-06 1.743519083e-05)
(0.0002356506211 6.789189029e-06 6.829070339e-05)
(0.0002642524544 3.647840496e-06 2.164505739e-05)
(0.0002771961368 5.34705637e-05 3.90355614e-05)
(0.0003117303477 -7.298397205e-06 9.000844482e-06)
(0.0003050446947 -4.243675775e-05 5.009501038e-05)
(0.0002920783338 1.35338606e-05 9.980042856e-06)
(0.0002915523665 7.469039121e-07 -5.209331516e-05)
(0.0001340086711 -2.869965495e-05 2.43363656e-06)
(0.0001468882184 -2.016318359e-05 2.171289249e-05)
(0.0001433307146 -4.515633783e-05 2.925736812e-05)
(0.0001267058752 -4.025849704e-05 4.590954014e-05)
(0.0001810159639 -3.516072781e-05 4.378880111e-05)
(0.000145343112 -4.702590664e-05 -1.203761505e-05)
(0.000134068721 -5.257148883e-05 -3.363736802e-07)
(0.0001687696335 -4.807007295e-05 -3.622922689e-05)
(0.0001688183949 -4.799045639e-05 -2.703172038e-05)
(0.0001470999521 -5.092074265e-05 4.333000142e-06)
(0.0001883332658 -5.615479351e-05 -1.084539062e-05)
(0.0001966400548 -2.720264119e-05 2.120803406e-05)
(0.0002170057345 -2.219513836e-05 -2.122009022e-05)
(0.0002024093534 -1.36023216e-05 -1.162234484e-05)
(0.0002148832507 -3.692379235e-06 3.413948929e-05)
(0.000201737291 2.100998384e-05 2.028108281e-05)
(0.000202289325 -3.203824579e-05 -3.443900182e-05)
(0.000185908113 -9.050105307e-07 1.841983974e-05)
(0.0001821455029 3.512481286e-05 2.801519136e-06)
(0.0001841517546 -2.760987617e-05 3.089781211e-05)
(0.0002333374561 -1.280232471e-05 2.47954367e-05)
(0.0002458883574 2.889991127e-05 5.80320786e-05)
(0.0002677150463 2.484791684e-05 6.440857422e-05)
(0.0002711425067 1.283117886e-05 3.282989487e-05)
(0.0002610356354 -2.023760223e-05 4.945235401e-05)
(0.0002966303673 1.705956854e-05 2.185719116e-05)
(0.0002907065215 -1.475101093e-05 3.9435836e-06)
(0.0002676598605 -1.884219397e-05 3.025443331e-05)
(0.0002704599821 2.530185015e-05 -3.787186003e-05)
(0.0002890235379 9.806518945e-07 -6.391085046e-05)
(0.0001216535072 -2.494406026e-05 1.761173364e-05)
(0.0001166959955 -3.591852041e-05 -7.296733579e-06)
(0.0001019327224 -2.127625008e-05 5.318115863e-06)
(0.0001109180714 -5.148063208e-05 4.179338873e-05)
(0.0001059323735 -4.692176968e-05 -5.058529573e-08)
(0.0001540438598 -3.634204771e-05 -2.340306893e-05)
(0.0001137361582 -6.024983852e-05 2.883676615e-06)
(0.0001533622017 -8.459691295e-05 -2.89632111e-05)
(0.000154935305 -4.376746437e-05 6.274335916e-06)
(0.0001682370903 -5.556308047e-05 -2.65060962e-07)
(0.0001854462461 -7.825965204e-05 1.095471689e-05)
(0.0001780360482 -3.059070025e-05 -4.984540939e-05)
(0.0001730690472 -1.729713071e-05 -3.299087774e-05)
(0.0002156124687 -1.207643266e-05 2.401948781e-05)
(0.000229766575 -2.329234879e-05 4.246399823e-05)
(0.0002305763247 3.243921002e-05 -1.251072243e-05)
(0.0002090191623 -1.113964322e-06 1.452621048e-05)
(0.0002003676389 1.646163416e-06 7.094674357e-06)
(0.0002183533426 -3.7204749e-06 -2.350472568e-05)
(0.0002261555817 -1.220227055e-05 2.483892442e-05)
(0.0002416177758 -4.310635565e-05 3.818642013e-05)
(0.0002495431024 -2.446294616e-06 -1.609541886e-05)
(0.0002635368064 1.069071868e-05 -3.763478135e-05)
(0.0002849840011 4.02632913e-06 1.128235645e-05)
(0.0002727964104 -4.453301094e-06 3.606606754e-05)
(0.0003043627639 3.055349866e-07 1.813691853e-05)
(0.0002793641243 2.314714092e-05 2.43296003e-05)
(0.0002665316058 -3.026317611e-05 -2.330316466e-07)
(0.0002541734259 2.828388755e-05 -3.445541359e-05)
(0.0002737823256 4.054498031e-06 -7.516897689e-05)
(0.0001348304312 -2.357107921e-05 -1.128478799e-05)
(0.0001298300354 -1.993621883e-05 -2.902429635e-05)
(0.0001326309856 -1.955772368e-05 4.085815398e-05)
(0.00015594836 -6.184322408e-05 3.145010222e-05)
(0.0001698272739 -7.273053189e-05 3.733313777e-05)
(0.0001681137166 -4.025617374e-05 6.828952709e-06)
(0.0001865528695 -6.344721537e-05 -2.030794568e-05)
(0.000151576594 -6.1332658e-05 -5.209089869e-05)
(0.0001802097515 -5.60278909e-05 -8.643444551e-06)
(0.00018887854 -6.753252197e-05 2.883215057e-05)
(0.0002028415485 -8.334670275e-05 1.945493533e-05)
(0.0001794475056 -8.210371008e-06 -1.778208355e-05)
(0.000186273417 -3.702544461e-05 7.619604767e-06)
(0.0002136169722 -4.483470368e-05 2.363710891e-05)
(0.0002176469345 -1.706456843e-05 -7.600596272e-06)
(0.0002010086869 3.633114206e-05 -2.988004526e-05)
(0.0001979807882 -4.106325249e-06 -6.077591567e-07)
(0.000209898144 -7.019553157e-06 1.703056915e-05)
(0.0002081790992 2.136377131e-06 -1.876572612e-05)
(0.000242299582 -3.791198694e-05 -2.358582717e-05)
(0.000230787927 -3.020733911e-05 -5.468174415e-06)
(0.0002442941776 -1.283144452e-05 2.579941652e-05)
(0.0002666456486 -3.381498096e-06 -8.553560729e-06)
(0.0002490872002 9.897365414e-06 2.881043297e-05)
(0.0002485446683 -1.835402314e-06 1.278680586e-05)
(0.0002259006166 -1.737301505e-05 9.73188794e-06)
(0.0002600290762 2.580125048e-05 -3.10722555e-06)
(0.000235471993 -9.397241874e-06 -4.14182317e-06)
(0.0002527614612 2.429189555e-05 -7.784486729e-06)
(0.0002651283766 2.85027752e-05 2.055646275e-05)
(0.0001311694319 -6.097577429e-05 -3.317310409e-05)
(0.0001528290813 -6.54050802e-06 -4.428007273e-05)
(0.0001693974204 -5.621564852e-05 2.666325919e-06)
(0.0001601119482 -4.89831639e-05 -4.505561787e-06)
(0.0001549416869 -7.327951337e-05 -2.408085825e-05)
(0.0001571940638 -4.376174811e-05 2.741647455e-05)
(0.0001613282357 -3.398022151e-05 3.48769057e-06)
(0.0001762713795 -9.64478186e-05 -7.709444323e-06)
(0.0001571552173 -5.681579541e-05 -2.11774353e-05)
(0.0001861207616 -7.999620486e-05 2.824232552e-05)
(0.0001521275402 -6.54202061e-05 6.793707587e-05)
(0.0001586766155 -3.361144971e-06 2.010284486e-05)
(0.0001864078569 -6.422652985e-05 -3.453463145e-05)
(0.0001632673534 -5.171034094e-05 -2.102723348e-05)
(0.0001585523388 -5.246885152e-06 -3.554914668e-05)
(0.00020041863 1.396060137e-05 6.808722297e-06)
(0.0002334505241 2.001715762e-06 8.428209809e-06)
(0.0002025521263 -1.141648319e-06 1.464854325e-05)
(0.0001998734375 4.016827601e-06 1.710612741e-05)
(0.0001916192071 -2.929900537e-05 -3.598778676e-05)
(0.0001810882846 -6.342552503e-05 -2.773335894e-06)
(0.0001974035254 -4.207721256e-06 -8.499745036e-06)
(0.0001855201574 -4.536263821e-06 7.07349202e-06)
(0.0002078834584 6.744670122e-06 -1.379447901e-05)
(0.000210963277 2.387877234e-05 3.000811235e-05)
(0.0001817956011 -9.859165325e-06 -1.351847736e-05)
(0.0001990210194 -1.687893623e-05 1.113360481e-05)
(0.0002697099984 -2.200245781e-05 1.879183213e-05)
(0.0002378383211 2.556925512e-05 -4.070423121e-05)
(0.000248066608 2.959583757e-05 -5.956829542e-06)
(0.0001370934656 -4.640614917e-05 -6.322603089e-06)
(0.0001237239656 -5.513673192e-05 5.482922447e-06)
(0.0001516670612 -4.611392243e-05 -2.569989e-05)
(0.0001568002661 -4.370478776e-05 4.434579262e-06)
(0.0001495443797 -7.33801202e-05 -1.611888589e-05)
(0.0001639799123 -5.444143522e-05 2.900494188e-05)
(0.0001819697004 -6.447551359e-05 -2.806883024e-05)
(0.0001928773392 -7.114065471e-05 -1.24871796e-05)
(0.000185603311 -6.07213111e-05 -2.860202298e-05)
(0.0001558632134 -8.251308012e-05 2.622775386e-05)
(0.0001418562666 -4.234304117e-05 2.033676593e-05)
(0.0001471691847 -3.009439646e-05 -7.93751123e-06)
(0.0001611954084 -7.727748007e-05 1.47046416e-05)
(0.0001830070345 -2.174838314e-05 1.016726612e-05)
(0.0001544605741 -1.564547457e-05 -5.444600628e-05)
(0.0001515618228 -1.434358342e-05 4.099866986e-06)
(0.000158043304 -1.561128786e-05 -3.848975107e-05)
(0.0002028653313 1.750177192e-05 5.390587286e-06)
(0.000194210704 -8.037722481e-06 -9.423476214e-06)
(0.0001911662614 -6.461036678e-06 -1.771364748e-05)
(0.0001915460779 -7.32301123e-05 1.878706192e-05)
(0.0001665471839 2.251424945e-06 -1.237924831e-05)
(0.0001864191467 -1.063497434e-05 -3.369520199e-05)
(0.0001957433298 3.394167611e-07 -2.201592902e-06)
(0.0001986624307 -1.088597603e-05 3.275093416e-07)
(0.000205264712 1.966375858e-05 -2.603218511e-06)
(0.0001864306724 -3.617026764e-05 5.127352398e-06)
(0.0001616875871 -2.827737881e-05 5.086764513e-06)
(0.0001907574571 3.784311268e-05 3.85913226e-05)
(0.0002140811874 2.446209422e-05 5.085345331e-05)
(0.0001689549695 -2.315091539e-05 -1.74537721e-05)
(0.0001705676967 -6.960699257e-05 4.319593637e-07)
(0.0001822732218 -5.147641421e-05 -2.193969856e-05)
(0.000184699912 -6.501521465e-05 1.129322752e-05)
(0.0001657457111 -4.234923058e-05 4.326660297e-05)
(0.0001534080272 -6.75492068e-05 3.839148859e-05)
(0.0001605348033 -7.179644924e-05 -2.270262932e-05)
(0.0001427459452 -7.896687214e-05 -9.768516658e-07)
(0.000135320906 -4.499302809e-05 1.80833815e-07)
(0.0001271109668 -5.805537603e-05 -1.822966571e-05)
(0.0001330759697 -4.4494035e-05 1.254433759e-05)
(0.0001486896137 -5.370451669e-05 -6.913738331e-06)
(0.0001516909949 -6.866460382e-05 5.132255123e-05)
(0.0001585352503 -3.304483798e-05 2.794308804e-05)
(0.0001918479749 -1.134862333e-05 -5.347253185e-05)
(0.0001755720799 -9.38228481e-06 -6.347349478e-05)
(0.0001789003852 -3.081348648e-05 1.01124035e-06)
(0.0002036970636 2.555080699e-06 -1.618275153e-05)
(0.0002111075158 -2.163584297e-05 -3.085736199e-05)
(0.0002063054995 -2.687964798e-06 1.216744442e-05)
(0.0001712188825 -3.626522071e-05 -2.325569629e-05)
(0.0001864929813 -2.998707373e-05 -2.927250689e-06)
(0.0001690743214 -1.814386825e-05 1.418201194e-05)
(0.0001732754241 6.227281812e-06 6.720916878e-05)
(0.0001644683308 6.606081519e-06 2.515852446e-05)
(0.0001753083937 -2.158984419e-05 -2.488584443e-05)
(0.0001869177726 7.541656459e-06 4.111965601e-05)
(0.0001596006185 -6.148499011e-06 3.137114541e-05)
(0.0001527521195 2.429384387e-06 -1.559850459e-05)
(0.0002039038194 2.665829233e-05 3.588072708e-05)
(0.0001381968244 -4.005275979e-05 -5.1035503e-05)
(0.000161992984 -7.222520705e-05 4.778028112e-05)
(0.0001450253195 -6.263606713e-05 4.25494979e-05)
(0.000136070473 -5.292725737e-05 3.443757776e-05)
(0.0001267602098 -2.802661158e-06 2.789203988e-05)
(0.000109569487 -9.072892975e-05 2.579185171e-05)
(0.0001204059839 -4.500545757e-05 -6.286962042e-05)
(0.0001104132041 -8.624493331e-05 -5.208831925e-06)
(0.0001315176391 -4.547289117e-05 4.988227657e-06)
(0.0001292140157 -5.940190568e-05 9.477039367e-06)
(0.0001435417538 -4.693143849e-05 5.751162538e-05)
(0.0001500213732 -6.130739238e-05 3.432828014e-05)
(0.0001494714021 -5.323808987e-05 9.495700825e-06)
(0.0001065578723 -4.921305671e-05 4.944563171e-05)
(0.0001160607539 -2.297753836e-05 1.204749423e-05)