/*--------------------------------*- C++ -*----------------------------------*\
  =========                 |
  \\      /  F ield         | OpenFOAM: The Open Source CFD Toolbox
   \\    /   O peration     | Website:  https://openfoam.org
    \\  /    A nd           | Version:  7
     \\/     M anipulation  |
\*---------------------------------------------------------------------------*/
FoamFile
{
    version     2.0;
    format      ascii;
    class       volVectorField;
    location    "0.008";
    object      momentumMean;
}
// * * * * * * * * * * * * * * * * * * * * * * * * * * * * * * * * * * * * * //

dimensions      [1 -2 -1 0 0 0 0];

internalField   nonuniform List<vector> 
654
(
(0.01528604961 0.004766642932 -1.702308688e-05)
(0.01574664486 0.005092704831 -2.261861759e-05)
(0.01591969389 0.005141564878 -7.422177628e-06)
(0.0159049332 0.005110033832 -3.767355714e-07)
(0.01589529293 0.005067260444 -5.756558086e-06)
(0.0158892236 0.005026659722 -9.544927839e-06)
(0.0156460411 0.004887099097 2.917214967e-05)
(0.01360108004 0.003575789494 -5.476661576e-06)
(0.01397781504 0.003893827271 -4.683811701e-05)
(0.01444040212 0.004199799355 -3.694461646e-05)
(0.01482212734 0.004425601943 -4.688385045e-06)
(0.01520613756 0.00462358377 2.786331653e-05)
(0.01569230162 0.00488829288 5.225599208e-05)
(0.01583791448 0.005043016424 -2.0458832e-06)
(0.0160362966 0.005099317173 5.678198443e-06)
(0.01605090692 0.005106505802 2.118312144e-06)
(0.01605226065 0.005059069889 7.750372207e-07)
(0.01609617682 0.005061989185 -1.476114635e-05)
(0.01064348914 0.001601140037 -8.73646034e-06)
(0.01102968768 0.001833457522 -4.265033702e-06)
(0.01150512756 0.002163537204 -1.561873696e-05)
(0.01202617427 0.002472780066 6.982178868e-06)
(0.0124705887 0.002759775469 -2.018461322e-05)
(0.01288563989 0.003090085574 -1.597000865e-05)
(0.01345655968 0.003460091806 1.955601606e-05)
(0.01396137485 0.003745529628 4.81288588e-06)
(0.01447138848 0.004055970057 -1.464502238e-05)
(0.01484304265 0.00430893342 -2.622640129e-05)
(0.01512341553 0.004544850997 -1.96119203e-05)
(0.01551146079 0.004766538634 -1.101768049e-05)
(0.01577408242 0.00496083493 -3.539151384e-05)
(0.01598160892 0.005045838192 -6.494849744e-05)
(0.01602382033 0.005020398389 -1.861258079e-05)
(0.01612138329 0.005067154311 -4.582709291e-05)
(0.008994776244 0.0004117251248 -8.162000467e-06)
(0.009070844992 0.0005275480448 -1.291838879e-05)
(0.009168023792 0.0006252433047 2.151506779e-05)
(0.009303149621 0.0007404193836 1.587482709e-05)
(0.009489837715 0.0008803030958 2.536777699e-05)
(0.009734097129 0.001030641488 3.378043418e-06)
(0.01002261711 0.00123988065 -2.191693191e-05)
(0.01036334332 0.001450805345 -2.219440037e-05)
(0.01070891083 0.001679126487 -2.452014e-05)
(0.0110739912 0.001970353913 -3.021026933e-05)
(0.01150754135 0.002296323039 -7.21189298e-06)
(0.0120795634 0.002562978056 -2.339832056e-05)
(0.01258556701 0.002891361818 -5.310448504e-06)
(0.01310502826 0.003226803933 5.334707165e-06)
(0.01366761509 0.003551915276 8.569972748e-06)
(0.01413027626 0.00385476595 8.315673177e-06)
(0.01455512594 0.004134132273 4.834709048e-05)
(0.01508451167 0.004450210207 5.083428439e-05)
(0.01540119872 0.00464425276 8.520140728e-06)
(0.01574602847 0.004866782097 1.946109105e-05)
(0.01598268777 0.005009473837 -3.308127691e-05)
(0.01601065821 0.00498114856 -3.760091388e-05)
(0.008500079827 0.0001212381348 -2.075344066e-05)
(0.008533866409 0.0001305504962 -1.146154817e-05)
(0.008535089127 0.00014574806 -8.519327266e-07)
(0.008613230141 0.0001804412306 -1.410552168e-07)
(0.008668031155 0.0002135312562 -5.444550114e-06)
(0.008668193035 0.0002605976748 2.483623936e-06)
(0.008719081803 0.0003365208613 -3.982912817e-06)
(0.008741868311 0.0004005796204 1.830602576e-06)
(0.008863661656 0.0004803963065 1.742370241e-05)
(0.00902662917 0.0005780399611 1.334189972e-06)
(0.009241980176 0.0006725055639 9.53770795e-06)
(0.009438491173 0.0007782302099 1.553862802e-05)
(0.009673473545 0.0009485169301 3.439279274e-05)
(0.009958800286 0.001127776092 5.562312918e-05)
(0.01025814833 0.00132331196 6.509461197e-05)
(0.01067919133 0.0015857896 6.615990386e-05)
(0.01112528392 0.001837011325 5.082802762e-05)
(0.01149784342 0.002114403119 3.468355924e-05)
(0.01199490642 0.002412664506 2.504784147e-05)
(0.01254973533 0.002754361163 -3.339829967e-05)
(0.01306210024 0.00309793659 -1.099659929e-06)
(0.01349187047 0.003431089126 -9.046932593e-06)
(0.01401575086 0.00373728687 -5.53299805e-05)
(0.01442194665 0.004006300662 -1.828549035e-05)
(0.01490755413 0.004309978972 5.475105915e-06)
(0.01530687187 0.004567281477 -3.424544514e-05)
(0.01556764436 0.004741898098 6.227974279e-06)
(0.01581194821 0.004865104688 7.544074509e-06)
(0.00839196122 4.046933861e-05 -2.121972833e-06)
(0.008425521425 4.332731119e-05 -6.125070322e-06)
(0.008459992628 4.29258083e-05 -9.991354963e-07)
(0.008496025747 7.653600096e-05 -3.632251368e-06)
(0.008538209409 0.0001188250114 5.673447255e-06)
(0.008564785981 0.0001649111268 7.484037595e-06)
(0.008570655148 0.0001945223785 6.675425807e-06)
(0.008614607188 0.0002281744996 9.201290315e-06)
(0.00869294709 0.0002664111343 1.236850145e-05)
(0.00877478108 0.0003146981853 -2.140944757e-06)
(0.008939816659 0.0003829822014 -5.167274156e-06)
(0.009034754609 0.0004433444198 1.511320776e-05)
(0.009099407405 0.0005219558168 1.951081864e-05)
(0.009133395302 0.000623993325 2.729634854e-05)
(0.009391099501 0.0007357759849 2.127300086e-05)
(0.009647851266 0.0008718830342 1.773950851e-05)
(0.009875803554 0.001023618237 2.057815913e-05)
(0.0100784467 0.001211814725 1.768055167e-05)
(0.01044002428 0.001444509786 1.48405236e-05)
(0.01087824585 0.001707755642 1.115377704e-05)
(0.01125711652 0.001947109732 2.412417322e-05)
(0.01166747812 0.002248143635 4.308645582e-05)
(0.01213988846 0.002600264746 8.873083662e-06)
(0.01268411381 0.002930075871 -1.009411017e-05)
(0.01332400219 0.003305508028 -2.290109322e-05)
(0.01378709968 0.003599264724 9.220705757e-06)
(0.0142376444 0.003853086066 1.585165354e-05)
(0.01459964625 0.004125477074 2.317193394e-05)
(0.01504434983 0.004423847143 3.279246148e-05)
(0.01556348517 0.004644579261 6.081847681e-05)
(0.00850108195 4.192544362e-05 -8.778227641e-07)
(0.008470117044 4.257861829e-05 9.241104041e-08)
(0.008429829787 6.764884502e-05 3.920575237e-06)
(0.00840863749 8.738618606e-05 -3.830807892e-06)
(0.008400715671 9.455215794e-05 8.936121636e-06)
(0.00839650665 0.0001220436149 1.102101618e-05)
(0.008462016289 0.0001482895428 7.194403112e-06)
(0.00848216348 0.0001656469953 -1.749486052e-06)
(0.00856276388 0.0001750543939 -1.625812164e-06)
(0.008600504171 0.0002222253191 4.809634344e-06)
(0.008605764626 0.0002748224788 9.422372182e-06)
(0.008692508958 0.0003485435455 -1.211811352e-05)
(0.008876963327 0.0004063182304 -2.850793275e-06)
(0.00908229824 0.0004560256866 -6.171152268e-06)
(0.009187853553 0.0005536978024 3.224272186e-06)
(0.009336941922 0.0006871855564 -1.525660165e-05)
(0.009503008092 0.0008067001031 -1.471070405e-05)
(0.009728820851 0.0009440306843 -1.469508468e-05)
(0.01011197763 0.001111278817 3.955277395e-06)
(0.01042101517 0.001333934825 8.731683997e-06)
(0.0107862896 0.001597428528 1.24474576e-05)
(0.01117940716 0.001862114335 -1.293500592e-06)
(0.01155972101 0.002093666869 2.19280753e-05)
(0.01202092991 0.002451535162 -3.917722069e-06)
(0.0125352383 0.002768826866 -1.781594757e-05)
(0.01303365512 0.003160419019 -2.54077812e-05)
(0.01352726602 0.003448202463 -1.438627022e-05)
(0.01417210849 0.003776538525 -4.94591137e-06)
(0.01463082996 0.004061948077 -2.145832149e-05)
(0.0149811207 0.004296900075 -2.782371539e-05)
(0.008252283217 3.114634699e-05 1.472493071e-05)
(0.008239764851 3.978401522e-05 1.129031737e-05)
(0.008323081229 5.261264614e-05 2.138481911e-05)
(0.008354961441 5.971933353e-05 1.588295997e-05)
(0.00836455282 7.753275264e-05 1.61066856e-05)
(0.008390414309 7.73364935e-05 6.569224749e-06)
(0.008468038356 0.0001009104512 1.419279078e-05)
(0.008457910272 0.0001314556169 2.224218233e-05)
(0.008476220856 0.0001499686965 9.250365479e-06)
(0.008571142559 0.0001744593747 4.070332139e-06)
(0.008696456041 0.000203767416 4.025830758e-06)
(0.008833477324 0.0002332455405 2.431079501e-06)
(0.008855579136 0.0003011292644 -9.068420909e-06)
(0.008924843466 0.000386746978 -3.035454588e-05)
(0.008967369309 0.0004316664288 -2.574949288e-05)
(0.009092761715 0.000504094859 -2.050723363e-05)
(0.009318422767 0.0006201690203 -1.249256268e-05)
(0.009481517337 0.000744828341 -9.36774602e-06)
(0.009616765666 0.0008736229281 -1.258540715e-05)
(0.009863706857 0.00105144841 -8.489122069e-06)
(0.01017259062 0.001246870292 -1.35488586e-05)
(0.01054255766 0.001464511465 -4.225969111e-06)
(0.01089892402 0.001725139103 1.849033252e-05)
(0.01134957483 0.001998169176 2.252894526e-05)
(0.01186731974 0.002315961653 7.295960921e-07)
(0.01242937405 0.002634095886 -4.527608324e-07)
(0.01295177171 0.003011975138 -3.824406719e-06)
(0.01339022499 0.003269817189 -1.377998296e-05)
(0.01392131117 0.003631576265 4.657426711e-06)
(0.01446237774 0.003949637914 -8.43543349e-06)
(0.008357926368 2.843977524e-05 6.691264166e-06)
(0.008351561267 2.519084416e-05 -2.684413262e-08)
(0.008379557209 2.905311758e-05 9.99684993e-06)
(0.008377065154 3.998177839e-05 -5.436657384e-06)
(0.008389211238 5.498407565e-05 -8.168151149e-06)
(0.008406003891 7.087182672e-05 4.983714925e-07)
(0.008514376958 7.046387566e-05 4.85578587e-06)
(0.008535197055 8.699117411e-05 3.275483343e-06)
(0.008600604898 0.0001047285697 -1.419735346e-05)
(0.008605625883 0.0001295627428 -1.788538763e-05)
(0.008590508858 0.0001574610386 -2.698176405e-05)
(0.008624564566 0.0001796709835 -2.335930237e-05)
(0.008679723432 0.0002234507575 -6.479966099e-06)
(0.008676296453 0.0002920411811 -4.603369167e-06)
(0.008804267233 0.0003571276074 -5.234991181e-07)
(0.008873893359 0.0003855115405 -1.133662307e-05)
(0.00901860989 0.0004787707132 -1.018601384e-05)
(0.00916927539 0.0005856377491 -1.515986324e-05)
(0.009317721696 0.000681778259 -5.812301223e-07)
(0.009415783336 0.0007938266525 -1.927400883e-05)
(0.009691610428 0.0009658694407 -1.370302676e-05)
(0.009930735713 0.001164774535 -8.801656464e-06)
(0.01028836851 0.001347711356 -1.946858018e-05)
(0.01071270327 0.00160236319 1.104814581e-06)
(0.01109957456 0.001841615859 -6.55992864e-06)
(0.01166516568 0.00213834507 2.191659621e-05)
(0.01219840501 0.002503921414 1.635204993e-05)
(0.01281232377 0.002886208287 1.611048481e-05)
(0.01336949914 0.003163250387 -1.494834142e-05)
(0.01378909925 0.003474680567 -3.920304763e-06)
(0.008411951697 1.687014248e-05 -5.96722225e-06)
(0.008353262465 2.539635892e-05 2.21145045e-06)
(0.008341259205 3.109938949e-05 -6.229772699e-06)
(0.008362504886 1.768734917e-05 -3.018821044e-06)
(0.008409267023 2.699312992e-05 -1.079920069e-05)
(0.00836270268 3.545312646e-05 -1.657506902e-05)
(0.008400441357 5.221052309e-05 -2.13294547e-05)
(0.008450422131 7.256045806e-05 -2.311214158e-05)
(0.008459090892 7.340304298e-05 -3.009491703e-06)
(0.008424891716 9.348108256e-05 -3.940045492e-06)
(0.008440844041 0.0001236223625 4.924113456e-06)
(0.008512993091 0.0001574771394 7.266026745e-06)
(0.008513054956 0.0001766241694 -5.248798212e-06)
(0.008646492092 0.0002005379127 1.804783167e-06)
(0.00873304322 0.0002561490579 -1.155065105e-05)
(0.008744808649 0.0003281182564 -1.152164706e-07)
(0.008801270714 0.000383820464 -2.842793223e-06)
(0.008858970822 0.0004565719114 -8.669957897e-06)
(0.009023952774 0.0005410730618 -1.974613479e-05)
(0.00917750755 0.0006317942201 -2.365421522e-05)
(0.009396977881 0.000735055385 -4.269243506e-05)
(0.009672362103 0.0008963218302 -2.533723437e-05)
(0.01004715172 0.001082872097 -3.244284199e-05)
(0.01026914974 0.001266086875 -2.934161662e-05)
(0.01059278885 0.001489434937 -1.003777399e-05)
(0.01102225479 0.001698895815 -1.665783913e-05)
(0.01140642923 0.002001735071 7.830853816e-06)
(0.01199588965 0.002380608381 3.518981717e-05)
(0.01250899041 0.002681879244 5.804594512e-05)
(0.01312108215 0.003061583207 1.057059744e-05)
(0.008344740448 6.543499256e-06 3.71728256e-06)
(0.008384715541 8.233181594e-06 9.371722799e-06)
(0.00839661831 1.013037808e-05 2.210682648e-06)
(0.008442386412 1.963590769e-05 3.282968365e-06)
(0.008474171673 3.496532965e-05 1.067979401e-05)
(0.008538669711 2.950534108e-05 1.512265465e-05)
(0.008513609118 4.869728756e-05 2.580819779e-05)
(0.008458587318 5.044763544e-05 1.828215914e-05)
(0.008468344461 7.456973823e-05 1.51872312e-05)
(0.008514536603 8.208322386e-05 6.026340023e-06)
(0.008568249605 0.0001099264178 -6.680476334e-06)
(0.008570704421 0.0001311378786 1.382125729e-06)
(0.008597804324 0.00015010369 -2.599368823e-06)
(0.008612997113 0.0001745877229 -6.962370697e-06)
(0.008641387394 0.0002113256763 4.198150617e-06)
(0.008717663457 0.0002570696742 -1.08654498e-05)
(0.008788324456 0.000300059443 -1.017355619e-06)
(0.008864385908 0.0003565774142 -1.305642845e-05)
(0.008984315298 0.0004371815068 -1.589292672e-05)
(0.009140414836 0.0005084839247 -7.808131556e-06)
(0.009243032322 0.0005732992733 -2.100112216e-05)
(0.009373019148 0.0006942374319 -2.666834469e-05)
(0.009609335583 0.0008248180135 -1.795129638e-05)
(0.009922788918 0.000993762911 2.421276171e-06)
(0.01031244437 0.001208118785 -5.316997663e-06)
(0.0105122521 0.001393354295 -1.822674815e-05)
(0.01093271139 0.00162335852 -2.674227715e-05)
(0.01144745094 0.001909427918 1.193012455e-06)
(0.01192460569 0.002265763576 2.094739556e-05)
(0.01244710776 0.002557862761 4.326720476e-05)
(0.008335923437 3.766158117e-06 -1.585584204e-05)
(0.008356809914 -4.54581679e-06 -2.334370015e-05)
(0.008390601626 -9.24635453e-06 -8.793727665e-06)
(0.008320822821 4.763117723e-07 1.34749036e-06)
(0.008326270816 4.1352995e-06 -3.777025653e-06)
(0.008335187554 8.454904207e-06 2.484257478e-06)
(0.008313681823 2.495029345e-05 -1.059334136e-05)
(0.008358505401 4.359973028e-05 -1.788350048e-05)
(0.008427186503 4.732298508e-05 -9.514526258e-06)
(0.008337483256 6.705658587e-05 1.313388272e-06)
(0.008361217643 7.658972144e-05 -1.227830347e-05)
(0.008444480584 8.598646942e-05 -2.204475032e-05)
(0.008401531868 0.0001220078886 -2.162536609e-05)
(0.008438572867 0.0001572212452 -1.572754845e-05)
(0.008495540157 0.0001613773597 -7.246767942e-06)
(0.008555256462 0.0001940480707 -6.082783512e-06)
(0.008633277058 0.000216403302 -1.310005255e-05)
(0.008712549169 0.0002645868272 -1.262229635e-05)
(0.008773279135 0.0003191881266 -6.804326693e-06)
(0.008911394738 0.0004051584139 -9.848083411e-06)
(0.008991848437 0.0004895186876 1.543403411e-06)
(0.00915112732 0.0005241257592 -7.549851874e-06)
(0.009229794322 0.0006235058538 -1.734454955e-05)
(0.009446484735 0.0007270373769 -2.766860955e-05)
(0.009703188423 0.0009093814969 -3.484602873e-05)
(0.01004518069 0.001115332194 -2.670695248e-05)
(0.01040896024 0.001260883973 -4.133526978e-05)
(0.01075958293 0.001516485001 -3.13778878e-05)
(0.01124121797 0.001808160648 -2.672006697e-05)
(0.01175844422 0.002120164912 -2.592134371e-05)
(0.008505667387 -4.852645924e-06 3.989980479e-06)
(0.008411733491 2.026161372e-05 1.556240692e-05)
(0.008384885186 2.810012596e-05 1.60338113e-06)
(0.008415525365 6.442297912e-06 -3.70595601e-06)
(0.008423701611 1.123791378e-05 -7.368126801e-06)
(0.00843765962 1.846567893e-05 -1.17953707e-05)
(0.008462799906 2.506679746e-05 -5.456003455e-06)
(0.00843537538 3.667194371e-05 -1.719232884e-05)
(0.008433006896 5.30906586e-05 -2.737565317e-05)
(0.008528345874 5.376268791e-05 -2.65523395e-05)
(0.008485978078 6.530378902e-05 -1.024505609e-05)
(0.008438796775 8.816026612e-05 3.018902286e-06)
(0.008474592545 9.851085575e-05 3.713818076e-06)
(0.008572733573 0.0001164305978 8.582574639e-06)
(0.008513132925 0.0001456215537 1.931413542e-07)
(0.008568341667 0.0001526331392 -1.575537685e-05)
(0.008600986365 0.0002028658053 -1.451965309e-05)
(0.008588273118 0.0002272511886 -2.009590537e-05)
(0.008653205471 0.0002477221941 -4.679618403e-06)
(0.008734953062 0.0002873182827 -1.119509039e-06)
(0.008943418386 0.0003549495517 5.872923739e-06)
(0.009046822748 0.0004296604183 -7.39291466e-06)
(0.009206630701 0.0004972555511 -2.734176865e-05)
(0.009371590237 0.000595086499 -9.528978282e-06)
(0.009500231679 0.0006892568897 -4.573171479e-06)
(0.009754861906 0.0008497875261 -3.620083354e-06)
(0.01004296474 0.001045212486 -7.833707122e-06)
(0.01029043681 0.001210793511 -3.130135411e-05)
(0.01070516437 0.001416813277 -2.322895718e-05)
(0.01119294063 0.001707693034 -2.401576432e-05)
(0.008288199967 -4.597012655e-06 1.198692485e-05)
(0.008344705795 -1.251695447e-05 1.007328297e-05)
(0.008358315487 -8.139107162e-06 -2.052150841e-06)
(0.008383660968 2.695786879e-06 2.170765682e-06)
(0.00836829214 1.745224451e-05 -1.235541111e-05)
(0.008342966735 2.205343476e-05 -1.344301445e-05)
(0.008394070292 2.024581093e-05 -2.532414328e-05)
(0.008345257085 2.682410699e-05 -8.268064861e-06)
(0.008329292938 2.110406675e-05 6.69371852e-06)
(0.008342220354 3.917157148e-05 3.017930022e-06)
(0.008346407712 6.89851613e-05 -2.774758444e-06)
(0.008403046449 7.030114709e-05 -1.344489718e-05)
(0.008401704864 8.685534519e-05 -2.418667498e-05)
(0.008471434231 8.527086617e-05 -1.965404555e-05)
(0.008526103084 0.0001028444865 -2.321430051e-05)
(0.008598986719 0.0001256902678 -1.322053146e-05)
(0.008648458328 0.0001577533951 -4.974077482e-07)
(0.008858813054 0.0001787256984 2.164875398e-06)
(0.008905303907 0.0002029501267 -1.62257282e-05)
(0.008916543716 0.0002471646048 -5.460933774e-06)
(0.008939038911 0.0002591039343 -3.242287612e-06)
(0.009059290379 0.0003304162802 1.740048237e-05)
(0.009090815106 0.0003958260246 7.097322521e-06)
(0.009141156477 0.0004771071209 1.297936067e-05)
(0.00938327277 0.0005762085299 1.945608349e-05)
(0.009519117375 0.0006660709636 -2.575715342e-06)
(0.009769227905 0.0008260300487 -1.038025575e-05)
(0.01007565661 0.0009641115615 -4.597638462e-05)
(0.01025392908 0.001122715976 -3.486530777e-05)
(0.0105867864 0.001327459201 -1.986831031e-05)
(0.008341652612 2.016851388e-06 6.004483289e-06)
(0.008343819743 7.527042528e-06 1.145993364e-05)
(0.008307680544 -9.417277188e-07 1.509234516e-05)
(0.008279286269 1.662602574e-05 1.355088005e-05)
(0.008218401229 8.211352052e-06 2.444717795e-05)
(0.008238008133 1.708065542e-05 1.995178746e-05)
(0.008224428356 1.844688668e-05 2.781683434e-05)
(0.008268645918 1.18000425e-05 2.092652237e-05)
(0.00827058599 2.739568476e-05 1.648262774e-05)
(0.008268646299 3.318274865e-05 2.130711608e-05)
(0.008341062392 2.176305888e-05 1.955344303e-05)
(0.008391662007 2.693011611e-05 1.69150133e-05)
(0.00845750069 3.674818801e-05 9.573038993e-06)
(0.008466957424 4.792242601e-05 1.192680936e-05)
(0.008480286602 5.423926806e-05 6.209913466e-06)
(0.008537373453 6.226288651e-05 5.730253089e-06)
(0.008577412818 9.237560962e-05 4.101528502e-06)
(0.008571031945 0.0001158277922 1.559770166e-05)
(0.008651688818 0.0001317237075 2.097275599e-05)
(0.008738074871 0.0001803847242 2.495163793e-05)
(0.008854124683 0.0002169967745 2.940611908e-05)
(0.008868604567 0.0002773018563 2.965183703e-05)
(0.008980671855 0.0003240996462 2.444027179e-05)
(0.009129814531 0.0003753649312 4.379789648e-06)
(0.009226652395 0.0004503468094 2.011777373e-06)
(0.009316054576 0.0005014846355 1.70904408e-05)
(0.009518321801 0.0006244854951 1.605168827e-05)
(0.00966387974 0.0007896366991 -9.888662986e-06)
(0.009868197429 0.000929874156 -2.280567598e-05)
(0.01010153569 0.001112034985 -1.235155204e-05)
(0.008270456962 7.247174579e-06 -5.097904637e-06)
(0.008255870015 8.890826492e-06 6.439441418e-06)
(0.008246309725 1.076034909e-05 -4.58888176e-06)
(0.008261601907 7.693383126e-06 2.109618038e-06)
(0.008332480732 1.814580974e-05 3.933491302e-06)
(0.008306508994 -1.19120422e-07 4.421385226e-06)
(0.008337142845 1.492194723e-05 9.105481286e-06)
(0.008304918962 1.936540185e-05 4.669295898e-06)
(0.008342755133 6.549614172e-06 9.079371042e-06)
(0.008357179306 8.617007571e-06 1.793429971e-05)
(0.008360869043 4.634901709e-06 1.724368729e-05)
(0.008373730058 1.702414556e-05 2.352584335e-05)
(0.008359872784 1.839577582e-05 2.630149161e-05)
(0.008413589829 2.522660365e-05 1.836138859e-05)
(0.008361994942 3.642494678e-05 2.792901157e-05)
(0.00840332869 5.772033785e-05 2.430246554e-05)
(0.008395850125 4.618522183e-05 2.003348038e-05)
(0.008467708932 6.667729038e-05 1.543454779e-05)
(0.008530823592 9.745049412e-05 1.756961456e-05)
(0.008596047172 0.0001249054467 3.903658857e-06)
(0.008566620329 0.0001479951326 1.031981906e-06)
(0.008655652254 0.0001809279785 -6.895709138e-07)
(0.008729155488 0.0002164863985 -2.383943849e-06)
(0.008833443467 0.0002762151099 5.117759141e-06)
(0.008858844163 0.0003358313915 -3.359758751e-07)
(0.008947837799 0.0004168764178 6.519217476e-06)
(0.00907093521 0.0005107252355 1.353061213e-05)
(0.009235714816 0.0006245803191 3.590292763e-05)
(0.009476218562 0.0007346094034 2.606967362e-05)
(0.009751578053 0.0008826130555 2.018703243e-05)
(0.008454486746 2.109463717e-05 8.48954573e-07)
(0.008413400409 2.618508906e-05 -8.731314776e-06)
(0.008405969907 2.169850285e-05 -9.913387991e-06)
(0.008354899243 1.55970849e-05 -9.608426956e-06)
(0.008329637936 1.270303335e-05 -6.693777628e-06)
(0.008329121815 1.994774519e-05 -9.535015358e-06)
(0.008314241544 4.092491812e-06 -2.120318699e-05)
(0.008392729989 2.413553649e-06 -1.103576957e-05)
(0.008394054515 1.179401793e-06 -1.018372202e-05)
(0.008420160703 5.840740466e-07 -1.580851351e-06)
(0.008420050022 1.1735112e-05 -7.609024621e-06)
(0.008446201629 1.501188261e-05 -1.576596999e-05)
(0.008440627142 2.126371251e-05 -1.001857261e-05)
(0.008466481394 1.529833866e-05 -3.638483207e-06)
(0.008523860222 2.793542843e-05 -1.72421896e-06)
(0.008479918825 2.681550622e-05 1.088898527e-06)
(0.008507775522 3.483047904e-05 5.452758562e-06)
(0.008425128006 5.458432557e-05 4.064446102e-06)
(0.00843808295 7.107739247e-05 -1.082117674e-05)
(0.008403727644 8.562583199e-05 -1.140416971e-05)
(0.008558148087 0.0001233903642 -2.919519232e-06)
(0.008553293533 0.0001544393181 -9.62531512e-07)
(0.008564760131 0.0001776261903 1.142918547e-05)
(0.008641808973 0.0002225997865 7.972307059e-06)
(0.00870463521 0.0002967702695 2.465101694e-06)
(0.008775735428 0.0003442933565 3.310469526e-06)
(0.008878056786 0.0003791180342 1.801936716e-05)
(0.00903351102 0.0004599093093 1.269262444e-05)
(0.009171175404 0.0005708990797 3.517843087e-05)
(0.009364961766 0.0007020908381 2.483151129e-05)
(0.008293710546 1.146767069e-05 3.813780122e-06)
(0.008314350303 -3.048721353e-06 3.019245837e-07)
(0.008372393717 8.695085403e-06 -6.019846954e-06)
(0.008402273207 9.181147646e-06 -6.073640764e-06)
(0.008481409454 1.108211766e-05 1.686119374e-06)
(0.008463730011 6.213298345e-09 1.314176829e-06)
(0.008475336078 -9.379937569e-07 -4.373711448e-06)
(0.008434299242 1.489513491e-05 -8.623941836e-06)
(0.008370510121 4.540810361e-06 -1.00208125e-05)
(0.008379657856 8.954718108e-06 -1.622541519e-05)
(0.008390681266 4.937699508e-06 -9.393579136e-06)
(0.008394190049 -5.904617168e-06 -8.305331281e-06)
(0.008400531009 -1.554856784e-07 -1.254317474e-05)
(0.008371127665 1.349869638e-05 -5.179405179e-06)
(0.008379481829 1.291877159e-05 -1.199831089e-06)
(0.008389279049 3.581296369e-05 -1.753738939e-05)
(0.008391364704 4.62370556e-05 -4.268374281e-06)
(0.008488114823 5.114963103e-05 -6.119039284e-07)
(0.008490356664 5.588466485e-05 5.288135801e-06)
(0.008454171831 8.33851428e-05 -1.949307298e-06)
(0.008437910852 0.0001018730677 5.191442669e-06)
(0.008486294789 0.0001290885257 1.405315831e-05)
(0.008461013746 0.0001770067318 1.904303516e-05)
(0.008512737244 0.0001874822627 1.728674862e-05)
(0.008488202329 0.0002071520482 2.616727942e-05)
(0.00858240893 0.0002721794701 1.635556194e-05)
(0.008685515234 0.0003110084243 2.095605632e-05)
(0.008762989758 0.0003476097547 1.992735914e-05)
(0.008946942509 0.0004353292099 1.077501358e-05)
(0.009094734801 0.0005292809063 2.521542632e-05)
(0.008370496462 1.34826108e-06 -2.544776748e-06)
(0.008366464958 9.499648649e-06 9.50839387e-06)
(0.00837268393 -7.335259623e-06 1.26686606e-05)
(0.008361564387 -4.212469332e-06 1.21166799e-05)
(0.008393905819 -1.908901953e-06 6.523182644e-07)
(0.008383747358 9.449246367e-06 3.928899473e-06)
(0.008431384801 -1.777053326e-07 8.50919138e-06)
(0.00842295182 -2.159541108e-06 1.747141931e-05)
(0.008484207542 2.042677157e-05 2.351565022e-05)
(0.008409386908 1.452629469e-05 1.464927621e-05)
(0.008385433818 8.710213523e-06 1.388405436e-05)
(0.008336910095 1.883164869e-05 1.671520615e-05)
(0.008349561631 1.004745201e-05 1.15175041e-05)
(0.008317574232 2.483768369e-05 1.542252466e-06)
(0.008346707704 2.324531355e-05 -2.331309599e-07)
(0.008322154021 2.816556228e-05 4.436121461e-06)
(0.008266529268 2.607852629e-05 -1.046995027e-05)
(0.008246498386 4.279418214e-05 -2.017148499e-07)
(0.008238150779 6.296736036e-05 2.996634193e-06)
(0.008312005177 6.568997999e-05 1.177870641e-05)
(0.008349087752 8.391288445e-05 -1.247922952e-06)
(0.008376467236 0.0001051548516 -6.157708106e-06)
(0.008350180416 0.0001195937872 -7.9810391e-06)
(0.008528279819 0.0001504226518 3.715524174e-06)
(0.008615471351 0.0001719426239 -4.454670274e-06)
(0.008736734367 0.0001989469749 -1.112780186e-05)
(0.008790418883 0.0002345284934 -1.180584555e-05)
(0.008867779352 0.0003059267338 -1.765780904e-05)
(0.008924674593 0.0003461711251 -2.887014414e-06)
(0.009041774405 0.0004068737861 -5.991463431e-08)
(0.008318768876 -1.473592896e-05 -2.652121605e-05)
(0.008355692798 -2.338564688e-05 -2.232860446e-05)
(0.008321940316 -5.183807773e-06 -2.290414465e-05)
(0.008315171652 -4.054708121e-06 -1.968740264e-05)
(0.008271561501 -1.980978581e-05 -8.574959903e-06)
(0.008294704718 -2.306092326e-05 4.07720236e-06)
(0.00824231641 -9.005314051e-06 -4.60751061e-07)
(0.008299420528 3.458854856e-06 -1.064700742e-05)
(0.008316472196 -3.433842222e-07 -1.566351027e-05)
(0.008330118367 1.505062833e-05 -2.054521817e-05)
(0.008426012569 1.687468009e-05 -1.519574683e-05)
(0.008392761906 2.012977016e-05 -1.865755119e-05)
(0.008383767312 3.366418297e-05 -1.838701752e-05)
(0.008430303049 3.581800668e-05 -1.266554688e-05)
(0.00841972161 3.898078618e-05 -1.059390429e-05)
(0.008386501975 3.661477396e-05 -9.227465031e-06)
(0.008404226689 3.84509218e-05 1.329274863e-06)
(0.008453664516 3.272953014e-05 7.376401962e-07)
(0.008388515189 4.361055615e-05 -3.948402698e-06)
(0.008414031834 5.446852332e-05 -1.973530662e-05)
(0.008371912247 7.155527048e-05 -1.341850812e-05)
(0.008428931501 7.571610225e-05 -6.656168771e-06)
(0.008525954675 7.0875506e-05 -2.277645091e-06)
(0.008505768601 0.0001010635614 -1.036351642e-05)
(0.008522402048 0.0001240400113 -1.861461105e-05)
(0.00857448735 0.000139911938 -7.720537844e-06)
(0.008671029132 0.0002066699573 -1.57562597e-05)
(0.008743667689 0.000222522195 4.828001242e-06)
(0.008839128824 0.0002681589864 1.19370017e-06)
(0.008909615015 0.0003435088549 -1.290473267e-05)
(0.008343904455 -5.595948918e-06 4.556424433e-06)
(0.008323889235 -8.485861805e-06 4.988830709e-06)
(0.008318584754 -5.108137554e-06 -2.821167604e-06)
(0.008293338125 -6.762182649e-06 -5.148594482e-06)
(0.008344733101 1.809798864e-06 -6.285768006e-06)
(0.008341440146 -3.211444797e-06 -1.314865902e-05)
(0.008323963745 1.820518192e-06 -1.425491575e-05)
(0.008262537688 -6.362184052e-06 -1.436021682e-05)
(0.008277456566 -2.85627532e-06 -3.303378404e-06)
(0.008291612055 -1.535544684e-05 -4.562981338e-06)
(0.008254044459 -1.181842788e-05 -1.313407587e-05)
(0.008307487788 3.202066331e-06 -1.813984018e-05)
(0.008309258943 1.013254986e-05 -1.852874794e-05)
(0.008280330283 1.695972412e-05 -9.733960091e-06)
(0.008292605528 2.284799288e-05 -8.871638896e-06)
(0.008317574238 2.605366191e-05 -1.930758167e-05)
(0.008333571377 3.944925691e-05 -1.350951817e-05)
(0.008372057663 3.837186583e-05 -2.471660018e-05)
(0.008339038431 4.28820863e-05 -1.61371079e-05)
(0.008391330183 4.300712369e-05 -5.266539253e-06)
(0.008462388177 4.963472737e-05 -4.251511576e-06)
(0.008435422195 5.499857433e-05 2.222584258e-06)
(0.008451683994 7.105951438e-05 -1.024821456e-05)
(0.00844333087 8.010406717e-05 -4.971411293e-06)
(0.008434544577 9.177292959e-05 4.001177259e-06)
(0.008502518379 0.0001168342894 -1.985366228e-07)
(0.008529445262 0.0001286584768 2.669084302e-06)
(0.008553834314 0.0001749695277 3.932785057e-06)
(0.00868003615 0.0002017733172 3.761615638e-07)
(0.008752194754 0.0002458790403 8.439915171e-06)
(0.008314676914 -5.022832187e-06 -2.972337205e-07)
(0.008330155796 -1.007177875e-06 -8.992879341e-06)
(0.008376892862 -5.488482048e-06 1.650032005e-06)
(0.008341925758 -6.383247607e-06 -1.646620588e-06)
(0.008380175806 4.03745996e-08 -6.732085771e-06)
(0.008328684658 3.230812903e-06 -3.065541249e-06)
(0.008407313104 -9.628234495e-08 -5.10955507e-06)
(0.008402735686 -2.30381028e-06 4.12460192e-06)
(0.008358986085 -1.947285951e-06 -1.503528857e-06)
(0.008322738129 -1.042732264e-06 -4.479966585e-06)
(0.00830681988 -6.414607998e-06 1.882785986e-06)
(0.008260089515 1.022889654e-05 5.858349712e-06)
(0.0083662603 6.83412056e-07 1.4102741e-05)
(0.008365097408 9.528777304e-06 8.857998215e-06)
(0.008458316513 2.8765189e-05 1.691079809e-05)
(0.00840310458 2.433921935e-05 1.186655399e-05)
(0.008363122227 2.090148524e-05 5.964343028e-06)
(0.008374027164 3.214380527e-05 -5.514226615e-06)
(0.00840906568 2.906453056e-05 -7.553429425e-06)
(0.008422488948 2.670860138e-05 -7.476608157e-06)
(0.008395324747 2.746912461e-05 -1.225684994e-05)
(0.008441014147 5.303474672e-05 -1.680915836e-05)
(0.008434364051 6.724088255e-05 -9.869843851e-06)
(0.008521139119 8.113138955e-05 -1.347367039e-06)
(0.008550875839 7.975871024e-05 1.944450576e-06)
(0.00854311392 8.049192672e-05 2.922342323e-06)
(0.008604534594 9.590370793e-05 8.360001001e-06)
(0.008600673202 0.000127244759 -1.037946963e-07)
(0.008662085585 0.0001589739411 2.627483652e-06)
(0.008666167629 0.0001940511919 8.733326813e-06)
(0.00833684053 -8.413187047e-06 4.446590712e-06)
(0.008327349965 -1.189216693e-05 4.451388045e-06)
(0.008345641298 -6.995830243e-06 -1.361213138e-05)
(0.008324390959 -8.593707188e-06 -9.288091729e-06)
(0.008321292823 -9.930317416e-06 -1.245524429e-05)