/*--------------------------------*- C++ -*----------------------------------*\
  =========                 |
  \\      /  F ield         | OpenFOAM: The Open Source CFD Toolbox
   \\    /   O peration     | Website:  https://openfoam.org
    \\  /    A nd           | Version:  7
     \\/     M anipulation  |
\*---------------------------------------------------------------------------*/
FoamFile
{
    version     2.0;
    format      ascii;
    class       volScalarField;
    location    "0.008";
    object      rhoMMean;
}
// * * * * * * * * * * * * * * * * * * * * * * * * * * * * * * * * * * * * * //

dimensions      [1 -3 0 0 0 0 0];

internalField   nonuniform List<scalar> 
654
(
4.518884087e-06
3.964170297e-06
4.071877354e-06
3.876486143e-06
4.250858115e-06
4.426473043e-06
4.470766194e-06
3.738412268e-06
3.612833336e-06
3.733580546e-06
3.711191396e-06
3.806152064e-06
3.958727859e-06
4.023888873e-06
4.011150053e-06
4.182029408e-06
4.311695185e-06
4.566843749e-06
3.639897557e-06
3.650548868e-06
3.617958657e-06
3.797699378e-06
3.730345514e-06
3.854446644e-06
3.666075501e-06
3.863185684e-06
3.848731185e-06
3.886680835e-06
3.944055147e-06
4.095337735e-06
4.129586803e-06
4.18142297e-06
4.43826349e-06
4.495023378e-06
3.42830983e-06
3.582291082e-06
3.569262823e-06
3.594910328e-06
3.636119547e-06
3.676303473e-06
3.63870122e-06
3.500881763e-06
3.657340367e-06
3.803927935e-06
3.817862873e-06
3.774084203e-06
3.795873221e-06
3.737935341e-06
3.976845284e-06
3.965386652e-06
3.896036867e-06
4.010921757e-06
4.241778773e-06
4.271529498e-06
4.377521262e-06
4.397904351e-06
3.614035135e-06
3.638285117e-06
3.69517533e-06
3.576399776e-06
3.529814951e-06
3.611383607e-06
3.422083124e-06
3.504726443e-06
3.575241905e-06
3.563414378e-06
3.489431645e-06
3.57742369e-06
3.60066325e-06
3.642106108e-06
3.680211979e-06
3.662341506e-06
3.668682027e-06
3.738240248e-06
3.870187342e-06
3.921827588e-06
3.971230399e-06
3.881800332e-06
4.113849319e-06
4.194931171e-06
4.323018166e-06
4.522277068e-06
4.442383247e-06
4.503533785e-06
3.42310465e-06
3.504706069e-06
3.457426863e-06
3.547099003e-06
3.618707798e-06
3.556828188e-06
3.507154298e-06
3.619344379e-06
3.593061516e-06
3.586143022e-06
3.558125372e-06
3.631163249e-06
3.644050922e-06
3.601146619e-06
3.63748035e-06
3.690721808e-06
3.697678263e-06
3.715725473e-06
3.700712537e-06
3.762778836e-06
3.816461421e-06
3.85826449e-06
3.885674192e-06
3.972255277e-06
4.04196967e-06
4.062572621e-06
4.205579673e-06
4.445038353e-06
4.344743395e-06
4.728256235e-06
3.553257681e-06
3.529938944e-06
3.514517681e-06
3.616765728e-06
3.624933517e-06
3.560647138e-06
3.585624966e-06
3.629236704e-06
3.55836458e-06
3.603631486e-06
3.653534817e-06
3.55805796e-06
3.697335226e-06
3.676036226e-06
3.671746e-06
3.740601929e-06
3.64149212e-06
3.768118697e-06
3.856034723e-06
3.913621107e-06
3.996093395e-06
4.105088605e-06
4.021425814e-06
4.011624813e-06
4.017429599e-06
4.217935947e-06
4.210158663e-06
4.247732506e-06
4.319509508e-06
4.614028491e-06
3.639275176e-06
3.580658041e-06
3.586627055e-06
3.654453863e-06
3.668053113e-06
3.624310644e-06
3.602536599e-06
3.711105496e-06
3.627028912e-06
3.609957373e-06
3.783828813e-06
3.730215991e-06
3.925294608e-06
3.806491576e-06
3.703784186e-06
3.86568682e-06
3.772451057e-06
3.785601108e-06
3.772609951e-06
3.947436659e-06
4.006722514e-06
3.931599311e-06
3.937975226e-06
3.934904588e-06
4.17773825e-06
4.236611539e-06
4.136622342e-06
4.447103446e-06
4.376555829e-06
4.559893825e-06
3.489920662e-06
3.77904226e-06
3.701636336e-06
3.71989355e-06
3.63193457e-06
3.602375041e-06
3.713759523e-06
3.774559628e-06
3.683466945e-06
3.683354708e-06
3.620280752e-06
3.791080033e-06
3.81837797e-06
3.690746301e-06
3.674911618e-06
3.729986709e-06
3.822691605e-06
3.918612015e-06
3.984859144e-06
3.972251231e-06
3.939632263e-06
3.947403745e-06
3.957484946e-06
4.06495107e-06
4.071196197e-06
4.206627769e-06
4.406509227e-06
4.49495594e-06
4.466686036e-06
4.736737154e-06
3.653017317e-06
3.850260421e-06
3.830465278e-06
3.848894306e-06
3.729999425e-06
3.611455414e-06
3.789450599e-06
3.798369452e-06
3.824152546e-06
3.808414088e-06
3.643124187e-06
3.791490766e-06
3.784576618e-06
3.66625784e-06
3.875634628e-06
3.839585248e-06
3.784899656e-06
3.857484184e-06
3.928579096e-06
4.110081716e-06
4.062648794e-06
3.976642615e-06
4.054154507e-06
4.154693637e-06
4.288827175e-06
4.330720356e-06
4.451323937e-06
4.471387377e-06
4.509060791e-06
4.5544681e-06
3.841286913e-06
3.879469887e-06
3.77210026e-06
3.662943127e-06
3.719224613e-06
3.723750858e-06
3.778964516e-06
3.881216735e-06
3.744576781e-06
3.931255823e-06
3.843274501e-06
3.808544166e-06
3.753064056e-06
3.795692868e-06
3.727628691e-06
3.747585755e-06
3.827159738e-06
3.854883346e-06
4.032945231e-06
4.041544771e-06
3.962191302e-06
4.023816552e-06
4.130409499e-06
4.070045276e-06
4.279572028e-06
4.189767168e-06
4.446049222e-06
4.478116975e-06
4.457888505e-06
4.746678684e-06
3.870575662e-06
3.785475278e-06
3.716863462e-06
3.644894156e-06
3.939081491e-06
3.958971655e-06
3.772209771e-06
3.823101162e-06
3.796683859e-06
3.891447127e-06
3.919200351e-06
3.948058963e-06
3.807583676e-06
3.902180488e-06
3.912702375e-06
4.009418124e-06
3.773477958e-06
3.830689018e-06
3.909168317e-06
4.112251353e-06
4.11712197e-06
4.276789547e-06
4.031451704e-06
4.150385946e-06
4.210628415e-06
4.292278838e-06
4.543249498e-06
4.543511056e-06
4.544272217e-06
4.580872686e-06
3.814891269e-06
3.684304919e-06
3.776027996e-06
3.894465272e-06
3.869482698e-06
3.858325042e-06
3.930976172e-06
3.956679916e-06
3.988584146e-06
4.003020004e-06
3.916528572e-06
3.931957124e-06
3.834394999e-06
3.894788132e-06
3.927430196e-06
3.981586221e-06
3.956509342e-06
3.988915079e-06
3.922568432e-06
4.059163955e-06
4.172213328e-06
4.079618908e-06
4.113424724e-06
4.182514662e-06
4.127399538e-06
4.285428972e-06
4.537126838e-06
4.497466929e-06
4.590028452e-06
4.549663167e-06
3.894658681e-06
3.860519542e-06
3.788711519e-06
3.789253593e-06
4.050818218e-06
3.910226751e-06
3.872831157e-06
3.962023442e-06
3.935221187e-06
3.992822333e-06
3.752209294e-06
3.819869632e-06
3.867369293e-06
4.033135614e-06
3.790204547e-06
3.96545613e-06
3.921876816e-06
4.030269653e-06
4.065080541e-06
4.04140999e-06
4.188669825e-06
4.134125726e-06
4.275658655e-06
4.234985229e-06
4.107426796e-06
4.336100499e-06
4.644556765e-06
4.601093655e-06
4.627624663e-06
4.608769461e-06
3.944384855e-06
3.935995317e-06
3.948848784e-06
3.941555756e-06
3.948282643e-06
4.016956078e-06
4.017484792e-06
4.060328598e-06
3.961853991e-06
3.99487761e-06
3.868727773e-06
3.935948445e-06
3.92451444e-06
3.94306842e-06
4.080045552e-06
4.037375042e-06
4.098393319e-06
4.120561307e-06
4.201132891e-06
4.157243024e-06
4.103042783e-06
4.231094037e-06
4.280587216e-06
4.180326362e-06
4.191245725e-06
4.425008913e-06
4.5985284e-06
4.666236254e-06
4.69601598e-06
4.587944914e-06
3.942180836e-06
3.969488782e-06
3.989934996e-06
3.970995108e-06
3.978793671e-06
4.077674522e-06
4.023593548e-06
4.002195378e-06
3.917470968e-06
3.966945076e-06
3.879520498e-06
4.066185929e-06
4.131759918e-06
3.83932009e-06
4.189876903e-06
4.245525866e-06
4.204997434e-06
4.062487337e-06
4.1547026e-06
4.078714387e-06
4.193336709e-06
4.253625218e-06
4.397457437e-06
4.26851135e-06
4.334655322e-06
4.340864626e-06
4.473661284e-06
4.5634201e-06
4.781205577e-06
4.626693624e-06
4.021329634e-06
3.940346662e-06
4.070110551e-06
4.12049579e-06
3.942391925e-06
4.057114732e-06
3.964894827e-06
4.037278409e-06
4.070117833e-06
3.918439103e-06
4.133815275e-06
4.075643751e-06
4.15405245e-06
3.999745393e-06
4.071820059e-06
4.23506997e-06
4.170477335e-06
4.258859965e-06
4.281674749e-06
4.327573959e-06
4.293480757e-06
4.337753025e-06
4.544578113e-06
4.469693343e-06
4.30873615e-06
4.495885573e-06
4.477289802e-06
4.559335893e-06
4.588818573e-06
4.56238404e-06
4.150502667e-06
4.056199753e-06
4.114540847e-06
4.018730645e-06
3.924088018e-06
4.082111345e-06
3.943118832e-06
4.16424792e-06
4.143434962e-06
4.049577461e-06
4.206824237e-06
4.111712532e-06
4.260371928e-06
4.122429805e-06
4.095093052e-06
4.106400097e-06
4.131540885e-06
4.079410884e-06
4.316896908e-06
4.430675359e-06
4.35544682e-06
4.320880525e-06
4.421321955e-06
4.396726918e-06
4.391304059e-06
4.489162947e-06
4.605419161e-06
4.505304621e-06
4.705930944e-06
4.679070831e-06
4.16484152e-06
4.161076947e-06
4.162240523e-06
4.031154744e-06
3.955392724e-06
4.031542836e-06
4.065091656e-06
4.186664838e-06
4.160023582e-06
4.13301854e-06
4.077529164e-06
4.107174106e-06
4.217978058e-06
4.267590918e-06
4.179220173e-06
4.223469676e-06
4.16350944e-06
4.185323261e-06
4.222510235e-06
4.410228043e-06
4.460836565e-06
4.388252799e-06
4.376642366e-06
4.482704449e-06
4.757107516e-06
4.607328804e-06
4.467542031e-06
4.483489267e-06
4.513330373e-06
4.645298706e-06
4.219447998e-06
4.179884692e-06
4.18106019e-06
4.146527773e-06
4.167444183e-06
4.10809301e-06
4.112786724e-06
4.105455064e-06
4.03618523e-06
4.06194969e-06
4.254382497e-06
4.21032962e-06
4.344263549e-06
4.27707379e-06
4.102404291e-06
4.25061978e-06
4.254044746e-06
4.140410131e-06
4.330021404e-06
4.424384219e-06
4.493743457e-06
4.327455675e-06
4.356753676e-06
4.49186981e-06
4.409807381e-06
4.647577828e-06
4.552652901e-06
4.734491596e-06
4.638650825e-06
4.666125958e-06
4.410471884e-06
4.250560939e-06
4.09612972e-06
4.192963713e-06
4.263469767e-06
4.091949551e-06
4.156877079e-06
4.254893631e-06
4.16377618e-06
4.103700509e-06
4.121342675e-06
4.2845718e-06
4.204394171e-06
4.225762724e-06
4.233052332e-06
4.501063256e-06
4.568215444e-06
4.397957102e-06
4.441754866e-06
4.529912572e-06
4.502019801e-06
4.248318756e-06
4.477836138e-06
4.409884646e-06
4.343884917e-06
4.502734477e-06
4.541123936e-06
4.552652274e-06
4.545897556e-06
4.669844763e-06
4.421290185e-06
4.365899921e-06
4.339200644e-06
4.241795298e-06
4.409701487e-06
4.329014883e-06
4.19454963e-06
4.357373993e-06
4.293700779e-06
4.218484188e-06
4.2142974e-06
4.296203317e-06
4.227515516e-06
4.378060947e-06
4.256691844e-06
4.423845797e-06
4.380225369e-06
4.390618311e-06
4.474079508e-06
4.493407997e-06
4.438589957e-06
4.292285907e-06
4.356720472e-06
4.522920169e-06
4.426763711e-06
4.561319325e-06
4.557278343e-06
4.521650661e-06
4.525794305e-06
4.497781213e-06
4.375166955e-06
4.335814722e-06
4.400991283e-06
4.277799334e-06
4.335860372e-06
4.449166252e-06
4.36191018e-06
4.377254423e-06
4.39398465e-06
4.362098442e-06
4.437785997e-06
4.314075012e-06
4.323639857e-06
4.494902484e-06
4.349210362e-06
4.355577998e-06
4.439457705e-06
4.365773433e-06
4.460104794e-06
4.444312022e-06
4.487741524e-06
4.544611103e-06
4.397623201e-06
4.457926536e-06
4.569672237e-06
4.637616015e-06
4.580705781e-06
4.627141843e-06
4.60426999e-06
4.602419685e-06
4.495021728e-06
4.355887304e-06
4.319540514e-06
4.227438365e-06
4.397946539e-06
4.314772133e-06
4.421078895e-06
4.206196176e-06
4.402433208e-06
4.459453249e-06
4.322651716e-06
4.362255928e-06
4.324808452e-06
4.331442997e-06
4.336858463e-06
4.371836668e-06
4.448410247e-06
4.37454059e-06
4.434895947e-06
4.435540397e-06
4.333703448e-06
4.441245109e-06
4.496883571e-06
4.675881096e-06
4.597900197e-06
4.61069743e-06
4.566220666e-06
4.455637566e-06
4.610218289e-06
4.526437239e-06
)
;

boundaryField
{
    flow
    {
        type            calculated;
        value           nonuniform List<scalar> 
55
(
4.518884087e-06
4.470766194e-06
4.566843749e-06
4.495023378e-06
4.397904351e-06
4.503533785e-06
4.728256235e-06
4.614028491e-06
4.559893825e-06
4.736737154e-06
4.5544681e-06
4.746678684e-06
4.580872686e-06
4.549663167e-06
4.608769461e-06
4.587944914e-06
4.626693624e-06
4.56238404e-06
4.679070831e-06
4.645298706e-06
4.666125958e-06
4.669844763e-06
4.497781213e-06
4.602419685e-06
4.526437239e-06
4.495021728e-06
4.355887304e-06
4.319540514e-06
4.227438365e-06
4.397946539e-06
4.314772133e-06
4.421078895e-06
4.206196176e-06
4.402433208e-06
4.459453249e-06
4.322651716e-06
4.362255928e-06
4.324808452e-06
4.331442997e-06
4.336858463e-06
4.371836668e-06
4.448410247e-06
4.37454059e-06
4.434895947e-06
4.435540397e-06
4.333703448e-06
4.441245109e-06
4.496883571e-06
4.675881096e-06
4.597900197e-06
4.61069743e-06
4.566220666e-06
4.455637566e-06
4.610218289e-06
4.526437239e-06
)
;
    }
    obstacle
    {
        type            calculated;
        value           nonuniform 0();
    }
    frontAndBack
    {
        type            empty;
    }
    procBoundary3to1
    {
        type            processor;
        value           nonuniform List<scalar> 
36
(
4.518012372e-06
3.885717103e-06
3.868303373e-06
4.038441067e-06
4.134712941e-06
4.336558561e-06
4.336558561e-06
3.750895578e-06
3.632700474e-06
3.690632378e-06
3.804819028e-06
3.831898959e-06
3.831898959e-06
3.404043706e-06
3.574522623e-06
3.687764909e-06
3.72469079e-06
3.787450424e-06
3.787450424e-06
3.466176239e-06
3.599712236e-06
3.600078503e-06
3.626658676e-06
3.545583183e-06
3.6818981e-06
3.6818981e-06
3.510920706e-06
3.503915797e-06
3.461328938e-06
3.55252413e-06
3.499820295e-06
3.397970429e-06
3.397970429e-06
3.471601779e-06
3.51157079e-06
3.51157079e-06
)
;
    }
    procBoundary3to2
    {
        type            processor;
        value           nonuniform List<scalar> 
19
(
3.556642748e-06
3.537601496e-06
3.564092174e-06
3.581418168e-06
3.777281285e-06
3.80689225e-06
3.761378498e-06
3.991243467e-06
4.035133881e-06
3.966487953e-06
4.029276417e-06
4.151535351e-06
4.13764859e-06
4.166473593e-06
4.192815116e-06
4.301085537e-06
4.317842152e-06
4.385717181e-06
4.415006836e-06
)
;
    }
}


// ************************************************************************* //
