/*--------------------------------*- C++ -*----------------------------------*\
  =========                 |
  \\      /  F ield         | OpenFOAM: The Open Source CFD Toolbox
   \\    /   O peration     | Website:  https://openfoam.org
    \\  /    A nd           | Version:  7
     \\/     M anipulation  |
\*---------------------------------------------------------------------------*/
FoamFile
{
    version     2.0;
    format      ascii;
    class       volVectorField;
    location    "0.008";
    object      UMean;
}
// * * * * * * * * * * * * * * * * * * * * * * * * * * * * * * * * * * * * * //

dimensions      [0 1 -1 0 0 0 0];

internalField   nonuniform List<vector> 
654
(
(1305.611099 407.1282036 -1.453974816)
(1350.729552 436.846514 -1.940199673)
(1341.798058 433.3589461 -0.6255813456)
(1341.169282 430.8990372 -0.03176789045)
(1338.841738 426.8093585 -0.4848680842)
(1340.251323 423.9972644 -0.805111847)
(1337.944021 417.9117885 2.494605695)
(1433.762333 376.9430274 -0.5773240842)
(1421.220655 395.9122173 -4.762353713)
(1408.501744 409.6440438 -3.603539313)
(1395.239735 416.5917305 -0.4413280869)
(1383.28536 420.6022545 2.534694803)
(1375.243082 428.4005705 4.579614472)
(1368.830708 435.8550963 -0.1768204868)
(1363.001627 433.4153811 0.4826172719)
(1354.234941 430.8422333 0.1787246251)
(1358.611084 428.1832059 0.06559662727)
(1353.183785 425.5545748 -1.240949581)
(1549.438048 233.0877837 -1.27182016)
(1535.096752 255.1780948 -0.5936015213)
(1514.946965 284.885509 -2.056609806)
(1497.183856 307.8457298 0.869237818)
(1480.501727 327.6390911 -2.396306658)
(1464.606602 351.2250671 -1.815181886)
(1444.665723 371.4676078 2.099489525)
(1428.403727 383.2092856 0.4924116862)
(1421.885502 398.5191211 -1.438945891)
(1410.158105 409.3687211 -2.491630134)
(1401.38874 421.1418381 -1.81730934)
(1391.137792 427.4846915 -0.9881152984)
(1382.414015 434.7592179 -3.101652665)
(1375.57926 434.3086105 -5.590288592)
(1371.403217 429.6722232 -1.592963018)
(1371.167123 430.9751388 -3.897717834)
(1665.528322 76.23756696 -1.511326416)
(1657.940291 96.42355919 -2.361182148)
(1647.967791 112.3885421 3.867369844)
(1634.185674 130.0616241 2.788562589)
(1618.516499 150.137982 4.32654033)
(1605.536108 169.9933852 0.5571724435)
(1581.938868 195.6989247 -3.459300706)
(1568.426452 219.570211 -3.358982092)
(1551.713022 243.3041488 -3.552949607)
(1530.575006 272.3294968 -4.175466848)
(1513.326366 301.9833773 -0.948416996)
(1495.293587 317.2635071 -2.896409208)
(1475.698392 339.0215144 -0.6226672437)
(1461.488444 359.8570384 0.594932931)
(1448.083088 376.3252336 0.9079881544)
(1434.90557 391.4449393 0.8444424964)
(1419.511646 403.1877794 4.715126358)
(1413.261233 416.9382279 4.762641643)
(1403.98696 423.3742083 0.7767035993)
(1397.338012 431.8891987 1.727021028)
(1391.501496 436.1400562 -2.880156767)
(1391.870001 433.0309947 -3.268796532)
(1715.394316 24.46697107 -4.188235271)
(1708.739284 26.14017499 -2.294950106)
(1704.996423 29.11509385 -0.1701847784)
(1700.954631 35.63382632 -0.02785581254)
(1696.490786 41.79193661 -1.065597128)
(1689.58438 50.79510332 0.4841023027)
(1683.635362 64.98143211 -0.769091633)
(1671.83724 76.60878695 0.3500933038)
(1663.641186 90.16669546 3.270295062)
(1648.696925 105.5779171 0.2436873016)
(1644.857008 119.6903119 1.697489657)
(1632.141533 134.5746713 2.687001523)
(1613.053125 158.1653365 5.735003206)
(1595.159914 180.6425635 8.909485419)
(1581.794813 204.0532003 10.03751518)
(1561.344611 231.8493947 9.672868115)
(1542.283029 254.66239 7.046220573)
(1530.244568 281.4052835 4.616024605)
(1512.829859 304.2917364 3.159101132)
(1492.904279 327.6561185 -3.973029167)
(1479.702704 350.9408948 -0.1245718329)
(1457.951208 370.7684969 -0.9776247355)
(1447.006206 385.8428527 -5.712346484)
(1434.867796 398.5947209 -1.819259346)
(1424.372477 411.805677 0.5231300925)
(1417.040429 422.8181015 -3.170287221)
(1405.871042 428.2277436 0.5624311864)
(1401.856491 431.3306934 0.6688429331)
(1724.124976 8.314408947 -0.4359584445)
(1724.279282 8.866915324 -1.253492968)
(1724.704908 8.751113091 -0.2036897631)
(1724.063858 15.53113856 -0.7370779577)
(1720.097456 23.93834468 1.142965898)
(1712.379026 32.97109296 1.496302305)
(1708.552619 38.77786627 1.330740305)
(1702.360616 45.09030688 1.818296982)
(1698.236337 52.04553349 2.416285108)
(1692.162431 60.68760477 -0.4128679965)
(1678.378434 71.90181769 -0.9701140233)
(1672.568972 82.07462763 2.797849356)
(1661.827701 95.32495872 3.563267085)
(1650.816972 112.7837718 4.933682817)
(1638.511776 128.3744907 3.711606124)
(1621.924082 146.5744082 2.982232548)
(1610.333965 166.9096804 3.355444284)
(1593.185516 191.5618276 2.794914702)
(1579.170766 218.4983065 2.244795643)
(1554.633589 244.059044 1.594010346)
(1540.172053 266.3989477 3.300612314)
(1521.608759 293.1906116 5.619100194)
(1499.403568 321.159972 1.095918908)
(1484.579605 342.9432237 -1.181439264)
(1474.667169 365.8453442 -2.534635602)
(1453.528407 379.4585984 0.9721085695)
(1444.227348 390.8464148 1.607947979)
(1432.301772 404.7309106 2.273288096)
(1424.853102 418.9833654 3.105779976)
(1419.610874 423.6515891 5.547508806)
(1731.573699 8.539735991 -0.1788025124)
(1729.621929 8.694674646 0.01887059661)
(1726.074774 13.85163969 0.8027689985)
(1722.644952 17.90246903 -0.784802756)
(1720.743899 19.36740336 1.830412716)
(1718.177497 24.97378988 2.255230988)
(1714.182845 30.03957707 1.45739762)
(1707.975162 33.35481027 -0.3522778982)
(1706.385738 34.88480184 -0.3239914972)
(1698.946468 43.89846381 0.9500967758)
(1692.110189 54.03702481 1.852675813)
(1683.783421 67.51466653 -2.347340537)
(1674.414734 76.64166298 -0.537730087)
(1670.828771 83.89295497 -1.135278592)
(1663.973626 100.2778869 0.583934414)
(1646.339643 121.1682404 -2.690125774)
(1636.928874 138.9571259 -2.533974083)
(1620.887099 157.2818721 -2.448300111)
(1605.677812 176.4596209 0.6280572783)
(1593.594266 203.9869297 1.335259696)
(1568.590616 232.3052219 1.810165119)
(1550.360717 258.2381045 -0.1793827235)
(1535.43825 278.0946176 2.912631329)
(1516.155796 309.2031376 -0.494127914)
(1502.888052 331.9631199 -2.136008434)
(1479.677931 358.794385 -2.884481195)
(1470.025845 374.720711 -1.563374965)
(1458.353277 388.6173564 -0.508949396)
(1449.364655 402.3861933 -2.12571213)
(1441.173872 413.3589365 -2.676622961)
(1727.40824 6.519705521 3.082294436)
(1725.134958 8.32946045 2.363820028)
(1722.894758 10.89092485 4.426701089)
(1721.302018 12.30346903 3.272231865)
(1720.584846 15.94845321 3.313138162)
(1716.26888 15.81926853 1.343742464)
(1713.226735 20.41588331 2.871440537)
(1712.138247 26.61061448 4.502494097)
(1711.150243 30.2751634 1.867431891)
(1710.992883 34.82601606 0.8125298666)
(1704.513341 39.93859996 0.789066512)
(1701.508394 44.92786141 0.468275632)
(1696.363348 57.68393453 -1.737135045)
(1682.960512 72.9289981 -5.72396617)
(1678.939244 80.8198796 -4.821016357)
(1668.463225 92.49816068 -3.762945322)
(1654.613345 110.1194872 -2.218225277)
(1642.860507 129.0562494 -1.623147375)
(1632.16017 148.2715287 -2.135998837)
(1617.859497 172.4600924 -1.392398108)
(1605.742034 196.8183046 -2.138685473)
(1583.475447 219.9673003 -0.6347338609)
(1569.022486 248.3531439 2.661890977)
(1550.895066 273.0455337 3.078532066)
(1529.305118 298.4508792 0.094020812)
(1510.913667 320.200475 -0.05503756881)
(1491.054265 346.7493465 -0.4402793748)
(1482.687265 362.0638422 -1.525844806)
(1469.221332 383.2677289 0.4915334906)
(1456.437038 397.749184 -0.8494922473)
(1729.119104 5.883727198 1.384313787)
(1729.035073 5.215294681 -0.005557577237)
(1729.01278 5.994733415 2.062720125)
(1728.914026 8.251703452 -1.122053253)
(1727.985314 11.32545987 -1.682452001)
(1724.872623 14.54256686 0.1022634958)
(1722.358877 14.25401792 0.9822686896)
(1720.907334 17.53957742 0.660418649)
(1719.607734 20.93946421 -2.838623459)
(1713.543119 25.79839624 -3.561319457)
(1706.487155 31.27931585 -5.359872684)
(1705.421114 35.52813438 -4.619067684)
(1698.594677 43.72861304 -1.26810906)
(1696.816573 57.11426746 -0.9002773406)
(1688.404289 68.48676534 -0.1003920182)
(1684.218302 73.16806344 -2.151631452)
(1674.809117 88.9105489 -1.891602926)
(1662.015208 106.1522099 -2.747864164)
(1651.563217 120.8449803 -0.103022855)
(1636.934703 138.0068285 -3.350788012)
(1623.59129 161.8077019 -2.295605571)
(1608.38994 188.6478201 -1.425523357)
(1592.022928 208.5449581 -3.012569582)
(1573.50128 235.3580107 0.1622771688)
(1557.275242 258.379523 -0.920360902)
(1546.345442 283.4610533 2.905284808)
(1521.578483 312.3287793 2.039686934)
(1504.913096 339.0089671 1.892309311)
(1495.189746 353.7649013 -1.671760967)
(1481.676315 373.3639019 -0.4212474369)
(1734.099725 3.477731506 -1.230125759)
(1732.953868 5.268686172 0.4587838138)
(1732.476369 6.459331387 -1.293921424)
(1729.324013 3.65765498 -0.624277031)
(1727.997048 5.546743693 -2.219097915)
(1728.517455 7.327935749 -3.425961346)
(1727.27666 10.73539046 -4.385706383)
(1723.873556 14.8022256 -4.714842533)
(1720.59935 14.93035477 -0.6121378214)
(1719.552777 19.0798482 -0.8041784268)
(1716.583458 25.14062593 1.001398872)
(1712.700659 31.68229993 1.461827662)
(1709.287871 35.4633621 -1.053876331)
(1703.499307 39.50922428 0.3555715822)
(1696.492455 49.75985269 -2.243844656)
(1689.431762 63.38999815 -0.02225896217)
(1685.533736 73.50556092 -0.5444240993)
(1677.433477 86.45123958 -1.64164415)
(1668.430622 100.0385183 -3.650845342)
(1658.503719 114.1740345 -4.27464687)
(1647.662875 128.8843588 -7.485676905)
(1632.824544 151.3111553 -4.277265235)
(1616.284442 174.2015421 -5.219077229)
(1606.170727 198.0253212 -4.589245156)
(1587.998027 223.2858388 -1.504794018)
(1579.387533 243.4361136 -2.386914832)
(1554.843125 272.862256 1.067446172)
(1534.60035 304.5445199 4.501734119)
(1518.466951 325.5534511 7.046200086)
(1499.404721 349.8608013 1.20794943)
(1735.300983 1.360730242 0.7730143463)
(1735.03253 1.703675911 1.939271981)
(1734.91235 2.093142428 0.4567720583)
(1734.858911 4.035059255 0.6746299735)
(1732.014467 7.146475093 2.182816025)
(1730.84485 5.98092787 3.065462162)
(1726.879232 9.877636307 5.234870447)
(1727.213804 10.30122987 3.733152648)
(1724.90328 15.18898843 3.093462367)
(1725.691282 16.63629043 1.221393826)
(1720.750957 22.07638635 -1.341631789)
(1718.032957 26.2871272 0.2770527879)
(1715.534135 29.95043785 -0.5186563658)
(1709.136256 34.64464264 -1.381591103)
(1710.417202 41.82836106 0.8309532606)
(1703.588746 50.23605306 -2.123304955)
(1697.747393 57.96612762 -0.1965349434)
(1688.513708 67.92189083 -2.487026022)
(1677.466642 81.62640888 -2.967377426)
(1667.977988 92.79009858 -1.424857821)
(1660.79063 103.0105736 -3.773487499)
(1652.39717 122.389163 -4.701441085)
(1638.435483 140.635228 -3.060777792)
(1621.364753 162.3789612 0.3956319008)
(1609.131506 188.5122412 -0.8296528106)
(1593.923906 211.2678329 -2.763637071)
(1585.840985 235.4757557 -3.879092536)
(1562.029811 260.5456311 0.1627891685)
(1540.268368 292.6624205 2.705717205)
(1524.570534 313.2970542 5.299536786)
(1733.487064 0.7831869407 -3.29728281)
(1733.698806 -0.9430724429 -4.842870125)
(1732.65283 -1.909365151 -1.815898049)
(1732.925993 0.09919848902 0.2806334327)
(1732.51906 0.8604674722 -0.7859183394)
(1732.336965 1.757218179 0.5163136442)
(1729.811046 5.191357346 -2.204135218)
(1728.732624 9.017434636 -3.698722346)
(1727.485348 9.700718419 -1.950378658)
(1724.664066 13.8711024 0.2716831312)
(1724.571027 15.79727023 -2.532502719)
(1722.109281 17.53548907 -4.495654734)
(1721.753109 25.00347136 -4.43175624)
(1719.797962 32.04200301 -3.205305708)
(1712.725261 32.53413854 -1.460969201)
(1706.528308 38.707025 -1.213340863)
(1700.849449 42.63380342 -2.580852788)
(1698.107769 51.56894248 -2.460131827)
(1692.507483 61.57655359 -1.312664702)
(1683.938634 76.56061999 -1.860939686)
(1674.358726 91.15254685 0.287394854)
(1670.966854 95.70370299 -1.378579031)
(1657.929156 111.9990866 -3.115566109)
(1652.724592 127.1999676 -4.840805095)
(1629.665763 152.7320532 -5.852445351)
(1612.619554 179.0516827 -4.28744441)
(1607.357547 194.7064186 -6.383015815)
(1591.212865 224.2698865 -4.640412091)
(1570.905606 252.6816672 -3.733999564)
(1548.298861 279.173746 -3.413205541)
(1735.870321 -0.9903472184 0.8142910343)
(1736.230623 4.182114693 3.21217113)
(1734.996491 5.814464822 0.3317708678)
(1732.985765 1.326644516 -0.763157228)
(1735.617977 2.315457751 -1.518127532)
(1733.604366 3.793964565 -2.423480807)
(1733.293344 5.134011634 -1.117461665)
(1730.033947 7.521148101 -3.526021211)
(1729.15751 10.88604719 -5.613278496)
(1729.408921 10.90219293 -5.384379748)
(1728.168543 13.29910977 -2.086404597)
(1727.487747 18.04709647 0.6179929258)
(1723.8323 20.03827253 0.7554344968)
(1722.162629 23.38955511 1.724139585)
(1717.743743 29.38289757 0.03897124074)
(1716.049973 30.56905344 -3.155454704)
(1710.734083 40.34995902 -2.887955447)
(1710.161604 45.25196765 -4.00164798)
(1707.280987 48.87569046 -0.9232906296)
(1695.955135 55.78494967 -0.2173608822)
(1691.232371 67.12222843 1.110590862)
(1681.460005 79.85751787 -1.374061443)
(1674.392729 90.43493827 -4.972596393)
(1663.923452 105.6574558 -1.691867659)
(1658.613269 120.3350257 -0.7984145181)
(1640.570896 142.9171111 -0.6088249581)
(1624.87025 169.1069038 -1.267430283)
(1612.342133 189.7114212 -4.90440717)
(1598.368079 211.5417417 -3.46827217)
(1579.810549 241.029731 -3.389668458)
(1734.459497 -0.9620101217 2.508486249)
(1734.2622 -2.601371639 2.093508666)
(1735.349356 -1.689837432 -0.4260665498)
(1734.687457 0.5577930339 0.4491593847)
(1733.366402 3.614971104 -2.559238388)
(1733.070625 4.581123379 -2.792495068)
(1734.173101 4.182683669 -5.231841832)
(1734.073842 5.573822566 -1.718033951)
(1733.458365 4.392092021 1.39306931)
(1729.345148 8.120280236 0.6256179312)
(1726.435581 14.26942478 -0.5739525158)
(1725.860296 14.43880613 -2.761381169)
(1726.136672 17.84449691 -4.96917082)
(1723.915745 17.35240867 -3.999549269)
(1725.39462 20.81224236 -4.697788521)
(1722.566526 25.17853035 -2.648363779)
(1717.22285 31.32323988 -0.09876441774)
(1714.447424 34.58881131 0.4189686617)
(1712.273049 39.02236643 -3.11981235)
(1705.087765 47.26465287 -1.044280347)
(1701.716652 49.32537872 -0.6172313237)
(1691.772158 61.70340501 3.24944343)
(1685.696293 73.39742965 1.316045934)
(1677.156921 87.53635403 2.381364396)
(1665.423563 102.2704217 3.453232223)
(1659.674309 116.1306057 -0.4490803519)
(1643.22117 138.9413858 -1.745998371)
(1634.534092 156.4040218 -7.458567813)
(1619.714424 177.3446302 -5.507336893)
(1606.846735 201.4797884 -3.015582666)
(1735.836096 0.4196918287 1.249488479)
(1735.465223 1.565580387 2.383598507)
(1735.762371 -0.1967595564 3.153313936)
(1735.934178 3.4860114 2.841239577)
(1736.909334 1.735419534 5.166763024)
(1736.57041 3.600598629 4.205832668)
(1735.068206 3.891651212 5.86838413)
(1734.616066 2.47544078 4.390015278)
(1735.789148 5.749669053 3.459291324)
(1735.584989 6.965043414 4.472353694)
(1735.227706 4.527464365 4.067788312)
(1735.060778 5.568073187 3.497349644)
(1730.807657 7.520430384 1.959099951)
(1728.429118 9.782795916 2.434716929)
(1727.157098 11.04676542 1.264756325)
(1726.786058 12.5934147 1.159012335)
(1724.556696 18.57284702 0.8246447491)
(1720.011571 23.2440089 3.130104696)
(1718.138312 26.1590024 4.164978229)
(1711.119523 35.32354983 4.886114552)
(1711.175599 41.93746969 5.683117782)
(1705.888197 53.33939067 5.703571338)
(1698.781431 61.3066004 4.623115124)
(1691.839942 69.55862916 0.8116159465)
(1685.157244 82.25141209 0.3674313357)
(1680.370562 90.45460307 3.08266481)
(1667.822551 109.4238053 2.812614265)
(1653.030577 135.0693141 -1.691480308)
(1637.592751 154.3093547 -3.784521939)
(1623.356554 178.7084002 -1.98494304)
(1737.610057 1.522620031 -1.071061782)
(1736.304775 1.869843453 1.354288871)
(1736.019999 2.265277663 -0.9660552143)
(1736.167356 1.616756749 0.4433341151)
(1736.250464 3.781067319 0.8196269893)
(1732.963809 -0.02485176147 0.9224212709)
(1732.192952 3.10030574 1.891829228)
(1732.245377 4.039248063 0.9739247629)
(1731.363647 1.359234893 1.884232811)
(1730.273271 1.784068204 3.713123565)
(1730.106674 0.9590957995 3.5682198)
(1726.999631 3.511062918 4.851974269)
(1728.371312 3.803255385 5.437731498)
(1726.210443 5.175724933 3.767193477)
(1724.451694 7.511731544 5.759658031)
(1724.919467 11.84803523 4.988475096)
(1724.128905 9.484361296 4.113973223)
(1721.773648 13.55776425 3.138369287)
(1718.746022 19.63381933 3.539834673)
(1717.062534 24.94989365 0.7797568155)
(1712.988118 29.59322276 0.2063559111)
(1711.025377 35.76534195 -0.1363124694)
(1704.443354 42.27084781 -0.4654857225)
(1697.7487 53.08732044 0.9836106341)
(1693.379133 64.19459018 -0.0642222084)
(1688.844741 78.68264511 1.230458844)
(1684.721472 94.85568474 2.5130058)
(1670.260472 112.9540961 6.492972339)
(1656.317766 128.4000151 4.556634411)
(1644.222535 148.8181982 3.403754085)
(1734.867541 4.328636666 0.1742061673)
(1735.139104 5.400286419 -1.800704229)
(1735.127815 4.478921084 -2.046283229)
(1733.872317 3.236825837 -1.994013934)
(1733.171073 2.643155694 -1.392793041)
(1734.721984 4.154554689 -1.985875717)
(1732.512236 0.8527888083 -4.418296089)
(1735.797704 0.4991749869 -2.282435334)
(1735.234742 0.2438081577 -2.105198177)
(1733.559271 0.1202503152 -0.3254687901)
(1735.84832 2.419270003 -1.568650135)
(1737.316319 3.087824538 -3.242934299)
(1732.631354 4.364862276 -2.056540673)
(1734.690378 3.134463968 -0.7454858181)
(1730.106635 5.67011528 -0.3499685103)
(1725.112678 5.455213748 0.2215201223)
(1726.767141 7.069312835 1.106710478)
(1724.54591 11.17290744 0.8319545881)
(1720.640955 14.49365611 -2.206586495)
(1714.757268 17.47171303 -2.326989132)
(1715.979481 24.74078866 -0.5853877553)
(1710.019715 30.87632589 -0.1924343944)
(1709.159891 35.44659225 2.280776705)
(1710.087488 44.0492391 1.57760286)
(1699.102431 57.92811236 0.4811758541)
(1690.117481 66.30740239 0.6375627959)
(1686.297722 72.00966303 3.422597819)
(1679.403686 85.50090739 2.35966284)
(1670.600208 103.9936627 6.408022017)
(1659.7214 124.4292522 4.400807149)
(1735.385111 2.39950802 0.7979995447)
(1734.835039 -0.6361325219 0.06299822929)
(1736.691149 1.803627299 -1.248700823)
(1735.770006 1.896672521 -1.254713243)
(1736.778349 2.269337675 0.3452746432)
(1736.861466 0.001275045217 0.2696852442)
(1737.439718 -0.1922882578 -0.896608691)
(1735.317087 3.064603398 -1.774335151)
(1735.072379 0.9412370955 -2.07715357)
(1734.349145 1.853370145 -3.358196176)
(1731.486682 1.018935253 -1.938442977)
(1726.873555 -1.214712459 -1.708593309)
(1727.672902 -0.03197754915 -2.579658724)
(1724.624568 2.781009242 -1.067064053)
(1727.096875 2.662690903 -0.2472974541)
(1728.951454 7.380714753 -3.614290896)
(1725.40934 9.507136254 -0.8776513848)
(1726.348541 10.40302738 -0.124451598)
(1726.870583 11.36649349 1.075564492)
(1723.593732 17.00014056 -0.3974148985)
(1721.800121 20.78773566 1.059341201)
(1718.079475 26.1344146 2.845110081)
(1715.106242 35.88049373 3.860155469)
(1713.621271 37.74033945 3.479837248)
(1710.746928 41.75026894 5.273860252)
(1704.456399 54.05452517 3.248195516)
(1698.229637 60.809717 4.097419088)
(1693.104334 67.16196168 3.850181167)
(1687.908394 82.12814902 2.032787832)
(1674.912513 97.47389366 4.643745419)
(1735.614677 0.2795606843 -0.5276570982)
(1733.978892 1.968835144 1.970647621)
(1734.204274 -1.519326264 2.624014659)
(1734.370724 -0.8737579653 2.513263538)
(1732.610149 -0.3940219213 0.1346468819)
(1732.896392 1.953131964 0.8120921864)
(1729.994414 -0.03646248392 1.745959163)
(1729.113963 -0.443323524 3.586637526)
(1728.990982 4.16275812 4.792238634)
(1730.42156 2.989113688 3.014419918)
(1731.714377 1.798786123 2.867259711)
(1733.141113 3.914868243 3.474885859)
(1732.899781 2.085286408 2.390386611)
(1734.212629 5.178652275 0.3215593428)
(1733.816309 4.828622874 -0.04842702953)
(1731.643168 5.860586499 0.9230518206)
(1731.141505 5.461254391 -2.192572588)
(1730.069001 8.977978832 -0.04231864149)
(1728.826141 13.21408427 0.6288619459)
(1728.707214 13.66201535 2.449701885)
(1723.455537 17.32166791 -0.2576017628)
(1721.500815 21.61103933 -1.265509579)
(1717.904106 24.60433761 -1.641959713)
(1717.068295 30.2858222 0.7480768563)
(1713.948311 34.20599499 -0.8862050933)
(1711.059853 38.96309163 -2.179342327)
(1705.940022 45.51450261 -2.291138191)
(1703.178344 58.75741458 -3.391423802)
(1697.361286 65.83741063 -0.5490739685)
(1691.182221 76.10206606 -0.01120649109)
(1734.200315 -3.071975315 -5.528835086)
(1735.201907 -4.856427831 -4.636914972)
(1732.876611 -1.079423656 -4.76932723)
(1733.690597 -0.8453955779 -4.104769723)
(1735.867972 -4.157277043 -1.79953909)
(1735.55606 -4.825189862 0.8531000805)
(1734.758623 -1.895346578 -0.09697418013)
(1734.629365 0.7229217008 -2.225289303)
(1735.907179 -0.07167499901 -3.269463214)
(1733.811518 3.132602877 -4.276234063)
(1733.081084 3.470821888 -3.125495146)
(1732.917711 4.156347532 -3.852367225)
(1734.95444 6.966536823 -3.805048076)
(1732.722155 7.361853231 -2.603212906)
(1733.072292 8.023605006 -2.180594899)
(1733.201742 7.567015448 -1.906999904)
(1732.64168 7.927162396 0.2740474665)
(1733.588015 6.711825516 0.1512674416)
(1730.60062 8.997117343 -0.814578981)
(1730.530157 11.20264626 -4.05899858)
(1731.182674 14.79652926 -2.774741073)
(1728.572499 15.52756385 -1.365021211)
(1726.315988 14.3507119 -0.4611724183)
(1724.829429 20.49402153 -2.101550012)
(1721.970344 25.06256096 -3.761123684)
(1719.904347 28.06408599 -1.548615801)
(1713.072469 40.8302877 -3.112850194)
(1708.16078 43.47188157 0.9431971411)
(1701.796884 51.6286318 0.2298230143)
(1698.589368 65.48885531 -2.460245664)
(1734.702608 -1.163401048 0.9472833001)
(1733.571547 -1.767304701 1.038996883)
(1736.525774 -1.066336737 -0.5889259294)
(1735.94893 -1.415449793 -1.077695971)
(1735.32165 0.3763551348 -1.307151371)
(1736.045794 -0.6683756203 -2.736538749)
(1735.714411 0.3796147795 -2.972437586)
(1737.166204 -1.337624291 -3.019179371)
(1734.95629 -0.598675788 -0.6923886696)
(1735.863354 -3.21468941 -0.9552680513)
(1735.281302 -2.484636111 -2.761230133)
(1735.300976 0.6688603068 -3.789121716)
(1738.214846 2.119629284 -3.876030938)
(1734.741514 3.553087438 -2.039279122)
(1733.581182 4.776405964 -1.854628945)
(1729.902848 5.418683698 -4.015622771)
(1730.001033 8.18943669 -2.804497536)
(1731.842101 7.937596159 -5.112870756)
(1734.114777 8.91739019 -3.355734297)
(1733.349846 8.883739479 -1.087879371)
(1731.332419 10.15484173 -0.869822994)
(1728.005529 11.26651854 0.4552988338)
(1730.154131 14.54667643 -2.097924007)
(1727.436889 16.38864125 -1.017110355)
(1726.033035 18.78027993 0.8187951425)
(1723.177534 23.67842251 -0.04023676666)
(1719.479437 25.93669323 0.5380696436)
(1715.064909 35.08182249 0.7885331184)
(1712.333897 39.80436079 0.07420639562)
(1704.840431 47.89478992 1.644011477)
(1738.085929 -1.049964303 -0.0621332317)
(1739.734274 -0.2103468304 -1.878142593)
(1736.724338 -1.137889729 0.3420899359)
(1736.853761 -1.329041751 -0.342839201)
(1737.272352 0.008369952759 -1.395611113)
(1735.750929 0.6733219865 -0.6388783211)
(1736.898538 -0.01989133295 -1.055602262)
(1737.545835 -0.4763896077 0.8528990026)
(1736.8035 -0.4046008716 -0.3123984361)
(1738.052602 -0.217755683 -0.9355596031)
(1739.187687 -1.343017835 0.3941963653)
(1736.615804 2.150541268 1.231669787)
(1732.818816 0.141548222 2.920958001)
(1731.962791 1.972898453 1.834016099)
(1731.979099 5.890144458 3.462763399)
(1733.497816 5.020999464 2.447981604)
(1732.123927 4.329000787 1.235301959)
(1733.420661 6.65375632 -1.141442959)
(1732.646441 5.988602939 -1.556346818)
(1733.964696 5.498585057 -1.539233197)
(1732.305978 5.668027169 -2.529099833)
(1731.930239 10.88168791 -3.448909001)
(1731.307953 13.8024247 -2.025966516)
(1729.270101 16.46471021 -0.2734331061)
(1726.806475 16.10687138 0.3926720383)
(1723.812386 16.24149947 0.5896643703)
(1723.210112 19.20641232 1.674237938)
(1719.231305 25.43558719 -0.02074803762)
(1719.28165 31.55371499 0.5215123291)
(1714.232604 38.38477334 1.727517192)
(1734.988717 -1.750877271 0.9253847048)
(1734.695209 -2.477292906 0.927281974)
(1734.202327 -1.453715137 -2.828565124)
(1732.532574 -1.78858462 -1.933104963)
(1733.786291 -2.069035253 -2.595117401)
(1732.026031 1.192706166 -2.211869356)
(1733.868623 1.460793871 -1.464158864)
(1731.74158 1.609583138 -1.160338054)
(1733.436569 0.4225640999 -0.3467681305)
(1732.546292 1.510594199 -0.1064324533)
(1733.886774 1.936358868 1.771348606)
(1733.705978 1.317739139 1.109256324)
(1736.665987 1.387806661 2.683234678)
(1738.260115 -1.494481638 2.22347058)
(1737.439736 -2.412476995 -0.3118222503)
(1737.585733 -1.191947537 -1.230532218)
(1738.239996 3.605171211 -1.012070434)
(1735.447456 7.167886011 1.011804897)
(1735.44858 7.781948519 1.111740774)
(1731.307657 10.57209588 0.1635314835)
(1731.903303 8.737402027 -0.8101411073)
(1731.690602 6.255638502 0.6020684452)
(1730.062978 4.930583277 0.7524019323)
(1728.614255 6.95533604 0.4624585145)
(1727.299193 7.796894751 -0.9559763315)
(1726.134365 14.03305418 -0.7776311653)
(1718.879489 18.6116137 -0.394434668)
(1720.165323 23.31904792 -0.5157327506)
(1714.787682 30.1735869 -3.044914226)
(1714.106722 31.89810619 -1.197405081)
(1734.498521 5.110757256 1.368552416)
(1733.892812 7.9242318 1.842956167)
(1735.563101 7.411766711 4.439298073)
(1737.10962 6.59344847 3.770643123)
(1734.492092 5.172727422 4.448944356)
(1737.172823 3.109503891 4.611368465)
(1736.298058 6.653738855 3.272419158)
(1735.376178 7.566195234 4.776603558)
(1737.261246 9.974376511 5.070704841)
(1735.419847 8.780469205 2.520306368)
(1736.226986 8.684332978 -0.6091614277)
(1737.19829 8.431146405 0.7854895685)
(1734.71142 6.169847932 -1.56015791)
(1732.253887 9.27783187 -4.296570513)
(1732.651994 7.732578219 -3.21514052)
(1735.04505 8.574076614 -1.41820227)
(1736.499315 8.001977649 -1.546922439)
(1734.717005 8.702216278 0.1475172956)
(1733.354494 10.58624287 1.739996608)
(1734.643673 10.30084508 1.759159247)
(1732.820476 12.94288385 -0.03333026483)
(1732.708509 15.20761861 -2.761443405)
(1729.266119 16.76260545 -0.8684982657)
(1728.35101 17.68622865 -0.2176799472)
(1728.108651 19.70500747 -0.110063974)
(1727.699309 18.75857405 2.035423928)
(1728.225048 20.50725045 0.2333837819)
(1726.475089 23.25989606 1.901162779)
(1726.005171 24.60099571 2.409803162)
(1719.286581 33.89411553 -0.3569816628)
)
;

boundaryField
{
    flow
    {
        type            calculated;
        value           nonuniform List<vector> 
55
(
(1305.611099 407.1282036 -1.453974816)
(1337.944021 417.9117885 2.494605695)
(1353.183785 425.5545748 -1.240949581)
(1371.167123 430.9751388 -3.897717834)
(1391.870001 433.0309947 -3.268796532)
(1401.856491 431.3306934 0.6688429331)
(1419.610874 423.6515891 5.547508806)
(1441.173872 413.3589365 -2.676622961)
(1456.437038 397.749184 -0.8494922473)
(1481.676315 373.3639019 -0.4212474369)
(1499.404721 349.8608013 1.20794943)
(1524.570534 313.2970542 5.299536786)
(1548.298861 279.173746 -3.413205541)
(1579.810549 241.029731 -3.389668458)
(1606.846735 201.4797884 -3.015582666)
(1623.356554 178.7084002 -1.98494304)
(1644.222535 148.8181982 3.403754085)
(1659.7214 124.4292522 4.400807149)
(1674.912513 97.47389366 4.643745419)
(1691.182221 76.10206606 -0.01120649109)
(1698.589368 65.48885531 -2.460245664)
(1704.840431 47.89478992 1.644011477)
(1714.232604 38.38477334 1.727517192)
(1714.106722 31.89810619 -1.197405081)
(1719.286581 33.89411553 -0.3569816628)
(1734.498521 5.110757256 1.368552416)
(1733.892812 7.9242318 1.842956167)
(1735.563101 7.411766711 4.439298073)
(1737.10962 6.59344847 3.770643123)
(1734.492092 5.172727422 4.448944356)
(1737.172823 3.109503891 4.611368465)
(1736.298058 6.653738855 3.272419158)
(1735.376178 7.566195234 4.776603558)
(1737.261246 9.974376511 5.070704841)
(1735.419847 8.780469205 2.520306368)
(1736.226986 8.684332978 -0.6091614277)
(1737.19829 8.431146405 0.7854895685)
(1734.71142 6.169847932 -1.56015791)
(1732.253887 9.27783187 -4.296570513)
(1732.651994 7.732578219 -3.21514052)
(1735.04505 8.574076614 -1.41820227)
(1736.499315 8.001977649 -1.546922439)
(1734.717005 8.702216278 0.1475172956)
(1733.354494 10.58624287 1.739996608)
(1734.643673 10.30084508 1.759159247)
(1732.820476 12.94288385 -0.03333026483)
(1732.708509 15.20761861 -2.761443405)
(1729.266119 16.76260545 -0.8684982657)
(1728.35101 17.68622865 -0.2176799472)
(1728.108651 19.70500747 -0.110063974)
(1727.699309 18.75857405 2.035423928)
(1728.225048 20.50725045 0.2333837819)
(1726.475089 23.25989606 1.901162779)
(1726.005171 24.60099571 2.409803162)
(1719.286581 33.89411553 -0.3569816628)
)
;
    }
    obstacle
    {
        type            calculated;
        value           nonuniform 0();
    }
    frontAndBack
    {
        type            empty;
    }
    procBoundary3to1
    {
        type            processor;
        value           nonuniform List<vector> 
36
(
(1286.969993 401.659464 0.5027847928)
(1325.479017 436.1408539 2.990295807)
(1324.694674 431.6119962 2.649915469)
(1320.207682 428.570238 -0.2784531799)
(1317.751876 424.8449359 -2.768529951)
(1314.372513 416.0792731 0.8677343625)
(1314.372513 416.0792731 0.8677343625)
(1404.773741 400.186054 -4.578491493)
(1391.268295 413.2614328 0.2284561485)
(1376.797995 420.5347467 -0.9976052202)
(1365.621162 426.0274847 -1.409928519)
(1356.428941 432.9933657 -2.009135761)
(1356.428941 432.9933657 -2.009135761)
(1516.266569 275.8593029 1.996003746)
(1498.31329 299.7872451 -0.3270913479)
(1477.669875 324.347919 -0.03674922132)
(1469.38829 339.0723794 -3.322277062)
(1446.028105 362.619666 -1.241436392)
(1446.028105 362.619666 -1.241436392)
(1649.558845 105.58011 -4.300476149)
(1634.251578 122.7972464 -4.740930742)
(1623.35067 135.3282919 -2.444447503)
(1608.396081 161.3603225 -3.154900283)
(1588.992054 184.6726191 0.1418365281)
(1569.127437 212.1396328 -1.674990444)
(1569.127437 212.1396328 -1.674990444)
(1711.022182 26.32963983 0.1996906141)
(1704.269937 33.31814917 -3.865947408)
(1696.019571 41.56539014 -5.011380301)
(1687.479863 50.52618147 -6.29812054)
(1684.520678 58.07811686 -5.898647144)
(1673.411267 66.74902419 -5.524886282)
(1673.411267 66.74902419 -5.524886282)
(1725.870481 14.24484113 -3.303617731)
(1721.282594 20.14159249 -1.393766119)
(1721.282594 20.14159249 -1.393766119)
)
;
    }
    procBoundary3to2
    {