/*--------------------------------*- C++ -*----------------------------------*\
  =========                 |
  \\      /  F ield         | OpenFOAM: The Open Source CFD Toolbox
   \\    /   O peration     | Website:  https://openfoam.org
    \\  /    A nd           | Version:  7
     \\/     M anipulation  |
\*---------------------------------------------------------------------------*/
FoamFile
{
    version     2.0;
    format      ascii;
    class       volScalarField;
    location    "0.25/fluid";
    object      rho;
}
// * * * * * * * * * * * * * * * * * * * * * * * * * * * * * * * * * * * * * //

dimensions      [1 -3 0 0 0 0 0];

internalField   nonuniform List<scalar> 
200
(
0.00099497655759065
0.00099145279530649
0.000987187620466036
0.000986807382075627
0.000987173537826912
0.000987721766016801
0.000988616796010834
0.000988641843594457
0.000986760459339471
0.000984718649611363
0.000986040805902646
0.000989490136714838
0.00099561036213672
0.000995956696269758
0.000996952425490403
0.000996674412696639
0.000992802282818764
0.000986743288230187
0.000986728703795413
0.000986062281726969
0.000986576489847083
0.000992323055434351
0.000996844586803704
0.000998016014896293
0.000995802952560418
0.000992129055299255
0.000989992016023938
0.000990712418203206
0.000990581597030644
0.000988531825063515
0.000985703755620727
0.000983911970229833
0.000986608706292072
0.00099122891817234
0.000999381444437209
0.00100125516511364
0.000999554751996515
0.00100142604056989
0.001003145148945
0.00100204041997216
0.000993635391466605
0.000984169807942385
0.000981773029429578
0.000982490146239058
0.000981655382998999
0.000986443108663223
0.000996239346091633
0.00100174896401299
0.00100499268216813
0.00100109273761123
0.000988461125593797
0.000977839574068007
0.000975747404941374
0.000976447048250184
0.000975195492654286
0.00098070314921369
0.000998538636699536
0.00100991565554753
0.00100435615489301
0.000992647155056213
0.000978185392655026
0.000974151069786631
0.000973346043591296
0.000972424974386636
0.0009732015107996
0.000983604467630515
0.000999691886707957
0.0010093281272583
0.00100096437194751
0.000986774801276634
0.000979835081716232
0.000986198421862599
0.000989953578959373
0.000985990591867339
0.000989133226822474
0.000995611391922381
0.000998231064820563
0.000997531069161142
0.000997201086019071
0.00099330871365721
0.000999056143411861
0.00100548780405998
0.00100531265103866
0.00100193872566129
0.000999095068790048
0.000999666615944899
0.000996365829008376
0.000989445534190546
0.000986313052964039
0.000991413132271492
0.000999363016345126
0.00100234883684139
0.000996277643930332
0.000987026781781131
0.000981349890219803
0.000982389860864076
0.00097995334568145
0.000976337019642391
0.000979267112592426
0.000989486830819021
0.0010130672540205
0.0010173869660634
0.00101572882648642
0.00100876709464671
0.00100354554204883
0.00100019349158571
0.000990486607706891
0.000984115927505848
0.000984376753141327
0.000990970753356165
0.00099485779320117
0.000993496945577008
0.000985842686834484
0.000972365899706473
0.000967230117997624
0.000968406137945201
0.000968436846405723
0.000967952286913813
0.000970957232997601
0.000988585689625075
0.00100439488537836
0.00100950351875871
0.00100707377977848
0.00100393411067178
0.000995480730944927
0.00099363619787193
0.000990811658610361
0.000980575432772498
0.000975291662506517
0.000985156313913861
0.000999747889431087
0.00100805527796214
0.00100032149519404
0.000992900012593093
0.000987422537967227
0.00099435581551452
0.000999037241593212
0.0010016557032838
0.000997651319015861
0.000998800205878024
0.00100031784797129
0.000999918143593215
0.000994076354896472
0.000989501503991823
0.00098970214119169
0.000991060406254615
0.000987162001223403
0.000980077311426464
0.000977917522254342
0.00098649584510838
0.0010032561834146
0.00100860598824366
0.00100269886171221
0.000996465454501256
0.000995202769881564
0.000993690025452753
0.000987227851802278
0.000981813788310505
0.000982549597157504
0.000983387829899478
0.000981588190183934
0.000981571314302984
0.000986184527615214
0.000995052199767355
0.00100053973821559
0.000997583041978177
0.000989354599582432
0.000983282761559077
0.00098351175411057
0.000987511836251131
0.000989807665696505
0.000988836470699475
0.00099122573699514
0.000994604023857126
0.000994863668648289
0.000991824354312968
0.000993742153206505
0.000998569392846167
0.00100361699349158
0.00100510528693811
0.0010005845052788
0.000995371977520346
0.000986927975572898
0.000985257503887902
0.000988217638591822
0.000987617870030216
0.000986171657339098
0.000986582187046029
0.000989592706476842
0.000991382037869133
0.000989669945080878
0.000987053653357698
0.000986454297721973
0.000989308703160153
0.00099327821686398
0.000994742330589172
0.000992594754012887
0.000988338424043098
0.000985605835823526
0.00105110705190071
)
;

boundaryField
{
    fluidSide
    {
        type            calculated;
        value           uniform 0.00099497655759065;
    }
    fluidBound
    {
        type            calculated;
        value           uniform 0.000993218168613252;
    }
    nullDims
    {
        type            empty;
    }
}


// ************************************************************************* //
