/*--------------------------------*- C++ -*----------------------------------*\
  =========                 |
  \\      /  F ield         | OpenFOAM: The Open Source CFD Toolbox
   \\    /   O peration     | Website:  https://openfoam.org
    \\  /    A nd           | Version:  7
     \\/     M anipulation  |
\*---------------------------------------------------------------------------*/
FoamFile
{
    version     2.0;
    format      ascii;
    class       volVectorField;
    location    "0.25/fluid";
    object      U;
}
// * * * * * * * * * * * * * * * * * * * * * * * * * * * * * * * * * * * * * //

dimensions      [0 1 -1 0 0 0 0];

internalField   nonuniform List<vector> 
200
(
(-0.00483993043853558 0 0)
(-0.000694023394815325 0 0)
(0.00420788501547492 0 0)
(0.00534768955336561 0 0)
(0.00442226696521153 0 0)
(0.00271166993766978 0 0)
(0.00321490257904266 0 0)
(0.00349306481863521 0 0)
(0.00521471666841185 0 0)
(0.00561018419690879 0 0)
(0.00563031848006043 0 0)
(0.00332864413542275 0 0)
(-0.00362681145383691 0 0)
(-0.0089440088875893 0 0)
(-0.00710004354127501 0 0)
(-0.00485029613433491 0 0)
(-0.0010754643123078 0 0)
(0.00234013007434281 0 0)
(0.00623238477044894 0 0)
(0.00617861459101624 0 0)
(0.00462163472081251 0 0)
(-0.00267670723177441 0 0)
(-0.00683505014540606 0 0)
(-0.00636215053943671 0 0)
(-0.00462428000653162 0 0)
(-0.0040242029625014 0 0)
(-0.00170423324419489 0 0)
(0.00211854309859529 0 0)
(0.00484154450294318 0 0)
(0.00480767444081529 0 0)
(0.00319023082675238 0 0)
(0.00328164854718383 0 0)
(0.00404791452533547 0 0)
(0.00341826852538422 0 0)
(-0.00311875764273078 0 0)
(-0.0102878226298364 0 0)
(-0.0161705750808862 0 0)
(-0.0191852580707156 0 0)
(-0.0137277377343747 0 0)
(-0.00821142301288491 0 0)
(0.000670106529870937 0 0)
(0.00359750680425373 0 0)
(0.00910200261969387 0 0)
(0.0135799971811842 0 0)
(0.0130603011286279 0 0)
(0.00514582197192185 0 0)
(-0.0122260680431407 0 0)
(-0.0185632300618286 0 0)
(-0.0116556864050875 0 0)
(-0.0032806652580326 0 0)
(0.00479231874077884 0 0)
(0.00560499794463598 0 0)
(0.0158887530281938 0 0)
(0.02584506864475 0 0)
(0.0194326813623254 0 0)
(0.00622936235596628 0 0)
(-0.0123804696662775 0 0)
(-0.0124328116584437 0 0)
(-0.0129203274969253 0 0)
(-0.00697993951952386 0 0)
(0.00513240526617695 0 0)
(0.013991177460606 0 0)
(0.0266913915913571 0 0)
(0.0378324160797317 0 0)
(0.0247144087179741 0 0)
(-0.00210569243071159 0 0)
(-0.0190870800904361 0 0)
(-0.0126102848895091 0 0)
(-0.00605909976900298 0 0)
(-0.00445098757928728 0 0)
(0.00782562089890883 0 0)
(0.0181212798688196 0 0)
(0.00982777239323811 0 0)
(-0.0047163986336467 0 0)
(-0.0147290395759066 0 0)
(-0.00871306343395063 0 0)
(0.00173515993540455 0 0)
(0.00784700197492491 0 0)
(-0.00345787988886393 0 0)
(-0.0127090001776325 0 0)
(-0.0170562593013422 0 0)
(-0.0121417693554277 0 0)
(-0.0137679479386208 0 0)
(-0.0165160132979253 0 0)
(-0.0120391427529543 0 0)
(-0.00461382223040735 0 0)
(0.00104628248173879 0 0)
(-0.00335347113872434 0 0)
(-0.00609622222619219 0 0)
(-0.00753711858744753 0 0)
(-0.00349611468719998 0 0)
(-0.00261767981082904 0 0)
(-0.000236269810842091 0 0)
(0.00129702769181436 0 0)
(0.00463689106995435 0 0)
(0.0106649037760151 0 0)
(0.015601337774131 0 0)
(0.0137893734256941 0 0)
(0.0119868762842887 0 0)
(0.00554082787782659 0 0)
(-0.0186370488022296 0 0)
(-0.0351572186057395 0 0)
(-0.0378724024286843 0 0)
(-0.0264712202906945 0 0)
(-0.00654532348910696 0 0)
(0.00469854443843459 0 0)
(0.000291922335569436 0 0)
(-0.00341239154541119 0 0)
(-0.00116657047606001 0 0)
(0.00111205392493563 0 0)
(0.00369931283277264 0 0)
(0.00350180544872407 0 0)
(0.00588085822680097 0 0)
(0.0147505067703979 0 0)
(0.0213363152954335 0 0)
(0.030578926893353 0 0)
(0.0372189067895595 0 0)
(0.0297062296276142 0 0)
(0.0175912212528999 0 0)
(-0.00578459864825439 0 0)
(-0.0113391172940399 0 0)
(-0.0149942952627368 0 0)
(-0.0207844115259591 0 0)
(-0.0209642076388568 0 0)
(-0.0103864810890051 0 0)
(0.00395299281090033 0 0)
(0.0140755081833943 0 0)
(0.00979554351231694 0 0)
(0.00382976029228731 0 0)
(-0.00413069328703397 0 0)
(-0.00451062389187164 0 0)
(-0.00521366226441408 0 0)
(-0.00863935590733595 0 0)
(-0.00960448235642319 0 0)
(-0.00465252450027003 0 0)
(0.000844870333436561 0 0)
(0.000407332608849008 0 0)
(-0.00951164301729544 0 0)
(-0.0182198561780732 0 0)
(-0.0173582966598565 0 0)
(-0.00827093159913072 0 0)
(-0.00151084402181998 0 0)
(-0.00232906501829812 0 0)
(-0.00460798630634627 0 0)
(-0.000178870589348922 0 0)
(0.00613654475012571 0 0)
(0.0111290322517769 0 0)
(0.00842450382444682 0 0)
(0.00741401625684443 0 0)
(0.00093887463119752 0 0)
(-0.00765213754398895 0 0)
(-0.0134664652585931 0 0)
(-0.0159362762671756 0 0)
(-0.0132269562554474 0 0)
(-0.00413864893967639 0 0)
(0.00362693554955319 0 0)
(0.00176274750958424 0 0)
(0.0032623133696173 0 0)
(0.0118643856738122 0 0)
(0.0194532505579923 0 0)
(0.0130970460061454 0 0)
(0.00371082339287285 0 0)
(-0.00726702949685194 0 0)
(-0.00608458437005968 0 0)
(0.000793566677593055 0 0)
(0.00465117782156778 0 0)
(0.00253725134309263 0 0)
(-0.00143253841604578 0 0)
(-0.000602076581379315 0 0)
(-0.000985395800209632 0 0)
(0.00272716099380598 0 0)
(0.0072039321872658 0 0)
(0.00985830741014971 0 0)
(0.00549287654273703 0 0)
(-0.00409079851816812 0 0)
(-0.011999833476745 0 0)
(-0.0154520058889971 0 0)
(-0.0101943124725255 0 0)
(-0.00511965954525132 0 0)
(-0.00706134365795727 0 0)
(-0.0119511283927349 0 0)
(-0.0129721325602788 0 0)
(-0.00464141642448927 0 0)
(0.00583906051437769 0 0)
(0.0124722712366152 0 0)
(0.0112002945563676 0 0)
(0.00350890544764824 0 0)
(-0.00215067621453153 0 0)
(0.00109729092562079 0 0)
(0.00594313956339075 0 0)
(0.00929109666960329 0 0)
(0.00432106176124346 0 0)
(-0.000334198388101719 0 0)
(-0.00530902047969867 0 0)
(-0.0025473585273757 0 0)
(0.000383847381645238 0 0)
(0.00354924063333007 0 0)
(0.00549517324159229 0 0)
(0.00620835264779263 0 0)
(0.0818660291190302 0 0)
)
;

boundaryField
{
    fluidSide
    {
        type            zeroGradient;
    }
    fluidBound
    {
        type            codedFixedValue;
        value           uniform (0.0147462242458896 -0.00563437134362395 0.0149037493623789);
        name            HPCFluidU;
    }
    nullDims
    {
        type            empty;
    }
}


// ************************************************************************* //
