/*--------------------------------*- C++ -*----------------------------------*\
  =========                 |
  \\      /  F ield         | OpenFOAM: The Open Source CFD Toolbox
   \\    /   O peration     | Website:  https://openfoam.org
    \\  /    A nd           | Version:  7
     \\/     M anipulation  |
\*---------------------------------------------------------------------------*/
FoamFile
{
    version     2.0;
    format      ascii;
    class       volScalarField;
    location    "0.05";
    object      alpha.water;
}
// * * * * * * * * * * * * * * * * * * * * * * * * * * * * * * * * * * * * * //

dimensions      [0 0 0 0 0 0 0];

internalField   nonuniform List<scalar> 
7700
(
1
1
1
1
1
1
1
1
1
1
1
1
1
1
1
1
1
1
1
1
1
1
1
1
0.99691
0.973048
0.801347
0.261112
0.0178292
0.00834596
0.0032048
0.000920887
0.000239315
5.6866e-05
1.24608e-05
2.51864e-06
4.68008e-07
7.939e-08
1.21095e-08
1.61674e-09
1.82779e-10
1.97876e-11
2.32312e-12
1.6166e-13
3.55076e-15
1.06944e-15
1
1
1
1
1
1
1
1
1
1
1
1
1
1
1
1
1
1
1
1
1
1
1
1
0.985264
0.729845
0.190551
0.0199998
0.00629541
0.00435826
0.00253413
0.000573805
7.94978e-05
2.18418e-05
4.87801e-06
1.00121e-06
1.89337e-07
3.28457e-08
5.16338e-09
7.1755e-10
9.64894e-11
1.38512e-11
2.136e-12
1.49577e-13
3.88758e-15
5.10571e-16
1
1
1
1
1
1
1
1
1
1
1
1
1
1
1
1
1
1
1
1
1
1
1
1
0.89808
0.338699
0.0185438
0.00566623
0.00201224
0.000670136
0.000258061
8.53119e-05
2.26726e-05
5.38233e-06
1.25257e-06
2.49914e-07
4.76346e-08
8.38729e-09
1.34501e-09
2.12701e-10
3.40849e-11
7.67531e-12
9.98438e-13
6.77142e-14
2.71321e-15
2.0183e-16
1
1
1
1
1
1
1
1
1
1
1
1
1
1
1
1
1
1
1
1
1
1
1
1
0.724935
0.112924
0.00770443
0.00203779
0.000594757
0.00019325
5.94736e-05
1.65633e-05
4.49052e-06
1.13985e-06
2.66468e-07
5.56857e-08
1.06853e-08
1.89978e-09
3.2895e-10
5.83049e-11
1.43152e-11
2.52862e-12
2.66425e-13
2.17152e-14
1.09852e-15
7.44933e-17
1
1
1
1
1
1
1
1
1
1
1
1
1
1
1
1
1
1
1
1
1
1
1
1
0.522111
0.0311399
0.00381346
0.000910243
0.00022279
5.9271e-05
1.6549e-05
4.4879e-06
1.13892e-06
2.68234e-07
5.87982e-08
1.20399e-08
2.30622e-09
4.27252e-10
8.3866e-11
2.10671e-11
4.38582e-12
6.09005e-13
7.14402e-14
6.68463e-15
4.0417e-16
2.72058e-17
1
1
1
1
1
1
1
1
1
1
1
1
1
1
1
1
1
1
1
1
1
1
1
0.975256
0.372067
0.00946171
0.00210923
0.000458955
9.89997e-05
2.2107e-05
5.16551e-06
1.22252e-06
2.82838e-07
6.27546e-08
1.32314e-08
2.64384e-09
5.08566e-10
1.06428e-10
2.69181e-11
6.16378e-12
1.01374e-12
1.45835e-13
1.89007e-14
2.01851e-15
1.45966e-16
1.02907e-17
1
1
1
1
1
1
1
1
1
1
1
1
1
1
1
1
1
1
1
1
1
1
1
0.931935
0.270596
0.00595921
0.00121561
0.000243023
4.77976e-05
9.45931e-06
1.91087e-06
3.92123e-07
8.05546e-08
1.63231e-08
3.21925e-09
6.12705e-10
1.31358e-10
3.26385e-11
7.92116e-12
1.43314e-12
2.26871e-13
3.46692e-14
4.9143e-15
5.97984e-16
5.1565e-17
4.20304e-18
1
1
1
1
1
1
1
1
1
1
1
1
1
1
1
1
1
1
1
1
1
1
1
0.892833
0.203855
0.00394327
0.000733937
0.00013457
2.43645e-05
4.39665e-06
7.96251e-07
1.45019e-07
2.6545e-08
4.84887e-09
8.7268e-10
1.76642e-10
4.01766e-11
1.04302e-11
1.99769e-12
3.21002e-13
5.17944e-14
8.26778e-15
1.27255e-15
1.76932e-16
1.83641e-17
1.8983e-18
1
1
1
1
1
1
1
1
1
1
1
1
1
1
1
1
1
1
1
1
1
1
1
0.856785
0.158412
0.00274331
0.000465231
7.81747e-05
1.30595e-05
2.17372e-06
3.6071e-07
5.978e-08
9.92119e-09
1.64014e-09
2.94043e-10
5.64203e-11
1.55284e-11
3.143e-12
4.86197e-13
7.63171e-14
1.22312e-14
2.00227e-15
3.30936e-16
5.27049e-17
6.73353e-18
9.44096e-19
1
1
1
1
1
1
1
1
1
1
1
1
1
1
1
1
1
1
1
1
1
1
1
0.824533
0.126176
0.00197333
0.000308681
4.76752e-05
7.36778e-06
1.13772e-06
1.75023e-07
2.6845e-08
4.11796e-09
6.23152e-10
1.12632e-10
2.6427e-11
5.90124e-12
9.16045e-13
1.3169e-13
1.96361e-14
3.0477e-15
4.99058e-16
8.6731e-17
1.5694e-17
2.53828e-18
5.02145e-19
3.18104e-37
2.01399e-38
6.84854e-40
2.08096e-41
6.41944e-43
2.16043e-44
8.03756e-46
3.24143e-47
1.38021e-48
6.07551e-50
2.9042e-51
2.25549e-52
1.22083e-53
5.41087e-55
2.35789e-56
1.00132e-57
4.11358e-59
1.6293e-60
6.20182e-62
2.26129e-63
7.87156e-65
2.60703e-66
8.18617e-68
2.42817e-69
6.77757e-71
1.77286e-72
4.32599e-74
9.79536e-76
2.04524e-77
3.90729e-79
6.7619e-81
1.04603e-82
1.42022e-84
1.64888e-86
1.57568e-88
1.16958e-90
6.1549e-93
1.97374e-95
2.93266e-98
9.46229e-99
4.52112e-36
2.63563e-36
2.01015e-38
6.83847e-40
2.07787e-41
6.41121e-43
2.15873e-44
8.03605e-46
3.24182e-47
1.38023e-48
1.8743e-49
2.34534e-50
1.18309e-51
4.77589e-53
1.98817e-54
8.05342e-56
3.15631e-57
1.19282e-58
4.33315e-60
1.50856e-61
5.01838e-63
1.59041e-64
4.78687e-66
1.36379e-67
3.66462e-69
9.24992e-71
2.18307e-72
4.79139e-74
9.71583e-76
1.80544e-77
3.04249e-79
4.58544e-81
6.06436e-83
6.85191e-85
6.36144e-87
4.57617e-89
2.32385e-91
7.11123e-94
8.95882e-97
9.46043e-99
6.40642e-34
2.63737e-34
2.16387e-36
7.23203e-38
2.24077e-39
7.06908e-41
2.39305e-42
8.81397e-44
3.48694e-45
1.4504e-46
9.69401e-48
9.86542e-49
4.33768e-50
1.62857e-51
6.25145e-53
2.33195e-54
8.41451e-56
2.92731e-57
9.78866e-59
3.13727e-60
9.61062e-62
2.80617e-63
7.78713e-65
2.04728e-66
5.08159e-68
1.18613e-69
2.59179e-71
5.27324e-73
9.9259e-75
1.71483e-76
2.69181e-78
3.78903e-80
4.69892e-82
5.00985e-84
4.43263e-86
3.08268e-88
1.53578e-90
4.68264e-93
8.65763e-96
7.05062e-97
4.3791e-32
1.44662e-32
1.2269e-34
4.04097e-36
1.26735e-37
4.04829e-39
1.361e-40
4.86895e-42
1.841e-43
7.24712e-45
3.5363e-46
2.76714e-47
1.09567e-48
3.83262e-50
1.35032e-51
4.62056e-53
1.52892e-54
4.87629e-56
1.49457e-57
4.38988e-59
1.23235e-60
3.2975e-62
8.38649e-64
2.02112e-65
4.59986e-67
9.84836e-69
1.97479e-70
3.68936e-72
6.38188e-74
1.01442e-75
1.46771e-77
1.90966e-79
2.19891e-81
2.19201e-83
1.8318e-85
1.21761e-87
5.85734e-90
2.37164e-92
5.41851e-95
9.58403e-96
1.8629e-30
5.27166e-31
4.52242e-33
1.47579e-34
4.87492e-36
1.59565e-37
5.35003e-39
1.86786e-40
6.76812e-42
2.5214e-43
1.11881e-44
6.52624e-46
2.32866e-47
7.62803e-49
2.48003e-50
7.82334e-52
2.385e-53
7.00436e-55
1.97591e-56
5.33944e-58
1.37846e-59
3.39081e-61
7.92514e-63
1.75465e-64
3.66772e-66
7.21046e-68
1.32734e-69
2.27627e-71
3.61441e-73
5.2749e-75
7.01097e-77
8.38784e-79
8.89323e-81
8.16368e-83
6.26577e-85
4.20847e-87
2.43002e-89
1.00302e-91
2.51382e-94
5.93358e-95
5.57733e-29
1.42803e-29
1.08741e-31
3.68783e-33
1.25614e-34
4.314e-36
1.4898e-37
5.15394e-39
1.78081e-40
6.3384e-42
3.33713e-43
1.42902e-44
4.59778e-46
1.4225e-47
4.31055e-49
1.26546e-50
3.58659e-52
9.78415e-54
2.56179e-55
6.42048e-57
1.5362e-58
3.49958e-60
7.56924e-62
1.54963e-63
2.99269e-65
5.43092e-67
9.21983e-69
1.45659e-70
2.12814e-72
2.85358e-74
3.47483e-76
3.79702e-78
3.64896e-80
3.38451e-82
2.78227e-84
1.94774e-86
1.10108e-88
4.49146e-91
1.13323e-93
2.71869e-94
1.26177e-27
3.06649e-28
2.21266e-30
7.95685e-32
2.81414e-33
9.8687e-35
3.43283e-36
1.18145e-37
4.02587e-39
1.41671e-40
8.85837e-42
2.95158e-43
8.69754e-45
2.56123e-46
7.32127e-48
2.02346e-49
5.39127e-51
1.38088e-52
3.39085e-54
7.96166e-56
1.78276e-57
3.7966e-59
7.66756e-61
1.46388e-62
2.63271e-64
4.44207e-66
6.99694e-68
1.02285e-69
1.37808e-71
1.70607e-73
2.05385e-75
2.26272e-77
2.26044e-79
2.02475e-81
1.59849e-83
1.08035e-85
5.92149e-88
2.34709e-90
5.70088e-93
1.20928e-93
2.23601e-26
5.42803e-27
3.9201e-29
1.54292e-30
5.77423e-32
2.08312e-33
7.3065e-35
2.50567e-36
8.62535e-38
2.99883e-39
1.80351e-40
5.74906e-42
1.62759e-43
4.59019e-45
1.25271e-46
3.29801e-48
8.35446e-50
2.03112e-51
4.72705e-53
1.0504e-54
2.22269e-56
4.46618e-58
8.49577e-60
1.52478e-61
2.57193e-63
4.05277e-65
6.23921e-67
9.03663e-69
1.21772e-70
1.51995e-72
1.74846e-74
1.84197e-76
1.76337e-78
1.51754e-80
1.15339e-82
7.51185e-85
3.97027e-87
1.51272e-89
2.88798e-92
6.01182e-93
1.44573e-24
2.50654e-25
6.11371e-28
2.75522e-29
1.13803e-30
4.37458e-32
1.5839e-33
5.47276e-35
1.96221e-36
1.13081e-37
4.09458e-39
1.18141e-40
3.33207e-42
9.10614e-44
2.399e-45
6.0801e-47
1.47921e-48
3.44654e-50
7.67201e-52
1.62737e-53
3.28032e-55
6.26104e-57
1.16012e-58
2.07937e-60
3.51447e-62
5.59197e-64
8.34032e-66
1.16209e-67
1.50699e-69
1.81128e-71
2.00808e-73
2.04156e-75
1.88883e-77
1.5724e-79
1.15676e-81
7.29063e-84
3.70691e-86
1.33627e-88
2.10974e-91
3.61848e-92
1.81336e-23
2.76145e-24
7.48854e-26
2.49925e-27
9.55515e-29
3.42285e-30
1.13716e-31
3.44432e-33
1.07116e-34
3.44108e-36
1.04561e-37
3.04137e-39
8.50807e-41
2.28806e-42
5.90997e-44
1.46418e-45
3.47336e-47
7.87393e-49
1.70197e-50
3.49889e-52
6.84308e-54
1.33229e-55
2.46123e-57
4.29284e-59
7.06269e-61
1.09221e-62
1.58297e-64
2.14322e-66
2.70104e-68
3.15585e-70
3.40233e-72
3.3648e-74
3.02829e-76
2.45098e-78
1.75035e-80
1.06772e-82
5.24401e-85
1.83971e-87
3.42307e-90
2.96419e-91
1
1
1
1
1
1
1
1
1
1
1
1
1
1
1
1
1
1
1
1
1
1
1
0.795039
0.102038
0.00146752
0.000212688
3.03347e-05
4.35168e-06
6.25907e-07
8.98543e-08
1.28836e-08
1.84334e-09
2.82466e-10
4.81153e-11
1.27221e-11
2.24525e-12
2.96831e-13
3.99569e-14
5.57101e-15
8.18475e-16
1.30081e-16
2.29634e-17
4.57645e-18
1.01104e-18
2.70737e-19
1
1
1
1
1
1
1
1
1
1
1
1
1
1
1
1
1
1
1
1
1
1
1
0.76692
0.0831415
0.00111855
0.000151241
2.00494e-05
2.6844e-06
3.61502e-07
4.87284e-08
6.57545e-09
8.84433e-10
1.37534e-10
2.51781e-11
5.94987e-12
8.80956e-13
1.06708e-13
1.34278e-14
1.74053e-15
2.37944e-16
3.55318e-17
6.05126e-18
1.23053e-18
3.12475e-19
1.01305e-19
1
1
1
1
1
1
1
1
1
1
1
1
1
1
1
1
1
1
1
1
1
1
1
0.73981
0.0680659
0.000869925
0.0001104
1.36854e-05
1.7194e-06
2.17913e-07
2.77312e-08
3.54682e-09
4.51097e-10
7.03026e-11
1.55727e-11
2.91181e-12
3.6661e-13
4.25262e-14
5.04001e-15
6.10483e-16
7.73787e-17
1.06383e-17
1.66498e-18
3.13776e-19
7.40888e-20
2.26184e-20
1
1
1
1
1
1
1
1
1
1
1
1
1
1
1
1
1
1
1
1
1
1
1
0.713646
0.0555481
0.000685691
8.21239e-05
9.57581e-06
1.13495e-06
1.36045e-07
1.64286e-08
2.0057e-09
2.576e-10
3.79389e-11
9.23949e-12
1.46644e-12
1.65277e-13
1.83907e-14
2.07039e-15
2.36456e-16
2.79507e-17
3.52579e-18
4.95243e-19
8.15453e-20
1.62263e-20
3.88354e-21
1
1
1
1
1
1
1
1
1
1
1
1
1
1
1
1
1
1
1
1
1
1
1
0.688165
0.0449883
0.000545878
6.19536e-05
6.8288e-06
7.67e-07
8.73279e-08
1.00507e-08
1.17402e-09
1.53617e-10
2.18248e-11
5.34281e-12
7.59826e-13
7.91321e-14
8.4833e-15
9.1328e-16
9.91685e-17
1.10327e-17
1.28709e-18
1.62546e-19
2.31046e-20
3.77031e-21
7.18764e-22
1
1
1
1
1
1
1
1
1
1
1
1
1
1
1
1
1
1
1
1
1
1
1
0.663058
0.0361714
0.000438535
4.73125e-05
4.94849e-06
5.28503e-07
5.73409e-08
6.30764e-09
7.04543e-10
9.35201e-11
1.42488e-11
3.13852e-12
3.98588e-13
3.97773e-14
4.11568e-15
4.25756e-16
4.423e-17
4.66965e-18
5.09492e-19
5.87049e-20
7.32606e-21
9.93366e-22
1.53633e-22
1
1
1
1
1
1
1
1
1
1
1
1
1
1
1
1
1
1
1
1
1
1
1
0.63809
0.0289748
0.000355376
3.65279e-05
3.63565e-06
3.70177e-07
3.83669e-08
4.04399e-09
4.32732e-10
5.76629e-11
1.06166e-11
1.88893e-12
2.11172e-13
2.07251e-14
2.073e-15
2.06743e-16
2.06381e-17
2.0806e-18
2.14362e-19
2.28942e-20
2.57287e-21
3.00214e-22
3.90145e-23
1
1
1
1
1
1
1
1
1
1
1
1
1
1
1
1
1
1
1
1
1
1
1
0.613473
0.0229701
0.000289436
2.83886e-05
2.69577e-06
2.62328e-07
2.60341e-08
2.63597e-09
2.78213e-10
3.59296e-11
7.53078e-12
1.14127e-12
1.15722e-13
1.10752e-14
1.07216e-15
1.03308e-16
9.93886e-18
9.60992e-19
9.41682e-20
9.43936e-21
9.76386e-22
1.01642e-22
1.15775e-23
1
1
1
1
1
1
1
1
1
1
1
1
1
1
1
1
1
1
1
1
1
1
1
0.589281
0.0177918
0.000236467
2.2166e-05
2.01273e-06
1.87549e-07
1.78527e-08
1.74013e-09
1.8666e-10
2.26817e-11
5.06682e-12
6.90288e-13
6.47237e-14
6.02377e-15
5.64642e-16
5.26226e-17
4.888e-18
4.54658e-19
4.25921e-20
4.04304e-21
3.90891e-22
3.72809e-23
3.85218e-24
1
1
1
1
1
1
1
1
1
1
1
1
1
1
1
1
1
1
1
1
1
1
1
0.56544
0.0134891
0.000194628
1.74742e-05
1.51939e-06
1.35657e-07
1.23903e-08
1.16399e-09
1.26357e-10
1.44531e-11
3.33003e-12
4.17407e-13
3.66735e-14
3.31359e-15
3.00748e-16
2.71221e-17
2.43485e-18
2.18299e-19
1.96211e-20
1.77491e-21
1.62073e-22
1.44489e-23
1.28841e-24
1
1
1
1
1
1
1
1
1
1
1
1
1
1
1
1
1
1
1
1
1
1
1
0.541792
0.0101573
0.000161928
1.39624e-05
1.16391e-06
9.96014e-08
8.72682e-09
7.91804e-10
8.62435e-11
9.63722e-12
2.16821e-12
2.50527e-13
2.09296e-14
1.8358e-15
1.6122e-16
1.40664e-17
1.22081e-18
1.05613e-19
9.12964e-21
7.90393e-22
6.86994e-23
4.90891e-24
1.71246e-25
1
1
1
1
1
1
1
1
1
1
1
1
1
1
1
1
1
1
1
1
1
1
1
0.518546
0.00757944
0.000135598
1.12421e-05
9.00298e-07
7.39449e-08
6.22086e-09
5.43205e-10
5.91896e-11
6.4842e-12
1.40768e-12
1.50751e-13
1.20247e-14
1.02186e-15
8.67346e-17
7.31538e-18
6.13506e-19
5.1223e-20
4.26364e-21
3.54237e-22
2.93956e-23
2.37801e-24
1.22631e-25
1
1
1
1
1
1
1
1
1
1
1
1
1
1
1
1
1
1
1
1
1
1
1
0.495822
0.00535231
0.000113479
9.04727e-06
6.97207e-07
5.506e-08
4.45238e-09
3.74182e-10
4.04912e-11
5.43611e-12
9.27123e-13
8.77566e-14
6.9417e-15
5.70133e-16
4.67096e-17
3.80373e-18
3.07964e-19
2.48042e-20
1.98864e-21
1.58775e-22
1.26212e-23
1.00242e-24
7.19518e-26
1
1
1
1
1
1
1
1
1
1
1
1
1
1
1
1
1
1
1
1
1
1
1
0.473534
0.00363034
9.49852e-05
7.28563e-06
5.40482e-07
4.10522e-08
3.19341e-09
2.58125e-10
2.75139e-11
4.35581e-12
6.05016e-13
5.17693e-14
4.00373e-15
3.17328e-16
2.50684e-17
1.96893e-18
1.5375e-19
1.19379e-20
9.21734e-22
7.07614e-23
5.39766e-24
4.09025e-25
2.97026e-26
1
1
1
1
1
1
1
1
1
1
1
1
1
1
1
1
1
1
1
1
1
1
1
0.451424
0.00260944
7.97266e-05
5.88762e-06
4.20312e-07
3.06835e-08
2.29567e-09
1.82829e-10
1.8532e-11
3.22961e-12
3.88909e-13
3.05601e-14
2.29398e-15
1.75248e-16
1.33373e-17
1.0094e-18
7.59523e-20
5.68083e-21
4.22233e-22
3.11705e-23
2.2833e-24
1.65718e-25
1.15305e-26
1
1
1
1
1
1
1
1
1
1
1
1
1
1
1
1
1
1
1
1
1
1
1
0.429928
0.0018898
6.74436e-05
4.76229e-06
3.26951e-07
2.29278e-08
1.65007e-09
1.30331e-10
1.23967e-11
2.28602e-12
2.45855e-13
1.79287e-14
1.30108e-15
9.56585e-17
7.00465e-18
5.10198e-19
3.69498e-20
2.65956e-21
1.9015e-22
1.34938e-23
9.49325e-25
6.61026e-26
4.40942e-27
1
1
1
1
1
1
1
1
1
1
1
1
1
1
1
1
1
1
1
1
1
1
1
0.40898
0.00128791
5.69487e-05
3.81584e-06
2.51804e-07
1.69665e-08
1.17562e-09
9.22489e-11
8.1761e-12
1.5652e-12
1.53057e-13
1.042e-14
7.28552e-16
5.14553e-17
3.61933e-18
2.53309e-19
1.76308e-20
1.2196e-21
8.37861e-23
5.71109e-24
3.85731e-25
2.57701e-26
1.64866e-27
1
1
1
1
1
1
1
1
1
1
1
1
1
1
1
1
1
1
1
1
1
1
1
0.388613
0.000787663
4.71322e-05
3.02682e-06
1.9159e-07
1.23888e-08
8.26446e-10
6.44516e-11
5.37065e-12
1.04115e-12
9.32698e-14
5.96838e-15
4.01309e-16
2.71756e-17
1.83297e-18
1.23055e-19
8.21756e-21
5.45466e-22
3.59583e-23
2.35165e-24
1.52362e-25
9.76186e-27
5.98795e-28
1
1
1
1
1
1
1
1
1
1
1
1
1
1
1
1
1
1
1
1
1
1
1
0.368724
0.000652407
3.87386e-05
2.38082e-06
1.44199e-07
8.92919e-09
5.73223e-10
4.4019e-11
3.45507e-12
6.72257e-13
5.56545e-14
3.35739e-15
2.16518e-16
1.40328e-17
9.05986e-19
5.82375e-20
3.72478e-21
2.36849e-22
1.49596e-23
9.37443e-25
5.81991e-26
3.57312e-27
2.10016e-28
1
1
1
1
1
1
1
1
1
1
1
1
1
1
1
1
1
1
1
1
1
1
1
0.349316
0.000558235
3.16902e-05
1.8603e-06
1.0754e-07
6.36076e-09
3.92906e-10
2.96136e-11
2.34196e-12
4.24608e-13
3.2105e-14
1.84664e-15
1.1408e-16
7.05923e-18
4.35327e-19
2.67382e-20
1.63461e-21
9.93835e-23
6.00377e-24
3.59945e-25
2.13849e-26
1.25675e-27
7.07207e-29
1
1
1
1
1
1
1
1
1
1
1
1
1
1
1
1
1
1
1
1
1
1
1
0.330415
0.000475478
2.57691e-05
1.44213e-06
7.9384e-08
4.47422e-09
2.65431e-10
1.95553e-11
1.81325e-12
2.63963e-13
1.77633e-14
9.9367e-16
5.85556e-17
3.45033e-18
2.02693e-19
1.18652e-20
6.91651e-22
4.01182e-23
2.31328e-24
1.32446e-25
7.51847e-27
4.22389e-28
2.27328e-29
1
1
1
1
1
1
1
1
1
1
1
1
1
1
1
1
1
1
1
1
1
1
1
0.312053
0.000362655
2.08057e-05
1.10747e-06
5.79015e-08
3.10169e-09
1.74845e-10
1.26032e-11
1.5e-12
1.61137e-13
9.57388e-15
5.21359e-16
2.91887e-17
1.63268e-18
9.10903e-20
5.06704e-21
2.80867e-22
1.55024e-23
8.51255e-25
4.64493e-26
2.51487e-27
1.34861e-28
6.93371e-30
1
1
1
1
1
1
1
1
1
1
1
1
1
1
1
1
1
1
1
1
1
1
1
0.294189
0.000282492
1.66604e-05
8.41279e-07
4.16532e-08
2.11507e-09
1.12737e-10
7.89796e-12
1.11989e-12
9.51479e-14
5.08644e-15
2.65121e-16
1.40511e-17
7.43694e-19
3.92809e-20
2.07003e-21
1.08792e-22
5.69868e-24
2.97269e-25
1.54256e-26
7.9509e-28
4.06339e-29
1.99343e-30
1
1
1
1
1
1
1
1
1
1
1
1
1
1
1
1
1
1
1
1
1
1
1
0.276777
0.00022421
1.32153e-05
6.31164e-07
2.94995e-08
1.41774e-09
7.09707e-11
4.78783e-12
7.50097e-13
5.41456e-14
2.62841e-15
1.29926e-16
6.492e-18
3.23928e-19
1.614e-20
8.0307e-22
3.9893e-23
1.97756e-24
9.77547e-26
4.81351e-27
2.35764e-28
1.14655e-29
5.3616e-31
1
1
1
1
1
1
1
1
1
1
1
1
1
1
1
1
1
1
1
1
1
1
1
0.259769
0.000179275
1.03684e-05
4.66753e-07
2.05086e-08
9.28666e-10
4.49411e-11
2.79793e-12
4.68354e-13
2.95657e-14
1.31052e-15
6.09942e-17
2.85939e-18
1.33902e-19
6.2676e-21
2.93327e-22
1.37258e-23
6.41999e-25
2.99964e-26
1.39865e-27
6.49865e-29
3.0033e-30
1.33771e-31
1
1
1
1
1
1
1
1
1
1
1
1
1
1
1
1
1
1
1
1
1
1
1
0.243119
0.000143316
8.03144e-06
3.39397e-07
1.3951e-08
5.9127e-10
2.7723e-11
1.57465e-12
2.74872e-13
1.5423e-14
6.25658e-16
2.72229e-17
1.19053e-18
5.20494e-20
2.27771e-21
9.98376e-23
4.38455e-24
1.92907e-25
8.4983e-27
3.745e-28
1.64837e-29
7.23218e-31
3.06721e-32
1
1
1
1
1
1
1
1
1
1
1
1
1
1
1
1
1
1
1
1
1
1
1
0.226783
0.000113894
6.12821e-06
2.41885e-07
9.26095e-09
3.63501e-10
1.65015e-11
8.6453e-13
1.52247e-13
7.62633e-15
2.83313e-16
1.1439e-17
4.63521e-19
1.88038e-20
7.65142e-22
3.12659e-23
1.28381e-24
5.29744e-26
2.19563e-27
9.13118e-29
3.80411e-30
1.58401e-31
6.39837e-33
1
1
1
1
1
1
1
1
1
1
1
1
1
1
1
1
1
1
1
1
1
1
1
0.210713
8.95293e-05
4.59281e-06
1.68173e-07
5.94828e-09
2.14718e-10
9.42301e-12
5.13761e-13
8.00447e-14
3.50838e-15
1.20284e-16
4.46921e-18
1.66421e-19
6.22004e-21
2.33939e-22
8.86933e-24
3.39292e-25
1.30987e-26
5.10051e-28
2.00069e-29
7.89001e-31
3.11997e-32
1.20183e-33
1
1
1
1
1
1
1
1
1
1
1
1
1
1
1
1
1
1
1
1
1
1
1
0.194865
6.92629e-05
3.36833e-06
1.13721e-07
3.66046e-09
1.20097e-10
5.07098e-12
5.07661e-13
4.04e-14
1.43199e-15
4.72815e-17
1.5966e-18
5.41102e-20
1.8482e-21
6.38481e-23
2.23607e-24
7.94793e-26
2.8673e-27
1.04893e-28
3.88422e-30
1.45227e-31
5.46449e-33
2.01243e-34
1
1
1
1
1
1
1
1
1
1
1
1
1
1
1
1
1
1
1
1
1
1
1
0.179185
5.24317e-05
2.40488e-06
7.40327e-08
2.13504e-09
6.23374e-11
2.50575e-12
3.82049e-13
1.89183e-14
5.61444e-16
1.6817e-17
5.08943e-19
1.55282e-20
4.80778e-22
1.51756e-23
4.89643e-25
1.6163e-26
5.45528e-28
1.8793e-29
6.59014e-31
2.34427e-32
8.42432e-34
2.9779e-35
1
1
1
1
1
1
1
1
1
1
1
1
1
1
1
1
1
1
1
1
1
1
1
0.163603
3.85444e-05
1.65592e-06
4.5685e-08
1.14449e-09
2.95504e-11
1.1e-12
2.1406e-13
7.91458e-15
1.97177e-16
5.21635e-18
1.39461e-19
3.7927e-21
1.05852e-22
3.0479e-24
9.07362e-26
2.79191e-27
8.86043e-29
2.89078e-30
9.65623e-32
3.28697e-33
1.13425e-34
3.8691e-36
1
1
1
1
1
1
1
1
1
1
1
1
1
1
1
1
1
1
1
1
1
1
1
0.148053
2.7335e-05
1.09377e-06
2.65958e-08
5.57749e-10
1.14943e-11
4.1204e-13
9.69067e-14
2.82576e-15
5.86935e-17
1.33974e-18
3.123e-20
7.53121e-22
1.89726e-23
5.01262e-25
1.38854e-26
4.02076e-28
1.21151e-29
3.77823e-31
1.21252e-32
3.9802e-34
1.32795e-35
4.39884e-37
1
1
1
1
1
1
1
1
1
1
1
1
1
1
1
1
1
1
1
1
1
1
1
0.132495
1.84482e-05
6.84689e-07
1.41248e-08
2.40973e-10
3.81162e-12
1.3231e-13
3.54058e-14
7.95446e-16
1.37738e-17
2.65978e-19
5.3829e-21
1.1597e-22
2.67466e-24
6.59339e-26
1.72802e-27
4.78154e-29
1.38649e-30
4.18178e-32
1.30242e-33
4.15878e-35
1.35162e-36
4.25537e-38
0.999998
0.999999
0.999999
1
1
1
1
1
1
1
1
1
1
1
1
1
1
1
1
1
1
1
1
0.116897
1.16957e-05
4.00826e-07
6.64261e-09
7.93341e-11
1.06328e-12
2.22729e-13
9.75238e-15
1.45342e-16
2.20886e-18
3.61813e-20
6.50638e-22
1.29049e-23
2.80671e-25
6.62665e-27
1.6798e-28
4.52376e-30
1.28169e-31
3.7865e-33
1.15631e-34
3.62108e-36
1.1534e-37
1.26293e-39
0.99999
0.999993
0.999996
0.999998
0.999998
0.999999
0.999999
0.999999
0.999999
0.999999
0.999999
0.999999
0.999999
0.999999
0.999999
0.999999
0.999999
0.999999
0.999999
0.999999
0.999999
0.999999
0.999999
0.101205
6.73577e-06
2.14471e-07
2.53747e-09
1.53247e-11
1.80381e-13
1.42868e-13
1.74331e-15
1.93447e-17
2.47087e-19
3.64843e-21
6.18819e-23
1.1849e-24
2.51622e-26
5.83159e-28
1.45451e-29
3.85724e-31
1.07615e-32
3.12865e-34
9.42874e-36
2.92335e-37
9.21711e-39
2.117e-40
0.999947
0.999963
0.999977
0.999986
0.99999
0.999993
0.999994
0.999995
0.999995
0.999996
0.999996
0.999995
0.999995
0.999995
0.999995
0.999994
0.999994
0.999993
0.999993
0.999992
0.999992
0.999991
0.999991
0.0850672
3.42441e-06
1.00956e-07
5.46231e-10
-6.39799e-13
1.0225e-12
2.55929e-14
1.6699e-16
1.82167e-18
2.35646e-20
3.47972e-22
5.81616e-24
1.08599e-25
2.23422e-27
4.99728e-29
1.20031e-30
3.06175e-32
8.2112e-34
2.2929e-35
6.72732e-37
2.05947e-38
6.39508e-40
1.92709e-41
0.999727
0.999801
0.999868
0.999911
0.999937
0.999952
0.99996
0.999965
0.999967
0.999968
0.999968
0.999966
0.999965
0.999963
0.999961
0.999959
0.999956
0.999953
0.99995
0.999947
0.999944
0.999941
0.999937
0.0680762
1.43742e-06
3.73259e-08
-6.57096e-11
1.9869e-11
1.5628e-13
2.05451e-15
1.61239e-17
1.86097e-19
2.409e-21
3.47221e-23
5.60508e-25
1.00696e-26
1.9916e-28
4.28418e-30
9.9048e-32
2.43416e-33
6.29499e-35
1.69652e-36
4.78879e-38
1.40459e-39
4.17023e-41
1.14177e-42
0.998578
0.998916
0.999233
0.99945
0.999588
0.999671
0.99972
0.999747
0.99976
0.999764
0.999762
0.999756
0.999747
0.999735
0.999722
0.999707
0.999691
0.999674
0.999656
0.999637
0.99962
0.999603
0.99958
0.0536726
2.71703e-07
3.73785e-09
-7.16741e-11
-1.13973e-13
7.66098e-16
2.04198e-16
1.75106e-18
1.96684e-20
2.43388e-22
3.35178e-24
5.18147e-26
8.93913e-28
1.70213e-29
3.53237e-31
7.89146e-33
1.87632e-34
4.69879e-36
1.22709e-37
3.35086e-39
9.48886e-41
2.71452e-42
7.11033e-44
0.992585
0.994089
0.995534
0.996592
0.997304
0.997752
0.998022
0.998173
0.998246
0.998267
0.998254
0.998216
0.998161
0.998093
0.998016
0.99793
0.997837
0.997738
0.997634
0.997528
0.997424
0.997339
0.997184
0.0477016
-9.03728e-07
-3.19338e-10
-3.21155e-11
-9.29091e-14
8.41541e-16
2.11137e-17
1.77797e-19
1.92607e-21
2.29076e-23
3.03062e-25
4.50676e-27
7.49326e-29
1.3776e-30
2.76456e-32
5.97984e-34
1.37794e-35
3.34659e-37
8.47986e-39
2.24799e-40
6.18029e-42
1.71195e-43
4.34154e-45
0.623481
0.692367
0.746291
0.789115
0.8204
0.841123
0.853741
0.860588
0.863486
0.863717
0.862178
0.85943
0.855836
0.851611
0.846886
0.841742
0.836239
0.83043
0.824338
0.817938
0.811535
0.805085
0.795414
0.0437315
-1.09458e-06
-1.24776e-11
-1.09984e-12
-1.10519e-14
2.70298e-16
1.92445e-18
1.60063e-20
1.69835e-22
1.96345e-24
2.51854e-26
3.63025e-28
5.85402e-30
1.04464e-31
2.03638e-33
4.28131e-35
9.5933e-37
2.26629e-38
5.58654e-40
1.44057e-41
3.85041e-43
1.03383e-44
2.54086e-46
0.0246158
0.0544244
0.0786254
0.103928
0.126413
0.14368
0.155346
0.16211
0.165078
0.165329
0.16373
0.160898
0.157253
0.153061
0.148489
0.143651
0.13863
0.133496
0.128282
0.122976
0.117867
0.111559
0.127793
0.0154412
-1.08571e-07
-7.30994e-16
1.23836e-13
-2.32897e-17
8.87034e-18
1.14165e-19
1.17696e-21
1.2699e-23
1.46623e-25
1.86088e-27
2.64042e-29
4.17924e-31
7.30726e-33
1.39411e-34
2.86629e-36
6.27708e-38
1.44853e-39
3.48643e-41
8.77266e-43
2.28591e-44
5.96238e-46
1.42312e-47
8.11812e-45
7.40588e-45
8.36754e-44
1.18795e-40
9.46478e-39
5.53471e-37
2.66192e-35
1.08698e-33
3.89291e-32
1.25578e-30
3.87813e-29
1.08465e-27
2.77893e-26
6.57331e-25
1.4455e-23
2.97823e-22
5.80583e-21
1.08181e-19
1.94279e-18
3.36763e-17
5.56457e-16
8.33668e-15
1.05799e-13
1.11206e-12
1.14208e-11
4.72977e-13
8.70158e-15
-5.64706e-18
1.19163e-19
2.94593e-21
5.23204e-23
7.05873e-25
8.80177e-27
1.15825e-28
1.66983e-30
2.6527e-32
4.61888e-34
8.73001e-36
1.77181e-37
3.82052e-39
8.66404e-41
2.04623e-42
5.0452e-44
1.2862e-45
3.26805e-47
7.59523e-49
7.40584e-45
4.31963e-44
2.01558e-43
1.09148e-39
3.36278e-37
3.28171e-35
1.98995e-33
8.98839e-32
3.32611e-30
1.05974e-28
3.0004e-27
7.64163e-26
1.75426e-24
3.64279e-23
6.80501e-22
1.12992e-20
1.60961e-19
1.76048e-18
1.52481e-17
2.46463e-16
4.03303e-15
6.60461e-14
4.59963e-12
1.25217e-10
3.61933e-10
1.91825e-13
1.03086e-16
1.21386e-18
-1.58484e-19
5.82996e-23
1.10023e-24
2.40022e-27
3.19112e-28
5.33198e-30
8.57527e-32
1.43292e-33
2.56053e-35
4.89415e-37
9.95087e-39
2.13602e-40
4.80083e-42
1.12012e-43
2.72117e-45
6.81821e-47
1.69341e-48
3.84442e-50
4.07781e-45
7.05784e-44
5.96922e-42
7.03766e-41
2.15821e-38
3.24124e-36
2.69314e-34
1.53297e-32
6.75583e-31
2.44951e-29
7.65605e-28
2.12487e-26
5.075e-25
8.57365e-24
1.30995e-22
1.80048e-21
2.98263e-20
7.7587e-19
1.20017e-17
9.23219e-17
1.34525e-14
3.60494e-13
1.23064e-12
1.48248e-12
4.07311e-13
3.72949e-15
7.97776e-18
1.0215e-19
1.10863e-21
9.18025e-24
9.16138e-26
9.60783e-28
1.07537e-29
1.4978e-31
2.76298e-33
5.89575e-35
1.18068e-36
2.37582e-38
4.96371e-40
1.0792e-41
2.43406e-43
5.66343e-45
1.36559e-46
3.38273e-48
8.24761e-50
1.83608e-51
2.89938e-46
3.59067e-45
-7.54259e-42
-1.5869e-39
-7.22225e-38
-2.54503e-36
-7.44316e-35
-1.7185e-33
-3.3805e-32
-5.35522e-31
-5.45546e-30
1.95624e-29
5.48626e-28
-3.99878e-26
-2.05876e-24
-6.17436e-23
-1.3465e-21
-2.35649e-20
-3.60549e-19
-3.75923e-18
2.23784e-16
3.25542e-15
9.46389e-15
1.04423e-14
4.0647e-17
6.28609e-18
4.94211e-19
7.0811e-21
8.08214e-23
6.69704e-25
6.47788e-27
6.76468e-29
7.61546e-31
9.50829e-33
1.32227e-34
2.01772e-36
3.75571e-38
9.19762e-40
2.1159e-41
4.81044e-43
1.11061e-44
2.61278e-46
6.3167e-48
1.55892e-49
3.75127e-51
8.22821e-53
-3.80755e-48
4.44529e-47
2.12609e-45
1.53964e-43
9.78305e-42
3.79081e-40
1.2389e-38
3.39054e-37
8.27834e-36
1.88194e-34
3.70478e-33
6.62378e-32
1.08286e-30
1.63123e-29
2.21519e-28
2.64741e-27
2.58711e-26
1.74476e-25
3.67109e-23
1.22669e-20
7.44907e-19
9.27729e-18
2.66754e-17
3.02938e-17
1.39532e-18
7.20774e-20
2.50037e-20
3.92671e-22
4.84608e-24
4.19434e-26
3.94447e-28
4.17668e-30
4.70257e-32
5.80546e-34
7.97543e-36
1.20714e-37
1.99468e-39
3.54374e-41
6.96862e-43
1.78933e-44
4.44242e-46
1.08166e-47
2.66141e-49
6.61359e-51
1.58151e-52
3.43847e-54
3.28226e-53
-1.04425e-48
-3.67408e-47
-1.89203e-46
-4.72311e-45
-1.22532e-43
-5.18068e-42
-1.40654e-40
-1.16896e-39
-1.35932e-38
6.69448e-38
8.70396e-36
3.0034e-34
5.24113e-33
4.38076e-32
-7.07346e-31
-3.48938e-29
-7.50909e-28
1.24428e-25
6.20133e-24
1.70267e-22
2.48655e-21
1.17378e-20
2.51154e-20
2.80758e-20
1.30155e-21
6.26411e-22
1.69988e-23
2.34317e-25
2.20501e-27
1.97006e-29
2.22766e-31
2.55959e-33
3.15371e-35
4.32528e-37
6.50386e-39
1.06442e-40
1.87772e-42
3.5325e-44
7.00798e-46
1.47095e-47
3.87698e-49
1.00421e-50
2.5535e-52
6.12444e-54
1.33018e-55
-3.81216e-54
-2.4948e-52
-6.04667e-50
-1.62895e-48
-4.34674e-47
-1.14832e-45
-2.52194e-44
-5.04139e-43
-8.8593e-42
-1.24669e-40
-1.22139e-39
-2.29335e-40
1.07325e-37
-1.19221e-36
-1.4444e-34
-4.41136e-33
-8.60014e-32
1.52854e-30
1.01806e-28
1.66775e-27
2.13753e-26
3.10925e-25
6.13787e-24
6.00342e-23
1.42276e-22
8.43325e-23
5.47868e-24
3.82114e-25
8.98522e-27
9.32448e-29
1.00351e-30
8.28926e-33
1.20893e-34
1.51156e-36
2.09094e-38
3.15405e-40
5.15323e-42
9.04718e-44
1.68969e-45
3.3235e-47
6.81558e-49
1.45936e-50
3.25169e-52
8.78129e-54
2.15154e-55
4.71831e-57
-2.13463e-58
4.86937e-57
5.14935e-55
3.19417e-53
1.27107e-51
4.57354e-50
1.75013e-48
4.83226e-47
1.19781e-45
2.66765e-44
5.34656e-43
9.79761e-42
1.6518e-40
2.56473e-39
3.68115e-38
4.88145e-37
1.91282e-35
2.42582e-33
4.90744e-32
7.50099e-31
9.76078e-30
1.23533e-28
1.70002e-27
1.94364e-26
2.91219e-25
1.02357e-24
2.25955e-26
4.35035e-27
2.42122e-28
3.17318e-30
3.81264e-32
4.02988e-34
4.91188e-36
6.35147e-38
8.94112e-40
1.36684e-41
2.24939e-43
3.95977e-45
7.39071e-47
1.44876e-48
2.95405e-50
6.2764e-52
1.37437e-53
3.00672e-55
6.73909e-57
1.51949e-58
-6.45187e-62
-3.33953e-60
-5.21892e-59
-4.11692e-57
-1.62405e-55
-4.77831e-54
-2.05082e-52
-4.75791e-51
-5.73129e-50
-8.72168e-49
-7.11356e-48
1.06431e-46
5.27414e-45
8.2778e-44
-2.8044e-43
-8.34463e-41
8.55198e-38
2.91183e-36
5.50291e-35
8.39685e-34
1.11863e-32
1.32483e-31
1.47267e-30
1.99726e-29
8.08845e-28
3.64002e-27
6.68745e-30
3.02857e-29
2.92871e-30
8.59383e-32
1.16143e-33
1.41607e-35
1.70431e-37
2.30874e-39
3.36337e-41
5.25918e-43
8.79923e-45
1.56585e-46
2.94122e-48
5.78162e-50
1.17864e-51
2.49712e-53
5.4385e-55
1.17649e-56
2.31226e-58
5.30634e-60
-1.22346e-66
-3.98754e-65
-1.09024e-62
-3.73796e-61
-4.43706e-60
8.4477e-59
1.01352e-56
4.88233e-55
1.65493e-53
4.76552e-52
1.19915e-50
2.672e-49
4.92351e-48
7.27167e-47
5.72117e-46
2.16266e-44
7.30902e-42
2.00399e-40
3.76134e-39
5.92099e-38
8.28118e-37
1.05154e-35
1.27769e-34
1.76616e-33
2.5876e-32
6.78998e-31
3.5692e-30
6.89945e-32
2.24404e-32
1.27918e-33
2.85822e-35
3.95288e-37
5.1816e-39
7.22917e-41
1.10344e-42
1.78553e-44
3.06768e-46
5.56567e-48
1.05996e-49
2.10317e-51
4.31169e-53
9.15668e-55
1.99282e-56
4.29227e-58
8.37688e-60
1.90389e-61
-2.55559e-70
-2.01633e-68
-1.44238e-66
-7.4661e-65
-3.0625e-63
-8.3926e-62
-1.75513e-60
-3.38034e-59
-4.47039e-58
-8.81967e-58
1.76523e-55
6.8702e-54
1.2898e-52
2.27914e-51
3.74473e-50
2.50977e-47
5.45312e-45
1.39886e-43
2.6584e-42
4.32042e-41
6.32368e-40
8.56289e-39
1.08367e-37
1.29242e-36
1.66264e-35
1.2167e-33
8.07669e-33
1.73204e-35
9.14074e-35
1.06146e-35
3.46967e-37
8.62164e-39
1.32758e-40
2.01516e-42
3.16269e-44
5.32743e-46
9.48638e-48
1.76975e-49
3.44408e-51
6.94568e-53
1.44077e-54
3.0839e-56
6.74024e-58
1.45198e-59
2.82571e-61
6.38394e-63
2.46927e-75
5.26971e-73
5.24781e-71
3.43559e-69
1.74513e-67
7.27626e-66
2.60446e-64
8.24839e-63
2.34218e-61
6.00007e-60
1.40744e-58
3.04679e-57
6.11548e-56
1.13553e-54
1.93307e-53
2.70124e-51
2.22706e-49
5.69616e-48
1.12203e-46
1.91715e-45
2.97531e-44
4.29983e-43
5.88414e-42
7.69375e-41
9.62097e-40
1.23952e-38
1.11661e-36
8.99873e-36
1.06234e-37
5.37764e-38
2.74238e-39
9.89486e-41
2.35912e-42
4.60163e-44
7.95239e-46
1.40666e-47
2.59392e-49
5.01515e-51
1.00507e-52
2.07475e-54
4.38242e-56
9.50892e-58
2.098e-59
4.54161e-61
8.8525e-63
1.99579e-64
-2.92608e-79
-4.49849e-77
-3.8439e-75
-2.13426e-73
-9.13167e-72
-3.14142e-70
-8.8946e-69
-2.11295e-67
-4.12549e-66
-5.82744e-65
-2.29628e-64
1.75098e-62
5.29336e-61
3.70704e-60
3.16861e-58
1.51594e-54
9.94792e-53
2.62608e-51
5.45047e-50
9.89919e-49
1.6424e-47
2.54883e-46
3.7593e-45
5.31442e-44
7.19541e-43
1.00774e-41
1.08473e-39
9.61889e-39
1.96848e-41
1.28215e-40
1.46979e-41
8.04951e-43
2.68887e-44
6.4048e-46
1.40966e-47
2.97599e-49
6.24211e-51
1.26995e-52
2.6373e-54
5.59849e-56
1.21097e-57
2.67758e-59
5.99458e-61
1.31035e-62
2.56978e-64
5.80476e-66
6.42234e-85
1.4811e-82
1.58067e-80
1.15934e-78
6.6287e-77
3.13819e-75
1.26266e-73
4.45114e-72
1.40723e-70
4.04634e-69
1.07023e-67
2.62939e-66
6.02787e-65
1.26596e-63
6.07966e-62
4.34561e-59
2.79941e-57
7.7872e-56