/*--------------------------------*- C++ -*----------------------------------*\
  =========                 |
  \\      /  F ield         | OpenFOAM: The Open Source CFD Toolbox
   \\    /   O peration     | Website:  https://openfoam.org
    \\  /    A nd           | Version:  7
     \\/     M anipulation  |
\*---------------------------------------------------------------------------*/
FoamFile
{
    version     2.0;
    format      ascii;
    class       volScalarField;
    location    "0.05";
    object      p_rgh;
}
// * * * * * * * * * * * * * * * * * * * * * * * * * * * * * * * * * * * * * //

dimensions      [1 -1 -2 0 0 0 0];

internalField   nonuniform List<scalar> 
7700
(
1259.54
1260.04
1258.43
1253.85
1245.75
1233.94
1218.49
1199.53
1177.2
1151.61
1122.82
1090.82
1055.56
1016.9
974.636
928.484
878.019
822.66
761.569
693.658
617.375
530.766
434.031
328.537
216.244
114.285
51.0368
16.0218
4.86666
3.64231
3.02731
2.71575
2.57346
2.48042
2.40423
2.33944
2.28303
2.23344
2.19028
2.15349
2.12317
2.09945
2.08233
2.07159
2.06671
2.06653
1259.1
1259.3
1257.11
1251.91
1243.4
1231.39
1215.83
1196.81
1174.42
1148.76
1119.86
1087.73
1052.28
1013.38
970.814
924.27
873.293
817.248
755.238
686.092
608.063
519.303
420.178
310.151
189.622
80.9809
16.5114
3.10231
2.76991
2.80651
2.77671
2.64137
2.55484
2.47702
2.40445
2.34065
2.28432
2.23462
2.1913
2.15437
2.12396
2.10015
2.08288
2.07178
2.06655
2.06627
1259.49
1259.63
1256.95
1251
1241.86
1229.41
1213.57
1194.35
1171.8
1145.99
1116.92
1084.58
1048.89
1009.7
966.769
919.765
868.196
811.382
748.385
677.993
598.497
508.555
408.584
294.857
166.67
46.4393
4.42124
3.20688
2.79556
2.60683
2.58217
2.57136
2.52503
2.46041
2.39586
2.33575
2.28097
2.23185
2.18863
2.15151
2.12069
2.09634
2.07839
2.06664
2.06148
2.06197
1260.96
1261.33
1258.66
1252.32
1242.63
1229.68
1213.43
1193.88
1171.06
1145.01
1115.72
1083.17
1047.25
1007.82
964.62
917.299
865.357
808.118
744.681
673.92
594.451
505.479
407.062
293.577
148.415
22.4379
4.14214
3.00543
2.68972
2.58989
2.55847
2.53703
2.4953
2.43997
2.38181
2.32528
2.27236
2.22407
2.18098
2.14346
2.11187
2.0865
2.06749
2.05512
2.05063
2.05251
1263.72
1264.33
1261.93
1255.6
1245.65
1232.33
1215.7
1195.81
1172.69
1146.38
1116.88
1084.15
1048.08
1008.51
965.207
917.806
865.834
808.665
745.502
675.406
597.407
511.189
416.507
308.681
128.052
10.6169
3.78855
2.88915
2.65808
2.58169
2.54574
2.51328
2.47001
2.41838
2.36393
2.31006
2.25878
2.21126
2.16819
2.13009
2.09745
2.07078
2.05053
2.03758
2.03386
2.03695
1267.91
1268.68
1266.61
1260.52
1250.61
1237.14
1220.29
1200.14
1176.78
1150.27
1120.61
1087.77
1051.65
1012.11
968.889
921.673
870.029
813.411
751.162
682.575
607.08
524.776
435.189
329.347
110.309
6.44848
3.47237
2.81552
2.65025
2.58069
2.53421
2.49243
2.44617
2.3954
2.34286
2.29077
2.24072
2.19376
2.15057
2.11173
2.07787
2.04968
2.02795
2.01417
2.01072
2.01431
1273.61
1274.46
1272.69
1266.96
1257.29
1243.91
1227.02
1206.77
1183.29
1156.69
1126.98
1094.15
1058.12
1018.76
975.838
929.068
878.079
822.421
761.588
695.103
622.742
544.914
460.884
348.57
94.8378
5.60192
3.22645
2.76011
2.64153
2.57266
2.51873
2.47054
2.42142
2.37044
2.31877
2.26778
2.21859
2.17198
2.12855
2.08886
2.05363
2.02368
2.00005
1.98469
1.98051
1.9832
1280.84
1281.73
1280.22
1274.9
1265.6
1252.48
1235.74
1215.56
1192.13
1165.56
1135.94
1103.26
1067.48
1028.47
986.052
939.964
889.907
835.531
776.469
712.445
643.5
570.22
491.516
368.748
82.2711
4.88762
3.04513
2.71397
2.6231
2.55496
2.49736
2.44543
2.39429
2.34287
2.29164
2.24138
2.1928
2.14642
2.10267
2.06208
2.02534
1.99331
1.96705
1.94879
1.94234
1.94105
1289.58
1290.49
1289.21
1284.3
1275.46
1262.73
1246.3
1226.36
1203.13
1176.76
1147.37
1115
1079.62
1041.13
999.387
954.183
905.281
852.417
795.348
733.954
668.451
599.47
525.463
388.569
72.1246
4.37684
2.90967
2.67028
2.59541
2.52869
2.46995
2.41626
2.364
2.31236
2.2615
2.21185
2.16377
2.11757
2.07351
2.03202
1.99368
1.95919
1.92934
1.90618
1.89505
1.88158
1299.81
1300.73
1299.65
1295.14
1286.78
1274.54
1258.54
1238.98
1216.09
1190.07
1161.06
1129.14
1094.3
1056.49
1015.58
971.427
923.842
872.643
817.679
758.945
696.755
631.674
561.643
408.101
63.836
3.99167
2.8041
2.62605
2.56033
2.49546
2.43705
2.3829
2.33036
2.2789
2.22857
2.17954
2.13199
2.086
2.04172
1.99942
1.95949
1.92223
1.88781
1.8573
1.83507
1.79377
1.10598
1.10595
1.10409
1.09995
1.09355
1.08522
1.07538
1.06443
1.05274
1.04057
1.02815
1.01566
1.0032
0.990888
0.978786
0.966951
0.955426
0.94425
0.933455
0.923073
0.913131
0.903655
0.894665
0.886177
0.878198
0.870733
0.863783
0.857345
0.851419
0.846007
0.841113
0.836749
0.832931
0.829682
0.827027
0.824989
0.823576
0.822762
0.822458
0.822518
1.10584
1.10566
1.10355
1.09923
1.09285
1.08463
1.07495
1.06415
1.05258
1.04051
1.02818
1.01574
1.00333
0.991057
0.978984
0.967171
0.955661
0.944493
0.933703
0.923322
0.913379
0.903902
0.894911
0.886422
0.878443
0.870979
0.86403
0.857593
0.851669
0.846257
0.841365
0.837003
0.833187
0.829939
0.827281
0.825231
0.823785
0.822911
0.822546
0.822566
1.10643
1.10632
1.10399
1.09932
1.09273
1.08447
1.07482
1.06408
1.05258
1.04057
1.02828
1.01587
1.00349
0.991234
0.979176
0.967372
0.955869
0.944703
0.933911
0.923526
0.913578
0.904094
0.895097
0.886603
0.878621
0.871155
0.864204
0.857767
0.851842
0.846429
0.841534
0.837167
0.833343
0.830081
0.827399
0.825308
0.823797
0.822842
0.822431
0.822448
1.10797
1.10824
1.10594
1.10092
1.0939
1.08531
1.07542
1.06454
1.05292
1.04083
1.02848
1.01602
1.00359
0.991301
0.979219
0.967399
0.955884
0.944709
0.933908
0.923511
0.91355
0.904053
0.895044
0.886538
0.878547
0.871073
0.864117
0.857674
0.851742
0.846321
0.841415
0.837031
0.833183
0.829888
0.827162
0.825012
0.823435
0.822433
0.822042
0.822106
1.11053
1.11145
1.10936
1.10402
1.09642
1.08724
1.07685
1.06556
1.05364
1.0413
1.02875
1.01613
1.00358
0.991192
0.979043
0.967178
0.955634
0.94444
0.933623
0.923212
0.913235
0.90372
0.894692
0.886168
0.87816
0.870671
0.863701
0.857246
0.851301
0.845864
0.840937
0.836526
0.832643
0.829305
0.826528
0.824326
0.822708
0.821709
0.821377
0.821495
1.11423
1.11611
1.11431
1.10857
1.10022
1.0902
1.07905
1.06712
1.05468
1.04193
1.02904
1.01615
1.0034
0.990857
0.9786
0.966663
0.955075
0.943855
0.93302
0.922592
0.912597
0.903062
0.89401
0.885462
0.87743
0.869919
0.862929
0.856454
0.850489
0.84503
0.840076
0.835633
0.831712
0.828331
0.825512
0.823277
0.821653
0.82069
0.820425
0.820584
1.11936
1.12251
1.12097
1.11463
1.10526
1.09411
1.08192
1.06911
1.05595
1.04263
1.02928
1.01603
1.00299
0.990247
0.977844
0.965814
0.95417
0.942918
0.932064
0.921621
0.911608
0.90205
0.892971
0.884394
0.876334
0.868795
0.861779
0.855279
0.849289
0.843803
0.838821
0.834345
0.830391
0.826978
0.824134
0.821891
0.820289
0.819381
0.819176
0.819362
1.12464
1.13095
1.12974
1.12229
1.11148
1.09886
1.08533
1.07141
1.05735
1.04331
1.02938
1.01569
1.00231
0.989315
0.976738
0.964598
0.95289
0.941604
0.930732
0.920275
0.910246
0.900665
0.891559
0.882951
0.874858
0.867288
0.860241
0.853713
0.847695
0.842182
0.837172
0.83267
0.828691
0.82526
0.822411
0.820184
0.818625
0.817779
0.817624
0.817826
1.12409
1.14319
1.14209
1.1319
1.11886
1.10429
1.08911
1.07385
1.05873
1.04385
1.02927
1.01507
1.0013
0.988022
0.975253
0.962992
0.951217
0.939898
0.92901
0.918542
0.908498
0.898898
0.889766
0.881127
0.873
0.865397
0.858318
0.85176
0.845715
0.840176
0.835144
0.830623
0.826631
0.823198
0.820363
0.818172
0.81667
0.815887
0.815773
0.815985
1.12654
1.16629
1.16123
1.14423
1.12734
1.11018
1.09302
1.07623
1.05993
1.04413
1.02884
1.01409
0.999915
0.98634
0.973371
0.960987
0.949144
0.937794
0.926893
0.916419
0.906367
0.89675
0.887595
0.878928
0.870769
0.863133
0.856023
0.849436
0.843366
0.837807
0.832758
0.828227
0.824235
0.820815
0.81801
0.815869
0.814431
0.813711
0.813632
0.813848
1311.57
1312.49
1311.59
1307.45
1299.58
1287.87
1272.38
1253.3
1230.89
1205.34
1176.85
1145.5
1111.35
1074.34
1034.41
991.432
945.286
895.846
843.036
786.923
727.866
666.285
599.606
427.248
56.781
3.69384
2.71691
2.57951
2.51907
2.4564
2.39918
2.34551
2.29341
2.24257
2.19299
2.14472
2.09777
2.05213
2.0078
1.9649
1.92355
1.88353
1.84395
1.80325
1.75412
1.63541
1324.92
1325.83
1325.07
1321.27
1313.87
1302.7
1287.77
1269.26
1247.41
1222.45
1194.59
1163.94
1130.59
1094.51
1055.66
1013.96
969.335
921.709
871.055
817.485
761.366
702.945
639.209
445.611
50.5425
3.45554
2.64057
2.52996
2.47271
2.41243
2.35698
2.30448
2.2534
2.20357
2.15499
2.10764
2.06146
2.01636
1.97226
1.92915
1.88694
1.84512
1.80221
1.75498
1.69666
1.61845
1339.76
1340.67
1340.04
1336.53
1329.58
1318.94
1304.6
1286.71
1265.51
1241.23
1214.09
1184.24
1151.78
1116.71
1079.03
1038.69
995.635
949.836
901.302
850.172
796.795
741.252
680.184
462.958
44.9787
3.26011
2.57059
2.47761
2.42248
2.36465
2.3113
2.26043
2.2108
2.16232
2.11497
2.06872
2.02351
1.97919
1.93565
1.89279
1.85042
1.80796
1.76411
1.71658
1.66279
1.6031
1356.09
1356.98
1356.46
1353.22
1346.68
1336.57
1322.83
1305.6
1285.09
1261.55
1235.21
1206.25
1174.75
1140.78
1104.32
1065.38
1023.92
979.943
933.479
884.68
833.876
780.988
722.414
479.249
39.769
3.09186
2.50337
2.42254
2.36914
2.31383
2.26278
2.21386
2.16598
2.11908
2.07317
2.02823
1.98419
1.94091
1.89825
1.85605
1.81409
1.77182
1.72825
1.68186
1.63073
1.57237
1373.86
1374.74
1374.31
1371.31
1365.16
1355.55
1342.41
1325.85
1306.07
1283.33
1257.85
1229.81
1199.35
1166.51
1131.33
1093.81
1053.96
1011.78
967.324
920.755
872.378
821.975
765.777
494.291
34.8163
2.94114
2.43659
2.36478
2.31314
2.2605
2.21192
2.16517
2.11926
2.07415
2.02988
1.98644
1.94378
1.90177
1.86024
1.81903
1.7779
1.73638
1.69368
1.64875
1.59998
1.54521
1393.05
1393.91
1393.55
1390.78
1384.98
1375.86
1363.31
1347.42
1328.39
1306.47
1281.89
1254.83
1225.43
1193.77
1159.89
1123.81
1085.55
1045.14
1002.64
958.209
912.133
864.08
810.172
507.832
30.2056
2.80178
2.36878
2.30434
2.25477
2.20504
2.15912
2.11473
2.07098
2.02783
1.98537
1.9436
1.9025
1.86193
1.82174
1.78175
1.74174
1.70132
1.65992
1.61683
1.571
1.52118
1413.64
1414.48
1414.19
1411.6
1406.14
1397.47
1385.5
1370.29
1352.02
1330.95
1307.28
1281.23
1252.92
1222.46
1189.89
1155.25
1118.58
1079.9
1039.29
996.91
953.028
907.209
855.519
519.632
26.0654
2.6689
2.2989
2.24123
2.19426
2.14775
2.10471
2.06286
2.02142
1.9804
1.93988
1.89993
1.86051
1.82151
1.78279
1.74418
1.70549
1.6664
1.62651
1.58545
1.54261
1.49714
1435.61
1436.42
1436.18
1433.77
1428.62
1420.4
1408.98
1394.44
1376.94
1356.71
1333.99
1308.95
1281.76
1252.5
1221.25
1188.04
1152.93
1115.95
1077.17
1036.77
994.984
951.3
901.758
529.784
22.2518
2.53851
2.22631
2.17565
2.13191
2.08897
2.04903
2.00989
1.97089
1.93211
1.89366
1.85561
1.81796
1.78061
1.74345
1.70631
1.66906
1.63143
1.59313
1.55414
1.51421
1.47227
1458.94
1459.72
1459.52
1457.27
1452.41
1444.62
1433.75
1419.87
1403.13
1383.76
1361.97
1337.97
1311.89
1283.85
1253.9
1222.12
1188.54
1153.22
1116.22
1077.72
1037.95
996.304
948.838
538.306
18.6001
2.41026
2.15135
2.10811
2.06819
2.02913
1.99247
1.95616
1.9197
1.88324
1.84692
1.81082
1.77497
1.73931
1.70374
1.66815
1.63242
1.59633
1.55969
1.52274
1.48534
1.44664
1483.6
1484.35
1484.2
1482.1
1477.52
1470.13
1459.8
1446.56
1430.58
1412.06
1391.22
1368.24
1343.29
1316.45
1287.81
1257.43
1225.36
1191.65
1156.38
1119.71
1081.87
1042.17
996.705
545.117
15.2724
2.28709
2.0751
2.03939
2.00375
1.96875
1.93545
1.90201
1.86813
1.83401
1.79982
1.76569
1.73165
1.6977
1.66375
1.62973
1.59558
1.56112
1.52621
1.4911
1.45579
1.42006
1509.59
1510.32
1510.2
1508.24
1503.93
1496.93
1487.12
1474.52
1459.28
1441.61
1421.71
1399.76
1375.91
1350.28
1322.93
1293.93
1263.33
1231.19
1197.59
1162.69
1126.69
1088.87
1045.32
550.06
12.4921
2.17049
1.99869
1.97046
1.93931
1.90837
1.87838
1.84778
1.81642
1.78459
1.7525
1.72031
1.68808
1.65583
1.62352
1.5911
1.55856
1.52584
1.49263
1.45913
1.42604
1.39246
1536.89
1537.59
1537.5
1535.68
1531.62
1525.01
1515.7
1503.73
1489.22
1472.38
1453.41
1432.48
1409.73
1385.28
1359.2
1331.55
1302.4
1271.79
1239.81
1206.61
1172.38
1136.34
1094.66
553.331
10.1763
2.06016
1.9233
1.90241
1.87565
1.84852
1.82164
1.79372
1.76477
1.73513
1.70508
1.67477
1.64433
1.61378
1.58312
1.55231
1.52139
1.49037
1.45905
1.42727
1.39575
1.36445
1565.48
1566.14
1566.09
1564.4
1560.58
1554.34
1545.52
1534.16
1520.38
1504.36
1486.3
1466.37
1444.71
1421.42
1396.58
1370.26
1342.51
1313.39
1282.97
1251.41
1218.89
1184.57
1144.69
555.059
7.99436
1.9605
1.85146
1.83654
1.81358
1.78972
1.76557
1.74006
1.71333
1.68575
1.65763
1.62916
1.60047
1.57162
1.54261
1.51343
1.48412
1.45475
1.42523
1.39539
1.36551
1.33608
1595.34
1595.97
1595.94
1594.37
1590.79
1584.9
1576.57
1565.8
1552.72
1537.51
1520.35
1501.4
1480.8
1458.65
1435.03
1410
1383.62
1355.94
1327.04
1297.07
1266.19
1233.53
1195.41
555.177
6.18155
1.87725
1.78556
1.7739
1.75363
1.7323
1.7104
1.68699
1.66224
1.63656
1.61026
1.58355
1.55656
1.52939
1.50203
1.47449
1.44679
1.41903
1.39119
1.36319
1.33517
1.30732
1626.44
1627.04
1627.03
1625.58
1622.22
1616.68
1608.81
1598.63
1586.24
1571.82
1555.53
1537.55
1517.99
1496.96
1474.53
1450.76
1425.71
1399.43
1371.99
1343.56
1314.27
1283.22
1246.81
553.43
5.05184
1.80537
1.72494
1.71448
1.69593
1.67642
1.65628
1.63461
1.61161
1.58766
1.56306
1.53802
1.51269
1.48715
1.46141
1.43548
1.40939
1.38322
1.35701
1.33072
1.30444
1.27824
1658.77
1659.34
1659.35
1658
1654.86
1649.65
1642.24
1632.62
1620.91
1607.27
1591.84
1574.8
1556.26
1536.32
1515.05
1492.5
1468.75
1443.83
1417.82
1390.88
1363.13
1333.64
1298.91
550.368
4.20383
1.73872
1.66775
1.65788
1.64033
1.62206
1.60324
1.58301
1.56152
1.53912
1.51609
1.49263
1.46889
1.44493
1.42077
1.39642
1.37191
1.34732
1.32268
1.29803
1.27342
1.24885
1692.31
1692.85
1692.87
1691.63
1688.7
1683.81
1676.84
1667.78
1656.73
1643.84
1629.26
1613.13
1595.59
1576.71
1556.57
1535.22
1512.73
1489.15
1464.53
1439.03
1412.78
1384.81
1351.71
545.946
3.44206
1.6778
1.61409
1.60388
1.58668
1.56911
1.55125
1.53219
1.512
1.491
1.46942
1.44744
1.4252
1.40275
1.38012
1.3573
1.33433
1.31128
1.28819
1.26512
1.24211
1.21913
1727.04
1727.55
1727.58
1726.44
1723.71
1719.14
1712.6
1704.08
1693.67
1681.52
1667.75
1652.53
1635.95
1618.11
1599.08
1578.91
1557.65
1535.35
1512.09
1488
1463.19
1436.69
1405.18
540.247
2.76358
1.62494
1.56455
1.55224
1.53468
1.51738
1.50018
1.48207
1.46302
1.44327
1.42303
1.40244
1.38162
1.36063
1.33946
1.31811
1.29663
1.27509
1.25353
1.23199
1.21052
1.18907
1762.93
1763.41
1763.47
1762.42
1759.89
1755.62
1749.5
1741.5
1731.72
1720.28
1707.32
1692.97
1677.34
1660.51
1642.55
1623.52
1603.47
1582.43
1560.48
1537.75
1514.34
1489.27
1459.31
533.201
2.55862
1.57453
1.51639
1.50177
1.48365
1.46646
1.44977
1.43248
1.41445
1.39587
1.37687
1.35759
1.33813
1.31852
1.29875
1.27883
1.25881
1.23873
1.21866
1.19862
1.17864
1.15865
1799.98
1800.43
1800.5
1799.54
1797.2
1793.23
1787.5
1780.02
1770.84
1760.1
1747.92
1734.42
1719.71
1703.88
1686.98
1669.06
1650.17
1630.35
1609.67
1588.26
1566.21
1542.53
1514.09
524.861
2.39803
1.51928
1.46666
1.4512
1.43292
1.41593
1.39975
1.38323
1.36617
1.34868
1.33087
1.31284
1.29468
1.2764
1.25799
1.23945
1.22083
1.20218
1.18356
1.16498
1.14644
1.12787
1838.15
1838.57
1838.65
1837.78
1835.62
1831.93
1826.6
1819.61
1811.02
1800.96
1789.54
1776.88
1763.07
1748.2
1732.33
1715.49
1697.74
1679.11
1659.65
1639.52
1618.79
1596.46
1569.52
515.304
2.24296
1.46091
1.41534
1.40018
1.38211
1.3655
1.34991
1.33417
1.31805
1.30162
1.28496
1.26814
1.25124
1.23425
1.21716
1.19996
1.1827
1.16544
1.14822
1.13105
1.11389
1.09669
1877.42
1877.82
1877.9
1877.11
1875.12
1871.71
1866.75
1860.24
1852.24
1842.84
1832.16
1820.31
1807.39
1793.46
1778.59
1762.81
1746.16
1728.68
1710.42
1691.53
1672.08
1651.07
1625.6
504.633
2.0302
1.40243
1.3634
1.34875
1.33111
1.31502
1.30008
1.28515
1.26998
1.2546
1.23908
1.22345
1.20779
1.19207
1.17626
1.16037
1.14443
1.12851
1.11264
1.09681
1.08099
1.06512
1917.76
1918.13
1918.22
1917.51
1915.69
1912.54
1907.95
1901.91
1894.47
1885.72
1875.76
1864.72
1852.65
1839.64
1825.74
1810.99
1795.41
1779.06
1761.97
1744.3
1726.09
1706.37
1682.33
492.844
1.85972
1.34509
1.31119
1.29695
1.27984
1.26436
1.25014
1.23605
1.22185
1.20754
1.19315
1.17872
1.16428
1.14982
1.13529
1.12068
1.10604
1.09141
1.07683
1.06228
1.04775
1.03317
1959.15
1959.49
1959.59
1958.95
1957.29
1954.4
1950.17
1944.59
1937.69
1929.57
1920.33
1910.05
1898.83
1886.71
1873.75
1860
1845.47
1830.21
1814.28
1797.79
1780.81
1762.34
1739.69
479.913
1.71764
1.28779
1.2584
1.2446
1.22813
1.21336
1.19993
1.18675
1.17355
1.16033
1.1471
1.13387
1.12067
1.10747
1.0942
1.08087
1.06751
1.05415
1.04081
1.0275
1.0142
1.00089
2001.57
2001.88
2001.98
2001.41
1999.91
1997.27
1993.39
1988.24
1981.88
1974.37
1965.82
1956.3
1945.89
1934.64
1922.6
1909.82
1896.32
1882.14
1867.32
1851.99
1836.19
1818.95
1797.68
465.807
1.59198
1.23005
1.20477
1.19157
1.17585
1.16189
1.14933
1.13713
1.12499
1.1129
1.10086
1.08886
1.07691
1.06497
1.05299
1.04094
1.02884
1.01673
1.00461
0.992503
0.980416
0.968344
2044.98
2045.26
2045.36
2044.87
2043.51
2041.11
2037.57
2032.85
2027
2020.09
2012.2
2003.42
1993.8
1983.41
1972.27
1960.44
1947.94
1934.81
1921.09
1906.89
1892.25
1876.2
1856.3
450.487
1.477
1.17179
1.15023
1.13774
1.1229
1.10986
1.09827
1.08713
1.07612
1.06522
1.0544
1.04366
1.03299
1.02232
1.01162
1.00085
0.990024
0.979151
0.96825
0.957337
0.946445
0.935587
2089.35
2089.61
2089.72
2089.28
2088.07
2085.9
2082.68
2078.38
2073.03
2066.7
2059.46
2051.39
2042.55
2032.98
2022.73
2011.84
2000.32
1988.22
1975.57
1962.47
1948.96
1934.1
1915.55
433.903
1.36963
1.11301
1.09475
1.08306
1.06922
1.05719
1.04666
1.03666
1.02686
1.0172
1.00767
0.998232
0.988864
0.979509
0.97011
0.960634
0.951075
0.941446
0.93176
0.922041
0.91234
0.902683
2134.66
2134.9
2135.01
2134.63
2133.56
2131.61
2128.7
2124.8
2119.94
2114.17
2107.56
2100.19
2092.1
2083.35
2073.97
2063.99
2053.44
2042.34
2030.74
2018.72
2006.32
1992.63
1975.43
415.994
1.26783
1.05357
1.03822
1.02741
1.01467
1.00375
0.994358
0.985571
0.977061
0.968742
0.960568
0.952502
0.944497
0.936493
0.928431
0.920272
0.912004
0.903632
0.895172
0.886655
0.878145
0.869681
2180.88
2181.09
2181.2
2180.89
2179.94
2178.21
2175.6
2172.09
2167.69
2162.47
2156.48
2149.79
2142.44
2134.49
2125.96
2116.87
2107.27
2097.16
2086.58
2075.63
2064.33
2051.81
2035.93
396.689
1.17029
0.993316
0.980537
0.970694
0.959165
0.949445
0.941261
0.93376
0.926619
0.91973
0.913015
0.906404
0.899833
0.89324
0.886563
0.879761
0.872815
0.865727
0.858514
0.851211
0.843895
0.836624
2227.97
2228.16
2228.27
2228.01
2227.19
2225.67
2223.35
2220.21
2216.27
2211.58
2206.19
2200.17
2193.55
2186.38
2178.68
2170.47
2161.79
2152.65
2143.09
2133.2
2122.99
2111.62
2097.07
375.889
1.07657
0.932252
0.921605
0.912761
0.90258
0.894198
0.887329
0.88119
0.875486
0.870109
0.864953
0.859901
0.854854
0.849742
0.844507
0.839109
0.833526
0.827756
0.821816
0.815745
0.809628
0.803546
2275.91
2276.07
2276.18
2275.98
2275.28
2273.95
2271.92
2269.14
2265.65
2261.48
2256.68
2251.31
2245.4
2239
2232.11
2224.77
2217
2208.83
2200.27
2191.42
2182.29
2172.07
2158.86
353.457
0.986656
0.870458
0.861491
0.853494
0.844745
0.837845
0.832464
0.827835
0.823665
0.819871
0.81635
0.81295
0.809528
0.805989
0.802274
0.798343
0.794171
0.789754
0.785114
0.780298
0.775389
0.770477
2324.66
2324.8
2324.92
2324.77
2324.19
2323.05
2321.29
2318.88
2315.82
2312.15
2307.92
2303.19
2297.99
2292.33
2286.25
2279.76
2272.89
2265.66
2258.1
2250.28
2242.23
2233.18
2221.31
329.239
0.900275
0.807879
0.800132
0.792835
0.785408
0.780135
0.776426
0.773515
0.771072
0.769007
0.767224
0.765559
0.763848
0.761976
0.759871
0.757486
0.754783
0.751758
0.748447
0.744907
0.741205
0.737492
2374.15
2374.29
2374.43
2374.35
2373.89
2372.95
2371.46
2369.39
2366.75
2363.57
2359.9
2355.79
2351.28
2346.36
2341.07
2335.42
2329.44
2323.15
2316.56
2309.76
2302.79
2294.94
2284.42
303.12
0.818399
0.743859
0.736831
0.730571
0.724441
0.720888
0.718993
0.717964
0.717491
0.717434
0.717623
0.717846
0.717931
0.717781
0.717342
0.716558
0.71538
0.713796
0.71185
0.709598
0.707149
0.704707
2424.26
2424.45
2424.65
2424.66
2424.33
2423.58
2422.34
2420.6
2418.37
2415.67
2412.56
2409.07
2405.23
2401.03
2396.51
2391.69
2386.59
2381.22
2375.61
2369.84
2363.93
2357.29
2348.22
274.997
0.736074
0.677578
0.671563
0.666125
0.661672
0.659977
0.660126
0.661237
0.66296
0.665133
0.667513
0.669809
0.671825
0.673486
0.674765
0.675622
0.676014
0.675927
0.67539
0.674513
0.673429
0.672154
2475.06
2475.3
2475.52
2475.6
2475.4
2474.82
2473.82
2472.39
2470.55
2468.34
2465.79
2462.91
2459.72
2456.24
2452.48
2448.47
2444.23
2439.78
2435.15
2430.39
2425.6
2420.23
2412.63
244.708
0.656258
0.608933
0.603587
0.599353
0.596835
0.597332
0.599876
0.603466
0.607675
0.612265
0.616939
0.621396
0.625452
0.629043
0.632146
0.634732
0.636766
0.63825
0.639212
0.639737
0.639986
0.640002
2526.69
2526.84
2526.96
2526.98
2526.84
2526.41
2525.63
2524.5
2523.06
2521.33
2519.33
2517.05
2514.51
2511.73
2508.72
2505.5
2502.12
2498.59
2494.93
2491.22
2487.55
2483.57
2477.66
211.337
0.580833
0.537827
0.532069
0.529241
0.529057
0.532367
0.537939
0.544573
0.551664
0.558889
0.565983
0.572716
0.578942
0.584591
0.589624
0.594014
0.597749
0.600851
0.60336
0.605343
0.606906
0.608132
2577.54
2577.83
2578.19
2578.31
2578.24
2577.94
2577.38
2576.56
2575.53
2574.29
2572.83
2571.17
2569.28
2567.19
2564.91
2562.47
2559.92
2557.27
2554.57
2551.9
2549.41
2546.95
2543.03
173.71
0.51187
0.463452
0.455103
0.454038
0.457411
0.464597
0.474013
0.48433
0.494814
0.505076
0.514885
0.524093
0.532615
0.540396
0.547406
0.553631
0.559086
0.563811
0.56786
0.571288
0.574164
0.576553
2624.86
2626.46
2627.96
2628.92
2629.28
2629.25
2628.97
2628.51
2627.94
2627.23
2626.38
2625.34
2624.12
2622.72
2621.17
2619.48
2617.72
2615.93
2614.14
2612.47
2611.14
2610.16
2608.23
140.531
0.443873
0.384484
0.370277
0.371831
0.381008
0.393777
0.408195
0.422959
0.437376
0.451084
0.463916
0.475806
0.486735
0.496698
0.5057
0.513763
0.52093
0.52726
0.53281
0.537636
0.54179
0.545331
2665.22
2671.36
2675.2
2677.94
2679.42
2680.08
2680.36
2680.48
2680.52
2680.47
2680.27
2679.88
2679.3
2678.54
2677.61
2676.57
2675.48
2674.37
2673.32
2672.43
2672.04
2672.27
2670.37
127.853
0.333009
0.290861
0.273511
0.281001
0.299236
0.320047
0.340948
0.361042
0.379917
0.397398
0.413465
0.428164
0.441562
0.453724
0.464712
0.474595
0.483446
0.491338
0.498337
0.504501
0.50988
0.514537
1720.41
1913.26
2059.51
2175.69
2260.14
2315.83
2349.75
2368.31
2376.38
2377.31
2373.42
2366.16
2356.49
2344.98
2332.01
2317.83
2302.66
2286.66
2269.92
2252.46
2235.45
2218.95
2189.7
119.943
0.044272
0.15379
0.160514
0.181367
0.212898
0.244492
0.273355
0.299541
0.323258
0.344697
0.364072
0.381593
0.397438
0.411758
0.424684
0.436331
0.446803
0.456187
0.464562
0.471992
0.478532
0.484254
68.5646
154.13
222.293
293.648
356.877
405.387
438.196
457.289
465.755
466.59
462.203
454.311
444.093
432.298
419.408
405.75
391.57
377.069
362.347
347.389
333.089
315.673
361.581
43.2711
-0.279579
-0.0221806
0.0330837
0.077925
0.126582
0.170126
0.207509
0.239977
0.268525
0.293826
0.316385
0.336595
0.354761
0.371124
0.385881
0.39919
0.41118
0.421957
0.431612
0.440223
0.44785
0.454572
-1.29949
-1.14748
-1.24525
-1.3319
-1.40014
-1.43202
-1.43624
-1.42445
-1.4038
-1.37857
-1.35138
-1.32373
-1.29622
-1.2689
-1.24151
-1.21367
-1.1852
-1.15645
-1.12937
-1.11005
-1.0945
-1.03152
-0.751863
-0.531382
-0.394391
-0.209664
-0.100106
-0.0190567
0.047138
0.101351
0.146221
0.184212
0.21701
0.245715
0.271093
0.2937
0.313948
0.332156
0.348571
0.363387
0.376754
0.388795
0.399618
0.40931
0.417937
0.425585
-1.23451
-1.22463
-1.23689
-1.25027
-1.26188
-1.26723
-1.26571
-1.25867
-1.24727
-1.23232
-1.21446
-1.19419
-1.17182
-1.14747
-1.12119
-1.093
-1.06296
-1.03116
-0.997451
-0.961817
-0.922145
-0.867762
-0.773355
-0.642969
-0.461814
-0.298264
-0.179563
-0.0886015
-0.015843
0.0434145
0.092551
0.134141
0.169964
0.201243
0.228846
0.253403
0.275388
0.295162
0.313003
0.329125
0.343695
0.356851
0.36871
0.37937
0.388898
0.397384
-1.17641
-1.17346
-1.18215
-1.19179
-1.20242
-1.20929
-1.20997
-1.20461
-1.19412
-1.17947
-1.16153
-1.14092
-1.11795
-1.09272
-1.06527
-1.03557
-1.00356
-0.969026
-0.931018
-0.887199
-0.833716
-0.76613
-0.680699
-0.572825
-0.44094
-0.318347
-0.216596
-0.132222
-0.06177
-0.00260181
0.0475821
0.0906717
0.128113
0.160987
0.190103
0.216077
0.239384
0.260392
0.279385
0.296583
0.31216
0.326262
0.339012
0.350511
0.360828
0.370055
-1.118
-1.1192
-1.1241
-1.13055
-1.13719
-1.14094
-1.13992
-1.13382
-1.12305
-1.10835
-1.09043
-1.06973
-1.04645
-1.02065
-0.992348
-0.961521
-0.928062
-0.891659
-0.851454
-0.805514
-0.75073
-0.684134
-0.604982
-0.514431
-0.416136
-0.320884
-0.235355
-0.160316
-0.0950682
-0.0384836
0.0107137
0.0537308
0.0915985
0.125158
0.155088
0.181934
0.206131
0.228021
0.247875
0.265903
0.282279
0.297146
0.310628
0.322827
0.333809
0.343668
-1.0618
-1.06366
-1.06684
-1.07029
-1.07302
-1.07336
-1.07012
-1.06284
-1.05166
-1.03701
-1.01933
-0.998835
-0.975596
-0.949661
-0.921078
-0.889826
-0.855771
-0.818604
-0.777683
-0.731862
-0.679459
-0.618923
-0.549965
-0.474454
-0.39536
-0.317536
-0.244776
-0.178541
-0.119112
-0.0661656
-0.0190937
0.0227999
0.0601904
0.0936876
0.123822
0.151043
0.175719
0.198151
0.218576
0.237189
0.25415
0.269595
0.283642
0.296391
0.307906
0.318286
-1.00561
-1.00787
-1.01071
-1.01313
-1.01425
-1.01304
-1.0087
-1.00086
-0.989627
-0.975249
-0.957934
-0.937766
-0.91479
-0.889098
-0.860771
-0.82978
-0.795956
-0.759004
-0.718473
-0.673717
-0.623989
-0.568747
-0.508207
-0.443648
-0.377125
-0.311373
-0.248612
-0.190069
-0.136278
-0.0873058
-0.0429393
-0.00282058
0.0334647
0.0663354
0.0961838
0.123357
0.148151
0.17081
0.191536
0.210496
0.227832
0.243666
0.258109
0.271254
0.283169
0.293956
-0.95085
-0.953147
-0.955827
-0.957893
-0.958401
-0.956557
-0.951794
-0.943883
-0.932874
-0.918888
-0.901992
-0.882232
-0.859704
-0.834558
-0.806892
-0.77667
-0.743728
-0.707799
-0.668585
-0.625766
-0.579105
-0.528579
-0.474621
-0.418211
-0.360758
-0.303909
-0.249021
-0.196986
-0.148338
-0.103298
-0.0618598
-0.0238663
0.0109204
0.0427735
0.0719668
0.0987538
0.123357
0.145967
0.166747
0.185833
0.203344
0.219385
0.234056
0.247446
0.259629
0.270712
-0.897792
-0.89994
-0.902364
-0.904019
-0.904044
-0.901791
-0.896835
-0.889011
-0.878289
-0.864678
-0.848199
-0.828933
-0.807041
-0.782709
-0.756024
-0.726932
-0.695302
-0.66095
-0.623704
-0.583463
-0.54025
-0.494264
-0.445965
-0.396111
-0.345681
-0.295734
-0.247168
-0.200629
-0.156567
-0.115241
-0.0767369
-0.0410106
-0.00793921
0.0226429
0.0509149
0.0770511
0.101212
0.123538
0.144154
0.163166
0.180666
0.196744
0.211484
0.224976
0.237301
0.248577
-0.846521
-0.848462
-0.850578
-0.851795
-0.851385
-0.848824
-0.843774
-0.836044
-0.825539
-0.812242
-0.796212
-0.777584
-0.756543
-0.733252
-0.707764
-0.680024
-0.649949
-0.617462
-0.582511
-0.545126
-0.505452
-0.463757
-0.42045
-0.376096
-0.331382
-0.287033
-0.243692
-0.201846
-0.161852
-0.123954
-0.0882732
-0.0548291
-0.0235741
0.00558078
0.0327442
0.0580302
0.0815483
0.103398
0.123665
0.142427
0.159751
0.175707
0.190374
0.203838
0.21619
0.227564
-0.796978
-0.798738
-0.80056
-0.801431
-0.800704
-0.797937
-0.792812
-0.785106
-0.77473
-0.76173
-0.746238
-0.728412
-0.708402
-0.686311
-0.662154
-0.635896
-0.607515
-0.577038
-0.544513
-0.510042
-0.473806
-0.436064
-0.397152
-0.35749
-0.317571
-0.277911
-0.238991
-0.201196
-0.164809
-0.130041
-0.0970228
-0.065812
-0.0364074
-0.00877049
0.0171595
0.0414524
0.0641774
0.0853965
0.105163
0.123523
0.140525
0.156223
0.170689
0.184012
0.196292
0.207676
-0.749142
-0.750749
-0.752323
-0.752934
-0.75198
-0.749041
-0.743793
-0.736045
-0.725796
-0.713179
-0.698363
-0.681476
-0.662602
-0.64179
-0.619045
-0.594364
-0.567786
-0.539406
-0.509343
-0.477731
-0.44474
-0.410589
-0.375546
-0.339928
-0.304099
-0.268442
-0.233323
-0.199055
-0.165876
-0.133962
-0.103443
-0.0743907
-0.0468305
-0.020753
0.0038707
0.0270773
0.0489019
0.0693731
0.0885137
0.106346
0.122901
0.138225
0.152383
0.165469
0.177593
0.188909
-0.703062
-0.704522
-0.705901
-0.706294
-0.705128
-0.701994
-0.696599
-0.688853
-0.678853
-0.666782
-0.652782
-0.63691
-0.619192
-0.599657
-0.578341
-0.555283
-0.530567
-0.504321
-0.476687
-0.447805
-0.417821
-0.386907
-0.355274
-0.323167
-0.290866
-0.258667
-0.226859
-0.1957
-0.165398
-0.136104
-0.107931
-0.0809497
-0.0551963
-0.0306782
-0.00738955
0.0146782
0.0355297
0.0551642
0.0735799
0.0907814
0.106788
0.121641
0.135405
0.148176
0.160072
0.171254
-0.658769
-0.660097
-0.66132
-0.661521
-0.66015
-0.656836
-0.651385
-0.643805
-0.63424
-0.622849
-0.609713
-0.594835
-0.578214
-0.559898
-0.539973
-0.518529
-0.495675
-0.471538
-0.446248
-0.419926
-0.392691
-0.364677
-0.33605
-0.307011
-0.277786
-0.248617
-0.219739
-0.191367
-0.163679
-0.136804
-0.11083
-0.0858181
-0.0618056
-0.038813
-0.0168555
0.00404939
0.0238795
0.0426107
0.0602237
0.0767125
0.0920915
0.1064
0.119703
0.132095
0.143705
0.154697
-0.616206
-0.617427
-0.618496
-0.618525
-0.616996
-0.613619
-0.6083
-0.601087
-0.592092
-0.581411
-0.569083
-0.555106
-0.539504
-0.522358
-0.503796
-0.483944
-0.462916
-0.440817
-0.417742
-0.393782
-0.369033
-0.343605
-0.317639
-0.29131
-0.264812
-0.238347
-0.212111
-0.186276
-0.160986
-0.136344
-0.112419
-0.0892565
-0.0668974
-0.0453758
-0.0247278
-0.00499411
0.013782
0.0315606
0.0483128
0.0640288
0.0787224
0.0924335
0.105225
0.117192
0.128467
0.13922
-0.575299
-0.576404
-0.577297
-0.577164
-0.575557
-0.572279
-0.567277
-0.560561
-0.552172
-0.542153
-0.530546
-0.517398
-0.502781
-0.486808
-0.46962
-0.451346
-0.432086
-0.411912
-0.390889
-0.369082
-0.346571
-0.323459
-0.29988
-0.275989
-0.251956
-0.227949
-0.204124
-0.180612
-0.157522
-0.134931
-0.112895
-0.0914549
-0.0706552
-0.0505455
-0.0311811
-0.0126204
0.00507974
0.0218717
0.0377244
0.0526287
0.0666
0.0796782
0.0919233
0.103429
0.114332
0.124804
-0.536029
-0.536999
-0.537723
-0.537469
-0.535879
-0.532809
-0.528186
-0.521965
-0.514129
-0.504707
-0.493778
-0.48145
-0.467839
-0.453071
-0.437273
-0.420548
-0.402968
-0.384584
-0.365437
-0.345584
-0.325103
-0.304098
-0.282696
-0.261037
-0.239262
-0.217506
-0.195885
-0.174494
-0.153408
-0.13269
-0.112388
-0.0925491
-0.0732237
-0.0544748
-0.0363715
-0.0189826