/*--------------------------------*- C++ -*----------------------------------*\
  =========                 |
  \\      /  F ield         | OpenFOAM: The Open Source CFD Toolbox
   \\    /   O peration     | Website:  https://openfoam.org
    \\  /    A nd           | Version:  7
     \\/     M anipulation  |
\*---------------------------------------------------------------------------*/
FoamFile
{
    version     2.0;
    format      ascii;
    class       surfaceScalarField;
    location    "0.05";
    object      phi;
}
// * * * * * * * * * * * * * * * * * * * * * * * * * * * * * * * * * * * * * //

dimensions      [0 3 -1 0 0 0 0];

internalField   nonuniform List<scalar> 
15214
(
6.2037e-07
-6.2037e-07
1.83592e-06
-1.21556e-06
3.39472e-06
-1.55881e-06
5.08459e-06
-1.68987e-06
6.78768e-06
-1.70309e-06
8.45261e-06
-1.66493e-06
1.00662e-05
-1.61358e-06
1.16358e-05
-1.56961e-06
1.31785e-05
-1.54274e-06
1.47151e-05
-1.5366e-06
1.6267e-05
-1.5519e-06
1.78556e-05
-1.58861e-06
1.95029e-05
-1.64725e-06
2.12326e-05
-1.72971e-06
2.30724e-05
-1.83982e-06
2.50565e-05
-1.98404e-06
2.7229e-05
-2.17252e-06
2.96488e-05
-2.41978e-06
3.23985e-05
-2.74972e-06
3.55711e-05
-3.1726e-06
3.93199e-05
-3.74877e-06
4.37598e-05
-4.43998e-06
4.85367e-05
-4.77683e-06
5.27426e-05
-4.20588e-06
5.54003e-05
-2.65776e-06
5.6827e-05
-1.42671e-06
5.92077e-05
-2.38067e-06
6.31824e-05
-3.97471e-06
6.3318e-05
-1.35496e-07
6.04268e-05
2.89121e-06
5.405e-05
6.37684e-06
4.62107e-05
7.83927e-06
3.98642e-05
6.34652e-06
3.51302e-05
4.73393e-06
3.15071e-05
3.62316e-06
2.84673e-05
3.03994e-06
2.56909e-05
2.77631e-06
2.30101e-05
2.68069e-06
2.03113e-05
2.6989e-06
1.75041e-05
2.80738e-06
1.45192e-05
2.98482e-06
1.13236e-05
3.19557e-06
7.9552e-06
3.36849e-06
4.60151e-06
3.35368e-06
1.73704e-06
2.86452e-06
1.73709e-06
1.09491e-06
-1.71529e-06
2.4363e-06
-2.55695e-06
3.87522e-06
-2.99773e-06
5.35839e-06
-3.17303e-06
6.84192e-06
-3.18662e-06
8.30254e-06
-3.12556e-06
9.73436e-06
-3.04539e-06
1.11426e-05
-2.97785e-06
1.25389e-05
-2.93904e-06
1.39381e-05
-2.93582e-06
1.53567e-05
-2.97041e-06
1.68116e-05
-3.0436e-06
1.83213e-05
-3.15694e-06
1.99058e-05
-3.31419e-06
2.15885e-05
-3.52246e-06
2.33979e-05
-3.79348e-06
2.53704e-05
-4.14504e-06
2.75527e-05
-4.60207e-06
3.00011e-05
-5.19812e-06
3.27856e-05
-5.9571e-06
3.59533e-05
-6.91643e-06
3.94677e-05
-7.95439e-06
4.32379e-05
-8.54707e-06
4.70228e-05
-7.99076e-06
5.03434e-05
-5.97839e-06
5.22618e-05
-3.34508e-06
5.10532e-05
-1.17213e-06
5.05444e-05
-3.46595e-06
5.32623e-05
-2.8534e-06
5.32328e-05
2.9208e-06
4.95345e-05
1.0075e-05
4.42028e-05
1.31711e-05
3.8881e-05
1.16684e-05
3.46429e-05
8.9721e-06
3.11955e-05
7.07078e-06
2.82273e-05
6.00821e-06
2.55385e-05
5.46494e-06
2.29817e-05
5.23751e-06
2.04447e-05
5.23598e-06
1.7836e-05
5.41603e-06
1.50815e-05
5.73935e-06
1.21344e-05
6.14276e-06
9.00275e-06
6.50021e-06
5.79031e-06
6.5663e-06
2.69889e-06
5.95617e-06
4.436e-06
1.42084e-06
-3.13613e-06
2.81923e-06
-3.95534e-06
4.14536e-06
-4.32385e-06
5.43549e-06
-4.46317e-06
6.70199e-06
-4.45312e-06
7.95009e-06
-4.37365e-06
9.18524e-06
-4.28054e-06
1.04147e-05
-4.20727e-06
1.16474e-05
-4.17175e-06
1.28939e-05
-4.18231e-06
1.41658e-05
-4.24236e-06
1.5476e-05
-4.3538e-06
1.68385e-05
-4.51944e-06
1.82692e-05
-4.74488e-06
1.97867e-05
-5.03992e-06
2.14133e-05
-5.42008e-06
2.31762e-05
-5.90798e-06
2.51078e-05
-6.53372e-06
2.72422e-05
-7.33251e-06
2.96135e-05
-8.32833e-06
3.22153e-05
-9.51829e-06
3.49919e-05
-1.07309e-05
3.78931e-05
-1.14483e-05
4.08255e-05
-1.09231e-05
4.34297e-05
-8.58259e-06
4.44886e-05
-4.40398e-06
4.28612e-05
4.55315e-07
4.11094e-05
-1.71417e-06
3.90015e-05
-7.454e-07
3.66396e-05
5.28257e-06
3.48465e-05
1.18682e-05
3.34339e-05
1.45838e-05
3.17372e-05
1.33651e-05
2.96065e-05
1.11029e-05
2.73285e-05
9.3488e-06
2.50877e-05
8.24896e-06
2.29238e-05
7.62897e-06
2.08054e-05
7.35592e-06
1.86817e-05
7.35963e-06
1.64985e-05
7.59923e-06
1.42042e-05
8.03369e-06
1.17557e-05
8.59126e-06
9.12608e-06
9.12995e-06
6.30598e-06
9.38646e-06
3.26966e-06
8.99261e-06
7.70573e-06
1.57548e-06
-4.71161e-06
3.00546e-06
-5.38532e-06
4.25483e-06
-5.57324e-06
5.40336e-06
-5.6117e-06
6.50041e-06
-5.55017e-06
7.57385e-06
-5.4471e-06
8.64063e-06
-5.34732e-06
9.71227e-06
-5.27891e-06
1.07979e-05
-5.25734e-06
1.19057e-05
-5.29016e-06
1.30443e-05
-5.38094e-06
1.42228e-05
-5.53226e-06
1.54513e-05
-5.74804e-06
1.67418e-05
-6.03531e-06
1.81076e-05
-6.40575e-06
1.95646e-05
-6.87702e-06
2.11302e-05
-7.47364e-06
2.28226e-05
-8.22615e-06
2.46558e-05
-9.16561e-06
2.66328e-05
-1.03054e-05
2.87221e-05
-1.16076e-05
3.08608e-05
-1.28696e-05
3.29965e-05
-1.3584e-05
3.50684e-05
-1.2995e-05
3.68078e-05
-1.0322e-05
3.71657e-05
-4.7619e-06
3.75248e-05
9.61343e-08
3.55501e-05
2.60543e-07
3.20257e-05
2.77895e-06
2.90262e-05
8.28223e-06
2.77343e-05
1.31602e-05
2.74574e-05
1.48605e-05
2.68436e-05
1.39789e-05
2.56067e-05
1.23399e-05
2.40255e-05
1.09301e-05
2.23277e-05
9.94674e-06
2.06079e-05
9.34872e-06
1.88846e-05
9.07926e-06
1.71431e-05
9.10111e-06
1.53532e-05
9.38914e-06
1.34738e-05
9.91307e-06
1.14525e-05
1.06127e-05
9.21886e-06
1.13635e-05
6.66817e-06
1.19372e-05
3.63511e-06
1.20258e-05
1.13409e-05
1.61694e-06
-6.32855e-06
3.0459e-06
-6.81428e-06
4.24136e-06
-6.7687e-06
5.29341e-06
-6.66375e-06
6.26925e-06
-6.52601e-06
7.2113e-06
-6.38914e-06
8.1456e-06
-6.28162e-06
9.0884e-06
-6.22171e-06
1.00504e-05
-6.2193e-06
1.10393e-05
-6.27909e-06
1.20618e-05
-6.40347e-06
1.31245e-05
-6.59493e-06
1.42343e-05
-6.85789e-06
1.53992e-05
-7.20021e-06
1.66279e-05
-7.63444e-06
1.79297e-05
-8.17873e-06
1.9313e-05
-8.85702e-06
2.07836e-05
-9.69673e-06
2.2339e-05
-1.0721e-05
2.3962e-05
-1.19284e-05
2.56084e-05
-1.3254e-05
2.72151e-05
-1.44762e-05
2.87344e-05
-1.51034e-05
3.01432e-05
-1.44038e-05
3.13663e-05
-1.1545e-05
3.22294e-05
-5.62496e-06
3.33059e-05
-9.80452e-07
3.15239e-05
2.04259e-06
2.80808e-05
6.22206e-06
2.53587e-05
1.10044e-05
2.42755e-05
1.42433e-05
2.39775e-05
1.51585e-05
2.34864e-05
1.44702e-05
2.25726e-05
1.32537e-05
2.13789e-05
1.21237e-05
2.00554e-05
1.12702e-05
1.86823e-05
1.07219e-05
1.72897e-05
1.04718e-05
1.58787e-05
1.05121e-05
1.443e-05
1.08379e-05
1.29041e-05
1.1439e-05
1.12334e-05
1.22833e-05
9.30707e-06
1.32899e-05
6.94642e-06
1.4298e-05
3.8973e-06
1.5075e-05
1.52383e-05
1.59398e-06
-7.92253e-06
2.994e-06
-8.21431e-06
4.14569e-06
-7.92039e-06
5.13226e-06
-7.65032e-06
6.02495e-06
-7.4187e-06
6.87302e-06
-7.23721e-06
7.70833e-06
-7.11692e-06
8.55093e-06
-7.06431e-06
9.41342e-06
-7.0818e-06
1.0304e-05
-7.16965e-06
1.12284e-05
-7.32791e-06
1.21915e-05
-7.55805e-06
1.31979e-05
-7.86424e-06
1.42521e-05
-8.2544e-06
1.53586e-05
-8.74093e-06
1.6521e-05
-9.34114e-06
1.77404e-05
-1.00765e-05
1.90128e-05
-1.09691e-05
2.03244e-05
-1.20325e-05
2.16466e-05
-1.32507e-05
2.29316e-05
-1.4539e-05
2.4124e-05
-1.56687e-05
2.51955e-05
-1.61749e-05
2.61901e-05
-1.53985e-05
2.72346e-05
-1.25895e-05
2.8952e-05
-7.34235e-06
2.98349e-05
-1.86337e-06
2.81173e-05
3.76025e-06
2.52141e-05
9.12526e-06
2.30659e-05
1.31525e-05
2.20637e-05
1.52457e-05
2.15776e-05
1.56447e-05
2.10296e-05
1.50181e-05
2.02495e-05
1.40338e-05
1.92887e-05
1.30846e-05
1.82282e-05
1.23308e-05
1.71229e-05
1.18272e-05
1.60005e-05
1.15942e-05
1.48668e-05
1.16458e-05
1.37069e-05
1.19978e-05
1.248e-05
1.26659e-05
1.11054e-05
1.36578e-05
9.43844e-06
1.49568e-05
7.24049e-06
1.6496e-05
4.17407e-06
1.81415e-05
1.94124e-05
1.53675e-06
-9.45928e-06
2.88932e-06
-9.56688e-06
4.00099e-06
-9.03207e-06
4.94161e-06
-8.59093e-06
5.77824e-06
-8.25533e-06
6.56128e-06
-8.02025e-06
7.32517e-06
-7.88081e-06
8.09238e-06
-7.83152e-06
8.87715e-06
-7.86656e-06
9.6883e-06
-7.98081e-06
1.05314e-05
-8.17104e-06
1.14103e-05
-8.43687e-06
1.23275e-05
-8.78148e-06
1.32851e-05
-9.21206e-06
1.42842e-05
-9.74002e-06
1.53239e-05
-1.03808e-05
1.63996e-05
-1.11522e-05
1.75007e-05
-1.20702e-05
1.86068e-05
-1.31386e-05
1.9685e-05
-1.43288e-05
2.06903e-05
-1.55443e-05
2.15814e-05
-1.65598e-05
2.23578e-05
-1.69513e-05
2.31276e-05
-1.61683e-05
2.4108e-05
-1.35699e-05
2.6017e-05
-9.2514e-06
2.65709e-05
-2.41731e-06
2.50308e-05
5.30047e-06
2.28385e-05
1.13174e-05
2.12259e-05
1.47652e-05
2.03144e-05
1.61571e-05
1.97296e-05
1.62294e-05
1.91458e-05
1.56019e-05
1.84477e-05
1.47319e-05
1.76445e-05
1.38878e-05
1.67767e-05
1.31985e-05
1.58799e-05
1.27239e-05
1.49764e-05
1.24977e-05
1.40733e-05
1.2549e-05
1.31588e-05
1.29123e-05
1.21932e-05
1.36315e-05
1.10901e-05
1.47609e-05
9.68273e-06
1.63642e-05
7.67822e-06
1.85006e-05
4.61835e-06
2.12015e-05
2.40308e-05
1.46329e-06
-1.09226e-05
2.75831e-06
-1.08619e-05
3.83131e-06
-1.01051e-05
4.73774e-06
-9.49736e-06
5.5366e-06
-9.05418e-06
6.27563e-06
-8.75929e-06
6.98935e-06
-8.59453e-06
7.70122e-06
-8.5434e-06
8.42649e-06
-8.59182e-06
9.17461e-06
-8.72893e-06
9.95119e-06
-8.94762e-06
1.07593e-05
-9.24501e-06
1.16005e-05
-9.62263e-06
1.24747e-05
-1.00863e-05
1.33804e-05
-1.06457e-05
1.43135e-05
-1.13139e-05
1.52658e-05
-1.21044e-05
1.62226e-05
-1.30271e-05
1.71611e-05
-1.40771e-05
1.80486e-05
-1.52164e-05
1.88473e-05
-1.63429e-05
1.95312e-05
-1.72437e-05
2.01248e-05
-1.75448e-05
2.07657e-05
-1.68093e-05
2.1689e-05
-1.44931e-05
2.3366e-05
-1.09284e-05
2.3653e-05
-2.70428e-06
2.23728e-05
6.58068e-06
2.07981e-05
1.28922e-05
1.96087e-05
1.59545e-05
1.88223e-05
1.69435e-05
1.82307e-05
1.68211e-05
1.7658e-05
1.61746e-05
1.70318e-05
1.53582e-05
1.63482e-05
1.45713e-05
1.56284e-05
1.39183e-05
1.48964e-05
1.34559e-05
1.4171e-05
1.32231e-05
1.34608e-05
1.32592e-05
1.27592e-05
1.36139e-05
1.20344e-05
1.43563e-05
1.12084e-05
1.5587e-05
1.01149e-05
1.74578e-05
8.41867e-06
2.01969e-05
5.4863e-06
2.41339e-05
2.95171e-05
1.38442e-06
-1.2307e-05
2.61818e-06
-1.20957e-05
3.65331e-06
-1.11402e-05
4.53246e-06
-1.03765e-05
5.30529e-06
-9.82702e-06
6.01487e-06
-9.46887e-06
6.694e-06
-9.27366e-06
7.36594e-06
-9.21533e-06
8.04628e-06
-9.27217e-06
8.74488e-06
-9.42752e-06
9.46742e-06
-9.67015e-06
1.02167e-05
-9.99426e-06
1.09932e-05
-1.03992e-05
1.17958e-05
-1.08889e-05
1.26211e-05
-1.1471e-05
1.34628e-05
-1.21556e-05
1.43106e-05
-1.29523e-05
1.51486e-05
-1.3865e-05
1.59535e-05
-1.48821e-05
1.66965e-05
-1.59593e-05
1.73478e-05
-1.69943e-05
1.78952e-05
-1.77911e-05
1.83785e-05
-1.80281e-05
1.89358e-05
-1.73666e-05
1.97824e-05
-1.53398e-05
2.11644e-05
-1.23104e-05
2.11936e-05
-2.73346e-06
2.01696e-05
7.60467e-06
1.90542e-05
1.40075e-05
1.81833e-05
1.68254e-05
1.75328e-05
1.75941e-05
1.6989e-05
1.73648e-05
1.64602e-05
1.67035e-05
1.59051e-05
1.59132e-05
1.532e-05
1.51564e-05
1.47185e-05
1.45198e-05
1.41192e-05
1.40551e-05
1.35396e-05
1.38027e-05
1.2992e-05
1.38068e-05
1.24792e-05
1.41267e-05
1.19864e-05
1.48491e-05
1.14645e-05
1.61089e-05
1.0791e-05
1.81314e-05
9.65895e-06
2.1329e-05
7.21533e-06
2.65776e-05
3.67325e-05
1.30696e-06
-1.3614e-05
2.48011e-06
-1.32688e-05
3.4784e-06
-1.21385e-05
4.33418e-06
-1.12323e-05
5.08812e-06
-1.0581e-05
5.77779e-06
-1.01585e-05
6.43322e-06
-9.92908e-06
7.07657e-06
-9.85869e-06
7.72322e-06
-9.91882e-06
8.38309e-06
-1.00874e-05
9.06189e-06
-1.0349e-05
9.7622e-06
-1.06946e-05
1.04841e-05
-1.11211e-05
1.12255e-05
-1.16303e-05
1.19819e-05
-1.22274e-05
1.27461e-05
-1.29197e-05
1.35068e-05
-1.3713e-05
1.4248e-05
-1.46062e-05
1.49485e-05
-1.55827e-05
1.5584e-05
-1.65947e-05
1.6133e-05
-1.75433e-05
1.65931e-05
-1.82512e-05
1.70097e-05
-1.84447e-05
1.75048e-05
-1.78617e-05
1.82544e-05
-1.60894e-05
1.93535e-05
-1.34096e-05
1.91863e-05
-2.56624e-06
1.83716e-05
8.41933e-06
1.75815e-05
1.47976e-05
1.69471e-05
1.74598e-05
1.64251e-05
1.8116e-05
1.59524e-05
1.78376e-05
1.54834e-05
1.71725e-05
1.49984e-05
1.63982e-05
1.44979e-05
1.56569e-05
1.39936e-05
1.50241e-05
1.35024e-05
1.45463e-05
1.30425e-05
1.42625e-05
1.26319e-05
1.42175e-05
1.22861e-05
1.44725e-05
1.20167e-05
1.51186e-05
1.1826e-05
1.62995e-05
1.16891e-05
1.82684e-05
1.14547e-05
2.15635e-05
1.00811e-05
2.79513e-05
4.68137e-05
5.61253e-07
-5.61253e-07
1.47687e-06
-9.15629e-07
2.49364e-06
-1.01677e-06
3.43155e-06
-9.37895e-07
4.21049e-06
-7.78932e-07
4.812e-06
-6.01497e-07
5.24774e-06
-4.35713e-07
5.54137e-06
-2.93614e-07
5.71896e-06
-1.77584e-07
5.80437e-06
-8.54092e-08
5.81721e-06
-1.28426e-08
5.77403e-06
4.31843e-08
5.68865e-06
8.53812e-08
5.57141e-06
1.17258e-07
5.42984e-06
1.41578e-07
5.26949e-06
1.60368e-07
5.09436e-06
1.75128e-07
4.90743e-06
1.86934e-07
4.71093e-06
1.96508e-07
4.50667e-06
2.0427e-07
4.29626e-06
2.10423e-07
4.08121e-06
2.15064e-07
3.86292e-06
2.18293e-07
3.64266e-06
2.20268e-07
3.42144e-06
2.21227e-07
3.19995e-06
2.21487e-07
2.97853e-06
2.21427e-07
2.75706e-06
2.21476e-07
2.53497e-06
2.22096e-07
2.3112e-06
2.23779e-07
2.08416e-06
2.27046e-07
1.85176e-06
2.32405e-07
1.61155e-06
2.4022e-07
1.36116e-06
2.50424e-07
1.09924e-06
2.61961e-07
8.27437e-07
2.71855e-07
5.53808e-07
2.73674e-07
2.98658e-07
2.55195e-07
1.0082e-07
1.97892e-07
1.0088e-07
8.71203e-07
-1.43246e-06
1.83636e-06
-1.88079e-06
2.75814e-06
-1.93855e-06
3.57182e-06
-1.75155e-06
4.2404e-06
-1.44748e-06
4.75631e-06
-1.11739e-06
5.13016e-06
-8.09538e-07
5.38082e-06
-5.44268e-07
5.52948e-06
-3.2624e-07
5.59632e-06
-1.52257e-07
5.59928e-06
-1.57953e-08
5.55263e-06
8.98507e-08
5.46701e-06
1.71022e-07
5.35124e-06
2.33053e-07
5.21235e-06
2.8048e-07
5.05581e-06
3.16909e-07
4.88585e-06
3.45099e-07
4.7057e-06
3.67098e-07
4.51786e-06
3.84362e-07
4.32428e-06
3.97864e-07
4.12648e-06
4.08232e-07
3.92567e-06
4.15891e-07
3.72279e-06
4.21188e-07
3.51857e-06
4.245e-07
3.31353e-06
4.26278e-07
3.10795e-06
4.27066e-07
2.90189e-06
4.27491e-07
2.69513e-06
4.28248e-07
2.48714e-06
4.30101e-07
2.27705e-06
4.33882e-07
2.06364e-06
4.40473e-07
1.84536e-06
4.50711e-07
1.62049e-06
4.6514e-07
1.38747e-06
4.83517e-07
1.14554e-06
5.03962e-07
8.95875e-07
5.21594e-07
6.43163e-07
5.26459e-07
3.97496e-07
5.00945e-07
1.74507e-07
4.20978e-07
2.75431e-07
1.11047e-06
-2.54293e-06
2.11986e-06
-2.89017e-06
2.96603e-06
-2.78472e-06
3.65771e-06
-2.44322e-06
4.20233e-06
-1.99208e-06
4.61208e-06
-1.52713e-06
4.90312e-06
-1.10057e-06
5.09304e-06
-7.34182e-07
5.19922e-06
-4.3241e-07
5.23767e-06
-1.90705e-07
5.22243e-06
-5.4831e-10
5.16503e-06
1.47265e-07
5.07479e-06
2.61269e-07
4.95917e-06
3.48689e-07
4.8241e-06
4.15565e-07
4.67428e-06
4.66735e-07
4.51342e-06
5.05957e-07
4.34444e-06
5.36082e-07
4.16959e-06
5.5921e-07
3.99062e-06
5.76846e-07
3.80884e-06
5.90045e-07
3.62517e-06
5.99578e-07
3.44029e-06
6.06076e-07
3.25465e-06
6.10139e-07
3.06851e-06
6.12405e-07
2.88201e-06
6.13574e-07
2.69509e-06
6.14419e-07
2.50756e-06
6.15792e-07
2.31903e-06
6.18635e-07
2.12893e-06
6.23982e-07
1.9365e-06
6.32913e-07
1.7408e-06
6.46425e-07
1.54085e-06
6.65127e-07
1.33571e-06
6.88703e-07
1.12471e-06
7.14996e-07
9.07719e-07
7.38624e-07
6.85253e-07
7.4897e-07
4.58217e-07
7.28038e-07
2.27044e-07
6.52224e-07
5.0251e-07
1.27159e-06
-3.81453e-06
2.34917e-06
-3.96774e-06
3.16073e-06
-3.59629e-06
3.76035e-06
-3.04283e-06
4.19684e-06
-2.42856e-06
4.50595e-06
-1.83623e-06
4.71363e-06
-1.30823e-06
4.83941e-06
-8.59956e-07
4.89886e-06
-4.91858e-07
4.90489e-06
-1.9673e-07
4.86835e-06
3.60072e-08
4.7982e-06
2.17421e-07
4.70185e-06
3.57632e-07
4.58521e-06
4.65336e-07
4.45304e-06
5.47741e-07
4.30915e-06
6.10628e-07
4.15659e-06
6.58526e-07
3.99776e-06
6.94913e-07
3.83457e-06
7.22414e-07
3.66846e-06
7.42973e-07
3.5005e-06
7.58019e-07
3.33146e-06
7.68635e-07
3.16183e-06
7.75705e-07
2.99193e-06
7.80027e-07
2.82196e-06
7.8238e-07
2.65197e-06
7.8357e-07
2.48195e-06
7.84458e-07
2.31176e-06
7.85986e-07
2.1412e-06
7.8919e-07
1.96998e-06
7.95195e-07
1.79773e-06
8.0517e-07
1.62398e-06
8.20191e-07
1.44816e-06
8.40971e-07
1.26952e-06
8.67363e-07
1.08698e-06
8.97562e-07
8.98732e-07
9.26899e-07
7.01584e-07
9.46154e-07
4.89762e-07
9.39907e-07
2.55007e-07
8.87039e-07
7.57545e-07
1.39014e-06
-5.20468e-06
2.56267e-06
-5.14028e-06
3.37248e-06
-4.4061e-06
3.90361e-06
-3.57397e-06
4.24655e-06
-2.77148e-06
4.46299e-06
-2.05267e-06
4.5907e-06
-1.43594e-06
4.65281e-06
-9.22054e-07
4.66433e-06
-5.03368e-07
4.63594e-06
-1.68333e-07
4.57589e-06
9.60678e-08
4.49084e-06
3.02482e-07
4.38623e-06
4.62248e-07
4.26646e-06
5.85104e-07
4.13512e-06
6.79095e-07
3.99507e-06
7.50677e-07
3.84867e-06
8.0493e-07
3.69779e-06
8.458e-07
3.54392e-06
8.76303e-07
3.38818e-06
8.9872e-07
3.23144e-06
9.14779e-07
3.07426e-06
9.25814e-07
2.91706e-06
9.32914e-07
2.76006e-06
9.37025e-07
2.60342e-06
9.39031e-07
2.44718e-06
9.39809e-07
2.29137e-06
9.40274e-07
2.13596e-06
9.41402e-07
1.98088e-06
9.4426e-07
1.82608e-06
9.49999e-07
1.67143e-06
9.59827e-07
1.51671e-06
9.74916e-07
1.3615e-06
9.96196e-07
1.2049e-06
1.02398e-06
1.04514e-06
1.05734e-06
8.78906e-07
1.09315e-06
7.0032e-07
1.12477e-06
4.99754e-07
1.14051e-06
2.65371e-07
1.12147e-06
1.02294e-06
1.50413e-06
-6.70883e-06
2.81447e-06
-6.45062e-06
3.64439e-06
-5.23602e-06
4.11368e-06
-4.04326e-06
4.36611e-06
-3.0239e-06
4.49226e-06
-2.17882e-06
4.54156e-06
-1.48524e-06
4.54046e-06
-9.20945e-07
4.50354e-06
-4.66436e-07
4.4395e-06
-1.04293e-07
4.35429e-06
1.81285e-07
4.25241e-06
4.04368e-07
4.13746e-06
5.77203e-07
4.01238e-06
7.10194e-07
3.87958e-06
8.11907e-07
3.74104e-06
8.8922e-07
3.5984e-06
9.47568e-07
3.45302e-06
9.91195e-07
3.30595e-06
1.02338e-06
3.15803e-06
1.04665e-06
3.00988e-06
1.06294e-06
2.86193e-06
1.07377e-06
2.71447e-06
1.08038e-06
2.56768e-06
1.08382e-06
2.42167e-06
1.08505e-06
2.2765e-06
1.08498e-06
2.13222e-06
1.08455e-06
1.98887e-06
1.08474e-06
1.84652e-06
1.08661e-06
1.70522e-06
1.0913e-06
1.56499e-06
1.10007e-06
1.42568e-06
1.11424e-06
1.28677e-06
1.1351e-06
1.14708e-06
1.16368e-06
1.00415e-06
1.20028e-06
8.53536e-07
1.24378e-06
6.87789e-07
1.29054e-06
4.95678e-07
1.33265e-06
2.64937e-07
1.35225e-06
1.28789e-06
1.66079e-06
-8.36963e-06
3.17837e-06
-7.9682e-06
4.03122e-06
-6.08886e-06
4.41929e-06
-4.43134e-06
4.56747e-06
-3.17208e-06
4.59686e-06
-2.2082e-06
4.56517e-06
-1.45354e-06
4.49968e-06
-8.55452e-07
4.41334e-06
-3.80094e-07
4.3125e-06
-3.43896e-09
4.20068e-06
2.93105e-07
4.08028e-06
5.24774e-07
3.95311e-06
7.04381e-07
3.82066e-06
8.42642e-07
3.68424e-06
9.48329e-07
3.54497e-06
1.0285e-06
3.40382e-06
1.08873e-06
3.26159e-06
1.13343e-06
3.11897e-06
1.16601e-06
2.97649e-06
1.18914e-06
2.83454e-06
1.2049e-06
2.69341e-06
1.21491e-06
2.55329e-06
1.22052e-06
2.41428e-06
1.22283e-06
2.27647e-06
1.22286e-06
2.13991e-06
1.22154e-06
2.00468e-06
1.21978e-06
1.87087e-06
1.21856e-06
1.73858e-06
1.2189e-06
1.60793e-06
1.22195e-06
1.47896e-06
1.22904e-06
1.35146e-06
1.24174e-06
1.22474e-06
1.26182e-06
1.09726e-06
1.29117e-06
9.66019e-07
1.33153e-06
8.25885e-07
1.38393e-06
6.68748e-07
1.44769e-06
4.83284e-07
1.51814e-06
2.58394e-07
1.57716e-06
1.5463e-06
1.91621e-06
-1.02858e-05
3.78059e-06
-9.83259e-06
4.60199e-06
-6.91025e-06
4.84803e-06
-4.67737e-06
4.85835e-06
-3.1824e-06
4.77552e-06
-2.12537e-06
4.65619e-06
-1.3342e-06
4.52345e-06
-7.22706e-07
4.38618e-06
-2.42814e-07
4.24732e-06
1.35425e-07
4.10764e-06
4.32785e-07
3.96728e-06
6.65142e-07
3.82624e-06
8.45415e-07
3.68465e-06
9.84234e-07
3.54271e-06
1.09027e-06
3.40072e-06
1.17049e-06
3.259e-06
1.23047e-06
3.11786e-06
1.27458e-06
2.97759e-06
1.30629e-06
2.83844e-06
1.3283e-06
2.7006e-06
1.34275e-06
2.5642e-06
1.35133e-06
2.4293e-06
1.35542e-06
2.29597e-06
1.35617e-06
2.16424e-06
1.3546e-06
2.03415e-06
1.35162e-06
1.90578e-06
1.34816e-06
1.77922e-06
1.34512e-06
1.6546e-06
1.34352e-06
1.53201e-06
1.34453e-06
1.41144e-06
1.34962e-06
1.29255e-06
1.36063e-06
1.17445e-06
1.37992e-06
1.05526e-06
1.41037e-06
9.31624e-07
1.45517e-06
7.9811e-07
1.51745e-06
6.46615e-07
1.5992e-06
4.6661e-07
1.69815e-06
2.48801e-07
1.79499e-06
1.79511e-06
2.82042e-06
-1.31063e-05
4.91637e-06
-1.19285e-05
5.44318e-06
-7.43704e-06
5.41862e-06
-4.6528e-06
5.23801e-06
-3.0018e-06
5.02103e-06
-1.90839e-06
4.80534e-06
-1.11851e-06
4.602e-06
-5.19352e-07
4.41237e-06
-5.31845e-08
4.23462e-06
3.13176e-07
4.0662e-06
6.01208e-07
3.9048e-06
8.26545e-07
3.74863e-06
1.00159e-06
3.59643e-06
1.13643e-06
3.4474e-06
1.23931e-06
3.301e-06
1.31689e-06
3.15697e-06
1.37451e-06
3.01513e-06
1.41642e-06
2.87542e-06
1.446e-06
2.73781e-06
1.46592e-06
2.60228e-06
1.47829e-06
2.4688e-06
1.48482e-06
2.33735e-06
1.48688e-06
2.20789e-06
1.48563e-06
2.08043e-06
1.48206e-06
1.95497e-06
1.47708e-06
1.83157e-06
1.47156e-06
1.7103e-06
1.46639e-06
1.59125e-06
1.46256e-06
1.47448e-06
1.4613e-06
1.35985e-06
1.46424e-06
1.24689e-06
1.47359e-06
1.13446e-06
1.49235e-06
1.02047e-06
1.52437e-06
9.01353e-07
1.57429e-06
7.71678e-07
1.64713e-06
6.23789e-07
1.74709e-06
4.48389e-07
1.87356e-06
2.38109e-07
2.00529e-06
2.03324e-06
6.9695e-06
-2.00757e-05
7.18135e-06
-1.21404e-05
6.6246e-06
-6.88028e-06
6.12196e-06
-4.15016e-06
5.68861e-06
-2.56845e-06
5.31695e-06
-1.53673e-06
4.99849e-06
-8.00045e-07
4.723e-06
-2.43851e-07
4.48095e-06
1.8887e-07
4.26439e-06
5.2973e-07
4.06705e-06
7.98546e-07
3.8841e-06
1.00949e-06
3.71199e-06
1.1737e-06
3.54815e-06
1.30027e-06
3.39079e-06
1.39667e-06
3.23865e-06
1.46902e-06
3.09088e-06
1.52228e-06
2.94688e-06
1.56043e-06
2.80624e-06
1.58665e-06
2.66866e-06
1.60351e-06
2.53393e-06
1.61304e-06
2.40188e-06
1.61689e-06
2.27236e-06
1.61641e-06
2.14527e-06
1.61272e-06
2.02055e-06
1.60678e-06
1.89817e-06
1.59947e-06
1.77814e-06
1.5916e-06
1.66049e-06
1.58404e-06
1.54526e-06
1.57779e-06
1.43241e-06
1.57416e-06
1.32169e-06
1.57496e-06
1.21245e-06
1.58283e-06
1.10339e-06
1.60141e-06
9.92243e-07
1.63552e-06
8.75402e-07
1.69113e-06
7.47636e-07
1.77489e-06
6.01967e-07
1.89276e-06
4.30478e-07
2.04506e-06
2.27562e-07
2.20824e-06
2.26082e-06
1.25605e-06
-1.487e-05
2.39152e-06
-1.44043e-05
3.37124e-06
-1.31182e-05
4.22029e-06
-1.20813e-05
4.97222e-06
-1.13329e-05
5.65962e-06
-1.08459e-05
6.30971e-06
-1.05792e-05
6.94335e-06
-1.04923e-05
7.57544e-06
-1.05509e-05
8.21586e-06
-1.07278e-05
8.87034e-06
-1.10034e-05
9.54138e-06
-1.13656e-05
1.02288e-05
-1.18085e-05
1.09299e-05
-1.23314e-05
1.16396e-05
-1.29372e-05
1.23502e-05
-1.36303e-05
1.30503e-05
-1.44131e-05
1.37247e-05
-1.52806e-05
1.43547e-05
-1.62126e-05
1.49203e-05
-1.71603e-05
1.54068e-05
-1.80299e-05
1.58185e-05
-1.86629e-05
1.62007e-05
-1.88268e-05
1.66516e-05
-1.83127e-05
1.73057e-05
-1.67434e-05
1.81631e-05
-1.4267e-05
1.78545e-05
-2.25761e-06
1.7198e-05
9.07587e-06
1.66297e-05
1.53659e-05
1.61637e-05
1.79257e-05
1.57478e-05
1.85319e-05
1.53447e-05
1.82407e-05
1.49336e-05
1.75835e-05
1.45087e-05
1.68232e-05
1.40749e-05
1.60907e-05
1.36446e-05
1.54543e-05
1.32351e-05
1.49559e-05
1.28668e-05
1.46309e-05
1.25638e-05
1.45204e-05
1.23565e-05
1.46799e-05
1.22872e-05
1.51878e-05
1.24277e-05
1.6159e-05
1.29187e-05
1.77774e-05
1.40895e-05
2.03928e-05
1.74593e-05
2.45815e-05
3.03831e-05
3.38899e-05
1.19864e-06
-1.60686e-05
2.28853e-06
-1.54942e-05
3.24073e-06
-1.40704e-05
4.07516e-06
-1.29158e-05
4.81919e-06
-1.20769e-05
5.50048e-06
-1.15272e-05
6.14299e-06
-1.12217e-05
6.76567e-06
-1.1115e-05
7.38247e-06
-1.11677e-05
8.00281e-06
-1.13481e-05
8.63229e-06
-1.16329e-05
9.27325e-06
-1.20066e-05
9.92533e-06
-1.24605e-05
1.05857e-05
-1.29918e-05
1.12492e-05
-1.36007e-05
1.1908e-05
-1.42891e-05
1.25514e-05
-1.50564e-05
1.31657e-05
-1.58949e-05
1.37351e-05
-1.67821e-05
1.42443e-05
-1.76695e-05
1.46837e-05
-1.84693e-05
1.50611e-05
-1.90403e-05
1.54167e-05
-1.91824e-05
1.58244e-05
-1.87204e-05
1.63793e-05
-1.72983e-05
1.70173e-05
-1.4905e-05
1.66232e-05
-1.86352e-06
1.60924e-05
9.60664e-06
1.56874e-05
1.57709e-05
1.53535e-05
1.82597e-05
1.50332e-05
1.88522e-05
1.47022e-05
1.85717e-05
1.43536e-05
1.79321e-05
1.39898e-05
1.71869e-05
1.36195e-05
1.64609e-05
1.32564e-05
1.58175e-05
1.2918e-05
1.52943e-05
1.26265e-05
1.49223e-05
1.24108e-05
1.47361e-05
1.2311e-05
1.47797e-05
1.2389e-05
1.51098e-05
1.27532e-05
1.57947e-05
1.3624e-05
1.69066e-05
1.55395e-05
1.84774e-05
1.98777e-05
2.02433e-05
2.1107e-05
2.91539e-05
1.14577e-06
-1.72144e-05
2.19266e-06
-1.65411e-05
3.11731e-06
-1.49951e-05
3.93603e-06
-1.37345e-05
4.67139e-06
-1.28123e-05
5.34676e-06
-1.22026e-05
5.98294e-06
-1.18579e-05
6.59687e-06
-1.17289e-05
7.20128e-06
-1.17721e-05
7.80494e-06
-1.19518e-05
8.41314e-06
-1.22411e-05
9.02807e-06
-1.26215e-05
9.6493e-06
-1.30818e-05
1.0274e-05
-1.36165e-05
1.08971e-05
-1.42239e-05
1.15113e-05
-1.49033e-05
1.21068e-05
-1.56519e-05
1.26717e-05
-1.64598e-05
1.3193e-05
-1.73034e-05
1.36592e-05
-1.81356e-05
1.40647e-05
-1.88748e-05
1.44183e-05
-1.93939e-05
1.47537e-05
-1.95177e-05
1.51243e-05
-1.9091e-05
1.55951e-05
-1.77691e-05
1.60483e-05
-1.53582e-05
1.56021e-05
-1.41732e-06
1.51653e-05
1.00434e-05
1.48771e-05
1.60592e-05
1.46432e-05
1.84935e-05
1.44029e-05
1.90925e-05
1.41379e-05
1.88368e-05
1.38481e-05
1.82219e-05
1.35407e-05
1.74943e-05
1.32268e-05
1.67748e-05
1.29206e-05
1.61237e-05
1.26399e-05
1.5575e-05
1.24076e-05
1.51546e-05
1.22539e-05
1.48897e-05
1.22221e-05
1.48115e-05
1.23778e-05
1.49541e-05
1.28283e-05
1.53442e-05
1.37612e-05
1.59738e-05
1.55109e-05
1.67277e-05
1.85531e-05
1.72012e-05
1.62806e-05
2.33796e-05
1.09688e-06
-1.83113e-05
2.10322e-06
-1.75474e-05
3.00044e-06
-1.58923e-05
3.80226e-06
-1.45363e-05
4.52755e-06
-1.35376e-05
5.19608e-06
-1.28711e-05
5.82585e-06
-1.24876e-05
6.43176e-06
-1.23348e-05
7.02524e-06
-1.23656e-05
7.61428e-06
-1.25409e-05
8.20373e-06
-1.28306e-05
8.79563e-06
-1.32134e-05
9.38951e-06
-1.36757e-05
9.98269e-06
-1.42097e-05
1.05704e-05
-1.48116e-05
1.11459e-05
-1.54788e-05
1.17006e-05
-1.62066e-05
1.22245e-05
-1.69837e-05
1.27071e-05
-1.7786e-05
1.31397e-05
-1.85683e-05
1.35195e-05
-1.92546e-05
1.38553e-05
-1.97296e-05
1.41745e-05
-1.98369e-05
1.4515e-05
-1.94315e-05
1.49206e-05
-1.81748e-05
1.52142e-05
-1.56518e-05
1.47396e-05
-9.42726e-07
1.43744e-05
1.04086e-05
1.4171e-05
1.62625e-05
1.40132e-05
1.86513e-05
1.38385e-05
1.92672e-05
1.36313e-05
1.9044e-05
1.33948e-05
1.84585e-05
1.31383e-05
1.77508e-05
1.28738e-05
1.70392e-05
1.26157e-05
1.63818e-05
1.23813e-05
1.58093e-05
1.21927e-05
1.53433e-05
1.20789e-05
1.50034e-05
1.20809e-05
1.48095e-05
1.22577e-05
1.47774e-05
1.26964e-05
1.49055e-05
1.35244e-05
1.51458e-05
1.49073e-05
1.53449e-05
1.69701e-05
1.51383e-05
1.38122e-05
1.94385e-05
1.05146e-06
-1.93627e-05
2.01939e-06
-1.85153e-05
2.88936e-06
-1.67622e-05
3.67315e-06
-1.53201e-05
4.38673e-06
-1.42512e-05
5.04697e-06
-1.35314e-05
5.6694e-06
-1.31101e-05
6.26705e-06
-1.29325e-05
6.85003e-06
-1.29486e-05
7.42552e-06
-1.31163e-05
7.99789e-06
-1.34029e-05
8.56894e-06
-1.37845e-05
9.13822e-06
-1.42449e-05
9.70324e-06
-1.47747e-05
1.02597e-05
-1.5368e-05
1.08015e-05
-1.60206e-05
1.13213e-05
-1.67264e-05
1.18107e-05
-1.74731e-05
1.22613e-05
-1.82367e-05
1.26669e-05
-1.89739e-05
1.30263e-05
-1.9614e-05
1.33477e-05
-2.0051e-05
1.36531e-05
-2.01424e-05
1.39697e-05
-1.97481e-05
1.43276e-05
-1.85327e-05
1.44778e-05
-1.5802e-05
1.39917e-05
-4.56552e-07
1.36838e-05
1.07165e-05
1.35444e-05
1.6402e-05
1.34453e-05
1.87504e-05
1.33242e-05
1.93883e-05
1.31668e-05
1.92014e-05
1.29773e-05
1.86479e-05
1.27659e-05
1.79623e-05
1.25445e-05
1.72606e-05
1.2327e-05
1.65993e-05
1.21295e-05
1.60068e-05
1.19723e-05
1.55006e-05
1.18815e-05
1.50942e-05
1.18926e-05
1.47985e-05
1.20532e-05
1.46167e-05
1.24267e-05
1.45321e-05
1.30884e-05
1.4484e-05
1.41022e-05
1.43312e-05
1.54321e-05
1.38085e-05
1.25326e-05
1.67117e-05
1.00895e-06
-2.03717e-05
1.94029e-06
-1.94467e-05
2.78323e-06
-1.76052e-05
3.54797e-06
-1.60848e-05
4.24823e-06
-1.49514e-05
4.89852e-06
-1.41817e-05
5.51228e-06
-1.37238e-05
6.10085e-06
-1.35211e-05
6.67315e-06
-1.35209e-05
7.23549e-06
-1.36787e-05
7.79176e-06
-1.39592e-05
8.34354e-06
-1.43362e-05
8.89038e-06
-1.47918e-05
9.43002e-06
-1.53143e-05
9.95858e-06
-1.58966e-05
1.04708e-05
-1.65328e-05
1.09604e-05
-1.72159e-05
1.14203e-05
-1.79331e-05
1.18442e-05
-1.86605e-05
1.22273e-05
-1.9357e-05
1.25695e-05
-1.99562e-05
1.28784e-05
-2.03599e-05
1.31722e-05
-2.04361e-05
1.34698e-05
-2.00457e-05
1.37933e-05
-1.88563e-05
1.38082e-05
-1.58169e-05
1.33224e-05
2.92601e-08
1.3065e-05
1.09739e-05
1.29769e-05
1.64901e-05
1.29245e-05
1.88029e-05
1.28474e-05
1.94655e-05
1.27324e-05
1.93164e-05
1.25839e-05
1.87964e-05
1.2412e-05
1.81342e-05
1.22279e-05
1.74446e-05
1.20447e-05
1.67826e-05
1.18768e-05
1.61747e-05
1.17421e-05
1.56353e-05
1.16628e-05
1.51734e-05
1.16678e-05
1.47935e-05
1.17931e-05
1.44915e-05
1.20804e-05
1.42447e-05
1.25688e-05
1.39957e-05
1.32675e-05
1.36325e-05
1.4094e-05
1.2982e-05
1.18436e-05
1.4783e-05
9.68814e-07
-2.13405e-05
1.86507e-06
-2.03429e-05
2.68117e-06
-1.84213e-05
3.42603e-06
-1.68297e-05
4.11153e-06
-1.56369e-05
4.75026e-06
-1.48204e-05
5.35389e-06
-1.43275e-05
5.93234e-06
-1.40995e-05
6.49338e-06
-1.40819e-05
7.04258e-06
-1.42279e-05
7.58332e-06
-1.44999e-05
8.11696e-06
-1.48699e-05
8.64306e-06
-1.53179e-05
9.15959e-06
-1.58308e-05
9.66313e-06
-1.64001e-05
1.01491e-05
-1.70189e-05
1.06123e-05
-1.76791e-05
1.10468e-05
-1.83676e-05
1.14476e-05
-1.90613e-05
1.18114e-05
-1.97208e-05
1.21388e-05
-2.02836e-05
1.24365e-05
-2.06577e-05
1.27198e-05
-2.07194e-05
1.30021e-05
-2.03279e-05
1.33e-05
-1.91543e-05
1.31773e-05
-1.56941e-05
1.27027e-05
5.03855e-07
1.24954e-05
1.11813e-05
1.24524e-05
1.6533e-05
1.2439e-05
1.88163e-05
1.23986e-05
1.95059e-05
1.23196e-05
1.93954e-05
1.22066e-05
1.89094e-05
1.20689e-05
1.8272e-05
1.19171e-05
1.75964e-05
1.17628e-05
1.69368e-05
1.16191e-05
1.63185e-05
1.15008e-05
1.57536e-05
1.14265e-05
1.52477e-05
1.14183e-05
1.48016e-05
1.15022e-05
1.44076e-05
1.17039e-05
1.4043e-05
1.20402e-05
1.36594e-05
1.24977e-05
1.3175e-05
1.2999e-05
1.24806e-05
1.14695e-05
1.33732e-05
9.30576e-07
-2.22711e-05
1.79294e-06
-2.12053e-05
2.58241e-06
-1.92108e-05
3.30672e-06
-1.7554e-05
3.97624e-06
-1.63064e-05
4.60197e-06
-1.54461e-05
5.19411e-06
-1.49196e-05
5.76132e-06
-1.46667e-05
6.31042e-06
-1.4631e-05
6.84625e-06
-1.47637e-05
7.37176e-06
-1.50254e-05
7.88809e-06
-1.53862e-05
8.39481e-06
-1.58246e-05
8.8901e-06
-1.63261e-05
9.37099e-06
-1.6881e-05
9.83356e-06
-1.74814e-05
1.02733e-05
-1.81188e-05
1.06855e-05
-1.87798e-05
1.10662e-05
-1.9442e-05
1.14131e-05
-2.00677e-05
1.1727e-05
-2.05975e-05
1.20144e-05
-2.0945e-05
1.22882e-05
-2.09933e-05
1.2558e-05
-2.05977e-05
1.28378e-05
-1.94341e-05
1.25653e-05
-1.54216e-05
1.21141e-05
9.55142e-07
1.196e-05
1.13354e-05
1.19597e-05
1.65333e-05
1.19803e-05
1.87957e-05
1.19711e-05
1.95152e-05
1.19227e-05
1.94438e-05
1.184e-05
1.89921e-05
1.17317e-05
1.83803e-05
1.16076e-05
1.77205e-05