/*--------------------------------*- C++ -*----------------------------------*\
  =========                 |
  \\      /  F ield         | OpenFOAM: The Open Source CFD Toolbox
   \\    /   O peration     | Website:  https://openfoam.org
    \\  /    A nd           | Version:  7
     \\/     M anipulation  |
\*---------------------------------------------------------------------------*/
FoamFile
{
    version     2.0;
    format      ascii;
    class       volScalarField;
    location    "0.0024";
    object      internalT;
}
// * * * * * * * * * * * * * * * * * * * * * * * * * * * * * * * * * * * * * //

dimensions      [1 2 -2 0 0 0 0];

internalField   nonuniform List<scalar> 
1000
(
229.951
230.91
226.698
220.903
220.794
230.748
233.526
241.734
244.608
245.433
245.835
252.552
260.811
267.312
254.764
253.115
249.99
254.684
261.048
263.892
256.156
255.442
263.546
267.583
270.729
268.408
268.626
269.205
279.753
290.472
289.691
283.793
285.063
283.536
284.345
280.833
265.249
278.274
277.768
285.564
288.374
282.783
279.919
284.882
277.584
286.576
292.595
284.874
287.523
287.759
283.49
290.251
296.266
301.003
313.366
313.678
297.851
285.037
290.211
284.838
285.102
278.876
285.927
291.359
283.869
268.071
286.217
290.456
285.916
295.137
301.333
292.3
293.175
293.517
291.175
295.547
300.805
291.346
290.505
278.582
285.505
293.495
288.258
287.681
296.116
294.887
304.802
299.878
289.259
298.909
301.725
303.511
297.9
294.851
300.88
312.732
318.28
306.263
300.67
296.217
298.858
303.343
298.846
288.376
288.689
283.197
288.871
300.111
302.151
303.804
308.198
312.253
303.726
302.667
315.551
301.967
297.347
294.697
286.407
292.561
287.467
282.885
282.267
284.986
283.652
282.468
274.347
277.518
283.795
288.946
292.062
292.66
298.506
295.606
304.414
318.417
305.89
305.867
294.249
291.479
292.03
306.07
300.973
298.074
304.624
297.854
290.667
287.707
299.179
302.53
294.853
307.763
304.619
300.932
308.955
293.325
299.803
281.908
288.965
296.342
300.871
305.049
302.805
298.052
291.849
296.932
294.473
287.275
292.631
307.08
303.613
285.366
280.599
294.54
310.761
299.847
305.477
293.945
276.485
293.746
302.455
301.55
308.439
305.202
301.771
308.139
316.974
302.963
319.711
314.83
305.493
312.971
314.788
300.507
292.859
294.258
291.356
291.894
291.657
281.915
285.081
297.57
298.782
303.755
296.462
296.613
300.476
290.695
302.476
306.415
300.176
298.555
302.153
296.342
293.627
305.97
297.068
295.394
285.836
290.844
306.725
297.041
298.448
302.218
307.286
295.441
295.97
289.43
296.573
303.361
297.578
301.478
302.235
296.981
303.204
298.446
305.492
297.078
317.296
311.001
299.182
307.47
304.089
292.898
290.982
289.062
300.435
299.27
290.659
290.542
300.878
300.216
301.423
298.081
306.596
308.996
306.342
292.668
284.293
292.166
286.353
286.732
293.827
300.146
308.645
300.94
308.047
294.988
306.207
296.04
298.683
300.363
304.442
298.873
295.745
286.735
282.164
300.595
299.969
284.497
295.896
289.731
287.652
291.489
292.998
283.817
282.536
304.902
295.161
296.277
299.626
296.965
300.695
298.658
288.693
292.735
299.689
318.889
318.342
318.375
317.537
316.73
304.722
297.169
307.663
302.353
310.091
329.954
317.058
308.154
292.483
297.555
299.697
310.192
299.953
293.534
294.043
280.718
287.461
286.299
286.966
300.805
296.918
307.197
303.94
303.502
303.597
305.34
286.801
290.323
295.437
299.687
297.881
294.362
280.974
301.34
306.812
291.387
301.184
292.867
293.965
299.594
289.646
293.186
298.791
298.468
290.87
287.83
291.108
301.926
292.569
294.181
284.698
295.428
291.264
282.979
277.113
288.266
281.77
292.659
292.396
304.136
297.611
296.175
294.618
311.097
298.991
298.74
298.954
314.932
309.415
310.503
303.156
298.484
311.482
305.681
312.643
312.41
300.756
304.827
302.732
304.766
303.151
304.93
298.789
315.177
311.834
305.679
297.966
307.606
322.282
322.993
325.32
320.89
323.153
313.919
312.963
315.312
308.288
312.13
311.78
305.602
299.384
300.285
300.683
293.235
295.947
297.865
295.191
308.589
297.325
306.933
316.793
310.758
305.116
307.583
295.346
318.903
315.693
323.029
318.203
309.82
305.638
317.484
328.625
321.591
318.565
311.216
311.707
319.651
323.003
327.65
321.295
326.983
324.163
331.24
333.36
333.627
332.957
335.413
336.416
335.413
328.483
333.131
336.194
328.992
335.749
320.508
325.812
329.067
327.879
337.448
339.261
334.168
326.087
328.477
331.146
320.785
328.436
328.644
324.787
327.67
328.318
328.557
322.844
317.445
324.596
322.579
313.284
314.706
311.067
309.511
305.789
309.367
307.176
306.154
299.607
293.669
295.147
298.355
293.78
294.962
294.505
290.994
284.992
286.942
284.274
287.217
277.907
279.889
277.988
271.064
270.678
272.959
266.835
262.521
256.343
258.023
253.535
258.416
257.203
253.014
260.332
262.756
259.71
255.338
264.703
264.28
265.195
266.95
270.391
263.556
266.923
262.02
265.353
274.908
268.752
277.75
274.524
280.309
278.154
278.266
275.691
277.178
277.355
278.409
280.681
279.261
280.572
286.751
281.1
274.605
279.59
285.188
289.777
292.01
286.642
284.139
288.717
285.713
279.313
279.168
284.557
280.168
284.182
286.632
291.721
291.07
288.628
286.32
283.904
291.527
289.432
290.358
290.628
288.383
284.02
290.336
296.214
289.775
292.845
297.902
299.161
295.973
306.373
300.009
298.563
299.772
298.925
297.362
299.613
292.947
298.471
292.586
295.885
299.702
292.152
292.582
299.776
293.955
295.332
289.984
294.353
292.812
295.663
296.336
299.164
294.654
293.969
288.793
287.895
297.681
296.97
292.513
293.222
293.741
299.131
301.916
298.255
298.645
303.958
304.357
298.477
300.813
300.231
295.175
297.22
299.962
296.838
291.231
298.027
303.735
302.762
297.817
292.246
291.361
294.637
295.324
293.658
296.368
293.278
294.453
294.944
288.458
286.915
287.218
289.468
297.704
303.065
292.566
290.687
294.817
290.739
295.412
295.425
293.922
296.565
298.617
299.488
308.372
302.791
294.214
291.079
295.812
294.931
296.483
298.502
296.485
294.043
288.578
287.664
292.158
301.231
298.387
300.198
305.539
301.666
298.275
291.062
293.627
295.205
295.62
293.418
296.236
298.808
307.01
299.688
302.557
300.831
305.793
297.05
304.191
311.772
312.532
303.212
301.87
304.634
306.511
304.029
294.626
293.611
297.686
295.831
296.606
291.801
298.107
292.04
291.914
292.268
292.423
298.515
299.036
302.227
300.473
305.929
300.055
306.798
296.362
297.614
292.204
300.68
291.28
289.837
283.996
287.695
291.849
289.199
288.818
297.617
299.862
301.998
297.627
303.618
298.021
298.809
297.424
298.877
305.855
301.347
298.734
302.477
299.895
304.321
299.366
297.414
297.343
304.368
299.353
298.311
294.49
296.974
296.499
301.098
303.716
294.986
300.533
306.112
300.104
296.806
299.345
292.735
298.493
301.07
300.634
309.419
303.325
295.873
295.88
298.415
298.939
294.338
289.394
296.787
303.493
297.78
298.922
297.095
296.756
291.489
301.744
295.277
294.391
285.184
290.376
297.517
308.339
301.429
305.146
302.178
300.968
298.479
301.719
299.889
301.306
309.07
305.881
310.908
314.527
313.039
308.569
309.741
309.2
309.256
306.788
304.836
309.283
302.007
299.795
301.682
300.838
305.736
305.518
305.671
300.742
297.265
297.924
296.593
300.973
306.096
306.867
302.296
301.363
299.249
302.822
300.008
298.092
292.169
297.017
293.092
303.462
304.554
303.19
302.686
302.992
302.316
311.59
302.85
309.215
309.226
302.526
304.18
299.841
305.64
309.834
299.551
308.195
307.427
300.493
301.433
301.387
303.702
297.824
300.014
303.97
295.932
293.628
305.422
309.171
299.678
302.286
308.284
305.026
307.481
302.886
293.523
299.137
308.619
304.787
303.575
303.728
298.788
298.408
295.138
300.012
297.386
299.856
301.792
298.393
301.702
300.595
296.857
295.278
297.612
307.006
302.755
301.039
305.214
311.113
302.67
307.576
306.923
308.051
314.913
309.243
302.549
302.153
304.904
305.306
307.52
305.424
298.644
295.524
293.46
294.725
296.555
299.384
295.826
301.411
297.456
300.222
299.974
304.936
301.345
296.818
296.991
294.097
296.143
298.889
295.941
298.957
304.046
301.191
311.46
305.393
308.503
305.509
309.603
314.53
307.723
304.299
302.337
297.932
297.938
296.281
300.241
297.351
296.545
298.684
296.821
295.033
299.005
299.684
303.216
302.378
303.432
300.002
298.648
298.227
300.362
297.149
299.862
293.421
297.206
295.442
294.96
289.575
290.365
302.146
301.708
294.117
290.354
289.788
289.143
288.914
288.607
292.404
290.291
289.275
296.194
294.427
291.613
290.466
291.837
286.996
286.215
287.881
285.097
289.566
285.971
283.55
288.596
292.322
290.145
284.321
281.846
292.105
285.13
281.506
280.06
280.666
273.316
275.694
277.167
270.584
269.783
269.939
278.224
269.349
277.386
274.972
276.852
275.769
265.362
261.075
266.706
261.128
262.992
263.499
263.306
265.13
258.404
251.51
243.695
245.115
240.945
233.656
227.516
224.627
223.54
218.707
)
;

boundaryField
{
    sides
    {
        type            calculated;
        value           nonuniform List<scalar> 2(218.707 229.951);
    }
    empty
    {
        type            empty;
    }
}


// ************************************************************************* //
