/*--------------------------------*- C++ -*----------------------------------*\
  =========                 |
  \\      /  F ield         | OpenFOAM: The Open Source CFD Toolbox
   \\    /   O peration     | Website:  https://openfoam.org
    \\  /    A nd           | Version:  7
     \\/     M anipulation  |
\*---------------------------------------------------------------------------*/
FoamFile
{
    version     2.0;
    format      ascii;
    class       volScalarField;
    location    "0.0024";
    object      linearKE;
}
// * * * * * * * * * * * * * * * * * * * * * * * * * * * * * * * * * * * * * //

dimensions      [1 -1 -2 0 0 0 0];

internalField   nonuniform List<scalar> 
1000
(
0.301113
0.232416
0.181479
0.364912
0.223002
0.298878
0.318045
0.354855
0.349779
0.339395
0.331023
0.381737
0.404437
0.362599
0.349703
0.296906
0.392651
0.254382
0.242174
0.368693
0.273159
0.258652
0.280074
0.529076
0.441577
0.308231
0.35475
0.399894
0.473072
0.348779
0.458139
0.586141
0.436544
0.73553
0.39295
0.540355
0.325299
0.409079
0.473226
0.25546
0.468604
0.431855
0.404179
0.636522
0.461967
0.467203
0.527033
0.389526
0.360163
0.301679
0.360826
0.545377
0.580515
0.46219
0.379601
0.556084
0.643534
0.491417
0.492639
0.462316
0.531002
0.354258
0.762628
0.37613
0.488566
0.521192
0.624725
0.724823
0.456799
0.472746
0.784615
0.503105
0.764391
0.804504
0.662868
0.708387
0.745489
0.534428
0.541954
0.748005
0.502306
0.692506
0.773716
0.526306
0.509986
0.638172
0.792943
0.60411
0.925413
0.689434
0.567057
0.652945
0.760262
0.528646
0.665711
0.63529
0.605523
0.665822
0.586807
0.715036
0.744736
0.775807
0.962445
0.519238
0.936398
0.589552
0.646469
0.825945
0.826889
0.669602
0.545749
0.731129
0.61829
0.72202
0.744915
1.02554
0.75976
0.858074
0.822734
0.686868
0.549365
0.923742
0.794722
0.810796
0.621893
0.89316
0.766311
0.559041
0.829501
0.714496
0.840435
0.536634
0.823403
0.772468
0.672182
0.971428
0.596134
0.614371
1.01272
0.737688
0.806106
0.735079
0.726469
0.901686
0.83614
0.629237
0.961611
0.804257
0.579995
0.602772
0.789346
0.460868
0.889781
0.649997
0.652117
0.86817
0.747806
0.568501
0.630375
0.633423
0.596498
0.810402
0.962669
0.689572
0.833022
0.607405
0.653673
0.86378
0.426276
0.797023
0.941195
0.80642
1.0335
0.638627
0.856728
0.595825
0.819087
0.494203
0.711053
0.723015
0.862542
0.57361
0.607083
0.685073
0.972568
0.731536
0.837202
1.05308
0.617321
0.647294
0.526786
0.879876
0.889872
0.903282
0.563821
0.684558
0.585031
0.532005
0.755088
0.648185
0.849527
0.699564
0.606241
0.774307
0.929692
0.731713
0.728078
0.937222
0.831138
0.665258
0.67676
0.578953
0.653309
0.556926
0.806596
0.631638
0.901303
1.04588
0.852895
0.491638
0.566156
0.697683
0.641094
0.825408
0.722668
0.63542
0.890604
0.747898
0.646834
0.66086
0.6988
0.711697
0.817062
0.621315
0.806455
0.812033
0.881323
0.845205
0.691571
0.666829
1.20698
0.735886
0.747639
0.878364
0.601627
0.803276
0.781882
0.894838
0.836708
0.684123
0.658395
0.914126
0.762994
0.746514
0.648911
0.737876
0.84741
0.662013
0.85661
1.03359
0.537007
0.645962
0.772535
0.884825
0.727897
0.911773
0.652662
0.938479
0.849811
0.492734
0.774262
0.629887
0.693084
0.844136
0.945093
0.852416
0.844746
0.711915
0.814688
0.950622
0.824101
0.799506
0.828521
0.593536
0.978087
0.810407
0.889063
0.714498
0.646963
0.695188
0.868463
0.811188
0.534655
0.924835
0.681002
0.509607
0.502221
0.982695
0.807425
0.822381
0.712581
0.729454
0.700131
0.963586
0.775915
0.970255
0.71119
0.748588
0.968956
0.892707
0.920438
0.97742
0.865709
0.795808
0.688656
0.60316
0.764642
0.653623
0.848144
0.460346
0.680393
0.880036
0.724101
0.839532
0.808493
0.963061
0.867588
0.771552
0.98105
0.698216
0.716533
0.687348
0.776995
0.936741
0.577348
0.836595
0.696504
0.755101
0.513789
0.786475
0.819334
0.537978
0.735006
0.592232
0.547346
0.793021
0.727442
0.711901
0.931022
0.779576
0.735213
0.77865
0.777296
0.698902
0.666764
0.619382
0.876575
0.930917
0.863675
0.639007
0.483517
0.580982
0.783819
0.704807
0.662496
0.792612
0.876662
0.711154
0.738477
0.552447
0.723157
0.698604
0.79738
0.692924
0.658455
0.566946
0.849902
0.926096
0.704324
0.796076
0.603123
0.666544
0.984092
0.730751
0.797327
0.85831
0.706882
0.978745
1.03386
1.10552
1.08359
1.27448
1.24605
1.10367
1.4366
1.26115
1.44145
1.33354
1.44296
1.44415
1.53588
1.1938
1.37151
1.4007
1.54682
1.29204
1.82453
1.3698
1.26383
1.14003
1.51244
1.99884
1.21737
1.71046
1.12828
1.43754
1.1741
1.53633
1.81754
1.53354
1.76725
1.59742
1.63726
1.33361
1.67489
1.28141
1.42607
1.53647
1.47731
1.05046
1.69928
1.48066
1.59532
1.61042
1.42499
1.31593
1.3797
1.63329
1.42106
2.00596
1.18887
1.3954
1.64743
1.57917
1.45751
1.39325
1.51112
1.63809
1.66501
1.3865
1.35568
1.45352
1.59965
1.8379
1.34839
2.05995
1.6202
1.33382
1.38401
1.51072
1.68733
1.21902
1.74683
1.51126
1.59
1.65747
1.26735
1.62734
1.77087
1.51915
1.20874
1.27032
1.97162
1.46686
1.74947
1.59439
1.77662
2.00732
1.24409
1.27131
1.36579
1.48053
1.5374
1.33582
1.10485
1.11293
1.48384
1.85864
1.32225
1.23506
1.57104
1.65296
1.58707
1.7128
1.2044
1.49714
1.6055
1.32875
1.41012
1.3547
1.74209
1.86661
1.7854
1.32182
1.66991
1.39478
1.86248
1.5789
1.22403
1.15923
1.51243
1.78772
1.3673
1.41635
1.68119
1.71481
1.75687
1.38287
1.65661
1.48069
1.96146
1.67545
1.41168
1.52802
1.60363
1.98427
1.1446
1.35149
1.39126
1.51944
1.47027
1.42138
1.64864
1.79485
1.27536
1.29555
1.47324
1.53562
1.48845
1.7704
1.84107
1.73794
1.50838
2.01188
1.73735
1.89646
1.54992
1.66026
1.67371
1.85488
1.58216
1.65098
1.99693
1.72364
2.10946
1.92858
1.98384
1.84037
1.91709
2.02815
1.96814
1.86012
2.02973
1.98663
2.09747
2.27353
1.89603
1.86369
2.25824
2.3064
1.98185
2.06503
2.1366
1.90359
2.20496
2.08536
2.1515
2.41426
1.98779
2.88829
2.75832
2.18809
2.50636
2.21961
2.4548
2.6
1.98465
2.13423
2.20824
2.61671
2.66077
2.25314
2.43467
2.95206
2.57267
2.75107
2.59408
3.08078
1.80908
2.08797
2.72421
2.59678
2.41148
2.74443
2.78334
2.1543
2.82634
2.49209
2.64505
2.3476
2.40773
2.70984
3.19755
2.28637
2.47525
2.66034
2.52848
2.0255
2.48855
2.70085
2.42204
2.29985
2.61318
2.91592
2.59412
2.41743
2.38664
2.42359
2.41594
2.94733
2.50092
2.51697
2.31103
2.51694
2.74527
2.68657
2.43696
2.32687
3.07724
2.3999
2.73685
2.78049
3.00653
2.42521
2.56397
2.38067
2.48361
2.6941
2.55965
2.44527
2.456
2.63426
2.4694
2.47798
2.607
2.66031
2.38745
2.56783
2.38245
2.78469
2.57075
2.6086
2.78585
3.19915
2.46407
2.85442
2.3322
2.4494
2.73202
2.38527
2.43519
2.67226
2.55503
2.76419
2.13595
2.54748
2.45218
3.2224
1.95411
2.88669
3.15839
2.67836
2.38068
2.84653
2.38837
2.41801
2.97001
2.45156
2.7798
2.67374
2.97493
2.48434
2.3615
2.75842
2.67739
2.62676
2.46575
2.68071
2.47943
2.47254
2.56412
2.49135
2.65191
2.68826
2.60562
2.66726
2.88142
3.03058
1.95035
2.62931
2.66188
2.94196
2.46109
2.458
2.8829
2.66684
2.51653
2.21602
2.52366
2.40378
2.6373
2.87412
2.88584
2.69872
2.62594
2.59745
2.4947
2.09968
2.29927
2.3186
2.43752
2.83036
2.61881
2.92259
2.66371
3.10783
2.72661
2.66621
2.74306
2.65672
2.69733
2.4628
2.68053
2.64729
2.56509
2.64254
2.83822
2.88508
3.04456
2.17543
2.57448
2.82789
2.83623
2.69967
2.2397
3.33588
2.63652
2.40233
2.60319
3.02858
2.6465
2.62581
3.14905
2.87272
2.80265
2.94124
2.88818
2.0759
3.07635
2.82173
2.46789
2.68347
2.8825
2.95869
2.53656
2.49814
2.13854
2.49999
2.66688
2.78163
2.44999
2.83083
2.92453
3.06132
2.39809
2.19597
2.84559
2.40519
2.75927
2.46323
3.06429
3.09202
2.61002
2.76015
2.66793
3.00396
2.40205
2.40504
2.45476
2.94625
2.61383
2.74215
2.65072
2.70388
2.51286
2.72699
2.75138
2.6457
2.48204
2.64491
2.60357
2.85552
2.63565
2.55864
2.46583
2.44403
2.76925
2.36498
2.35793
2.88486
2.43097
2.45973
2.76648
2.55018
2.96242
2.69085
2.31101
2.4909
2.35642
2.2933
2.67979
2.6591
2.50962
3.73003
2.77205
2.5329
2.97166
1.97064
2.99332
2.808
2.30891
2.75539
3.284
2.58574
3.01264
2.60171
2.36854
2.48647
2.35055
2.51592
2.46387
2.22279
2.92643
2.77709
2.60722
2.82109
2.92561
2.47767
2.61849
3.0448
2.74613
2.92515
2.66513
2.65293
2.11502
2.57146
2.90477
2.74035
2.54631
2.06548
3.54042
2.70939
2.59783
3.25234
2.81152
2.5676
2.52607
2.74825
2.67624
2.16664
2.90056
3.01195
2.70607
2.60142
2.78007
2.35254
3.25973
2.6468
2.8271
2.62199
2.29403
2.49048
2.8607
2.25874
2.67084
2.60106
2.58496
2.25536
3.13469
2.40844
2.69593
3.00851
2.52089
2.58606
2.40959
2.77412
2.57968
2.44012
2.78644
2.62876
2.61943
2.5305
2.53061
2.83948
2.60942
2.69639
2.3227
2.64376
2.55058
2.14772
2.44557
2.07621
2.17601
2.32474
2.60059
2.52879
1.9941
2.16469
2.22115
2.1304
2.20652
1.81153
1.96538
1.9246
2.14232
1.88246
2.04101
1.87759
1.67046
1.76856
1.47507
1.76037
2.11326
2.00949
2.10361
1.75591
1.52087
1.81435
1.52081
1.84219
1.74714
1.48272
1.63468
1.82082
1.43356
1.85616
1.41244
1.4045
1.74809
1.42637
1.43679
1.32531
1.5149
1.31563
1.3951
1.54935
1.37419
1.17088
1.40256
1.50839
1.24016
1.23691
1.35287
1.75465
1.45312
1.1904
1.21918
1.30541
1.07507
1.29664
1.06292
1.12782
1.17455
1.29009
1.16292
1.32007
1.40308
1.27226
1.29018
0.939887
0.996318
1.03436
1.15509
1.00728
1.04436
1.30822
1.34309
1.00989
0.993964
1.03795
)
;

boundaryField
{
    sides
    {
        type            zeroGradient;
    }
    empty
    {
        type            empty;
    }
}


// ************************************************************************* //
