/*--------------------------------*- C++ -*----------------------------------*\
  =========                 |
  \\      /  F ield         | OpenFOAM: The Open Source CFD Toolbox
   \\    /   O peration     | Website:  https://openfoam.org
    \\  /    A nd           | Version:  7
     \\/     M anipulation  |
\*---------------------------------------------------------------------------*/
FoamFile
{
    version     2.0;
    format      ascii;
    class       scalarField;
    location    "0.00036/particle/lagrangian/dsmc";
    object      Ei;
}
// * * * * * * * * * * * * * * * * * * * * * * * * * * * * * * * * * * * * * //


87951
(
1.24367067875726e-21
6.27452021518111e-22
1.14937264622334e-20
1.17658339190112e-20
4.24732524810143e-20
1.99917608535511e-20
1.82282399116549e-20
1.76871152563378e-21
5.17845427015814e-21
1.68210144055379e-21
2.27264916716657e-21
2.4452937945482e-20
4.69325194367545e-21
1.23508377016505e-20
2.32027182412885e-21
2.26353150498898e-20
9.68990945943137e-21
2.51666432501543e-20
6.96179531441187e-21
6.96242520790685e-21
2.34339991268223e-20
1.50564394890311e-20
2.21643895242212e-21
1.89782325902501e-21
4.06937882160762e-20
5.04298175968047e-22
1.10517127720605e-20
6.9390119100398e-21
2.46017055468606e-20
6.9286789529717e-22
9.64037422185189e-21
1.10433929730121e-20
5.7737949742576e-22
9.63949114667064e-21
5.80170354678205e-21
7.6861878480583e-21
3.12831452322621e-20
1.06246580362377e-20
1.80134239171178e-21
1.53618893687563e-20
3.12327004165045e-20
2.59627303793947e-21
3.96532204345325e-20
6.81914801509125e-21
3.07511001163538e-20
1.49034930688772e-21
5.28585200967657e-21
6.04359240590801e-21
2.46666967710196e-20
3.02347307852084e-20
2.08022807509042e-20
2.02551874706748e-20
4.25122770887848e-20
5.76260200969563e-21
2.68693172623975e-20
3.53586204402114e-20
8.72039343431764e-21
2.42734335562748e-21
1.77169958884838e-20
1.74980115388805e-20
8.17093575376274e-21
3.5851157740174e-21
2.01214324933185e-21
1.83519626901514e-20
1.7822671585279e-21
1.7841013227855e-20
1.13016212975168e-20
1.1879048438979e-20
5.62548629649187e-21
3.45432758088723e-21
6.61793839654527e-21
1.55373437108359e-20
6.65477852211226e-22
2.87040346241125e-21
1.16075588021607e-20
2.49670821648217e-21
9.19659335594828e-21
1.39620891989772e-20
7.91628828663853e-21
2.30955452227048e-20
1.6890639413421e-21
7.43429222394554e-21
1.84009287818471e-20
5.15477836684183e-21
6.58458848794468e-21
5.51521841942826e-21
1.09110557922437e-20
1.39793505424018e-21
3.42363794064833e-21
8.96489918009601e-21
8.31387275671007e-22
9.64656999481486e-22
1.38525404115276e-20
3.16522264046974e-21
2.42578927905996e-20
2.05877641614219e-20
3.17380238830848e-20
1.00481253117813e-20
1.41911755422548e-20
2.16708751943689e-20
2.35334309274905e-21
3.10673958293705e-20
1.16170402587901e-21
1.06836956317948e-20
2.91420463980116e-21
1.6057032215562e-20
2.05033544117725e-20
1.58274991713712e-21
2.03799048387048e-20
3.47166113512188e-21
5.20996905306226e-21
7.0003483963175e-21
8.79685824285128e-21
1.04252902350824e-20
1.79466863570039e-20
2.48317365305131e-20
1.84446144853867e-20
1.22127264597585e-20
2.12670897014276e-20
1.23953499521507e-20
2.39076814962279e-20
3.0420227911766e-21
2.13792418303608e-20
9.13734536674303e-21
5.97061210392021e-22
4.66698870652142e-21
7.6787311811733e-21
1.27609396964433e-21
1.51516770220765e-20
1.34958086729514e-20
2.61584998272691e-20
3.12832166151724e-20
1.41758997565255e-20
9.3772615328193e-21
2.42653863996258e-20
2.09775848070608e-20
1.80959716074723e-20
6.53903474849447e-21
7.98834093127088e-21
5.28007427724385e-21
3.36178890647343e-21
1.31736789983565e-21
1.08315859403293e-20
2.02227696197977e-20
9.4051505954713e-21
2.379246977958e-21
9.12797389616135e-21
4.34951537190605e-21
5.26987248659779e-21
6.34212517967809e-22
2.56359591028235e-20
7.6594469329286e-21
1.1257070842699e-21
1.97724956531168e-21
6.95129372563164e-21
5.53847817760221e-21
2.81660633277696e-20
7.33394174640481e-22
5.41080495101622e-21
3.67729203189692e-22
4.91313092859157e-22
1.42940155447054e-20
1.30487608579779e-20
1.19858115746939e-20
8.40888970034012e-21
6.11465681494114e-22
4.05411212656402e-21
1.29596815722511e-20
1.90476587990779e-21
3.99920084172311e-22
1.16164454567408e-20
2.32645746122933e-21
3.50159358629001e-21
1.42927239407391e-21
1.1654795007265e-20
7.90528060347706e-21
5.05983164376105e-21
1.85038833386597e-20
1.52281967197623e-21
6.9473940580682e-20
2.07951272952617e-20
5.48390910670017e-21
6.5516508121402e-22
3.98718553939104e-21
4.66466814757426e-20
5.17260872760729e-22
3.88477872121531e-21
1.56733297649004e-20
2.09224925193568e-20
3.07288097373118e-21
4.34029881738239e-21
2.82715279391629e-21
1.41866022083814e-20
8.34141714930471e-21
9.79970891262416e-21
3.03745932072389e-21
2.95513845366755e-21
5.73409083679279e-21
1.46082860836162e-20
1.48592701819853e-20
2.57125524427672e-20
1.24378146455163e-20
1.47036274169084e-20
8.13828483960538e-22
2.52724755034848e-21
3.74165337808982e-20
1.01057655430858e-21
3.76780783694121e-22
9.00453633614837e-21
3.13809620040107e-21
1.29385408991225e-20
2.08531302954262e-20
2.1763610250632e-20
6.67609857709041e-21
9.11103730946814e-21
8.0618819479259e-22
4.04613271269924e-20
1.43562067123736e-20
5.43618130885198e-21
8.16047191483508e-21
1.65591211328187e-21
2.47962830404161e-20
3.74911779182066e-20
1.48495077416413e-20
2.71782323996578e-20
2.53878797601922e-21
1.67966787518887e-20
1.48189975765624e-20
1.21604772714068e-20
3.63741907505914e-21
4.28114965910428e-20
6.6362421036257e-21
1.58615586530462e-20
8.92591663462347e-21
3.43417631688397e-21
4.07160723327769e-21
1.42077385965098e-21
8.32727551340669e-21
1.69265250855974e-20
1.18766403284174e-20
8.83119466965866e-22
1.01274203686918e-20
7.99067398830704e-21
3.34229566354023e-20
1.02393310246555e-20
3.0905682354591e-21
2.35293170523556e-20
1.53761275053709e-20
2.54776320189178e-22
8.29350378497637e-21
1.18056864417777e-20
6.46679035609269e-21
1.52351771232366e-20
2.68689441986678e-20
5.0198127922137e-21
2.85379838857171e-20
1.34861606555255e-20
2.45402447289352e-20
2.68820414761561e-20
1.75368478978595e-20
3.31496220333265e-21
5.0041223380412e-20
7.60782958759613e-21
3.96322086861571e-21
1.6931108018393e-20
9.42730585693354e-21
3.91675790821542e-21
1.29820221569376e-20
4.56599723208836e-20
5.96290465485808e-22
7.14151611389459e-21
8.13012652759645e-21
7.50626142934648e-21
1.41495267419994e-21
3.53862843188688e-22
2.37022140740341e-21
1.59538207314353e-20
2.68532562295157e-22
2.09386439458244e-20
2.60623832988967e-20
3.90442381227079e-21
2.71876315986883e-20
1.44669955968786e-20
2.3094891670957e-20
1.41224948990326e-20
3.21828750424247e-21
5.22371338732496e-22
2.97440779917682e-20
2.47279527807286e-21
6.81879955352356e-21
1.45961822985242e-20
1.17683594154092e-20
1.72836672198877e-22
4.8526290951196e-21
1.76383520038392e-20
2.39933564183043e-21
1.33133513963016e-21
1.25560543584678e-20
2.94679607513074e-21
1.83917655296688e-20
2.16148417255805e-20
3.5285188093298e-20
2.03123473209272e-20
1.77037665656267e-20
4.56071416170374e-21
3.18045122170475e-20
2.3885026536174e-20
1.37559450885421e-20
2.51238826042051e-20
1.6735206656004e-20
1.59698961135729e-20
4.62673684357575e-21
5.97380337273022e-21
1.76570744250353e-21
5.46427024683348e-21
1.55438684284849e-20
3.40299323597622e-20
2.66192733832778e-21
1.11849743348973e-20
8.04898124374831e-21
4.4777948386459e-20
2.04179741127384e-20
7.81826254843372e-22
1.15420806202474e-21
9.60926478117198e-23
6.91741367797755e-21
5.72570977503604e-21
4.34625105769159e-20
5.99116960003899e-21
1.67295085769788e-20
2.5603091566719e-21
7.94945797272709e-21
5.32455408954625e-21
3.58714658448558e-20
6.4452345714451e-21
8.13760921958981e-21
1.5119088348195e-20
4.71015065650992e-21
2.57302660948789e-20
1.55200051112054e-20
8.24101708120155e-20
1.94402143322329e-20
7.81224768256823e-21
1.8205156408223e-22
6.11225795904665e-21
2.46045141779671e-20
2.46046744745801e-21
1.16741069534828e-20
4.3618640501144e-21
1.3693453848131e-20
3.27355944271896e-21
1.72711741922995e-20
4.29071667494417e-21
6.03240214015407e-21
4.89774245899971e-21
1.68330061731141e-20
7.51968110682732e-21
2.75740987898321e-20
3.24747778809172e-20
6.7086237401215e-20
1.05771821180609e-20
2.69528985631522e-20
1.12172434555619e-20
4.5909205277949e-21
4.74292807537726e-20
2.03471330976133e-21
3.11743989157647e-21
2.2155810006341e-20
4.74378447894603e-21
2.71218941127567e-21
1.24334165566365e-21
1.37438334111633e-20
8.93916370132061e-21
1.30538756927277e-20
9.41408898318519e-22
4.88310767750479e-22
6.20877523630081e-21
2.14605900031507e-20
4.17917046706097e-22
1.68441417918402e-20
1.17921650601504e-20
4.19858530268969e-20
9.23650739977316e-22
1.37126359652311e-20
3.22856828947056e-21
5.07079602726885e-22
8.5002523471705e-22
1.63703190839421e-20
5.39981720892385e-21
2.93711411743299e-21
5.56831972598143e-21
1.57512098465555e-21
9.61012982464169e-21
1.62994701974796e-20
3.40825683870528e-21
3.87351748920751e-21
7.62751968112764e-21
2.68999883613843e-20
2.25972852224078e-21
8.9782098581141e-22
1.59879543450044e-20
1.98212874959463e-21
2.35234289901401e-22
3.56178318376659e-20
4.50281959534734e-21
2.46202042511341e-21
8.63128067949001e-21
9.64749662439949e-21
1.31956433403882e-20
5.78854514958326e-21
1.45385494181187e-20
7.28159741868576e-21
3.20804207657054e-20
2.07965353024346e-21
5.75258360347476e-21
8.39155927738725e-21
2.91280921314417e-20
3.95663653012087e-21
1.58629536679803e-20
2.19183592888318e-21
4.51169138656018e-20
1.2514332723985e-21
2.00155165840798e-20
4.95008517989585e-20
1.13798478460038e-20
1.48518043396583e-21
3.52855346058495e-20
8.20185627979794e-22
2.81821149839067e-20
1.98193230866805e-20
1.12382363121546e-20
2.33946984352371e-21
2.47713255775523e-21
2.82196930105825e-21
1.17419684290379e-20
4.27404591368286e-21
7.1534223197377e-21
7.00408731839428e-21
6.52263136053022e-21
2.17423212661046e-21
3.89748843400917e-21
3.03066764393239e-21
1.09030485793494e-20
2.8998666031332e-21
2.9750256834358e-21
3.08507738156111e-21
7.78957003325474e-21
2.30069268994323e-20
3.84376956975433e-21
5.97702715700314e-21
3.68505820879047e-21
4.60037776865553e-20
3.09360983879743e-20
9.07281500344128e-21
7.59917575372686e-21
2.98683432625714e-21
1.73427234789749e-21
7.62370951722728e-21
7.19184499731902e-21
5.92821556079007e-21
1.82850063539179e-20
2.66590359732713e-20
8.9428964865486e-21
2.1565566338823e-21
2.88178133065926e-21
2.76485529128318e-21
4.25031580059568e-22
2.21438553091673e-20
9.68326208179397e-21
4.95595041622932e-21
4.98320408717014e-21
8.23170614778951e-21
1.08415895207321e-21
5.1391900887298e-21
9.92591515774705e-21
3.86725980592291e-21
6.86784127615563e-21
3.49470716944729e-20
8.95089901504768e-22
1.07384661017253e-20
5.34982430475454e-21
2.20225730914636e-22
1.58853341706448e-20
2.32608075004557e-20
6.21004931677428e-22
1.68604204861589e-20
1.81040512449034e-20
2.84561513469885e-21
1.86868390453529e-20
5.39565118355334e-21
7.54834701058514e-21
1.3408285853019e-21
8.88918731473167e-21
2.32456198907347e-20
9.14777135204349e-21
5.80786631852105e-21
2.57713574705363e-20
7.417441477498e-21
2.58257042690057e-21
5.01315823480536e-21
2.38887465417109e-21
1.44409663580369e-20
9.74989401770731e-21
1.76148794070528e-20
5.84274960637803e-20
5.9058086884805e-23
1.13145197426328e-21
1.80533347726297e-20
1.15344308603901e-20
1.01804782373644e-20
2.20722775059758e-20
2.35134392121309e-20
1.64686508239731e-21
1.419957362334e-20
3.22579767151016e-20
1.61961338110721e-20
1.72511861585229e-20
2.71003461570857e-20
4.93793624190349e-21
6.19302857516887e-21
3.26235835752479e-20
1.08715535497819e-20
1.0033358778293e-20
2.91961591407076e-20
2.53838755389946e-20
1.19213340952593e-20
3.60244410919883e-20
1.01800797300832e-20
3.61648862627614e-20
1.61140194425026e-20
7.12429133478234e-21
1.20100498440353e-21
7.58633412311959e-21
2.92453460248845e-20
6.2195476358951e-20
1.41829546636076e-21
3.49363853155127e-20
8.78687360990718e-21
1.73475741474651e-20
3.45076799421849e-21
7.77511409207436e-21
7.03726554833895e-21
6.29975091766223e-21
1.81642631906878e-21
2.44626622554311e-20
1.54687570491711e-20
4.49739932152536e-21
5.36408958973075e-21
1.08758682818583e-20
1.60446258516279e-20
6.23559119717972e-21
1.79917674692399e-20
1.61544590017096e-20
1.4915014316525e-20
2.35147693239367e-20
4.38140287457909e-20
3.29069680116761e-21
5.42042769542368e-21
7.29050129633934e-21
1.98013693202913e-20
2.43793329263254e-20
6.03435802447343e-24
4.3616512974867e-21
6.24907139906154e-21
8.79581409456363e-21
6.03927721618585e-21
2.21051121525233e-21
7.51746709488636e-21
1.36193804251567e-20
2.60488371591172e-20
2.1246810559598e-20
1.86849549733411e-20
1.36176743017213e-20
4.52081893742581e-21
1.57659509248707e-20
5.05516012745695e-21
2.71254923102328e-20
2.14476721962329e-21
1.84842819664504e-21
2.18099362933168e-20
1.59229976115443e-21
5.86942521163177e-21
8.30823221256574e-21
9.57031137756896e-21
1.26107233737046e-22
2.4520383265271e-20
7.35729099627767e-21
6.38844418884599e-21
5.29307422650785e-20
2.12922989321721e-20
1.74975475044732e-22
3.94864855690807e-21
6.39548441958929e-21
8.38528981728642e-21
4.14007142645699e-20
3.05565134730034e-20
6.58885274573089e-21
4.6881355499375e-21
1.54484989328387e-20
5.06746448030542e-20
5.76073307178719e-21
1.79039611940118e-21
2.16727654215534e-21
4.87941910092843e-21
3.4644286981217e-20
2.43571474076729e-20
9.25733089613597e-21
1.53220504608247e-20
1.64510730857256e-20
1.79269615682238e-21
1.65510736702575e-21
8.13607734001619e-21
9.67732372608066e-21
1.08356742551e-20
3.95458606638087e-21
4.39509898500735e-20
9.9659971868052e-21
2.47535130584e-20
2.00031448426678e-22
1.83078225992133e-20
3.12710576788049e-21
9.57106767320854e-21
1.09667928098004e-20
2.20286518678273e-22
9.96675063509403e-21
4.72467075552715e-21
2.46705938849076e-20
2.75864315279973e-20
5.8968025423142e-20
5.03016506766594e-20
9.31218556564538e-21
3.68341616245902e-23
4.0899718969869e-21
1.11982446341771e-21
1.6798470779612e-21
8.28390331030486e-21
9.27497520434263e-21
1.39567324683213e-20
1.93679503944917e-20
1.73173198050761e-21
2.93344612630768e-21
1.73864177874779e-21
7.04180568989452e-21
6.17264882690604e-21
1.42673833870868e-20
6.54377261836786e-21
1.91370695610751e-21
1.24631574865594e-20
1.34451391278643e-20
5.22515060799701e-21
8.9977901918865e-21
4.15924207730622e-22
2.48899852346996e-20
5.777442032513e-21
5.27565247166883e-20
2.42853787471972e-20
2.19079002596583e-20
3.80734998089626e-26
5.51716806364218e-21
6.47215719680573e-22
2.24503576048977e-20
2.32184586986174e-22
4.66255996405556e-21
7.40720920389152e-21
6.78341972381314e-21
7.63484570071848e-21
1.40152449980875e-20
3.42049738838657e-20
3.45010385881893e-21
1.11160116589593e-21
2.34238792202801e-21
2.7102402149652e-21
9.39671001584609e-22
1.45904222547655e-20
1.35646719669419e-21
4.79963737573846e-20
5.78559040498632e-21
2.98356903429602e-22
8.81811952231044e-21
1.11876436238621e-21
2.42277013620474e-20
3.89364973459806e-21
3.12532913278301e-21
1.32803647714327e-20
9.46743954483592e-21
1.12620526905547e-20
3.81610612022967e-21
1.64176404920869e-21
1.06877581058915e-20
4.26463268991171e-20
1.66375029279752e-20
6.14786332011631e-21
1.51991263941942e-21
4.60867159226934e-20
1.42559493232034e-20
2.83906932653303e-21
3.23427865024438e-20
3.48370985739415e-20
1.6970994631108e-20
8.17472392246803e-21
2.00944970273707e-20
1.91069772742307e-21
1.24401333375027e-20
1.43662879802833e-20
7.55445557815965e-21
1.17137661727161e-20
2.50216705955421e-20
1.01553573177371e-21
6.88220860886007e-21
1.88940610774215e-21
1.67370376704049e-21
3.19996747860452e-21
1.14525188724472e-20
2.93680058799734e-20
1.59728065500431e-20
2.27455235139235e-20
1.15745869151127e-20
2.63681375908063e-20
6.4383856307342e-20
2.9187309122812e-21
6.08772999902842e-21
3.48759516009429e-21
5.454350849569e-21
2.71345120762142e-20
2.06631496244083e-20
3.11056634480082e-20
4.61838464056045e-20
1.55800665756318e-21
2.42402949423056e-20
1.42068620024714e-20
8.12721640458949e-22
2.5166446047756e-20
1.32500554708853e-20
6.15901558035418e-21
3.1502935673746e-20
1.4493370845867e-21
8.84548748672283e-21
2.10668001906674e-21
2.83782643420017e-21
7.21756424289697e-21
4.29800468244548e-21
2.36365157343222e-20
5.44828897091771e-20
9.21526187426082e-21
1.53048664303774e-20
5.05216089499228e-21
2.02642218545551e-20
1.16027016368409e-20
6.67050452756808e-21
9.94826470713653e-21
1.67151593608975e-21
8.15462364371558e-21
1.17413307058256e-22
1.40126889840965e-20
1.0277291721341e-21
1.86422343265714e-21
2.27490760234546e-21
1.81720951969974e-20
3.57819041668693e-20
4.21077158658991e-21
9.3426411611055e-21
6.64720996956276e-21
3.00524751893603e-20
1.79131791069202e-20
1.29787009996495e-20
4.9162501906909e-21
2.64530662897332e-21
2.40405512655584e-20
1.82177905149409e-21
1.72709707842365e-21
6.91577666676827e-21
5.98184295832288e-21
9.62793506465306e-21
1.71155275461012e-22
6.7717564843284e-21
9.05041699272339e-21
1.00493358734625e-20
3.52467098357013e-20
4.49503024973954e-20
2.42973446436507e-20
9.68925747773818e-21
3.31267921489224e-20
8.12749166102126e-21
1.76498128271525e-20
9.86866956329808e-21
6.44177127142724e-21
6.94145647003935e-21
1.14949520389263e-20
1.93493693067079e-20
4.69193317794451e-20
1.42869698419388e-20
1.27878073869786e-20
3.05981425439674e-21
5.61525595731276e-22
8.69501011477686e-21
1.63023422964412e-21
4.73920641824945e-21
1.92405599837993e-21
4.77422216799351e-21
3.57964942107859e-21
6.49490049198246e-21
5.8617396741689e-23
2.13155424238272e-20
5.96753161014792e-20
2.62529310410498e-21
2.06882568566731e-22
1.73540633621407e-20
9.54163257470255e-21
1.42728956843009e-20
1.71535891351988e-21
1.26389676470484e-20
3.31066873882846e-21
5.17938320256698e-21
1.74300142796401e-20
3.89782713218442e-21
1.06159654107423e-20
2.06997224546586e-20
3.10077268384418e-21
3.59354878197781e-21
3.56114900373037e-20
1.17565823376222e-20
8.70968002926402e-21
3.84775861987857e-21
1.65034247685192e-20
3.92992844748249e-22
1.18804275180586e-20
1.38286788772023e-20
4.52761140750548e-20
4.2239586157554e-21
4.02803310144324e-21
7.68761260665259e-21
1.48839150427696e-22
3.08188015835884e-22
5.68989627675493e-21
1.50207173904076e-20
1.59790856132881e-21
8.21437696179098e-21
2.6337130538771e-20
5.21164982117672e-22
5.95029352420146e-22
2.37551143178868e-20
3.37472974534463e-21
2.24691831311893e-21
1.4806898868874e-20
6.32720675595026e-20
1.74205593330516e-20
2.77315798681153e-21
7.66916462429504e-21
5.75525431828229e-21
2.33023608791346e-21
3.77635984278204e-20
6.75863581989005e-21
1.95061639760329e-20
6.71945657315896e-21
2.39938071903845e-20
2.60221202500667e-21
2.48562173297161e-21
2.44082940343246e-20
9.45214371268371e-21
3.22395646825147e-21
2.03677556411674e-20
1.51655158585214e-20
3.60715657228728e-22
9.95490889178435e-21
1.02192256197986e-20
5.12108227114585e-21
2.63980237415892e-20
1.96071798540514e-20
7.38014044228353e-21
7.67218831539326e-21
4.64893098253369e-21
5.40737690612839e-21
2.905435592156e-21
2.10641942106342e-20
2.75333530604913e-20
6.92458517124147e-21
3.53713373906299e-20
2.71039525020735e-21
8.41892860254556e-21
6.46281969989679e-21
1.93832354359685e-20
2.28247719394854e-23
1.03617529308566e-20
1.10055739090493e-20
2.52722127376939e-20
1.85961177330172e-20
2.60296205282124e-21
3.2726645335127e-20
2.89227667805244e-21
8.42237336298943e-22
8.32772845426649e-21
3.25617266208764e-20
6.96975620307643e-21
1.60077196578234e-20
2.02805636442692e-20
1.41859131546201e-21
4.83863184622657e-21
2.61340073369263e-20
1.64998615741561e-20
3.68611000643865e-20
3.79577565574015e-20
1.31388296946429e-22
3.72599815282722e-21
8.37286410415544e-21
1.60794963139141e-20
3.20050777013617e-21
7.37415774717476e-21
1.47244674091135e-22
5.08135617588727e-21
6.68487600185578e-22
2.92650552321751e-21
1.45674023525697e-20
1.50960457333039e-20
4.23259273567885e-21
1.12691859473265e-20
1.14613473556527e-20
1.62697860328558e-21
2.26266803543091e-21
1.02017036367725e-20
4.98673117562588e-21
1.13461257692512e-21
2.92724272918669e-21
1.43379886291969e-20
1.67368580715566e-20
2.80897946959279e-20
9.43484047587005e-21
2.90360058479721e-22
4.40159787228984e-21
1.72969322829204e-20
7.16579859862118e-20
1.84793802583581e-20
1.37922799045435e-22
3.36895469006295e-21
5.51875118210844e-20
1.49914830099975e-20
1.20131598419644e-20
2.34708308659894e-21
1.34744869292645e-20
1.39535472219212e-21
1.23371635753265e-20
4.42351456698879e-21
1.32673094615231e-20
1.18488867116539e-20
4.315576741899e-22
2.03094076973235e-20
5.4669557971967e-22
4.06674882006739e-20
1.41283759939182e-20
8.72161188465208e-21
4.39362466265244e-22
6.91881589523272e-22
7.60127703357139e-21
1.92308814515159e-20
4.86622010428631e-21
1.75979425918423e-21
1.66882359318013e-20
9.92312808674818e-21
4.53014110558043e-21
1.33611723864836e-20
4.34005405980247e-20
2.52111049944029e-20
1.25300938173538e-21
1.36213109843107e-20
1.68300597952257e-20
3.29964669869129e-20
2.96908298197846e-20
1.75365965129444e-20
2.23989396731933e-21
1.41416569283062e-22
9.81952072666609e-22
1.17166339038318e-20
3.34274730966556e-20
1.50596110644266e-21
7.29676853439833e-21
8.00397756294185e-22
3.00224363980077e-20
1.14796199142498e-21
9.09163930569674e-23
2.62688302290535e-20
1.10737293019549e-20
3.2133235111711e-21
8.96346125299427e-21
1.08744900289359e-20
3.21619902264301e-21
2.16605094591897e-20
1.38099484313992e-20
1.31095147895581e-20
4.17279386959398e-20
4.13396828292801e-21
6.59679581887731e-21
1.39433865815574e-20
5.36282567766243e-21
3.81295913749597e-20
2.01733712307096e-21
3.90229166872106e-21
4.7981656497801e-22
5.12365292516052e-21
1.63929540501495e-20
5.71822422451827e-21
1.23444297435851e-20
5.60249317074093e-20
1.36396566983705e-20
1.67230859883389e-21
1.40843921091723e-20
2.61796868961622e-20
6.47254930437256e-21
9.85291597243264e-21
1.02774158613281e-20
1.55674327167924e-21
5.3188904092294e-21
6.41346198092146e-21
1.06684544417928e-20
8.59839564630493e-21
1.90239887985662e-20
5.49965507276883e-22
3.70987389706094e-21
2.08774114928791e-20
5.90992173505084e-22
1.01148381874184e-20
2.29039739976442e-20
4.89276582528279e-21
8.03503370786549e-21
3.49138135150837e-21
3.21799486853722e-21
2.01040657901752e-21
3.77143079288393e-21
1.93140030719409e-20
2.38001657345823e-22
2.92320213954649e-20
8.41611504821706e-22
8.82905580787421e-22
1.8376028199097e-20
1.38957067235429e-20
1.12818586633156e-20
1.50155812553371e-20
1.78159343358007e-20
1.31625717341492e-20
1.50339848684922e-21
6.20452300592963e-22
5.68824452627228e-22
6.20081497568709e-20
1.22569019385582e-20
1.03111503326919e-20
1.04252317776777e-21
1.17857469521468e-20
1.27745908810653e-20
3.53109846312093e-20
2.43876415418032e-21
3.79919154661858e-21
5.35454232093579e-21
6.53566480501694e-21
1.21953990958376e-20
1.25431010713048e-21
6.22394742087698e-21
5.5888507406548e-21
1.0068113947751e-20
1.09556767680121e-20
3.92355028082923e-22
8.78688137887629e-21
2.31693898451663e-20
2.22781080367466e-21
8.24050103059745e-21
3.76203309673273e-21
1.0917531765315e-20
3.27471994783124e-21
3.4421397265524e-21
2.62613564583361e-20
4.1119368612972e-20
9.69638373220026e-21
9.3514646824761e-21
4.17458938061198e-20
7.99741831986468e-21
2.68745746676619e-21
2.35922413806217e-20
1.32336367021477e-21
2.95665624909587e-20
5.2060239193551e-21
7.37418986493451e-22
1.08761816914224e-20
1.28499939868418e-20
1.18647337037376e-20
3.08422895777038e-20
7.3632084654353e-21
2.17452562800789e-20
1.14062148780066e-21
1.55627626691699e-20
1.08220228147706e-20
7.74010200093574e-21
1.13945694119034e-21
7.46539361862954e-21
1.57865523789801e-20
3.98120342751614e-21
1.2279564482002e-21
2.02861653074403e-20
1.59497412274072e-20
1.24239247823849e-20
8.51688269838207e-21
4.66926410712128e-22
1.27211787466421e-20
8.75589848740982e-21
4.47571672234273e-22
9.0093142085123e-21
4.13388282830644e-21
1.44564016713372e-20
4.37610017639858e-21
1.02108868831831e-20
1.62956846575187e-20
2.38668668771209e-20
9.37908382596216e-21
1.78644060995749e-20
4.13530227597001e-20
1.34011090079518e-20
1.92001051797576e-21
2.27594125784726e-20
1.26530020198896e-20
3.13810950822536e-20
1.57391605765836e-20
4.40446286044255e-23
5.77628596139137e-21
2.7544332276599e-20
4.85317551444896e-20
2.61419575436664e-21
2.95896585381582e-21
1.68825035066434e-21
2.97790198971524e-21
1.41606634708494e-20
1.14566121884824e-20
1.34785256776503e-20
1.33507341832393e-21
5.76278952342003e-21
6.59644314733809e-21
4.40843562951249e-21
3.37259416702682e-21
1.42151862557911e-21
1.32130489323461e-20
5.05048537647646e-22
3.68772710183124e-20
2.79102950905609e-22
2.27403950543995e-20
3.21629945632685e-21
5.4544613223647e-21
5.05036218597931e-21
1.69836035268432e-20
2.0068064935936e-20
2.55669343544545e-20
5.42323386280427e-21
5.75227988184048e-21
3.88226442283398e-20
1.67122874703681e-20
9.69356451185735e-21
9.62141065112123e-21
1.48017029015581e-21
6.02874304101242e-21
1.88111162308526e-20
2.56930691290659e-21
1.79657840841673e-20
1.6260824833534e-20
4.36343807572077e-21
6.11719791222852e-21
5.54216908744351e-20
2.69431222063521e-20
5.72940361442507e-21
1.0992834187133e-21
5.32592306852378e-21
2.90364754218812e-21
5.32446210253694e-21
2.02589483425912e-20
9.22160139952448e-22
3.20320278885268e-21
2.10564947302255e-20
7.37130207015972e-21
3.14911133988871e-21
3.81699923327235e-21
7.56536948737428e-20
5.97285959176113e-21
1.09958519201063e-20
3.79389904353412e-21
1.52628368595733e-20
1.29737248860309e-21
1.98721421360192e-20
7.68167700742984e-21
1.56451865501853e-20
3.43782239026208e-21
1.649138880418e-20
1.24968902771816e-20
2.5712858685213e-21
7.45743249294796e-22
1.89630057934451e-20
1.93380392164355e-21
6.12948188587028e-20
1.77926726674328e-20
4.1028493568838e-20
4.26074795103218e-20
1.25813130296001e-20
1.43015243873063e-20
5.42719925979166e-21
4.57459165577302e-21
6.58893139950409e-21
1.81426995012657e-21
1.1425551249842e-20
1.6181962961123e-20
7.72690310912404e-21
2.68878802550271e-21
1.53161308258677e-20
5.03833569697576e-22
1.08480490958104e-20
1.05896420073664e-21
3.13374353852815e-20
1.90661313078831e-20
2.0140512235577e-21
3.75460478780885e-21
5.05190153737938e-21
1.93699633214463e-20
1.5997519871477e-20
1.90815922626031e-20
4.40263872453139e-20
1.78820099005702e-20
4.79751399019646e-20
4.68512199587893e-22
3.15350694105805e-20
1.45432422078116e-20
4.02238300457501e-21
4.89269451047116e-20
3.22191112039957e-21
5.69622927241993e-21
9.32772222941872e-22
1.91951942002258e-20
5.61520339253592e-20
8.39055813868082e-21
7.31799984954948e-22
1.18844417005345e-20
1.39183099224597e-20
1.99361573213095e-20
1.60539652102904e-20
7.43432295763782e-21
5.23511972512745e-21
3.40621059103281e-21
1.3424662818297e-20
5.33843776650014e-21
7.63193093099049e-21
2.26223896334294e-22
1.69669847678731e-21
4.98607259707203e-21
4.9301054507246e-22
6.94250888610156e-21
4.38204060802003e-22
2.50268944340677e-20
4.69903797768167e-21
3.67968488249781e-20
3.8848138255394e-21
1.26361496471105e-21
1.642569199699e-21
8.52725259081254e-21
8.25450280007315e-21
1.03710221553067e-20
6.88603084235398e-22
1.66040993704201e-20
1.35663386659719e-20
1.52757523769416e-20
9.21037325377325e-21
1.54681465810224e-20
1.65626980349103e-20
2.41160402388322e-21
4.25612517686549e-21
2.73517554012967e-21
1.58485337202604e-20
1.55425229271534e-20
1.68880333523029e-20
5.78113133624033e-21
5.5281966250737e-21
9.59325064264699e-21
4.22674840559187e-21
1.01391452619951e-20
1.04867528744393e-20
4.14463031617751e-21
1.36075291912921e-20
5.14349569422322e-20
1.34008557197119e-21
1.53193956932943e-20
4.12700897739445e-21
1.22495133880813e-21
8.47881248707149e-21
7.8999183869173e-21
5.65714652698141e-21
5.90987396792106e-21
2.58678872188004e-21
2.48168396571797e-20
1.11579310016278e-20
8.18737815913565e-21
1.31988845394614e-20
2.07872329109448e-20
4.76759505974701e-21
1.29570875026892e-21
1.6132695757257e-21
1.47224071171164e-20
1.93860644968206e-20
1.93526795214963e-21
5.9013316467645e-21
1.11600153326246e-20
4.18464224231957e-21
5.2350381680463e-21
9.85072415025311e-21
7.32041494670602e-21
7.76390230936582e-21
1.06447287355725e-21
4.89408080701304e-21
2.10123180402484e-21
6.14790404208305e-21
1.09591696691361e-20
9.00616232425853e-21
1.60614835117184e-20
2.55618361243393e-21
1.38341807598617e-20
3.72530120510935e-20
1.01614207863148e-20
2.70916668980331e-20
7.15956776220339e-21
2.59972717834255e-20
9.33373660807866e-21
6.86050697978247e-22
6.59999976954772e-21
1.28478074194041e-20
2.38251800712384e-20
2.01024390345816e-20
2.00075468297369e-20
3.27906176518506e-21
3.3598736754708e-20
1.86292353663538e-20
8.85441701962621e-21
7.03099925025323e-21
7.35805109946816e-20
8.18851593168248e-21
1.29473260454738e-21
1.96083348069914e-21
3.729128703742e-21
8.37924939346898e-21
1.23839518624539e-20
2.93386805545734e-21
1.94033248948353e-20
1.27750836374883e-20
3.75131386997869e-21
2.82860760193933e-21
5.88752798488224e-21
1.59266322076818e-20
1.64806874067113e-20
5.30375153147306e-22
6.55486072331099e-21
1.2437317955059e-20
5.86006715122477e-21
2.25175239393647e-20
8.55838413005224e-21
1.22082890664774e-20
3.90518272239319e-20
1.32010404068303e-20
3.93390098380769e-21
1.87794432646153e-21
1.29528562163427e-20
2.16586905758053e-20
1.2502162315823e-20
1.2484224622768e-20
1.30119861395677e-21
6.0256482456592e-21
6.07162841031707e-21
3.49896408304242e-21
1.36985210899546e-20
1.20246868227837e-20
2.51572606390113e-20
3.51893158852889e-20
1.30798677222638e-20
1.53289428438621e-21
3.02191471098014e-21
1.94777484113278e-20
6.13928624974543e-21
1.17182319517084e-20
1.42796857557588e-20
1.88463800975718e-21
2.84005234776906e-20
5.62052013829748e-22
7.30324037651156e-21
5.00625317864341e-21
3.13171979249869e-20
1.60650665205752e-20
5.32634007985833e-21
1.86975533245971e-21
1.42994282038074e-20
2.67946690401624e-21
3.68341306908907e-21
1.58069503727328e-20
9.20905511069042e-22
2.52692183015873e-20
1.5259017609929e-21
4.97471712650553e-22
9.28169053832e-22
5.88043561495962e-21
8.97852040103209e-21
1.06420332654924e-20
1.00047285952896e-20
2.80628297204593e-21
3.36668043316695e-20
4.18545127778625e-21
4.9964795330448e-21
1.1537706827982e-20
1.50827395585535e-20
1.06972992575666e-21
2.96348516441654e-20