/*--------------------------------*- C++ -*----------------------------------*\
  =========                 |
  \\      /  F ield         | OpenFOAM: The Open Source CFD Toolbox
   \\    /   O peration     | Website:  https://openfoam.org
    \\  /    A nd           | Version:  7
     \\/     M anipulation  |
\*---------------------------------------------------------------------------*/
FoamFile
{
    version     2.0;
    format      ascii;
    class       labelField;
    location    "0.00036/particle/lagrangian/dsmc";
    object      origId;
}
// * * * * * * * * * * * * * * * * * * * * * * * * * * * * * * * * * * * * * //


87951
(
20336756
20336757
20336758
20336759
20336760
20336761
20336762
20336763
20336764
20336765
20336766
20336767
20336768
20336769
20336770
20336771
20336772
20336773
20336774
20336775
20336776
20336777
20336778
20336779
20336780
20336781
20336782
20336783
20336784
20336785
20336786
20336787
20336788
20336789
20336790
20336791
20336792
20336793
20336794
20336795
20336796
20336797
20336798
20336799
20336800
20336801
20336802
20336803
20336804
20336805
20336806
20336807
20336808
20336809
20336810
20336811
20336812
20336813
20336814
20336815
20336816
20336817
20336818
20336819
20336820
20336821
20336822
20336823
20336824
20336825
20336826
20336827
20336828
20336829
20336830
20336831
20336832
20336833
20336834
20336835
20336836
20336837
20336838
20336839
20336840
20336841
20336842
20336843
20336844
20336845
20336846
20336847
20336848
20336849
20336850
20336851
20336852
20336853
20336854
20336855
20336856
20336857
20336858
20336859
20336860
20336861
20336862
20336863
20336864
20336865
20336866
20336867
20336868
20336869
20336870
20336871
20336872
20336873
20336874
20336875
20336876
20336877
20336878
20336879
20336880
20336881
20336882
20336883
20336884
20336885
20336886
20336887
20336888
20336889
20336890
20336891
20336892
20336893
20336894
20336895
20336896
20336897
20336898
20336899
20336900
20336901
20336902
20336903
20336904
20336905
20336906
20336907
20336908
20336909
20336910
20336911
20336912
20336913
20336914
20336915
20336916
20336917
20336918
20336919
20336920
20336921
20336922
20336923
20336924
20336925
20336926
20336927
20336928
20336929
20336930
20336931
20336932
20336933
20336934
20336935
20336936
20336937
20336938
20336939
20336940
20336941
20336942
20336943
20336944
20336945
20336946
20336947
20336948
20336949
20336950
20336951
20336952
20336953
20336954
20336955
20336956
20336957
20336958
20336959
20336960
20336961
20336962
20336963
20336964
20336965
20336966
20336967
20336968
20336969
20336970
20336971
20336972
20336973
20336974
20336975
20336976
20336977
20336978
20336979
20336980
20336981
20336982
20336983
20336984
20336985
20336986
20336987
20336988
20336989
20336990
20336991
20336992
20336993
20336994
20336995
20336996
20336997
20336998
20336999
20337000
20337001
20337002
20337003
20337004
20337005
20337006
20337007
20337008
20337009
20337010
20337011
20337012
20337013
20337014
20337015
20337016
20337017
20337018
20337019
20337020
20337021
20337022
20337023
20337024
20337025
20337026
20337027
20337028
20337029
20337030
20337031
20337032
20337033
20337034
20337035
20337036
20337037
20337038
20337039
20337040
20337041
20337042
20337043
20337044
20337045
20337046
20337047
20337048
20337049
20337050
20337051
20337052
20337053
20337054
20337055
20337056
20337057
20337058
20337059
20337060
20337061
20337062
20337063
20337064
20337065
20337066
20337067
20337068
20337069
20337070
20337071
20337072
20337073
20337074
20337075
20337076
20337077
20337078
20337079
20337080
20337081
20337082
20337083
20337084
20337085
20337086
20337087
20337088
20337089
20337090
20337091
20337092
20337093
20337094
20337095
20337096
20337097
20337098
20337099
20337100
20337101
20337102
20337103
20337104
20337105
20337106
20337107
20337108
20337109
20337110
20337111
20337112
20337113
20337114
20337115
20337116
20337117
20337118
20337119
20337120
20337121
20337122
20337123
20337124
20337125
20337126
20337127
20337128
20337129
20337130
20337131
20337132
20337133
20337134
20337135
20337136
20337137
20337138
20337139
20337140
20337141
20337142
20337143
20337144
20337145
20337146
20337147
20337148
20337149
20337150
20337151
20337152
20337153
20337154
20337155
20337156
20337157
20337158
20337159
20337160
20337161
20337162
20337163
20337164
20337165
20337166
20337167
20337168
20337169
20337170
20337171
20337172
20337173
20337174
20337175
20337176
20337177
20337178
20337179
20337180
20337181
20337182
20337183
20337184
20337185
20337186
20337187
20337188
20337189
20337190
20337191
20337192
20337193
20337194
20337195
20337196
20337197
20337198
20337199
20337200
20337201
20337202
20337203
20337204
20337205
20337206
20337207
20337208
20337209
20337210
20337211
20337212
20337213
20337214
20337215
20337216
20337217
20337218
20337219
20337220
20337221
20337222
20337223
20337224
20337225
20337226
20337227
20337228
20337229
20337230
20337231
20337232
20337233
20337234
20337235
20337236
20337237
20337238
20337239
20337240
20337241
20337242
20337243
20337244
20337245
20337246
20337247
20337248
20337249
20337250
20337251
20337252
20337253
20337254
20337255
20337256
20337257
20337258
20337259
20337260
20337261
20337262
20337263
20337264
20337265
20337266
20337267
20337268
20337269
20337270
20337271
20337272
20337273
20337274
20337275
20337276
20337277
20337278
20337279
20337280
20337281
20337282
20337283
20337284
20337285
20337286
20337287
20337288
20337289
20337290
20337291
20337292
20337293
20337294
20337295
20337296
20337297
20337298
20337299
20337300
20337301
20337302
20337303
20337304
20337305
20337306
20337307
20337308
20337309
20337310
20337311
20337312
20337313
20337314
20337315
20337316
20337317
20337318
20337319
20337320
20337321
20337322
20337323
20337324
20337325
20337326
20337327
20337328
20337329
20337330
20337331
20337332
20337333
20337334
20337335
20337336
20337337
20337338
20337339
20337340
20337341
20337342
20337343
20337344
20337345
20337346
20337347
20337348
20337349
20337350
20337351
20337352
20337353
20337354
20337355
20337356
20337357
20337358
20337359
20337360
20337361
20337362
20337363
20337364
20337365
20337366
20337367
20337368
20337369
20337370
20337371
20337372
20337373
20337374
20337375
20337376
20337377
20337378
20337379
20337380
20337381
20337382
20337383
20337384
20337385
20337386
20337387
20337388
20337389
20337390
20337391
20337392
20337393
20337394
20337395
20337396
20337397
20337398
20337399
20337400
20337401
20337402
20337403
20337404
20337405
20337406
20337407
20337408
20337409
20337410
20337411
20337412
20337413
20337414
20337415
20337416
20337417
20337418
20337419
20337420
20337421
20337422
20337423
20337424
20337425
20337426
20337427
20337428
20337429
20337430
20337431
20337432
20337433
20337434
20337435
20337436
20337437
20337438
20337439
20337440
20337441
20337442
20337443
20337444
20337445
20337446
20337447
20337448
20337449
20337450
20337451
20337452
20337453
20337454
20337455
20337456
20337457
20337458
20337459
20337460
20337461
20337462
20337463
20337464
20337465
20337466
20337467
20337468
20337469
20337470
20337471
20337472
20337473
20337474
20337475
20337476
20337477
20337478
20337479
20337480
20337481
20337482
20337483
20337484
20337485
20337486
20337487
20337488
20337489
20337490
20337491
20337492
20337493
20337494
20337495
20337496
20337497
20337498
20337499
20337500
20337501
20337502
20337503
20337504
20337505
20337506
20337507
20337508
20337509
20337510
20337511
20337512
20337513
20337514
20337515
20337516
20337517
20337518
20337519
20337520
20337521
20337522
20337523
20337524
20337525
20337526
20337527
20337528
20337529
20337530
20337531
20337532
20337533
20337534
20337535
20337536
20337537
20337538
20337539
20337540
20337541
20337542
20337543
20337544
20337545
20337546
20337547
20337548
20337549
20337550
20337551
20337552
20337553
20337554
20337555
20337556
20337557
20337558
20337559
20337560
20337561
20337562
20337563
20337564
20337565
20337566
20337567
20337568
20337569
20337570
20337571
20337572
20337573
20337574
20337575
20337576
20337577
20337578
20337579
20337580
20337581
20337582
20337583
20337584
20337585
20337586
20337587
20337588
20337589
20337590
20337591
20337592
20337593
20337594
20337595
20337596
20337597
20337598
20337599
20337600
20337601
20337602
20337603
20337604
20337605
20337606
20337607
20337608
20337609
20337610
20337611
20337612
20337613
20337614
20337615
20337616
20337617
20337618
20337619
20337620
20337621
20337622
20337623
20337624
20337625
20337626
20337627
20337628
20337629
20337630
20337631
20337632
20337633
20337634
20337635
20337636
20337637
20337638
20337639
20337640
20337641
20337642
20337643
20337644
20337645
20337646
20337647
20337648
20337649
20337650
20337651
20337652
20337653
20337654
20337655
20337656
20337657
20337658
20337659
20337660
20337661
20337662
20337663
20337664
20337665
20337666
20337667
20337668
20337669
20337670
20337671
20337672
20337673
20337674
20337675
20337676
20337677
20337678
20337679
20337680
20337681
20337682
20337683
20337684
20337685
20337686
20337687
20337688
20337689
20337690
20337691
20337692
20337693
20337694
20337695
20337696
20337697
20337698
20337699
20337700
20337701
20337702
20337703
20337704
20337705
20337706
20337707
20337708
20337709
20337710
20337711
20337712
20337713
20337714
20337715
20337716
20337717
20337718
20337719
20337720
20337721
20337722
20337723
20337724
20337725
20337726
20337727
20337728
20337729
20337730
20337731
20337732
20337733
20337734
20337735
20337736
20337737
20337738
20337739
20337740
20337741
20337742
20337743
20337744
20337745
20337746
20337747
20337748
20337749
20337750
20337751
20337752
20337753
20337754
20337755
20337756
20337757
20337758
20337759
20337760
20337761
20337762
20337763
20337764
20337765
20337766
20337767
20337768
20337769
20337770
20337771
20337772
20337773
20337774
20337775
20337776
20337777
20337778
20337779
20337780
20337781
20337782
20337783
20337784
20337785
20337786
20337787
20337788
20337789
20337790
20337791
20337792
20337793
20337794
20337795
20337796
20337797
20337798
20337799
20337800
20337801
20337802
20337803
20337804
20337805
20337806
20337807
20337808
20337809
20337810
20337811
20337812
20337813
20337814
20337815
20337816
20337817
20337818
20337819
20337820
20337821
20337822
20337823
20337824
20337825
20337826
20337827
20337828
20337829
20337830
20337831
20337832
20337833
20337834
20337835
20337836
20337837
20337838
20337839
20337840
20337841
20337842
20337843
20337844
20337845
20337846
20337847
20337848
20337849
20337850
20337851
20337852
20337853
20337854
20337855
20337856
20337857
20337858
20337859
20337860
20337861
20337862
20337863
20337864
20337865
20337866
20337867
20337868
20337869
20337870
20337871
20337872
20337873
20337874
20337875
20337876
20337877
20337878
20337879
20337880
20337881
20337882
20337883
20337884
20337885
20337886
20337887
20337888
20337889
20337890
20337891
20337892
20337893
20337894
20337895
20337896
20337897
20337898
20337899
20337900
20337901
20337902
20337903
20337904
20337905
20337906
20337907
20337908
20337909
20337910
20337911
20337912
20337913
20337914
20337915
20337916
20337917
20337918
20337919
20337920
20337921
20337922
20337923
20337924
20337925
20337926
20337927
20337928
20337929
20337930
20337931
20337932
20337933
20337934
20337935
20337936
20337937
20337938
20337939
20337940
20337941
20337942
20337943
20337944
20337945
20337946
20337947
20337948
20337949
20337950
20337951
20337952
20337953
20337954
20337955
20337956
20337957
20337958
20337959
20337960
20337961
20337962
20337963
20337964
20337965
20337966
20337967
20337968
20337969
20337970
20337971
20337972
20337973
20337974
20337975
20337976
20337977
20337978
20337979
20337980
20337981
20337982
20337983
20337984
20337985
20337986
20337987
20337988
20337989
20337990
20337991
20337992
20337993
20337994
20337995
20337996
20337997
20337998
20337999
20338000
20338001
20338002
20338003
20338004
20338005
20338006
20338007
20338008
20338009
20338010
20338011
20338012
20338013
20338014
20338015
20338016
20338017
20338018
20338019
20338020
20338021
20338022
20338023
20338024
20338025
20338026
20338027
20338028
20338029
20338030
20338031
20338032
20338033
20338034
20338035
20338036
20338037
20338038
20338039
20338040
20338041
20338042
20338043
20338044
20338045
20338046
20338047
20338048
20338049
20338050
20338051
20338052
20338053
20338054
20338055
20338056
20338057
20338058
20338059
20338060
20338061
20338062
20338063
20338064
20338065
20338066
20338067
20338068
20338069
20338070
20338071
20338072
20338073
20338074
20338075
20338076
20338077
20338078
20338079
20338080
20338081
20338082
20338083
20338084
20338085
20338086
20338087
20338088
20338089
20338090
20338091
20338092
20338093
20338094
20338095
20338096
20338097
20338098
20338099
20338100
20338101
20338102
20338103
20338104
20338105
20338106
20338107
20338108
20338109
20338110
20338111
20338112
20338113
20338114
20338115
20338116
20338117
20338118
20338119
20338120
20338121
20338122
20338123
20338124
20338125
20338126
20338127
20338128
20338129
20338130
20338131
20338132
20338133
20338134
20338135
20338136
20338137
20338138
20338139
20338140
20338141
20338142
20338143
20338144
20338145
20338146
20338147
20338148
20338149
20338150
20338151
20338152
20338153
20338154
20338155
20338156
20338157
20338158
20338159
20338160
20338161
20338162
20338163
20338164
20338165
20338166
20338167
20338168
20338169
20338170
20338171
20338172
20338173
20338174
20338175
20338176
20338177
20338178
20338179
20338180
20338181
20338182
20338183
20338184
20338185
20338186
20338187
20338188
20338189
20338190
20338191
20338192
20338193
20338194
20338195
20338196
20338197
20338198
20338199
20338200
20338201
20338202
20338203
20338204
20338205
20338206
20338207
20338208
20338209
20338210
20338211
20338212
20338213
20338214
20338215
20338216
20338217
20338218
20338219
20338220
20338221
20338222
20338223
20338224
20338225
20338226
20338227
20338228
20338229
20338230
20338231
20338232
20338233
20338234
20338235
20338236
20338237
20338238
20338239
20338240
20338241
20338242
20338243
20338244
20338245
20338246
20338247
20338248
20338249
20338250
20338251
20338252
20338253
20338254
20338255
20338256
20338257
20338258
20338259
20338260
20338261
20338262
20338263
20338264
20338265
20338266
20338267
20338268
20338269
20338270
20338271
20338272
20338273
20338274
20338275
20338276
20338277
20338278
20338279
20338280
20338281
20338282
20338283
20338284
20338285
20338286
20338287
20338288
20338289
20338290
20338291
20338292
20338293
20338294
20338295
20338296
20338297
20338298
20338299
20338300
20338301
20338302
20338303
20338304
20338305
20338306
20338307
20338308
20338309
20338310
20338311
20338312
20338313
20338314
20338315
20338316
20338317
20338318
20338319
20338320
20338321
20338322
20338323
20338324
20338325
20338326
20338327
20338328
20338329
20338330
20338331
20338332
20338333
20338334
20338335
20338336
20338337
20338338
20338339
20338340
20338341
20338342
20338343
20338344
20338345
20338346
20338347
20338348
20338349
20338350
20338351
20338352
20338353
20338354
20338355
20338356
20338357
20338358
20338359
20338360
20338361
20338362
20338363
20338364
20338365
20338366
20338367
20338368
20338369
20338370
20338371
20338372
20338373
20338374
20338375
20338376
20338377
20338378
20338379
20338380
20338381
20338382
20338383
20338384
20338385
20338386
20338387
20338388
20338389
20338390
20338391
20338392
20338393
20338394
20338395
20338396
20338397
20338398
20338399
20338400
20338401
20338402
20338403
20338404
20338405
20338406
20338407
20338408
20338409
20338410
20338411
20338412
20338413
20338414
20338415
20338416
20338417
20338418
20338419
20338420
20338421
20338422
20338423
20338424
20338425
20338426
20338427
20338428
20338429
20338430
20338431
20338432
20338433
20338434
20338435
20338436
20338437
20338438
20338439
20338440
20338441
20338442
20338443
20338444
20338445
20338446
20338447
20338448
20338449
20338450
20338451
20338452
20338453
20338454
20338455
20338456
20338457
20338458
20338459
20338460
20338461
20338462
20338463
20338464
20338465
20338466
20338467
20338468
20338469
20338470
20338471
20338472
20338473
20338474
20338475
20338476
20338477
20338478
20338479
20338480
20338481
20338482
20338483
20338484
20338485
20338486
20338487
20338488
20338489
20338490
20338491
20338492
20338493
20338494
20338495
20338496
20338497
20338498
20338499
20338500
20338501
20338502
20338503
20338504
20338505
20338506
20338507
20338508
20338509
20338510
20338511
20338512
20338513
20338514
20338515
20338516
20338517
20338518
20338519
20338520
20338521
20338522
20338523
20338524
20338525
20338526
20338527
20338528
20338529
20338530
20338531
20338532
20338533
20338534
20338535
20338536
20338537
20338538
20338539
20338540
20338541
20338542
20338543
20338544
20338545
20338546
20338547
20338548
20338549
20338550
20338551
20338552
20338553
20338554
20338555
20338556
20338557
20338558
20338559
20338560
20338561
20338562
20338563
20338564
20338565
20338566
20338567
20338568
20338569
20338570
20338571
20338572
20338573
20338574
20338575
20338576
20338577
20338578
20338579
20338580
20338581
20338582
20338583
20338584
20338585
20338586
20338587
20338588
20338589
20338590
20338591
20338592
20338593
20338594
20338595
20338596
20338597
20338598
20338599
20338600
20338601
20338602
20338603
20338604
20338605
20338606
20338607
20338608
20338609
20338610
20338611
20338612
20338613
20338614
20338615
20338616
20338617
20338618
20338619
20338620
20338621
20338622
20338623
20338624
20338625
20338626
20338627
20338628
20338629
20338630
20338631
20338632
20338633
20338634
20338635
20338636
20338637
20338638
20338639
20338640
20338641
20338642
20338643
20338644
20338645
20338646
20338647
20338648
20338649
20338650
20338651
20338652
20338653
20338654
20338655
20338656
20338657
20338658
20338659
20338660
20338661
20338662
20338663
20338664
20338665
20338666
20338667
20338668
20338669
20338670
20338671
20338672
20338673
20338674
20338675
20338676
20338677
20338678
20338679
20338680
20338681
20338682
20338683
20338684
20338685
20338686
20338687
20338688
20338689
20338690
20338691
20338692
20338693
20338694
20338695
20338696
20338697
20338698
20338699
20338700
20338701
20338702
20338703
20338704
20338705
20338706
20338707
20338708
20338709
20338710
20338711
20338712
20338713
20338714
20338715
20338716
20338717
20338718
20338719
20338720
20338721
20338722
20338723
20338724
20338725
20338726
20338727
20338728
20338729
20338730
20338731
20338732
20338733
20338734
20338735
20338736
20338737
20338738
20338739
20338740
20338741
20338742
20338743
20338744
20338745
20338746
20338747
20338748
20338749
20338750
20338751
20338752
20338753
20338754
20338755
20338756
20338757
20338758
20338759
20338760
20338761
20338762
20338763
20338764
20338765
20338766
20338767
20338768
20338769
20338770
20338771
20338772
20338773
20338774
20338775
20338776
20338777
20338778
20338779
20338780
20338781
20338782
20338783
20338784
20338785
20338786
20338787
20338788
20338789
20338790
20338791
20338792
20338793
20338794
20338795
20338796
20338797
20338798
20338799
20338800
20338801
20338802
20338803
20338804
20338805
20338806
20338807
20338808
20338809
20338810
20338811
20338812
20338813
20338814
20338815
20338816
20338817
20338818
20338819
20338820
20338821
20338822
20338823
20338824
20338825
20338826
20338827
20338828
20338829
20338830
20338831
20338832
20338833
20338834
20338835
20338836
20338837
20338838
20338839
20338840
20338841
20338842
20338843
20338844
20338845
20338846
20338847
20338848
20338849
20338850
20338851
20338852
20338853
20338854
20338855
20338856
20338857
20338858
20338859
20338860
20338861
20338862
20338863
20338864
20338865
20338866
20338867
20338868
20338869
20338870
20338871
20338872
20338873
20338874
20338875
20338876
20338877
20338878
20338879
20338880
20338881
20338882
20338883
20338884
20338885
20338886
20338887
20338888
20338889
20338890
20338891
20338892
20338893
20338894
20338895
20338896
20338897
20338898
20338899
20338900
20338901
20338902
20338903
20338904
20338905
20338906
20338907
20338908
20338909
20338910
20338911
20338912
20338913
20338914
20338915
20338916
20338917
20338918
20338919
20338920
20338921
20338922
20338923
20338924
20338925
20338926
20338927
20338928
20338929
20338930
20338931
20338932
20338933
20338934
20338935
20338936
20338937
20338938
20338939
20338940
20338941
20338942
20338943
20338944
20338945
20338946
20338947
20338948
20338949
20338950
20338951
20338952
20338953
20338954
20338955
20338956
20338957
20338958
20338959
20338960
20338961
20338962
20338963
20338964
20338965
20338966
20338967
20338968
20338969
20338970
20338971
20338972
20338973
20338974
20338975
20338976
20338977
20338978
20338979
20338980
20338981
20338982
20338983
20338984
20338985
20338986
20338987
20338988
20338989
20338990
20338991
20338992
20338993
20338994
20338995
20338996
20338997
20338998
20338999
20339000
20339001
20339002
20339003
20339004
20339005
20339006
20339007
20339008
20339009
20339010
20339011
20339012
20339013
20339014
20339015
20339016
20339017
20339018
20339019
20339020
20339021
20339022
20339023
20339024
20339025
20339026
20339027
20339028
20339029
20339030
20339031
20339032
20339033
20339034
20339035
20339036
20339037
20339038
20339039
20339040
20339041
20339042
20339043
20339044
20339045
20339046
20339047
20339048
20339049
20339050
20339051
20339052
20339053
20339054
20339055
20339056
20339057
20339058
20339059
20339060
20339061
20339062
20339063
20339064
20339065
20339066
20339067
20339068
20339069
20339070
20339071
20339072
20339073
20339074
20339075
20339076
20339077
20339078
20339079
20339080
20339081
20339082
20339083
20339084
20339085
20339086
20339087
20339088
20339089
20339090
20339091
20339092
20339093
20339094
20339095
20339096
20339097
20339098
20339099
20339100
20339101
20339102
20339103
20339104
20339105
20339106
20339107
20339108
20339109
20339110
20339111
20339112
20339113
20339114
20339115
20339116
20339117
20339118
20339119
20339120
20339121
20339122
20339123
20339124
20339125
20339126
20339127
20339128
20339129
20339130
20339131
20339132
20339133
20339134
20339135
20339136
20339137
20339138
20339139
20339140
20339141
20339142
20339143
20339144
20339145
20339146
20339147
20339148
20339149
20339150
20339151
20339152
20339153
20339154
20339155
20339156
20339157
20339158
20339159
20339160
20339161
20339162
20339163
20339164
20339165
20339166
20339167
20339168
20339169
20339170
20339171
20339172
20339173
20339174
20339175
20339176
20339177
20339178
20339179
20339180
20339181
20339182
20339183
20339184
20339185
20339186
20339187
20339188
20339189
20339190
20339191
20339192
20339193
20339194
20339195
20339196
20339197
20339198
20339199
20339200
20339201
20339202
20339203
20339204
20339205
20339206
20339207
20339208
20339209
20339210
20339211
20339212
20339213
20339214
20339215
20339216
20339217
20339218
20339219
20339220
20339221
20339222
20339223
20339224
20339225
20339226
20339227
20339228
20339229
20339230
20339231
20339232
20339233
20339234
20339235
20339236
20339237
20339238
20339239
20339240
20339241
20339242
20339243
20339244
20339245
20339246
20339247
20339248
20339249
20339250
20339251
20339252
20339253
20339254
20339255
20339256
20339257
20339258
20339259
20339260
20339261
20339262
20339263
20339264
20339265
20339266
20339267
20339268
20339269
20339270
20339271
20339272
20339273
20339274
20339275
20339276
20339277
20339278
20339279
20339280
20339281
20339282
20339283
20339284
20339285
20339286
20339287
20339288
20339289
20339290
20339291
20339292
20339293
20339294
20339295
20339296
20339297
20339298
20339299
20339300
20339301
20339302
20339303
20339304
20339305
20339306
20339307
20339308
20339309
20339310
20339311
20339312
20339313
20339314
20339315
20339316
20339317
20339318
20339319
20339320
20339321
20339322
20339323
20339324
20339325
20339326
20339327
20339328
20339329
20339330
20339331
20339332
20339333
20339334
20339335
20339336
20339337
20339338
20339339
20339340
20339341
20339342
20339343
20339344
20339345
20339346
20339347
20339348
20339349
20339350
20339351
20339352
20339353
20339354
20339355
20339356
20339357
20339358
20339359
20339360
20339361
20339362
20339363
20339364
20339365
20339366
20339367
20339368
20339369
20339370
20339371
20339372
20339373
20339374
20339375
20339376
20339377
20339378
20339379
20339380
20339381
20339382
20339383
20339384
20339385
20339386
20339387
20339388
20339389
20339390
20339391
20339392
20339393
20339394
20339395
20339396
20339397
20339398
20339399
20339400
20339401
20339402
20339403
20339404
20339405
20339406
20339407
20339408
20339409
20339410
20339411
20339412
20339413
20339414
20339415
20339416
20339417
20339418
20339419
20339420
20339421
20339422
20339423
20339424
20339425
20339426
20339427
20339428
20339429
20339430
20339431
20339432
20339433
20339434
20339435
20339436
20339437
20339438
20339439
20339440
20339441
20339442
20339443
20339444
20339445
20339446
20339447
20339448
20339449
20339450
20339451
20339452
20339453
20339454
20339455
20339456
20339457
20339458
20339459
20339460
20339461
20339462
20339463
20339464
20339465
20339466
20339467
20339468
20339469
20339470
20339471
20339472
20339473
20339474
20339475
20339476
20339477
20339478
20339479
20339480
20339481
20339482
20339483
20339484
20339485
20339486
20339487
20339488
20339489
20339490
20339491
20339492
20339493
20339494
20339495
20339496
20339497
20339498
20339499
20339500
20339501
20339502
20339503
20339504
20339505
20339506
20339507
20339508
20339509
20339510
20339511
20339512
20339513
20339514
20339515
20339516
20339517
20339518
20339519
20339520
20339521
20339522
20339523
20339524
20339525
20339526
20339527
20339528
20339529
20339530
20339531
20339532
20339533
20339534
20339535
20339536
20339537
20339538
20339539
20339540
20339541
20339542
20339543
20339544
20339545
20339546
20339547
20339548
20339549
20339550
20339551
20339552
20339553
20339554
20339555
20339556
20339557
20339558
20339559
20339560
20339561
20339562
20339563
20339564
20339565
20339566
20339567
20339568
20339569
20339570
20339571
20339572
20339573
20339574
20339575
20339576
20339577
20339578
20339579
20339580
20339581
20339582
20339583
20339584
20339585
20339586
20339587
20339588
20339589
20339590
20339591
20339592
20339593
20339594
20339595
20339596
20339597
20339598
20339599
20339600
20339601
20339602
20339603
20339604
20339605
20339606
20339607
20339608
20339609
20339610
20339611
20339612
20339613
20339614
20339615
20339616
20339617
20339618
20339619
20339620
20339621
20339622
20339623
20339624
20339625
20339626
20339627
20339628
20339629
20339630
20339631
20339632
20339633
20339634
20339635
20339636
20339637
20339638
20339639
20339640
20339641
20339642
20339643
20339644
20339645
20339646
20339647
20339648
20339649
20339650
20339651
20339652
20339653
20339654
20339655
20339656
20339657
20339658
20339659
20339660
20339661
20339662
20339663
20339664
20339665
20339666
20339667
20339668
20339669
20339670
20339671
20339672
20339673
20339674
20339675
20339676
20339677
20339678
20339679
20339680
20339681
20339682
20339683
20339684
20339685
20339686
20339687
20339688
20339689
20339690
20339691
20339692
20339693
20339694
20339695
20339696
20339697
20339698
20339699
20339700
20339701
20339702
20339703
20339704
20339705
20339706
20339707
20339708
20339709
20339710
20339711
20339712
20339713
20339714
20339715
20339716
20339717
20339718
20339719
20339720
20339721
20339722
20339723
20339724
20339725
20339726
20339727
20339728
20339729
20339730
20339731
20339732
20339733
20339734
20339735
20339736
20339737
20339738
20339739
20339740
20339741
20339742
20339743
20339744
20339745
20339746
20339747
20339748
20339749
20339750
20339751
20339752
20339753
20339754
20339755
20339756
20339757
20339758
20339759
20339760
20339761
20339762
20339763
20339764
20339765
20339766
20339767
20339768
20339769
20339770
20339771
20339772
20339773
20339774
20339775
20339776
20339777
20339778
20339779
20339780
20339781
20339782
20339783
20339784
20339785
20339786
20339787
20339788
20339789
20339790
20339791
20339792
20339793
20339794
20339795
20339796
20339797
20339798
20339799
20339800
20339801
20339802
20339803
20339804
20339805
20339806
20339807
20339808
20339809
20339810
20339811
20339812
20339813
20339814
20339815
20339816
20339817
20339818
20339819
20339820
20339821
20339822
20339823
20339824
20339825
20339826
20339827
20339828
20339829
20339830
20339831
20339832
20339833
20339834
20339835
20339836
20339837
20339838
20339839
20339840
20339841
20339842
20339843
20339844
20339845
20339846
20339847
20339848
20339849
20339850
20339851
20339852
20339853
20339854
20339855
20339856
20339857
20339858
20339859
20339860
20339861
20339862
20339863
20339864
20339865
20339866
20339867
20339868
20339869
20339870
20339871
20339872
20339873
20339874
20339875
20339876
20339877
20339878
20339879
20339880
20339881
20339882
20339883
20339884
20339885
20339886
20339887
20339888
20339889
20339890
20339891
20339892
20339893
20339894
20339895
20339896
20339897
20339898
20339899
20339900
20339901
20339902
20339903
20339904
20339905
20339906
20339907
20339908
20339909
20339910
20339911
20339912
20339913
20339914
20339915
20339916
20339917
20339918
20339919
20339920
20339921
20339922
20339923
20339924
20339925
20339926
20339927
20339928
20339929
20339930
20339931
20339932
20339933
20339934
20339935
20339936
20339937
20339938
20339939
20339940
20339941
20339942
20339943
20339944
20339945
20339946
20339947
20339948
20339949
20339950
20339951
20339952
20339953
20339954
20339955
20339956
20339957
20339958
20339959
20339960
20339961
20339962
20339963
20339964
20339965
20339966
20339967
20339968
20339969
20339970
20339971
20339972
20339973
20339974
20339975
20339976
20339977
20339978
20339979
20339980
20339981
20339982
20339983
20339984
20339985
20339986
20339987
20339988
20339989
20339990
20339991
20339992
20339993
20339994
20339995
20339996
20339997
20339998
20339999
20340000
20340001
20340002
20340003
20340004
20340005
20340006
20340007
20340008
20340009
20340010
20340011
20340012
20340013
20340014
20340015
20340016
20340017