/*--------------------------------*- C++ -*----------------------------------*\
  =========                 |
  \\      /  F ield         | OpenFOAM: The Open Source CFD Toolbox
   \\    /   O peration     | Website:  https://openfoam.org
    \\  /    A nd           | Version:  7
     \\/     M anipulation  |
\*---------------------------------------------------------------------------*/
FoamFile
{
    version     2.0;
    format      ascii;
    class       volScalarField;
    location    "0.0025";
    object      dsmcRhoN;
}
// * * * * * * * * * * * * * * * * * * * * * * * * * * * * * * * * * * * * * //

dimensions      [0 -3 0 0 0 0 0];

internalField   nonuniform List<scalar> 
1000
(
1391
1404
1309
1355
1349
1394
1387
1354
1311
1390
1391
1392
1354
1380
1326
1327
1381
1358
1345
1389
1361
1402
1388
1319
1343
1317
1331
1327
1368
1338
1370
1318
1374
1379
1341
1307
1350
1318
1428
1423
1320
1427
1378
1333
1334
1355
1338
1409
1414
1446
1326
1427
1374
1325
1318
1401
1322
1304
1379
1332
1427
1273
1312
1355
1324
1369
1390
1366
1373
1348
1347
1385
1325
1313
1323
1381
1336
1391
1302
1314
1333
1345
1346
1428
1360
1357
1344
1343
1306
1307
1325
1332
1347
1350
1270
1322
1314
1293
1338
1344
1341
1343
1328
1282
1367
1299
1325
1376
1380
1303
1329
1314
1366
1303
1300
1317
1345
1331
1283
1247
1335
1293
1224
1273
1341
1295
1333
1321
1229
1201
1271
1294
1291
1221
1257
1346
1291
1312
1281
1297
1276
1311
1287
1358
1272
1218
1196
1321
1272
1282
1243
1293
1254
1286
1335
1227
1251
1290
1363
1281
1247
1301
1261
1258
1255
1232
1264
1235
1240
1233
1250
1218
1236
1251
1254
1203
1265
1239
1294
1208
1255
1217
1263
1259
1266
1236
1238
1220
1228
1214
1217
1204
1204
1230
1246
1245
1233
1209
1300
1168
1207
1155
1237
1232
1235
1210
1206
1214
1166
1228
1184
1212
1154
1166
1126
1194
1145
1157
1163
1170
1198
1127
1152
1252
1196
1235
1192
1185
1140
1198
1123
1169
1185
1151
1151
1162
1212
1136
1121
1112
1187
1135
1137
1153
1080
1189
1151
1112
1119
1101
1174
1106
1133
1167
1193
1157
1079
1106
1173
1041
1144
1146
1142
1216
1115
1088
1067
1186
1141
1094
1089
1154
1142
1117
1084
1127
1125
1090
1065
1133
1102
1055
1059
1061
1080
1138
1089
1108
1050
1010
1100
1077
1080
1071
1083
1008
1105
1099
1057
1009
1059
1065
1066
1055
1097
1050
1021
1148
1029
1049
1056
1088
1017
1077
1067
1092
978
986
1004
1033
1005
1047
1020
1068
974
1051
1033
1023
1043
968
1044
1034
982
1004
1018
1026
1057
1058
1027
1018
1014
974
1009
1024
987
1015
970
968
991
970
1001
941
953
1005
1007
1034
1041
945
990
1009
992
995
1028
999
997
972
996
997
922
912
962
982
971
965
961
974
974
941
965
960
968
968
955
893
947
939
911
960
906
947
897
936
931
949
954
968
935
917
945
925
923
879
931
888
865
946
949
866
900
922
957
940
923
899
918
870
893
939
888
941
887
912
906
872
827
866
883
917
938
871
896
904
871
872
870
866
917
845
848
860
825
922
877
892
830
810
803
905
865
880
886
862
897
857
848
856
897
841
833
807
880
859
875
895
877
785
896
851
850
848
830
864
826
844
803
860
861
830
826
790
867
889
800
833
843
831
790
863
835
862
782
822
836
818
820
835
801
842
771
848
803
807
846
846
812
844
823
753
814
819
830
816
798
759
767
786
759
833
816
818
803
776
853
781
782
773
810
771
832
779
850
775
768
791
767
755
814
788
775
782
804
776
760
826
832
799
738
786
784
709
796
853
751
828
775
783
710
762
749
810
804
745
748
737
773
771
813
741
801
716
801
727
766
750
739
784
808
759
770
754
737
718
783
786
745
760
761
766
749
727
719
742
778
680
726
748
736
803
719
711
697
737
701
777
756
761
770
679
732
728
702
749
734
733
694
739
783
718
719
718
726
728
740
761
732
725
744
707
705
765
746
714
750
694
729
718
735
707
727
756
704
701
673
740
732
702
781
765
716
718
757
701
733
716
756
745
746
718
712
686
723
695
701
712
750
736
772
729
727
715
724
685
696
764
727
743
709
730
737
700
710
683
782
706
725
711
732
730
738
725
692
717
717
773
715
643
800
717
768
748
789
749
763
739
738
741
716
743
749
810
798
703
744
719
761
768
765
765
778
753
785
767
850
792
815
794
814
751
791
775
830
810
807
831
810
846
851
865
864
851
791
817
822
790
851
809
813
819
877
875
932
882
841
878
906
859
876
895
924
913
896
911
908
862
864
926
969
914
933
917
937
925
936
939
918
975
895
1007
985
939
969
918
954
961
949
962
970
995
1004
940
1061
974
998
970
996
959
962
986
977
985
1031
954
998
972
1012
968
993
1011
988
1021
1003
993
933
965
986
971
992
1018
962
982
953
1000
988
976
1033
922
995
880
942
982
957
970
924
976
980
979
1007
931
975
926
961
952
962
959
920
957
920
944
979
889
949
938
947
936
921
931
881
950
906
959
902
926
877
902
902
888
914
885
864
904
900
873
830
863
908
854
830
872
903
874
873
862
854
844
854
885
880
786
793
859
855
860
811
798
823
795
833
800
764
872
820
798
864
855
877
791
835
804
790
741
764
818
807
789
829
838
818
793
813
768
817
785
802
752
780
803
775
711
776
724
734
772
751
781
708
744
767
771
732
720
740
772
703
736
729
772
758
714
743
773
789
765
733
741
702
777
746
785
720
727
740
730
739
751
687
768
731
696
762
671
694
766
722
757
709
697
767
730
667
697
670
698
762
728
703
737
743
716
685
745
768
731
740
723
740
737
699
728
763
728
)
;

boundaryField
{
    sides
    {
        type            symmetry;
    }
    empty
    {
        type            empty;
    }
}


// ************************************************************************* //
