/*--------------------------------*- C++ -*----------------------------------*\
  =========                 |
  \\      /  F ield         | OpenFOAM: The Open Source CFD Toolbox
   \\    /   O peration     | Website:  https://openfoam.org
    \\  /    A nd           | Version:  7
     \\/     M anipulation  |
\*---------------------------------------------------------------------------*/
FoamFile
{
    version     2.0;
    format      ascii;
    class       volScalarField;
    location    "0.0025";
    object      linearKE;
}
// * * * * * * * * * * * * * * * * * * * * * * * * * * * * * * * * * * * * * //

dimensions      [1 -1 -2 0 0 0 0];

internalField   nonuniform List<scalar> 
1000
(
0.479067
0.484271
0.453615
0.477556
0.455723
0.477014
0.469829
0.457826
0.447205
0.46964
0.507641
0.479918
0.466706
0.475033
0.451794
0.458928
0.468382
0.466743
0.481761
0.478632
0.457436
0.488627
0.475274
0.436335
0.459691
0.446313
0.458317
0.454224
0.452546
0.483425
0.477732
0.465155
0.462442
0.478749
0.474
0.43418
0.459583
0.463225
0.499895
0.465156
0.444074
0.489277
0.461114
0.439283
0.459955
0.459349
0.453556
0.488313
0.472899
0.477034
0.444592
0.484828
0.464475
0.460376
0.45393
0.483107
0.45882
0.452576
0.46393
0.445484
0.509586
0.441994
0.463207
0.483181
0.446705
0.479818
0.477572
0.460634
0.470027
0.475498
0.459558
0.464782
0.43878
0.472842
0.449508
0.491998
0.463684
0.47404
0.470623
0.45871
0.463058
0.460348
0.464772
0.472429
0.467664
0.475256
0.4689
0.461739
0.466487
0.455892
0.469755
0.459845
0.461968
0.459354
0.432857
0.459987
0.454693
0.456603
0.467331
0.462184
0.438861
0.457051
0.451274
0.44282
0.466026
0.435572
0.431612
0.458464
0.464974
0.440471
0.449878
0.457421
0.484996
0.440008
0.435127
0.480636
0.45008
0.470087
0.446819
0.446276
0.464933
0.437312
0.437348
0.425795
0.461116
0.436857
0.454397
0.454217
0.432772
0.427853
0.431234
0.447023
0.449159
0.41967
0.432873
0.447765
0.449709
0.474766
0.424758
0.446202
0.436888
0.442199
0.446789
0.467917
0.432262
0.42425
0.420306
0.454486
0.429821
0.444801
0.420801
0.434681
0.440773
0.45
0.460188
0.408553
0.437578
0.444825
0.459955
0.4457
0.448667
0.459888
0.437446
0.417035
0.43042
0.427168
0.41915
0.444804
0.43122
0.423991
0.419263
0.419274
0.438873
0.431701
0.432903
0.420828
0.441499
0.427745
0.445978
0.419912
0.443804
0.423539
0.429302
0.446812
0.441987
0.431471
0.452267
0.429042
0.43131
0.422136
0.418499
0.417679
0.412772
0.408607
0.420216
0.415469
0.422376
0.429866
0.440554
0.400995
0.432072
0.403339
0.451152
0.445299
0.448775
0.423695
0.431697
0.433173
0.402016
0.446523
0.409533
0.435774
0.415979
0.385384
0.379769
0.42072
0.411313
0.399736
0.41449
0.395122
0.432754
0.395839
0.40264
0.453579
0.432775
0.448166
0.423172
0.414458
0.393477
0.420406
0.372494
0.407271
0.429914
0.402632
0.409624
0.416629
0.41295
0.400626
0.377114
0.380737
0.432507
0.402889
0.410392
0.411825
0.382707
0.422145
0.400455
0.392399
0.389941
0.394148
0.408953
0.390437
0.396417
0.407815
0.424439
0.40047
0.372852
0.382872
0.407751
0.370875
0.396229
0.398231
0.422814
0.434379
0.396598
0.387113
0.380849
0.427793
0.39357
0.393451
0.384489
0.421481
0.406621
0.412303
0.391646
0.403306
0.406991
0.386518
0.373736
0.395502
0.366771
0.381305
0.367281
0.37222
0.393572
0.408306
0.388283
0.411713
0.368413
0.343309
0.376131
0.383164
0.383065
0.388324
0.389083
0.366556
0.368495
0.397286
0.372659
0.374497
0.370967
0.376516
0.390239
0.387643
0.39184
0.368815
0.368206
0.407542
0.373391
0.364508
0.377017
0.379554
0.369958
0.386191
0.380679
0.39316
0.362446
0.363347
0.342733
0.376788
0.367054
0.371707
0.382241
0.389768
0.347622
0.37503
0.359916
0.371247
0.363388
0.358415
0.378242
0.357985
0.367491
0.358214
0.362576
0.359292
0.367793
0.371221
0.35476
0.37013
0.368115
0.36769
0.3741
0.379153
0.358409
0.363827
0.361325
0.359229
0.350333
0.349178
0.356416
0.335175
0.339344
0.374324
0.368645
0.379117
0.374683
0.358901
0.358047
0.365085
0.36283
0.358687
0.356064
0.366542
0.35279
0.330978
0.368183
0.368232
0.339272
0.319331
0.34404
0.355003
0.347753
0.34851
0.349483
0.343995
0.328782
0.33961
0.35591
0.355924
0.361019
0.341274
0.337628
0.330158
0.349023
0.347811
0.331169
0.351495
0.340944
0.350677
0.323834
0.34203
0.344726
0.341027
0.353284
0.359629
0.359445
0.319054
0.339229
0.34032
0.327257
0.325095
0.334413
0.326615
0.313547
0.333765
0.362784
0.30634
0.333716
0.319628
0.355277
0.340956
0.343946
0.336336
0.331771
0.31176
0.309839
0.340049
0.325601
0.344936
0.332403
0.34168
0.339096
0.319932
0.318343
0.306965
0.328458
0.337298
0.343151
0.311052
0.330545
0.323835
0.321138
0.308241
0.32864
0.329774
0.341456
0.317372
0.316181
0.321411
0.313175
0.339676
0.33791
0.321761
0.302212
0.291272
0.302387
0.353198
0.315257
0.314905
0.309533
0.329295
0.327749
0.320024
0.299138
0.331684
0.325847
0.319547
0.297949
0.292976
0.338944
0.30575
0.325078
0.350793
0.339274
0.29446
0.342987
0.317842
0.314976
0.321458
0.307478
0.319293
0.313192
0.318606
0.308608
0.314018
0.320695
0.314872
0.303218
0.294047
0.31704
0.335307
0.305299
0.311709
0.309697
0.321075
0.285651
0.310891
0.304948
0.311057
0.295545
0.306443
0.321372
0.315509
0.297871
0.310984
0.312013
0.326722
0.30095
0.316295
0.302222
0.299834
0.325702
0.3215
0.309868
0.316769
0.318583
0.291464
0.324875
0.307239
0.321062
0.313299
0.31498
0.272874
0.288982
0.299401
0.291627
0.306052
0.313471
0.313133
0.323216
0.293439
0.333081
0.29081
0.294574
0.293361
0.308159
0.293274
0.329587
0.295545
0.33263
0.288473
0.294264
0.314043
0.294627
0.278958
0.306524
0.298088
0.303348
0.284836
0.304475
0.298942
0.29833
0.307399
0.315359
0.322392
0.287497
0.294362
0.297082
0.261652
0.302859
0.31349
0.286631
0.326307
0.285177
0.296752
0.267518
0.307276
0.2787
0.30525
0.306436
0.300873
0.300898
0.278996
0.297565
0.298319
0.305891
0.290372
0.314881
0.287659
0.301712
0.283411
0.30533
0.287716
0.277526
0.297656
0.312664
0.291102
0.299672
0.286861
0.287049
0.286431
0.30541
0.311485
0.279957
0.294212
0.30826
0.291676
0.296433
0.290311
0.274593
0.282148
0.311852
0.257018
0.274048
0.283024
0.28648
0.307117
0.283043
0.284131
0.279404
0.287137
0.269717
0.296703
0.299587
0.302752
0.290951
0.277729
0.308665
0.283217
0.265589
0.279358
0.280673
0.279225
0.275521
0.272093
0.309169
0.272884
0.292991
0.27784
0.270712
0.279416
0.297975
0.303254
0.283171
0.283488
0.290518
0.283261
0.275235
0.290126
0.288441
0.283477
0.29971
0.282952
0.283214
0.28747
0.285067
0.264866
0.277466
0.292306
0.275116
0.276147
0.258629
0.287039
0.289085
0.263322
0.29283
0.295697
0.282697
0.28568
0.320872
0.281941
0.305079
0.268075
0.297651
0.296406
0.303828
0.28715
0.288619
0.276618
0.282615
0.26503
0.259382
0.285136
0.292611
0.281238
0.305523
0.283314
0.288737
0.292503
0.287782
0.282035
0.275865
0.296074
0.29108
0.303678
0.261582
0.268298
0.301199
0.276281
0.284743
0.276201
0.29846
0.27648
0.291112
0.285548
0.29916
0.295255
0.283398
0.294289
0.279392
0.277987
0.279437
0.304073
0.286993
0.261914
0.314568
0.279756
0.293082
0.291492
0.319143
0.271701
0.309675
0.294665
0.289636
0.301891
0.294404
0.291466
0.305419
0.319415
0.300389
0.281796
0.299148
0.27684
0.298096
0.306183
0.304795
0.305711
0.31484
0.299672
0.305725
0.302877
0.340413
0.319151
0.31653
0.322421
0.337155
0.289284
0.32207
0.309499
0.342697
0.32324
0.303525
0.325051
0.319107
0.333765
0.351767
0.35112
0.339293
0.32891
0.312213
0.332446
0.337477
0.314465
0.329892
0.339989
0.33045
0.331489
0.369139
0.332913
0.381268
0.352444
0.342207
0.358353
0.368629
0.369101
0.3544
0.374642
0.387364
0.373359
0.357896
0.377979
0.367969
0.340112
0.35869
0.367806
0.395081
0.37278
0.384352
0.37347
0.399135
0.396412
0.3865
0.400941
0.38493
0.419698
0.38283
0.434461
0.434375
0.417516
0.408527
0.396125
0.404555
0.401777
0.40673
0.414988
0.423569
0.408825
0.444918
0.413559
0.461541
0.444798
0.438422
0.433228
0.440676
0.425359
0.43397
0.456656
0.431492
0.438474
0.491541
0.433104
0.450219
0.441519
0.464862
0.441151
0.466426
0.46008
0.454709
0.466995
0.464954
0.461008
0.450299
0.440951
0.474647
0.481674
0.500868
0.463226
0.450084
0.478353
0.473748
0.4817
0.49079
0.472418
0.502314
0.44057
0.495104
0.433261
0.465663
0.500296
0.482643
0.501077
0.467753
0.513578
0.491472
0.517563
0.505712
0.479779
0.521662
0.489759
0.508505
0.509456
0.524702
0.507502
0.501069
0.509372
0.517629
0.5044
0.534284
0.469455
0.508777
0.496796
0.525107
0.528317
0.502536
0.534822
0.510995
0.507879
0.495894
0.540809
0.504923
0.548011
0.502909
0.527702
0.510678
0.540049
0.539295
0.515858
0.520361
0.519262
0.522418
0.520287
0.493402
0.531688
0.534656
0.519787
0.484262
0.542493
0.56858
0.526699
0.530417
0.52822
0.523274
0.532664
0.552329
0.534674
0.553365
0.499478
0.510615
0.542566
0.548471
0.550057
0.502684
0.531176
0.53196
0.523645
0.51734
0.535309
0.485219
0.563606
0.536019
0.50898
0.552622
0.555213
0.606839
0.521811
0.552329
0.556474
0.532657
0.491135
0.541585
0.547307
0.542577
0.549335
0.564598
0.546141
0.548505
0.538031
0.577854
0.538057
0.562559
0.550877
0.56281
0.525082
0.578161
0.554887
0.54798
0.497612
0.526059
0.517034
0.500418
0.554334
0.512172
0.555295
0.500067
0.534323
0.532204
0.553157
0.519385
0.517611
0.530598
0.579828
0.522529
0.549268
0.528735
0.536834
0.551011
0.513471
0.574523
0.578989
0.563602
0.569552
0.535503
0.536826
0.530312
0.565161
0.563117
0.594576
0.522837
0.53646
0.516375
0.56328
0.560316
0.577918
0.515852
0.591248
0.57611
0.547299
0.568121
0.511907
0.536881
0.579814
0.578173
0.586587
0.535205
0.513268
0.620308
0.503889
0.542173
0.511489
0.50024
0.521315
0.563777
0.569496
0.56309
0.566687
0.558282
0.546289
0.53357
0.549416
0.548882
0.569439
0.589764
0.543672
0.583226
0.566524
0.529083
0.522456
0.586742
0.594062
)
;

boundaryField
{
    sides
    {
        type            symmetry;
    }
    empty
    {
        type            empty;
    }
}


// ************************************************************************* //
