/*--------------------------------*- C++ -*----------------------------------*\
  =========                 |
  \\      /  F ield         | OpenFOAM: The Open Source CFD Toolbox
   \\    /   O peration     | Website:  https://openfoam.org
    \\  /    A nd           | Version:  7
     \\/     M anipulation  |
\*---------------------------------------------------------------------------*/
FoamFile
{
    version     2.0;
    format      ascii;
    class       volVectorField;
    location    "0.0025";
    object      momentum;
}
// * * * * * * * * * * * * * * * * * * * * * * * * * * * * * * * * * * * * * //

dimensions      [1 -2 -1 0 0 0 0];

internalField   nonuniform List<vector> 
1000
(
(6.04868e-05 8.98922e-05 -4.15016e-05)
(-3.58058e-05 4.33196e-05 -3.31442e-05)
(-1.61427e-05 -5.45197e-05 2.46047e-05)
(2.96484e-05 -2.93202e-05 -7.20149e-05)
(4.49541e-05 -2.33531e-05 -4.46968e-05)
(6.32538e-05 3.12521e-05 3.20185e-08)
(4.43042e-06 -4.23431e-05 1.78526e-05)
(4.40103e-06 5.34766e-05 2.0954e-05)
(5.19698e-05 7.00096e-06 -6.53734e-05)
(5.25345e-05 -2.51387e-05 -1.10336e-05)
(6.88805e-05 2.11495e-05 9.40276e-06)
(8.19588e-05 3.85976e-05 -3.74819e-06)
(0.000160516 7.54514e-05 3.02868e-05)
(8.10141e-06 -6.4452e-05 1.3316e-05)
(2.49422e-05 -5.89614e-05 -5.91557e-05)
(4.15794e-05 5.46405e-06 -2.70627e-05)
(7.54515e-05 -6.10515e-05 5.68134e-05)
(4.28841e-05 4.7651e-05 -5.19982e-05)
(3.87618e-05 7.46163e-05 4.65535e-05)
(-1.55364e-05 -3.63955e-05 2.37303e-05)
(7.86275e-05 -3.08195e-05 -2.22405e-05)
(9.19271e-05 4.77372e-05 -0.000120774)
(0.000166552 8.22644e-05 -4.81237e-05)
(8.70015e-05 3.18551e-05 -2.5311e-06)
(8.33698e-05 2.75681e-05 -1.03207e-05)
(0.000146436 5.42798e-05 -3.85607e-05)
(5.9417e-05 0.000109128 2.41541e-05)
(0.000120299 3.23506e-05 -3.32699e-05)
(0.000172054 -5.01819e-06 2.26675e-05)
(0.000130134 1.39449e-05 -5.18815e-06)
(0.000147017 -5.83899e-05 5.96468e-05)
(8.40729e-05 -0.000134617 -1.12704e-05)
(0.000113359 -1.31787e-05 -9.69811e-06)
(4.54111e-05 8.68693e-05 3.86275e-05)
(0.00012175 4.69845e-05 -9.12693e-05)
(0.000109438 -9.36226e-07 2.11095e-05)
(0.000172929 9.94886e-05 -1.31592e-05)
(0.000172634 -9.29945e-05 4.6715e-05)
(0.000202958 4.12682e-05 6.50657e-05)
(0.000166167 5.89086e-05 5.41963e-05)
(0.000125815 0.000115197 -3.3402e-05)
(0.000151164 4.27831e-05 -0.000157484)
(0.000229626 -1.24977e-05 -2.54958e-05)
(0.000204423 6.6996e-06 -3.63777e-05)
(0.000192174 -1.30041e-07 4.7386e-05)
(0.000148672 3.99613e-05 1.99973e-05)
(0.000172286 -1.87304e-05 5.196e-05)
(0.000219607 -2.01552e-05 2.10996e-05)
(0.00022889 5.60226e-05 0.000111461)
(0.000238456 8.59863e-05 6.02372e-05)
(0.000292404 -1.54419e-05 -4.31829e-05)
(0.000153174 4.26997e-06 0.000152043)
(0.000161469 -1.07427e-05 -1.18896e-05)
(0.000225709 -3.20424e-05 -7.23979e-05)
(0.000216043 3.35163e-05 1.20843e-05)
(0.000264923 2.41306e-05 -3.21875e-06)
(0.000234273 5.35464e-05 -2.86255e-05)
(0.000168564 1.78648e-05 5.26252e-05)
(0.000209017 6.00657e-06 8.45946e-05)
(0.000243849 2.01625e-05 -9.57136e-06)
(0.000236439 -0.000125317 -7.1799e-05)
(0.00016739 -1.14536e-05 -7.51108e-05)
(0.000218445 9.54485e-06 -1.94326e-05)
(0.000233397 7.01173e-06 -0.000107286)
(0.000185987 -4.31798e-05 2.58836e-05)
(0.000257256 -4.7527e-06 9.39165e-05)
(0.000302669 7.09081e-05 6.04256e-06)
(0.00029185 5.00245e-05 -6.70931e-05)
(0.000313379 -1.45589e-05 2.95206e-05)
(0.000302145 3.6517e-05 3.00862e-05)
(0.000336257 3.3219e-05 6.39718e-06)
(0.000229534 2.31669e-05 -1.09203e-05)
(0.000354222 3.35145e-05 1.0116e-05)
(0.000261118 -8.46365e-06 5.03712e-05)
(0.000270085 -3.78021e-05 4.56897e-06)
(0.000362921 2.92639e-06 -2.12804e-05)
(0.000352858 -5.11585e-05 2.05323e-05)
(0.000370655 9.10575e-05 8.59065e-05)
(0.000333371 -2.72643e-05 -7.31094e-05)
(0.000333512 -4.25592e-06 -1.12372e-05)
(0.000324913 -4.18756e-05 -1.70569e-06)
(0.000366935 -3.41805e-05 -7.50535e-05)
(0.000330574 -4.44864e-05 -1.30338e-05)
(0.000317307 -6.87889e-05 -1.18137e-05)
(0.000378419 -6.89959e-05 -4.148e-06)
(0.000361878 -6.36334e-06 2.51416e-05)
(0.000415238 1.61837e-05 -4.08815e-05)
(0.000361078 -5.38564e-06 3.71974e-05)
(0.000367413 2.50849e-05 -1.20316e-05)
(0.000445871 -8.33701e-05 -5.3829e-05)
(0.000295058 -5.52326e-05 -2.01183e-05)
(0.000292164 9.41927e-05 -5.47318e-05)
(0.000406914 0.000109388 3.30882e-06)
(0.00032644 -2.82359e-05 8.17786e-05)
(0.000391688 2.48733e-05 1.89392e-06)
(0.000447604 -7.31705e-05 -7.45592e-05)
(0.000428943 2.22109e-05 -4.17714e-05)
(0.000452647 -7.14955e-06 9.49216e-05)
(0.000309836 8.38475e-05 5.92389e-05)
(0.000361059 3.76137e-05 -4.27599e-07)
(0.000334144 6.10169e-05 4.67758e-06)
(0.000426384 7.24556e-06 3.17649e-05)
(0.000320076 -2.13293e-05 -2.4826e-05)
(0.000397703 2.58747e-07 -7.7795e-05)
(0.000391867 -1.03352e-05 -3.36075e-05)
(0.000315 8.15878e-05 -3.49204e-05)
(0.00039217 4.58568e-05 5.42336e-05)
(0.000430943 -0.000125487 4.03232e-05)
(0.000435542 6.71191e-05 3.99631e-05)
(0.000406329 -9.39706e-05 4.24427e-05)
(0.000441137 4.78334e-05 9.79608e-06)
(0.00039755 -4.92916e-05 -1.24891e-05)
(0.000464734 7.89972e-06 3.68422e-05)
(0.00035191 2.50866e-05 -2.7356e-05)
(0.000416606 4.48558e-05 1.10859e-05)
(0.000497061 -1.07458e-05 -1.28419e-05)
(0.000410347 -4.31687e-05 -7.27786e-05)
(0.000544733 -7.37689e-05 2.7464e-05)
(0.000487291 -1.76245e-05 1.22314e-06)
(0.000533282 -4.44891e-05 -2.7015e-05)
(0.000619788 3.30446e-05 4.18728e-05)
(0.000431974 6.69867e-05 -1.17868e-05)
(0.000486618 1.59884e-05 6.47388e-05)
(0.000416824 -7.16581e-05 -1.48652e-05)
(0.000501463 -1.27472e-05 4.68226e-05)
(0.000456953 7.6924e-07 3.68656e-05)
(0.000521161 -5.81612e-06 -6.94343e-05)
(0.000467683 -6.82081e-05 1.83429e-05)
(0.000466948 -1.31746e-05 -3.64966e-05)
(0.000458748 4.39153e-06 3.2114e-05)
(0.000464403 4.49735e-05 -2.70558e-05)
(0.000476562 7.51733e-06 -2.67466e-05)
(0.000572515 3.43709e-05 -5.54094e-05)
(0.000494027 2.59856e-05 -6.07586e-05)
(0.00049931 -4.66189e-05 7.31017e-05)
(0.000526481 -2.22826e-05 -6.36636e-05)
(0.000566025 -1.08391e-05 -6.92198e-05)
(0.000577212 -5.43517e-05 -2.17886e-05)
(0.00051981 2.969e-05 1.50573e-05)
(0.000516685 1.80521e-05 -3.28877e-06)
(0.00053911 -5.47832e-06 -1.67646e-05)
(0.000532057 -6.39449e-05 8.63449e-05)
(0.000558672 4.22661e-05 -4.78654e-05)
(0.000601874 -5.33536e-06 7.7306e-05)
(0.000512655 3.11851e-05 6.27535e-05)
(0.000441549 2.88462e-07 -2.81586e-05)
(0.000520702 -3.74376e-05 -7.92251e-06)
(0.000574891 3.91261e-05 -4.86028e-05)
(0.000521765 1.91699e-05 -4.0121e-05)
(0.000534407 2.24019e-05 -1.11065e-05)
(0.000546742 6.61166e-05 -7.48651e-06)
(0.000573414 -6.657e-06 -5.49647e-05)
(0.000568149 5.80362e-05 -3.39467e-05)
(0.00053771 -1.17694e-05 0.000108862)
(0.000629071 -2.9093e-05 1.62815e-06)
(0.000532283 2.28814e-05 1.82451e-05)
(0.000604954 -7.33999e-06 -3.07346e-05)
(0.000607786 -2.73128e-06 1.22544e-05)
(0.000606182 1.83003e-05 1.85582e-05)
(0.000632852 -3.38133e-05 3.72615e-05)
(0.0005675 -1.09951e-06 -4.19554e-05)
(0.000581979 6.0625e-05 -8.97442e-06)
(0.000572426 -4.03691e-05 2.04963e-05)
(0.000574015 2.58869e-05 -3.25589e-05)
(0.000476986 -1.4208e-05 6.49319e-08)
(0.000605468 -5.55335e-05 5.68827e-05)
(0.000572122 -2.77432e-05 9.77362e-05)
(0.000559404 5.56991e-06 4.48437e-05)
(0.000598681 -1.49351e-05 4.75338e-05)
(0.00057629 6.38511e-05 -5.60685e-06)
(0.000517495 6.84992e-07 4.0707e-05)
(0.000546383 -9.2449e-06 -2.29487e-05)
(0.000580831 -7.32581e-06 -2.07645e-05)
(0.000621717 3.53677e-05 -4.77301e-05)
(0.000649414 1.75182e-05 -6.36098e-05)
(0.000675195 -5.9035e-05 -3.05278e-05)
(0.000567732 -2.21032e-05 1.72257e-05)
(0.000634613 7.03914e-06 -9.53e-06)
(0.000573717 3.87931e-05 7.89723e-05)
(0.000651926 6.28193e-05 -7.97851e-05)
(0.00065793 -9.82145e-06 -3.81614e-05)
(0.000698044 4.31474e-05 1.80038e-05)
(0.000562383 -1.67591e-05 -5.51964e-05)
(0.000655918 6.28481e-05 -2.26511e-05)
(0.000682789 -4.10476e-06 3.90592e-05)
(0.000639352 -0.000102127 -7.10856e-05)
(0.000673995 -3.71126e-06 5.95149e-05)
(0.00065403 -4.65695e-06 -7.33917e-05)
(0.000699397 -1.04519e-05 2.40427e-05)
(0.000684914 -6.62351e-06 8.0837e-05)
(0.000656729 7.43695e-05 1.7038e-05)
(0.000653392 4.67514e-05 -1.60541e-05)
(0.000692269 1.88665e-05 3.09312e-05)
(0.000604848 1.05019e-06 8.12967e-05)
(0.00068955 2.21494e-05 -2.95679e-05)
(0.000649601 0.000101181 1.56764e-05)
(0.000597472 3.74316e-06 -1.60033e-05)
(0.00078603 -2.72662e-05 5.18057e-05)
(0.000700118 -3.4371e-05 3.56192e-05)
(0.000643702 2.81749e-06 -5.34088e-05)
(0.00067474 3.34366e-05 -3.64951e-05)
(0.000591035 5.36578e-05 -6.45957e-06)
(0.000787165 -5.06066e-05 -1.79635e-05)
(0.000695628 -1.20794e-05 6.22839e-05)
(0.000761364 6.15471e-05 -6.44517e-05)
(0.000688387 -5.78365e-05 6.74112e-05)
(0.000754574 8.49765e-06 -3.5534e-05)
(0.00069621 -1.83582e-05 1.20132e-06)
(0.000588739 -4.46299e-05 -2.85739e-05)
(0.000739787 1.27496e-06 2.98943e-05)
(0.000678908 6.3011e-05 -4.40691e-05)
(0.000672739 2.32485e-05 -2.95652e-05)
(0.000698294 1.0556e-05 -5.39303e-05)
(0.000674609 -9.25346e-06 -2.79664e-05)
(0.00064197 4.36247e-05 1.72819e-06)
(0.000672422 -2.28586e-05 -3.85547e-05)
(0.000655114 -1.73678e-05 3.24439e-05)
(0.000734859 5.05416e-05 1.17937e-05)
(0.000725499 -5.76499e-05 -4.95941e-05)
(0.000700866 -2.13308e-05 -5.31985e-05)
(0.000782241 7.71099e-05 -1.77033e-05)
(0.000703684 2.48498e-07 -3.07777e-05)
(0.000680593 -2.69123e-05 -9.01385e-06)
(0.000811786 -5.90892e-05 -4.83878e-08)
(0.000755821 -6.53623e-05 -4.75333e-05)
(0.000787958 -2.29261e-05 5.06021e-05)
(0.000719735 -3.81931e-05 3.33944e-05)
(0.000788979 7.71978e-06 -9.76618e-05)
(0.000692571 -1.69883e-05 1.26913e-05)
(0.000742939 -4.22736e-05 -1.75192e-05)
(0.00068852 1.19571e-05 6.16529e-05)
(0.000721479 -6.20615e-05 -1.63754e-05)
(0.000742499 -8.65511e-06 -8.22463e-05)
(0.000664573 8.83389e-06 -1.44026e-06)
(0.000735384 -3.77817e-05 -2.73004e-05)
(0.000813568 -9.44674e-05 7.52312e-05)
(0.000790522 -8.5112e-05 -1.67203e-05)
(0.000757315 -9.46183e-05 -1.07217e-05)
(0.000728707 -2.72503e-05 4.60716e-05)
(0.000686336 -7.02601e-05 -4.08518e-05)
(0.000820479 -3.62462e-05 -5.64885e-06)
(0.000760193 8.32584e-05 4.88871e-05)
(0.00081509 3.25432e-05 -2.99101e-07)
(0.000807147 4.97232e-05 2.01486e-05)
(0.000709989 7.86542e-06 7.37466e-06)
(0.000778851 1.68408e-05 -1.54629e-05)
(0.00071043 4.32091e-05 1.74603e-05)
(0.000685772 -6.79971e-05 4.5236e-05)
(0.00067768 -5.00388e-05 -3.82179e-05)
(0.000779735 2.97804e-05 -1.15479e-05)
(0.000770277 -4.864e-05 1.08275e-05)
(0.000779992 -5.94275e-05 -7.25297e-06)
(0.000751542 2.82845e-05 1.87474e-05)
(0.000845933 -4.58767e-05 -1.68832e-05)
(0.000846102 -3.38268e-05 -4.99064e-06)
(0.000783863 5.04622e-05 -0.000100884)
(0.000706281 -2.19284e-05 -2.78389e-05)
(0.000739222 3.70125e-05 -8.08196e-06)
(0.000862132 7.46542e-05 2.63625e-05)
(0.000719657 -5.38071e-05 -1.23189e-05)
(0.000791025 2.58099e-06 -1.49848e-05)
(0.000777392 -1.00319e-05 -4.45481e-06)
(0.000891729 1.75537e-05 3.4304e-05)
(0.000907246 -1.42275e-05 5.57332e-05)
(0.000784679 -8.28891e-05 -3.70422e-07)
(0.000741148 2.73443e-05 6.05708e-05)
(0.000723723 -4.28453e-05 -7.8756e-05)
(0.000863446 6.10523e-05 1.03892e-05)
(0.000785488 2.86823e-06 3.88189e-05)
(0.000797033 -1.1426e-05 -2.96466e-05)
(0.000809933 -6.21099e-05 -5.63838e-05)
(0.000871023 -4.30039e-05 1.02284e-05)
(0.000778583 -1.13304e-05 3.20592e-05)
(0.000827092 8.29205e-05 8.67433e-06)
(0.000795927 -7.42403e-07 -8.86663e-05)
(0.000796987 -4.87389e-06 -1.62179e-05)
(0.00085224 -4.10897e-05 -7.90097e-05)
(0.00082667 -2.44794e-05 -4.27015e-05)
(0.000772268 1.30753e-05 9.3101e-05)
(0.000852219 4.16229e-05 2.38889e-05)
(0.00075465 -2.20385e-05 1.20574e-05)
(0.000834123 1.06867e-05 -4.69154e-05)
(0.000772962 2.57821e-05 -4.96751e-05)
(0.000798271 3.95556e-05 -1.14516e-05)
(0.00083773 5.41654e-07 -9.29543e-06)
(0.000851457 7.48749e-06 -4.61741e-05)
(0.000816241 -6.99447e-06 -9.27524e-05)
(0.000891875 2.57066e-05 3.09074e-05)
(0.000814701 2.28127e-05 3.869e-05)
(0.000694919 2.2707e-05 1.2527e-05)
(0.000862936 -4.31646e-05 -2.9894e-05)
(0.000864999 4.7363e-05 2.49869e-05)
(0.000873087 1.52349e-05 -2.07552e-05)
(0.000809131 -3.99098e-05 -6.77371e-05)
(0.000889963 3.56494e-05 -7.86476e-06)
(0.000796872 1.4598e-05 -2.08824e-05)
(0.000806474 -3.25965e-05 3.46652e-05)
(0.000874214 -3.19754e-05 -2.21133e-05)
(0.000900116 1.39829e-07 -4.00309e-06)
(0.000780022 -5.50948e-05 -1.85461e-05)
(0.00085587 -5.27807e-06 -1.24214e-05)
(0.000784262 -4.36258e-05 -2.46386e-05)
(0.000827167 4.31121e-05 2.95961e-05)
(0.000813761 -7.2547e-05 2.04563e-06)
(0.000883739 4.51682e-05 5.16994e-05)
(0.000844212 -2.82356e-05 0.000102626)
(0.000811445 -5.54232e-05 1.62477e-06)
(0.00095598 -2.84716e-05 3.02923e-05)
(0.000850428 3.86107e-05 1.99536e-05)
(0.000857924 3.00275e-06 -2.05261e-05)
(0.000899362 -1.53376e-05 -2.86143e-05)
(0.000850089 -1.03365e-05 1.42329e-05)
(0.000782962 -1.11653e-05 -8.83973e-07)
(0.000867816 -3.0814e-06 3.36107e-05)
(0.000856587 -7.14924e-06 1.86537e-05)
(0.000881738 7.07928e-06 -3.87414e-05)
(0.00083599 3.24728e-07 5.95007e-05)
(0.000754388 4.4978e-05 -3.88959e-05)
(0.00074438 -2.20462e-05 -3.817e-05)
(0.000872869 4.83859e-06 2.10962e-05)
(0.000837066 -6.71128e-05 -8.96797e-07)
(0.000901151 -1.85796e-05 -3.06943e-05)
(0.000867159 5.38499e-05 2.71045e-06)
(0.000906351 -3.29664e-05 2.19497e-05)
(0.000843098 -3.2555e-05 -1.38313e-05)
(0.000855419 -5.72959e-05 -5.17013e-05)
(0.000840419 6.32221e-05 -2.11398e-05)
(0.000809522 -9.37406e-06 8.87692e-06)
(0.000807341 1.1967e-05 -2.94087e-05)
(0.000846422 3.94706e-05 -7.33394e-05)
(0.000911497 -5.37243e-05 -4.71085e-06)
(0.000848048 -4.62843e-05 -2.16371e-05)
(0.000858224 2.02585e-05 3.9801e-05)
(0.00088204 3.61013e-05 4.26902e-05)
(0.000873864 2.83325e-05 -1.30681e-05)
(0.000880166 3.36353e-06 6.75474e-05)
(0.000855204 6.87565e-06 -2.14279e-05)
(0.000898054 4.12874e-05 7.79579e-05)
(0.000892667 1.3524e-05 -3.21368e-05)
(0.000872954 7.8788e-05 4.77887e-05)
(0.000876136 3.65969e-05 -1.99807e-05)
(0.000864981 2.16567e-05 -7.34243e-06)
(0.000977029 9.52423e-05 -1.38477e-06)
(0.000922583 -1.47443e-05 1.00165e-05)
(0.000869365 -2.049e-05 2.75509e-05)
(0.000932301 6.66593e-06 -3.70051e-05)
(0.000865188 1.78582e-05 -5.35119e-05)
(0.00087289 2.5571e-05 1.10064e-05)
(0.000855344 8.4175e-06 9.67314e-05)
(0.000896634 -7.30339e-06 -5.56893e-05)
(0.00091526 2.1632e-06 9.1443e-06)
(0.00081287 -2.67347e-05 -1.58457e-05)
(0.000857892 6.66093e-05 9.45423e-07)
(0.000919831 6.71267e-06 2.00239e-05)
(0.000961044 9.91628e-06 3.45407e-05)
(0.000951037 -4.49407e-05 5.73297e-05)
(0.000910827 1.1352e-05 -3.87933e-05)
(0.000820736 7.76264e-05 -9.51815e-06)
(0.000913015 2.89322e-05 -3.84358e-05)
(0.000916356 -1.12973e-05 -1.56655e-05)
(0.000897497 4.18269e-05 -3.79675e-05)
(0.000886776 -3.4492e-05 5.5078e-05)
(0.000885558 3.21193e-05 -3.91208e-05)
(0.000949778 -8.35532e-05 -4.09317e-05)
(0.000881154 -3.11356e-05 1.09281e-05)
(0.000858696 6.66682e-06 6.44544e-05)
(0.000943229 1.16304e-05 9.27822e-06)
(0.000964797 -2.25488e-05 -5.48636e-05)
(0.0007931 3.23306e-06 2.45432e-05)
(0.000816305 -1.37728e-05 2.05375e-05)
(0.000925497 2.61991e-05 -2.43947e-05)
(0.000921881 5.00116e-05 -5.20436e-05)
(0.000852329 1.27985e-05 7.20841e-05)
(0.000809348 -3.8438e-06 -3.9335e-05)
(0.000886143 -2.67131e-05 6.11607e-08)
(0.000921142 -3.42023e-05 2.07336e-05)
(0.000825596 1.55051e-05 1.71845e-05)
(0.000791393 2.16819e-05 4.75397e-05)
(0.000940824 1.58096e-05 4.9402e-05)
(0.000928521 -5.08707e-05 -7.40499e-05)
(0.000919764 2.46368e-05 -3.86439e-05)
(0.00089302 1.97148e-05 2.42451e-05)
(0.00086458 2.27115e-05 6.53875e-06)
(0.000849434 3.0704e-05 6.21232e-05)
(0.00089972 1.99991e-05 2.16184e-05)
(0.000922817 -3.28777e-05 -1.17709e-05)
(0.000905869 3.07301e-05 1.52852e-05)
(0.000955226 5.34063e-05 3.59535e-05)
(0.000843408 -5.02702e-05 1.99592e-05)
(0.00091312 -2.58169e-05 5.42735e-06)
(0.000863651 -3.89221e-05 -1.38699e-05)
(0.000898241 -5.6416e-06 -2.06821e-05)
(0.000956749 8.23884e-06 6.47491e-05)
(0.000878509 -3.58385e-05 -3.82323e-05)
(0.000944226 -1.87424e-06 -4.42429e-05)
(0.000964007 -4.36169e-05 6.2227e-05)
(0.000973036 1.4736e-05 3.95671e-05)
(0.000838285 -1.7996e-05 6.02891e-06)
(0.000936984 3.52735e-05 -2.81848e-05)
(0.000924565 1.82037e-05 -2.35252e-06)
(0.00089101 -2.61578e-05 1.00735e-05)
(0.000844476 -3.74736e-05 3.39061e-05)
(0.000913988 4.21447e-05 7.54785e-05)
(0.00089188 5.53284e-05 -4.90265e-06)
(0.000872756 3.48899e-05 -2.3002e-05)
(0.000867579 -1.63145e-05 -2.91535e-06)
(0.000922394 4.41728e-05 -6.33768e-05)
(0.000848409 -2.67017e-05 -1.01712e-05)
(0.000880514 1.57374e-05 4.85368e-05)
(0.00088554 -3.55916e-05 -3.91301e-05)
(0.000978349 3.35778e-05 1.221e-05)
(0.000942067 -5.60017e-05 2.96362e-05)
(0.000937836 7.99467e-05 -6.45643e-05)
(0.000917992 3.36453e-05 -3.15242e-05)
(0.000880374 -4.18999e-05 -9.00496e-05)
(0.000867475 1.40849e-05 1.53054e-05)
(0.000884023 -1.64735e-05 -1.75013e-05)
(0.000956804 6.44256e-05 5.90429e-05)
(0.00091749 8.91426e-06 1.77694e-06)
(0.00098483 1.62558e-05 2.16942e-07)
(0.000908822 -1.09762e-05 -6.49092e-06)
(0.000958835 -5.62533e-05 2.21061e-05)
(0.000940027 -4.37528e-05 -1.05238e-06)
(0.000942636 3.92562e-06 5.06896e-05)
(0.000847345 -1.61141e-05 -1.79944e-05)
(0.000830986 -9.16633e-06 4.23368e-06)
(0.000927239 -7.13409e-06 2.42854e-05)
(0.000961301 -5.35856e-05 -1.46016e-05)
(0.000967487 5.77224e-06 -2.38871e-06)
(0.000866298 2.05711e-05 -1.21853e-05)
(0.000949839 4.23656e-05 2.10209e-05)
(0.00091512 4.44446e-05 -2.07994e-05)
(0.000919543 5.19278e-06 -9.63247e-06)
(0.000884869 -1.94156e-05 -4.33013e-05)
(0.000918023 5.17936e-05 -2.93691e-05)
(0.000909881 -1.36787e-05 2.06483e-06)
(0.00100031 1.62932e-05 -1.10134e-05)
(0.000922445 -1.26881e-05 2.24381e-05)
(0.000880756 -7.29871e-05 8.1519e-06)
(0.000913607 4.5296e-05 5.28346e-07)
(0.000862296 3.52366e-05 2.80647e-05)
(0.000977458 -3.46582e-05 7.76346e-05)
(0.000964541 -5.82235e-05 3.09319e-05)
(0.00095122 -5.51489e-05 -5.66936e-06)
(0.000857261 1.9082e-05 -8.23669e-06)
(0.000889617 -2.17898e-05 -4.32143e-05)
(0.000882973 8.97956e-05 -2.37488e-05)
(0.000954517 -2.49084e-05 4.01546e-06)
(0.000830992 -2.99006e-05 -2.11264e-05)
(0.000921114 -4.97637e-05 -4.10501e-05)
(0.000941943 1.43533e-05 1.60434e-05)
(0.000911395 7.75096e-06 -5.34843e-06)
(0.000907945 -1.68902e-05 -7.99734e-06)
(0.000915301 1.39456e-05 -5.94258e-05)
(0.000882381 1.17026e-05 1.92534e-05)
(0.000996494 1.58096e-05 -2.20613e-05)
(0.000933207 -4.11813e-05 5.75075e-06)
(0.000950284 -3.28351e-05 -1.08828e-05)
(0.000838565 1.95053e-05 -3.90772e-05)
(0.000857106 -9.57955e-06 -4.4299e-06)
(0.000984751 -3.38712e-06 1.29664e-05)
(0.000917737 2.75514e-05 0.000102159)
(0.000981076 4.17113e-05 -1.29971e-05)
(0.000965415 -5.49283e-05 -9.31078e-05)
(0.000987998 2.94593e-05 -1.89522e-05)
(0.000831469 2.65279e-05 -4.71279e-06)
(0.000964029 3.49933e-05 1.61785e-05)
(0.000923705 -1.26626e-05 -2.99835e-05)
(0.000969122 -6.16009e-05 2.7901e-06)
(0.0009465 -1.97125e-05 2.73873e-05)
(0.000929906 -6.6579e-05 -1.70236e-05)
(0.000940115 1.9566e-05 -1.85864e-05)
(0.000932542 1.17456e-05 -1.7722e-05)
(0.000936878 -2.60028e-06 2.74337e-05)
(0.000895879 -9.65561e-05 6.39395e-05)
(0.000989206 -2.49945e-05 -3.75111e-05)
(0.000908545 -6.03653e-05 1.57984e-06)
(0.000939604 7.63093e-06 5.17901e-06)
(0.000928202 4.01902e-05 5.8308e-07)
(0.000856097 1.25064e-05 1.32506e-05)
(0.000975841 -4.17271e-05 4.84624e-05)
(0.000948416 -1.54566e-05 -4.8157e-06)
(0.000892595 5.41434e-06 3.18248e-05)
(0.000991096 -6.39248e-05 -3.78074e-05)
(0.000914636 -1.54827e-05 4.20653e-05)
(0.000950643 -7.14106e-06 -1.77973e-05)
(0.00082517 -1.71702e-05 1.24732e-05)
(0.000959969 9.08442e-06 -4.27682e-07)
(0.000940196 -0.000106009 -6.71307e-05)
(0.000956491 1.15855e-05 -3.01128e-05)
(0.000928357 1.10466e-05 -2.49137e-05)
(0.000946236 -5.39128e-05 -1.36764e-05)
(0.00098984 3.95919e-05 4.54279e-05)
(0.00100313 -5.57424e-05 -2.35613e-06)
(0.000905592 -1.75788e-05 -5.17706e-06)
(0.000941695 1.54394e-05 2.99768e-05)
(0.00100809 3.23429e-05 -4.815e-05)
(0.00102738 -1.71867e-05 2.92824e-05)
(0.000900559 -1.9959e-05 2.15644e-05)
(0.000940234 2.02689e-05 -2.49216e-05)
(0.000906505 1.98356e-05 5.23572e-05)
(0.000889948 -1.41986e-05 -5.03307e-06)
(0.000988515 1.19444e-05 6.29992e-05)
(0.000989808 -3.91374e-05 -2.06091e-05)
(0.000949292 9.68809e-06 3.21747e-06)
(0.000972017 1.00893e-05 2.42546e-05)
(0.00099673 -2.10001e-05 -3.3303e-05)
(0.00093128 -2.48598e-05 -1.92661e-05)
(0.000996483 -4.42742e-05 -6.39002e-05)
(0.000909208 -2.05934e-05 4.31966e-06)
(0.000990307 -1.56394e-05 -6.29473e-05)
(0.000977336 1.56946e-05 2.1457e-05)
(0.00100991 -1.80311e-05 1.74225e-05)
(0.000892866 1.86363e-05 -4.72899e-05)
(0.000900783 3.43371e-05 -1.13206e-06)
(0.000915623 1.96776e-05 -1.94202e-05)
(0.00087669 -1.81062e-05 3.55745e-05)
(0.000952792 -1.66072e-05 8.63035e-06)
(0.00101191 -3.37736e-05 7.59596e-06)
(0.000953896 -3.18822e-05 5.77888e-05)
(0.000980018 -4.4442e-05 1.5189e-05)
(0.000893926 3.24612e-05 -1.74932e-05)
(0.00104151 -6.21877e-05 -6.9439e-05)
(0.000916984 -3.87318e-05 -5.48678e-05)
(0.000918199 -2.13235e-05 -3.93192e-05)
(0.000897901 2.68193e-05 2.72784e-05)
(0.000973944 -6.76457e-05 2.52194e-06)
(0.000924679 2.06671e-07 -2.86284e-05)
(0.00105048 6.54217e-06 -6.33621e-06)
(0.000959609 3.33795e-07 8.57402e-06)
(0.00101357 6.18531e-05 3.26277e-05)
(0.000944064 -1.05988e-05 2.64421e-05)
(0.000942782 2.63468e-05 3.42945e-05)
(0.000990935 5.77323e-05 4.32273e-05)
(0.000909037 7.6809e-05 4.09773e-05)
(0.000857373 7.55511e-06 -8.0065e-06)
(0.000969172 -2.85868e-05 -1.75091e-05)
(0.000938199 1.79838e-05 5.65252e-05)
(0.000985095 -7.43407e-07 3.09642e-05)
(0.000895597 -2.62103e-05 -5.85986e-05)
(0.00097083 4.45761e-06 4.17728e-06)
(0.000957969 -1.58926e-05 5.46361e-05)
(0.000902312 -3.80253e-05 1.83053e-05)
(0.000992785 -6.80453e-05 3.43309e-06)
(0.000981009 -9.44226e-06 -2.02595e-06)
(0.00101338 2.52767e-05 2.78102e-06)
(0.00089298 5.65207e-05 6.96105e-05)
(0.000936121 2.99018e-05 2.19439e-06)
(0.00091779 3.81454e-07 4.13243e-05)
(0.000853192 -4.59941e-05 1.28419e-05)
(0.000976194 9.09554e-07 -3.51487e-05)
(0.000963232 4.39838e-05 -2.53351e-05)
(0.000921207 -1.55578e-05 2.00217e-05)
(0.000999455 -4.87848e-05 2.17916e-06)
(0.000912486 1.25844e-05 -1.27365e-05)
(0.000957314 -3.25531e-05 -2.24422e-05)
(0.000815131 -7.70008e-06 -3.42718e-05)
(0.00098718 4.17385e-06 7.53099e-06)
(0.000890565 4.70356e-06 6.52251e-05)
(0.000961023 -9.03902e-06 -2.23254e-07)
(0.000965964 -1.54921e-05 -2.20987e-05)
(0.000933847 -2.25242e-05 -3.53425e-06)
(0.000950554 -4.90072e-05 -2.37644e-05)
(0.000896368 9.7839e-06 -6.66923e-06)
(0.000955566 -3.43496e-05 -3.68981e-05)
(0.000920875 -1.27918e-06 1.57327e-05)
(0.000955642 -6.85684e-06 3.67267e-05)
(0.000935852 -4.08415e-05 1.44891e-05)
(0.0010371 -3.40265e-05 9.06219e-06)
(0.000894632 -1.53379e-07 6.1136e-06)
(0.000982291 -2.41667e-05 -2.44175e-05)
(0.000929761 -1.773e-05 -4.35272e-05)
(0.000990088 -2.55989e-05 4.66447e-05)
(0.00092594 -8.28328e-07 -1.01629e-07)
(0.000923946 4.63256e-05 -3.67697e-05)
(0.000994804 -2.83257e-05 -3.02393e-05)
(0.000984698 -1.19997e-05 -2.56978e-05)
(0.00097463 -3.33523e-06 2.63712e-05)
(0.000997012 4.48152e-05 -4.95652e-06)
(0.000931391 -1.23997e-05 -7.68348e-07)
(0.000900013 -1.34284e-05 4.99321e-05)
(0.000904201 4.42487e-05 -3.61317e-05)
(0.00097043 7.95029e-06 -1.2909e-06)
(0.00100451 -1.42461e-05 -2.45364e-05)
(0.000894228 1.17425e-05 6.19467e-06)
(0.000984176 1.55462e-05 -7.64189e-06)
(0.000969187 -6.87825e-05 1.77388e-05)
(0.000943887 -9.68928e-06 -3.36047e-05)
(0.000936167 -2.51337e-06 1.02152e-05)
(0.000952356 -2.29547e-05 -3.70938e-05)
(0.000901599 -2.16639e-05 -1.29033e-05)
(0.000919203 -1.26958e-05 -2.32416e-05)
(0.00104245 -1.54232e-05 5.96612e-05)
(0.000842722 1.88017e-05 3.5249e-05)
(0.00090847 3.50355e-05 7.40419e-06)
(0.000922059 -3.28445e-05 1.58062e-05)
(0.000949223 -6.38633e-06 0.000103209)
(0.00105362 -8.04977e-05 7.03353e-06)
(0.000937953 -1.89537e-05 -6.10881e-06)
(0.000940228 -1.43575e-05 -7.4611e-06)
(0.000891858 2.98724e-06 -6.86464e-06)
(0.000924942 -8.7077e-07 4.61628e-05)
(0.000868466 -7.94535e-05 1.72563e-06)
(0.000940871 -7.22283e-06 -1.24009e-06)
(0.000983801 3.19048e-05 2.88125e-07)
(0.000996236 -7.51445e-05 -2.84482e-05)
(0.000924647 5.55011e-05 2.99345e-05)
(0.000885806 -2.47364e-06 -1.464e-05)
(0.00102868 -1.29245e-05 6.62323e-05)
(0.000919435 -1.40657e-05 2.83258e-07)
(0.000863794 -1.76532e-05 2.205e-05)
(0.000904927 -9.52896e-06 -2.11744e-05)
(0.000919206 5.16523e-05 2.4557e-05)
(0.000868919 -1.66793e-05 -1.74058e-05)
(0.000881605 2.94534e-05 -3.76293e-05)
(0.000907038 -4.07338e-05 -1.2074e-05)
(0.00101674 3.52037e-06 5.04495e-06)
(0.000915497 1.37648e-05 1.3749e-05)
(0.000979586 1.45302e-05 7.10605e-06)
(0.000942081 1.3554e-05 3.05637e-06)
(0.000877959 2.59203e-05 -1.60985e-05)
(0.000945114 3.84989e-06 4.61239e-05)
(0.000972914 -3.0881e-06 -5.67308e-06)
(0.000959393 3.53145e-05 5.35754e-05)
(0.000934351 -3.89181e-05 2.41492e-05)
(0.000920845 -5.03964e-05 -3.87274e-05)
(0.000961361 -6.31042e-06 7.6762e-06)
(0.000935011 -1.20295e-05 -7.63534e-06)
(0.000933759 -2.25219e-06 2.32469e-05)
(0.000930617 -3.55415e-05 1.60523e-06)
(0.000954836 -4.50223e-05 1.29165e-05)
(0.000930828 -1.12767e-05 -2.36882e-05)
(0.000977007 8.8188e-05 -3.06778e-06)
(0.000925465 -9.78671e-05 7.18628e-06)
(0.000943446 -3.08656e-05 -2.29477e-05)
(0.000895804 -6.39308e-05 -2.16122e-05)
(0.000919305 -2.17459e-05 3.85741e-05)
(0.000883848 -6.84849e-06 -3.35282e-06)
(0.000919421 -6.34945e-06 7.7186e-06)
(0.000935666 -3.8125e-05 -3.03016e-05)
(0.000895211 -1.09148e-05 2.72297e-05)
(0.000909154 5.78544e-05 2.14137e-06)
(0.000870305 3.49194e-05 -2.34799e-05)
(0.000975753 -4.62306e-05 -1.19585e-05)
(0.000941565 1.13181e-05 1.8074e-05)
(0.000858264 2.8346e-05 7.262e-06)
(0.000978959 -1.75571e-05 -1.52992e-05)
(0.000958028 3.503e-05 8.20883e-06)
(0.000924606 -1.64825e-05 -3.71251e-05)
(0.000870742 4.43766e-05 7.42171e-07)
(0.0010031 7.35112e-06 -1.88723e-05)
(0.000916293 1.38062e-05 -8.47267e-06)
(0.000937189 -3.04889e-05 5.84286e-06)
(0.000866991 -2.40443e-05 1.86971e-05)
(0.000936301 -3.47501e-05 5.69975e-06)
(0.000961013 -3.52299e-06 2.21645e-05)
(0.000975218 6.31232e-06 4.82876e-05)
(0.000907024 9.16719e-06 6.80868e-05)
(0.000890271 1.82076e-05 -6.87703e-05)
(0.000894402 2.23088e-05 1.74264e-05)
(0.000914012 -4.03334e-05 8.22144e-06)
(0.000865611 -7.4069e-05 6.67788e-05)
(0.000879108 -2.27713e-05 -1.26083e-05)
(0.000922999 -3.3152e-05 6.82222e-06)
(0.000941569 3.05862e-05 1.75034e-05)
(0.000933451 -6.16466e-06 -1.78879e-05)
(0.000973977 1.54398e-05 6.9213e-05)
(0.000909313 -1.0891e-05 9.41801e-06)
(0.000922943 -4.08242e-05 4.89006e-06)
(0.000981804 -3.67633e-05 2.13339e-05)
(0.000961013 -1.90811e-05 -8.28754e-06)
(0.000874626 -4.58216e-06 -4.64402e-06)
(0.000934379 3.18145e-05 -3.22862e-05)
(0.000942278 2.78703e-05 -2.07537e-06)
(0.000960322 3.80579e-05 2.8473e-05)
(0.000972165 -3.29132e-05 -5.46545e-05)
(0.000866565 1.3104e-05 -4.00076e-06)
(0.000880028 1.83848e-05 -1.94855e-05)
(0.000934607 -2.8194e-05 -2.75453e-05)
(0.000886952 5.87219e-05 -2.95558e-05)
(0.00092815 -1.90358e-05 9.37175e-06)
(0.000832899 1.37646e-05 3.4029e-05)
(0.000973247 9.0779e-06 2.60752e-05)
(0.000867717 -7.71809e-06 -2.65992e-05)
(0.000943243 -4.33048e-05 5.61113e-05)
(0.000910878 4.06478e-05 -4.24268e-05)
(0.000965784 -1.04925e-05 -2.77015e-05)
(0.000917233 -3.04756e-05 7.42023e-05)
(0.000925795 -4.57655e-05 -1.4352e-05)
(0.000934847 1.21281e-05 5.45971e-05)
(0.000888803 -1.9479e-05 -2.4841e-05)
(0.000873806 4.41595e-05 3.40848e-06)
(0.000898965 2.34569e-06 -5.18202e-05)
(0.000867514 1.52914e-05 -9.46994e-06)
(0.000892268 4.08683e-05 1.53779e-05)
(0.000796869 -4.68657e-05 -3.87178e-05)
(0.00102486 -7.24521e-06 1.6401e-05)
(0.000822273 -4.21724e-05 -3.16262e-06)
(0.000902981 -2.15081e-05 1.4795e-05)
(0.000877745 3.8544e-05 2.78658e-05)
(0.000966252 -1.17262e-05 -4.46875e-05)
(0.000825754 6.21119e-06 8.93506e-07)
(0.000900521 -3.27442e-05 -2.30818e-05)
(0.000898024 -1.98238e-05 -1.80574e-05)
(0.000808912 2.61519e-05 2.02019e-05)
(0.000848416 3.20502e-06 -6.00429e-05)
(0.000908002 1.79352e-05 2.84186e-06)
(0.00088451 1.3806e-05 1.49308e-06)
(0.000930001 1.89414e-05 -6.27345e-05)
(0.000940026 1.7564e-05 5.55471e-05)
(0.000882554 2.74328e-05 6.95537e-05)
(0.000842898 6.84304e-06 3.01252e-05)
(0.000853154 -2.90585e-05 2.6157e-05)
(0.000801683 -7.35234e-07 -3.10902e-05)
(0.000875004 2.50581e-05 -3.24429e-05)
(0.000885147 -4.74155e-05 -5.62921e-05)
(0.000863717 -1.60595e-05 5.23076e-05)
(0.000883174 -7.94642e-06 4.38031e-05)
(0.000888131 -7.01303e-05 1.56245e-05)
(0.000896306 -8.85339e-07 -2.57208e-05)
(0.000810065 1.86129e-05 -1.61631e-05)
(0.000775942 -1.43884e-06 -2.33333e-05)
(0.000969286 2.98492e-05 -4.63122e-05)
(0.00092162 4.45838e-05 2.5253e-06)
(0.000854439 -4.46923e-05 -2.58127e-05)
(0.00091662 2.84236e-05 4.52979e-05)
(0.000919305 -5.32255e-05 -4.81979e-05)
(0.000802062 1.60645e-05 -3.31572e-05)
(0.000791301 -4.75723e-05 1.25094e-05)
(0.000754317 2.43512e-05 3.86902e-05)
(0.000920671 -2.29952e-05 3.76798e-05)
(0.000863471 3.57793e-05 2.42995e-05)
(0.000864124 4.3765e-05 3.91796e-07)
(0.000854725 3.91114e-05 -9.15085e-06)
(0.000792216 -2.62448e-05 -0.000100919)
(0.000819507 4.23844e-05 -2.32085e-05)
(0.000838317 1.36623e-05 1.30303e-05)
(0.000844414 -3.16475e-05 4.40421e-05)
(0.000859796 6.92363e-05 2.06996e-05)
(0.000774571 -2.29132e-05 1.44948e-06)
(0.000772303 6.2877e-05 3.69093e-05)
(0.000783632 1.13472e-05 -7.28161e-05)
(0.000737166 3.01588e-05 7.94438e-05)
(0.000747599 -2.58467e-05 -4.05515e-05)
(0.000813286 1.73831e-05 -3.56224e-05)
(0.000729005 -2.68609e-05 4.71982e-06)
(0.00072029 1.53352e-05 -2.02036e-06)
(0.000795513 -2.58753e-05 3.53755e-05)
(0.000826673 -5.57592e-05 4.41661e-05)
(0.000769668 -5.06625e-06 -4.95356e-05)
(0.000837216 -8.40938e-06 4.50074e-05)
(0.000765776 2.16692e-05 2.20525e-06)
(0.000717264 -3.24251e-05 -2.82474e-05)
(0.000747118 2.25135e-05 2.04107e-05)
(0.000783623 -4.39891e-05 3.08225e-05)
(0.000757536 -5.44812e-06 -2.79187e-06)
(0.000717408 -2.14382e-05 -1.40174e-05)