/*--------------------------------*- C++ -*----------------------------------*\
  =========                 |
  \\      /  F ield         | OpenFOAM: The Open Source CFD Toolbox
   \\    /   O peration     | Website:  https://openfoam.org
    \\  /    A nd           | Version:  7
     \\/     M anipulation  |
\*---------------------------------------------------------------------------*/
FoamFile
{
    version     2.0;
    format      ascii;
    class       volScalarField;
    location    "0.0225";
    object      dsmcRhoN;
}
// * * * * * * * * * * * * * * * * * * * * * * * * * * * * * * * * * * * * * //

dimensions      [0 -3 0 0 0 0 0];

internalField   nonuniform List<scalar> 
250
(
1005
1079
1068
1060
1037
1001
1032
1043
1042
1074
995
999
985
1017
1059
1002
1054
1025
1031
973
1023
1082
1021
1045
1035
989
1030
1062
1026
1059
1000
989
1057
1017
1064
1027
1043
987
963
1000
1021
970
999
967
1047
1035
1027
1025
1056
1009
1027
1009
1060
1024
994
967
1037
1003
1099
1032
964
958
990
1049
1005
1067
991
1003
1049
1024
987
1005
1014
1085
992
1038
1006
1014
1024
1037
999
1004
985
1043
983
1007
1013
1007
1011
984
985
982
1012
992
1041
928
959
972
997
1012
1019
977
982
1010
1056
1027
913
1003
970
968
1017
980
986
1037
952
980
989
1006
1037
994
979
929
1016
972
999
938
962
914
942
983
1024
977
971
983
948
995
993
984
979
964
1017
1028
971
959
993
998
973
975
986
954
955
963
1010
973
1064
987
1000
1029
950
964
983
1009
984
996
929
998
958
949
973
947
946
962
975
978
995
974
934
969
937
976
933
934
941
1016
963
978
969
1037
976
944
965
958
973
929
942
977
1019
997
965
1002
964
983
960
938
1030
942
965
982
1002
997
994
1031
928
1018
1002
978
973
891
942
998
988
945
981
995
974
989
936
998
982
989
953
947
944
974
1001
992
1015
942
1004
982
1005
968
959
966
959
1007
920
964
939
977
)
;

boundaryField
{
    sides
    {
        type            symmetry;
    }
    empty
    {
        type            empty;
    }
    procBoundary3to2
    {
        type            processor;
        value           uniform 1028;
    }
}


// ************************************************************************* //
