/*--------------------------------*- C++ -*----------------------------------*\
  =========                 |
  \\      /  F ield         | OpenFOAM: The Open Source CFD Toolbox
   \\    /   O peration     | Website:  https://openfoam.org
    \\  /    A nd           | Version:  7
     \\/     M anipulation  |
\*---------------------------------------------------------------------------*/
FoamFile
{
    version     2.0;
    format      ascii;
    class       volScalarField;
    location    "0.0225";
    object      internalE;
}
// * * * * * * * * * * * * * * * * * * * * * * * * * * * * * * * * * * * * * //

dimensions      [1 -1 -2 0 0 0 0];

internalField   nonuniform List<scalar> 
250
(
0.316913
0.330807
0.33221
0.3118
0.324073
0.301805
0.305647
0.316074
0.306512
0.344816
0.301711
0.300749
0.27832
0.320457
0.326258
0.298295
0.312048
0.320339
0.322089
0.301542
0.299505
0.345923
0.297705
0.327016
0.317415
0.291286
0.329856
0.328614
0.332039
0.31632
0.3086
0.298039
0.314458
0.305253
0.332453
0.306187
0.317307
0.303605
0.296012
0.302484
0.31183
0.294741
0.304157
0.297459
0.314524
0.312031
0.333094
0.311396
0.333552
0.296962
0.321735
0.300656
0.310375
0.294865
0.299376
0.300341
0.310328
0.291913
0.348301
0.312092
0.302425
0.299646
0.304702
0.315197
0.291801
0.332655
0.291537
0.312613
0.329781
0.320054
0.309092
0.312718
0.312912
0.325577
0.306872
0.335238
0.313504
0.313274
0.313297
0.324228
0.314512
0.313319
0.322079
0.335206
0.312446
0.308436
0.305382
0.319142
0.321513
0.326874
0.305625
0.327251
0.30195
0.324343
0.33263
0.309336
0.295615
0.298144
0.322694
0.309017
0.331724
0.309508
0.300724
0.322943
0.330278
0.325448
0.276552
0.300451
0.311286
0.313457
0.338464
0.316968
0.317346
0.316983
0.285246
0.308641
0.312823
0.312911
0.325094
0.313722
0.318282
0.282927
0.327559
0.314281
0.319298
0.288341
0.324495
0.268999
0.284132
0.322619
0.313204
0.330035
0.310101
0.300529
0.311681
0.312447
0.308856
0.313462
0.322063
0.316594
0.321108
0.333064
0.284041
0.290631
0.315982
0.318799
0.317208
0.291572
0.278512
0.305943
0.305281
0.300667
0.321515
0.313083
0.35409
0.323183
0.316085
0.330429
0.326081
0.302884
0.299013
0.330942
0.315871
0.310809
0.282293
0.337905
0.296093
0.306422
0.303072
0.296226
0.312267
0.300514
0.309701
0.318876
0.323869
0.30766
0.302857
0.298411
0.312485
0.303779
0.305342
0.311571
0.310054
0.327553
0.314899
0.305082
0.335805
0.344162
0.309151
0.309688
0.309208
0.311975
0.318937
0.297558
0.299595
0.314209
0.321011
0.307405
0.315974
0.314411
0.308899
0.315445
0.309314
0.302476
0.326725
0.300984
0.319181
0.318809
0.341752
0.312478
0.32815
0.332629
0.297688
0.314321
0.316194
0.339506
0.314222
0.27986
0.291341
0.328656
0.327222
0.303646
0.31569
0.321015
0.31144
0.324248
0.298169
0.325092
0.321876
0.285461
0.2956
0.314051
0.296515
0.323618
0.317044
0.306568
0.338085
0.310905
0.343072
0.316673
0.330034
0.298905
0.301458
0.314075
0.300532
0.336991
0.304583
0.314271
0.320463
0.31776
)
;

boundaryField
{
    sides
    {
        type            symmetry;
    }
    empty
    {
        type            empty;
    }
    procBoundary3to2
    {
        type            processor;
        value           uniform 0.296561;
    }
}


// ************************************************************************* //
