/*--------------------------------*- C++ -*----------------------------------*\
  =========                 |
  \\      /  F ield         | OpenFOAM: The Open Source CFD Toolbox
   \\    /   O peration     | Website:  https://openfoam.org
    \\  /    A nd           | Version:  7
     \\/     M anipulation  |
\*---------------------------------------------------------------------------*/
FoamFile
{
    version     2.0;
    format      ascii;
    class       volScalarField;
    location    "0.0225";
    object      linearKE;
}
// * * * * * * * * * * * * * * * * * * * * * * * * * * * * * * * * * * * * * //

dimensions      [1 -1 -2 0 0 0 0];

internalField   nonuniform List<scalar> 
250
(
0.46022
0.492558
0.49631
0.467062
0.450656
0.432448
0.434002
0.45523
0.469544
0.486555
0.458918
0.446753
0.440138
0.448244
0.486878
0.466909
0.503711
0.457317
0.468397
0.433861
0.460109
0.501961
0.463383
0.48471
0.475728
0.435546
0.47345
0.48466
0.460549
0.472063
0.4489
0.464986
0.506026
0.481648
0.484856
0.488407
0.477941
0.454333
0.434567
0.468094
0.477784
0.452746
0.465588
0.43683
0.489889
0.480341
0.468282
0.472619
0.50297
0.455359
0.455619
0.456397
0.480518
0.474828
0.473138
0.45677
0.472761
0.45778
0.510015
0.478604
0.448458
0.431136
0.457526
0.475343
0.461361
0.484818
0.456922
0.453891
0.479159
0.462542
0.443412
0.468021
0.466275
0.509414
0.454262
0.484664
0.467832
0.482003
0.465557
0.474054
0.468403
0.450677
0.455392
0.491803
0.448606
0.466832
0.478059
0.458058
0.470377
0.47437
0.472397
0.453216
0.462536
0.458967
0.486695
0.423929
0.451734
0.458301
0.469084
0.492253
0.478586
0.44859
0.452484
0.487796
0.504284
0.48395
0.426359
0.494642
0.469863
0.453552
0.463323
0.454506
0.46027
0.483886
0.445937
0.474198
0.465431
0.469889
0.478372
0.472986
0.453644
0.428051
0.468816
0.465144
0.472091
0.442206
0.457799
0.430096
0.449342
0.456592
0.477437
0.468612
0.461283
0.450628
0.457775
0.48215
0.44793
0.471043
0.470382
0.451696
0.482836
0.497799
0.45277
0.464501
0.459346
0.46697
0.450886
0.469948
0.475524
0.443052
0.463676
0.453031
0.492856
0.457618
0.524159
0.468478
0.488
0.504007
0.457401
0.464592
0.46287
0.495633
0.475787
0.481304
0.451675
0.467855
0.45251
0.448138
0.479409
0.437326
0.452931
0.465197
0.455528
0.469194
0.448954
0.467129
0.446954
0.4719
0.435294
0.458853
0.443051
0.456977
0.444093
0.484756
0.464949
0.460407
0.451124
0.505554
0.482124
0.465782
0.44222
0.453261
0.47619
0.433741
0.455458
0.470629
0.48074
0.477166
0.463849
0.474385
0.467428
0.487403
0.446873
0.446109
0.527272
0.458491
0.494128
0.467209
0.484182
0.471057
0.485254
0.506704
0.447102
0.476178
0.482666
0.463467
0.482243
0.4185
0.437634
0.471728
0.474522
0.465454
0.481405
0.503947
0.475855
0.460367
0.465531
0.48581
0.467545
0.471295
0.466599
0.464059
0.45832
0.484276
0.480503
0.46619
0.482281
0.454803
0.500518
0.475095
0.484546
0.475942
0.467851
0.467549
0.469361
0.466865
0.439383
0.449307
0.457972
0.470514
)
;

boundaryField
{
    sides
    {
        type            symmetry;
    }
    empty
    {
        type            empty;
    }
    procBoundary3to2
    {
        type            processor;
        value           uniform 0.454784;
    }
}


// ************************************************************************* //
