/*--------------------------------*- C++ -*----------------------------------*\
  =========                 |
  \\      /  F ield         | OpenFOAM: The Open Source CFD Toolbox
   \\    /   O peration     | Website:  https://openfoam.org
    \\  /    A nd           | Version:  7
     \\/     M anipulation  |
\*---------------------------------------------------------------------------*/
FoamFile
{
    version     2.0;
    format      ascii;
    class       volVectorField;
    location    "0.0225";
    object      momentum;
}
// * * * * * * * * * * * * * * * * * * * * * * * * * * * * * * * * * * * * * //

dimensions      [1 -2 -1 0 0 0 0];

internalField   nonuniform List<vector> 
250
(
(-9.32946e-05 -3.9601e-05 6.10413e-06)
(-4.89814e-05 5.20186e-05 2.0836e-06)
(-0.000158444 -5.36399e-05 -3.38834e-05)
(-0.000121099 4.15832e-05 2.42347e-05)
(-0.000137638 -9.08318e-05 3.11287e-05)
(-7.67938e-05 -2.30194e-05 -5.47575e-05)
(-7.11083e-05 -2.41995e-05 5.7972e-05)
(-0.000104305 -2.4085e-05 -3.54974e-06)
(-6.7971e-05 -2.93532e-05 -4.27398e-05)
(-0.000103949 1.14855e-05 -1.59032e-06)
(-6.60563e-05 4.35126e-05 -5.14195e-05)
(-8.609e-05 3.38644e-06 3.48609e-05)
(-1.81471e-05 5.66399e-06 8.48979e-05)
(-9.98436e-05 3.45178e-05 1.53753e-05)
(-0.000119568 3.21115e-05 -4.3936e-06)
(-0.000112008 -5.61182e-05 2.07468e-05)
(-1.50098e-05 -8.74052e-05 -2.75661e-05)
(-8.30775e-05 2.93564e-05 3.38424e-05)
(-7.22231e-05 -8.74674e-06 2.41921e-05)
(-0.000182931 -3.97239e-05 3.71005e-05)
(-5.08312e-05 -1.37798e-05 -3.15562e-05)
(-0.000133939 -2.70875e-05 -5.0967e-05)
(-6.37177e-05 2.6293e-05 3.64871e-05)
(-7.03734e-05 -4.2577e-05 3.38511e-05)
(-6.72275e-05 1.5957e-06 -4.36651e-06)
(-0.000180556 -1.47233e-05 -4.52148e-05)
(-0.000145558 -1.59582e-05 -6.90975e-05)
(-0.000117056 4.33908e-05 2.23256e-06)
(-7.55649e-05 8.08641e-06 3.53664e-05)
(-7.82453e-05 -3.77902e-05 4.13393e-06)
(-4.64898e-05 2.16958e-07 -6.51207e-05)
(-0.00010752 1.03927e-05 -1.3366e-05)
(-5.31309e-05 3.96219e-05 3.08379e-05)
(-0.000134607 7.15734e-06 1.4276e-06)
(-2.08105e-05 -1.05681e-05 -3.52158e-05)
(-0.000156613 -5.66378e-05 -3.55425e-05)
(-1.03957e-05 -9.66778e-05 -1.15905e-05)
(-0.000125018 1.39535e-05 2.50076e-05)
(-0.000118719 3.33525e-05 -0.000107364)
(-8.85365e-05 -8.85703e-06 -4.02536e-05)
(-3.51466e-05 -3.11182e-05 -4.78104e-05)
(-5.50579e-05 8.09864e-06 6.70369e-05)
(-0.000128605 -3.5961e-05 5.58249e-05)
(-3.39148e-05 4.25105e-05 -2.57629e-06)
(-8.55111e-05 3.45632e-05 0.000102647)
(-2.58193e-05 6.59265e-05 -1.0686e-05)
(-9.74399e-05 1.91392e-05 -1.10431e-05)
(-0.000142407 2.33502e-05 -1.13819e-05)
(-0.000173439 -2.14477e-06 -1.49926e-06)
(-7.69105e-05 -5.49568e-05 3.61807e-07)
(-0.00014164 7.86566e-06 4.71655e-05)
(-5.27879e-05 -6.29416e-05 -5.1451e-05)
(-4.91771e-05 -1.50419e-05 -1.98318e-06)
(-7.66596e-05 -1.63539e-05 4.75846e-05)
(-9.82562e-05 -2.62056e-05 2.62133e-05)
(-7.79681e-05 -1.26267e-05 4.31537e-06)
(-7.35351e-05 -2.42383e-05 4.99351e-05)
(-6.30854e-05 -3.05091e-05 -7.02684e-05)
(-9.7235e-05 -3.02324e-05 5.16778e-05)
(-3.83446e-05 -3.56972e-05 -4.63998e-05)
(-0.000159477 -5.51498e-05 -4.82862e-05)
(-5.24973e-05 6.39688e-06 -0.000127325)
(-8.25547e-05 4.38346e-05 -1.5692e-05)
(-6.9866e-05 -1.99402e-05 1.13825e-05)
(-2.48991e-06 -3.08603e-05 -1.27094e-06)
(-8.74614e-05 -4.35332e-05 -7.81494e-06)
(-1.90971e-05 -5.82838e-05 -6.64889e-05)
(-7.7813e-06 5.75021e-05 -2.54289e-05)
(-0.00010855 4.50276e-05 7.63763e-06)
(-8.94474e-05 -2.14584e-05 -8.47144e-06)
(-0.000163645 -5.57409e-05 6.82407e-05)
(-1.27354e-05 -9.64328e-05 6.92743e-05)
(-9.661e-05 -0.000101296 -1.87498e-05)
(-0.000127108 -5.78033e-05 3.68852e-05)
(-0.000121254 -5.84049e-05 -0.000102231)
(-9.80414e-05 -4.12774e-05 -7.44377e-05)
(-2.06615e-05 5.99045e-05 -4.91053e-05)
(-5.7167e-05 6.07211e-05 -5.96159e-05)
(-6.32368e-05 8.0112e-05 -8.72766e-06)
(-5.11762e-05 3.05568e-05 -4.48013e-05)
(-2.37778e-05 -4.07163e-05 9.62942e-05)
(-0.000119416 4.29657e-06 -1.21038e-05)
(-0.000136289 5.21901e-05 7.6315e-05)
(3.82189e-05 -6.22203e-05 -6.27793e-06)
(5.74319e-05 6.43653e-05 3.81999e-05)
(-6.69405e-05 2.85806e-05 -2.09065e-05)
(-9.19241e-05 -5.36868e-05 -9.92788e-07)
(3.09037e-05 -2.19341e-05 -2.53072e-05)
(-4.65818e-05 9.74344e-05 2.18012e-05)
(-8.09935e-05 -0.000105708 1.15549e-05)
(-6.8199e-05 -3.73724e-05 1.17465e-05)
(-0.000100755 2.05334e-05 -4.22401e-05)
(-1.6183e-05 6.34801e-05 -1.93876e-06)
(-7.07609e-06 -3.83018e-05 3.18154e-05)
(-8.05945e-05 2.68768e-05 2.78782e-05)
(-9.80654e-05 -1.22009e-05 8.67812e-05)
(-7.23471e-05 3.06606e-05 -3.95981e-05)
(-7.0698e-05 -2.02415e-05 9.66744e-06)
(-1.75435e-05 -3.39531e-05 -1.9964e-05)
(-9.69267e-05 1.93552e-05 2.75702e-05)
(-7.71432e-05 -1.15535e-05 -4.47057e-05)
(-5.29247e-05 -7.41645e-07 3.52916e-05)
(-5.5772e-06 2.44092e-05 -2.36178e-05)
(-6.35491e-05 -0.000139529 -5.11937e-06)
(-4.23264e-05 -1.79785e-05 -3.81006e-05)
(-0.000137471 7.78121e-05 -5.04201e-05)
(-8.17726e-06 4.40016e-05 7.51726e-05)
(-3.07733e-05 4.17383e-05 -7.1878e-05)
(-0.000109658 1.06599e-05 -6.32884e-05)
(-5.75991e-05 -0.000123153 -1.98058e-05)
(-1.25292e-05 7.49584e-05 -3.51569e-05)
(-9.05558e-05 3.85197e-05 -1.81306e-05)
(-5.24958e-05 3.75187e-05 -7.23266e-05)
(-0.000129074 1.52866e-05 -1.05224e-05)
(-8.68446e-05 0.000119619 3.31013e-05)
(-4.6852e-06 6.94554e-06 1.71749e-05)
(-9.09664e-05 -3.10192e-05 9.49164e-06)
(-0.000120099 -1.75817e-05 1.18345e-05)
(-6.02822e-05 5.14383e-06 -2.02218e-05)
(9.66169e-06 -1.30299e-05 9.64501e-06)
(6.85043e-06 -4.08861e-05 5.20557e-06)
(-2.7574e-05 -8.00436e-06 -4.74581e-05)
(-5.58855e-05 2.64479e-06 -4.57314e-05)
(-0.000103051 -9.10863e-06 -5.00556e-05)
(-9.4743e-06 1.06767e-06 5.70055e-06)
(-5.96883e-05 -1.14141e-05 -2.47886e-05)
(-5.01173e-06 1.69595e-05 2.73557e-05)
(-4.17249e-05 5.76174e-05 -1.18367e-06)
(-6.22997e-05 -6.25017e-05 -4.20306e-05)
(-8.66125e-05 -7.24065e-05 1.34398e-05)
(-8.2081e-05 -5.42614e-05 -2.67134e-05)
(-9.78203e-05 -1.67583e-05 2.44817e-05)
(-7.76293e-05 -5.15377e-05 -2.60111e-05)
(-2.84917e-05 3.00636e-05 -2.01382e-05)
(-1.79297e-05 6.37128e-05 -1.66022e-05)
(-8.55757e-05 -4.74644e-06 2.03666e-05)
(-1.51286e-05 -5.87666e-05 3.07964e-05)
(-4.49838e-05 -7.0921e-05 -8.37584e-05)
(-2.89351e-05 -3.29466e-05 8.46738e-05)
(-5.69981e-05 -6.48628e-05 -1.47582e-05)
(2.32629e-05 0.000111208 -2.39001e-05)
(-8.02032e-05 3.89356e-05 6.16765e-05)
(-5.66277e-05 -8.36673e-06 -7.07633e-05)
(4.14194e-05 -8.44472e-06 -5.86089e-05)
(-6.5008e-05 2.79855e-05 3.17507e-05)
(-2.03386e-05 0.000101584 -5.01436e-05)
(-3.03805e-05 -5.12388e-05 2.27403e-05)
(-6.87153e-05 -4.30215e-05 4.7449e-05)
(7.72222e-06 2.79127e-05 2.03594e-05)
(-4.14869e-05 3.16528e-05 3.999e-05)
(-1.49587e-05 8.49485e-05 -1.68736e-05)
(-5.80194e-05 1.85214e-05 -5.24091e-05)
(5.79539e-06 7.75824e-05 -8.06295e-05)
(-5.14661e-05 -6.95321e-05 -5.37532e-06)
(-2.13072e-05 -9.79534e-06 5.48909e-06)
(-6.64526e-05 -2.06656e-05 6.9386e-05)
(-0.000124545 7.08316e-05 6.1239e-05)
(-9.10396e-07 1.55209e-05 3.23893e-05)
(-7.81969e-05 1.24514e-05 2.76465e-05)
(-2.44891e-05 -5.90477e-05 -2.23082e-06)
(-2.0643e-05 3.57844e-05 -5.74223e-05)
(-0.000103812 -4.39762e-05 -7.3465e-05)
(-1.74725e-05 2.17473e-05 3.00235e-05)
(-4.62892e-05 -4.18351e-05 -1.13703e-05)
(-3.76457e-05 -4.2291e-05 1.82808e-05)
(-3.06083e-05 -5.63359e-05 -6.82125e-05)
(-6.95121e-05 4.08951e-06 7.80539e-05)
(-0.000152553 -2.4418e-05 -5.67498e-05)
(-2.51794e-05 3.67522e-05 -7.85873e-05)
(-6.68412e-05 6.95797e-05 -5.04751e-06)
(-7.72861e-05 -1.43761e-05 -4.55738e-06)
(-2.4686e-05 -5.09981e-05 8.71576e-05)
(-9.78773e-05 2.23653e-05 -1.15731e-05)
(-2.49782e-05 -5.33908e-05 -1.28498e-05)
(1.61462e-05 1.32549e-05 -5.03782e-05)
(-0.00010118 8.59879e-05 -1.21588e-05)
(-0.000128497 -2.64058e-06 9.28358e-05)
(-3.65267e-05 1.16821e-05 -6.82953e-05)
(1.39897e-05 -4.24723e-06 1.56985e-05)
(-4.66991e-05 -9.45843e-06 -1.9272e-05)
(-1.12392e-05 -5.14305e-05 6.00359e-05)
(-9.68998e-05 7.58585e-05 7.12365e-05)
(-5.43514e-05 -3.8289e-05 -9.81023e-06)
(-9.20463e-05 2.15761e-05 -3.27144e-06)
(-1.29201e-05 3.9579e-05 7.76161e-06)
(-2.47993e-06 2.26603e-05 -5.31273e-05)
(-3.95408e-05 -2.97509e-05 2.67838e-05)
(1.48507e-06 1.72866e-05 7.60368e-06)
(-4.95506e-05 8.21336e-05 6.56586e-05)
(4.69014e-05 -2.44508e-05 -5.09138e-05)
(-0.000120405 -1.84153e-05 3.74934e-05)
(9.68386e-07 -6.66221e-05 -2.01611e-05)
(-1.5651e-05 -2.69858e-05 4.86362e-05)
(-4.96399e-05 3.40207e-05 3.35516e-05)
(2.50383e-05 1.03865e-06 4.13146e-05)
(-3.16018e-06 -2.51164e-05 8.53179e-06)
(-5.09454e-05 -5.61709e-06 1.35277e-05)
(-1.53454e-05 0.000119839 -3.56349e-05)
(-8.51205e-05 6.46481e-05 8.2566e-05)
(2.83759e-05 -5.44467e-05 -7.66265e-06)
(1.42182e-05 2.55275e-06 2.23409e-06)
(-5.27813e-06 -2.90369e-05 -3.56546e-05)
(7.16283e-06 2.35236e-05 3.4442e-05)
(2.36131e-05 -6.96317e-06 3.6298e-07)
(-4.19911e-06 -5.36769e-07 6.46362e-05)
(-8.30145e-05 1.94409e-05 -6.05983e-05)
(3.57085e-05 -1.05629e-05 -2.68375e-05)
(-4.05994e-05 6.53951e-05 -4.67337e-05)
(1.60796e-05 -5.84025e-05 5.58691e-05)
(-8.36114e-05 2.17211e-06 6.45858e-05)
(-4.81223e-05 3.95122e-05 -3.90159e-05)
(-8.31576e-05 -6.34064e-06 -3.14047e-05)
(-4.39144e-05 5.0268e-05 -1.42154e-07)
(-8.33491e-06 5.09102e-05 -3.93557e-05)
(-5.78584e-05 -5.48152e-05 2.42904e-05)
(1.82544e-05 -2.59495e-05 -4.15741e-05)
(-3.70325e-05 -3.88597e-05 -2.4004e-05)
(-1.17118e-05 -3.42325e-05 8.71571e-06)
(-3.94778e-05 0.000135096 -4.05966e-05)
(1.04954e-05 -3.78238e-05 -7.1994e-05)
(-8.44643e-06 -3.93262e-06 2.79487e-05)
(-6.69095e-05 -1.09991e-05 -2.64038e-05)
(5.54061e-05 -3.23217e-05 -8.83787e-06)
(-8.41428e-05 -1.60671e-05 -2.11084e-06)
(1.16868e-05 4.16923e-05 -4.09333e-05)
(-5.08129e-05 -1.8554e-05 5.25891e-06)
(-4.56548e-05 -1.01328e-05 1.2519e-05)
(1.55473e-06 -4.93204e-05 3.7419e-05)
(1.8597e-05 2.21472e-05 6.87297e-05)
(8.54516e-05 -3.66518e-05 -4.39695e-05)
(-5.23485e-05 1.99147e-05 1.29807e-05)
(3.63797e-05 -2.22821e-05 6.21693e-05)
(-5.35838e-05 6.13621e-05 2.23041e-05)
(6.86248e-05 -3.91737e-05 -2.91179e-05)
(-3.5299e-05 6.07355e-05 5.39745e-05)
(-1.17723e-05 3.70252e-05 6.14104e-05)
(-3.81533e-05 -1.90723e-05 -4.42992e-05)
(5.23154e-05 5.72863e-05 -1.36546e-05)
(-2.77777e-05 -3.21659e-05 -8.07345e-05)
(3.56503e-05 -3.47938e-05 -6.89068e-05)
(0.000119728 -3.92926e-05 -9.7314e-06)
(-0.000102984 1.21744e-05 1.79124e-06)
(-0.000100382 -7.45641e-05 0.000122697)
(-2.03562e-05 3.95698e-05 1.66393e-05)
(5.99406e-05 -1.24694e-05 2.89495e-05)
(1.04072e-06 1.97068e-05 1.91931e-05)
(-2.56542e-06 -2.9194e-06 4.03833e-05)
(4.98708e-05 -3.66197e-05 -2.20518e-05)
(-2.84775e-05 -1.6324e-05 1.27454e-05)
(-6.84632e-05 -3.51638e-05 -1.31102e-05)
)
;

boundaryField
{
    sides
    {
        type            symmetry;
    }
    empty
    {
        type            empty;
    }
    procBoundary3to2
    {
        type            processor;
        value           uniform (-7.47741e-05 -1.70236e-05 1.20743e-05);
    }
}


// ************************************************************************* //
