/*--------------------------------*- C++ -*----------------------------------*\
  =========                 |
  \\      /  F ield         | OpenFOAM: The Open Source CFD Toolbox
   \\    /   O peration     | Website:  https://openfoam.org
    \\  /    A nd           | Version:  7
     \\/     M anipulation  |
\*---------------------------------------------------------------------------*/
FoamFile
{
    version     2.0;
    format      ascii;
    class       volScalarField;
    location    "0.0225";
    object      rhoN;
}
// * * * * * * * * * * * * * * * * * * * * * * * * * * * * * * * * * * * * * //

dimensions      [0 -3 0 0 0 0 0];

internalField   nonuniform List<scalar> 
250
(
1.5075e+20
1.6185e+20
1.602e+20
1.59e+20
1.5555e+20
1.5015e+20
1.548e+20
1.5645e+20
1.563e+20
1.611e+20
1.4925e+20
1.4985e+20
1.4775e+20
1.5255e+20
1.5885e+20
1.503e+20
1.581e+20
1.5375e+20
1.5465e+20
1.4595e+20
1.5345e+20
1.623e+20
1.5315e+20
1.5675e+20
1.5525e+20
1.4835e+20
1.545e+20
1.593e+20
1.539e+20
1.5885e+20
1.5e+20
1.4835e+20
1.5855e+20
1.5255e+20
1.596e+20
1.5405e+20
1.5645e+20
1.4805e+20
1.4445e+20
1.5e+20
1.5315e+20
1.455e+20
1.4985e+20
1.4505e+20
1.5705e+20
1.5525e+20
1.5405e+20
1.5375e+20
1.584e+20
1.5135e+20
1.5405e+20
1.5135e+20
1.59e+20
1.536e+20
1.491e+20
1.4505e+20
1.5555e+20
1.5045e+20
1.6485e+20
1.548e+20
1.446e+20
1.437e+20
1.485e+20
1.5735e+20
1.5075e+20
1.6005e+20
1.4865e+20
1.5045e+20
1.5735e+20
1.536e+20
1.4805e+20
1.5075e+20
1.521e+20
1.6275e+20
1.488e+20
1.557e+20
1.509e+20
1.521e+20
1.536e+20
1.5555e+20
1.4985e+20
1.506e+20
1.4775e+20
1.5645e+20
1.4745e+20
1.5105e+20
1.5195e+20
1.5105e+20
1.5165e+20
1.476e+20
1.4775e+20
1.473e+20
1.518e+20
1.488e+20
1.5615e+20
1.392e+20
1.4385e+20
1.458e+20
1.4955e+20
1.518e+20
1.5285e+20
1.4655e+20
1.473e+20
1.515e+20
1.584e+20
1.5405e+20
1.3695e+20
1.5045e+20
1.455e+20
1.452e+20
1.5255e+20
1.47e+20
1.479e+20
1.5555e+20
1.428e+20
1.47e+20
1.4835e+20
1.509e+20
1.5555e+20
1.491e+20
1.4685e+20
1.3935e+20
1.524e+20
1.458e+20
1.4985e+20
1.407e+20
1.443e+20
1.371e+20
1.413e+20
1.4745e+20
1.536e+20
1.4655e+20
1.4565e+20
1.4745e+20
1.422e+20
1.4925e+20
1.4895e+20
1.476e+20
1.4685e+20
1.446e+20
1.5255e+20
1.542e+20
1.4565e+20
1.4385e+20
1.4895e+20
1.497e+20
1.4595e+20
1.4625e+20
1.479e+20
1.431e+20
1.4325e+20
1.4445e+20
1.515e+20
1.4595e+20
1.596e+20
1.4805e+20
1.5e+20
1.5435e+20
1.425e+20
1.446e+20
1.4745e+20
1.5135e+20
1.476e+20
1.494e+20
1.3935e+20
1.497e+20
1.437e+20
1.4235e+20
1.4595e+20
1.4205e+20
1.419e+20
1.443e+20
1.4625e+20
1.467e+20
1.4925e+20
1.461e+20
1.401e+20
1.4535e+20
1.4055e+20
1.464e+20
1.3995e+20
1.401e+20
1.4115e+20
1.524e+20
1.4445e+20
1.467e+20
1.4535e+20
1.5555e+20
1.464e+20
1.416e+20
1.4475e+20
1.437e+20
1.4595e+20
1.3935e+20
1.413e+20
1.4655e+20
1.5285e+20
1.4955e+20
1.4475e+20
1.503e+20
1.446e+20
1.4745e+20
1.44e+20
1.407e+20
1.545e+20
1.413e+20
1.4475e+20
1.473e+20
1.503e+20
1.4955e+20
1.491e+20
1.5465e+20
1.392e+20
1.527e+20
1.503e+20
1.467e+20
1.4595e+20
1.3365e+20
1.413e+20
1.497e+20
1.482e+20
1.4175e+20
1.4715e+20
1.4925e+20
1.461e+20
1.4835e+20
1.404e+20
1.497e+20
1.473e+20
1.4835e+20
1.4295e+20
1.4205e+20
1.416e+20
1.461e+20
1.5015e+20
1.488e+20
1.5225e+20
1.413e+20
1.506e+20
1.473e+20
1.5075e+20
1.452e+20
1.4385e+20
1.449e+20
1.4385e+20
1.5105e+20
1.38e+20
1.446e+20
1.4085e+20
1.4655e+20
)
;

boundaryField
{
    sides
    {
        type            symmetry;
    }
    empty
    {
        type            empty;
    }
    procBoundary3to2
    {
        type            processor;
        value           uniform 1.542e+20;
    }
}


// ************************************************************************* //
