/*--------------------------------*- C++ -*----------------------------------*\
  =========                 |
  \\      /  F ield         | OpenFOAM: The Open Source CFD Toolbox
   \\    /   O peration     | Website:  https://openfoam.org
    \\  /    A nd           | Version:  7
     \\/     M anipulation  |
\*---------------------------------------------------------------------------*/
FoamFile
{
    version     2.0;
    format      ascii;
    class       volScalarField;
    location    "0.0125";
    object      iDof;
}
// * * * * * * * * * * * * * * * * * * * * * * * * * * * * * * * * * * * * * //

dimensions      [0 -3 0 0 0 0 0];

internalField   nonuniform List<scalar> 
250
(
2.808e+20
2.607e+20
2.76e+20
2.643e+20
2.691e+20
2.829e+20
2.691e+20
2.931e+20
2.727e+20
2.82e+20
2.778e+20
2.955e+20
2.877e+20
2.682e+20
2.775e+20
2.667e+20
2.853e+20
2.742e+20
2.73e+20
2.808e+20
2.748e+20
2.82e+20
2.742e+20
2.568e+20
2.7e+20
2.895e+20
2.736e+20
2.688e+20
2.829e+20
2.673e+20
2.712e+20
2.814e+20
2.787e+20
2.712e+20
2.703e+20
2.745e+20
2.754e+20
2.73e+20
2.697e+20
2.82e+20
2.76e+20
2.658e+20
2.778e+20
2.658e+20
2.745e+20
2.781e+20
2.673e+20
2.799e+20
2.484e+20
2.832e+20
2.541e+20
2.745e+20
2.754e+20
2.802e+20
2.721e+20
2.625e+20
2.706e+20
2.655e+20
2.703e+20
2.556e+20
2.835e+20
2.697e+20
2.514e+20
2.577e+20
2.658e+20
2.877e+20
2.688e+20
2.745e+20
2.598e+20
2.664e+20
2.733e+20
2.58e+20
2.724e+20
2.772e+20
2.763e+20
2.631e+20
2.664e+20
2.802e+20
2.583e+20
2.562e+20
2.706e+20
2.634e+20
2.562e+20
2.589e+20
2.655e+20
2.625e+20
2.52e+20
2.532e+20
2.58e+20
2.64e+20
2.577e+20
2.559e+20
2.769e+20
2.658e+20
2.634e+20
2.712e+20
2.529e+20
2.508e+20
2.463e+20
2.505e+20
2.55e+20
2.526e+20
2.64e+20
2.709e+20
2.484e+20
2.535e+20
2.715e+20
2.64e+20
2.427e+20
2.634e+20
2.712e+20
2.397e+20
2.607e+20
2.547e+20
2.538e+20
2.481e+20
2.358e+20
2.745e+20
2.601e+20
2.694e+20
2.574e+20
2.523e+20
2.505e+20
2.49e+20
2.586e+20
2.703e+20
2.601e+20
2.604e+20
2.718e+20
2.658e+20
2.604e+20
2.529e+20
2.532e+20
2.568e+20
2.538e+20
2.589e+20
2.379e+20
2.535e+20
2.697e+20
2.697e+20
2.583e+20
2.511e+20
2.547e+20
2.73e+20
2.667e+20
2.604e+20
2.73e+20
2.637e+20
2.406e+20
2.526e+20
2.67e+20
2.73e+20
2.613e+20
2.478e+20
2.661e+20
2.607e+20
2.616e+20
2.487e+20
2.58e+20
2.631e+20
2.544e+20
2.706e+20
2.544e+20
2.535e+20
2.556e+20
2.634e+20
2.562e+20
2.565e+20
2.607e+20
2.592e+20
2.622e+20
2.604e+20
2.535e+20
2.61e+20
2.613e+20
2.541e+20
2.55e+20
2.604e+20
2.574e+20
2.649e+20
2.511e+20
2.625e+20
2.595e+20
2.541e+20
2.355e+20
2.703e+20
2.529e+20
2.556e+20
2.688e+20
2.565e+20
2.613e+20
2.61e+20
2.556e+20
2.55e+20
2.703e+20
2.583e+20
2.562e+20
2.526e+20
2.805e+20
2.721e+20
2.748e+20
2.502e+20
2.637e+20
2.703e+20
2.829e+20
2.667e+20
2.607e+20
2.595e+20
2.619e+20
2.469e+20
2.649e+20
2.721e+20
2.73e+20
2.385e+20
2.562e+20
2.763e+20
2.577e+20
2.787e+20
2.727e+20
2.766e+20
2.688e+20
2.658e+20
2.661e+20
2.793e+20
2.664e+20
2.925e+20
2.559e+20
2.748e+20
2.727e+20
2.817e+20
2.772e+20
2.844e+20
2.733e+20
2.634e+20
2.697e+20
2.826e+20
2.865e+20
2.757e+20
2.667e+20
2.847e+20
2.907e+20
2.853e+20
2.724e+20
2.889e+20
2.796e+20
2.796e+20
2.784e+20
2.967e+20
2.805e+20
2.82e+20
)
;

boundaryField
{
    sides
    {
        type            symmetry;
    }
    empty
    {
        type            empty;
    }
    procBoundary2to1
    {
        type            processor;
        value           uniform 2.793e+20;
    }
    procBoundary2to3
    {
        type            processor;
        value           uniform 2.706e+20;
    }
}


// ************************************************************************* //
