/*--------------------------------*- C++ -*----------------------------------*\
  =========                 |
  \\      /  F ield         | OpenFOAM: The Open Source CFD Toolbox
   \\    /   O peration     | Website:  https://openfoam.org
    \\  /    A nd           | Version:  7
     \\/     M anipulation  |
\*---------------------------------------------------------------------------*/
FoamFile
{
    version     2.0;
    format      ascii;
    class       scalarField;
    location    "0.0225/lagrangian/dsmc";
    object      Ei;
}
// * * * * * * * * * * * * * * * * * * * * * * * * * * * * * * * * * * * * * //


248333
(
8.8664e-21
1.53391e-21
1.30086e-21
3.59252e-22
1.51484e-23
1.18003e-21
2.30371e-21
1.23507e-21
2.52145e-21
6.50968e-22
1.80389e-21
5.09053e-21
4.24723e-22
6.5541e-21
5.13843e-22
1.06683e-21
1.91287e-21
5.12344e-22
2.52067e-22
8.54787e-22
1.90245e-21
2.11101e-21
4.20444e-23
1.73649e-21
1.56999e-21
2.52539e-21
4.70162e-22
5.23926e-21
2.56144e-21
8.73573e-23
1.07538e-21
1.30702e-21
1.50545e-21
7.22669e-22
6.0493e-22
1.14491e-22
3.83984e-21
3.89648e-21
2.17154e-21
3.78523e-21
5.32951e-21
3.03652e-22
3.85633e-21
3.17723e-22
5.32038e-23
1.01506e-20
1.3354e-22
4.4035e-21
4.03174e-21
1.73686e-21
7.33706e-22
1.54453e-21
3.92228e-21
1.08188e-21
5.93945e-21
5.15418e-21
2.42533e-21
2.22076e-21
5.98079e-22
2.04323e-21
1.99107e-21
1.93633e-21
1.15232e-21
1.60128e-21
2.15074e-21
6.41129e-23
3.22321e-21
2.86735e-22
9.05591e-22
4.89014e-21
3.18499e-21
1.84437e-21
2.77795e-21
8.99965e-22
1.29235e-21
1.02292e-22
5.88007e-21
6.9481e-22
5.22746e-22
1.04193e-21
8.16454e-22
3.6209e-21
6.49011e-22
3.21421e-21
8.64587e-22
3.96348e-23
6.39586e-21
1.09397e-21
3.07997e-21
1.63751e-21
2.50944e-21
9.29986e-21
3.72774e-23
2.40182e-21
9.59952e-21
1.96734e-21
9.55964e-22
2.50929e-21
1.4229e-21
8.78101e-22
1.28719e-21
1.2175e-21
6.93435e-22
6.87084e-22
3.98573e-22
1.88156e-22
3.09109e-21
1.82171e-21
4.92484e-22
7.74082e-22
1.03156e-21
4.39119e-21
2.35005e-21
1.39793e-22
1.42006e-21
4.27624e-21
8.83997e-22
1.94931e-21
3.52837e-21
5.15973e-21
5.53689e-21
1.51361e-21
2.66827e-21
2.13755e-22
1.09066e-21
2.782e-22
2.65005e-22
1.84973e-21
1.36857e-21
1.515e-21
4.56945e-21
7.86226e-22
2.56032e-21
5.4548e-22
1.36382e-21
6.00534e-22
4.0747e-21
4.64026e-21
4.60999e-21
1.34432e-21
2.08584e-21
1.52742e-21
6.39894e-21
3.43382e-21
2.4431e-21
3.5702e-21
2.50248e-21
1.74619e-21
8.51803e-21
6.85768e-21
7.22688e-23
2.20737e-21
2.71082e-21
9.53659e-22
3.63806e-22
1.02858e-20
3.88258e-23
1.68492e-21
4.84644e-21
4.49951e-22
7.28683e-21
4.28059e-21
4.63599e-21
2.30537e-21
1.18699e-21
2.55655e-21
2.62112e-23
4.2392e-22
6.85609e-23
1.41196e-21
2.28173e-22
4.04695e-21
8.97635e-22
3.31478e-21
1.08404e-21
6.31214e-22
1.0405e-20
4.6562e-21
1.56268e-22
1.11603e-22
7.35738e-23
3.63245e-21
3.45181e-22
4.66142e-21
6.74379e-22
5.3378e-22
3.29445e-23
2.55076e-21
6.61631e-21
1.74972e-21
5.05762e-23
2.82116e-25
1.41685e-20
3.00783e-21
2.27182e-21
1.07645e-21
8.92912e-22
4.39909e-21
6.45447e-21
9.47375e-22
6.27348e-21
4.37842e-21
1.03648e-21
2.93988e-22
2.20154e-21
3.87481e-21
3.87567e-22
1.51393e-23
1.67508e-21
1.5381e-23
2.54502e-22
8.27989e-22
4.40693e-21
4.28944e-21
3.2462e-21
2.81109e-22
5.0783e-22
1.27285e-22
3.01663e-21
2.29204e-21
5.55862e-23
1.13174e-21
2.05777e-22
2.84956e-21
2.54432e-21
2.71592e-21
3.09826e-21
1.95876e-21
4.6441e-21
2.81347e-21
1.73873e-21
4.7977e-21
3.57864e-21
5.35182e-21
1.35012e-21
4.46906e-22
8.73142e-21
5.93229e-21
1.29748e-21
7.45653e-22
5.47436e-23
1.72389e-21
4.10275e-21
4.28023e-22
3.07134e-21
4.76946e-22
7.70795e-22
8.84742e-21
2.71128e-22
4.14073e-21
5.5122e-22
2.7994e-21
7.2016e-21
7.36856e-22
3.16737e-21
1.59007e-21
4.84581e-21
1.57358e-21
6.1007e-23
1.97857e-21
1.91526e-21
2.1757e-22
7.79451e-22
1.17325e-20
9.75147e-22
1.68236e-21
2.00551e-21
3.5953e-22
2.70967e-22
1.94805e-21
4.20047e-23
3.01841e-21
1.18515e-22
1.239e-22
2.06918e-21
9.1909e-22
8.9885e-22
1.28299e-21
1.869e-21
3.85389e-21
9.60153e-23
1.49686e-21
6.00017e-21
1.83903e-21
6.22834e-22
2.77923e-21
6.7875e-21
5.00901e-21
4.73666e-21
5.61725e-22
2.85172e-21
1.84749e-21
6.4214e-22
2.83378e-21
1.17338e-21
4.49755e-21
1.73117e-21
3.96835e-22
2.81878e-21
3.15861e-22
1.71538e-21
5.24621e-21
2.87415e-21
1.95832e-21
4.07848e-21
8.26888e-21
1.41416e-21
5.16971e-22
1.53475e-21
2.73859e-21
6.92078e-21
5.4229e-21
2.03352e-21
3.88346e-21
4.36237e-21
1.96387e-21
1.47769e-21
3.45137e-21
2.36999e-21
1.90004e-21
7.46963e-21
1.36025e-21
4.29203e-21
1.22153e-22
1.34613e-21
2.44272e-21
5.33005e-21
5.11489e-21
1.08111e-21
3.02794e-21
1.00599e-21
1.89811e-22
4.19837e-22
4.16755e-21
1.55198e-21
2.73286e-21
3.58132e-23
3.1602e-21
1.95358e-21
1.59639e-21
5.75442e-22
7.76447e-21
7.03695e-22
2.37576e-21
3.43424e-22
1.70704e-21
1.50896e-21
6.45248e-22
1.04985e-21
4.79697e-22
1.36959e-21
9.63979e-22
3.50313e-21
5.68331e-21
1.20709e-21
1.35159e-22
2.01863e-22
3.95513e-21
1.42732e-22
2.26229e-22
1.49438e-21
4.16411e-21
3.31726e-22
2.97346e-21
1.20068e-22
5.60727e-21
4.38353e-22
3.99497e-22
3.81844e-22
2.19515e-22
3.49347e-21
4.68159e-21
5.9717e-22
1.63493e-21
1.05574e-21
1.33948e-21
2.33631e-21
3.14368e-21
6.3362e-22
1.77095e-22
2.31364e-22
1.5608e-22
1.96105e-21
2.48626e-21
2.8703e-21
2.86934e-21
8.6895e-23
6.54104e-21
8.60666e-22
1.34337e-21
4.21597e-22
1.48117e-21
3.55454e-22
4.77947e-23
5.6506e-21
4.99352e-21
3.57071e-21
3.29353e-21
9.1507e-22
3.3886e-21
4.20727e-21
1.70744e-22
2.13507e-21
3.56996e-21
2.9472e-21
1.16858e-21
3.58427e-21
1.92354e-21
3.13255e-22
3.61327e-21
9.68565e-21
4.85258e-21
1.33871e-21
6.63874e-22
1.87258e-22
1.63274e-21
1.17471e-21
5.3415e-21
1.01075e-21
1.87001e-21
1.55299e-21
2.09301e-21
3.96774e-21
4.05401e-21
1.1395e-21
1.82038e-21
1.33209e-21
6.11653e-21
1.16004e-21
1.26626e-21
1.78741e-21
1.57909e-21
4.25447e-21
1.3982e-21
6.72353e-22
5.84414e-21
2.0626e-22
2.62364e-21
3.902e-22
9.99671e-22
2.26802e-24
4.23049e-22
2.24142e-21
2.20727e-21
2.90582e-22
9.78949e-22
7.7796e-22
5.76899e-21
6.4688e-21
3.64072e-21
1.82064e-21
4.02863e-21
1.52873e-21
1.16266e-22
7.0502e-22
3.69406e-21
1.12937e-21
9.52199e-22
3.77354e-22
2.657e-21
8.18312e-22
2.36978e-21
4.43352e-22
2.24811e-21
4.24914e-22
2.22187e-21
2.3755e-21
3.7401e-21
2.52585e-21
2.26688e-21
6.94473e-23
6.44426e-22
1.75323e-21
3.07293e-22
1.86133e-21
1.78162e-22
7.82244e-22
7.67926e-22
3.87258e-22
5.62993e-22
8.90132e-22
6.17482e-22
2.12752e-21
3.11539e-23
3.74467e-21
1.95938e-22
1.74391e-21
1.31726e-21
1.212e-21
3.82475e-22
9.27154e-22
3.22472e-22
4.34015e-21
2.42779e-21
3.24006e-21
1.67469e-22
2.87676e-22
2.4649e-22
1.16065e-21
7.201e-21
3.03579e-21
6.40481e-23
2.82654e-22
1.50496e-21
1.9877e-21
9.23605e-23
2.60668e-21
5.80665e-21
2.50305e-22
4.88223e-22
5.32822e-21
9.19562e-22
6.68236e-21
3.53069e-21
6.49825e-21
4.05655e-21
3.08419e-21
2.58454e-22
3.69815e-21
1.62793e-21
2.8828e-21
3.57803e-22
4.2237e-22
1.79402e-21
5.39758e-21
1.03762e-22
6.24174e-22
6.08674e-21
9.24323e-22
1.51077e-23
1.11129e-21
4.6817e-22
3.15168e-21
4.32856e-21
7.45701e-23
4.25988e-22
2.85263e-21
1.90144e-22
6.04625e-22
1.57455e-21
1.14206e-21
8.78712e-22
3.93011e-22
4.10421e-21
1.82127e-22
7.95094e-21
1.21383e-21
2.34912e-21
8.04359e-23
5.44658e-21
1.19619e-21
1.70766e-21
6.94638e-22
2.82763e-21
3.42781e-21
3.03322e-22
4.89729e-22
6.72008e-21
6.83452e-24
6.59445e-21
9.15964e-22
1.86267e-21
1.6699e-21
8.61134e-21
9.50991e-23
3.16679e-21
1.33487e-21
8.19721e-22
3.51705e-21
4.15961e-21
1.19266e-21
1.01417e-21
7.46929e-21
1.04556e-21
7.04473e-22
2.59184e-22
2.46701e-21
5.06993e-21
1.34715e-21
1.79781e-21
2.52833e-21
1.8197e-22
3.67708e-21
1.18757e-21
5.97807e-22
1.83315e-21
9.76213e-22
2.85713e-21
5.70961e-22
7.24773e-21
2.3281e-21
9.55453e-22
1.09614e-21
1.15184e-21
4.35602e-21
4.25617e-21
7.93527e-23
1.65596e-21
1.77927e-21
1.00006e-21
2.13233e-22
6.99494e-23
1.90424e-21
6.46514e-21
6.1942e-22
3.74238e-23
1.79108e-21
3.34778e-21
3.03024e-21
5.73743e-21
4.97965e-22
4.79522e-21
1.40369e-21
1.12942e-21
5.72377e-21
4.44881e-22
1.4123e-22
6.17909e-21
1.38081e-22
1.12532e-21
2.21528e-22
4.48256e-21
3.49141e-21
1.1753e-21
1.75563e-21
2.47911e-21
8.73265e-22
6.73726e-21
8.96619e-22
1.9643e-21
1.69072e-21
2.03359e-22
4.39309e-21
3.30209e-21
4.41973e-23
5.17714e-22
2.04122e-22
4.80497e-22
8.80842e-21
4.60329e-21
4.29308e-22
3.0351e-21
8.43565e-21
1.89762e-21
4.36965e-22
5.35447e-22
1.92368e-21
1.89907e-21
1.55324e-23
2.505e-22
3.16685e-21
5.81824e-21
1.04773e-21
7.26719e-23
4.29931e-21
4.65386e-22
4.12409e-21
3.70917e-22
3.7017e-21
2.98579e-21
2.98279e-22
2.48546e-22
1.56995e-21
8.4688e-22
2.23974e-21
2.17702e-22
2.9911e-21
5.71195e-22
9.73232e-22
6.8391e-21
2.98762e-21
1.28794e-22
1.27539e-21
9.95733e-22
8.88192e-22
3.80038e-21
9.45231e-22
3.28302e-21
7.09969e-21
1.28964e-21
1.99329e-21
3.55897e-21
6.27251e-22
4.24715e-23
6.47186e-22
1.04835e-21
2.57363e-22
7.99159e-21
1.04211e-22
7.58937e-22
6.51768e-22
2.12293e-21
1.19433e-22
6.94275e-22
1.74153e-21
3.00395e-23
7.80753e-22
1.18605e-21
8.78704e-21
4.2777e-21
1.43179e-21
1.23401e-21
3.80384e-21
2.08725e-21
4.25683e-21
1.3264e-21
3.96161e-22
3.93718e-21
7.34859e-22
5.63868e-22
3.85181e-22
3.21003e-21
1.16135e-22
1.64028e-22
4.50186e-22
7.22194e-23
5.82879e-22
3.83603e-21
2.56206e-21
4.82393e-22
1.06979e-21
5.8294e-22
9.79817e-22
3.5591e-22
2.07271e-22
2.7731e-21
8.7219e-21
9.94589e-22
1.42785e-22
8.2861e-22
2.01615e-21
1.78169e-21
5.2608e-22
2.51201e-21
5.35215e-21
6.30522e-21
8.07075e-22
4.78108e-22
3.19036e-21
2.13659e-21
3.98023e-21
1.23525e-22
5.78188e-21
7.58173e-22
9.67457e-22
1.35698e-21
3.65567e-21
1.19483e-21
1.24712e-21
6.04354e-21
5.44925e-21
4.77125e-22
9.09961e-22
2.32141e-21
5.84289e-21
3.81849e-21
5.64983e-24
2.83759e-21
1.10969e-22
2.08048e-21
1.02143e-21
1.09708e-21
3.29395e-21
1.53536e-21
2.43369e-21
2.64715e-21
1.12637e-20
2.32291e-21
1.26618e-21
7.37445e-22
2.28662e-21
7.80498e-21
3.08878e-21
3.63106e-21
8.19338e-22
2.69791e-21
6.64693e-21
7.48068e-22
1.76728e-21
1.78515e-21
1.9486e-22
2.5099e-21
2.3204e-21
5.03907e-22
1.99388e-22
2.30908e-21
7.68904e-22
1.26943e-21
1.07566e-21
4.45137e-21
1.38286e-22
3.42043e-21
5.80298e-22
9.21618e-22
1.86976e-21
2.00606e-21
8.70626e-22
1.11182e-20
2.01514e-22
6.01742e-21
2.75642e-21
1.1515e-21
2.43616e-21
4.13023e-21
2.01041e-22
1.26422e-21
3.83672e-21
5.89472e-23
8.19118e-22
3.54238e-22
1.12826e-21
5.17292e-23
2.52009e-21
3.17351e-21
3.07914e-22
2.71469e-21
7.18585e-22
1.69557e-22
9.86958e-21
2.66522e-21
4.84035e-22
2.18587e-22
5.46262e-21
8.16456e-22
1.01941e-21
2.50479e-21
5.59865e-21
2.22526e-21
7.2395e-22
2.75384e-22
6.51626e-22
5.63881e-22
2.86453e-21
4.83227e-21
1.92631e-21
2.45916e-21
7.07696e-21
1.07485e-21
4.53218e-21
1.47655e-22
1.62984e-21
6.688e-22
6.30112e-21
4.33252e-22
3.63537e-21
6.20634e-22
3.18975e-21
5.94902e-23
3.60511e-21
2.96863e-21
6.34748e-21
1.27255e-21
2.50544e-21
2.2398e-22
6.60574e-22
1.26355e-21
7.55511e-22
3.55111e-21
3.5042e-21
2.09194e-22
2.13692e-21
3.61883e-21
4.21766e-22
3.87218e-21
4.33638e-21
1.89802e-21
2.32768e-23
2.22062e-21
1.02065e-21
4.8333e-21
1.23418e-21
4.30768e-22
1.92374e-21
1.32561e-21
4.66081e-21
4.75814e-21
3.28423e-21
4.83373e-22
4.98961e-22
5.19886e-22
2.15874e-22
1.92979e-22
2.22572e-21
1.59525e-21
6.63557e-22
2.95741e-21
7.55601e-23
4.73044e-23
8.41959e-23
2.34991e-21
6.5426e-21
4.97983e-22
3.43772e-21
5.89836e-22
3.61406e-21
2.86957e-22
5.97434e-21
2.81333e-22
2.42897e-21
4.74917e-21
1.08458e-21
9.95736e-22
1.57638e-21
7.10922e-22
2.0222e-22
2.2238e-22
1.35342e-21
3.13418e-21
3.0001e-22
4.7073e-22
5.23158e-21
3.00238e-21
1.80796e-21
1.85039e-21
2.17348e-21
1.68246e-21
5.95632e-22
5.5409e-22
6.50109e-21
2.27531e-21
1.10613e-20
8.00273e-22
1.36662e-21
1.21398e-21
8.95586e-22
1.28757e-21
9.38559e-22
2.38961e-21
3.16089e-23
2.30725e-21
2.24978e-21
1.17448e-21
1.29149e-21
1.18133e-21
3.62045e-21
7.3025e-21
3.9796e-21
3.21526e-21
9.07087e-23
8.5334e-21
1.29615e-21
8.72052e-22
4.57066e-22
6.13037e-23
4.22097e-22
1.80162e-22
1.0034e-21
5.48526e-21
6.14239e-22
3.19727e-21
2.00824e-21
3.77689e-22
3.69079e-21
2.31042e-21
4.38412e-21
2.33693e-21
4.22567e-23
1.6768e-21
2.58057e-21
3.5338e-22
7.35804e-22
3.37854e-22
8.03145e-22
5.62667e-21
3.56546e-21
2.16427e-21
1.90146e-21
6.87043e-22
7.51198e-21
2.75693e-22
1.15588e-21
3.14586e-21
9.8309e-21
5.09587e-22
2.86178e-21
1.0788e-21
2.22863e-22
7.08813e-22
3.83145e-21
1.08296e-21
1.33855e-21
2.82713e-21
3.75876e-21
4.81477e-21
6.50757e-21
2.00947e-21
5.31929e-22
6.96234e-22
6.27324e-22
1.58485e-21
1.26519e-21
5.53498e-22
1.06003e-21
2.08636e-21
2.30962e-22
2.25834e-21
8.56941e-21
4.28289e-21
3.73969e-21
2.72377e-21
1.7659e-21
3.14482e-21
2.17065e-21
9.06135e-22
4.4588e-22
4.28902e-22
5.92269e-22
9.6233e-23
5.77105e-22
2.34108e-21
3.0275e-21
1.52764e-21
1.90754e-21
5.68629e-21
1.03682e-21
1.818e-21
2.05407e-21
5.57977e-21
5.03395e-21
1.86081e-22
2.65068e-21
1.45829e-21
1.76403e-22
3.01186e-22
4.01641e-22
1.1086e-23
3.27466e-23
2.7372e-21
1.92981e-21
2.33513e-22
1.41984e-22
2.13656e-22
2.8429e-21
4.98468e-21
6.87249e-22
1.25191e-21
2.02188e-22
4.31538e-21
3.83296e-21
2.37574e-21
1.0677e-22
5.19712e-21
3.82121e-22
4.95546e-21
2.46526e-21
2.25115e-21
2.38659e-21
1.63912e-21
6.55185e-22
6.90471e-21
3.67953e-21
7.92527e-21
8.04876e-21
1.08482e-21
7.51273e-22
4.62569e-21
1.41934e-22
5.74835e-21
6.87715e-21
1.87886e-21
1.27864e-21
2.98045e-21
3.68663e-21
4.25343e-22
3.08749e-21
1.74426e-21
4.09442e-21
3.42756e-21
3.45384e-21
5.03673e-22
2.8516e-21
5.76865e-22
1.34961e-21
7.64459e-23
8.96083e-22
8.77522e-22
1.3717e-21
1.42547e-22
1.60133e-21
1.8533e-21
9.08284e-22
2.57025e-21
3.47126e-21
4.3354e-21
5.40627e-21
9.55974e-22
1.96635e-21
5.66199e-22
2.07922e-22
7.59354e-22
4.58711e-22
2.76543e-21
2.17508e-22
8.61931e-22
8.18013e-24
3.88017e-21
2.09867e-21
4.67827e-23
1.53262e-22
2.17537e-21
4.37902e-22
6.6918e-21
2.29206e-22
1.76952e-21
2.09223e-21
2.20264e-21
1.57063e-22
1.82306e-21
1.21232e-22
3.84151e-21
2.6939e-21
6.98734e-22
7.4782e-22
3.39697e-21
8.2586e-22
4.79342e-21
3.44408e-23
1.77989e-21
6.18298e-21
1.63102e-22
6.6943e-22
5.71038e-22
1.10449e-21
1.53614e-21
2.39165e-21
2.64223e-21
4.84022e-22
5.89281e-21
1.27064e-21
6.11964e-23
7.50184e-22
3.7031e-21
3.21215e-21
2.55936e-21
4.4974e-22
1.33302e-20
3.39432e-21
7.34859e-21
1.20509e-21
2.34308e-21
1.80037e-21
3.81859e-21
9.77727e-22
1.35249e-21
1.52718e-21
3.52959e-21
1.5713e-21
4.7386e-21
1.96795e-22
7.5708e-22
5.37905e-22
1.53867e-21
3.35891e-21
7.17607e-21
2.31198e-22
1.93799e-21
2.7224e-23
7.62499e-21
2.45445e-21
1.46511e-21
2.33137e-21
1.48414e-21
5.52659e-21
1.12186e-21
1.37054e-21
2.96327e-21
1.60753e-21
3.18421e-21
2.63475e-21
1.17522e-21
2.79819e-22
1.25225e-21
3.5091e-23
1.88666e-21
1.6317e-21
9.62629e-22
4.84118e-21
5.78179e-21
8.09048e-21
6.11236e-22
9.00514e-21
3.80214e-23
4.22555e-21
2.09658e-21
9.68589e-22
5.96482e-22
1.61037e-21
8.77912e-22
5.55736e-21
7.55378e-22
4.02679e-21
2.58131e-22
5.85555e-22
5.82003e-22
1.2137e-21
1.59543e-21
9.20678e-21
2.46156e-21
2.38219e-21
1.95557e-22
2.19066e-22
1.70468e-21
1.46008e-21
6.34981e-21
6.62377e-22
2.94436e-22
2.45022e-21
1.8801e-21
9.00478e-22
6.5896e-22
6.75855e-21
8.97617e-22
5.51224e-22
3.96142e-22
3.19047e-21
8.06268e-22
3.86919e-22
4.6947e-22
1.18461e-21
1.42636e-21
2.24853e-21
1.34885e-22
2.29438e-21
2.84602e-22
5.93866e-21
4.72979e-22
9.14566e-22
8.84035e-22
1.08893e-21
1.16531e-21
4.96649e-22
6.93804e-22
3.95758e-22
3.43628e-21
1.38773e-21
8.18374e-21
3.58137e-21
1.50943e-21
1.78945e-21
9.13214e-22
6.22508e-21
2.30999e-21
3.09266e-21
1.80641e-22
7.21358e-22
4.67341e-22
8.32177e-22
3.68663e-22
1.2919e-20
2.18211e-21
4.89946e-21
9.81306e-22
8.39423e-22
2.20019e-21
1.08535e-21
9.4201e-22
1.47147e-23
3.2809e-22
3.35162e-22
9.99545e-22
2.47901e-21
1.28715e-23
2.84554e-21
9.20174e-22
1.04151e-21
2.08389e-21
1.22776e-21
5.76698e-22
1.03448e-21
5.57927e-22
1.64857e-21
6.95551e-22
3.86097e-21
5.67239e-21
8.74468e-21
1.84068e-21
2.01134e-21
6.27593e-21
3.02668e-21
3.76838e-22
7.09775e-22
3.21149e-21
4.40083e-21
8.58112e-22
1.47412e-21
1.00992e-21
7.54456e-22
2.50005e-21
1.69585e-21
7.78883e-24
1.26941e-21
4.95553e-21
1.10874e-22
3.16869e-21
7.65533e-22
1.31321e-22
5.96815e-22
8.9927e-22
2.98015e-22
6.62134e-23
2.15682e-21
1.24406e-21
4.53902e-21
1.0048e-21
3.5663e-21
9.65272e-22
1.72338e-21
1.60587e-22
2.79908e-21
5.49488e-21
1.62006e-21
7.73156e-22
2.25666e-21
3.094e-23
7.51853e-21
2.064e-21
5.82372e-23
3.17779e-21
1.73031e-21
2.15453e-22
1.57428e-21
2.60844e-21
5.42025e-22
3.6782e-21
2.53574e-21
7.20623e-22
4.61953e-21
2.01412e-21
1.35836e-22
7.83848e-22
4.19158e-22
2.96841e-21
3.93616e-22
2.13237e-21
1.90742e-21
3.25632e-21
4.65805e-22
3.8213e-22
1.41547e-21
4.53335e-21
1.96023e-21
1.76696e-21
4.26291e-22
3.23809e-22
1.15074e-21
4.43409e-21
1.82734e-21
3.30772e-21
1.34495e-21
1.65985e-21
5.62338e-22
5.76883e-22
3.78644e-21
3.27145e-21
1.16331e-21
4.63004e-21
3.3457e-21
2.9158e-21
7.69391e-22
5.99487e-22
6.19845e-21
9.00219e-22
1.52014e-22
8.03863e-22
2.21424e-21
1.10686e-21
1.16288e-22
4.42761e-21
3.29557e-21
3.10024e-21
2.02945e-21
2.18266e-21
1.59394e-21
2.35585e-22
1.28395e-21
1.94867e-21
1.8899e-21
8.79911e-22
1.8754e-21
3.2068e-22
1.25774e-21
1.4698e-21
1.73331e-21
4.83245e-22
4.10029e-21
3.47129e-22
5.52871e-21
2.16167e-21
4.05454e-22
1.31701e-21
1.48467e-23
8.65417e-22
1.96954e-21
1.30707e-21
2.06642e-21
4.86237e-22
1.9524e-21
1.78697e-22
3.53308e-21
1.07991e-21
6.83169e-22
2.87382e-21
1.99277e-22
1.97887e-21
8.19026e-21
4.74847e-22
9.82725e-21
3.09656e-22
1.27589e-22
3.76647e-21
5.72542e-22
4.90318e-21
5.24945e-22
4.0688e-21
5.1553e-23
4.51968e-21
3.8087e-22
5.2219e-23
4.09115e-22
9.29684e-22
1.11016e-21
3.16248e-22
4.09404e-22
1.02023e-21
2.98336e-21
2.3547e-21
4.47583e-22
1.37335e-21
2.20505e-21
1.66787e-21
5.11466e-22
3.61165e-21
3.88852e-21
4.45641e-22
4.87199e-22
2.19473e-21
5.78734e-21
1.20035e-22
3.82978e-21
1.96208e-21
8.29632e-22
2.1343e-22
1.16646e-21
4.46311e-21
4.27278e-21
9.63574e-22
1.78786e-22
2.49848e-22
4.22786e-21
8.36155e-22
3.47723e-21
9.06238e-23
2.10851e-21
7.05273e-23
2.4561e-21
1.93439e-21
4.59995e-22
1.89246e-21
1.16828e-21
3.30374e-21
6.24449e-21
4.03721e-22
2.05138e-21
1.22594e-21
9.0418e-22
2.23164e-22
1.48886e-21
4.34019e-22
4.96767e-21
1.55703e-21
4.96472e-22
2.01725e-23
1.09999e-21
9.84965e-22
3.55223e-21
1.45329e-21
5.75791e-21
8.95189e-23
2.9654e-22
1.97728e-22
8.32551e-22
2.79182e-21
1.6405e-21
1.63391e-21
4.90618e-21
3.01027e-21
1.30645e-22
6.95437e-22
1.09448e-21
4.80642e-22
2.65809e-21
2.50008e-22
1.98815e-21
3.98802e-21
2.20564e-21
1.33993e-21
8.77775e-22
4.8663e-23
2.57095e-21
1.99531e-21
1.21812e-21
9.34949e-21
3.19158e-22
7.48574e-22
3.03658e-22
1.10472e-21
2.10209e-22
8.21004e-23
4.44421e-22
3.03306e-22
1.22684e-21
2.07824e-21
3.02144e-22
1.42155e-21
2.6204e-21
3.59713e-22
2.9805e-21
3.91204e-21
5.00628e-22
6.18273e-21
6.13313e-22
3.37715e-21
1.87282e-22
5.08996e-21
2.66744e-23
3.1541e-22
2.69581e-21
1.03094e-21
2.60179e-21
3.98603e-22
1.24483e-21
1.025e-21
2.19834e-22
1.76734e-21
3.58934e-24
5.1317e-22
6.50099e-22
4.26152e-23
2.82702e-21
5.30363e-21
3.25435e-22
3.02086e-22
7.35016e-21
9.79797e-22
1.83753e-21
1.05875e-21
1.65366e-21
1.66206e-21
3.28184e-21
7.73728e-22
3.469e-21
1.33753e-21
5.16203e-22
4.51816e-21
7.67636e-22
1.04031e-21
8.19355e-22
5.27473e-21
8.73375e-23
7.49254e-22
4.02743e-21
1.0349e-21
2.92175e-21
1.38264e-21
4.60533e-21
1.26997e-22
3.03604e-21
1.43173e-22
2.51562e-21
1.69252e-21
1.48847e-20
6.02176e-21
3.91617e-21
9.94384e-22
1.63843e-21
2.14115e-21
7.79954e-22
7.0611e-22
1.909e-22
6.85925e-22
7.19549e-21
8.18006e-22
7.21091e-22
1.79707e-21
1.59195e-21
1.28822e-21
3.94788e-21
2.99566e-21
1.64601e-22
4.08128e-22
1.07591e-21
2.37293e-21
8.74782e-22
1.01688e-21
1.55781e-21
2.11427e-22
1.14581e-21
2.38611e-21
1.74023e-21
3.90587e-21
5.39612e-24
8.3346e-22
3.89966e-21
1.71333e-21
1.56247e-21
2.2837e-22
1.01908e-21
1.23012e-21
2.481e-23
1.58122e-22
4.69929e-21
9.01633e-22
2.37438e-21
8.32634e-21
4.37327e-21
4.80747e-21
6.07984e-22
3.61875e-21
2.155e-21
8.28819e-22
1.37268e-21
1.30626e-22
1.47648e-22
9.07518e-21
1.94461e-21
3.08659e-22
4.27837e-21
6.41087e-22
1.10178e-21
5.70941e-22
5.64463e-21
2.31342e-22
1.77144e-21
4.94086e-21
8.65546e-22
4.14669e-22
1.55391e-21
4.47003e-22
6.75929e-22
3.04962e-22
7.46838e-21
3.46886e-21
1.01598e-21
7.5624e-22
1.14058e-21
6.42213e-22
9.91278e-22
1.70378e-21
1.03125e-22
4.40388e-22
1.28683e-21
2.00731e-21
4.40564e-21
3.67178e-21
2.38248e-21
1.89743e-21
5.24278e-21
2.20795e-21
9.3363e-22
3.67923e-21
5.67686e-21
6.70383e-21
1.48107e-21
5.00299e-22
3.5216e-21
1.22416e-21
3.48706e-22
2.06247e-22
7.97488e-22
2.36589e-21
1.29879e-23
9.65376e-22
1.45876e-21
2.33005e-21
2.1983e-21
8.20873e-21
2.16007e-21
5.10002e-21
1.04626e-21
1.44781e-21
7.58895e-21
2.71087e-22
1.17374e-22
6.03195e-23
1.23193e-23
3.92579e-21
6.89358e-21
5.8948e-21
7.71278e-23
8.67319e-22
2.4648e-21
6.96553e-22
8.03959e-21
4.79375e-23
7.23896e-22
3.12494e-21
1.11818e-21
6.03947e-22
6.68113e-22
2.71653e-21
5.4397e-21
4.54312e-22
2.31024e-21
6.10984e-21
8.98125e-22
5.7995e-22
4.69494e-21
1.4931e-21
3.74613e-21
5.53507e-22
1.69283e-21
1.86872e-21
3.60457e-21
3.46885e-22
1.04114e-21
8.30101e-22
4.05295e-22
1.53563e-21
1.08677e-21
7.89358e-23
2.31386e-23
2.16483e-22
4.24249e-21
6.62541e-22
4.98013e-22
1.05334e-21
8.50359e-22
3.59713e-21
2.35123e-22
8.78137e-22
4.93548e-22
4.43415e-21
9.46785e-22
9.64812e-23
2.05526e-21
9.46113e-22
5.92218e-21
1.12047e-21
3.03171e-21
2.404e-21
5.15688e-22
1.5313e-21
3.13274e-22
5.07306e-21
1.68337e-21
4.75104e-21
2.45842e-21
9.20327e-22
6.15274e-22
4.89441e-21
2.94355e-21
9.93963e-22
2.72685e-22
7.0652e-21
3.436e-21
1.04843e-21
2.19113e-21
7.13606e-22
5.49208e-21
1.23597e-22
1.31536e-21
1.49169e-21
2.7463e-21
1.71311e-21
5.60544e-22
9.89564e-22
5.81512e-21
3.00567e-21
3.44921e-21
3.29688e-22
5.09023e-21
3.98563e-24
2.13483e-21
3.62096e-21
1.13809e-21
5.69354e-24
6.9048e-22
1.04245e-22
2.00947e-22
9.40519e-23
4.39879e-21
2.52276e-21
2.92976e-21
9.32624e-22
8.09895e-21
7.18878e-23
3.60815e-22
9.27857e-22
2.17486e-21
9.89271e-22
1.71146e-21
1.69994e-21
1.96137e-21
2.42229e-21
1.47914e-21
1.29135e-22
3.46275e-21
6.8257e-22
2.04028e-21
1.17826e-22
2.42219e-21
1.57109e-21
2.9609e-21
7.64812e-21
4.53853e-21
9.57153e-22
3.40948e-21
3.76719e-21
1.37963e-21
3.88988e-21
6.24252e-23
9.88523e-22
9.63176e-22
6.21846e-22
9.83491e-22
2.72903e-21
4.89506e-22
6.50836e-23
1.36192e-21
4.75072e-21
1.70245e-21
2.48152e-21
8.53774e-22
7.45542e-21
4.16411e-21
7.73623e-22
4.29056e-22
3.32804e-21
4.02337e-22
4.58408e-21
4.12187e-22
8.92605e-22
1.27907e-21
9.20573e-22
2.39241e-21
7.17351e-22
7.54703e-22
1.04105e-21
6.9923e-22
3.33973e-21
2.47122e-21
9.11843e-24
6.45693e-23
8.51732e-22
6.17499e-22
1.60293e-21
6.71888e-22
1.08035e-21
2.07671e-21
1.5894e-21
5.66737e-22
4.4897e-21
3.67348e-21
5.91321e-23
8.40354e-22
1.56076e-21
5.4381e-21
4.31693e-22
1.53027e-21
4.28326e-21
1.12107e-21
1.20174e-21
5.46534e-22
4.53173e-21
9.4215e-22
2.82933e-21
1.39566e-20
2.40933e-21
4.34418e-21
3.36813e-22
3.70144e-21
8.39528e-23
3.84978e-21
4.93068e-22
4.84907e-22
2.38803e-21
4.38374e-21
2.00351e-21
1.65622e-21
1.65006e-21
1.77648e-21
2.89788e-21
6.66676e-22
2.45006e-21
3.07203e-22
1.53942e-21
5.01287e-22
2.87258e-21
2.29759e-21
5.74992e-22
3.37371e-21
2.83816e-21
1.32222e-21
7.95123e-21
2.21179e-23
2.62291e-21
4.17857e-22
5.2072e-21
3.05537e-22
4.90851e-21
6.29891e-21
2.09541e-21
2.67046e-21
3.41928e-21
1.87912e-21
6.92238e-22
2.61599e-21
2.03654e-22
4.1442e-21
1.74314e-21
3.85057e-21
3.31028e-21
2.66087e-21
3.80519e-21
1.91424e-21
4.26188e-21
2.2e-21
8.06043e-21
4.93454e-21
3.22591e-21
8.05136e-21
6.57861e-21
1.37898e-21
1.03646e-21
4.26145e-21
3.13203e-21
5.15737e-21
1.31702e-21
5.02418e-22
1.40747e-21
2.10248e-21
6.63515e-22
4.73872e-21
1.05247e-21
7.39215e-22
9.28521e-22
4.31159e-21
5.54605e-22
7.18839e-21
2.77948e-21
3.15163e-22
4.17984e-22
2.82997e-21
2.10704e-21
3.76008e-21
7.74569e-23
1.26509e-22
4.13073e-22
1.73117e-22
1.8354e-21
2.58127e-21
1.0806e-21
1.35013e-21
2.31482e-21
9.30788e-21
2.74677e-21
1.11306e-21
4.79123e-22
2.38812e-21
5.33181e-21
5.53401e-21
3.37261e-21
5.57341e-23
4.02148e-21
6.27279e-24
9.30354e-22
7.36066e-22
3.65689e-21
5.29694e-22
9.1328e-22
1.41878e-21
2.7458e-21
7.35841e-22
5.35745e-22
2.48752e-22
2.45568e-21
3.57326e-21
4.45904e-21
2.61072e-22
1.71187e-21
6.29221e-22
1.24216e-21
2.81342e-21
2.80927e-21
2.1354e-21
3.47086e-21
6.06108e-22
9.67136e-22
2.37993e-21
3.22839e-21
2.94327e-21
5.80218e-21
3.89427e-21
1.55575e-21
8.51515e-22
3.12559e-21
1.83331e-21
4.64966e-21
7.72084e-22
1.27082e-21
1.11766e-22
1.34249e-21
1.1059e-21
2.40506e-22
8.66318e-22
4.84171e-22
1.49869e-21
4.64496e-21
2.81363e-21
5.85254e-21
6.77465e-21
1.83415e-21
4.13603e-22
3.13524e-21
3.25728e-21
3.87164e-21
7.46688e-21
1.86983e-21
3.39208e-22
1.97783e-21
6.76641e-22
5.12951e-22
8.57313e-22
6.84185e-22
2.33313e-21
1.30605e-21
3.66861e-21
1.46535e-21
9.21735e-22
3.19684e-21
2.16149e-22
2.65986e-21
2.43121e-21
5.12176e-22
1.1114e-21
1.33889e-21
9.67781e-22
1.94271e-21
1.08279e-21
6.95838e-22
2.08641e-21
1.65896e-21
5.767e-21
1.76393e-21
1.28845e-21
2.97911e-21
3.57188e-22
4.67148e-22
2.30111e-21
1.75986e-21
8.26502e-22
2.01055e-22
5.36575e-21
1.19568e-21
1.65222e-22
2.42125e-21
7.69449e-21
5.02893e-22
3.79664e-24
3.00753e-21
1.18376e-21
1.43323e-21
2.15388e-21
2.0392e-21
7.23992e-21
3.57244e-22
7.98376e-22
2.33858e-21
1.06365e-21
1.43956e-21
1.66603e-22
3.12063e-21
2.78833e-21
1.54914e-21
4.82053e-21
3.86787e-21
5.06287e-21
5.05346e-22
6.71623e-22
1.86524e-21
2.85655e-21
8.18834e-22
2.94867e-21
1.36699e-21
1.53194e-21
2.30009e-21
4.4892e-22
2.24991e-21
9.85183e-23
9.75058e-22
1.43944e-21
1.40634e-23
2.83044e-21
5.33491e-21
8.15351e-22
4.40499e-22
1.03845e-21
3.56923e-22
2.10009e-21
8.0152e-22
7.92685e-21
2.50643e-21
2.24188e-21
4.04615e-21
2.77213e-21
1.28608e-20
3.81654e-21
3.41442e-21
3.7773e-22
1.39285e-21
2.456e-22
5.1419e-22
1.99216e-21
4.47144e-21
6.04127e-22
2.84126e-21
1.64005e-21
1.09159e-21
4.11233e-21
4.81244e-21
3.70735e-22
6.64176e-22
1.32736e-22
1.02629e-21
2.13044e-22
7.16792e-22
8.00614e-22
1.47624e-21
3.36882e-22
5.46843e-21
5.71867e-22
2.95364e-21
1.23996e-22
4.05987e-21
9.59418e-22
1.39816e-22
5.04788e-22
6.56195e-22
3.97585e-21
2.65288e-22
7.55645e-22
2.30804e-21
4.61828e-22
3.58119e-23
1.96912e-21
2.81802e-22
2.19666e-22
1.26788e-21
1.76014e-21
2.69286e-21
1.34572e-21
9.70336e-22
3.94543e-21
4.21883e-21
8.51241e-22
3.69179e-23
9.65763e-22
6.75623e-21
2.26885e-22
5.14469e-22
3.49441e-21
2.89201e-21
2.57845e-21
2.14607e-21
2.47169e-22
1.13046e-21
3.72609e-22
5.12077e-22
1.10469e-22
2.93928e-21
2.42629e-21
4.18284e-21
4.13588e-21
7.26353e-22
1.60254e-22
9.35929e-22
9.91183e-22
1.19154e-21
1.59945e-21
1.71773e-21
1.11841e-21
2.0283e-21
3.53603e-21
4.08034e-22
6.53332e-22
4.37968e-22
6.51604e-21
1.84457e-21
5.27679e-22
9.17177e-22
4.46174e-21
2.67384e-21
1.20034e-21
4.24022e-21
1.96967e-22
3.06884e-21
1.99903e-21
5.96592e-21
1.69999e-21
2.73773e-21
2.95496e-21
1.81702e-21
4.37154e-21
2.9944e-22
5.32857e-22
1.87426e-21
1.02707e-21
1.92186e-21
7.30991e-22
1.92857e-21
5.2609e-22
3.51839e-21
2.06817e-21
6.80581e-22
4.28169e-21
3.38232e-21
1.79326e-21
6.86112e-22
1.18898e-21
5.87919e-21
5.95182e-22
3.71385e-21
4.95262e-21
4.26107e-21
1.67005e-22
6.55221e-23
2.5175e-22
1.1542e-24
7.41714e-22
2.0725e-21
1.7007e-21
1.95242e-21
3.08187e-22
2.4725e-22
1.79738e-22
3.47438e-23
1.04233e-21
4.38475e-21
9.99239e-22
7.49267e-22
2.90204e-21
1.26206e-23
1.7419e-21
4.97682e-21
1.95287e-21
7.45396e-22
1.84204e-21
3.37305e-21
7.80132e-22
1.79684e-21
1.90812e-21
7.96578e-21
2.12864e-21
4.07208e-23
1.16917e-21
2.42855e-21
7.18028e-22
6.64761e-23
8.5769e-22
2.56131e-21
3.24872e-21
2.06476e-21
3.41538e-22
1.43642e-21
1.47173e-21
4.84665e-21
1.77162e-21
4.38848e-22
6.38372e-22
3.7447e-21
7.64977e-22
2.61764e-21
7.74765e-22
5.21309e-22
5.75809e-21
3.4485e-21
1.06846e-21
4.83519e-22
4.9205e-23
3.09493e-21
5.23284e-21
2.28071e-21
6.05261e-21
5.22303e-21
1.70087e-21
2.32096e-21
1.38761e-21
2.09775e-22
2.57376e-21
3.57288e-21
1.59486e-24
2.58489e-21
2.26152e-21
5.14408e-23
3.56767e-22
2.88813e-21
1.15069e-21
2.30258e-21
5.63498e-21
9.75381e-22
6.19876e-22
5.22313e-22
2.18651e-21
1.9073e-21
1.03126e-20
1.04675e-20
3.83742e-22
5.36229e-21
5.72579e-22
6.6743e-21
2.5601e-21
4.93662e-22
4.98571e-22
2.76068e-22
8.59079e-21
6.52601e-22
4.8864e-22
3.6948e-21
3.82834e-22
3.37233e-21
1.1198e-21
1.07134e-22
9.46934e-22
9.25224e-22
1.14982e-21
1.89398e-21
1.93065e-21
1.48586e-22
3.94579e-21
4.70856e-22
8.12773e-23
4.74195e-22
4.30858e-21
1.06091e-21
2.17631e-21
3.29913e-21
2.1797e-21
1.68711e-21
6.82896e-22
2.1897e-21
4.68998e-21
8.01645e-22
2.22551e-24
3.59136e-22
9.8173e-22
5.94149e-22
9.75529e-22
2.75025e-21
3.38129e-21
7.86245e-22
3.70439e-21
1.30196e-22
1.66213e-22
4.56406e-22
5.96166e-22
1.7931e-21
1.77523e-21
1.75848e-21
3.44356e-21
3.76223e-21
3.60742e-21
8.14753e-22
1.22837e-22
7.91281e-21
1.57944e-21
4.86836e-21
9.13808e-22
9.32502e-22
8.19473e-22
3.75984e-23
4.67564e-21
4.4485e-22
2.58289e-21
6.60862e-22
2.3101e-21
1.58652e-21
4.94691e-22
3.59719e-22
1.5866e-21
4.84525e-21
7.71271e-22
3.42569e-22
3.26297e-21
1.08958e-21
8.7849e-22
4.08187e-21
9.91056e-22
9.98079e-22
1.67394e-21
1.68587e-21
9.24969e-21
1.65458e-21
4.6554e-22
2.94883e-21
8.37927e-22
1.98818e-21
4.1994e-21
3.03642e-21
7.0504e-22
1.86321e-21
6.15391e-23
9.61172e-22
3.19586e-21
1.01935e-22
2.7648e-22
1.11345e-21
2.07409e-22
1.56932e-21
8.56034e-22
6.01503e-22
1.40859e-21
1.55574e-21
3.2122e-22
7.36238e-21
1.05788e-21
3.58054e-21
2.61581e-21
2.05249e-21
7.8406e-22
1.20191e-21
2.90669e-21
2.13733e-21
1.93344e-22
1.4156e-21
3.92136e-21
6.86263e-21
6.07735e-21
8.6752e-22
3.44875e-21
3.9589e-21
6.40699e-21
3.67791e-21
3.23683e-21
2.16237e-21
3.81588e-22
3.36793e-21
2.85882e-21
5.21405e-21
5.55196e-22
3.13256e-22
1.47395e-21
7.00954e-21
1.28873e-22
6.15508e-21
1.66226e-21
2.32304e-22
6.80207e-22
2.36e-22
1.52571e-21
3.85911e-21
1.68946e-21
1.22971e-22
4.92174e-23
1.49286e-21
1.06196e-20
5.54289e-22
9.83794e-22
4.14741e-22
2.37367e-22
2.62033e-21
2.40901e-21
7.33778e-22
9.75781e-22
9.10687e-22
1.16632e-21
3.92355e-21
2.69899e-21
1.59945e-21
1.79955e-22
1.23015e-21
4.18567e-21