/*--------------------------------*- C++ -*----------------------------------*\
  =========                 |
  \\      /  F ield         | OpenFOAM: The Open Source CFD Toolbox
   \\    /   O peration     | Website:  https://openfoam.org
    \\  /    A nd           | Version:  7
     \\/     M anipulation  |
\*---------------------------------------------------------------------------*/
FoamFile
{
    version     2.0;
    format      ascii;
    class       volScalarField;
    location    "0.55";
    object      epsilon;
}
// * * * * * * * * * * * * * * * * * * * * * * * * * * * * * * * * * * * * * //

dimensions      [0 2 -3 0 0 0 0];

internalField   nonuniform List<scalar> 
2268
(
0.0313838
0.0965185
0.178442
0.25935
0.328104
0.392543
0.453074
0.51038
0.564719
0.615539
0.661779
0.701977
0.734213
0.755699
0.761582
0.752784
0.724288
0.669945
0.589721
0.485995
0.369994
0.266465
0.199959
0.0397852
0.0637968
0.0986623
0.134077
0.165176
0.191818
0.216131
0.239017
0.26079
0.281403
0.300606
0.318025
0.333186
0.34547
0.354107
0.360824
0.364914
0.364403
0.357523
0.340265
0.305076
0.237259
0.233518
0.0490547
0.0591948
0.0861419
0.112815
0.135387
0.154703
0.172049
0.188215
0.203565
0.218191
0.232031
0.244945
0.256764
0.267305
0.276485
0.285212
0.29372
0.301558
0.307827
0.309284
0.298939
0.26987
0.353572
0.0520051
0.0605399
0.0834582
0.105582
0.124544
0.140876
0.1555
0.16906
0.181906
0.194187
0.205931
0.217107
0.227681
0.237647
0.247127
0.256757
0.266941
0.2777
0.288481
0.297044
0.299653
0.303864
0.494895
0.0563925
0.0644273
0.0843153
0.10344
0.120156
0.134814
0.148027
0.160268
0.171846
0.18294
0.193637
0.203977
0.214002
0.223794
0.233548
0.243775
0.25489
0.267086
0.280068
0.292703
0.305062
0.33825
0.640501
0.0604894
0.070278
0.0877008
0.104303
0.119292
0.132801
0.145117
0.156544
0.167348
0.177734
0.187831
0.197729
0.207518
0.217324
0.227365
0.238076
0.24985
0.262968
0.277412
0.293188
0.314013
0.373595
0.807626
0.0642151
0.0786813
0.0935445
0.107652
0.12111
0.133651
0.145225
0.155996
0.166204
0.176075
0.185774
0.195419
0.20513
0.215053
0.225408
0.236573
0.248925
0.26281
0.278499
0.297044
0.325307
0.408893
0.990394
0.0737106
0.0912423
0.102094
0.113484
0.12541
0.136924
0.147681
0.157756
0.16738
0.17679
0.186171
0.195656
0.205373
0.215475
0.226178
0.23782
0.25077
0.265428
0.282328
0.30333
0.337362
0.440195
1.30947
0.636288
1.07963
1.81019
3.33268
5.87247
9.02198
12.635
16.5821
20.8758
25.7007
31.3919
38.2165
45.8048
52.3954
54.4407
47.8911
35.1308
21.8461
7.10442
0.736961
1.15535
2.4246
4.14588
5.86354
7.56822
9.42871
11.6096
14.329
17.9045
22.7061
28.9494
36.5037
44.5292
49.8916
43.9161
26.8033
13.5694
5.65022
1.12384
1.56313
2.86138
4.37231
5.83914
7.42583
9.30203
11.5778
14.4261
18.1163
22.9063
28.7307
34.776
39.4511
40.4719
37.0576
24.5674
8.52591
6.13418
1.4707
1.89915
3.11431
4.46222
5.86653
7.48015
9.38367
11.6283
14.3255
17.6347
21.6286
25.9793
29.6264
31.3012
30.2299
26.27
15.8524
5.81306
6.45446
1.60451
2.18446
3.31495
4.49706
5.84201
7.44381
9.29846
11.4095
13.8285
16.6159
19.7167
22.68
24.4819
24.2847
21.949
16.6765
8.86384
4.72497
6.77407
1.51356
2.41047
3.43808
4.45303
5.72349
7.2755
9.03052
10.9533
13.0456
15.2981
17.5936
19.4675
19.9632
18.6096
15.2824
10.4636
6.1403
4.11783
6.95167
1.47467
2.40919
3.33942
4.27848
5.4874
6.96702
8.58904
10.2923
12.04
13.7766
15.3693
16.3871
15.8907
13.7972
10.4954
7.22673
4.76734
3.74437
6.90898
1.56394
2.00294
3.01781
3.95465
5.12137
6.50687
7.97007
9.43743
10.8413
12.093
13.0671
13.3832
12.2568
10.0012
7.54725
5.40741
3.93001
3.46671
6.73017
0.112306
0.113957
0.117139
0.125141
0.134987
0.144832
0.154164
0.16305
0.17173
0.18045
0.189407
0.19873
0.208547
0.219014
0.230344
0.242816
0.25681
0.272794
0.291614
0.315819
0.353861
0.439371
0.733778
0.218605
0.163412
0.151118
0.152517
0.157503
0.163261
0.169307
0.175696
0.182586
0.190149
0.198526
0.207745
0.217831
0.228948
0.24129
0.255091
0.270733
0.288631
0.309693
0.336173
0.373116
0.434669
0.554682
0.342726
0.218617
0.192714
0.185843
0.183813
0.184193
0.18636
0.190052
0.195154
0.2017
0.209789
0.219172
0.229551
0.24146
0.254991
0.270388
0.287991
0.308086
0.331362
0.359185
0.393877
0.440248
0.502747
0.447528
0.245732
0.215805
0.207795
0.203035
0.200612
0.200493
0.202528
0.206607
0.21273
0.220823
0.2305
0.241737
0.254787
0.269617
0.286658
0.306533
0.329367
0.354841
0.383348
0.416258
0.454956
0.498832
0.440103
0.235133
0.214151
0.208768
0.206625
0.206153
0.207285
0.210135
0.214841
0.221529
0.230167
0.240426
0.252406
0.266539
0.282893
0.301798
0.3238
0.349809
0.377435
0.406383
0.438702
0.473671
0.510903
0.406541
0.222683
0.202885
0.200399
0.201495
0.203983
0.207609
0.212516
0.218919
0.226992
0.236741
0.247994
0.260816
0.27567
0.292782
0.312253
0.334656
0.360847
0.390257
0.422258
0.456911
0.490149
0.525339
0.382561
0.209069
0.190263
0.189274
0.192483
0.197309
0.203246
0.210309
0.218652
0.228419
0.23964
0.252251
0.266322
0.282161
0.299941
0.319692
0.341672
0.366595
0.394657
0.425938
0.459942
0.495047
0.532388
0.363801
0.197772
0.178649
0.177855
0.181999
0.188226
0.195788
0.204539
0.21453
0.225846
0.238525
0.252554
0.267984
0.284963
0.303564
0.323746
0.345602
0.36958
0.396065
0.425157
0.45688
0.490691
0.526972
0.351074
0.188371
0.168229
0.166875
0.171116
0.177923
0.18637
0.196176
0.207295
0.219753
0.233571
0.248749
0.265299
0.283253
0.302598
0.323258
0.345233
0.36876
0.394137
0.421447
0.450792
0.482162
0.515293
0.341791
0.180186
0.158784
0.156508
0.160322
0.167097
0.175797
0.186049
0.197733
0.210823
0.225319
0.241207
0.258466
0.27706
0.296913
0.317921
0.34003
0.363328
0.387972
0.414037
0.441631
0.470826
0.501392
0.333269
0.172571
0.150041
0.146768
0.149862
0.156191
0.164664
0.174849
0.186582
0.199803
0.214489
0.230613
0.248132
0.266972
0.28703
0.308179
0.330327
0.353462
0.377629
0.402864
0.429225
0.456764
0.485432
0.323869
0.165127
0.141816
0.137632
0.139897
0.145518
0.153428
0.163153
0.174512
0.187426
0.201859
0.217779
0.235134
0.253845
0.273798
0.294861
0.316919
0.3399
0.363773
0.388521
0.414161
0.440738
0.46835
0.312832
0.157679
0.134015
0.129084
0.130533
0.135343
0.142455
0.151438
0.162109
0.17437
0.188186
0.203534
0.220368
0.238619
0.258188
0.278954
0.300797
0.323619
0.347345
0.371922
0.397335
0.423633
0.451
0.300136
0.150226
0.126628
0.121132
0.121834
0.125815
0.132052
0.140126
0.149868
0.161233
0.174166
0.188662
0.204696
0.222225
0.241181
0.26147
0.282993
0.305652
0.32936
0.354047
0.37968
0.406313
0.434171
0.286229
0.14288
0.119694
0.113807
0.113853
0.117043
0.122395
0.129511
0.138235
0.148525
0.16039
0.173854
0.188897
0.205519
0.223694
0.243375
0.264501
0.287
0.3108
0.335834
0.362069
0.389562
0.418549
0.271772
0.135809
0.113281
0.107146
0.106636
0.109098
0.113602
0.119774
0.127469
0.136661
0.147377
0.159673
0.173621
0.18923
0.206529
0.225524
0.246211
0.268567
0.292555
0.318135
0.345285
0.374066
0.404716
0.257465
0.129199
0.107469
0.10119
0.100211
0.102022
0.105743
0.111022
0.117734
0.125863
0.135457
0.146599
0.159388
0.173926
0.190327
0.208612
0.228862
0.251112
0.275384
0.301678
0.329998
0.360415
0.39316
0.243942
0.12323
0.102341
0.0959781
0.0945976
0.09583
0.0988425
0.103307
0.10911
0.116252
0.124799
0.134859
0.146567
0.160075
0.175546
0.193137
0.212999
0.235207
0.259866
0.287027
0.316736
0.349078
0.384273
0.23173
0.118064
0.097971
0.0915429
0.089805
0.0905197
0.0928978
0.0966299
0.101616
0.107869
0.11547
0.124552
0.135286
0.147871
0.162525
0.179481
0.198969
0.221207
0.246375
0.274553
0.305853
0.340373
0.378325
0.221228
0.113834
0.0944252
0.0879102
0.0858329
0.0860736
0.0878809
0.090961
0.0952229
0.100689
0.107456
0.11568
0.125562
0.137347
0.151313
0.167763
0.187012
0.209363
0.235087
0.264413
0.297505
0.334439
0.375434
0.212718
0.110644
0.0917527
0.0850953
0.0826712
0.0824625
0.0837485
0.0862456
0.0898685
0.0946464
0.100688
0.108169
0.117323
0.128435
0.141842
0.157919
0.177065
0.199676
0.226118
0.2567
0.291658
0.331207
0.375536
0.206378
0.108566
0.0899838
0.0831003
0.0802996
0.0796478
0.0804459
0.0824151
0.0854714
0.0896474
0.0950613
0.101905
0.11044
0.120994
0.133959
0.149784
0.168952
0.191959
0.219269
0.251278
0.288296
0.33057
0.378359
0.202289
0.107635
0.0891267
0.081911
0.0786857
0.0775811
0.07791
0.079392
0.0819397
0.0855848
0.0904512
0.096745
0.104753
0.114842
0.12746
0.143128
0.162419
0.18593
0.21423
0.247812
0.28706
0.332267
0.383718
0.200458
0.107855
0.0891664
0.0814961
0.0777846
0.0762053
0.0760716
0.0770944
0.079177
0.0823464
0.0867283
0.0925396
0.100089
0.109781
0.122117
0.137689
0.157164
0.181245
0.210613
0.245866
0.287472
0.335784
0.391127
0.20083
0.1092
0.0900635
0.0818062
0.0775388
0.0754549
0.0748568
0.0754382
0.0770876
0.0798223
0.0837655
0.0891412
0.0962772
0.105611
0.117694
0.133192
0.152865
0.177526
0.207977
0.244933
0.288959
0.340491
0.399926
0.203309
0.111611
0.0917564
0.0827751
0.0778789
0.0752575
0.0741886
0.0743402
0.0755793
0.0779083
0.0814436
0.0864118
0.0931552
0.10214
0.113966
0.129367
0.149194
0.174379
0.205851
0.244453
0.290871
0.345646
0.409294
0.207786
0.11501
0.0941636
0.0843218
0.078726
0.0755357
0.0739894
0.0737197
0.0745657
0.0765096
0.0796557
0.0842286
0.0905795
0.0991981
0.110725
0.125958
0.14584
0.171416
0.203754
0.243841
0.292504
0.350426
0.418275
0.214145
0.119301
0.0971887
0.0863549
0.0799951
0.0762098
0.0741824
0.0735005
0.0739685
0.0755424
0.0783096
0.0824867
0.0884277
0.0966385
0.107793
0.122743
0.142515
0.16827
0.201218
0.242506
0.29313
0.353943
0.42581
0.222269
0.124377
0.100727
0.0887775
0.081599
0.0772007
0.0746945
0.073613
0.0737186
0.0749359
0.0773294
0.0811019
0.0866031
0.0943454
0.105024
0.119536
0.138978
0.164618
0.197813
0.239884
0.292022
0.355286
0.430767
0.232029
0.130127
0.10467
0.0914929
0.083452
0.0784329
0.075458
0.0739949
0.073757
0.074632
0.0766561
0.0800117
0.0850357
0.0922369
0.102319
0.116204
0.135044
0.160202
0.193173
0.235467
0.288494
0.353554
0.431996
0.2433
0.136449
0.108918
0.094409
0.085474
0.079837
0.0764126
0.0745927
0.0740355
0.0745862
0.0762475
0.0791749
0.0836837
0.0902673
0.0996214
0.112674
0.130606
0.154851
0.187032
0.228848
0.281951
0.347914
0.428371
0.255997
0.143258
0.11338
0.0974419
0.0875922
0.0813518
0.0775068
0.075363
0.074517
0.0747671
0.0760778
0.0785712
0.0825329
0.0884279
0.0969264
0.108938
0.125643
0.148511
0.179261
0.219771
0.271946
0.337661
0.418871
0.270149
0.1505
0.11798
0.100518
0.0897432
0.0829254
0.0786993
0.0762732
0.0751763
0.0751564
0.0761364
0.0781999
0.0815945
0.0867451
0.0942789
0.105061
0.120235
0.141259
0.169905
0.208189
0.258261
0.32232
0.402667
0.285994
0.158172
0.122659
0.103571
0.0918717
0.0845161
0.0799605
0.0773032
0.0760013
0.0757499
0.076428
0.0780779
0.0809028
0.0852772
0.0917686
0.101172
0.114558
0.133321
0.159213
0.194325
0.241004
0.301764
0.379279
0.304086
0.166342
0.127373
0.106541
0.0939282
0.0860924
0.0812742
0.0784485
0.0769958
0.0765586
0.0769731
0.0782391
0.080512
0.0841081
0.0895224
0.097459
0.108878
0.125057
0.147648
0.178715
0.220704
0.276383
0.348787
0.325436
0.175172
0.132084
0.109358
0.0958635
0.0876325
0.082641
0.0797239
0.0781838
0.0776136
0.0778105
0.0787348
0.0804938
0.0833421
0.0876932
0.0941454
0.103523
0.116936
0.13586
0.162205
0.198368
0.247224
0.312087
0.351772
0.184948
0.136726
0.111918
0.0976171
0.0891243
0.0840825
0.0811711
0.0796171
0.0789723
0.0790034
0.0796379
0.0809389
0.0830994
0.0864491
0.0914733
0.0988452
0.109479
0.124606
0.145872
0.175438
0.21606
0.271119
0.386354
0.196148
0.141128
0.11403
0.0990998
0.090566
0.0856502
0.0828683
0.0813855
0.0807287
0.0806487
0.0810507
0.0819615
0.0835177
0.0859677
0.0896847
0.0951896
0.103191
0.114647
0.130859
0.153592
0.185224
0.228867
0.436441
0.209465
0.14479
0.115313
0.100172
0.091975
0.0874414
0.0849471
0.0836318
0.0830276
0.0828903
0.0831179
0.0837117
0.0847603
0.0864387
0.0890154
0.0928683
0.0985101
0.106631
0.118167
0.134409
0.157154
0.188898
0.521949
0.225233
0.146245
0.115023
0.100639
0.0934185
0.0896284
0.0876149
0.0865709
0.0860818
0.0859367
0.0860443
0.0863926
0.0870333
0.0880782
0.0897036
0.0921595
0.0957849
0.101031
0.108502
0.119024
0.133761
0.15439
0.721942
0.239321
0.141528
0.11192
0.100354
0.0951039
0.0925145
0.0911897
0.0905147
0.0901942
0.0900833
0.0901185
0.0902867
0.0906132
0.091158
0.0920187
0.0933353
0.0952974
0.0981551
0.102236
0.107976
0.11598
0.127126
1.60967
0.217648
0.122077
0.104827
0.0996337
0.0975719
0.0966185
0.0961448
0.0959059
0.0957911
0.0957477
0.0957524
0.0957993
0.0958955
0.0960597
0.0963227
0.0967294
0.0973409
0.0982367
0.0995176
0.101312
0.10379
0.10719
1.79136
1.36462
1.08512
1.02571
0.693542
0.707059
0.691825
0.692685
0.549599
0.575516
0.597546
0.625364
0.53064
0.55318
0.576863
0.6048
0.538767
0.559158
0.580897
0.605287
0.552531
0.572122
0.592297
0.613496
0.562177
0.583305
0.603966
0.623553
0.555543
0.575988
0.596923
0.617893
0.541069
0.559642
0.579108
0.599761
0.524965
0.541819
0.559562
0.578478
0.507586
0.523332
0.53991
0.557582
0.489771
0.504901
0.520851
0.537881
0.472337
0.487329
0.503174
0.520146
0.456033
0.471327
0.487532
0.504929
0.44147
0.457439
0.474383
0.492567
0.429141
0.446086
0.464061
0.483296
0.419451
0.43761
0.456842
0.477326
0.412727
0.432291
0.452968
0.47487
0.409197
0.430334
0.452624
0.476109
0.408969
0.431839
0.455911
0.481162
0.411993
0.436766
0.462809
0.490037
0.418031
0.444912
0.473145
0.502601
0.426752
0.45593
0.486588
0.518554
0.43782
0.469524
0.502874
0.537668
0.450568
0.485031
0.521357
0.559327
0.46412
0.501538
0.541084
0.582525
0.477415
0.517911
0.560849
0.605981
0.489236
0.532829
0.57922
0.628154
0.498255
0.544831
0.594596
0.6473
0.503081
0.552362
0.605253
0.661523
0.502316
0.553834
0.609403
0.668828
0.49462
0.547692
0.605257
0.667178
0.478811
0.532504
0.591113
0.654576
0.454018
0.507119
0.565507
0.629205
0.419926
0.470925
0.527481
0.589707
0.377119
0.42424
0.477023
0.535663
0.327465
0.368796
0.415636
0.468254
0.274345
0.308131
0.346907
0.391004
0.222349
0.247467
0.276622
0.310161
0.176134
0.192543
0.211701
0.233877
0.138737
0.147472
0.15764
0.169364
0.110643
0.113211
0.116155
0.119498
0.922257
1.67252
2.57847
3.3973
4.36315
5.50953
6.68378
7.78108
8.68949
9.27795
9.43111
8.95599
7.84802
6.46467
5.09984
3.95992
3.23938
3.20109
6.47229
0.777774
1.48099
2.42076
3.1848
3.55443
4.17153
4.90594
5.57927
6.04164
6.16918
5.83169
5.25933
4.60521
3.92944
3.32457
2.86206
2.63148
2.85808
5.95823
0.702362
1.01927
1.77385
2.33865
2.78532
3.21744
3.58044
3.89771
4.09683
4.11641
3.81576
3.33636
2.95912
2.69437
2.50006
2.36305
2.34292
2.6628
5.55051
0.666752
0.830386
1.14793
1.47645
1.89907
2.30132
2.59971
2.80054
2.90109
2.86499
2.57778
2.33851
2.27837
2.32385
2.3552
2.32609
2.32867
2.62322
5.30575
0.654078
0.751308
0.901698
1.08406
1.31786
1.57249
1.80279
1.95066
2.01089
1.99526
1.96765
2.08123
2.37396
2.69041
2.80208
2.6793
2.53621
2.70792
5.19767
0.652431
0.717291
0.805222
0.914255
1.04765
1.19809
1.34553
1.46148
1.5577
1.70151
2.02688
2.65328
3.42945
3.9775
3.89552
3.36382
2.88709
2.85906
5.1448
0.656843
0.708215
0.770957
0.845154
0.935393
1.04173
1.16152
1.30358
1.52839
2.00021
3.00462
4.65068
6.25085
6.63633
5.58168
4.1576
3.23227
3.00073
5.02164
0.653784
0.709352
0.770773
0.833981
0.917308
1.02948
1.18717
1.44471
1.96595
3.17756
5.77527
9.38955
11.3576
9.59278
6.74452
4.50767
3.39726
3.08841
4.65401
0.636963
0.692553
0.757207
0.838317
0.955241
1.12797
1.40501
1.92127
3.07456
5.97606
12.1759
17.1269
13.3684
10.0183
6.39733
4.39196
3.45465
3.18515
4.02453
0.612692
0.666693
0.736299
0.833175
0.981069
1.22402
1.66753
2.58257
4.68737
9.51425
15.1982
16.6998
13.8572
8.69061
5.50807
4.08431
3.52251
3.40413
3.5146
0.589564
0.641132
0.710662
0.815506
0.98912
1.29877
1.90055
3.16878
5.73416
9.59007
12.6242
13.4395
12.3302
7.16876
4.77963
3.9111
3.65164
3.58289
3.22814
0.568788
0.620001
0.690902
0.800275
0.986248
1.3284
2.00705
3.30623
5.49441
8.17321
10.0065
10.5217
9.1615
5.91501
4.39623
3.8976
3.7438
3.64621
3.10249
0.551068
0.603506
0.677185
0.791247
0.984703
1.33981
1.99129
3.12291
4.81006
6.65343
7.85427
8.17025
7.23784
5.34146
4.30652
4.00186
3.87346
3.75338
3.21709
0.536665
0.591104
0.667298
0.783555
0.97615
1.31031
1.87652
2.7806
4.02716
5.32646
6.19523
6.53857
6.27357
5.14894
4.37094
4.18167
4.10467
4.00113
3.82708
0.525658
0.582201
0.659642
0.773928
0.954743
1.24683
1.70668
2.39051
3.28584
4.21627
4.90873
5.32918
5.52139
5.10764
4.52932
4.40969
4.404
4.3812
4.68109
0.518092
0.576562
0.653892
0.762695
0.924458
1.16759
1.52428
2.02293
2.65369
3.32894
3.9275
4.41892
4.84091
4.95347
4.74189
4.69093
4.75157
4.81663
5.72178
0.514076
0.57435
0.650735
0.752317
0.892928
1.08958
1.35875
1.715
2.15807
2.66679
3.2103
3.79954
4.41731
4.83595
4.98428
5.07841
5.17544
5.27291
6.91497
0.513805
0.575995
0.651333
0.745758
0.867095
1.02471
1.22644
1.48158
1.80137
2.21025
2.74653
3.47065
4.32921
5.04904
5.50563
5.72256
5.75245
5.82912
8.33804
0.517501
0.582006
0.656888
0.745578
0.851796
0.97981
1.13418
1.32419
1.57341
1.93933
2.52301
3.44113
4.63542
5.74769
6.46063
6.71209
6.51134
6.44256
9.35208
0.525344
0.592839
0.668396
0.75359
0.849583
0.95786
1.08268
1.23709
1.45799
1.8315
2.5166
3.69206
5.29883
6.82065
7.62927
7.7535
7.3076
7.03311
9.71451
0.53742
0.60881
0.686523
0.770835
0.861432
0.958832
1.06869
1.21008
1.43472
1.85879
2.68829
4.11836
5.99038
7.61452
8.325
8.33305
7.82612
7.51166
9.39839
0.553672
0.630025
0.711532
0.797571
0.887033
0.980482
1.08572
1.22805
1.47213
1.95496
2.89388
4.41522
6.19175
7.58405
8.09725
7.98325
7.75128
7.79756
8.60354
0.573863
0.656311
0.74324
0.833319
0.924934
1.01897
1.12491
1.27241
1.53207
2.04159
2.98754
4.39723
5.88287
6.98745
7.27892
7.18626
7.34233
7.70936
8.13542
0.597589
0.687159
0.781018
0.877014
0.972979
1.06966
1.1773
1.32673
1.58617
2.07748
2.94356
4.16158
5.38217
6.29156
6.46686
6.52167
6.94258
7.4625
8.08144
0.624465
0.722051
0.823962
0.927181
1.02862
1.12843
1.23649
1.38225
1.62727
2.07423
2.83358
3.87129
4.90243
5.71302
5.84776
5.97628
6.54846
7.24458
8.58113
0.653379
0.759869
0.870858
0.982288
1.08988
1.19274
1.29973
1.43812
1.66343
2.0664
2.74007
3.64861
4.57541
5.3351
5.45661
5.63301
6.20805
7.03839
9.31681
0.682936
0.799104
0.920133
1.04077
1.15528
1.26141
1.36687
1.49747
1.70626
2.07689
2.69258
3.53536
4.43386
5.148
5.31981
5.51389
6.05525
6.98481
10.2085
0.711406
0.837898
0.969919
1.10095
1.22363
1.33405
1.43886
1.56354
1.76159
2.11281
2.70154
3.53926
4.48573
5.21032
5.35955
5.53712
6.09798
7.13786
11.1019
0.736847
0.874087
1.01805
1.16101
1.29383
1.41063
1.51684
1.63859
1.83087
2.1729
2.75569
3.62777
4.68134
5.43889
5.51877
5.7077
6.30593
7.44907
12.285
0.757101
0.90523
1.06201
1.21874
1.36454
1.49118
1.60218
1.72413
1.91351
2.25007
2.8308
3.74559
4.95301
5.81434
5.85281
6.03072
6.64656
7.88759
13.6015
0.76985
0.928598
1.09884
1.27133
1.43374
1.57528
1.69628
1.82168
2.00961
2.33932
2.90825
3.83415
5.16417
6.18661
6.20721
6.43212
7.08087
8.41567
14.7494
0.77266
0.941158
1.12496
1.31496
1.49801
1.66101
1.7993
1.93223
2.11959
2.44066
2.992
3.90048
5.29662
6.30703
6.48519
6.89457
7.60255
8.98835
15.6332
0.76304
0.93956
1.13608
1.34446
1.55174
1.74368
1.90716
2.05485
2.2415
2.55187
3.08352
3.95976
5.27977
6.45878
6.94054
7.51938
8.25824
9.56309
16.1459
0.738574
0.920217
1.1272
1.35315
1.58663
1.81342
2.01108
2.184
2.3755
2.67289
3.16955
3.97808
5.19022
6.62369
7.547
8.33741
9.11688
10.1526
16.1977
0.697215
0.879578
1.09278
1.33308
1.59213
1.85597
2.09529
2.30809
2.52075
2.80428
3.24888
3.9553
5.04286
6.5297
8.11685
9.31582
10.2841
10.8882
15.5479
0.637822
0.814788
1.02745
1.27526
1.55428
1.85374
2.13852
2.40122
2.65379
2.93864
3.32947
3.91691
4.82905
6.25168
8.18588
10.309
11.817
12.2482
14.7089
0.560973
0.724866
0.927434
1.1715
1.45835
1.78438
2.11167
2.42647
2.72828
3.03738
3.39737
3.87818
4.60077
5.79654
7.73431
10.3563
13.2717
14.1174
15.2123
0.469919
0.612346
0.792916
1.0178
1.29332
1.62467
1.98008
2.3385
2.68919
3.0345
3.39282
3.80569
4.36909
5.28821
6.89752
9.41987
12.7568
15.237
18.1784
0.37134
0.48417
0.630615
0.818783
1.05852
1.36143
1.7137
2.08931
2.47204
2.85121
3.22627
3.6157
4.08362
4.78899
6.03369
8.17374
11.407
15.6156
22.6202
0.275094
0.352609
0.455957
0.592533
0.772262
1.0089
1.30797
1.64935
2.0184
2.39847
2.77943
3.16393
3.5922
4.18165
5.21006
7.0954
10.3563
15.8993
27.3799
0.191422
0.233769
0.295601
0.377792
0.486733
0.632733
0.825686
1.06093
1.33264
1.62035
1.91746
2.21835
2.56706
3.08319
4.028
5.99777
9.90023
16.7802
31.9059
0.125865
0.140533
0.191058
0.241485
0.302017
0.378446
0.470711
0.575371
0.688851
0.758677
0.758507
0.587076
0.658769
0.801754
1.14
2.60963
10.5978
21.1668
40.2605
)
;

boundaryField
{
    leftWall
    {
        type            epsilonWallFunction;
        value           nonuniform List<scalar> 
50
(
0.0313838
0.0397852
0.0490547
0.0520051
0.0563925
0.0604894
0.0642151
0.0737106
0.112306
0.218605
0.342726
0.447528
0.440103
0.406541
0.382561
0.363801
0.351074
0.341791
0.333269
0.323869
0.312832
0.300136
0.286229
0.271772
0.257465
0.243942
0.23173
0.221228
0.212718
0.206378
0.202289
0.200458
0.20083
0.203309
0.207786
0.214145
0.222269
0.232029
0.2433
0.255997
0.270149
0.285994
0.304086
0.325436
0.351772
0.386354
0.436441
0.521949
0.721942
1.60967
)
;
    }
    rightWall
    {
        type            epsilonWallFunction;
        value           nonuniform List<scalar> 
50
(
7.10442
5.65022
6.13418
6.45446
6.77407
6.95167
6.90898
6.73017
6.47229
5.95823
5.55051
5.30575
5.19767
5.1448
5.02164
4.65401
4.02453
3.5146
3.22814
3.10249
3.21709
3.82708
4.68109
5.72178
6.91497
8.33804
9.35208
9.71451
9.39839
8.60354
8.13542
8.08144
8.58113
9.31681
10.2085
11.1019
12.285
13.6015
14.7494
15.6332
16.1459
16.1977
15.5479
14.7089
15.2123
18.1784
22.6202
27.3799
31.9059
40.2605
)
;
    }
    lowerWall
    {
        type            epsilonWallFunction;
        value           nonuniform List<scalar> 
62
(
0.0313838
0.0965185
0.178442
0.25935
0.328104
0.392543
0.453074
0.51038
0.564719
0.615539
0.661779
0.701977
0.734213
0.755699
0.761582
0.752784
0.724288
0.669945
0.589721
0.485995
0.369994
0.266465
0.199959
0.199959
0.233518
0.353572
0.494895
0.640501
0.807626
0.990394
1.30947
1.79136
1.36462
1.08512
1.02571
0.636288
0.736961
1.12384
1.4707
1.60451
1.51356
1.47467
1.56394
0.636288
1.07963
1.81019
3.33268
5.87247
9.02198
12.635
16.5821
20.8758
25.7007
31.3919
38.2165
45.8048
52.3954
54.4407
47.8911
35.1308
21.8461
7.10442
)
;
    }
    atmosphere
    {
        type            inletOutlet;
        inletValue      uniform 0.1;
        value           nonuniform List<scalar> 
46
(
0.1
0.1
0.1
0.1
0.1
0.1
0.1
0.1
0.1
0.1
0.1
0.1
0.1
0.1
0.1
0.1
0.1
0.1
0.1
0.1
0.1
0.1
0.1
0.1
0.1
0.1
0.1
0.1
0.1
0.191058
0.241485
0.302017
0.378446
0.470711
0.575371
0.688851
0.758677
0.758507
0.1
0.1
0.1
0.1
0.1
10.5978
21.1668
40.2605
)
;
    }
    defaultFaces
    {
        type            empty;
    }
}


// ************************************************************************* //
