/*--------------------------------*- C++ -*----------------------------------*\
  =========                 |
  \\      /  F ield         | OpenFOAM: The Open Source CFD Toolbox
   \\    /   O peration     | Website:  https://openfoam.org
    \\  /    A nd           | Version:  7
     \\/     M anipulation  |
\*---------------------------------------------------------------------------*/
FoamFile
{
    version     2.0;
    format      ascii;
    class       volScalarField;
    location    "0.55";
    object      nut;
}
// * * * * * * * * * * * * * * * * * * * * * * * * * * * * * * * * * * * * * //

dimensions      [0 2 -1 0 0 0 0];

internalField   nonuniform List<scalar> 
2268
(
6.20419e-05
5.98135e-05
7.31916e-05
8.28051e-05
8.95146e-05
9.4889e-05
9.95356e-05
0.00010356
0.000107111
0.000110239
0.000112945
0.000115202
0.000116956
0.000118106
0.000118434
0.000118012
0.000116484
0.000113435
0.000108614
0.000101613
9.28705e-05
8.31166e-05
7.54845e-05
0.000121237
0.000361642
0.000543751
0.000661278
0.000754541
0.000827703
0.000889692
0.000942961
0.000988816
0.00102798
0.00106076
0.00108717
0.00110698
0.00111942
0.00112224
0.00110241
0.001056
0.000985024
0.000894638
0.000793387
0.000694734
0.000564055
0.000215824
0.00012993
0.000598655
0.000911004
0.00114878
0.00135148
0.00152918
0.00168614
0.00182374
0.00194297
0.00204472
0.00212949
0.00219727
0.00224738
0.00227769
0.0022827
0.00224594
0.00215586
0.00200966
0.00181123
0.00157519
0.00132314
0.0010045
0.000247429
0.000132291
0.000727904
0.00112827
0.0014707
0.00178511
0.00207349
0.00233381
0.00256441
0.00276513
0.00293677
0.00307999
0.00319476
0.00327992
0.00333215
0.00334368
0.00329743
0.00317774
0.00297682
0.00269468
0.00234305
0.00193219
0.00136757
0.00027674
0.000135582
0.000754124
0.0012274
0.00166682
0.00209179
0.00249199
0.00285704
0.00318158
0.00346452
0.0037068
0.00390946
0.00407254
0.00419459
0.00427146
0.00429419
0.0042457
0.0041086
0.00387132
0.00352909
0.00308398
0.0025196
0.0016889
0.000301515
0.000138512
0.000726142
0.00124545
0.001774
0.00230796
0.00281863
0.00328588
0.00370118
0.00406321
0.00437355
0.0046338
0.00484422
0.00500323
0.00510626
0.00514402
0.00509964
0.00495532
0.00469664
0.00431331
0.00379359
0.00308597
0.00198656
0.000325693
0.0001412
0.000674027
0.00121695
0.00182806
0.00246782
0.00308391
0.00364687
0.00414635
0.00458164
0.00495526
0.00526949
0.00552481
0.00571962
0.00584927
0.00590478
0.00586978
0.00572658
0.00545849
0.00504967
0.0044735
0.00364254
0.00229021
0.0003493
0.000148645
0.000615357
0.00117549
0.00186553
0.002604
0.00331505
0.00396279
0.00453676
0.00503729
0.00546784
0.00583122
0.00612802
0.00635662
0.00651245
0.00658721
0.00656589
0.00643048
0.00616274
0.00574206
0.00512987
0.0042127
0.00265987
0.000384819
0.000114664
0.000134827
0.000156003
0.000188798
0.000232934
0.000272934
0.000310485
0.000346682
0.000383482
0.000423108
0.000466518
0.000510848
0.000548904
0.000571766
0.000571589
0.000542201
0.000472161
0.000386633
0.000397973
0.000367916
0.000839379
0.000912051
0.00100398
0.00115008
0.00133844
0.00155626
0.00177852
0.00198401
0.00216725
0.00234935
0.0025848
0.00295035
0.00347876
0.00401319
0.00392506
0.00330611
0.00228195
0.000735214
0.000415366
0.00130545
0.00147218
0.00167494
0.00199831
0.00241381
0.00286122
0.00327909
0.00363516
0.00393284
0.00421103
0.00453208
0.00494547
0.00542335
0.0057022
0.00551756
0.00474687
0.00308424
0.000749261
0.000450537
0.00165942
0.00194982
0.00226086
0.00273897
0.00332294
0.00391466
0.00444409
0.00488465
0.00524525
0.00556101
0.00587391
0.0062027
0.00651762
0.00653635
0.00612222
0.00517019
0.00356867
0.000755659
0.000463794
0.00193616
0.00235916
0.00275558
0.00334146
0.00403107
0.00470636
0.00529904
0.00578751
0.00618049
0.00650334
0.00677317
0.00698127
0.00710568
0.00688008
0.00623998
0.00528784
0.0039553
0.000761778
0.000458754
0.00209653
0.00266809
0.00313875
0.00379505
0.0045452
0.00526387
0.00588671
0.00639381
0.00679066
0.00709336
0.00729943
0.00737509
0.00729438
0.00689013
0.00622814
0.00549816
0.00413209
0.00076446
0.000464079
0.00208402
0.00282955
0.00339466
0.00409943
0.00487792
0.00561101
0.00623913
0.00674091
0.00711663
0.00737576
0.00750358
0.00746024
0.00721025
0.00676019
0.00624575
0.00566817
0.00423088
0.000760445
0.000481692
0.00200127
0.00289307
0.00353319
0.00426508
0.00504314
0.00576729
0.00638187
0.00686072
0.00719727
0.00739665
0.00744236
0.0073109
0.00700752
0.00664649
0.00629421
0.00579995
0.00428768
0.000752584
0.000172798
0.000562267
0.00115537
0.0019508
0.00281394
0.0036438
0.00439989
0.00507221
0.0056617
0.00617213
0.00660641
0.00696506
0.00724632
0.00744575
0.00755572
0.00756107
0.00744608
0.00719158
0.006772
0.00613958
0.00518492
0.00369445
0.00155141
0.000215006
0.000617092
0.00135366
0.00229364
0.0032516
0.00415381
0.00497911
0.00572195
0.0063821
0.00696117
0.00746038
0.00787894
0.00821428
0.00846125
0.00861269
0.00865557
0.00857692
0.0083587
0.00797738
0.00739352
0.00653385
0.0052968
0.0036669
0.000247766
0.000990319
0.00194868
0.00292758
0.00386662
0.00475617
0.00558642
0.00634873
0.00703794
0.00765159
0.00818815
0.00864487
0.00901793
0.00930082
0.00948731
0.00956919
0.00953606
0.00937268
0.00906288
0.00858211
0.00789256
0.00696457
0.00584785
0.000269534
0.00156269
0.00272673
0.0036906
0.00458031
0.00542454
0.00622364
0.00697026
0.00765686
0.00827764
0.00882797
0.00930257
0.00969725
0.0100065
0.0102227
0.0103414
0.0103555
0.0102547
0.0100307
0.00967023
0.00915739
0.00849361
0.00772694
0.000266923
0.00180539
0.00316804
0.0042464
0.00517781
0.00603061
0.00682364
0.00755991
0.00823721
0.00885189
0.00939992
0.00987658
0.0102783
0.0106028
0.010844
0.010997
0.0110574
0.0110205
0.0108799
0.0106294
0.0102692
0.00980768
0.00927447
0.000260808
0.00192153
0.00343986
0.00463639
0.00564241
0.00653483
0.00734479
0.00808461
0.00875849
0.00936696
0.00990871
0.0103813
0.0107827
0.0111125
0.0113688
0.0115482
0.0116486
0.0116678
0.011601
0.0114468
0.0112109
0.010896
0.0105253
0.000256202
0.00198292
0.0036181
0.0049167
0.0059993
0.00694063
0.00777794
0.0085301
0.00920678
0.00981271
0.0103498
0.0108186
0.0112192
0.0115526
0.0118189
0.0120181
0.0121491
0.0122109
0.0122007
0.0121219
0.0119791
0.0117734
0.0115235
0.00025239
0.00201458
0.00373507
0.00512007
0.00627226
0.0072614
0.0081279
0.00889538
0.00957795
0.0101841
0.0107189
0.0111855
0.0115863
0.0119238
0.0121995
0.0124142
0.0125689
0.0126637
0.0126985
0.0126756
0.0125988
0.0124727
0.0123135
0.000249723
0.00202846
0.00380939
0.00526659
0.0064784
0.00750993
0.00840326
0.00918552
0.00987447
0.0104818
0.0110154
0.0114808
0.011882
0.0122228
0.012506
0.0127334
0.0129064
0.0130261
0.0130942
0.0131131
0.0130865
0.0130206
0.012926
0.000247648
0.00203105
0.00385313
0.00536738
0.00662818
0.0076956
0.00861206
0.00940719
0.0101017
0.0107101
0.0112425
0.0117063
0.0121072
0.0124498
0.0127377
0.0129735
0.0131593
0.013297
0.0133888
0.0134374
0.0134467
0.0134226
0.0133729
0.000245616
0.00202583
0.00387584
0.00542804
0.0067272
0.00782456
0.00876067
0.00956674
0.0102658
0.0108746
0.0114052
0.0118666
0.0122657
0.0126079
0.0128975
0.0131375
0.0133307
0.0134792
0.0135857
0.0136531
0.0136852
0.0136871
0.0136657
0.000243271
0.0020133
0.00387819
0.0054568
0.00678213
0.00790126
0.00885432
0.00966986
0.0103729
0.0109817
0.01151
0.0119681
0.0123638
0.0127033
0.0129913
0.0132314
0.0134265
0.0135792
0.0136922
0.0137685
0.0138117
0.0138268
0.0138202
0.000240438
0.00199343
0.00386099
0.00545516
0.00679892
0.00793413
0.00889825
0.00972183
0.0104289
0.0110379
0.0115638
0.012018
0.0124091
0.0127437
0.0130272
0.0132633
0.0134554
0.0136062
0.0137184
0.0137951
0.0138398
0.0138576
0.013855
0.0002371
0.00196659
0.00382576
0.00542568
0.00678073
0.00792751
0.00890067
0.00972997
0.0104398
0.0110497
0.0115736
0.0120238
0.0124094
0.0127376
0.013014
0.0132428
0.0134275
0.013571
0.0136762
0.0137462
0.0137848
0.0137973
0.0137906
0.000233345
0.00193364
0.00377488
0.00537193
0.00673184
0.00788611
0.00886636
0.00970086
0.0104135
0.0110235
0.011546
0.0119927
0.0123726
0.0126934
0.0129607
0.0131793
0.0133528
0.0134846
0.0135777
0.0136355
0.0136622
0.0136637
0.0136474
0.000229321
0.00189584
0.00371135
0.00529819
0.00665724
0.0078152
0.00880054
0.00963964
0.0103553
0.0109663
0.0114876
0.011931
0.0123055
0.0126182
0.0128752
0.0130813
0.0132406
0.0133569
0.0134339
0.0134754
0.0134864
0.0134733
0.0134444
0.000225202
0.00185467
0.00363845
0.0052091
0.00656233
0.00772041
0.00870872
0.00955156
0.0102703
0.010883
0.0114039
0.0118445
0.0122136
0.0125181
0.0127637
0.0129556
0.0130984
0.0131965
0.0132544
0.013277
0.0132701
0.013241
0.0131989
0.000221168
0.00181167
0.00355948
0.00510933
0.00645258
0.00760748
0.0085965
0.00944184
0.0101634
0.010778
0.0112991
0.0117374
0.0121012
0.0123972
0.012631
0.0128076
0.012932
0.01301
0.0130471
0.0130496
0.0130244
0.01298
0.0129264
0.000217394
0.00176829
0.00347751
0.00500328
0.00633326
0.00748206
0.00846944
0.00931563
0.010039
0.0106552
0.0111766
0.0116129
0.0119716
0.0122588
0.01248
0.0126406
0.0127463
0.0128034
0.0128191
0.0128018
0.0127599
0.0127029
0.0126414
0.000214033
0.00172588
0.00339533
0.00489495
0.00620928
0.0073495
0.00833291
0.00917797
0.00990173
0.0105186
0.0110399
0.011474
0.0118276
0.0121059
0.0123141
0.012458
0.0125443
0.012581
0.0125771
0.0125423
0.0124867
0.0124215
0.0123575
0.000211217
0.00168559
0.00331537
0.00478794
0.00608508
0.00721477
0.00819201
0.00903373
0.0097559
0.0103719
0.010892
0.0113236
0.0116718
0.0119411
0.0121363
0.0122635
0.0123307
0.0123479
0.0123263
0.0122778
0.0122143
0.0121468
0.0120866
0.000209047
0.00164845
0.0032398
0.00468545
0.0059647
0.00708243
0.0080515
0.00888757
0.00960584
0.010219
0.0107366
0.0111646
0.0115072
0.0117676
0.0119502
0.0120614
0.0121107
0.0121102
0.0120736
0.0120155
0.0119491
0.0118865
0.0118376
0.000207587
0.00161535
0.00317054
0.00459036
0.00585178
0.00695663
0.00791576
0.00874385
0.00945569
0.0100637
0.0105768
0.0110003
0.0113368
0.0115887
0.0117595
0.0118561
0.0118893
0.0118735
0.0118254
0.0117616
0.0116975
0.0116452
0.0116141
0.000206866
0.00158702
0.00310933
0.00450527
0.00574958
0.00684107
0.00778874
0.00860654
0.00930927
0.00990958
0.0104162
0.0108338
0.011164
0.0114077
0.0115679
0.0116516
0.0116709
0.0116426
0.011586
0.0115205
0.0114625
0.0114248
0.0114156
0.000206875
0.00156405
0.00305768
0.00443246
0.00566095
0.006739
0.00767387
0.00847912
0.00916999
0.00975981
0.0102577
0.010668
0.0109915
0.0112278
0.0113788
0.0114514
0.011459
0.0114206
0.0113582
0.0112932
0.0112439
0.011223
0.011238
0.00020758
0.00154687
0.00301679
0.00437381
0.00558826
0.00665308
0.00757402
0.00836452
0.00904071
0.00961714
0.0101039
0.0105054
0.0108217
0.0110512
0.0111944
0.0112579
0.0112558
0.011209
0.011142
0.0110786
0.0110383
0.0110343
0.0110735
0.000208927
0.0015357
0.00298749
0.00433069
0.00553327
0.00658538
0.00749141
0.00826503
0.00892372
0.00948377
0.00995671
0.0103477
0.0106563
0.0108795
0.0110164
0.0110725
0.0110622
0.0110078
0.0109362
0.0108734
0.0108405
0.0108513
0.0109124
0.000210851
0.00153057
0.00297019
0.00430391
0.00549713
0.00653727
0.0074276
0.00818234
0.00882071
0.00936129
0.00981766
0.0101962
0.0104963
0.0107137
0.0108455
0.0108957
0.010878
0.010816
0.0107384
0.0106735
0.0106441
0.0106653
0.0107441
0.000213282
0.00153132
0.00296487
0.0042937
0.00548034
0.00650951
0.00738352
0.00811751
0.00873285
0.00925087
0.00968773
0.0100515
0.010342
0.0105537
0.0106816
0.0107272
0.010703
0.0106325
0.0105463
0.0104748
0.0104433
0.0104683
0.0105582
0.000216143
0.00153765
0.00297121
0.00429989
0.00548294
0.0065023
0.00735958
0.00807111
0.00866086
0.00915329
0.00956761
0.00991417
0.0101936
0.0103996
0.0105246
0.0105669
0.0105367
0.0104567
0.0103583
0.0102746
0.0102334
0.0102537
0.0103459
0.000219361
0.00154916
0.0029887
0.00432212
0.0055047
0.00651557
0.00735581
0.00804337
0.00860515
0.00906912
0.0094579
0.00978456
0.0100512
0.0102509
0.0103738
0.0104144
0.0103792
0.0102887
0.0101746
0.0100722
0.0100125
0.0100178
0.010101
0.000222882
0.00156551
0.003017
0.00436015
0.00554553
0.00654922
0.00737213
0.0080343
0.00856596
0.00899883
0.00935918
0.00966316
0.00991481
0.0101075
0.0102289
0.0102696
0.0102311
0.0101301
0.00999743
0.00986989
0.00978209
0.00976037
0.00982154
0.000226688
0.0015866
0.00305623
0.00441441
0.00560588
0.00660355
0.00740864
0.0080439
0.00854341
0.00894284
0.00927214
0.00955068
0.00978492
0.00996907
0.0100894
0.0101324
0.0100934
0.00998381
0.00983125
0.00967322
0.00954786
0.00948641
0.00951046
0.000230819
0.00161273
0.0031075
0.00448659
0.00568744
0.00667975
0.00746589
0.00807235
0.00853765
0.00890157
0.00919757
0.00944811
0.00966232
0.00983605
0.00995514
0.0100024
0.00996697
0.00985294
0.00968232
0.00949112
0.00932028
0.0092065
0.00917733
0.000235392
0.00164497
0.00317363
0.00458063
0.00579399
0.00678051
0.00754528
0.00812011
0.00854883
0.00887536
0.00913625
0.00935662
0.00954817
0.00970902
0.00982575
0.00987896
0.00985192
0.00974013
0.00955737
0.00933497
0.00911448
0.00893773
0.00883934
0.000240615
0.00168575
0.00326054
0.00470428
0.00593263
0.00691072
0.00764932
0.00818801
0.00857699
0.00886427
0.00908876
0.00927735
0.00944389
0.009589
0.00970123
0.00976082
0.00974668
0.00964582
0.0094615
0.00921643
0.00894885
0.00870354
0.00852237
0.000246827
0.0017401
0.00337967
0.00487168
0.00611547
0.00707817
0.00778168
0.00827698
0.00862183
0.00886783
0.00905511
0.0092111
0.00935083
0.00947724
0.00958174
0.00964621
0.00964781
0.00956676
0.00939521
0.00914366
0.00884159
0.00853181
0.00826118
0.000254638
0.00181775
0.00355257
0.00510757
0.00636175
0.00729384
0.00794669
0.00838747
0.00868215
0.00888461
0.00903438
0.00915779
0.00926976
0.00937486
0.00946764
0.00953332
0.00955031
0.00949548
0.00935183
0.00911625
0.00880425
0.00844927
0.00809677
0.000265315
0.00193777
0.00382074
0.00545453
0.00669981
0.00757087
0.00814768
0.00851816
0.00875511
0.00891175
0.00902432
0.00911608
0.00920038
0.00928233
0.00935925
0.00942063
0.00944875
0.00942142
0.00931698
0.00912117
0.0088335
0.00847101
0.00806763
0.000281997
0.00214276
0.00427037
0.00598523
0.00716666
0.00792018
0.00838333
0.00866398
0.00883537
0.0089446
0.00902119
0.00908315
0.00914085
0.00919884
0.00925636
0.00930705
0.00933865
0.00933363
0.00927155
0.00913317
0.00890571
0.00858792
0.00819338
0.000315394
0.00255668
0.00510586
0.00681983
0.00779759
0.00833925
0.00864192
0.00881404
0.0089147
0.00897702
0.00902005
0.00905489
0.0090879
0.00912213
0.00915773
0.00919169
0.00921734
0.00922404
0.00919762
0.00912179
0.00898063
0.00876158
0.00845854
0.000419126
0.00379465
0.00691138
0.00811873
0.0085836
0.00879128
0.00889536
0.00895135
0.00898316
0.00900259
0.009016
0.009027
0.00903765
0.00904899
0.00906123
0.0090736
0.00908414
0.00908942
0.0090844
0.00906247
0.00901581
0.00893573
0.00881309
0.000431175
0.000394562
0.000367923
0.000366441
0.00258783
0.0023059
0.00221772
0.00222115
0.00511004
0.0047186
0.00443268
0.0042078
0.00717801
0.00681983
0.0064901
0.00617964
0.00886122
0.00857191
0.00828357
0.00799481
0.0102245
0.0100087
0.00978743
0.00956062
0.0113154
0.0111647
0.0110085
0.0108466
0.0121786
0.012078
0.0119729
0.0118632
0.0128395
0.0127722
0.0127018
0.0126297
0.0133209
0.0132783
0.0132337
0.0131886
0.0136362
0.0136102
0.0135829
0.013556
0.013803
0.0137865
0.0137696
0.0137538
0.0138419
0.0138296
0.0138176
0.0138076
0.0137757
0.0137636
0.0137527
0.0137447
0.0136267
0.0136124
0.0136003
0.013592
0.0134159
0.0133983
0.013384
0.0133744
0.0131623
0.0131416
0.0131251
0.0131144
0.0128833
0.0128607
0.0128432
0.0128323
0.012595
0.0125725
0.0125559
0.0125465
0.012312
0.0122923
0.0122793
0.0122736
0.0120467
0.0120329
0.0120262
0.0120268
0.011808
0.011803
0.0118054
0.0118149
0.0115998
0.0116062
0.0116201
0.0116411
0.01142
0.0114396
0.0114672
0.0115016
0.0112626
0.0112967
0.0113392
0.0113886
0.0111188
0.0111678
0.011226
0.0112914
0.0109773
0.011041
0.0111149
0.0111969
0.0108261
0.0109031
0.010992
0.0110904
0.0106531
0.0107412
0.0108432
0.0109567
0.0104474
0.0105431
0.0106551
0.010781
0.0102009
0.010299
0.0104162
0.0105501
0.00990925
0.0100031
0.0101189
0.0102546
0.00957342
0.00965498
0.00976119
0.0098904
0.00920138
0.00926123
0.00934807
0.00946073
0.00880936
0.00883713
0.00889359
0.00897817
0.00842358
0.00840848
0.00842272
0.00846651
0.00808186
0.00801384
0.00797402
0.00796378
0.00783393
0.00770656
0.00760319
0.00752678
0.00773671
0.00755326
0.00738492
0.00723633
0.0078394
0.00762242
0.0074067
0.00719762
0.00816135
0.00796208
0.00774992
0.00752853
0.00868205
0.00858638
0.00847756
0.00835525
0.00111504
0.00228679
0.00304168
0.0036884
0.00436872
0.0050851
0.00576195
0.00633666
0.00676952
0.00704274
0.00715914
0.00713061
0.00695985
0.00673904
0.00655189
0.00637258
0.0059206
0.0043133
0.000743111
0.00232613
0.00276079
0.00330948
0.00387099
0.0042898
0.00479091
0.00531494
0.00577865
0.00612617
0.0063366
0.00640917
0.00642731
0.00644427
0.00652054
0.00663436
0.00662787
0.00612545
0.00433488
0.000726624
0.00388268
0.00354727
0.00358517
0.00390904
0.00424291
0.0045913
0.00492053
0.00522918
0.00548851
0.00569292
0.00584552
0.0060427
0.00640258
0.00683191
0.00712978
0.00707567
0.00636328
0.00436665
0.000714468
0.00568548
0.00504579
0.00452426
0.00437815
0.0044402
0.00462394
0.00482335
0.00503023
0.00524536
0.00548952
0.00583036
0.0064098
0.00710938
0.00764221
0.00780693
0.00750271
0.00654303
0.00440028
0.000708101
0.00751679
0.00688383
0.00624844
0.0057731
0.00545153
0.00529739
0.00528722
0.00539968
0.00563355
0.00606356
0.00676059
0.00756986
0.00817666
0.00845344
0.00832971
0.00775802
0.00660483
0.00440294
0.000705522
0.00917861
0.00867377
0.00814695
0.00765125
0.0072157
0.0068909
0.0067308
0.00678391
0.00707158
0.00758955
0.00818496
0.00867125
0.00901484
0.00909824
0.00872506
0.00786806
0.00651752
0.00431561
0.000701791
0.010574
0.0102266
0.00987024
0.00951512
0.0091901
0.00893779
0.00880846
0.0088341
0.00896789
0.0090944
0.00921548
0.00952537
0.00989659
0.00987703
0.0091017
0.00781544
0.006216
0.00406552
0.000689225
0.0116826
0.0114784
0.0112853
0.0110964
0.0109465
0.0108431
0.0107631
0.0106289
0.0103414
0.0100378
0.0101917
0.0107998
0.011102
0.0104775
0.00914543
0.00743174
0.00563754
0.00363481
0.000662361
0.012515
0.0124096
0.0123329
0.0122874
0.0122797
0.0122638
0.0121317
0.0117522
0.0112011
0.0110837
0.0118859
0.0123387
0.0117382
0.0104322
0.00864726
0.00674111
0.00491229
0.00311813
0.000622189
0.0131207
0.013075
0.0130663
0.0130858
0.0131187
0.0130658
0.0127871
0.0122401
0.0117774
0.0119949
0.0126746
0.012622
0.0117891
0.0099213
0.00788624
0.0059199
0.00421913
0.00264807
0.000591368
0.0135189
0.0135103
0.0135377
0.0135827
0.0135949
0.0134514
0.0130357
0.0124185
0.0120559
0.0121922
0.0122509
0.0120021
0.0112618
0.00921968
0.00715207
0.00530521
0.00382001
0.00242435
0.000571264
0.0137363
0.0137528
0.0138018
0.0138531
0.0138277
0.0135908
0.013052
0.0124489
0.0120818
0.0119213
0.0116724
0.0113288
0.0104739
0.00860464
0.00669468
0.0050477
0.00367355
0.00230455
0.000560475
0.0138013
0.0138332
0.0138975
0.013957
0.0139163
0.0136298
0.0130947
0.0125023
0.0120255
0.0116166
0.0111821
0.0107537
0.00991821
0.00829795
0.00660984
0.00512559
0.0037474
0.00228222
0.000566223
0.0137437
0.0137846
0.0138623
0.0139384
0.0139125
0.0136568
0.013168
0.0125639
0.0119694
0.0113961
0.0108564
0.010403
0.00966227
0.00828707
0.00680747
0.0054416
0.00404359
0.00241435
0.000604888
0.0135927
0.0136392
0.0137294
0.0138281
0.0138409
0.0136512
0.0132216
0.0126111
0.0119297
0.0112562
0.0106631
0.0101981
0.00958262
0.00847568
0.00716552
0.00590348
0.00452255
0.0027298
0.000653464
0.0133754
0.0134251
0.0135249
0.0136451
0.0137023
0.0135835
0.0132202
0.012627
0.0119038
0.0111785
0.0105587
0.0101021
0.00956157
0.00871219
0.00756487
0.00640392
0.0051055
0.0032044
0.000702513
0.0131157
0.0131666
0.0132711
0.0134047
0.013497
0.0134396
0.0131449
0.0125947
0.0118725
0.0111264
0.010515
0.0100626
0.00955464
0.00883481
0.00786028
0.0068173
0.00562999
0.00374877
0.000747991
0.0128349
0.0128858
0.0129897
0.0131261
0.0132367
0.0132234
0.0129908
0.0124981
0.0118058
0.0110604
0.0104455
0.00996682
0.00945888
0.0088072
0.0079626
0.00703714
0.0059277
0.00409693
0.000791515
0.0125527
0.0126036
0.0127029
0.0128326
0.0129442
0.0129539
0.0127664
0.0123251
0.011662
0.0109059
0.010237
0.00969897
0.00920227
0.00864688
0.00794363
0.00712211
0.00602599
0.0042167
0.000813556
0.0122864
0.0123392
0.0124324
0.0125493
0.0126491
0.0126606
0.0124927
0.0120741
0.011404
0.0105896
0.00982466
0.00924328
0.00881944
0.00840894
0.00785011
0.0070921
0.00597989
0.00418864
0.000812866
0.01205
0.0121082
0.0121964
0.0122987
0.0123794
0.0123763
0.0122009
0.0117654
0.0110356
0.0101092
0.00925055
0.00869501
0.00839734
0.00811943
0.00767255
0.00695817
0.00583387
0.00405501
0.000792426
0.0118526
0.0119209
0.0120079
0.0120973
0.0121571
0.0121304
0.011929
0.0114516
0.0106421
0.009618
0.00872911
0.00824438
0.00803774
0.00783388
0.00745518
0.00673763
0.00557367
0.00386203
0.000766848
0.0116971
0.0117811
0.0118726
0.0119539
0.0119953
0.0119436
0.0117129
0.0111967
0.0103354
0.00927324
0.00840061
0.00796885
0.00781846
0.00770288
0.00741889
0.00668524
0.0054233
0.0035989
0.000755922
0.0115805
0.0116864
0.0117888
0.0118689
0.0118978
0.0118265
0.0115753
0.0110427
0.0101775
0.00913291
0.00829075
0.00789152
0.00780598
0.00781482
0.00765775
0.00693378
0.00557862
0.00351009
0.000761218
0.0114932
0.0116279
0.011749
0.0118361
0.0118612
0.0117797
0.0115214
0.0109983
0.0101712
0.00918552
0.00839199
0.00803436
0.00803471
0.00817656
0.00810649
0.00740941
0.00601432
0.00375386
0.000785702
0.0114242
0.0115934
0.0117415
0.0118455
0.0118772
0.0117968
0.0115452
0.011052
0.0102914
0.00939368
0.00868091
0.00840525
0.00850986
0.00873102
0.0086363
0.00790943
0.00652808
0.00426678
0.000810938
0.0113594
0.0115686
0.011752
0.0118834
0.0119338
0.0118669
0.011635
0.0111857
0.010506
0.00972198
0.00913213
0.00897007
0.00916477
0.00938394
0.00918001
0.00835771
0.00689579
0.00458269
0.000837563
0.0112832
0.0115365
0.0117632
0.0119333
0.0120157
0.0119763
0.0117769
0.0113813
0.0107895
0.0101315
0.00967554
0.00962278
0.0098679
0.0100231
0.00965508
0.00871899
0.00718739
0.0047779
0.000867842
0.0111785
0.0114784
0.0117549
0.0119745
0.012103
0.0121066
0.0119531
0.0116181
0.0111145
0.0105707
0.0102198
0.0102284
0.0104686
0.0105162
0.0100117
0.00900884
0.00745776
0.00497789
0.00090298
0.0110282
0.0113739
0.0117043
0.0119825
0.0121706
0.0122331
0.0121401
0.0118726
0.0114526
0.0109953
0.0106966
0.0107007
0.0109001
0.0108597
0.010274
0.00924837
0.0076989
0.0051743
0.000933083
0.0108165
0.0112027
0.0115868
0.0119289
0.0121874
0.0123237
0.0123055
0.0121153
0.0117761
0.011381
0.0110885
0.0110331
0.0111657
0.0110705
0.0104205
0.00938368
0.00784942
0.00531565
0.000953309
0.0105304
0.0109464
0.0113783
0.0117838
0.0121182
0.0123385
0.0124082
0.0123083
0.0120528
0.011712
0.011412
0.0112809
0.0113359
0.0111505
0.010438
0.00939067
0.00788307
0.00537556
0.000963256
0.0101625
0.0105915
0.0110579
0.0115189
0.0119269
0.0122345
0.0124016
0.0124017
0.0122371
0.0119588
0.0116653
0.0114718
0.0114092
0.0111573
0.010375
0.00929621
0.00780899
0.00535616
0.000965954
0.00971292
0.0101318
0.0106124
0.0111123
0.0115824
0.0119718
0.0122364
0.0123408
0.0122753
0.0120755
0.0118111
0.0115713
0.0113877
0.0110776
0.010294
0.00915226
0.00764655
0.005262
0.000959408
0.00919146
0.00957142
0.0100386
0.0105525
0.011064
0.0115193
0.011871
0.0120771
0.0121174
0.012009
0.0117975
0.0115395
0.0112623
0.0108763
0.0101807
0.00903716
0.00744537
0.00510232
0.000939493
0.00861967
0.00892712
0.00934687
0.00984182
0.0103648
0.0108609
0.0112793
0.0115737
0.0117167
0.0117071
0.0115703
0.011338
0.011026
0.0106081
0.00997727
0.00898221
0.0073403
0.00494565
0.000917915
0.00803375
0.00823111
0.00856308
0.00899837
0.00949414
0.0099965
0.0104521
0.010811
0.0110394
0.0111253
0.0110769
0.0109115
0.0106386
0.0102548
0.00971739
0.00888697
0.00746571
0.00490593
0.000925466
0.00748993
0.0075374
0.00773458
0.00806126
0.00848121
0.00894478
0.00939745
0.00978731
0.0100737
0.0102362
0.0102733
0.0101953
0.0100143
0.00973586
0.00934461
0.00873514
0.00765076
0.00545537
0.00097431
0.00707371
0.00693179
0.00694415
0.00710517
0.00738901
0.00775384
0.00814853
0.00852223
0.00882704
0.00903354
0.0091332
0.00913401
0.00905439
0.00890845
0.00868878
0.00830356
0.00748806
0.00560947
0.001051
0.00691161
0.00656
0.00634718
0.00628291
0.00635773
0.00654413
0.00679996
0.00708364
0.00734241
0.00753486
0.00764549
0.00767943
0.00766382
0.00761948
0.00757367
0.00744084
0.00695195
0.00542766
0.00111461
0.00717957
0.00667273
0.00624782
0.00592947
0.00573175
0.00564725
0.00565221
0.00572322
0.00581584
0.00586938
0.00585877
0.00578004
0.00571927
0.00568973
0.0057319
0.00591856
0.0060344
0.00507754
0.00116403
0.00813274
0.00769811
0.00689142
0.00635714
0.0059424
0.00561991
0.00538663
0.00521694
0.00505947
0.00488229
0.00459659
0.00408968
0.00380092
0.00347028
0.00300927
0.00273948
0.00483989
0.00476798
0.00124141
)
;

boundaryField
{
    leftWall
    {
        type            nutkWallFunction;
        Cmu             0.09;
        kappa           0.41;
        E               9.8;
        value           nonuniform List<scalar> 
50
(
1.1543e-05
1.42886e-05
1.52499e-05
1.5524e-05
1.59106e-05
1.62532e-05
1.65546e-05
1.72988e-05
1.97528e-05
2.4922e-05
2.68383e-05
3.00021e-05
2.97551e-05
2.88117e-05
2.81021e-05
2.75221e-05
2.71163e-05
2.68105e-05
2.65213e-05
2.61938e-05
2.57999e-05
2.53345e-05
2.48087e-05
2.42429e-05
2.36616e-05
2.30909e-05
2.25556e-05
2.20787e-05
2.16799e-05
2.13744e-05
2.11726e-05
2.10791e-05
2.10932e-05
2.12098e-05
2.14211e-05
2.17173e-05
2.20877e-05
2.25209e-05
2.30057e-05
2.35335e-05
2.41009e-05
2.47124e-05
2.53833e-05
2.61413e-05
2.70318e-05
2.81357e-05
2.96213e-05
3.19061e-05
3.63792e-05
4.95495e-05
)
;
    }
    rightWall
    {
        type            nutkWallFunction;
        Cmu             0.09;
        kappa           0.41;
        E               9.8;
        value           nonuniform List<scalar> 
50
(
6.85775e-05
7.42614e-05
7.58512e-05
7.68768e-05
7.78687e-05
7.83902e-05
7.81857e-05
7.7537e-05
7.66297e-05
7.4821e-05
7.33611e-05
7.24682e-05
7.207e-05
7.18159e-05
7.11249e-05
6.92753e-05
6.60996e-05
6.37011e-05
6.34154e-05
6.25818e-05
6.32484e-05
6.6797e-05
7.11719e-05
7.57192e-05
7.92745e-05
8.25355e-05
8.52069e-05
8.59304e-05
8.48822e-05
8.25484e-05
8.12389e-05
8.13321e-05
8.52013e-05
8.74388e-05
8.99326e-05
9.23875e-05
9.53393e-05
9.80892e-05
0.00010016
0.000101551
0.000102184
0.000101491
0.000100089
9.84229e-05
0.000100494
0.000115372
0.000136306
0.000144715
0.000149577
0.000160217
)
;
    }
    lowerWall
    {
        type            nutkWallFunction;
        Cmu             0.09;
        kappa           0.41;
        E               9.8;
        value           nonuniform List<scalar> 
62
(
5.5623e-06
7.28944e-06
8.88879e-06
1.00148e-05
1.07902e-05
1.14157e-05
1.19437e-05
1.23994e-05
1.27995e-05
1.31501e-05
1.3452e-05
1.37028e-05
1.38969e-05
1.40232e-05
1.40578e-05
1.40079e-05
1.38395e-05
1.35045e-05
1.2973e-05
1.22024e-05
1.12e-05
1.00891e-05
9.20384e-06
9.20384e-06
2.46048e-05
2.79243e-05
3.09425e-05
3.3472e-05
3.59199e-05
3.8238e-05
4.16631e-05
4.61407e-05
4.24985e-05
3.96968e-05
3.91541e-05
7.00735e-06
4.32158e-05
5.02738e-05
5.52893e-05
5.70382e-05
5.59906e-05
5.59563e-05
5.29344e-05
7.00735e-06
1.02867e-05
1.39233e-05
1.90707e-05
2.49853e-05
3.01726e-05
3.47816e-05
3.89416e-05
4.28839e-05
4.69072e-05
5.12528e-05
5.56551e-05
5.89573e-05
5.98098e-05
5.89795e-05
5.44723e-05
4.71903e-05
4.04439e-05
3.1438e-05
)
;
    }
    atmosphere
    {
        type            calculated;
        value           nonuniform List<scalar> 
46
(
0.009
0.009
0.009
0.009
0.009
0.009
0.009
0.009
0.009
0.009
0.009
0.009
0.009
0.009
0.009
0.009
0.009
0.009
0.009
0.009
0.009
0.009
0.009
0.009
0.009
0.009
0.009
0.009
0.009
0.00689142
0.00635714
0.0059424
0.00561991
0.00538663
0.00521694
0.00505947
0.00488229
0.00459659
0.009
0.009
0.009
0.009
0.009
0.00483989
0.00476798
0.00124141
)
;
    }
    defaultFaces
    {
        type            empty;
    }
}


// ************************************************************************* //
