/*--------------------------------*- C++ -*----------------------------------*\
  =========                 |
  \\      /  F ield         | OpenFOAM: The Open Source CFD Toolbox
   \\    /   O peration     | Website:  https://openfoam.org
    \\  /    A nd           | Version:  7
     \\/     M anipulation  |
\*---------------------------------------------------------------------------*/
FoamFile
{
    version     2.0;
    format      ascii;
    class       volScalarField;
    location    "0.55";
    object      p;
}
// * * * * * * * * * * * * * * * * * * * * * * * * * * * * * * * * * * * * * //

dimensions      [1 -1 -2 0 0 0 0];

internalField   nonuniform List<scalar> 
2268
(
549.629
548.206
553.604
563.021
574.361
586.398
599.083
612.599
627.156
642.903
659.895
678.112
697.526
718.155
740.121
763.541
788.477
814.655
841.093
865.586
882.103
888.712
908.571
490.612
488.239
492.61
501.278
512.106
523.888
536.562
550.2
564.954
580.948
598.239
616.821
636.687
657.88
680.516
704.861
730.983
758.72
786.918
812.537
829.987
829.226
847.924
430.693
428.382
432.571
440.231
450.18
461.473
473.927
487.537
502.395
518.599
536.205
555.207
575.612
597.487
620.965
646.275
673.5
702.303
731.383
757.342
775.226
774.095
791.121
370.766
368.773
373.045
379.944
389.085
399.807
411.905
425.345
440.19
456.526
474.403
493.792
514.693
537.183
561.374
587.422
615.337
644.595
673.833
699.702
718.069
720.959
738.587
311.22
310.083
313.892
320.15
328.566
338.691
350.356
363.535
378.286
394.695
412.803
432.539
453.874
476.889
501.667
528.297
556.672
586.099
615.259
641.103
660.129
667.912
689.291
251.972
251.675
254.873
260.518
268.241
277.739
288.923
301.788
316.405
332.864
351.2
371.268
392.996
416.48
441.788
468.963
497.776
527.341
556.456
582.439
602.126
615.224
641.132
192.808
192.951
195.504
200.588
207.662
216.537
227.231
239.775
254.262
270.811
289.444
309.885
331.996
355.918
381.733
409.476
438.799
468.579
497.767
524.021
544.221
561.831
591.492
133.662
132.979
134.676
139.345
146.022
154.489
164.808
177.069
191.464
208.215
227.352
248.336
270.887
295.255
321.561
349.876
379.738
409.82
439.216
465.818
486.304
504.624
536.596
406.392
406.334
406.259
406.153
405.956
405.667
405.324
404.973
404.65
404.362
404.083
403.862
403.929
404.201
402.779
401.407
444.609
848.139
1574.1
406.324
406.27
406.22
406.127
405.93
405.632
405.283
404.933
404.615
404.337
404.068
403.744
403.292
402.504
401.032
400.475
413.514
658.372
1474.36
406.266
406.235
406.185
406.078
405.861
405.552
405.204
404.861
404.55
404.278
404.019
403.665
403.139
402.517
402.242
403.696
410.77
491.336
1251.23
406.222
406.221
406.146
406
405.755
405.439
405.097
404.761
404.45
404.167
403.882
403.499
402.982
402.471
402.283
403.873
410.178
420.235
1008.75
406.189
406.228
406.1
405.908
405.638
405.317
404.979
404.646
404.33
404.031
403.723
403.339
402.849
402.391
402.215
403.766
411.018
386.06
847.216
406.147
406.256
406.044
405.807
405.519
405.197
404.862
404.529
404.207
403.898
403.584
403.213
402.748
402.339
402.192
403.58
421.174
410.278
775.354
406.044
406.251
405.965
405.695
405.401
405.082
404.75
404.416
404.092
403.78
403.471
403.122
402.689
402.379
402.431
403.255
431.65
460.51
769.56
405.664
405.996
405.798
405.566
405.285
404.976
404.647
404.314
403.991
403.683
403.388
403.066
402.68
402.616
404.603
407.295
451.66
517.617
792.063
54.0543
51.9536
52.8569
56.367
61.1823
67.2156
74.7335
84.1328
96.0085
111.085
129.775
151.273
174.61
199.85
227.098
256.455
287.205
317.78
347.668
375.138
396.379
409.758
415.621
1.64773
1.98075
2.67278
3.62435
4.89689
6.62131
8.90801
11.9455
16.0781
21.8544
29.9434
40.7191
55.5555
74.4775
97.9347
128.216
162.409
193.472
224.327
255.528
281.971
303.218
325.16
-0.19898
-0.151742
-0.153062
-0.155285
-0.145814
-0.13937
-0.139161
-0.141009
-0.140681
-0.134844
-0.108912
0.135111
2.60276
7.21448
15.2676
30.1785
52.0555
73.8984
103.092
139.043
169.061
195.954
223.159
-0.321005
-0.317223
-0.30711
-0.299159
-0.291688
-0.286327
-0.283489
-0.282268
-0.281395
-0.278517
-0.26747
-0.241378
-0.230428
-0.271251
-0.307261
-0.0680604
2.07442
7.95207
20.8909
42.3683
64.3774
90.5126
118.882
-0.46064
-0.457989
-0.452024
-0.444661
-0.43864
-0.434053
-0.430648
-0.427891
-0.424891
-0.420372
-0.413359
-0.408082
-0.421105
-0.427707
-0.42171
-0.415122
-0.47731
-0.683518
-0.658641
1.6338
8.95563
22.0681
38.5836
-0.595971
-0.595037
-0.592124
-0.587716
-0.583449
-0.579723
-0.576502
-0.573488
-0.570149
-0.565915
-0.560831
-0.557382
-0.561012
-0.56828
-0.57208
-0.577738
-0.590095
-0.600851
-0.642959
-0.793595
-0.96074
-0.532139
2.31636
-0.735935
-0.735154
-0.73327
-0.730291
-0.727154
-0.724157
-0.721335
-0.718568
-0.715641
-0.712395
-0.709093
-0.70716
-0.709101
-0.714247
-0.72077
-0.730607
-0.746108
-0.762068
-0.761016
-0.757766
-0.770846
-0.81871
-0.906478
-0.875667
-0.875315
-0.874264
-0.872387
-0.87018
-0.86787
-0.865532
-0.863164
-0.860737
-0.858295
-0.856153
-0.855176
-0.856517
-0.860057
-0.865453
-0.87373
-0.886363
-0.901255
-0.913474
-0.924673
-0.928116
-0.910646
-0.898989
-1.01594
-1.01586
-1.01544
-1.01433
-1.01283
-1.0111
-1.00922
-1.00726
-1.00526
-1.00336
-1.00183
-1.0012
-1.00205
-1.00447
-1.00845
-1.01445
-1.02299
-1.03322
-1.04369
-1.05468
-1.06225
-1.06236
-1.06789
-1.15631
-1.15662
-1.15672
-1.15618
-1.15519
-1.15391
-1.15242
-1.15081
-1.14917
-1.14762
-1.14639
-1.1458
-1.14621
-1.14774
-1.15049
-1.15464
-1.16029
-1.16696
-1.17392
-1.18105
-1.18704
-1.19079
-1.19491
-1.29665
-1.29738
-1.29794
-1.29784
-1.29725
-1.29632
-1.29516
-1.29384
-1.29245
-1.29113
-1.29003
-1.28937
-1.28936
-1.29016
-1.29184
-1.2945
-1.29813
-1.30243
-1.30693
-1.31136
-1.31505
-1.31759
-1.31946
-1.43691
-1.43802
-1.43897
-1.43923
-1.43896
-1.43832
-1.43742
-1.43633
-1.43514
-1.43395
-1.43289
-1.4321
-1.43174
-1.4319
-1.43269
-1.43416
-1.43627
-1.43887
-1.44165
-1.44433
-1.44641
-1.44763
-1.44803
-1.57709
-1.57848
-1.57975
-1.58031
-1.5803
-1.57991
-1.57922
-1.57831
-1.57727
-1.57617
-1.5751
-1.57417
-1.57349
-1.57314
-1.57321
-1.57374
-1.57472
-1.57606
-1.57755
-1.57897
-1.57991
-1.58014
-1.57947
-1.71719
-1.71877
-1.72027
-1.72106
-1.72129
-1.7211
-1.72059
-1.71983
-1.7189
-1.71785
-1.71676
-1.71571
-1.71477
-1.71402
-1.71353
-1.71334
-1.71348
-1.7139
-1.71446
-1.71496
-1.71507
-1.71456
-1.71314
-1.85727
-1.85893
-1.86056
-1.86153
-1.86194
-1.86193
-1.86158
-1.86095
-1.8601
-1.8591
-1.85799
-1.85683
-1.8557
-1.85464
-1.85374
-1.85304
-1.85258
-1.85234
-1.85224
-1.85212
-1.85168
-1.85069
-1.84884
-1.99735
-1.999
-2.00067
-2.00176
-2.00232
-2.00246
-2.00224
-2.00172
-2.00095
-1.99999
-1.99887
-1.99765
-1.99638
-1.99512
-1.99394
-1.99289
-1.99202
-1.99136
-1.99084
-1.99034
-1.98959
-1.98837
-1.98639
-2.13745
-2.13902
-2.14068
-2.14184
-2.1425
-2.14275
-2.14264
-2.14222
-2.14152
-2.1406
-2.13949
-2.13825
-2.13691
-2.13553
-2.13419
-2.13293
-2.13184
-2.13093
-2.13019
-2.12951
-2.12867
-2.12746
-2.12562
-2.2776
-2.27905
-2.28063
-2.28181
-2.28254
-2.28288
-2.28286
-2.28252
-2.28189
-2.28102
-2.27995
-2.2787
-2.27735
-2.27593
-2.27452
-2.27319
-2.27201
-2.27102
-2.27023
-2.26956
-2.26882
-2.26782
-2.26636
-2.41779
-2.4191
-2.42059
-2.42175
-2.42252
-2.42292
-2.42297
-2.42269
-2.42213
-2.42132
-2.42029
-2.41909
-2.41776
-2.41637
-2.41498
-2.41368
-2.41253
-2.4116
-2.41092
-2.41041
-2.40993
-2.40932
-2.40843
-2.55804
-2.55921
-2.56058
-2.5617
-2.56248
-2.56291
-2.56302
-2.5628
-2.56231
-2.56156
-2.5606
-2.55947
-2.55821
-2.5569
-2.5556
-2.55441
-2.5534
-2.55265
-2.55219
-2.55198
-2.5519
-2.55183
-2.55167
-2.69834
-2.69938
-2.70063
-2.70169
-2.70246
-2.70292
-2.70306
-2.7029
-2.70247
-2.70179
-2.70091
-2.69987
-2.69872
-2.69754
-2.69639
-2.69538
-2.69459
-2.6941
-2.69396
-2.69416
-2.69459
-2.69517
-2.69584
-2.8387
-2.83962
-2.84076
-2.84176
-2.8425
-2.84296
-2.84313
-2.84301
-2.84264
-2.84205
-2.84126
-2.84033
-2.83932
-2.83829
-2.83734
-2.83656
-2.83604
-2.83588
-2.83614
-2.83681
-2.83782
-2.83911
-2.84068
-2.97911
-2.97994
-2.98098
-2.98192
-2.98263
-2.98308
-2.98326
-2.98318
-2.98287
-2.98235
-2.98166
-2.98086
-2.97999
-2.97915
-2.97842
-2.9779
-2.97769
-2.9779
-2.97858
-2.97975
-2.98136
-2.98338
-2.98584
-3.11958
-3.12034
-3.1213
-3.12218
-3.12285
-3.12328
-3.12346
-3.12341
-3.12315
-3.1227
-3.12212
-3.12144
-3.12074
-3.12009
-3.11959
-3.11934
-3.11945
-3.12003
-3.12113
-3.1228
-3.12499
-3.1277
-3.13099
-3.26012
-3.26082
-3.26171
-3.26254
-3.26317
-3.26358
-3.26376
-3.26373
-3.2635
-3.26313
-3.26264
-3.26208
-3.26154
-3.26108
-3.2608
-3.26081
-3.26123
-3.26215
-3.26366
-3.26578
-3.2685
-3.27182
-3.27583
-3.40072
-3.40138
-3.40222
-3.40301
-3.4036
-3.40398
-3.40415
-3.40413
-3.40394
-3.40362
-3.40321
-3.40277
-3.40237
-3.40208
-3.40201
-3.40226
-3.40295
-3.40417
-3.40602
-3.40852
-3.41168
-3.4155
-3.42008
-3.54138
-3.542
-3.54281
-3.54357
-3.54413
-3.54448
-3.54464
-3.54462
-3.54445
-3.54418
-3.54384
-3.5435
-3.54322
-3.54309
-3.54319
-3.54364
-3.54454
-3.546
-3.54811
-3.5509
-3.55437
-3.55854
-3.5635
-3.68211
-3.6827
-3.68349
-3.68422
-3.68475
-3.68508
-3.68522
-3.6852
-3.68504
-3.6848
-3.68452
-3.68426
-3.68408
-3.68407
-3.68431
-3.68491
-3.68597
-3.68759
-3.68986
-3.69281
-3.69646
-3.7008
-3.70594
-3.8229
-3.82346
-3.82424
-3.82495
-3.82545
-3.82576
-3.82588
-3.82585
-3.82571
-3.82549
-3.82525
-3.82505
-3.82495
-3.82503
-3.82537
-3.82606
-3.82721
-3.82891
-3.83124
-3.83423
-3.83788
-3.8422
-3.8473
-3.96375
-3.96429
-3.96506
-3.96575
-3.96623
-3.96651
-3.96662
-3.96658
-3.96643
-3.96623
-3.96602
-3.96587
-3.96582
-3.96596
-3.96636
-3.96711
-3.96829
-3.96998
-3.97225
-3.97514
-3.97864
-3.98275
-3.98758
-4.10465
-4.10518
-4.10594
-4.10662
-4.10708
-4.10734
-4.10742
-4.10737
-4.10722
-4.10703
-4.10684
-4.10671
-4.1067
-4.10687
-4.1073
-4.10806
-4.10921
-4.11082
-4.11295
-4.11562
-4.11882
-4.12254
-4.12688
-4.2456
-4.24612
-4.24687
-4.24754
-4.24798
-4.24822
-4.24829
-4.24822
-4.24807
-4.24787
-4.24769
-4.24757
-4.24758
-4.24777
-4.2482
-4.24893
-4.25001
-4.25149
-4.2534
-4.25575
-4.25852
-4.2617
-4.26537
-4.38658
-4.3871
-4.38785
-4.38851
-4.38894
-4.38916
-4.38921
-4.38913
-4.38896
-4.38877
-4.38859
-4.38847
-4.38848
-4.38867
-4.38908
-4.38976
-4.39074
-4.39204
-4.39369
-4.39566
-4.39791
-4.40044
-4.40331
-4.5276
-4.52816
-4.52889
-4.52955
-4.52996
-4.53016
-4.53019
-4.53009
-4.52992
-4.52971
-4.52953
-4.52941
-4.52941
-4.52957
-4.52995
-4.53056
-4.53142
-4.53254
-4.5339
-4.53545
-4.53716
-4.53898
-4.54097
-4.66862
-4.66931
-4.67002
-4.67066
-4.67105
-4.67122
-4.67122
-4.67111
-4.67092
-4.67071
-4.67051
-4.67038
-4.67036
-4.6705
-4.67082
-4.67135
-4.67209
-4.67302
-4.6741
-4.67525
-4.67641
-4.67753
-4.67865
-4.80964
-4.8106
-4.81128
-4.81188
-4.81222
-4.81234
-4.81231
-4.81218
-4.81198
-4.81176
-4.81155
-4.8114
-4.81135
-4.81145
-4.81171
-4.81215
-4.81277
-4.81352
-4.81434
-4.81513
-4.81581
-4.8163
-4.81661
-4.95066
-4.9521
-4.95272
-4.95322
-4.95349
-4.95354
-4.95347
-4.95331
-4.9531
-4.95287
-4.95265
-4.95248
-4.95239
-4.95243
-4.95262
-4.95297
-4.95347
-4.95406
-4.95466
-4.95515
-4.95543
-4.95542
-4.95507
-5.09165
-5.09385
-5.09442
-5.09475
-5.09487
-5.09484
-5.09471
-5.09452
-5.0943
-5.09406
-5.09383
-5.09364
-5.09351
-5.09348
-5.09359
-5.09383
-5.0942
-5.09464
-5.09506
-5.09534
-5.09535
-5.09499
-5.09419
-5.2327
-5.23587
-5.23641
-5.23644
-5.23634
-5.2362
-5.23601
-5.23581
-5.23558
-5.23534
-5.23509
-5.23487
-5.23469
-5.23459
-5.2346
-5.23472
-5.23496
-5.23525
-5.23553
-5.23566
-5.23552
-5.23499
-5.234
-5.37426
-5.37827
-5.37872
-5.37801
-5.37757
-5.37733
-5.37712
-5.37692
-5.3767
-5.37645
-5.3762
-5.37594
-5.37571
-5.37554
-5.37543
-5.37543
-5.37551
-5.37565
-5.37579
-5.37583
-5.37564
-5.37512
-5.37422
-5.51652
-5.52233
-5.52196
-5.51949
-5.51854
-5.51826
-5.51808
-5.5179
-5.51769
-5.51745
-5.51717
-5.51688
-5.5166
-5.51633
-5.51611
-5.51595
-5.51586
-5.51583
-5.51582
-5.51576
-5.51557
-5.51517
-5.51446
-5.65549
-5.67067
-5.6677
-5.66367
-5.66262
-5.66233
-5.66214
-5.66195
-5.66172
-5.66145
-5.66113
-5.66078
-5.66041
-5.66002
-5.65964
-5.65927
-5.65894
-5.65865
-5.6584
-5.65817
-5.65792
-5.65762
-5.65722
391.469
400.019
409.92
409.039
336.532
343.85
349.772
356.126
239.424
249.849
260.75
274
136.501
150.422
166.263
182.606
48.4877
56.9232
68.7941
83.538
6.57316
10.242
14.9253
21.0184
-0.981903
-1.10158
-1.19707
-1.0303
-0.886717
-0.882176
-0.883943
-0.907124
-1.0786
-1.08007
-1.06991
-1.04893
-1.19763
-1.1993
-1.19968
-1.19859
-1.32083
-1.32189
-1.32215
-1.32228
-1.44883
-1.44947
-1.44923
-1.44836
-1.5796
-1.57983
-1.57921
-1.57775
-1.71279
-1.71273
-1.71181
-1.71002
-1.84827
-1.8481
-1.84707
-1.84514
-1.98586
-1.98579
-1.98489
-1.9831
-2.12537
-2.12559
-2.12505
-2.12363
-2.26657
-2.26722
-2.26722
-2.26636
-2.40925
-2.41043
-2.41107
-2.41089
-2.55322
-2.55499
-2.55632
-2.55687
-2.69821
-2.70059
-2.70264
-2.70392
-2.84387
-2.84687
-2.84961
-2.85162
-2.98982
-2.9934
-2.99679
-2.99946
-3.13568
-3.13975
-3.1437
-3.14696
-3.2811
-3.28556
-3.28994
-3.29366
-3.42576
-3.43049
-3.43517
-3.4392
-3.56943
-3.5743
-3.57912
-3.5833
-3.71193
-3.71681
-3.72163
-3.72582
-3.85316
-3.85792
-3.86261
-3.86668
-3.9931
-3.99761
-4.00207
-4.00593
-4.13185
-4.13599
-4.14011
-4.14369
-4.26962
-4.27325
-4.27692
-4.28015
-4.40668
-4.40969
-4.4128
-4.41561
-4.54337
-4.54566
-4.54812
-4.55042
-4.68006
-4.68158
-4.68331
-4.68503
-4.8171
-4.81786
-4.81883
-4.81994
-4.95478
-4.95487
-4.95514
-4.95562
-5.09334
-5.09291
-5.09261
-5.09253
-5.2329
-5.23216
-5.23149
-5.23099
-5.37328
-5.37255
-5.37176
-5.37101
-5.51358
-5.51296
-5.51231
-5.51167
-5.65671
-5.65635
-5.65594
-5.65543
395.774
404.73
405.51
405.365
405.115
404.828
404.508
404.178
403.861
403.571
403.316
403.046
402.749
400.752
394.759
421.467
491.119
603.272
832.502
376.648
404.238
405.352
405.239
404.957
404.7
404.393
404.068
403.773
403.537
403.389
403.152
400.454
386.89
411.067
463.146
537.598
661.62
857.439
306.274
374.527
404.73
405.028
404.787
404.656
404.369
404.052
403.785
403.586
403.131
399.737
379.174
394.917
440.617
491.621
558.247
677.275
845.673
211.437
275.919
342.755
382.366
403.902
404.314
403.906
403.643
403.438
403.015
397.915
370.74
371.465
414.27
461.1
500.509
550.582
652.669
801.091
110.898
154.933
207.221
264.966
326.64
360.354
385.778
393.585
393
383.605
354.297
345.857
375.919
432.031
480.921
502.386
519.816
590.864
716.714
32.4901
49.8279
76.3176
112.847
156.322
202.481
252.565
282.458
290.145
286.702
290.921
320.289
369.695
452.273
517.217
505.02
468.126
494.195
594.344
-0.00191794
3.82372
10.418
18.3447
29.2789
45.0988
69.4574
93.7963
116.238
148.745
197.023
248.925
350.039
474.595
521.009
465.112
380.082
367.151
439.759
-1.02656
-1.2501
-1.50066
-1.92387
-1.58851
-0.427952
2.43792
7.90859
17.4568
36.3524
67.5441
122.509
266.335
412.544
430.341
341.65
268.334
230.105
276.679
-1.01581
-1.01374
-1.06474
-1.25013
-1.41722
-1.48976
-1.51339
-1.43247
-1.0426
0.0635001
7.64562
43.513
141.697
243.099
275.738
248.137
189.905
137.852
160.533
-1.19449
-1.18913
-1.1461
-1.05536
-1.00044
-0.954309
-0.899826
-0.756017
-0.425765
-0.0349158
0.798522
7.08256
36.557
100.05
199.424
206.679
147.396
114.159
117.346
-1.32168
-1.31642
-1.29564
-1.25507
-1.21407
-1.15658
-1.06451
-0.896868
-0.636218
-0.378475
-0.432548
-0.633549
4.32964
36.4897
140.322
162.325
126.879
112.644
110.28
-1.44468
-1.43409
-1.41508
-1.38629
-1.34857
-1.29195
-1.20585
-1.07719
-0.905177
-0.739382
-0.804818
-1.35919
-1.43536
7.42073
63.4205
118.976
116.943
109.211
106.475
-1.57235
-1.5581
-1.53575
-1.50415
-1.46246
-1.40558
-1.32943
-1.23476
-1.13919
-1.09831
-1.22241
-1.6046
-2.11258
-0.508939
12.7121
66.2988
102.447
103.27
101.311
-1.70393
-1.68814
-1.66441
-1.63198
-1.59046
-1.53802
-1.47473
-1.4078
-1.36243
-1.3943
-1.56582
-1.85383
-2.19191
-2.11349
-0.73901
20.8511
81.5068
95.9903
95.6707
-1.83891
-1.82292
-1.79961
-1.7688
-1.73081
-1.68577
-1.63622
-1.59123
-1.57286
-1.62135
-1.77466
-2.00304
-2.21849
-2.29066
-2.37867
-1.53498
45.8784
83.7678
87.3076
-1.97717
-1.96184
-1.93996
-1.91184
-1.87843
-1.84099
-1.80299
-1.77257
-1.765
-1.80273
-1.90434
-2.05286
-2.17602
-2.19506
-2.20971
-3.07793
13.6438
63.7908
76.0689
-2.11839
-2.10438
-2.08459
-2.05966
-2.03092
-2.00013
-1.97053
-1.94791
-1.94095
-1.95882
-2.006
-2.07411
-2.12806
-2.12896
-2.08762
-1.92812
2.85205
33.0405
65.5236
-2.2621
-2.24988
-2.23262
-2.21112
-2.18684
-2.16149
-2.13752
-2.11805
-2.10643
-2.10356
-2.10583
-2.10735
-2.1002
-2.08052
-2.05014
-2.05333
-2.54784
5.29535
43.7751
-2.40781
-2.39768
-2.3832
-2.3652
-2.34502
-2.32411
-2.30388
-2.28529
-2.26785
-2.2477
-2.21616
-2.16669
-2.1033
-2.04881
-2.00984
-2.02063
-1.86479
-0.988502
25.926
-2.55507
-2.54716
-2.53556
-2.521
-2.50463
-2.4875
-2.47025
-2.45235
-2.43109
-2.3997
-2.34665
-2.26325
-2.15033
-2.04577
-1.97673
-2.01264
-1.72447
-0.423297
9.71239
-2.70342
-2.69776
-2.689
-2.67777
-2.66499
-2.65144
-2.63731
-2.62147
-2.60048
-2.56687
-2.50808
-2.41356
-2.29014
-2.14307
-1.99389
-2.06344
-2.15261
-2.46756
-0.990941
-2.85238
-2.84892
-2.84288
-2.8348
-2.82545
-2.8155
-2.8052
-2.79368
-2.77836
-2.75405
-2.71175
-2.64731
-2.58281
-2.45021
-2.06915
-2.17917
-3.02743
-4.94275
-1.12376
-3.00141
-3
-2.99649
-2.99132
-2.98521
-2.97892
-2.97313
-2.96805
-2.96347
-2.95917
-2.95571
-2.96739
-3.02784
-3.01578
-2.74043
-4.14228
-7.27154
-2.17122
8.17337
-3.14997
-3.15039
-3.14911
-3.14654
-3.14333
-3.14048
-3.13927
-3.1413
-3.14904
-3.1674
-3.20621
-3.29018
-3.43065
-3.49545
-3.65501
-5.91487
-4.43029
8.96983
28.985
-3.29754
-3.2995
-3.30009
-3.29967
-3.29888
-3.29885
-3.30135
-3.30898
-3.32578
-3.35876
-3.41909
-3.52776
-3.67464
-3.76803
-4.05627
-4.73868
-0.872988
15.6141
21.0174
-3.4437
-3.44683
-3.44886
-3.45008
-3.45108
-3.45299
-3.45776
-3.46829
-3.4887
-3.52539
-3.58719
-3.68579
-3.80171
-3.9217
-4.20148
-4.35981
-2.73393
11.3712
18.8046
-3.58817
-3.59207
-3.59509
-3.59741
-3.59956
-3.60257
-3.60821
-3.61927
-3.63895
-3.67198
-3.72379
-3.79831
-3.88743
-3.99306
-4.14161
-4.33882
-4.93214
10.4257
18.4835
-3.7308
-3.7351
-3.73866
-3.74163
-3.74441
-3.74792
-3.75349
-3.76391
-3.78133
-3.80838
-3.84696
-3.89589
-3.94671
-3.98648
-4.04622
-4.38188
-4.77625
12.1089
20.8246
-3.87158
-3.87595
-3.87972
-3.88296
-3.88604
-3.88978
-3.89525
-3.90491
-3.92042
-3.94288
-3.9719
-4.00071
-4.01657
-4.00414
-3.96335
-3.8929
-3.11282
13.2775
24.4999
-4.0106
-4.01481
-4.01854
-4.02184
-4.02507
-4.02909
-4.03518
-4.04448
-4.05871
-4.07933
-4.10658
-4.12924
-4.11997
-4.03121
-3.92498
-3.25289
-0.052021
13.6436
27.7105
-4.14802
-4.15194
-4.15553
-4.15884
-4.16225
-4.16683
-4.17449
-4.18504
-4.19784
-4.21775
-4.25268
-4.2927
-4.28111
-4.01835
-3.88214
-2.81102
-0.768436
11.7829
28.2564
-4.28409
-4.28763
-4.29107
-4.29447
-4.29831
-4.30394
-4.31433
-4.32986
-4.34133
-4.36095
-4.41302
-4.50345
-4.59168
-4.31139
-3.43939
-2.42628
-5.46998
6.47503
24.4429
-4.41909
-4.42222
-4.42552
-4.42912
-4.43365
-4.44091
-4.45505
-4.47732
-4.49351
-4.52145
-4.58844
-4.70558
-4.88868
-5.13095
-4.3188
-2.63198
-10.4822
-2.58399
15.5666
-4.55338
-4.55604
-4.55916
-4.56291
-4.56809
-4.5765
-4.59295
-4.61636
-4.64974
-4.69561
-4.76886
-4.88005
-5.0476
-5.26304
-5.14047
-4.40973
-10.7822
-12.5183
2.15795
-4.68737
-4.68948
-4.69228
-4.69594
-4.70109
-4.70945
-4.72433
-4.74643
-4.7886
-4.84532
-4.91497
-5.00511
-5.09311
-5.18111
-5.17101
-5.07944
-4.35322
-13.7952
-10.1895
-4.82157
-4.82303
-4.82536
-4.82866
-4.83333
-4.84065
-4.85287
-4.87179
-4.90431
-4.95919
-5.02264
-5.08843
-5.13526
-5.16399
-5.14212
-5.04755
-5.3707
-9.45758
-12.1511
-4.9565
-4.95726
-4.95898
-4.9617
-4.96558
-4.97142
-4.98077
-4.99521
-5.01782
-5.05478
-5.10653
-5.15396
-5.18737
-5.20397
-5.17987
-5.08957
-5.04381
-5.74659
-5.27043
-5.09267
-5.09271
-5.09375
-5.09577
-5.09869
-5.1029
-5.1093
-5.11899
-5.1337
-5.15549
-5.18573
-5.22076
-5.2519
-5.26722
-5.25188
-5.19361
-5.113
-5.26887
-4.81675
-5.23046
-5.2298
-5.23024
-5.23163
-5.23363
-5.23632
-5.24009
-5.24542
-5.2532
-5.26461
-5.281
-5.30296
-5.32597
-5.3422
-5.34381
-5.32617
-5.28979
-5.27303
-5.00037
-5.36987
-5.36853
-5.36868
-5.3699
-5.37137
-5.37305
-5.37497
-5.37703
-5.37923
-5.3818
-5.38598
-5.39528
-5.40984
-5.42579
-5.4414
-5.45148
-5.4415
-5.3386
-5.17495
-5.51051
-5.5082
-5.50863
-5.51091
-5.51268
-5.5142
-5.51544
-5.51585
-5.51436
-5.50994
-5.50212
-5.50048
-5.50773
-5.518
-5.5308
-5.56187
-5.61498
-5.49001
-5.51583
-5.65425
-5.65036
-5.65169
-5.65515
-5.65729
-5.65898
-5.66025
-5.66037
-5.65777
-5.64984
-5.63092
-5.61751
-5.63151
-5.647
-5.69205
-5.84668
-5.89921
-5.81859
-6.15053
)
;

boundaryField
{
    leftWall
    {
        type            calculated;
        value           nonuniform List<scalar> 
50
(
549.629
490.612
430.693
370.766
311.22
251.972
192.808
133.662
54.0543
1.64773
-0.19898
-0.321005
-0.46064
-0.595971
-0.735935
-0.875667
-1.01594
-1.15631
-1.29665
-1.43691
-1.57709
-1.71719
-1.85727
-1.99735
-2.13745
-2.2776
-2.41779
-2.55804
-2.69834
-2.8387
-2.97911
-3.11958
-3.26012
-3.40072
-3.54138
-3.68211
-3.8229
-3.96375
-4.10465
-4.2456
-4.38658
-4.5276
-4.66862
-4.80964
-4.95066
-5.09165
-5.2327
-5.37426
-5.51652
-5.65549
)
;
    }
    rightWall
    {
        type            calculated;
        value           nonuniform List<scalar> 
50
(
1574.1
1474.36
1251.23
1008.75
847.216
775.354
769.56
792.063
832.502
857.439
845.673
801.091
716.714
594.344
439.759
276.679
160.533
117.346
110.28
106.475
101.311
95.6707
87.3076
76.0689
65.5236
43.7751
25.926
9.71239
-0.990941
-1.12376
8.17337
28.985
21.0174
18.8046
18.4835
20.8246
24.4999
27.7105
28.2564
24.4429
15.5666
2.15795
-10.1895
-12.1511
-5.27043
-4.81675
-5.00037
-5.17495
-5.51583
-6.15053
)
;
    }
    lowerWall
    {
        type            calculated;
        value           nonuniform List<scalar> 
62
(
579.059
577.635
583.033
592.45
603.791
615.827
628.513
642.028
656.586
672.333
689.325
707.541
726.955
747.584
769.55
792.97
817.906
844.085
870.522
895.005
910.242
916.691
937.171
908.571
847.924
791.121
738.587
689.291
641.132
591.492
536.596
454.041
462.592
472.511
471.636
406.392
406.324
406.266
406.222
406.189
406.147
406.044
405.664
406.421
406.363
406.288
406.182
405.985
405.696
405.353
405.003
404.68
404.393
404.118
403.907
403.998
404.334
402.987
401.885
447.258
850.852
1577.26
)
;
    }
    atmosphere
    {
        type            calculated;
        value           nonuniform List<scalar> 
46
(
-5.72949
-5.73632
-5.73747
-5.73751
-5.7374
-5.73723
-5.73702
-5.73678
-5.73649
-5.73617
-5.7358
-5.73539
-5.73495
-5.73447
-5.73397
-5.73346
-5.73295
-5.73246
-5.732
-5.7316
-5.73126
-5.73097
-5.73071
-5.7305
-5.73031
-5.73005
-5.72975
-5.72931
-5.72905
-5.72904
-5.72904
-5.72904
-5.72904
-5.72904
-5.72904
-5.72904
-5.72904
-5.72904
-5.72918
-5.73113
-5.73584
-5.74159
-5.73694
-5.72904
-5.73008
-7.70069
)
;
    }
    defaultFaces
    {
        type            empty;
    }
}


// ************************************************************************* //
