/*--------------------------------*- C++ -*----------------------------------*\
  =========                 |
  \\      /  F ield         | OpenFOAM: The Open Source CFD Toolbox
   \\    /   O peration     | Website:  https://openfoam.org
    \\  /    A nd           | Version:  7
     \\/     M anipulation  |
\*---------------------------------------------------------------------------*/
FoamFile
{
    version     2.0;
    format      ascii;
    class       surfaceScalarField;
    location    "0.55";
    object      phi;
}
// * * * * * * * * * * * * * * * * * * * * * * * * * * * * * * * * * * * * * //

dimensions      [0 3 -1 0 0 0 0];

internalField   nonuniform List<scalar> 
4432
(
-4.98247e-06
4.98247e-06
-7.08425e-06
2.10178e-06
-5.91516e-06
-1.16909e-06
-3.47033e-06
-2.44483e-06
-7.49955e-07
-2.72038e-06
1.86998e-06
-2.61994e-06
4.26917e-06
-2.39919e-06
6.42585e-06
-2.15668e-06
8.35281e-06
-1.92696e-06
1.00677e-05
-1.71493e-06
1.15764e-05
-1.50864e-06
1.28627e-05
-1.2863e-06
1.3885e-05
-1.02233e-06
1.4564e-05
-6.79016e-07
1.47311e-05
-1.67078e-07
1.40924e-05
6.38683e-07
1.23336e-05
1.75883e-06
9.11881e-06
3.21478e-06
4.29721e-06
4.82159e-06
-1.94723e-06
6.24445e-06
-8.27185e-06
6.32461e-06
-1.02679e-05
1.99602e-06
-1.02679e-05
-3.75808e-06
8.74055e-06
-3.7728e-06
2.1165e-06
-2.20222e-06
-2.73967e-06
1.58676e-08
-4.66292e-06
2.3883e-06
-5.09282e-06
4.68118e-06
-4.91283e-06
6.78624e-06
-4.50425e-06
8.67514e-06
-4.04559e-06
1.03512e-05
-3.60305e-06
1.18248e-05
-3.18852e-06
1.30965e-05
-2.78028e-06
1.41473e-05
-2.33716e-06
1.49398e-05
-1.81481e-06
1.54168e-05
-1.15596e-06
1.55072e-05
-2.57497e-07
1.51112e-05
1.03463e-06
1.40054e-05
2.86466e-06
1.18959e-05
5.32428e-06
8.47688e-06
8.2406e-06
3.75045e-06
1.09709e-05
-1.44914e-06
1.15242e-05
-4.19612e-06
4.743e-06
-1.4464e-05
-1.8788e-06
1.06194e-05
-1.05159e-06
1.28929e-06
5.74233e-07
-4.3655e-06
2.58151e-06
-6.6702e-06
4.66448e-06
-7.17579e-06
6.64684e-06
-6.89518e-06
8.46083e-06
-6.31824e-06
1.00856e-05
-5.67035e-06
1.15218e-05
-5.03927e-06
1.27748e-05
-4.44152e-06
1.38409e-05
-3.84638e-06
1.46991e-05
-3.1953e-06
1.53149e-05
-2.43067e-06
1.56446e-05
-1.48567e-06
1.564e-05
-2.52849e-07
1.52435e-05
1.43108e-06
1.43563e-05
3.75185e-06
1.28487e-05
6.83193e-06
1.05968e-05
1.04925e-05
7.63498e-06
1.39327e-05
4.22042e-06
1.49388e-05
1.12838e-06
7.83504e-06
-1.33356e-05
-7.20864e-08
1.06914e-05
1.3292e-06
-1.12e-07
3.039e-06
-6.07531e-06
4.86685e-06
-8.49804e-06
6.65617e-06
-8.96512e-06
8.32579e-06
-8.5648e-06
9.8471e-06
-7.83955e-06
1.12093e-05
-7.03259e-06
1.24111e-05
-6.24104e-06
1.34534e-05
-5.48384e-06
1.43291e-05
-4.72209e-06
1.50149e-05
-3.88106e-06
1.54791e-05
-2.89491e-06
1.56907e-05
-1.69723e-06
1.56232e-05
-1.85321e-07
1.52527e-05
1.80156e-06
1.45447e-05
4.45983e-06
1.34579e-05
7.91878e-06
1.19773e-05
1.1973e-05
1.01284e-05
1.57816e-05
7.77872e-06
1.72884e-05
4.53844e-06
1.10753e-05
-8.79716e-06
1.8508e-06
8.84064e-06
3.57596e-06
-1.83716e-06
5.34304e-06
-7.84239e-06
6.97396e-06
-1.01289e-05
8.45552e-06
-1.04467e-05
9.80642e-06
-9.9157e-06
1.1036e-05
-9.06916e-06
1.21398e-05
-8.13636e-06
1.31124e-05
-7.21365e-06
1.39508e-05
-6.32218e-06
1.46453e-05
-5.41662e-06
1.51707e-05
-4.40648e-06
1.5498e-05
-3.2222e-06
1.56078e-05
-1.80707e-06
1.54947e-05
-7.22265e-08
1.51648e-05
2.13152e-06
1.4623e-05
5.0016e-06
1.38721e-05
8.66968e-06
1.29451e-05
1.29e-05
1.18404e-05
1.68863e-05
1.02323e-05
1.88965e-05
6.98569e-06
1.4322e-05
-1.81147e-06
3.32566e-06
5.51498e-06
5.67498e-06
-4.18648e-06
7.49853e-06
-9.66594e-06
8.89254e-06
-1.1523e-05
1.00441e-05
-1.15982e-05
1.10764e-05
-1.0948e-05
1.20249e-05
-1.00177e-05
1.28821e-05
-8.99359e-06
1.36355e-05
-7.96705e-06
1.42782e-05
-6.96486e-06
1.48e-05
-5.93841e-06
1.51744e-05
-4.78091e-06
1.53749e-05
-3.42269e-06
1.53933e-05
-1.82543e-06
1.52438e-05
7.72096e-08
1.49595e-05
2.4158e-06
1.45724e-05
5.38877e-06
1.41036e-05
9.13843e-06
1.36068e-05
1.33969e-05
1.3068e-05
1.74251e-05
1.20627e-05
1.99018e-05
8.88627e-06
1.74984e-05
7.0748e-06
4.47962e-06
1.03536e-06
7.60623e-06
-7.31309e-06
9.45718e-06
-1.15169e-05
1.05546e-05
-1.26203e-05
1.13631e-05
-1.24067e-05
1.20954e-05
-1.16804e-05
1.27888e-05
-1.0711e-05
1.34219e-05
-9.62664e-06
1.39722e-05
-8.5174e-06
1.44303e-05
-7.42292e-06
1.47881e-05
-6.29625e-06
1.50198e-05
-5.01254e-06
1.51013e-05
-3.50429e-06
1.50353e-05
-1.75937e-06
1.48541e-05
2.58343e-07
1.46158e-05
2.65413e-06
1.43714e-05
5.63315e-06
1.41456e-05
9.36431e-06
1.40032e-05
1.35392e-05
1.39443e-05
1.74839e-05
1.35487e-05
2.02975e-05
1.07234e-05
2.03237e-05
1.77982e-05
5.60355e-06
-4.56819e-06
9.39083e-06
-1.11004e-05
1.1101e-05
-1.32271e-05
1.18441e-05
-1.33634e-05
1.23386e-05
-1.29012e-05
1.28231e-05
-1.21649e-05
1.33078e-05
-1.11958e-05
1.37517e-05
-1.00706e-05
1.41229e-05
-8.88854e-06
1.44109e-05
-7.7109e-06
1.46146e-05
-6.50002e-06
1.4711e-05
-5.10897e-06
1.46803e-05
-3.47355e-06
1.45355e-05
-1.61461e-06
1.43252e-05
4.68672e-07
1.41309e-05
2.8484e-06
1.4017e-05
5.74713e-06
1.39996e-05
9.38168e-06
1.41551e-05
1.33837e-05
1.45282e-05
1.71108e-05
1.48041e-05
2.00216e-05
1.30883e-05
2.20395e-05
3.08865e-05
2.05073e-05
-2.05073e-05
2.30266e-05
-2.51939e-06
9.14766e-06
1.38788e-05
-1.59008e-05
2.50484e-05
-4.77055e-05
3.18047e-05
-8.1794e-05
3.40885e-05
-0.000114543
3.27493e-05
-0.00014464
3.00963e-05
-0.000172762
2.81221e-05
-0.000201245
2.84834e-05
-0.000233965
3.27197e-05
-0.000274013
4.00481e-05
-0.000316731
4.27186e-05
-0.000346445
2.97138e-05
-0.000346307
-1.38357e-07
-0.000328255
-1.80518e-05
-0.000275085
-5.31703e-05
-0.000168064
-0.000107021
-0.000168064
9.67955e-06
-3.01871e-05
6.26053e-06
8.99587e-07
-1.38059e-05
3.39453e-05
-4.5319e-05
5.65614e-05
-7.9692e-05
6.61771e-05
-0.000111239
6.56351e-05
-0.00013861
6.01207e-05
-0.00016281
5.42973e-05
-0.000185581
5.0893e-05
-0.000208649
5.1551e-05
-0.000232429
5.64995e-05
-0.000253353
6.09725e-05
-0.000263244
5.26097e-05
-0.000252567
1.90367e-05
-0.000231729
-2.09756e-05
-0.000210029
-3.9752e-05
-0.000168984
-9.42148e-05
-8.07092e-05
-0.000195296
-0.000248773
8.75666e-07
-3.10629e-05
-6.04435e-06
7.81954e-06
-2.6779e-05
5.468e-05
-5.38695e-05
8.3652e-05
-8.01902e-05
9.24977e-05
-0.00010297
8.84147e-05
-0.000122615
7.97662e-05
-0.000140106
7.1788e-05
-0.000155998
6.6785e-05
-0.000170145
6.56975e-05
-0.000181205
6.75595e-05
-0.000186252
6.60201e-05
-0.000181768
4.81249e-05
-0.000168342
5.61156e-06
-0.000150946
-3.83717e-05
-0.000119712
-7.09864e-05
-8.87506e-05
-0.000125176
-4.067e-05
-0.000243377
-0.000289443
-3.06786e-06
-2.79951e-05
-1.03079e-05
1.50595e-05
-2.89125e-05
7.32846e-05
-5.02376e-05
0.000104977
-6.95254e-05
0.000111786
-8.61709e-05
0.00010506
-0.000100838
9.44329e-05
-0.00011377
8.47198e-05
-0.000124539
7.75548e-05
-0.000131961
7.31193e-05
-0.000134023
6.96211e-05
-0.000129038
6.10351e-05
-0.000117535
3.66224e-05
-0.000101317
-1.06071e-05
-7.89383e-05
-6.07502e-05
-4.14861e-05
-0.000108439
-1.2718e-05
-0.000153944
-1.63277e-05
-0.000239767
-0.000305771
-3.1475e-06
-2.48474e-05
-7.46492e-06
1.9377e-05
-2.36732e-05
8.94929e-05
-4.03928e-05
0.000121697
-5.47078e-05
0.0001261
-6.71964e-05
0.000117549
-7.82977e-05
0.000105534
-8.76883e-05
9.41104e-05
-9.44056e-05
8.42724e-05
-9.67886e-05
7.55023e-05
-9.28775e-05
6.57097e-05
-8.19472e-05
5.01047e-05
-6.57609e-05
2.0436e-05
-4.60802e-05
-3.02877e-05
-2.5401e-05
-8.14292e-05
-5.07437e-06
-0.000128765
1.23535e-05
-0.000171372
4.91757e-06
-0.000232331
-0.000300853
1.72732e-06
-2.65746e-05
4.47241e-07
2.06572e-05
-1.40204e-05
0.000103961
-2.74539e-05
0.00013513
-3.81369e-05
0.000136783
-4.74997e-05
0.000126912
-5.57673e-05
0.000113802
-6.22851e-05
0.000100628
-6.58881e-05
8.78755e-05
-6.48747e-05
7.4489e-05
-5.75169e-05
5.83518e-05
-4.3602e-05
3.61897e-05
-2.51148e-05
1.94886e-06
-3.62158e-06
-5.17809e-05
1.31537e-05
-9.82044e-05
2.26691e-05
-0.000138281
2.28696e-05
-0.000171572
1.46126e-05
-0.000224074
-0.00028624
1.08252e-05
-3.73998e-05
1.34248e-05
1.80576e-05
-2.42303e-06
0.000119808
-1.32185e-05
0.000145925
-2.08456e-05
0.00014441
-2.75882e-05
0.000133654
-3.3491e-05
0.000119705
-3.76964e-05
0.000104834
-3.90065e-05
8.91853e-05
-3.58498e-05
7.13322e-05
-2.67304e-05
4.92322e-05
-1.18787e-05
2.1338e-05
6.6038e-06
-1.65337e-05
2.38811e-05
-6.90582e-05
3.24835e-05
-0.000106807
3.19588e-05
-0.000137756
2.93138e-05
-0.000168927
2.01293e-05
-0.00021489
-0.000266111
1.67026e-05
-5.41024e-05
1.57945e-05
1.89656e-05
7.00283e-06
0.0001286
8.95881e-07
0.000152032
-3.44582e-06
0.000148752
-7.75808e-06
0.000137967
-1.16477e-05
0.000123595
-1.40663e-05
0.000107252
-1.38505e-05
8.89694e-05
-9.62733e-06
6.71092e-05
-4.36841e-08
3.96484e-05
1.46463e-05
6.64782e-06
2.94974e-05
-3.1385e-05
3.83329e-05
-7.78937e-05
3.94215e-05
-0.000107896
3.73045e-05
-0.000135639
3.30563e-05
-0.000164679
2.24398e-05
-0.000204273
-0.000243671
1.68476e-05
-2.14158e-05
2.48082e-05
-1.90609e-05
2.71453e-05
-1.55642e-05
2.7781e-05
-1.39991e-05
2.81887e-05
-1.33089e-05
2.8702e-05
-1.26781e-05
2.92566e-05
-1.17504e-05
2.97313e-05
-1.05453e-05
3.0038e-05
-9.19521e-06
3.01529e-05
-7.82579e-06
3.01124e-05
-6.45952e-06
2.98992e-05
-4.89578e-06
2.9488e-05
-3.06234e-06
2.89407e-05
-1.06735e-06
2.84047e-05
1.00465e-06
2.81301e-05
3.12308e-06
2.82911e-05
5.58611e-06
2.88276e-05
8.8452e-06
2.99468e-05
1.22645e-05
3.1977e-05
1.50806e-05
3.47559e-05
1.72426e-05
3.82671e-05
1.85284e-05
2.03551e-05
4.87984e-05
2.38843e-05
-4.53001e-05
2.56691e-05
-2.08457e-05
2.5778e-05
-1.56731e-05
2.6274e-05
-1.44951e-05
2.69121e-05
-1.3947e-05
2.75562e-05
-1.33223e-05
2.8141e-05
-1.23352e-05
2.86036e-05
-1.10079e-05
2.88592e-05
-9.45073e-06
2.88268e-05
-7.79339e-06
2.84605e-05
-6.0933e-06
2.77415e-05
-4.17675e-06
2.70007e-05
-2.32147e-06
2.62675e-05
-3.34164e-07
2.56157e-05
1.65639e-06
2.55119e-05
3.22688e-06
2.62715e-05
4.82656e-06
2.72793e-05
7.83738e-06
2.88537e-05
1.06901e-05
3.15402e-05
1.23941e-05
3.50332e-05
1.37497e-05
3.90507e-05
1.45109e-05
1.50542e-05
4.43516e-05
1.22867e-05
-5.75868e-05
1.88329e-05
-2.73919e-05
2.24654e-05
-1.93057e-05
2.489e-05
-1.69198e-05
2.61698e-05
-1.52268e-05
2.67718e-05
-1.39242e-05
2.71408e-05
-1.27043e-05
2.7448e-05
-1.13151e-05
2.76366e-05
-9.63935e-06
2.7463e-05
-7.61978e-06
2.64368e-05
-5.06711e-06
2.38529e-05
-1.59288e-06
2.30126e-05
-1.4811e-06
2.25858e-05
9.25658e-08
2.25633e-05
1.67898e-06
2.33897e-05
2.40047e-06
2.48555e-05
3.36072e-06
2.6073e-05
6.61987e-06
2.796e-05
8.80316e-06
3.11765e-05
9.17759e-06
3.47261e-05
1.02001e-05
3.85476e-05
1.06894e-05
1.09369e-05
4.26649e-05
-8.2227e-06
-4.93642e-05
4.09606e-07
-3.60243e-05
8.34481e-06
-2.72409e-05
1.42193e-05
-2.27943e-05
1.87943e-05
-1.98019e-05
2.22292e-05
-1.73593e-05
2.46869e-05
-1.5162e-05
2.63073e-05
-1.29355e-05
2.70865e-05
-1.04186e-05
2.68176e-05
-7.35088e-06
2.53322e-05
-3.58164e-06
2.38294e-05
-9.01034e-08
2.20695e-05
2.78823e-07
2.11811e-05
9.80975e-07
2.10288e-05
1.83122e-06
2.09656e-05
2.46372e-06
2.23955e-05
1.9308e-06
2.51009e-05
3.91445e-06
2.86374e-05
5.26662e-06
3.2333e-05
5.48198e-06
3.57487e-05
6.78443e-06
3.96172e-05
6.82083e-06
6.94157e-06
4.36126e-05
-5.79423e-06
-4.357e-05
-2.58929e-06
-3.92294e-05
3.21977e-06
-3.30501e-05
8.70729e-06
-2.82819e-05
1.34169e-05
-2.45116e-05
1.73288e-05
-2.12712e-05
2.04567e-05
-1.829e-05
2.28504e-05
-1.53292e-05
2.45955e-05
-1.21637e-05
2.58783e-05
-8.63366e-06
2.7111e-05
-4.81433e-06
2.84609e-05
-1.44004e-06
2.82209e-05
5.18837e-07
2.73011e-05
1.90085e-06
2.55408e-05
3.59154e-06
2.36418e-05
4.3628e-06
2.22672e-05
3.30541e-06
2.47428e-05
1.43881e-06
2.88943e-05
1.11516e-06
3.3256e-05
1.12024e-06
3.77742e-05
2.26624e-06
4.21359e-05
2.45906e-06
3.08763e-06
4.59899e-05
-2.03447e-06
-4.15356e-05
-9.8837e-07
-4.02755e-05
2.1863e-06
-3.62248e-05
6.04369e-06
-3.21394e-05
9.87232e-06
-2.83403e-05
1.34018e-05
-2.48008e-05
1.65254e-05
-2.14136e-05
1.92368e-05
-1.80407e-05
2.16232e-05
-1.455e-05
2.38681e-05
-1.08786e-05
2.61922e-05
-7.1385e-06
2.84945e-05
-3.74232e-06
3.01552e-05
-1.14179e-06
3.11101e-05
9.46029e-07
3.18995e-05
2.80219e-06
3.2483e-05
3.7793e-06
3.26586e-05
3.12979e-06
3.31311e-05
9.66348e-07
3.36516e-05
5.94674e-07
3.44711e-05
3.00711e-07
3.83965e-05
-1.65918e-06
4.2243e-05
-1.38742e-06
-8.36055e-07
4.61667e-05
-1.22265e-06
-4.0313e-05
-3.65842e-07
-4.11324e-05
1.72583e-06
-3.83165e-05
4.43396e-06
-3.48476e-05
7.37801e-06
-3.12844e-05
1.03375e-05
-2.77604e-05
1.31984e-05
-2.42744e-05
1.59327e-05
-2.07751e-05
1.85908e-05
-1.72081e-05
2.12801e-05
-1.35679e-05
2.40977e-05
-9.95618e-06
2.69712e-05
-6.61576e-06
2.9609e-05
-3.77959e-06
3.19522e-05
-1.39711e-06
3.42192e-05
5.35195e-07
3.63455e-05
1.65309e-06
3.79642e-05
1.51099e-06
3.84437e-05
4.8682e-07
3.93925e-05
-3.54101e-07
4.15218e-05
-1.8286e-06
4.33521e-05
-3.48957e-06
4.34605e-05
-1.49586e-06
-1.44124e-06
4.40657e-05
-4.84933e-07
-3.98281e-05
1.73996e-08
-4.16348e-05
1.32844e-06
-3.96276e-05
3.20043e-06
-3.67197e-05
5.41898e-06
-3.35031e-05
7.83237e-06
-3.01738e-05
1.03495e-05
-2.67916e-05
1.29374e-05
-2.3363e-05
1.56146e-05
-1.98853e-05
1.84314e-05
-1.63847e-05
2.14233e-05
-1.29481e-05
2.45374e-05
-9.72989e-06
2.76336e-05
-6.87577e-06
3.06703e-05
-4.43376e-06
3.36914e-05
-2.48588e-06
3.65985e-05
-1.25405e-06
3.90478e-05
-9.38312e-07
4.08556e-05
-1.32095e-06
4.24754e-05
-1.97399e-06
4.36788e-05
-3.03199e-06
4.40166e-05
-3.82749e-06
4.57031e-05
-3.18238e-06
-3.39698e-06
4.76588e-05
-3.22201e-07
-3.95059e-05
-8.2192e-08
-4.18748e-05
7.27386e-07
-4.04373e-05
2.01801e-06
-3.80103e-05
3.6836e-06
-3.51687e-05
5.63265e-06
-3.21229e-05
7.80209e-06
-2.89611e-05
1.01621e-05
-2.5723e-05
1.27129e-05
-2.24362e-05
1.54711e-05
-1.91429e-05
1.84415e-05
-1.59185e-05
2.15836e-05
-1.2872e-05
2.48195e-05
-1.01117e-05
2.81023e-05
-7.71653e-06
3.13983e-05
-5.78196e-06
3.45917e-05
-4.44737e-06
3.74575e-05
-3.80412e-06
3.9877e-05
-3.74051e-06
4.19356e-05
-4.03261e-06
4.34952e-05
-4.5916e-06
4.46944e-05
-5.02675e-06
4.64894e-05
-4.97739e-06
-5.14466e-06
4.82371e-05
-4.63274e-07
-3.90427e-05
-4.88535e-07
-4.18497e-05
-5.33841e-08
-4.08725e-05
8.0674e-07
-3.88705e-05
2.04233e-06
-3.64043e-05
3.60023e-06
-3.36808e-05
5.43936e-06
-3.08002e-05
7.53568e-06
-2.78193e-05
9.88095e-06
-2.47815e-05
1.24739e-05
-2.17359e-05
1.53047e-05
-1.87492e-05
1.83384e-05
-1.59058e-05
2.15198e-05
-1.3293e-05
2.4794e-05
-1.09908e-05
2.80962e-05
-9.08415e-06
3.13132e-05
-7.66431e-06
3.42879e-05
-6.77883e-06
3.69146e-05
-6.36716e-06
3.91773e-05
-6.29532e-06
4.10295e-05
-6.44382e-06
4.25865e-05
-6.58377e-06
4.41422e-05
-6.53309e-06
-6.41949e-06
4.5417e-05
-7.19626e-07
-3.83231e-05
-1.02339e-06
-4.1546e-05
-9.0848e-07
-4.09874e-05
-3.96135e-07
-3.93829e-05
4.82891e-07
-3.72833e-05
1.6976e-06
-3.48955e-05
3.22161e-06
-3.23243e-05
5.03638e-06
-2.96341e-05
7.13055e-06
-2.68757e-05
9.49438e-06
-2.40997e-05
1.21109e-05
-2.13657e-05
1.49475e-05
-1.87424e-05
1.79561e-05
-1.63016e-05
2.10787e-05
-1.41134e-05
2.42415e-05
-1.22469e-05
2.73412e-05
-1.0764e-05
3.02553e-05
-9.69283e-06
3.28858e-05
-8.99769e-06
3.51826e-05
-8.59208e-06
3.71096e-05
-8.37077e-06
3.87034e-05
-8.17759e-06
4.00454e-05
-7.87505e-06
-7.42322e-06
4.10491e-05
-9.91759e-07
-3.73314e-05
-1.55799e-06
-4.09798e-05
-1.7249e-06
-4.08206e-05
-1.51612e-06
-3.95916e-05
-9.52175e-07
-3.78472e-05
-5.26456e-08
-3.5795e-05
1.16508e-06
-3.3542e-05
2.687e-06
-3.11561e-05
4.50132e-06
-2.869e-05
6.59488e-06
-2.61933e-05
8.94784e-06
-2.37187e-05
1.15285e-05
-2.13231e-05
1.42922e-05
-1.90653e-05
1.71815e-05
-1.70027e-05
2.01237e-05
-1.5189e-05
2.30269e-05
-1.36673e-05
2.57888e-05
-1.24547e-05
2.83189e-05
-1.15277e-05
3.05516e-05
-1.08248e-05
3.2439e-05
-1.02581e-05
3.39679e-05
-9.70652e-06
3.51416e-05
-9.04869e-06
-8.19003e-06
3.59084e-05
-1.21661e-06
-3.61148e-05
-2.00868e-06
-4.01878e-05
-2.423e-06
-4.04062e-05
-2.48443e-06
-3.95302e-05
-2.2077e-06
-3.81239e-05
-1.60481e-06
-3.63979e-05
-6.86746e-07
-3.44601e-05
5.36163e-07
-3.2379e-05
2.05308e-06
-3.02069e-05
3.85022e-06
-2.79905e-05
5.90726e-06
-2.57757e-05
8.19404e-06
-2.36099e-05
1.06688e-05
-2.15401e-05
1.32776e-05
-1.96115e-05
1.5953e-05
-1.78644e-05
1.86142e-05
-1.63284e-05
2.11731e-05
-1.50135e-05
2.35466e-05
-1.39012e-05
2.56647e-05
-1.29429e-05
2.74693e-05
-1.20626e-05
2.89192e-05
-1.11564e-05
2.99783e-05
-1.01078e-05
-8.79927e-06
3.05875e-05
-1.36687e-06
-3.4748e-05
-2.33427e-06
-3.92204e-05
-2.95681e-06
-3.97837e-05
-3.2559e-06
-3.9231e-05
-3.24024e-06
-3.81396e-05
-2.91553e-06
-3.67226e-05
-2.28742e-06
-3.50882e-05
-1.36262e-06
-3.33039e-05
-1.50047e-07
-3.14195e-05
1.33743e-06
-2.94779e-05
3.08061e-06
-2.75189e-05
5.05168e-06
-2.55809e-05
7.21271e-06
-2.37011e-05
9.51482e-06
-2.19136e-05
1.18978e-05
-2.02473e-05
1.42914e-05
-1.87219e-05
1.66196e-05
-1.73416e-05
1.88078e-05
-1.60893e-05
2.07876e-05
-1.49226e-05
2.24977e-05
-1.37728e-05
2.38842e-05
-1.25429e-05
2.48927e-05
-1.11163e-05
-9.36172e-06
2.54552e-05
-1.43834e-06
-3.33096e-05
-2.52498e-06
-3.81337e-05
-3.31195e-06
-3.89967e-05
-3.81267e-06
-3.87303e-05
-4.02841e-06
-3.79238e-05
-3.95859e-06
-3.67924e-05
-3.60385e-06
-3.5443e-05
-2.96717e-06
-3.39405e-05
-2.05486e-06
-3.23319e-05
-8.77799e-07
-3.0655e-05
5.46977e-07
-2.89436e-05
2.1948e-06
-2.72287e-05
4.03224e-06
-2.55386e-05
6.0165e-06
-2.38979e-05
8.09553e-06
-2.23263e-05
1.02094e-05
-2.08357e-05
1.22933e-05
-1.94255e-05
1.42824e-05
-1.80783e-05
1.61145e-05
-1.67547e-05
1.7731e-05
-1.53893e-05
1.90759e-05
-1.38878e-05
2.00902e-05
-1.21306e-05
-9.97393e-06
2.07024e-05
-1.44023e-06
-3.18694e-05
-2.59185e-06
-3.6982e-05
-3.49793e-06
-3.80905e-05
-4.16108e-06
-3.80671e-05
-4.57409e-06
-3.75107e-05
-4.72992e-06
-3.66365e-05
-4.62423e-06
-3.55486e-05
-4.25627e-06
-3.43085e-05
-3.62937e-06
-3.29587e-05
-2.75179e-06
-3.15325e-05
-1.63766e-06
-3.00577e-05
-3.0794e-07
-2.85584e-05
1.20887e-06
-2.70554e-05
2.8765e-06
-2.55655e-05
4.65125e-06
-2.4101e-05
6.48333e-06
-2.26677e-05
8.31916e-06
-2.12613e-05
1.01044e-05
-1.98635e-05
1.1786e-05
-1.84362e-05
1.33125e-05
-1.69158e-05
1.46326e-05
-1.52079e-05
1.56906e-05
-1.31886e-05
-1.07017e-05
1.64184e-05
-1.38808e-06
-3.04813e-05
-2.55773e-06
-3.58122e-05
-3.5399e-06
-3.71082e-05
-4.32551e-06
-3.72814e-05
-4.89879e-06
-3.69374e-05
-5.24631e-06
-3.6289e-05
-5.35901e-06
-3.5436e-05
-5.23248e-06
-3.44351e-05
-4.86704e-06
-3.33242e-05
-4.26805e-06
-3.21315e-05
-3.44641e-06
-3.08794e-05
-2.41904e-06
-2.95858e-05
-1.2093e-06
-2.82651e-05
1.53096e-07
-2.69279e-05
1.63269e-06
-2.55806e-05
3.18946e-06
-2.42244e-05
4.78074e-06
-2.28525e-05
6.36335e-06
-2.1446e-05
7.89487e-06
-1.99677e-05
9.33368e-06
-1.83545e-05
1.0637e-05
-1.65112e-05
1.17566e-05
-1.43083e-05
-1.15769e-05
1.26319e-05
-1.29922e-06
-2.9182e-05
-2.45049e-06
-3.46608e-05
-3.47122e-06
-3.60874e-05
-4.34141e-06
-3.64111e-05
-5.03757e-06
-3.62412e-05
-5.54061e-06
-3.5786e-05
-5.83723e-06
-3.51394e-05
-5.91968e-06
-3.43526e-05
-5.78541e-06
-3.34584e-05
-5.43694e-06
-3.248e-05
-4.88191e-06
-3.14344e-05
-4.13323e-06
-3.03345e-05
-3.20914e-06
-2.91892e-05
-2.13289e-06
-2.80041e-05
-9.32152e-07
-2.67812e-05
3.62327e-07
-2.55188e-05
1.71831e-06
-2.42084e-05
3.10368e-06
-2.28313e-05
4.48729e-06
-2.13513e-05
5.83836e-06
-1.97056e-05
7.12415e-06
-1.7797e-05
8.30564e-06
-1.54898e-05
-1.26018e-05
9.33051e-06
-1.19e-06
-2.79919e-05
-2.29813e-06
-3.35526e-05
-3.32737e-06
-3.50581e-05
-4.2487e-06
-3.54897e-05
-5.0325e-06
-3.54573e-05
-5.65527e-06
-3.51632e-05
-6.10034e-06
-3.46943e-05
-6.35715e-06
-3.40958e-05
-6.42065e-06
-3.3395e-05
-6.29072e-06
-3.26099e-05
-5.97194e-06
-3.17531e-05
-5.47347e-06
-3.08329e-05
-4.80869e-06
-2.98539e-05
-3.99489e-06
-2.88178e-05
-3.05233e-06
-2.77237e-05
-2.00313e-06
-2.65679e-05
-8.69777e-07
-2.53417e-05
3.26134e-07
-2.40272e-05
1.56435e-06
-2.25894e-05
2.82494e-06
-2.09662e-05
4.08526e-06
-1.90573e-05
5.31498e-06
-1.67195e-05
-1.37558e-05
6.46901e-06
-1.07432e-06
-2.69175e-05
-2.12548e-06
-3.25013e-05
-3.14139e-06
-3.40421e-05
-4.0863e-06
-3.45447e-05
-4.92659e-06
-3.4617e-05
-5.63594e-06
-3.44539e-05
-6.19545e-06
-3.41349e-05
-6.59254e-06
-3.36988e-05
-6.82017e-06
-3.31673e-05
-6.87596e-06
-3.25541e-05
-6.7618e-06
-3.18672e-05
-6.48339e-06
-3.11113e-05
-6.0498e-06
-3.02875e-05
-5.47285e-06
-2.93947e-05
-4.76619e-06
-2.84303e-05
-3.94411e-06
-2.73899e-05
-3.02013e-06
-2.62656e-05
-2.00605e-06
-2.50412e-05
-9.11958e-07
-2.36835e-05
2.52184e-07
-2.21303e-05
1.47274e-06
-2.02779e-05
2.72664e-06
-1.79734e-05
-1.50028e-05
3.97373e-06
-9.62655e-07
-2.59548e-05
-1.95222e-06
-3.15116e-05
-2.94075e-06
-3.30535e-05
-3.88812e-06
-3.35974e-05
-4.75897e-06
-3.37462e-05
-5.52594e-06
-3.3687e-05
-6.16915e-06
-3.34917e-05
-6.67503e-06
-3.31929e-05
-7.03516e-06
-3.28072e-05
-7.24544e-06
-3.23437e-05
-7.30548e-06
-3.18071e-05
-7.21801e-06
-3.11987e-05
-6.98831e-06
-3.05171e-05
-6.62345e-06
-2.97595e-05
-6.13129e-06
-2.89224e-05
-5.51922e-06
-2.80019e-05
-4.79292e-06
-2.69918e-05
-3.95548e-06
-2.58785e-05
-3.00778e-06
-2.46311e-05
-1.95071e-06
-2.31873e-05
-7.90129e-07
-2.14385e-05
4.56256e-07
-1.92198e-05
-1.62966e-05
1.75001e-06
-8.61859e-07
-2.50928e-05
-1.79197e-06
-3.05814e-05
-2.7457e-06
-3.20997e-05
-3.68066e-06
-3.26624e-05
-4.56173e-06
-3.28652e-05
-5.36229e-06
-3.28865e-05
-6.06284e-06
-3.27912e-05
-6.64983e-06
-3.26059e-05
-7.11427e-06
-3.23427e-05
-7.45092e-06
-3.2007e-05
-7.65766e-06
-3.16004e-05
-7.73477e-06
-3.11216e-05
-7.68435e-06
-3.05675e-05
-7.50951e-06
-2.99343e-05
-7.21319e-06
-2.92187e-05
-6.79698e-06
-2.84181e-05
-6.25985e-06
-2.75289e-05
-5.59743e-06
-2.65409e-05
-4.80265e-06
-2.54258e-05
-3.86869e-06
-2.41213e-05
-2.79475e-06
-2.25124e-05
-1.59439e-06
-2.04202e-05
-1.75854e-05
-3.05545e-07
-7.7514e-07
-2.43176e-05
-1.65219e-06
-2.97042e-05
-2.56891e-06
-3.1183e-05
-3.48201e-06
-3.17493e-05
-4.35836e-06
-3.19888e-05
-5.17351e-06
-3.20713e-05
-5.90973e-06
-3.20549e-05
-6.55452e-06
-3.19611e-05
-7.09912e-06
-3.17981e-05
-7.53788e-06
-3.15682e-05
-7.86747e-06
-3.12708e-05
-8.08636e-06
-3.09027e-05
-8.19418e-06
-3.04597e-05
-8.19081e-06
-2.99377e-05
-8.07527e-06
-2.93342e-05
-7.84447e-06
-2.86488e-05
-7.4919e-06
-2.78814e-05
-7.00702e-06
-2.70257e-05
-6.37609e-06
-2.60567e-05
-5.5857e-06
-2.49116e-05
-4.6295e-06
-2.34686e-05
-3.51769e-06
-2.1532e-05
-1.88152e-05
-2.28792e-06
-7.02055e-07
-2.36155e-05
-1.53489e-06
-2.88713e-05
-2.41615e-06
-3.03017e-05
-3.30235e-06
-3.08631e-05
-4.16362e-06
-3.11276e-05
-4.97899e-06
-3.12559e-05
-5.73369e-06
-3.13002e-05
-6.4172e-06
-3.12776e-05
-7.02187e-06
-3.11934e-05
-7.54226e-06
-3.10478e-05
-7.97453e-06
-3.08385e-05
-8.31598e-06
-3.05612e-05
-8.56444e-06
-3.02112e-05
-8.71742e-06
-2.97847e-05
-8.77102e-06
-2.92806e-05
-8.71857e-06
-2.87012e-05
-8.54937e-06
-2.80505e-05
-8.24795e-06
-2.7327e-05
-7.79514e-06
-2.65094e-05
-7.17184e-06
-2.55349e-05
-6.36654e-06
-2.42739e-05
-5.38596e-06
-2.25126e-05
-1.99343e-05
-4.26685e-06
-6.39723e-07
-2.29758e-05
-1.43807e-06
-2.80729e-05
-2.28779e-06
-2.9452e-05
-3.14519e-06
-3.00057e-05
-3.98461e-06
-3.02882e-05
-4.78964e-06
-3.04509e-05
-5.54944e-06
-3.05404e-05
-6.2563e-06
-3.05708e-05
-6.90445e-06
-3.05452e-05
-7.48934e-06
-3.04629e-05
-8.00725e-06
-3.03205e-05
-8.45495e-06
-3.01135e-05
-8.8292e-06
-2.9837e-05
-9.12597e-06
-2.94879e-05
-9.33941e-06
-2.90671e-05
-9.46042e-06
-2.85802e-05
-9.47533e-06
-2.80356e-05
-9.36505e-06
-2.74373e-05
-9.10599e-06
-2.67685e-05
-8.67397e-06
-2.59668e-05
-8.05221e-06
-2.48956e-05
-7.24276e-06
-2.33221e-05
-2.08979e-05
-6.27926e-06
-5.84325e-07
-2.23914e-05
-1.35771e-06
-2.72994e-05
-2.18071e-06
-2.86289e-05
-3.00917e-06
-2.91772e-05
-3.82236e-06
-2.9475e-05
-4.60932e-06
-2.96639e-05
-5.36381e-06
-2.97859e-05
-6.08161e-06
-2.9853e-05
-6.75943e-06
-2.98674e-05
-7.39422e-06
-2.98281e-05
-7.98297e-06
-2.97317e-05
-8.52254e-06
-2.95739e-05
-9.0093e-06
-2.93502e-05
-9.43851e-06
-2.90587e-05
-9.80328e-06
-2.87024e-05
-1.00932e-05
-2.82903e-05
-1.02929e-05
-2.78359e-05
-1.03809e-05
-2.73493e-05
-1.03301e-05
-2.68192e-05
-1.01117e-05
-2.61852e-05
-9.7029e-06
-2.53044e-05
-9.09895e-06
-2.39261e-05
-2.16699e-05
-8.32701e-06
-5.33369e-07
-2.1858e-05
-1.28966e-06
-2.65431e-05
-2.09006e-06
-2.78285e-05
-2.88979e-06
-2.83775e-05
-3.67365e-06
-2.86912e-05
-4.43667e-06
-2.89009e-05
-5.17757e-06
-2.90451e-05
-5.89606e-06
-2.91345e-05
-6.59171e-06
-2.91718e-05
-7.26346e-06
-2.91563e-05
-7.90953e-06
-2.90856e-05
-8.52741e-06
-2.8956e-05
-9.1137e-06
-2.87639e-05
-9.66366e-06
-2.85088e-05
-1.01703e-05
-2.81958e-05
-1.0623e-05
-2.78376e-05
-1.10058e-05
-2.74531e-05
-1.12962e-05
-2.70589e-05
-1.14647e-05
-2.66506e-05
-1.1478e-05
-2.61719e-05
-1.13062e-05
-2.54763e-05
-1.0935e-05
-2.42973e-05
-2.22243e-05
-1.03806e-05
-4.86684e-07
-2.13712e-05
-1.23065e-06
-2.57991e-05
-2.0104e-06
-2.70487e-05
-2.78086e-06
-2.76071e-05
-3.53271e-06
-2.79394e-05
-4.267e-06
-2.81667e-05
-4.98748e-06
-2.83247e-05
-5.69785e-06
-2.84242e-05
-6.40075e-06
-2.84689e-05
-7.09742e-06
-2.84596e-05
-7.78766e-06
-2.83953e-05
-8.47005e-06
-2.82736e-05
-9.14196e-06
-2.8092e-05
-9.7993e-06
-2.78515e-05
-1.04358e-05
-2.75594e-05
-1.10415e-05
-2.72319e-05
-1.16014e-05
-2.68932e-05
-1.20931e-05
-2.65672e-05
-1.2486e-05
-2.62578e-05
-1.27426e-05
-2.59152e-05
-1.28252e-05
-2.53938e-05
-1.27068e-05
-2.44157e-05
-2.2544e-05
-1.23871e-05
-4.45519e-07
-2.09257e-05
-1.17781e-06
-2.50669e-05
-1.93604e-06
-2.62906e-05
-2.67547e-06
-2.68678e-05
-3.39257e-06
-2.72223e-05
-4.09401e-06
-2.74654e-05
-4.78819e-06
-2.76305e-05
-5.4826e-06
-2.77298e-05
-6.18291e-06
-2.77686e-05
-6.89273e-06
-2.77498e-05
-7.61371e-06
-2.76744e-05
-8.34582e-06
-2.75415e-05
-9.08761e-06
-2.73503e-05
-9.83615e-06
-2.7103e-05
-1.05865e-05
-2.6809e-05
-1.13307e-05
-2.64878e-05
-1.20554e-05
-2.61685e-05
-1.27401e-05
-2.58826e-05
-1.33544e-05
-2.56435e-05
-1.38581e-05
-2.54116e-05
-1.42048e-05
-2.50471e-05
-1.43523e-05
-2.42682e-05
-2.26181e-05
-1.42782e-05
-4.09644e-07
-2.05161e-05
-1.12772e-06
-2.43489e-05
-1.86123e-06
-2.55572e-05
-2.56689e-06
-2.61622e-05
-3.2464e-06
-2.65429e-05
-3.91126e-06
-2.68006e-05
-4.57392e-06
-2.6968e-05
-5.24517e-06
-2.70586e-05
-5.93344e-06
-2.70804e-05
-6.64462e-06
-2.70387e-05
-7.38224e-06
-2.69368e-05
-8.14785e-06
-2.67759e-05
-8.94145e-06
-2.65567e-05
-9.76166e-06
-2.62828e-05
-1.06055e-05
-2.59653e-05
-1.14673e-05
-2.5626e-05
-1.23371e-05
-2.52987e-05
-1.31977e-05
-2.5022e-05
-1.4021e-05
-2.48202e-05
-1.47656e-05
-2.4667e-05
-1.53775e-05
-2.44351e-05
-1.57979e-05
-2.38478e-05
-2.24387e-05
-1.59772e-05
-3.77069e-07
-2.01391e-05
-1.07646e-06
-2.36497e-05
-1.78109e-06
-2.48526e-05
-2.44975e-06
-2.54936e-05
-3.08871e-06
-2.5904e-05
-3.71348e-06
-2.61759e-05
-4.33976e-06
-2.63418e-05
-4.98104e-06
-2.64174e-05
-5.64805e-06
-2.64134e-05
-6.34867e-06
-2.63382e-05
-7.08817e-06
-2.61974e-05
-7.86968e-06
-2.59944e-05
-8.69474e-06
-2.57316e-05
-9.56366e-06
-2.54139e-05
-1.04757e-05
-2.50533e-05
-1.14282e-05
-2.46735e-05
-1.24154e-05
-2.43116e-05
-1.34249e-05
-2.40125e-05
-1.44335e-05
-2.38117e-05
-1.54013e-05
-2.36991e-05
-1.62694e-05
-2.35669e-05
-1.69628e-05
-2.31544e-05
-2.19991e-05
-1.74024e-05
-3.45713e-07
-1.97934e-05
-1.02224e-06
-2.29733e-05
-1.69369e-06
-2.41813e-05
-2.3216e-06
-2.48658e-05
-2.91656e-06
-2.53091e-05
-3.49745e-06
-2.55951e-05
-4.08251e-06
-2.57569e-05
-4.68722e-06
-2.58128e-05
-5.32398e-06
-2.57768e-05
-6.00214e-06
-2.56601e-05
-6.72838e-06
-2.54711e-05
-7.50722e-06
-2.52155e-05
-8.34159e-06
-2.48972e-05
-9.23349e-06
-2.4522e-05
-1.01843e-05
-2.41025e-05
-1.11949e-05
-2.3663e-05
-1.2264e-05
-2.32424e-05
-1.33856e-05
-2.28908e-05
-1.45435e-05
-2.26538e-05
-1.57034e-05
-2.25392e-05
-1.68057e-05
-2.24645e-05
-1.77632e-05
-2.21969e-05
-2.12941e-05
-1.84681e-05
-3.18463e-07
-1.94751e-05
-9.69286e-07
-2.23226e-05
-1.60258e-06
-2.35481e-05
-2.18442e-06
-2.4284e-05
-2.73039e-06
-2.47632e-05
-3.26254e-06
-2.50631e-05
-3.80102e-06
-2.52185e-05
-4.36253e-06
-2.52514e-05
-4.96031e-06
-2.51791e-05
-5.60445e-06
-2.5016e-05
-6.30248e-06
-2.47731e-05
-7.05985e-06
-2.44581e-05
-7.8806e-06
-2.40764e-05
-8.76809e-06
-2.36345e-05
-9.72575e-06
-2.31448e-05
-1.07574e-05
-2.26313e-05
-1.18667e-05
-2.21331e-05
-1.30546e-05
-2.17029e-05
-1.43139e-05
-2.13944e-05
-1.56198e-05
-2.12333e-05
-1.69182e-05
-2.1166e-05
-1.81169e-05
-2.09981e-05
-2.03251e-05
-1.90858e-05
-3.08766e-07
-1.91664e-05
-9.31457e-07
-2.17e-05
-1.51841e-06
-2.29612e-05
-2.04511e-06
-2.37573e-05
-2.53397e-06
-2.42745e-05
-3.01041e-06
-2.45867e-05
-3.49589e-06
-2.47331e-05
-4.00735e-06
-2.474e-05
-4.55779e-06
-2.46287e-05
-5.15712e-06
-2.44166e-05
-5.81286e-06
-2.41174e-05
-6.53075e-06
-2.37402e-05
-7.31542e-06
-2.32917e-05
-8.17116e-06
-2.27787e-05
-9.10288e-06
-2.2213e-05
-1.01169e-05
-2.16172e-05
-1.1221e-05
-2.10289e-05
-1.2423e-05
-2.05008e-05
-1.37255e-05
-2.00918e-05
-1.51165e-05
-1.98422e-05
-1.65541e-05
-1.97283e-05
-1.79513e-05
-1.96009e-05
-1.91093e-05
-1.91671e-05
-3.44199e-07
-1.88222e-05
-9.32864e-07
-2.11114e-05
-1.45798e-06
-2.24362e-05
-1.91412e-06
-2.33013e-05
-2.33307e-06
-2.38556e-05
-2.74392e-06
-2.41759e-05
-3.1686e-06
-2.43084e-05
-3.62294e-06
-2.42856e-05
-4.11833e-06
-2.41333e-05
-4.66324e-06
-2.38717e-05
-5.26417e-06
-2.35164e-05
-5.92637e-06
-2.3078e-05
-6.65442e-06
-2.25637e-05
-7.45296e-06
-2.19802e-05
-8.32768e-06
-2.13382e-05
-9.28646e-06
-2.06583e-05
-1.03401e-05
-1.99752e-05
-1.15016e-05
-1.93392e-05
-1.27832e-05
-1.88102e-05
-1.41865e-05
-1.84388e-05
-1.56875e-05
-1.82273e-05
-1.7215e-05
-1.80734e-05
-1.76908e-05
-1.86335e-05
-4.61178e-07
-1.83611e-05
-1.00207e-06
-2.05706e-05
-1.43987e-06
-2.19984e-05
-1.8018e-06
-2.29394e-05
-2.13254e-06
-2.35249e-05
-2.46508e-06
-2.38435e-05
-2.82019e-06
-2.39533e-05
-3.21056e-06
-2.38953e-05
-3.64422e-06
-2.36996e-05
-4.12674e-06
-2.33892e-05
-4.66253e-06
-2.29807e-05
-5.25551e-06
-2.24851e-05
-5.90956e-06
-2.19097e-05
-6.62907e-06
-2.12606e-05
-7.41979e-06
-2.05474e-05
-8.29003e-06
-1.9788e-05
-9.25191e-06
-1.90132e-05
-1.03218e-05
-1.82692e-05
-1.15184e-05
-1.76136e-05
-1.28562e-05
-1.71011e-05
-1.43304e-05
-1.67531e-05
-1.58946e-05
-1.65092e-05
-1.61501e-05
-1.74354e-05
-6.92277e-07
-1.76689e-05
-1.16261e-06
-2.01004e-05
-1.47678e-06
-2.16843e-05
-1.71225e-06
-2.27039e-05
-1.93226e-06
-2.33049e-05
-2.17269e-06
-2.36031e-05
-2.45003e-06
-2.3676e-05
-2.77088e-06
-2.35744e-05
-3.13775e-06
-2.33327e-05
-3.55191e-06
-2.2975e-05