/*--------------------------------*- C++ -*----------------------------------*\
  =========                 |
  \\      /  F ield         | OpenFOAM: The Open Source CFD Toolbox
   \\    /   O peration     | Website:  https://openfoam.org
    \\  /    A nd           | Version:  7
     \\/     M anipulation  |
\*---------------------------------------------------------------------------*/
FoamFile
{
    version     2.0;
    format      ascii;
    class       labelField;
    location    "0.005/lagrangian/dsmc";
    object      origId;
}
// * * * * * * * * * * * * * * * * * * * * * * * * * * * * * * * * * * * * * //


6948
(
244035
244134
244670
244960
245353
245758
246797
246805
247220
247301
247412
247517
247592
248130
248237
248272
248325
248435
248464
248747
248835
248929
249046
249151
249163
249169
249243
249339
249350
249448
249457
249458
249465
249590
249678
249760
249761
249783
249975
250165
250179
250180
250271
250273
250379
250476
250495
250580
250667
250683
250692
250696
250757
250768
250779
250785
250788
250888
250894
250897
250989
251001
251009
251038
251082
251096
251099
251111
251184
251207
251294
251313
251399
251400
251406
251412
251504
251510
251519
251562
251598
251604
251608
251611
251622
251702
251725
251727
251746
251749
251804
251805
251807
251812
251824
251829
251834
251906
251917
251918
251921
251938
251940
252006
252007
252021
252025
252026
252094
252100
252102
252108
252109
252116
252118
252127
252128
252199
252204
252213
252228
252233
252307
252308
252313
252314
252320
252339
252410
252413
252414
252417
252418
252420
252422
252430
252433
252501
252505
252512
252518
252519
252524
252537
252545
252607
252610
252615
252621
252626
252631
252639
252640
252644
252645
252647
252648
252649
252652
252728
252729
252731
252735
252741
252757
252818
252820
252828
252830
252831
252836
252839
252850
252857
252921
252926
252927
252928
252929
252931
252938
252939
252945
252947
252952
252976
253027
253031
253032
253034
253043
253053
253064
253133
253136
253149
253156
253159
253179
253234
253240
253243
253244
253247
253250
253251
253255
253256
253257
253258
253278
253327
253328
253332
253335
253337
253346
253348
253357
253358
253362
253366
253374
253431
253442
253443
253444
253450
253453
253460
253461
253464
253465
253468
253473
253476
253481
253516
253533
253534
253537
253540
253541
253543
253546
253548
253555
253557
253563
253564
253565
253568
253574
253604
253605
253614
253634
253636
253638
253642
253645
253651
253653
253657
253658
253660
253667
253670
253678
253681
253686
253697
253725
253730
253732
253736
253741
253745
253746
253750
253751
253752
253755
253757
253758
253759
253766
253769
253770
253771
253810
253831
253838
253844
253849
253850
253851
253854
253856
253859
253866
253867
253870
253874
253875
253878
253880
253909
253910
253925
253926
253933
253943
253944
253948
253950
253952
253953
253954
253956
253957
253959
253960
253963
253964
253967
253968
253969
253975
253988
253992
254036
254038
254040
254043
254047
254048
254053
254054
254058
254060
254063
254064
254065
254067
254068
254069
254071
254075
254076
254077
254087
254088
254091
254102
254104
254114
254142
254143
254147
254153
254154
254156
254158
254159
254161
254165
254167
254174
254176
254185
254198
254208
254219
254247
254254
217527
254256
254257
254261
254262
254263
254264
254265
254266
254267
254268
254270
254272
254273
254275
254280
254282
254284
254289
254291
254292
254293
254297
254298
254313
254324
254332
254335
254337
254342
254354
254355
254358
254362
254363
254364
254366
254367
254368
254369
254370
254371
254372
254374
254375
254376
254378
254384
254385
254388
254389
254390
254394
254396
254398
254401
254403
254410
254413
254414
254420
254422
254428
254429
254440
254449
254453
254455
254458
254459
254460
254462
254467
254468
254470
254473
254475
254476
254478
254485
254487
254488
254489
254490
254491
254493
254498
254500
254503
254505
254513
254517
254526
254528
254535
254541
254546
254551
254552
254557
254560
254563
254564
254565
254566
254567
254568
254570
254571
254572
254573
254574
254575
254577
254578
254580
254581
254582
254588
254592
254596
254601
254606
254607
254610
254613
254614
254622
254624
254625
254626
254627
254634
254650
254653
254662
254663
254665
254666
254669
254670
254671
254674
254676
254677
254679
254680
254684
254685
254686
254687
254689
254690
254691
254694
254697
254700
254703
254705
254709
254710
254716
254718
254723
254725
254726
254727
254731
254732
254734
254738
254743
254747
254748
254757
254758
254762
254763
254766
254769
254770
254771
254775
254777
254778
254779
254780
254782
254785
254786
254788
254790
254791
254792
254795
254797
254798
254799
254804
254805
254808
254813
254814
254815
254816
254819
254825
254837
254839
254840
254841
254843
254844
254848
254850
254858
254861
254866
254869
254870
254871
254872
254874
254875
254878
254881
254886
254887
254888
254889
254890
254891
254892
254894
254899
254902
254904
254905
254906
254908
254910
254911
254915
254919
254920
254923
254927
254928
254929
254930
254931
254937
254940
254953
254956
254957
254961
254965
254968
254969
254970
254972
254974
254975
254976
254978
254980
254982
254983
254984
254986
254987
254988
254989
254990
254991
254993
254994
254995
254999
255000
255002
255003
255007
255009
255012
255013
255015
255016
255017
255019
255020
255022
255032
255033
255035
255037
255039
255041
255043
255046
255047
255049
255060
255062
255068
255071
255073
255075
255076
255077
255078
255079
255080
255081
255085
255088
255092
255094
255095
255098
255099
255100
255101
255103
255104
255105
255106
255107
255109
255111
255114
255115
255116
255117
255122
255124
255129
255130
255131
255133
255136
255138
255139
255144
255151
255152
255153
255166
218148
255168
255169
255170
255171
255174
255176
255177
255178
255180
255183
255184
255185
255186
255188
255189
255191
255192
255193
255195
255198
255199
255200
255202
255203
255207
255210
255212
255213
255214
255216
255217
255218
255219
255221
255223
255225
255226
255229
255230
255233
255236
255243
255249
255251
255253
255254
255255
255256
255263
255264
255266
255267
255269
255272
255275
255276
255277
255278
255279
255280
255282
255285
255286
255287
255290
255291
255292
255294
255296
255297
255298
255300
255301
255303
255304
255305
255307
255308
255311
255312
255315
255318
255319
255320
255321
255325
255326
255328
255330
255331
255332
255334
255336
255339
255341
255342
255343
255345
255346
255350
255351
255352
255360
255362
255363
255368
255369
255370
255371
255374
255377
255378
255379
255380
255381
255382
255383
255384
255385
255386
255387
255388
255389
255390
255391
255392
255393
255394
255395
255396
255397
255399
255401
255402
255404
255405
255407
255409
255411
255412
255413
255415
255416
255418
255420
255421
255422
255423
255424
255425
255426
255427
255428
255429
255430
255431
255432
255433
255434
255435
255436
255438
255439
255440
255441
255442
255445
255447
255448
255451
255452
255455
255457
255459
255460
255461
255471
255472
255473
255475
255480
255482
255483
255484
255485
255486
255488
255490
255491
255492
255494
255495
255496
255497
255498
255499
255500
255501
255502
255503
255504
255505
255506
255507
255509
255510
255512
255513
255514
255516
255517
255518
255519
255520
255522
255523
255524
255525
255527
255529
255531
255534
255537
255538
255539
255540
255543
255544
255547
255548
255549
255550
255552
255553
255554
255555
255557
255558
255559
255560
255565
255566
255570
255571
255572
255573
255575
218325
219107
255577
255578
255580
255581
255582
255584
255586
255587
255588
255589
255590
255591
255592
255593
255594
255595
255596
255597
255598
255600
255601
255602
255603
255605
255606
255607
255608
255609
255610
255611
255612
255614
255615
255616
255618
255619
255621
255622
255624
255625
255626
255627
255628
255630
255631
255632
255633
255634
255635
255636
255637
255638
255639
255640
255641
255642
255643
255644
255645
255647
255648
255649
255651
255652
255653
255654
255655
255656
255657
255658
255659
255660
255661
255663
255667
255669
255673
255674
255675
218756
218934
219281
255682
255683
255684
255685
255688
255689
255690
255691
255694
255695
255696
255698
255699
255700
255701
255703
255704
255705
255706
255707
255708
255709
255710
255711
255712
255713
255714
255715
255717
255718
255719
255721
255722
255723
255724
255725
255726
255727
255728
255729
255730
255731
255732
255733
255734
255735
255736
255737
255738
255739
255740
255741
255742
255743
255744
255745
255746
255747
255748
255749
255750
255751
255752
255753
255754
255755
255757
255758
255760
255761
255763
255764
255765
255766
255771
255774
255775
255776
255777
255779
255782
218415
255785
255786
255787
255788
255789
255790
255791
255792
255794
255795
255796
255797
255798
255799
255800
255801
255802
255804
255805
255807
255808
255809
255810
255811
255812
255814
255815
255816
255817
255818
255819
255820
255821
255822
255823
255824
255825
255826
255827
255828
255829
255830
255831
255832
255833
255834
255835
255836
255838
255839
255840
255841
255842
255843
255844
255845
255846
255847
255848
255849
255850
255851
255852
255853
255854
255855
255857
255858
255861
255862
255866
255867
255869
255874
255877
255878
255879
255881
255882
255883
255884
218507
255889
255891
255892
255893
255894
255895
255897
255898
255899
255900
255901
255902
255903
255904
255905
255906
255907
255908
255909
255910
255911
255912
255913
255914
255916
255917
255918
255919
255920
255921
255922
255923
255924
255925
255926
255927
255928
255929
255930
255931
255932
255933
255934
255935
255936
255937
255938
255939
255940
255942
255943
255944
255945
255946
255947
255948
255949
255950
255951
255952
255953
255954
255955
255956
255957
255958
255959
255960
255961
255962
255963
255965
255966
255967
255968
255969
255970
255971
255972
255976
255977
255980
255981
255982
255983
255986
255988
255989
255991
255992
255994
255997
255998
256000
256001
256003
256004
256007
256008
256009
256010
256011
256013
256014
256015
256016
256017
256018
256019
256020
256021
256022
256023
256024
256025
256026
256027
256028
256029
256030
256031
256032
256033
256034
256035
256036
256037
256039
256040
256041
256043
256044
256045
256046
256048
256049
256050
256051
256052
256053
256054
256056
256057
256058
256060
256061
256062
256064
256065
256066
256067
256068
256069
256070
256071
256072
256074
256075
256076
256077
256078
256080
256081
256082
256083
256085
256086
256088
256090
219282
219370
256093
256095
256097
256099
256100
256101
256102
256103
256105
256107
256108
256109
256110
256113
256114
256115
256116
256117
256118
256119
256120
256121
256123
256124
256125
256126
256128
256129
256130
256132
256133
256134
256135
256136
256137
256138
256139
256140
256141
256142
256144
256145
256146
256147
256148
256149
256150
256152
256153
256154
256155
256156
256157
256158
256159
256160
256161
256162
256163
256166
256167
256168
256169
256172
256173
256175
256176
256177
256178
256179
256182
256183
256185
256186
256187
256188
256190
256194
256199
256200
256202
256204
256206
256207
256208
256209
256210
256211
256212
256213
256215
256216
256217
256220
256221
256223
256224
256225
256227
256228
256229
256231
256232
256234
256235
256236
256237
256238
256239
256240
256241
256242
256243
256244
256245
256247
256248
256249
256250
256251
256252
256253
256254
256255
256256
256257
256258
256259
256260
256261
256262
256263
256264
256265
256266
256267
256268
256269
256270
256271
256272
256273
256274
256275
256276
256277
256278
256279
256281
256285
256286
256288
256289
256290
256291
256297
256298
256300
256301
256302
256303
218062
218843
256305
256308
256309
256310
256312
256313
256314
256317
256318
256319
256320
256321
256322
256323
256324
256325
256326
256327
256328
256329
256330
256331
256332
256333
256334
256335
256336
256337
256338
256339
256340
256341
256342
256343
256344
256345
256346
256347
256348
256349
256350
256351
256352
256353
256354
256355
256356
256357
256358
256359
256360
256361
256362
256363
256364
256365
256366
256367
256368
256369
256370
256371
256372
256373
256374
256375
256376
256377
256378
256379
256380
256381
256383
256384
256385
256387
256388
256390
256392
256394
256395
256398
256400
256401
256402
256404
256407
256408
256409
256411
256412
256413
256415
256417
256418
256419
256420
256421
256422
256423
256424
256425
256426
256427
256428
256429
256430
256431
256432
256433
256434
256435
256436
256437
256438
256439
256440
256441
256442
256443
256444
256445
256446
256447
256448
256449
256450
256451
256452
256453
256454
256455
256456
256457
256458
256459
256460
256461
256462
256463
256464
256465
256466
256467
256468
256469
256470
256471
256472
256473
256474
256475
256476
256477
256478
256479
256480
256482
256483
256484
256485
256486
256487
256488
256489
256491
256493
256494
256495
256498
256500
256502
219644
256505
256507
256508
256513
256514
256515
256516
256517
256518
256519
256521
256522
256523
256524
256525
256526
256527
256528
256530
256531
256532
256533
256534
256535
256536
256537
256538
256539
256540
256541
256542
256543
256544
256545
256546
256547
256548
256549
256550
256551
256552
256553
256554
256555
256556
256557
256558
256559
256560
256561
256562
256563
256564
256565
256566
256567
256568
256569
256570
256571
256572
256573
256574
256575
256576
256577
256578
256579
256580
256581
256582
256583
256584
256585
256586
256587
256589
256590
256592
256594
256596
256597
256600
219104
256604
256607
256608
256609
256610
256611
256613
256614
256615
256616
256617
256618
256619
256620
256621
256622
256623
256624
256625
256626
256627
256628
256629
256630
256631
256632
256633
256634
256635
256636
256637
256638
256639
256640
256641
256642
256643
256644
256646
256647
256648
256649
256650
256651
256652
256653
256654
256655
256656
256657
256658
256659
256660
256661
256662
256663
256664
256665
256666
256667
256668
256669
256670
256671
256672
256673
256674
256676
256677
256678
256679
256681
256682
256684
256685
256686
256688
256690
256691
256692
256693
256694
256695
256696
256697
256699
256701
219277
219280
220075
220076
256702
256703
256705
256709
256710
256711
256712
256713
256714
256715
256716
256717
256718
256719
256720
256721
256723
256724
256725
256726
256727
256728
256729
256730
256731
256732
256733
256734
256735
256736
256737
256738
256739
256740
256741
256742
256743
256744
256745
256746
256747
256748
256749
256750
256751
256752
256753
256754
256755
256756
256757
256758
256759
256760
256761
256762
256763
256764
256765
256766
256767
256768
256769
256770
256771
256772
256773
256774
256775
256776
256777
256778
256779
256780
256781
256782
256785
256786
256788
256790
256791
256792
256793
256794
256795
256797
256800
256801
256802
256803
256804
256805
256806
219727
220074
220254
256808
256809
256810
256811
256814
256815
256816
256818
256819
256820
256821
256822
256823
256824
256825
256826
256827
256828
256829
256830
256831
256832
256833
256834
256835
256836
256837
256838
256839
256840
256841
256842
256843
256844
256845
256846
256847
256848
256849
256850
256851
256852
256853
256854
256855
256856
256857
256858
256859
256860
256861
256862
256863
256864
256865
256866
256867
256868
256869
256870
256871
256872
256873
256874
256875
256876
256877
256878
256879
256880
256881
256883
256884
256885
256886
256887
256888
256889
256890
256891
256892
256893
256894
256895
256897
256900
256901
256902
256903
256904
256905
256908
256912
256914
256915
256916
256917
256918
256919
256920
256921
256922
256923
256924
256925
256926
256927
256928
256929
256930
256931
256932
256933
256934
256935
256936
256937
256938
256939
256940
256941
256942
256943
256944
256945
256946
256947
256948
256949
256950
256951
256952
256953
256954
256955
256956
256957
256958
256959
256960
256961
256962
256963
256964
256965
256966
256967
256968
256969
256970
256971
256972
256973
256974
256975
256976
256977
256978
256979
256980
256982
256983
256984
256986
256987
256988
256989
256990
256992
256994
256995
256996
256999
257002
257003
257004
257005
257006
257007
257010
257013
257014
257015
257016
257017
257018
257019
257020
257021
257022
257023
257024
257025
257026
257027
257028
257029
257030
257031
257032
257033
257034
257035
257036
257037
257038
257039
257040
257041
257042
257043
257044
257045
257046
257047
257048
257049
257050
257051
257052
257053
257054
257055
257056
257057
257058
257059
257060
257061
257062
257063
257064
257065
257067
257068
257069
257071
257072
257073
257075
257076
257077
257078
257079
257080
257081
257082
257083
257084
257085
257086
257087
257088
257089
257091
257092
257098
257100
257101
257102
257103
257104
257105
257106
257107
219997
220162
220164
220505
257109
257110
257113
257114
257115
257116
257117
257118
257119
257122
257123
257124
257125
257126
257130
257131
257132
257133
257134
257135
257136
257137
257138
257139
257140
257141
257142
257143
257144
257145
257146
257147
257148
257149
257150
257151
257152
257153
257154
257155
257156
257157
257158
257159
257160
257161
257162
257163
257164
257165
257166
257167
257168
257169
257170
257171
257172
257173
257174
257175
257176
257177
257178
257179
257180
257181
257182
257183
257184
257185
257186
257188
257190
257191
257192
257193
257194
257195
257196
257198
257199
257200
257206
257207
257208
257209
257210
257211
257212
257213
220422
257214
257216
257220
257221
257222
257223
257224
257225
257226
257227
257228
257229
257230
257232
257233
257234
257235
257236
257237
257238
257239
257240
257241
257242
257243
257244
257245
257246
257247
257248
257249
257250
257251
257252
257253
257254
257255
257256
257257
257258
257259
257260
257261
257262
257263
257264
257265
257266
257267
257268
257269
257270
257271
257272
257273
257274
257275
257276
257277
257278
257279
257280
257281
257282
257283
257284
257285
257286
257287
257288
257289
257290
257291
257292
257293
257294
257296
257297
257298
257299
257301
257303
257304
257308
257313
257314
257315
257316
257317
257318
257319
257320
257321
218067
218150
257326
257327
257329
257330
257331
257332
257333
257334
257335
257336
257337
257338
257339
257340
257341
257342
257343
257344
257345
257346
257347
257348
257349
257350
257351
257352
257353
257354
257355
257356
257357
257358
257359
257360
257361
257362
257363
257364
257365
257366
257367
257368
257369
257370
257371
257372
257373
257374
257375
257376
257377
257378
257379
257380
257381
257382
257383
257384
257385
257386
257387
257388
257389
257390
257391
257392
257393
257395
257396
257397
257398
257399
257400
257401
257404
257405
257406
257407
257409
257410
257412
257413
257414
257416
257417
257418
257419
220424
220782
257420
257421
257422
257427
257428
257429
257430
257432
257435
257436
257437
257438
257439
257440
257441
257442
257443
257444
257445
257446
257447
257448
257449
257450
257451
257452
257453
257454
257455
257456
257457
257458
257459
257460
257461
257462
257463
257464
257465
257466
257467
257468
257469
257470
257471
257472
257473
257474
257475
257476
257477
257478
257479
257480
257481
257482
257483
257484
257485
257486
257487
257488
257489
257490
257491
257493
257494
257495
257496
257497
257499
257500
257501
257502
257503
257504
257506
257508
257509
257511
257512
257513
257514
257515
257516
257518
257519
257520
257521
257522
257523
257524
257525
257526
219105
219283
220871
257528
257530
257534
257536
257537
257538
257539
257540
257541
257542
257543
257544
257545
257546
257547
257548
257549
257550
257551
257552
257553
257554
257555
257556
257557
257558
257559
257560
257561
257562
257563
257564
257565
257566
257567
257568
257569
257570
257571
257572
257573
257574
257575
257576
257577
257578
257579
257580
257581
257582
257583
257584
257585
257586
257587
257588
257589
257590
257591
257592
257593
257595
257596
257597
257598
257599
257600
257601
257602
257603
257604
257605
257607
257608
257609
257610
257611
257612
257615
257616
257618
257619
257620
257621
257622
257623
257624
257625
257626
257627
218512
219812
219817
257630
257631
257632
257633
257634
257636
257637
257638
257639
257640
257641
257642
257643
257645
257646
257647
257648
257649
257650
257651
257652
257653
257654
257655
257656
257657
257658
257659
257660
257661
257662
257663
257664
257665
257666
257667
257668
257669
257670
257671
257672
257673
257674
257675
257676
257677
257678
257679
257680
257681
257682
257683
257684
257685
257686
257687
257688
257689
257690
257691
257692
257693
257694
257695
257696
257697
257698
257699
257700
257701
257702
257703
257705
257706
257707
257708
257709
257710
257711
257712
257714
257715
257718
257719
257722
257723
257726
219286
257727
257731
257732
257733
257734
257735
257736
257737
257738
257739
257741
257742
257743
257744
257746
257747
257748
257749
257750
257751
257752
257753
257754
257755
257756
257757
257758
257759
257760
257761
257762
257763
257764
257765
257766
257767
257768
257769
257770
257771
257772
257773
257774
257775
257776
257777
257778
257779
257780
257781
257782
257783
257784
257785
257786
257787
257788
257789
257790
257791
257792
257793
257794
257795
257796
257797
257798
257799
257800
257801
257802
257803
257804
257805
257806
257807
257808
257809
257810
257811
257812
257814
257815
257816
257817
257818
257820
257821
257822
257826
257827
257830
257831
218424
218942
255158
255359
257832
257834
257835
257841
257842
257844
257845
257846
257847
257848
257849
257850
257851
257852
257853
257854
257855
257856
257857
257858
257860
257861
257862
257863
257864
257865
257866
257867
257868
257869
257870
257871
257872
257873
257874
257875
257876
257877
257878
257879
257880
257881
257882
257883
257884
257885
257886
257887
257888
257889
257890
257891
257892
257893
257894
257895
257896
257897
257898
257899
257900
257901
257902
257903
257904
257905
257906
257907
257908
257909
257910
257911
257913
257914
257915
257916
257917
257918
257919
257921
257922
257924
257925
257926
257927
257929
250710
219645
257930
257931
257932
257933
257934
257935
257936
257937
257938
257940
257942
257943
257944
257945
257946
257947
257948
257949
257950
257951
257952
257953
257954
257955
257956
257957
257958
257959
257960
257961
257962
257963
257964
257965
257966
257967
257968
257969
257970
257971
257972
257973
257974
257975
257976
257977
257978
257979
257980
257981
257982
257983
257984
257985
257986
257987
257988
257989
257990
257991
257992
257993
257994
257995
257996
257997
257998
257999
258000
258001
258002
258003
258004
258005
258006
258007
258008
258009
258010
258011
258012
258013
258014
258015
258016
258017
258018
258019
258020
258021
258022
258023
258026
258027
258028
258029
258030
258031
258033
258034
258035
258036
258037
219917
220507
221307
258039
258041
258042
258043
258045
258046
258047
258050
258051
258052
258053
258054
258055
258056
258057
258058
258059
258060
258061
258062
258063
258065
258066
258067
258068
258069
258070
258071
258072
258073
258074
258075
258076
258077
258078
258079
258080
258081
258082
258083
258084
258085
258086
258087
258088
258089
258090
258091
258092
258093
258094
258095
258096
258097
258098
258099
258100
258101
258102
258103
258104
258105
258106
258107
258108
258109
258110
258111
258112
258113
258114
258115
258116
258117
258118
258119
258120
258121
258122
258123
258124
258125
258126
258127
258128
258129
258130
258131
258132
258133
258134
258135
258137
258138
258139
258141
258142
258143
258144
258145
220691
220965
258146
258149
258150
258152
258153
258154
258155
258156
258157
258158
258159
258160
258161
258162
258163
258164
258165
258166
258167
258168
258169
258170
258171
258172
258173
258174
258175
258176
258177
258178
258179
258180
258181
258182
258183
258184
258185
258186
258187
258188
258189
258190
258191
258192
258193
258194
258195
258196
258197
258198
258199
258200
258201
258202
258203
258204
258205
258206
258207
258208
258209
258210
258211
258212
258213
258214
258215
258216
258217
258218
258219
258220
258221
258222
258223
258224
258225
258228
258230
258231
258233
258235
258237
258238
258239
258240
221397
258241
258242
258245
258246
258249
258250
258251
258252
258253
258254
258255
258257
258258
258259
258260
258261
258262
258263
258264
258265
258266
258267
258268
258269
258270
258271
258272
258273
258274
258275
258276
258277
258278
258279
258280
258281
258282
258283
258284
258285
258286
258287
258288
258289
258290
258291
258292
258293
258294
258295
258296
258297
258298
258299
258300
258301
258302
258303
258304
258305
258306
258307
258308
258309
258310
258311
258312
258313
258314
258315
258316
258317
258318
258320
258321
258322
258323
258324
258326
258332
258333
258334
258335
218854
218946
219728
219815
256294
258341
258343
258346
258347
258348
258349
258350
258351
258352
258353
258354
258355
258356
258357
258358
258359
258360
258361
258362
258363
258364
258365
258366
258367
258368
258369
258370
258371
258372
258373
258374
258375
258376
258377
258378
258379
258380
258381
258382
258383
258384
258385
258386
258387
258388
258389
258390
258391
258392
258393
258394
258395
258396
258397
258398
258399
258400
258401
258402
258403
258404
258405
258406
258407
258408
258409
258410
258411
258412
258413
258414
258415
258416
258418
258419
258420
258421
258422
258423
258424
258425
258427
258428
258429
258430
258431
258432
258433
258435
258436
258437
258438
258440
258441
258443
258444
258445
249029
220003
220427
220793
258447
258449
258451
258452
258455
258456
258457
258458
258459
258460
258461
258462
258463
258464
258465
258466
258467
258468
258469
258470
258471
258472
258473
258474
258475
258476
258477
258478
258479
258480
258481
258482
258483
258484
258485
258486
258487
258488
258489
258490
258491
258492
258493
258494
258495
258496
258497
258498
258499
258500
258501
258502
258503
258504
258505
258506
258507
258508
258509
258510
258511
258512
258513
258514
258515
258516
258517
258518
258519
258520
258521
258522
258523
258524
258525
258526
258527
258528
258529
258530
258531
258532
258534
258535
258536
258538
258539
220337
221220
221563
221649
258540
258545
258546
258547
258549
258550
258551
258552
258553
258554
258555
258556
258557
258558
258559
258560
258561
258562
258563
258564
258565
258566
258567
258568
258569
258570
258571
258572
258573
258574
258575
258576
258577
258578
258579
258580
258581
258582
258583
258584
258585
258586
258587
258588
258589
258590
258591
258592
258593
258594
258595
258596
258597
258598
258599
258600
258601
258602
258603
258604
258605
258606
258607
258608
258609
258610
258611
258612
258613
258614
258615
258616
258617
258618
258619
258620
258621
258622
258623
258624
258625
258626
258628
258629
258630
258631
258632
258633
258636
258638
258639
258640
258642
244024
219367
220518
220605
258643
258644
258645
258646
258647
258648
258649
258651
258652
258653
258654
258655
258656
258657
258658
258659
258660
258661
258662
258663
258664
258665
258666
258667
258668
258669
258670
258671
258672
258673
258674
258675
258676
258677
258678
258679
258680
258681
258682
258683
258684
258685
258686
258687
258688
258689
258690
258691
258692
258693
258694
258695
258696
258697
258698
258699
258700
258701
258702
258703
258704
258705
258706
258707
258708
258709
258710
258711
258712
258713
258714
258715
258716
258717
258718
258719
258720
258721
258722
258723
258724
258725
258726
258727
258729
258730
258731
258732
258734
258736
258737
258739
258740
258741
258742
258743
218677
219730
219732
221312
258745
258748
258751
258753
258754
258755
258756
258757
258758
258759
258760
258761
258762
258763
258764
258765
258766
258767
258768
258769
258770
258771
258772
258773
258774
258775
258776
258777
258778
258779
258780
258781
258782
258783
258784
258785
258786
258787
258788
258789
258790
258791
258792
258793
258794
258795
258796
258797
258798
258799
258800
258801
258802
258803
258804
258805
258806
258807
258808
258809
258810
258811
258812
258813
258814
258815
258816
258817
258818
258819
258820
258821
258822
258823
258824
258825
258826
258827
258828
258829
258830
258831
258832
258833
258834
258835
258836
258837
258838
258839
258840
258841
258844
258846
258847
258848
258849
258850
258851
258852
258853
219463
253223
221651
221912
258854
258857
258858
258859
258860
258861
258862
258863
258864
258865
258866
258867
258868
258869
258870
258871
258872
258873
258874
258875
258876
258877
258878
258879
258880
258881
258882
258883
258884
258885
258886
258887
258888
258889
258890
258891
258892
258893
258894
258895
258896
258897
258898
258899
258900
258901
258902
258903
258904
258905
258906
258907
258908
258909
258910
258911
258912
258913
258914
258915
258916
258917
258918
258919
258920
258921
258922
258923
258924
258925
258926
258927
258928
258929
258930
258931
258932
258933
258934
258935
258936
258937
258938
258939
258941
258942
258945
258946
258949
258950
258952
258953
258954
258955
258956
219369
221404
221822
258959
258962
258963
258965
258967
258968
258969
258970
258971
258972
258973
258974
258975
258976
258977
258978
258979
258980
258981
258982
258983
258984
258985
258986
258987
258988
258989
258990
258991
258992
258993
258994
258995
258996
258997
258998
258999
259000
259001
259002
259003
259004
259005
259006
259007
259008
259009
259010
259011
259012
259013
259014
259015
259016
259017
259018
259019
259020
259021
259022
259023
259024
259025
259026
259027
259028
259029
259030
259031
259032
259033
259034
259035
259036
259037
259038
259039
259040
259041
259042
259043
259044
259046
259047
259048
259049
259051
259052
259054
259055
259056
259057
259058
259059
259060
250898
218680
220884
220961
255361
259062
259065
259067
259068
259069
259070
259071
259072
259073
259074
259075
259076
259077
259078
259079
259080
259081
259082
259083
259084
259085
259086
259087
259088
259089
259090
259091
259092
259093
259094
259095
259096
259097
259098
259099
259100
259101
259102
259103
259104
259105
259106
259107
259108
259109
259110
259111
259112
259113
259114
259115
259116
259117
259118
259119
259120
259121
259122
259123
259124
259125
259126
259127
259128
259129
259130
259131
259132
259133
259134
259135
259136
259137
259138
259139
259140
259141
259142
259143
259144
259145
259146
259147
259148
259149
259150
259151
259155
259156
259157
259158
259160
219561
221821
222274
259161
259165
259166
259167
259168
259169
259170
259171
259172
259173
259174
259175
259176
259177
259178
259179
259180
259181
259182