/*--------------------------------*- C++ -*----------------------------------*\
  =========                 |
  \\      /  F ield         | OpenFOAM: The Open Source CFD Toolbox
   \\    /   O peration     | Website:  https://openfoam.org
    \\  /    A nd           | Version:  7
     \\/     M anipulation  |
\*---------------------------------------------------------------------------*/
FoamFile
{
    version     2.0;
    format      ascii;
    class       Cloud<dsmcParcel>;
    location    "0.005/lagrangian/dsmc";
    object      positions;
}
// * * * * * * * * * * * * * * * * * * * * * * * * * * * * * * * * * * * * * //

6948
(
(0.347946134 0.326026933 0.1991724862 0.1268544468) 448 876 2
(0.5990819834 0.1242250113 0.07623399703 0.2004590083) 485 946 1
(0.4157063862 0.1487908842 0.2921468069 0.1433559228) 479 933 1
(0.1076528407 0.3628775477 0.4461735797 0.08329603198) 468 912 1
(0.02566237298 0.4871688135 0.2677077634 0.2194610501) 479 933 2
(0.2800370344 0.3599814828 0.1841984555 0.1757830273) 459 878 1
(0.3332349053 0.01323623666 0.3333825474 0.3201463107) 459 895 1
(0.02021914833 0.4552803577 0.03461006811 0.4898904258) 468 914 1
(0.4468811584 0.2765594208 0.2674000846 0.009159336246) 499 2621 2
(0.8930910682 0.04088130693 0.01257315896 0.05345446588) 445 870 1
(0.4825514626 0.2382734152 0.2587242687 0.02045085349) 489 954 2
(0.02438336624 0.4878083169 0.4436815312 0.04412678572) 459 2617 2
(0.3375458458 0.2683080336 0.3312270771 0.06291904348) 468 915 2
(0.0911648168 0.4544175916 0.2694359016 0.18498169) 447 874 2
(0.5094965279 0.2452517361 0.2330437841 0.01220795201) 449 2616 2
(0.157649977 0.07983651277 0.3413384987 0.4211750115) 493 961 1
(0.1536822794 0.3916918228 0.03146703755 0.4231588603) 448 876 1
(0.1537138649 0.4231430676 0.07977449363 0.3433685739) 504 964 1
(0.5002021445 0.1791048461 0.2498989278 0.07079408167) 468 915 2
(0.2671715208 0.1465217901 0.2198924495 0.3664142396) 479 2619 1
(0.1309339472 0.317935183 0.1165978434 0.4345330264) 538 1047 1
(0.07289850237 0.4635507488 0.1987441621 0.2648065867) 578 1124 1
(0.5865085308 0.2067457346 0.1060965667 0.1006491679) 469 914 2
(0.7290929602 0.1254245652 0.1354535199 0.01002895474) 448 877 2
(0.2430358584 0.3784820708 0.01188090144 0.3666011694) 448 876 2
(0.07125340586 0.2267100681 0.237663229 0.4643732971) 458 895 1
(0.5186372639 0.240681368 0.1726168124 0.0680645556) 449 878 1
(0.43162746 0.2206864235 0.28418627 0.06349984656) 494 961 1
(0.542812729 0.006237300831 0.2285936355 0.2223563347) 457 894 2
(0.0008972175601 0.4995513912 0.2717073177 0.2278440735) 445 870 2
(0.5662727836 0.1004234768 0.2168636082 0.1164401314) 548 1064 1
(0.2038386728 0.3980806636 0.09169218516 0.3063884785) 499 954 1
(0.03643089836 0.4817845508 0.2530626944 0.2287218564) 478 915 1
(0.3606570522 0.3196714739 0.07877211578 0.2408993581) 445 1303 2
(0.2436215711 0.2773571539 0.3781892145 0.1008320606) 468 915 2
(0.02862740595 0.485686297 0.2737050931 0.2119812039) 446 870 2
(0.6461777627 0.1769111187 0.06027321766 0.116637901) 459 895 2
(0.2067620817 0.3966189592 0.06024779164 0.3363711675) 484 945 1
(0.1465408303 0.09213029482 0.4267295849 0.33459929) 447 872 1
(0.04719546454 0.4764022677 0.3478710896 0.1285311781) 448 1306 2
(0.6390839579 0.1685823165 0.180458021 0.01187570451) 454 888 2
(0.280300941 0.3598495295 0.1701028173 0.1897467122) 471 920 1
(0.1085365448 0.133549016 0.4457317276 0.3121827116) 445 868 1
(0.132788387 0.4336058065 0.1424567256 0.2911490809) 476 929 2
(0.4461389126 0.2769305437 0.1991784158 0.07775212791) 487 950 2
(0.2075837342 0.3962081329 0.1811563549 0.215051778) 447 875 1
(0.04986121058 0.2788950406 0.1961743542 0.4750693947) 442 864 1
(0.5568792422 0.2215603789 0.02368624746 0.1978741315) 466 908 2
(0.2246583641 0.3876708179 0.09132597562 0.2963448423) 468 915 1
(0.8823237327 0.05883813366 0.03279387851 0.02604425514) 443 864 2
(0.4252971013 0.2873514494 0.2534157593 0.0339356901) 458 893 2
(0.1926822547 0.4036588726 0.1754501894 0.2282086833) 468 896 1
(0.2396160235 0.2158313278 0.3801919883 0.1643606605) 458 896 2
(0.6291418921 0.1521587533 0.185429054 0.03327030068) 535 1042 2
(0.7073693739 0.1463153131 0.05064461012 0.09567070295) 476 927 2
(0.268555528 0.2074431885 0.1582790475 0.365722236) 448 1306 1
(0.175502107 0.4122489465 0.04229612158 0.3699528249) 475 927 2
(0.3640275991 0.3179862004 0.3030580932 0.01492810726) 499 2621 2
(0.4596628173 0.2701685913 0.02532525698 0.2448433343) 467 912 2
(0.7566568485 0.1216715758 0.1061188399 0.01555273584) 597 1141 1
(0.1285362156 0.4357318922 0.4195607889 0.01617110323) 453 885 2
(0.166557203 0.3037539249 0.1129674735 0.4167213985) 519 992 2
(0.2227155835 0.3886422083 0.1202024751 0.2684397332) 519 992 1
(0.2165850509 0.3917074746 0.004475024764 0.3872324498) 479 935 1
(0.09534040769 0.04858394609 0.4037458501 0.4523297962) 515 985 2
(0.1667626976 0.4166186512 0.07074997699 0.3458686742) 456 889 2
(0.05836390036 0.4708180498 0.3807926734 0.09002537637) 458 895 2
(0.1392859535 0.2375402461 0.1928167771 0.4303570232) 458 877 2
(0.8965435347 0.05172823267 0.03124803093 0.02048020173) 459 878 1
(0.2278326167 0.3860836916 0.08052565947 0.3055580322) 467 912 2
(0.2392606484 0.2836437978 0.09672587796 0.3803696758) 517 1007 1
(0.03650193583 0.3196517377 0.4817490321 0.1620972944) 474 926 2
(0.2466949545 0.1579169329 0.2187355898 0.3766525227) 509 973 2
(0.2313213373 0.3843393313 0.3253340494 0.05900528195) 458 896 1
(0.2836490251 0.2248704153 0.3581754875 0.1333050722) 479 935 2
(0.01899478924 0.4905026054 0.3978944804 0.09260812495) 459 2617 2
(0.0131851249 0.4934074376 0.1006477652 0.3927596723) 499 973 1
(0.5365755151 0.2317122425 0.08214261673 0.1495696257) 537 1027 1
(0.2705024618 0.3403555548 0.3647487691 0.02439321432) 478 934 2
(0.3065764694 0.3467117653 0.004338120156 0.3423736451) 565 1098 2
(0.09969887943 0.4501505603 0.4086028584 0.04154770185) 478 933 2
(0.6035792968 0.03835074794 0.1982103516 0.1598596036) 455 890 2
(0.08636134157 0.04808683538 0.4087324938 0.4568193292) 526 1024 1
(0.1582741566 0.4208629217 0.3637373003 0.05712562136) 459 2617 2
(0.2696600973 0.3651699513 0.00919386496 0.3559760864) 457 894 1
(0.8971185039 0.001014096213 0.05042665184 0.05144074805) 495 965 1
(0.311028117 0.007592241458 0.3444859415 0.3368937001) 476 927 1
(0.01815207284 0.4909239636 0.06703167704 0.4238922865) 508 972 1
(0.2435949482 0.01658327727 0.3616192487 0.3782025259) 458 895 1
(0.5702678048 0.2148660976 0.1373931311 0.07747296648) 449 876 2
(0.4756646035 0.2049827015 0.05718499672 0.2621676982) 459 878 2
(0.05881975129 0.4705901244 0.2705663997 0.2000237247) 486 946 2
(0.1031313783 0.0530538759 0.395380435 0.4484343109) 518 991 2
(0.6452388625 0.1713240452 0.1773805687 0.00605652356) 446 870 1
(0.1841074971 0.4079462515 0.1753142674 0.232631984) 468 914 2
(0.05449922072 0.04856686901 0.4241835206 0.4727503896) 458 877 2
(0.1664717094 0.3326440804 0.4167641453 0.0841200649) 555 1080 2
(0.3321120155 0.3031133275 0.3339439922 0.03083066469) 459 895 1
(0.4871075245 0.2323265714 0.02411966634 0.2564462377) 469 897 2
(0.2876789056 0.07740194308 0.3561605472 0.2787586041) 493 962 2
(0.08032172231 0.4598391388 0.04602732542 0.4138118134) 447 874 2
(0.1536607274 0.4231696363 0.2214983173 0.201671319) 459 878 1
(0.2715630355 0.3642184822 0.1836417655 0.1805767168) 487 932 1
(0.5272332063 0.04519496541 0.1911884315 0.2363833969) 447 1305 1
(0.423495911 0.08709802137 0.2011540231 0.2882520445) 504 982 1
(0.2320726772 0.3839636614 0.3649056645 0.01905799692) 479 2619 2
(0.1970873684 0.2369040564 0.4014563158 0.1645522594) 449 876 1
(0.01819891112 0.4909005444 0.1407689347 0.3501316098) 448 876 2
(0.3459370067 0.3270314967 0.03380574026 0.2932257564) 498 971 2
(0.5609131163 0.1827609664 0.2195434419 0.03678247547) 446 873 2
(0.07165410826 0.03788830525 0.4641729459 0.4262846406) 467 910 1
(0.224989251 0.3875053745 0.08560602022 0.3018993543) 448 874 2
(0.4122897912 0.2938551044 0.003378190056 0.2904769144) 478 934 1
(0.1243718502 0.4378140749 0.4179202403 0.01989383465) 456 892 1
(0.1440521556 0.1379424054 0.4279739222 0.2900315168) 37 75 2
(0.001812824419 0.327971865 0.4990935878 0.1711217227) 447 872 1
(0.1162122934 0.02573094735 0.4418938533 0.416162906) 469 914 1
(0.3897153682 0.3051423159 0.2940637875 0.01107852843) 508 972 1
(0.1133852392 0.2004351329 0.2428722475 0.4433073804) 456 873 2
(0.6593037439 0.1703481281 0.1281623748 0.04218575327) 468 915 1
(0.02572421523 0.4871378924 0.4509349078 0.03620298458) 444 868 2
(0.4427583267 0.03872578204 0.2786208367 0.2398950546) 497 970 2
(0.1950736403 0.4024631798 0.2216805411 0.1807826388) 446 870 2
(0.5347676653 0.2326161673 0.1525806599 0.08003550744) 467 912 2
(0.4845637941 0.1623659031 0.09535219979 0.2577181029) 457 875 2
(0.3415920377 0.1497906468 0.1794133344 0.3292039811) 478 933 1
(0.826387321 0.08680633951 0.07453429068 0.01227204883) 449 876 2
(0.07773096205 0.2397051803 0.461134519 0.2214293386) 539 1047 1
(0.07623518772 0.4618824061 0.09124385964 0.3706385465) 448 1306 2
(0.7171461805 0.0675065094 0.1414269098 0.07392040037) 543 1054 1
(0.14032823 0.429835885 0.305350075 0.12448581) 469 897 1
(0.2780690798 0.2274659894 0.1334994707 0.3609654601) 446 1304 1
(0.4631100915 0.02026338997 0.2481815643 0.2684449543) 485 928 2
(0.819992171 0.09000391449 0.01882358953 0.07118032496) 448 877 1
(0.7129583094 0.1100766497 0.03344419563 0.1435208453) 448 876 1
(0.4838477866 0.143569712 0.2580761067 0.1145063947) 474 923 1
(0.2277949006 0.3861025497 0.1439050366 0.2421975132) 479 935 1
(0.1047362975 0.2639395247 0.1836923265 0.4476318512) 494 963 1
(0.4415546772 0.1244944574 0.154728204 0.2792226614) 449 1307 1
(0.2739785292 0.263159406 0.09985132939 0.3630107354) 467 894 2
(0.3684304921 0.249168412 0.3157847539 0.06661634191) 465 906 1
(0.06760166554 0.3935944505 0.4661991672 0.07260471677) 457 894 2
(0.4725378978 0.2637310511 0.1311497089 0.1325813422) 519 992 1
(0.147715553 0.4261422235 0.3438303282 0.08231189531) 465 890 1
(0.4861035959 0.1434894294 0.256948202 0.1134587726) 478 934 2
(0.343399206 0.2302676739 0.09803272306 0.328300397) 448 1306 1
(0.1808787965 0.1536354086 0.4095606017 0.2559251932) 443 867 2
(0.4155824378 0.2922087811 0.2333492498 0.05885953126) 456 891 2
(0.3854227428 0.2370519774 0.07023665124 0.3072886286) 462 884 2
(0.3368526538 0.3315736731 0.1368734589 0.1947002143) 458 893 2
(0.3005379937 0.3497310031 0.0831426025 0.2665884006) 447 1305 2
(0.2079437798 0.3960281101 0.06631037342 0.3297177367) 455 887 2
(0.9215659577 0.02134104417 0.03921702117 0.017875977) 469 916 2
(0.3862703897 0.3068648052 0.1761876814 0.1306771238) 468 914 2
(0.4029155004 0.2985422498 0.1225417905 0.1760004593) 468 914 2
(0.5797910995 0.2101044503 0.1641141272 0.04599032304) 469 2618 2
(0.1056514625 0.232197402 0.2149768667 0.4471742688) 446 872 1
(0.8242670168 0.06466406863 0.02320242295 0.08786649159) 536 1043 1
(0.07799994975 0.4610000251 0.1059259102 0.3550741149) 505 966 1
(0.1273300347 0.3127565855 0.1235783972 0.4363349826) 488 934 2
(0.499957353 0.1580869042 0.2500213235 0.0919344193) 457 894 2
(0.2049136089 0.1096341423 0.2879090532 0.3975431955) 517 989 2
(0.2319184494 0.04671969478 0.3840407753 0.3373210805) 528 1029 2
(0.1391474757 0.3624893511 0.067936911 0.4304262621) 479 2619 1
(0.05651618582 0.4717419071 0.04112666602 0.4306152411) 478 915 1
(0.02566337229 0.4871683139 0.4264841159 0.06068419793) 529 1011 1
(0.2230760452 0.3884619774 0.059426951 0.3290350264) 489 954 1
(0.02845069507 0.3105936707 0.1751809818 0.4857746525) 484 926 2
(0.7529861833 0.1235069084 0.07017832209 0.05332858626) 458 895 2
(0.5197680411 0.2401159794 0.1636797022 0.07643627728) 468 896 1
(0.2381822736 0.2607210512 0.1201878121 0.3809088632) 443 1301 1
(0.1649601945 0.2849158319 0.4175199028 0.1326040708) 445 871 2
(0.422323187 0.09031058628 0.2888384065 0.1985278202) 498 972 2
(0.1262664141 0.02556007442 0.4113067185 0.4368667929) 479 2619 1
(0.6507614059 0.001803059449 0.1728162376 0.1746192971) 479 2619 1
(0.1926612797 0.2635937407 0.1400756195 0.4036693602) 459 878 2
(0.09307596359 0.4534620182 0.2067245016 0.2467375166) 490 239 2
(0.05809052508 0.4709547375 0.2943979626 0.1765567749) 466 910 2
(0.08602595492 0.4569870225 0.2204612179 0.2365258047) 467 894 1
(0.2725205875 0.05966920683 0.3040704994 0.3637397062) 539 2625 1
(0.144578821 0.4277105895 0.2882400595 0.13947053) 489 2620 2
(0.4834289463 0.1993937369 0.2582855268 0.05889178994) 447 872 1
(0.9482022071 0.01171464671 0.02589889646 0.01418424975) 444 866 1
(0.4973454711 0.2513272645 0.1290567225 0.122270542) 488 934 1
(0.250205478 0.374897261 0.3364376779 0.03845958315) 449 876 2
(0.2825402878 0.3587298561 0.3214840221 0.03724583396) 442 864 2
(0.4854794098 0.03481391008 0.222446385 0.2572602951) 448 876 1
(0.4007111508 0.1303758285 0.2996444246 0.1692685961) 508 988 1
(0.07602188082 0.1394452424 0.4619890596 0.3225438172) 467 913 2
(0.1551954998 0.1987335023 0.4224022501 0.2236687478) 446 873 2
(0.02939980321 0.4087143973 0.4853000984 0.07658570112) 448 877 2
(0.3718173902 0.3140913049 0.1017601993 0.2123311056) 468 914 2
(0.171521069 0.4142394655 0.239112361 0.1751271045) 459 2617 2
(0.08753238807 0.0826594605 0.456233806 0.3735743455) 548 1064 1
(0.5149889383 0.2001411513 0.0423643795 0.2425055308) 444 1302 1
(0.3665528599 0.3167235701 0.09193397225 0.2247895978) 445 1303 2
(0.3115481228 0.07452172865 0.26970421 0.3442259386) 473 905 2
(0.01502556038 0.04935748206 0.4924872198 0.4431297377) 469 914 1
(0.3587016198 0.3206491901 0.1841420487 0.1365071414) 577 1121 2
(0.6450667881 0.02844457624 0.1490220297 0.177466606) 468 914 1
(0.1668139882 0.05596692747 0.3606260785 0.4165930059) 476 911 2
(0.5078561559 0.07362172335 0.1724501987 0.246071922) 457 893 1
(0.1383884804 0.4308057598 0.1865071912 0.2442985685) 443 864 2
(0.286208621 0.1180574623 0.2388382272 0.3568956895) 525 1022 1
(0.1093317132 0.4453341434 0.1198700865 0.3254640569) 447 875 1
(0.1630094809 0.4184952596 0.3620738612 0.05642139836) 479 916 1
(0.9042269199 0.02782822198 0.04788654005 0.02005831807) 447 875 2
(0.2998380927 0.1059599967 0.2441209569 0.3500809536) 487 950 1
(0.01896350331 0.1119024311 0.3786158173 0.4905182483) 468 896 2
(0.02134010129 0.01520671864 0.4741232307 0.4893299494) 467 894 2
(0.4293316188 0.2853341906 0.1067381751 0.1785960156) 539 1030 1
(0.06820540564 0.1856100724 0.2802872248 0.4658972972) 78 117 2
(0.2224177961 0.3887911019 0.2137439559 0.1750471461) 488 950 2
(0.8348923924 0.06509343186 0.0825538038 0.01746037194) 449 878 2
(0.003313396639 0.05541785122 0.4429254505 0.4983433017) 446 1304 1
(0.4877082863 0.2561458569 0.1858647974 0.07028105943) 444 868 2
(0.1524129751 0.3415315208 0.08226199164 0.4237935124) 458 877 2
(0.04695346545 0.4765232673 0.05246484438 0.4240584229) 466 911 1
(0.296717462 0.351641269 0.2774540265 0.07418724249) 448 876 2
(0.4249092379 0.09927508101 0.2875453811 0.1882703001) 467 913 2
(0.1170783822 0.4414608089 0.3164308583 0.1250299506) 529 1011 1
(0.2568104443 0.016397461 0.3715947778 0.3551973168) 479 933 1
(0.8181322427 0.08600005527 0.09093387867 0.004933823394) 538 1048 2
(0.04910815446 0.2858441086 0.1896018142 0.4754459228) 445 1303 1
(0.03053420126 0.4847328994 0.04360276064 0.4411301387) 477 932 1
(0.06569103724 0.4671544814 0.2389613716 0.2281931098) 445 870 2
(0.3580201861 0.1542727299 0.3209899069 0.166717177) 458 896 2
(0.4490197706 0.04061623709 0.2348738776 0.2754901147) 445 1303 1
(0.5429625381 0.2285187309 0.08035697998 0.1481617509) 468 914 2
(0.3417204862 0.3291397569 0.2507154414 0.07842431548) 488 953 1
(0.8015802613 0.09920986936 0.09090643194 0.008303437421) 519 2623 2
(0.4672065923 0.08917789437 0.2663967038 0.1772188095) 459 897 2
(0.3072643078 0.3463678461 0.1217561561 0.22461169) 483 943 1
(0.2372464134 0.3813767933 0.2165289913 0.164847802) 509 973 1
(0.3259814228 0.1888022179 0.1482070707 0.3370092886) 485 928 2
(0.03378602674 0.1183816724 0.3647253142 0.4831069866) 565 1080 2
(0.3484007579 0.325799621 0.2438763169 0.08192330419) 507 988 2
(0.2429664739 0.3785167631 0.2166978943 0.1618188688) 609 1180 2
(0.3320626815 0.3339686592 0.125100143 0.2088685162) 445 1303 2
(0.06000335245 0.4646669721 0.4699983238 0.005331351649) 459 895 1
(0.6444021363 0.1777989319 0.138915211 0.03888372081) 498 971 2
(0.009903979386 0.3674220214 0.4950480103 0.1276259889) 494 961 1
(0.05687406471 0.4715629676 0.009413852668 0.462149115) 467 913 1
(0.03155022278 0.1723921624 0.3118327262 0.4842248886) 528 1010 2
(0.6775659798 0.1301598741 0.1612170101 0.03105713605) 456 892 2
(0.9214139085 0.01019234859 0.02910069715 0.03929304574) 465 908 1
(0.3355173398 0.3322413301 0.07966677594 0.2525745542) 454 869 1
(0.3265213999 0.3367393001 0.03418994257 0.3025493575) 575 1118 1
(0.4178102885 0.2910948558 0.2864214674 0.004673388374) 466 892 1
(0.008922974508 0.4955385127 0.4424217269 0.05311678584) 476 930 1
(0.41670494 0.09897553839 0.1926719916 0.29164753) 489 935 2
(0.1883524167 0.4058237917 0.2336422332 0.1721815585) 519 992 1
(0.1925313664 0.05115970625 0.4037343168 0.3525746106) 459 897 2
(0.2015941622 0.3992029189 0.2510769603 0.1481259586) 547 1065 1
(0.4290041332 0.2648246461 0.02067328726 0.2854979334) 498 971 1
(0.1835555158 0.4082222421 0.2463992124 0.1618230297) 629 1218 2
(0.5181525302 0.2409237349 0.2319361026 0.008987632295) 449 878 1
(0.3559927236 0.02241477986 0.2995888583 0.3220036382) 472 903 2
(0.08669339937 0.4566533003 0.1530025415 0.3036507588) 467 912 2
(0.5516646284 0.2241676858 0.07628840586 0.1478792799) 476 930 1
(0.01227252783 0.3364645815 0.1573991546 0.4938637361) 496 967 1
(0.6613244089 0.1693377955 0.09006875264 0.07926904289) 477 929 2
(0.07538293468 0.05883179273 0.4034767399 0.4623085327) 447 874 1
(0.2987317874 0.3506341063 0.3213800632 0.02925404314) 468 896 1
(0.5414134199 0.2292932901 0.08730656062 0.1419867294) 457 891 2
(0.249096065 0.2221617078 0.1532902597 0.3754519675) 448 1306 1
(0.07809714361 0.2444427736 0.2165086546 0.4609514282) 469 2618 1
(0.05572843684 0.3402469113 0.1318888703 0.4721357816) 568 1086 2
(0.5379576315 0.2310211843 0.1772698807 0.05375130356) 499 971 2
(0.2815848172 0.1443453687 0.3592075914 0.2148622227) 566 1101 2
(0.009064622366 0.05437210345 0.4410955854 0.4954676888) 485 946 1
(0.422364769 0.2888176155 0.04664726447 0.242170351) 467 913 1
(0.3298945181 0.3350527409 0.3129482475 0.02210449347) 456 889 2
(0.2549517148 0.3725241426 0.3232507281 0.04927341452) 459 897 1
(0.4209309996 0.2637390694 0.02579543081 0.2895345002) 478 933 1
(0.3310682086 0.3344658957 0.2728721528 0.06159374287) 469 2618 2
(0.06218364877 0.02744919861 0.441458977 0.4689081756) 444 1302 1
(0.4071420653 0.2086334467 0.2964289674 0.08779552062) 458 893 1
(0.1335131041 0.1791862562 0.433243448 0.2540571918) 447 872 1
(0.7349452486 0.06178246892 0.1325273757 0.07074490677) 449 876 1
(0.1695742272 0.03466729864 0.3805455877 0.4152128864) 476 911 2
(0.6608923448 0.1695538276 0.07578793276 0.09376589484) 485 928 1
(0.01087178462 0.2094417994 0.2851223083 0.4945641077) 469 2618 1
(0.4309043918 0.03799508085 0.2465527232 0.2845478041) 458 895 1
(0.1451704292 0.4274147854 0.4079944582 0.01942032726) 467 894 1
(0.01912641105 0.4904367945 0.285614444 0.2048223504) 444 868 2
(0.4140762698 0.2929618651 0.2924556185 0.0005062465779) 489 952 2
(0.2909813021 0.1586330087 0.1958763402 0.3545093489) 484 926 2
(0.1846950933 0.1709022252 0.2367502282 0.4076524533) 478 933 1
(0.1497447758 0.05655231603 0.4251276121 0.3685752961) 467 913 2
(0.01891149654 0.4905442517 0.4076144915 0.08292976023) 619 1182 1
(0.5822446704 0.2088776648 0.07999269981 0.128884965) 447 875 1
(0.3193477398 0.1954835224 0.1448426077 0.3403261301) 442 864 1
(0.6866070056 0.09586717722 0.06082932 0.1566964972) 498 953 2
(0.1748330661 0.264634504 0.412583467 0.147948963) 496 965 1
(0.3429297591 0.07178135075 0.2567537697 0.3285351204) 467 894 2
(0.08736563904 0.06514879442 0.3911683861 0.4563171805) 465 908 1
(0.2615067909 0.04543891119 0.3692466045 0.3238076933) 464 907 2
(0.2752282264 0.3623858868 0.2396119374 0.1227739494) 449 876 2
(0.07423684591 0.462881577 0.2453915118 0.2174900652) 479 916 1
(0.3820606511 0.0004538829946 0.3089696744 0.3085157914) 489 952 1
(0.3015224418 0.06770148927 0.2815372898 0.3492387791) 448 1306 1
(0.1170015721 0.2360998245 0.2053993894 0.4414992139) 559 2627 1
(0.0851458605 0.4574270697 0.0248399922 0.4325870776) 459 878 1
(0.2693476253 0.3653261874 0.1819710317 0.1833551557) 445 870 2
(0.39359687 0.1109276644 0.1922739006 0.303201565) 479 2619 1
(0.3947499624 0.3026250188 0.2836557923 0.01896922654) 477 929 2
(0.709155091 0.06139440908 0.1454224545 0.08402804544) 588 1143 2
(0.3843399305 0.2844271953 0.3078300348 0.02340283943) 569 1104 1
(0.1136089684 0.4431955158 0.2091252015 0.2340703143) 636 1233 2
(0.1900452937 0.1740511607 0.4049773532 0.2309261925) 559 1087 2
(0.7577991091 0.1211004455 0.06168727433 0.05941317113) 619 1199 2
(0.8654720422 0.03867075053 0.06726397888 0.02859322835) 446 870 1
(0.06817366678 0.4659131666 0.02123592432 0.4446772423) 477 932 1
(0.1565906016 0.41575651 0.005948189203 0.4217046992) 446 1304 1
(0.4193556127 0.09008532789 0.2903221936 0.2002368658) 59 116 1
(0.625536412 0.187231794 0.09499237173 0.09223942226) 446 873 1
(0.6265361765 0.1867319117 0.1798475532 0.00688435854) 458 893 2
(0.03092104464 0.4845394777 0.13554336 0.3489961177) 478 931 2
(0.3054853777 0.1102387758 0.2370185354 0.3472573111) 449 2616 1
(0.4117804747 0.2069854916 0.08712427106 0.2941097627) 442 1300 1
(0.3943389648 0.00884697056 0.3028305176 0.293983547) 496 965 1
(0.2429288801 0.3785355599 0.2573404082 0.1211951518) 463 902 2
(0.2076926137 0.134242889 0.2619108041 0.3961536931) 448 1306 1
(0.1877344092 0.4061327954 0.1555558159 0.2505769795) 442 864 2
(0.5180114285 0.2409942857 0.06403268843 0.1769615973) 489 954 1
(0.6084673328 0.1957663336 0.1252159463 0.07055038733) 524 1002 1
(0.2245156429 0.3877421786 0.1288960473 0.2588461312) 459 878 1
(0.748047061 0.1259764695 0.05015601657 0.07582045294) 518 991 1
(0.06087771449 0.04084110036 0.4695611428 0.4287200424) 488 953 2
(0.09049429438 0.3765393153 0.4547528528 0.07821353747) 618 1200 2
(0.8123257027 0.07756152668 0.01627562199 0.09383714867) 459 878 2
(0.1140035346 0.1847049105 0.2582933222 0.4429982327) 455 889 1
(0.09632910177 0.4518354491 0.0805844578 0.3712509913) 465 908 2
(0.07351896598 0.463240517 0.07348520663 0.3897553104) 489 2620 2
(0.2302270481 0.3848864759 0.3493396763 0.03554679963) 447 874 2
(0.2235416548 0.3882291726 0.03691269133 0.3513164813) 447 872 2
(0.6807848239 0.03760210234 0.1220054857 0.159607588) 453 867 2
(0.5646416885 0.123890201 0.09378895479 0.2176791558) 444 868 1
(0.01486098971 0.1294867493 0.4925695051 0.3630827559) 39 78 2
(0.1323237303 0.4338381349 0.2491359693 0.1847021655) 478 931 2
(0.1918509747 0.4040745127 0.131804736 0.2722697767) 486 948 2
(0.014334556 0.3847672131 0.1080655089 0.492832722) 449 1307 1
(0.6491373442 0.1754313279 0.155839667 0.01959166086) 445 868 2
(0.3455792415 0.3272103792 0.0688655735 0.2583448057) 448 876 2
(0.2322264502 0.3838867749 0.1696076364 0.2142791384) 463 886 1
(0.4234293361 0.2882853319 0.2590950455 0.02919028646) 457 893 2
(0.04465966892 0.2550158701 0.4776701655 0.2226542954) 506 984 1
(0.3486141927 0.3256929037 0.1371305601 0.1885623435) 499 2621 2
(0.5316617525 0.2341691237 0.08135322597 0.1528158978) 469 897 1
(0.176889929 0.1481861911 0.4115550355 0.2633688443) 531 1031 1
(0.06659759087 0.4432407016 0.4667012046 0.023460503) 567 1100 1
(0.138415978 0.04821785539 0.3825741556 0.430792011) 455 889 1
(0.08152080937 0.4592395953 0.1641089086 0.2951306867) 479 2619 2
(0.07074592728 0.1208640828 0.3437629535 0.4646270364) 529 1011 2
(0.3023366579 0.348831671 0.254710197 0.09412147405) 545 1060 2
(0.4744104548 0.2627947726 0.1348194102 0.1279753624) 557 1084 1
(0.008870871259 0.4955645644 0.3742157396 0.1213488248) 488 934 1
(0.09942257684 0.4502887116 0.04435170012 0.4059370115) 447 872 2
(0.2265752608 0.3867123696 0.3362363405 0.05047602913) 467 913 1
(0.2291435149 0.2708099695 0.114618273 0.3854282425) 469 2618 1
(0.06184515418 0.03536935187 0.433708071 0.4690774229) 456 873 2
(0.1498693086 0.4250653457 0.06055558028 0.3645097654) 443 1301 2
(0.2342049662 0.1161866755 0.3828975169 0.2667108414) 448 874 1
(0.0727221958 0.2563628891 0.4636389021 0.207276013) 499 971 1
(0.1825546288 0.4087226856 0.2525325869 0.1561900987) 506 987 1
(0.6228841665 0.1884851771 0.1885579167 7.273960232e-05) 479 935 2
(0.1584387893 0.4207806054 0.3627689968 0.05801160853) 538 1029 1
(0.2691048736 0.1038769056 0.2615706576 0.3654475632) 462 902 1
(0.2662338561 0.3288309248 0.03805214714 0.366883072) 445 1303 1
(0.4402457843 0.2770716458 0.2798771079 0.002805462015) 591 1145 1
(0.05631922521 0.4718403874 0.2547238696 0.2171165178) 518 1009 2
(0.3733063028 0.1687776009 0.3133468486 0.1445692477) 539 1049 2
(0.7331598996 0.1334200502 0.02615206813 0.1072679821) 552 1073 2
(0.2954359816 0.05640748611 0.2958745231 0.3522820092) 516 1005 1
(0.2779109777 0.1996553483 0.1613891629 0.3610445111) 468 914 1
(0.03221193957 0.1524976302 0.3313964 0.4838940302) 579 1106 2
(0.007657570676 0.4961712147 0.4286593917 0.06751182301) 493 959 2
(0.4419585014 0.001622168524 0.2790207493 0.2773985808) 506 984 1
(0.06778020343 0.4365761392 0.02953375909 0.4661098983) 448 876 1
(0.4031928647 0.2984035677 0.1898565243 0.1085470434) 448 876 2
(0.06032372857 0.4698381357 0.2315763446 0.2382617911) 465 906 2
(0.6335522958 0.174900625 0.1832238521 0.008323227138) 468 912 1
(0.1655618116 0.2535160212 0.4172190942 0.163703073) 457 894 2
(0.1882406632 0.4058796684 0.40015026 0.005729408446) 479 935 1
(0.3015433004 0.3492283498 0.3343724919 0.01485585788) 479 935 1
(0.7362282303 0.04183201659 0.1318858848 0.09005386824) 477 929 1
(0.7433364607 0.1283317697 0.04277018915 0.08556158052) 497 951 1
(0.5503304532 0.2248347734 0.1104008533 0.1144339202) 526 1022 2
(0.1894098678 0.3551446807 0.05015038547 0.4052950661) 499 954 2
(0.4431957301 0.2784021349 0.07956557944 0.1988365555) 451 879 2
(0.8429941332 0.00264921814 0.07585371525 0.07850293339) 446 872 1
(0.3376406704 0.02693556154 0.3311796648 0.3042441033) 447 875 2
(0.4910071689 0.2544964156 0.1834320144 0.07106440116) 448 877 1
(0.6526337693 0.1641068272 0.1736831153 0.009576288143) 485 947 2
(0.07188859078 0.4640557046 0.3083291971 0.1557265075) 497 951 1
(0.0386864859 0.2096272499 0.4806567571 0.2710295071) 497 967 1
(0.3621018402 0.0291141928 0.2898348871 0.3189490799) 498 971 1
(0.5395060281 0.2146084783 0.01563850767 0.230246986) 478 915 2
(0.6038160195 0.07823291677 0.1980919903 0.1198590735) 499 971 1
(0.4091581068 0.2696371594 0.02578378717 0.2954209466) 579 2629 1
(0.123274206 0.2335335908 0.438362897 0.2048293062) 589 1142 1
(0.2286805347 0.3856597327 0.2946681 0.09099163268) 599 2631 2
(0.02044204233 0.1940042508 0.4897789788 0.2957747281) 597 1160 2
(0.2717921395 0.1999386452 0.3641039303 0.1641652851) 584 1135 2
(0.1975112409 0.4012443796 0.3450179817 0.05622639787) 578 1123 2
(0.174272799 0.4128636005 0.3868251867 0.02603841382) 469 2618 2
(0.1824385801 0.2097634151 0.4087807099 0.1990172948) 446 870 1
(0.0393779375 0.4803110313 0.2912707248 0.1890403064) 475 927 2
(0.1665954954 0.1422473765 0.2744548758 0.4167022523) 469 897 2
(0.1265844985 0.03710144538 0.4367077508 0.3996063054) 477 932 2
(0.6016722183 0.1991638908 0.1863010921 0.0128627987) 456 873 1
(0.01518687092 0.4710392397 0.4924065645 0.02136732489) 444 866 1
(0.9945815143 0.002709242838 0.001635526258 0.00107371658) 528 1028 2
(0.7349877058 0.1325061471 0.04136764631 0.09113850081) 457 894 1
(0.04523863503 0.4773806825 0.4492842316 0.02809645091) 458 893 2
(0.1586005907 0.101778902 0.3189208026 0.4206997046) 476 929 1
(0.4665248697 0.02368486738 0.2667375651 0.2430526978) 462 900 1
(0.7586375323 0.02043439873 0.1206812339 0.1002468351) 477 932 2
(0.3922357667 0.3038821167 0.1158182661 0.1880638506) 447 874 2
(0.4094905453 0.2625806749 0.03267405248 0.2952547274) 76 152 1
(0.4368201116 0.1908658384 0.09072410576 0.2815899442) 452 883 1
(0.3250937316 0.2845867813 0.0528663529 0.3374531342) 467 894 2
(0.03826221961 0.3514397274 0.4808688902 0.1294291628) 459 895 1
(0.3660268829 0.3169865585 0.05556540834 0.2614211502) 453 885 2
(0.1629366676 0.4185316662 0.2609592633 0.1575724029) 535 1023 1
(0.6466816127 0.1766591937 0.03196551251 0.1446936811) 585 1137 1
(0.04866034838 0.0111344035 0.4756698258 0.4645354223) 444 866 1
(0.1761184242 0.294071237 0.1178695509 0.4119407879) 573 1095 2
(0.6330737766 0.1834631117 0.07255865433 0.1109044574) 547 1046 1
(0.4902675183 0.2548662408 0.1947195368 0.06014670406) 509 2622 2
(0.2176709546 0.3643369309 0.0268275918 0.3911645227) 554 1077 1
(0.04847509587 0.2932914587 0.4757624521 0.1824709933) 599 1163 2
(0.7499753739 0.125012313 0.09993052873 0.0250817843) 608 1162 1
(0.1737357702 0.1328851649 0.4131321149 0.28024695) 539 1047 1
(0.230074871 0.2168337166 0.3849625645 0.1681288479) 509 992 2
(0.01849073565 0.1694116801 0.4907546322 0.321342952) 604 1173 2
(0.5248303288 0.1562514484 0.0813333872 0.2375848356) 639 2635 1
(0.1814901475 0.05686904924 0.352385877 0.4092549263) 596 1157 1
(0.02518259505 0.4874087025 0.1336102658 0.3537984367) 557 1081 2
(0.05211865034 0.4739406748 0.2527303003 0.2212103745) 627 1216 2
(0.2942919472 0.3528540264 0.1484646576 0.2043893688) 632 1225 2
(0.5675277049 0.05669693109 0.2162361476 0.1595392165) 568 1102 1
(0.1949337658 0.4025331171 0.3444831381 0.05804997898) 446 870 2
(0.5523108409 0.1123532411 0.2238445795 0.1114913385) 447 872 1
(0.3652679983 0.2116768197 0.1056891811 0.3173660008) 459 878 2
(0.3316353827 0.1200886322 0.3341823087 0.2140936764) 444 866 1
(0.2828494148 0.1562187265 0.2023565661 0.3585752926) 466 892 2
(0.3438562502 0.143779811 0.1842920639 0.3280718749) 443 1301 1
(0.01256967663 0.4443484422 0.4937151617 0.04936671948) 444 866 1
(0.5075165376 0.1143387622 0.131902969 0.2462417312) 458 877 2
(0.2367260202 0.3816369899 0.3176193257 0.06401766422) 488 950 2