/*--------------------------------*- C++ -*----------------------------------*\
  =========                 |
  \\      /  F ield         | OpenFOAM: The Open Source CFD Toolbox
   \\    /   O peration     | Website:  https://openfoam.org
    \\  /    A nd           | Version:  7
     \\/     M anipulation  |
\*---------------------------------------------------------------------------*/
FoamFile
{
    version     2.0;
    format      ascii;
    class       Cloud<dsmcParcel>;
    location    "0.005/lagrangian/dsmc";
    object      positions;
}
// * * * * * * * * * * * * * * * * * * * * * * * * * * * * * * * * * * * * * //

5234
(
(0.7147454048 0.1426272976 0.1316039096 0.01102338799) 85 170 2
(0.1295505863 0.4352247069 0.012497573 0.4227271339) 462 900 2
(0.08915634462 0.4554218277 0.1878391634 0.2675826643) 219 436 2
(0.7617519507 0.1191240247 0.08889097907 0.03023304559) 431 850 2
(0.6627501878 0.1290948391 0.03953006699 0.1686249061) 45 90 1
(0.4342468793 0.1995602489 0.2828765603 0.08331631143) 150 298 1
(0.1244906447 0.4377546776 0.1441937504 0.2935609273) 118 236 2
(0.600759082 0.1832721716 0.199620459 0.01634828737) 444 869 2
(0.3477929628 0.0616817354 0.3261035186 0.2644217832) 553 1073 1
(0.2912292637 0.004483181626 0.3499021865 0.3543853682) 202 404 1
(0.5262810951 0.2101179886 0.02674146383 0.2368594525) 472 921 1
(0.05689693907 0.1917387781 0.2798127524 0.4715515305) 239 438 2
(0.1351467963 0.3568183104 0.07560829144 0.4324266019) 260 520 1
(0.617458028 0.191270986 0.1452301119 0.04604087409) 616 1193 2
(0.08921504275 0.3968665441 0.4553924786 0.05852593448) 279 556 1
(0.7589463309 0.06576511618 0.1205268345 0.05476171837) 217 435 2
(0.02231329315 0.2923981712 0.4888433534 0.1964451822) 340 681 2
(0.2898909563 0.09065462006 0.2643999018 0.3550545218) 288 576 1
(0.5302934726 0.2348532637 0.1596896735 0.07516359022) 152 304 2
(0.7421733474 0.04426594981 0.1289133263 0.08464737647) 497 967 1
(0.4278372097 0.06281207493 0.2860813951 0.2232693202) 468 912 1
(0.08344246963 0.07670232568 0.3815764395 0.4582787652) 153 267 2
(0.03546315315 0.4822684234 0.04436827508 0.4379001483) 653 1247 1
(0.5173902378 0.2413048811 0.1978756552 0.04342922588) 248 494 2
(0.4024380744 0.2449945998 0.2987809628 0.05378636301) 379 756 1
(0.3226193368 0.1405732346 0.198117097 0.3386903316) 203 406 1
(0.2119707652 0.3940146174 0.2019772614 0.192037356) 299 599 2
(0.2370223546 0.003371451313 0.3781173714 0.3814888227) 158 316 1
(0.1029699768 0.4485150116 0.2491143721 0.1994006395) 534 1040 1
(0.04138961203 0.479305194 0.09081316693 0.3884920271) 77 152 2
(0.226711802 0.386644099 0.1630811752 0.2235629238) 629 1218 2
(0.2521109733 0.3739445134 0.184988112 0.1889564013) 517 1007 2
(0.4573872009 0.07200239117 0.2713063996 0.1993040084) 324 646 1
(0.3891255613 0.3054372194 0.2576446767 0.04779254266) 305 611 1
(0.6680653848 0.0756424883 0.09032481932 0.1659673076) 134 268 1
(0.1097253355 0.4451373322 0.2625593762 0.182577956) 410 821 1
(0.3004824576 0.2205446241 0.3497587712 0.1292141471) 327 652 1
(0.3704010877 0.1217332644 0.1930661917 0.3147994561) 344 649 2
(0.3182627704 0.2173858863 0.1234827285 0.3408686148) 185 331 2
(0.6425690143 0.14898224 0.1787154928 0.02973325281) 303 604 1
(0.6948546469 0.1321504374 0.1525726765 0.02042223909) 346 690 1
(0.1250874924 0.4374562538 0.1994913975 0.2379648563) 390 780 2
(0.7619930039 0.01151500723 0.1074884908 0.1190034981) 154 269 2
(0.09120970708 0.1011248043 0.3532703422 0.4543951465) 189 378 1
(0.02866143848 0.1520967121 0.4856692808 0.3335725687) 236 470 1
(0.2419682365 0.3790158817 0.2696545927 0.109361289) 427 846 2
(0.3002591619 0.2859680452 0.349870419 0.06390237387) 36 70 1
(0.2720968179 0.3639515911 0.1235844121 0.240367179) 92 184 2
(0.5025331027 0.2487334486 0.1771766898 0.07155675883) 425 2642 1
(0.05867543011 0.4706622849 0.2175376098 0.2531246752) 265 531 1
(0.2792201259 0.360389937 0.1427828527 0.2176070844) 294 549 1
(0.4047253882 0.2976373059 0.1736127718 0.1240245341) 310 621 1
(0.8767178985 0.06164105073 0.02987862748 0.03176242325) 263 524 2
(0.5251739702 0.2374130149 0.1084170916 0.1289959233) 73 147 1
(0.5666136335 0.1457429632 0.07095022002 0.2166931832) 518 991 2
(0.01912021654 0.4904398917 0.3180422788 0.1723976129) 174 348 2
(0.189609677 0.1640218183 0.2411733432 0.4051951615) 580 1126 1
(0.7006734712 0.1104471187 0.1496632644 0.03921614572) 537 1046 2
(0.1877231856 0.04209554378 0.4061384072 0.3640428634) 560 519 1
(0.4095823115 0.2035307571 0.0916780871 0.2952088442) 160 281 2
(0.2105844226 0.2451971571 0.1495106316 0.3947077887) 89 178 1
(0.08253514666 0.4587324267 0.2052568832 0.2534755435) 543 1054 2
(0.6280715732 0.004747932726 0.1859642134 0.1812162807) 367 735 2
(0.3443195831 0.3278402084 0.2849935509 0.04284665752) 556 1082 1
(0.07317324146 0.1525796027 0.4634133793 0.3108337766) 174 349 2
(0.6584689527 0.09333805456 0.1707655236 0.07742746907) 296 590 1
(0.56164316 0.21917842 0.1008481624 0.1183302575) 276 550 2
(0.01487262055 0.4925636897 0.2600125594 0.2325511303) 92 184 2
(0.6578528972 0.08421089902 0.08686265236 0.1710735514) 550 1051 2
(0.1341072187 0.4329463907 0.2277011539 0.2052452367) 179 359 2
(0.6042065366 0.01457019433 0.1978967317 0.1833265374) 564 1094 1
(0.02744037578 0.2656139891 0.4862798121 0.2206658231) 217 435 2
(0.3736927672 0.1674933239 0.1456602925 0.3131536164) 408 777 2
(0.0981512675 0.2023125818 0.4509243663 0.2486117844) 88 177 2
(0.1231130083 0.4384434958 0.3613981734 0.07704532246) 494 964 1
(0.9533635435 0.02091025415 0.002407974097 0.02331822825) 216 432 1
(0.2725286388 0.1410794231 0.3637356806 0.2226562575) 243 484 1
(0.2409388208 0.3795305896 0.140387263 0.2391433266) 103 206 2
(0.07164511891 0.4641774405 0.3141927726 0.149984668) 534 1037 2
(0.4201818626 0.1575873729 0.2899090687 0.1323216958) 197 392 1
(0.2461817408 0.3769091296 0.09960301161 0.277306118) 216 430 2
(0.5279131033 0.2083864337 0.0276570146 0.2360434483) 522 1016 1
(0.005459271992 0.3099132183 0.497270364 0.1873571457) 5 11 2
(0.02253733857 0.4887313307 0.1551221412 0.3336091895) 626 1196 1
(0.6006885224 0.1996557388 0.1738659518 0.02578978694) 408 777 1
(0.3821165405 0.3089417297 0.3008844136 0.008057316149) 381 763 1
(0.2615033277 0.2649703745 0.3692483362 0.1042779616) 313 624 1
(0.4237751316 0.2753650542 0.01274738005 0.2881124342) 590 1145 1
(0.6823784982 0.02579884018 0.1588107509 0.1330119107) 377 755 2
(0.07865179072 0.002831966741 0.4578421379 0.4606741046) 151 302 1
(0.534237477 0.02349132386 0.2093899376 0.2328812615) 502 960 2
(0.5291916785 0.1841863299 0.05121783084 0.2354041607) 105 210 1
(0.4730023822 0.2634988089 0.1092007557 0.1542980532) 542 1054 2
(0.6847266853 0.1246198841 0.0330167733 0.1576366574) 393 786 1
(0.1450345388 0.3224150284 0.1050677022 0.4274827306) 439 838 2
(0.352606755 0.198939482 0.3236966225 0.1247571405) 555 1080 2
(0.04505521868 0.4774723907 0.192847292 0.2846250986) 384 766 2
(0.1858482454 0.2082788835 0.4070758773 0.1987969938) 208 414 1
(0.1026709728 0.4275391194 0.4486645136 0.02112539419) 236 473 2
(0.6534186404 0.1732906798 0.08241517833 0.09087550148) 279 518 1
(0.2103172228 0.3948413886 0.2731140676 0.121727321) 570 559 2
(0.7937991508 0.1018477022 0.001252722386 0.1031004246) 311 622 1
(0.2070068924 0.1165871417 0.2799094121 0.3964965538) 491 957 1
(0.01220993286 0.4938950336 0.3663137258 0.1275813078) 187 374 2
(0.1202341911 0.3098934044 0.4398829044 0.1299895001) 48 94 1
(0.1836324402 0.06562709102 0.4081837799 0.3425566889) 259 518 2
(0.08340885078 0.2181741609 0.2401214137 0.4582955746) 62 124 1
(0.2191125742 0.3904437129 0.1637882319 0.226655481) 13 27 1
(0.2494954942 0.3642892995 0.3752522529 0.01096295344) 116 230 1
(0.747179988 0.1206952442 0.005714761865 0.126410006) 237 435 2
(0.1355237194 0.254908655 0.1773294852 0.4322381403) 288 537 2
(0.4106875701 0.03924735518 0.2946562149 0.2554088598) 127 252 1
(0.1570829618 0.4214585191 0.1176127481 0.3038457709) 383 766 2
(0.2726332002 0.2758580297 0.3636833999 0.08782537023) 48 94 1
(0.0614556435 0.4692721782 0.1942657872 0.2750063911) 95 188 2
(0.1634087339 0.418295633 0.378952178 0.03934345506) 168 297 1
(0.003280081917 0.498359959 0.474527528 0.02383243105) 443 864 2
(0.01322803733 0.3981714879 0.0952144934 0.4933859813) 522 1016 1
(0.3230539116 0.3384730442 0.1335696401 0.2049034041) 371 740 2
(0.8569713391 0.07151433044 0.02435866712 0.04715566332) 269 539 1
(0.008289753987 0.08586155061 0.4099935724 0.495855123) 652 1255 1
(0.7609908808 0.1195045596 0.09965348026 0.01985107935) 239 479 2
(0.2818511158 0.0007460089935 0.3590744421 0.3583284331) 390 778 1
(0.9142116655 0.0152526998 0.02764146747 0.04289416727) 273 507 2
(0.2557828889 0.04341384007 0.3286947155 0.3721085555) 239 479 1
(0.3034265151 0.1609104801 0.3482867424 0.1873762623) 249 499 2
(0.4496431368 0.2751784316 0.1289033718 0.1462750597) 346 653 1
(0.04095596322 0.4795220184 0.1662239639 0.3132980545) 327 615 1
(0.2962680966 0.1358809559 0.2159849958 0.3518659517) 192 345 2
(0.4963129805 0.2406739435 0.2518435098 0.01116956623) 36 73 2
(0.6416689958 0.05726906378 0.1791655021 0.1218964383) 611 1186 2
(0.6003713566 0.1998143217 0.1660918954 0.03372242636) 207 375 1
(0.5391842673 0.1395807113 0.2304078664 0.09082715501) 71 143 2
(0.007218617588 0.3455341617 0.4963906912 0.1508565295) 232 462 1
(0.2101906291 0.3949046855 0.1092048614 0.2856998241) 328 654 2
(0.1276684717 0.4361657642 0.2498606807 0.1863050834) 476 911 1
(0.389473181 0.3052634095 0.2192587292 0.08600468028) 620 759 2
(0.09623117514 0.3052119801 0.4518844124 0.1466724323) 190 381 2
(0.4303809853 0.2848095073 0.1051778406 0.1796316668) 209 419 1
(0.7492814155 0.01889832796 0.1064609643 0.1253592923) 94 188 1
(0.4645724622 0.1624908417 0.1052229272 0.2677137689) 151 302 1
(0.01723840881 0.3328730673 0.1585077283 0.4913807956) 470 899 2
(0.4985251424 0.2507374288 0.06341926891 0.1873181599) 485 928 1
(0.4708194977 0.2645902512 0.2090621288 0.05552812238) 294 586 2
(0.08951571201 0.455242144 0.3752095269 0.08003261707) 213 426 2
(0.4344877541 0.282756123 0.2564917826 0.02626434034) 54 108 2
(0.4862053176 0.2081245913 0.2568973412 0.0487727499) 304 609 2
(0.5017165107 0.2491417446 0.1500301693 0.09911157539) 153 307 1
(0.08100389137 0.2530284848 0.2064695695 0.4594980543) 590 1127 2
(0.07742509288 0.4612874536 0.3597572637 0.1015301898) 233 467 1
(0.712951387 0.1435243065 0.07792109869 0.06560320783) 248 494 2
(0.1208697077 0.4395651461 0.002056023223 0.4375091229) 236 470 2
(0.05698529906 0.4715073505 0.4508489066 0.02065844385) 486 946 2
(0.2280939661 0.2006893203 0.1852636967 0.3859530169) 36 72 1
(0.8282516214 0.05168114237 0.08587418931 0.03419304694) 308 617 2
(0.3113105133 0.3181473412 0.3443447434 0.02619740213) 318 634 1
(0.2487955097 0.08090629212 0.3756022451 0.294695953) 560 1089 2
(0.5031472942 0.1994948021 0.04893155081 0.2484263529) 246 492 1
(0.01156995826 0.4942150209 0.2268100912 0.2674049297) 337 675 1
(0.8037768685 0.03280653449 0.06530503127 0.09811156576) 2 4 1
(0.3784371582 0.3107814209 0.09398617313 0.2167952478) 369 699 1
(0.5364795795 0.2120540325 0.01970617773 0.2317602102) 171 303 2
(0.1988429801 0.01828327424 0.40057851 0.3822952357) 506 987 2
(0.3234414257 0.03326053689 0.3382792872 0.3050187503) 176 353 2
(0.08255373269 0.4587231337 0.4215273983 0.03719573531) 353 704 2
(0.2101260568 0.3949369716 0.2553450705 0.1395919011) 461 882 1
(0.1376042644 0.3247378315 0.1064600364 0.4311978678) 64 89 2
(0.1184976801 0.44075116 0.00797505692 0.432776103) 481 920 1
(0.4078334892 0.2960832554 0.2436748712 0.05240838421) 129 219 1
(0.4807856028 0.1768180342 0.0827891644 0.2596071986) 32 25 2
(0.6545412139 0.1727293931 0.03720555786 0.1355238352) 64 89 1
(0.3645035886 0.1737124338 0.1440357718 0.3177482057) 560 1070 2
(0.09909667766 0.4504516612 0.3892173885 0.06123427268) 356 673 1
(0.4759619659 0.05994811748 0.2020708996 0.262019017) 323 646 1
(0.04074611043 0.03536170211 0.4442652427 0.4796269448) 354 669 2
(0.1826632683 0.3679579961 0.4086683659 0.04071036973) 242 482 1
(0.04155831748 0.2521363303 0.227084511 0.4792208413) 521 1014 1
(0.1212009415 0.1489148863 0.290484643 0.4393995292) 98 196 1
(0.4133107129 0.2933446436 0.1415531504 0.1517914932) 319 638 1
(0.4146434399 0.29267828 0.01614761758 0.2765306625) 234 466 2
(0.00672460903 0.07189505254 0.4966376955 0.4247426429) 412 825 2
(0.5760453638 0.1676642168 0.2119773181 0.04431310128) 482 938 1
(0.325124965 0.2287789832 0.3374375175 0.1086585343) 104 206 1
(0.6100543511 0.0407006232 0.1542722013 0.1949728245) 239 479 1
(0.1292277841 0.435386108 0.1122353955 0.3231507125) 507 970 1
(0.2884032981 0.1604863353 0.355798351 0.1953120157) 509 990 1
(0.1310521045 0.009875444709 0.4344739477 0.424598503) 53 107 2
(0.2589248108 0.1754291632 0.3705375946 0.1951084314) 30 61 2
(0.06902987293 0.4654850635 0.1674203524 0.2980647111) 283 527 1
(0.07263368275 0.4636831586 0.4290130993 0.03467005928) 88 177 1
(0.4465896599 0.2446053825 0.27670517 0.03209978757) 287 575 2
(0.5847995107 0.2076002447 0.1588912443 0.04870900039) 515 1004 1
(0.1722763767 0.4131178065 0.00074400515 0.4138618116) 186 372 1
(0.5375805245 0.2312097377 0.05411111123 0.1770986265) 326 650 2
(0.638348435 0.1808257825 0.08662455807 0.09420122441) 212 425 1
(0.2739741345 0.235970896 0.3630129328 0.1270420367) 575 1115 1
(0.481052097 0.1620250743 0.2594739515 0.09744887715) 432 2649 2
(0.2594580069 0.1433131705 0.2269578261 0.3702709965) 530 1013 2
(0.5236926141 0.2381536929 0.1558699145 0.08228377843) 271 543 1
(0.05907780346 0.3780700553 0.09239104298 0.4704610983) 402 804 1
(0.471056277 0.2144454962 0.2644718615 0.05002636533) 348 697 2
(0.09140057812 0.329137521 0.4542997109 0.12516219) 42 85 2
(0.1349464549 0.4325267726 0.1638425614 0.2686842112) 34 69 1
(0.1388808876 0.4305595562 0.1794712001 0.2510883561) 544 1040 1
(0.7504977142 0.1247511429 0.03520588605 0.08954525684) 111 183 1
(0.6072900527 0.04030612037 0.1963549736 0.1560488533) 550 1070 2
(0.4548150897 0.07829050962 0.2725924552 0.1943019456) 512 995 1
(0.372089922 0.001695725249 0.3122593138 0.313955039) 337 674 1
(0.1112610278 0.4443694861 0.2956096389 0.1487598472) 188 377 1
(0.07009302008 0.46495349 0.1098253976 0.3551280924) 484 945 1
(0.06732586939 0.3054415697 0.1608954957 0.4663370653) 76 113 2
(0.08802154352 0.1397092254 0.3162800028 0.4559892282) 128 256 1
(0.6926090165 0.1536954918 0.009538307475 0.1441571843) 610 719 2
(0.5002639304 0.1736533655 0.2498680348 0.07621466929) 284 569 2
(0.1296974856 0.4351512572 0.230978896 0.2041723613) 249 459 1
(0.38826702 0.2741763999 0.30586649 0.03169009016) 225 448 1
(0.4126367436 0.2936816282 0.2629856529 0.0306959753) 537 1027 1
(0.2784490267 0.3607754867 0.2957019269 0.06507355976) 357 712 2
(0.2252778986 0.2360033077 0.151357743 0.3873610507) 534 1039 1
(0.1105783191 0.4447108405 0.4267653783 0.01794546212) 181 362 2
(0.7713598422 0.086527174 0.0277929049 0.1143200789) 538 1029 2
(0.3775213199 0.1798595429 0.31123934 0.1313797971) 134 269 2
(0.2446130156 0.3776934922 0.04290374812 0.3347897441) 228 417 1
(0.7662114596 0.1168942702 0.01815094186 0.09874332834) 208 377 1
(0.1842797761 0.4078601119 0.2976215116 0.1102386003) 610 1165 1
(0.08267580598 0.458662097 0.1145915653 0.3440705317) 104 169 1
(0.4239457946 0.03697595779 0.2510511449 0.2880271027) 391 782 1
(0.8655081433 0.06724592833 0.0636546215 0.003591306829) 561 1072 1
(0.09168251524 0.2621725225 0.4541587424 0.1919862199) 370 741 2
(0.1738361999 0.4130819001 0.3368367812 0.07624511892) 517 1007 2
(0.5642334015 0.2178832992 0.05353889345 0.1643444058) 493 959 2
(0.1993388358 0.2275110269 0.4003305821 0.1728195552) 171 343 2
(0.2561519524 0.3719240238 0.3344931536 0.03743087022) 198 394 2
(0.1520793349 0.4239603325 0.3190651459 0.1048951867) 571 1091 1
(0.2029885773 0.3985057113 0.1596279084 0.2388778029) 347 695 1
(0.7398048117 0.1300975942 0.09606498238 0.03403261179) 581 1110 1
(0.6511356183 0.08608893816 0.08834325269 0.1744321909) 114 228 1
(0.1446028888 0.4276985556 0.2044995033 0.2231990523) 598 1143 1
(0.4397504972 0.2801247514 0.1580855252 0.1220392262) 62 124 2
(0.4186425901 0.2906787049 0.2674817844 0.02319692054) 219 436 2
(0.1355930431 0.008867191937 0.4233362865 0.4322034785) 148 257 2
(0.5569282645 0.2215358677 0.1727396887 0.04879617907) 398 797 1
(0.149183822 0.3183117919 0.425408089 0.1070962971) 333 664 1
(0.05717059283 0.4714147036 0.1050425939 0.3663721097) 204 408 2
(0.02418925835 0.4879053708 0.08615977403 0.4017455968) 328 657 1
(0.4559231037 0.2720384482 0.1508284735 0.1212099747) 107 212 2
(0.3861594862 0.2342508702 0.3069202569 0.07266938671) 194 389 2
(0.3856936736 0.0330255539 0.2741276093 0.3071531632) 298 596 1
(0.4084735441 0.295763228 0.03488989264 0.2608733353) 231 460 2
(0.1924083594 0.4037958203 0.3919333914 0.01186242887) 318 636 2
(0.05388854264 0.4730557287 0.00300652367 0.470049205) 46 90 2
(0.1919336341 0.4040331829 0.04407653151 0.3599566514) 366 732 2
(0.7573749481 0.121312526 0.102154069 0.01915845699) 417 835 1
(0.3347908583 0.3326045709 0.2161566228 0.116447948) 552 1055 1
(0.1128925607 0.4435537197 0.4086400651 0.0349136546) 454 887 2
(0.5507324434 0.2246337783 0.1717444139 0.05288936447) 313 587 1
(0.0038991559 0.1667141305 0.3313362916 0.498050422) 594 1135 2
(0.7921498591 0.01786972151 0.1039250704 0.08605534893) 408 814 1
(0.1720083268 0.4139958366 0.2538862064 0.1601096302) 163 324 2
(0.2182142978 0.3908928511 0.04762422299 0.3432686281) 298 594 2
(0.4948819029 0.1605850143 0.09197403432 0.2525590486) 228 417 2
(0.02280538981 0.4885973051 0.4331740718 0.05542323332) 548 1067 1
(0.476106964 0.261946518 0.1133047208 0.1486417972) 411 822 2
(0.5205376313 0.2397311844 0.1947422922 0.04498889219) 258 514 2
(0.08479697719 0.4576015114 0.2247579009 0.2328436105) 290 541 1
(0.3641986376 0.3179006812 0.05077792243 0.2671227588) 25 50 2
(0.03501720762 0.2299095718 0.4824913962 0.2525818244) 329 659 2
(0.1524351737 0.4237824131 0.06686421069 0.3569182025) 173 307 1
(0.1278766231 0.2391098007 0.1969518878 0.4360616884) 500 956 2
(0.1988025322 0.4005987339 0.3480445593 0.05255417458) 536 1044 1
(0.5628410184 0.01986120106 0.1987182897 0.2185794908) 362 724 1
(0.7051899174 0.1474050413 0.1065181356 0.04088690567) 541 1034 1
(0.8630784246 0.06846078768 0.04943786298 0.01902292471) 295 551 1
(0.2285251106 0.2311198183 0.3857374447 0.1546176264) 208 414 1
(0.5222924248 0.1144940179 0.1243597697 0.2388537876) 295 551 2
(0.6073898952 0.07042835776 0.1258766946 0.1963050524) 155 310 1
(0.0762903725 0.2196849997 0.4618548137 0.242169814) 573 1111 1
(0.5467017533 0.182659433 0.2266491233 0.04398969038) 50 101 2
(0.3710555841 0.01652042614 0.2979517818 0.3144722079) 267 534 1
(0.4685155291 0.2059391454 0.05980309 0.2657422354) 88 176 1
(0.78517866 0.10741067 0.07633053731 0.03108013271) 435 2652 1
(0.6558958012 0.02697159048 0.1720520994 0.1450805089) 331 663 2
(0.6851181495 0.06717591782 0.1574409253 0.09026500745) 196 393 2
(0.037693031 0.4811534845 0.4786947169 0.002458767616) 329 658 2
(0.1473062127 0.01394150764 0.4263468937 0.412405386) 272 542 1
(0.1612969675 0.4193515163 0.05076554258 0.3685859737) 93 187 1
(0.3451673131 0.1233399249 0.2040764186 0.3274163435) 450 879 1
(0.8268771171 0.08656144146 0.06781090958 0.01875053189) 544 1059 1
(0.08595545697 0.1130212151 0.4570222715 0.3440010564) 96 193 2
(0.08669062692 0.09713299463 0.4566546865 0.3595216919) 337 672 1
(0.07328275814 0.4633586209 0.07832872142 0.3850298995) 281 560 2
(0.1874697862 0.4062651069 0.3286149969 0.07765011004) 159 319 2
(0.3917112859 0.1379242135 0.3041443571 0.1662201436) 359 718 2
(0.07953036412 0.4195135398 0.04072127814 0.4602348179) 441 1299 1
(0.2710483207 0.3644758397 0.0003597779608 0.3641160617) 133 267 1
(0.8369620109 0.0810394226 0.08151899455 0.0004795719501) 480 937 2
(0.5619933732 0.2190033134 0.2130233457 0.005979967726) 455 889 2
(0.02615376515 0.4869231174 0.367804568 0.1191185494) 244 449 1
(0.3003746483 0.3498126758 0.1758529752 0.1739597006) 272 544 2
(0.2103160548 0.2711437416 0.3948419726 0.123698231) 157 312 1
(0.2740221296 0.1658089206 0.3629889352 0.1971800146) 271 543 2
(0.5991434171 0.02273836956 0.2004282915 0.1776899219) 369 736 1
(0.2622822083 0.1281321871 0.2407267087 0.3688588959) 441 1299 1
(0.04278650796 0.005989049167 0.4726176969 0.478606746) 133 227 2
(0.08013289063 0.4599335547 0.4302870151 0.02964653955) 562 1090 2
(0.3610515171 0.2244534539 0.3194742415 0.09502078755) 69 136 1
(0.3682342169 0.3158828915 0.2820104726 0.03387241896) 605 1172 2
(0.1604051844 0.3511422195 0.4197974078 0.06865518831) 199 398 2
(0.06588696001 0.4464247977 0.02063172225 0.46705652) 371 742 1
(0.4916308134 0.2541845933 0.0354906087 0.2186939846) 193 387 1
(0.2873097561 0.3563451219 0.1628624605 0.1934826614) 460 898 2
(0.6337615695 0.1831192152 0.002748884796 0.1803703305) 10 21 1
(0.5431779165 0.09776359397 0.2284110417 0.1306474478) 552 1071 1
(0.3248887288 0.3375556356 0.2471517935 0.09040384212) 195 351 1
(0.8805099181 0.05974504093 0.04976564655 0.009979394386) 533 1019 1
(0.4516692071 0.2741653964 0.1091185422 0.1650468542) 229 458 2
(0.4864394266 0.2567802867 0.2251723283 0.03160795839) 417 832 2
(0.1349935845 0.4325032078 0.3242980698 0.1082051379) 443 864 2
(0.05869639482 0.4706518026 0.02724643571 0.4434053669) 258 517 1
(0.185076417 0.2494690017 0.4074617915 0.1579927898) 494 961 1
(0.177621086 0.3597028507 0.411189457 0.05148660628) 127 255 2
(0.396118405 0.2938827588 0.008058038668 0.3019407975) 72 144 1
(0.4747749091 0.05723192736 0.2626125455 0.2053806181) 514 1002 2
(0.4443207545 0.2778396227 0.2255001966 0.05233942618) 611 1186 1
(0.3751967728 0.2422797768 0.3124016136 0.07012183681) 536 1044 2
(0.5309234463 0.2345382768 0.2121235635 0.02241471334) 315 631 1
(0.8964650159 0.04901181809 0.05176749203 0.002755673936) 105 211 2
(0.2870946425 0.3563720996 8.05791942e-05 0.3564526787) 325 650 1
(0.1411683254 0.3284174456 0.1009983917 0.4294158373) 164 328 1
(0.3014604136 0.3492697932 0.3304074652 0.01886232804) 635 1213 1
(0.4294929909 0.2852535045 0.05580536204 0.2294481425) 64 126 2
(0.1088832727 0.4455583637 0.2742577166 0.171300647) 28 17 1
(0.002298448789 0.4988507756 0.3976082294 0.1012425462) 408 777 1
(0.2428429905 0.309981702 0.06859680274 0.3785785047) 130 260 1
(0.7522875363 0.08951817956 0.03433805228 0.1238562318) 91 143 2
(0.1484980374 0.0435692329 0.3821817484 0.4257509813) 34 68 1
(0.5862321721 0.02253628335 0.1843476306 0.2068839139) 304 569 2
(0.6632679918 0.09795730939 0.07040869469 0.1683660041) 265 530 1
(0.008537214245 0.4402146588 0.4957313929 0.05551673406) 552 1071 1
(0.327076877 0.3056431862 0.3364615615 0.03081837529) 282 565 2
(0.2871275614 0.2031784895 0.3564362193 0.1532577297) 610 1184 2
(0.1392063612 0.01819887448 0.4121979449 0.4303968194) 337 674 1
(0.02443770518 0.1961711003 0.2916100472 0.4877811474) 348 696 1
(0.4583101113 0.2708449443 0.004764779475 0.2660801649) 216 433 1
(0.539981675 0.05129223749 0.2300091625 0.178716925) 101 200 1
(0.7656199571 0.1171900214 0.03189177624 0.08529824519) 218 437 1
(0.5255983086 0.1649460719 0.07225477386 0.2372008457) 378 756 1
(0.01414225816 0.4929288709 0.1302224443 0.3627064266) 299 598 1
(0.5590020695 0.1755118877 0.2204989652 0.0449870775) 204 409 2
(0.01367761139 0.4931611943 0.158336906 0.3348242884) 196 390 2
(0.1741266236 0.4129366882 0.06571054312 0.3472261451) 189 379 1
(0.5278980815 0.08595386152 0.2360509593 0.1500970978) 250 501 2
(0.4766954555 0.2616522722 0.2318067913 0.02984548097) 441 863 1
(0.147504247 0.1190248851 0.4262478765 0.3072229914) 57 112 1
(0.5433367118 0.09928977155 0.2283316441 0.1290418725) 133 267 2
(0.7662983329 0.0006980146309 0.1161528189 0.1168508335) 33 66 1
(0.1457403271 0.1342266216 0.4271298364 0.2929032149) 3 4 1
(0.3444410823 0.3277794588 0.3242490347 0.003530424164) 119 198 1
(0.5406138503 0.09058684994 0.1391062249 0.2296930749) 292 545 2
(0.6361704019 0.181914799 0.1225431443 0.05937165471) 78 117 1
(0.1282326363 0.4229872278 0.01289645408 0.4358836818) 436 856 1
(0.05406908191 0.472965459 0.1237634019 0.3492020571) 285 531 1
(0.05934571939 0.2367029415 0.2336241989 0.4703271403) 590 1127 2
(0.04650604073 0.23974435 0.2370026296 0.4767469796) 302 565 2
(0.3204855225 0.3397572388 0.2140069056 0.1257503331) 251 502 2
(0.5403502052 0.2298248974 0.1980814939 0.03174340351) 123 247 1
(0.1172593325 0.4413703337 0.1508483806 0.2905219531) 377 752 2
(0.04629671173 0.1939151536 0.4768516441 0.2829364905) 443 864 1
(0.04380598616 0.4780970069 0.05820346879 0.4198935381) 337 672 2
(0.3742223165 0.3128888417 0.2098449962 0.1030438456) 175 348 2
(0.3929217084 0.2242947505 0.3035391458 0.07924439526) 258 517 2
(0.6408327466 0.1795836267 0.05235543059 0.1272281961) 144 249 1
(0.1882672809 0.4058663596 0.02900937195 0.3768569876) 325 650 2
(0.3743724702 0.3128137649 0.2756744132 0.0371393517) 330 661 1
(0.5623082949 0.2188458526 0.2110990869 0.007746765665) 521 996 1
(0.2934689326 0.3423547667 0.01091076699 0.3532655337) 153 267 2
(0.1742114729 0.004384730568 0.408509533 0.4128942636) 62 85 2
(0.4188739858 0.1346804013 0.2905630071 0.1558826058) 466 908 1
(0.2265919757 0.3867040121 0.3219176256 0.06478638651) 566 1098 2
(0.4035612017 0.2982193992 0.09419476226 0.2040246369) 557 1065 1
(0.6806404851 0.1596797574 0.08297194845 0.07670780898) 145 251 1
(0.1554619672 0.1799290492 0.4222690164 0.2423399672) 190 378 1
(0.06521512802 0.2923113571 0.467392436 0.1750810789) 84 166 1
(0.06035512566 0.4698224372 0.3054876241 0.164334813) 95 191 1
(0.529563953 0.2352180235 0.1276494486 0.1075685749) 597 1160 1
(0.4581753193 0.210149464 0.2709123403 0.06076287632) 616 1196 2
(0.162777372 0.418611314 0.1145955437 0.3040157703) 136 270 2
(0.2009936653 0.2980136277 0.1014895397 0.3995031674) 209 379 2
(0.1790790972 0.4104604514 0.2653989574 0.145061494) 318 634 2
(0.4542042631 0.2643936556 0.008504212905 0.2728978685) 331 623 2
(0.151595927 0.2201768375 0.204025199 0.4242020365) 316 593 2
(0.2799984358 0.3600007821 0.2280845326 0.1319162496) 583 1133 1
(0.6434684827 0.05710815917 0.1782657587 0.1211575995) 472 919 1
(0.3907529413 0.2444830015 0.06014052785 0.3046235293) 252 504 1
(0.3210373458 0.3394813271 0.1649227474 0.1745585797) 219 436 2
(0.09441244853 0.2636684696 0.1891253061 0.4527937757) 47 94 1
(0.1107325505 0.3880060178 0.4446337247 0.05662770689) 368 734 1
(0.3148898338 0.3425550831 0.03198932959 0.3105657535) 14 26 2
(0.4460724239 0.276963788 0.166697379 0.1102664091) 69 136 2
(0.6936266396 0.02798225296 0.1252044272 0.1531866802) 452 865 2
(0.1202798954 0.4398600523 0.1263036889 0.3135563634) 547 1065 1
(0.664665727 0.1676671365 0.03915194183 0.1285151947) 645 1248 2
(0.4591214297 0.1082689414 0.1621703438 0.2704392852) 36 72 1
(0.4828898705 0.2585550647 0.1193357017 0.139219363) 325 648 2
(0.6601915058 0.1699042471 0.1106937177 0.05921052937) 83 164 2
(0.6189227375 0.06001838528 0.1305202459 0.1905386312) 566 1082 2
(0.08850868257 0.4557456587 0.1016005601 0.3541450986) 160 321 1
(0.0005683766241 0.4168379945 0.4997158117 0.08287781723) 33 67 2
(0.268372039 0.235195812 0.3658139805 0.1306181685) 356 713 2
(0.2612484197 0.3693757901 0.2874580307 0.08191775941) 603 1152 1
(0.3089951612 0.02517609377 0.3203263256 0.3455024194) 277 515 2
(0.2528548049 0.3735725976 0.357604869 0.01596772857) 51 63 1
(0.3982104762 0.3008947619 0.1697510666 0.1311436953) 506 984 2
(0.08153909711 0.1579203665 0.3013100849 0.4592304514) 4 8 1
(0.8191081144 0.03031526263 0.06013068018 0.09044594281) 516 1005 1
(0.2005225393 0.2243155424 0.175423188 0.3997387304) 512 979 2
(0.1306474574 0.3994713718 0.4346762713 0.03520489943) 158 317 2
(0.2460468777 0.3769765612 0.1569478482 0.220028713) 276 550 2
(0.4595509388 0.1236028871 0.1466216435 0.2702245306) 84 168 1
(0.4001696757 0.2999151621 0.002815463134 0.297099699) 270 541 1
(0.1532029909 0.4233985045 0.1935652451 0.2298332594) 296 592 2
(0.4582380545 0.2315827768 0.2708809727 0.03929819599) 466 911 2
(0.5561682316 0.1594896777 0.06242620653 0.2219158842) 185 331 2
(0.7628749506 0.01911262096 0.1185625247 0.09944990375) 228 454 1
(0.3678641327 0.3160679336 0.2048474698 0.1112204638) 153 267 1
(0.4443641769 0.2778179116 0.2067249218 0.0710929898) 197 392 2
(0.3421998337 0.2810399505 0.3289000832 0.04786013272) 490 239 1
(0.08340639433 0.36804566 0.4582968028 0.09025114279) 196 393 2
(0.0891316204 0.4554341898 0.330471275 0.1249629148) 3 7 1
(0.2726695575 0.3636652212 0.2483732605 0.1152919608) 634 1229 2
(0.2116491483 0.04276166567 0.3514137602 0.3941754258) 95 151 2
(0.5132696913 0.1653765369 0.07798861744 0.2433651544) 150 300 1
(0.00170667812 0.00632545713 0.4928212038 0.4991466609) 612 1169 2
(0.44121859 0.279390705 0.1224543109 0.1569363941) 353 704 2
(0.6341321536 0.06793974518 0.1829339232 0.114994178) 35 71 2
(0.392504117 0.1147848362 0.3037479415 0.1889631053) 331 660 1
(0.3067024517 0.3466487742 0.3380025004 0.008646273727) 511 977 1
(0.6492020399 0.04989491202 0.1753989801 0.1255040681) 592 1147 1
(0.4216467741 0.2891766129 0.234191701 0.05498491199) 454 869 1
(0.4006746804 0.2307398669 0.06892279286 0.2996626598) 520 1012 1
(0.8560954156 0.07195229219 0.07008621998 0.001866072206) 127 255 1
(0.1829157046 0.04398616811 0.3645559796 0.4085421477) 172 344 1
(0.2589607426 0.1478918351 0.3705196287 0.2226277936) 108 214 1
(0.3614285008 0.3192857496 0.1469969562 0.1722887933) 528 1028 2
(0.8504531226 0.0747734387 0.06811502178 0.006658416916) 237 435 1
(0.04673092319 0.4766345384 0.2481378774 0.228496661) 575 1115 2
(0.03325659355 0.1089723886 0.3743993147 0.4833717032) 418 836 1
(0.7407487288 0.1296256356 0.03733069861 0.092294937) 135 231 1
(0.04573020165 0.2867748398 0.4771348992 0.1903600594) 57 112 1
(0.03717160869 0.4814141957 0.03137227937 0.4500419163) 84 166 2
(0.4780445828 0.114785328 0.2609777086 0.1461923806) 155 308 1
(0.3519720204 0.002731727328 0.3212822625 0.3240139898) 226 413 2
(0.01155329337 0.4553323354 0.4942233533 0.03889101791) 510 319 1
(0.3195723358 0.2137092368 0.3402138321 0.1265045953) 174 346 1