/*--------------------------------*- C++ -*----------------------------------*\
  =========                 |
  \\      /  F ield         | OpenFOAM: The Open Source CFD Toolbox
   \\    /   O peration     | Website:  https://openfoam.org
    \\  /    A nd           | Version:  7
     \\/     M anipulation  |
\*---------------------------------------------------------------------------*/
FoamFile
{
    version     2.0;
    format      ascii;
    class       volScalarField;
    location    "0.00252";
    object      dsmcSigmaTcRMax;
}
// * * * * * * * * * * * * * * * * * * * * * * * * * * * * * * * * * * * * * //

dimensions      [0 3 -1 0 0 0 0];

internalField   nonuniform List<scalar> 
125
(
7.41369e-16
7.09919e-16
7.14093e-16
7.1391e-16
7.28548e-16
7.09871e-16
7.25864e-16
7.2668e-16
7.32802e-16
7.04513e-16
7.50374e-16
6.94367e-16
7.03036e-16
6.96545e-16
7.11907e-16
7.10787e-16
7.05861e-16
7.42103e-16
7.32115e-16
7.15833e-16
7.13682e-16
7.13519e-16
7.25291e-16
7.28723e-16
7.09083e-16
7.13774e-16
6.9579e-16
7.18171e-16
7.38618e-16
6.93851e-16
7.12023e-16
7.17828e-16
7.02506e-16
7.07468e-16
7.53107e-16
7.37506e-16
7.00911e-16
7.08351e-16
7.25042e-16
7.2791e-16
7.15425e-16
7.22401e-16
7.12201e-16
7.15139e-16
7.13479e-16
7.60153e-16
7.31325e-16
7.15342e-16
7.0584e-16
7.5343e-16
7.25973e-16
7.14019e-16
7.32923e-16
7.28625e-16
7.36609e-16
6.93045e-16
7.27632e-16
7.23692e-16
7.17027e-16
6.96121e-16
7.18388e-16
7.10493e-16
7.15358e-16
7.11832e-16
6.98589e-16
6.92615e-16
7.06474e-16
7.21248e-16
7.12359e-16
7.22028e-16
7.12475e-16
6.99776e-16
7.05885e-16
7.09708e-16
6.99177e-16
6.95066e-16
7.20105e-16
6.92086e-16
6.82478e-16
7.14263e-16
6.93852e-16
7.40962e-16
7.1268e-16
7.11906e-16
7.05938e-16
7.04199e-16
7.07776e-16
7.11096e-16
6.86803e-16
7.17092e-16
7.3759e-16
7.16493e-16
7.02459e-16
7.03879e-16
7.12837e-16
6.9353e-16
7.11526e-16
7.48643e-16
7.31268e-16
7.25596e-16
7.26874e-16
7.08255e-16
7.03446e-16
7.2646e-16
7.12342e-16
7.32756e-16
7.37415e-16
7.12893e-16
7.09524e-16
7.45289e-16
7.19822e-16
7.20683e-16
6.96494e-16
7.06375e-16
7.1389e-16
6.96423e-16
7.15826e-16
7.13029e-16
7.08284e-16
7.02876e-16
7.07097e-16
7.09691e-16
7.37003e-16
7.45152e-16
7.15034e-16
)
;

boundaryField
{
    sides
    {
        type            symmetry;
    }
    empty
    {
        type            empty;
    }
    procBoundary3to2
    {
        type            processor;
        value           uniform 7.20033e-16;
    }
}


// ************************************************************************* //
