/*--------------------------------*- C++ -*----------------------------------*\
  =========                 |
  \\      /  F ield         | OpenFOAM: The Open Source CFD Toolbox
   \\    /   O peration     | Website:  https://openfoam.org
    \\  /    A nd           | Version:  7
     \\/     M anipulation  |
\*---------------------------------------------------------------------------*/
FoamFile
{
    version     2.0;
    format      ascii;
    class       volScalarField;
    location    "0.00252";
    object      internalE;
}
// * * * * * * * * * * * * * * * * * * * * * * * * * * * * * * * * * * * * * //

dimensions      [1 -1 -2 0 0 0 0];

internalField   nonuniform List<scalar> 
125
(
103.297
108.257
148.811
76.4401
127.76
139.628
105.844
104.409
137.095
127.559
85.9788
114.782
93.1179
111.11
73.5345
86.1216
100.929
125.79
108.833
116.412
121.274
103.521
84.079
118.62
86.8157
96.6655
100.892
113.288
97.5714
85.4262
111.636
123.346
123.17
101.116
72.2201
103.144
114.893
90.9635
116.972
117.171
98.365
122.359
111.298
101.883
119.84
96.1451
134.48
120.359
134.751
90.8949
78.2283
94.4212
105.868
142.172
122.393
87.6232
80.666
88.439
98.6758
99.3889
110.257
95.453
99.4635
118.082
120.261
107.476
103.333
111.701
99.1508
119.876
117.304
122.768
106.82
128.903
119.945
100.711
76.6269
118.243
108.522
71.9705
111.034
127.979
103.805
125.416
80.1458
110.209
108.712
109.249
101.599
111.757
124.59
116.833
79.1431
121.613
84.2171
107.967
91.3351
133.166
125.331
116.126
139.027
116.763
109.233
130.155
106.454
92.5511
84.4299
139.458
102.53
123.375
151.832
123.447
107.43
107.491
123.362
91.0454
115.563
101.43
132.5
96.4846
95.3809
100.432
134.971
95.3683
103.681
)
;

boundaryField
{
    sides
    {
        type            symmetry;
    }
    empty
    {
        type            empty;
    }
    procBoundary3to2
    {
        type            processor;
        value           uniform 126.005;
    }
}


// ************************************************************************* //
