/*--------------------------------*- C++ -*----------------------------------*\
  =========                 |
  \\      /  F ield         | OpenFOAM: The Open Source CFD Toolbox
   \\    /   O peration     | Website:  https://openfoam.org
    \\  /    A nd           | Version:  7
     \\/     M anipulation  |
\*---------------------------------------------------------------------------*/
FoamFile
{
    version     2.0;
    format      ascii;
    class       volScalarField;
    location    "0.00252";
    object      internalE;
}
// * * * * * * * * * * * * * * * * * * * * * * * * * * * * * * * * * * * * * //

dimensions      [1 -1 -2 0 0 0 0];

internalField   nonuniform List<scalar> 
125
(
106.444
137.532
95.8242
92.8381
98.7764
83.7821
130.416
133.858
97.7308
136.877
98.0598
108.476
93.452
73.9594
104.675
128.606
116.077
115.636
70.9994
116.468
89.8
94.8257
113.566
131.821
81.0785
87.7965
115.383
106.928
97.7491
120.971
106.149
98.7637
140.941
97.0052
126.552
111.182
94.1687
108.168
139.452
115.698
135.938
117.726
105.316
94.5003
147.125
116.596
90.6238
112.979
126.829
121.286
81.6102
146.166
99.3032
79.1472
73.601
66.1994
114.911
116.833
114.667
90.6221
112.217
96.2531
97.46
100.06
127.009
75.553
114.984
129.089
98.4062
89.2926
110.114
134.398
120.419
100.615
128.032
152.518
104.048
100.709
115.219
95.4324
68.7094
83.2203
134.298
113.424
118.153
144.391
88.057
99.7664
132.659
122.731
83.4311
113.183
114.29
86.9133
97.6765
101.936
109.928
115.335
94.3096
118.514
110.409
95.1294
155.131
136.067
114.987
105.12
96.5365
97.6878
99.875
111.882
85.6088
103.744
92.3679
132.218
117.972
97.7296
124.171
127.503
158.799
89.396
112.999
141.972
128.368
99.4161
74.4559
)
;

boundaryField
{
    sides
    {
        type            symmetry;
    }
    empty
    {
        type            empty;
    }
    procBoundary3to2
    {
        type            processor;
        value           uniform 110.425;
    }
}


// ************************************************************************* //
