/*--------------------------------*- C++ -*----------------------------------*\
  =========                 |
  \\      /  F ield         | OpenFOAM: The Open Source CFD Toolbox
   \\    /   O peration     | Website:  https://openfoam.org
    \\  /    A nd           | Version:  7
     \\/     M anipulation  |
\*---------------------------------------------------------------------------*/
FoamFile
{
    version     2.0;
    format      ascii;
    class       volScalarField;
    location    "0.00252";
    object      rhoM;
}
// * * * * * * * * * * * * * * * * * * * * * * * * * * * * * * * * * * * * * //

dimensions      [1 -3 0 0 0 0 0];

internalField   nonuniform List<scalar> 
125
(
0.00101304
0.00101304
0.00149464
0.00114589
0.00124554
0.00134518
0.00117911
0.00109607
0.00129536
0.00117911
0.00117911
0.00144482
0.00114589
0.00106286
0.000963214
0.00126214
0.00122893
0.00127875
0.00129536
0.00124554
0.00129536
0.00111268
0.00122893
0.0011625
0.000946607
0.00111268
0.00111268
0.00126214
0.0011625
0.00104625
0.00106286
0.00144482
0.0011625
0.00112929
0.00109607
0.00109607
0.00132857
0.0011625
0.00131196
0.0011625
0.00122893
0.00137839
0.00111268
0.000946607
0.00136179
0.00107946
0.00142821
0.0011625
0.00136179
0.00121232
0.000996429
0.00124554
0.00117911
0.00167732
0.00126214
0.00112929
0.00114589
0.00122893
0.00136179
0.00126214
0.00129536
0.000979821
0.00102964
0.00131196
0.00142821
0.00127875
0.00146143
0.00102964
0.00141161
0.00146143
0.00127875
0.00132857
0.00126214
0.00121232
0.00112929
0.00144482
0.000996429
0.00107946
0.00136179
0.00101304
0.00126214
0.00132857
0.00101304
0.00144482
0.00117911
0.00119571
0.00119571
0.00136179
0.00131196
0.00109607
0.00149464
0.00136179
0.000896786
0.00126214
0.000863571
0.00122893
0.00117911
0.00122893
0.00137839
0.00114589
0.00142821
0.00129536
0.00121232
0.00161089
0.0011625
0.000963214
0.00126214
0.00137839
0.00124554
0.00129536
0.00142821
0.00126214
0.00127875
0.00126214
0.00132857
0.00131196
0.00114589
0.00112929
0.00122893
0.00119571
0.00107946
0.00132857
0.00134518
0.00102964
0.00129536
)
;

boundaryField
{
    sides
    {
        type            symmetry;
    }
    empty
    {
        type            empty;
    }
    procBoundary3to2
    {
        type            processor;
        value           uniform 0.00124554;
    }
}


// ************************************************************************* //
