/*--------------------------------*- C++ -*----------------------------------*\
  =========                 |
  \\      /  F ield         | OpenFOAM: The Open Source CFD Toolbox
   \\    /   O peration     | Website:  https://openfoam.org
    \\  /    A nd           | Version:  7
     \\/     M anipulation  |
\*---------------------------------------------------------------------------*/
FoamFile
{
    version     2.0;
    format      ascii;
    class       volScalarField;
    location    "0.15";
    object      epsilon;
}
// * * * * * * * * * * * * * * * * * * * * * * * * * * * * * * * * * * * * * //

dimensions      [0 2 -3 0 0 0 0];

internalField   nonuniform List<scalar> 
1935
(
0.0923046
0.0919453
0.0916064
0.0912753
0.0909403
0.0905904
0.0902158
0.0898082
0.0893613
0.0888715
0.0883381
0.0877637
0.0871538
0.0865165
0.085862
0.0852016
0.0845466
0.083908
0.0832952
0.0827158
0.0821751
0.0816765
0.0812214
0.0808096
0.0804398
0.0801097
0.0798164
0.0795572
0.0793292
0.0791298
0.0789567
0.0788082
0.0786831
0.0785812
0.0785027
0.078449
0.0784221
0.0784247
0.0784584
0.0785215
0.0786036
0.0786793
0.0787147
0.0907262
0.0893162
0.0880307
0.0868783
0.0903369
0.0889109
0.0876208
0.086472
0.0899712
0.0885323
0.0872401
0.0860967
0.0896178
0.08817
0.0868791
0.0857433
0.0892664
0.087815
0.0865296
0.0854048
0.0889082
0.0874597
0.086185
0.085075
0.0885352
0.0870975
0.0858395
0.0847489
0.088141
0.0867231
0.0854888
0.0844227
0.0877207
0.0863326
0.0851295
0.0840935
0.0872716
0.0859238
0.0847597
0.0837595
0.0867934
0.0854963
0.0843789
0.0834201
0.0862878
0.0850513
0.0839878
0.0830757
0.0857589
0.0845917
0.0835884
0.0827274
0.0852128
0.0841219
0.0831837
0.0823774
0.0846567
0.0836471
0.0827775
0.0820283
0.084099
0.0831734
0.0823742
0.0816833
0.0835479
0.082707
0.0819782
0.0813454
0.0830115
0.0822535
0.0815937
0.0810178
0.0824966
0.0818181
0.0812245
0.0807033
0.082009
0.0814051
0.0808737
0.080404
0.0815526
0.0810176
0.0805437
0.0801219
0.0811302
0.0806575
0.080236
0.0798581
0.0807429
0.080326
0.0799516
0.0796133
0.0803906
0.080023
0.0796904
0.0793876
0.0800725
0.0797479
0.0794522
0.0791808
0.0797868
0.0794996
0.0792361
0.0789924
0.0795318
0.0792767
0.079041
0.0788215
0.079305
0.0790775
0.0788659
0.0786673
0.0791045
0.0789004
0.0787093
0.0785288
0.078928
0.0787437
0.07857
0.078405
0.0787739
0.078606
0.0784468
0.0782949
0.0786406
0.0784859
0.0783386
0.0781974
0.078527
0.0783822
0.0782442
0.0781114
0.0784322
0.0782941
0.0781624
0.0780358
0.0783559
0.0782204
0.0780918
0.0779689
0.0782978
0.07816
0.0780308
0.0779087
0.0782578
0.0781113
0.0779768
0.0778523
0.0782352
0.0780718
0.0779264
0.0777957
0.0782282
0.0780379
0.0778754
0.0777348
0.0782325
0.0780047
0.0778189
0.0776653
0.0782396
0.0779665
0.077754
0.0775861
0.0782374
0.0779202
0.0776834
0.0775035
0.0782202
0.0778753
0.0776245
0.0774384
0.0858093
0.0848446
0.084013
0.0832851
0.0826379
0.0820541
0.0815219
0.0810335
0.080584
0.0801704
0.0797911
0.0794451
0.0791318
0.0788508
0.0786024
0.0783873
0.0782074
0.0780662
0.0779695
0.0779265
0.0779501
0.0780587
0.078277
0.0786372
0.0791809
0.0799603
0.0810402
0.0825007
0.08444
0.0869799
0.0902719
0.0945079
0.099938
0.1069
0.115881
0.127669
0.143796
0.168269
0.217594
0.44696
0.0854121
0.0844604
0.0836438
0.0829328
0.0823049
0.0817422
0.0812322
0.0807664
0.0803394
0.0799478
0.0795896
0.0792635
0.0789686
0.0787046
0.0784716
0.0782703
0.0781029
0.077973
0.0778866
0.077853
0.0778853
0.0780021
0.0782282
0.0785963
0.0791479
0.0799353
0.0810237
0.0824931
0.084442
0.086992
0.0902946
0.0945419
0.0999834
0.106957
0.115948
0.127743
0.143868
0.168319
0.21755
0.446347
0.0850469
0.0841082
0.0833062
0.0826117
0.0820013
0.081457
0.0809663
0.0805205
0.0801134
0.0797414
0.0794021
0.0790937
0.0788155
0.0785669
0.0783479
0.0781595
0.0780037
0.0778844
0.0778076
0.0777829
0.0778235
0.0779483
0.0781822
0.0785579
0.0791174
0.079913
0.0810099
0.0824883
0.0844468
0.0870069
0.0903203
0.0945789
0.100032
0.107016
0.116017
0.127818
0.143941
0.168366
0.217495
0.445672
0.0847054
0.0837806
0.0829933
0.0823145
0.0817207
0.0811938
0.0807209
0.0802929
0.0799036
0.0795492
0.0792268
0.0789347
0.0786717
0.0784371
0.0782311
0.0780546
0.0779096
0.0778002
0.0777326
0.0777163
0.0777649
0.0778974
0.0781389
0.0785223
0.0790896
0.0798934
0.0809989
0.0824864
0.0844545
0.0870249
0.090349
0.0946188
0.100083
0.107078
0.116089
0.127896
0.144015
0.168412
0.217432
0.444946
0.0843811
0.0834716
0.0826996
0.0820364
0.0814586
0.0809481
0.0804919
0.0800807
0.0797081
0.0793698
0.0790628
0.0787854
0.0785363
0.0783148
0.0781208
0.0779553
0.0778205
0.0777204
0.0776614
0.0776532
0.0777096
0.0778496
0.0780986
0.0784896
0.0790646
0.0798765
0.0809906
0.0824872
0.084465
0.0870456
0.0903805
0.0946614
0.100137
0.107143
0.116163
0.127974
0.144088
0.168455
0.21736
0.444177
0.0840684
0.0831762
0.0824207
0.0817735
0.0812116
0.0807171
0.0802768
0.0798814
0.0795244
0.0792012
0.0789089
0.0786453
0.078409
0.0781995
0.0780167
0.0778615
0.0777362
0.077645
0.0775942
0.0775938
0.0776577
0.077805
0.0780613
0.0784597
0.0790425
0.0798625
0.0809851
0.0824908
0.0844783
0.0870692
0.0904148
0.0947067
0.100193
0.10721
0.116238
0.128053
0.144162
0.168496
0.21728
0.44337
0.0837629
0.0828905
0.082153
0.0815228
0.0809771
0.0804983
0.0800735
0.0796934
0.0793512
0.0790424
0.0787638
0.0785132
0.0782892
0.078091
0.0779187
0.0777732
0.0776569
0.0775739
0.077531
0.0775381
0.0776092
0.0777636
0.078027
0.0784328
0.0790232
0.0798512
0.0809824
0.0824972
0.0844943
0.0870953
0.0904515
0.0947542
0.100252
0.107278
0.116315
0.128133
0.144234
0.168534
0.217193
0.442529
0.0834613
0.0826115
0.081894
0.0812818
0.0807528
0.08029
0.0798806
0.0795152
0.0791874
0.0788923
0.0786268
0.0783886
0.0781762
0.0779888
0.0778264
0.0776901
0.0775823
0.0775073
0.0774719
0.077486
0.0775641
0.0777254
0.0779958
0.0784088
0.0790067
0.0798427
0.0809824
0.0825062
0.0845128
0.0871239
0.0904905
0.094804
0.100312
0.107348
0.116392
0.128213
0.144306
0.16857
0.217098
0.441656
0.0831608
0.0823369
0.0816415
0.0810488
0.0805373
0.0800908
0.0796967
0.0793459
0.079032
0.0787503
0.0784974
0.078271
0.0780696
0.0778924
0.0777396
0.0776121
0.0775124
0.077445
0.0774167
0.0774377
0.0775225
0.0776905
0.0779677
0.0783877
0.0789931
0.079837
0.080985
0.0825177
0.0845338
0.0871548
0.0905318
0.0948556
0.100374
0.107419
0.11647
0.128294
0.144377
0.168603
0.216998
0.440752
0.08286
0.0820652
0.0813942
0.0808224
0.0803294
0.0798996
0.0795209
0.0791847
0.0788845
0.0786157
0.0783749
0.0781599
0.0779691
0.0778018
0.077658
0.0775389
0.077447
0.0773869
0.0773655
0.0773932
0.0774844
0.0776589
0.0779427
0.0783696
0.0789823
0.079834
0.0809903
0.0825318
0.0845572
0.087188
0.0905751
0.0949092
0.100437
0.107492
0.116549
0.128375
0.144448
0.168635
0.216894
0.439814
0.0825581
0.0817956
0.0811512
0.0806018
0.0801282
0.0797156
0.0793527
0.079031
0.0787442
0.078488
0.0782591
0.078055
0.0778744
0.0777165
0.0775814
0.0774704
0.077386
0.0773329
0.0773181
0.0773522
0.0774498
0.0776306
0.077921
0.0783547
0.0789746
0.0798338
0.0809983
0.0825484
0.084583
0.0872234
0.0906205
0.0949647
0.100503
0.107566
0.11663
0.128458
0.144523
0.168679
0.21683
0.438976
0.0822551
0.0815278
0.0809122
0.0803866
0.0799333
0.0795385
0.0791915
0.0788842
0.0786109
0.078367
0.0781495
0.0779561
0.0777853
0.0776364
0.0775097
0.0774063
0.0773291
0.0772827
0.0772744
0.0773147
0.0774184
0.0776055
0.0779023
0.0783428
0.0789697
0.0798365
0.081009
0.0825678
0.0846115
0.0872614
0.0906683
0.0950224
0.10057
0.107642
0.116713
0.128542
0.144602
0.168731
0.216791
0.43823
0.0819516
0.0812622
0.0806772
0.0801766
0.0797445
0.0793679
0.0790369
0.0787442
0.0784841
0.0782524
0.078046
0.0778629
0.0777015
0.0775613
0.0774426
0.0773466
0.0772763
0.0772364
0.0772342
0.0772806
0.0773902
0.0775834
0.0778865
0.0783335
0.0789674
0.0798417
0.0810222
0.0825894
0.0846421
0.0873013
0.0907178
0.0950815
0.100638
0.107719
0.116796
0.128628
0.144681
0.168787
0.216761
0.437508
0.0816491
0.0809997
0.0804466
0.0799721
0.0795617
0.0792037
0.078889
0.0786107
0.0783636
0.0781438
0.0779483
0.0777751
0.0776229
0.0774911
0.07738
0.0772911
0.0772273
0.0771936
0.0771974
0.0772495
0.0773649
0.077564
0.0778731
0.0783266
0.0789673
0.0798489
0.0810372
0.0826127
0.0846741
0.0873424
0.0907682
0.0951411
0.100707
0.107795
0.116878
0.128712
0.144761
0.168843
0.216731
0.436782
0.0813494
0.0807412
0.0802211
0.0797734
0.0793851
0.0790459
0.0787475
0.0784836
0.0782494
0.0780412
0.0778562
0.0776927
0.0775492
0.0774254
0.0773217
0.0772396
0.0771821
0.0771543
0.0771637
0.0772214
0.0773424
0.077547
0.0778621
0.0783217
0.0789691
0.0798578
0.0810536
0.0826372
0.084707
0.0873841
0.0908187
0.0952005
0.100775
0.10787
0.116959
0.128795
0.144837
0.168896
0.216694
0.436044
0.0810545
0.0804883
0.0800017
0.079581
0.0792151
0.0788947
0.0786125
0.0783628
0.0781412
0.0779443
0.0777696
0.0776153
0.0774803
0.0773642
0.0772675
0.0771918
0.0771403
0.0771182
0.077133
0.077196
0.0773223
0.0775324
0.0778531
0.0783187
0.0789724
0.0798679
0.081071
0.0826622
0.0847401
0.0874256
0.0908686
0.0952587
0.100841
0.107943
0.117036
0.128873
0.144909
0.168943
0.216649
0.435294
0.0807667
0.0802424
0.0797892
0.0793956
0.0790519
0.0787502
0.078484
0.0782482
0.078039
0.0778531
0.0776883
0.0775429
0.077416
0.0773072
0.0772172
0.0771477
0.0771019
0.0770851
0.0771051
0.0771731
0.0773044
0.0775197
0.0778457
0.0783171
0.0789769
0.0798789
0.0810889
0.0826875
0.084773
0.0874663
0.0909173
0.0953151
0.100904
0.108013
0.11711
0.128947
0.144976
0.168983
0.216594
0.434534
0.0804881
0.0800049
0.0795846
0.0792177
0.0788959
0.0786126
0.078362
0.0781399
0.0779426
0.0777674
0.0776121
0.0774753
0.0773561
0.0772543
0.0771707
0.077107
0.0770666
0.0770549
0.0770798
0.0771525
0.0772886
0.0775087
0.0778399
0.0783166
0.0789822
0.0798903
0.0811069
0.0827124
0.0848051
0.0875057
0.0909641
0.095369
0.100965
0.108078
0.117179
0.129016
0.145036
0.169016
0.21653
0.433768
0.0802207
0.0797772
0.0793889
0.0790479
0.0787475
0.078482
0.0782467
0.0780377
0.077852
0.077687
0.0775409
0.0774123
0.0773005
0.0772053
0.0771277
0.0770695
0.0770342
0.0770273
0.0770567
0.0771339
0.0772745
0.0774992
0.0778352
0.078317
0.078988
0.0799019
0.0811245
0.0827364
0.0848358
0.0875432
0.0910083
0.0954196
0.101021
0.108139
0.117243
0.129078
0.145088
0.16904
0.216457
0.433002
0.0799661
0.0795605
0.0792027
0.0788866
0.0786068
0.0783586
0.078138
0.0779417
0.0777671
0.0776119
0.0774745
0.0773537
0.0772488
0.07716
0.077088
0.077035
0.0770046
0.0770021
0.0770358
0.0771172
0.077262
0.077491
0.0778315
0.078318
0.078994
0.0799132
0.0811415
0.0827593
0.0848648
0.0875784
0.0910495
0.0954665
0.101073
0.108195
0.1173
0.129132
0.145133
0.169056
0.216375
0.43224
0.0797257
0.0793557
0.0790268
0.0787343
0.0784741
0.0782424
0.0780358
0.0778517
0.0776877
0.0775418
0.0774127
0.0772993
0.077201
0.0771181
0.0770515
0.0770034
0.0769774
0.0769792
0.0770169
0.0771022
0.0772508
0.0774838
0.0778284
0.0783193
0.0789999
0.079924
0.0811574
0.0827806
0.0848916
0.0876106
0.0910871
0.095509
0.10112
0.108245
0.11735
0.12918
0.14517
0.169063
0.216286
0.431486
0.0795003
0.0791633
0.0788614
0.0785912
0.0783496
0.0781334
0.0779402
0.0777676
0.0776136
0.0774767
0.0773553
0.0772489
0.0771568
0.0770795
0.0770179
0.0769744
0.0769526
0.0769582
0.0769997
0.0770886
0.0772408
0.0774774
0.0778258
0.0783206
0.0790054
0.0799339
0.081172
0.0828
0.0849158
0.0876397
0.0911208
0.0955469
0.101161
0.108288
0.117393
0.129219
0.145198
0.169061
0.216189
0.430746
0.0792904
0.0789838
0.0787069
0.0784575
0.0782332
0.0780317
0.0778511
0.0776893
0.0775448
0.0774162
0.0773022
0.0772023
0.077116
0.0770439
0.076987
0.0769478
0.0769298
0.0769391
0.076984
0.0770762
0.0772317
0.0774716
0.0778234
0.0783217
0.0790103
0.0799427
0.0811849
0.0828171
0.0849372
0.0876652
0.0911502
0.0955796
0.101196
0.108324
0.117429
0.12925
0.145217
0.169051
0.216086
0.430024
0.0790963
0.0788172
0.0785633
0.078333
0.0781248
0.0779371
0.0777682
0.0776166
0.077481
0.0773602
0.0772531
0.0771593
0.0770785
0.0770112
0.0769587
0.0769234
0.076909
0.0769216
0.0769696
0.0770648
0.0772233
0.0774662
0.077821
0.0783225
0.0790144
0.0799503
0.081196
0.0828318
0.0849555
0.087687
0.091175
0.095607
0.101225
0.108354
0.117457
0.129273
0.145227
0.169033
0.215977
0.429323
0.0789177
0.0786635
0.0784305
0.0782178
0.0780245
0.0778494
0.0776915
0.0775494
0.0774221
0.0773085
0.0772079
0.0771197
0.077044
0.0769812
0.0769327
0.076901
0.07689
0.0769056
0.0769564
0.0770543
0.0772154
0.077461
0.0778185
0.0783228
0.0790175
0.0799563
0.0812051
0.0828439
0.0849705
0.0877047
0.0911951
0.0956289
0.101248
0.108376
0.117477
0.129287
0.145229
0.169006
0.215864
0.428648
0.0787543
0.0785224
0.0783082
0.0781115
0.0779319
0.0777685
0.0776207
0.0774874
0.0773677
0.0772609
0.0771663
0.0770834
0.0770123
0.0769537
0.0769089
0.0768806
0.0768725
0.0768909
0.0769443
0.0770446
0.077208
0.0774559
0.0778157
0.0783223
0.0790194
0.0799607
0.0812119
0.0828531
0.084982
0.0877182
0.0912102
0.095645
0.101264
0.108391
0.117488
0.129292
0.145222
0.168972
0.215746
0.428003
0.0786054
0.0783934
0.0781962
0.078014
0.0778467
0.0776941
0.0775555
0.0774303
0.0773178
0.0772172
0.077128
0.07705
0.0769833
0.0769285
0.0768871
0.0768618
0.0768565
0.0768774
0.076933
0.0770355
0.0772009
0.0774507
0.0778125
0.0783211
0.0790201
0.0799633
0.0812164
0.0828594
0.0849899
0.0877275
0.0912203
0.0956554
0.101274
0.108399
0.117492
0.12929
0.145207
0.16893
0.215625
0.427392
0.0784706
0.0782761
0.078094
0.0779248
0.0777688
0.0776259
0.0774958
0.077378
0.077272
0.0771771
0.077093
0.0770195
0.0769567
0.0769054
0.0768672
0.0768446
0.0768418
0.0768648
0.0769225
0.0770268
0.077194
0.0774454
0.0778088
0.0783189
0.0790195
0.0799641
0.0812186
0.0828628
0.0849942
0.0877324
0.0912254
0.0956599
0.101277
0.108399
0.117488
0.129278
0.145183
0.16888
0.215501
0.426819
0.0783488
0.0781698
0.0780011
0.0778436
0.0776977
0.0775637
0.0774413
0.0773303
0.0772302
0.0771405
0.0770611
0.0769916
0.0769324
0.0768843
0.0768489
0.0768288
0.0768282
0.0768532
0.0769126
0.0770185
0.0771871
0.0774399
0.0778045
0.0783158
0.0790174
0.079963
0.0812183
0.0828632
0.0849949
0.087733
0.0912255
0.0956587
0.101274
0.108393
0.117477
0.129259
0.145152
0.168824
0.215377
0.426287
0.0782395
0.0780739
0.077917
0.0777699
0.0776331
0.077507
0.0773915
0.0772866
0.077192
0.0771071
0.0770318
0.0769661
0.0769102
0.076865
0.0768321
0.0768143
0.0768156
0.0768423
0.0769033
0.0770105
0.0771803
0.0774341
0.0777996
0.0783117
0.0790139
0.0799601
0.0812156
0.0828605
0.084992
0.0877295
0.0912206
0.0956519
0.101264
0.108379
0.117458
0.129232
0.145113
0.168763
0.215252
0.425798
0.0781417
0.0779877
0.0778412
0.0777032
0.0775744
0.0774554
0.0773463
0.0772469
0.0771571
0.0770766
0.0770052
0.0769428
0.0768899
0.0768474
0.0768168
0.0768009
0.076804
0.0768322
0.0768944
0.0770027
0.0771734
0.077428
0.0777941
0.0783066
0.0790091
0.0799552
0.0812106
0.082855
0.0849856
0.0877217
0.091211
0.0956397
0.101248
0.108359
0.117431
0.129198
0.145067
0.168695
0.215128
0.425357
0.0780545
0.0779104
0.0777728
0.0776428
0.0775212
0.0774085
0.077305
0.0772106
0.0771253
0.0770487
0.0769808
0.0769215
0.0768713
0.0768311
0.0768026
0.0767885
0.0767931
0.0768227
0.0768859
0.0769951
0.0771665
0.0774215
0.0777879
0.0783004
0.0790028
0.0799485
0.0812033
0.0828467
0.0849759
0.0877101
0.0911968
0.0956223
0.101227
0.108332
0.117398
0.129157
0.145014
0.168624
0.215006
0.424965
0.0779769
0.0778411
0.0777111
0.077588
0.0774726
0.0773656
0.0772671
0.0771773
0.077096
0.077023
0.0769583
0.0769018
0.0768541
0.0768161
0.0767894
0.0767769
0.0767829
0.0768136
0.0768777
0.0769876
0.0771594
0.0774146
0.077781
0.0782933
0.0789951
0.0799401
0.0811937
0.0828356
0.0849629
0.0876946
0.0911783
0.0955999
0.1012
0.1083
0.117359
0.129109
0.144956
0.168548
0.214886
0.424624
0.0779077
0.0777785
0.0776548
0.0775376
0.0774277
0.0773257
0.0772319
0.0771462
0.0770686
0.0769989
0.0769371
0.0768833
0.0768379
0.0768018
0.0767769
0.0767659
0.0767731
0.0768047
0.0768696
0.07698
0.077152
0.0774073
0.0777734
0.0782852
0.0789862
0.07993
0.0811821
0.0828221
0.0849469
0.0876757
0.0911557
0.095573
0.101168
0.108262
0.117314
0.129056
0.144892
0.168468
0.21477
0.424335
0.0778452
0.0777209
0.0776024
0.0774902
0.0773852
0.0772877
0.0771981
0.0771162
0.0770421
0.0769756
0.0769166
0.0768653
0.0768221
0.076788
0.0767647
0.0767551
0.0767634
0.0767959
0.0768615
0.0769722
0.0771444
0.0773995
0.0777651
0.0782761
0.078976
0.0799184
0.0811686
0.0828062
0.0849282
0.0876535
0.0911294
0.0955419
0.101131
0.108219
0.117264
0.128997
0.144824
0.168387
0.214658
0.424098
0.0777871
0.0776662
0.0775516
0.0774438
0.0773431
0.0772499
0.0771643
0.0770862
0.0770155
0.0769521
0.0768959
0.0768471
0.076806
0.0767738
0.0767522
0.076744
0.0767534
0.0767868
0.0768529
0.0769639
0.0771361
0.0773909
0.0777559
0.078266
0.0789646
0.0799052
0.0811532
0.0827882
0.0849069
0.0876284
0.0910999
0.0955072
0.10109
0.108171
0.117209
0.128935
0.144752
0.168304
0.214551
0.423912
0.0777303
0.0776112
0.0774997
0.0773957
0.0772991
0.0772101
0.0771285
0.0770542
0.0769871
0.076927
0.0768737
0.0768275
0.0767888
0.0767586
0.0767387
0.0767319
0.0767425
0.0767768
0.0768435
0.0769548
0.0771271
0.0773815
0.0777458
0.0782548
0.0789519
0.0798906
0.0811362
0.0827682
0.0848835
0.0876009
0.0910676
0.0954694
0.101046
0.10812
0.117151
0.128869
0.144678
0.16822
0.21445
0.423771
0.0776711
0.0775523
0.0774431
0.0773427
0.0772503
0.0771656
0.0770884
0.0770183
0.0769551
0.0768986
0.0768485
0.0768052
0.0767691
0.0767411
0.0767232
0.0767181
0.07673
0.0767653
0.0768328
0.0769446
0.0771168
0.077371
0.0777346
0.0782425
0.0789381
0.0798747
0.0811178
0.0827467
0.0848583
0.0875714
0.0910331
0.0954293
0.101
0.108067
0.11709
0.128801
0.144603
0.168137
0.214355
0.423668
0.0776052
0.0774856
0.0773785
0.0772818
0.077194
0.0771142
0.0770419
0.0769766
0.0769178
0.0768653
0.076819
0.076779
0.0767459
0.0767206
0.0767049
0.0767017
0.0767153
0.0767519
0.0768203
0.0769326
0.0771051
0.0773591
0.0777221
0.0782289
0.078923
0.0798576
0.0810982
0.082724
0.0848319
0.0875406
0.0909974
0.095388
0.100952
0.108013
0.117029
0.128733
0.144528
0.168056
0.214266
0.423588
0.0775292
0.0774084
0.0773036
0.0772112
0.0771286
0.0770546
0.0769879
0.076928
0.0768743
0.0768265
0.0767845
0.0767483
0.0767185
0.0766962
0.0766832
0.0766823
0.0766978
0.076736
0.0768056
0.0769187
0.0770916
0.0773457
0.0777083
0.0782143
0.078907
0.0798397
0.0810779
0.0827007
0.0848051
0.0875096
0.0909616
0.0953468
0.100905
0.107959
0.116969
0.128666
0.144457
0.16798
0.214185
0.423504
0.0774434
0.0773219
0.0772202
0.0771327
0.0770562
0.0769884
0.076928
0.0768741
0.0768259
0.0767832
0.0767458
0.0767138
0.0766878
0.0766689
0.0766588
0.0766604
0.0766781
0.0767181
0.0767891
0.0769033
0.0770769
0.0773312
0.0776937
0.0781991
0.0788907
0.0798219
0.0810579
0.0826781
0.0847793
0.0874801
0.0909277
0.095308
0.100861
0.10791
0.116914
0.128606
0.144392
0.167912
0.214112
0.423372
0.0773561
0.0772352
0.0771373
0.0770552
0.0769848
0.0769234
0.0768691
0.0768209
0.0767782
0.0767404
0.0767075
0.0766795
0.0766572
0.0766415
0.0766343
0.0766384
0.0766583
0.0767001
0.0767727
0.0768881
0.0770625
0.0773173
0.0776798
0.0781848
0.0788757
0.0798058
0.0810402
0.0826583
0.0847569
0.0874547
0.0908988
0.0952752
0.100824
0.107868
0.116867
0.128556
0.14434
0.167861
0.214064
0.423135
0.0772895
0.0771704
0.0770758
0.0769981
0.0769323
0.0768754
0.0768255
0.0767815
0.0767426
0.0767084
0.0766787
0.0766537
0.076634
0.0766207
0.0766156
0.0766217
0.0766432
0.0766864
0.0767602
0.0768765
0.0770516
0.0773069
0.0776696
0.0781746
0.0788652
0.0797946
0.0810281
0.082645
0.084742
0.0874379
0.0908797
0.0952534
0.100799
0.10784
0.116836
0.128521
0.144302
0.167821
0.214012
0.4227
)
;

boundaryField
{
    leftWall
    {
        type            epsilonWallFunction;
        value           nonuniform 0();
    }
    rightWall
    {
        type            epsilonWallFunction;
        value           nonuniform List<scalar> 
43
(
0.44696
0.446347
0.445672
0.444946
0.444177
0.44337
0.442529
0.441656
0.440752
0.439814
0.438976
0.43823
0.437508
0.436782
0.436044
0.435294
0.434534
0.433768
0.433002
0.43224
0.431486
0.430746
0.430024
0.429323
0.428648
0.428003
0.427392
0.426819
0.426287
0.425798
0.425357
0.424965
0.424624
0.424335
0.424098
0.423912
0.423771
0.423668
0.423588
0.423504
0.423372
0.423135
0.4227
)
;
    }
    lowerWall
    {
        type            epsilonWallFunction;
        value           nonuniform 0();
    }
    atmosphere
    {
        type            inletOutlet;
        inletValue      uniform 0.1;
        value           nonuniform List<scalar> 
45
(
0.0787147
0.0782202
0.0778753
0.0776245
0.0774384
0.0772895
0.0771704
0.0770758
0.0769981
0.0769323
0.0768754
0.0768255
0.0767815
0.0767426
0.0767084
0.0766787
0.0766537
0.076634
0.0766207
0.0766156
0.0766217
0.0766432
0.0766864
0.0767602
0.0768765
0.0770516
0.0773069
0.0776696
0.0781746
0.0788652
0.0797946
0.0810281
0.082645
0.084742
0.0874379
0.0908797
0.0952534
0.100799
0.10784
0.116836
0.128521
0.144302
0.167821
0.214012
0.4227
)
;
    }
    defaultFaces
    {
        type            empty;
    }
    procBoundary3to1
    {
        type            processor;
        value           nonuniform List<scalar> 
45
(
0.0926991
0.0911523
0.0897604
0.0884815
0.0873263
0.0862491
0.0852723
0.0844242
0.0836764
0.0830065
0.0823982
0.0818404
0.0813259
0.0808504
0.0804118
0.0800086
0.0796403
0.0793063
0.0790066
0.0787411
0.0785108
0.0783172
0.0781638
0.0780563
0.0780033
0.0780179
0.0781181
0.0783282
0.0786806
0.0792164
0.0799877
0.0810593
0.0825109
0.0844409
0.0869708
0.0902522
0.0944771
0.0998956
0.106846
0.115817
0.127597
0.143724
0.168218
0.217628
0.447503
)
;
    }
    procBoundary3to2
    {
        type            processor;
        value           nonuniform List<scalar> 
43
(
0.0940942
0.0937779
0.0934801
0.0931863
0.0928824
0.0925546
0.0921902
0.0917781
0.0913096
0.0907794
0.0901864
0.0895336
0.0888283
0.0880815
0.0873071
0.0865205
0.0857372
0.0849722
0.0842381
0.0835452
0.0829008
0.082309
0.0817715
0.0812879
0.080856
0.0804727
0.0801344
0.079837
0.0795768
0.0793506
0.0791555
0.0789895
0.0788515
0.0787417
0.0786617
0.078615
0.078607
0.0786454
0.0787386
0.0788916
0.0790952
0.0793072
0.0794435
)
;
    }
}


// ************************************************************************* //
