/*--------------------------------*- C++ -*----------------------------------*\
  =========                 |
  \\      /  F ield         | OpenFOAM: The Open Source CFD Toolbox
   \\    /   O peration     | Website:  https://openfoam.org
    \\  /    A nd           | Version:  7
     \\/     M anipulation  |
\*---------------------------------------------------------------------------*/
FoamFile
{
    version     2.0;
    format      ascii;
    class       volScalarField;
    location    "0.15";
    object      p;
}
// * * * * * * * * * * * * * * * * * * * * * * * * * * * * * * * * * * * * * //

dimensions      [1 -1 -2 0 0 0 0];

internalField   nonuniform List<scalar> 
1935
(
-2.18815
-2.27587
-2.3626
-2.44841
-2.5333
-2.6173
-2.70044
-2.78278
-2.8644
-2.94539
-3.02589
-3.10603
-3.18594
-3.26576
-3.3456
-3.42555
-3.50568
-3.58604
-3.66665
-3.7475
-3.82858
-3.90986
-3.9913
-4.07288
-4.15457
-4.23636
-4.31825
-4.40024
-4.48235
-4.56459
-4.64699
-4.72959
-4.81246
-4.89569
-4.9794
-5.06373
-5.14882
-5.23482
-5.32184
-5.40997
-5.49928
-5.58972
-5.68152
-2.17068
-2.15508
-2.14067
-2.12726
-2.25797
-2.24192
-2.22706
-2.21323
-2.34438
-2.32797
-2.31275
-2.2986
-2.42999
-2.41335
-2.39789
-2.38352
-2.51483
-2.49809
-2.48252
-2.46804
-2.59892
-2.58221
-2.56664
-2.55215
-2.68227
-2.66571
-2.65026
-2.63585
-2.76494
-2.74864
-2.7334
-2.71916
-2.84699
-2.83105
-2.81611
-2.80212
-2.92851
-2.91302
-2.89846
-2.88478
-3.0096
-2.99463
-2.98051
-2.9672
-3.09039
-3.07598
-3.06234
-3.04943
-3.17099
-3.15717
-3.14404
-3.13155
-3.25151
-3.2383
-3.22569
-3.21362
-3.33206
-3.31945
-3.30735
-3.29569
-3.41272
-3.40069
-3.38906
-3.37779
-3.49353
-3.48205
-3.47087
-3.45996
-3.57454
-3.56356
-3.5528
-3.54221
-3.65575
-3.64524
-3.63483
-3.62453
-3.73716
-3.72706
-3.71698
-3.70695
-3.81874
-3.80901
-3.79923
-3.78945
-3.90048
-3.89108
-3.88157
-3.87203
-3.98234
-3.97325
-3.96401
-3.95473
-4.06431
-4.05552
-4.04655
-4.03754
-4.14636
-4.13788
-4.1292
-4.12048
-4.22851
-4.22035
-4.21198
-4.20359
-4.31076
-4.30293
-4.29491
-4.28688
-4.39312
-4.38565
-4.37801
-4.37037
-4.47561
-4.46853
-4.46128
-4.45406
-4.55824
-4.55157
-4.54476
-4.53799
-4.64105
-4.63482
-4.62847
-4.62217
-4.72407
-4.7183
-4.71245
-4.70666
-4.80737
-4.8021
-4.79676
-4.79151
-4.89105
-4.88628
-4.88149
-4.8768
-4.97522
-4.97098
-4.96676
-4.96265
-5.06002
-5.05633
-5.05269
-5.04918
-5.1456
-5.14247
-5.13942
-5.13649
-5.23211
-5.22955
-5.22708
-5.22472
-5.31967
-5.31767
-5.31576
-5.31395
-5.40837
-5.40692
-5.40554
-5.40425
-5.49826
-5.49735
-5.49648
-5.49566
-5.58934
-5.58898
-5.58861
-5.58823
-5.6818
-5.682
-5.68212
-5.68218
-2.11414
-2.10148
-2.0898
-2.07911
-2.06948
-2.06093
-2.05346
-2.04704
-2.04158
-2.03698
-2.03312
-2.02989
-2.0272
-2.02497
-2.02313
-2.02162
-2.02036
-2.01931
-2.01839
-2.01755
-2.01673
-2.01588
-2.01498
-2.01401
-2.01298
-2.01189
-2.01078
-2.00966
-2.00858
-2.00755
-2.0066
-2.00573
-2.00495
-2.00424
-2.00361
-2.00303
-2.00249
-2.00194
-2.00137
-2.00086
-2.19972
-2.18666
-2.1746
-2.16352
-2.15346
-2.14443
-2.13645
-2.12945
-2.12339
-2.11816
-2.11367
-2.10984
-2.10658
-2.10381
-2.10146
-2.09947
-2.09778
-2.09631
-2.095
-2.09379
-2.09263
-2.09147
-2.09028
-2.08905
-2.08779
-2.0865
-2.08521
-2.08394
-2.08272
-2.08157
-2.08051
-2.07955
-2.07869
-2.07792
-2.07725
-2.07664
-2.07608
-2.07555
-2.07502
-2.07455
-2.28479
-2.27146
-2.25914
-2.24778
-2.2374
-2.228
-2.21957
-2.21207
-2.20545
-2.19964
-2.19458
-2.19018
-2.18637
-2.18309
-2.18027
-2.17783
-2.17571
-2.17384
-2.17215
-2.17058
-2.16909
-2.16762
-2.16617
-2.1647
-2.16323
-2.16176
-2.16031
-2.1589
-2.15756
-2.1563
-2.15514
-2.15409
-2.15315
-2.15233
-2.1516
-2.15097
-2.1504
-2.14988
-2.14938
-2.14895
-2.36951
-2.356
-2.34349
-2.33192
-2.32128
-2.31156
-2.30274
-2.29479
-2.28768
-2.28135
-2.27576
-2.27084
-2.26654
-2.26279
-2.25952
-2.25666
-2.25414
-2.25189
-2.24984
-2.24794
-2.24613
-2.24438
-2.24266
-2.24097
-2.2393
-2.23766
-2.23606
-2.23452
-2.23306
-2.2317
-2.23045
-2.22932
-2.22831
-2.22742
-2.22665
-2.22599
-2.22541
-2.22491
-2.22445
-2.22406
-2.45392
-2.44029
-2.42766
-2.41592
-2.40507
-2.39507
-2.38591
-2.37757
-2.37002
-2.36323
-2.35717
-2.35179
-2.34704
-2.34286
-2.33918
-2.33593
-2.33304
-2.33044
-2.32806
-2.32584
-2.32374
-2.32173
-2.31977
-2.31787
-2.31601
-2.3142
-2.31246
-2.3108
-2.30922
-2.30776
-2.30642
-2.30521
-2.30413
-2.30319
-2.30238
-2.30169
-2.30112
-2.30062
-2.3002
-2.29986
-2.53801
-2.52434
-2.51163
-2.49979
-2.48876
-2.47853
-2.46908
-2.46039
-2.45246
-2.44527
-2.43879
-2.433
-2.42785
-2.42329
-2.41924
-2.41564
-2.41241
-2.40948
-2.40679
-2.40428
-2.40192
-2.39965
-2.39748
-2.39538
-2.39334
-2.39138
-2.38951
-2.38772
-2.38604
-2.38448
-2.38306
-2.38177
-2.38063
-2.37963
-2.37879
-2.37808
-2.3775
-2.37702
-2.37664
-2.37635
-2.62177
-2.60814
-2.59541
-2.5835
-2.57235
-2.56194
-2.55224
-2.54326
-2.535
-2.52746
-2.52062
-2.51447
-2.50897
-2.50406
-2.49968
-2.49576
-2.49222
-2.489
-2.48603
-2.48325
-2.48064
-2.47815
-2.47577
-2.47349
-2.4713
-2.46919
-2.46719
-2.46529
-2.46351
-2.46186
-2.46035
-2.45899
-2.45779
-2.45674
-2.45586
-2.45514
-2.45456
-2.4541
-2.45375
-2.4535
-2.70522
-2.69168
-2.67901
-2.66707
-2.65584
-2.64529
-2.63539
-2.62617
-2.61763
-2.60979
-2.60265
-2.59619
-2.59038
-2.58517
-2.58049
-2.57628
-2.57247
-2.56898
-2.56575
-2.56274
-2.5599
-2.55721
-2.55465
-2.5522
-2.54986
-2.54762
-2.5455
-2.5435
-2.54162
-2.53988
-2.53829
-2.53686
-2.5356
-2.53452
-2.5336
-2.53286
-2.53228
-2.53185
-2.53154
-2.53133
-2.78839
-2.77501
-2.76242
-2.75051
-2.73923
-2.72857
-2.71852
-2.7091
-2.70034
-2.69225
-2.68486
-2.67814
-2.67207
-2.6666
-2.66167
-2.65721
-2.65315
-2.64942
-2.64596
-2.64274
-2.6397
-2.63683
-2.6341
-2.6315
-2.62902
-2.62667
-2.62444
-2.62233
-2.62036
-2.61854
-2.61688
-2.61539
-2.61407
-2.61295
-2.61201
-2.61125
-2.61068
-2.61026
-2.60999
-2.60982
-2.87132
-2.85814
-2.84567
-2.83382
-2.82254
-2.8118
-2.80164
-2.79207
-2.78313
-2.77485
-2.76725
-2.76033
-2.75404
-2.74836
-2.74321
-2.73853
-2.73425
-2.73031
-2.72666
-2.72324
-2.72003
-2.71699
-2.71412
-2.71139
-2.70879
-2.70632
-2.70399
-2.70179
-2.69974
-2.69784
-2.69611
-2.69456
-2.69319
-2.69203
-2.69106
-2.6903
-2.68973
-2.68933
-2.6891
-2.68896
-2.95404
-2.9411
-2.9288
-2.91703
-2.90576
-2.89499
-2.88475
-2.87507
-2.86601
-2.85759
-2.84984
-2.84275
-2.8363
-2.83043
-2.8251
-2.82024
-2.81578
-2.81166
-2.80783
-2.80425
-2.80089
-2.79771
-2.7947
-2.79185
-2.78914
-2.78658
-2.78415
-2.78187
-2.77974
-2.77777
-2.77597
-2.77437
-2.77296
-2.77176
-2.77077
-2.77
-2.76943
-2.76906
-2.76886
-2.76876
-3.03662
-3.02394
-3.01181
-3.00015
-2.98893
-2.97816
-2.96788
-2.95813
-2.94899
-2.94047
-2.93261
-2.92541
-2.91883
-2.91283
-2.90736
-2.90235
-2.89773
-2.89346
-2.88949
-2.88577
-2.88227
-2.87897
-2.87585
-2.87289
-2.87009
-2.86743
-2.86492
-2.86256
-2.86036
-2.85832
-2.85647
-2.85481
-2.85336
-2.85213
-2.85113
-2.85035
-2.84979
-2.84944
-2.84927
-2.84921
-3.11909
-3.10669
-3.09475
-3.08321
-3.07205
-3.06131
-3.05103
-3.04126
-3.03208
-3.02352
-3.0156
-3.00832
-3.00166
-2.99556
-2.98998
-2.98484
-2.98011
-2.97571
-2.97162
-2.96778
-2.96417
-2.96077
-2.95756
-2.95451
-2.95162
-2.94888
-2.9463
-2.94386
-2.94159
-2.9395
-2.93759
-2.93589
-2.9344
-2.93314
-2.93213
-2.93134
-2.93079
-2.93046
-2.93033
-2.9303
-3.20151
-3.18938
-3.17765
-3.16624
-3.15517
-3.14448
-3.13423
-3.12449
-3.11531
-3.10675
-3.09881
-3.0915
-3.08479
-3.07862
-3.07296
-3.06774
-3.06291
-3.05842
-3.05423
-3.0503
-3.0466
-3.04311
-3.03982
-3.03669
-3.03373
-3.03092
-3.02827
-3.02577
-3.02344
-3.02129
-3.01933
-3.01759
-3.01607
-3.0148
-3.01376
-3.01298
-3.01244
-3.01213
-3.01203
-3.01204
-3.28392
-3.27206
-3.26052
-3.24925
-3.23829
-3.22769
-3.21751
-3.20782
-3.1987
-3.19017
-3.18226
-3.17495
-3.16822
-3.16202
-3.15631
-3.15103
-3.14614
-3.14158
-3.13731
-3.13331
-3.12955
-3.12599
-3.12263
-3.11944
-3.11642
-3.11355
-3.11083
-3.10828
-3.10589
-3.1037
-3.1017
-3.09992
-3.09838
-3.09708
-3.09604
-3.09526
-3.09473
-3.09444
-3.09437
-3.09442
-3.36635
-3.35474
-3.3434
-3.33229
-3.32145
-3.31096
-3.30089
-3.2913
-3.28226
-3.27381
-3.26596
-3.25869
-3.25197
-3.24578
-3.24005
-3.23474
-3.2298
-3.22519
-3.22088
-3.21683
-3.21302
-3.20941
-3.20599
-3.20275
-3.19967
-3.19675
-3.19399
-3.19138
-3.18895
-3.18671
-3.18468
-3.18287
-3.18131
-3.18
-3.17896
-3.17818
-3.17766
-3.1774
-3.17736
-3.17743
-3.44881
-3.43745
-3.42631
-3.41536
-3.40468
-3.39433
-3.3844
-3.37495
-3.36604
-3.35769
-3.34993
-3.34273
-3.33606
-3.32989
-3.32417
-3.31885
-3.3139
-3.30927
-3.30493
-3.30085
-3.297
-3.29336
-3.28991
-3.28662
-3.2835
-3.28054
-3.27773
-3.27508
-3.27262
-3.27034
-3.26828
-3.26645
-3.26487
-3.26356
-3.26251
-3.26174
-3.26124
-3.26099
-3.26098
-3.26109
-3.53133
-3.5202
-3.50926
-3.4985
-3.488
-3.47783
-3.46807
-3.45879
-3.45004
-3.44183
-3.43419
-3.42708
-3.42049
-3.41437
-3.40868
-3.40339
-3.39844
-3.39382
-3.38947
-3.38538
-3.38151
-3.37785
-3.37437
-3.37106
-3.3679
-3.3649
-3.36206
-3.35938
-3.35688
-3.35458
-3.3525
-3.35066
-3.34907
-3.34775
-3.3467
-3.34594
-3.34545
-3.34523
-3.34524
-3.34538
-3.61391
-3.60302
-3.59229
-3.58174
-3.57144
-3.56148
-3.55193
-3.54285
-3.53429
-3.52625
-3.51875
-3.51177
-3.50527
-3.49923
-3.4936
-3.48835
-3.48344
-3.47883
-3.4745
-3.47042
-3.46655
-3.46288
-3.45938
-3.45605
-3.45287
-3.44984
-3.44698
-3.44427
-3.44176
-3.43944
-3.43734
-3.43548
-3.43389
-3.43257
-3.43153
-3.43078
-3.43031
-3.43011
-3.43014
-3.43031
-3.69656
-3.68591
-3.67541
-3.6651
-3.65504
-3.64532
-3.63601
-3.62716
-3.61881
-3.61097
-3.60364
-3.5968
-3.59042
-3.58448
-3.57893
-3.57374
-3.56889
-3.56432
-3.56003
-3.55596
-3.55211
-3.54844
-3.54494
-3.5416
-3.53841
-3.53537
-3.53248
-3.52976
-3.52723
-3.5249
-3.52279
-3.52094
-3.51934
-3.51803
-3.51701
-3.51627
-3.51581
-3.51563
-3.51569
-3.51588
-3.7793
-3.76891
-3.75866
-3.74861
-3.73881
-3.72937
-3.72033
-3.71173
-3.70362
-3.696
-3.68886
-3.68218
-3.67595
-3.67013
-3.66468
-3.65959
-3.6548
-3.6503
-3.64605
-3.64202
-3.63819
-3.63454
-3.63105
-3.62771
-3.62452
-3.62147
-3.61858
-3.61585
-3.61331
-3.61098
-3.60887
-3.60702
-3.60543
-3.60413
-3.60312
-3.6024
-3.60196
-3.6018
-3.60188
-3.60209
-3.86215
-3.85202
-3.84206
-3.83229
-3.8228
-3.81366
-3.80491
-3.7966
-3.78874
-3.78136
-3.77443
-3.76794
-3.76187
-3.75619
-3.75087
-3.74588
-3.74119
-3.73677
-3.73258
-3.72861
-3.72482
-3.72119
-3.71772
-3.71439
-3.71121
-3.70816
-3.70527
-3.70254
-3.70001
-3.69768
-3.69558
-3.69374
-3.69217
-3.69088
-3.68989
-3.68918
-3.68876
-3.68862
-3.68872
-3.68895
-3.94511
-3.93528
-3.92563
-3.91619
-3.90703
-3.89821
-3.88978
-3.88177
-3.87419
-3.86706
-3.86036
-3.85409
-3.8482
-3.84269
-3.83751
-3.83265
-3.82807
-3.82374
-3.81963
-3.81572
-3.81198
-3.80839
-3.80495
-3.80164
-3.79847
-3.79544
-3.79255
-3.78984
-3.78732
-3.785
-3.78292
-3.78109
-3.77954
-3.77828
-3.7773
-3.77662
-3.77622
-3.77609
-3.77621
-3.77646
-4.02822
-4.01872
-4.00941
-4.00032
-3.99152
-3.98304
-3.97495
-3.96726
-3.95999
-3.95313
-3.94668
-3.94063
-3.93495
-3.92962
-3.92461
-3.91989
-3.91544
-3.91122
-3.9072
-3.90336
-3.89968
-3.89615
-3.89274
-3.88946
-3.88632
-3.8833
-3.88044
-3.87775
-3.87524
-3.87295
-3.8709
-3.86909
-3.86757
-3.86633
-3.86538
-3.86472
-3.86434
-3.86423
-3.86437
-3.86462
-4.11149
-4.10236
-4.09342
-4.08471
-4.07628
-4.06818
-4.06045
-4.05309
-4.04614
-4.03958
-4.0334
-4.0276
-4.02215
-4.01702
-4.01219
-4.00763
-4.00332
-3.99922
-3.9953
-3.99155
-3.98794
-3.98446
-3.9811
-3.97786
-3.97475
-3.97177
-3.96894
-3.96628
-3.9638
-3.96154
-3.95952
-3.95775
-3.95625
-3.95504
-3.95412
-3.95348
-3.95312
-3.95303
-3.95318
-3.95345
-4.19496
-4.18622
-4.17768
-4.16937
-4.16134
-4.15364
-4.14628
-4.13928
-4.13267
-4.12642
-4.12054
-4.115
-4.10979
-4.10489
-4.10026
-4.09587
-4.09171
-4.08774
-4.08394
-4.08028
-4.07675
-4.07334
-4.07004
-4.06685
-4.06378
-4.06084
-4.05805
-4.05543
-4.05299
-4.05077
-4.04879
-4.04706
-4.0456
-4.04443
-4.04353
-4.04292
-4.04259
-4.04251
-4.04268
-4.04295
-4.27864
-4.27031
-4.2622
-4.25432
-4.24672
-4.23942
-4.23246
-4.22585
-4.21959
-4.21368
-4.2081
-4.20286
-4.19791
-4.19324
-4.18882
-4.18463
-4.18063
-4.1768
-4.17312
-4.16956
-4.16612
-4.16278
-4.15955
-4.15642
-4.15341
-4.15052
-4.14778
-4.14521
-4.14283
-4.14066
-4.13872
-4.13704
-4.13563
-4.13449
-4.13363
-4.13305
-4.13273
-4.13267
-4.13285
-4.13313
-4.36254
-4.35466
-4.347
-4.33958
-4.33242
-4.32555
-4.31901
-4.3128
-4.30692
-4.30136
-4.29612
-4.29118
-4.28651
-4.2821
-4.2779
-4.27391
-4.27008
-4.2664
-4.26284
-4.2594
-4.25605
-4.2528
-4.24965
-4.24659
-4.24364
-4.24082
-4.23814
-4.23563
-4.23331
-4.2312
-4.22933
-4.2277
-4.22633
-4.22524
-4.22442
-4.22387
-4.22357
-4.22353
-4.22371
-4.224
-4.44669
-4.43928
-4.4321
-4.42515
-4.41846
-4.41205
-4.40595
-4.40016
-4.39468
-4.3895
-4.38461
-4.37999
-4.37561
-4.37146
-4.3675
-4.36371
-4.36006
-4.35654
-4.35312
-4.3498
-4.34656
-4.3434
-4.34033
-4.33736
-4.33449
-4.33175
-4.32915
-4.32671
-4.32446
-4.32242
-4.32061
-4.31905
-4.31774
-4.31669
-4.31591
-4.31539
-4.31512
-4.31509
-4.31527
-4.31556
-4.53109
-4.52419
-4.51751
-4.51106
-4.50486
-4.49894
-4.4933
-4.48796
-4.4829
-4.47811
-4.47358
-4.4693
-4.46522
-4.46134
-4.45762
-4.45404
-4.45059
-4.44723
-4.44395
-4.44076
-4.43764
-4.43459
-4.43162
-4.42874
-4.42596
-4.42331
-4.4208
-4.41845
-4.41629
-4.41433
-4.41259
-4.41109
-4.40985
-4.40885
-4.40811
-4.40762
-4.40737
-4.40736
-4.40754
-4.40783
-4.61579
-4.60941
-4.60327
-4.59734
-4.59166
-4.58624
-4.58109
-4.57621
-4.57158
-4.5672
-4.56305
-4.55911
-4.55534
-4.55174
-4.54827
-4.54491
-4.54165
-4.53846
-4.53534
-4.53229
-4.52929
-4.52636
-4.52351
-4.52074
-4.51807
-4.51552
-4.51311
-4.51086
-4.5088
-4.50693
-4.50528
-4.50385
-4.50267
-4.50173
-4.50104
-4.50058
-4.50035
-4.50035
-4.50054
-4.50082
-4.70081
-4.695
-4.6894
-4.68403
-4.67889
-4.67399
-4.66934
-4.66494
-4.66076
-4.6568
-4.65303
-4.64943
-4.64598
-4.64266
-4.63945
-4.63631
-4.63325
-4.63024
-4.62729
-4.62439
-4.62153
-4.61874
-4.61601
-4.61337
-4.61082
-4.60839
-4.6061
-4.60397
-4.60201
-4.60024
-4.59868
-4.59734
-4.59623
-4.59535
-4.5947
-4.59428
-4.59407
-4.59408
-4.59427
-4.59454
-4.78622
-4.78099
-4.77598
-4.77118
-4.76659
-4.76223
-4.7581
-4.75417
-4.75045
-4.7469
-4.74352
-4.74028
-4.73715
-4.73411
-4.73115
-4.72825
-4.72539
-4.72258
-4.7198
-4.71706
-4.71437
-4.71172
-4.70914
-4.70664
-4.70423
-4.70194
-4.69978
-4.69777
-4.69593
-4.69427
-4.69281
-4.69156
-4.69053
-4.68971
-4.68911
-4.68873
-4.68854
-4.68855
-4.68874
-4.68901
-4.87211
-4.86748
-4.86306
-4.85884
-4.85482
-4.851
-4.84738
-4.84394
-4.84067
-4.83754
-4.83454
-4.83164
-4.82883
-4.82608
-4.82338
-4.82072
-4.81808
-4.81547
-4.81288
-4.81032
-4.8078
-4.80533
-4.80291
-4.80057
-4.79832
-4.79618
-4.79416
-4.79229
-4.79058
-4.78905
-4.7877
-4.78654
-4.78559
-4.78484
-4.78429
-4.78394
-4.78377
-4.78379
-4.78398
-4.78424
-4.95856
-4.95455
-4.95073
-4.94709
-4.94364
-4.94036
-4.93724
-4.93428
-4.93145
-4.92873
-4.9261
-4.92355
-4.92104
-4.91858
-4.91614
-4.91372
-4.91132
-4.90892
-4.90654
-4.90418
-4.90185
-4.89956
-4.89733
-4.89517
-4.89309
-4.89112
-4.88927
-4.88755
-4.88598
-4.88458
-4.88334
-4.88229
-4.88142
-4.88074
-4.88025
-4.87993
-4.87979
-4.87981
-4.87999
-4.88023
-5.0457
-5.04229
-5.03907
-5.036
-5.0331
-5.03034
-5.02771
-5.02521
-5.0228
-5.02048
-5.01821
-5.01599
-5.0138
-5.01162
-5.00945
-5.00728
-5.00512
-5.00295
-5.00079
-4.99865
-4.99653
-4.99445
-4.99242
-4.99046
-4.98857
-4.98679
-4.98511
-4.98356
-4.98214
-4.98088
-4.97977
-4.97882
-4.97804
-4.97744
-4.97699
-4.97671
-4.97659
-4.97662
-4.97679
-4.97702
-5.13361
-5.13081
-5.12816
-5.12564
-5.12326
-5.121
-5.11884
-5.11676
-5.11476
-5.11281
-5.11089
-5.10899
-5.10711
-5.10522
-5.10332
-5.10141
-5.0995
-5.09758
-5.09566
-5.09375
-5.09187
-5.09001
-5.08821
-5.08646
-5.08479
-5.0832
-5.08171
-5.08034
-5.07909
-5.07797
-5.07699
-5.07616
-5.07547
-5.07494
-5.07455
-5.07431
-5.0742
-5.07424
-5.07439
-5.07461
-5.22242
-5.22018
-5.21807
-5.21608
-5.21418
-5.21238
-5.21065
-5.20898
-5.20735
-5.20575
-5.20416
-5.20258
-5.20099
-5.19939
-5.19777
-5.19613
-5.19448
-5.19283
-5.19117
-5.18951
-5.18788
-5.18627
-5.18471
-5.18319
-5.18175
-5.18038
-5.17909
-5.17791
-5.17683
-5.17587
-5.17503
-5.17431
-5.17372
-5.17326
-5.17293
-5.17272
-5.17264
-5.17267
-5.17282
-5.17302
-5.31219
-5.31049
-5.30888
-5.30736
-5.30591
-5.30452
-5.30318
-5.30188
-5.3006
-5.29933
-5.29806
-5.29679
-5.29549
-5.29418
-5.29284
-5.29148
-5.29011
-5.28873
-5.28735
-5.28596
-5.2846
-5.28326
-5.28195
-5.28069
-5.27948
-5.27834
-5.27727
-5.27629
-5.27539
-5.27459
-5.2739
-5.2733
-5.27281
-5.27243
-5.27215
-5.27198
-5.27191
-5.27195
-5.27208
-5.27226
-5.40299
-5.40177
-5.40062
-5.39952
-5.39847
-5.39746
-5.39648
-5.39551
-5.39456
-5.3936
-5.39263
-5.39164
-5.39064
-5.38961
-5.38857
-5.3875
-5.38642
-5.38533
-5.38423
-5.38314
-5.38206
-5.381
-5.37997
-5.37897
-5.37802
-5.37712
-5.37628
-5.3755
-5.37479
-5.37416
-5.37361
-5.37314
-5.37275
-5.37244
-5.37222
-5.37208
-5.37203
-5.37206
-5.37218
-5.37234
-5.49485
-5.49407
-5.49333
-5.49261
-5.49192
-5.49124
-5.49058
-5.48992
-5.48926
-5.48859
-5.48791
-5.48722
-5.4865
-5.48576
-5.48501
-5.48424
-5.48346
-5.48267
-5.48188
-5.48109
-5.48031
-5.47954
-5.4788
-5.47808
-5.47739
-5.47674
-5.47613
-5.47557
-5.47506
-5.4746
-5.4742
-5.47385
-5.47356
-5.47333
-5.47316
-5.47305
-5.47301
-5.47304
-5.47314
-5.47328
-5.58786
-5.58749
-5.58712
-5.58676
-5.58639
-5.58603
-5.58566
-5.58529
-5.58491
-5.58451
-5.58411
-5.58369
-5.58326
-5.58282
-5.58236
-5.58189
-5.58142
-5.58094
-5.58045
-5.57997
-5.57949
-5.57903
-5.57857
-5.57813
-5.57771
-5.57731
-5.57694
-5.57659
-5.57627
-5.57598
-5.57573
-5.5755
-5.57531
-5.57515
-5.57502
-5.57493
-5.57488
-5.57488
-5.57495
-5.57506
-5.6822
-5.6822
-5.68218
-5.68214
-5.68207
-5.68199
-5.68189
-5.68178
-5.68166
-5.68153
-5.68139
-5.68124
-5.68108
-5.68091
-5.68074
-5.68056
-5.68038
-5.6802
-5.68002
-5.67983
-5.67965
-5.67947
-5.67929
-5.67912
-5.67895
-5.6788
-5.67865
-5.67851
-5.67838
-5.67826
-5.67815
-5.67805
-5.67796
-5.67788
-5.67781
-5.67775
-5.6777
-5.67767
-5.67768
-5.67774
)
;

boundaryField
{
    leftWall
    {
        type            calculated;
        value           nonuniform 0();
    }
    rightWall
    {
        type            calculated;
        value           nonuniform List<scalar> 
43
(
-2.00086
-2.07455
-2.14895
-2.22406
-2.29986
-2.37635
-2.4535
-2.53133
-2.60982
-2.68896
-2.76876
-2.84921
-2.9303
-3.01204
-3.09442
-3.17743
-3.26109
-3.34538
-3.43031
-3.51588
-3.60209
-3.68895
-3.77646
-3.86462
-3.95345
-4.04295
-4.13313
-4.224
-4.31556
-4.40783
-4.50082
-4.59454
-4.68901
-4.78424
-4.88023
-4.97702
-5.07461
-5.17302
-5.27226
-5.37234
-5.47328
-5.57506
-5.67774
)
;
    }
    lowerWall
    {
        type            calculated;
        value           nonuniform 0();
    }
    atmosphere
    {
        type            calculated;
        value           nonuniform List<scalar> 
45
(
-5.72904
-5.72904
-5.72904
-5.72904
-5.72904
-5.72904
-5.72904
-5.72904
-5.72904
-5.72904
-5.72904
-5.72904
-5.72904
-5.72904
-5.72904
-5.72904
-5.72904
-5.72904
-5.72904
-5.72904
-5.72904
-5.72904
-5.72904
-5.72904
-5.72904
-5.72904
-5.72904
-5.72904
-5.72904
-5.72904
-5.72904
-5.72904
-5.72904
-5.72904
-5.72904
-5.72904
-5.72904
-5.72904
-5.72904
-5.72904
-5.72904
-5.72904
-5.72904
-5.72904
-5.72904
)
;
    }
    defaultFaces
    {
        type            empty;
    }
    procBoundary3to1
    {
        type            processor;
        value           nonuniform List<scalar> 
45
(
-2.09939
-2.08238
-2.06726
-2.05335
-2.04045
-2.02787
-2.01576
-2.00465
-1.99455
-1.98551
-1.97758
-1.97075
-1.96498
-1.96017
-1.95623
-1.95301
-1.95041
-1.94832
-1.94665
-1.94532
-1.94429
-1.94348
-1.94284
-1.94232
-1.94184
-1.94136
-1.94084
-1.94023
-1.93954
-1.93877
-1.93791
-1.937
-1.93608
-1.93516
-1.93427
-1.93344
-1.93267
-1.93197
-1.93133
-1.93074
-1.93018
-1.92963
-1.92907
-1.92846
-1.9279
)
;
    }
    procBoundary3to2
    {
        type            processor;
        value           nonuniform List<scalar> 
43
(
-2.20797
-2.29605
-2.38304
-2.46894
-2.55379
-2.63761
-2.72045
-2.80237
-2.88347
-2.96385
-3.04367
-3.12307
-3.2022
-3.28121
-3.36022
-3.43934
-3.51864
-3.59819
-3.678
-3.7581
-3.83848
-3.9191
-3.99996
-4.08102
-4.16224
-4.24361
-4.32511
-4.40672
-4.48845
-4.57031
-4.65235
-4.73459
-4.81712
-4.90002
-4.9834
-5.06739
-5.15212
-5.2377
-5.32424
-5.41181
-5.50048
-5.59015
-5.68111
)
;
    }
}


// ************************************************************************* //
