/*--------------------------------*- C++ -*----------------------------------*\
  =========                 |
  \\      /  F ield         | OpenFOAM: The Open Source CFD Toolbox
   \\    /   O peration     | Website:  https://openfoam.org
    \\  /    A nd           | Version:  7
     \\/     M anipulation  |
\*---------------------------------------------------------------------------*/
FoamFile
{
    version     2.0;
    format      ascii;
    class       volVectorField;
    location    "0.15";
    object      U;
}
// * * * * * * * * * * * * * * * * * * * * * * * * * * * * * * * * * * * * * //

dimensions      [0 1 -1 0 0 0 0];

internalField   nonuniform List<vector> 
1935
(
(-0.0405817 0.393982 0)
(-0.0550909 0.384101 0)
(-0.0689906 0.373535 0)
(-0.082201 0.362303 0)
(-0.0946393 0.350432 0)
(-0.106224 0.337963 0)
(-0.11688 0.324953 0)
(-0.126536 0.311474 0)
(-0.135132 0.297611 0)
(-0.142621 0.283456 0)
(-0.148972 0.269114 0)
(-0.154168 0.254692 0)
(-0.15821 0.240297 0)
(-0.161118 0.226037 0)
(-0.162926 0.212009 0)
(-0.163681 0.198307 0)
(-0.163445 0.185012 0)
(-0.162287 0.172191 0)
(-0.16028 0.1599 0)
(-0.157502 0.148183 0)
(-0.154034 0.137067 0)
(-0.14995 0.126574 0)
(-0.145326 0.11671 0)
(-0.140229 0.107475 0)
(-0.134722 0.0988636 0)
(-0.128864 0.0908614 0)
(-0.122704 0.0834515 0)
(-0.116288 0.0766137 0)
(-0.109652 0.0703259 0)
(-0.102831 0.0645651 0)
(-0.0958508 0.059308 0)
(-0.0887358 0.0545317 0)
(-0.0815059 0.0502145 0)
(-0.0741808 0.0463364 0)
(-0.0667828 0.0428803 0)
(-0.0593414 0.0398327 0)
(-0.0519021 0.0371861 0)
(-0.0445377 0.0349414 0)
(-0.0373671 0.0331129 0)
(-0.0305829 0.0317332 0)
(-0.0244907 0.0308462 0)
(-0.0195563 0.0305636 0)
(-0.016522 0.030952 0)
(-0.0320234 0.38086 0)
(-0.0243506 0.368798 0)
(-0.0172754 0.357514 0)
(-0.0107673 0.34702 0)
(-0.0460051 0.371717 0)
(-0.0378517 0.36035 0)
(-0.0303184 0.349732 0)
(-0.0233681 0.339868 0)
(-0.0593955 0.361934 0)
(-0.0507784 0.351298 0)
(-0.0428041 0.341375 0)
(-0.0354304 0.332164 0)
(-0.0721251 0.351531 0)
(-0.0630701 0.341665 0)
(-0.0546804 0.332466 0)
(-0.0469087 0.323932 0)
(-0.0841222 0.340537 0)
(-0.0746653 0.331476 0)
(-0.0658941 0.32303 0)
(-0.0577568 0.315196 0)
(-0.0953173 0.328986 0)
(-0.0855035 0.320763 0)
(-0.0763925 0.313097 0)
(-0.0679285 0.305985 0)
(-0.105644 0.316931 0)
(-0.0955268 0.309573 0)
(-0.0861249 0.302711 0)
(-0.0773793 0.296338 0)
(-0.115041 0.304434 0)
(-0.104682 0.297963 0)
(-0.0950448 0.291921 0)
(-0.0860682 0.286303 0)
(-0.123457 0.291569 0)
(-0.112924 0.286 0)
(-0.103111 0.280788 0)
(-0.0939589 0.275933 0)
(-0.13085 0.27842 0)
(-0.120214 0.273756 0)
(-0.110291 0.269377 0)
(-0.101021 0.265288 0)
(-0.13719 0.265077 0)
(-0.126525 0.261312 0)
(-0.116559 0.257762 0)
(-0.107233 0.254433 0)
(-0.142461 0.251635 0)
(-0.131843 0.248753 0)
(-0.121901 0.246017 0)
(-0.112579 0.243437 0)
(-0.146662 0.238189 0)
(-0.136164 0.236164 0)
(-0.126312 0.234219 0)
(-0.117054 0.232368 0)
(-0.149807 0.224835 0)
(-0.139498 0.22363 0)
(-0.1298 0.222446 0)
(-0.120664 0.221298 0)
(-0.151922 0.211662 0)
(-0.141866 0.211235 0)
(-0.132379 0.210773 0)
(-0.123419 0.210296 0)
(-0.153047 0.198755 0)
(-0.1433 0.199054 0)
(-0.134078 0.199271 0)
(-0.125343 0.199425 0)
(-0.153233 0.186189 0)
(-0.143843 0.187158 0)
(-0.134931 0.188004 0)
(-0.126464 0.188748 0)
(-0.152537 0.174028 0)
(-0.143544 0.175608 0)
(-0.134981 0.177031 0)
(-0.126819 0.178318 0)
(-0.151023 0.162328 0)
(-0.142458 0.164457 0)
(-0.134274 0.166403 0)
(-0.126448 0.168186 0)
(-0.148761 0.15113 0)
(-0.140644 0.153748 0)
(-0.132863 0.156162 0)
(-0.125396 0.158393 0)
(-0.145818 0.140467 0)
(-0.138165 0.143514 0)
(-0.130802 0.146344 0)
(-0.123712 0.148974 0)
(-0.142263 0.130362 0)
(-0.13508 0.13378 0)
(-0.128145 0.136973 0)
(-0.121443 0.139956 0)
(-0.138164 0.120827 0)
(-0.131451 0.124563 0)
(-0.124947 0.12807 0)
(-0.11864 0.131361 0)
(-0.133582 0.111867 0)
(-0.127334 0.115872 0)
(-0.12126 0.119647 0)
(-0.11535 0.123204 0)
(-0.128578 0.103481 0)
(-0.122785 0.107709 0)
(-0.117135 0.111711 0)
(-0.111618 0.115495 0)
(-0.123203 0.0956611 0)
(-0.117853 0.100073 0)
(-0.112619 0.104263 0)
(-0.10749 0.108239 0)
(-0.117508 0.0883959 0)
(-0.112585 0.0929556 0)
(-0.107754 0.0973007 0)
(-0.103005 0.101436 0)
(-0.111535 0.0816707 0)
(-0.107022 0.0863478 0)
(-0.102581 0.0908183 0)
(-0.0982018 0.095085 0)
(-0.105322 0.0754685 0)
(-0.101201 0.080237 0)
(-0.0971341 0.0848074 0)
(-0.0931138 0.0891808 0)
(-0.0989005 0.0697711 0)
(-0.095153 0.0746091 0)
(-0.0914462 0.0792579 0)
(-0.087772 0.0837166 0)
(-0.0922993 0.0645596 0)
(-0.0889073 0.0694494 0)
(-0.085545 0.0741587 0)
(-0.0822045 0.0786849 0)
(-0.0855425 0.0598152 0)
(-0.0824885 0.0647431 0)
(-0.0794557 0.0694984 0)
(-0.0764368 0.0740771 0)
(-0.078652 0.0555201 0)
(-0.0759195 0.0604756 0)
(-0.0732024 0.0652657 0)
(-0.0704932 0.0698851 0)
(-0.0716491 0.051658 0)
(-0.0692236 0.0566341 0)
(-0.0668093 0.0614508 0)
(-0.0643993 0.0661014 0)
(-0.0645585 0.0482148 0)
(-0.0624274 0.0532075 0)
(-0.060305 0.058045 0)
(-0.0581849 0.0627198 0)
(-0.0574132 0.0451804 0)
(-0.0555667 0.0501879 0)
(-0.0537276 0.0550423 0)
(-0.0518897 0.0597357 0)
(-0.0502632 0.0425491 0)
(-0.0486952 0.0475712 0)
(-0.0471333 0.0524397 0)
(-0.0455716 0.0571466 0)
(-0.0431875 0.0403225 0)
(-0.0418963 0.0453584 0)
(-0.0406085 0.0502372 0)
(-0.0393181 0.0549517 0)
(-0.0363131 0.0385112 0)
(-0.0353017 0.0435562 0)
(-0.0342868 0.0484374 0)
(-0.0332629 0.0531501 0)
(-0.029841 0.0371376 0)
(-0.0291152 0.0421771 0)
(-0.0283712 0.0470449 0)
(-0.0276058 0.0517401 0)
(-0.0240789 0.0362249 0)
(-0.0236409 0.0412283 0)
(-0.0231585 0.0460549 0)
(-0.0226339 0.0507081 0)
(-0.0194751 0.0358267 0)
(-0.0193076 0.0407254 0)
(-0.0190583 0.0454573 0)
(-0.0187402 0.050027 0)
(-0.0166945 0.0359042 0)
(-0.0167199 0.0405479 0)
(-0.0166306 0.0450748 0)
(-0.0164503 0.0494777 0)
(-0.00448976 0.336645 0)
(0.00152413 0.326044 0)
(0.00690704 0.315671 0)
(0.0116871 0.305512 0)
(0.0158945 0.295577 0)
(0.0195594 0.285887 0)
(0.0227136 0.276468 0)
(0.0253898 0.26735 0)
(0.0276218 0.258557 0)
(0.029443 0.250111 0)
(0.0308869 0.242027 0)
(0.0319861 0.234316 0)
(0.032772 0.226983 0)
(0.0332743 0.220029 0)
(0.033521 0.213453 0)
(0.0335383 0.20725 0)
(0.0333503 0.201416 0)
(0.0329789 0.195948 0)
(0.0324437 0.190843 0)
(0.0317624 0.186103 0)
(0.0309503 0.181734 0)
(0.0300211 0.177748 0)
(0.0289865 0.174162 0)
(0.0278566 0.171002 0)
(0.0266399 0.168298 0)
(0.0253437 0.166091 0)
(0.0239742 0.164427 0)
(0.0225363 0.163359 0)
(0.0210343 0.162944 0)
(0.0194718 0.163242 0)
(0.0178518 0.164315 0)
(0.0161772 0.166223 0)
(0.0144504 0.16902 0)
(0.0126737 0.172754 0)
(0.0108493 0.177455 0)
(0.0089782 0.183123 0)
(0.0070603 0.189709 0)
(0.0051044 0.19706 0)
(0.00313177 0.204742 0)
(0.0012999 0.209136 0)
(-0.0166377 0.330119 0)
(-0.0101558 0.320152 0)
(-0.00431249 0.31039 0)
(0.000922999 0.300814 0)
(0.00558158 0.291434 0)
(0.00969337 0.282269 0)
(0.0132896 0.273344 0)
(0.0164024 0.264687 0)
(0.0190643 0.256323 0)
(0.0213076 0.248273 0)
(0.0231646 0.240554 0)
(0.0246666 0.233176 0)
(0.025844 0.226146 0)
(0.0267257 0.219467 0)
(0.0273389 0.213138 0)
(0.0277093 0.207159 0)
(0.0278604 0.201526 0)
(0.0278139 0.196237 0)
(0.0275897 0.191294 0)
(0.0272053 0.186699 0)
(0.0266769 0.182461 0)
(0.0260184 0.178592 0)
(0.0252424 0.175112 0)
(0.0243598 0.172046 0)
(0.0233802 0.16943 0)
(0.0223116 0.167303 0)
(0.0211615 0.165714 0)
(0.0199359 0.164715 0)
(0.0186403 0.164364 0)
(0.0172797 0.164723 0)
(0.0158583 0.165852 0)
(0.0143804 0.167813 0)
(0.0128497 0.170662 0)
(0.0112701 0.174444 0)
(0.00964499 0.17919 0)
(0.00797706 0.184901 0)
(0.00626765 0.191528 0)
(0.00452597 0.198922 0)
(0.00277147 0.20665 0)
(0.00115156 0.211063 0)
(-0.0282679 0.323062 0)
(-0.0213411 0.313747 0)
(-0.0150617 0.304609 0)
(-0.00939721 0.295631 0)
(-0.00431525 0.286818 0)
(0.000215316 0.278189 0)
(0.0042254 0.269768 0)
(0.00774633 0.261583 0)
(0.0108099 0.253659 0)
(0.0134478 0.246016 0)
(0.0156912 0.238673 0)
(0.0175707 0.23164 0)
(0.0191158 0.224927 0)
(0.0203544 0.218536 0)
(0.0213134 0.21247 0)
(0.0220177 0.206728 0)
(0.0224905 0.201311 0)
(0.0227535 0.196217 0)
(0.0228261 0.19145 0)
(0.0227264 0.187014 0)
(0.0224707 0.182919 0)
(0.0220734 0.17918 0)
(0.0215478 0.175818 0)
(0.0209053 0.17286 0)
(0.0201564 0.170342 0)
(0.0193102 0.168305 0)
(0.0183748 0.166799 0)
(0.0173576 0.165876 0)
(0.0162652 0.165596 0)
(0.0151035 0.166019 0)
(0.0138782 0.167209 0)
(0.0125948 0.169226 0)
(0.0112583 0.172125 0)
(0.00987389 0.175953 0)
(0.00844635 0.180742 0)
(0.00697974 0.186492 0)
(0.00547693 0.193156 0)
(0.00394754 0.200586 0)
(0.00240901 0.208349 0)
(0.00099933 0.212773 0)
(-0.0393404 0.315497 0)
(-0.031997 0.306851 0)
(-0.0253107 0.298352 0)
(-0.0192465 0.289982 0)
(-0.0137705 0.281746 0)
(-0.00885115 0.273663 0)
(-0.00445742 0.265757 0)
(-0.000557831 0.258054 0)
(0.00287895 0.25058 0)
(0.00588375 0.243356 0)
(0.00848705 0.2364 0)
(0.0107187 0.229725 0)
(0.0126073 0.223341 0)
(0.0141805 0.217252 0)
(0.0154641 0.211461 0)
(0.0164829 0.205971 0)
(0.0172597 0.200783 0)
(0.0178158 0.195898 0)
(0.0181708 0.191319 0)
(0.0183427 0.187056 0)
(0.018348 0.183117 0)
(0.0182016 0.17952 0)
(0.0179172 0.176287 0)
(0.0175068 0.173447 0)
(0.0169816 0.171037 0)
(0.0163515 0.169098 0)
(0.0156256 0.167681 0)
(0.014812 0.166841 0)
(0.0139185 0.166636 0)
(0.0129521 0.167129 0)
(0.0119196 0.168382 0)
(0.0108277 0.170455 0)
(0.00968276 0.173405 0)
(0.00849106 0.177279 0)
(0.00725873 0.182107 0)
(0.0059912 0.187892 0)
(0.00469286 0.194587 0)
(0.00337387 0.202045 0)
(0.0020499 0.209836 0)
(0.000848336 0.214258 0)
(-0.0498156 0.307449 0)
(-0.0420896 0.299489 0)
(-0.0350296 0.291642 0)
(-0.0285985 0.283891 0)
(-0.0227607 0.276242 0)
(-0.017484 0.268714 0)
(-0.0127371 0.261332 0)
(-0.0084887 0.254121 0)
(-0.00470802 0.247107 0)
(-0.0013645 0.240312 0)
(0.00157189 0.233755 0)
(0.00413014 0.227449 0)
(0.00633821 0.221405 0)
(0.00822304 0.215629 0)
(0.00981019 0.210127 0)
(0.0111237 0.204901 0)
(0.0121863 0.199954 0)
(0.0130188 0.195289 0)
(0.0136409 0.190913 0)
(0.0140706 0.186833 0)
(0.0143245 0.183062 0)
(0.0144179 0.179617 0)
(0.0143647 0.176524 0)
(0.0141775 0.173811 0)
(0.0138681 0.171517 0)
(0.0134471 0.169684 0)
(0.0129244 0.168364 0)
(0.012309 0.167612 0)
(0.0116095 0.167487 0)
(0.010834 0.168052 0)
(0.00999047 0.16937 0)
(0.00908651 0.171501 0)
(0.00812974 0.174501 0)
(0.00712767 0.178419 0)
(0.00608763 0.183284 0)
(0.00501638 0.189099 0)
(0.00391984 0.195819 0)
(0.0028087 0.203299 0)
(0.00169691 0.211105 0)
(0.000700929 0.215513 0)
(-0.0596531 0.298945 0)
(-0.0515835 0.291687 0)
(-0.0441871 0.284506 0)
(-0.0374249 0.277386 0)
(-0.0312601 0.270334 0)
(-0.0256597 0.263371 0)
(-0.0205921 0.25652 0)
(-0.0160262 0.24981 0)
(-0.0119313 0.243264 0)
(-0.00827755 0.236907 0)
(-0.00503552 0.230758 0)
(-0.00217675 0.224831 0)
(0.000326314 0.219138 0)
(0.00249994 0.213686 0)
(0.00436909 0.208483 0)
(0.00595738 0.203531 0)
(0.00728708 0.198837 0)
(0.00837899 0.194404 0)
(0.00925251 0.190239 0)
(0.00992568 0.186353 0)
(0.0104152 0.18276 0)
(0.0107365 0.179478 0)
(0.0109038 0.176533 0)
(0.0109303 0.173956 0)
(0.010828 0.171786 0)
(0.0106084 0.170066 0)
(0.0102819 0.168849 0)
(0.00985843 0.16819 0)
(0.00934736 0.16815 0)
(0.00875775 0.16879 0)
(0.00809844 0.170175 0)
(0.00737818 0.172364 0)
(0.00660563 0.175415 0)
(0.00578943 0.179374 0)
(0.00493809 0.184273 0)
(0.00405966 0.190114 0)
(0.00316152 0.196853 0)
(0.00225479 0.204346 0)
(0.0013517 0.212158 0)
(0.000557519 0.216541 0)
(-0.0688142 0.290021 0)
(-0.0604447 0.28348 0)
(-0.0527531 0.276976 0)
(-0.0456988 0.270497 0)
(-0.039244 0.264051 0)
(-0.0333553 0.25766 0)
(-0.0280009 0.251349 0)
(-0.0231499 0.245146 0)
(-0.0187719 0.239077 0)
(-0.0148373 0.233165 0)
(-0.0113175 0.227432 0)
(-0.00818431 0.221892 0)
(-0.00541107 0.216558 0)
(-0.00297208 0.21144 0)
(-0.000842811 0.206544 0)
(0.000999939 0.201877 0)
(0.00257798 0.197444 0)
(0.00391179 0.193252 0)
(0.00502063 0.18931 0)
(0.00592247 0.185627 0)
(0.00663402 0.182221 0)
(0.00717086 0.179111 0)
(0.00754747 0.176322 0)
(0.00777732 0.173889 0)
(0.00787301 0.171849 0)
(0.00784636 0.170249 0)
(0.00770849 0.16914 0)
(0.00746999 0.168579 0)
(0.00714102 0.168627 0)
(0.00673146 0.169345 0)
(0.00625107 0.170798 0)
(0.00570952 0.173046 0)
(0.00511652 0.176146 0)
(0.00448176 0.180145 0)
(0.00381483 0.185074 0)
(0.00312501 0.190938 0)
(0.00242105 0.197689 0)
(0.00171437 0.205187 0)
(0.00101534 0.212996 0)
(0.000418074 0.217345 0)
(-0.0772624 0.280722 0)
(-0.0686412 0.274908 0)
(-0.060699 0.26909 0)
(-0.0533943 0.263259 0)
(-0.0466889 0.257426 0)
(-0.0405491 0.251613 0)
(-0.0349433 0.245847 0)
(-0.0298406 0.240157 0)
(-0.0252112 0.23457 0)
(-0.021026 0.22911 0)
(-0.0172567 0.223799 0)
(-0.0138762 0.218653 0)
(-0.010858 0.213686 0)
(-0.00817716 0.208908 0)
(-0.00580984 0.204328 0)
(-0.00373337 0.199954 0)
(-0.00192633 0.195791 0)
(-0.000368463 0.191849 0)
(0.000959251 0.188136 0)
(0.00207458 0.184666 0)
(0.0029942 0.181454 0)
(0.00373374 0.178522 0)
(0.00430786 0.175898 0)
(0.00473032 0.173615 0)
(0.00501408 0.171713 0)
(0.00517139 0.170238 0)
(0.0052139 0.169242 0)
(0.00515282 0.168783 0)
(0.00499897 0.168921 0)
(0.00476302 0.16972 0)
(0.00445553 0.171242 0)
(0.00408708 0.173549 0)
(0.00366828 0.176698 0)
(0.0032098 0.180734 0)
(0.00272226 0.18569 0)
(0.00221606 0.19157 0)
(0.00170119 0.198328 0)
(0.0011892 0.205823 0)
(0.000688232 0.213619 0)
(0.000282262 0.217926 0)
(-0.0849658 0.271095 0)
(-0.0761443 0.266015 0)
(-0.067999 0.260888 0)
(-0.0604882 0.25571 0)
(-0.0535735 0.250494 0)
(-0.0472214 0.245263 0)
(-0.0414005 0.240046 0)
(-0.0360806 0.234873 0)
(-0.0312322 0.229772 0)
(-0.026827 0.224768 0)
(-0.0228373 0.219884 0)
(-0.0192365 0.215137 0)
(-0.015999 0.210542 0)
(-0.0131005 0.206111 0)
(-0.0105177 0.201853 0)
(-0.00822851 0.197778 0)
(-0.00621193 0.193892 0)
(-0.00444815 0.190206 0)
(-0.00291848 0.186731 0)
(-0.00160533 0.183479 0)
(-0.000492089 0.180469 0)
(0.000436893 0.177723 0)
(0.00119634 0.17527 0)
(0.00180018 0.173143 0)
(0.00226164 0.171383 0)
(0.00259335 0.170038 0)
(0.00280743 0.16916 0)
(0.0029156 0.168806 0)
(0.00292931 0.169038 0)
(0.00285991 0.169918 0)
(0.0027187 0.171511 0)
(0.00251706 0.173876 0)
(0.00226646 0.177071 0)
(0.00197843 0.181143 0)
(0.00166453 0.186122 0)
(0.0013362 0.192014 0)
(0.00100452 0.198773 0)
(0.000680944 0.206258 0)
(0.000370116 0.214033 0)
(0.000148817 0.218285 0)
(-0.0918972 0.261196 0)
(-0.0829297 0.256851 0)
(-0.0746312 0.252417 0)
(-0.0669603 0.247892 0)
(-0.059879 0.243293 0)
(-0.0533544 0.238646 0)
(-0.0473559 0.233979 0)
(-0.0418538 0.229324 0)
(-0.0368195 0.224711 0)
(-0.0322254 0.220166 0)
(-0.0280445 0.215711 0)
(-0.024251 0.211367 0)
(-0.0208202 0.207148 0)
(-0.0177283 0.203068 0)
(-0.0149529 0.199138 0)
(-0.0124723 0.195366 0)
(-0.0102661 0.191764 0)
(-0.00831493 0.18834 0)
(-0.00660047 0.185107 0)
(-0.00510537 0.18208 0)
(-0.00381322 0.179278 0)
(-0.0027085 0.176723 0)
(-0.00177644 0.174446 0)
(-0.00100298 0.17248 0)
(-0.000374677 0.170868 0)
(0.000121408 0.169656 0)
(0.000497744 0.168899 0)
(0.000766491 0.168653 0)
(0.000939655 0.16898 0)
(0.00102918 0.169944 0)
(0.00104705 0.171607 0)
(0.00100535 0.17403 0)
(0.000916285 0.177271 0)
(0.000792214 0.181375 0)
(0.000645538 0.186373 0)
(0.000488601 0.192272 0)
(0.000333474 0.199025 0)
(0.000191515 0.206494 0)
(5.91841e-05 0.21424 0)
(1.34168e-05 0.218431 0)
(-0.098036 0.251083 0)
(-0.0889784 0.247469 0)
(-0.0805779 0.243724 0)
(-0.072794 0.23985 0)
(-0.0655898 0.235866 0)
(-0.0589334 0.231799 0)
(-0.0527952 0.227681 0)
(-0.0471466 0.223544 0)
(-0.0419597 0.219418 0)
(-0.037208 0.215332 0)
(-0.0328654 0.211308 0)
(-0.028907 0.207368 0)
(-0.0253089 0.203528 0)
(-0.0220481 0.199802 0)
(-0.019103 0.196202 0)
(-0.0164525 0.192738 0)
(-0.0140769 0.189422 0)
(-0.0119571 0.186265 0)
(-0.0100754 0.18328 0)
(-0.00841466 0.180482 0)
(-0.00695877 0.177892 0)
(-0.00569233 0.175533 0)
(-0.00460064 0.173435 0)
(-0.00366962 0.171635 0)
(-0.00288569 0.170174 0)
(-0.00223573 0.1691 0)
(-0.00170697 0.168466 0)
(-0.00128684 0.16833 0)
(-0.000962852 0.168755 0)
(-0.000722547 0.169802 0)
(-0.000553362 0.171536 0)
(-0.000442591 0.174016 0)
(-0.000377349 0.1773 0)
(-0.000344584 0.181433 0)
(-0.000331152 0.186448 0)
(-0.000323934 0.192348 0)
(-0.000310166 0.199091 0)
(-0.000278913 0.206539 0)
(-0.000242058 0.214263 0)
(-0.000119609 0.218342 0)
(-0.103368 0.240817 0)
(-0.0942774 0.237925 0)
(-0.0858265 0.23486 0)
(-0.0779772 0.231629 0)
(-0.0706941 0.228253 0)
(-0.0639469 0.224762 0)
(-0.0577072 0.221188 0)
(-0.0519476 0.217565 0)
(-0.0466417 0.213925 0)
(-0.0417637 0.210295 0)
(-0.0372889 0.206702 0)
(-0.0331934 0.203166 0)
(-0.0294541 0.199705 0)
(-0.026049 0.196333 0)
(-0.0229572 0.193065 0)
(-0.0201585 0.189912 0)
(-0.0176336 0.186885 0)
(-0.0153642 0.183998 0)
(-0.0133329 0.181263 0)
(-0.0115231 0.178698 0)
(-0.00991885 0.176323 0)
(-0.00850509 0.174164 0)
(-0.00726719 0.17225 0)
(-0.00619111 0.170619 0)
(-0.00526324 0.169311 0)
(-0.00447031 0.168377 0)
(-0.0037993 0.167869 0)
(-0.00323735 0.167845 0)
(-0.00277159 0.168368 0)
(-0.00238912 0.169499 0)
(-0.00207688 0.171302 0)
(-0.00182163 0.173839 0)
(-0.00160989 0.177164 0)
(-0.00142802 0.181324 0)
(-0.00126223 0.18635 0)
(-0.00109875 0.192248 0)
(-0.000924241 0.198976 0)
(-0.000728377 0.206398 0)
(-0.00053004 0.214102 0)
(-0.000249113 0.218025 0)
(-0.107889 0.230462 0)
(-0.0988199 0.228276 0)
(-0.0903701 0.225878 0)
(-0.0825025 0.223278 0)
(-0.0751843 0.2205 0)
(-0.0683869 0.217575 0)
(-0.0620836 0.214538 0)
(-0.0562485 0.211423 0)
(-0.0508567 0.208263 0)
(-0.0458838 0.205087 0)
(-0.0413062 0.201921 0)
(-0.037101 0.198786 0)
(-0.0332465 0.195703 0)
(-0.0297216 0.192686 0)
(-0.0265061 0.18975 0)
(-0.0235806 0.186907 0)
(-0.0209268 0.184171 0)
(-0.0185268 0.181555 0)
(-0.0163637 0.179073 0)
(-0.0144215 0.176743 0)
(-0.0126846 0.174586 0)
(-0.0111381 0.172629 0)
(-0.00976771 0.170901 0)
(-0.00855939 0.16944 0)
(-0.00749958 0.168289 0)
(-0.00657495 0.167496 0)
(-0.00577231 0.167115 0)
(-0.00507856 0.167205 0)
(-0.00448055 0.167826 0)
(-0.003965 0.169041 0)
(-0.00351846 0.170914 0)
(-0.00312722 0.173504 0)
(-0.00277733 0.176868 0)
(-0.0024546 0.181052 0)
(-0.00214471 0.186086 0)
(-0.00183332 0.191977 0)
(-0.00150655 0.198685 0)
(-0.00115452 0.206077 0)
(-0.000799498 0.213754 0)
(-0.000368422 0.217499 0)
(-0.111599 0.220082 0)
(-0.102606 0.21858 0)
(-0.0942073 0.21683 0)
(-0.0863677 0.214844 0)
(-0.0790572 0.21265 0)
(-0.0722494 0.21028 0)
(-0.0659197 0.20777 0)
(-0.060044 0.205154 0)
(-0.054599 0.202466 0)
(-0.0495618 0.199737 0)
(-0.0449103 0.196992 0)
(-0.0406228 0.194256 0)
(-0.0366788 0.191547 0)
(-0.0330581 0.188882 0)
(-0.0297417 0.186277 0)
(-0.026711 0.183745 0)
(-0.0239484 0.181299 0)
(-0.0214368 0.178954 0)
(-0.0191599 0.176725 0)
(-0.017102 0.174631 0)
(-0.0152482 0.172694 0)
(-0.0135838 0.17094 0)
(-0.0120947 0.1694 0)
(-0.0107672 0.168111 0)
(-0.00958773 0.167118 0)
(-0.00854295 0.166467 0)
(-0.00761961 0.166215 0)
(-0.00680445 0.166417 0)
(-0.00608409 0.167136 0)
(-0.00544498 0.168435 0)
(-0.00487333 0.170376 0)
(-0.00435506 0.173019 0)
(-0.0038758 0.17642 0)
(-0.00342091 0.180624 0)
(-0.00297561 0.185662 0)
(-0.00252503 0.191542 0)
(-0.00205466 0.198224 0)
(-0.00155488 0.205581 0)
(-0.00104864 0.21322 0)
(-0.000474569 0.216781 0)
(-0.114508 0.209738 0)
(-0.105644 0.208893 0)
(-0.097343 0.207768 0)
(-0.0895755 0.206377 0)
(-0.0823139 0.204749 0)
(-0.0755342 0.202918 0)
(-0.0692142 0.200921 0)
(-0.0633318 0.198792 0)
(-0.0578654 0.196567 0)
(-0.052794 0.194276 0)
(-0.0480968 0.191947 0)
(-0.0437537 0.189602 0)
(-0.0397453 0.187262 0)
(-0.0360527 0.184946 0)
(-0.0326579 0.182669 0)
(-0.0295432 0.180444 0)
(-0.0266918 0.178287 0)
(-0.0240874 0.176213 0)
(-0.0217144 0.174237 0)
(-0.0195577 0.172379 0)
(-0.0176027 0.170661 0)
(-0.0158352 0.169111 0)
(-0.0142416 0.167759 0)
(-0.0128081 0.166643 0)
(-0.0115214 0.165808 0)
(-0.0103683 0.165301 0)
(-0.00933548 0.165176 0)
(-0.00840959 0.165491 0)
(-0.00757712 0.166309 0)
(-0.00682432 0.16769 0)
(-0.00613713 0.169697 0)
(-0.00550117 0.172391 0)
(-0.00490174 0.175825 0)
(-0.00432381 0.180046 0)
(-0.00375218 0.185086 0)
(-0.00317148 0.19095 0)
(-0.0025666 0.197601 0)
(-0.00192803 0.204915 0)
(-0.00127834 0.212508 0)
(-0.000569385 0.215881 0)
(-0.116634 0.199492 0)
(-0.107945 0.199272 0)
(-0.0997877 0.198744 0)
(-0.092134 0.197923 0)
(-0.0849603 0.19684 0)
(-0.0782454 0.19553 0)
(-0.0719695 0.194029 0)
(-0.0661128 0.192374 0)
(-0.0606557 0.190599 0)
(-0.055579 0.188736 0)
(-0.0508635 0.186812 0)
(-0.0464908 0.184851 0)
(-0.0424426 0.182875 0)
(-0.0387014 0.180902 0)
(-0.0352501 0.178947 0)
(-0.0320722 0.177027 0)
(-0.0291517 0.175156 0)
(-0.0264732 0.17335 0)
(-0.0240217 0.171625 0)
(-0.0217828 0.170002 0)
(-0.0197424 0.168503 0)
(-0.0178868 0.167155 0)
(-0.0162026 0.165991 0)
(-0.0146764 0.165049 0)
(-0.0132952 0.164371 0)
(-0.0120457 0.164006 0)
(-0.0109148 0.164009 0)
(-0.00988914 0.164437 0)
(-0.00895508 0.165351 0)
(-0.00809875 0.166814 0)
(-0.00730591 0.168886 0)
(-0.00656195 0.171628 0)
(-0.00585189 0.175093 0)
(-0.0051604 0.179328 0)
(-0.00447194 0.184364 0)
(-0.00377065 0.190208 0)
(-0.00304086 0.196822 0)
(-0.00227316 0.204087 0)
(-0.00148954 0.211623 0)
(-0.00065518 0.214812 0)
(-0.118001 0.1894 0)
(-0.109531 0.189769 0)
(-0.101557 0.189806 0)
(-0.0940558 0.189528 0)
(-0.0870063 0.188966 0)
(-0.0803905 0.188155 0)
(-0.0741912 0.187132 0)
(-0.0683911 0.185934 0)
(-0.0629725 0.184595 0)
(-0.0579182 0.183147 0)
(-0.0532109 0.181617 0)
(-0.0488334 0.180031 0)
(-0.0447692 0.17841 0)
(-0.0410018 0.176772 0)
(-0.0375155 0.175135 0)
(-0.0342948 0.173514 0)
(-0.0313245 0.171925 0)
(-0.0285902 0.170383 0)
(-0.0260775 0.168907 0)
(-0.0237729 0.167516 0)
(-0.0216627 0.166234 0)
(-0.0197337 0.165088 0)
(-0.017973 0.164111 0)
(-0.0163675 0.16334 0)
(-0.0149043 0.162818 0)
(-0.0135706 0.162596 0)
(-0.0123532 0.162725 0)
(-0.0112389 0.163264 0)
(-0.0102139 0.164274 0)
(-0.00926449 0.165816 0)
(-0.00837615 0.167951 0)
(-0.00753417 0.170738 0)
(-0.00672334 0.174232 0)
(-0.00592813 0.178478 0)
(-0.00513268 0.183506 0)
(-0.00432076 0.189324 0)
(-0.00347616 0.195897 0)
(-0.00258963 0.203105 0)
(-0.0016825 0.210577 0)
(-0.000733061 0.213583 0)
(-0.11864 0.179513 0)
(-0.110426 0.180433 0)
(-0.102673 0.181 0)
(-0.0953581 0.181235 0)
(-0.0884661 0.181167 0)
(-0.0819811 0.180831 0)
(-0.0758886 0.180265 0)
(-0.0701738 0.179505 0)
(-0.0648213 0.178586 0)
(-0.0598156 0.177538 0)
(-0.0551414 0.176391 0)
(-0.0507831 0.175168 0)
(-0.0467255 0.173892 0)
(-0.0429538 0.172582 0)
(-0.0394531 0.171254 0)
(-0.0362092 0.169926 0)
(-0.0332079 0.168613 0)
(-0.0304356 0.167332 0)
(-0.0278788 0.1661 0)
(-0.0255246 0.164939 0)
(-0.0233599 0.163871 0)
(-0.0213723 0.162924 0)
(-0.0195489 0.162131 0)
(-0.0178774 0.161529 0)
(-0.016345 0.161163 0)
(-0.0149392 0.16108 0)
(-0.013647 0.161335 0)
(-0.0124552 0.161984 0)
(-0.0113503 0.163087 0)
(-0.0103183 0.164705 0)
(-0.00934482 0.166901 0)
(-0.00841501 0.169731 0)
(-0.00751354 0.173251 0)
(-0.00662472 0.177503 0)
(-0.00573247 0.18252 0)
(-0.00482022 0.188309 0)
(-0.00387133 0.194834 0)
(-0.00287675 0.20198 0)
(-0.00185708 0.209378 0)
(-0.000803303 0.212208 0)
(-0.118584 0.169878 0)
(-0.11066 0.171308 0)
(-0.103159 0.172369 0)
(-0.096062 0.173083 0)
(-0.0893572 0.17348 0)
(-0.0830317 0.173595 0)
(-0.0770738 0.173463 0)
(-0.0714709 0.173121 0)
(-0.0662099 0.172603 0)
(-0.0612775 0.17194 0)
(-0.0566599 0.17116 0)
(-0.0523433 0.170289 0)
(-0.0483142 0.169346 0)
(-0.0445587 0.168354 0)
(-0.0410635 0.167327 0)
(-0.0378153 0.166285 0)
(-0.0348011 0.165241 0)
(-0.0320081 0.164215 0)
(-0.0294238 0.163223 0)
(-0.0270357 0.162286 0)
(-0.0248318 0.161428 0)
(-0.0227998 0.160677 0)
(-0.0209276 0.160065 0)
(-0.0192032 0.159631 0)
(-0.0176143 0.159417 0)
(-0.0161485 0.159473 0)
(-0.0147931 0.15985 0)
(-0.0135352 0.160606 0)
(-0.0123613 0.1618 0)
(-0.0112574 0.163494 0)
(-0.0102093 0.165747 0)
(-0.00920209 0.168618 0)
(-0.00822032 0.172159 0)
(-0.00724823 0.176415 0)
(-0.00626961 0.181417 0)
(-0.00526764 0.187171 0)
(-0.00422533 0.193644 0)
(-0.00313382 0.200721 0)
(-0.00201294 0.208038 0)
(-0.000865847 0.210696 0)
(-0.117874 0.160537 0)
(-0.110267 0.162433 0)
(-0.103044 0.163951 0)
(-0.0961919 0.165111 0)
(-0.0897004 0.165942 0)
(-0.08356 0.166479 0)
(-0.0777615 0.166757 0)
(-0.0722948 0.166812 0)
(-0.0671489 0.166675 0)
(-0.0623123 0.16638 0)
(-0.0577733 0.165952 0)
(-0.0535197 0.165417 0)
(-0.0495393 0.164797 0)
(-0.0458198 0.16411 0)
(-0.0423489 0.163376 0)
(-0.0391146 0.16261 0)
(-0.0361049 0.161829 0)
(-0.033308 0.16105 0)
(-0.030712 0.160291 0)
(-0.0283055 0.159574 0)
(-0.0260769 0.158922 0)
(-0.0240147 0.158363 0)
(-0.0221073 0.157929 0)
(-0.020343 0.157659 0)
(-0.01871 0.157595 0)
(-0.0171962 0.157785 0)
(-0.0157894 0.158282 0)
(-0.0144766 0.159142 0)
(-0.0132447 0.160425 0)
(-0.0120798 0.162191 0)
(-0.0109677 0.164499 0)
(-0.00989348 0.167407 0)
(-0.00884189 0.170967 0)
(-0.00779706 0.175224 0)
(-0.00674271 0.180206 0)
(-0.00566185 0.185922 0)
(-0.00453721 0.192338 0)
(-0.00336017 0.19934 0)
(-0.00214973 0.206568 0)
(-0.000920549 0.209061 0)
(-0.116551 0.151523 0)
(-0.109281 0.153843 0)
(-0.10236 0.155778 0)
(-0.0957748 0.157349 0)
(-0.0895191 0.158584 0)
(-0.0835861 0.159516 0)
(-0.0779692 0.160178 0)
(-0.0726603 0.160606 0)
(-0.0676507 0.160831 0)
(-0.0629308 0.160884 0)
(-0.0584907 0.160792 0)
(-0.0543196 0.160579 0)
(-0.050407 0.160267 0)
(-0.0467418 0.159875 0)
(-0.0433131 0.159421 0)
(-0.04011 0.158922 0)
(-0.0371213 0.158395 0)
(-0.0343364 0.157856 0)
(-0.0317443 0.157324 0)
(-0.0293342 0.15682 0)
(-0.0270952 0.156368 0)
(-0.0250165 0.155996 0)
(-0.023087 0.155736 0)
(-0.0212955 0.155626 0)
(-0.0196307 0.155707 0)
(-0.018081 0.156029 0)
(-0.0166342 0.156643 0)
(-0.0152778 0.157605 0)
(-0.0139989 0.158974 0)
(-0.0127837 0.160808 0)
(-0.0116182 0.163169 0)
(-0.0104877 0.166111 0)
(-0.00937689 0.169686 0)
(-0.00826997 0.173939 0)
(-0.00715068 0.178899 0)
(-0.00600191 0.184572 0)
(-0.00480624 0.190926 0)
(-0.00355528 0.197848 0)
(-0.00226712 0.204981 0)
(-0.000967272 0.207314 0)
(-0.114658 0.142867 0)
(-0.107742 0.145567 0)
(-0.10114 0.147882 0)
(-0.0948398 0.149829 0)
(-0.0888387 0.151435 0)
(-0.0831322 0.152732 0)
(-0.0777159 0.153753 0)
(-0.072584 0.15453 0)
(-0.0677297 0.155095 0)
(-0.0631453 0.155478 0)
(-0.0588224 0.155703 0)
(-0.054752 0.155796 0)
(-0.0509248 0.155778 0)
(-0.0473312 0.155668 0)
(-0.0439614 0.155483 0)
(-0.0408056 0.155241 0)
(-0.0378538 0.154958 0)
(-0.0350961 0.154651 0)
(-0.0325225 0.154338 0)
(-0.030123 0.154041 0)
(-0.0278875 0.153783 0)
(-0.0258055 0.153593 0)
(-0.0238668 0.153501 0)
(-0.0220606 0.153546 0)
(-0.0203762 0.15377 0)
(-0.0188021 0.154219 0)
(-0.0173268 0.154946 0)
(-0.015938 0.156006 0)
(-0.0146229 0.157457 0)
(-0.0133683 0.159358 0)
(-0.0121601 0.161766 0)
(-0.0109838 0.164739 0)
(-0.00982438 0.168327 0)
(-0.0086661 0.172573 0)
(-0.00749273 0.177507 0)
(-0.00628716 0.183134 0)
(-0.00503187 0.189421 0)
(-0.00371872 0.196259 0)
(-0.00236488 0.203289 0)
(-0.00100593 0.20547 0)
(-0.112238 0.134589 0)
(-0.105689 0.137629 0)
(-0.0994178 0.140285 0)
(-0.0934173 0.142574 0)
(-0.0876861 0.14452 0)
(-0.0822219 0.146154 0)
(-0.0770226 0.147507 0)
(-0.0720843 0.14861 0)
(-0.067402 0.149493 0)
(-0.0629698 0.150184 0)
(-0.0587807 0.15071 0)
(-0.0548275 0.151092 0)
(-0.0511019 0.151353 0)
(-0.0475957 0.151511 0)
(-0.0443004 0.151583 0)
(-0.0412071 0.151586 0)
(-0.0383069 0.151537 0)
(-0.0355909 0.151452 0)
(-0.0330499 0.151351 0)
(-0.0306746 0.151253 0)
(-0.0284556 0.151182 0)
(-0.0263833 0.151167 0)
(-0.0244477 0.151239 0)
(-0.022639 0.151434 0)
(-0.0209466 0.151794 0)
(-0.0193598 0.152367 0)
(-0.0178671 0.153203 0)
(-0.0164569 0.154357 0)
(-0.0151165 0.155887 0)
(-0.013833 0.15785 0)
(-0.0125927 0.160304 0)
(-0.0113813 0.163305 0)
(-0.0101839 0.166902 0)
(-0.00898496 0.171138 0)
(-0.00776841 0.176041 0)
(-0.00651719 0.181618 0)
(-0.00521377 0.187836 0)
(-0.00385027 0.194584 0)
(-0.00244289 0.201506 0)
(-0.0010365 0.203543 0)
(-0.109335 0.126709 0)
(-0.103159 0.130049 0)
(-0.0972289 0.13301 0)
(-0.0915384 0.135606 0)
(-0.0860888 0.137862 0)
(-0.0808799 0.139804 0)
(-0.0759111 0.141462 0)
(-0.0711806 0.142866 0)
(-0.0666848 0.144045 0)
(-0.0624194 0.145025 0)
(-0.0583791 0.145832 0)
(-0.0545577 0.146487 0)
(-0.0509484 0.147011 0)
(-0.0475443 0.147422 0)
(-0.0443377 0.147738 0)
(-0.0413211 0.147975 0)
(-0.0384865 0.148149 0)
(-0.0358257 0.148278 0)
(-0.0333305 0.148378 0)
(-0.0309924 0.148471 0)
(-0.0288026 0.148581 0)
(-0.0267521 0.148734 0)
(-0.0248318 0.148963 0)
(-0.0230322 0.149302 0)
(-0.0213433 0.149795 0)
(-0.0197548 0.150486 0)
(-0.0182559 0.151427 0)
(-0.0168349 0.152672 0)
(-0.0154799 0.154276 0)
(-0.0141781 0.156298 0)
(-0.0129162 0.158794 0)
(-0.0116801 0.161819 0)
(-0.0104553 0.165422 0)
(-0.00922644 0.169645 0)
(-0.0079776 0.174515 0)
(-0.00669188 0.180039 0)
(-0.00535182 0.186183 0)
(-0.00394983 0.192837 0)
(-0.00250111 0.199647 0)
(-0.00105898 0.201547 0)
(-0.105992 0.119238 0)
(-0.100192 0.122841 0)
(-0.0946075 0.126071 0)
(-0.0892344 0.128943 0)
(-0.0840752 0.131478 0)
(-0.0791315 0.1337 0)
(-0.0744043 0.135638 0)
(-0.0698932 0.13732 0)
(-0.0655963 0.138772 0)
(-0.0615105 0.140021 0)
(-0.0576319 0.14109 0)
(-0.0539555 0.142 0)
(-0.0504759 0.142772 0)
(-0.047187 0.143422 0)
(-0.0440824 0.143969 0)
(-0.0411556 0.144427 0)
(-0.0383994 0.144813 0)
(-0.0358065 0.145144 0)
(-0.0333696 0.145437 0)
(-0.0310808 0.145713 0)
(-0.0289321 0.145995 0)
(-0.0269153 0.146309 0)
(-0.0250217 0.146688 0)
(-0.0232425 0.147166 0)
(-0.0215682 0.147785 0)
(-0.019989 0.14859 0)
(-0.0184943 0.149631 0)
(-0.0170732 0.150961 0)
(-0.015714 0.152636 0)
(-0.0144043 0.154713 0)
(-0.0131311 0.157248 0)
(-0.0118808 0.160293 0)
(-0.010639 0.163899 0)
(-0.00939083 0.168106 0)
(-0.00812051 0.17294 0)
(-0.00681137 0.178408 0)
(-0.00544613 0.184475 0)
(-0.00401748 0.191033 0)
(-0.0025396 0.197725 0)
(-0.00107338 0.199496 0)
(-0.102248 0.112185 0)
(-0.0968233 0.116015 0)
(-0.0915875 0.119483 0)
(-0.086536 0.1226 0)
(-0.0816732 0.125384 0)
(-0.0770021 0.12786 0)
(-0.0725251 0.130053 0)
(-0.0682431 0.131988 0)
(-0.0641553 0.133692 0)
(-0.0602601 0.135189 0)
(-0.0565545 0.136502 0)
(-0.0530347 0.13765 0)
(-0.0496965 0.138653 0)