/*--------------------------------*- C++ -*----------------------------------*\
  =========                 |
  \\      /  F ield         | OpenFOAM: The Open Source CFD Toolbox
   \\    /   O peration     | Website:  https://openfoam.org
    \\  /    A nd           | Version:  7
     \\/     M anipulation  |
\*---------------------------------------------------------------------------*/
FoamFile
{
    version     2.0;
    format      ascii;
    class       scalarField;
    location    "0.00072/lagrangian/dsmc";
    object      Ei;
}
// * * * * * * * * * * * * * * * * * * * * * * * * * * * * * * * * * * * * * //


9184
(
2.98834e-21
1.85512e-21
1.80529e-21
7.16105e-21
8.4166e-21
3.85659e-21
1.60081e-21
8.94785e-23
3.6087e-21
2.36714e-21
8.76915e-22
4.2595e-22
3.00212e-21
6.76854e-21
4.30876e-21
1.08301e-20
6.95053e-22
1.66604e-22
7.03567e-21
1.18759e-21
5.37679e-22
1.00095e-21
7.36078e-21
4.22277e-22
4.04575e-22
3.35169e-22
6.88769e-22
8.96674e-21
6.04009e-22
4.96317e-21
1.05397e-20
6.1329e-21
6.72519e-22
5.94474e-21
4.24187e-21
1.54262e-21
2.12574e-21
5.14836e-22
4.10091e-21
1.92212e-20
5.28521e-21
1.9935e-21
1.02072e-21
4.63451e-22
4.44967e-22
2.58544e-21
9.80548e-21
5.72818e-22
1.19302e-20
8.96127e-21
1.00317e-21
2.877e-21
1.6588e-21
5.44552e-22
2.16585e-21
1.14434e-21
6.9908e-21
4.67234e-21
5.50875e-22
3.3555e-21
1.75797e-21
4.06388e-21
7.67492e-21
1.37181e-20
4.99687e-21
2.33919e-21
9.82901e-21
2.8747e-21
1.32734e-20
1.05386e-21
2.91902e-21
2.28401e-21
1.15635e-21
1.43849e-21
2.20176e-21
8.13864e-21
4.00176e-21
1.5637e-21
3.42784e-21
7.6967e-22
2.66972e-21
1.03585e-21
3.12661e-21
1.00398e-20
1.60008e-20
2.45693e-21
1.1725e-22
1.16222e-20
1.76808e-21
2.17e-21
1.82595e-20
1.55424e-21
1.29009e-21
5.67092e-22
8.06137e-22
2.23123e-20
2.18664e-21
3.28988e-21
3.66822e-21
3.71861e-21
1.15922e-21
8.67009e-22
1.11832e-20
3.7813e-21
8.82806e-24
6.84223e-21
1.46618e-20
1.88152e-21
8.0008e-21
4.98463e-22
4.34091e-21
7.55847e-21
3.47461e-21
8.71121e-22
5.9927e-21
1.0617e-20
1.09182e-20
2.49335e-22
1.06325e-20
1.12012e-21
8.46238e-21
6.46369e-23
9.14114e-21
2.00521e-21
9.66521e-22
1.06058e-22
2.37901e-21
3.19852e-21
4.99498e-21
8.79158e-22
2.04996e-21
7.96613e-21
4.58889e-21
1.47647e-21
3.33317e-21
3.04659e-21
1.184e-21
9.72372e-21
1.82347e-21
2.59015e-20
2.28588e-21
1.22099e-20
6.59318e-22
1.92455e-21
1.30848e-22
2.18338e-22
2.36435e-21
3.81806e-22
3.8503e-21
7.49019e-22
7.32735e-21
2.67621e-21
1.7918e-21
4.22526e-22
4.91804e-21
8.50891e-21
7.00374e-21
2.12792e-21
1.24946e-21
1.10136e-21
5.04025e-21
9.07529e-21
2.96132e-21
6.76689e-22
7.07898e-21
9.85077e-22
1.10283e-21
1.54345e-21
7.20756e-22
6.58627e-22
7.70522e-22
6.04153e-21
2.85527e-23
9.38817e-22
3.38119e-20
5.74063e-21
5.62829e-23
5.8386e-21
1.51195e-21
2.33206e-21
1.34578e-20
2.97194e-23
1.05206e-20
2.34204e-21
1.34265e-21
1.15897e-20
4.85816e-21
3.65923e-21
4.09376e-21
2.00275e-22
1.4897e-21
2.98719e-23
2.74476e-21
3.99448e-21
1.31554e-21
3.3678e-21
2.2221e-21
4.31347e-21
4.04798e-22
1.49944e-20
2.73233e-22
9.06287e-22
3.75998e-22
1.07394e-21
5.84741e-21
7.25141e-21
1.42268e-20
2.59491e-21
8.53095e-21
7.74897e-21
5.39615e-22
3.26383e-21
2.29671e-23
1.82473e-21
5.39997e-21
7.35096e-21
1.36741e-23
2.06141e-20
1.69852e-21
8.39223e-21
1.52781e-21
2.73962e-21
1.74477e-21
2.68893e-21
7.61763e-22
1.78375e-21
2.61938e-21
3.51434e-21
3.07947e-21
1.24654e-21
4.8807e-23
9.40415e-22
1.98498e-20
3.27703e-21
1.34148e-20
7.25994e-21
4.4713e-21
4.91355e-21
4.6867e-21
9.46909e-22
5.28346e-22
2.59905e-21
4.76973e-21
1.00953e-21
1.66423e-21
3.01173e-21
5.64914e-21
2.47497e-21
6.45268e-22
1.90898e-20
2.27334e-21
5.79582e-22
2.90546e-22
5.37056e-21
2.64733e-21
2.04661e-21
1.49753e-21
1.00926e-20
1.58667e-21
2.51563e-21
2.40415e-21
2.78289e-22
6.93455e-21
2.47955e-22
4.41019e-21
6.49674e-21
6.49642e-22
9.99139e-22
4.19052e-21
1.8514e-21
4.72531e-21
6.63178e-22
1.18775e-20
5.66179e-21
1.09266e-21
2.19483e-21
1.35734e-21
7.16044e-21
6.29033e-21
3.55299e-21
5.05814e-22
2.74755e-21
9.47278e-21
3.68088e-21
2.89818e-21
2.67174e-21
5.17369e-22
1.67467e-21
2.24955e-22
1.61682e-21
1.86083e-21
1.04043e-20
4.83582e-21
3.32616e-22
8.71096e-21
3.57497e-21
2.67114e-21
1.08821e-20
1.01124e-21
1.71428e-20
7.0309e-21
1.62095e-21
3.96314e-21
6.68813e-21
1.4544e-21
3.11338e-21
2.78098e-21
3.38199e-21
4.73199e-21
9.82835e-21
2.1568e-21
7.83936e-21
5.43777e-22
2.23818e-21
6.94836e-21
2.5502e-21
1.07555e-20
3.42541e-21
4.2249e-21
9.3265e-21
4.43497e-21
1.91105e-21
4.2969e-21
1.53023e-21
4.10922e-21
4.21878e-21
1.87601e-21
4.69095e-22
2.24107e-21
1.11754e-21
6.59551e-21
7.00201e-21
3.1256e-21
3.719e-21
3.93918e-22
5.73567e-21
3.75009e-21
1.88668e-21
6.6617e-21
9.44033e-22
5.52393e-21
8.6784e-21
4.50265e-21
3.59574e-21
5.96165e-21
1.38603e-21
3.58111e-21
8.65728e-21
7.1448e-21
5.12704e-21
3.14505e-21
1.36949e-21
2.32363e-22
5.08212e-21
4.12265e-21
2.70049e-21
3.36836e-21
7.22325e-21
3.51352e-21
8.97644e-21
3.22241e-21
1.70166e-23
8.65417e-22
6.51472e-21
4.8625e-21
2.29466e-21
2.04489e-21
2.18736e-21
6.77517e-21
2.81152e-20
7.91628e-21
3.75646e-21
2.70482e-21
2.6246e-21
9.22401e-22
1.45636e-20
3.95848e-21
3.0763e-21
5.63752e-21
1.96513e-21
1.17254e-22
7.11184e-21
6.62614e-21
2.73044e-21
1.51629e-21
1.60619e-22
1.49323e-21
6.89394e-21
7.5924e-22
2.77226e-22
3.42445e-23
2.01418e-21
4.31019e-21
5.093e-22
1.18246e-20
6.61078e-21
2.08205e-21
5.90487e-22
7.79392e-22
3.83883e-21
1.56625e-22
9.03889e-21
5.48211e-22
1.21088e-21
1.6943e-21
1.40981e-20
8.39886e-22
6.32339e-22
9.42932e-21
5.50396e-21
6.86957e-22
1.02222e-20
8.32348e-21
3.90219e-21
2.22215e-22
1.90147e-21
2.68447e-21
7.80002e-22
2.29648e-21
8.94094e-21
6.11488e-21
7.73131e-22
1.65954e-23
9.05579e-21
3.49903e-21
4.79754e-21
5.42068e-21
6.2925e-21
3.27199e-21
3.57234e-21
3.74684e-21
1.71018e-21
6.77579e-22
9.86109e-22
2.07125e-21
6.51528e-21
7.49079e-21
1.7616e-22
1.04542e-20
4.90725e-22
6.36014e-21
1.94612e-21
1.42956e-21
4.31537e-21
1.50086e-21
8.36049e-21
1.7612e-21
1.06615e-20
4.16121e-21
5.45337e-22
4.71534e-22
2.57601e-23
5.15792e-21
1.45719e-20
1.15257e-21
1.5787e-20
2.18154e-22
1.65001e-21
4.94556e-23
9.88569e-21
1.15628e-22
3.48308e-21
6.90758e-21
1.60574e-21
1.40205e-21
2.0604e-21
4.49793e-21
2.20246e-21
8.14028e-21
3.72734e-22
1.5039e-21
2.69059e-22
4.15392e-21
2.5725e-21
6.35278e-21
2.932e-21
1.31423e-21
4.9524e-21
5.48761e-21
5.89558e-21
3.95397e-21
1.55523e-21
3.10565e-21
8.78797e-21
2.18905e-21
3.02532e-22
9.98479e-22
1.33661e-23
2.6538e-21
3.84568e-21
2.89168e-23
5.47299e-21
9.76741e-22
3.44678e-21
4.16038e-21
1.33178e-20
4.6245e-21
1.27149e-20
1.27222e-20
3.10232e-21
9.88575e-21
1.03503e-20
4.27665e-21
4.17399e-21
1.75432e-21
1.05388e-20
1.21194e-21
3.00608e-21
3.2043e-21
1.4275e-22
2.48112e-21
3.76325e-21
5.03303e-21
6.44586e-21
5.23763e-21
2.15967e-21
1.90051e-21
2.58206e-21
4.07231e-21
1.04374e-22
4.9171e-21
4.01166e-21
4.61998e-22
3.44095e-21
1.16414e-20
4.69485e-22
4.16601e-21
3.2952e-21
3.56023e-21
3.58269e-21
4.78935e-22
1.95229e-21
2.773e-21
3.70018e-21
7.8151e-22
1.36849e-21
3.49571e-21
1.65189e-20
5.56637e-21
1.78519e-21
5.30793e-21
3.63373e-21
2.52389e-21
9.41184e-21
2.26745e-21
5.27409e-21
2.44639e-20
7.31894e-21
1.76376e-21
2.26302e-21
6.39643e-21
2.10598e-20
1.22553e-20
1.0946e-20
5.33501e-21
1.49696e-21
4.02393e-21
7.99909e-22
1.49395e-21
3.73428e-21
1.05801e-21
4.71465e-21
4.68853e-21
7.77438e-22
6.77815e-22
2.82377e-21
1.50938e-21
9.22042e-21
3.73407e-21
5.0752e-22
8.2801e-21
2.54157e-21
4.0408e-21
2.43346e-21
1.64161e-22
3.94098e-21
2.03645e-21
3.00423e-21
2.58884e-21
1.63515e-21
3.89814e-22
7.41899e-21
6.78621e-21
2.64631e-21
2.15948e-20
6.49268e-21
3.49037e-21
3.29063e-21
3.46603e-21
5.64795e-21
9.29551e-21
2.03661e-20
5.57948e-21
1.7249e-21
1.38628e-21
3.58238e-21
2.1433e-21
6.59977e-21
8.48114e-21
5.23848e-22
1.07996e-20
7.33316e-21
3.25919e-21
2.77075e-21
1.24001e-21
2.71463e-22
1.38066e-22
7.76744e-21
2.24217e-21
5.32509e-21
1.2412e-20
5.76631e-21
1.32624e-21
4.20367e-21
2.8701e-21
5.70836e-22
1.49519e-21
2.12719e-21
4.94483e-21
1.38432e-21
6.27284e-21
7.73493e-21
2.15058e-22
1.09828e-21
6.07491e-21
9.00903e-22
1.77633e-22
1.30414e-20
3.58453e-21
1.01909e-20
2.07088e-21
8.44114e-21
4.81158e-21
1.57916e-20
1.65939e-21
1.0947e-21
3.25963e-21
1.55337e-21
1.55565e-21
3.23756e-21
2.77926e-22
6.16509e-22
1.48983e-20
5.34931e-21
2.04815e-21
1.94229e-21
7.34052e-22
7.78772e-21
2.41481e-21
5.85737e-21
1.36182e-20
3.74579e-21
3.25473e-21
8.52547e-21
7.58694e-22
1.62215e-21
6.43471e-22
1.24125e-21
8.36924e-21
5.15351e-21
7.30335e-22
1.95515e-21
1.96325e-21
5.84679e-21
3.63422e-22
5.7516e-22
3.69228e-21
8.4424e-21
3.56567e-21
2.38872e-20
4.22895e-21
2.85723e-21
9.54662e-23
5.57895e-22
9.66172e-22
1.6288e-21
8.21539e-21
5.69826e-21
8.41899e-21
3.63325e-21
1.92582e-21
6.24823e-22
3.6492e-22
2.73981e-21
2.32106e-21
7.17649e-21
3.75703e-21
3.79686e-21
1.58617e-21
9.95128e-21
2.00094e-22
1.34032e-21
1.58446e-20
4.76149e-22
4.56277e-21
3.76919e-21
4.0364e-22
3.60435e-21
8.32375e-21
5.71897e-21
4.12036e-21
2.72863e-21
6.17485e-22
1.16694e-20
1.01935e-21
4.04967e-21
2.02136e-21
2.79856e-21
1.16772e-20
9.21287e-21
6.58439e-21
4.06046e-22
2.72223e-21
4.76293e-21
4.13375e-21
3.32459e-21
5.92953e-22
2.46269e-21
5.99226e-22
8.82256e-21
2.97606e-21
3.8035e-22
1.06653e-22
1.70079e-20
2.52725e-21
1.77384e-21
4.73373e-21
1.32844e-22
7.51133e-21
4.02384e-21
3.2616e-21
6.55557e-21
4.83164e-21
9.73975e-22
2.64406e-21
1.22692e-20
3.56214e-21
9.19187e-21
2.55387e-21
3.25097e-21
7.43096e-21
6.29069e-22
4.813e-21
1.44474e-21
1.14903e-20
6.62756e-22
5.7553e-21
1.20379e-21
6.09411e-21
6.88321e-21
7.84872e-21
4.07796e-21
1.04056e-21
5.6068e-21
1.9572e-21
1.08437e-20
3.90235e-21
4.4315e-21
2.1294e-20
5.56254e-21
5.32264e-22
2.20564e-21
5.26575e-21
2.96685e-21
1.47112e-20
5.4152e-21
2.15392e-20
1.38972e-20
2.05731e-21
1.7888e-21
5.41591e-22
7.22382e-22
1.26347e-21
2.60017e-21
2.78267e-21
6.93744e-21
1.00568e-20
4.31694e-22
6.00899e-21
7.29733e-21
7.82114e-22
2.73015e-21
4.60882e-21
1.64157e-21
2.06237e-21
7.36458e-21
1.10761e-22
1.33977e-21
7.05053e-21
4.36833e-21
1.88251e-21
4.19679e-22
3.97431e-21
3.06011e-21
5.5877e-21
6.84102e-21
7.69523e-21
6.8572e-21
9.77935e-22
3.76769e-21
9.48027e-21
4.44633e-21
1.41428e-21
2.71433e-21
7.14851e-21
6.81084e-21
3.88372e-21
2.02618e-21
2.01755e-21
2.17263e-21
2.33993e-21
6.10602e-21
6.25592e-21
5.82676e-21
4.02484e-21
1.08849e-20
6.63687e-21
3.59916e-21
5.45802e-21
5.06008e-21
1.27468e-21
6.56839e-21
1.25413e-21
5.74706e-22
1.14868e-21
1.22314e-21
3.76661e-21
5.59323e-23
1.07527e-21
1.38194e-21
2.95166e-21
4.01602e-21
8.01451e-22
1.26304e-21
4.52941e-21
2.47547e-21
1.06823e-20
1.11234e-20
2.74305e-21
4.28736e-21
1.11981e-21
1.06091e-21
1.52911e-20
2.0854e-20
7.19102e-22
1.51581e-20
3.00892e-21
1.31631e-21
1.73828e-21
7.02991e-21
5.75766e-21
2.1712e-20
2.09846e-21
2.10485e-21
7.60111e-24
9.31031e-21
2.88432e-21
2.20651e-21
8.03764e-21
1.88592e-21
6.31475e-21
2.96088e-21
2.44089e-21
5.9735e-21
2.93253e-21
3.26848e-22
8.32247e-21
1.69381e-21
1.37615e-21
4.62467e-21
2.20219e-21
9.3355e-21
2.57802e-21
1.16359e-21
3.63439e-22
3.79892e-21
2.18997e-20
1.4301e-21
2.94204e-21
9.7936e-21
1.03621e-21
2.1842e-21
4.5539e-21
6.15893e-21
6.83974e-22
4.64782e-21
1.22577e-20
6.36266e-21
4.29951e-22
1.68901e-21
7.02046e-21
8.56508e-22
5.38224e-21
3.76908e-21
8.96323e-22
2.58128e-21
1.5404e-21
2.70391e-21
9.69015e-21
1.75573e-21
4.49113e-21
1.00888e-21
4.20384e-21
2.17658e-21
1.37342e-21
2.04801e-21
6.46441e-22
5.66565e-21
5.68189e-21
6.10421e-21
4.45281e-21
2.21138e-21
5.77928e-23
1.21501e-21
2.17469e-21
5.85172e-21
9.21681e-22
2.27364e-20
5.05429e-21
3.64226e-21
5.53834e-21
8.5766e-21
1.35765e-20
2.28115e-21
4.60665e-21
1.41063e-21
1.95983e-21
7.65488e-21
5.21541e-22
2.83351e-21
1.90941e-22
7.11495e-21
9.33217e-22
2.58826e-22
5.44612e-21
3.7641e-21
3.17357e-21
4.7039e-21
4.24066e-21
4.1016e-21
5.20037e-21
5.47433e-21
7.56796e-21
5.073e-21
2.97514e-21
3.80052e-21
8.61722e-21
6.50149e-22
1.41338e-21
6.46944e-21
4.90134e-21
1.76326e-21
1.11426e-20
5.8216e-22
1.01316e-20
6.01728e-21
7.3068e-21
2.94089e-21
3.09242e-22
1.8487e-21
3.44471e-22
6.90585e-21
4.14803e-21
4.29555e-21
1.03216e-21
5.36761e-21
7.1038e-21
6.76929e-23
1.08509e-20
6.86211e-22
1.70372e-21
4.36728e-21
1.0366e-21
4.70154e-21
8.98106e-21
1.704e-21
8.12526e-21
1.60427e-21
2.36413e-21
1.66516e-21
1.33733e-22
7.49827e-21
5.22768e-21
7.47864e-23
6.57387e-21
2.058e-21
1.82921e-20
3.7987e-21
1.5914e-21
1.73691e-21
1.40857e-21
2.41216e-21
3.49878e-23
5.10122e-22
5.02915e-21
7.98509e-22
2.0932e-21
2.28853e-20
2.19721e-21
2.3233e-21
8.20604e-21
2.14794e-21
1.73851e-21
2.52978e-21
3.09715e-21
7.92197e-22
8.3356e-21
1.72986e-20
4.40262e-21
3.87238e-22
1.90166e-21
7.38264e-21
3.93965e-21
8.25004e-22
2.13228e-21
2.62162e-21
6.53408e-21
3.06789e-21
1.60823e-20
1.8253e-21
1.96366e-21
4.89925e-22
4.63752e-21
3.31906e-21
8.9906e-24
1.0441e-21
1.17284e-20
3.7426e-21
7.64211e-21
3.09514e-21
1.40979e-21
7.72864e-21
3.64091e-21
2.19059e-21
4.12512e-21
6.9684e-21
9.72101e-21
2.35825e-21
6.55176e-21
5.03768e-21
3.11534e-21
1.38053e-21
3.52253e-22
4.86032e-22
9.38875e-23
3.84166e-21
5.2755e-21
7.08678e-21
2.35677e-20
2.17995e-21
2.20827e-22
1.05917e-22
6.64896e-21
8.75625e-21
1.5387e-21
3.33536e-21
4.43241e-21
3.20809e-21
9.15708e-21
1.93146e-21
2.53537e-21
5.26933e-21
5.5419e-21
4.42488e-22
2.78464e-21
6.08795e-22
5.72043e-21
4.93357e-21
4.6087e-21
1.24221e-20
2.3589e-21
5.47818e-21
5.54129e-22
1.20423e-21
4.61049e-22
6.57764e-21
3.5493e-21
2.47811e-20
2.63681e-21
4.77491e-21
2.55967e-23
1.2503e-21
4.52858e-21
7.40198e-21
1.39835e-21
6.99247e-21
6.68963e-22
5.19318e-21
7.30863e-21
4.32572e-22
1.26431e-21
1.11381e-20
5.6603e-21
1.18023e-21
2.14102e-22
4.57586e-21
1.63219e-21
3.40496e-22
2.2306e-21
6.57198e-21
6.09464e-23
5.77118e-21
1.37173e-21
8.35249e-21
1.59978e-21
1.25281e-22
2.46755e-21
6.16529e-21
1.37731e-20
3.80696e-21
1.90981e-21
2.45691e-21
2.05875e-21
2.61068e-21
1.45939e-22
6.6696e-22
1.58674e-21
1.83216e-20
4.77213e-21
3.70666e-21
8.0568e-21
8.71955e-21
1.57043e-21
1.58178e-20
5.45945e-21
5.42473e-22
4.57288e-21
1.78312e-21
7.34717e-21
2.7896e-21
1.15509e-22
7.83521e-22
4.62803e-21
2.5083e-22
4.29487e-21
5.7511e-21
1.06757e-21
2.02862e-20
1.14029e-21
9.2428e-22
8.22253e-22
1.44685e-20
7.43606e-21
2.38546e-21
5.32402e-21
7.00195e-21
6.91937e-21
1.13628e-21
6.09833e-22
4.5048e-21
8.74739e-21
3.93197e-21
3.86941e-21
3.36717e-21
5.51885e-21
2.01159e-21
3.53708e-22
2.02225e-22
3.69272e-21
1.75106e-23
6.39009e-21
4.69015e-21
6.35158e-21
5.7897e-22
1.20798e-21
1.17456e-20
2.03994e-20
3.78589e-22
9.21107e-21
1.27024e-21
1.00364e-21
5.23734e-21
8.58056e-22
3.82294e-21
1.95882e-21
6.41211e-21
4.07063e-21
1.69713e-20
8.5852e-21
7.60193e-22
2.42193e-21
5.78084e-21
1.51372e-22
6.10767e-22
3.56733e-21
9.19545e-22
4.52413e-22
1.00086e-20
4.09946e-21
1.21889e-20
7.52344e-22
8.37387e-21
5.49137e-22
2.10937e-21
1.96263e-21
7.69318e-22
2.27154e-21
1.1252e-20
8.51843e-21
6.66156e-22
7.53894e-21
5.82239e-22
2.28848e-21
1.13664e-20
8.92283e-22
5.089e-21
1.37184e-21
4.21679e-21
1.49669e-20
3.52065e-21
2.48349e-21
9.00772e-21
3.81602e-21
1.67586e-21
1.68991e-21
3.46853e-21
6.67984e-22
6.78343e-21
2.54033e-21
3.71386e-22
1.28159e-21
7.10133e-21
2.94664e-21
5.9411e-21
6.91756e-22
5.89698e-21
2.89774e-22
9.2003e-22
1.57625e-20
2.1939e-21
8.62844e-22
4.34842e-22
8.13284e-21
2.98441e-21
3.58017e-21
2.48393e-21
5.15891e-21
4.94412e-21
4.40935e-21
3.61555e-21
3.68872e-21
1.60905e-21
4.61422e-21
9.70577e-21
4.453e-21
1.06378e-21
1.11943e-20
2.59493e-21
6.87184e-23
5.94905e-21
4.15412e-21
1.26634e-20
3.23863e-21
1.80225e-22
2.30653e-20
3.12248e-21
4.72283e-21
5.22943e-21
4.52881e-21
2.19093e-21
3.8983e-21
3.8513e-21
3.17205e-21
1.60054e-20
5.85703e-21
5.97e-21
5.83424e-21
8.17443e-21
6.03525e-21
5.39277e-21
3.12142e-21
2.59079e-21
5.24038e-21
1.59304e-21
1.06164e-21
7.9353e-22
4.43429e-21
8.92957e-22
1.01721e-20
4.2326e-21
3.48757e-21
1.41249e-21
2.72539e-21
7.51922e-21
2.75716e-22
3.06401e-21
5.1873e-21
8.53964e-21
4.18076e-21
1.32204e-20
9.03796e-22
4.96876e-21
5.95621e-22
5.37799e-22
2.87072e-21
3.38746e-21
3.17786e-21
6.37935e-22
6.85034e-22
2.85028e-22
2.89825e-22
1.06919e-21
2.66921e-22
2.85981e-21
7.98827e-22
5.33692e-21
2.85231e-21
1.36098e-21
6.59632e-22
2.44136e-21
5.88614e-22
1.4755e-21
2.97244e-21
4.71315e-21
9.26368e-21
3.49071e-21
4.41101e-21
7.26222e-22
1.92597e-22
3.36103e-23
1.13811e-20
8.486e-21
4.50906e-22
1.14947e-20
2.14386e-21
2.52046e-21
1.16098e-20
1.02706e-21
2.6127e-21
1.90227e-20
3.16744e-22
5.34252e-21
2.31387e-22
1.01297e-20
4.48454e-21
7.16512e-22
3.2882e-21
1.45177e-21
1.18261e-21
9.15396e-22
2.42697e-21
1.43159e-20
5.33162e-21
1.05838e-21
1.08078e-21
1.01669e-22
4.08126e-21
3.84554e-21
3.53916e-21
6.73712e-22
5.73172e-21
1.27666e-21
3.87191e-22
5.85259e-22
1.83872e-21
9.41371e-21
2.76337e-21
1.54868e-20
5.85078e-21
5.06203e-21
4.78594e-21
1.04007e-20
3.01458e-21
4.45907e-21
2.66656e-21
3.65756e-21
1.0467e-21
2.43748e-21
5.37873e-22
8.54201e-22
1.65141e-20
1.04962e-20
3.55068e-21
2.802e-22
2.12575e-21
1.46787e-21
4.72121e-21
6.22168e-22
5.46228e-21
6.89264e-21
1.97984e-21
7.7578e-21
1.09151e-20
1.8498e-21
6.83143e-22
5.08102e-22
4.5083e-22
2.0478e-21
2.73151e-21
8.51e-21
6.15957e-21
2.13517e-21
6.96999e-21
7.51289e-21
1.23385e-20
9.13644e-22
1.76828e-22
6.093e-21
6.93957e-21
7.00396e-22
8.06748e-22
6.21011e-22
1.36315e-21
2.82756e-21
2.94625e-22
7.32821e-21
5.92368e-21
4.95338e-21
3.17427e-21
8.95632e-22
1.70586e-22
5.60268e-21
1.66839e-21
3.83277e-21
5.01962e-21
2.21087e-21
6.88619e-21
2.32058e-21
3.73504e-22
3.98006e-21
1.26084e-21
7.57812e-21
5.09777e-21
1.74502e-21
5.53521e-21
4.70443e-22
6.97081e-22
4.97077e-21
9.6299e-23
4.37575e-21
9.01466e-21
2.5948e-21
4.60814e-21
1.08254e-21
2.94257e-21
1.70383e-22
5.53657e-21
1.19048e-20
5.52487e-21
1.59352e-20
2.77642e-21
1.20142e-20
1.09444e-20
1.59111e-21
7.58554e-21
9.03629e-21
2.92291e-22
2.15657e-21
2.82693e-22
4.81239e-22
8.02613e-22
6.51345e-21
1.59586e-21
1.54176e-21
4.45119e-22
7.26847e-21
2.95788e-21
9.64983e-21
1.65143e-20
1.40134e-21
9.96311e-21
2.24939e-22
6.2949e-21
3.14816e-21
2.09953e-21
2.11474e-21
2.15512e-21
9.25978e-21
5.80002e-21
2.54012e-21
4.04656e-21
9.48752e-22
1.08751e-21
1.10086e-22
1.148e-20
4.09715e-22
4.5383e-21
9.22612e-22
1.60788e-20
2.62518e-21
4.21754e-21
3.5503e-21
1.62658e-21
2.53903e-21
1.22858e-21
1.34779e-21
3.21562e-21
3.2678e-21
4.40547e-21
2.35311e-22
9.93725e-21
1.74502e-21
6.62432e-21
1.10696e-21
5.35258e-21
7.66222e-22
1.23723e-21
3.96349e-22
6.70743e-21
3.42009e-21
9.56088e-21
1.34456e-21
7.61488e-21
9.28225e-21
1.34777e-20
1.00364e-20
4.08879e-21
7.22464e-22
1.6835e-20
9.90556e-22
6.44291e-21
1.46675e-21
1.80823e-21
8.76408e-22
1.52148e-20
2.17681e-21
1.22842e-21
9.46309e-21
1.52275e-21
2.43112e-21
8.66024e-22
2.5153e-21
3.63053e-21
2.97048e-21
5.51509e-21
4.32409e-21
2.45696e-21
1.01845e-21
3.94118e-21
1.48501e-21
7.67584e-21
4.1965e-21
4.58558e-21
8.81489e-21
4.20477e-21
2.75995e-21
7.76232e-22
2.30112e-21
3.76758e-21
4.36635e-21
2.37626e-21
2.59206e-21
4.64587e-21
4.31903e-22
2.64937e-21
3.42414e-21
5.7852e-23
1.03653e-21
6.56874e-21
1.36319e-20
3.16885e-21
4.86114e-21
6.28739e-23
5.82572e-21
2.92403e-21
2.4158e-21
3.98592e-21
1.2682e-21
8.5067e-21
1.67489e-21
2.56007e-21
2.25749e-21
3.35332e-21
1.17583e-20
1.30759e-21
3.0467e-21
4.30769e-21
6.84825e-21
2.24657e-21
1.69322e-21
8.59015e-23
3.90723e-21
5.86462e-21
3.2971e-21
4.76663e-22
1.21688e-23
2.76969e-21
5.25506e-21
8.26437e-21
9.32142e-21
5.6276e-21
1.79786e-21
4.11217e-21
3.91292e-21
1.23642e-21
4.23087e-21
1.73788e-20
3.78955e-22
7.60198e-21
1.02126e-21
3.70218e-21
4.56961e-23
1.85419e-21
3.94532e-21
2.63719e-21
3.55096e-21
1.85844e-21
4.74499e-22
2.1304e-21
2.55511e-21
2.45807e-20
5.17248e-21
7.30161e-22
4.08919e-21
2.67346e-21
5.07301e-21
3.25213e-21
5.22577e-21
2.93729e-22
1.13219e-21
4.08316e-21
4.08926e-21
1.10307e-20
1.59036e-21
4.88761e-21
2.24817e-21
2.63131e-22
1.33897e-21
1.32654e-22
9.24226e-22
1.27806e-21
1.19469e-20
7.64185e-21
1.21431e-20
5.28716e-21
9.48549e-23
1.54127e-20
6.88522e-21
6.76105e-22
9.418e-22
3.29957e-21
4.05713e-21
5.26568e-21
1.03177e-20
3.32138e-21
2.62175e-21
7.1507e-21
2.73598e-21
8.41908e-21
9.14644e-22
5.78492e-21
2.15056e-21
3.01066e-21
3.12576e-21
1.96059e-20
3.53737e-21
1.46676e-22
1.45797e-21
4.99914e-21
2.42012e-21
1.513e-21
1.68096e-21
3.17693e-21
1.43522e-20
6.45997e-21
3.20029e-21
5.93767e-22
1.376e-21
1.66415e-21
1.84497e-21
1.82053e-21
4.95078e-22
2.15412e-21
1.35453e-21
5.17695e-22
3.14148e-21
1.2033e-21
6.7235e-22
5.38066e-23
4.96893e-21
6.4936e-21
1.35127e-23
1.14431e-20
1.50451e-20
3.20579e-21
1.2611e-21
4.86824e-23
3.81989e-22
1.13843e-21
1.13432e-20
3.98952e-21
2.07928e-21
4.07102e-21
2.61262e-21
6.15485e-21
5.81217e-22
8.12396e-21
3.65342e-21
3.67667e-21
6.29364e-21
2.49449e-21
3.35311e-21
4.22228e-21
3.7475e-21
1.35975e-21
4.23212e-21
2.17956e-21
1.43788e-21
4.68765e-21
6.18513e-21
1.36434e-21
5.95861e-22
2.91473e-21
4.42676e-22
5.25113e-21
5.34426e-21
2.28362e-21
4.81377e-21
1.21152e-20
2.60266e-21
5.13809e-21
2.13929e-20
2.37704e-21
1.06086e-20
9.60532e-22
9.83528e-21
2.00276e-21
1.451e-20
1.11624e-21
2.8323e-21
3.26748e-21
1.20592e-20
6.97296e-21
9.63977e-21
1.63269e-21
5.76423e-21
1.50302e-21
7.78877e-21
2.18623e-21
4.47454e-21
5.22274e-21
9.42537e-22
1.66502e-20
2.05973e-23
8.71945e-22
1.45102e-20
2.0908e-22
7.78883e-21
2.269e-21
9.96409e-23
1.3289e-21
6.70099e-21
2.73646e-21
1.34975e-20
1.72346e-21
1.17245e-22
6.21285e-22
3.43047e-21
1.48734e-21
2.23825e-22
9.13513e-22
1.13507e-21
1.93644e-21
4.2791e-21
9.63622e-21
1.41343e-21
4.74955e-21
8.16732e-21
5.69712e-21
3.29785e-22
1.14163e-22
5.96283e-21
6.248e-21
6.41337e-22
2.16187e-21
2.42704e-21
6.5437e-21
2.19032e-21
4.29198e-22
7.81249e-21
1.88453e-21
3.57246e-21
3.465e-21
1.02486e-21
7.23057e-21
5.61584e-21
5.7862e-21
1.35308e-20
1.03277e-20
4.40119e-21
7.6302e-21
5.18153e-21
8.51651e-21
1.79849e-21
3.37278e-20
3.50857e-22
2.13556e-21
1.60737e-21
2.77712e-22
2.07456e-21
1.43978e-22
2.48053e-22
5.64591e-22
7.04458e-21
4.06163e-21
7.81185e-23
3.56482e-21
1.21513e-20
2.11705e-21
1.32481e-23
1.03085e-20
1.03323e-20
1.73628e-20
2.36876e-21
1.97432e-20
2.82497e-21
4.32238e-21
1.0442e-21
7.66985e-22
3.89045e-22
1.88051e-21
5.189e-21
8.40344e-21
5.36692e-21
1.72987e-21
1.47583e-21
1.74062e-22
1.51239e-21
7.79455e-21
1.17213e-21
5.28153e-21
2.13135e-21
1.07482e-20
6.78116e-21
3.73801e-21
1.81699e-21
7.37041e-22
6.93918e-22
1.68194e-21
7.99263e-21
3.96296e-21
1.76775e-21
8.49853e-22
5.78632e-21
9.86518e-22
6.19323e-21
1.30298e-20
8.01218e-21
1.91932e-21
1.10847e-21
2.72885e-21
4.76917e-22
6.0389e-21
5.14558e-21
1.2706e-21
5.68876e-21
6.54399e-21
5.3698e-22
1.47448e-21
3.49477e-21
7.85447e-22
1.343e-22
1.94723e-21
7.27505e-23
9.78443e-21
2.27821e-21
3.22109e-21
8.09778e-22
8.76538e-21
1.57416e-22
1.81437e-21
4.00517e-22
1.78005e-21
3.95611e-22
3.33184e-21
9.82705e-21
4.85999e-22
5.43061e-21
6.58361e-22
9.6306e-21
9.45066e-23
2.37256e-21
2.44119e-21
1.25366e-20
1.08257e-21
4.32425e-21
2.05321e-21
5.4581e-21
7.52091e-22
1.77154e-21
2.10743e-21
2.28501e-23
9.0741e-21
9.96201e-21
7.68677e-22
9.67652e-21
8.39536e-21
3.68261e-21
8.58425e-21
4.47657e-21
1.96617e-21
4.14536e-21
4.71737e-22
1.84102e-21
3.92874e-21
5.97862e-21
7.58272e-21
2.52398e-21
9.29667e-21
3.69424e-21
3.9273e-21
2.49606e-21
3.83672e-21
5.80896e-21
2.86691e-21
3.28174e-21
1.01886e-21
5.75542e-21
9.18446e-21
7.34965e-21
1.06474e-20
1.69585e-21
1.02928e-20
5.64236e-21
1.62454e-21
3.43223e-21
9.0918e-22
3.85957e-21
1.86125e-21
5.30642e-21
2.95837e-21
1.73965e-21
1.67449e-21
5.45388e-23
2.55095e-20
7.5076e-21
6.96326e-22
4.25131e-22
4.60094e-22
1.98306e-21
2.48474e-21
6.30686e-21
5.30643e-21
3.83494e-21
4.82079e-22
3.8546e-22
7.87538e-22
8.06941e-21
8.10607e-22
2.88904e-21
4.43502e-21
6.61657e-24
8.96898e-22
1.23162e-21
9.82035e-22
6.47165e-21
1.37169e-21
1.51148e-20
7.59281e-21
2.04967e-21
2.93463e-21
7.45226e-21
3.34478e-21
3.55469e-21
6.03665e-21
6.58148e-21
3.55633e-21
9.832e-22
3.78346e-22
4.49059e-21
1.51506e-21
9.75519e-21
7.89332e-21
2.43269e-21
1.35606e-20
8.41815e-21
3.20801e-22
4.12947e-21
1.30036e-20
8.24831e-21
1.37737e-20
1.83642e-21
1.25043e-21
5.37529e-22
1.36523e-20
2.30973e-21
1.07368e-21
6.76627e-21
1.19336e-20
3.07481e-21
1.83789e-20
6.46192e-21
1.96912e-21
1.7745e-21
7.52836e-21
2.37598e-21
9.1486e-22
7.41214e-21
2.60558e-22
1.37826e-22
1.47806e-21
2.50743e-21
1.18299e-20
7.70816e-21
8.53341e-24
1.05651e-20
1.47035e-21
4.5562e-21
7.828e-21
8.69601e-21
2.24994e-21
2.69724e-21
1.89786e-21
3.0241e-21
6.99152e-21
1.01759e-21
9.91521e-22
1.16478e-22
5.33974e-21
6.32157e-21
3.58301e-21
4.2449e-21
2.86983e-21
5.46231e-23
1.80344e-21
1.66513e-21
1.06315e-20
3.24974e-21
6.09295e-21
5.20483e-22
4.58698e-21
1.02967e-20
2.23698e-21
1.24198e-20
5.85727e-21
1.00654e-21
1.04837e-20
2.29038e-21
8.11682e-21
4.22512e-21
4.12258e-21
5.53535e-21
2.04371e-21
4.11873e-21
3.30755e-21
2.45532e-21
1.72867e-20
5.64403e-22
8.62011e-21
3.31059e-22
9.57187e-21
3.66036e-21
6.303e-21
2.28202e-21
7.20738e-22
7.32045e-22
4.66145e-21
9.41709e-22
9.05545e-21
2.72553e-21
3.39052e-22
3.14912e-21
2.33397e-21
4.81221e-21
6.14509e-21
7.75864e-21
3.5467e-21
2.44551e-21
1.01177e-20
4.7865e-21
6.70407e-21
4.76552e-22
2.49697e-22
3.1042e-21
4.25032e-22
6.9733e-22
3.25521e-21
9.12886e-22
3.38377e-21
7.12513e-21
1.47327e-21
1.4321e-21
1.03873e-20
1.19729e-20
1.68781e-21
1.10566e-21
3.38531e-21
8.83095e-22
1.66676e-21
8.73809e-21
9.30888e-22
9.49494e-22
4.60514e-21
8.89132e-22
6.64482e-21
9.34138e-21
3.53325e-21
7.10456e-22
1.30399e-21
6.43706e-23
2.1529e-21
6.93079e-22
5.65586e-22
1.25362e-21
6.775e-22
7.08152e-21
3.53005e-21
1.84769e-21
8.28114e-21
1.18279e-21
1.07549e-20
4.80188e-21
5.29426e-22
1.28812e-20
5.22841e-22
7.29223e-22
3.11862e-22
2.04163e-21
1.42844e-21
5.93162e-23
2.24176e-20
8.96172e-21
1.05551e-20
1.40968e-21
7.48703e-21
5.88295e-21
2.27054e-21
4.08263e-21
1.45649e-22
1.05977e-21
1.15477e-20
7.38005e-21
2.60432e-22
6.6301e-21
1.15758e-21
7.45946e-21
2.76699e-21
4.71422e-21
1.63881e-21
1.29167e-21
1.14083e-21
3.82293e-21
4.95151e-22
7.13041e-21
2.81858e-21
2.46774e-21
9.59772e-22
1.13052e-21
2.3834e-21
3.87788e-21
1.17843e-20
1.15177e-21
2.40616e-21
7.31547e-22
2.3793e-21
1.98541e-21
4.40651e-21
1.39595e-20
2.22532e-21
2.10583e-21
4.84951e-21
8.73973e-21
9.56455e-21
1.16714e-21
1.88988e-21
1.07691e-21
1.03296e-20
3.5326e-21
9.15752e-21
1.92981e-21
1.32657e-21
2.97132e-22
9.84276e-23
3.54691e-21
4.18112e-23
1.14204e-20
3.30692e-22
5.02087e-21
5.51031e-21
2.56744e-21
2.59823e-22
3.43147e-21
3.83969e-21
7.04158e-21
2.39949e-21
6.56862e-21
2.2365e-21
2.00965e-21
9.63495e-21
4.44286e-23
1.94007e-21
2.8304e-21
1.15942e-20
4.40282e-22
1.31241e-21
3.26224e-21
4.46427e-21
5.04441e-21
6.08896e-21
3.86085e-21
5.67467e-22
1.02026e-20
1.81514e-20
6.19395e-21
4.17854e-21
4.41651e-21
3.10348e-21
9.80165e-21
2.63726e-21
1.21645e-21
4.88841e-21
1.58204e-21
1.57043e-21
2.24346e-21
1.63327e-20
2.24199e-21
1.05698e-21
2.12088e-20
2.96318e-21
9.19846e-21
1.40818e-21
2.20518e-21
7.50262e-22
1.79672e-21
5.45454e-21
2.46029e-21
1.10602e-22
2.89253e-21
8.67652e-22
8.33585e-23
6.3311e-21
1.06947e-20
3.04004e-21
4.53002e-22
9.20906e-21
1.37501e-21
8.35436e-21
1.27438e-21
4.00713e-21
2.3906e-21
2.89223e-21
6.15582e-21
6.69662e-21
2.48725e-21
1.37777e-20
6.3604e-22
1.07967e-21
5.25601e-21
8.33947e-23
2.43081e-22
1.40779e-20
4.91645e-21
3.92584e-21
3.01544e-21
9.09296e-22
2.3501e-21
3.56073e-21
1.90767e-21
2.0329e-22
2.97474e-21
2.98464e-22
9.66548e-23
6.08322e-22
2.54531e-21
7.51725e-21
8.2068e-21
2.95721e-21
1.75021e-21
3.47182e-21
1.47741e-21
6.87838e-21
3.16788e-21
1.39892e-21
2.59383e-21
2.52599e-21
4.68964e-22
1.68091e-21
8.35246e-23
1.15305e-21
4.22657e-21
4.20092e-21
9.38058e-22
2.65114e-21
2.88739e-21
4.25938e-22
3.37567e-21
5.4801e-21
4.99019e-21
2.81999e-21
6.22313e-22
2.44111e-21
5.97946e-21
1.96561e-21
5.81978e-21
3.58371e-21
2.07947e-21
2.27498e-22
4.23684e-21
3.92787e-21
5.28632e-22
5.62925e-21
1.66697e-21
8.4676e-21
7.86682e-21
5.40498e-21
2.9993e-22
7.52614e-21
1.00797e-21
7.91313e-21
4.3556e-21
1.25883e-21
1.15897e-20
4.13671e-21
5.33708e-21
8.23202e-21
6.27759e-21
1.13238e-20
3.45243e-21
2.68787e-21
7.42487e-23
1.432e-20
3.1363e-21
2.37739e-22
6.41534e-21
1.07829e-21
9.59261e-22
3.10069e-21
2.38478e-21
3.96971e-21
3.9169e-21
2.62866e-24
5.12447e-21
5.52863e-21
1.14269e-21
1.26487e-23
4.16353e-21
4.17738e-21
4.38617e-21
5.33106e-22
8.8141e-22
4.86955e-21
3.79618e-21
2.68332e-21
2.65157e-21
1.17887e-20
7.48067e-21
3.18339e-21
2.30904e-21
7.72567e-21
5.5006e-22
2.04664e-23
7.13999e-21
1.68631e-21
9.7169e-22
1.25757e-21
3.32033e-21
1.77236e-20
6.46371e-21
8.21698e-21
7.2782e-21
1.47361e-21
9.032e-22
2.10077e-21
5.53066e-22
1.33597e-21
1.34708e-20
6.92939e-22
1.02551e-20
1.54097e-21
3.1402e-21
5.16491e-22
3.09408e-21
1.95804e-21
1.87987e-21
1.5705e-21
1.56463e-21
3.33264e-21
6.34763e-22
7.73323e-21
8.83429e-21
9.66108e-21
1.17863e-21
1.85143e-21
4.82094e-22
3.78617e-21
1.7013e-20
3.20878e-21
1.61634e-21
9.44912e-22
7.30547e-21
2.93008e-23
5.93761e-21
4.14647e-21
1.10237e-21
3.04795e-22
8.0843e-22
6.26421e-21
1.85167e-21
2.60098e-21
4.55525e-21
1.98712e-21
4.1096e-21
1.02479e-20
9.99596e-22
3.07288e-21
1.99067e-21
2.16351e-22
2.87274e-21
1.47932e-21
1.98496e-21
2.52242e-21
1.61281e-21
2.26093e-22
3.18951e-21
3.74938e-21
2.95481e-21
2.66548e-22
1.82688e-23
4.54892e-21
1.32403e-20
1.39428e-21
3.82969e-21
1.978e-21
5.29675e-21
1.47726e-21
3.6741e-21
7.90231e-21
2.80006e-21
2.63319e-21
3.37627e-22
1.97688e-21
1.78653e-21
2.41344e-21
3.67937e-21
8.41553e-21
5.54059e-21
2.22062e-21
4.30129e-22
1.22334e-20
1.47818e-21
2.46138e-21
6.13981e-21
1.23004e-20
5.16008e-21
4.25565e-21
8.10979e-21
1.35149e-21
6.60082e-21
2.02584e-21
2.35786e-21
1.48152e-21
3.60028e-22
1.15451e-21
7.47787e-22
1.66772e-21
3.71478e-22
2.01157e-22
4.7807e-22
7.79322e-21
8.81304e-23
3.00502e-21
2.12865e-21
2.79576e-21
4.14282e-21
2.99449e-22
2.59734e-21
3.66076e-21
1.37697e-22
1.00272e-21
8.03565e-21
3.62651e-22
6.87758e-21
1.75219e-20
5.85673e-21
6.52835e-21
6.33129e-22
2.73141e-21
5.40817e-21
6.09869e-21
3.85665e-21
1.27449e-20
1.63634e-22