/*--------------------------------*- C++ -*----------------------------------*\
  =========                 |
  \\      /  F ield         | OpenFOAM: The Open Source CFD Toolbox
   \\    /   O peration     | Website:  https://openfoam.org
    \\  /    A nd           | Version:  7
     \\/     M anipulation  |
\*---------------------------------------------------------------------------*/
FoamFile
{
    version     2.0;
    format      ascii;
    class       volScalarField;
    location    "0.00144";
    object      internalE;
}
// * * * * * * * * * * * * * * * * * * * * * * * * * * * * * * * * * * * * * //

dimensions      [1 -1 -2 0 0 0 0];

internalField   nonuniform List<scalar> 
500
(
1001.02
1187.84
1069.72
1128.9
1235.81
1121.56
1047.05
1098.97
1165.7
1028.46
1157.79
1059.34
1178.34
1177.84
998.228
1163.85
1254.25
1132.74
1179.52
1152.83
1249.88
1266.62
1074.16
1183.81
1218.16
1266.59
1056.06
1036.95
962.905
1249.13
1295.09
993.02
1043.7
1242.78
1159.65
1147.32
1017.58
1110.22
1008.48
1067.82
1042.86
1107.45
1026.42
1121.12
1246.15
1026.23
1069.33
1107.55
1164.82
1222.33
1254.18
1145.34
1069.29
1140.5
840.363
1196.99
1209.43
1222.43
1174.58
1302.49
999.296
1188.21
1142.99
1274.99
1183.65
1072.06
1234.39
942.175
986.118
1042.18
1149.13
1137.95
1137.03
1099.81
1179.32
1094.58
1087.6
1176.89
1051.07
1317.99
1277.48
1231.72
1136.02
1287.4
1003.66
1221.87
1144.99
1013.95
1049.9
1308.13
1109.65
1318.1
1200.44
1351.83
1062.31
1147.8
1096.8
1350.99
1127.42
1167.51
1124.04
1070.76
1138.81
1172.91
1029.36
1110.65
998.17
1145.57
993.759
1216.49
1016.4
1091.21
1390.3
1283.93
1175.26
1243.11
1114.66
1254.54
1005.27
1361.41
1412.01
1178.84
1099.18
1249.62
1317.02
1061.55
1017.18
1032.42
1196.43
1154.62
1138.08
1200.84
1046.25
1122.26
1350.4
995.102
1116.79
990.203
1113.99
1125.55
1077.61
1101.55
997.406
1174.47
957.654
1162.27
1188.63
1222.95
1185.31
1128.71
1209.48
1000.06
1087.97
1064.04
990.806
1038.12
1126.41
1169.78
1090.89
1206.87
1044.59
1165.88
1115.92
1090.05
1178.01
1191.23
1231.56
1079.49
1206.81
1136.6
1030.5
1038.79
1151.59
1027.55
1055.56
957.254
1298.44
1114.71
1107.77
1052.07
1047.75
1070.78
1202.92
1117.95
1073.18
966.774
994.631
1070.73
907.237
1019.74
1014.63
990.434
893.964
970.474
1066.57
845.096
1068.08
801.607
928.605
987.475
806.844
1145.33
929.378
760.639
777.513
854.335
852.98
657.256
852.735
787.18
836.832
723.449
688.818
674.564
709.874
642.209
642.239
681.588
613.567
557.039
649.536
430.057
676.891
590.272
604.275
581.514
558.835
440.655
454.032
456.498
440.251
488.461
524.567
553.389
413.882
521.247
388.045
458.273
502.492
487.026
392.501
566.456
480.381
453.335
448.852
407.935
381.144
505.898
417.727
379.828
351.842
409.985
415.042
480.429
423.069
484.619
502.228
426.961
403.434
395.149
532.492
415.258
403.082
456.814
557.009
369.806
379.971
357.842
492.395
436.068
478.454
449.3
515.94
410.555
377.679
458.46
417.181
419.211
394.177
387.375
409.582
379.517
373.622
428.705
495.313
487.951
438.125
405.529
564.693
462.977
418.266
365.316
420.839
393.366
440.772
381.489
437.268
424.424
367.524
467.949
479.107
458.507
491.793
394.2
395.195
488.613
496.869
490.156
355.673
369.408
493.557
383.652
445.312
470.866
392.318
404.982
407.943
283.431
132.214
91.2396
127.195
103.599
98.5552
135.958
85.5649
106.745
97.1591
123.888
102.648
113.695
104.775
91.7889
103.81
125.439
104.843
87.3433
128.708
136.441
118.523
115.205
116.364
119.046
146.283
76.1331
113.255
107.261
114.556
126.873
117.681
114.125
122.534
140.762
117.698
82.2562
88.8085
124.384
157.948
119.212
128.46
102.233
113.443
108.606
127.787
80.1784
109.11
79.2638
89.8838
123.839
99.9874
132.767
111.252
95.3308
139.076
113.448
98.1333
104.609
137.265
87.1095
103.461
113.764
115.002
87.8856
74.0934
106.504
84.3584
118.81
133.069
109.656
109.962
135.748
76.8923
86.8781
101.663
74.6869
106.72
112.554
124.209
103.793
129.209
98.6405
104.919
106.089
102.665
128.371
94.9827
115.593
132.754
134.43
78.834
106.347
118.095
96.7771
80.9131
122.43
136.634
100.276
108.845
100.791
124.282
131.972
89.6849
115.419
121.365
117.371
106.244
114.536
110.911
80.5755
78.0859
105.85
113.162
136.2
122.632
107.267
80.1839
84.8021
91.0529
105.558
125.97
102.031
119.058
83.4438
124.422
84.0092
134.164
132.108
110.432
102.67
103.736
124.121
153.324
109.782
107.803
90.2963
96.4725
115.763
140.894
116.364
91.6902
101.249
84.5528
97.0772
138.26
126.347
115.465
146.668
110.181
72.8777
121.648
123.68
121.473
99.2192
97.8752
99.0831
104.709
127.928
133.94
128.781
141.845
132.219
108.768
61.0454
84.7914
110.465
104.308
117.391
89.7085
109.536
130.338
109.092
121.267
78.0367
136.822
117.943
107.212
127.764
106.614
107.843
114.644
100.236
)
;

boundaryField
{
    sides
    {
        type            symmetry;
    }
    empty
    {
        type            empty;
    }
}


// ************************************************************************* //
