/*--------------------------------*- C++ -*----------------------------------*\
  =========                 |
  \\      /  F ield         | OpenFOAM: The Open Source CFD Toolbox
   \\    /   O peration     | Website:  https://openfoam.org
    \\  /    A nd           | Version:  7
     \\/     M anipulation  |
\*---------------------------------------------------------------------------*/
FoamFile
{
    version     2.0;
    format      ascii;
    class       volScalarField;
    location    "0.002";
    object      iDof;
}
// * * * * * * * * * * * * * * * * * * * * * * * * * * * * * * * * * * * * * //

dimensions      [0 -3 0 0 0 0 0];

internalField   nonuniform List<scalar> 
654
(
1.457959731e+20
1.041399808e+20
1.24967977e+20
2.291079578e+20
1.874519654e+20
2.291079578e+20
1.457959731e+20
2.915919462e+20
1.666239693e+20
2.499359539e+20
2.291079578e+20
1.666239693e+20
1.24967977e+20
1.666239693e+20
2.291079578e+20
1.666239693e+20
2.291079578e+20
2.499359539e+20
2.291079578e+20
1.666239693e+20
3.124199424e+20
1.874519654e+20
1.457959731e+20
1.457959731e+20
8.331198464e+19
1.874519654e+20
6.248398848e+19
1.041399808e+20
2.082799616e+20
1.24967977e+20
2.499359539e+20
1.24967977e+20
1.24967977e+20
1.041399808e+20
1.457959731e+20
1.24967977e+20
1.666239693e+20
1.24967977e+20
1.457959731e+20
1.457959731e+20
1.457959731e+20
1.24967977e+20
1.666239693e+20
2.707639501e+20
2.707639501e+20
2.291079578e+20
1.24967977e+20
2.499359539e+20
2.915919462e+20
1.24967977e+20
1.457959731e+20
1.874519654e+20
2.499359539e+20
2.291079578e+20
1.666239693e+20
1.041399808e+20
1.24967977e+20
1.457959731e+20
1.24967977e+20
2.317191489e-289
1.457959731e+20
2.082799616e+20
2.707639501e+20
1.24967977e+20
2.707639501e+20
1.457959731e+20
2.082799616e+20
1.041399808e+20
1.666239693e+20
2.291079578e+20
1.24967977e+20
1.457959731e+20
6.248398848e+19
1.666239693e+20
8.331198464e+19
1.457959731e+20
2.082799616e+20
1.24967977e+20
8.331198464e+19
1.457959731e+20
2.499359539e+20
1.874519654e+20
2.082799616e+20
1.666239693e+20
1.874519654e+20
1.041399808e+20
1.457959731e+20
1.041399808e+20
1.24967977e+20
1.666239693e+20
1.874519654e+20
1.457959731e+20
2.291079578e+20
1.874519654e+20
2.707639501e+20
1.666239693e+20
2.291079578e+20
2.499359539e+20
2.499359539e+20
1.041399808e+20
1.874519654e+20
1.457959731e+20
2.082799616e+20
1.666239693e+20
2.082799616e+20
1.24967977e+20
2.499359539e+20
1.874519654e+20
1.666239693e+20
1.457959731e+20
1.874519654e+20
2.082799616e+20
2.291079578e+20
2.291079578e+20
1.457959731e+20
1.457959731e+20
1.041399808e+20
2.499359539e+20
1.874519654e+20
1.24967977e+20
2.082799616e+20
3.124199424e+20
1.041399808e+20
6.248398848e+19
2.499359539e+20
1.666239693e+20
2.291079578e+20
1.666239693e+20
2.082799616e+20
1.457959731e+20
4.165599232e+19
1.874519654e+20
1.457959731e+20
8.331198464e+19
1.24967977e+20
6.248398848e+19
1.874519654e+20
1.457959731e+20
2.082799616e+20
8.331198464e+19
1.041399808e+20
1.24967977e+20
1.874519654e+20
2.499359539e+20
1.874519654e+20
2.707639501e+20
6.248398848e+19
2.082799616e+20
1.041399808e+20
1.457959731e+20
1.874519654e+20
2.082799616e+20
2.499359539e+20
1.874519654e+20
8.331198464e+19
8.331198464e+19
1.457959731e+20
1.874519654e+20
1.666239693e+20
2.499359539e+20
2.915919462e+20
2.082799616e+20
1.874519654e+20
3.95731927e+20
2.915919462e+20
2.082799616e+20
1.874519654e+20
2.291079578e+20
3.124199424e+20
2.499359539e+20
1.874519654e+20
1.457959731e+20
1.041399808e+20
1.457959731e+20
8.331198464e+19
2.082799616e+20
1.24967977e+20
2.291079578e+20
1.666239693e+20
1.24967977e+20
2.082799616e+20
8.331198464e+19
2.082799616e+20
2.915919462e+20
1.041399808e+20
2.707639501e+20
2.915919462e+20
1.874519654e+20
6.248398848e+19
2.915919462e+20
1.666239693e+20
2.291079578e+20
1.24967977e+20
2.707639501e+20
1.666239693e+20
1.666239693e+20
1.24967977e+20
2.082799616e+20
2.082799616e+20
1.041399808e+20
1.874519654e+20
1.874519654e+20
2.499359539e+20
2.082799616e+20
2.082799616e+20
1.24967977e+20
1.874519654e+20
1.041399808e+20
1.24967977e+20
2.291079578e+20
3.332479385e+20
1.666239693e+20
2.499359539e+20
8.331198464e+19
6.248398848e+19
1.874519654e+20
1.041399808e+20
1.666239693e+20
1.041399808e+20
1.874519654e+20
2.915919462e+20
2.291079578e+20
1.666239693e+20
1.874519654e+20
1.666239693e+20
1.24967977e+20
2.707639501e+20
2.291079578e+20
1.666239693e+20
2.082799616e+20
2.499359539e+20
1.666239693e+20
1.041399808e+20
4.165599232e+19
1.457959731e+20
1.666239693e+20
1.666239693e+20
1.24967977e+20
4.165599232e+19
2.082799616e+20
1.874519654e+20
1.666239693e+20
2.291079578e+20
2.082799616e+20
1.874519654e+20
8.331198464e+19
1.24967977e+20
2.082799616e+20
1.874519654e+20
2.291079578e+20
1.24967977e+20
2.291079578e+20
2.082799616e+20
2.082799616e+20
1.457959731e+20
2.707639501e+20
2.291079578e+20
1.041399808e+20
8.331198464e+19
1.666239693e+20
1.457959731e+20
1.041399808e+20
1.874519654e+20
1.24967977e+20
2.082799616e+20
2.707639501e+20
1.457959731e+20
2.082799616e+20
8.331198464e+19
6.248398848e+19
1.874519654e+20
2.291079578e+20
1.457959731e+20
1.874519654e+20
2.499359539e+20
1.666239693e+20
1.666239693e+20
1.24967977e+20
1.874519654e+20
1.666239693e+20
3.540759347e+20
2.291079578e+20
1.874519654e+20
1.457959731e+20
2.082799616e+20
1.24967977e+20
3.124199424e+20
1.24967977e+20
1.666239693e+20
2.915919462e+20
1.666239693e+20
2.082799616e+20
1.666239693e+20
1.041399808e+20
2.291079578e+20
2.082799616e+20
1.457959731e+20
1.24967977e+20
1.457959731e+20
1.041399808e+20
1.041399808e+20
2.082799616e+20
1.666239693e+20
1.24967977e+20
2.291079578e+20
2.291079578e+20
1.666239693e+20
2.291079578e+20
2.291079578e+20
1.041399808e+20
1.666239693e+20
2.291079578e+20
1.666239693e+20
6.248398848e+19
1.041399808e+20
1.874519654e+20
1.457959731e+20
1.457959731e+20
2.707639501e+20
1.666239693e+20
1.457959731e+20
1.041399808e+20
2.499359539e+20
1.041399808e+20
6.248398848e+19
2.707639501e+20
1.457959731e+20
8.331198464e+19
1.24967977e+20
1.666239693e+20
1.457959731e+20
1.24967977e+20
1.24967977e+20
2.082799616e+20
1.041399808e+20
1.666239693e+20
1.457959731e+20
1.666239693e+20
1.457959731e+20
8.331198464e+19
1.874519654e+20
1.874519654e+20
8.331198464e+19
1.666239693e+20
2.082799616e+20
3.332479385e+20
1.24967977e+20
2.291079578e+20
1.874519654e+20
2.291079578e+20
1.874519654e+20
8.331198464e+19
1.041399808e+20
2.291079578e+20
2.499359539e+20
2.499359539e+20
1.666239693e+20
2.082799616e+20
1.457959731e+20
1.457959731e+20
2.082799616e+20
1.666239693e+20
1.457959731e+20
2.915919462e+20
1.666239693e+20
1.666239693e+20
1.874519654e+20
2.499359539e+20
1.666239693e+20
1.457959731e+20
1.041399808e+20
1.666239693e+20
1.24967977e+20
2.082799616e+20
1.666239693e+20
1.041399808e+20
1.457959731e+20
1.457959731e+20
1.24967977e+20
1.457959731e+20
2.291079578e+20
1.666239693e+20
2.499359539e+20
1.24967977e+20
2.499359539e+20
2.499359539e+20
1.24967977e+20
1.874519654e+20
1.24967977e+20
1.24967977e+20
1.24967977e+20
1.24967977e+20
1.666239693e+20
1.874519654e+20
2.499359539e+20
1.041399808e+20
1.24967977e+20
1.457959731e+20
1.041399808e+20
1.041399808e+20
2.082799616e+20
2.499359539e+20
2.707639501e+20
8.331198464e+19
1.457959731e+20
1.457959731e+20
1.666239693e+20
2.291079578e+20
8.331198464e+19
2.707639501e+20
2.082799616e+20
2.915919462e+20
2.082799616e+20
1.666239693e+20
2.082799616e+20
1.457959731e+20
2.082799616e+20
1.874519654e+20
1.666239693e+20
2.082799616e+19
1.24967977e+20
2.499359539e+20
1.457959731e+20
2.499359539e+20
1.457959731e+20
2.915919462e+20
1.457959731e+20
1.24967977e+20
2.499359539e+20
8.331198464e+19
2.082799616e+20
1.041399808e+20
1.666239693e+20
2.707639501e+20
8.331198464e+19
1.666239693e+20
1.666239693e+20
1.457959731e+20
1.666239693e+20
1.24967977e+20
2.508222908e+20
1.683646478e+20
1.907216511e+20
8.535615999e+19
8.595544019e+19
1.082039937e+20
1.307694078e+20
1.317072859e+20
1.547684999e+20
1.113533235e+20
1.672148606e+20
1.894102288e+20
1.059564729e+20
1.2803424e+20
8.595544022e+19
1.947671887e+20
8.717960526e+19
1.097560717e+20
8.843914278e+19
6.681199412e+19
1.881167181e+20
1.683646477e+20
2.331042402e+20
1.4937328e+20
1.719108806e+20
1.514855911e+20
1.743592104e+20
4.390242866e+19
1.105489285e+20
1.336239882e+20
1.672148605e+20
8.418232392e+19
1.271477675e+20
1.920513599e+20
1.289331602e+20
1.514855911e+20
1.961541118e+20
1.31707286e+20
1.326587142e+20
2.004359824e+20
1.254111454e+20
1.262734858e+20
8.476517832e+19
8.535616009e+19
1.074443004e+20
1.7312639e+20
1.525643092e+20
1.097560717e+20
1.326587143e+20
1.558946531e+20
1.045092878e+20
2.525469716e+20
1.48339062e+20
3.200855999e+20
8.595544016e+19
2.813303833e+20
1.089745064e+20
1.097560715e+20
1.105489284e+20
1.558946531e+20
6.27055727e+19
2.104558097e+20
1.695303566e+20
1.920513602e+20
1.074443004e+20
1.514855912e+20
1.307694079e+20
1.31707286e+20
1.326587142e+20
1.781653177e+20
1.46313003e+20
1.473190669e+20
1.907216512e+20
1.707123199e+20
2.363774605e+20
2.596895848e+20
6.538470395e+19
2.195121433e+20
1.105489285e+20
2.004359824e+20
1.46313003e+20
2.315013906e+20
1.695303565e+20
2.347294401e+20
1.719108806e+20
2.380487861e+20
8.71796052e+19
1.31707286e+20
2.210978569e+20
2.004359824e+20
1.463130031e+20
2.104558098e+20
1.059564729e+20
1.920513601e+20
1.074443003e+20
6.492239625e+19
1.525643092e+20
1.097560717e+20
1.768782856e+20
8.908265883e+19
2.090185757e+20
1.683646477e+20
1.271477674e+20
1.707123201e+20
1.289331603e+20
1.731263899e+20
1.961541117e+20
2.195121431e+20
1.547684999e+20
8.908265883e+19
1.045092878e+20
1.473190669e+20
1.695303566e+20
2.347294399e+20
8.595544022e+19
1.7312639e+20
2.179490139e+20
1.536585013e+20
2.432076438e+20
2.22706648e+20
1.045092878e+20
1.052279051e+20
1.483390626e+20
1.920513601e+20
3.008440395e+20
1.947671883e+20
1.307694076e+20
1.53658499e+20
1.547684992e+20
1.113533235e+20
1.045092875e+20
2.104558084e+20
1.48339061e+20
1.493732795e+20
1.289331604e+20
2.164079869e+20
1.08974506e+20
1.097560715e+20
1.768782848e+20
1.558946518e+20
6.270557303e+19
1.894102292e+20
1.695303565e+20
1.066952004e+20
2.363774624e+20
2.596895861e+20
1.307694081e+20
1.756097156e+20
6.632935727e+19
2.449773118e+20
1.672148603e+20
1.683646482e+20
1.48339063e+20
1.066952004e+20
1.933997406e+20
1.082039942e+20
1.525643094e+20
8.780485658e+19
1.989880704e+20
8.908265883e+19
1.045092877e+20
1.262734853e+20
8.476517769e+19
1.280342396e+20
2.578663208e+20
1.298447921e+20
2.179490135e+20
2.41463359e+20
8.843914303e+19
2.449773118e+20
1.254111452e+20
1.894102292e+20
1.907216524e+20
1.920513594e+20
1.504220195e+20
1.731263895e+20
1.743592096e+20
1.975609287e+20
8.843914303e+19
1.55894653e+20
1.672148614e+20
8.418232409e+19
1.695303565e+20
1.280342405e+20
1.074443004e+20
1.514855908e+20
1.525643094e+20
1.317072858e+20
2.432076416e+20
2.227066487e+20
1.463130028e+20
1.683646482e+20
1.907216511e+20
1.493732795e+20
1.074443004e+20
1.514855919e+20
2.179490135e+20
1.097560715e+20
8.843914303e+19
2.004359824e+20
2.090185754e+20
2.104558088e+20
1.48339062e+20
8.535616032e+19
3.223329011e+20
1.514855908e+20
4.358980269e+19
8.780485781e+19
1.989880718e+20
1.781653177e+20
1.881167178e+20
8.418232352e+19
8.476517826e+19
1.707123206e+20
)
;

boundaryField
{
    flow
    {
        type            zeroGradient;
    }
    obstacle
    {
        type            calculated;
        value           nonuniform List<scalar> 10(580.4312888 259.8098698 2.225073859e-308 163.436053 2.225073859e-308 2.225073859e-308 72.03404625 2.225073859e-308 2.225073859e-308 2.225073859e-308);
    }
    frontAndBack
    {
        type            empty;
    }
    procBoundary0to1
    {
        type            processor;
        value           nonuniform List<scalar> 
21
(
1.121695106e+20
8.973560851e+19
1.121695106e+20
4.486780422e+19
1.570373148e+20
1.794712172e+20
1.794712169e+20
1.346034127e+20
1.79471217e+20
1.346034127e+20
1.570373148e+20
1.570373153e+20
2.467729225e+20
2.243390205e+20
1.794712177e+20
8.973560819e+19
1.346034123e+20
1.346034132e+20
1.12169511e+20
4.486780409e+19
1.12169511e+20
)
;
    }
    procBoundary0to2
    {
        type            processor;
        value           nonuniform List<scalar> 
31
(
1.666239693e+20
6.248398848e+19
3.124199424e+20
2.291079578e+20
2.707639501e+20
1.24967977e+20
8.331198464e+19
1.457959731e+20
1.457959731e+20
2.707639501e+20
1.457959731e+20
1.24967977e+20
1.24967977e+20
2.499359539e+20
1.24967977e+20
1.874519654e+20
1.666239693e+20
1.666239693e+20
8.331198464e+19
6.248398848e+19
1.933997406e+20
1.947671882e+20
1.961541108e+20
1.536585001e+20
2.653174291e+20
2.004359824e+20
1.672148603e+20
2.735925533e+20
1.059564728e+20
1.933997406e+20
1.707123195e+20
)
;
    }
}


// ************************************************************************* //
