/*--------------------------------*- C++ -*----------------------------------*\
  =========                 |
  \\      /  F ield         | OpenFOAM: The Open Source CFD Toolbox
   \\    /   O peration     | Website:  https://openfoam.org
    \\  /    A nd           | Version:  7
     \\/     M anipulation  |
\*---------------------------------------------------------------------------*/
FoamFile
{
    version     2.0;
    format      ascii;
    class       volScalarField;
    location    "0.002";
    object      internalE;
}
// * * * * * * * * * * * * * * * * * * * * * * * * * * * * * * * * * * * * * //

dimensions      [1 -1 -2 0 0 0 0];

internalField   nonuniform List<scalar> 
654
(
0.3135680535
0.3208469025
0.4927143026
0.4225224016
0.2142194672
0.5830003095
0.3267068557
0.3351409873
0.4712026484
0.6333035901
0.5445884115
0.5717086044
0.4288712747
0.2719730708
0.5343995076
0.303953502
0.5570021784
0.4767645053
0.8248633631
1.704365803
0.3157725624
0.3688988512
0.3618450476
0.3305532569
0.4339845007
0.3320521684
0.3269465934
0.2094276919
0.2623497073
0.3340462744
0.3986560879
0.8470417448
0.4511568822
0.5509193981
0.2981384681
0.1919203533
0.3013269678
0.2547727692
0.3642296982
0.5759759199
0.4524812197
0.6139055784
0.3472725221
0.3788914936
0.487061517
0.6591967853
0.2465436291
0.7240323576
0.2653682581
0.4913890716
0.2508087293
0.4226393698
0.6516084738
0.4958390739
0.4831230105
0.8721713837
0.3995612823
0.6543026212
1.080392666
0.4291893329
0.2296886379
0.2820946496
0.2872537817
0.2732781298
0.2759238905
0.4657126654
0.7506943279
0.6807324053
0.5096190224
0.1232438933
0.3007971111
0.4200951758
0.347765316
0.4771862602
0.3887870056
0.2708076216
0.7007376869
0.4264948225
0.09491785333
0.4051080834
0.4767211559
0.2062245797
0.3317387443
0.1836499331
0.312552126
0.5053422259
0.2347180202
0.1837584109
0.3152339282
0.181681119
0.5977783687
0.4655034746
0.2421290521
0.2255782945
0.2743400151
0.4135126221
0.6359806849
0.05875070949
0.3744847924
0.1800749561
0.2846550262
0.2207740962
0.5360149105
0.3405517064
0.335820985
0.321652249
0.2523143685
0.3534178056
0.5262075295
0.5744047551
0.3186751328
0.6952093694
0.2120183363
0.123801124
0.4059740591
0.5810654623
0.7384320967
0.4930483691
0.5493283552
0.3656669479
0.1189419088
0.4181669732
0.19010246
0.3736341578
0.7825726859
0.5205221432
0.5671143144
0.4306108176
0.6088066457
0.2717774354
0.2261287133
0.3868316052
0.6005723472
0.3364571003
0.5701566218
0.454247525
0.5511582952
0.5531173416
0.6066495122
0.3856539783
0.2248873117
0.3791948929
0.2354811189
0.9036965271
0.2045359937
0.5444489036
0.1608065294
0.3483450235
0.330087762
0.1329539802
0.3532248583
0.9199524923
0.698265215
0.5008951288
0.6173070728
0.4445627535
0.7963894784
0.2434746217
0.2324251383
0.5053977078
0.05822744873
0.2821167459
0.4364498938
0.3670383032
0.4378316017
0.2376964782
0.6191772346
0.5487426423
0.2119340593
0.524272207
0.7363422401
0.3641951587
0.2308464089
0.2853630974
0.2045081039
0.1741898736
0.9699807808
0.3338379772
0.3776658594
0.7288614349
0.2579795099
0.5992472391
0.09608195417
0.5001673289
0.4733724071
1.032693051
0.4797318882
0.5363076145
0.1817651174
0.5129674122
0.2494038476
0.1729934734
0.8691615718
0.5412924748
0.7532123223
0.4711191203
0.4449679175
0.3045476883
0.8174792544
0.5750146201
0.2423622223
0.207620445
0.3965646881
0.477129195
0.3038196813
0.2210331625
0.5056947262
0.1398779072
0.4500172682
0.5629292033
0.2483857682
0.6610678778
0.5146504917
0.6257069321
0.3453594909
0.3157682977
0.3800570592
0.1575400447
0.4784017831
0.4480620616
0.264569977
0.4168402059
0.5572162997
0.5543943038
0.2068191422
0.5882909797
0.5642892532
0.2547078774
0.2339579185
0.8182186406
0.1331724361
0.1872784563
0.5658123762
0.4834113414
0.4006718757
0.4727105937
0.1726053248
0.2492145449
0.06242069025
0.4102662576
0.06761813472
0.3944373028
0.3030906441
0.3900922019
0.207124539
0.1510371549
0.5333125014
0.1977836899
0.3676830177
0.7415413245
0.3079564229
0.203040994
0.237879249
0.4543360536
0.3216690752
0.2714244524
0.2219392295
0.6887095079
0.4460406121
0.5336104335
0.3100738829
0.9923150674
0.2442365484
0.4758636458
0.4570878667
0.700392053
0.3877397627
0.6245634551
0.4633316991
0.5191212655
0.5953921412
0.5035079104
0.7514405959
0.3462984769
0.5799248041
0.5121622079
0.5608327702
0.6063217377
0.0499305172
0.4939152682
0.3038832155
0.7545839033
0.302979942
0.2283335178
0.237751933
0.2261652551
0.7037943514
0.2013237973
0.02387219708
0.4543934451
0.4832192351
0.3336887856
0.3444976592
0.5147207774
0.5335477846
0.3825984824
0.8891029603
0.3802129065
0.48777319
0.3023218932
0.1636853395
0.1853430434
0.1096952757
0.4806573777
0.4644153436
0.5925777012
0.411785471
0.3557290468
0.5819341717
0.2451300831
0.392364164
0.4312968427
0.3427473126
0.6110630017
0.4552155386
0.4396760512
0.5074847256
0.2825054404
0.258794659
0.2447305299
0.3178676316
0.5006736722
0.3747762308
0.2222258422
0.4679571612
0.2891479203
0.1400277213
0.6725907424
0.3649160533
0.4598760416
0.3536379406
0.3743272349
0.4713946787
0.2004240005
0.4047207718
0.1489169151
0.1495272131
0.4843029865
0.4457308477
0.1808636846
0.2609214961
0.40505959
0.4904051073
0.1331967335
0.5354689576
0.469784661
0.2418894877
0.2465379065
0.3988370916
0.616588478
0.1643546456
0.4065803969
0.3577850177
0.5541755313
0.1802276227
0.3894512658
0.599211678
0.2087154268
0.2996309939
0.2631564305
0.2981415573
0.3966023908
0.3744824584
0.3646768169
0.456672335
0.2702149237
0.4005813412
0.3391348662
0.2025645978
0.1633683592
0.2017731621
0.3744473516
0.5905628233
0.2444702962
0.1732953613
0.3254921262
0.5588044836
0.5453518197
0.4260978828
0.2178542902
0.2454998641
0.3829681709
0.5520526271
0.5365042692
0.3340386986
0.5152500515
0.5611162023
0.5018574312
0.5301406464
0.3174079795
0.3060158539
0.4235152885
0.3533489274
0.2527935289
0.5681810856
0.6695827028
0.2537744932
0.1311966704
0.5799816654
0.6828019714
0.2836723052
0.4746520987
0.5732176782
0.4991726182
0.3439804429
0.3697892026
0.5560324283
0.4183870489
0.6206840903
0.4100113937
0.7738913304
0.6582611414
0.6990333911
0.3445734321
0.4867654971
0.4854374773
0.4212371044
0.600082533
0.4623376159
0.545589706
0.2082382836
0.2537468869
0.485732646
0.3167574095
0.2932180095
0.1918714998
0.3115054818
0.4770338258
0.4568557914
0.421373349
0.5622767608
0.3125195793
0.5017583429
0.5703376887
0.4087414825
0.4718124747
0.3171278177
0.4420031876
0.3601981792
0.8046273758
1.152823774
1.585494361
3.222689419
1.811032806
3.169639845
2.654257314
2.116667887
2.841954754
3.017690412
3.94837472
0.8160365937
1.840992651
1.581786836
2.304514105
2.173722274
2.332938244
2.030150821
2.840182584
3.340511368
4.061162873
0.8014315444
0.9192850188
0.870330187
2.538400138
0.9955846811
2.626419675
3.194080523
2.01455604
1.351510727
3.573976303
0.2517017735
0.3729973739
1.429715866
0.8522824485
0.7475454842
1.392395308
1.201576667
2.422481768
2.54749715
2.629517056
0.4486712864
0.8333232422
0.4894108364
0.3904397716
1.966060763
1.826323666
1.305370989
1.719644746
1.039539502
2.366043916
0.3104002284
0.6979309552
0.20246248
0.4326472214
0.3649956513
0.4342879755
1.020390233
1.212222486
0.5974324143
1.558049503
0.5028615348
0.4274685133
0.6671491427
1.054376281
0.4805806411
0.8637547884
1.627098084
2.467462364
2.020486131
2.136362908
0.4368329093
0.9165970343
0.5136983802
0.4834121562
0.3140570726
1.255748186
0.5723669428
2.239410674
0.4338299867
2.353970873
0.5193928575
0.2723974833
0.6239465196
0.7860129694
0.0844466781
0.6123845285
1.105850116
0.4806901072
0.3193439385
1.499290563
0.4864489869
0.7265824439
0.5314140482
0.4778563239
0.4391399256
1.06368713
0.3028647326
0.9444399328
1.097667212
1.165470742
0.593464233
0.2339192497
0.640636037
0.3977143889
0.8367488921
0.7015024481
0.5615678521
0.7458683586
0.3056424295
0.5821669876
0.2218457913
0.398898741
0.3124942582
0.2253591566
0.6054815594
1.428584988
0.1173739998
0.6166690569
0.5442161108
0.5420978713
0.4470632633
0.4662472981
0.6048109588
0.4788330041
0.3781428044
0.7608126753
0.1333264608
0.9598161887
0.3103109382
0.5152151061
0.1956154794
0.05364232752
0.5872649113
0.6002945268
0.7005315822
0.4650875998
0.4948334847
0.2813725857
0.5795251968
1.10826007
0.3331856777
0.3771409019
0.2553517839
0.3892519639
1.238477158
0.653574598
0.3953276772
0.4723435123
0.4301105259
0.1119954941
0.1266369248
0.3099916818
0.8022200043
0.3567484855
0.4005019354
0.4913772646
0.3672056231
0.1834608118
0.6959454805
0.5196836058
0.6312421285
0.3406297019
0.3453770481
0.2054599265
0.4736078905
0.4191538586
0.3042355339
0.4866260803
0.7897358257
0.5223964926
0.2574389856
0.5913388502
0.1469601166
0.0802565778
0.2952053335
0.7909082794
0.1997481901
0.6187817726
0.3025781339
0.1516059969
0.4401656577
0.2549794554
0.6423801515
0.4853307481
0.4368769822
0.3652620714
0.5626257742
0.5063522533
0.6330301796
0.4885443858
0.684437962
0.1570492783
0.2746830741
0.2082721964
0.5858833347
0.6871368132
0.1214304736
0.574931791
0.3342877266
0.3298389969
0.4642613191
0.7339117626
0.4318315402
0.4394727899
0.9133755536
0.2663694135
0.4166851183
0.5307954191
0.2602857482
0.2585816094
0.4081844565
0.8155490865
0.46879079
0.4637127073
)
;

boundaryField
{
    flow
    {
        type            zeroGradient;
    }
    obstacle
    {
        type            calculated;
        value           nonuniform List<scalar> 10(2.473986954e-19 1.346910829e-18 1.6918717e-18 0 0 0 7.610163504e-19 5.647752375e-19 5.501680199e-18 2.514088377e-18);
    }
    frontAndBack
    {
        type            empty;
    }
    procBoundary0to1
    {
        type            processor;
        value           nonuniform List<scalar> 
21
(
4.045555495
2.94850672
3.857644373
3.17209622
1.646884933
1.373657762
0.9769201815
1.117937525
0.942804106
0.9092531756
0.3477966732
0.9237527533
0.1440298965
0.4965215601
0.9793331186
0.5668130435
0.1328345187
0.2035797725
0.4979689751
0.3863920938
0.5334258583
)
;
    }
    procBoundary0to2
    {
        type            processor;
        value           nonuniform List<scalar> 
31
(
0.08568426131
0.3891361816
0.4192655198
0.6342613265
0.4082618151
0.2683551129
0.5455587281
0.2182774945
0.1913653782
0.3326557557
0.2368620358
0.536829462
0.230912207
0.7081565829
0.4338825125
0.3119027
0.4776758645
0.4741412643
0.7958228368
0.2655364008
0.3260014477
0.6493667619
0.1869838253
0.405833226
0.8136669199
0.5178836131
0.5148237195
0.4692576944
0.5085727636
0.3260014477
0.4513547137
)
;
    }
}


// ************************************************************************* //
