/*--------------------------------*- C++ -*----------------------------------*\
  =========                 |
  \\      /  F ield         | OpenFOAM: The Open Source CFD Toolbox
   \\    /   O peration     | Website:  https://openfoam.org
    \\  /    A nd           | Version:  7
     \\/     M anipulation  |
\*---------------------------------------------------------------------------*/
FoamFile
{
    version     2.0;
    format      ascii;
    class       volScalarField;
    location    "0.002";
    object      linearKE;
}
// * * * * * * * * * * * * * * * * * * * * * * * * * * * * * * * * * * * * * //

dimensions      [1 -1 -2 0 0 0 0];

internalField   nonuniform List<scalar> 
654
(
5.824457329
7.295085551
4.311147658
11.38987054
5.095735959
7.036318108
7.946992124
6.245182906
8.856307659
8.711032364
7.361056441
9.97578189
4.224041353
8.050808633
10.47018159
3.175031045
7.417377736
9.693328259
9.043197615
12.3234548
5.879930154
8.059298151
7.647431507
6.679584257
8.21920546
7.66467028
6.546828756
4.665730282
6.032633913
11.7355546
9.922892812
12.12113379
6.481292403
8.744978809
3.076705321
5.104915535
4.688692127
7.79295759
4.473611343
5.728095251
5.87012487
8.191230072
7.683426309
11.97942893
7.418974204
13.26111856
8.087183777
8.486560824
5.378895811
7.03470929
6.731675931
4.310668412
6.876174811
11.00848522
8.546795942
12.05903574
2.216302371
6.94334667
10.66827378
6.415534626
4.780509061
7.753387871
6.774818682
6.771338609
4.575750306
7.543485137
8.473434427
12.79949681
6.943527388
5.170086198
10.06794922
10.3471983
4.568339324
15.68445924
8.639767804
5.590121948
11.67922663
5.753879915
2.043690488
6.822306816
8.209163051
6.15659597
9.655063663
5.276535396
7.698019999
10.00585017
7.612492742
6.873875573
6.542941213
9.220631463
6.71209275
10.92815939
4.470390069
4.619771277
6.354216844
10.12802182
13.75217279
3.837898289
9.708666226
4.2651646
4.042159602
4.506687677
11.75603136
7.321406684
5.317664563
4.026023398
5.965729577
6.472017124
10.36174421
5.086372462
6.095293085
7.099635629
8.062035747
5.085991674
7.537617016
13.61064957
11.1277628
9.175560216
4.281409866
7.472275754
4.824606703
7.778676597
6.047521727
7.552681589
11.58344501
10.95383602
8.778483231
9.609213992
8.152325843
7.673219397
9.938733856
10.74062556
9.288335772
5.802618841
13.21956595
8.112672012
6.259199346
8.107809048
8.92728361
7.558706864
4.382411025
7.095257395
6.701500214
10.50438789
3.556459077
10.49189541
3.742748189
10.4192423
6.292340116
6.435203116
7.231058631
12.96056811
9.499362249
9.822941487
6.034110259
8.593873331
7.960998362
5.55553761
6.622804873
8.691018231
2.300755239
7.915386983
12.41903036
5.81764039
9.205468581
9.330046662
10.72323122
11.71932122
3.583381738
13.56221587
11.20346267
7.38640103
10.22994338
8.062701648
6.073784443
5.73381519
7.486031981
6.626267963
7.508925225
13.6000857
7.344746659
9.985375879
3.113992072
9.684775083
5.514528526
12.52873767
3.920040334
11.32335503
5.072589696
7.823323182
8.175636668
6.297455852
11.36972213
7.7323097
9.912312299
4.601072605
7.326449032
9.592866324
11.96824993
10.00176086
5.680391928
8.068431388
7.88888648
11.47970285
6.49766823
9.189762741
8.176430487
4.165107159
7.853239811
4.231932991
6.697189107
8.05386141
6.652848022
13.39731963
9.596613465
7.470986255
6.66413838
3.852741194
8.316630168
10.0336955
4.746119268
6.721793733
9.112502996
5.971327878
7.563235154
11.99029627
5.859534133
5.938303704
6.825723589
13.64449784
4.955688069
7.613737414
13.40781588
11.27179242
7.977682447
9.210905456
5.945934082
5.755969681
3.130115072
8.618470478
2.360139731
9.108386729
8.963056611
7.83759941
4.296013098
6.794369437
7.118584699
6.738691
5.677109411
13.42442374
5.638714346
6.243655675
7.56400652
8.581178301
6.245749973
7.455912799
6.49510044
10.2708169
6.87407441
12.06158559
3.639730753
10.78281067
6.221890685
8.541849681
7.453868945
13.02601072
7.897200537
7.97204046
8.521210422
7.868894706
11.06424773
5.065974829
7.924805822
7.428719664
8.719461697
4.707144394
9.502816152
10.47898231
3.157527438
7.770643001
5.968484907
11.18297799
6.208860957
7.190749178
7.988974356
3.713339446
11.75155592
10.21685158
2.231283086
14.5733762
6.444444819
3.352049277
8.889651263
10.20882932
11.54233925
7.210780701
10.03016614
5.091135717
12.65664031
5.905862324
5.707573423
7.35226233
5.801588801
9.736844903
6.503268414
11.29034499
7.15449633
7.275096535
8.291288003
5.501909643
8.734390352
8.015134935
5.358872683
7.127211745
13.26750274
5.757568516
10.56873438
11.06601327
5.191140526
7.056728259
6.480718396
7.539413269
7.731282368
7.930673733
6.716251965
8.538737559
5.831371401
9.644846502
9.981526824
4.588038965
5.882604285
9.9066321
6.135578986
2.904678363
6.969807574
4.615620431
5.707859268
8.89983916
8.571902268
8.488922471
6.78886102
7.908119499
10.55017699
3.951614205
13.41344369
7.717844832
2.903869864
8.942361729
7.836845385
10.84262492
6.102435304
10.45101048
11.02630305
8.890890379
7.123532604
9.157079407
5.188989405
4.441940367
7.834278911
4.956063633
5.78455854
7.025261308
8.121432347
8.673267958
6.811139732
9.192636596
9.605234202
3.296869857
9.274663593
5.320908359
4.795661394
9.634864355
7.889766152
5.8054917
5.307760431
7.337636834
7.825122379
8.022227458
2.196367924
6.421131498
5.784105494
7.497747339
8.881531769
12.60507573
6.657258257
7.665707258
11.09338628
11.73317544
5.43375678
4.159173112
6.95912647
6.273538951
8.264174318
3.104589209
9.546038449
11.61108753
8.675519572
2.784494795
8.43190225
8.533491195
7.558658825
7.638873282
9.453327747
6.16102393
10.30663624
7.480038183
7.040110351
7.573213708
6.015198696
11.57162123
10.08457022
9.078927568
11.50130272
4.982221771
6.961278251
13.83540543
7.960802597
5.462307397
7.453500107
9.130735872
4.501838866
7.035855776
9.528559346
5.540352436
4.463201686
4.24336828
9.011774307
3.987816975
9.86421978
9.059831912
9.013565659
6.160510511
9.071084319
7.922181873
6.980115642
14.15654685
7.864790759
8.227790127
12.51670887
8.039580714
3.853500918
11.72768319
9.749751569
6.986532454
9.684587828
6.374481407
9.535180601
9.567270306
6.974974503
11.26706196
8.737087178
12.72645071
10.87834953
10.50986761
9.146640057
6.714047922
10.15034587
5.491628998
9.340355287
14.60860657
9.191921491
10.44690104
6.607911075
11.94236156
9.874982953
17.35120572
14.0446152
12.05715673
11.79142473
12.75569651
6.885767897
2.93109062
8.32061312
9.720801449
11.54839612
10.07455332
6.638187952
11.64964777
10.814899
13.80799727
6.670811256
6.531147989
6.758557365
4.708408324
10.79225294
9.971764741
8.407069476
12.68087131
8.02559272
11.08865423
6.824575489
8.646020833
7.494143746
9.229930533
8.068873782
9.145138275
12.31568563
10.70591713
5.305801761
11.9604348
8.245871117
6.358433901
9.380962294
7.088137737
10.3789301
13.45760502
17.16762843
10.02246579
12.61168049
17.78468742
8.049625164
5.156053893
3.813260439
8.437757626
5.35220402
9.286349829
11.92411254
15.89614407
6.23316692
12.73289306
10.28505666
9.421927568
7.948598785
10.6793691
5.271139333
4.143300006
10.69338467
13.01941648
5.365871735
15.88960269
10.02087759
9.287742948
7.702784375
9.067129134
6.255811966
10.17045782
7.82624856
6.181185884
3.797279138
9.094113247
9.601686447
5.323853538
12.32022916
5.255554012
12.23773538
5.053344668
4.831859344
10.5111736
8.886228647
14.01077728
5.651441963
6.725479924
11.35861183
8.435003216
12.02242194
12.9906452
3.325534819
8.982739255
8.087909231
6.975054206
8.184559517
7.761965691
8.345079646
8.330816112
9.764229228
12.09843665
4.308632734
17.93394458
7.641824354
12.29838029
2.830905861
1.482772861
11.42989106
9.292627673
12.11663574
10.56080844
8.948704534
6.009263518
9.15067824
14.69203616
5.609535366
8.402888663
4.487362077
5.521524343
10.62024941
7.022867048
12.0514952
7.951277785
8.17243451
4.416343827
3.445946382
5.664031152
9.082490465
8.652651994
6.181170615
9.830818324
9.502529117
5.688895678
10.48300794
8.456972053
8.420278633
7.505507855
8.491418905
6.855460408
9.702217317
8.113847741
5.603231136
9.267620977
13.77081162
12.86895433
8.524270837
9.811105512
4.067880653
3.210731009
7.342602074
9.906387737
3.950821451
9.899618168
6.627675761
6.639070612
7.304478292
5.622623977
9.817631981
7.010642556
6.62478362
10.21208688
7.594980972
11.24415133
9.382298076
6.309522545
10.6249778
3.406096652
8.23637664
5.837875212
6.48323619
9.367807154
3.12623412
6.883864182
8.027856536
4.380270558
7.295953699
10.20829888
4.813811928
4.683501569
8.319849575
5.980669372
11.80609602
10.51378436
5.711267757
6.371577708
5.952623478
8.024381249
8.266815145
6.624392853
)
;

boundaryField
{
    flow
    {
        type            zeroGradient;
    }
    obstacle
    {
        type            calculated;
        value           nonuniform List<scalar> 10(7.177824616e-19 1.306730087e-17 4.742617995e-18 0 0 0 3.797453206e-18 3.65442378e-18 1.578145494e-18 1.80026245e-18);
    }
    frontAndBack
    {
        type            empty;
    }
    procBoundary0to1
    {
        type            processor;
        value           nonuniform List<scalar> 
21
(
10.43934873
6.057229844
12.71374733
14.41152729
12.27572895
13.4348817
10.20260555
9.328794567
9.879783423
7.827451127
7.090450479
8.384566065
4.201018674
9.839854316
11.12848801
7.794262035
3.58536134
5.745703665
6.888685221
13.16287471
7.51837455
)
;
    }
    procBoundary0to2
    {
        type            processor;
        value           nonuniform List<scalar> 
31
(
3.135566246
12.39837659
6.151481547
9.951597838
6.378788859
9.313264546
8.435756177
4.020884531
4.560285406
9.620927365
4.44360691
9.533982427
8.191354867
12.20376371
6.317399119
8.209869985
3.008159977
7.23436455
9.950936351
3.966684709
5.357005725
10.70088225
6.635091303
9.701881522
10.15424126
10.68234763
7.631203341
7.859837697
9.167101037
5.357005725
8.35774792
)
;
    }
}


// ************************************************************************* //
