/*--------------------------------*- C++ -*----------------------------------*\
  =========                 |
  \\      /  F ield         | OpenFOAM: The Open Source CFD Toolbox
   \\    /   O peration     | Website:  https://openfoam.org
    \\  /    A nd           | Version:  7
     \\/     M anipulation  |
\*---------------------------------------------------------------------------*/
FoamFile
{
    version     2.0;
    format      ascii;
    class       volScalarField;
    location    "0.002";
    object      overallT;
}
// * * * * * * * * * * * * * * * * * * * * * * * * * * * * * * * * * * * * * //

dimensions      [1 2 -2 0 0 0 0];

internalField   nonuniform List<scalar> 
654
(
278.3377054
288.2308296
314.0932812
318.4893378
324.8669712
323.9839718
318.5455271
323.1515384
338.4542446
337.9061688
341.3376741
362.3224294
360.0388425
394.0446327
394.3018331
386.4384192
383.2573837
384.6099224
413.5140403
452.9225106
289.5088763
300.7862443
307.3850299
314.467831
336.8714073
337.9444276
349.1888352
342.7030421
355.328337
355.9982033
383.6094704
375.2014585
396.3424971
383.2630446
411.628692
424.113049
410.999129
441.7816934
465.3794348
494.673972
300.3559323
312.6887425
327.7131371
322.1535035
334.6066023
332.5305178
352.9606136
353.7480909
369.2380607
364.8166367
383.6677571
380.5042773
380.1018033
402.0900012
416.6953413
447.9227265
433.3168001
465.6595152
481.8984567
499.2169196
291.3831314
305.1667299
319.8543288
321.3250229
327.9653885
333.9115593
342.7041613
369.9105161
374.5958684
370.9795778
389.1350375
380.5023056
395.3114305
414.5112782
433.880486
441.150508
465.088872
475.9401166
499.2457312
517.2679529
294.7814876
289.4482965
315.9333813
330.7536739
335.8448697
321.3913018
337.3095676
354.3304952
358.1409909
365.993659
381.8012239
402.9736159
400.7087704
406.8733003
434.355154
439.1388484
460.9135121
489.5269679
539.079104
538.8779731
294.6314152
300.8475323
316.7743792
318.4102359
329.5888325
325.9722121
336.5792934
358.78927
355.5965115
359.3764462
378.3351278
396.0294172
411.4757386
412.6759518
417.2017858
426.0341567
439.4272046
466.7587346
507.5724906
556.4716234
301.2445866
305.2398391
332.1706433
333.881264
349.5384646
343.2734806
343.5043529
359.1035865
364.6740063
390.2898691
380.1487074
376.8949069
415.0562229
430.6750675
425.5793643
443.1756414
476.6589976
481.0119347
500.6131483
544.9334898
292.1149172
314.7859499
333.4330237
327.4620515
325.990793
322.2605532
353.762866
350.5829709
370.8505225
382.0680734
400.0091142
402.2643946
419.0034398
425.8401865
446.652903
430.5200809
467.2358039
487.8226036
493.1045922
533.5449143
295.7948263
315.5081127
332.7327646
325.17944
326.7753701
330.7828077
339.8473536
371.3672087
376.4356412
383.3087912
388.2929738
406.1706783
400.188727
426.8540445
429.4437346
449.158723
456.5061819
482.5612028
524.5802542
541.4476407
295.6944402
315.8981146
320.2808112
344.3483452
344.1037977
351.2668137
345.9133877
363.1052252
368.8239816
372.8133898
381.1849794
389.2724019
426.8480584
453.1704815
454.2319402
448.1119519
461.045826
472.1394899
506.8662414
515.8874745
304.5122839
331.8032531
329.0842832
336.2684036
331.7791318
347.0220855
346.6470965
359.2257179
367.735095
404.9043093
398.6504899
411.8399368
425.2655454
440.2218169
440.9779571
464.0143127
476.3684379
485.4649084
494.1166438
517.4119245
302.4681316
321.0622902
325.2321984
345.3107812
350.6440369
355.9695794
355.948652
367.4526548
406.881829
401.6619123
403.0908683
418.0137338
416.7215057
436.0570582
459.8616686
464.974023
489.2441026
491.9247709
480.0462169
514.9261014
304.9538093
320.3609501
323.9459328
344.7070872
359.1625632
373.0626573
395.8401021
395.993013
381.570337
407.3834286
403.3263576
422.621243
456.8781813
475.8948212
474.3475631
480.0168485
493.8850799
498.2645446
510.600748
519.8371785
303.7989201
329.7785646
338.824972
343.0930416
364.0503619
348.0819183
348.8438354
376.6103209
388.2352922
380.3739768
401.2782621
420.3570668
438.1867584
470.9474481
475.2073726
486.8475103
484.3007186
511.9430292
514.1437458
504.0920669
309.699008
330.7536751
328.5225228
344.2247803
352.3615521
351.3293011
352.9985284
373.676386
393.0675518
387.7307478
398.9517266
426.7976906
436.3819777
442.3517027
435.4890766
458.3611733
464.3521549
483.0363975
504.5212561
535.4057213
302.4859714
323.9050263
325.376012
350.3558509
337.9859153
343.6438024
359.5178694
385.4589017
392.2924851
403.9339241
414.8286653
406.7001933
431.1508491
431.7921204
462.8028277
465.3961918
446.49387
463.0298208
481.1608908
519.0926521
308.4456453
327.2957161
326.8923414
324.9864758
344.7234789
360.2716673
371.3387051
383.3412618
391.6820598
418.3271575
420.5345334
418.970496
428.1546744
446.9609165
428.9251951
463.9655769
456.2914937
479.8735334
496.4045549
539.5421761
296.9879215
310.7219512
331.3154796
332.668672
353.423041
351.188065
371.5401101
397.9262847
393.094675
407.8475987
403.5170906
423.9477928
430.5092922
438.849143
458.1599987
460.1134569
456.9074656
460.2812494
504.4507894
501.9687291
304.0959737
324.3922117
323.2989451
325.2670931
334.6292537
351.2536083
369.8639723
401.4897914
406.8317292
404.8625026
400.576736
407.728361
441.8915248
429.5870236
446.5715377
456.7459528
462.2714724
487.912524
513.4411377
507.2063362
296.4302631
311.3796252
331.8075244
342.8141747
339.3005481
366.0826981
371.0496687
379.6888104
388.9585933
402.2107623
411.5735437
425.30665
428.9443516
460.9292389
461.0669713
478.9416727
469.0006605
465.6323004
481.8007008
498.4845761
304.2334186
318.6521418
329.6630516
338.5180604
351.5014408
349.819509
370.734988
381.7436075
391.4183307
406.9441968
425.9679913
438.6147714
449.6474571
469.5767508
464.3093775
494.3028395
473.0601613
481.2054633
521.0728085
507.3346682
308.1024416
313.3947514
332.4574583
347.8813613
341.1576791
365.6552262
384.3024059
402.7428655
413.3520792
434.8608311
430.5048751
425.7924862
440.0285731
444.716737
453.9567231
485.6277363
464.1985834
491.8259539
503.987301
517.8932862
560.5537912
589.2436613
587.2169656
618.4711163
635.9653367
624.9317988
614.9234762
655.9888304
679.1240654
651.434073
536.6311865
587.3672397
572.0791355
625.9035165
631.0139324
649.1484913
681.136201
714.7764282
717.7998468
703.318234
544.4943376
563.311621
624.2734514
616.7899264
641.7012755
659.0069522
645.3781654
677.5796358
698.1840716
722.1219745
559.2619185
579.3506577
608.281971
619.0490567
628.5562624
652.0395457
698.3612877
677.8782583
683.5691476
715.0496097
552.3905393
592.7609566
597.7774574
637.5636327
666.3105338
658.7938315
661.3814803
658.54726
655.2577704
671.8041247
567.0633901
551.388032
588.5317477
618.8495818
621.4243579
610.9569989
636.8861151
666.1777056
671.2759078
650.4084318
533.1036
549.6785721
584.3075019
625.8951345
651.3862452
610.2939795
626.9824123
628.8268339
677.9323087
692.0220775
562.6250446
559.3024386
565.7185268
575.6206882
566.1476559
608.5891349
631.6162928
638.7158897
678.8161577
668.773447
534.4915048
520.5458005
561.4217087
585.7163692
594.9810815
621.6773981
618.6312405
646.5249135
674.9367281
660.199294
528.8056917
537.0663307
591.7306987
607.6300426
606.4334133
571.0261021
603.7692177
647.5441982
672.8465257
682.8329764
509.0734592
542.8470599
580.1356488
584.0416148
579.5399794
584.9501885
609.4351477
656.0736411
675.4303165
688.9672042
524.1645507
554.3681321
561.4151763
590.2431545
597.4817266
618.1178164
629.6366592
641.7262501
666.2198012
685.5607418
549.7023727
543.7495812
562.8445784
565.7793879
596.2854199
606.25636
620.6807637
626.616033
626.5070803
675.9315276
544.1788782
550.3369045
558.4637535
573.4002206
584.0450539
589.6029189
593.8094637
604.0979299
635.8264809
648.6831521
532.2589973
523.475554
561.7755875
574.7196243
606.5731751
603.608865
619.5968294
627.9473375
649.6985703
705.8041186
545.9316201
576.6305657
567.0794523
568.7999575
593.2060738
607.1299392
615.4972991
610.9571706
617.2417006
669.0440463
538.554592
528.0865642
516.4599884
553.846173
586.6085022
592.9961173
570.9640953
593.4190103
629.3404582
676.7952292
509.8410329
538.2482215
554.2852153
553.6762138
582.3096569
602.2178985
591.8889276
615.1559155
635.3742364
668.0708401
513.3256893
545.8915427
553.8239723
559.1003575
584.2260803
602.9506216
590.477787
591.4437575
594.8837112
645.457638
521.4861129
527.4059785
551.121339
564.9156319
552.3349427
560.7578665
587.2981506
594.0541647
573.2013009
617.7502099
523.3247817
534.6954411
559.5749931
563.9831018
560.4148182
574.8360106
569.9332163
561.2166866
576.0504563
594.6413559
528.538912
542.2638625
560.1809917
549.9957163
)
;

boundaryField
{
    flow
    {
        type            calculated;
        value           nonuniform List<scalar> 
42
(
278.3377054
289.5088763
300.3559323
291.3831314
294.7814876
294.6314152
301.2445866
292.1149172
295.7948263
295.6944402
304.5122839
302.4681316
304.9538093
303.7989201
309.699008
302.4859714
308.4456453
296.9879215
304.0959737
296.4302631
304.2334186
308.1024416
278.3377054
288.2308296
314.0932812
318.4893378
324.8669712
323.9839718
318.5455271
323.1515384
338.4542446
337.9061688
341.3376741
362.3224294
360.0388425
394.0446327
394.3018331
386.4384192
383.2573837
384.6099224
413.5140403
452.9225106
)
;
    }
    obstacle
    {
        type            calculated;
        value           nonuniform List<scalar> 10(535.5735214 570.8515885 485.7597853 640.8344705 588.0823923 603.7187243 557.824976 596.9427081 624.8295557 645.5812159);
    }
    frontAndBack
    {
        type            empty;
    }
    procBoundary0to1
    {
        type            processor;
        value           nonuniform List<scalar> 
21
(
650.5265185
703.5314959
704.7230101
690.3946878
682.704402
669.3655324
708.5248697
714.6347389
685.8373149
723.9020043
681.0732922
671.2516561
672.3923027
642.4442639
691.8090474
654.1889464
679.0019141
679.2891006
656.6509116
614.2668801
600.7051344
)
;
    }
    procBoundary0to2
    {
        type            processor;
        value           nonuniform List<scalar> 
31
(
314.5052146
319.4579195
332.0281162
346.6745419
353.0089689
366.076872
366.890828
399.9962447
400.0553552
415.9093653
409.7358632
420.1833103
430.975016
447.0774294
439.9123933
478.3397831
489.152155
469.4420274
487.964857
528.2162343
542.6897718
584.5110845
562.2784491
574.1134821
594.5812203
602.0435913
521.4754173
514.6929648
543.564186
542.6897718
531.1513502
)
;
    }
}


// ************************************************************************* //
