/*--------------------------------*- C++ -*----------------------------------*\
  =========                 |
  \\      /  F ield         | OpenFOAM: The Open Source CFD Toolbox
   \\    /   O peration     | Website:  https://openfoam.org
    \\  /    A nd           | Version:  7
     \\/     M anipulation  |
\*---------------------------------------------------------------------------*/
FoamFile
{
    version     2.0;
    format      ascii;
    class       volScalarField;
    location    "0.002";
    object      p;
}
// * * * * * * * * * * * * * * * * * * * * * * * * * * * * * * * * * * * * * //

dimensions      [1 -1 -2 0 0 0 0];

internalField   nonuniform List<scalar> 
654
(
0.3021734629
0.4146726787
0.4064621993
0.3954428087
0.3977558873
0.3990003722
0.3990082887
0.4005362121
0.3970061383
0.3976192462
0.4115519127
0.4025223974
0.4096266728
0.4046838401
0.4116033224
0.4320088055
0.4753591189
0.5920036143
0.933874957
2.418426544
0.3087290725
0.4156216297
0.4100427708
0.412522425
0.4239272559
0.4182762186
0.4177941508
0.4173005001
0.4209443262
0.4133591287
0.422449771
0.4219210542
0.4173313348
0.4327243619
0.4297492221
0.4581912133
0.531082453
0.6874456924
1.108981725
2.109375053
0.311133147
0.4377598095
0.4253557561
0.4229759255
0.4217311492
0.415591155
0.408911139
0.4108957376
0.4114478558
0.4176845047
0.4215552338
0.4151295957
0.4211754379
0.434171015
0.4546920635
0.4671367937
0.5237042913
0.6505015301
1.029513795
1.528389783
0.3106593111
0.4130357462
0.4079212388
0.4165786122
0.4094805073
0.4165643291
0.4157911152
0.418358845
0.4181936748
0.419656791
0.4220298626
0.4231839232
0.4267344273
0.432967647
0.4216502806
0.4622863538
0.5170020358
0.6410710857
0.8546972991
1.165074062
0.3144318197
0.4283361696
0.417139511
0.4099607867
0.4172533214
0.4170117289
0.4206515538
0.4204607134
0.4183813351
0.4134464118
0.4101308068
0.4127231834
0.4217143821
0.4325681408
0.4310217431
0.4817174694
0.5327495611
0.592493719
0.6986513128
0.9613490454
0.3207940121
0.4284985371
0.4254025146
0.4165365441
0.4162357735
0.4114465361
0.4079231528
0.40849686
0.4076573258
0.4082572306
0.404904332
0.3973990445
0.4038222226
0.4301457099
0.441600277
0.4774639945
0.4853292668
0.5379918772
0.584068855
0.7928722905
0.3129816365
0.4158219984
0.4137519521
0.4182963091
0.417218487
0.4089697415
0.4020827247
0.4099833542
0.4067476971
0.4040996801
0.4168344514
0.4203902905
0.4211498037
0.4338268241
0.4371626773
0.4678355695
0.4833428454
0.494223863
0.5200575759
0.6682760268
0.3161027712
0.4269202178
0.4115481182
0.4005808419
0.4093359462
0.409306742
0.4114740201
0.41043714
0.4122218539
0.4270066623
0.4288394346
0.4308347746
0.4290812317
0.4329762011
0.4353463344
0.4501971622
0.4592319625
0.4603664114
0.5221848861
0.6005766017
0.3112108047
0.4220026181
0.4116783154
0.4159044648
0.4142084133
0.4229599814
0.422614425
0.425810883
0.4256210385
0.4303748404
0.4189298722
0.4218698796
0.4283416804
0.4383802617
0.4442319435
0.4447287915
0.4345324124
0.4631376266
0.4839584073
0.5263882356
0.3139301298
0.4229861378
0.4259984875
0.4349792134
0.4334049572
0.4340529335
0.4352663507
0.4367689067
0.4236990718
0.4218335682
0.412556382
0.4253574622
0.4257818638
0.4317897762
0.4236297969
0.4393218853
0.443519106
0.4592438318
0.4735562663
0.5046276985
0.3140393544
0.4267431293
0.4205942179
0.4262096394
0.4225779201
0.4268200392
0.4211145101
0.4203687711
0.4231571648
0.4294139844
0.427750129
0.4225094066
0.4201757129
0.430339821
0.4256683669
0.4284402372
0.4405792632
0.4432749905
0.4609491381
0.4905283532
0.3068898208
0.4263596074
0.4225151297
0.4171876403
0.4310244614
0.4219506549
0.4144950167
0.4189453294
0.4129215429
0.4095838135
0.4159657456
0.4204690636
0.4264747968
0.4304243393
0.4213047853
0.4267580515
0.4254699443
0.4255345073
0.4603223264
0.4823267743
0.3155397098
0.4245415865
0.4193126661
0.4122049453
0.4153242674
0.4218000601
0.4295760004
0.4319997845
0.4328051954
0.4256910348
0.4191214173
0.412682142
0.405842109
0.4032958737
0.4064782007
0.400818373
0.4075984526
0.418556315
0.4424167624
0.45556787
0.3149818952
0.4182485978
0.4058341052
0.4221657551
0.4156579153
0.4101163962
0.4090396727
0.4108241836
0.4111816633
0.4192559176
0.4197793543
0.4381253245
0.4267872139
0.4147429369
0.4158146457
0.4206176546
0.429977179
0.4373864036
0.4422538821
0.4434756492
0.3055356179
0.4181084579
0.4187762349
0.4024825505
0.4105901842
0.4074477022
0.4028946469
0.4036040352
0.399185113
0.393092714
0.3982655387
0.419013712
0.4165491053
0.4228341085
0.4303295199
0.4230647379
0.4323068583
0.41875856
0.4404134736
0.4485717235
0.3073303298
0.414209081
0.401280484
0.4068327776
0.4077936269
0.4097616609
0.4090915562
0.4179701521
0.4127726423
0.4157723631
0.4174729099
0.4108281918
0.4169295575
0.4076029098
0.4029650793
0.4050150864
0.4107868074
0.4100257153
0.4359426217
0.4396848626
0.3066501008
0.414219066
0.4110915133
0.4092069355
0.4148492521
0.4114418005
0.4214571431
0.4240241398
0.4333685591
0.4295703363
0.4194591516
0.416942518
0.4122130933
0.4305003221
0.440202938
0.4333840697
0.4319486033
0.4223077706
0.4285902069
0.4444288679
0.3062357799
0.4154420135
0.4090254655
0.4102921715
0.4101688907
0.4114492856
0.407718862
0.4112893001
0.4048306549
0.4101959235
0.4150613251
0.4229931964
0.4295991942
0.4235096667
0.4231209068
0.4253056346
0.4225141602
0.4326492009
0.4256814272
0.4313946955
0.3086422738
0.421117867
0.4207215854
0.4208950373
0.4156295348
0.4186221221
0.4136691014
0.4124404272
0.4098216166
0.4151646181
0.42284501
0.4162069532
0.4196678406
0.4233972046
0.419759894
0.4219908844
0.4171214068
0.4183288914
0.4281410866
0.4304349318
0.3206238348
0.4346691933
0.4202961158
0.417320607
0.4175625941
0.412191822
0.4132403135
0.4170964513
0.4156157475
0.4180796682
0.4125464893
0.4157278218
0.4160229812
0.4152807337
0.4162817716
0.4194133772
0.4258067417
0.4318973814
0.4370089034
0.4349443152
0.3152484486
0.4253447772
0.4203211509
0.422656086
0.4235184874
0.4230786952
0.4191635052
0.4190122993
0.4117804214
0.4061201833
0.4168534141
0.4155909178
0.4232770851
0.4224350427
0.420252611
0.4180044355
0.4237108993
0.4294394112
0.4327341667
0.4190007334
0.3150038314
0.4283744756
0.4194782044
0.4136054478
0.4102453366
0.4187620794
0.4170083017
0.4154776163
0.4208801623
0.4231560507
0.4187264347
0.4122740737
0.4093742711
0.4076877193
0.4096588008
0.4145120713
0.4172378604
0.4156935854
0.4170653604
0.4058013141
4.619807003
4.94988235
4.849833465
4.614856846
4.462170557
4.385429952
4.315181037
4.248282872
4.187980746
4.127427341
3.108778167
3.55631375
3.682613293
3.957425079
3.934573794
4.061367451
3.941789977
3.989741388
4.018227312
3.937909665
2.215632463
2.664827204
2.859321622
3.289112188
3.361189849
3.418728461
3.529315421
3.654737597
3.608006159
3.67531931
1.6601781
1.845603686
2.254905957
2.545543352
2.730039743
2.903539772
3.076449728
3.199106551
3.175767303
3.27530663
1.275368057
1.489534073
1.795991236
1.953413049
2.211932027
2.41785915
2.683970166
2.801065165
2.891623748
2.928210616
0.9670535956
1.179983589
1.375756341
1.620060423
1.748572165
1.9419498
2.317596262
2.322311856
2.476837027
2.5998806
0.8094133266
0.9917138826
1.0513035
1.296613421
1.425177241
1.546911307
1.803439486
1.962205299
2.137896883
2.208776607
0.7036869453
0.7878809585
0.9542703049
0.9996698363
1.212709737
1.336921063
1.427161343
1.628154173
1.84288328
2.006386875
0.6138894432
0.7246741108
0.8212337889
0.8648277001
0.9532111476
1.117494491
1.227772559
1.339671995
1.498176539
1.603306618
0.5570585977
0.628430021
0.7108241997
0.7630340678
0.8121909116
0.8494320035
0.9650836078
1.078219797
1.251484767
1.359637585
0.5045570911
0.5753223379
0.648530487
0.6588781215
0.6707369428
0.7445227697
0.8293711561
0.9448486336
1.067575831
1.153025872
0.4754696903
0.4905205253
0.5304202066
0.6026185503
0.6033268327
0.6777673564
0.7640314142
0.8269536398
0.8616936245
0.95355372
0.4708488751
0.4878477017
0.5307874882
0.5563398164
0.5578596455
0.5758036672
0.663243784
0.708956001
0.795701569
0.8204985108
0.4465459212
0.4482536231
0.4788104103
0.5267367879
0.508724364
0.5355256069
0.5807140726
0.6311835223
0.6914298234
0.7118643486
0.4457770909
0.4487765579
0.4726177202
0.4830552883
0.5141719307
0.5480400851
0.564081173
0.5522638329
0.5933302187
0.6510704511
0.432302454
0.4427907451
0.4563503603
0.4592693138
0.483770894
0.4817799522
0.5003448003
0.5164021194
0.5382231785
0.5804193519
0.4495386906
0.4468137968
0.4469373596
0.4368534068
0.463852407
0.485881944
0.5004074423
0.5165684043
0.5309112427
0.551602179
0.4239428051
0.4389143763
0.4516974878
0.4583560267
0.481443371
0.464912176
0.4794126654
0.4897085458
0.5082899774
0.5158889008
0.4377195408
0.4502669817
0.4573421296
0.4562514929
0.4573435823
0.4705067827
0.4750578247
0.4791514603
0.4733983105
0.4695230018
0.434642408
0.4357316977
0.4377019648
0.4546684214
0.4531180567
0.456132459
0.4570970787
0.4614690783
0.457270504
0.4677728797
0.419293733
0.4125373393
0.4269738734
0.4327356523
0.4407673695
0.4335964627
0.4342947179
0.4372785263
0.4321482793
0.4440903254
0.4153477336
0.4080443777
0.4099923403
0.413585382
)
;

boundaryField
{
    flow
    {
        type            calculated;
        value           nonuniform List<scalar> 
42
(
0.3021734629
0.3087290725
0.311133147
0.3106593111
0.3144318197
0.3207940121
0.3129816365
0.3161027712
0.3112108047
0.3139301298
0.3140393544
0.3068898208
0.3155397098
0.3149818952
0.3055356179
0.3073303298
0.3066501008
0.3062357799
0.3086422738
0.3206238348
0.3152484486
0.3150038314
0.3021734629
0.4146726787
0.4064621993
0.3954428087
0.3977558873
0.3990003722
0.3990082887
0.4005362121
0.3970061383
0.3976192462
0.4115519127
0.4025223974
0.4096266728
0.4046838401
0.4116033224
0.4320088055
0.4753591189
0.5920036143
0.933874957
2.418426544
)
;
    }
    obstacle
    {
        type            calculated;
        value           nonuniform List<scalar> 10(3.62915141 3.711290539 3.790154426 3.501128037 3.436654267 3.380957948 3.386239643 3.327618036 3.357141328 3.3721755);
    }
    frontAndBack
    {
        type            empty;
    }
    procBoundary0to1
    {
        type            processor;
        value           nonuniform List<scalar> 
21
(
3.905130783
3.832870081
3.572569957
3.375954019
3.048929519
2.645309754
2.282523396
2.113701938
1.754696017
1.491048965
1.296866149
1.005069133
0.9218513622
0.781304838
0.7194807144
0.6463203693
0.5657760431
0.5275185857
0.4631773163
0.4629806908
0.4490653967
)
;
    }
    procBoundary0to2
    {
        type            processor;
        value           nonuniform List<scalar> 
31
(
0.3185236251
0.4211659893
0.4100712506
0.4098800167
0.4152156802
0.4129526499
0.4171337536
0.425525377
0.4234048214
0.4167311231
0.4235764101
0.4254615407
0.4151787142
0.4195407843
0.4132926054
0.3993936289
0.3909532612
0.4049300575
0.4124680379
0.409809763
0.4119903269
0.4298357751
0.4327740949
0.4349100235
0.4446936421
0.4499416094
0.4126051963
0.4126784771
0.4028123052
0.4119903269
0.4142909783
)
;
    }
}


// ************************************************************************* //
