/*--------------------------------*- C++ -*----------------------------------*\
  =========                 |
  \\      /  F ield         | OpenFOAM: The Open Source CFD Toolbox
   \\    /   O peration     | Website:  https://openfoam.org
    \\  /    A nd           | Version:  7
     \\/     M anipulation  |
\*---------------------------------------------------------------------------*/
FoamFile
{
    version     2.0;
    format      ascii;
    class       volScalarField;
    location    "0.002";
    object      rhoNMean;
}
// * * * * * * * * * * * * * * * * * * * * * * * * * * * * * * * * * * * * * //

dimensions      [0 -3 0 0 0 0 0];

internalField   nonuniform List<scalar> 
654
(
7.694903181e+19
9.974527361e+19
1.006617054e+20
9.937036968e+19
9.92349877e+19
9.864138981e+19
9.861014782e+19
9.81831739e+19
9.750626402e+19
9.70688761e+19
9.798530793e+19
9.803737792e+19
9.824565788e+19
9.65169342e+19
9.717301608e+19
9.70897041e+19
9.692308013e+19
9.958906364e+19
1.058687045e+20
1.344863712e+20
7.746973171e+19
9.833938387e+19
9.937036968e+19
9.886008377e+19
1.005992214e+20
1.000889355e+20
1.001514195e+20
1.008283294e+20
1.020675952e+20
1.009949534e+20
1.016718633e+20
9.974527361e+19
9.948492365e+19
1.002659735e+20
1.002555595e+20
1.008803994e+20
1.020155252e+20
1.036609369e+20
1.112631555e+20
1.312372038e+20
7.719896776e+19
1.005159095e+20
1.007762594e+20
1.005263235e+20
1.007241894e+20
1.002139035e+20
9.959947763e+19
9.927664369e+19
9.92662297e+19
1.000160376e+20
1.009949534e+20
1.008283294e+20
1.018905572e+20
1.024945691e+20
1.035776249e+20
1.035984529e+20
1.034838989e+20
1.046398527e+20
1.102634117e+20
1.202816778e+20
7.732393574e+19
9.883925577e+19
9.996396757e+19
1.008908134e+20
1.004638395e+20
1.008387434e+20
1.009012274e+20
1.015052393e+20
1.010053674e+20
1.010886794e+20
1.007241894e+20
1.006929474e+20
1.010366094e+20
1.004013555e+20
1.001722475e+20
1.013802713e+20
1.009637114e+20
1.047127507e+20
1.08420134e+20
1.152621307e+20
7.75738717e+19
1.006408774e+20
1.004846675e+20
9.931829969e+19
1.002243175e+20
1.010990934e+20
1.011095074e+20
1.006617054e+20
1.012136473e+20
1.003180435e+20
1.006096354e+20
1.012969593e+20
1.011615773e+20
1.014323413e+20
9.944326766e+19
9.906836373e+19
1.008491574e+20
1.012657173e+20
1.035463829e+20
1.087429679e+20
7.822995357e+19
9.937036968e+19
1.002347315e+20
9.866221781e+19
9.81311039e+19
9.833938387e+19
9.696473612e+19
9.721467207e+19
9.695432212e+19
9.681894015e+19
9.662107418e+19
9.60066483e+19
9.616285827e+19
9.912043372e+19
1.003701135e+20
1.016614493e+20
1.011824053e+20
1.013802713e+20
1.026716071e+20
1.058478765e+20
7.763635568e+19
9.86726318e+19
1.000264516e+20
1.006512914e+20
1.007346034e+20
9.932871368e+19
9.839145386e+19
9.966196162e+19
9.853724983e+19
9.81415179e+19
9.839145386e+19
9.938078367e+19
9.955782164e+19
9.809986191e+19
9.86726318e+19
9.876635779e+19
1.001618335e+20
1.012344753e+20
1.015156533e+20
1.045357127e+20
7.802167361e+19
9.963071963e+19
9.973485961e+19
9.759999e+19
9.841228185e+19
9.879759978e+19
9.92245737e+19
9.948492365e+19
1.004742535e+20
1.020051112e+20
1.024424991e+20
1.03213135e+20
1.024008431e+20
1.012032333e+20
1.013594433e+20
1.020675952e+20
1.019426272e+20
1.019009712e+20
1.03004855e+20
1.040670828e+20
7.795918962e+19
1.004638395e+20
1.010053674e+20
1.017551752e+20
1.012761313e+20
1.02775747e+20
1.03108995e+20
1.034318289e+20
1.02796575e+20
1.03067339e+20
1.015781373e+20
1.014948253e+20
1.009532974e+20
1.012969593e+20
1.011095074e+20
1.004742535e+20
9.972444561e+19
1.017343472e+20
1.017135192e+20
1.025778811e+20
7.852154552e+19
1.004325975e+20
1.022446331e+20
1.035984529e+20
1.036817649e+20
1.03129823e+20
1.024112571e+20
1.020675952e+20
1.004846675e+20
1.008595714e+20
9.929747169e+19
1.015156533e+20
1.020988372e+20
1.020884232e+20
1.017343472e+20
1.026611931e+20
1.021613212e+20
1.02848645e+20
1.035463829e+20
1.03140237e+20
7.761552769e+19
9.968278962e+19
9.952657965e+19
9.947450966e+19
9.988065558e+19
1.004534255e+20
1.000160376e+20
1.016510353e+20
1.015989653e+20
1.019530412e+20
1.023383591e+20
1.018072452e+20
1.007450174e+20
1.018072452e+20
1.020155252e+20
1.006304634e+20
1.026716071e+20
1.027028491e+20
1.024633271e+20
1.02984027e+20
7.693861781e+19
9.989106958e+19
1.004325975e+20
9.945368166e+19
1.005159095e+20
1.004742535e+20
9.887049777e+19
9.890173976e+19
9.834979786e+19
9.886008377e+19
9.890173976e+19
9.973485961e+19
1.003388715e+20
1.005054955e+20
1.008908134e+20
1.016093793e+20
9.967237562e+19
9.87247018e+19
9.937036968e+19
9.942243967e+19
7.737600573e+19
9.942243967e+19
1.010157814e+20
9.92454017e+19
9.935995568e+19
1.000576935e+20
1.014115133e+20
1.025153971e+20
1.033172749e+20
1.012969593e+20
1.005263235e+20
9.997438156e+19
9.931829969e+19
9.847476584e+19
9.858931982e+19
9.856849182e+19
9.857890582e+19
9.972444561e+19
1.003701135e+20
1.006200494e+20
7.826119557e+19
9.938078367e+19
9.889132576e+19
9.973485961e+19
9.914126172e+19
9.895380975e+19
9.965154762e+19
9.959947763e+19
9.950575165e+19
1.006096354e+20
1.000785215e+20
1.002972155e+20
1.008803994e+20
1.001305915e+20
9.896422375e+19
9.974527361e+19
9.960989163e+19
1.000368656e+20
1.005263235e+20
9.949533765e+19
7.718855377e+19
9.947450966e+19
1.005888075e+20
9.898505175e+19
1.003076295e+20
9.840186785e+19
9.773537198e+19
9.688142414e+19
9.624617025e+19
9.509021647e+19
9.591292231e+19
9.898505175e+19
9.812068991e+19
9.898505175e+19
1.004117695e+20
9.985982759e+19
1.003180435e+20
9.87142878e+19
1.000368656e+20
9.985982759e+19
7.743848972e+19
9.920374571e+19
9.940161167e+19
9.97765156e+19
9.950575165e+19
1.005679795e+20
1.000264516e+20
1.008387434e+20
1.007346034e+20
1.011095074e+20
1.005367375e+20
9.995355357e+19
1.004117695e+20
1.000993495e+20
9.806861992e+19
9.765205999e+19
9.797489393e+19
9.778744197e+19
1.002763875e+20
1.001097635e+20
7.631377793e+19
9.828731388e+19
9.934954168e+19
9.899546575e+19
9.972444561e+19
9.92349877e+19
1.008179154e+20
1.010470234e+20
1.018072452e+20
1.014844113e+20
1.009532974e+20
1.000056236e+20
9.933912768e+19
1.014739973e+20
1.021196652e+20
1.024112571e+20
1.02942371e+20
1.016093793e+20
1.011407493e+20
1.013073733e+20
7.850071752e+19
9.97973436e+19
1.003284575e+20
1.003701135e+20
9.948492365e+19
9.930788569e+19
9.847476584e+19
9.848517984e+19
9.800613593e+19
9.878718578e+19
9.896422375e+19
1.004325975e+20
1.007762594e+20
1.006512914e+20
1.011199214e+20
1.015468953e+20
1.014115133e+20
1.02869473e+20
1.023071171e+20
1.022238051e+20
7.711565578e+19
9.970361761e+19
1.005367375e+20
1.016197933e+20
1.014115133e+20
1.017239332e+20
1.013698573e+20
1.015573093e+20
1.013177873e+20
1.019322132e+20
1.025153971e+20
1.015364813e+20
1.009637114e+20
1.008491574e+20
1.003701135e+20
1.000576935e+20
9.97973436e+19
9.900587974e+19
9.943285366e+19
9.907877773e+19
7.872982548e+19
1.014635833e+20
1.010990934e+20
1.009012274e+20
1.005992214e+20
1.007658454e+20
1.009637114e+20
1.018801432e+20
1.006929474e+20
1.007554314e+20
1.004117695e+20
1.001514195e+20
1.002034895e+20
9.967237562e+19
9.970361761e+19
9.996396757e+19
1.001097635e+20
1.005679795e+20
1.006512914e+20
1.003180435e+20
7.805291561e+19
9.963071963e+19
1.005679795e+20
1.005471515e+20
1.001514195e+20
9.942243967e+19
9.856849182e+19
9.87247018e+19
9.853724983e+19
9.7631232e+19
9.954740764e+19
9.958906364e+19
1.008595714e+20
1.019113852e+20
1.022758751e+20
1.015885513e+20
1.016302073e+20
1.019946972e+20
1.025674671e+20
1.02796575e+20
7.740724773e+19
9.952657965e+19
9.971403161e+19
9.850600784e+19
9.800613593e+19
9.966196162e+19
9.969320362e+19
9.954740764e+19
9.972444561e+19
9.959947763e+19
9.951616565e+19
9.928705769e+19
9.908919173e+19
9.839145386e+19
9.899546575e+19
9.97661016e+19
1.006512914e+20
9.947450966e+19
9.842269585e+19
9.732922605e+19
2.423152348e+20
2.843994585e+20
2.982462798e+20
2.947241509e+20
2.97728156e+20
3.011641756e+20
3.017177162e+20
3.108291947e+20
3.153518734e+20
3.138827484e+20
1.667759216e+20
1.963552705e+20
2.138625449e+20
2.390612652e+20
2.468210466e+20
2.579150395e+20
2.594574027e+20
2.666194493e+20
2.680811515e+20
2.713569141e+20
1.386106684e+20
1.605988284e+20
1.761420404e+20
2.008217055e+20
2.142439349e+20
2.223267458e+20
2.342080094e+20
2.432304304e+20
2.442578575e+20
2.512465039e+20
1.271564505e+20
1.358281796e+20
1.526091079e+20
1.678102105e+20
1.812692789e+20
1.94832111e+20
2.073348962e+20
2.177999486e+20
2.214626684e+20
2.302007257e+20
1.169772459e+20
1.240742226e+20
1.348296118e+20
1.422247017e+20
1.590927755e+20
1.722174764e+20
1.886021785e+20
1.994267822e+20
2.084510597e+20
2.117049389e+20
1.104454154e+20
1.161926525e+20
1.229306998e+20
1.338491284e+20
1.404511892e+20
1.496677639e+20
1.667418923e+20
1.747206902e+20
1.85490047e+20
1.959818496e+20
1.092644604e+20
1.147405074e+20
1.153018338e+20
1.21280434e+20
1.262040752e+20
1.334696263e+20
1.4465276e+20
1.534828906e+20
1.647952877e+20
1.714284416e+20
1.054080677e+20
1.072693263e+20
1.119112267e+20
1.147826961e+20
1.212079151e+20
1.265229298e+20
1.295488934e+20
1.398182597e+20
1.500591155e+20
1.609389585e+20
1.042793674e+20
1.072061894e+20
1.083616848e+20
1.121366552e+20
1.155885783e+20
1.223787168e+20
1.297014576e+20
1.317402128e+20
1.378876785e+20
1.426881488e+20
1.046974046e+20
1.072061895e+20
1.098026929e+20
1.105255577e+20
1.106676293e+20
1.109631956e+20
1.134751537e+20
1.198755815e+20
1.274960792e+20
1.339803189e+20
1.022727891e+20
1.041756258e+20
1.052571601e+20
1.054895443e+20
1.05488814e+20
1.096972088e+20
1.119713054e+20
1.161438749e+20
1.217475349e+20
1.279672394e+20
9.975411523e+19
9.910364084e+19
1.002878016e+20
1.027901556e+20
1.034043946e+20
1.066025746e+20
1.088437376e+20
1.101731454e+20
1.111569481e+20
1.133910898e+20
1.019488103e+20
1.035547814e+20
1.035830483e+20
1.032169365e+20
1.037482159e+20
1.03583683e+20
1.051168088e+20
1.066609495e+20
1.112564411e+20
1.125893454e+20
9.927337218e+19
9.810397508e+19
9.966265767e+19
1.008269637e+20
1.006215873e+20
1.011815543e+20
1.042232175e+20
1.070670477e+20
1.080063027e+20
1.081018057e+20
1.001512511e+20
1.005452633e+20
1.014427271e+20
1.020326201e+20
1.051987152e+20
1.061264775e+20
1.058905282e+20
1.052670489e+20
1.063038499e+20
1.09426911e+20
1.007365024e+20
1.014291777e+20
1.024705056e+20
1.030675636e+20
1.02039852e+20
1.020796481e+20
1.011610346e+20
1.031377797e+20
1.049219876e+20
1.065985366e+20
1.008201098e+20
1.008504236e+20
1.000758879e+20
9.922653569e+19
1.002025545e+20
1.018740598e+20
1.039180896e+20
1.037743663e+20
1.031532054e+20
1.037590269e+20
1.020324176e+20
1.012923815e+20
1.033923269e+20
1.035796998e+20
1.033614162e+20
1.022527738e+20
1.029155234e+20
1.020621709e+20
1.035180169e+20
1.040708162e+20
1.015203227e+20
1.016712019e+20
1.006480535e+20
1.009229901e+20
1.009224313e+20
1.018415986e+20
1.021636001e+20
1.031597316e+20
1.010085555e+20
1.015208258e+20
1.004334255e+20
1.013765638e+20
1.020042964e+20
1.030035458e+20
1.024266515e+20
1.029561005e+20
1.032969349e+20
1.030170487e+20
1.024899119e+20
1.022334863e+20
1.012485979e+20
1.007346729e+20
1.006904361e+20
1.004108531e+20
9.974054402e+19
9.805445886e+19
9.856744134e+19
9.713412396e+19
9.687402629e+19
9.734507544e+19
9.760122377e+19
9.74199939e+19
9.706672476e+19
9.697526764e+19
)
;

boundaryField
{
    flow
    {
        type            calculated;
        value           nonuniform List<scalar> 
42
(
7.694903181e+19
7.746973171e+19
7.719896776e+19
7.732393574e+19
7.75738717e+19
7.822995357e+19
7.763635568e+19
7.802167361e+19
7.795918962e+19
7.852154552e+19
7.761552769e+19
7.693861781e+19
7.737600573e+19
7.826119557e+19
7.718855377e+19
7.743848972e+19
7.631377793e+19
7.850071752e+19
7.711565578e+19
7.872982548e+19
7.805291561e+19
7.740724773e+19
7.694903181e+19
9.974527361e+19
1.006617054e+20
9.937036968e+19
9.92349877e+19
9.864138981e+19
9.861014782e+19
9.81831739e+19
9.750626402e+19
9.70688761e+19
9.798530793e+19
9.803737792e+19
9.824565788e+19
9.65169342e+19
9.717301608e+19
9.70897041e+19
9.692308013e+19
9.958906364e+19
1.058687045e+20
1.344863712e+20
)
;
    }
    obstacle
    {
        type            calculated;
        value           nonuniform List<scalar> 10(137.2726975 152.6108876 159.3001427 137.0232008 140.1795863 134.2679474 132.2174982 139.5215849 146.6982827 139.237288);
    }
    frontAndBack
    {
        type            empty;
    }
    procBoundary0to1
    {
        type            processor;
        value           nonuniform List<scalar> 
21
(
3.004011662e+20
2.679168762e+20
2.510914494e+20
2.379003149e+20
2.232958447e+20
2.027912584e+20
1.797179898e+20
1.695554322e+20
1.51271802e+20
1.402006712e+20
1.334480667e+20
1.168918474e+20
1.164543855e+20
1.101504591e+20
1.12180728e+20
1.079070688e+20
1.042279089e+20
1.034875909e+20
1.012105498e+20
1.018499153e+20
9.832779338e+19
)
;
    }
    procBoundary0to2
    {
        type            processor;
        value           nonuniform List<scalar> 
31
(
7.767801168e+19
9.892256776e+19
9.954740764e+19
9.955782164e+19
1.001201775e+20
1.000264516e+20
9.993272557e+19
1.007866734e+20
1.005159095e+20
9.97661016e+19
1.010470234e+20
1.015781373e+20
9.946409566e+19
9.892256776e+19
9.912043372e+19
9.665231618e+19
9.515270045e+19
9.677728415e+19
9.843310985e+19
9.828731388e+19
9.671061475e+19
9.700488012e+19
9.812064518e+19
9.835241567e+19
9.948298101e+19
1.003850212e+20
9.88448843e+19
9.830390896e+19
9.718327688e+19
9.671061475e+19
9.662317282e+19
)
;
    }
}


// ************************************************************************* //
