/*--------------------------------*- C++ -*----------------------------------*\
  =========                 |
  \\      /  F ield         | OpenFOAM: The Open Source CFD Toolbox
   \\    /   O peration     | Website:  https://openfoam.org
    \\  /    A nd           | Version:  7
     \\/     M anipulation  |
\*---------------------------------------------------------------------------*/
FoamFile
{
    version     2.0;
    format      ascii;
    class       volScalarField;
    location    "0.002";
    object      rhoN;
}
// * * * * * * * * * * * * * * * * * * * * * * * * * * * * * * * * * * * * * //

dimensions      [0 -3 0 0 0 0 0];

internalField   nonuniform List<scalar> 
654
(
7.289798656e+19
5.20699904e+19
6.248398848e+19
1.145539789e+20
9.372598272e+19
1.145539789e+20
7.289798656e+19
1.457959731e+20
8.331198464e+19
1.24967977e+20
1.145539789e+20
8.331198464e+19
6.248398848e+19
8.331198464e+19
1.145539789e+20
8.331198464e+19
1.145539789e+20
1.24967977e+20
1.145539789e+20
8.331198464e+19
1.562099712e+20
9.372598272e+19
7.289798656e+19
7.289798656e+19
4.165599232e+19
9.372598272e+19
3.124199424e+19
5.20699904e+19
1.041399808e+20
6.248398848e+19
1.24967977e+20
6.248398848e+19
6.248398848e+19
5.20699904e+19
7.289798656e+19
6.248398848e+19
8.331198464e+19
6.248398848e+19
7.289798656e+19
7.289798656e+19
7.289798656e+19
6.248398848e+19
8.331198464e+19
1.35381975e+20
1.35381975e+20
1.145539789e+20
6.248398848e+19
1.24967977e+20
1.457959731e+20
6.248398848e+19
7.289798656e+19
9.372598272e+19
1.24967977e+20
1.145539789e+20
8.331198464e+19
5.20699904e+19
6.248398848e+19
7.289798656e+19
6.248398848e+19
2.317191489e-289
7.289798656e+19
1.041399808e+20
1.35381975e+20
6.248398848e+19
1.35381975e+20
7.289798656e+19
1.041399808e+20
5.20699904e+19
8.331198464e+19
1.145539789e+20
6.248398848e+19
7.289798656e+19
3.124199424e+19
8.331198464e+19
4.165599232e+19
7.289798656e+19
1.041399808e+20
6.248398848e+19
4.165599232e+19
7.289798656e+19
1.24967977e+20
9.372598272e+19
1.041399808e+20
8.331198464e+19
9.372598272e+19
5.20699904e+19
7.289798656e+19
5.20699904e+19
6.248398848e+19
8.331198464e+19
9.372598272e+19
7.289798656e+19
1.145539789e+20
9.372598272e+19
1.35381975e+20
8.331198464e+19
1.145539789e+20
1.24967977e+20
1.24967977e+20
5.20699904e+19
9.372598272e+19
7.289798656e+19
1.041399808e+20
8.331198464e+19
1.041399808e+20
6.248398848e+19
1.24967977e+20
9.372598272e+19
8.331198464e+19
7.289798656e+19
9.372598272e+19
1.041399808e+20
1.145539789e+20
1.145539789e+20
7.289798656e+19
7.289798656e+19
5.20699904e+19
1.24967977e+20
9.372598272e+19
6.248398848e+19
1.041399808e+20
1.562099712e+20
5.20699904e+19
3.124199424e+19
1.24967977e+20
8.331198464e+19
1.145539789e+20
8.331198464e+19
1.041399808e+20
7.289798656e+19
2.082799616e+19
9.372598272e+19
7.289798656e+19
4.165599232e+19
6.248398848e+19
3.124199424e+19
9.372598272e+19
7.289798656e+19
1.041399808e+20
4.165599232e+19
5.20699904e+19
6.248398848e+19
9.372598272e+19
1.24967977e+20
9.372598272e+19
1.35381975e+20
3.124199424e+19
1.041399808e+20
5.20699904e+19
7.289798656e+19
9.372598272e+19
1.041399808e+20
1.24967977e+20
9.372598272e+19
4.165599232e+19
4.165599232e+19
7.289798656e+19
9.372598272e+19
8.331198464e+19
1.24967977e+20
1.457959731e+20
1.041399808e+20
9.372598272e+19
1.978659635e+20
1.457959731e+20
1.041399808e+20
9.372598272e+19
1.145539789e+20
1.562099712e+20
1.24967977e+20
9.372598272e+19
7.289798656e+19
5.20699904e+19
7.289798656e+19
4.165599232e+19
1.041399808e+20
6.248398848e+19
1.145539789e+20
8.331198464e+19
6.248398848e+19
1.041399808e+20
4.165599232e+19
1.041399808e+20
1.457959731e+20
5.20699904e+19
1.35381975e+20
1.457959731e+20
9.372598272e+19
3.124199424e+19
1.457959731e+20
8.331198464e+19
1.145539789e+20
6.248398848e+19
1.35381975e+20
8.331198464e+19
8.331198464e+19
6.248398848e+19
1.041399808e+20
1.041399808e+20
5.20699904e+19
9.372598272e+19
9.372598272e+19
1.24967977e+20
1.041399808e+20
1.041399808e+20
6.248398848e+19
9.372598272e+19
5.20699904e+19
6.248398848e+19
1.145539789e+20
1.666239693e+20
8.331198464e+19
1.24967977e+20
4.165599232e+19
3.124199424e+19
9.372598272e+19
5.20699904e+19
8.331198464e+19
5.20699904e+19
9.372598272e+19
1.457959731e+20
1.145539789e+20
8.331198464e+19
9.372598272e+19
8.331198464e+19
6.248398848e+19
1.35381975e+20
1.145539789e+20
8.331198464e+19
1.041399808e+20
1.24967977e+20
8.331198464e+19
5.20699904e+19
2.082799616e+19
7.289798656e+19
8.331198464e+19
8.331198464e+19
6.248398848e+19
2.082799616e+19
1.041399808e+20
9.372598272e+19
8.331198464e+19
1.145539789e+20
1.041399808e+20
9.372598272e+19
4.165599232e+19
6.248398848e+19
1.041399808e+20
9.372598272e+19
1.145539789e+20
6.248398848e+19
1.145539789e+20
1.041399808e+20
1.041399808e+20
7.289798656e+19
1.35381975e+20
1.145539789e+20
5.20699904e+19
4.165599232e+19
8.331198464e+19
7.289798656e+19
5.20699904e+19
9.372598272e+19
6.248398848e+19
1.041399808e+20
1.35381975e+20
7.289798656e+19
1.041399808e+20
4.165599232e+19
3.124199424e+19
9.372598272e+19
1.145539789e+20
7.289798656e+19
9.372598272e+19
1.24967977e+20
8.331198464e+19
8.331198464e+19
6.248398848e+19
9.372598272e+19
8.331198464e+19
1.770379674e+20
1.145539789e+20
9.372598272e+19
7.289798656e+19
1.041399808e+20
6.248398848e+19
1.562099712e+20
6.248398848e+19
8.331198464e+19
1.457959731e+20
8.331198464e+19
1.041399808e+20
8.331198464e+19
5.20699904e+19
1.145539789e+20
1.041399808e+20
7.289798656e+19
6.248398848e+19
7.289798656e+19
5.20699904e+19
5.20699904e+19
1.041399808e+20
8.331198464e+19
6.248398848e+19
1.145539789e+20
1.145539789e+20
8.331198464e+19
1.145539789e+20
1.145539789e+20
5.20699904e+19
8.331198464e+19
1.145539789e+20
8.331198464e+19
3.124199424e+19
5.20699904e+19
9.372598272e+19
7.289798656e+19
7.289798656e+19
1.35381975e+20
8.331198464e+19
7.289798656e+19
5.20699904e+19
1.24967977e+20
5.20699904e+19
3.124199424e+19
1.35381975e+20
7.289798656e+19
4.165599232e+19
6.248398848e+19
8.331198464e+19
7.289798656e+19
6.248398848e+19
6.248398848e+19
1.041399808e+20
5.20699904e+19
8.331198464e+19
7.289798656e+19
8.331198464e+19
7.289798656e+19
4.165599232e+19
9.372598272e+19
9.372598272e+19
4.165599232e+19
8.331198464e+19
1.041399808e+20
1.666239693e+20
6.248398848e+19
1.145539789e+20
9.372598272e+19
1.145539789e+20
9.372598272e+19
4.165599232e+19
5.20699904e+19
1.145539789e+20
1.24967977e+20
1.24967977e+20
8.331198464e+19
1.041399808e+20
7.289798656e+19
7.289798656e+19
1.041399808e+20
8.331198464e+19
7.289798656e+19
1.457959731e+20
8.331198464e+19
8.331198464e+19
9.372598272e+19
1.24967977e+20
8.331198464e+19
7.289798656e+19
5.20699904e+19
8.331198464e+19
6.248398848e+19
1.041399808e+20
8.331198464e+19
5.20699904e+19
7.289798656e+19
7.289798656e+19
6.248398848e+19
7.289798656e+19
1.145539789e+20
8.331198464e+19
1.24967977e+20
6.248398848e+19
1.24967977e+20
1.24967977e+20
6.248398848e+19
9.372598272e+19
6.248398848e+19
6.248398848e+19
6.248398848e+19
6.248398848e+19
8.331198464e+19
9.372598272e+19
1.24967977e+20
5.20699904e+19
6.248398848e+19
7.289798656e+19
5.20699904e+19
5.20699904e+19
1.041399808e+20
1.24967977e+20
1.35381975e+20
4.165599232e+19
7.289798656e+19
7.289798656e+19
8.331198464e+19
1.145539789e+20
4.165599232e+19
1.35381975e+20
1.041399808e+20
1.457959731e+20
1.041399808e+20
8.331198464e+19
1.041399808e+20
7.289798656e+19
1.041399808e+20
9.372598272e+19
8.331198464e+19
1.041399808e+19
6.248398848e+19
1.24967977e+20
7.289798656e+19
1.24967977e+20
7.289798656e+19
1.457959731e+20
7.289798656e+19
6.248398848e+19
1.24967977e+20
4.165599232e+19
1.041399808e+20
5.20699904e+19
8.331198464e+19
1.35381975e+20
4.165599232e+19
8.331198464e+19
8.331198464e+19
7.289798656e+19
8.331198464e+19
6.248398848e+19
1.254111454e+20
8.418232389e+19
9.536082556e+19
4.267808e+19
4.29777201e+19
5.410199684e+19
6.53847039e+19
6.585364294e+19
7.738424993e+19
5.567666177e+19
8.360743029e+19
9.470511438e+19
5.297823645e+19
6.401712002e+19
4.297772011e+19
9.738359437e+19
4.358980263e+19
5.487803583e+19
4.421957139e+19
3.340599706e+19
9.405835905e+19
8.418232386e+19
1.165521201e+20
7.468664002e+19
8.595544028e+19
7.574279557e+19
8.71796052e+19
2.195121433e+19
5.527446424e+19
6.681199412e+19
8.360743026e+19
4.209116196e+19
6.357388374e+19
9.602567996e+19
6.446658012e+19
7.574279557e+19
9.807705592e+19
6.585364299e+19
6.632935708e+19
1.002179912e+20
6.27055727e+19
6.31367429e+19
4.238258916e+19
4.267808004e+19
5.372215018e+19
8.6563195e+19
7.628215461e+19
5.487803583e+19
6.632935713e+19
7.794732653e+19
5.225464391e+19
1.262734858e+20
7.416953098e+19
1.600427999e+20
4.297772008e+19
1.406651917e+20
5.448725321e+19
5.487803575e+19
5.52744642e+19
7.794732653e+19
3.135278635e+19
1.052279048e+20
8.476517832e+19
9.60256801e+19
5.372215018e+19
7.574279562e+19
6.538470395e+19
6.585364299e+19
6.632935708e+19
8.908265883e+19
7.315650148e+19
7.365953343e+19
9.536082561e+19
8.535615997e+19
1.181887302e+20
1.298447924e+20
3.269235197e+19
1.097560717e+20
5.527446424e+19
1.002179912e+20
7.315650148e+19
1.157506953e+20
8.476517826e+19
1.1736472e+20
8.595544028e+19
1.19024393e+20
4.35898026e+19
6.585364299e+19
1.105489285e+20
1.002179912e+20
7.315650153e+19
1.052279049e+20
5.297823645e+19
9.602568003e+19
5.372215014e+19
3.246119812e+19
7.628215461e+19
5.487803583e+19
8.843914278e+19
4.454132941e+19
1.045092878e+20
8.418232386e+19
6.35738837e+19
8.535616003e+19
6.446658017e+19
8.656319494e+19
9.807705585e+19
1.097560716e+20
7.738424993e+19
4.454132941e+19
5.225464391e+19
7.365953343e+19
8.476517832e+19
1.1736472e+20
4.297772011e+19
8.6563195e+19
1.08974507e+20
7.682925064e+19
1.216038219e+20
1.11353324e+20
5.225464391e+19
5.261395256e+19
7.416953128e+19
9.602568003e+19
1.504220198e+20
9.738359417e+19
6.538470381e+19
7.682924951e+19
7.73842496e+19
5.567666177e+19
5.225464374e+19
1.052279042e+20
7.416953048e+19
7.468663977e+19
6.446658021e+19
1.082039934e+20
5.448725299e+19
5.487803575e+19
8.84391424e+19
7.794732592e+19
3.135278652e+19
9.47051146e+19
8.476517826e+19
5.33476002e+19
1.181887312e+20
1.29844793e+20
6.538470404e+19
8.780485781e+19
3.316467864e+19
1.224886559e+20
8.360743015e+19
8.418232409e+19
7.416953148e+19
5.33476002e+19
9.669987032e+19
5.41019971e+19
7.628215471e+19
4.390242829e+19
9.94940352e+19
4.454132941e+19
5.225464384e+19
6.313674264e+19
4.238258884e+19
6.40171198e+19
1.289331604e+20
6.492239607e+19
1.089745067e+20
1.207316795e+20
4.421957151e+19
1.224886559e+20
6.270557261e+19
9.47051146e+19
9.536082619e+19
9.60256797e+19
7.521100973e+19
8.656319476e+19
8.717960478e+19
9.878046435e+19
4.421957151e+19
7.794732648e+19
8.360743071e+19
4.209116205e+19
8.476517826e+19
6.401712024e+19
5.372215018e+19
7.574279541e+19
7.628215471e+19
6.58536429e+19
1.216038208e+20
1.113533243e+20
7.315650138e+19
8.418232409e+19
9.536082555e+19
7.468663977e+19
5.372215018e+19
7.574279594e+19
1.089745067e+20
5.487803575e+19
4.421957151e+19
1.002179912e+20
1.045092877e+20
1.052279044e+20
7.416953098e+19
4.267808016e+19
1.611664505e+20
7.574279541e+19
2.179490135e+19
4.390242891e+19
9.949403591e+19
8.908265883e+19
9.405835892e+19
4.209116176e+19
4.238258913e+19
8.535616032e+19
)
;

boundaryField
{
    flow
    {
        type            zeroGradient;
    }
    obstacle
    {
        type            calculated;
        value           nonuniform List<scalar> 10(290.2156444 129.9049349 2.225073859e-308 81.71802649 2.225073859e-308 2.225073859e-308 36.01702313 2.225073859e-308 2.225073859e-308 2.225073859e-308);
    }
    frontAndBack
    {
        type            empty;
    }
    procBoundary0to1
    {
        type            processor;
        value           nonuniform List<scalar> 
21
(
5.608475528e+19
4.486780426e+19
5.608475528e+19
2.243390211e+19
7.851865739e+19
8.973560858e+19
8.973560845e+19
6.730170633e+19
8.973560851e+19
6.730170633e+19
7.851865739e+19
7.851865767e+19
1.233864613e+20
1.121695102e+20
8.973560883e+19
4.486780409e+19
6.730170614e+19
6.730170662e+19
5.608475552e+19
2.243390205e+19
5.608475552e+19
)
;
    }
    procBoundary0to2
    {
        type            processor;
        value           nonuniform List<scalar> 
31
(
8.331198464e+19
3.124199424e+19
1.562099712e+20
1.145539789e+20
1.35381975e+20
6.248398848e+19
4.165599232e+19
7.289798656e+19
7.289798656e+19
1.35381975e+20
7.289798656e+19
6.248398848e+19
6.248398848e+19
1.24967977e+20
6.248398848e+19
9.372598272e+19
8.331198464e+19
8.331198464e+19
4.165599232e+19
3.124199424e+19
9.669987032e+19
9.73835941e+19
9.807705538e+19
7.682925005e+19
1.326587145e+20
1.002179912e+20
8.360743015e+19
1.367962766e+20
5.297823641e+19
9.669987032e+19
8.535615974e+19
)
;
    }
}


// ************************************************************************* //
