/*--------------------------------*- C++ -*----------------------------------*\
  =========                 |
  \\      /  F ield         | OpenFOAM: The Open Source CFD Toolbox
   \\    /   O peration     | Website:  https://openfoam.org
    \\  /    A nd           | Version:  7
     \\/     M anipulation  |
\*---------------------------------------------------------------------------*/
FoamFile
{
    version     2.0;
    format      ascii;
    class       volScalarField;
    location    "0.003";
    object      mag(U);
}
// * * * * * * * * * * * * * * * * * * * * * * * * * * * * * * * * * * * * * //

dimensions      [0 1 -1 0 0 0 0];

internalField   nonuniform List<scalar> 
1000
(
3.21793e-14
1.05143e-13
1.34948e-13
1.84888e-13
1.52364e-13
2.12829e-13
2.68883e-13
2.44111e-13
2.2326e-13
1.39809e-13
1.2441e-13
6.288e-14
1.92058e-14
5.72086e-14
3.49521e-14
1.02339e-13
1.35704e-13
1.44076e-13
1.49957e-13
2.46614e-13
2.08917e-13
2.3123e-13
2.23887e-13
1.96534e-13
6.81682e-14
3.47982e-14
2.52543e-14
3.82711e-14
4.63237e-14
1.03346e-13
2.28265e-13
2.26485e-13
2.11769e-13
2.32725e-13
1.97937e-13
1.50626e-13
1.05222e-13
8.77391e-14
1.07268e-13
1.84312e-13
2.43996e-13
2.44962e-13
1.78564e-13
2.17352e-13
2.06883e-13
1.78082e-13
3.07691e-13
3.49229e-13
3.28725e-13
2.83697e-13
2.10457e-13
2.65701e-13
3.19862e-13
2.93672e-13
4.00516e-13
5.01514e-13
4.92621e-13
3.84688e-13
2.64693e-13
2.2855e-13
2.0542e-13
1.62949e-13
1.79958e-13
1.99766e-13
1.52404e-13
7.95806e-14
3.09959e-14
4.69733e-14
1.1011e-13
1.22862e-13
1.7571e-13
1.63838e-13
1.56151e-13
9.4637e-14
6.7088e-14
4.3756e-14
1.03379e-14
2.18408e-14
1.10223e-14
4.662e-14
3.24285e-14
4.63674e-14
3.72536e-14
4.90565e-14
3.27386e-14
1.70009e-13
1.88659e-13
2.08255e-13
2.22078e-13
1.44029e-13
6.81871e-14
4.146e-14
1.03288e-14
4.41811e-14
5.70729e-14
8.90141e-15
2.31506e-14
3.38212e-14
7.38342e-14
7.35196e-14
1.65244e-13
1.13638e-13
9.59006e-14
3.1066e-14
7.97176e-14
1.32715e-13
1.44932e-13
1.67545e-13
1.94861e-13
1.2992e-13
3.13893e-14
3.65204e-14
8.77137e-14
5.75892e-14
1.57898e-14
4.82685e-14
5.83937e-14
6.83244e-15
3.59215e-14
1.05666e-13
1.71725e-13
9.34879e-14
6.34399e-14
3.10024e-14
1.40559e-13
1.58159e-13
2.09147e-13
1.76814e-13
1.89255e-13
1.33424e-13
8.54638e-14
9.68511e-14
6.69702e-14
1.09954e-13
9.5453e-14
1.69832e-13
1.2476e-13
1.76663e-13
1.32185e-13
1.3208e-13
1.40794e-13
1.26015e-13
1.40206e-13
8.84393e-14
6.69615e-15
1.92564e-15
6.31743e-14
1.03938e-13
1.29727e-13
1.3841e-13
7.40588e-14
1.01648e-13
1.01777e-13
8.29611e-14
1.66717e-13
1.18498e-13
5.61999e-14
6.78233e-14
4.45339e-14
1.87232e-14
1.16353e-14
6.49866e-14
3.80037e-14
4.1662e-14
1.69238e-14
3.50712e-14
1.85332e-15
5.02872e-14
6.6147e-14
1.97563e-14
5.24883e-14
5.12785e-15
9.92317e-14
2.00887e-13
1.95674e-13
4.94965e-14
1.3858e-13
1.13798e-13
2.63049e-14
1.55295e-14
8.70279e-14
1.22894e-13
1.04098e-13
1.25746e-13
1.55668e-13
1.39715e-13
3.78571e-14
1.99632e-14
1.54663e-14
5.71547e-14
3.81572e-14
7.19988e-14
3.01909e-14
3.42049e-14
8.16792e-14
1.70278e-13
2.77747e-13
2.1797e-13
2.25647e-13
1.08009e-13
6.91631e-14
6.36145e-16
9.44657e-14
1.91803e-13
2.44646e-13
2.26202e-13
1.26699e-13
5.5331e-14
2.11566e-14
1.52493e-13
1.86918e-13
2.39071e-13
2.3863e-13
2.16979e-13
2.30436e-13
2.43251e-13
1.76492e-13
1.50209e-13
1.40614e-13
1.40296e-13
1.364e-13
1.41943e-13
1.84149e-13
1.67238e-13
1.65697e-13
1.54161e-13
1.76555e-13
1.99457e-13
1.5454e-13
1.6718e-13
1.55357e-13
1.23923e-13
1.14485e-13
7.95328e-14
7.68258e-14
1.25719e-13
1.74072e-13
7.84012e-14
4.35724e-15
1.365e-14
5.98772e-14
5.54632e-14
5.81237e-14
2.43266e-14
3.49634e-14
1.22328e-13
1.05268e-13
1.16072e-13
1.72999e-13
1.9874e-13
2.18699e-13
2.8204e-13
2.16196e-13
1.426e-13
9.36723e-14
3.53694e-14
1.49671e-15
5.58119e-14
3.6967e-14
7.9927e-14
7.85932e-14
1.77435e-14
2.22599e-14
3.52468e-15
6.26635e-14
9.33106e-14
8.85237e-14
3.53047e-14
2.58415e-14
2.09053e-14
8.60042e-14
9.29577e-14
2.13267e-13
2.79335e-13
1.8117e-13
4.98601e-14
9.8947e-15
9.95329e-15
4.22507e-14
3.48064e-14
4.1831e-14
1.36039e-13
1.20284e-13
1.8084e-13
1.85034e-13
1.60818e-13
1.48869e-13
6.13568e-14
6.82263e-14
1.26677e-13
1.3744e-13
1.63467e-13
1.34646e-13
1.72611e-14
5.92995e-15
1.89354e-14
1.22947e-13
1.22276e-13
1.59547e-13
1.81312e-13
4.79057e-14
5.24195e-14
3.88581e-14
6.91179e-14
6.69515e-15
1.37171e-14
4.09936e-14
9.9633e-14
1.12709e-13
8.66768e-14
5.20976e-14
1.4764e-14
9.51558e-15
3.1053e-14
5.71384e-14
5.31324e-15
9.37502e-14
1.5766e-13
1.15723e-13
6.81259e-14
1.02743e-13
1.19476e-13
2.40941e-14
8.40645e-14
6.36048e-14
1.71703e-14
2.98598e-14
3.15916e-14
6.0166e-14
7.55727e-15
2.16775e-14
6.86851e-14
1.25512e-13
2.20739e-13
1.79874e-13
1.53859e-13
9.8733e-14
9.46426e-14
8.33389e-14
1.18987e-13
2.09887e-13
2.83605e-13
1.92769e-13
1.2805e-13
3.23873e-14
3.29602e-14
2.23086e-14
6.53806e-15
6.67808e-14
4.99024e-14
5.6067e-15
3.23175e-14
2.17419e-14
9.97192e-14
2.40955e-13
2.14091e-13
1.21481e-13
2.31995e-14
7.33317e-15
1.79724e-15
3.7694e-14
1.2308e-14
1.76616e-13
4.602e-13
1.27549e-12
4.34383e-12
1.45117e-11
4.54604e-11
1.44548e-10
4.53272e-10
1.39542e-09
4.24544e-09
1.27628e-08
3.79243e-08
1.11362e-07
3.23041e-07
9.25594e-07
2.61915e-06
7.31812e-06
2.01871e-05
5.49707e-05
0.000147753
0.000392001
0.00102667
0.0026551
0.00678365
0.0171379
0.0428709
0.106414
0.262923
0.649606
1.61598
4.09636
9.80713
16.869
22.242
26.2529
29.5598
32.5283
35.3467
38.1089
40.8567
43.605
46.3564
49.1092
51.8615
54.6116
57.3588
60.1028
62.8436
65.5814
68.3164
71.0488
73.7789
76.5069
79.2329
81.9573
84.6801
87.4015
90.1216
92.8406
95.5585
98.2755
100.992
103.707
106.422
109.136
111.85
114.563
117.276
119.988
122.7
125.413
128.124
130.836
133.548
136.26
138.971
141.683
144.395
147.107
149.819
152.531
155.244
157.957
160.67
163.383
166.097
168.811
171.525
174.24
176.955
179.671
182.387
185.103
187.82
190.537
193.254
195.972
198.69
201.409
204.128
206.847
209.567
212.287
215.008
217.728
220.449
223.17
225.891
228.612
231.333
234.054
236.774
239.494
242.214
244.933
247.652
250.369
253.086
255.801
258.516
261.228
263.939
266.647
269.354
272.056
274.754
277.442
280.113
282.745
285.296
287.684
289.755
291.357
292.399
292.921
293.152
293.279
293.43
293.586
293.669
293.685
293.675
293.66
293.661
293.662
293.665
293.672
293.682
293.681
293.632
293.524
293.462
293.442
293.44
293.456
293.468
293.471
293.441
293.363
293.303
293.279
293.271
293.273
293.28
293.282
293.272
293.218
293.132
293.07
293.039
293.028
293.036
293.092
293.156
293.19
293.215
293.244
293.297
293.358
293.41
293.442
293.452
293.426
293.381
293.368
293.375
293.41
293.449
293.477
293.481
293.426
293.352
293.323
293.323
293.335
293.363
293.383
293.379
293.303
293.233
293.209
293.211
293.223
293.238
293.242
293.214
293.109
293.051
293.061
293.136
293.209
293.289
293.362
293.384
293.319
293.278
293.294
293.32
293.351
293.395
293.454
293.444
293.382
293.404
293.569
294.189
292.304
288.62
295.296
299.096
298.568
292.779
289.932
289.726
289.823
290.082
291.177
294.862
297.272
297.499
296.909
294.685
290.757
289.799
289.655
289.829
291.202
295.209
296.603
296.813
296.619
294.777
290.778
289.829
289.855
290.181
291.569
295.126
296.463
296.623
296.334
295.045
291.533
290.36
290.273
290.432
291.608
294.951
296.151
296.356
296.248
295.03
291.651
290.614
290.526
290.659
291.621
294.636
295.91
296.037
295.834
294.984
292.194
290.945
290.79
290.88
291.523
294.053
295.542
295.731
295.67
295.041
292.476
291.076
290.887
290.892
291.367
293.513
295.229
295.54
295.517
295.283
293.43
275.41
149.663
14.7205
1.02021
0.0690238
0.00468803
0.000319406
2.17783e-05
1.48256e-06
1.00614e-07
6.80298e-09
4.58362e-10
3.08177e-11
1.99537e-12
4.59704e-14
1.02887e-13
6.06164e-14
4.73761e-14
3.76967e-14
1.63779e-13
1.39594e-13
1.84356e-15
1.30496e-13
2.58104e-13
2.63646e-13
2.96316e-13
2.61803e-13
2.35403e-13
2.50878e-13
3.09752e-13
2.91474e-13
3.09301e-13
2.93376e-13
2.30982e-13
1.42117e-13
1.06608e-13
1.61694e-13
1.52266e-13
7.94968e-14
6.36388e-14
8.36528e-14
8.56782e-15
9.31079e-14
1.57248e-13
4.78887e-14
2.38352e-13
2.79168e-13
2.52475e-13
3.99402e-13
3.42637e-13
2.72193e-13
2.38174e-13
3.21605e-13
4.51348e-13
3.87587e-13
3.27884e-13
3.30103e-13
2.95036e-13
2.99625e-14
1.41582e-13
1.42584e-13
2.72535e-13
3.50207e-13
2.83788e-13
3.25121e-13
2.63206e-13
2.04593e-13
1.99477e-13
2.08439e-13
2.66177e-13
3.76584e-13
3.43642e-13
2.87749e-13
2.62097e-13
1.59974e-13
5.59183e-14
1.32274e-13
1.3978e-13
2.07561e-13
2.45903e-13
1.48123e-13
3.70061e-15
1.41619e-13
7.36615e-14
2.47381e-14
7.20481e-14
2.99494e-14
6.47045e-14
8.11705e-14
8.16976e-14
2.28423e-13
3.30282e-13
3.15162e-13
1.84307e-13
5.88803e-14
6.14335e-14
1.26736e-13
1.30167e-13
5.85997e-14
5.35745e-14
3.1555e-14
1.71208e-14
4.06842e-14
1.38086e-14
7.6066e-14
4.70714e-14
7.56135e-14
9.32912e-14
1.27731e-13
7.32239e-14
1.0437e-13
9.98224e-14
6.59975e-14
6.80029e-14
6.51844e-14
6.99036e-14
6.54751e-14
4.90992e-14
5.41832e-14
2.74095e-14
1.29027e-14
9.488e-14
1.22768e-13
1.45737e-13
7.70067e-14
1.42204e-14
8.70184e-14
2.13046e-13
1.93481e-13
4.23134e-14
4.36992e-15
3.40327e-14
6.46796e-14
1.43256e-13
9.0376e-14
1.7628e-14
9.24795e-14
1.74319e-13
2.04768e-13
2.21476e-13
1.83315e-13
1.07506e-13
1.38723e-13
1.12874e-13
3.956e-14
5.87238e-14
9.43767e-14
1.47909e-14
8.65797e-14
2.06862e-13
2.30303e-13
1.69271e-13
1.21184e-13
2.6764e-14
7.1936e-14
1.48185e-13
9.02425e-14
4.22153e-14
6.01048e-14
1.5894e-13
1.20474e-13
8.68473e-14
1.98987e-13
1.10417e-13
9.97062e-15
8.76399e-14
1.25811e-13
2.07478e-13
1.46003e-13
1.55171e-13
1.57452e-13
1.73678e-13
1.75172e-13
8.81549e-14
3.33078e-14
1.32073e-14
3.78629e-14
1.0087e-13
2.17029e-13
3.3466e-13
4.46027e-13
3.71114e-13
2.34171e-13
1.80654e-13
1.00312e-13
2.61832e-14
1.52432e-13
1.50579e-13
3.49677e-15
2.62313e-14
4.65191e-15
4.98422e-14
3.06255e-14
1.10071e-14
2.37835e-15
9.13087e-14
1.14969e-13
1.57727e-13
1.86472e-13
2.51495e-14
1.11252e-13
2.16546e-13
1.29008e-13
4.53887e-14
1.97898e-14
2.44542e-14
3.34321e-14
8.57763e-14
7.3966e-14
1.33051e-13
1.53441e-13
6.27546e-14
1.41708e-14
6.63867e-15
9.32962e-14
5.57561e-14
1.0757e-13
3.41817e-14
7.81402e-14
2.0306e-13
2.40516e-13
2.30464e-13
2.22756e-13
1.35925e-13
2.52665e-14
1.45708e-14
6.36166e-14
4.90164e-14
2.66713e-14
8.85178e-14
1.57814e-13
1.22815e-13
1.57581e-13
2.03282e-13
2.2268e-13
1.79892e-13
2.49382e-13
3.21829e-13
4.08611e-13
5.15798e-13
4.26354e-13
2.68423e-13
2.08462e-13
2.18114e-13
2.55135e-13
1.98132e-13
1.99131e-13
2.54274e-13
2.60779e-13
2.9536e-13
1.81453e-13
1.12649e-13
1.44815e-13
2.03212e-13
1.66926e-13
1.31033e-13
1.54379e-13
1.20798e-13
1.20217e-13
9.83792e-14
3.3281e-14
5.50448e-14
9.09725e-14
1.31388e-13
2.21652e-13
1.80855e-13
6.19862e-14
5.51842e-14
1.14153e-13
1.35692e-13
1.47325e-13
1.42585e-13
1.19764e-13
4.37429e-14
4.75397e-14
1.97592e-13
2.52891e-13
2.19485e-13
1.39065e-13
6.19345e-14
1.45769e-13
1.62006e-13
1.89073e-13
1.72833e-13
4.23399e-14
7.39795e-14
8.90039e-14
1.25044e-13
4.92245e-14
5.1432e-14
1.82858e-13
1.26611e-13
1.58729e-13
1.97147e-14
6.48081e-14
1.59723e-13
9.94888e-14
7.11956e-14
5.91706e-15
1.56096e-13
3.38809e-13
3.49559e-13
3.32191e-13
3.08571e-13
3.78867e-13
3.59163e-13
3.28934e-13
3.04402e-13
1.45788e-13
1.60482e-16
7.29522e-14
2.23882e-14
8.22201e-14
2.23657e-13
2.84691e-13
3.52999e-13
2.89381e-13
2.03524e-13
1.18917e-13
3.42688e-14
7.57396e-14
1.45671e-13
8.29766e-14
1.17136e-13
1.57509e-13
2.06886e-13
1.92718e-13
1.75847e-13
1.96576e-13
1.4926e-13
9.64641e-14
1.88728e-13
2.69742e-13
2.63804e-13
2.65937e-13
)
;

boundaryField
{
    sides
    {
        type            calculated;
        value           nonuniform List<scalar> 2(2.65937e-13 3.21793e-14);
    }
    empty
    {
        type            empty;
    }
}


// ************************************************************************* //
