/*--------------------------------*- C++ -*----------------------------------*\
  =========                 |
  \\      /  F ield         | OpenFOAM: The Open Source CFD Toolbox
   \\    /   O peration     | Website:  https://openfoam.org
    \\  /    A nd           | Version:  7
     \\/     M anipulation  |
\*---------------------------------------------------------------------------*/
FoamFile
{
    version     2.0;
    format      ascii;
    class       volVectorField;
    location    "0.003";
    object      U;
}
// * * * * * * * * * * * * * * * * * * * * * * * * * * * * * * * * * * * * * //

dimensions      [0 1 -1 0 0 0 0];

internalField   nonuniform List<vector> 
1000
(
(-580.136 0 0)
(-252.545 0 0)
(-205.831 0 0)
(-205.239 0 0)
(-205.8 0 0)
(-206.099 0 0)
(-206.16 0 0)
(-206.142 0 0)
(-206.079 0 0)
(-206.07 0 0)
(-206.164 0 0)
(-206.435 0 0)
(-206.786 0 0)
(-207.134 0 0)
(-207.332 0 0)
(-207.449 0 0)
(-207.576 0 0)
(-207.771 0 0)
(-208.029 0 0)
(-208.42 0 0)
(-209.001 0 0)
(-209.636 0 0)
(-210.163 0 0)
(-210.61 0 0)
(-211.09 0 0)
(-211.752 0 0)
(-212.748 0 0)
(-213.639 0 0)
(-213.917 0 0)
(-213.941 0 0)
(-213.881 0 0)
(-213.566 0 0)
(-212.975 0 0)
(-211.947 0 0)
(-210.444 0 0)
(-208.566 0 0)
(-206.409 0 0)
(-204.092 0 0)
(-201.692 0 0)
(-199.248 0 0)
(-196.777 0 0)
(-194.281 0 0)
(-191.759 0 0)
(-189.211 0 0)
(-186.637 0 0)
(-184.039 0 0)
(-181.422 0 0)
(-178.788 0 0)
(-176.142 0 0)
(-173.486 0 0)
(-170.823 0 0)
(-168.155 0 0)
(-165.484 0 0)
(-162.811 0 0)
(-160.137 0 0)
(-157.462 0 0)
(-154.788 0 0)
(-152.113 0 0)
(-149.438 0 0)
(-146.764 0 0)
(-144.091 0 0)
(-141.418 0 0)
(-138.746 0 0)
(-136.074 0 0)
(-133.402 0 0)
(-130.732 0 0)
(-128.061 0 0)
(-125.391 0 0)
(-122.721 0 0)
(-120.051 0 0)
(-117.381 0 0)
(-114.711 0 0)
(-112.04 0 0)
(-109.369 0 0)
(-106.696 0 0)
(-104.023 0 0)
(-101.348 0 0)
(-98.6723 0 0)
(-95.9946 0 0)
(-93.3149 0 0)
(-90.6331 0 0)
(-87.949 0 0)
(-85.2623 0 0)
(-82.5727 0 0)
(-79.8801 0 0)
(-77.1843 0 0)
(-74.4848 0 0)
(-71.7815 0 0)
(-69.074 0 0)
(-66.3619 0 0)
(-63.645 0 0)
(-60.9227 0 0)
(-58.1947 0 0)
(-55.4603 0 0)
(-52.7191 0 0)
(-49.9705 0 0)
(-47.2137 0 0)
(-44.4482 0 0)
(-41.673 0 0)
(-38.8862 0 0)
(-36.0836 0 0)
(-33.2546 0 0)
(-30.3734 0 0)
(-27.3837 0 0)
(-24.1722 0 0)
(-20.5257 0 0)
(-16.0854 0 0)
(-10.5712 0 0)
(-5.25902 0 0)
(-2.26944 0 0)
(-0.979682 0 0)
(-0.42435 0 0)
(-0.182982 0 0)
(-0.0781807 0 0)
(-0.0330102 0 0)
(-0.0137544 0 0)
(-0.00565172 0 0)
(-0.00228952 0 0)
(-0.000914366 0 0)
(-0.000360046 0 0)
(-0.000139811 0 0)
(-5.35518e-05 0 0)
(-2.02379e-05 0 0)
(-7.54795e-06 0 0)
(-2.77896e-06 0 0)
(-1.01026e-06 0 0)
(-3.62742e-07 0 0)
(-1.28668e-07 0 0)
(-4.50994e-08 0 0)
(-1.562e-08 0 0)
(-5.34854e-09 0 0)
(-1.80864e-09 0 0)
(-6.04957e-10 0 0)
(-1.99806e-10 0 0)
(-6.44777e-11 0 0)
(-2.02531e-11 0 0)
(-5.63955e-12 0 0)
(-1.41958e-12 0 0)
(5.46164e-14 0 0)
(4.18706e-13 0 0)
(4.8632e-13 0 0)
(3.70504e-13 0 0)
(1.91722e-13 0 0)
(1.37137e-13 0 0)
(1.78193e-13 0 0)
(2.27309e-13 0 0)
(3.41932e-13 0 0)
(3.86384e-13 0 0)
(3.78688e-13 0 0)
(2.95908e-13 0 0)
(2.72113e-13 0 0)
(2.04182e-13 0 0)
(1.81978e-13 0 0)
(1.49955e-13 0 0)
(1.1033e-13 0 0)
(1.0297e-13 0 0)
(5.23987e-14 0 0)
(-1.04837e-14 0 0)
(-3.98186e-14 0 0)
(-6.0137e-14 0 0)
(-1.98531e-14 0 0)
(7.12185e-14 0 0)
(7.30863e-14 0 0)
(1.98007e-14 0 0)
(2.48876e-14 0 0)
(7.24864e-14 0 0)
(1.63016e-13 0 0)
(1.545e-13 0 0)
(1.04781e-13 0 0)
(8.45557e-14 0 0)
(7.63604e-14 0 0)
(9.70209e-14 0 0)
(1.1981e-13 0 0)
(2.03558e-13 0 0)
(1.74276e-13 0 0)
(2.74447e-13 0 0)
(2.35287e-13 0 0)
(2.29115e-13 0 0)
(2.5084e-13 0 0)
(1.80938e-13 0 0)
(2.5193e-13 0 0)
(3.47664e-13 0 0)
(3.77462e-13 0 0)
(4.0464e-13 0 0)
(2.98038e-13 0 0)
(1.26777e-13 0 0)
(2.10689e-14 0 0)
(-7.47075e-14 0 0)
(-1.06625e-13 0 0)
(-2.37086e-13 0 0)
(-2.85064e-13 0 0)
(-2.89014e-13 0 0)
(-4.55974e-13 0 0)
(-3.65933e-13 0 0)
(-2.66531e-13 0 0)
(-2.74427e-13 0 0)
(-4.01817e-13 0 0)
(-3.4951e-13 0 0)
(-3.57269e-13 0 0)
(-4.84618e-13 0 0)
(-5.28769e-13 0 0)
(-6.8324e-13 0 0)
(-6.92573e-13 0 0)
(-5.65457e-13 0 0)
(-4.62477e-13 0 0)
(-3.95371e-13 0 0)
(-3.55678e-13 0 0)
(-3.88639e-13 0 0)
(-2.62418e-13 0 0)
(-3.83297e-13 0 0)
(-3.92899e-13 0 0)
(-3.8626e-13 0 0)
(-3.46288e-13 0 0)
(-4.30459e-13 0 0)
(-3.76314e-13 0 0)
(-2.46089e-13 0 0)
(-1.71024e-13 0 0)
(-2.84241e-13 0 0)
(-4.04157e-13 0 0)
(-4.44034e-13 0 0)
(-3.91912e-13 0 0)
(-3.57704e-13 0 0)
(-3.04175e-13 0 0)
(-2.06966e-13 0 0)
(-1.74085e-13 0 0)
(-1.62371e-13 0 0)
(-2.87806e-13 0 0)
(-4.33581e-13 0 0)
(-3.89538e-13 0 0)
(-4.27407e-13 0 0)
(-3.92718e-13 0 0)
(-3.68004e-13 0 0)
(-3.39638e-13 0 0)
(-4.061e-13 0 0)
(-6.23072e-13 0 0)
(-7.06545e-13 0 0)
(-7.15589e-13 0 0)
(-6.05955e-13 0 0)
(-4.14663e-13 0 0)
(-4.02293e-13 0 0)
(-4.18814e-13 0 0)
(-3.68747e-13 0 0)
(-3.51042e-13 0 0)
(-3.01236e-13 0 0)
(-3.29971e-13 0 0)
(-3.16489e-13 0 0)
(-2.52799e-13 0 0)
(-1.90782e-13 0 0)
(-2.07121e-13 0 0)
(-3.6727e-13 0 0)
(-4.01511e-13 0 0)
(-4.50414e-13 0 0)
(-3.65712e-13 0 0)
(-1.47439e-13 0 0)
(-1.13269e-13 0 0)
(3.52288e-14 0 0)
(1.3016e-13 0 0)
(1.02765e-13 0 0)
(9.32582e-14 0 0)
(2.48153e-14 0 0)
(1.04974e-14 0 0)
(-7.45308e-14 0 0)
(-8.16751e-14 0 0)
(-5.68235e-14 0 0)
(-6.43526e-14 0 0)
(-3.36708e-14 0 0)
(-6.40183e-14 0 0)
(-1.62605e-13 0 0)
(-2.0342e-13 0 0)
(-2.49021e-13 0 0)
(-3.35167e-13 0 0)
(-2.85078e-13 0 0)
(-2.35348e-13 0 0)
(-2.40307e-13 0 0)
(-2.76614e-13 0 0)
(-2.41972e-13 0 0)
(-2.48319e-13 0 0)
(-1.89125e-13 0 0)
(-1.48106e-13 0 0)
(-2.45906e-13 0 0)
(-2.11376e-13 0 0)
(-1.83678e-13 0 0)
(-1.72961e-13 0 0)
(-1.53199e-13 0 0)
(-6.94629e-14 0 0)
(2.77206e-14 0 0)
(6.61585e-14 0 0)
(6.85417e-14 0 0)
(7.02486e-14 0 0)
(5.59162e-14 0 0)
(7.76799e-14 0 0)
(1.12648e-13 0 0)
(1.11108e-13 0 0)
(2.03627e-13 0 0)
(3.8229e-13 0 0)
(4.18225e-13 0 0)
(3.56614e-13 0 0)
(2.7123e-13 0 0)
(3.24939e-13 0 0)
(3.84066e-13 0 0)
(4.51506e-13 0 0)
(4.05128e-13 0 0)
(3.73795e-13 0 0)
(2.91712e-13 0 0)
(2.69668e-13 0 0)
(2.73234e-13 0 0)
(1.80053e-13 0 0)
(9.35074e-14 0 0)
(1.62739e-13 0 0)
(2.04656e-13 0 0)
(6.80295e-14 0 0)
(-2.64624e-14 0 0)
(-2.88939e-14 0 0)
(6.08454e-14 0 0)
(1.18951e-13 0 0)
(8.45928e-14 0 0)
(4.48334e-14 0 0)
(9.64202e-14 0 0)
(6.70523e-14 0 0)
(-1.2229e-14 0 0)
(-3.69984e-14 0 0)
(6.55685e-15 0 0)
(6.32279e-14 0 0)
(2.38732e-14 0 0)
(-3.41069e-14 0 0)
(1.7883e-14 0 0)
(7.13855e-14 0 0)
(8.74049e-15 0 0)
(-2.33592e-14 0 0)
(-4.88612e-14 0 0)
(-2.79304e-14 0 0)
(-9.37953e-14 0 0)
(-9.64172e-14 0 0)
(-4.84449e-14 0 0)
(2.3406e-14 0 0)
(-7.33023e-14 0 0)
(-1.76994e-13 0 0)
(-1.23122e-13 0 0)
(-3.42235e-14 0 0)
(-5.08125e-14 0 0)
(-1.94972e-14 0 0)
(-7.14914e-14 0 0)
(-2.08257e-15 0 0)
(6.87451e-14 0 0)
(-1.55915e-14 0 0)
(-1.049e-13 0 0)
(-5.34292e-14 0 0)
(1.02389e-14 0 0)
(-6.36442e-14 0 0)
(-1.02147e-13 0 0)
(-2.38269e-14 0 0)
(2.65086e-14 0 0)
(-5.61405e-14 0 0)
(-1.52494e-13 0 0)
(-8.85115e-14 0 0)
(-4.93147e-14 0 0)
(-7.15582e-14 0 0)
(-1.07294e-13 0 0)
(-4.38088e-14 0 0)
(-2.40953e-14 0 0)
(2.72382e-14 0 0)
(3.23458e-13 0 0)
(1.13409e-12 0 0)
(3.83782e-12 0 0)
(1.23295e-11 0 0)
(3.96221e-11 0 0)
(1.22645e-10 0 0)
(3.73373e-10 0 0)
(1.12229e-09 0 0)
(3.32685e-09 0 0)
(9.75192e-09 0 0)
(2.82526e-08 0 0)
(8.0911e-08 0 0)
(2.28983e-07 0 0)
(6.4025e-07 0 0)
(1.76821e-06 0 0)
(4.82239e-06 0 0)
(1.29844e-05 0 0)
(3.45058e-05 0 0)
(9.04813e-05 0 0)
(0.000234049 0 0)
(0.00059707 0 0)
(0.00150182 0 0)
(0.00372404 0 0)
(0.0091031 0 0)
(0.0219383 0 0)
(0.0521507 0 0)
(0.122409 0 0)
(0.284272 0 0)
(0.655563 0 0)
(1.51081 0 0)
(3.50868 0 0)
(7.7757 0 0)
(13.4973 0 0)
(18.4535 0 0)
(22.4254 0 0)
(25.8107 0 0)
(28.8899 0 0)
(31.8181 0 0)
(34.6749 0 0)
(37.4983 0 0)
(40.3045 0 0)
(43.1001 0 0)
(45.8874 0 0)
(48.6675 0 0)
(51.4412 0 0)
(54.209 0 0)
(56.9714 0 0)
(59.729 0 0)
(62.4822 0 0)
(65.2315 0 0)
(67.9773 0 0)
(70.7199 0 0)
(73.4597 0 0)
(76.197 0 0)
(78.9319 0 0)
(81.6646 0 0)
(84.3955 0 0)
(87.1246 0 0)
(89.8522 0 0)
(92.5783 0 0)
(95.3031 0 0)
(98.0267 0 0)
(100.749 0 0)
(103.471 0 0)
(106.191 0 0)
(108.911 0 0)
(111.631 0 0)
(114.349 0 0)
(117.067 0 0)
(119.785 0 0)
(122.502 0 0)
(125.219 0 0)
(127.935 0 0)
(130.652 0 0)
(133.368 0 0)
(136.084 0 0)
(138.8 0 0)
(141.516 0 0)
(144.232 0 0)
(146.948 0 0)
(149.664 0 0)
(152.38 0 0)
(155.096 0 0)
(157.813 0 0)
(160.529 0 0)
(163.246 0 0)
(165.963 0 0)
(168.681 0 0)
(171.399 0 0)
(174.117 0 0)
(176.835 0 0)
(179.554 0 0)
(182.273 0 0)
(184.993 0 0)
(187.713 0 0)
(190.433 0 0)
(193.153 0 0)
(195.874 0 0)
(198.596 0 0)
(201.317 0 0)
(204.04 0 0)
(206.762 0 0)
(209.485 0 0)
(212.208 0 0)
(214.931 0 0)
(217.654 0 0)
(220.378 0 0)
(223.102 0 0)
(225.826 0 0)
(228.55 0 0)
(231.274 0 0)
(233.997 0 0)
(236.721 0 0)
(239.444 0 0)
(242.166 0 0)
(244.889 0 0)
(247.61 0 0)
(250.33 0 0)
(253.05 0 0)
(255.768 0 0)
(258.485 0 0)
(261.2 0 0)
(263.914 0 0)
(266.625 0 0)
(269.334 0 0)
(272.039 0 0)
(274.739 0 0)
(277.429 0 0)
(280.101 0 0)
(282.736 0 0)
(285.289 0 0)
(287.674 0 0)
(289.755 0 0)
(291.351 0 0)
(292.382 0 0)
(292.927 0 0)
(293.161 0 0)
(293.286 0 0)
(293.426 0 0)
(293.601 0 0)
(293.713 0 0)
(293.743 0 0)
(293.74 0 0)
(293.718 0 0)
(293.704 0 0)
(293.696 0 0)
(293.692 0 0)
(293.694 0 0)
(293.695 0 0)
(293.693 0 0)
(293.667 0 0)
(293.581 0 0)
(293.499 0 0)
(293.46 0 0)
(293.444 0 0)
(293.436 0 0)
(293.433 0 0)
(293.43 0 0)
(293.426 0 0)
(293.4 0 0)
(293.344 0 0)
(293.298 0 0)
(293.275 0 0)
(293.263 0 0)
(293.257 0 0)
(293.256 0 0)
(293.254 0 0)
(293.242 0 0)
(293.189 0 0)
(293.112 0 0)
(293.072 0 0)
(293.062 0 0)
(293.07 0 0)
(293.126 0 0)
(293.215 0 0)
(293.265 0 0)
(293.285 0 0)
(293.29 0 0)
(293.293 0 0)
(293.313 0 0)
(293.354 0 0)
(293.389 0 0)
(293.414 0 0)
(293.426 0 0)
(293.415 0 0)
(293.38 0 0)
(293.362 0 0)
(293.365 0 0)
(293.381 0 0)
(293.401 0 0)
(293.418 0 0)
(293.426 0 0)
(293.413 0 0)
(293.358 0 0)
(293.325 0 0)
(293.316 0 0)
(293.316 0 0)
(293.32 0 0)
(293.332 0 0)
(293.342 0 0)
(293.324 0 0)
(293.263 0 0)
(293.23 0 0)
(293.224 0 0)
(293.224 0 0)
(293.222 0 0)
(293.229 0 0)
(293.236 0 0)
(293.208 0 0)
(293.164 0 0)
(293.157 0 0)
(293.195 0 0)
(293.236 0 0)
(293.28 0 0)
(293.323 0 0)
(293.374 0 0)
(293.361 0 0)
(293.307 0 0)
(293.3 0 0)
(293.319 0 0)
(293.335 0 0)
(293.352 0 0)
(293.399 0 0)
(293.442 0 0)
(293.451 0 0)
(293.539 0 0)
(293.947 0 0)
(293.007 0 0)
(290.688 0 0)
(295.87 0 0)
(297.786 0 0)
(294.977 0 0)
(291.204 0 0)
(290.503 0 0)
(290.622 0 0)
(290.841 0 0)
(291.528 0 0)
(293.602 0 0)
(295.784 0 0)
(296.269 0 0)
(295.97 0 0)
(294.986 0 0)
(292.459 0 0)
(291.013 0 0)
(290.755 0 0)
(290.819 0 0)
(291.532 0 0)
(293.899 0 0)
(295.38 0 0)
(295.599 0 0)
(295.552 0 0)
(294.798 0 0)
(292.498 0 0)
(291.157 0 0)
(291.037 0 0)
(291.215 0 0)
(291.866 0 0)
(293.758 0 0)
(295.026 0 0)
(295.252 0 0)
(295.149 0 0)
(294.662 0 0)
(293.02 0 0)
(291.728 0 0)
(291.544 0 0)
(291.598 0 0)
(292.049 0 0)
(293.624 0 0)
(294.732 0 0)
(294.936 0 0)
(294.945 0 0)
(294.548 0 0)
(293.097 0 0)
(291.976 0 0)
(291.841 0 0)
(291.881 0 0)
(292.21 0 0)
(293.412 0 0)
(294.49 0 0)
(294.688 0 0)
(294.625 0 0)
(294.349 0 0)
(293.367 0 0)
(292.278 0 0)
(292.098 0 0)
(292.103 0 0)
(292.29 0 0)
(293.122 0 0)
(294.193 0 0)
(294.43 0 0)
(294.453 0 0)
(294.288 0 0)
(293.525 0 0)
(292.454 0 0)
(292.236 0 0)
(292.212 0 0)
(292.322 0 0)
(292.865 0 0)
(293.912 0 0)
(294.257 0 0)
(294.299 0 0)
(294.231 0 0)
(293.874 0 0)
(291.373 0 0)
(272.302 0 0)
(159.265 0 0)
(19.8761 0 0)
(1.63468 0 0)
(0.128766 0 0)
(0.0101395 0 0)
(0.000798783 0 0)
(6.29244e-05 0 0)
(4.95374e-06 0 0)
(3.89557e-07 0 0)
(3.05935e-08 0 0)
(2.39915e-09 0 0)
(1.87785e-10 0 0)
(1.47477e-11 0 0)
(1.16969e-12 0 0)
(1.34076e-13 0 0)
(2.87112e-15 0 0)
(8.22385e-14 0 0)
(9.13394e-14 0 0)
(3.34029e-14 0 0)
(-4.43586e-14 0 0)
(-8.17317e-14 0 0)
(-1.33162e-14 0 0)
(-8.21632e-14 0 0)
(-1.95546e-13 0 0)
(-2.04123e-13 0 0)
(-2.03745e-13 0 0)
(-2.5535e-13 0 0)
(-3.46351e-13 0 0)
(-3.34407e-13 0 0)
(-2.63239e-13 0 0)
(-2.06901e-13 0 0)
(-2.42071e-13 0 0)
(-2.59036e-13 0 0)
(-3.17379e-13 0 0)
(-2.78702e-13 0 0)
(-2.36937e-13 0 0)
(-2.74205e-13 0 0)
(-2.77526e-13 0 0)
(-2.76815e-13 0 0)
(-3.25281e-13 0 0)
(-3.02099e-13 0 0)
(-3.00491e-13 0 0)
(-2.46885e-13 0 0)
(-1.90563e-13 0 0)
(-1.48107e-13 0 0)
(-8.27868e-14 0 0)
(-1.15278e-13 0 0)
(-2.17e-13 0 0)
(-8.01764e-14 0 0)
(-8.36951e-14 0 0)
(-6.09042e-14 0 0)
(4.85031e-14 0 0)
(5.82967e-14 0 0)
(-2.19004e-14 0 0)
(1.05583e-14 0 0)
(6.18543e-14 0 0)
(6.68115e-14 0 0)
(3.91566e-14 0 0)
(-6.01732e-14 0 0)
(-7.86185e-15 0 0)
(9.28545e-14 0 0)
(1.90302e-13 0 0)
(2.36861e-13 0 0)
(1.81871e-13 0 0)
(1.01261e-13 0 0)
(1.49814e-13 0 0)
(1.3935e-13 0 0)
(1.1263e-13 0 0)
(1.45766e-13 0 0)
(1.55301e-13 0 0)
(1.31612e-13 0 0)
(1.69965e-13 0 0)
(1.38775e-13 0 0)
(1.67893e-13 0 0)
(1.51954e-13 0 0)
(1.21551e-13 0 0)
(4.30888e-14 0 0)
(-1.33836e-14 0 0)
(5.29896e-14 0 0)
(9.4129e-14 0 0)
(5.48505e-14 0 0)
(3.63835e-14 0 0)
(-3.76308e-14 0 0)
(-5.7939e-14 0 0)
(4.04409e-15 0 0)
(4.24267e-14 0 0)
(2.05838e-13 0 0)
(3.53334e-13 0 0)
(3.6795e-13 0 0)
(3.2002e-13 0 0)
(2.338e-13 0 0)
(1.43241e-13 0 0)
(-1.7598e-14 0 0)
(1.18137e-14 0 0)
(4.34869e-14 0 0)
(1.60963e-13 0 0)
(2.64231e-13 0 0)
(2.98408e-13 0 0)
(2.17417e-13 0 0)
(8.28776e-14 0 0)
(5.53632e-15 0 0)
(-4.10142e-14 0 0)
(-4.57189e-14 0 0)
(-3.90991e-14 0 0)
(2.60237e-14 0 0)
(2.76609e-14 0 0)
(7.04682e-14 0 0)
(9.3463e-14 0 0)
(6.76164e-15 0 0)
(-7.91974e-14 0 0)
(-1.61954e-13 0 0)
(-1.99004e-13 0 0)
(-1.92103e-13 0 0)
(-2.00888e-13 0 0)
(-8.80232e-14 0 0)
(8.43855e-15 0 0)
(1.71777e-14 0 0)
(3.98812e-15 0 0)
(6.55894e-14 0 0)
(1.1788e-13 0 0)
(1.00606e-13 0 0)
(-4.20904e-14 0 0)
(-1.52953e-13 0 0)
(-5.93679e-14 0 0)
(-7.37743e-16 0 0)
(-5.78243e-14 0 0)
(-1.23572e-14 0 0)
(2.40236e-14 0 0)
(8.38936e-14 0 0)
(8.02843e-14 0 0)
(5.60253e-14 0 0)
(5.74841e-14 0 0)
(6.38246e-15 0 0)
(9.65619e-14 0 0)
(1.12194e-13 0 0)
(1.10321e-13 0 0)
(1.47651e-13 0 0)
(1.42438e-13 0 0)
(2.10321e-13 0 0)
(1.95891e-13 0 0)
(1.58984e-13 0 0)
(1.58673e-13 0 0)
(1.36512e-13 0 0)
(1.51521e-13 0 0)
(9.47094e-14 0 0)
(9.50686e-15 0 0)
(-8.35873e-14 0 0)
(-1.76551e-13 0 0)
(-2.00184e-13 0 0)
(-1.60716e-13 0 0)
(-2.00507e-13 0 0)
(-1.34567e-13 0 0)
(-2.76795e-14 0 0)
(9.08618e-14 0 0)
(1.3074e-13 0 0)
(1.31499e-13 0 0)
(7.21317e-14 0 0)
(1.41476e-14 0 0)
(6.27672e-14 0 0)
(1.71755e-14 0 0)
(-3.69809e-14 0 0)
(-1.11438e-13 0 0)
(-9.03422e-14 0 0)
(-1.24433e-13 0 0)
(-1.19087e-13 0 0)
(-4.34037e-14 0 0)
(2.48579e-14 0 0)
(-2.98237e-14 0 0)
(-5.90173e-14 0 0)
(-2.5812e-14 0 0)
(-6.68046e-14 0 0)
(-7.0442e-14 0 0)
(-1.12275e-13 0 0)
(-7.4619e-14 0 0)
(-1.05286e-13 0 0)
(-1.48636e-13 0 0)
(-1.58626e-13 0 0)
(-7.69102e-14 0 0)
(2.92253e-14 0 0)
(1.42423e-14 0 0)
(2.71177e-14 0 0)
(1.78233e-14 0 0)
(1.32266e-14 0 0)
(-3.90913e-14 0 0)
(-8.29223e-14 0 0)
(-5.1587e-14 0 0)
(-3.21449e-14 0 0)
(-8.89279e-14 0 0)
(-1.10286e-13 0 0)
(-7.28961e-14 0 0)
(7.79821e-14 0 0)
(3.41901e-14 0 0)
(-4.12366e-14 0 0)
(-4.59706e-14 0 0)
(-1.39408e-13 0 0)
(-2.25842e-13 0 0)
(-3.02887e-13 0 0)
(-3.45676e-13 0 0)
(-2.90465e-13 0 0)
(-3.44938e-13 0 0)
(-2.99187e-13 0 0)
(-2.67396e-13 0 0)
(-2.8607e-13 0 0)
(-2.4013e-13 0 0)
(-1.35074e-13 0 0)
(5.31945e-14 0 0)
(5.04929e-13 0 0)
(2.34495e-12 0 0)
(7.40914e-12 0 0)
(2.38043e-11 0 0)
(7.49485e-11 0 0)
(2.32622e-10 0 0)
(7.09829e-10 0 0)
(2.14241e-09 0 0)
(6.38177e-09 0 0)
(1.87747e-08 0 0)
(5.4556e-08 0 0)
(1.56559e-07 0 0)
(4.43559e-07 0 0)
(1.24044e-06 0 0)
(3.42309e-06 0 0)
(9.31823e-06 0 0)
(2.50134e-05 0 0)
(6.61876e-05 0 0)
(0.000172576 0 0)
(0.0004432 0 0)
(0.0011206 0 0)
(0.00278825 0 0)
(0.0068242 0 0)
(0.0164222 0 0)
(0.0388458 0 0)
(0.0903187 0 0)
(0.206532 0 0)
(0.465335 0 0)
(1.03738 0 0)
(2.30437 0 0)
(5.03521 0 0)
(9.51526 0 0)
(14.2054 0 0)
(18.2075 0 0)
(21.6533 0 0)
(24.7794 0 0)
(27.7366 0 0)
(30.6068 0 0)
(33.4308 0 0)
(36.2277 0 0)
(39.0065 0 0)
(41.7715 0 0)
(44.5251 0 0)
(47.2688 0 0)
(50.0039 0 0)
(52.7313 0 0)
(55.4517 0 0)
(58.1657 0 0)
(60.8741 0 0)
(63.5771 0 0)
(66.2754 0 0)
(68.9692 0 0)
(71.659 0 0)
(74.3451 0 0)
(77.0277 0 0)
(79.7073 0 0)
(82.3841 0 0)
(85.0583 0 0)
(87.7302 0 0)
(90.4001 0 0)
(93.0683 0 0)
(95.7349 0 0)
(98.4004 0 0)
(101.065 0 0)
(103.729 0 0)
(106.392 0 0)
(109.055 0 0)
(111.718 0 0)
(114.38 0 0)
(117.043 0 0)
(119.707 0 0)
(122.371 0 0)
(125.035 0 0)
(127.7 0 0)
(130.365 0 0)
(133.031 0 0)
(135.697 0 0)
(138.363 0 0)
(141.029 0 0)
(143.695 0 0)
(146.359 0 0)
(149.021 0 0)
(151.68 0 0)
(154.334 0 0)
(156.979 0 0)
(159.614 0 0)
(162.233 0 0)
(164.833 0 0)
(167.409 0 0)
(169.956 0 0)
(172.47 0 0)
(174.951 0 0)
(177.395 0 0)
(179.799 0 0)
(182.145 0 0)
(184.392 0 0)
(186.466 0 0)
(188.256 0 0)
(189.644 0 0)
(190.619 0 0)
(191.119 0 0)
(191.348 0 0)
(191.414 0 0)
(191.367 0 0)
(190.959 0 0)
(189.996 0 0)
(189.16 0 0)
(188.645 0 0)
(188.292 0 0)
(187.961 0 0)
(187.534 0 0)
(186.959 0 0)
(186.395 0 0)
(185.997 0 0)
(185.791 0 0)
(185.675 0 0)
(185.572 0 0)
(185.449 0 0)
(185.272 0 0)
(184.97 0 0)
(184.641 0 0)
(184.428 0 0)
(184.287 0 0)
(184.243 0 0)
(184.518 0 0)
(184.956 0 0)
(225.366 0 0)
(517.719 0 0)
)
;

boundaryField
{
    sides
    {
        type            zeroGradient;
    }
    null
    {
        type            empty;
    }
}


// ************************************************************************* //
