/*--------------------------------*- C++ -*----------------------------------*\
  =========                 |
  \\      /  F ield         | OpenFOAM: The Open Source CFD Toolbox
   \\    /   O peration     | Website:  https://openfoam.org
    \\  /    A nd           | Version:  7
     \\/     M anipulation  |
\*---------------------------------------------------------------------------*/
FoamFile
{
    version     2.0;
    format      ascii;
    class       volScalarField;
    location    "0.007";
    object      p;
}
// * * * * * * * * * * * * * * * * * * * * * * * * * * * * * * * * * * * * * //

dimensions      [1 -1 -2 0 0 0 0];

internalField   nonuniform List<scalar> 
1000
(
0.0693329
0.0752393
0.081603
0.115164
0.102244
0.104978
0.10625
0.113045
0.121016
0.114884
0.116716
0.116265
0.119977
0.115857
0.131914
0.12337
0.128473
0.133
0.114347
0.140183
0.138408
0.131807
0.124308
0.120469
0.124046
0.125999
0.146138
0.156026
0.158099
0.14898
0.15756
0.157189
0.16453
0.158669
0.162214
0.165468
0.174178
0.177269
0.161487
0.179359
0.161987
0.180863
0.181807
0.176117
0.169988
0.172468
0.180881
0.180418
0.162996
0.173764
0.169454
0.167227
0.178756
0.163423
0.16431
0.169827
0.173391
0.179563
0.173713
0.1834
0.188973
0.200374
0.190358
0.2065
0.19179
0.196416
0.188164
0.225055
0.192515
0.194027
0.213654
0.202603
0.204285
0.224078
0.224846
0.217758
0.218698
0.201812
0.222532
0.23407
0.219934
0.201884
0.211228
0.191182
0.20474
0.199768
0.184677
0.203574
0.224147
0.196665
0.215834
0.211943
0.218003
0.201778
0.217119
0.200793
0.20382
0.23685
0.242408
0.223708
0.23936
0.249735
0.250261
0.238565
0.213082
0.218257
0.219975
0.247514
0.230937
0.223115
0.232128
0.23687
0.239678
0.239406
0.241937
0.237918
0.243491
0.241404
0.235089
0.237561
0.234851
0.243702
0.248913
0.25154
0.254782
0.279144
0.272176
0.228822
0.228251
0.241977
0.249966
0.239728
0.23356
0.242133
0.250795
0.281256
0.268681
0.271893
0.269653
0.240157
0.244381
0.256037
0.250017
0.242017
0.226457
0.228738
0.234417
0.235721
0.249403
0.244309
0.238269
0.258624
0.291859
0.258017
0.265174
0.272095
0.246229
0.246755
0.231222
0.262439
0.237875
0.249709
0.250447
0.26407
0.262509
0.256665
0.25884
0.252394
0.249879
0.263612
0.269485
0.275392
0.293345
0.303375
0.301543
0.292113
0.288505
0.270634
0.272591
0.279575
0.268587
0.256517
0.251497
0.257829
0.2661
0.268642
0.296428
0.277728
0.25666
0.273915
0.288411
0.301851
0.304047
0.285022
0.261637
0.26671
0.280619
0.285955
0.289725
0.301154
0.289701
0.277404
0.310935
0.297764
0.317004
0.305336
0.304432
0.278813
0.281328
0.298136
0.301466
0.328667
0.323244
0.30429
0.285535
0.296577
0.296248
0.311636
0.342886
0.320634
0.298113
0.281979
0.3022
0.270718
0.304834
0.311272
0.313562
0.318889
0.306801
0.293057
0.285677
0.306195
0.294956
0.324254
0.306276
0.306745
0.317053
0.303261
0.319362
0.333306
0.314633
0.325932
0.305228
0.319338
0.311716
0.312757
0.327173
0.32904
0.308919
0.31481
0.320941
0.311645
0.319213
0.309469
0.303624
0.300396
0.298351
0.324808
0.302146
0.297993
0.328451
0.334851
0.323499
0.332374
0.328965
0.341686
0.335839
0.3755
0.323431
0.306416
0.323873
0.331872
0.314804
0.314094
0.326918
0.313685
0.353874
0.368323
0.331783
0.316867
0.311185
0.307037
0.308735
0.305757
0.321834
0.314872
0.324562
0.31536
0.315788
0.302679
0.312468
0.308709
0.320267
0.296724
0.3146
0.312744
0.305978
0.305977
0.311875
0.332357
0.33859
0.318929
0.317832
0.314115
0.294322
0.31836
0.30263
0.337747
0.319013
0.348972
0.361494
0.333562
0.335679
0.316896
0.330699
0.321552
0.317779
0.358104
0.375098
0.354416
0.341987
0.328146
0.313641
0.347996
0.331572
0.357958
0.329073
0.329688
0.341625
0.337094
0.346101
0.324295
0.306047
0.302739
0.320138
0.316991
0.311074
0.357231
0.332782
0.321645
0.329226
0.3362
0.320198
0.317587
0.326751
0.299171
0.305124
0.331657
0.355833
0.331815
0.329068
0.344507
0.315163
0.33156
0.3435
0.322275
0.311719
0.328947
0.320219
0.304038
0.313103
0.321801
0.319532
0.304275
0.302993
0.312612
0.293332
0.29495
0.327207
0.31475
0.307393
0.334389
0.35826
0.356715
0.349231
0.334394
0.342562
0.344939
0.340213
0.322937
0.322816
0.333294
0.314268
0.31933
0.298248
0.315264
0.295959
0.318909
0.327628
0.325381
0.347431
0.315844
0.323167
0.338736
0.318234
0.321814
0.327161
0.334752
0.332633
0.324795
0.323778
0.314836
0.313015
0.323725
0.320334
0.291533
0.297526
0.324363
0.311854
0.30532
0.318331
0.319327
0.314547
0.314886
0.299572
0.312218
0.307568
0.327737
0.327984
0.326105
0.338682
0.327396
0.306295
0.284431
0.297984
0.32013
0.311644
0.338689
0.334591
0.350185
0.323885
0.30504
0.338302
0.351027
0.359375
0.343614
0.30273
0.300475
0.319106
0.319153
0.30896
0.309676
0.31001
0.283435
0.284065
0.300511
0.31014
0.30563
0.323509
0.321915
0.318164
0.303988
0.299595
0.317939
0.30108
0.298898
0.302431
0.287524
0.295089
0.287033
0.302436
0.295469
0.318016
0.295616
0.30449
0.274691
0.24859
0.268102
0.30121
0.279689
0.277187
0.294144
0.29886
0.305345
0.287154
0.290294
0.28689
0.300018
0.297267
0.30775
0.294059
0.3064
0.304299
0.311207
0.306791
0.312654
0.274386
0.282068
0.305782
0.320771
0.289944
0.29009
0.29921
0.299237
0.287289
0.289796
0.303256
0.304217
0.313804
0.30295
0.295287
0.326292
0.311353
0.288892
0.303768
0.314472
0.32248
0.304207
0.312095
0.30394
0.29571
0.30027
0.293361
0.298289
0.319717
0.312806
0.305622
0.30702
0.304274
0.283945
0.283028
0.306428
0.312089
0.321113
0.308009
0.305896
0.301874
0.296795
0.295629
0.312133
0.281082
0.3005
0.290587
0.296769
0.317104
0.317074
0.313298
0.282337
0.283958
0.306782
0.333449
0.312576
0.312556
0.345676
0.338829
0.300939
0.32034
0.311423
0.306828
0.328804
0.299503
0.308259
0.306253
0.275821
0.297249
0.271067
0.325812
0.317832
0.311401
0.289706
0.293556
0.322636
0.308366
0.296833
0.297305
0.308214
0.303736
0.305785
0.322047
0.312891
0.296304
0.316282
0.334418
0.308483
0.307499
0.327994
0.319479
0.329529
0.3254
0.329069
0.320764
0.31876
0.320662
0.321628
0.319762
0.309892
0.313347
0.296121
0.313255
0.321182
0.306668
0.307293
0.332927
0.32144
0.315005
0.312391
0.335745
0.33563
0.34294
0.315621
0.308953
0.313789
0.316327
0.321408
0.312085
0.31381
0.333548
0.343129
0.318588
0.34143
0.344986
0.337559
0.348016
0.335912
0.316922
0.331673
0.337007
0.332635
0.337834
0.311614
0.30935
0.311252
0.312514
0.308585
0.338533
0.31492
0.328188
0.322427
0.3167
0.297916
0.300548
0.318701
0.316517
0.29328
0.306098
0.326729
0.299863
0.307553
0.329233
0.329034
0.344432
0.322246
0.312139
0.327912
0.302923
0.317091
0.321091
0.310516
0.267554
0.304999
0.296439
0.304649
0.31259
0.315503
0.30716
0.306905
0.340779
0.32916
0.311593
0.323923
0.350292
0.334327
0.346446
0.326849
0.352035
0.353142
0.337533
0.335467
0.34088
0.34736
0.341295
0.347938
0.343344
0.335104
0.344326
0.349256
0.335877
0.335057
0.315147
0.306622
0.305183
0.330621
0.306782
0.304979
0.305394
0.336514
0.321039
0.351805
0.350379
0.344676
0.345782
0.360969
0.344248
0.341898
0.319287
0.318329
0.340331
0.323234
0.312626
0.321751
0.339837
0.34076
0.326264
0.304273
0.326782
0.307076
0.342022
0.353157
0.33309
0.329675
0.349384
0.326662
0.325482
0.352122
0.344946
0.327984
0.320684
0.318264
0.34019
0.318954
0.330943
0.369342
0.33972
0.347459
0.345061
0.341504
0.35453
0.32486
0.331053
0.34569
0.331418
0.330651
0.33896
0.301027
0.347633
0.339147
0.341759
0.352281
0.336219
0.329001
0.34582
0.320508
0.310415
0.313481
0.32385
0.356046
0.341524
0.357402
0.315565
0.328692
0.346876
0.372027
0.351541
0.332759
0.332878
0.368042
0.378225
0.369285
0.334612
0.335795
0.338458
0.334929
0.348961
0.35101
0.340784
0.350306
0.320224
0.32958
0.342659
0.331518
0.353227
0.305668
0.324878
0.314615
0.301075
0.31689
0.31968
0.298561
0.298221
0.302792
0.347454
0.338703
0.336648
0.327761
0.333671
0.319684
0.349221
0.332089
0.329133
0.315992
0.310783
0.310795
0.314861
0.324481
0.299721
0.327988
0.309543
0.307882
0.301653
0.311318
0.313125
0.318478
0.29968
0.284146
0.289593
0.297892
0.306959
0.294238
0.307752
0.296502
0.307319
0.311472
0.292459
0.332017
0.322607
0.312552
0.318855
0.321125
0.31
0.319365
0.339837
0.337712
0.296311
0.318347
0.309847
0.3117
0.306226
0.320246
0.314092
0.300286
0.299744
0.30304
0.276428
0.292018
0.29773
0.303629
0.303054
0.300562
0.302806
0.28852
0.30176
0.292542
0.274501
0.255904
0.244549
0.267155
0.259165
0.278133
0.28212
0.274826
0.284675
0.288198
0.282557
0.295016
0.31203
0.321675
0.275376
0.274908
0.264382
0.264037
0.264534
0.280275
0.293196
0.273445
0.270283
0.292501
0.289047
0.298369
0.288499
0.2823
0.283998
0.292617
0.283787
0.281553
0.280074
0.286542
0.250641
0.275969
0.272582
0.27391
0.263022
0.274846
0.257094
0.260048
0.273435
0.280012
0.290156
0.28134
0.270812
0.272314
0.260222
0.236557
0.274288
0.258549
0.259707
0.26644
0.273866
0.263962
0.254118
0.24545
0.255322
0.231242
0.222341
0.239762
0.271415
0.243597
0.256774
0.242776
0.275471
0.243819
0.248653
0.233056
0.212607
0.206034
0.230981
0.233177
0.22597
0.250096
0.238937
0.24138
0.251042
0.239753
0.224084
0.227634
0.225948
0.2121
0.217694
0.218106
0.201506
0.203548
0.193854
0.203946
0.171208
0.189548
0.183228
0.193111
0.197514
0.2045
0.199403
0.192255
0.194167
0.187504
0.189534
0.18976
0.192782
0.194158
0.20056
0.188782
0.202473
0.20874
0.203318
0.192462
0.192346
0.220295
0.205271
0.172429
0.188453
0.199777
0.178
0.149245
0.14424
0.159036
0.155272
0.148452
0.145282
0.152761
0.149193
0.164641
0.1585
0.151393
0.135325
0.133439
0.138663
0.142567
0.145838
0.130872
0.124198
0.127446
0.124584
0.125905
0.117416
0.112721
0.12003
0.113438
0.116399
0.107622
0.125991
0.131957
0.102377
0.0941256
0.102977
0.10842
0.0892691
0.0930691
0.0900573
0.0846919
0.0901398
0.0957418
0.0843024
0.0772818
)
;

boundaryField
{
    sides
    {
        type            calculated;
        value           nonuniform List<scalar> 2(0.0772818 0.0693329);
    }
    empty
    {
        type            empty;
    }
}


// ************************************************************************* //
