/*--------------------------------*- C++ -*----------------------------------*\
  =========                 |
  \\      /  F ield         | OpenFOAM: The Open Source CFD Toolbox
   \\    /   O peration     | Website:  https://openfoam.org
    \\  /    A nd           | Version:  7
     \\/     M anipulation  |
\*---------------------------------------------------------------------------*/
FoamFile
{
    version     2.0;
    format      ascii;
    class       volVectorField;
    location    "0.007";
    object      UMean;
}
// * * * * * * * * * * * * * * * * * * * * * * * * * * * * * * * * * * * * * //

dimensions      [0 1 -1 0 0 0 0];

internalField   nonuniform List<vector> 
1000
(
(-377.353 -32.3524 0.52644)
(-336.266 -15.9508 1.55893)
(-325.446 -15.9301 -1.51984)
(-264.086 -4.53596 -15.0816)
(-281.789 -13.1587 2.10596)
(-258.43 -10.5661 16.8543)
(-253.767 -3.44916 -2.8)
(-264.233 -10.236 8.52517)
(-232.983 -9.3278 18.8602)
(-228.62 12.1583 -8.78839)
(-223.24 3.49212 -9.26641)
(-230.202 -6.08688 -3.05294)
(-219.442 -5.92826 5.83165)
(-231.51 3.02733 35.6066)
(-202.611 -26.9459 -17.0146)
(-207.9 -4.70072 6.63278)
(-202.97 17.4835 24.6434)
(-190.749 -6.27395 35.0962)
(-215.97 32.4342 32.6001)
(-187.9 44.5799 32.329)
(-189.029 27.6348 6.45252)
(-198.39 23.2997 2.81443)
(-195.94 7.55191 26.0074)
(-210.421 27.451 59.8069)
(-211.092 30.239 45.8659)
(-192.839 30.4578 34.8059)
(-171.17 2.79422 32.7595)
(-167.436 45.8178 4.9726)
(-177.268 36.2242 22.5003)
(-186.123 -2.74233 21.1519)
(-171.327 27.0801 9.43685)
(-156.627 -15.5237 7.8643)
(-147.646 7.08765 33.5428)
(-145.635 3.51177 7.88939)
(-147.564 30.1075 15.8985)
(-141.166 22.8681 32.5566)
(-132.995 -5.82818 56.8167)
(-136.633 -81.3355 77.0544)
(-148.473 -54.2042 63.3004)
(-132.23 -4.51955 33.9546)
(-143.783 -8.9522 35.2911)
(-130.784 4.49353 39.2699)
(-123.309 16.1747 37.5823)
(-122.559 -2.28782 58.0216)
(-135.044 -19.67 36.3818)
(-137.826 -7.49899 47.2358)
(-127.325 9.78478 -3.16672)
(-126.796 -1.38976 26.1803)
(-129.511 -13.3693 15.9922)
(-137.342 -33.2824 27.9179)
(-135.119 -26.8323 34.9267)
(-130.434 -15.0848 41.7946)
(-121.184 -29.515 47.3252)
(-128.546 19.5523 52.5759)
(-119.188 -4.89745 43.2614)
(-116.037 -0.0357444 43.6398)
(-105.503 4.92466 55.6888)
(-108.593 10.6981 37.5049)
(-118.976 33.1381 45.8327)
(-111.792 14.9603 37.3857)
(-108.327 -3.10505 54.7831)
(-98.8456 18.3773 26.223)
(-103.735 8.75914 8.15209)
(-93.0755 7.53812 18.5842)
(-98.7303 19.6859 25.3656)
(-102.063 54.8922 54.1319)
(-102.402 67.0289 37.27)
(-89.6628 31.5208 61.2474)
(-105.174 55.0249 69.2785)
(-105.158 48.8968 48.1574)
(-86.5528 19.0798 29.9389)
(-87.925 -25.1305 24.3694)
(-87.5239 -62.2596 30.165)
(-83.6421 -72.8102 31.9847)
(-79.8846 -52.0452 52.7476)
(-81.5526 -43.8326 28.6149)
(-80.8395 -27.8857 13.702)
(-83.5465 -8.92876 23.5556)
(-77.22 -22.8563 39.6385)
(-77.9226 -36.584 31.4875)
(-80.1391 -25.296 33.6395)
(-83.8997 -31.7146 33.9053)
(-78.9835 3.97807 44.937)
(-79.552 -26.1721 59.9521)
(-75.0521 -15.163 63.8723)
(-81.1765 -9.33615 84.3857)
(-88.0918 -6.48125 88.6288)
(-79.9198 3.91064 89.4253)
(-72.9501 51.306 101.14)
(-82.5432 47.7517 87.8427)
(-76.3709 46.7923 86.3062)
(-76.8238 23.5368 120.533)
(-69.0452 -8.87319 130.779)
(-68.7351 2.2267 68.3574)
(-64.7796 -0.876946 69.8176)
(-67.7985 5.38591 66.3185)
(-73.2044 -7.28592 55.1561)
(-67.402 -5.66443 60.9868)
(-61.196 -25.065 55.9097)
(-63.5457 -65.1538 72.7321)
(-59.7782 -46.123 65.3333)
(-54.0059 -65.1833 39.5624)
(-53.3443 -44.0556 30.4001)
(-53.2681 -19.8634 42.1599)
(-54.4177 -31.186 19.7742)
(-56.6299 -44.4211 16.3878)
(-52.148 -73.0572 -0.671574)
(-57.1965 -73.6333 -10.2517)
(-53.6045 -91.4648 1.78478)
(-60.0396 -65.8482 19.0593)
(-57.6102 -61.5227 39.6742)
(-57.9959 -64.7416 30.2331)
(-53.3088 -51.1651 26.558)
(-48.3679 -39.8139 27.2413)
(-44.9132 -26.3356 23.3667)
(-48.6615 -54.2676 43.2388)
(-48.2613 -46.3181 43.8332)
(-47.6845 -52.7308 18.4369)
(-46.9899 -19.1029 12.5075)
(-46.1494 -36.4532 16.8016)
(-44.5817 -6.44489 2.68997)
(-39.4305 -11.1197 -2.80895)
(-41.2805 22.059 9.1486)
(-42.397 8.74652 10.943)
(-40.7995 -15.1367 2.39768)
(-34.9481 19.9186 38.1095)
(-34.7277 23.7477 7.43823)
(-39.5337 12.6715 -0.86266)
(-40.3101 11.4063 -9.77395)
(-37.5214 27.249 -32.2898)
(-36.7193 7.89088 -60.4713)
(-34.1751 25.0983 -33.2385)
(-35.4396 42.6099 -18.6444)
(-35.0119 25.6573 -15.4997)
(-33.4444 12.1571 4.92226)
(-27.3957 -14.3354 -2.71681)
(-32.0451 11.4902 14.0401)
(-31.1568 -14.9589 32.1269)
(-33.7422 5.90625 21.2523)
(-32.5658 46.2435 19.4897)
(-32.8157 48.7711 2.38024)
(-34.0842 50.0314 42.3551)
(-34.4161 24.458 9.44093)
(-34.9466 33.894 3.56889)
(-34.4576 39.7867 7.66659)
(-34.2467 17.756 2.53303)
(-31.7545 34.5139 15.8161)
(-29.8898 33.5367 19.7541)
(-30.8594 -11.0044 12.1459)
(-31.3425 -32.0236 16.775)
(-30.507 -8.0208 1.54374)
(-28.461 -36.8875 53.0033)
(-27.5363 -1.65881 56.6734)
(-27.2181 12.5769 65.101)
(-27.8961 -27.9088 19.4985)
(-27.3417 -25.6146 -4.04936)
(-29.1198 -45.7102 18.8864)
(-27.4242 -29.5566 31.9274)
(-26.5889 -26.1121 6.77542)
(-21.7984 -45.3089 3.27132)
(-22.3233 -91.4148 4.24328)
(-19.3168 -104.368 27.5866)
(-19.898 -102.831 34.9552)
(-21.3612 -47.7733 30.5562)
(-20.3677 -33.8399 30.015)
(-18.1918 -41.2018 0.612354)
(-19.8249 -45.3634 19.516)
(-19.7036 -54.1568 11.0584)
(-20.2724 -37.0942 -10.5065)
(-20.0434 -47.1449 -21.8022)
(-19.4978 -24.4212 -10.53)
(-18.143 -37.6916 -19.6769)
(-18.1717 -31.6786 -31.8792)
(-18.8475 -25.3493 -45.5549)
(-18.4672 -51.848 -15.4072)
(-18.049 -57.851 -34.6955)
(-17.2503 -55.2518 -34.3881)
(-16.4724 0.384589 -80.8148)
(-15.5439 -3.67793 -67.2637)
(-14.6767 -9.55431 -85.0973)
(-15.4202 5.38575 -66.3597)
(-17.0563 9.71999 -57.4367)
(-18.2307 11.2752 -41.73)
(-17.1151 -6.1967 -30.7881)
(-16.8497 10.577 -44.9304)
(-16.4651 14.2873 -30.5907)
(-14.8036 -10.3608 -17.3039)
(-15.6238 -15.7342 -14.4393)
(-16.3861 -10.3883 -13.5108)
(-16.4361 0.330671 0.656929)
(-15.8124 5.8966 4.67783)
(-13.6804 -0.415254 -22.7128)
(-13.3403 6.71452 -25.6293)
(-15.2278 40.6863 -41.1288)
(-17.7107 37.6168 -41.3007)
(-14.8851 38.8521 -41.3955)
(-14.2066 33.571 -44.0815)
(-13.9692 14.1529 -75.7341)
(-13.3984 32.2691 -69.6571)
(-13.1875 -19.1079 -49.7224)
(-12.2903 -19.6425 -76.8975)
(-14.3865 -8.54315 -93.8434)
(-15.5175 -3.89373 -48.159)
(-17.0824 -13.0909 -60.6798)
(-15.7747 -6.93057 -42.7262)
(-15.8545 -8.22548 -31.3386)
(-14.2036 -36.4417 -42.9097)
(-17.3624 3.31663 -28.1083)
(-17.2409 -10.8756 -13.5207)
(-15.2803 4.38056 -6.85422)
(-14.5356 14.1641 3.91532)
(-12.3658 -0.654918 -17.3621)
(-12.5807 19.929 -60.523)
(-12.2678 4.00822 -21.9844)
(-13.6023 5.53592 -40.5818)
(-12.8402 19.9196 -49.0145)
(-11.0697 30.9861 -16.7144)
(-10.5583 61.3636 -13.085)
(-9.98534 48.2303 -29.2845)
(-8.88257 18.5575 -25.1701)
(-9.02394 16.1104 -61.3618)
(-8.55763 3.19254 -33.3923)
(-7.97338 -10.3025 -45.0846)
(-8.96327 9.95146 -22.8774)
(-8.35438 11.7473 -58.7886)
(-9.36041 18.3189 -55.8224)
(-9.34077 11.9547 -67.7142)
(-10.2468 -1.2845 -65.5602)
(-9.65457 11.2339 -71.0551)
(-10.4804 18.461 -57.2597)
(-9.15067 19.014 -37.1786)
(-8.47014 34.1901 -35.5732)
(-9.39497 52.6995 -12.0285)
(-7.13796 26.669 -1.78429)
(-7.44714 3.55735 6.04777)
(-6.61299 22.2017 4.25799)
(-5.14204 -1.77822 12.6202)
(-6.32538 34.6122 -24.0459)
(-5.59652 40.4594 2.17247)
(-3.99105 25.3561 -36.8387)
(-4.8308 58.8989 -37.5553)
(-4.46991 29.2373 -46.0284)
(-4.44173 43.0806 -26.8209)
(-3.68353 45.2714 -45.1492)
(-5.13393 36.8025 -57.9674)
(-3.89373 53.7891 -56.5598)
(-3.53107 54.0047 -31.0049)
(-3.67888 27.0952 -46.501)
(-4.30093 -1.38387 -39.2972)
(-4.97259 5.71443 -52.8099)
(-3.61505 18.9293 -9.97417)
(-3.40443 36.1623 -22.1661)
(-2.68113 4.70306 -24.7942)
(-1.10467 -9.52611 -56.829)
(-1.16342 -19.6193 -71.1982)
(-0.0566165 -39.0105 -84.3909)
(1.89323 -30.6278 -59.2528)
(1.47421 -17.2404 -29.4211)
(1.64736 -1.91747 -30.811)
(2.14361 -33.8408 -50.9305)
(1.86021 -45.6208 -22.7695)
(1.58275 -69.8743 1.84764)
(2.10542 -74.5873 -0.95928)
(2.24181 -72.574 -6.80225)
(2.08452 -38.5487 -34.1742)
(2.49944 -41.8877 -32.4553)
(0.961628 -46.3098 -33.6475)
(1.18811 -61.5023 -50.5944)
(1.52534 -66.4131 -32.6289)
(3.3623 -42.5038 -43.0524)
(4.4496 -34.1548 -38.9265)
(5.16674 -43.2045 -20.9132)
(7.29586 -50.436 -22.1298)
(8.03684 -56.8826 -31.5406)
(8.14033 -31.4624 -40.9921)
(6.91245 -50.0786 -39.1577)
(6.44644 -92.4518 -33.8428)
(6.63286 -102.593 -24.3892)
(6.64717 -80.8003 -17.6676)
(6.24192 -77.194 -33.5945)
(6.49626 -58.69 -24.9999)
(6.71783 -67.8465 -11.3622)
(7.38714 -52.3145 -42.1944)
(8.5442 -49.4336 -18.2952)
(6.7829 -62.8932 -36.0248)
(6.85354 -55.4668 -24.6401)
(7.31194 -79.8799 -22.8956)
(7.94304 -103.83 -30.1028)
(8.62847 -112.52 -19.9879)
(7.91615 -117.671 15.1613)
(9.37726 -107.718 40.1947)
(8.34576 -77.5871 -2.91151)
(6.89109 -48.7791 -24.303)
(5.51933 -25.6276 -10.1585)
(6.11262 -21.9318 2.39858)
(6.44833 -32.9745 3.45391)
(5.1237 -57.4633 -3.42199)
(8.41845 -75.4809 -3.00137)
(8.68609 -67.776 -20.0383)
(9.92477 -48.6793 -6.44653)
(9.6868 -53.3119 -6.67455)
(8.43897 -54.9976 -26.9317)
(6.61416 -72.3611 -0.287904)
(5.96632 -74.9102 -34.8492)
(6.41735 -28.544 -27.7294)
(6.00052 -27.973 -31.3841)
(6.85888 -37.3824 -29.9751)
(6.95652 -22.3479 -9.54418)
(7.6339 -38.7626 12.4423)
(7.35581 -15.2061 -26.7929)
(5.65445 -16.9006 -14.9795)
(5.7252 -33.3122 -4.63459)
(5.45768 -35.6161 -20.5101)
(7.80729 -21.3633 4.05601)
(7.28961 -21.2137 -19.2697)
(7.8372 -35.0234 -40.0424)
(7.95331 -35.0768 -29.3698)
(6.41128 -23.4557 -22.7514)
(6.50272 -34.4544 -39.9414)
(6.59511 -57.4689 -78.2629)
(4.42403 -25.4039 -86.186)
(3.49466 -1.84606 -64.6943)
(3.12234 -4.30538 -27.6785)
(3.05828 -16.966 -13.4116)
(3.5928 -38.6789 -39.2933)
(2.91966 -49.5672 -56.6593)
(4.27349 -22.0857 -64.1986)
(4.65512 -12.0245 -33.2369)
(4.97249 -21.6485 -19.3254)
(4.61628 -4.77406 -17.5727)
(4.7562 -15.795 -30.1626)
(6.29641 -5.15678 -48.2633)
(7.05671 -26.9345 -57.2195)
(9.07187 -24.6381 -44.9833)
(9.21726 -29.3315 -25.8629)
(8.27054 -26.5904 -20.1981)
(8.18629 -46.5416 -31.5014)
(5.60361 -46.2737 -22.5757)
(4.40215 -45.3634 2.80757)
(4.32838 -30.3931 38.052)
(5.68336 -53.4995 4.50165)
(6.06584 -25.6009 0.471527)
(7.55954 -18.0504 -11.7894)
(8.02232 2.51435 -22.6935)
(8.9777 25.241 7.46844)
(8.86888 24.4735 1.14584)
(9.17481 11.8839 25.7947)
(8.29779 26.6298 9.06793)
(6.65995 17.6585 -17.9979)
(7.63581 45.1728 -16.4207)
(5.72915 13.4991 -43.7066)
(5.23502 -35.0686 -17.7299)
(6.00131 4.47332 -18.2047)
(6.23759 15.0925 -43.5854)
(6.07742 48.7568 -47.2288)
(5.07138 17.9222 -31.9015)
(5.43906 32.1008 -47.6208)
(3.09175 8.28276 -30.9629)
(2.35653 12.0939 -44.372)
(2.7203 13.1831 -33.5727)
(2.33579 0.376978 -34.8766)
(2.01281 -5.45644 -12.9235)
(2.74136 1.59913 -13.7195)
(1.4607 0.753218 10.3997)
(1.67355 0.771747 5.00415)
(0.865512 11.2215 21.0852)
(0.326694 -13.7359 17.7289)
(1.13372 -16.0762 41.1936)
(1.22238 -11.2074 27.638)
(0.756089 -32.4772 8.19474)
(1.79024 -36.5485 -0.713932)
(2.52294 -77.5044 19.8622)
(1.50715 -31.564 52.0407)
(1.49621 -48.9106 26.0313)
(2.70864 -23.796 43.7413)
(1.38405 -29.9203 46.3967)
(0.424128 -36.003 46.9353)
(-0.00729801 -25.6135 42.7916)
(0.610235 -32.3361 25.6775)
(1.47801 -65.7461 65.1018)
(0.750539 -52.9364 80.2404)
(2.00393 -34.9456 62.7559)
(2.69314 -26.5044 72.0699)
(2.82511 -14.6677 73.058)
(4.81491 10.8435 50.3541)
(4.63943 10.5947 37.8663)
(5.43814 13.3238 45.7419)
(6.19598 -9.72923 60.7026)
(5.26785 1.8079 82.743)
(5.26777 -0.473625 40.4187)
(4.4026 -30.6594 35.3581)
(4.73226 -25.6633 30.468)
(5.06492 -50.5104 46.5948)
(3.75478 -37.652 -1.7265)
(2.10731 -16.7135 1.81607)
(0.842698 -33.4506 1.2684)
(-0.10877 -18.798 23.8763)
(0.63733 -16.2495 9.98934)
(-2.53445 -19.6028 1.12818)
(-3.72771 6.19528 -17.0986)
(-2.56473 13.2163 -21.8028)
(-2.99627 17.4673 -7.94388)
(-3.95451 42.3528 22.3613)
(-5.07784 74.6551 0.550018)
(-4.8809 37.6897 3.68747)
(-6.53379 30.4487 1.98593)
(-7.61222 49.1112 -0.504783)
(-6.14217 64.0062 21.4988)
(-5.63147 61.1396 37.9223)
(-4.56836 36.4106 40.305)
(-3.88378 35.5902 44.4424)
(-2.13436 46.1352 39.7939)
(-1.48501 34.9936 41.0987)
(-1.69026 36.3556 72.239)
(-2.06049 44.5938 84.8892)
(-3.51437 49.9917 42.1567)
(-3.4436 28.1015 29.18)
(-3.21783 51.6706 16.5186)
(-1.62855 15.8727 12.0033)
(-1.6444 10.9424 49.6447)
(-0.976016 -8.10589 63.25)
(1.14847 21.718 39.673)
(-0.887733 42.4235 34.2065)
(0.138666 26.5099 -1.20235)
(0.21107 17.9479 -10.0877)
(0.326587 -7.7721 -18.3765)
(0.497668 14.0875 24.8278)
(0.708907 6.50895 28.357)
(0.659817 33.7754 37.9771)
(1.40246 39.2284 10.6101)
(1.765 79.2541 -4.1406)
(3.68781 39.6432 -12.9621)
(4.00628 19.6421 -15.7562)
(3.20212 26.0498 7.14987)
(3.31458 45.887 7.46968)
(4.83706 0.0169224 18.1041)
(4.36743 15.0564 -0.562982)
(5.38752 2.07495 22.0957)
(5.22782 23.3187 14.9883)
(4.33661 18.291 10.1377)
(4.10854 12.69 15.614)
(6.30893 2.5889 13.6524)
(5.58027 17.651 3.90795)
(4.65038 7.44809 5.63289)
(3.07058 -1.64272 13.094)
(1.96376 15.1017 66.1211)
(2.55096 31.8437 72.4698)
(4.15873 22.2002 84.2128)
(4.37821 33.8079 127.977)
(3.91179 28.7915 119.767)
(3.92686 -0.693335 101.576)
(3.0947 -8.0405 98.8183)
(2.80925 -26.7738 80.5578)
(2.72493 -20.674 57.4877)
(4.24738 -7.33932 74.5739)
(4.50381 11.7818 66.5781)
(3.53692 43.2619 70.3783)
(2.5695 17.3182 94.0672)
(0.858026 -1.79343 70.8753)
(-0.356837 -25.7636 55.4903)
(-1.16137 -35.5011 44.582)
(-1.6213 -35.7793 54.3037)
(-1.62725 -47.7836 25.8133)
(-2.56445 -32.2274 21.7653)
(-1.33012 -42.4853 0.699111)
(0.33797 -43.512 -4.95628)
(-0.51693 -53.4847 -21.3115)
(-0.104425 -48.8297 -1.75028)
(0.558658 -51.5814 4.93004)
(0.731049 -58.8342 9.40565)
(0.320824 -79.1451 2.42364)
(0.873407 -52.9596 10.6605)
(0.390031 -50.7041 12.408)
(-0.0147016 -69.646 51.5488)
(0.058535 -44.7551 40.7041)
(-1.60375 -59.5958 32.0078)
(-2.23504 -64.6566 63.5636)
(-2.07298 -51.6785 62.7136)
(-1.35718 -38.606 48.8747)
(-1.78235 -30.3516 66.1314)
(-1.74219 -37.6442 99.3744)
(-0.377369 -28.3709 86.3458)
(-0.347762 -6.82008 94.4768)
(0.41235 -15.2266 74.9313)
(-1.12283 -26.7806 71.4492)
(-1.80619 -12.9787 87.6308)
(-0.179197 -3.3169 101.04)
(-0.0630513 -1.74509 78.9344)
(0.817808 -34.6703 77.2096)
(1.8562 -15.3944 36.4997)
(1.47784 -11.0711 60.9399)
(1.77471 -8.01695 57.9379)
(1.43387 -20.6357 79.7787)
(1.83585 31.6224 89.6473)
(1.93234 20.921 78.3001)
(3.16817 9.53879 86.32)
(1.8601 -19.1851 92.1406)
(0.725919 3.46028 131.099)
(0.993623 -15.7842 119.932)
(2.00636 -3.86536 102.374)
(2.6631 -29.4175 71.6829)
(2.07966 -49.7539 61.6897)
(1.32273 -28.7711 69.0367)
(1.9951 -5.24872 30.9979)
(1.08847 -10.8599 25.3292)
(1.91742 -4.97644 33.2524)
(2.28732 6.93098 17.0605)
(3.83669 4.60188 14.0848)
(4.59954 -21.2042 -13.0665)
(4.34406 -30.8135 -6.79623)
(5.64776 -27.0806 24.0758)
(4.76715 -32.0326 12.4363)
(3.502 -31.3787 9.85061)
(1.18653 -16.3905 39.8224)
(0.527425 -51.3482 15.8767)
(-0.40823 -40.0178 7.32539)
(0.281663 -18.4562 35.7683)
(-0.013354 -18.9874 66.7162)
(-0.43477 -25.4104 48.5749)
(-0.581255 -6.21286 37.0909)
(-1.63087 -5.70465 27.5417)
(-1.27443 -0.888207 31.6568)
(-1.2047 32.1015 0.144881)
(0.732496 34.6208 -2.36224)
(0.36167 14.9054 9.24597)
(1.52497 11.7353 -3.09766)
(2.03577 3.34944 -12.9372)
(0.837109 13.4836 -23.6192)
(0.302302 15.288 -8.63632)
(0.00589074 15.8243 -46.3)
(0.090907 26.7493 -26.7376)
(-0.710139 31.5481 1.01548)
(-1.0515 15.0102 -3.89723)
(-0.754106 18.2654 -5.9324)
(0.697872 19.7205 16.9333)
(1.00857 35.7991 -8.32043)
(0.112109 22.7453 8.18793)
(0.654837 29.6015 11.3359)
(2.08805 18.6626 9.8342)
(2.61083 30.8586 16.5608)
(3.70928 20.535 6.16941)
(6.14478 19.0249 1.16454)
(6.26874 41.5788 13.1063)
(5.17489 31.7115 -17.0117)
(4.74971 34.0297 6.49)
(6.55897 51.7115 -26.3187)
(6.32404 45.9605 -34.3991)
(5.07827 56.4382 -31.3496)
(5.02184 50.7664 -16.5944)
(3.84417 19.3667 -14.1529)
(4.00247 31.7563 -14.9942)
(5.08975 17.3823 -26.7047)
(4.41465 14.8012 -42.021)
(4.50456 31.0835 -17.2144)
(5.14057 22.8284 -17.8443)
(4.44213 30.6032 -36.0249)
(4.24294 2.82993 -17.9814)
(4.84189 7.31759 -36.3521)
(3.72556 -18.263 -32.1556)
(5.98414 14.2665 -3.02886)
(5.29895 18.7507 -17.7689)
(4.29922 17.4217 -7.53701)
(2.78436 30.7133 15.6471)
(2.63921 64.2572 19.1952)
(2.67959 21.6295 28.236)
(3.06096 8.63673 1.10619)
(3.0805 18.4791 -8.34599)
(2.70694 29.0304 0.121043)
(1.7924 33.4308 -10.3324)
(3.26165 38.4615 12.798)
(4.24921 21.9293 0.544734)
(5.30945 38.5393 0.471174)
(5.05742 24.6153 -24.6621)
(3.93239 18.8044 -17.7445)
(3.52057 19.8636 -5.835)
(4.38545 1.33295 -27.399)
(4.94341 -35.6076 6.99101)
(2.69279 -38.5099 -10.6759)
(3.78478 -39.7264 -17.227)
(4.51879 -19.3126 -17.645)
(5.77558 -43.6002 1.53502)
(5.42734 13.1215 15.9325)
(5.87244 24.2676 13.6153)
(6.51107 34.7027 11.6405)
(7.52264 39.4991 12.4018)
(6.72605 14.4542 8.26913)
(7.43234 16.3604 -12.8678)
(7.20409 24.7525 -45.7889)
(6.89223 -2.10736 -18.1217)
(7.86282 7.81595 -11.4163)
(8.72311 28.5598 -21.699)
(7.32202 2.35662 -3.16513)
(4.63894 8.01633 -18.0758)
(5.09785 19.9089 -7.66857)
(5.52994 3.97777 -13.1441)
(4.59757 10.7935 -33.0333)
(5.37193 -0.894382 -37.8192)
(4.30211 12.6561 -53.3466)
(3.6673 16.7125 -71.4876)
(3.80143 -10.505 -73.9832)
(3.38277 11.992 -30.1504)
(4.03778 -17.1058 -39.4324)
(4.35728 -42.8986 -16.5362)
(4.53756 -34.5211 4.96488)
(3.42532 -20.2184 1.35626)
(3.10349 6.4206 -10.7582)
(1.43939 2.71116 -12.9213)
(2.83189 2.53334 -16.2997)
(5.42344 0.80656 1.39114)
(5.69043 0.310285 -9.01808)
(4.93286 -11.6391 -19.2967)
(3.85223 3.12581 1.70497)
(4.04627 -19.4619 -2.93767)
(4.13324 -6.06665 2.75599)
(4.26214 -3.06911 -7.85395)
(4.55903 8.34364 -20.3913)
(5.10048 25.8842 -46.1308)
(4.18017 15.5158 -45.2571)
(4.88141 45.5484 -41.5268)
(6.62785 14.4301 -60.3864)
(7.52902 36.2777 -66.2635)
(5.60169 35.8115 -43.7888)
(4.54877 27.6743 -48.2182)
(4.71765 9.87679 -30.7289)
(5.19701 3.40126 -41.2486)
(5.96568 -0.140677 -49.326)
(7.60732 4.20765 -59.4133)
(8.27028 30.2802 -35.394)
(7.68672 -20.2519 -43.7212)
(7.39823 -17.3395 -31.8475)
(7.12732 0.811319 -37.6753)
(5.99263 -6.0407 -41.3926)
(5.44506 15.2277 -33.2693)
(7.37514 -4.06648 -17.8463)
(7.50196 -3.33465 -24.4485)
(7.6337 20.724 -57.9998)
(8.81106 -3.53048 -47.5159)
(9.59053 18.1601 -95.9474)
(9.26451 51.9223 -71.2563)
(8.78327 67.9972 -39.1696)
(8.82842 74.96 -61.4207)
(9.23622 51.5714 -100.134)
(9.9016 44.8308 -75.4377)
(11.2693 55.59 -62.5442)
(11.7449 59.2483 -66.9518)
(11.0462 85.5104 -14.1375)
(11.1912 51.2237 -8.23951)
(12.1279 74.2322 -35.0471)
(12.4762 64.6958 -22.4406)
(10.926 41.147 -27.0148)
(11.0227 61.4981 -10.9102)
(10.3447 50.0499 -26.2899)
(10.4796 36.7616 -35.2015)
(11.5536 26.1172 -26.5557)
(12.5375 66.175 -23.5117)
(10.8552 51.8939 -6.78715)
(10.2815 46.5799 -44.0168)
(11.0391 27.3656 -33.0023)
(11.9262 19.7527 -56.7341)
(12.1025 52.0385 -80.8873)
(10.3559 38.0498 -45.0245)
(9.69985 24.1072 -50.4486)
(9.53252 13.5758 -49.7014)
(9.26989 20.1061 -29.9574)
(9.11793 3.93665 -57.0546)
(7.89545 12.7029 -61.3466)
(6.48985 11.4439 -40.3212)
(5.03271 3.93837 -52.6045)
(4.69363 3.61531 -69.1091)
(3.35914 4.2441 -51.6713)
(4.04105 2.27071 -38.2231)
(4.02445 13.3457 -30.1091)
(4.13921 7.65957 -44.7763)
(3.90995 22.2746 -58.0368)
(4.54683 31.6427 -23.0704)
(4.20198 22.9014 13.2692)
(5.28408 39.6152 7.59945)
(6.28513 32.2548 1.21949)
(6.84543 43.3656 11.2873)
(8.76475 69.1477 -0.717284)
(7.49618 95.7049 -14.4787)
(6.01507 72.4131 0.24938)
(6.17589 55.8005 2.94162)
(6.97171 59.947 -0.634932)
(6.60962 34.8214 22.8636)
(7.26418 23.0476 10.913)
(7.00407 44.2658 2.64563)
(7.12875 41.6916 -8.16562)
(7.56518 46.319 2.80538)
(8.46182 29.9732 13.724)
(8.64126 41.9423 16.6964)
(9.45299 50.3182 34.3554)
(8.77132 43.9349 24.6941)
(10.3191 18.2461 47.7422)
(10.2988 23.4715 46.5063)
(9.91875 55.9896 22.2533)
(9.13333 11.3182 49.1412)
(8.68155 42.7236 51.2285)
(9.31531 38.0411 29.0585)
(9.52805 23.4416 38.3951)
(10.0383 -4.88607 51.5848)
(11.48 -7.25837 32.7016)
(11.0267 12.6845 23.7017)
(11.9922 -1.02809 38.8488)
(11.0664 -15.8297 75.6182)
(13.0172 15.7273 74.1012)
(13.3838 26.0397 50.397)
(14.6119 6.73697 43.777)
(16.1824 8.83595 63.4886)
(16.9472 19.5992 33.3545)
(16.7706 33.0845 32.4164)
(15.7184 42.9865 30.6283)
(15.6384 41.3781 25.2839)
(13.7616 39.7699 17.8993)
(12.3061 18.015 26.7305)
(12.7844 10.229 24.6552)
(12.7751 5.6267 21.2491)
(12.7783 9.34121 25.2082)
(13.2784 10.1291 19.1304)
(11.6882 6.0107 20.9126)
(9.63813 8.28656 22.7618)
(10.949 -36.6476 30.4272)
(11.5676 -28.7148 43.5456)
(13.0499 -15.1756 64.3039)
(13.3986 -1.54545 31.2904)
(14.298 0.126707 52.1757)
(14.3948 5.77639 61.6329)
(14.9442 -8.25241 48.7725)
(14.6595 18.0606 61.2495)
(12.4904 24.5895 69.0654)
(11.8015 38.3154 54.8133)
(12.1209 41.4639 59.5787)
(11.7603 36.5586 66.1457)
(10.1273 20.4205 35.0474)
(7.50501 2.73362 29.9473)
(7.39481 -12.905 35.5892)
(8.9078 20.9554 53.639)
(8.91974 -12.9654 29.4915)
(9.73415 -20.1782 14.4874)
(10.8998 -9.90278 23.0674)
(9.8305 -8.41539 40.7954)
(9.96385 0.590004 54.1411)
(11.365 6.161 62.6876)
(10.0813 1.88002 27.4305)
(9.32607 38.3558 28.3375)
(9.01245 53.8128 42.9339)
(8.82633 40.3111 64.1113)
(7.61477 44.6985 86.5457)
(7.79233 30.6159 88.7397)
(6.65637 30.4379 74.4785)
(6.37853 29.0841 65.1958)
(5.19238 31.4284 68.7734)
(5.08107 30.7222 75.362)
(5.83229 32.8007 57.6809)
(6.49486 41.4628 49.6259)
(6.34299 50.3389 76.3781)
(7.65548 30.3422 54.8999)
(8.76595 44.5738 49.4849)
(10.9133 52.3055 57.3025)
(10.9458 76.9704 63.0786)
(10.7063 46.5532 50.7226)
(12.2202 26.953 50.2717)
(12.4261 58.4947 28.5754)
(12.3823 16.8013 48.028)
(13.1049 -18.2592 60.1617)
(12.9355 -37.6272 59.3382)
(14.6606 -28.3385 36.0052)
(12.8674 -24.1141 27.8516)
(13.0245 -12.7429 14.3257)
(13.1968 -34.3291 38.4025)
(11.2493 -30.4493 14.7241)
(14.1018 14.7792 28.5533)
(14.1127 30.8235 26.2945)
(14.364 -5.8467 43.1676)
(15.5634 1.989 52.2274)
(14.8992 22.2468 93.8172)
(15.6314 23.0511 76.2261)
(18.7895 68.6256 91.3817)
(19.9255 53.9509 85.9482)
(21.0096 44.2764 95.14)
(18.6282 46.4873 92.3148)
(17.6828 20.5224 78.6207)
(15.1114 19.3467 41.5968)
(15.5304 -3.13929 13.4909)
(16.3252 11.5022 42.115)
(16.325 -1.59728 0.452944)
(15.5963 25.7396 3.18697)
(16.2457 12.4095 -23.7097)
(17.1345 15.3676 -6.46516)
(19.4451 7.18184 19.2002)
(20.7108 -12.1917 3.87107)
(21.1017 -12.9059 6.81766)
(19.7396 -16.2968 17.9661)
(20.0484 14.739 60.1848)
(22.1867 19.3636 19.8747)
(21.094 -6.76966 14.0894)
(21.6757 5.86782 27.2653)
(21.2768 5.54387 -4.32521)
(20.1523 -25.8278 46.4462)
(21.9782 -38.463 54.7684)
(22.3545 -16.5359 60.766)
(23.1623 9.32885 28.8254)
(26.6926 8.98576 62.4338)
(30.7423 -9.17502 28.5919)
(29.4931 -33.6013 10.2769)
(28.0474 -14.4742 -9.00075)
(27.6464 -25.044 2.05816)
(30.4324 -22.3558 -11.3938)
(29.852 -18.5289 41.3478)
(28.7661 -23.6285 55.2544)
(29.2576 -15.6573 47.4075)
(27.9503 -3.98582 58.3857)
(27.4998 -49.4668 34.6751)
(23.3991 -41.5375 49.0337)
(25.5405 -73.2072 56.7987)
(25.9928 -66.2448 25.0407)
(25.1204 -79.1636 32.3889)
(25.1114 -72.5989 32.5797)
(28.2354 -39.4993 15.4522)
(27.9317 -20.141 0.360448)
(27.2915 -32.325 5.12179)
(26.6993 -19.277 20.2161)
(30.1447 -23.0864 43.8722)
(29.3483 -35.0466 49.5003)
(30.1735 -36.905 21.8169)
(29.5853 -41.9843 8.87267)
(29.2352 -41.9691 7.94048)
(27.2097 -50.289 25.2442)
(28.5118 -42.2005 4.58578)
(30.0926 -40.6732 -5.41111)
(26.9454 -22.4865 -17.4447)
(27.776 16.7804 -27.2242)
(29.2425 -11.8811 -9.5414)
(29.0898 -26.3976 -12.0947)
(30.0432 -45.8864 -17.0346)
(29.7519 -32.1401 -38.3939)
(30.895 -70.6254 -31.0886)
(31.1365 -38.9408 -28.5176)
(33.0838 -39.033 -29.5066)
(33.8833 -30.0425 -23.1994)
(32.4431 -26.5286 -24.1425)
(33.3786 -48.0333 -20.6544)
(34.63 -46.4083 -13.6749)
(38.4354 -37.1316 26.4536)
(40.8034 -33.8838 2.17986)
(42.8516 -34.6831 25.7071)
(42.8291 -60.1952 24.4406)
(40.0059 -52.4431 -5.60766)
(40.8009 -34.3036 3.68338)
(43.5609 -31.5343 -56.9903)
(44.2619 -50.3777 -2.15093)
(43.3931 -60.4619 -0.00292883)
(44.7132 -28.5485 33.745)
(45.6885 -43.0369 20.8257)
(44.5165 -71.8958 3.98236)
(44.3526 -54.6723 29.0489)
(55.0363 -45.4621 32.1212)
(57.4864 -24.7662 11.6438)
(55.7448 -12.4993 26.487)
(53.1456 -31.3719 23.7918)
(56.3425 -35.1337 67.3292)
(52.2245 -40.9844 43.6138)
(56.2512 -46.5783 33.2806)
(61.5438 -34.6208 13.5225)
(64.1306 -33.7875 16.1152)
(58.9024 -41.8536 17.4707)
(59.9887 -61.4974 5.74702)
(58.6613 -66.5395 9.66715)
(62.5145 -93.0718 11.169)
(66.5918 -67.2549 17.8793)
(63.2011 -51.4943 14.0906)
(64.6608 -60.7629 33.4521)
(68.1251 -54.7098 40.8922)
(61.833 -45.9317 23.2949)
(61.3638 -29.5299 38.5687)
(63.7031 -18.7209 20.4785)
(75.5765 -44.5205 -10.8295)
(71.581 -59.2353 3.00631)
(69.0549 -70.9428 -8.59311)
(69.6962 -58.6718 42.7964)
(71.1989 -75.0902 55.8783)
(65.2423 -72.5491 80.9432)
(67.2895 -79.1981 83.6421)
(69.4252 -80.2152 60.7691)
(62.5374 -64.9528 58.1364)
(60.7684 -62.4742 76.5131)
(58.4031 -53.5113 79.4387)
(62.3969 -27.2136 78.7236)
(68.7408 -24.0048 65.3596)
(73.0101 22.3065 90.3076)
(75.5842 6.88445 83.7719)
(77.3684 -25.5181 91.1632)
(68.8087 -43.2023 64.5605)
(76.3471 -55.1678 37.1492)
(82.4577 -43.8967 67.4173)
(78.0113 -38.9662 72.7397)
(77.6505 -40.8733 57.8002)
(76.6045 -61.1681 45.783)
(81.7368 -24.4343 33.1056)
(87.2512 -27.7898 18.8847)
(84.3325 2.64288 10.9925)
(91.1205 -6.40588 11.2824)
(90.2339 12.9251 28.7882)
(86.1572 22.1974 14.9946)
(81.142 0.949397 23.3966)
(89.4669 -23.0344 8.5931)
(74.9196 -13.8021 10.4016)
(88.5942 -14.9129 17.112)
(78.7892 -29.2032 -10.2188)
(94.5795 -24.9148 -20.3926)
(86.9256 -68.485 -50.8957)
(92.4003 -66.7392 -61.7633)
(102.871 -54.3975 -36.4176)
(109.819 -64.5566 -5.68007)
(96.5455 -85.5746 -19.2831)
(98.7596 -55.2313 -41.016)
(111.786 -73.1435 -45.7072)
(104.517 -95.743 -18.343)
(105.259 -87.5532 -24.585)
(101.443 -62.8469 -38.935)
(93.7097 -35.826 -47.6918)
(103.374 -10.9179 -22.655)
(104.519 -14.5719 -21.6884)
(100.143 -23.2668 -18.8816)
(97.5185 9.8861 -26.2818)
(103.159 27.4983 -27.132)
(104.487 22.2595 -54.303)
(106.787 17.3674 -39.6794)
(115.36 29.4 -30.846)
(125.119 43.635 -37.85)
(110.671 13.1194 5.53668)
(104.351 0.884064 27.4604)
(117.929 -27.0594 23.8534)
(114.437 -10.8243 34.6714)
(131.822 3.37629 34.9001)
(123.216 -26.7712 21.3448)
(121.916 -0.860022 2.68036)
(121.334 -18.9787 -0.193531)
(119.759 -14.7152 31.8108)
(127.832 -15.1951 39.9239)
(122.482 -21.131 31.156)
(138.115 -15.9709 3.7956)
(131.854 -8.75675 6.18563)
(132.914 22.0686 2.95824)
(124.542 9.35555 45.0445)
(132.808 -28.1169 27.2136)
(140.165 -31.7524 8.16342)
(146.205 -7.39279 -7.22831)
(135.22 -5.10576 1.10206)
(130.326 -1.19412 -4.58011)
(139.485 9.04281 27.7939)
(141.843 19.7886 20.7203)
(132.732 17.9869 7.5631)
(115.509 14.4876 0.339435)
(131.282 31.1193 32.3299)
(151.025 43.4342 24.2742)
(155.354 9.52662 27.6135)
(140.83 13.5197 -23.6336)
(158.309 11.5609 19.2995)
(174.727 23.0643 20.9445)
(174.622 33.1766 16.0874)
(166.63 23.5247 -6.60623)
(176.934 17.0301 8.25369)
(177.044 31.5329 -6.70213)
(183.249 27.2662 14.7745)
(186.633 37.5993 -8.01685)
(190.415 17.5543 -13.2321)
(174.683 56.9511 4.45213)
(174.713 37.094 36.9739)
(178.106 -11.2781 -4.98871)
(172.356 -19.9795 3.24132)
(190.368 -19.6614 -6.88869)
(200.381 -24.9838 -18.2434)
(193.923 7.79255 -28.4021)
(193.072 -3.76019 -40.2192)
(203.941 -1.19742 -36.6241)
(217.179 8.45764 -24.2257)
(222.165 -0.566161 -0.325689)
(222.952 -3.95335 -15.23)
(214.781 3.73406 -15.8702)
(233.377 14.4547 6.94609)
(240.434 21.847 -24.3463)
(232.234 -1.265 -12.2326)
(235.807 16.4213 -23.7633)
(243.828 19.706 -23.9456)
(267.776 36.5689 -14.2897)
(239.489 46.3696 0.211799)
(206.992 56.4183 -8.78111)
(254.483 27.9013 12.4772)
(268.286 25.8676 -5.50828)
(258.986 17.9572 5.30028)
(260.952 -13.1018 -4.28961)
(301.496 8.48958 -2.89667)
(300.059 35.4907 -8.28253)
(298.563 7.41816 -3.2395)
(307.32 19.7366 -13.568)
(292.518 18.1529 -19.5814)
(298.131 11.3567 -2.12428)
(316.732 21.1466 0.973374)
(327.276 10.3871 -2.48278)
)
;

boundaryField
{
    sides
    {
        type            calculated;
        value           nonuniform List<vector> 2((327.276 10.3871 -2.48278) (-377.353 -32.3524 0.52644));
    }
    empty
    {
        type            empty;
    }
}


// ************************************************************************* //
