/*--------------------------------*- C++ -*----------------------------------*\
  =========                 |
  \\      /  F ield         | OpenFOAM: The Open Source CFD Toolbox
   \\    /   O peration     | Website:  https://openfoam.org
    \\  /    A nd           | Version:  7
     \\/     M anipulation  |
\*---------------------------------------------------------------------------*/
FoamFile
{
    version     2.0;
    format      ascii;
    class       volScalarField;
    location    "0.00036";
    object      internalE;
}
// * * * * * * * * * * * * * * * * * * * * * * * * * * * * * * * * * * * * * //

dimensions      [1 -1 -2 0 0 0 0];

internalField   nonuniform List<scalar> 
500
(
1057.74
1117.49
1112.24
1116.27
1113.64
1047.14
1098.58
1124.6
1127.84
991.96
1113.14
1171.82
1026.24
1159.41
1217.24
1079.12
1228.46
1257.39
1138.85
1168.58
1091.48
959.375
934.365
1041.01
1231.37
1172.44
1162.47
1092.2
1024.74
942.238
1240.38
1100.02
1187.31
1185.71
1269.3
987.531
1376.82
1131.51
960.756
1219.71
1163
1116.44
1088.25
1063.35
1123.25
1266.39
1082.23
1085.86
1181.12
1029.98
1142.78
1117.19
1243.73
1157.13
1226.56
1093.81
1065.55
1155.89
1152.1
1192.74
1070.36
1109.78
1086.81
1168.64
1146.24
1013.51
1115.69
1090.05
1176.95
996.355
1295.89
1396.71
1076.89
1139.72
1247.43
1089.3
1124.42
1243.34
1206.68
1159.9
1024.01
962.633
1131.01
983.045
1063.12
1191.49
1006.56
1045.95
1244.14
1124.94
994.343
1098.15
1235.98
1112.57
1192.43
1110.7
1075.73
1120.94
1219.56
1225.88
1200.9
975.759
993.286
1050.78
1060.62
1118.39
1095.3
1144.98
1123.63
1134.39
1185.55
1311.08
1092.97
1140.44
1114.74
1142.13
1060.54
1271.64
989.786
1068.55
1018.6
1188.46
1221.84
1179.38
1243.27
1023.25
1081
1270.66
1167.44
1129.19
1202.61
1062.49
941.091
1220.56
945.677
1141.26
1089.15
1021.41
1241.43
911.561
1133.25
1247.68
1115.46
1042.29
1062.93
1086.49
1210.76
1005.4
1100.53
1132.68
1197.88
1189.95
1124.29
908.855
1161.58
1068.91
882.407
1176.22
1248.14
1199.71
1287.97
1128
1282.99
1034.1
1178.44
1023.67
1198.47
1026.71
1157.6
1105.94
1175.97
1288.17
1018.65
1149.45
980.811
1174.81
883.57
1040.98
1127.85
1004.11
1176.72
1206.06
1222.69
1228.22
912.992
1123.08
981.162
1354.1
988.677
1035.8
1322.05
1303.77
1232.32
1135.73
1058.33
1079.52
1095.81
1170.49
1112.73
1015.57
1151.99
1252.47
1229.72
1046.42
1125.9
1059.28
1228.27
1119.36
1057.34
1068.98
1197.77
1012.83
1032.23
1028.13
1225.27
1092.58
1095.47
1198.27
1055.84
971.203
1051.68
1127.87
909.417
1206.56
1129.24
1157.17
1195.09
1050.28
1014.76
1170.22
949.337
1261.75
1122.24
1282.03
990.319
1039.26
820.417
943.711
987.261
822.363
791.277
698.639
615.224
486.619
523.956
586.418
502.078
504.962
528.974
431.727
459.492
398.971
372.945
374.668
346.38
418.324
497.77
426.889
339.049
361.894
416.205
350.395
409.709
444.331
342.897
365.519
417.233
216.438
140.2
115.861
121.733
113.263
137.952
105.48
133.483
69.1997
124.82
90.2505
105.57
135.729
107.003
82.1513
77.7714
102.344
138.029
123.496
124.247
94.7864
123.89
101.483
77.3193
117.752
73.938
108.194
89.7765
108.615
98.7307
114.213
120.318
87.8619
116.005
125.437
117.054
102.608
134.456
107.09
93.2292
78.6279
93.7446
112.135
139.691
92.5348
115.95
120.38
105.494
130.074
106.396
101.184
133.884
107.247
106.871
115.056
130.694
81.6251
110.807
100.075
76.014
118.737
135.273
132.226
99.6987
108.367
109.398
96.941
121.146
97.6289
131.041
70.8819
105.292
112.564
103.122
82.6657
130.042
85.4579
104.262
95.8571
126.166
128.367
78.0731
104.193
108.002
104.467
144.78
95.5079
92.5324
106.601
126.731
125.457
111.644
104.448
119.334
109.117
102.564
130.41
116.401
97.8813
100.866
105.064
128.291
142.994
89.4847
94.9017
129.114
101.317
139.993
117.425
68.1209
136.898
117.661
116.195
118.673
110.176
106.082
137.192
96.924
72.4761
112.23
131.416
140.84
87.933
116.633
111.3
94.902
71.9224
92.8627
113.639
116.186
114.013
122.43
116.157
91.6478
107.251
90.7826
98.1835
110.354
82.0119
119.719
102.614
133.97
106.363
123.623
105.413
101.251
102.067
112.614
137.16
103.102
127.284
116.119
98.8814
109.424
109.955
98.8746
94.8888
103.971
107.968
107.047
139.875
133.86
121.819
96.1022
105.021
125.777
133.454
105.147
113.904
122.429
113.501
116.745
124.075
97.3488
96.3082
112.242
129.509
130.294
80.7936
74.9778
93.0089
109.577
117.012
162.741
100.918
94.8633
86.3043
90.9688
71.8269
53.6912
129.816
88.3253
104.626
100.27
112.056
101.348
117.201
86.249
110.499
113.46
101.845
100.647
126.207
92.6992
98.8914
125.22
118.134
105.88
104.908
118.997
130.728
116.012
161.274
108.744
76.5446
88.6693
74.5293
99.9085
118.182
137.138
108.754
91.6225
125.768
116.278
103.305
107.328
93.7634
95.0639
95.3936
121.691
135.899
94.3354
91.485
)
;

boundaryField
{
    sides
    {
        type            symmetry;
    }
    empty
    {
        type            empty;
    }
}


// ************************************************************************* //
