/*--------------------------------*- C++ -*----------------------------------*\
  =========                 |
  \\      /  F ield         | OpenFOAM: The Open Source CFD Toolbox
   \\    /   O peration     | Website:  https://openfoam.org
    \\  /    A nd           | Version:  7
     \\/     M anipulation  |
\*---------------------------------------------------------------------------*/
FoamFile
{
    version     2.0;
    format      ascii;
    class       volScalarField;
    location    "0.00036";
    object      rhoN;
}
// * * * * * * * * * * * * * * * * * * * * * * * * * * * * * * * * * * * * * //

dimensions      [0 -3 0 0 0 0 0];

internalField   nonuniform List<scalar> 
500
(
8.53571e+22
9.32143e+22
8.89286e+22
9.32143e+22
9.10714e+22
8.46429e+22
9.17857e+22
9.17857e+22
9.28571e+22
8.78571e+22
9.28571e+22
8.75e+22
8.85714e+22
8.96429e+22
9.57143e+22
9.03571e+22
9.67857e+22
9.5e+22
9e+22
9.14286e+22
8.21429e+22
7.96429e+22
8.39286e+22
9.14286e+22
1e+23
9.03571e+22
8.78571e+22
8.42857e+22
8.78571e+22
7.82143e+22
9.17857e+22
9.78571e+22
9.46429e+22
1.00714e+23
9.21429e+22
8.07143e+22
1.02857e+23
9.67857e+22
8.35714e+22
1.03571e+23
9.5e+22
9.17857e+22
8.82143e+22
9.28571e+22
9.07143e+22
9.10714e+22
9.10714e+22
8.82143e+22
9.42857e+22
8.21429e+22
8.57143e+22
8.85714e+22
1.01071e+23
8.67857e+22
9.21429e+22
9.32143e+22
9.39286e+22
8.96429e+22
9.78571e+22
9.60714e+22
8.46429e+22
8.67857e+22
8.96429e+22
9.92857e+22
8.71429e+22
8.57143e+22
9.75e+22
8.64286e+22
9.32143e+22
9.21429e+22
1.03214e+23
1.02857e+23
8.64286e+22
8.89286e+22
1.00357e+23
9.03571e+22
9.25e+22
9.39286e+22
9.42857e+22
9.03571e+22
9e+22
8.28571e+22
9.35714e+22
8.89286e+22
8.53571e+22
9.07143e+22
8.35714e+22
8.39286e+22
9.35714e+22
8.21429e+22
8.28571e+22
8.46429e+22
9.5e+22
9.82143e+22
9.32143e+22
8.85714e+22
9e+22
8.85714e+22
9.21429e+22
9.35714e+22
9.17857e+22
8.25e+22
8.32143e+22
8.96429e+22
8.71429e+22
9.14286e+22
9.07143e+22
9.07143e+22
9.03571e+22
9.46429e+22
9.46429e+22
9.53571e+22
9.42857e+22
9.21429e+22
8.75e+22
9.71429e+22
8.96429e+22
9.28571e+22
8.17857e+22
9.42857e+22
8.03571e+22
9.21429e+22
9.60714e+22
9.53571e+22
9.96429e+22
8.67857e+22
9e+22
9.21429e+22
9.07143e+22
9.85714e+22
9.78571e+22
9.21429e+22
8.25e+22
9e+22
8e+22
8.82143e+22
9.28571e+22
9.07143e+22
9.32143e+22
7.64286e+22
9.92857e+22
9.5e+22
9.32143e+22
8.85714e+22
7.96429e+22
9.28571e+22
9.14286e+22
8.17857e+22
8.64286e+22
8.96429e+22
9.32143e+22
9.14286e+22
8.78571e+22
8.32143e+22
9.60714e+22
9.46429e+22
8.71429e+22
8.89286e+22
8.71429e+22
9.14286e+22
1.02857e+23
8.71429e+22
9.85714e+22
9.10714e+22
1.03571e+23
9e+22
9.46429e+22
8.42857e+22
8.89286e+22
9.60714e+22
9.46429e+22
1e+23
8.96429e+22
9.32143e+22
8.28571e+22
8.89286e+22
8.03571e+22
8.39286e+22
8.39286e+22
8.57143e+22
9.60714e+22
9.42857e+22
9.78571e+22
9.17857e+22
8.25e+22
9.78571e+22
8.75e+22
1.02857e+23
9.03571e+22
8.64286e+22
1.02143e+23
8.96429e+22
9.53571e+22
9e+22
8.96429e+22
9.17857e+22
8.89286e+22
9.14286e+22
8.82143e+22
8.67857e+22
9.28571e+22
9.57143e+22
9.53571e+22
8.39286e+22
8.57143e+22
9.03571e+22
9.85714e+22
9e+22
8.96429e+22
9.57143e+22
9.64286e+22
8.67857e+22
8e+22
8.57143e+22
9.28571e+22
9.14286e+22
9.07143e+22
9.96429e+22
8.82143e+22
7.75e+22
8.53571e+22
8.82143e+22
8.21429e+22
9.25e+22
8.89286e+22
9.53571e+22
9.46429e+22
8.85714e+22
8.53571e+22
9.71429e+22
9.03571e+22
9.42857e+22
8.64286e+22
9.89286e+22
8e+22
8.64286e+22
7.39286e+22
8.32143e+22
7.96429e+22
7.07143e+22
6.67857e+22
6.10714e+22
6.17857e+22
5.42857e+22
5.64286e+22
5.14286e+22
5.10714e+22
4.57143e+22
4.96429e+22
4.35714e+22
4.92857e+22
4.21429e+22
4.85714e+22
4.17857e+22
4.42857e+22
5e+22
4.78571e+22
4.53571e+22
4.46429e+22
5e+22
5.57143e+22
5.10714e+22
5.5e+22
6.92857e+22
5.96429e+22
5.78571e+22
6e+22
4.17857e+22
3e+22
2.85714e+22
2.82143e+22
2.46429e+22
3.17857e+22
2.46429e+22
2.78571e+22
2e+22
2.89286e+22
2.53571e+22
2.82143e+22
3.39286e+22
2.64286e+22
2.25e+22
2.21429e+22
2.46429e+22
3.25e+22
2.53571e+22
3.10714e+22
2.46429e+22
2.71429e+22
2.67857e+22
2.46429e+22
2.39286e+22
1.96429e+22
2.39286e+22
2.25e+22
3.03571e+22
2.46429e+22
2.53571e+22
2.82143e+22
2.39286e+22
2.92857e+22
2.5e+22
2.75e+22
2.75e+22
2.75e+22
2.67857e+22
2.5e+22
2.35714e+22
2.03571e+22
2.71429e+22
2.67857e+22
2.42857e+22
2.67857e+22
2.71429e+22
2.60714e+22
2.82143e+22
2.96429e+22
2.57143e+22
2.78571e+22
2.53571e+22
3e+22
2.71429e+22
3e+22
2.57143e+22
2.67857e+22
2.17857e+22
2.39286e+22
2.96429e+22
2.60714e+22
2.89286e+22
2.53571e+22
2.5e+22
2.96429e+22
2.57143e+22
3.07143e+22
2.64286e+22
2.82143e+22
2.35714e+22
2.39286e+22
2.53571e+22
2.32143e+22
2.21429e+22
2.85714e+22
2.25e+22
2.89286e+22
2.39286e+22
3.03571e+22
2.67857e+22
1.96429e+22
2.71429e+22
2.57143e+22
2.89286e+22
2.92857e+22
2.75e+22
2.67857e+22
2.46429e+22
2.82143e+22
2.57143e+22
2.39286e+22
3.14286e+22
2.64286e+22
2.64286e+22
2.78571e+22
2.67857e+22
2.85714e+22
2.75e+22
2.42857e+22
2.39286e+22
2.67857e+22
2.53571e+22
2.5e+22
2.42857e+22
2.96429e+22
2.67857e+22
3.10714e+22
2.32143e+22
2.17857e+22
3.35714e+22
2.53571e+22
3.03571e+22
2.82143e+22
2.5e+22
2.75e+22
2.85714e+22
2.5e+22
2.07143e+22
2.67857e+22
2.75e+22
3e+22
2.39286e+22
2.71429e+22
3.03571e+22
2.10714e+22
2.21429e+22
2.32143e+22
2.75e+22
2.85714e+22
2.39286e+22
3.28571e+22
2.39286e+22
2.21429e+22
2.46429e+22
2.28571e+22
2.53571e+22
2.46429e+22
2.35714e+22
2.5e+22
2.42857e+22
2.92857e+22
2.67857e+22
2.42857e+22
2.64286e+22
2.60714e+22
2.53571e+22
2.57143e+22
3.14286e+22
2.57143e+22
2.85714e+22
2.71429e+22
2.46429e+22
2.46429e+22
2.82143e+22
2.21429e+22
2.5e+22
2.53571e+22
2.75e+22
2.60714e+22
3.07143e+22
2.78571e+22
2.96429e+22
2.53571e+22
2.5e+22
3e+22
2.78571e+22
2.53571e+22
2.5e+22
3e+22
2.5e+22
2.53571e+22
2.85714e+22
1.85714e+22
2.67857e+22
2.82143e+22
2.92857e+22
3.03571e+22
2.14286e+22
2.03571e+22
2.57143e+22
3.17857e+22
2.78571e+22
3.64286e+22
3.17857e+22
2.46429e+22
2.35714e+22
2.5e+22
2.32143e+22
1.82143e+22
2.92857e+22
2.53571e+22
2.75e+22
2.35714e+22
2.78571e+22
2.42857e+22
2.71429e+22
2.46429e+22
2.75e+22
2.5e+22
2.57143e+22
2.17857e+22
2.92857e+22
2.57143e+22
2.5e+22
2.89286e+22
2.60714e+22
2.57143e+22
2.85714e+22
2.71429e+22
2.67857e+22
3.39286e+22
3.46429e+22
2.46429e+22
2.35714e+22
2.10714e+22
2.10714e+22
2.25e+22
2.53571e+22
2.78571e+22
3e+22
2.39286e+22
2.46429e+22
3.03571e+22
2.60714e+22
3e+22
2.39286e+22
2.14286e+22
2.5e+22
2.96429e+22
2.78571e+22
2.53571e+22
2.92857e+22
)
;

boundaryField
{
    sides
    {
        type            symmetry;
    }
    empty
    {
        type            empty;
    }
}


// ************************************************************************* //
