/*--------------------------------*- C++ -*----------------------------------*\
  =========                 |
  \\      /  F ield         | OpenFOAM: The Open Source CFD Toolbox
   \\    /   O peration     | Website:  https://openfoam.org
    \\  /    A nd           | Version:  7
     \\/     M anipulation  |
\*---------------------------------------------------------------------------*/
FoamFile
{
    version     2.0;
    format      ascii;
    class       volScalarField;
    location    "0.35";
    object      alpha.water;
}
// * * * * * * * * * * * * * * * * * * * * * * * * * * * * * * * * * * * * * //

dimensions      [0 0 0 0 0 0 0];

internalField   nonuniform List<scalar> 
1935
(
1.77733e-09
6.59238e-09
1.9794e-08
8.94759e-08
1.01471e-07
9.47173e-08
2.00791e-08
1.60905e-08
1.66489e-08
1.2107e-08
1.09251e-08
7.90639e-09
4.28232e-09
1.6296e-09
3.0266e-10
5.88641e-11
1.99213e-11
4.30423e-12
4.18585e-13
3.35622e-14
2.40734e-15
1.6118e-16
9.86148e-18
5.39026e-19
2.59539e-20
1.08858e-21
3.94861e-23
1.23855e-24
3.38803e-26
8.1356e-28
1.75789e-29
3.4302e-31
6.00435e-33
9.33294e-35
1.28143e-36
1.56116e-38
1.67153e-40
1.53428e-42
1.16109e-44
7.16234e-47
3.59799e-49
1.37006e-51
2.79835e-54
6.1795e-09
1.7545e-05
2.43867e-05
1.7803e-05
1.1317e-08
1.94008e-05
2.47906e-05
1.3427e-05
2.26534e-08
2.6781e-08
0.000129088
5.96501e-05
2.6781e-08
3.14338e-05
0.000207194
0.000127874
3.22004e-08
4.53819e-08
0.000189007
0.000241394
1.35161e-07
1.03566e-07
9.37818e-05
0.000248255
2.31854e-07
2.18094e-07
2.7481e-05
0.000247654
1.85655e-07
3.68304e-07
5.07362e-07
0.00011661
5.32392e-08
1.68097e-07
5.33888e-07
8.53434e-05
5.08291e-08
2.41259e-07
6.08777e-07
2.25408e-06
5.06937e-08
2.33047e-07
9.78353e-07
2.56158e-06
3.66835e-08
1.71598e-07
7.28054e-07
2.78627e-06
2.00341e-08
9.43297e-08
4.04703e-07
1.60156e-06
7.90657e-09
3.54435e-08
1.41371e-07
5.35165e-07
1.20648e-09
5.08965e-09
2.0201e-08
7.72211e-08
1.48874e-10
5.77192e-10
2.22973e-09
8.60579e-09
3.94671e-11
9.64086e-11
2.41971e-10
8.73764e-10
1.90053e-11
4.4361e-11
7.47718e-11
1.70178e-10
1.95219e-12
8.81506e-12
3.06822e-11
8.38787e-11
1.61717e-13
7.69222e-13
3.16015e-12
1.19143e-11
1.20132e-14
5.92923e-14
2.52297e-13
9.91552e-13
8.38001e-16
4.32653e-15
1.92424e-14
7.86824e-14
5.37231e-17
2.92186e-16
1.37093e-15
5.88153e-15
3.08783e-18
1.77761e-17
8.88153e-17
4.01616e-16
1.56732e-19
9.58789e-19
5.12504e-18
2.45915e-17
6.9591e-21
4.54001e-20
2.59331e-19
1.31803e-18
2.70444e-22
1.89043e-21
1.14942e-20
6.09109e-20
9.2652e-24
6.99385e-23
4.5197e-22
2.40735e-21
2.81253e-25
2.3007e-24
1.5728e-23
8.15772e-23
7.64833e-27
6.80056e-26
4.87945e-25
2.36328e-24
1.88324e-28
1.82854e-27
1.36654e-26
5.82833e-26
4.22579e-30
4.48428e-29
3.44551e-28
1.24066e-27
8.63196e-32
1.0097e-30
7.55514e-30
2.52721e-29
1.5881e-33
2.1085e-32
1.40699e-31
4.20013e-31
2.58097e-35
4.07677e-34
2.25667e-33
4.40405e-33
3.74481e-37
6.04521e-36
3.39619e-35
8.04271e-35
4.91596e-39
7.77382e-38
4.36101e-37
1.5736e-36
5.85976e-41
9.03506e-40
3.8491e-39
2.80042e-38
6.11585e-43
9.60727e-42
1.83289e-41
4.51891e-40
4.26104e-45
8.9275e-44
2.19697e-43
6.65348e-42
2.31596e-47
6.81258e-46
2.4054e-45
9.24129e-44
9.36236e-50
4.188e-48
2.78913e-47
1.36236e-45
2.45813e-52
2.26612e-50
4.67346e-49
2.78913e-47
1.17293e-06
2.78589e-07
1.38558e-06
2.9509e-06
0.00243718
0.0532937
0.482864
0.941012
0.959228
0.96631
0.960923
0.780029
0.196733
0.00946574
0.00242738
0.000596625
0.000130058
2.6359e-05
4.99757e-06
8.85425e-07
1.46722e-07
2.29153e-08
3.49249e-09
5.83206e-10
1.07695e-10
3.59532e-11
6.25301e-12
6.62836e-13
6.42695e-14
5.67371e-15
4.48825e-16
3.15667e-17
1.95497e-18
1.05192e-19
4.82614e-21
1.8379e-22
5.58029e-24
1.26516e-25
1.85004e-27
6.21672e-29
2.87467e-06
2.03556e-06
2.4715e-05
9.7283e-06
1.02042e-05
0.326042
0.910496
0.947418
0.955283
0.958708
0.881015
0.400892
0.0410529
0.00502153
0.00130395
0.00031068
6.65576e-05
1.33633e-05
2.51234e-06
4.42076e-07
7.29654e-08
1.14738e-08
1.8177e-09
3.25085e-10
9.01466e-11
2.33569e-11
3.26567e-12
3.49404e-13
3.44346e-14
3.0669e-15
2.44844e-16
1.74017e-17
1.09063e-18
5.94851e-20
2.77175e-21
1.07446e-22
3.32957e-24
7.72973e-26
1.17218e-27
2.87594e-29
4.12e-06
3.37885e-05
0.000157677
0.0018186
0.0448559
0.59272
0.9326
0.942437
0.947445
0.919898
0.593343
0.0857032
0.0087506
0.00269328
0.000653622
0.000148182
3.14647e-05
6.2594e-06
1.16682e-06
2.03918e-07
3.36175e-08
5.3622e-09
9.16082e-10
1.81674e-10
6.57293e-11
1.29706e-11
1.56566e-12
1.70322e-13
1.6898e-14
1.51246e-15
1.21485e-16
8.69884e-18
5.50048e-19
3.03146e-20
1.42977e-21
5.62107e-23
1.77053e-24
4.18838e-26
6.52696e-28
1.21232e-29
8.337e-06
0.000121984
0.00166059
0.0264875
0.328679
0.754725
0.684396
0.763256
0.765217
0.573598
0.15558
0.0191213
0.00389424
0.00114274
0.000289154
6.54186e-05
1.37925e-05
2.72021e-06
5.02768e-07
8.73251e-08
1.44547e-08
2.38944e-09
4.47519e-10
1.40654e-10
3.8734e-11
5.84797e-12
6.99298e-13
7.65867e-14
7.60766e-15
6.82196e-16
5.49763e-17
3.95511e-18
2.51639e-19
1.39758e-20
6.65338e-22
2.64492e-23
8.44012e-25
2.02703e-26
3.22572e-28
4.80954e-30
2.10907e-05
2.91744e-05
0.0242289
0.258135
0.75737
0.774908
0.566312
0.222769
0.160905
0.0599541
0.015293
0.00713466
0.00193836
0.000482725
0.000119329
2.69127e-05
5.63315e-06
1.10113e-06
2.01772e-07
3.49433e-08
5.8505e-09
1.05504e-09
2.59461e-10
9.26192e-11
1.82217e-11
2.42185e-12
2.90436e-13
3.17404e-14
3.14561e-15
2.81857e-16
2.27316e-17
1.63911e-18
1.04688e-19
5.84596e-21
2.80279e-22
1.12397e-23
3.62441e-25
8.81161e-27
1.42541e-28
1.75431e-30
4.44332e-05
4.36193e-05
0.161044
0.702425
0.777911
0.7784
0.766084
0.215271
0.0331953
0.0143339
0.00523416
0.00206042
0.000700399
0.000187644
4.62643e-05
1.03846e-05
2.15418e-06
4.16804e-07
7.57562e-08
1.31351e-08
2.31524e-09
4.82022e-10
1.77279e-10
4.62613e-11
7.13751e-12
9.34524e-13
1.11554e-13
1.21146e-14
1.19492e-15
1.0675e-16
8.59796e-18
6.2017e-19
3.96869e-20
2.22419e-21
1.072e-22
4.32887e-24
1.40792e-25
3.45762e-27
5.66675e-29
5.85615e-31
5.09538e-05
5.12183e-05
0.185594
0.772591
0.778071
0.782299
0.78065
0.554748
0.0636555
0.00536976
0.00197597
0.000800359
0.000255504
6.94845e-05
1.6989e-05
3.77797e-06
7.74339e-07
1.48003e-07
2.67646e-08
4.72982e-09
9.29628e-10
3.04238e-10
9.83198e-11
1.8066e-11
2.58061e-12
3.3433e-13
3.9502e-14
4.25335e-15
4.16807e-16
3.70636e-17
2.97667e-18
2.14465e-19
1.37326e-20
7.71395e-22
3.73285e-23
1.51595e-24
4.96638e-26
1.23027e-27
2.038e-29
1.79644e-31
0.00032225
5.12831e-05
0.0238995
0.670902
0.781361
0.780071
0.781937
0.780071
0.22454
0.00312043
0.000730221
0.000275973
9.12397e-05
2.48605e-05
5.9546e-06
1.29946e-06
2.61946e-07
4.94973e-08
8.96672e-09
1.7239e-09
4.84949e-10
1.75096e-10
3.93248e-11
6.18267e-12
8.64239e-13
1.10317e-13
1.28705e-14
1.37202e-15
1.3341e-16
1.17951e-17
9.43649e-19
6.78523e-20
4.3438e-21
2.44384e-22
1.18651e-23
4.84255e-25
1.59686e-26
3.98678e-28
6.66324e-30
5.42134e-32
0.000546603
6.4968e-05
5.80614e-05
0.261067
0.771349
0.781937
0.781937
0.781937
0.528639
0.0236284
0.000510543
9.25013e-05
3.18338e-05
8.47662e-06
1.98792e-06
4.22145e-07
8.33708e-08
1.56051e-08
2.98213e-09
7.40532e-10
2.76129e-10
7.41989e-11
1.2942e-11
1.94392e-12
2.66413e-13
3.34497e-14
3.85058e-15
4.06099e-16
3.91572e-17
3.44034e-18
2.74072e-19
1.96612e-20
1.2581e-21
7.08782e-23
3.45197e-24
1.41565e-25
4.69776e-27
1.18172e-28
1.99074e-30
1.60842e-32
0.000193954
0.00118235
0.000633173
0.00204513
0.396699
0.771385
0.781937
0.778375
0.536355
0.0260398
0.000347875
4.71007e-05
1.05712e-05
2.72425e-06
6.14008e-07
1.27398e-07
2.48653e-08
4.79447e-09
1.08172e-09
3.95929e-10
1.22491e-10
2.38591e-11
3.83229e-12
5.60374e-13
7.5256e-14
9.29516e-15
1.05588e-15
1.10175e-16
1.05353e-17
9.19978e-19
7.29923e-20
5.22538e-21
3.34309e-22
1.88654e-23
9.21956e-25
3.80019e-26
1.26936e-27
3.2176e-29
5.4627e-31
4.43826e-33
1.03488e-05
0.000616465
0.00178169
0.00180473
0.0193416
0.298313
0.520086
0.492345
0.321332
0.0367164
0.000214542
2.11754e-05
4.73766e-06
9.27943e-07
1.73948e-07
3.56046e-08
7.09703e-09
1.54632e-09
5.2584e-10
1.77522e-10
3.88003e-11
6.65308e-12
1.03183e-12
1.47367e-13
1.9421e-14
2.36238e-15
2.65047e-16
2.73844e-17
2.59893e-18
2.25733e-19
1.7851e-20
1.27623e-21
8.16977e-23
4.62139e-24
2.26784e-25
9.4016e-27
3.16283e-28
8.08235e-30
1.38317e-31
1.12464e-33
1.04862e-05
6.11083e-05
0.000804379
0.00177531
0.00252999
0.0106564
0.0439568
0.0388826
0.0296189
0.0325875
0.00130197
4.10749e-05
5.0075e-06
3.87942e-07
4.85725e-08
9.51149e-09
2.06183e-09
6.43072e-10
2.29541e-10
5.57423e-11
1.01751e-11
1.66606e-12
2.51854e-13
3.52507e-14
4.57012e-15
5.48539e-16
6.08858e-17
6.23828e-18
5.8842e-19
5.09013e-20
4.01706e-21
2.87159e-22
1.84144e-23
1.0453e-24
5.15618e-26
2.15188e-27
7.29702e-29
1.88106e-30
3.24591e-32
2.63687e-34
5.74165e-06
2.52715e-05
0.000274071
0.000855476
0.00137374
0.00183525
0.00318248
0.00352669
0.00275636
0.00346382
0.000650648
1.67924e-05
1.68421e-06
7.9249e-08
1.13527e-08
2.35467e-09
6.02465e-10
2.51248e-10
6.98462e-11
1.36276e-11
2.34985e-12
3.75166e-13
5.5636e-14
7.6622e-15
9.80246e-16
1.16395e-16
1.28104e-17
1.30428e-18
1.22503e-19
1.05728e-20
8.34061e-22
5.97081e-23
3.84108e-24
2.19105e-25
1.08775e-26
4.57527e-28
1.56539e-29
4.07383e-31
7.09026e-33
5.74584e-35
1.93252e-06
7.14535e-06
8.75325e-05
0.000358393
0.000466595
0.000420725
0.000652292
0.000759424
0.000620445
0.000130395
4.56079e-06
-4.12675e-08
1.44158e-08
1.13184e-08
2.43594e-09
5.97512e-10
1.87573e-10
7.29213e-11
1.57722e-11
2.86609e-12
4.83283e-13
7.58532e-14
1.109e-14
1.51054e-15
1.91554e-16
2.25883e-17
2.47367e-18
2.50908e-19
2.3518e-20
2.02925e-21
1.60323e-22
1.15139e-23
7.44294e-25
4.27288e-26
2.13795e-27
9.0745e-29
3.13592e-30
8.24537e-32
1.44767e-33
1.1675e-35
2.85695e-07
1.07767e-06
2.18265e-05
6.76822e-05
9.40959e-05
0.000108995
0.000129864
0.000148488
0.000127022
3.33027e-05
1.16377e-06
3.0111e-08
8.66679e-09
2.45795e-09
5.77903e-10
1.64673e-10
6.17553e-11
1.65533e-11
3.17077e-12
5.56613e-13
9.15303e-14
1.40203e-14
2.00849e-15
2.71623e-16
3.42371e-17
4.01782e-18
4.38408e-19
4.44332e-20
4.16878e-21
3.60596e-22
2.86028e-23
2.06541e-24
1.34436e-25
7.78143e-27
3.9303e-28
1.68566e-29
5.88982e-31
1.56557e-32
2.77189e-34
2.21073e-36
3.27751e-08
1.38011e-07
2.84817e-06
8.51432e-06
1.41723e-05
1.87077e-05
2.21591e-05
2.5972e-05
2.31331e-05
7.56942e-06
2.97335e-07
6.09815e-09
2.4044e-09
5.79292e-10
1.33458e-10
4.45113e-11
1.58872e-11
3.26496e-12
5.99185e-13
1.02711e-13
1.65354e-14
2.48332e-15
3.4923e-16
4.65039e-17
5.7786e-18
6.69578e-19
7.22081e-20
7.31729e-21
6.88202e-22
5.97551e-23
4.76445e-24
3.46317e-25
2.27226e-26
1.32757e-27
6.77658e-29
2.94022e-30
1.03991e-31
2.79724e-33
4.99688e-35
3.91858e-37
3.2071e-09
2.68645e-08
3.09667e-07
8.0293e-07
1.36866e-06
2.04432e-06
3.30755e-06
4.03597e-06
3.72554e-06
1.5111e-06
6.8138e-08
2.02087e-09
5.25991e-10
1.2402e-10
3.43746e-11
1.17564e-11
2.95419e-12
5.81041e-13
1.0519e-13
1.78506e-14
2.84518e-15
4.23192e-16
5.89191e-17
7.7472e-18
9.51868e-19
1.0923e-19
1.16879e-20
1.17758e-21
1.10362e-22
9.56887e-24
7.63581e-25
5.56774e-26
3.67318e-27
2.16286e-28
1.11515e-29
4.89712e-31
1.75601e-32
4.79359e-34
8.68174e-36
6.7693e-38
4.39141e-10
4.40393e-09
2.65647e-08
4.73332e-08
9.31697e-08
1.82179e-07
4.12751e-07
5.57214e-07
5.32116e-07
2.56655e-07
1.33707e-08
5.14902e-10
1.07546e-10
2.51845e-11
7.26141e-12
2.34734e-12
4.85776e-13
9.54418e-14
1.7246e-14
2.91846e-15
4.63265e-16
6.85767e-17
9.50265e-18
1.24365e-18
1.52179e-19
1.74077e-20
1.85961e-21
1.86807e-22
1.74836e-23
1.51684e-24
1.21368e-25
8.89233e-27
5.90735e-28
3.50996e-29
1.82978e-30
8.13939e-32
2.96091e-33
8.20779e-35
1.50913e-36
1.16997e-38
2.25446e-10
6.23539e-10
1.31508e-09
2.42668e-09
7.20564e-09
2.05631e-08
4.36639e-08
6.65064e-08
6.73578e-08
3.48515e-08
2.32433e-09
1.04862e-10
1.91657e-11
4.94775e-12
1.38118e-12
3.46277e-13
7.38127e-14
1.4608e-14
2.65224e-15
4.50029e-16
7.14935e-17
1.05799e-17
1.46499e-18
1.91542e-19
2.34197e-20
2.67839e-21
2.8633e-22
2.88184e-23
2.70579e-24
2.35835e-25
1.89863e-26
1.40189e-27
9.40057e-29
5.64699e-30
2.98074e-31
1.34434e-32
4.96359e-34
1.39737e-35
2.6088e-37
1.99858e-39
4.63078e-11
1.10282e-10
1.30494e-10
2.14455e-10
7.08705e-10
2.02234e-09
4.45906e-09
7.23786e-09
7.48185e-09
4.23192e-09
3.68196e-10
2.18049e-11
3.50588e-12
8.19033e-13
2.08188e-13
4.79409e-14
1.04655e-14
2.09572e-15
3.84131e-16
6.56446e-17
1.04805e-17
1.55656e-18
2.16169e-19
2.83299e-20
3.47186e-21
3.981e-22
4.27003e-23
4.31542e-24
4.0729e-25
3.5727e-26
2.89854e-27
2.1598e-28
1.46364e-29
8.89809e-31
4.7598e-32
2.17813e-33
8.16773e-35
2.33684e-36
4.43451e-38
3.34784e-40
4.3479e-12
1.50084e-11
2.89888e-11
4.01895e-11
8.01648e-11
1.91583e-10
4.28689e-10
7.07938e-10
7.80796e-10
4.64966e-10
5.4074e-11
4.27804e-12
6.87074e-13
1.12295e-13
2.57446e-14
6.24531e-15
1.39248e-15
2.83147e-16
5.25868e-17
9.08395e-18
1.46266e-18
2.18762e-19
3.05685e-20
4.02765e-21
4.96118e-22
5.71851e-23
6.16896e-24
6.27382e-25
5.96372e-26
5.27413e-27
4.31885e-28
3.25207e-29
2.22989e-30
1.37337e-31
7.45132e-33
3.46213e-34
1.31932e-35
3.83829e-37
7.40866e-39
5.49749e-41
3.54759e-13
1.29453e-12
4.30284e-12
1.26152e-11
2.10633e-11
2.91641e-11
5.14634e-11
7.7001e-11
9.97405e-11
5.10157e-11
7.62523e-12
7.09113e-13
9.06198e-14
1.38376e-14
3.02911e-15
7.66689e-16
1.74806e-16
3.61879e-17
6.82922e-18
1.19595e-18
1.94777e-19
2.94207e-20
4.14797e-21
5.50919e-22
6.83793e-23
7.94165e-24
8.63525e-25
8.85506e-26
8.49311e-27
7.58492e-28
6.27814e-29
4.78339e-30
3.32231e-31
2.07486e-32
1.14268e-33
5.39412e-35
2.08994e-36
6.18555e-38
1.21496e-39
8.84044e-42
2.81407e-14
1.06752e-13
3.87611e-13
1.47715e-12
5.14242e-12
1.23664e-11
1.62632e-11
1.05206e-11
1.0216e-11
5.31319e-12
8.80291e-13
8.44462e-14
9.86142e-15
1.59351e-15
3.44582e-16
8.91286e-17
2.08106e-17
4.39388e-18
8.44297e-19
1.50229e-19
2.48059e-20
3.7931e-21
5.40853e-22
7.25776e-23
9.09701e-24
1.06678e-24
1.17143e-25
1.21342e-26
1.17622e-27
1.06234e-28
8.8998e-30
6.86908e-31
4.83741e-32
3.06599e-33
1.71512e-34
8.23013e-36
3.24344e-37
9.76906e-39
1.95318e-40
1.39068e-42
2.0337e-15
8.23398e-15
3.09789e-14
1.16019e-13
4.4932e-13
1.54749e-12
2.60419e-12
2.18249e-12
1.47752e-12
4.47018e-13
9.13779e-14
9.15254e-15
1.01385e-15
1.72179e-16
3.84364e-17
9.86248e-18
2.36051e-18
5.08862e-19
9.97023e-20
1.80555e-20
3.02825e-21
4.69682e-22
6.78653e-23
9.21921e-24
1.16916e-24
1.38686e-25
1.54061e-26
1.61456e-27
1.58404e-28
1.44879e-29
1.22988e-30
9.6259e-32
6.87935e-33
4.42824e-34
2.51765e-35
1.22863e-36
4.92661e-38
1.51042e-39
3.07438e-41
2.13799e-43
1.31953e-16
5.7095e-16
2.23637e-15
8.34485e-15
3.1091e-14
1.01604e-13
1.89721e-13
2.23153e-13
1.545e-13
3.56823e-14
7.92829e-15
8.43198e-16
9.78131e-17
1.74638e-17
4.06656e-18
1.04446e-18
2.56135e-19
5.64119e-20
1.1281e-20
2.08173e-21
3.55158e-22
5.59621e-23
8.20739e-24
1.13055e-24
1.453e-25
1.74616e-26
1.9652e-27
2.08659e-28
2.0746e-29
1.9237e-30
1.65648e-31
1.31586e-32
9.55078e-34
6.2477e-35
3.61191e-36
1.79321e-37
7.31797e-39
2.28404e-40
4.7331e-42
3.20955e-44
7.54523e-18
3.49798e-17
1.44194e-16
5.45117e-16
2.00212e-15
6.50043e-15
1.25466e-14
1.47302e-14
1.11342e-14
2.68511e-15
6.26247e-16
7.10199e-17
8.87501e-18
1.66795e-18
4.04345e-19
1.0624e-19
2.66754e-20
6.00482e-21
1.22639e-21
2.3082e-22
4.01031e-23
6.42782e-24
9.58122e-25
1.34013e-25
1.74786e-26
2.13092e-27
2.43277e-28
2.62009e-29
2.64289e-30
2.48701e-31
2.17419e-32
1.75429e-33
1.29399e-34
8.60669e-36
5.06149e-37
2.55719e-38
1.06223e-39
3.37534e-41
7.12037e-43
4.70157e-45
3.70537e-19
1.84292e-18
8.15342e-18
3.20095e-17
1.18232e-16
3.9133e-16
8.06245e-16
9.82429e-16
7.63269e-16
1.90382e-16
4.71839e-17
5.71485e-18
7.59893e-19
1.50475e-19
3.80693e-20
1.04044e-20
2.67333e-21
6.15334e-22
1.28415e-22
2.46679e-23
4.36854e-24
7.12989e-25
1.08132e-25
1.53749e-26
2.03732e-27
2.52259e-28
2.92451e-29
3.19811e-30
3.27583e-31
3.13098e-32
2.78097e-33
2.28064e-34
1.71049e-35
1.15726e-36
6.92516e-38
3.5611e-39
1.50581e-40
4.87123e-42
1.04589e-43
6.71681e-46
1.55174e-20
8.26863e-20
3.99879e-19
1.68058e-18
6.40795e-18
2.19206e-17
4.8704e-17
6.26759e-17
5.03774e-17
1.27652e-17
3.36422e-18
4.35206e-19
6.1602e-20
1.28633e-20
3.4035e-21
9.82562e-22
2.5832e-22
6.08309e-23
1.29787e-23
2.54611e-24
4.59947e-25
7.6503e-26
1.18154e-26
1.7094e-27
2.30348e-28
2.89936e-29
3.41638e-30
3.7966e-31
3.95209e-32
3.83928e-33
3.46678e-34
2.89115e-35
2.20572e-36
1.51846e-37
9.24812e-39
4.84089e-40
2.08374e-41
6.86167e-43
1.49905e-44
9.35483e-47
5.55009e-22
3.16453e-21
1.70644e-20
7.90472e-20
3.18602e-19
1.14058e-18
2.76842e-18
3.8029e-18
3.1483e-18
8.12512e-19
2.27728e-19
3.14738e-20
4.74356e-21
1.04633e-21
2.94022e-22
8.95377e-23
2.4103e-23
5.81142e-24
1.26837e-24
2.54258e-25
4.68836e-26
7.95289e-27
1.25172e-27
1.84405e-28
2.52901e-29
3.2384e-30
3.88119e-31
4.38612e-32
4.64292e-33
4.58695e-34
4.21285e-35
3.57421e-36
2.77468e-37
1.94406e-38
1.20522e-39
6.42199e-41
2.81377e-42
9.43003e-44
2.09547e-45
1.26986e-47
1.69334e-23
1.03186e-22
6.34588e-22
3.3391e-21
1.45797e-20
5.55497e-20
1.48498e-19
2.19304e-19
1.87033e-19
4.92553e-20
1.46866e-20
2.16897e-21
3.48071e-22
8.13378e-23
2.5157e-23
7.87433e-24
2.17419e-24
5.37255e-25
1.20036e-25
2.46033e-26
4.63373e-27
8.02129e-28
1.28738e-28
1.93253e-29
2.6991e-30
3.51831e-31
4.29136e-32
4.93444e-33
5.31432e-34
5.34176e-35
4.99201e-36
4.30995e-37
3.40531e-38
2.4286e-39
1.53266e-40
8.31308e-42
3.70699e-43
1.26409e-44
2.85591e-46
1.67989e-48
4.45728e-25
2.94577e-24
2.06609e-23
1.2675e-22
6.14916e-22
2.53798e-21
7.54254e-21
1.2047e-20
1.06168e-20
2.98688e-21
9.04305e-22
1.42914e-22
2.44212e-23
6.05209e-24
2.09099e-24
6.69043e-25
1.89777e-25
4.81185e-26
1.1015e-26
2.31004e-27
4.4466e-28
7.85977e-29
1.28704e-29
1.96973e-30
2.80317e-31
3.72156e-32
4.62189e-33
5.40982e-34
5.93011e-35
6.06669e-36
5.77036e-37
5.07088e-38
4.0783e-39
2.9608e-40
1.90204e-41
1.05004e-42
4.76457e-44
1.65264e-45
3.79434e-47
2.1659e-49
1.11252e-26
8.60873e-26
6.62012e-25
4.38541e-24
2.38983e-23
1.0902e-22
3.6373e-22
6.31585e-22
5.77953e-22
1.82988e-22
5.33704e-23
9.03208e-24
1.64792e-24
4.52226e-25
1.67243e-25
5.49641e-26
1.60432e-26
4.17943e-27
9.81196e-28
2.10706e-28
4.14811e-29
7.49131e-30
1.25223e-30
1.95483e-31
2.836e-32
3.83644e-33
4.85313e-34
5.78437e-35
6.45563e-36
6.72337e-37
6.50999e-38
5.8237e-39
4.76796e-40
3.52361e-41
2.30401e-42
1.29441e-43
5.97504e-45
2.10737e-46
4.91428e-48
2.72219e-50
2.69635e-28
2.29476e-27
2.06269e-26
1.53293e-25
8.67673e-25
4.39401e-24
1.66965e-23
3.16733e-23
3.02506e-23
1.10113e-23
3.03222e-24
5.49307e-25
1.07255e-25
3.4142e-26
1.29008e-26
4.36979e-27
1.31473e-27
3.5239e-28
8.49354e-29
1.86923e-29
3.76627e-30
6.95351e-31
1.18711e-31
1.89114e-32
2.79804e-33
3.85818e-34
4.9729e-35
6.03713e-36
6.86138e-37
7.27601e-38
7.17261e-39
6.53217e-40
5.44409e-41
4.09519e-42
2.72518e-43
1.55773e-44
7.31288e-46
2.62159e-47
6.20574e-49
3.33641e-51
5.30163e-30
5.08984e-29
5.72518e-28
5.09276e-27
3.16969e-26
1.6522e-25
7.31257e-25
1.52319e-24
1.52674e-24
6.43296e-25
1.66432e-25
3.22582e-26
6.74223e-27
2.49771e-27
9.61891e-28
3.36555e-28
1.04552e-28
2.88724e-29
7.15246e-30
1.6146e-30
3.33206e-31
6.29296e-32
1.09778e-32
1.78545e-33
2.69509e-34
3.78916e-35
4.97752e-36
6.15616e-37
7.12617e-38
7.69512e-39
7.72343e-40
7.16057e-41
6.07461e-42
4.65055e-43
3.14897e-44
1.8309e-45
8.73869e-47
3.18281e-48
7.64341e-50
3.98969e-52
7.1251e-32
8.22339e-31
1.36588e-29
1.56015e-28
1.11036e-27
5.88309e-27
3.04992e-26
7.06159e-26
7.43073e-26
3.61406e-26
8.85338e-27
1.8411e-27
4.47392e-28
1.7546e-28
6.94296e-29
2.51431e-29
8.07782e-30
2.30142e-30
5.86616e-31
1.35955e-31
2.87585e-32
5.55939e-33
9.91464e-34
1.64697e-34
2.53721e-35
3.63823e-36
4.87181e-37
6.13948e-38
7.23914e-39
7.96056e-40
8.13477e-41
7.67733e-42
6.62875e-43
5.1639e-44
3.55699e-45
2.10305e-46
1.02014e-47
3.77324e-49
9.18668e-51
4.65778e-53
1.11884e-33
1.50046e-32
2.50237e-31
4.36782e-30
3.68624e-29
2.13935e-28
1.20409e-27
3.16527e-27
3.49277e-27
1.95101e-27
4.58224e-28
1.02334e-28
3.01548e-29
1.1901e-29
4.85937e-30
1.82468e-30
6.07165e-31
1.78694e-31
4.69157e-32
1.11732e-32
2.4244e-33
4.80009e-34
8.75587e-35
1.48615e-35
2.33733e-36
3.41919e-37
4.66801e-38
5.99467e-39
7.20038e-40
8.06323e-41
8.38867e-42
8.05819e-43
7.08006e-44
5.61109e-45
3.93073e-46
2.36248e-47
1.16424e-48
4.37092e-50
1.07819e-51
5.31299e-54
2.49084e-35
3.7796e-34
4.76586e-33
1.09118e-31
1.16007e-30
7.56852e-30
4.56316e-29
1.36992e-28
1.59153e-28
1.01904e-28
2.65185e-29
6.09132e-30
1.95439e-30
7.82028e-31
3.30372e-31
1.2884e-31
4.44634e-32
1.35336e-32
3.66366e-33
8.9737e-34
1.9988e-34
4.05568e-35
7.57048e-36
1.31345e-36
2.10957e-37
3.14896e-38
4.38377e-39
5.73737e-40
7.0202e-41
8.00545e-42
8.47833e-43
8.28835e-44
7.40893e-45
5.97197e-46
4.25334e-47
2.59776e-48
1.30002e-49
4.95156e-51
1.23664e-52
5.92665e-55
5.12889e-37
8.92714e-36
1.27564e-34
2.35181e-33
3.46299e-32
2.56864e-31
1.66986e-30
5.7336e-30
7.05135e-30
5.15325e-30
1.54721e-30
3.76968e-31
1.21769e-31
4.9895e-32
2.18578e-32
8.86596e-33
3.17707e-33
1.00117e-33
2.79711e-34
7.05215e-35
1.61363e-35
3.35741e-36
6.4163e-37
1.13835e-37
1.86771e-38
2.84546e-39
4.03987e-40
5.38886e-41
6.71712e-42
7.79969e-43
8.40796e-44
8.36341e-45
7.60423e-46
6.2322e-47
4.51121e-48
2.79876e-49
1.42169e-50
5.49067e-52
1.3874e-53
6.47181e-56
9.76979e-39
1.98176e-37
3.24734e-36
4.13769e-35
9.83289e-34
8.40091e-33
5.92587e-32
2.32567e-31
3.04454e-31
2.52806e-31
8.60876e-32
2.23753e-32
7.34424e-33
3.09696e-33
1.40967e-33
5.95469e-34
2.21804e-34
7.2432e-35
2.09032e-35
5.42903e-36
1.27699e-36
2.72619e-37
5.33666e-38
9.68579e-39
1.62392e-39
2.5257e-40
3.65763e-41
4.97313e-42
6.315e-43
7.46621e-44
8.1912e-45
8.28879e-46
7.66364e-47
6.38421e-48
4.69499e-49
2.95751e-50
1.52422e-51
5.96575e-53
1.52407e-54
6.92543e-57
1.7362e-40
4.16944e-39
7.91952e-38
1.14767e-36
2.66121e-35
2.66656e-34
2.04819e-33
9.11955e-33
1.29474e-32
1.1998e-32
4.59235e-33
1.27246e-33
4.2986e-34
1.87291e-34
8.87364e-35
3.90783e-35
1.51443e-35
5.12925e-36
1.53027e-36
4.09734e-37
9.91403e-38
2.17293e-38
4.35933e-39
8.09759e-40
1.38785e-40
2.20423e-41
3.25663e-42
4.51397e-43
5.83961e-44
7.02969e-45
7.8483e-46
8.07782e-47
7.59278e-48
6.42713e-49
4.80008e-50
3.06875e-51
1.60377e-52
6.35775e-54
1.64096e-55
7.27073e-58
2.96321e-42
8.50305e-41
1.88088e-39
3.1083e-38
7.04635e-37
8.30334e-36
6.95895e-35
3.45321e-34
5.48741e-34
5.48204e-34
2.36306e-34
6.98084e-35
2.43414e-35
1.09737e-35
5.42808e-36
2.50159e-36
1.01222e-36
3.55788e-37
1.09806e-37
3.03305e-38
7.55414e-39
1.70085e-39
3.49896e-40
6.65509e-41
1.16648e-41
1.89253e-42
2.85346e-43
4.03285e-44
5.31589e-45
6.51587e-46
7.40263e-47
7.74853e-48
7.40271e-49
6.36542e-50
4.82609e-51
3.12986e-52
1.6578e-53
6.65253e-55
1.73358e-56
6.91861e-59
5.30579e-44
1.79191e-42
4.59152e-41
8.67901e-40
1.88058e-38
2.56934e-37
2.29875e-36
1.21201e-35
1.93344e-35
1.88395e-35
9.40107e-36
2.93339e-36
1.0761e-36
5.10174e-37
2.61727e-37
1.25155e-37
5.27383e-38
2.02714e-38
6.6665e-39
1.94657e-39
5.09574e-40
1.19878e-40
2.56427e-41
5.05969e-42
9.17209e-43
1.5335e-43
2.37717e-44
3.45091e-45
4.66752e-46
5.8647e-47
6.8245e-48
7.31172e-49
7.13626e-50
6.23304e-51
4.79625e-52
3.15396e-53
1.69203e-54
6.86747e-56
1.80536e-57
6.57816e-60
1.36236e-45
5.30608e-44
1.7923e-42
4.59293e-41
8.68214e-40
1.16937e-38
1.15373e-37
8.71324e-37
3.6827e-36
6.44372e-36
2.15503e-36
8.09447e-37
3.84775e-37
1.92626e-37
8.91333e-38
3.63655e-38
1.29779e-38
4.07123e-39
1.1418e-39
2.8826e-40
6.57931e-41
1.37216e-41
2.64044e-42
4.67997e-43
7.69093e-44
1.19219e-44
1.72896e-45
2.34012e-46
2.94763e-47
3.44509e-48
3.71651e-49
3.67052e-50
3.35403e-51
2.99367e-52
2.35163e-53
1.57697e-54
8.61718e-56
3.55784e-57
9.49727e-59
6.57816e-60
)
;

boundaryField
{
    leftWall
    {
        type            zeroGradient;
    }
    rightWall
    {
        type            zeroGradient;
    }
    lowerWall
    {
        type            zeroGradient;
    }
    atmosphere
    {
        type            inletOutlet;
        inletValue      uniform 0;
        value           nonuniform List<scalar> 
45
(
0
0
2.26612e-50
4.67346e-49
2.78913e-47
1.36236e-45
5.30608e-44
1.7923e-42
4.59293e-41
8.68214e-40
1.16937e-38
1.15373e-37
8.71324e-37
3.6827e-36
6.44372e-36
2.15503e-36
8.09447e-37
3.84775e-37
1.92626e-37
8.91333e-38
3.63655e-38
1.29779e-38
4.07123e-39
1.1418e-39
2.8826e-40
6.57931e-41
1.37216e-41
2.64044e-42
4.67997e-43
7.69093e-44
1.19219e-44
1.72896e-45
2.34012e-46
2.94763e-47
3.44509e-48
3.71651e-49
3.67052e-50
3.35403e-51
2.99367e-52
2.35163e-53
1.57697e-54
8.61718e-56
3.55784e-57
9.49727e-59
6.57816e-60
)
;
    }
    defaultFaces
    {
        type            empty;
    }
    procBoundary3to1
    {
        type            processor;
        value           nonuniform List<scalar> 
45
(
5.85378e-10
8.62203e-07
1.3197e-06
4.7691e-07
1.48861e-23
-1.59147e-09
1.18018e-08
-1.25527e-09
3.35367e-06
0.000479315
0.00679124
0.091736
0.653598
0.96698
0.975591
0.977865
0.934499
0.471376
0.0368515
0.00392734
0.00102738
0.000234247
4.7857e-05
9.14416e-06
1.63185e-06
2.71851e-07
4.26518e-08
6.35982e-09
9.87183e-10
1.7016e-10
4.62317e-11
9.89913e-12
1.15816e-12
1.09485e-13
9.53779e-15
7.45341e-16
5.17144e-17
3.15431e-18
1.66819e-19
7.50452e-21
2.79477e-22
8.26936e-24
1.81801e-25
2.5293e-27
1.21977e-28
)
;
    }
    procBoundary3to2
    {
        type            processor;
        value           nonuniform List<scalar> 
43
(
7.27479e-09
1.10799e-08
2.24572e-08
2.75771e-08
2.68028e-08
6.75263e-09
2.03364e-09
3.02651e-09
3.47435e-09
2.73383e-09
2.48067e-09
1.81721e-09
1.01102e-09
3.78512e-10
6.39063e-11
8.20478e-12
3.66844e-12
2.93805e-13
2.60217e-14
1.95273e-15
1.43577e-16
1.06372e-17
7.13378e-19
3.99592e-20
1.7284e-21
5.27436e-23
1.14192e-24
2.02453e-26
1.82496e-28
3.9036e-30
7.39534e-32
1.28843e-33
2.00505e-35
2.72108e-37
3.22363e-39
3.31575e-41
2.90566e-43
2.09554e-45
1.19862e-47
5.19364e-50
1.54342e-52
1.83852e-55
-1.34053e-61
)
;
    }
}


// ************************************************************************* //
