/*--------------------------------*- C++ -*----------------------------------*\
  =========                 |
  \\      /  F ield         | OpenFOAM: The Open Source CFD Toolbox
   \\    /   O peration     | Website:  https://openfoam.org
    \\  /    A nd           | Version:  7
     \\/     M anipulation  |
\*---------------------------------------------------------------------------*/
FoamFile
{
    version     2.0;
    format      ascii;
    class       surfaceScalarField;
    location    "0.35";
    object      alphaPhi0.water;
}
// * * * * * * * * * * * * * * * * * * * * * * * * * * * * * * * * * * * * * //

dimensions      [0 3 -1 0 0 0 0];

internalField   nonuniform List<scalar> 
3782
(
-3.20591e-13
2.66063e-12
-6.85421e-13
2.34056e-12
-1.66142e-12
1.41521e-12
-6.57493e-12
4.06095e-12
-6.10236e-12
2.67685e-12
-3.419e-12
6.75933e-14
-2.12557e-12
-1.18716e-12
-2.09746e-12
4.19236e-13
-2.08562e-12
9.69831e-13
-2.3759e-12
1.42522e-12
-2.24703e-12
6.12043e-13
-1.69521e-12
-4.39617e-13
-8.05253e-13
-1.1373e-12
-2.07729e-13
-8.54377e-13
-3.09566e-14
-2.51746e-13
-3.58453e-15
-3.96551e-14
-4.47759e-16
-5.51603e-15
-4.33471e-17
-1.09022e-15
-3.14483e-18
-1.12667e-16
-1.97974e-19
-9.06765e-18
-1.17426e-20
-6.34763e-19
-6.46087e-22
-4.1719e-20
-3.21504e-23
-2.52711e-21
-1.42375e-24
-1.37537e-22
-5.53798e-26
-6.6194e-24
-1.88308e-27
-2.78209e-25
-5.68318e-29
-1.01751e-26
-1.5207e-30
-3.28517e-28
-3.63537e-32
-9.34933e-30
-7.8918e-34
-2.36396e-31
-1.56897e-35
-5.37908e-33
-2.86112e-37
-1.11013e-34
-4.73179e-39
-2.0771e-36
-7.02358e-41
-3.47764e-38
-9.3512e-43
-5.15692e-40
-1.10762e-44
-6.775e-42
-1.14548e-46
-7.79802e-44
-1.00647e-48
-7.70754e-46
-7.29255e-51
-6.27915e-48
-4.19123e-53
-4.12089e-50
-1.79742e-55
-2.12777e-52
-6.13348e-58
-7.876e-55
-1.55959e-57
1.89941e-11
-1.60484e-11
1.62946e-09
-1.44845e-10
1.39976e-09
6.30177e-10
1.01035e-09
2.89364e-10
1.99337e-10
-8.38117e-13
1.72898e-09
-1.26031e-11
1.30722e-09
1.01181e-09
1.28855e-09
3.9837e-10
2.09478e-12
-1.15277e-12
5.54182e-10
-5.6373e-10
5.82215e-09
9.19523e-10
4.46779e-09
1.16829e-09
5.82836e-12
-2.34971e-12
2.00416e-09
-8.87758e-11
8.85485e-09
2.78584e-10
6.92334e-09
3.01742e-09
6.67095e-12
-5.90373e-12
1.402e-09
-4.90114e-12
1.40426e-08
-1.10953e-09
4.47166e-09
5.01229e-09
2.14519e-12
-6.64886e-12
2.06714e-11
-1.01807e-11
2.84638e-09
-1.04808e-09
2.45122e-09
7.32582e-09
2.36773e-13
-1.34265e-11
2.5107e-12
-1.94135e-11
3.44317e-10
-1.49087e-10
1.02698e-10
5.06858e-09
1.42194e-12
-9.47419e-12
1.56226e-11
-2.83011e-11
6.6115e-11
-1.7167e-10
-1.41224e-09
1.69245e-09
6.22102e-12
-8.51995e-12
2.97211e-11
-3.06099e-11
3.59582e-11
-1.47384e-10
-5.37396e-10
-7.0602e-09
6.6126e-12
-9.42393e-12
3.08452e-11
-3.56656e-11
8.59383e-11
-1.25248e-10
-5.45971e-10
2.54963e-10
3.37482e-12
-9.24765e-12
1.74232e-11
-3.58647e-11
7.51495e-11
-1.24249e-10
-3.83849e-10
1.44262e-10
-1.24347e-12
-7.29618e-12
-2.03474e-12
-2.94614e-11
4.60795e-12
-1.06732e-10
-3.44887e-10
7.47467e-11
-4.68665e-12
-3.60391e-12
-1.89043e-11
-1.50638e-11
-6.96959e-11
-5.69974e-11
-1.9459e-10
-2.28456e-10
-3.91566e-12
-1.00105e-12
-1.72038e-11
-4.36801e-12
-6.75704e-11
-1.70405e-11
-6.03315e-11
-2.41363e-10
-1.19896e-12
-1.61091e-13
-5.28642e-12
-7.44789e-13
-2.11738e-11
-2.99726e-12
-1.072e-11
-7.7838e-11
-1.95986e-13
-1.57062e-14
-9.19474e-13
-7.95898e-14
-3.80946e-12
-3.38229e-13
-1.23008e-12
-1.42112e-11
-2.08339e-14
-1.61858e-15
-9.91506e-14
-6.3214e-15
-4.23441e-13
-2.66586e-14
-1.00254e-13
-1.63351e-12
-4.40329e-15
-1.64233e-16
-1.11646e-14
-5.97097e-16
-3.51099e-14
-1.93434e-15
-6.72778e-15
-1.41497e-13
-4.98445e-16
-1.21213e-17
-2.07658e-15
-4.4762e-17
-6.99213e-15
-1.46508e-16
-4.16292e-16
-1.96366e-14
-4.13798e-17
-7.73192e-19
-1.82116e-16
-2.87498e-18
-7.19008e-16
-9.32539e-18
-2.48982e-17
-2.57218e-15
-2.98632e-18
-4.67828e-20
-1.3616e-17
-1.7647e-19
-5.58026e-17
-5.71741e-19
-1.45193e-18
-2.09388e-16
-2.03462e-19
-2.64329e-21
-9.68726e-19
-1.0175e-20
-4.13895e-18
-3.30772e-20
-7.87526e-20
-1.62159e-17
-1.28503e-20
-1.35754e-22
-6.44005e-20
-5.3538e-22
-2.88829e-19
-1.74394e-21
-3.74644e-21
-1.18904e-18
-7.32838e-22
-6.22987e-24
-3.88568e-21
-2.52366e-23
-1.84968e-20
-8.18664e-23
-1.4574e-22
-8.02786e-20
-3.71256e-23
-2.52057e-25
-2.09038e-22
-1.04943e-24
-1.06462e-21
-3.34699e-24
-3.91654e-24
-4.92056e-21
-1.64913e-24
-8.95884e-27
-9.891e-24
-3.83041e-26
-5.39516e-23
-1.1754e-25
-1.70969e-26
-2.67064e-22
-6.40395e-26
-2.84137e-28
-4.10322e-25
-1.24742e-27
-2.38718e-24
-3.58748e-27
6.32122e-27
-1.26694e-23
-2.20272e-27
-8.03014e-30
-1.52473e-26
-3.61234e-29
-9.49854e-26
-9.26673e-29
4.88918e-28
-5.30649e-25
-6.70217e-29
-2.04045e-31
-5.03598e-28
-9.37966e-31
-3.35466e-27
-1.9627e-30
2.4421e-29
-1.96776e-26
-1.8193e-30
-4.72119e-33
-1.49036e-29
-2.21253e-32
-1.05893e-28
-3.10587e-32
9.81498e-31
-6.52702e-28
-4.45734e-32
-1.00452e-34
-4.00617e-31
-4.7896e-34
-3.03085e-30
-2.01555e-34
3.44253e-32
-1.96852e-29
-9.94408e-34
-1.9711e-36
-9.81718e-33
-9.57459e-36
-7.996e-32
1.03531e-35
1.23293e-33
-5.52453e-31
-2.03286e-35
-3.52789e-38
-2.20671e-34
-1.75012e-37
-1.93684e-33
5.71255e-37
4.21408e-35
-1.60211e-32
-3.76701e-37
-5.70076e-40
-4.57672e-36
-2.88208e-39
-4.24886e-35
1.8356e-38
1.29942e-36
-4.49075e-34
-6.16962e-39
-8.34009e-42
-9.35695e-38
-4.27916e-41
-8.50573e-37
5.04699e-40
4.91859e-38
-1.14574e-35
-8.90673e-41
-1.10059e-43
-1.43077e-39
-5.76859e-43
-1.71659e-38
1.2701e-41
1.61095e-39
-2.93899e-37
-1.14891e-42
-1.29248e-45
-1.8482e-41
-7.01753e-45
-3.36097e-40
2.84431e-43
4.50479e-41
-6.97059e-39
-1.33565e-44
-1.31118e-47
-2.14291e-43
-7.68654e-47
-5.99148e-42
6.20403e-45
1.09975e-42
-1.49919e-40
-1.53568e-46
-1.12916e-49
-2.29381e-45
-7.44396e-49
-9.55452e-44
1.74873e-46
2.3746e-44
-2.91261e-42
-1.09939e-48
-8.07465e-52
-2.14612e-47
-6.23689e-51
-1.50826e-45
3.69477e-48
4.56807e-46
-5.10918e-44
-6.17193e-51
-4.64187e-54
-1.6631e-49
-4.26159e-53
-2.10294e-47
6.66692e-50
7.99937e-48
-8.10282e-46
-2.59556e-53
-3.0591e-56
-1.06909e-51
-8.84328e-56
-2.67967e-49
1.15405e-51
1.33079e-49
-1.19248e-47
-7.9287e-56
-6.55356e-54
-3.53561e-51
-1.80461e-49
4.3098e-11
2.26633e-10
3.64668e-11
1.39845e-10
1.78383e-10
6.26089e-10
9.16127e-10
6.16454e-10
7.71962e-07
3.02125e-07
1.54705e-05
1.84301e-05
5.16469e-05
8.08852e-05
5.39939e-05
8.74708e-05
5.42333e-05
9.19561e-05
5.44585e-05
9.49224e-05
5.06772e-05
9.37414e-05
2.1129e-05
4.6582e-05
-1.04976e-06
7.2691e-06
-2.65875e-07
1.7573e-06
-4.99648e-08
4.57247e-07
-1.04371e-08
1.10518e-07
-2.10916e-09
2.48639e-08
-4.03929e-10
5.1945e-09
-7.44837e-11
1.01576e-09
-1.32123e-11
1.86882e-10
-2.21552e-12
3.23758e-11
-3.34082e-13
5.28791e-12
-3.67809e-14
8.20166e-13
-2.0963e-15
1.22947e-13
3.02904e-15
1.88188e-14
7.36233e-16
3.32872e-15
7.70338e-17
4.41997e-16
7.31433e-18
5.08562e-17
6.36789e-19
5.29271e-18
4.94248e-20
4.98052e-19
3.38578e-21
4.21892e-20
2.02489e-22
3.19581e-21
1.04107e-23
2.1444e-22
4.50245e-25
1.25802e-23
1.58692e-26
6.33566e-25
4.3428e-28
2.66833e-26
8.51492e-30
9.03519e-28
1.02454e-31
2.30684e-29
8.04685e-33
3.9233e-31
5.17162e-33
1.86659e-10
4.45904e-10
2.28398e-10
1.22683e-09
2.46045e-09
1.16172e-08
3.54567e-09
2.02295e-09
5.40049e-06
1.42476e-06
4.04863e-05
5.99882e-05
4.82541e-05
8.14314e-05
4.96447e-05
8.59909e-05
5.01944e-05
9.06432e-05
5.00842e-05
9.25664e-05
3.35746e-05
6.75066e-05
2.13346e-06
1.14531e-05
-6.02942e-07
2.18129e-06
-1.25162e-07
7.34481e-07
-2.64784e-08
1.97459e-07
-5.91935e-09
4.92747e-08
-1.23233e-09
1.12057e-08
-2.42565e-10
2.3548e-09
-4.56145e-11
4.62247e-10
-8.15063e-12
8.5221e-11
-1.35326e-12
1.47882e-11
-1.97275e-13
2.42716e-12
-1.71624e-14
3.82171e-13
3.67562e-15
5.81017e-14
2.14376e-15
1.11788e-14
3.61952e-16
1.78726e-15
3.75847e-17
2.27916e-16
3.64631e-18
2.61391e-17
3.19231e-19
2.71888e-18
2.48804e-20
2.55879e-19
1.71223e-21
2.1694e-20
1.02912e-22
1.6459e-21
5.31962e-24
1.10694e-22
2.31403e-25
6.51353e-24
8.20717e-27
3.29275e-25
2.2611e-28
1.39315e-26
4.46488e-30
4.74272e-28
5.41386e-32
1.21828e-29
3.19881e-33
2.08732e-31
2.5032e-33
8.92921e-10
7.88749e-10
1.02831e-08
8.91509e-09
4.72138e-08
8.1622e-08
3.91871e-07
4.5967e-07
1.47558e-05
1.89715e-05
4.13277e-05
7.37155e-05
4.51639e-05
7.44823e-05
4.66529e-05
8.32292e-05
4.76315e-05
8.86781e-05
3.93575e-05
7.25646e-05
8.39814e-06
1.99212e-05
-5.04632e-07
2.46315e-06
-1.63425e-07
8.30282e-07
-4.5204e-08
2.79795e-07
-1.21072e-08
7.93083e-08
-2.8444e-09
2.01811e-08
-6.12001e-10
4.64508e-09
-1.23526e-10
9.82703e-10
-2.35843e-11
1.93521e-10
-4.23114e-12
3.57171e-11
-6.95989e-13
6.21267e-12
-9.48955e-14
1.02922e-12
-8.97492e-15
1.67599e-13
4.34308e-15
2.93976e-14
1.32234e-15
5.93259e-15
1.59586e-16
8.59878e-16
1.69953e-17
1.08195e-16
1.66079e-18
1.23521e-17
1.45601e-19
1.28038e-18
1.13658e-20
1.20207e-19
7.83897e-22
1.01762e-20
4.72446e-23
7.71595e-22
2.45017e-24
5.19072e-23
1.06992e-25
3.05789e-24
3.8114e-27
1.549e-25
1.05526e-28
6.57307e-27
2.09518e-30
2.24629e-28
2.55605e-32
5.7971e-30
1.12583e-33
9.99136e-32
1.10999e-33
2.30243e-09
1.63048e-09
6.42842e-08
2.42145e-08
5.41793e-07
6.88302e-07
8.09392e-06
1.32202e-05
3.6256e-05
6.80588e-05
4.3396e-05
7.13514e-05
3.24432e-05
4.7512e-05
3.47722e-05
3.84091e-05
3.0416e-05
3.38023e-05
1.17347e-05
1.19293e-05
5.39575e-07
8.84233e-07
-1.14028e-07
7.05991e-07
-4.64788e-08
3.1294e-07
-1.5661e-08
1.03034e-07
-4.70949e-09
3.00009e-08
-1.18503e-09
7.72435e-09
-2.6599e-10
1.79146e-09
-5.51261e-11
3.80492e-10
-1.06684e-11
7.49958e-11
-1.9104e-12
1.38421e-11
-3.05712e-13
2.41804e-12
-3.32787e-14
4.10282e-13
4.34702e-15
7.085e-14
3.03399e-15
1.6069e-14
5.59892e-16
2.75791e-15
6.54723e-17
3.80225e-16
7.0739e-18
4.73737e-17
6.91011e-19
5.37021e-18
6.04846e-20
5.53402e-19
4.71785e-21
5.17137e-20
3.25385e-22
4.36224e-21
1.96252e-23
3.29928e-22
1.01929e-24
2.21627e-23
4.46062e-26
1.30508e-24
1.59351e-27
6.61517e-26
4.42703e-29
2.8117e-27
8.82391e-31
9.63371e-29
1.08116e-32
2.49474e-30
3.5425e-34
4.31897e-32
4.46263e-34
3.17792e-09
2.31156e-09
1.94792e-08
7.53369e-09
7.22538e-06
7.07862e-06
3.08165e-05
5.98547e-05
3.35543e-05
7.20599e-05
3.25281e-05
7.27578e-05
1.30624e-05
5.96337e-05
5.42099e-06
1.96526e-05
4.62011e-06
7.44305e-06
2.04342e-06
2.69778e-06
4.65476e-07
6.35344e-07
3.86246e-08
2.52087e-07
-8.44116e-09
1.08996e-07
-4.71442e-09
3.67377e-08
-1.62535e-09
1.08179e-08
-4.40532e-10
2.79852e-09
-1.03401e-10
6.49575e-10
-2.198e-11
1.37725e-10
-4.2927e-12
2.70611e-11
-7.62702e-13
4.99522e-12
-1.11113e-13
8.85043e-13
-7.32935e-15
1.56906e-13
5.18892e-15
3.43167e-14
1.57955e-15
7.47334e-15
2.11357e-16
1.14804e-15
2.50137e-17
1.55432e-16
2.69967e-18
1.91446e-17
2.62481e-19
2.14913e-18
2.28866e-20
2.19691e-19
1.7801e-21
2.03934e-20
1.22537e-22
1.71106e-21
7.38336e-24
1.2888e-22
3.83439e-25
8.63244e-24
1.67929e-26
5.07483e-25
6.00839e-28
2.57109e-26
1.67295e-29
1.09354e-27
3.34355e-31
3.75322e-29
4.10883e-33
9.74435e-31
9.42676e-35
1.69268e-32
1.62221e-34
4.11395e-09
3.78791e-09
6.29388e-09
4.77523e-09
2.49614e-05
1.97088e-05
3.56622e-05
7.2163e-05
3.60281e-05
7.27203e-05
3.47324e-05
7.37875e-05
2.42033e-05
7.17714e-05
4.16753e-06
3.38912e-05
1.03117e-06
7.06486e-06
5.74692e-07
1.58183e-06
1.55081e-07
5.06746e-07
2.55644e-08
1.38465e-07
1.83157e-10
4.36198e-08
-1.18492e-09
1.3359e-08
-5.08631e-10
3.80638e-09
-1.49827e-10
9.71667e-10
-3.665e-11
2.23126e-10
-7.94095e-12
4.68349e-11
-1.54828e-12
9.14299e-12
-2.62904e-13
1.69407e-12
-3.25224e-14
3.15989e-13
6.07541e-15
6.73846e-14
3.27285e-15
1.72377e-14
5.70447e-16
3.00831e-15
7.41396e-17
4.40643e-16
8.78419e-18
5.86545e-17
9.41272e-19
7.12737e-18
9.08812e-20
7.90998e-19
7.87947e-21
8.00796e-20
6.1011e-22
7.37344e-21
4.18565e-23
6.14539e-22
2.51619e-24
4.60453e-23
1.30506e-25
3.07217e-24
5.71393e-27
1.80151e-25
2.04567e-28
9.11611e-27
5.70376e-30
3.87753e-28
1.14209e-31
1.33245e-29
1.40626e-33
3.46668e-31
2.00947e-35
6.03832e-33
5.36601e-35
2.78209e-09
4.56248e-09
3.09223e-09
4.36002e-09
2.4583e-05
1.68451e-05
3.51482e-05
6.25038e-05
3.61367e-05
7.15714e-05
3.58317e-05
7.38369e-05
3.37961e-05
7.36657e-05
9.70225e-06
6.24231e-05
6.65738e-07
1.45187e-05
1.33945e-07
1.57744e-06
4.48892e-08
3.68672e-07
1.04601e-08
7.90449e-08
8.53298e-10
2.07387e-08
-2.63694e-10
5.2259e-09
-1.5136e-10
1.33508e-09
-4.78262e-11
3.24963e-10
-1.2008e-11
7.26358e-11
-2.60682e-12
1.4977e-11
-4.97194e-13
2.90214e-12
-7.05195e-14
5.57036e-13
2.21106e-15
1.18869e-13
5.10759e-15
3.24362e-14
1.28236e-15
6.85528e-15
1.85495e-16
1.09117e-15
2.39895e-17
1.56047e-16
2.81521e-18
2.03961e-17
2.98709e-19
2.44095e-18
2.86026e-20
2.6746e-19
2.46287e-21
2.6786e-20
1.89641e-22
2.44406e-21
1.29541e-23
2.02186e-22
7.76296e-25
1.50599e-23
4.01842e-26
1.00041e-24
1.75781e-27
5.84932e-26
6.29383e-29
2.95557e-27
1.75646e-30
1.25701e-28
3.52202e-32
4.32427e-30
4.34254e-34
1.12733e-31
3.19531e-36
1.96829e-33
1.66539e-35
1.01421e-08
5.79092e-09
1.08967e-08
4.12227e-09
1.23939e-05
3.21474e-06
3.22134e-05
4.0511e-05
3.52737e-05
6.82596e-05
3.61416e-05
7.32271e-05
3.55118e-05
7.39632e-05
2.7292e-05
7.13364e-05
1.04277e-06
4.32451e-05
1.5563e-07
2.28248e-06
1.2539e-08
4.26892e-07
1.64683e-09
5.78186e-08
1.97641e-10
1.04511e-08
-7.1903e-11
2.12955e-09
-4.49879e-11
4.67216e-10
-1.44628e-11
1.04057e-10
-3.61964e-12
2.22468e-11
-7.72588e-13
4.48655e-12
-1.31942e-13
8.83727e-13
-8.40022e-15
1.89254e-13
6.4059e-15
5.37846e-14
2.3394e-15
1.36168e-14
3.92189e-16
2.37653e-15
5.52529e-17
3.63554e-16
7.06155e-18
5.08183e-17
8.18258e-19
6.51732e-18
8.58963e-20
7.67661e-19
8.15167e-21
8.29891e-20
6.96719e-22
8.21731e-21
5.33258e-23
7.42702e-22
3.62564e-24
6.09682e-23
2.16539e-25
4.51396e-24
1.11847e-26
2.9854e-25
4.88766e-28
1.74064e-26
1.75006e-29
8.78378e-28
4.88815e-31
3.73625e-29
9.81459e-33
1.2871e-30
1.2114e-34
3.36316e-32
6.20319e-37
5.88582e-34
4.92997e-36
4.52599e-11
2.86945e-09
5.90763e-09
3.25379e-09
2.88845e-06
3.52574e-07
2.53424e-05
7.01564e-06
3.22194e-05
5.46132e-05
3.49466e-05
7.13852e-05
3.54937e-05
7.40465e-05
3.37178e-05
7.35455e-05
5.99408e-06
5.07032e-05
1.96472e-07
4.28899e-06
3.70205e-09
5.71734e-07
-8.66262e-10
5.19242e-08
-1.89667e-10
5.71127e-09
-4.06278e-11
8.12408e-10
-1.37256e-11
1.52871e-10
-4.05384e-12
3.11123e-11
-9.78771e-13
6.33155e-12
-1.93248e-13
1.2725e-12
-2.32719e-14
2.71304e-13
6.24123e-15
8.07714e-14
3.43018e-15
2.35805e-14
6.9498e-16
4.58608e-15
1.07064e-16
7.47016e-16
1.4854e-17
1.11008e-16
1.87121e-18
1.51683e-17
2.14152e-19
1.90904e-18
2.22483e-20
2.21321e-19
2.09313e-21
2.3607e-20
1.77626e-22
2.3113e-21
1.35179e-23
2.06973e-22
9.15113e-25
1.68648e-23
5.44891e-26
1.24162e-24
2.80944e-27
8.17955e-26
1.22692e-28
4.75824e-27
4.39464e-30
2.39946e-28
1.2289e-31
1.02139e-29
2.47121e-33
3.52566e-31
3.05341e-35
9.23903e-33
1.5568e-37
1.62135e-34
1.35703e-36
-2.64477e-09
-1.05935e-09
1.65425e-08
2.13276e-08
3.04972e-07
9.29796e-08
6.66365e-06
7.53331e-07
2.8648e-05
8.58202e-06
2.94988e-05
4.89305e-05
3.2704e-05
7.14775e-05
3.05825e-05
6.895e-05
5.67491e-06
3.85539e-05
-5.13339e-11
4.82056e-06
-8.88074e-09
5.44303e-07
-1.60012e-09
3.89965e-08
-1.60101e-10
2.82144e-09
-1.97761e-11
2.80751e-10
-3.84695e-12
4.53547e-11
-9.66416e-13
8.64131e-12
-2.1665e-13
1.69579e-12
-3.54508e-14
3.62359e-13
4.26185e-15
1.08894e-13
4.01637e-15
3.54709e-14
1.01569e-15
7.84912e-15
1.72344e-16
1.36076e-15
2.59401e-17
2.13698e-16
3.54686e-18
3.09374e-17
4.41323e-19
4.13811e-18
4.99886e-20
5.11614e-19
5.14832e-21
5.84269e-20
4.80869e-22
6.15365e-21
4.05697e-23
5.96201e-22
3.07361e-24
5.29379e-23
2.07402e-25
4.28529e-24
1.23247e-26
3.13992e-25
6.34916e-28
2.06229e-26
2.77331e-29
1.19807e-27
9.94454e-31
6.04302e-29
2.7857e-32
2.57671e-30
5.61268e-34
8.92016e-32
6.94292e-36
2.34616e-33
3.52601e-38
4.13102e-35
3.44273e-37
1.02558e-09
-1.07684e-09
-8.23781e-10
-2.02443e-11
3.5966e-08
3.1887e-08
6.99433e-07
6.27301e-08
5.83033e-06
4.02697e-07
1.83743e-05
2.44411e-06
1.77924e-05
1.10725e-05
1.15986e-05
9.47799e-06
2.58903e-06
6.06295e-06
-2.39947e-07
4.50981e-06
-1.6878e-08
2.9606e-07
-1.16671e-09
2.0857e-08
-6.62599e-11
1.50819e-09
-5.76067e-12
1.14455e-10
-7.69626e-13
1.36618e-11
-1.62289e-13
2.42456e-12
-3.18522e-14
4.65278e-13
1.6349e-15
1.31664e-13
3.58993e-15
4.74167e-14
1.1565e-15
1.19075e-14
2.21629e-16
2.19932e-15
3.64721e-17
3.63381e-16
5.4372e-18
5.54679e-17
7.37456e-19
7.84832e-18
9.11345e-20
1.02999e-18
1.02617e-20
1.25316e-19
1.05151e-21
1.41194e-20
9.78086e-23
1.47049e-21
8.22576e-24
1.41176e-22
6.21842e-25
1.2446e-23
4.19116e-26
1.0022e-24
2.49007e-27
7.31788e-26
1.2837e-28
4.79802e-27
5.61581e-30
2.78714e-28
2.01811e-31
1.40788e-29
5.66753e-33
6.02028e-31
1.1446e-34
2.09245e-32
1.41731e-36
5.52904e-34
7.16167e-39
9.77407e-36
8.10039e-38
5.30712e-10
-1.0654e-09
3.39819e-09
-2.38678e-09
8.94764e-09
1.85713e-09
9.66009e-10
2.64232e-08
4.16744e-07
-4.64437e-08
1.62932e-06
-8.27854e-08
1.85255e-06
3.84151e-07
1.39058e-06
5.39152e-07
5.91023e-07
5.66309e-07
1.24323e-07
1.2013e-06
-5.01935e-09
2.20863e-07
-1.55838e-11
1.21649e-08
-7.0549e-12
8.48068e-10
-2.8891e-13
4.90033e-11
-2.40219e-14
5.83562e-12
-8.57821e-15
9.14903e-13
3.53544e-17
1.61302e-13
1.92599e-15
5.55097e-14
8.62163e-16
1.592e-14
1.99776e-16
3.14723e-15
3.74989e-17
5.45077e-16
6.26735e-18
8.7417e-17
9.44361e-19
1.30406e-17
1.28977e-19
1.81029e-18
1.60098e-20
2.33783e-19
1.80789e-21
2.806e-20
1.85629e-22
3.12591e-21
1.72958e-23
3.22559e-22
1.45704e-24
3.07431e-23
1.10358e-25
2.6957e-24
7.45491e-27
2.16289e-25
4.44106e-28
1.57639e-26
2.2966e-29
1.03339e-27
1.00815e-30
6.01139e-29
3.63589e-32
3.04534e-30
1.02453e-33
1.30769e-31
2.07435e-35
4.56876e-33
2.56891e-37
1.21406e-34
1.28761e-39
2.15595e-36
1.77436e-38
-6.61586e-10
-6.46631e-10
-8.46207e-10
-1.6266e-09
-7.94481e-10
-2.67199e-09
-1.39414e-08
2.4396e-09
-1.37373e-07
-8.49352e-09
-2.73809e-07
-1.00674e-07
-2.08848e-07
3.4157e-09
-1.81809e-07
1.2793e-07
-1.88886e-07
2.22393e-07
-6.15351e-08
1.83375e-07
-7.74634e-09
5.04282e-08
-3.11608e-10
3.74251e-09
-2.01992e-11
1.95636e-10
-2.23054e-12
1.63317e-11
-2.88919e-13
2.02519e-12
-3.3511e-14
3.00926e-13
-2.92696e-15
5.50568e-14
-9.78948e-17
1.86184e-14
4.36681e-17
3.99871e-15
1.67656e-17
7.22244e-16
3.96666e-18
1.21215e-16
7.50571e-19
1.89796e-17
1.21861e-19
2.77621e-18
1.7465e-20
3.79733e-19
2.24097e-21
4.84265e-20
2.59153e-22
5.75148e-21
2.7088e-23
6.35221e-22
2.55937e-24
6.50989e-23
2.18076e-25
6.17305e-24
1.66777e-26
5.39473e-25
1.1362e-27
4.32131e-26
6.82038e-29
3.14949e-27
3.55151e-30
2.06787e-28
1.56875e-31
1.20661e-29
5.68802e-33
6.13982e-31
1.60929e-34
2.6513e-32
3.26419e-36
9.32292e-34
4.03086e-38
2.49388e-35
1.98694e-40
4.45062e-37
3.62817e-39
-8.31667e-10
-2.16143e-10
-2.43841e-09
-6.15691e-10
-7.46487e-09
-1.30697e-09
-3.43738e-08
-9.33431e-11
-8.41282e-08
-3.37145e-09
-2.02827e-07
-2.15509e-08
-2.50924e-07
-1.82843e-08
-2.32957e-07
2.50843e-08
-1.46026e-07
6.08271e-08
-3.94612e-08
5.4809e-08
-2.93029e-09
1.28812e-08
-1.51916e-10
1.01609e-09
-1.09808e-11
5.63714e-11
-1.21074e-12
4.62745e-12
-1.48993e-13
5.57822e-13
-1.76332e-14
8.17548e-14
-2.23819e-15
1.86384e-14
-2.92336e-16
4.7089e-15
-3.43423e-17
8.84976e-16
-3.30158e-18
1.53407e-16
-1.9264e-19
2.49694e-17
1.19467e-20
3.79779e-18
6.26509e-21
5.42155e-19
1.28348e-21
7.3182e-20
1.97267e-22
9.22553e-21
2.54523e-23
1.08483e-21
2.86199e-24
1.18797e-22
2.84749e-25
1.21212e-23
2.52143e-26
1.14639e-24
1.98623e-27
1.0008e-25
1.38507e-28
8.0207e-27
8.47019e-30
5.85749e-28
4.47616e-31
3.85922e-29
1.99974e-32
2.26276e-30
7.30828e-34
1.15839e-31
2.07576e-35
5.03763e-33
4.2028e-37
1.7851e-34
5.12499e-39
4.81141e-36
2.40892e-41
8.63054e-38
6.93185e-40
-2.81898e-10
-4.09946e-11
-8.59925e-10
-1.16492e-10
-3.77195e-09
-2.20254e-10
-1.0938e-08
-1.29118e-10
-2.51389e-08
-1.0664e-09
-5.6984e-08
-4.01481e-09
-8.48301e-08
-5.61211e-09
-8.10285e-08
4.05174e-09
-4.79875e-08
1.20536e-08
-1.07639e-08
1.1849e-08
-8.35271e-10
2.69861e-09
-4.57758e-11
2.2232e-10
-3.49423e-12
1.31319e-11
-3.7643e-13
1.11197e-12
-4.3643e-14
1.26946e-13
-5.45669e-15
1.88653e-14
-8.26392e-16
5.12122e-15
-1.21144e-16
1.02082e-15
-1.66099e-17
1.83012e-16
-2.10807e-18
3.0844e-17
-2.43121e-19
4.89832e-18
-2.51885e-20
7.28114e-19
-2.30901e-21
1.01691e-19
-1.75998e-22
1.34628e-20
-9.55391e-24
1.66691e-21
-6.57671e-26
1.92854e-22
7.32434e-26
2.08026e-23
1.26418e-26
2.11287e-24
1.44967e-27
1.99394e-25
1.33005e-28
1.73971e-26
1.02424e-29
1.39571e-27
6.70039e-31
1.02201e-28
3.70691e-32
6.76227e-30
1.70521e-33
3.98786e-31
6.32354e-35
2.05619e-32
1.79459e-36
9.01667e-34
3.55697e-38
3.22422e-35
4.08232e-40
8.76899e-37
1.41611e-42
1.58315e-38
1.24745e-40
-5.42887e-11
-4.80415e-12
-1.46636e-10
-1.16073e-11
-6.27413e-10
-1.58835e-11
-1.8842e-09
-3.44271e-11
-4.97692e-09
-2.11828e-10
-1.09773e-08
-7.4732e-10
-1.82262e-08
-1.08862e-09
-1.79009e-08
5.70061e-10
-1.07827e-08
1.92554e-09
-2.34498e-09
2.07138e-09
-1.89617e-10
4.8115e-10
-1.09764e-11
4.30572e-11
-8.78945e-13
2.65642e-12
-9.19239e-14
2.24971e-13
-9.62234e-15
2.46525e-14
-1.45858e-15
4.59806e-15
-2.38931e-16
1.04513e-15
-3.61785e-17
1.99473e-16
-5.14766e-18
3.51287e-17
-6.8718e-19
5.83172e-18
-8.5238e-20
9.12774e-19
-9.82417e-21
1.33803e-19
-1.05893e-21
1.84236e-20
-1.05357e-22
2.40159e-21
-9.63737e-24
2.93177e-22
-8.06145e-25
3.34953e-23
-6.20254e-26
3.57454e-24
-4.32316e-27
3.59784e-25
-2.70389e-28
3.37235e-26
-1.50311e-29
2.92885e-27
-7.3532e-31
2.3443e-28
-3.14322e-32
1.71669e-29
-1.17968e-33
1.13861e-30
-4.01458e-35
6.74654e-32
-1.31455e-36
3.5029e-33
-4.2019e-38
1.54994e-34
-1.16271e-39
5.60177e-36
-2.23597e-41
1.54142e-37
-1.12845e-43
2.8135e-39
2.19377e-41
-6.39696e-12
-4.01762e-13
-1.73328e-11
-8.81578e-13
-7.23428e-11
-2.30477e-16
-2.4067e-10
-6.22901e-12
-6.80021e-10
-3.33342e-11
-1.66084e-09
-1.10874e-10
-3.04793e-09
-1.6377e-10
-3.07038e-09
7.36166e-11
-1.91775e-09
2.63805e-10
-4.31139e-10
3.09314e-10
-3.78357e-11
7.38475e-11
-2.29017e-12
7.22125e-12
-1.83294e-13
4.62457e-13
-1.68511e-14
3.70607e-14
-2.09136e-15
4.15427e-15
-3.52362e-16
9.65866e-16
-5.8547e-17
1.89216e-16
-8.9908e-18
3.59317e-17
-1.29828e-18
6.28673e-18
-1.76426e-19
1.03567e-18
-2.23856e-20
1.60718e-19
-2.65586e-21
2.33477e-20
-2.97e-22
3.1861e-21
-3.0968e-23
4.11762e-22
-3.00597e-24
4.98755e-23
-2.71008e-25
5.65992e-24
-2.28839e-26
6.00884e-25
-1.7917e-27
6.01276e-26
-1.29475e-28
5.61291e-27
-8.59715e-30
4.86437e-28
-5.21234e-31
3.89318e-29
-2.85924e-32
2.85662e-30
-1.39993e-33
1.90248e-31
-5.9929e-35
1.13423e-32
-2.17207e-36
5.9371e-34
-6.32917e-38
2.65316e-35
-1.35827e-39
9.69883e-37
-1.82804e-41
2.70192e-38
-5.38709e-44
4.99232e-40
3.84875e-42
-5.45638e-13
-2.62466e-14
-1.72846e-12
-4.39556e-14
-6.63651e-12
-6.81614e-14
-2.45455e-11
-8.1648e-13
-8.01624e-11
-4.10741e-12
-2.18995e-10
-1.20673e-11
-4.32989e-10
-2.05578e-11
-4.45385e-10
9.32863e-12
-2.9021e-10
3.23559e-11
-6.75872e-11
4.01049e-11
-6.49909e-12
1.00281e-11
-4.0667e-13
1.04776e-12
-3.04405e-14
6.73878e-14
-2.67419e-15
4.82737e-15
-4.26286e-16
7.34268e-16
-7.47382e-17
1.58053e-16
-1.25826e-17
3.15783e-17
-1.95361e-18
6.01439e-18
-2.84891e-19
1.05254e-18
-3.90984e-20
1.73045e-19
-5.01461e-21
2.67587e-20
-6.02317e-22
3.86991e-21
-6.83381e-23
5.25523e-22
-7.24931e-24
6.75884e-23
-7.1815e-25
8.15054e-24
-6.63095e-26
9.21504e-25
-5.75285e-27
9.75688e-26
-4.64302e-28
9.74955e-27
-3.46781e-29
9.10139e-28
-2.38385e-30
7.89973e-29
-1.49663e-31
6.34235e-30
-8.4876e-33
4.67601e-31
-4.28012e-34
3.13429e-32
-1.87584e-35
1.88375e-33
-6.90504e-37
9.95554e-35
-2.02391e-38
4.49795e-36
-4.31977e-40
1.66419e-37
-5.67803e-42
4.69536e-39
-1.46788e-44
8.78589e-41
6.66144e-43
-5.71772e-14
-1.14655e-15
-1.71602e-13
-8.88216e-16
-5.66172e-13
-6.38004e-15
-2.48868e-12
-7.69022e-14
-9.8081e-12
-3.80007e-13
-2.77349e-11
-1.17712e-12
-5.53e-11
-2.27503e-12
-5.7128e-11
1.19683e-12
-3.87152e-11
3.63804e-12
-9.30155e-12
4.75326e-12
-9.63558e-13
1.21562e-12
-6.04465e-14
1.27652e-13
-3.76651e-15
7.45001e-15
-4.46477e-16
6.32817e-16
-7.92769e-17
1.16726e-16
-1.4179e-17
2.40457e-17
-2.42197e-18
4.89425e-18
-3.80503e-19
9.39626e-19
-5.60285e-20
1.65313e-19
-7.75437e-21
2.72527e-20
-1.00242e-21
4.21773e-21
-1.21364e-22
6.09741e-22
-1.38873e-23
8.27116e-23
-1.48722e-24
1.06232e-23
-1.48929e-25
1.2795e-24
-1.39218e-26
1.44554e-25
-1.22452e-27
1.53061e-26
-1.00345e-28
1.53095e-27
-7.61866e-30
1.4323e-28
-5.32843e-31
1.24752e-29
-3.40483e-32
1.00646e-30
-1.96494e-33
7.46733e-32
-1.00752e-34
5.04445e-33
-4.4834e-36
3.05994e-34
-1.67226e-37
1.63444e-35
-4.95302e-39
7.4725e-37
-1.06402e-40
2.80048e-38
-1.39404e-42
8.00883e-40
-3.31241e-45
1.51934e-41
1.13015e-43
-9.68964e-15
-5.38558e-17
-2.50104e-14
4.6537e-17
-6.72428e-14
4.31647e-16
-2.9731e-13
-2.95892e-15
-1.17538e-12
-2.81982e-14
-3.28952e-12
-1.00823e-13
-6.60074e-12
-2.05926e-13
-6.72439e-12
1.26645e-13
-4.64086e-12
3.83271e-13
-1.1312e-12
5.01068e-13
-1.18827e-13
1.27587e-13
-6.57037e-15
1.18201e-14
-4.64197e-16
7.43631e-16
-7.21015e-17
8.52629e-17
-1.33083e-17
1.59694e-17
-2.43686e-18
3.41054e-18
-4.2324e-19
7.07274e-19
-6.74104e-20
1.37461e-19
-1.00369e-20
2.44152e-20
-1.40199e-21
4.05238e-21
-1.82704e-22
6.30126e-22
-2.22868e-23
9.13956e-23
-2.5691e-24
1.24278e-23
-2.77261e-25
1.5992e-24
-2.79971e-26
1.92965e-25
-2.64141e-27
2.18458e-26
-2.34687e-28
2.31931e-27
-1.94464e-29
2.32758e-28
-1.49432e-30
2.18704e-29
-1.0586e-31
1.91523e-30
-6.85586e-33
1.5554e-31
-4.01156e-34
1.16314e-32
-2.08578e-35
7.92975e-34
-9.41e-37
4.86064e-35
-3.55645e-38
2.62669e-36
-1.06625e-39
1.21628e-37
-2.31352e-41
4.6207e-39
-3.04005e-43
1.34039e-40
-6.76132e-46
2.58009e-42
1.87868e-44
-9.07228e-16
-2.26662e-18
-3.20981e-15
1.22222e-17
-8.99408e-15
1.23647e-16
-3.27258e-14
5.18214e-16
-1.26129e-13
8.32188e-16
-3.46781e-13
-6.27904e-15
-6.90826e-13
-1.47436e-14
-7.05323e-13
1.36026e-14
-4.86861e-13
3.82653e-14
-1.14952e-13
4.84276e-14
-1.0607e-14
1.21016e-14
-5.97315e-16
1.03516e-15
-6.25777e-17
8.41752e-17
-1.06677e-17
1.08434e-17
-2.03848e-18
2.0465e-18
-3.82912e-19
4.51379e-19
-6.7777e-20
9.56359e-20
-1.09675e-20
1.88841e-20
-1.65445e-21
3.39822e-21
-2.33633e-22
5.69883e-22
-3.07357e-23
8.93396e-23
-3.78161e-24
1.30442e-23
-4.39478e-25
1.78368e-24
-4.78143e-26
2.30649e-25
-4.86873e-27
2.79608e-26
-4.6346e-28
3.18043e-27
-4.15704e-29
3.39389e-28
-3.48008e-30
3.42507e-29
-2.70386e-31
3.23885e-30
-1.93814e-32
2.85702e-31
-1.27093e-33
2.33953e-32
-7.53412e-35
1.76596e-33
-3.97038e-36
1.21663e-34
-1.81594e-37
7.54428e-36
-6.95771e-39
4.12871e-37
-2.11372e-40
1.93786e-38
-4.64051e-42
7.46799e-40
-6.13706e-44
2.19881e-41
-1.2914e-46
4.2971e-43
3.05692e-45
-7.25736e-17
-4.72351e-20
-2.87571e-16
1.51649e-18
-1.09835e-15
1.38665e-17
-3.87533e-15
8.83562e-17
-1.01471e-14
3.5249e-16
-3.03032e-14
8.4563e-16
-6.4686e-14
1.39376e-15
-6.38329e-14
1.35852e-15
-4.5023e-14
3.77192e-15
-1.01618e-14
4.70594e-15
-8.54842e-16
1.20832e-15
-6.49208e-17
1.06705e-16
-8.16848e-18
9.34357e-18
-1.44977e-18
1.28048e-18
-2.8694e-19
2.47208e-19
-5.53917e-20
5.59225e-20
-1.0014e-20
1.21381e-20
-1.64996e-21
2.4425e-21
-2.52709e-22
4.4669e-22
-3.6151e-23
7.59234e-23
-4.81019e-24
1.20367e-23
-5.97969e-25
1.77443e-24
-7.01646e-26
2.44709e-25
-7.70559e-27
3.18871e-26
-7.92032e-28
3.89375e-27
-7.61306e-29
4.46084e-28
-6.89767e-30
4.79553e-29
-5.83628e-31
4.87696e-30
-4.58599e-32
4.65022e-31
-3.32678e-33
4.13914e-32
-2.20921e-34
3.42295e-33
-1.32704e-35
2.61168e-34
-7.09003e-37
1.82043e-35
-3.28886e-38
1.1432e-36
-1.27822e-39
6.34146e-38
-3.93808e-41
3.01929e-39
-8.75861e-43
1.18104e-40
-1.16859e-44
3.53135e-42
-2.34195e-47
7.01004e-44
4.86392e-46
-5.74304e-18
4.75806e-21
-2.41929e-17
1.5311e-19
-9.8281e-17
1.23223e-18
-3.83204e-16
7.40383e-18
-1.28731e-15
3.75722e-17
-3.28421e-15
1.59779e-16
-5.26259e-15
3.4012e-16
-5.77635e-15
4.13808e-16
-4.29451e-15
4.8197e-16
-9.93795e-16
4.08164e-16
-8.63309e-17
1.12714e-16
-7.34068e-18
1.07388e-17
-9.86632e-19
9.72112e-19
-1.82184e-19
1.40467e-19
-3.73324e-20
2.82492e-20
-7.41666e-21
6.50686e-21
-1.37235e-21
1.45025e-21
-2.3073e-22
2.98182e-22
-3.59588e-23
5.55709e-23
-5.22234e-24
9.59953e-24
-7.04277e-25
1.54332e-24
-8.86335e-26
2.30335e-25
-1.05196e-26
3.2121e-26
-1.16805e-27
4.22843e-27
-1.21367e-28
5.21347e-28
-1.17945e-29
6.0293e-29
-1.08059e-30
6.54345e-30
-9.24953e-32
6.71898e-31
-7.3563e-33
6.47147e-32
-5.40424e-34
5.82177e-33
-3.63652e-35
4.86913e-34
-2.21472e-36
3.76012e-35
-1.20029e-37
2.65476e-36
-5.65012e-39
1.68998e-37
-2.22885e-40
9.50994e-39
-6.96882e-42
4.59617e-40
-1.57161e-43
1.82588e-41
-2.11922e-45
5.54672e-43
-4.06096e-48
1.11883e-44
7.56065e-47
-4.20604e-19
7.93253e-22
-1.88077e-18
1.27907e-20
-7.84973e-18
9.6716e-20
-3.11834e-17
5.55838e-19
-1.13807e-16
2.66504e-18
-3.28192e-16
1.02544e-17
-5.27105e-16
2.67483e-17
-5.46661e-16
4.61767e-17
-3.81604e-16
4.76434e-17
-9.17848e-17
3.22684e-17
-8.54495e-18
9.54169e-18
-7.75993e-19
9.79781e-19
-1.10259e-19
9.42089e-20
-2.12778e-20
1.43593e-20
-4.50992e-21
3.02089e-21
-9.23306e-22
7.13227e-22
-1.75214e-22
1.6357e-22
-3.01231e-23
3.44434e-23
-4.78729e-24
6.55709e-24
-7.07362e-25
1.15403e-24
-9.68876e-26
1.88611e-25
-1.23689e-26
2.85686e-26
-1.48769e-27
4.03821e-27
-1.673e-28
5.38268e-28
-1.76005e-29
6.71566e-29
-1.73172e-30
7.85621e-30
-1.60637e-31
8.62395e-31
-1.39257e-32
8.95699e-32
-1.1221e-33
8.72864e-33
-8.35554e-35
7.94803e-34
-5.70172e-36
6.73196e-35
-3.52315e-37
5.26788e-36
-1.93814e-38
3.77121e-37
-9.26398e-40
2.43575e-38
-3.71139e-41
1.39149e-39
-1.17835e-42
6.83068e-41
-2.69656e-44
2.75716e-42
-3.67971e-46
8.51285e-44
-6.7585e-49
1.74527e-45
1.14725e-47
-2.78146e-20
7.19478e-23
-1.31284e-19
9.12642e-22
-5.65954e-19
6.72925e-21
-2.28675e-18
3.83708e-20
-8.41745e-18
1.8114e-19
-2.41494e-17
6.76401e-19
-4.19023e-17
1.75779e-18
-4.44889e-17
3.01638e-18
-3.07156e-17
3.46429e-18
-7.82932e-18
2.37116e-18
-7.83307e-19
7.50511e-19
-7.61782e-20
8.27169e-20
-1.14434e-20
8.52872e-21
-2.31068e-21
1.3727e-21
-5.07667e-22
3.02174e-22
-1.073e-22
7.38718e-23
-2.0923e-23
1.74634e-23
-3.68566e-24
3.77391e-24
-5.98531e-25
7.35465e-25
-9.01621e-26
1.32167e-25
-1.25682e-26
2.20079e-26
-1.63073e-27
3.39052e-27
-1.9913e-28
4.86818e-28
-2.27188e-29
6.58403e-29
-2.42373e-30
8.32873e-30
-2.41789e-31
9.87404e-31
-2.27385e-32
1.09824e-31
-1.99874e-33
1.15563e-32
-1.63344e-34
1.14112e-33
-1.23403e-35
1.05316e-34
-8.54683e-37
9.04459e-36