/*--------------------------------*- C++ -*----------------------------------*\
  =========                 |
  \\      /  F ield         | OpenFOAM: The Open Source CFD Toolbox
   \\    /   O peration     | Website:  https://openfoam.org
    \\  /    A nd           | Version:  7
     \\/     M anipulation  |
\*---------------------------------------------------------------------------*/
FoamFile
{
    version     2.0;
    format      ascii;
    class       volScalarField;
    location    "0.35";
    object      epsilon;
}
// * * * * * * * * * * * * * * * * * * * * * * * * * * * * * * * * * * * * * //

dimensions      [0 2 -3 0 0 0 0];

internalField   nonuniform List<scalar> 
1935
(
3.12657
3.27418
3.38461
3.43268
3.40129
3.28239
3.09148
2.84184
2.55134
2.2519
1.96811
1.70858
1.46877
1.24033
1.0205
0.815476
0.635715
0.488719
0.375632
0.292448
0.232921
0.190855
0.161158
0.140028
0.124777
0.113551
0.105099
0.0985873
0.0934609
0.0893526
0.086016
0.0832838
0.0810417
0.0792137
0.0777545
0.0766485
0.075915
0.0756236
0.0759231
0.077098
0.0796903
0.0847545
0.0938607
3.5787
3.95905
4.19501
4.23816
3.85886
4.38098
4.72804
4.81781
4.11033
4.79813
5.29146
5.47012
4.2912
5.16299
5.85725
6.19362
4.36492
5.42582
6.37282
6.93572
4.2905
5.49314
6.69
7.54111
4.05038
5.27756
6.63949
7.79504
3.69872
4.83314
6.19432
7.56001
3.26768
4.24126
5.49518
6.87325
2.81642
3.58651
4.64006
5.9382
2.39787
2.96098
3.74317
4.79308
2.03896
2.43647
2.95941
3.66794
1.73558
2.02852
2.37348
2.8021
1.4658
1.70247
1.95701
2.23494
1.21079
1.41163
1.62399
1.84335
0.968557
1.13398
1.31294
1.5008
0.750718
0.877375
1.01769
1.1691
0.569558
0.659278
0.759904
0.870283
0.429508
0.489129
0.556038
0.629727
0.327032
0.364901
0.407057
0.453234
0.25459
0.277956
0.303621
0.331416
0.204217
0.21837
0.233668
0.250001
0.169287
0.177733
0.186705
0.196135
0.144896
0.149845
0.155005
0.160336
0.127619
0.130435
0.133306
0.136218
0.115138
0.116655
0.118154
0.119636
0.10591
0.106636
0.107313
0.107949
0.0989181
0.0991644
0.0993505
0.0994879
0.0934953
0.0934519
0.093347
0.0931939
0.0892036
0.0889855
0.088709
0.0883882
0.0857519
0.085428
0.0850507
0.0846338
0.0829443
0.0825544
0.0821169
0.0816451
0.080647
0.0802118
0.0797358
0.0792306
0.0787692
0.0782955
0.0777885
0.0772589
0.0772527
0.0767352
0.0761941
0.0756377
0.0760675
0.0754879
0.0748975
0.0743018
0.0752144
0.0745375
0.073867
0.0732064
0.0747351
0.0738997
0.073095
0.0723238
0.074735
0.0736365
0.0726037
0.0716436
0.0754296
0.0738832
0.0724559
0.0711732
0.077257
0.0748991
0.0727635
0.0709325
0.081197
0.0771052
0.0736257
0.0709018
0.0896239
0.0805481
0.074706
0.0708666
4.06461
3.71577
3.32697
2.97855
2.68073
2.43453
2.24511
2.11684
2.05148
2.04952
2.10428
2.19983
2.31321
2.41703
2.4754
2.44122
2.27715
1.99356
1.6429
1.288
0.974456
0.722579
0.533115
0.396573
0.300538
0.233676
0.187154
0.154652
0.131843
0.115831
0.104687
0.0971252
0.0922988
0.0896811
0.089041
0.0905488
0.0952338
0.106905
0.143741
0.389634
4.59268
4.10495
3.58223
3.14077
2.77122
2.474
2.25668
2.11266
2.03857
2.0295
2.07366
2.15195
2.24097
2.31381
2.33763
2.27311
2.09382
1.81581
1.48842
1.16567
0.884451
0.659776
0.490732
0.368396
0.281782
0.221011
0.178403
0.148433
0.127291
0.112401
0.102031
0.095018
0.0905877
0.0882618
0.0878409
0.0895177
0.0943395
0.106131
0.143099
0.389263
5.21253
4.55725
3.88152
3.3305
2.88297
2.53606
2.28491
2.11962
2.03188
2.01086
2.04014
2.09854
2.16312
2.2069
2.19978
2.10902
1.91822
1.64751
1.34292
1.05044
0.799166
0.599624
0.449546
0.340551
0.262915
0.208054
0.169314
0.141893
0.122458
0.108735
0.0991811
0.0927495
0.0887419
0.086728
0.0865408
0.0883963
0.0933587
0.105263
0.142304
0.388191
5.94929
5.10195
4.25162
3.57342
3.03867
2.63253
2.33939
2.14552
2.0373
1.99836
2.00853
2.0455
2.08601
2.10236
2.06592
1.95247
1.75307
1.49073
1.20812
0.943642
0.719651
0.542947
0.410198
0.313522
0.244299
0.195067
0.160077
0.135172
0.117449
0.104914
0.0961987
0.0903708
0.0868039
0.0851157
0.0851719
0.0872121
0.0923159
0.104321
0.141377
0.386444
6.81687
5.77974
4.72556
3.89696
3.25655
2.77551
2.42941
2.19768
2.06084
1.99795
1.98609
2.00086
2.01603
2.00327
1.93922
1.80596
1.59985
1.34657
1.08475
0.845782
0.64633
0.490148
0.373061
0.287634
0.226199
0.182261
0.150856
0.128396
0.112363
0.101015
0.0931477
0.0879343
0.0848178
0.0834625
0.083767
0.0859936
0.0912364
0.10333
0.14034
0.384075
7.69604
6.57986
5.30728
4.3094
3.54395
2.97229
2.56119
2.28196
2.10929
2.01822
1.98284
1.97434
1.95927
1.91326
1.8227
1.67117
1.45969
1.21549
0.972782
0.75672
0.579167
0.441321
0.338307
0.263086
0.208805
0.169801
0.14179
0.121678
0.107292
0.0971131
0.0900894
0.085491
0.0828266
0.0818056
0.0823584
0.0847695
0.0901456
0.102311
0.139217
0.38115
8.46899
7.48792
5.98669
4.80274
3.8967
3.22191
2.73547
2.40081
2.1873
2.06671
2.00682
1.97064
1.91881
1.83792
1.72035
1.55015
1.33317
1.09707
0.871468
0.675851
0.517827
0.396359
0.305976
0.239988
0.19225
0.157817
0.132993
0.115118
0.102317
0.0932781
0.0870821
0.08309
0.0808721
0.0801807
0.0809769
0.0835669
0.0890679
0.101288
0.138032
0.377741
8.81072
8.47966
6.74982
5.35703
4.30015
3.51526
2.94726
2.55174
2.29406
2.14633
2.06472
1.99118
1.89672
1.78072
1.63391
1.44296
1.21917
0.989777
0.779474
0.602269
0.461806
0.355047
0.276029
0.218395
0.176627
0.146412
0.124563
0.108801
0.0975152
0.0895736
0.0841797
0.080777
0.0789931
0.0786211
0.0796519
0.0824117
0.0880262
0.100281
0.13681
0.37392
8.26776
9.03949
7.58653
5.94934
4.73467
3.8389
3.18817
2.72962
2.42639
2.254
2.1592
2.03951
1.89327
1.74038
1.56057
1.34623
1.11457
0.891175
0.695161
0.53498
0.410564
0.31714
0.248395
0.198329
0.162005
0.135668
0.116584
0.102804
0.0929525
0.0860571
0.081431
0.0785932
0.0772247
0.0771571
0.0784095
0.0813269
0.0870414
0.0993109
0.135573
0.369753
7.30632
8.33949
8.08007
6.55065
5.1862
4.18282
3.45119
2.92911
2.57689
2.3826
2.29528
2.11185
1.90556
1.71106
1.49342
1.25425
1.01537
0.79876
0.617039
0.473135
0.363643
0.28242
0.223005
0.179804
0.148437
0.125656
0.109126
0.0971937
0.0886876
0.0827787
0.0788783
0.0765743
0.075597
0.0758145
0.0772723
0.0803327
0.0861316
0.0983938
0.134339
0.365302
6.0688
7.26822
7.76756
7.03276
5.65
4.54644
3.73596
3.1515
2.73838
2.50054
2.42378
2.20043
1.93366
1.68736
1.42572
1.162
0.918533
0.710825
0.544159
0.416189
0.320741
0.250741
0.199811
0.162834
0.135968
0.116432
0.10225
0.092025
0.0847695
0.0797802
0.0765566
0.0747492
0.0741343
0.074614
0.0762584
0.0794451
0.0853113
0.0975437
0.133124
0.360617
4.62031
5.75599
6.64147
6.80036
6.04568
4.94454
4.05226
3.41683
2.92462
2.59735
2.4687
2.25658
1.96973
1.66163
1.35171
1.06629
0.82267
0.626834
0.476235
0.363945
0.281724
0.222033
0.178797
0.147437
0.124638
0.108045
0.0960031
0.087343
0.081237
0.0770938
0.074492
0.0731394
0.0728545
0.0735708
0.075381
0.0786758
0.0845909
0.0967707
0.131942
0.355746
3.36744
4.12252
4.92556
5.48868
5.56148
5.06945
4.25257
3.6203
3.09237
2.67971
2.48105
2.2758
1.97915
1.61163
1.26254
0.965461
0.728483
0.54767
0.413621
0.316516
0.246619
0.196299
0.15997
0.133638
0.114482
0.100535
0.0904239
0.0831805
0.0781171
0.074741
0.0727014
0.0717581
0.0717682
0.0726939
0.0746478
0.0780315
0.0839769
0.0960811
0.130802
0.35073
2.55685
2.95868
3.41768
3.87836
4.16705
4.16521
3.84012
3.39512
2.98271
2.65532
2.46673
2.26203
1.91238
1.50505
1.14259
0.85268
0.633196
0.472395
0.356721
0.274322
0.215638
0.17362
0.143359
0.121462
0.105528
0.0939288
0.085536
0.079557
0.0754245
0.0727321
0.0711919
0.0706102
0.070879
0.0719861
0.0740614
0.0775148
0.0834716
0.0954781
0.129709
0.345599
2.07258
2.31967
2.56939
2.81629
3.0268
3.12945
3.08479
2.91767
2.70752
2.52456
2.37179
2.11371
1.72716
1.32629
0.987932
0.727783
0.537146
0.400908
0.304573
0.236572
0.18834
0.153849
0.128982
0.110942
0.097803
0.0882451
0.0813489
0.0764775
0.0731609
0.0710665
0.0699612
0.0696928
0.070184
0.0714447
0.0736194
0.077124
0.0830751
0.0949652
0.128676
0.340368
1.69725
1.90211
2.0947
2.26749
2.41547
2.51434
2.5454
2.5062
2.4132
2.28542
2.0991
1.80435
1.44123
1.09514
0.812046
0.598451
0.444034
0.334631
0.257581
0.20318
0.164482
0.136696
0.116575
0.101919
0.0912223
0.0834431
0.0778525
0.0739353
0.0713182
0.0697345
0.0689995
0.0689965
0.0696745
0.0710623
0.0733162
0.0768563
0.0827913
0.0945708
0.127868
0.335348
1.3323
1.50717
1.67498
1.8265
1.95605
2.04843
2.09134
2.07808
2.00755
1.87758
1.67843
1.41069
1.11835
0.852437
0.637763
0.476172
0.359068
0.275644
0.216437
0.174251
0.143958
0.122016
0.106007
0.0942796
0.085692
0.0794464
0.0749768
0.0718783
0.0698583
0.0687082
0.0682857
0.0685051
0.0693381
0.0708292
0.0731445
0.0767085
0.0826245
0.094314
0.127295
0.330738
0.991833
1.12498
1.2558
1.37859
1.4843
1.56024
1.59575
1.583
1.51797
1.39985
1.23167
1.02831
0.82005
0.634503
0.484497
0.370353
0.286384
0.225555
0.181645
0.149846
0.126675
0.10968
0.0971558
0.0879146
0.0811201
0.0761772
0.0726578
0.070252
0.0687355
0.0679497
0.0677884
0.0681926
0.0691527
0.0707264
0.073088
0.0766653
0.0825587
0.0941682
0.126857
0.326412
0.71158
0.802045
0.891881
0.978413
1.05202
1.10383
1.1259
1.11225
1.0602
0.971231
0.852057
0.71596
0.58064
0.460422
0.361942
0.285411
0.227729
0.184897
0.153246
0.129835
0.112462
0.0995265
0.0898826
0.0827074
0.0774078
0.0735526
0.0708264
0.0689984
0.0679017
0.067419
0.0674745
0.0680311
0.0690946
0.0707331
0.0731277
0.076709
0.0825748
0.0941042
0.126486
0.322289
0.504462
0.561008
0.617562
0.671257
0.715983
0.746146
0.756782
0.744354
0.70773
0.648908
0.573339
0.489501
0.406874
0.332754
0.270702
0.221114
0.182602
0.153155
0.130801
0.113869
0.101049
0.0913476
0.0840233
0.0785262
0.0744479
0.0714846
0.0694103
0.0680582
0.0673078
0.0670755
0.0673101
0.0679916
0.0691385
0.070827
0.0732434
0.0768205
0.0826527
0.0940954
0.126144
0.318317
0.361993
0.395335
0.428726
0.459347
0.483906
0.499294
0.502828
0.492759
0.468809
0.432542
0.387342
0.337884
0.288999
0.244396
0.206058
0.174457
0.149116
0.129137
0.113541
0.101438
0.0920864
0.0848914
0.0793905
0.0752268
0.072127
0.0698828
0.0683371
0.067373
0.0669062
0.0668799
0.0672617
0.0680456
0.0692594
0.0709857
0.0734146
0.0769802
0.0827726
0.0941194
0.125809
0.314467
0.267769
0.286875
0.305574
0.322025
0.334487
0.341356
0.341323
0.333634
0.318345
0.296459
0.269849
0.240928
0.212114
0.185306
0.161638
0.141526
0.124891
0.111384
0.100556
0.0919563
0.0851795
0.0798828
0.0757849
0.0726604
0.0703314
0.0686592
0.0675376
0.0668875
0.0666523
0.0667951
0.0672983
0.0681659
0.0694331
0.0711874
0.0736214
0.0771694
0.0829158
0.0941573
0.125467
0.310725
0.206257
0.216972
0.227054
0.235467
0.2413
0.24376
0.24225
0.236489
0.226612
0.213217
0.197299
0.180084
0.162789
0.146406
0.131588
0.118649
0.107647
0.0984756
0.0909437
0.0848339
0.0799327
0.0760468
0.0730099
0.0706832
0.0689538
0.0677322
0.066949
0.0665524
0.066506
0.0667879
0.0673912
0.0683277
0.0696375
0.0714119
0.0738451
0.0773707
0.0830661
0.0941938
0.125107
0.30709
0.165964
0.17182
0.177048
0.181086
0.183463
0.183798
0.181835
0.177489
0.170889
0.162386
0.15251
0.141894
0.131167
0.120861
0.111354
0.102864
0.0954765
0.0891777
0.083897
0.0795343
0.0759804
0.0731293
0.0708851
0.0691646
0.0678983
0.0670302
0.0665164
0.0663246
0.0664327
0.0668295
0.0675157
0.0685088
0.0698528
0.0716411
0.0740691
0.0775688
0.0832092
0.0942168
0.124725
0.303569
0.139237
0.142282
0.14481
0.146509
0.147134
0.146507
0.144523
0.141176
0.136567
0.130905
0.12448
0.117633
0.1107
0.103976
0.0976822
0.0919648
0.0868972
0.0824977
0.0787465
0.075601
0.0730077
0.0709103
0.0692549
0.0679933
0.067084
0.0664932
0.0661944
0.0661685
0.0664034
0.0668955
0.0676508
0.0686908
0.0700621
0.0718597
0.0742793
0.0777506
0.0833336
0.0942171
0.124317
0.300177
0.121138
0.122567
0.123601
0.124061
0.123819
0.122792
0.120947
0.118301
0.11493
0.110961
0.106564
0.101926
0.0972385
0.0926691
0.0883521
0.084382
0.0808152
0.0776762
0.0749655
0.072668
0.0707591
0.0692102
0.0679924
0.0670786
0.0664453
0.066073
0.0659465
0.0660556
0.0663952
0.0669666
0.0677797
0.0688586
0.0702518
0.0720552
0.0744642
0.0779061
0.0834306
0.0941882
0.123882
0.296928
0.108566
0.109073
0.109286
0.109098
0.108443
0.107286
0.10562
0.103473
0.100897
0.0979753
0.0948097
0.0915122
0.0881941
0.0849561
0.0818814
0.0790321
0.0764493
0.0741554
0.0721584
0.0704554
0.0690368
0.0678894
0.0669986
0.0663502
0.0659316
0.0657323
0.0657447
0.0659642
0.0663904
0.067028
0.0678895
0.0690008
0.0704116
0.0722182
0.0746154
0.0780274
0.0834938
0.0941264
0.123423
0.293838
0.0995888
0.0995736
0.0993393
0.098822
0.0979874
0.096823
0.0953353
0.0935484
0.0915034
0.0892552
0.0868688
0.084414
0.08196
0.0795697
0.0772966
0.0751825
0.0732571
0.0715391
0.0700383
0.0687573
0.067694
0.0668435
0.0661994
0.0657552
0.0655047
0.0654433
0.0655681
0.0658782
0.0663763
0.0670691
0.0679712
0.0691094
0.0705342
0.0723421
0.0747271
0.0781098
0.0835194
0.0940299
0.122944
0.290921
0.0929945
0.0926859
0.0922138
0.0915386
0.090643
0.0895253
0.0881964
0.0866779
0.0850007
0.0832035
0.08133
0.0794262
0.0775373
0.0757048
0.0739646
0.0723456
0.0708699
0.0695526
0.0684032
0.0674267
0.0666246
0.0659966
0.0655407
0.0652548
0.0651371
0.0651862
0.0654021
0.0657867
0.0663442
0.0670831
0.0680189
0.0691795
0.0706155
0.0724234
0.0747961
0.0781508
0.0835061
0.0938992
0.122448
0.28819
0.0880165
0.0875465
0.0869533
0.0862117
0.0853138
0.0842629
0.0830708
0.0817563
0.0803433
0.0788603
0.0773382
0.0758089
0.0743036
0.0728509
0.0714763
0.0702006
0.0690406
0.0680086
0.0671134
0.0663606
0.0657537
0.0652944
0.0649836
0.0648217
0.0648092
0.0649471
0.0652371
0.0656826
0.0662891
0.0670662
0.0680301
0.069209
0.0706539
0.0724609
0.0748217
0.0781501
0.0834545
0.0937366
0.121942
0.285654
0.0841654
0.0836095
0.0829598
0.0821998
0.0813268
0.0803464
0.0792702
0.0781139
0.076897
0.0756409
0.0743687
0.0731035
0.071868
0.0706831
0.0695674
0.0685368
0.0676043
0.0667804
0.0660729
0.0654875
0.0650284
0.0646988
0.0645008
0.0644365
0.0645078
0.064717
0.065067
0.0655621
0.0662089
0.0670174
0.0680043
0.0691981
0.07065
0.0724555
0.0748052
0.0781095
0.0833669
0.0935457
0.121433
0.283324
0.0811233
0.0805238
0.0798521
0.0790977
0.0782604
0.0773468
0.0763676
0.0753364
0.0742689
0.0731822
0.0720938
0.0710215
0.0699823
0.0689922
0.0680655
0.0672148
0.0664507
0.0657819
0.0652156
0.0647575
0.064412
0.0641829
0.0640733
0.0640861
0.0642241
0.0644903
0.0648887
0.0654241
0.0661035
0.0669375
0.0679431
0.069149
0.0706061
0.0724099
0.0747496
0.0780322
0.083247
0.0933309
0.120926
0.281205
0.0786784
0.0780574
0.0773811
0.0766425
0.075843
0.0749893
0.0740911
0.0731602
0.0722095
0.0712527
0.0703039
0.0693769
0.0684851
0.0676411
0.0668564
0.0661412
0.0655044
0.0649537
0.0644956
0.0641356
0.0638783
0.0637278
0.0636877
0.0637614
0.0639524
0.0642643
0.0647013
0.065269
0.0659746
0.0668291
0.0678496
0.069065
0.0705262
0.0723282
0.074659
0.0779226
0.0830994
0.0930975
0.120427
0.279304
0.0766858
0.0760526
0.0753781
0.0746575
0.0738932
0.0730915
0.072261
0.0714117
0.0705544
0.0697002
0.0688604
0.0680462
0.0672683
0.0665371
0.0658618
0.0652512
0.064713
0.0642539
0.0638801
0.0635968
0.0634086
0.06332
0.0633347
0.0634566
0.0636895
0.0640375
0.0645053
0.0650985
0.0658249
0.0666955
0.0677277
0.0689506
0.0704148
0.0722151
0.0745384
0.0777857
0.0829294
0.0928509
0.119944
0.277625
0.0750431
0.0743976
0.0737238
0.0730186
0.0722844
0.0715267
0.0707529
0.0699712
0.0691904
0.0684194
0.0676675
0.0669436
0.0662566
0.0656148
0.0650263
0.0644986
0.0640383
0.0636518
0.0633447
0.0631221
0.0629889
0.0629492
0.0630074
0.0631675
0.0634336
0.0638101
0.064302
0.0649152
0.0656577
0.0665409
0.0675822
0.0688107
0.0702773
0.0720761
0.0743932
0.077627
0.0827424
0.0925969
0.119482
0.276168
0.0736755
0.0730093
0.0723294
0.0716332
0.0709224
0.0702013
0.0694754
0.0687509
0.0680347
0.0673337
0.0666551
0.0660061
0.065394
0.0648257
0.0643082
0.063848
0.0634512
0.0631235
0.0628705
0.062697
0.0626079
0.0626076
0.0627006
0.0628911
0.0631835
0.0635825
0.0640932
0.064722
0.0654769
0.0663696
0.0674177
0.0686506
0.0701189
0.0719167
0.074229
0.077452
0.0825437
0.0923405
0.119046
0.274932
0.0725264
0.0718222
0.0711234
0.0704266
0.0697316
0.0690404
0.0683558
0.0676816
0.0670223
0.0663826
0.0657679
0.0651837
0.064636
0.0641307
0.0636736
0.0632705
0.0629271
0.0626489
0.062441
0.0623083
0.0622558
0.062288
0.0624094
0.0626246
0.0629382
0.0633551
0.0638806
0.0645215
0.0652859
0.0661859
0.0672392
0.0684752
0.0699449
0.0717421
0.0740511
0.0772658
0.0823384
0.0920866
0.118639
0.27391
0.0715518
0.0707802
0.0700427
0.0693325
0.0686453
0.0679785
0.0673311
0.0667034
0.0660968
0.0655138
0.0649579
0.0644329
0.0639436
0.0634948
0.0630916
0.0627394
0.0624433
0.0622085
0.0620401
0.0619431
0.0619223
0.0619824
0.0621282
0.0623644
0.0626958
0.0631275
0.0636653
0.0643159
0.065088
0.0659935
0.0670508
0.0682894
0.0697604
0.0715575
0.0738645
0.0770734
0.0821313
0.0918397
0.118266
0.273088
0.0707159
0.0698315
0.0690274
0.0682884
0.0676011
0.0669553
0.0663437
0.0657616
0.065207
0.0646796
0.0641807
0.0637128
0.0632793
0.0628843
0.0625322
0.0622278
0.061976
0.0617819
0.0616504
0.0615865
0.0615951
0.0616811
0.0618494
0.0621049
0.0624526
0.0628979
0.0634467
0.064106
0.0648849
0.0657954
0.0668563
0.0680973
0.0695697
0.0713673
0.0736735
0.076879
0.0819264
0.0916033
0.117928
0.272441
0.0699887
0.0689269
0.0680214
0.0672372
0.0665439
0.0659183
0.0653438
0.0648093
0.0643084
0.0638378
0.0633967
0.0629861
0.0626084
0.0622669
0.0619655
0.0617086
0.0615008
0.0613471
0.0612523
0.0612215
0.0612596
0.0613717
0.0615627
0.0618379
0.0622023
0.0626617
0.0632221
0.0638908
0.064677
0.0655932
0.0666582
0.0679021
0.0693765
0.0711755
0.0734822
0.0766864
0.0817273
0.0913815
0.11763
0.271932
0.0693438
0.068026
0.0669855
0.0661451
0.0654449
0.0648419
0.0643076
0.0638233
0.063378
0.0629654
0.0625828
0.06223
0.0619085
0.0616209
0.0613707
0.0611619
0.060999
0.0608867
0.0608299
0.0608336
0.0609028
0.0610427
0.0612584
0.0615552
0.0619385
0.062414
0.0629882
0.0636684
0.064464
0.0653878
0.0664588
0.0677073
0.0691853
0.0709868
0.0732953
0.0764999
0.0815376
0.0911764
0.11737
0.271476
0.0687472
0.0671205
0.0659383
0.0650488
0.0643494
0.0637742
0.0632817
0.0628468
0.0624545
0.0620963
0.0617683
0.0614694
0.0612005
0.0609636
0.0607619
0.0605992
0.0604796
0.0604079
0.0603887
0.060427
0.0605279
0.0606965
0.0609382
0.0612582
0.0616623
0.0621562
0.0627465
0.0634409
0.0642488
0.0651832
0.0662633
0.0675195
0.0690039
0.0708107
0.0731237
0.0763321
0.0813728
0.0910126
0.117197
0.271015
0.0681827
0.0663361
0.0650785
0.0641763
0.0634919
0.0629442
0.0624848
0.0620856
0.0617301
0.0614092
0.0611185
0.0608566
0.0606241
0.0604229
0.0602558
0.0601263
0.0600386
0.059997
0.0600061
0.0600709
0.0601963
0.0603876
0.06065
0.0609889
0.0614101
0.0619195
0.0625237
0.0632305
0.0640496
0.064994
0.0660829
0.067347
0.0688382
0.0706508
0.0729684
0.0761802
0.0812236
0.0908683
0.117067
0.270042
)
;

boundaryField
{
    leftWall
    {
        type            epsilonWallFunction;
        value           nonuniform 0();
    }
    rightWall
    {
        type            epsilonWallFunction;
        value           nonuniform List<scalar> 
43
(
0.389634
0.389263
0.388191
0.386444
0.384075
0.38115
0.377741
0.37392
0.369753
0.365302
0.360617
0.355746
0.35073
0.345599
0.340368
0.335348
0.330738
0.326412
0.322289
0.318317
0.314467
0.310725
0.30709
0.303569
0.300177
0.296928
0.293838
0.290921
0.28819
0.285654
0.283324
0.281205
0.279304
0.277625
0.276168
0.274932
0.27391
0.273088
0.272441
0.271932
0.271476
0.271015
0.270042
)
;
    }
    lowerWall
    {
        type            epsilonWallFunction;
        value           nonuniform 0();
    }
    atmosphere
    {
        type            inletOutlet;
        inletValue      uniform 0.1;
        value           nonuniform List<scalar> 
45
(
0.1
0.1
0.0805481
0.074706
0.0708666
0.0681827
0.0663361
0.0650785
0.0641763
0.0634919
0.0629442
0.0624848
0.0620856
0.0617301
0.0614092
0.0611185
0.0608566
0.0606241
0.0604229
0.0602558
0.0601263
0.0600386
0.059997
0.0600061
0.0600709
0.0601963
0.0603876
0.06065
0.0609889
0.0614101
0.0619195
0.0625237
0.0632305
0.0640496
0.064994
0.0660829
0.067347
0.0688382
0.0706508
0.0729684
0.0761802
0.0812236
0.0908683
0.117067
0.270042
)
;
    }
    defaultFaces
    {
        type            empty;
    }
    procBoundary3to1
    {
        type            processor;
        value           nonuniform List<scalar> 
45
(
2.96678
3.30606
3.57402
3.7283
3.74484
3.61642
3.37368
3.09533
2.83156
2.60397
2.40942
2.24347
2.12528
2.0652
2.06723
2.12936
2.23937
2.37587
2.51128
2.60892
2.6108
2.46545
2.17791
1.80371
1.41517
1.06744
0.786739
0.575761
0.424425
0.318733
0.24574
0.195357
0.160404
0.13601
0.118948
0.107087
0.099023
0.0938357
0.0909528
0.0901126
0.0914641
0.0960189
0.107565
0.144216
0.389294
)
;
    }
    procBoundary3to2
    {
        type            processor;
        value           nonuniform List<scalar> 
43
(
2.67406
2.72703
2.74913
2.72951
2.66383
2.55409
2.41525
2.24168
2.04345
1.8355
1.62853
1.42624
1.22816
1.03451
0.849462
0.680705
0.53581
0.418671
0.328621
0.261852
0.213408
0.178583
0.15353
0.135354
0.121971
0.111924
0.104216
0.0981727
0.093343
0.089424
0.0862109
0.0835639
0.0813883
0.0796232
0.0782371
0.0772297
0.07664
0.0765643
0.0771879
0.0788362
0.0820529
0.0876495
0.0960642
)
;
    }
}


// ************************************************************************* //
