/*--------------------------------*- C++ -*----------------------------------*\
  =========                 |
  \\      /  F ield         | OpenFOAM: The Open Source CFD Toolbox
   \\    /   O peration     | Website:  https://openfoam.org
    \\  /    A nd           | Version:  7
     \\/     M anipulation  |
\*---------------------------------------------------------------------------*/
FoamFile
{
    version     2.0;
    format      ascii;
    class       volScalarField;
    location    "0.35";
    object      p_rgh;
}
// * * * * * * * * * * * * * * * * * * * * * * * * * * * * * * * * * * * * * //

dimensions      [1 -1 -2 0 0 0 0];

internalField   nonuniform List<scalar> 
1935
(
-3.94889
-3.98383
-4.00635
-4.0093
-3.98782
-3.93872
-3.85928
-3.74819
-3.60883
-3.44389
-3.25423
-3.04294
-2.8164
-2.58281
-2.35071
-2.12701
-1.91613
-1.72041
-1.5408
-1.37711
-1.22845
-1.0938
-0.972237
-0.862693
-0.764079
-0.675486
-0.596131
-0.525182
-0.461733
-0.404903
-0.353917
-0.308095
-0.26682
-0.22951
-0.195634
-0.16473
-0.136407
-0.110306
-0.0860584
-0.0633038
-0.0418787
-0.0207708
0.00699769
-4.10761
-4.19859
-4.28307
-4.36807
-4.15185
-4.24549
-4.33539
-4.4305
-4.18524
-4.3344
-4.12489
-4.36929
-4.19696
-4.27466
-3.95478
-4.24732
-4.18231
-4.34734
-4.00117
-3.98238
-4.13812
-4.3107
-4.21459
-3.94515
-4.05891
-4.23701
-4.31318
-3.87065
-3.94427
-4.12223
-4.27204
-4.08754
-3.79879
-3.97617
-4.12435
-3.98734
-3.62502
-3.8015
-3.96351
-4.08718
-3.42106
-3.59041
-3.75791
-3.90737
-3.18807
-3.33878
-3.49439
-3.64441
-2.93387
-3.05623
-3.1842
-3.31374
-2.66979
-2.75841
-2.84874
-2.93827
-2.40818
-2.46342
-2.51549
-2.56132
-2.15869
-2.18505
-2.20465
-2.21453
-1.92692
-1.93049
-1.92523
-1.90874
-1.71528
-1.70217
-1.67943
-1.64532
-1.52426
-1.49974
-1.46567
-1.4209
-1.35294
-1.32122
-1.28047
-1.23006
-1.19951
-1.16368
-1.11958
-1.06698
-1.06208
-1.02423
-0.979057
-0.926573
-0.93903
-0.900548
-0.855705
-0.80474
-0.828918
-0.790676
-0.747011
-0.698318
-0.730387
-0.692977
-0.651034
-0.605015
-0.642382
-0.60626
-0.566424
-0.523284
-0.564086
-0.529638
-0.492151
-0.451953
-0.494624
-0.462146
-0.427126
-0.389853
-0.432958
-0.402625
-0.370125
-0.335755
-0.378053
-0.349936
-0.319987
-0.288514
-0.329037
-0.303158
-0.275773
-0.24717
-0.285207
-0.261568
-0.236716
-0.21089
-0.245933
-0.224503
-0.202095
-0.178886
-0.210597
-0.191301
-0.171198
-0.150425
-0.178625
-0.16135
-0.143407
-0.124913
-0.149536
-0.13417
-0.118277
-0.101968
-0.122951
-0.109422
-0.0955275
-0.0813774
-0.0985398
-0.0868259
-0.0749402
-0.0629765
-0.0759276
-0.0660336
-0.056221
-0.0465212
-0.0546584
-0.0465677
-0.0389637
-0.0316759
-0.0339966
-0.0275236
-0.0225213
-0.0179974
-0.0101287
-0.00465888
-0.00404055
-0.00368255
0.0250599
0.0282366
0.0186795
0.0120758
-4.45129
-4.46629
-4.44194
-4.40731
1.24112
118.836
1112.11
2172.64
2219.63
2246.31
2244
1829.25
462.673
24.2702
8.27566
4.15759
3.14256
2.93786
2.90658
2.90566
2.90484
2.89848
2.88693
2.87242
2.85717
2.8423
2.82792
2.81407
2.80143
2.79108
2.78375
2.77929
2.7768
2.77519
2.77378
2.77261
2.7724
2.77423
2.77833
2.783
-4.50298
-4.51911
-4.42536
-4.44727
-4.70136
775.157
2172.34
2260.18
2285.87
2302.42
2123.5
968.767
100.771
14.3407
5.66587
3.40069
2.88107
2.79186
2.78999
2.79958
2.80477
2.80317
2.79597
2.78551
2.77387
2.76215
2.75064
2.73962
2.72972
2.72176
2.71621
2.71289
2.71109
2.70999
2.70913
2.70857
2.70894
2.71113
2.71526
2.71979
-4.56019
-4.51143
-4.12663
-0.0775794
104.517
1451.55
2293.47
2324.34
2343.34
2281.27
1473.98
214.294
23.633
8.91771
4.05589
2.90756
2.68156
2.66113
2.67763
2.6942
2.70383
2.70634
2.70332
2.69681
2.68857
2.67976
2.67102
2.66286
2.65577
2.65021
2.64635
2.64401
2.64274
2.64208
2.64178
2.64193
2.64302
2.64571
2.64998
2.65443
-4.62081
-4.42192
-0.403992
62.0651
824.31
1901.2
1727.44
1937.35
1951.02
1466.24
399.279
50.6995
11.9467
5.11445
3.0783
2.59752
2.52623
2.54195
2.5685
2.58954
2.60265
2.60869
2.60934
2.60638
2.60139
2.59557
2.58972
2.5844
2.57994
2.57653
2.57421
2.57285
2.57224
2.57215
2.57248
2.57334
2.57507
2.57818
2.58254
2.58688
-4.66088
-4.87857
58.2557
667.107
1966.32
2010.59
1467.41
576.955
419.493
158.209
41.8733
20.5663
7.07153
3.40207
2.56121
2.39696
2.39858
2.43109
2.46248
2.48623
2.50199
2.5109
2.51461
2.51478
2.51288
2.51009
2.50717
2.50457
2.50248
2.50098
2.50007
2.49975
2.49993
2.50055
2.50158
2.5031
2.50537
2.50877
2.51311
2.51726
-4.63715
-4.98408
426.714
1879.2
2078.97
2077.24
2041.79
573.068
89.2942
40.0092
15.878
7.3898
3.83106
2.56967
2.28254
2.25521
2.28756
2.32658
2.35971
2.38481
2.40231
2.41343
2.41968
2.42264
2.42367
2.4238
2.42367
2.42358
2.42362
2.42384
2.42428
2.42503
2.42611
2.42753
2.42927
2.43141
2.43411
2.43769
2.44192
2.44584
-4.55538
-4.50092
507.74
2126.65
2139.64
2145.21
2135.39
1515.93
174.571
16.2178
7.21843
4.03821
2.61073
2.18855
2.11954
2.14391
2.18641
2.22659
2.25968
2.28516
2.3037
2.31647
2.3249
2.3304
2.33417
2.33705
2.33949
2.34166
2.34361
2.34541
2.34718
2.34905
2.3511
2.35335
2.35579
2.35847
2.36151
2.36517
2.36925
2.3729
-3.62028
-3.80626
64.1
1894.29
2208.61
2197.57
2195.45
2186.08
629.384
10.1355
3.8506
2.60621
2.12452
2.00098
2.00762
2.0471
2.09043
2.12925
2.16139
2.18673
2.20591
2.22005
2.23044
2.23831
2.24465
2.25005
2.2548
2.259
2.2627
2.26601
2.26911
2.27213
2.27518
2.27826
2.28135
2.28449
2.28779
2.29147
2.29534
2.29871
-2.72248
-3.83186
-3.54374
754.834
2236.88
2264.03
2254.59
2247.18
1518.27
68.5556
3.13918
2.07215
1.91027
1.88154
1.91179
1.954
1.99554
2.03254
2.06366
2.0888
2.10857
2.12404
2.13634
2.1465
2.15523
2.16294
2.16979
2.17584
2.18118
2.18597
2.19039
2.19458
2.19862
2.2025
2.20618
2.20971
2.21319
2.21682
2.22046
2.22353
-3.60691
-0.673284
-2.06484
2.57888
1178.81
2293.8
2319.98
2300.55
1578.91
76.0873
2.31023
1.84129
1.76032
1.77093
1.81326
1.85762
1.89848
1.93462
1.96532
1.99065
2.01131
2.02831
2.04263
2.05504
2.06604
2.07587
2.08464
2.09241
2.09933
2.10558
2.11132
2.11668
2.12168
2.1263
2.1305
2.13434
2.13794
2.14149
2.14487
2.14765
-3.99597
-2.25408
1.22941
1.64017
55.7667
907.859
1584.9
1498.78
973.133
109.892
1.66398
1.63486
1.62823
1.658
1.70893
1.75613
1.79788
1.8344
1.86559
1.89183
1.91393
1.93283
1.94934
1.96401
1.97717
1.98898
1.99954
2.00898
2.01745
2.02514
2.0322
2.03868
2.04458
2.04987
2.05452
2.05861
2.06228
2.06572
2.06883
2.07131
-3.75971
-3.69966
-1.49054
1.44331
3.60543
28.6289
133.887
120.566
92.2414
101.272
5.07622
1.59915
1.51818
1.54703
1.60033
1.64967
1.69335
1.73147
1.76423
1.79228
1.81649
1.8377
1.85657
1.8735
1.88875
1.90245
1.91475
1.92581
1.93582
1.94493
1.95325
1.9608
1.96753
1.9734
1.97844
1.98272
1.98643
1.98974
1.99259
1.99478
-3.43251
-3.4684
-2.75077
-0.997966
0.445989
1.56098
6.40366
9.33149
7.89598
11.0855
3.02516
1.34624
1.35502
1.41364
1.47851
1.53518
1.5838
1.62557
1.66138
1.69229
1.71928
1.74317
1.76453
1.78371
1.80098
1.81651
1.83052
1.84319
1.8547
1.8652
1.87471
1.88323
1.89069
1.89708
1.90244
1.90688
1.9106
1.91378
1.91638
1.91831
-3.02288
-3.07344
-2.83367
-1.93507
-1.55646
-1.64815
-0.545202
0.560692
0.940878
0.306722
0.680732
1.00469
1.14634
1.2558
1.34338
1.41283
1.46974
1.51733
1.55767
1.59241
1.62275
1.64958
1.67349
1.6949
1.71413
1.73146
1.74714
1.76139
1.77437
1.78615
1.79676
1.80614
1.81424
1.82106
1.82669
1.83127
1.835
1.83805
1.84041
1.84211
-2.59666
-2.60463
-2.5017
-2.25771
-2.02235
-1.75974
-1.34304
-0.786347
-0.272537
0.0243524
0.449682
0.763793
0.96
1.10219
1.2079
1.28958
1.35512
1.40911
1.45455
1.49351
1.52742
1.55725
1.58371
1.60732
1.62851
1.64761
1.66493
1.68069
1.69503
1.70798
1.71955
1.72967
1.73831
1.74551
1.75137
1.75607
1.7598
1.76272
1.76484
1.76645
-2.20943
-2.17629
-2.0961
-1.95878
-1.76949
-1.51665
-1.17712
-0.765881
-0.347754
0.018319
0.359514
0.627628
0.823712
0.971028
1.0839
1.17279
1.2446
1.30394
1.35395
1.3968
1.434
1.46664
1.49552
1.52125
1.54433
1.56518
1.58408
1.60126
1.61682
1.63081
1.64319
1.65393
1.66303
1.67055
1.67662
1.68143
1.68518
1.68799
1.68986
1.69146
-1.8758
-1.81611
-1.7236
-1.59364
-1.42115
-1.19883
-0.919691
-0.601121
-0.272353
0.0373225
0.313827
0.540803
0.719694
0.861158
0.974161
1.06569
1.14102
1.20401
1.25746
1.30342
1.34337
1.37842
1.40944
1.4371
1.46194
1.48438
1.50473
1.52317
1.53981
1.55468
1.56774
1.579
1.58849
1.59629
1.60256
1.6075
1.61127
1.61401
1.61569
1.61718
-1.59492
-1.52038
-1.41995
-1.28926
-1.12658
-0.930014
-0.700604
-0.448713
-0.19019
0.0586238
0.283752
0.476379
0.636438
0.768664
0.878051
0.969108
1.04559
1.11049
1.16611
1.21424
1.25625
1.29323
1.32603
1.35534
1.38171
1.40553
1.4271
1.44659
1.4641
1.47965
1.49326
1.50494
1.51475
1.52282
1.5293
1.53437
1.5382
1.54089
1.54242
1.54369
-1.36101
-1.27989
-1.17757
-1.05195
-0.902521
-0.729977
-0.53754
-0.332229
-0.123871
0.0774201
0.262967
0.427239
0.569286
0.690829
0.794454
0.88289
0.958656
1.02392
1.0805
1.12986
1.17323
1.21159
1.24575
1.27636
1.30393
1.32883
1.35134
1.37163
1.38978
1.40584
1.41985
1.43186
1.44195
1.45027
1.45695
1.46217
1.46607
1.46873
1.47013
1.47114
-1.16617
-1.08417
-0.985036
-0.867895
-0.733186
-0.58252
-0.419142
-0.24822
-0.0761542
0.0905906
0.24654
0.38812
0.514125
0.624961
0.721843
0.806323
0.880006
0.944408
1.00089
1.05064
1.09468
1.13386
1.1689
1.20039
1.22878
1.25442
1.27757
1.29837
1.31694
1.33333
1.34762
1.35988
1.37021
1.37875
1.38563
1.391
1.39497
1.3976
1.39889
1.39965
-1.00266
-0.92317
-0.829982
-0.72283
-0.602621
-0.471142
-0.331212
-0.186635
-0.0417558
0.0991686
0.232539
0.355882
0.468025
0.568798
0.658668
0.738456
0.809148
0.87177
0.927317
0.976706
1.02076
1.06019
1.0956
1.12752
1.15633
1.18235
1.20581
1.22687
1.24564
1.26222
1.27668
1.28912
1.29964
1.30837
1.31544
1.32095
1.32498
1.32757
1.32875
1.32928
-0.864057
-0.788912
-0.702857
-0.605928
-0.499168
-0.384245
-0.263459
-0.139629
-0.0157955
0.10513
0.220678
0.329043
0.429177
0.520674
0.603599
0.678335
0.745457
0.805637
0.859575
0.907957
0.95142
0.990543
1.02583
1.05772
1.08654
1.1126
1.13608
1.15717
1.17597
1.19258
1.20711
1.21966
1.23033
1.23922
1.24644
1.25206
1.25614
1.25869
1.25977
1.26008
-0.745279
-0.675296
-0.5966
-0.509393
-0.414705
-0.313984
-0.209051
-0.101998
0.00500154
0.109892
0.210902
0.306668
0.396285
0.479266
0.555472
0.625021
0.688215
0.74547
0.79726
0.844083
0.886424
0.924739
0.959439
0.990882
1.01937
1.04514
1.0684
1.0893
1.10796
1.1245
1.13902
1.1516
1.16236
1.17136
1.17868
1.18438
1.18848
1.19098
1.19195
1.19207
-0.642462
-0.577819
-0.506215
-0.427935
-0.343936
-0.255426
-0.163815
-0.0706494
0.022499
0.114143
0.202975
0.287934
0.368245
0.443415
0.513198
0.577554
0.636606
0.690589
0.739814
0.784632
0.825406
0.862489
0.896211
0.926865
0.954705
0.979946
1.00276
1.02331
1.0417
1.05805
1.07246
1.08501
1.09578
1.10483
1.1122
1.11792
1.12201
1.12443
1.1253
1.12524
-0.552931
-0.49349
-0.428517
-0.358328
-0.283769
-0.205811
-0.125523
-0.0440395
0.0374963
0.117987
0.196439
0.272008
0.34403
0.412029
0.475713
0.534951
0.589756
0.640242
0.686604
0.729086
0.767954
0.803478
0.835916
0.865506
0.892459
0.916959
0.939164
0.959211
0.977215
0.99328
1.00749
1.01992
1.03063
1.03964
1.04699
1.05269
1.05671
1.05905
1.0598
1.05958
-0.474963
-0.420471
-0.361627
-0.298735
-0.232504
-0.163686
-0.0930716
-0.0214898
0.0502147
0.121212
0.190727
0.258069
0.322666
0.384076
0.441997
0.496258
0.546806
0.593684
0.637006
0.676937
0.713668
0.747401
0.778334
0.806656
0.832539
0.856138
0.877591
0.897019
0.914528
0.930206
0.944127
0.956343
0.966892
0.975791
0.983046
0.988648
0.992575
0.994792
0.995439
0.995075
-0.407301
-0.357487
-0.304282
-0.247946
-0.189042
-0.128132
-0.0657945
-0.00264304
0.0606813
0.123531
0.185282
0.245361
0.303275
0.35863
0.411139
0.460622
0.506994
0.550256
0.590468
0.627738
0.662196
0.69399
0.723268
0.750176
0.774852
0.797424
0.818009
0.836713
0.853624
0.868816
0.882347
0.894252
0.90455
0.913243
0.920323
0.925769
0.929553
0.931637
0.932172
0.93168
-0.348761
-0.303368
-0.255345
-0.204886
-0.152416
-0.0983531
-0.0431241
0.0128008
0.0689167
0.124702
0.179644
0.233264
0.285144
0.334943
0.382404
0.427356
0.469705
0.509425
0.546542
0.581118
0.61324
0.643009
0.670534
0.695925
0.719291
0.740736
0.760356
0.778237
0.794453
0.809062
0.822102
0.833596
0.843547
0.851945
0.858773
0.864004
0.867605
0.869539
0.869963
0.869361
-0.298133
-0.25693
-0.213671
-0.168479
-0.121676
-0.0735732
-0.0245028
0.0251584
0.0749984
0.124587
0.173501
0.221341
0.267761
0.312472
0.355253
0.395951
0.434473
0.470777
0.504865
0.536767
0.566535
0.594236
0.619948
0.64375
0.665728
0.685963
0.704531
0.721501
0.736931
0.750859
0.763312
0.774298
0.78381
0.791831
0.798336
0.803299
0.806684
0.808454
0.80877
0.808077
-0.254283
-0.217041
-0.178158
-0.1377
-0.0959149
-0.053051
-0.00938237
0.0347765
0.0790812
0.123174
0.166703
0.209343
0.250808
0.290861
0.329317
0.366041
0.400946
0.433982
0.465133
0.494406
0.521831
0.547448
0.571309
0.593473
0.614002
0.632958
0.650401
0.66638
0.680937
0.694097
0.705872
0.716262
0.725253
0.732823
0.738946
0.743597
0.746738
0.748334
0.748546
0.74778
-0.216211
-0.182681
-0.147803
-0.111608
-0.0743022
-0.0360982
0.00276717
0.0420246
0.0813827
0.120544
0.159221
0.197149
0.234099
0.269877
0.304329
0.33734
0.368829
0.398743
0.427056
0.453761
0.478869
0.502402
0.524395
0.544887
0.563922
0.581546
0.5978
0.612719
0.626328
0.63864
0.64966
0.659378
0.667778
0.674838
0.680531
0.684834
0.687712
0.68913
0.689245
0.688423
-0.183024
-0.152929
-0.121704
-0.089367
-0.0561013
-0.0220996
0.0124296
0.0472547
0.0821306
0.116814
0.151072
0.184695
0.217499
0.249328
0.280056
0.309585
0.33784
0.364771
0.390345
0.414547
0.437376
0.458843
0.478964
0.497767
0.515278
0.531529
0.546544
0.560344
0.572942
0.584343
0.594542
0.603528
0.611283
0.617786
0.623015
0.626946
0.629549
0.630787
0.630812
0.629951
-0.153892
-0.126958
-0.099078
-0.0702717
-0.040708
-0.0105616
0.0199853
0.0507366
0.0814918
0.112056
0.142245
0.171894
0.200859
0.229014
0.256258
0.282506
0.307693
0.331771
0.354707
0.37648
0.397081
0.416508
0.43477
0.451879
0.46785
0.482697
0.496435
0.509072
0.520611
0.53105
0.540381
0.548591
0.555663
0.561579
0.566319
0.569865
0.572186
0.573249
0.573193
0.572307
-0.128093
-0.104093
-0.0793237
-0.0538106
-0.0277068
-0.0011654
0.02566
0.0526104
0.0795273
0.106259
0.132664
0.158614
0.183997
0.208715
0.232684
0.255834
0.278108
0.299463
0.319864
0.339288
0.357718
0.375147
0.391572
0.406994
0.421417
0.434845
0.44728
0.458722
0.469168
0.478611
0.487042
0.494447
0.500813
0.506124
0.510365
0.513521
0.515562
0.516453
0.516326
0.515431
-0.105093
-0.0838763
-0.0620692
-0.0396963
-0.0168894
0.00622529
0.0295264
0.0528917
0.0762014
0.099341
0.122204
0.144694
0.166723
0.188215
0.209103
0.229327
0.248839
0.267597
0.285569
0.302727
0.319052
0.334528
0.349144
0.362894
0.375771
0.387771
0.398888
0.409117
0.418449
0.426877
0.43439
0.440978
0.446629
0.451331
0.455073
0.45784
0.459606
0.460335
0.460148
0.459256
-0.0845821
-0.0660743
-0.0471499
-0.027824
-0.00820012
0.0116263
0.0315671
0.0515344
0.0714414
0.0912048
0.110746
0.129993
0.14888
0.167345
0.185333
0.202795
0.219688
0.235973
0.251617
0.266593
0.280874
0.294443
0.307281
0.319376
0.330714
0.341285
0.351079
0.360087
0.368298
0.375704
0.382297
0.388067
0.393006
0.397105
0.400355
0.402743
0.404245
0.404823
0.404586
0.403711
-0.0664088
-0.0505883
-0.0345077
-0.0181638
-0.0016281
0.0150359
0.0317708
0.0485173
0.0652158
0.0818073
0.0982349
0.114444
0.130384
0.146005
0.161262
0.176112
0.190517
0.20444
0.217848
0.230713
0.243008
0.25471
0.265799
0.276255
0.286063
0.29521
0.303683
0.31147
0.318563
0.324953
0.330632
0.335595
0.339836
0.343347
0.346121
0.348146
0.349397
0.349838
0.349562
0.348716
-0.0504507
-0.0373244
-0.0240649
-0.010645
0.00289673
0.0165253
0.0302081
0.043908
0.0575849
0.0711975
0.0847038
0.0980619
0.111231
0.12417
0.136842
0.149208
0.161235
0.172887
0.184135
0.194948
0.205301
0.215168
0.224528
0.233361
0.24165
0.249379
0.256538
0.263114
0.269099
0.274486
0.279269
0.283445
0.287008
0.289952
0.292272
0.293954
0.294974
0.295292
0.294991
0.294187
-0.0365015
-0.0260984
-0.0156461
-0.00509281
0.00555114
0.016272
0.0270533
0.037872
0.0487004
0.0595078
0.0702614
0.0809278
0.0914731
0.101864
0.112067
0.122051
0.131783
0.141234
0.150374
0.159177
0.167618
0.175672
0.183319
0.19054
0.197318
0.203641
0.209496
0.214874
0.219768
0.224171
0.228081
0.231494
0.234405
0.236811
0.238702
0.240067
0.240878
0.241094
0.240781
0.240034
-0.0242752
-0.016648
-0.00899572
-0.00125119
0.00659199
0.0145295
0.0225508
0.0306383
0.0387694
0.0469184
0.0550579
0.0631599
0.0711963
0.0791389
0.0869599
0.0946317
0.102128
0.109422
0.11649
0.123308
0.129855
0.136108
0.142051
0.147668
0.152944
0.157869
0.162433
0.166627
0.170448
0.173889
0.176949
0.179625
0.181913
0.183808
0.185302
0.18638
0.187011
0.187151
0.186848
0.18618
-0.0134023
-0.00864287
-0.00380842
0.00116929
0.00629472
0.0115562
0.016937
0.0224158
0.0279691
0.0335721
0.0392004
0.04483
0.0504372
0.0559992
0.0614934
0.0668982
0.0721926
0.0773566
0.0823709
0.0872173
0.0918784
0.0963388
0.100585
0.104604
0.108386
0.111924
0.115209
0.118236
0.121002
0.123503
0.125738
0.127705
0.129399
0.130815
0.131944
0.132767
0.133253
0.133348
0.13308
0.132523
-0.0025932
-0.00113728
0.000610191
0.00267201
0.00501179
0.00757951
0.0103307
0.0132269
0.016235
0.0193263
0.0224759
0.025662
0.0288648
0.0320665
0.0352503
0.0384009
0.0415038
0.0445456
0.0475135
0.0503955
0.0531804
0.0558585
0.058421
0.0608606
0.0631711
0.0653473
0.0673849
0.0692807
0.0710326
0.0726392
0.0740995
0.0754119
0.0765736
0.0775796
0.078421
0.079082
0.0795276
0.0796892
0.0795422
0.07918
0.00811296
0.00569545
0.00421472
0.00336322
0.00297429
0.00292427
0.00312384
0.00351005
0.0040379
0.00467447
0.00539514
0.00618104
0.00701723
0.00789159
0.00879398
0.00971579
0.0106495
0.0115882
0.0125258
0.0134565
0.0143752
0.0152773
0.0161589
0.0170164
0.0178468
0.0186478
0.0194172
0.0201537
0.0208565
0.0215254
0.0221603
0.0227614
0.0233285
0.0238606
0.024355
0.0248055
0.0251932
0.0254644
0.0255462
0.0254392
)
;

boundaryField
{
    leftWall
    {
        type            fixedFluxPressure;
        gradient        nonuniform 0();
        value           nonuniform 0();
    }
    rightWall
    {
        type            fixedFluxPressure;
        gradient        uniform 0;
        value           nonuniform List<scalar> 
43
(
2.783
2.71979
2.65443
2.58688
2.51726
2.44584
2.3729
2.29871
2.22353
2.14765
2.07131
1.99478
1.91831
1.84211
1.76645
1.69146
1.61718
1.54369
1.47114
1.39965
1.32928
1.26008
1.19207
1.12524
1.05958
0.995075
0.93168
0.869361
0.808077
0.74778
0.688423
0.629951
0.572307
0.515431
0.459256
0.403711
0.348716
0.294187
0.240034
0.18618
0.132523
0.07918
0.0254392
)
;
    }
    lowerWall
    {
        type            fixedFluxPressure;
        gradient        nonuniform 0();
        value           nonuniform 0();
    }
    atmosphere
    {
        type            totalPressure;
        rho             rho;
        psi             none;
        gamma           1;
        p0              uniform 0;
        value           nonuniform List<scalar> 
45
(
-0.000328768
-8.5338e-05
0
0
0
0
0
0
0
0
0
0
0
0
0
0
0
0
0
0
0
0
0
0
0
0
0
0
0
0
0
0
0
0
0
0
0
0
0
0
0
0
0
0
0
)
;
    }
    defaultFaces
    {
        type            empty;
    }
    procBoundary3to1
    {
        type            processor;
        value           nonuniform List<scalar> 
45
(
-3.90624
-4.0553
-4.18195
-4.28456
-4.35752
-4.40387
-4.42061
-4.4075
-4.35555
-3.23116
10.7192
198.801
1458.74
2164.91
2194.24
2210.19
2123.15
1074.12
85.5539
11.5467
5.20617
3.48876
3.10231
3.02724
3.01212
3.00389
2.99209
2.97596
2.95729
2.93814
2.9197
2.90216
2.88554
2.87046
2.85798
2.84887
2.84299
2.83943
2.83703
2.83505
2.83348
2.83303
2.83482
2.83904
2.84389
)
;
    }
    procBoundary3to2
    {
        type            processor;
        value           nonuniform List<scalar> 
43
(
-3.77517
-3.80021
-3.81266
-3.8077
-3.78111
-3.73008
-3.65235
-3.54787
-3.41864
-3.26695
-3.09492
-2.90599
-2.70519
-2.49855
-2.29219
-2.09115
-1.89904
-1.71812
-1.54957
-1.39374
-1.25053
-1.11954
-1.00023
-0.891928
-0.793894
-0.705356
-0.62552
-0.553578
-0.488752
-0.430333
-0.377661
-0.330107
-0.287061
-0.247966
-0.212331
-0.179722
-0.149748
-0.122046
-0.0962649
-0.0721119
-0.0497174
-0.0294093
-0.00438003
)
;
    }
}


// ************************************************************************* //
