/*--------------------------------*- C++ -*----------------------------------*\
  =========                 |
  \\      /  F ield         | OpenFOAM: The Open Source CFD Toolbox
   \\    /   O peration     | Website:  https://openfoam.org
    \\  /    A nd           | Version:  7
     \\/     M anipulation  |
\*---------------------------------------------------------------------------*/
FoamFile
{
    version     2.0;
    format      ascii;
    class       volScalarField;
    location    "0.00288";
    object      linearKE;
}
// * * * * * * * * * * * * * * * * * * * * * * * * * * * * * * * * * * * * * //

dimensions      [1 -1 -2 0 0 0 0];

internalField   nonuniform List<scalar> 
500
(
1730.23
1862.41
1759.66
1863.3
1601.93
1825.03
1579.06
1722.25
2087.92
1622.52
1693.49
1738.23
1657.98
1736.02
1703
1589.57
1701.62
1630.51
1517.02
1451.71
1609.15
1577.17
1442.8
1614.15
1438.24
1628.95
1723.4
1710.22
1534.11
1927.24
1754.18
1638.14
2000.19
1701.32
1667.26
2057.21
1632.29
1675.56
1884.68
1768.82
1529.31
1645.26
1795.69
1809.83
1672.9
1647.99
1718.72
1506.63
1651.42
1940.1
1717.18
1992.43
1662.24
1735.31
1869.31
1683.66
1713.92
1426.91
1701.67
1741.77
1729.51
1676.63
1563.24
1803
1740.22
1579.92
1723.86
1583.5
1776.75
1725.8
1771.51
1749.03
1563.11
1724.53
1639.89
1566.53
1785.75
1560.77
1595.53
1838.79
1646.22
1548.75
1580.14
1773.54
1728.41
1893.03
1814.06
1519.74
1788.57
1791.7
1770.52
1435.33
1608.01
1680.53
1817.25
1604.5
1593.59
1665.37
1626.23
1667.8
1634.2
1765.45
1572.5
1773.26
1700.75
1459.56
1577.94
1926.05
1723
1691.91
1600.78
1741.75
1487.35
1529.53
1628.88
1750.08
1603.84
1406.43
1716.68
1526.37
1718.22
1667.77
1471.32
1874.01
1595.46
1630.85
1625.04
1868.93
1521.25
1556.01
1496.74
1712.1
1473.54
1483.38
1395.49
1590.74
1538.21
1407.34
1417.33
1391.81
1476.16
1371.18
1485.76
1325.4
1549.86
1471.21
1202.12
1550.16
1518.08
1169.18
1554.8
1477.31
1508.11
1325.33
1539.86
1124.33
1126.61
1202.29
1147.21
1295.59
1215.44
1180.53
1272.16
1236.12
1150.74
1274.34
1157.3
1124.47
1323.41
1068.47
1438.1
1314.46
1014.42
1093.18
1166.2
880.86
1107.22
1050.25
1044.54
1239.85
1192.08
1045.16
932.935
1269.21
1113.48
942.647
937.575
1339.03
1181.16
1070.18
877.106
1023.57
997.375
853.233
974.424
941.499
927.21
741.905
967.105
950.394
989.868
996.044
827.809
931.942
987.527
939.035
810.195
858.51
951.579
959.999
885.728
742.64
827.462
875.53
882.803
881.849
751.641
689.41
927.864
873.793
796.635
884.484
889.083
868.999
715.159
664.735
767.743
792.921
738.218
746.175
666.631
890.051
710.762
894.387
833.546
784.915
946.139
889.22
636.393
876.496
670.066
955.879
984.661
670.923
940.121
860.722
713.533
673.91
910.74
873.579
833.47
815.618
949.094
966.142
786.708
654.209
764.846
881.405
659.372
913.342
791.025
708.666
918.307
902.16
698.524
832.837
743.619
772.519
834.083
828.192
919.276
817.872
794.144
695.207
695.429
815.094
873.045
642.336
923.378
781.471
621.672
787.37
788.767
774.225
739.184
793.155
794.469
735.296
858.003
780.988
684.267
895.363
950.998
793.115
820.128
731.198
978.829
817.451
879.226
676.189
815.656
674.848
712.707
913.786
704.162
786.242
932.294
866.168
881.908
844.93
758.369
701.236
828.01
898.077
852.982
788.936
829.395
883.866
786.404
805.336
760.051
850.473
748.848
916.914
841.594
760.314
745.267
890.652
772.758
762.625
815.974
940.236
884.822
950.892
735.467
891.743
892.706
967.655
912.85
947.057
892.782
933.484
745.968
849.906
727.135
793.917
876.317
1037.15
841.512
942.136
944.495
852.573
940.578
1000.71
963.941
870.321
993.421
776.889
821.746
846.416
908.233
917.594
760.156
929.999
1021.38
827.361
813.55
682.508
839.301
833.408
974.58
817.171
861.036
675.689
807.339
869.916
835.068
872.078
928.054
863.01
850.15
798.034
860.199
845.964
922.273
555.508
182.451
128.395
174.305
174.142
198.481
167.763
128.09
157.504
179.396
156.626
154.469
139.64
164.392
137.36
154.476
182.485
183.755
150.248
170.713
151.34
135.546
113.405
129.786
198.011
148.744
181.55
136.037
192.938
180.747
189.112
138.467
188.593
149.481
147.327
134.039
153.826
203.073
153.113
178.404
171.444
158.024
208.198
145.738
167.713
176.376
159.379
221.569
161.48
169.124
145.523
164.982
148.23
187.509
215.589
157.592
123.726
126.497
195.316
223.423
169.166
123.397
154.015
186.778
198.518
203.043
117.183
161.288
198.079
158.385
164.592
139.988
203.385
172.898
131.812
143.925
173.332
155.201
169.015
193.178
175.743
164.457
181.776
156.694
140.071
188.845
168.066
130.827
142.267
187.692
172.512
130.539
167.922
200.529
177.001
105.399
116.425
158.25
195.312
231.381
164.359
207.336
157.802
213.061
164.227
164.763
173.838
149.806
193.685
172.94
155.243
145.285
129.565
214.911
176.886
)
;

boundaryField
{
    sides
    {
        type            symmetry;
    }
    empty
    {
        type            empty;
    }
}


// ************************************************************************* //
