/*--------------------------------*- C++ -*----------------------------------*\
  =========                 |
  \\      /  F ield         | OpenFOAM: The Open Source CFD Toolbox
   \\    /   O peration     | Website:  https://openfoam.org
    \\  /    A nd           | Version:  7
     \\/     M anipulation  |
\*---------------------------------------------------------------------------*/
FoamFile
{
    version     2.0;
    format      ascii;
    class       vectorField;
    location    "0.00252/lagrangian/dsmc";
    object      U;
}
// * * * * * * * * * * * * * * * * * * * * * * * * * * * * * * * * * * * * * //


81998
(
(847.091 162.153 -138.089)
(-761.773 62.6344 -601.275)
(390.257 2.31282 -393.704)
(824.759 517.863 29.6064)
(-764.537 152.863 67.1756)
(-292.833 341.798 -1156.94)
(803.354 -21.4512 -737.952)
(-274.387 396.628 110.644)
(-479.163 201.942 -1013.84)
(-577.993 43.5668 22.0874)
(-656.029 360.569 -452.877)
(351.559 -439.936 -520.104)
(-108.675 -458.241 -477.725)
(71.0334 -236.884 -337.32)
(-486.233 12.2377 -159.514)
(-622.696 658.778 510.847)
(-114.925 -476.306 -474.277)
(308.89 -287.097 -221.996)
(314.303 658.597 831.776)
(21.77 -1066.38 -1527.25)
(319.24 -860.756 1295.52)
(183.471 -560.448 228.637)
(187.736 32.9798 277.373)
(1014.09 -1233.86 43.1124)
(-514.071 -244.386 401.726)
(-306.878 -656.104 -470.916)
(11.4646 -650.893 -492.884)
(-775.475 878.07 -409.453)
(395.496 -179.77 -490.428)
(274.801 812.31 197.37)
(-741.142 -482.118 -7.06943)
(-194.975 524.147 42.1284)
(644.291 433.189 -996.204)
(157.218 691.11 -704.944)
(418.193 -461.044 305.083)
(243.191 -151.658 -220.152)
(79.4803 -547.4 664.227)
(730.475 -206.761 -26.0104)
(-317.93 -535.649 -372.877)
(-88.2923 -25.2314 633.149)
(-158.68 9.24428 46.8905)
(74.8342 943.392 436.759)
(349.718 -116.97 300.994)
(62.2856 32.549 620.582)
(-105.97 972.578 -624.746)
(-286.804 717.232 -952.75)
(620.739 -210.634 146.399)
(-417.361 -70.1118 414.843)
(-75.8248 234.927 -395.575)
(59.7066 -511.752 -39.9766)
(402.387 -204.299 874.539)
(245.395 -506.742 287.799)
(-1662.35 -247.718 420.368)
(-1047.04 -143.108 362.751)
(-8.84768 -273.451 -580.607)
(80.0659 -43.5875 825.067)
(-9.55331 1027.75 485.649)
(-753.96 -63.433 -555.282)
(-1323.59 -438.243 432.786)
(-817.277 527.379 -286.252)
(1223.56 136.463 375.751)
(674.761 874.631 343.866)
(-655.639 -81.8783 14.4635)
(-605.718 -203.702 -407.77)
(-127.134 -72.1749 80.6387)
(-46.6038 -398.323 -57.9529)
(-106.493 369.084 956.898)
(13.2393 -469.38 -727.563)
(260.669 -375.135 1164.12)
(-53.1427 -175.064 -93.3363)
(618.418 275.055 18.8078)
(-516.326 -516.28 -674.36)
(873.55 -188.453 488.205)
(-110.32 -328.914 400.814)
(-278.497 644.865 -430.654)
(266.764 -41.5612 568.239)
(53.4315 671.186 -171.41)
(-212.883 101.906 535.213)
(-768.409 148.645 535.043)
(689.751 456.266 576.27)
(-655.778 -206.178 -513.795)
(-777.912 539.835 -757.416)
(-1202.77 91.7716 476.651)
(-345.028 -130.933 -588.486)
(55.1481 65.8347 815.272)
(864.849 161.24 699.952)
(372.561 -257.268 15.1324)
(373.535 952.3 -172.64)
(-657.123 -173.28 237.448)
(456.911 -698.247 -351.19)
(-152.472 909.376 -83.8829)
(-405.445 669.308 312.692)
(77.7839 -364.603 -500.812)
(559.278 247.46 -10.8413)
(584.734 562.433 66.0292)
(-84.3269 -510.052 -301.952)
(623.837 -749.393 -1092.38)
(-95.9575 539.194 -658.12)
(-733.331 -59.0745 -329.693)
(-233.993 -254.225 417.873)
(266.221 -494.455 443.588)
(380.083 524.382 228.887)
(-212.367 461.271 156.032)
(-88.544 524.978 72.9551)
(-260.196 -123.4 383.705)
(-336.07 -182.332 563.483)
(310.425 -934.355 -1112.1)
(-596.051 187.69 926.737)
(80.2298 387.547 -384.565)
(423.664 -733.683 -582.423)
(-495.174 812.389 -757.926)
(1170.1 77.0108 -791.715)
(179.998 573.859 -147.165)
(237.183 -545.965 -32.9204)
(361.491 -1569.87 277.667)
(-687.14 -310.193 -347.615)
(292.207 -501.418 259.572)
(-522.805 -746.321 -203.99)
(294.58 285.499 57.7839)
(-199.889 -641.364 303.395)
(625.039 -175.146 -366.455)
(-27.5732 12.3402 -472.071)
(-415.259 -540.326 120.79)
(-299.217 -704.166 23.0265)
(1100.45 225.128 -742.707)
(261.5 -68.3443 -6.77377)
(1180.71 232.999 297.315)
(507.603 -633.817 -202.279)
(-25.6932 -950.313 -179.115)
(623.191 228.312 -637.169)
(-268.929 -478.584 -312.789)
(-482.226 139.396 -164.954)
(611.867 -1206.12 -494.279)
(689.529 -286.278 -802.094)
(702.977 -157.537 -263.387)
(204.63 -552.384 -383.513)
(-794.023 -7.04293 -603.504)
(722.334 -727.517 -496.674)
(52.1543 -342.044 -468.498)
(344.829 -996.266 178.257)
(154.489 -526.826 -7.78558)
(70.9448 -776.562 154.969)
(-873.972 228.715 -238.222)
(532.739 -528.773 -1052.22)
(916.696 47.2929 607.497)
(-212.683 -893.993 -168.288)
(-857.98 -68.127 -603.159)
(-480.299 -800.906 -178.453)
(-152.163 109.89 -604.346)
(430.62 -111.838 192.07)
(326.595 -218.365 1026.16)
(299.942 -98.2933 -1302.69)
(-745.751 -9.73604 550.626)
(-293.298 377.984 -333.968)
(394.607 -314.393 494.636)
(-486.329 -12.9824 246.152)
(-252.719 330.422 383.364)
(747.248 309.639 755.019)
(-5.73689 -411.036 216.876)
(-279.062 450.501 -227.138)
(-244.561 -284.765 -289.058)
(690.58 -173.837 -169.599)
(-412.854 -321.188 20.5112)
(167.2 -317.299 -1128.04)
(-427.44 314.356 128.379)
(-356.532 -415.857 462.169)
(-382.137 270.879 189.458)
(792.387 215.749 66.9259)
(-188.663 547.618 -450.961)
(1339.54 733.612 -126.109)
(-189.801 1046.88 -48.609)
(-397.906 -885.732 522.864)
(562.347 857.241 164.116)
(-653.055 -372.935 -549.325)
(109.383 76.8077 -322.092)
(-760.586 -297.705 291.174)
(-517.704 -188.875 398.655)
(-104.166 -481.759 451.077)
(8.37735 -635.618 -192.243)
(481.029 548.096 -110.631)
(-265.313 14.2451 -67.6418)
(548.802 614.144 -416.309)
(57.1624 -913.953 -620.881)
(452.712 241.927 973.697)
(174.105 117.837 -191.292)
(-598.764 652.46 732.471)
(33.3976 599.401 228.003)
(188.919 -815.326 -326.358)
(-373.156 741.46 174.685)
(399.142 -556.229 -52.7623)
(-9.12815 -13.3136 -421.3)
(418.214 157.989 237.435)
(-253.695 -753.568 1029.04)
(274.108 197.297 -745.611)
(375.352 -630.349 -371.748)
(-45.2806 -108.01 -813.97)
(-59.6148 -1005.89 659.649)
(-107.13 137.337 12.1535)
(-219.369 188.125 52.3015)
(310.941 -249.444 228.857)
(821.872 -634.175 -207.764)
(443.988 574.481 68.1555)
(-739.502 477.67 180.504)
(-763.18 422.276 120.24)
(-938.282 313.222 142.838)
(341.003 318.733 -20.4011)
(-544.278 337.055 290.456)
(485.438 -886.549 374.136)
(179.351 154.598 842.523)
(178.878 342.297 179.445)
(-60.0661 721.238 211.195)
(15.2159 649.77 229.946)
(-859.628 84.9264 -490.34)
(570.241 -977.565 2.59028)
(-72.1796 -725.702 -472.107)
(-1159.51 -222.603 352.325)
(-477.799 23.7075 -123.951)
(-243.432 658.471 -1078.53)
(-593.849 11.2342 -207.105)
(-314.618 -68.7502 -242.417)
(-293.341 -739.952 28.7602)
(-66.8444 692.067 -287.429)
(-23.3157 -54.3644 467.872)
(202.251 141.693 -407.203)
(-94.5098 48.7395 -434.717)
(501.621 259.552 -418.856)
(451.714 -1267.96 -376.08)
(-567.751 -521.659 -87.9707)
(151.724 216.753 692.889)
(279.772 -150.13 512.913)
(375.271 -52.4639 434.834)
(-892.402 649.861 -184.579)
(-627.367 -293.621 -3.88447)
(-474.379 -796.66 -24.935)
(68.1855 -40.5141 -61.8269)
(36.6885 211.113 -826.929)
(-121.583 310.136 -118.513)
(-501.048 -503.102 -12.5812)
(-183.947 356.084 -9.05947)
(-120.519 991.817 -455.049)
(66.4663 -154.062 -819.344)
(15.8739 -908.383 -35.9114)
(-635.803 89.1253 -284.608)
(427.308 -1169.14 -11.1774)
(-913.774 -449.033 480.21)
(-14.3786 -175.793 270.129)
(313.51 274.858 981.468)
(630.793 -351.011 202.328)
(-310.807 -383.78 -712.103)
(453.125 -210.486 -1481.65)
(38.9052 80.4068 -43.9294)
(732.148 -14.6588 -927.563)
(-55.4357 100.946 384.963)
(-730.898 -81.044 -250.188)
(343.061 -235.09 178.548)
(-250.621 298.886 1151.59)
(428.161 515.227 -177.353)
(674.806 111.333 -1068.57)
(-215.42 37.7245 -295.619)
(-676.292 -680.175 49.5033)
(-599.459 588.463 13.0688)
(-66.0356 185.873 -374.609)
(794.173 172.93 -245.289)
(-307.773 522.356 368.102)
(220.95 -667.454 -264.593)
(15.3821 -376.556 -530.473)
(98.688 -773.835 -116.625)
(525.358 -307.069 46.1995)
(20.1108 202.137 -425.224)
(-779.367 -545.789 882.473)
(-573.309 -211.313 -284.782)
(-620.835 837.533 609.39)
(105.081 471.787 -95.6598)
(-627.613 277.362 -255.695)
(397.718 -713.233 555.674)
(881.062 -70.2419 -1004.29)
(-653.806 -834.802 -232.017)
(-336.476 537.482 -43.613)
(70.217 -934.54 256.703)
(1010.18 -126.061 67.3172)
(-141.698 -464.203 -857.86)
(505.633 -498.052 421.525)
(-42.4447 -718.511 -592.216)
(-397.675 520.096 703.628)
(-304.028 -1148.88 -41.3474)
(-281.975 449.128 743.213)
(365.505 -912.058 400.744)
(-4.75067 518.508 347.898)
(-1929.05 -643.945 169.37)
(552.927 -1029.65 -1271.18)
(-124.093 -772.852 828.358)
(-846.469 -690.054 52.1924)
(504.144 635.793 495.904)
(1442.3 -372.144 342.498)
(1253.96 -288.538 174.675)
(73.1837 -174.397 196.391)
(178.485 -133.547 954.752)
(800.929 -133.782 -443.869)
(-383.88 -19.5142 68.2212)
(672.918 -552.891 284.657)
(832.544 -941.891 235.913)
(393.958 167.391 386.03)
(-460.697 545.378 412.457)
(416.489 -13.2226 368.008)
(-198.945 -197.29 -390.046)
(-558.901 -235.006 -225.927)
(530.483 463.624 -303.459)
(-336.884 -1202.37 499.093)
(214.461 610.004 497.331)
(1033.89 -182.901 -207.537)
(-138.868 196.682 -477.599)
(-747.846 107.461 368.865)
(-543.813 -383.359 817.78)
(253.047 649.336 -1193.02)
(-63.7745 -917.313 1236.01)
(630.845 -63.1201 -686.549)
(-669.043 -2049.38 -930)
(-573.262 1.15698 497.177)
(269.131 256.84 150.644)
(506.121 -766.763 220.56)
(441.333 -100.047 -123.751)
(-252.691 291.976 602.908)
(-700.368 462.596 279.624)
(-445.26 881.338 -99.0438)
(-351.551 -200.204 456.584)
(-828.621 -117.52 16.6806)
(77.9825 -350.268 207.035)
(-806.124 -243.179 -776.767)
(-222.736 -311.361 -621.823)
(804.308 102.083 628.345)
(542.475 12.3571 -1698.51)
(-113.995 470.777 -527.709)
(75.9781 -116.161 -103.664)
(-166.513 -331.311 -199.7)
(-385.424 -281.57 -471.37)
(-578.102 -1000.18 658.121)
(11.0033 519.925 1390.95)
(-483.701 1271.48 1298.2)
(613.573 339.746 -356.538)
(64.9836 97.2284 773.367)
(400.975 -66.6427 207.076)
(-250.936 1064.33 -316.833)
(-638.54 484.255 43.1432)
(-1300.71 -89.284 53.6126)
(-648.78 -449.607 606.67)
(110.11 1010.09 263.465)
(321.291 703.751 459.723)
(-109.786 -3.2083 250.338)
(-45.8536 960.78 -409.116)
(-189.839 596.038 -319.787)
(-155.418 -211.376 930.971)
(-89.6111 507.367 385.538)
(-219.002 -328.48 85.6585)
(414.914 193.68 -1056.32)
(-11.0095 -166.781 -432.393)
(-267.619 277.667 1314.27)
(-18.7223 28.2307 200.966)
(113.256 -134.649 -1206.44)
(-290.662 -255.88 543.033)
(16.409 -710.915 -183.432)
(83.4989 -1031.91 -642.321)
(173.114 -515.063 181.823)
(230.42 -237.588 1089.4)
(491.977 -446.358 13.1355)
(52.1862 -348.39 -128.863)
(315.403 -345.552 193.175)
(-502.631 -270.64 -487.429)
(319.914 752.111 665.91)
(-27.0505 435.334 252.878)
(584.406 -135.419 383.858)
(-404.476 833.63 622.787)
(-258.033 343.818 -753.077)
(397.98 -666.514 94.4775)
(-109.932 -1157.03 178.36)
(-287.019 479.548 507.334)
(290.912 -209.758 -133.724)
(-435.925 192.669 -686.597)
(116.972 176.3 -711.418)
(-30.6271 170.106 484.231)
(768.603 764.599 -52.2459)
(-397.006 -448.548 -100.853)
(180.239 -624.318 337.501)
(-268.639 425.384 -586.356)
(-47.772 -531.139 644.089)
(-101.801 -72.131 -810.772)
(-423.001 -518.984 7.58908)
(-872.928 553.045 320.71)
(413.158 -658.15 -67.6927)
(-48.0919 14.7317 -68.7537)
(-250.633 -55.1584 -572.544)
(19.9926 -218.682 340.477)
(287.099 -6.41877 336.104)
(306.507 -622.896 -54.1857)
(-727.057 -880.048 -3.24919)
(-697.163 368.964 -990.716)
(-428.438 720.508 -810.513)
(650.643 496.896 -88.3568)
(331.819 -102.334 193.251)
(930.416 585.111 162.633)
(389.937 655.21 525.818)
(-904.708 829.829 1386.03)
(902.326 203.373 -118.628)
(-599.748 -66.5505 196.092)
(436.97 -462.574 -289.857)
(-650.212 -43.7244 646.473)
(721.009 -495.093 -6.52401)
(-430.363 -63.6865 907.213)
(-215.024 -427.382 233.664)
(699.784 -16.853 -375.595)
(967.536 -663.188 -71.1572)
(-530.891 -49.6783 520.918)
(-380.034 -262.898 847.199)
(570.557 -600.223 -393.991)
(-409.137 -302.013 -538.404)
(334.413 316.759 64.8304)
(-913.43 -107.961 368.46)
(-132.386 68.7091 -75.9281)
(-306.101 -94.8715 -374.401)
(-288.704 -577.182 -941.495)
(686.187 151.402 808.506)
(456.645 -69.8903 -215.364)
(36.0172 445.878 140.789)
(-693.153 -30.859 215.822)
(-151.784 24.2753 97.853)
(-578.077 298.445 -280.955)
(-430.376 229.062 -534.95)
(-726.977 1280.71 -310.683)
(18.4627 413.359 180.444)
(274.092 -23.8462 521.413)
(-110.153 -48.571 457.519)
(-549.918 -457.622 -583.589)
(405.595 -772.542 584.392)
(428.577 192.428 -545.456)
(-792.682 -315.238 -19.8131)
(61.8615 108.174 191.215)
(985.323 -950.147 231.04)
(479.409 -1082.37 -543.5)
(-267.158 586.653 -307.868)
(-336.831 1356.23 970.054)
(352.216 1167 349.9)
(-667.147 -491.929 253.24)
(-185.555 202.177 78.5924)
(842.243 -933.814 -290.662)
(-33.8311 -667.018 -126.591)
(-273.775 129.031 386.292)
(-127.777 436.943 120.56)
(153.217 -684.681 -360.858)
(-209.692 30.3579 421.467)
(892.027 117.692 -117.694)
(-1332.03 -344.277 245.322)
(534.266 -165.65 710.014)
(178.816 -880.126 -389.89)
(-686.231 -437.193 -32.9932)
(214.109 -389.893 429.157)
(1002.21 554.801 -567.97)
(-405.479 -196.666 689.735)
(-550.572 310.164 960.779)
(488.781 -696.707 372.803)
(-461.06 353.765 68.6802)
(17.7425 -120.173 526.772)
(-848.244 679.836 284.14)
(302.901 117.185 24.1334)
(-915.297 -1072.3 695.361)
(-7.42598 -404.156 361.821)
(405.892 100.013 -72.632)
(1270.9 -18.3074 645.701)
(-223.932 544.895 335.082)
(-197.398 24.4161 977.287)
(-277.855 170.842 -273.167)
(151.287 -63.9417 -437.27)
(632.772 -957.514 570.321)
(924.641 55.7294 -62.818)
(44.4597 680.456 76.3661)
(-310.311 -308.454 -193.109)
(990.047 -190.252 -107.111)
(-9.892 460.119 -35.7119)
(-552.371 -7.26802 -8.93842)
(617.742 65.2701 364.133)
(-216.004 -762.919 -265.959)
(-393.19 -254.695 749.191)
(640.502 554.28 354.625)
(412.943 224.767 -101.422)
(-632.22 -54.0429 109.487)
(-511.276 -380.545 181.577)
(949.209 209.803 1319.62)
(-1043.08 155.107 215.856)
(122.035 -214.126 -153.518)
(-421.002 -95.2024 473.322)
(576.532 -331.501 107.024)
(-887.859 689.821 -92.4976)
(364.12 697.037 -155.755)
(115.221 35.712 843.313)
(434.46 8.79212 -177.189)
(-346.896 1477.95 -686.376)
(-1.31413 503.851 -422.713)
(1215.96 700.45 -601.333)
(-805.497 -319.589 92.1077)
(229.85 -112.31 240.053)
(-1271.23 507.764 404.921)
(451.134 -158.646 -750.395)
(460.319 409.786 -474.542)
(390.384 220.571 161.382)
(302.929 -197.972 -46.9732)
(941.349 -1013.58 289.716)
(-533.344 1031.46 -623.089)
(-633.527 -288.04 -89.3305)
(-328.144 -213.322 66.267)
(-395.132 157.266 -668.142)
(-101.531 -864.001 274.454)
(-210.678 182.822 -440.019)
(-134.089 439.241 19.7704)
(-576.763 -456.448 -581.717)
(-10.4209 -109.461 -185.473)
(-308.348 42.1865 -668.088)
(347.614 398.591 -153.831)
(426.367 63.9449 663.265)
(851.668 575.922 325.087)
(180.359 -713.758 -189.593)
(418.748 -145.633 875.781)
(543.217 -564.735 -193.625)
(293.99 -569.311 439.412)
(633.504 -33.2945 -370.477)
(-752.611 -1250.64 576.401)
(-352.088 552.245 -256.852)
(474.571 -42.7313 877.61)
(-264.918 452.519 -701.829)
(-373.766 798.198 -400.36)
(-283.198 4.99428 -339.686)
(-83.3357 905.88 404.542)
(124.671 41.0312 594.301)
(764.237 -461.62 432.164)
(-198.313 227.894 -540.015)
(-553.926 -462.936 887.643)
(-145.494 -194.786 527.3)
(-111.822 -497.323 787.778)
(444.901 540.889 27.1011)
(5.81145 129.813 -147.983)
(969.178 839.527 87.6095)
(2.5851 821.845 698.478)
(550.347 -26.7938 -80.5329)
(-89.2007 412.786 -463.274)
(755.064 642.703 681.628)
(239.982 818.644 420.092)
(-217.888 451.894 -419.615)
(306.935 -582.079 -619.998)
(549.038 -694.735 196.046)
(721.387 390.308 -304.629)
(1043.84 38.0277 -731.108)
(-287.568 -355.935 276.653)
(345.378 -247.072 -26.5774)
(-72.8541 578.132 -319.13)
(-495.534 -465.589 446.888)
(170.185 -12.8212 -586.609)
(438.257 -895.718 408.106)
(221.401 -111.903 731.106)
(-421.908 -1050.44 -88.8843)
(234.939 448.882 87.071)
(852.21 60.3332 571.295)
(-477.358 -689.009 -694.204)
(581.441 564.661 504.987)
(517.089 -103.481 126.771)
(952.646 -747.751 378.4)
(115.844 165.086 -1165.66)
(-1220.22 -178.948 -404.784)
(-473.549 -534.807 548.395)
(-802.906 109.355 301.888)
(-210.971 143.936 241.422)
(-331.032 -359.223 316.077)
(-378.755 616.44 351.457)
(-68.4688 155.446 543.208)
(940.584 -643.189 574.209)
(1093.66 747.179 -651.509)
(-847.095 -1254.14 -238.735)
(168.241 148.21 -201.179)
(-339.801 321.859 127.376)
(-30.76 -309.526 -52.2298)
(-618.732 -163.057 -606.948)
(-274.793 -657.108 401.88)
(-98.5412 -345.6 -251.121)
(15.5027 450.759 -214.392)
(-212.699 434.743 490.829)
(130.919 -600.465 440.899)
(1052.27 -620.681 -54.2987)
(-90.909 -397.421 492.115)
(-342.277 -645.467 -196.662)
(29.7817 -548.792 -1022.56)
(-35.6218 740.8 94.0646)
(-154.72 -368.198 969.992)
(-754.877 -273.185 -593.788)
(-411.161 -386.973 -1006.9)
(22.1261 -920.512 60.6942)
(420.651 -28.847 223.927)
(-396.738 -109.039 798.599)
(-1025.85 -132.996 -750.796)
(-141.253 -327.741 16.5679)
(389.248 494.416 677.911)
(17.2098 246.742 -31.0614)
(368.017 427.94 -23.5958)
(251.079 -667.665 -849.639)
(-962.365 -1349.45 5.0057)
(-174.908 399.399 690.957)
(-115.619 -154.127 2.76092)
(-447.634 -210.617 84.5808)
(-611.698 -304.296 393.24)
(-392.334 -632.985 306.216)
(403.015 207.202 1233.53)
(-55.2586 736.086 185.583)
(505.661 839.32 452.084)
(-139.901 -286.78 711.87)
(350.845 546.539 95.2523)
(-698.2 -658.223 381.619)
(207.149 346.594 -89.2892)
(-730.023 -290.721 -112.522)
(167.939 -40.7253 62.9715)
(84.386 -145.575 -62.7927)
(101.275 -544.7 289.499)
(-131.13 134.222 -241.32)
(777.217 944.177 -52.6944)
(-26.0529 946.707 -260.166)
(-778.112 467.487 955.62)
(-792.691 203.919 7.0659)
(1524 716.704 -118.338)
(399.934 1438.63 -354.642)
(516.492 -372.258 -55.6627)
(-30.5681 218.599 -465.353)
(-1249.99 793.04 445.691)
(-397.833 -155.162 197.421)
(-722.412 360.83 -762.041)
(460.745 -2.99774 590.055)
(45.3557 1265.92 1070.61)
(394.294 -150.029 9.48947)
(154.794 -272.378 167.252)
(378.89 305.157 435.84)
(340 -227.776 -35.2362)
(-428.648 718.395 59.5607)
(-155.546 -162.183 -640.087)
(318.456 67.1498 76.9567)
(-431.68 -213.728 -399.829)
(-409.178 -315.826 32.5108)
(515.084 -127.933 186.942)
(-506.712 951.79 -549.341)
(-439.979 132.637 -86.4877)
(-547.525 251.507 191.942)
(123.042 -660.809 -236.667)
(332.253 -1077.82 -470.16)
(-11.0726 -23.4233 -50.3494)
(-485.034 -64.9317 598.949)
(221.013 334.39 -2.42999)
(782.946 -967.546 -85.8059)
(-123.75 475.088 101.575)
(-314.351 396.639 -251.23)
(-358.82 -800.244 -473.228)
(283.209 -541.048 480.361)
(646.337 436.812 -441.32)
(-355.407 377.176 161.965)
(-246.112 823.538 -219.229)
(106.901 82.265 144.587)
(124.87 -288.836 1124.13)
(746.336 612.206 -1254.78)
(-266.449 -252.976 237.955)
(-141.409 -625.249 -58.9922)
(-602.979 9.54186 119.495)
(11.7297 -494.774 61.6767)
(60.4562 -555.441 -652.847)
(254.951 734.426 382.416)
(97.8247 199.889 -143.445)
(-533.922 -437.94 -202.339)
(-796.418 336.552 -391.943)
(558.786 -71.1691 -117.952)
(178.234 412.781 -214.163)
(129.493 1191.36 204.968)
(-46.133 676.934 -306.152)
(128.631 278.715 -345.286)
(458.196 365.826 -37.1669)
(-166.98 229.95 -946.98)
(-22.0097 -492.895 186.43)
(-147.477 24.4319 948.888)
(-134.425 -234.624 163.694)
(-390.21 93.7569 -826.554)
(31.8363 385.685 175.16)
(403.872 -237.454 1062.23)
(-189.222 -699.785 -275.687)
(1060.71 -1056.68 234.1)
(510.851 155.251 -80.4187)
(-1.92882 686.391 439.365)
(-602.092 463.896 328.522)
(162.853 565.606 -111.127)
(-795.225 -226.508 -145.778)
(3.01631 605.745 -80.8806)
(-243.49 40.9344 603.374)
(-160.6 57.1908 244.213)
(-465.377 -964.721 241.697)
(-241.471 -643.796 621.493)
(146.08 -196.992 -779.329)
(54.5223 -105.289 640.841)
(-596.084 530.319 661.606)
(330.794 565.866 332.966)
(180.781 548.474 114.555)
(803.536 935.235 -641.293)
(348.326 -444.07 1334.59)
(-74.2384 867.188 60.2172)
(-168.477 648.023 -51.9651)
(-245.859 269.583 9.43443)
(-1084.71 1.637 -617.616)
(299.839 -70.8071 -213.065)
(580.334 234.674 263.797)
(-1491.84 85.7546 -418.797)
(155.928 -236.371 100.688)
(-101.647 -444.541 -342.181)
(-1217.26 517.63 -799.623)
(-184.075 -272.352 840.11)
(-1095.5 865.201 -480.406)
(-35.0678 -158.204 -826.252)
(763.343 325.285 1023.01)
(652.022 938.791 -1089.41)
(-297.223 -353.311 368.15)
(-129.542 394.448 71.1734)
(407.023 208.268 723.456)
(-36.7759 -684.367 37.2232)
(615.152 -92.6631 950.944)
(513.803 681.701 -572.022)
(491.646 -677.694 414.181)
(-924.66 -269.355 604.537)
(-626.891 480.154 -619.988)
(-176.923 858.055 169.087)
(-389.569 -1417.59 315.327)
(-60.9525 -45.5439 653.599)
(-56.9912 758.184 -24.8099)
(-388.509 -477.965 -1251.27)
(-358.965 317.194 1211.2)
(390.123 -513.829 -504.315)
(-341.819 -548.304 -104.523)
(133.214 -163.656 -260.045)
(1040.88 701.13 -243.584)
(311.997 -1247.6 676.289)
(-250.173 -199.754 -511.133)
(-582.116 -107.787 -227.536)
(651.738 -816.278 -46.0799)
(-326.023 492.505 646.745)
(172.024 1005.88 -265.191)
(-126.542 532.434 102.826)
(458.278 341.671 105.214)
(-673.764 -569.847 201.362)
(523.414 -176.388 362.366)
(-223.986 -139.65 461.362)
(137.868 423.29 -1251.22)
(366.624 -327.465 301.322)
(-48.5349 78.4727 -618.689)
(-102.611 -92.71 -161.031)
(69.6824 -458.537 162.958)
(-117.037 -773.313 93.4103)
(-367.741 -113.065 1173.16)
(654.373 -460.67 981.783)
(-174.374 -237.151 805.741)
(207.72 602.986 -564.961)
(-157.59 90.9491 -500.408)
(-189.198 365.988 629.232)
(76.3959 -214.577 791.481)
(-34.3166 1072.37 -295.265)
(-354.888 -363.231 663.049)
(60.9033 687.855 -176.917)
(-166.863 281.191 -905.911)
(758.717 -350.337 165.186)
(42.7552 563.169 -2.5635)
(-114.296 56.7069 144.185)
(294.647 771.728 -313.506)
(714.394 524.7 98.5437)
(-894.266 -529.203 440.434)
(342.08 452.279 -188.268)
(-295.959 -376.935 302.227)
(-31.6377 747.605 -902.046)
(-304.068 291.952 -102.423)
(833.518 -541.297 226.865)
(-332.935 871.972 -266.857)
(143.691 160.363 12.3935)
(-729.594 154.058 781.537)
(1193.83 -478.872 -1265.48)
(196.111 -773.899 -156.486)
(38.1573 604.913 51.6192)
(-48.115 812.683 535.04)
(-1089.6 -742.404 584.977)
(-747.966 3.55985 -76.3635)
(603.754 250.812 -293.736)
(84.8978 351.839 -1140.61)
(-373.428 -922.345 -233.457)
(-147.51 -201.745 -364.995)
(148.439 -904.634 247.403)
(-485.489 523.634 456.138)
(-24.0693 850.983 -738.02)
(-617.822 -342.574 -277.689)
(740.721 0.800043 -452.15)
(89.8467 -242.505 497.764)
(329.845 -27.8349 35.0148)
(258.864 404.926 397.112)
(-199.698 -173.072 289.052)
(394.329 -151.189 -295.801)
(43.3349 381.988 -674.041)
(-568.022 -224.591 -63.9853)
(-741.819 159.118 591.022)
(447.039 101.388 69.6465)
(923.935 -44.231 -651.236)
(99.0164 323.492 137.352)
(-230.659 132.917 -685.46)
(66.9445 511.173 84.7764)
(45.8019 -270.95 467.491)
(818.464 -707.791 189.511)
(-217.664 329.773 -327.812)
(87.9907 -78.1634 -430.63)
(320.186 143.235 -508.309)
(1851.18 -1022.72 423.466)
(-172.642 -192.725 190.751)
(-157.499 -343.527 1056.77)
(-40.63 -178.592 -1871.39)
(-248.135 -117.637 -40.566)
(489.903 -520.404 -109.684)
(104.756 354.53 29.196)
(-350.222 718.04 553.451)
(-1181.97 1001.03 567.622)
(-391.963 -236.28 85.696)
(-560.816 267.78 -504.023)
(259.855 379.82 217.304)
(288.607 653.333 -317.276)
(272.899 -798.099 721.749)
(-435.399 -324.577 -451.231)
(27.447 -187.694 784.829)
(530.992 -211.679 -131.584)
(1439.93 896.177 -785.578)
(-112.929 805.799 -76.4951)
(-75.8234 492.563 335.305)
(97.917 149.206 -56.9119)
(-1147.36 1174.83 -177.794)
(-58.7787 -1185.2 172.373)
(-13.7857 -8.93052 -496.882)
(-792.749 314.654 660.242)
(470.607 -421.14 453.334)
(334.632 -635.147 -24.3565)
(31.9931 498.881 -330.622)
(21.0153 -832.823 -728.488)
(-309.661 297.573 216.159)
(243.412 266.082 -189.205)
(-611.027 726.454 236.348)
(-117.571 -84.1009 106.673)
(-915.736 -1104.34 -268.721)
(-735.156 -79.7002 -735.525)
(137.946 193.762 57.2258)
(-692.177 255.283 -337.975)
(228.668 600.357 820.745)
(-56.6707 -288.928 -250.399)
(-652.393 36.7139 115.655)
(1143.58 -115.714 -673.233)
(741.173 -27.683 76.6921)
(-453.294 1561.32 -317.026)
(85.973 -519.138 615.34)
(751.031 -368.806 -215.114)
(-1019.54 17.1542 531.908)
(-467.263 -517.08 -824.209)
(-760.624 74.2777 -811.358)
(-512.657 48.4038 -928.792)
(-443.482 47.7156 189.254)
(13.519 720.687 -422.168)
(650.835 -168.07 435.316)
(1095.78 945.339 749.012)
(-463.973 -937.151 -903.198)
(-533.946 452.061 137.734)
(400.483 -327.638 246.641)
(-721.856 -567.99 557.775)
(-936.362 -355.24 846.771)
(518.818 -414.969 -333.196)
(434.602 -662.952 -9.75407)
(1388.35 -319.664 849.269)
(-353.296 376.646 -63.478)
(371.837 -260.041 -93.6268)
(139.481 -630.049 163.61)
(-112.648 112.228 -30.7202)
(534.275 68.6456 488.037)
(-461.805 203.439 808.82)
(-162.432 -679.711 7.91415)
(-1057.08 33.2455 904.242)
(456.181 45.2213 307.976)
(587.128 -122.233 167.371)
(384.513 -489.064 -615.208)
(-104.383 -448.972 -23.0025)
(-570.023 291.067 160.324)
(-523.231 258.096 927.395)
(-507.324 588.14 -1041.43)
(102.409 686.908 -1394.94)
(-451.52 196.146 238.626)
(-174.948 -556.071 -27.0632)
(343.935 181.349 -557.637)
(-242.414 -287.467 898.523)
(-983.913 -244.165 -70.9949)
(-656.703 1359.72 -418.156)
(-499.699 457.761 -1051.54)
(221.879 -7.22154 32.9015)
(-210.314 -51.8113 -117.051)
(211.905 -984.447 -679.447)
(59.373 248.578 -199.704)
(1045.3 -286.336 -677.341)
(-290.874 -469.857 383.484)
(28.9729 234.698 -214.415)
(1241.58 -1191.95 290.995)
(-943.02 -173.274 -543.446)
(-585.875 -65.9243 -307.727)
(440.703 -221.351 275.628)
(-950.718 164.625 -42.9104)
(-734.535 -477.06 -455.797)
(515.137 -432.549 -401.156)
(942.352 -508.655 -1490.65)
(200.717 1068.58 508.025)
(-296.652 393.698 -779.586)
(-1494.51 876.631 -675.044)
(-648.682 1062.11 126.99)
(4.38757 270.605 1203.73)
(-470.423 532.173 -492.858)
(-58.9237 973.862 1133.72)
(74.1564 -927.684 167.931)
(283.933 62.3238 -332.443)
(137.827 1039.76 -1031.44)
(816.226 -299.724 215.093)
(-130.836 269.581 -18.3684)
(642.927 784.752 385.956)
(-971.535 177.856 717.726)
(-698.404 -233.002 -1266.91)
(-543.546 -817.999 970.676)
(-186.008 102.067 190.924)
(564.279 -818.468 1216.51)
(129.567 -232.262 -564.147)
(420.859 277.763 -529.008)
(-355.237 -87.3074 256.859)
(-235.374 -1.43267 -1056.96)
(-298.021 873.352 -90.746)
(140.963 -625.237 -127.063)
(636.559 73.9028 543.585)
(344.203 142.038 -47.4951)
(-600.547 -107.732 773.746)
(-480.359 333.448 701.877)
(254.478 1111.53 465.577)
(-88.4626 336.634 -351.925)
(-635.427 265.162 -572.354)
(198.134 -292.976 439.567)
(302.924 -450.11 408.454)
(364.585 -411.704 173.576)
(-228.882 35.3474 -299.108)
(237.689 850.65 -892.572)
(-114.771 -370.6 389.553)
(-816.024 -375.084 441.992)
(569.626 -108.617 47.8287)
(739.323 -698.15 -156.188)
(-372.337 -240.684 -289.161)
(959.279 -171.02 -578.535)
(297.903 323.833 219.491)
(267.96 435.538 410.247)
(183.432 644.046 318.025)
(93.3613 -392.745 648.296)
(504.837 -427.768 1129.65)
(-51.0313 -421.033 750.309)
(72.5693 656.814 -604.224)
(322.512 -161.684 -91.1577)
(495.279 -87.0948 874.172)
(827.236 168.556 -799.517)
(-97.0241 -47.4854 187.119)
(-536.011 1356.42 -182.166)
(435.979 -725.57 93.3246)
(-563.332 -1098.1 -572.65)
(-133.651 -685.803 175.67)
(-288.961 -880.995 -583.456)
(88.6833 -1080.86 138.977)
(124.669 318.565 -921.737)
(-641.902 340.733 246.877)
(-493.238 -293.534 -329.601)
(695.867 -325.775 -154.663)
(334.446 419.475 -90.9899)
(956.926 -27.3924 -70.2975)
(-246.181 104.377 -141.1)
(292.167 -18.3461 764.775)
(177.738 115.427 990.86)
(511.15 221.345 -788.376)
(-792.762 436.663 -378.172)
(-473.923 325.771 54.6333)
(-53.215 247.315 -220.806)
(-576.08 326.236 -86.7554)
(-355.612 58.5667 -779.565)
(60.6258 407.231 136.922)
(8.40447 297.706 -207.236)
(-43.3338 -94.8141 -154.438)
(-80.8475 260.68 -515.317)
(135.231 -44.5908 573.748)
(-292.106 670.317 -301.354)
(-164.733 575.831 -846.206)
(-276.694 -200.092 -198.278)
(210.693 -866.725 -867.765)
(-649.022 392.533 -344.53)
(-355.438 -786.669 -776.212)
(-703.248 -364.597 445.068)
(50.7443 455.019 -111.261)
(-232.69 828.066 216.101)
(-253.585 37.0925 -426.463)
(-39.5671 -6.3884 153.499)
(-794.278 -423.943 212.852)
(-295.988 -1125.39 -119.455)
(-541.453 504.857 620.476)
(664.739 181.836 455.926)
(-472.337 -544.672 70.8538)
(-525.325 63.5279 699.682)
(-166.815 505.872 307.859)
(-802.638 587.743 -438.14)
(-200.072 336.812 -437.645)
(-14.2904 308.571 -155.65)
(539.656 393.744 762.458)
(-159.445 421.993 -479.846)
(566.083 -71.649 -272.485)
(-36.2206 30.2191 212.323)
(-461.657 246.818 -815.353)
(420.6 382.856 805.785)
(561.519 217.633 591.243)
(-232.898 296.444 -832.77)
(66.8796 -27.0728 393.15)
(587.951 483.286 701.357)
(-238.953 174.569 10.8954)
(461.385 -46.0606 -436.596)
(-965.422 105.767 -302.811)
(-258.59 -6.59658 321.383)
(314.753 -541.567 -595.108)
(64.9557 -970.104 -624.84)
(462.55 16.4012 248.404)
(269.642 298.1 603.848)
(-353.384 1067.01 85.2807)
(610.267 350.934 262.991)
(772.476 -54.5897 202.994)
(1196.1 -341.952 570.375)
(88.947 185.059 -128.591)
(88.6526 -257.131 -472.67)
(-386.586 215.176 -325.032)
(-184.448 165.939 130.884)
(273.174 26.0928 166.063)
(-821.214 446.783 435.765)
(621.445 -220.684 -161.234)
(535.89 -33.0055 -656.698)
(-178.435 -113.091 354.259)
(-155.947 -614.622 319.985)
(-78.0302 37.2069 5.44346)
(375.08 -148.292 370.634)
(-839.421 -911.663 1025.87)
(-461.653 732.921 1212.16)
(-472.489 -499.261 206.707)
(-4.74399 -32.4908 -674.99)
(-380.401 859.007 24.1389)
(258.958 -132.477 -685.9)
(1126.59 -314.92 -62.5222)
(-267.624 156.533 -490.449)
(558.244 -64.4581 505.135)
(275.607 45.8154 -290.248)
(-258.032 -862.671 28.0071)
(236.713 -299.554 -233.522)
(-121.512 147.043 -61.3403)
(-135.612 583.841 -379.283)
(-393.204 851.049 29.6314)
(-170.951 -109.531 440.388)
(-0.119552 -196.044 -138.679)
(-349.765 308.981 452.908)
(856.625 2.5136 -468.543)
(202.806 781.038 -230.019)
(472.763 777.748 60.3282)
(777.088 -54.6051 -143.021)
(-112.344 53.5257 0.870129)
(881.937 841.573 -943.126)
(-498.783 31.299 -1058.65)
(167.452 236.762 -343.626)
(205.055 -46.7299 252.033)
(-365.818 377.208 -96.3043)
(-38.2894 -651.835 90.5097)
(-786.142 544.29 478.888)
(-551.077 -455.222 -795.248)
(-392.566 501.567 39.7923)
(-779.595 148.033 524.919)
(187.58 -252.025 118.329)
(62.6825 409.197 -327.236)
(-290.215 1104.67 -287.273)
(-108.78 -997.764 -280.789)