/*--------------------------------*- C++ -*----------------------------------*\
  =========                 |
  \\      /  F ield         | OpenFOAM: The Open Source CFD Toolbox
   \\    /   O peration     | Website:  https://openfoam.org
    \\  /    A nd           | Version:  7
     \\/     M anipulation  |
\*---------------------------------------------------------------------------*/
FoamFile
{
    version     2.0;
    format      ascii;
    class       volScalarField;
    location    "0.05/particle";
    object      dsmcRhoN;
}
// * * * * * * * * * * * * * * * * * * * * * * * * * * * * * * * * * * * * * //

dimensions      [0 -3 0 0 0 0 0];

internalField   nonuniform List<scalar> 
800
(
1000
1048
1015
1082
1088
1066
1052
1061
1061
1117
1093
1000
1096
1140
1042
1055
1082
1099
1037
1173
1109
1140
1119
1098
1149
1020
1033
1010
1095
1055
1093
1073
1162
1091
1098
1053
1082
1085
1096
1124
1126
1083
1060
1059
1082
1033
1124
1168
1122
1044
1083
1091
1100
1130
1080
1130
1102
1065
1039
1042
1139
999
1098
1081
1123
1106
1082
1010
1040
1107
1112
1073
1076
1077
1068
1026
1086
1110
1054
1080
1016
1059
1105
1087
1094
1049
1087
1088
1056
1060
1059
1057
1063
1026
1037
1051
1102
1095
1033
1045
1014
1078
1063
1120
1075
1122
1123
1054
1013
1057
1053
1084
1096
1067
1028
1098
1125
1082
1053
1089
1095
1089
1041
1091
1041
1094
1048
1079
1059
1094
1026
1101
1108
1113
1074
1099
1130
1103
1037
1072
1076
1045
1101
1039
1024
1091
1118
1036
1125
1120
1041
1096
1034
991
1100
1055
1078
1128
1064
1075
1135
987
1057
1074
1087
1119
1070
1098
1061
1049
1025
1038
1150
1081
1029
1010
1107
1102
1069
1099
1145
1070
1024
1088
1043
1083
1093
1123
1003
1060
1107
1043
1070
1062
1112
1079
1085
1058
1072
1013
1094
1107
1065
1086
1039
1096
1094
1073
1074
1124
1067
1070
1081
1141
1111
1119
1064
1067
1073
1052
1037
1061
1101
1068
1123
1075
1027
1044
1149
1085
1096
1114
1039
1027
1067
1080
1067
1016
1050
1061
1015
1031
986
997
1001
977
989
1020
933
897
911
902
912
893
890
858
897
843
876
820
849
810
812
738
751
703
780
715
744
726
696
715
658
727
721
609
665
606
601
613
625
643
579
565
553
542
540
566
534
537
534
526
520
484
494
523
561
481
470
444
448
471
411
470
482
461
463
464
471
430
492
454
451
440
479
454
452
456
459
456
482
452
484
466
516
412
431
456
453
444
470
464
422
464
469
472
433
419
479
426
468
411
401
442
417
361
357
359
342
328
331
313
288
303
302
294
278
309
271
267
308
292
278
269
293
287
295
294
290
289
272
308
288
267
289
282
290
320
291
296
273
260
279
284
269
265
235
222
130
121
131
145
124
141
126
153
151
136
144
110
134
140
118
134
131
145
116
142
138
152
108
149
150
147
144
142
133
144
155
119
129
127
141
149
136
135
134
123
124
127
116
133
135
109
127
141
158
126
130
126
119
133
128
120
138
129
135
145
128
123
117
123
152
135
144
130
138
133
122
134
143
128
123
147
145
131
118
142
119
132
144
149
123
133
125
136
117
145
145
126
129
153
151
128
141
151
137
132
125
138
131
149
137
125
126
128
148
129
138
140
123
148
128
157
128
134
144
133
127
105
127
129
132
153
129
137
129
142
125
151
140
128
118
125
125
129
119
137
120
126
136
124
156
117
124
134
138
139
138
135
136
145
149
134
129
152
148
115
120
141
133
148
146
122
128
151
136
128
134
142
133
132
118
133
139
153
133
145
145
130
147
130
138
134
140
129
124
140
131
131
129
125
132
138
135
144
131
135
141
134
125
127
124
121
143
128
136
127
148
134
141
116
120
123
126
142
136
116
150
142
120
130
136
135
130
143
123
144
145
134
134
123
148
123
121
130
126
140
140
117
137
132
125
139
134
124
141
126
141
149
116
149
149
141
132
144
133
126
117
144
128
136
143
127
139
149
126
149
125
139
133
153
129
130
129
150
119
165
148
154
141
140
133
110
149
130
122
155
126
134
146
137
140
115
153
146
148
129
126
143
144
139
145
155
143
140
163
143
137
123
129
154
110
136
135
122
133
131
132
157
130
128
126
132
158
116
145
109
101
123
149
148
149
150
130
123
138
126
151
111
131
126
112
118
143
149
138
129
134
119
139
118
134
131
146
123
118
152
146
112
140
138
134
136
127
115
155
141
132
128
128
141
141
125
114
140
142
134
120
138
149
146
118
139
126
131
144
126
138
131
125
140
126
146
137
150
127
131
132
140
145
143
135
142
127
139
129
137
135
137
)
;

boundaryField
{
    partSide
    {
        type            symmetry;
    }
    partBound
    {
        type            zeroGradient;
    }
    nullDims
    {
        type            empty;
    }
}


// ************************************************************************* //
