/*--------------------------------*- C++ -*----------------------------------*\
  =========                 |
  \\      /  F ield         | OpenFOAM: The Open Source CFD Toolbox
   \\    /   O peration     | Website:  https://openfoam.org
    \\  /    A nd           | Version:  7
     \\/     M anipulation  |
\*---------------------------------------------------------------------------*/
FoamFile
{
    version     2.0;
    format      ascii;
    class       surfaceScalarField;
    location    "0.15";
    object      alphaPhi0.water;
}
// * * * * * * * * * * * * * * * * * * * * * * * * * * * * * * * * * * * * * //

dimensions      [0 3 -1 0 0 0 0];

internalField   nonuniform List<scalar> 
3731
(
3.88639e-06
2.00525e-06
1.79947e-06
6.49136e-07
8.20661e-07
8.16801e-07
1.17515e-06
-2.03356e-07
4.32776e-07
2.13388e-07
4.45212e-08
1.86481e-07
4.08235e-08
2.17213e-08
8.53713e-08
1.26658e-09
6.40498e-09
2.91801e-08
-5.17576e-09
5.15025e-09
1.52171e-08
-2.49128e-09
4.05057e-09
7.03512e-09
-4.37028e-10
1.78295e-09
4.21068e-09
4.48907e-10
1.19835e-09
4.0507e-09
-1.02798e-31
5.43936e-32
3.37067e-31
-5.05546e-30
1.02631e-28
-2.33648e-28
2.54644e-28
-1.55186e-27
3.61867e-29
-1.07773e-28
3.83138e-30
-1.37604e-29
3.09813e-31
-1.03783e-30
2.1785e-32
-5.91693e-32
1.46244e-33
-2.95115e-33
1.03527e-34
-1.35819e-34
7.73168e-36
-5.95246e-36
5.76888e-37
-2.18021e-37
4.208e-38
-2.90264e-39
3.03427e-39
1.80227e-40
2.09314e-40
2.56798e-41
1.39585e-41
2.44786e-42
8.98379e-43
2.00226e-43
5.54689e-44
1.49277e-44
3.26997e-45
1.0356e-45
1.83302e-46
6.74111e-47
9.73048e-48
4.12879e-48
4.87039e-49
2.37905e-49
2.28795e-50
1.28747e-50
1.0037e-51
6.52705e-52
4.08901e-53
3.09021e-53
1.53716e-54
1.36133e-54
5.29242e-56
5.55574e-56
1.65385e-57
2.08909e-57
4.63833e-59
7.18824e-59
1.15087e-60
2.24316e-60
2.47938e-62
6.27385e-62
4.52206e-64
1.54764e-63
6.74106e-66
3.29291e-65
7.80601e-68
5.85101e-67
6.48488e-70
8.31807e-69
3.38603e-72
8.7348e-71
8.76564e-75
5.87232e-73
6.64311e-78
1.96708e-75
5.95095e-80
1.77183e-78
1.20174e-82
4.50037e-33
4.32726e-32
1.20153e-27
-2.73552e-27
1.68222e-26
-5.00225e-26
2.14718e-26
-5.24962e-26
4.00707e-27
-1.54585e-26
3.4068e-28
-1.81236e-27
2.56762e-29
-1.31052e-28
1.79702e-30
-7.42812e-30
1.21941e-31
-3.67358e-31
8.39612e-33
-1.67702e-32
5.88201e-34
-7.01617e-34
4.07957e-35
-2.39907e-35
2.77212e-36
-3.22973e-37
1.8621e-37
3.96887e-38
1.20876e-38
5.67879e-39
7.61329e-40
5.25513e-40
4.63641e-41
4.12366e-41
2.71359e-42
2.93149e-42
1.5193e-43
1.93376e-43
8.10453e-45
1.19554e-44
4.10263e-46
6.95439e-46
1.96274e-47
3.80903e-47
8.83579e-49
1.96248e-48
3.72525e-50
9.49201e-50
1.46321e-51
4.29824e-51
5.32209e-53
1.81605e-52
1.78001e-54
7.12953e-54
5.4283e-56
2.58735e-55
1.49392e-57
8.62391e-57
3.66283e-59
2.61834e-58
7.87044e-61
7.16415e-60
1.4507e-62
1.74169e-61
2.2291e-64
3.69125e-63
2.74438e-66
6.64499e-65
2.55921e-68
9.80109e-67
1.66339e-70
1.11821e-68
6.58355e-73
9.01298e-71
1.23426e-75
4.41448e-73
6.08949e-79
9.53e-76
3.12467e-79
7.44129e-30
7.60295e-30
1.93486e-25
-4.864e-25
1.30589e-24
-4.68642e-24
1.12046e-24
-3.88583e-24
1.6656e-25
-9.48915e-25
1.35309e-26
-9.90776e-26
1.01786e-27
-6.87541e-27
7.10586e-29
-3.85616e-28
4.73525e-30
-1.88902e-29
3.12083e-31
-8.39146e-31
2.04178e-32
-3.32032e-32
1.30785e-33
-1.03126e-33
8.19077e-35
-9.38694e-36
5.06888e-36
1.91088e-36
3.0274e-37
2.36916e-37
1.75465e-38
1.99598e-38
9.82741e-40
1.43619e-39
5.29092e-41
9.37385e-41
2.72692e-42
5.67849e-42
1.3404e-43
3.22462e-43
6.26033e-45
1.72367e-44
2.76758e-46
8.6827e-46
1.15339e-47
4.11932e-47
4.51131e-49
1.83761e-48
1.64788e-50
7.68913e-50
5.58963e-52
3.00838e-51
1.74906e-53
1.09627e-52
5.00935e-55
3.70276e-54
1.30077e-56
1.1522e-55
3.027e-58
3.27797e-57
6.22176e-60
8.4435e-59
1.10894e-61
1.94444e-60
1.67364e-63
3.93758e-62
2.07276e-65
6.85907e-64
2.02039e-67
9.97405e-66
1.46199e-69
1.15952e-67
7.17086e-72
1.01102e-69
2.0252e-74
5.96097e-72
2.28151e-77
1.94726e-74
2.27687e-77
4.29423e-28
-1.92523e-28
1.2234e-23
-4.51055e-23
5.96346e-23
-2.68415e-22
3.61494e-23
-1.76637e-22
4.54319e-24
-3.54155e-23
3.57565e-25
-3.30305e-24
2.68223e-26
-2.193e-25
1.86102e-27
-1.20897e-26
1.21579e-28
-5.83173e-28
7.69496e-30
-2.51113e-29
4.74581e-31
-9.3644e-31
2.8372e-32
-2.59071e-32
1.65389e-33
-5.49331e-35
9.5279e-35
5.90091e-35
5.28869e-36
6.24665e-36
2.84605e-37
4.78253e-37
1.47785e-38
3.16475e-38
7.37291e-40
1.9061e-39
3.52133e-41
1.06679e-40
1.60453e-42
5.60009e-42
6.9514e-44
2.7686e-43
2.85321e-45
1.29074e-44
1.10532e-46
5.67262e-46
4.02469e-48
2.34684e-47
1.37105e-49
9.11977e-49
4.34655e-51
3.31911e-50
1.2745e-52
1.12722e-51
3.4316e-54
3.5561e-53
8.41117e-56
1.03628e-54
1.85727e-57
2.76992e-56
3.64732e-59
6.73126e-58
6.26927e-61
1.4705e-59
9.24348e-63
2.84608e-61
1.13908e-64
4.78831e-63
1.13385e-66
6.82717e-65
8.6914e-69
7.96394e-67
4.76128e-71
7.22164e-69
1.66066e-73
4.69741e-71
2.64258e-76
1.89932e-73
4.18032e-76
-1.76089e-23
1.47244e-25
4.16074e-22
-2.64369e-21
1.86289e-21
-1.05056e-20
8.4169e-22
-5.58244e-21
9.14039e-23
-9.25809e-22
6.99216e-24
-7.71511e-23
5.20136e-25
-4.85641e-24
3.57237e-26
-2.6057e-25
2.28737e-27
-1.22847e-26
1.39681e-28
-5.10177e-28
8.19628e-30
-1.78142e-29
4.63189e-31
-4.23335e-31
2.54965e-32
3.57404e-33
1.37787e-33
1.31441e-33
7.18455e-35
1.20047e-34
3.6225e-36
8.40066e-36
1.75929e-37
5.14651e-37
8.2013e-39
2.88128e-38
3.65836e-40
1.50112e-39
1.55674e-41
7.33984e-41
6.29951e-43
3.38121e-42
2.41624e-44
1.46944e-43
8.75372e-46
6.02355e-45
2.98395e-47
2.32623e-46
9.52933e-49
8.44682e-48
2.83709e-50
2.8762e-49
7.82992e-52
9.15297e-51
1.9899e-53
2.71084e-52
4.6204e-55
7.4336e-54
9.70971e-57
1.87526e-55
1.82574e-58
4.31725e-57
3.0287e-60
8.9792e-59
4.35494e-62
1.66547e-60
5.30604e-64
2.70909e-62
5.31504e-66
3.77963e-64
4.19166e-68
4.38694e-66
2.4329e-70
4.05398e-68
1.13831e-72
2.79747e-70
1.78513e-75
1.27241e-72
3.96742e-75
-3.03194e-21
1.89849e-22
1.00678e-20
-1.09218e-19
4.47121e-20
-2.97043e-19
1.53224e-20
-1.3281e-19
1.43047e-21
-1.81664e-20
1.05263e-22
-1.32908e-21
7.69308e-24
-7.82813e-23
5.20488e-25
-4.04751e-24
3.26485e-26
-1.8496e-25
1.9326e-27
-7.35509e-27
1.08869e-28
-2.37367e-28
5.88222e-30
-4.45142e-30
3.09543e-31
1.31705e-31
1.5866e-32
2.19955e-32
7.84809e-34
1.76521e-33
3.74265e-35
1.13923e-34
1.71574e-36
6.51595e-36
7.54025e-38
3.41965e-37
3.16819e-39
1.67249e-38
1.26924e-40
7.68064e-40
4.83453e-42
3.32373e-41
1.74562e-43
1.35714e-42
5.95568e-45
5.2284e-44
1.91319e-46
1.89852e-45
5.76366e-48
6.48638e-47
1.62102e-49
2.08007e-48
4.23412e-51
6.2417e-50
1.02089e-52
1.74586e-51
2.25594e-54
4.53051e-53
4.52991e-56
1.08436e-54
8.18041e-58
2.37646e-56
1.31176e-59
4.7254e-58
1.83812e-61
8.42623e-60
2.20445e-63
1.32724e-61
2.19947e-65
1.80996e-63
1.75288e-67
2.07861e-65
1.08565e-69
1.93701e-67
5.76174e-72
1.38022e-69
8.75817e-75
6.69374e-72
2.53925e-74
-1.12966e-19
1.01523e-20
2.94116e-19
-3.36847e-18
9.09723e-19
-6.32819e-18
2.22689e-19
-2.33464e-18
1.73109e-20
-2.55286e-19
1.21548e-21
-1.63538e-20
8.69684e-23
-9.05124e-22
5.78284e-24
-4.51132e-23
3.55532e-25
-1.9912e-24
2.05066e-26
-7.52835e-26
1.11937e-27
-2.19138e-27
5.84798e-29
-2.46985e-29
2.97551e-30
2.4666e-30
1.46381e-31
2.79483e-31
6.93392e-33
2.0116e-32
3.15729e-34
1.20996e-33
1.37908e-35
6.5209e-35
5.76561e-37
3.23682e-36
2.30194e-38
1.49922e-37
8.75593e-40
6.52234e-39
3.16502e-41
2.67386e-40
1.0843e-42
1.03425e-41
3.51029e-44
3.77464e-43
1.07041e-45
1.29873e-44
3.06323e-47
4.20608e-46
8.19267e-49
1.27941e-47
2.03802e-50
3.64498e-49
4.68923e-52
9.69208e-51
9.91409e-54
2.39496e-52
1.91096e-55
5.47043e-54
3.32631e-57
1.14735e-55
5.1673e-59
2.19121e-57
7.0573e-61
3.7699e-59
8.30749e-63
5.76201e-61
8.19939e-65
7.67887e-63
6.52694e-67
8.69974e-65
4.77374e-69
8.11074e-67
2.41503e-71
5.86251e-69
8.01111e-74
2.93048e-71
1.24846e-73
4.77971e-21
6.77521e-20
9.61463e-18
-7.58673e-17
1.39648e-17
-9.28525e-17
2.22791e-18
-2.40858e-17
1.51175e-19
-2.1456e-18
1.04226e-20
-1.29369e-19
7.35115e-22
-7.0068e-21
4.81718e-23
-3.42591e-22
2.91529e-24
-1.46922e-23
1.65094e-25
-5.24981e-25
8.8294e-27
-1.30585e-26
4.51837e-28
3.35177e-29
2.24439e-29
2.99475e-29
1.07066e-30
2.67634e-30
4.90042e-32
1.76199e-31
2.14989e-33
9.98519e-33
9.02732e-35
5.11765e-34
3.62175e-36
2.4238e-35
1.38574e-37
1.07232e-36
5.04619e-39
4.45676e-38
1.74506e-40
1.74522e-39
5.71711e-42
6.4468e-41
1.76975e-43
2.24671e-42
5.1609e-45
7.38156e-44
1.41308e-46
2.28327e-45
3.61887e-48
6.63633e-47
8.6303e-50
1.80782e-48
1.90673e-51
4.60107e-50
3.87893e-53
1.08973e-51
7.21306e-55
2.39005e-53
1.21514e-56
4.82446e-55
1.83385e-58
8.89332e-57
2.4437e-60
1.48216e-58
2.81973e-62
2.204e-60
2.7442e-64
2.87255e-62
2.18606e-66
3.21127e-64
1.69767e-68
2.97189e-66
8.51914e-71
2.15152e-68
6.29508e-73
1.08576e-70
5.01692e-73
2.84515e-17
-7.10358e-17
2.24507e-16
-1.10782e-15
1.14809e-16
-7.02153e-16
1.28988e-17
-1.18575e-16
8.92691e-19
-9.82403e-18
6.37272e-20
-6.19746e-19
4.48966e-21
-3.44301e-20
2.9215e-22
-1.6854e-21
1.75622e-23
-7.06281e-23
9.86837e-25
-2.33889e-24
5.24038e-26
-4.14764e-26
2.66579e-27
1.68712e-27
1.30043e-28
2.4766e-28
6.06629e-30
1.89028e-29
2.70589e-31
1.15891e-30
1.15359e-32
6.2541e-32
4.69609e-34
3.07601e-33
1.82317e-35
1.40199e-34
6.74028e-37
5.97414e-36
2.36896e-38
2.3917e-37
7.90025e-40
9.01915e-39
2.49462e-41
3.20742e-40
7.44073e-43
1.07584e-41
2.09075e-44
3.40167e-43
5.5174e-46
1.01268e-44
1.36263e-47
2.83355e-46
3.1366e-49
7.43482e-48
6.69709e-51
1.82401e-49
1.31879e-52
4.16889e-51
2.37854e-54
8.83629e-53
3.89554e-56
1.72694e-54
5.73082e-58
3.08916e-56
7.46545e-60
5.00962e-58
8.44601e-62
7.27172e-60
8.08368e-64
9.28707e-62
6.65508e-66
1.02175e-63
4.99612e-68
9.34671e-66
2.47003e-70
6.71165e-68
2.84439e-72
3.37437e-70
1.67823e-72
2.11336e-15
-1.98663e-15
2.11446e-15
-6.46617e-15
4.6128e-16
-2.31001e-15
4.61703e-17
-3.31168e-16
3.64447e-18
-2.87108e-17
2.76282e-19
-1.94603e-18
1.96038e-20
-1.1189e-19
1.27697e-21
-5.4824e-21
7.69329e-23
-2.20664e-22
4.33008e-24
-6.24029e-24
2.30237e-25
-6.10552e-27
1.1693e-26
1.46072e-26
5.64369e-28
1.40746e-27
2.59395e-29
9.63336e-29
1.13631e-30
5.58564e-30
4.74425e-32
2.89876e-31
1.88703e-33
1.3797e-32
7.14459e-35
6.0999e-34
2.57209e-36
2.52322e-35
8.79245e-38
9.80606e-37
2.84939e-39
3.58878e-38
8.7379e-41
1.23818e-39
2.53017e-42
4.02811e-41
6.9011e-44
1.23508e-42
1.76804e-45
3.56552e-44
4.24087e-47
9.67625e-46
9.48737e-49
2.46345e-47
1.97059e-50
5.86779e-49
3.77953e-52
1.30326e-50
6.64919e-54
2.68753e-52
1.06403e-55
5.11769e-54
1.5322e-57
8.93555e-56
1.95718e-59
1.41729e-57
2.1742e-61
2.01674e-59
2.04345e-63
2.5304e-61
1.59067e-65
2.73706e-63
1.18179e-67
2.46473e-65
5.74822e-70
1.74594e-67
9.20338e-72
8.67292e-70
4.71939e-72
6.36056e-10
5.86151e-10
2.21441e-09
2.14802e-09
4.30282e-10
1.84145e-10
7.74872e-10
1.74055e-09
1.48964e-10
4.91528e-11
2.20264e-10
6.55154e-10
4.18596e-11
1.15149e-11
4.7372e-11
1.98608e-10
1.01611e-11
2.34409e-12
9.1308e-12
4.3787e-11
2.07745e-12
4.49081e-13
1.76003e-12
8.21886e-12
3.92252e-13
8.18232e-14
3.15968e-13
1.4281e-12
6.66564e-14
1.7403e-14
5.41695e-14
2.28524e-13
1.38514e-14
8.18322e-15
9.061e-15
3.82788e-14
4.19245e-15
3.45687e-15
7.24856e-15
1.1391e-15
1.83858e-15
2.72874e-16
4.04577e-16
6.94061e-17
8.56287e-17
1.81287e-17
1.85835e-17
4.78508e-18
4.07429e-18
1.27607e-18
9.00147e-19
3.44122e-19
2.00638e-19
9.37059e-20
4.51685e-20
2.56557e-20
1.02632e-20
7.01357e-21
2.34529e-21
1.89728e-21
5.35205e-22
5.02907e-22
1.20734e-22
1.29348e-22
2.65924e-23
3.198e-23
5.64225e-24
7.53224e-24
1.13697e-24
1.67526e-24
2.14293e-25
3.48917e-25
3.71159e-26
6.75323e-26
5.77325e-27
1.20647e-26
7.78015e-28
1.97776e-27
8.43035e-29
2.97945e-28
5.64751e-30
4.20124e-29
-3.10898e-31
-2.10081e-31
-1.79152e-13
1.20532e-09
-1.52039e-12
1.16039e-13
-1.72865e-13
-1.83297e-12
-2.73371e-13
5.92141e-15
3.0601e-10
5.77157e-10
-6.9341e-13
8.18619e-11
-2.32351e-12
-2.28792e-12
-2.66504e-12
-3.0126e-13
4.61443e-10
-3.2157e-11
2.7439e-11
9.16157e-11
4.8006e-12
5.52886e-12
-1.39873e-12
7.36431e-13
1.16441e-10
-5.74443e-12
6.11916e-11
-3.2932e-12
4.64e-12
4.26472e-12
1.19827e-13
8.98388e-13
2.53536e-11
7.18678e-14
1.11358e-11
-2.7326e-12
3.46241e-12
-6.0391e-13
1.44816e-13
1.56095e-13
5.40167e-12
1.82423e-13
1.58981e-12
-4.28533e-13
4.91747e-13
-1.02825e-13
-1.11139e-14
1.86947e-13
1.01445e-12
6.58635e-14
3.11774e-13
-4.26942e-14
9.96973e-14
8.67311e-15
8.04489e-15
4.07472e-14
1.85619e-13
2.14757e-14
7.49186e-14
1.25278e-14
3.45812e-14
1.21853e-14
5.27977e-15
1.28606e-14
3.4811e-14
8.49072e-15
2.13276e-14
8.0509e-15
1.02674e-14
4.56085e-15
1.68414e-15
3.45812e-15
7.81294e-15
3.20945e-15
5.36618e-15
2.31851e-15
2.31399e-15
1.12177e-15
4.19638e-16
8.02696e-16
1.72895e-15
8.29051e-16
1.04703e-15
5.04951e-16
4.73967e-16
2.45853e-16
9.46813e-17
1.69765e-16
3.28676e-16
1.75952e-16
1.99219e-16
1.05247e-16
9.23546e-17
5.14624e-17
2.00642e-17
3.35975e-17
6.26129e-17
3.87697e-17
3.71603e-17
2.17834e-17
1.72479e-17
1.04079e-17
4.05606e-18
6.32923e-18
1.20434e-17
8.69597e-18
6.80344e-18
4.47327e-18
3.11558e-18
2.05169e-18
7.89829e-19
1.14624e-18
2.32558e-18
1.96562e-18
1.22876e-18
9.13488e-19
5.47984e-19
3.96562e-19
1.49123e-19
2.00738e-19
4.5048e-19
4.49173e-19
2.19565e-19
1.863e-19
9.42338e-20
7.55173e-20
2.74364e-20
3.41243e-20
8.76769e-20
1.04114e-19
3.89278e-20
3.81339e-20
1.58913e-20
1.4237e-20
4.94093e-21
5.64616e-21
1.71918e-20
2.45255e-20
6.87064e-21
7.87324e-21
2.63532e-21
2.67079e-21
8.74707e-22
9.11288e-22
3.40432e-21
5.8676e-21
1.21167e-21
1.64606e-21
4.31054e-22
5.01122e-22
1.5289e-22
1.43775e-22
6.81261e-22
1.41984e-21
2.14257e-22
3.49022e-22
6.97719e-23
9.44677e-23
2.65007e-23
2.22234e-23
1.37428e-22
3.44832e-22
3.80683e-23
7.489e-23
1.12123e-23
1.79411e-23
4.57309e-24
3.37371e-24
2.7761e-23
8.31834e-23
6.79094e-24
1.61565e-23
1.7931e-24
3.43148e-24
7.87828e-25
5.04245e-25
5.55619e-24
1.96992e-23
1.21032e-24
3.469e-24
2.85434e-25
6.58067e-25
1.3556e-25
7.43349e-26
1.08695e-24
4.52652e-24
2.13486e-25
7.32184e-25
4.5078e-26
1.25469e-25
2.32338e-26
1.08093e-26
2.04684e-25
9.98199e-25
3.67738e-26
1.49968e-25
7.00908e-27
2.35132e-26
3.94134e-27
1.54599e-27
3.65012e-26
2.09139e-25
6.08726e-27
2.94485e-26
1.06023e-27
4.27644e-27
6.55594e-28
2.16014e-28
6.05563e-27
4.12539e-26
9.51025e-28
5.48426e-27
1.536e-28
7.4555e-28
1.05746e-28
2.91623e-29
9.1523e-28
7.59985e-27
1.37405e-28
9.59729e-28
2.09143e-29
1.23235e-28
1.6354e-29
3.74629e-30
1.22404e-28
1.29849e-27
1.78975e-29
1.56607e-28
2.6155e-30
1.91375e-29
2.40023e-30
4.48995e-31
1.37565e-29
2.0457e-28
2.02086e-30
2.3681e-29
2.90956e-31
2.77193e-30
3.31469e-31
4.88811e-32
1.13421e-30
2.9644e-29
1.81973e-31
3.30174e-30
2.71818e-32
3.72387e-31
4.27865e-32
4.63112e-33
2.53877e-32
3.98742e-30
9.46735e-33
4.25971e-31
1.81879e-33
4.63634e-32
5.13644e-33
3.47109e-34
-1.4283e-32
-6.93598e-34
1.45753e-35
1.35808e-35
1.08259e-14
-4.2348e-14
5.70794e-15
-2.17925e-14
1.17524e-15
-5.82717e-15
1.33241e-16
-8.16657e-16
1.15925e-17
-6.68227e-17
9.08762e-19
-4.60119e-18
6.49585e-20
-2.63464e-19
4.25145e-21
-1.24183e-20
2.57437e-22
-4.43904e-22
1.45807e-23
-7.22665e-24
7.8054e-25
5.43524e-25
3.94913e-26
7.35209e-26
1.89245e-27
5.74424e-27
8.60932e-29
3.6283e-28
3.72237e-30
2.0102e-29
1.53026e-31
1.00985e-30
5.98108e-33
4.6782e-32
2.2216e-34
2.01775e-33
7.83573e-36
8.1494e-35
2.62149e-37
3.09294e-36
8.30781e-39
1.1053e-37
2.48994e-40
3.72297e-39
7.04415e-42
1.18221e-40
1.87691e-43
3.53783e-42
4.69792e-45
9.96836e-44
1.10128e-46
2.6409e-45
2.40909e-48
6.56597e-47
4.89664e-50
1.52824e-48
9.19927e-52
3.31939e-50
1.58703e-53
6.70099e-52
2.49347e-55
1.25072e-53
3.52962e-57
2.14358e-55
4.43673e-59
3.34285e-57
4.85311e-61
4.68488e-59
4.48553e-63
5.79905e-61
3.35038e-65
6.18249e-63
2.27335e-67
5.47463e-65
1.08544e-69
3.80774e-67
2.23428e-71
1.85881e-69
1.135e-71
-1.11909e-14
-6.33703e-13
8.01219e-15
-9.82055e-14
2.45346e-15
-1.19652e-14
3.2003e-16
-1.37292e-15
2.88801e-17
-1.27906e-16
2.27225e-18
-8.68935e-18
1.62797e-19
-4.78458e-19
1.06953e-20
-2.03012e-20
6.50895e-22
-4.9266e-22
3.71285e-23
1.37702e-23
1.99153e-24
2.74287e-24
1.00484e-25
2.43981e-25
4.79004e-27
1.6835e-26
2.16246e-28
1.00147e-27
9.25773e-30
5.34767e-29
3.76125e-31
2.61536e-30
1.45056e-32
1.18507e-31
5.30932e-34
5.01066e-33
1.84334e-35
1.98589e-34
6.06548e-37
7.39898e-36
1.88941e-38
2.59595e-37
5.56381e-40
8.58443e-39
1.5462e-41
2.67618e-40
4.04689e-43
7.86273e-42
9.95176e-45
2.1754e-43
2.29277e-46
5.66067e-45
4.93197e-48
1.38294e-46
9.86448e-50
3.16482e-48
1.82516e-51
6.7641e-50
3.10395e-53
1.34495e-51
4.81208e-55
2.47538e-53
6.7274e-57
4.18892e-55
8.35746e-59
6.45905e-57
9.03745e-61
8.96322e-59
8.25289e-63
1.10011e-60
6.07301e-65
1.16429e-62
3.32984e-67
1.02216e-64
1.63879e-69
6.97528e-67
5.04303e-71
3.328e-69
2.30761e-71
9.17987e-14
-4.69077e-13
1.31353e-14
-7.3424e-14
2.60812e-15
-8.83495e-15
5.41437e-16
-9.90053e-16
5.57736e-17
-8.97376e-17
4.15639e-18
-5.69426e-18
2.99908e-19
-2.72053e-19
2.00214e-20
-7.33216e-21
1.23703e-21
3.11615e-22
7.10541e-23
6.69477e-23
3.81405e-24
6.49113e-24
1.92519e-25
4.85347e-25
9.16551e-27
3.1082e-26
4.12452e-28
1.77601e-27
1.75704e-29
9.24547e-29
7.09215e-31
4.43936e-30
2.71376e-32
1.9817e-31
9.84392e-34
8.26742e-33
3.38387e-35
3.23493e-34
1.10158e-36
1.19003e-35
3.39285e-38
4.12184e-37
9.87454e-40
1.34529e-38
2.71147e-41
4.13849e-40
7.01165e-43
1.19969e-41
1.7037e-44
3.27496e-43
3.8793e-46
8.40975e-45
8.2505e-48
2.02829e-46
1.63243e-49
4.58505e-48
2.98987e-51
9.68784e-50
5.03719e-53
1.9063e-51
7.74239e-55
3.47639e-53
1.07392e-56
5.8371e-55
1.32431e-58
8.94425e-57
1.4217e-60
1.23547e-58
1.28844e-62
1.51175e-60
9.39779e-65
1.59736e-62
5.09201e-67
1.40162e-64
1.75546e-69
9.57546e-67
1.01812e-70
4.48085e-69
3.38294e-71
1.21564e-13
-1.15462e-13
1.67701e-14
-2.09995e-14
3.02669e-15
-3.05346e-15
5.55317e-16
-3.70863e-16
5.68837e-17
-3.04695e-17
4.3856e-18
-1.57772e-18
3.22034e-19
-2.26541e-20
2.16809e-20
8.33323e-21
1.34751e-21
1.26063e-21
7.78802e-23
1.20826e-22
4.20665e-24
9.38048e-24
2.13225e-25
6.32659e-25
1.01743e-26
3.82448e-26
4.581e-28
2.10843e-27
1.94969e-29
1.07172e-28
7.85277e-31
5.06037e-30
2.99478e-32
2.23107e-31
1.08162e-33
9.21885e-33
3.69894e-35
3.57944e-34
1.19719e-36
1.30829e-35
3.66421e-38
4.50643e-37
1.05941e-39
1.46369e-38
2.88948e-41
4.48331e-40
7.42169e-43
1.29464e-41
1.79146e-44
3.52207e-43
4.05351e-46
9.01697e-45
8.57076e-48
2.16906e-46
1.68687e-49
4.89259e-48
3.07523e-51
1.03197e-49
5.16023e-53
2.02805e-51
7.90474e-55
3.69556e-53
1.0934e-56
6.20375e-55
1.34548e-58
9.52143e-57
1.44213e-60
1.31844e-58
1.30505e-62
1.61859e-60
9.50268e-65
1.71771e-62
5.13663e-67
1.51575e-64
1.76412e-69
1.04304e-66
1.54708e-70
4.93962e-69
2.98686e-71
4.36518e-14
7.14385e-15
8.19721e-15
-9.80031e-16
2.12401e-15
-2.97692e-16
3.29865e-16
-2.93734e-17
2.98949e-17
-4.9086e-20
2.4835e-18
4.40907e-19
1.88623e-19
7.93363e-20
1.31952e-20
9.5225e-21
8.50914e-22
9.23972e-22
5.08323e-23
7.71332e-23
2.82851e-24
5.708e-24
1.47217e-25
3.80936e-25
7.19067e-27
2.31862e-26
3.30441e-28
1.2976e-27
1.43131e-29
6.71772e-29
5.85138e-31
3.23223e-30
2.25976e-32
1.45094e-31
8.2479e-34
6.0948e-33
2.84533e-35
2.40117e-34
9.27518e-37
8.88734e-36
2.85544e-38
3.09403e-37
8.29486e-40
1.01391e-38
2.27104e-41
3.12845e-40
5.85144e-43
9.08851e-42
1.41611e-44
2.48485e-43
3.21139e-46
6.38841e-45
6.80381e-48
1.54247e-46
1.34165e-49
3.49132e-48
2.45059e-51
7.39023e-50
4.12045e-53
1.45805e-51
6.32565e-55
2.66908e-53
8.76942e-57
4.50529e-55
1.08136e-58
6.93741e-57
1.16104e-60
9.6384e-59
1.05203e-62
1.18779e-60
7.66506e-65
1.26567e-62
4.14208e-67
1.12136e-64
1.42151e-69
7.74392e-67
8.59248e-71
3.68252e-69
1.61888e-71
3.47241e-14
1.14835e-14
6.33595e-15
1.94269e-15
9.80068e-16
2.50403e-16
1.15263e-16
2.99942e-17
1.13391e-17
4.06052e-18
9.95137e-19
5.08532e-19
7.90099e-20
5.61441e-20
5.71721e-21
5.45709e-21
3.79986e-22
4.73318e-22
2.33447e-23
3.70761e-23
1.33271e-24
2.64548e-24
7.10041e-26
1.73058e-25
3.5426e-27
1.04332e-26
1.65964e-28
5.82212e-28
7.31538e-30
3.01871e-29
3.03825e-31
1.45893e-30
1.19016e-32
6.59016e-32
4.3998e-34
2.78847e-33
1.53531e-35
1.10717e-34
5.05641e-37
4.13072e-36
1.57104e-38
1.44948e-37
4.60172e-40
4.78662e-39
1.26937e-41
1.48794e-40
3.29302e-43
4.35356e-42
8.01992e-45
1.19846e-43
1.82951e-46
3.1016e-45
3.89802e-48
7.53727e-47
7.72874e-50
1.717e-48
1.41933e-51
3.65786e-50
2.39937e-53
7.26396e-52
3.7035e-55
1.33865e-53
5.1625e-57
2.27523e-55
6.40103e-59
3.53604e-57
6.90961e-61
4.96424e-59
6.29256e-63
6.18725e-61
4.60571e-65
6.6739e-63
2.49848e-67
5.99094e-65
8.60224e-70
4.19543e-67
3.62237e-71
2.02763e-69
7.60878e-72
1.31141e-14
3.67751e-15
2.34579e-15
8.68934e-16
3.15504e-16
1.36448e-16
3.6412e-17
1.83541e-17
3.73411e-18
2.29058e-18
3.41492e-19
2.60285e-19
2.80835e-20
2.66119e-20
2.09625e-21
2.45323e-21
1.43173e-22
2.05258e-22
9.00764e-24
1.56877e-23
5.2494e-25
1.10091e-24
2.84679e-26
7.12273e-26
1.44205e-27
4.26339e-27
6.84363e-29
2.36822e-28
3.0499e-30
1.22429e-29
1.27862e-31
5.90546e-31
5.04881e-33
2.66392e-32
1.87923e-34
1.12598e-33
6.59616e-36
4.46663e-35
2.18346e-37
1.66499e-36
6.81432e-39
5.8375e-38
2.00386e-40
1.92609e-39
5.54726e-42
5.98242e-41
1.44378e-43
1.74906e-42
3.527e-45
4.81165e-44
8.06941e-47
1.2446e-45
1.72422e-48
3.02349e-47
3.42838e-50
6.88676e-49
6.31385e-52
1.46737e-50
1.07039e-53
2.91528e-52
1.65688e-55
5.3766e-54
2.31611e-57
9.1484e-56
2.87985e-59
1.42387e-57
3.11749e-61
2.00289e-59
2.84719e-63
2.50269e-61
2.08995e-65
2.70826e-63
1.13713e-67
2.4409e-65
3.92848e-70
1.71775e-67
1.21729e-71
8.35176e-70
2.93989e-72
3.20911e-15
1.54912e-15
5.97066e-16
3.07529e-16
8.64994e-17
5.10089e-17
1.04778e-17
7.248e-18
1.11646e-18
9.1019e-19
1.05828e-19
1.0218e-19
8.99524e-21
1.0305e-20
6.91731e-22
9.39523e-22
4.85132e-23
7.79785e-23
3.12408e-24
5.92769e-24
1.85779e-25
4.14655e-25
1.02507e-26
2.67896e-26
5.26875e-28
1.60331e-27
2.53079e-29
8.91214e-29
1.13897e-30
4.61203e-30
4.81224e-32
2.22691e-31
1.91164e-33
1.00526e-32
7.14724e-35
4.24998e-34
2.51665e-36
1.68529e-35
8.34786e-38
6.27581e-37
2.60831e-39
2.19672e-38
7.67344e-41
7.23209e-40
2.12391e-42
2.24016e-41
5.52458e-44
6.52878e-43
1.34832e-45
1.78977e-44
3.08111e-47
4.61201e-46
6.57434e-49
1.11596e-47
1.3052e-50
2.53156e-49
2.39966e-52
5.37182e-51
4.06077e-54
1.06284e-52
6.27333e-56
1.95216e-54
8.75033e-58
3.30818e-56
1.08539e-59
5.12825e-58
1.17181e-61
7.18475e-60
1.06705e-63
8.94154e-62
7.8076e-66
9.63691e-64
4.23394e-68
8.65037e-66
1.45803e-70
6.06303e-68
3.64725e-72
2.93629e-70
9.9828e-73
7.91973e-16
4.92975e-16
1.46038e-16
9.7774e-17
2.19982e-17
1.64133e-17
2.78579e-18
2.37624e-18
3.07779e-19
3.01996e-19
3.01215e-20
3.40931e-20
2.63748e-21
3.44978e-21
2.08473e-22
3.15454e-22
1.49925e-23
2.62626e-23
9.87576e-25
2.00298e-24
5.99255e-26
1.40617e-25
3.36575e-27
9.12074e-27
1.75682e-28
5.48184e-28
8.55039e-30
3.06057e-29
3.89072e-31
1.59079e-30
1.65878e-32
7.71293e-32
6.63713e-34
3.49466e-33
2.49532e-35
1.48206e-34
8.82223e-37
5.89122e-36
2.93441e-38
2.19746e-37
9.18308e-40
7.69849e-39
2.7031e-41
2.53473e-40
7.47936e-43
7.84616e-42
1.94335e-44
2.28357e-43
4.73458e-46
6.24743e-45
1.0794e-47
1.6057e-46
2.2966e-49
3.87321e-48
4.54428e-51
8.755e-50
8.32335e-53
1.85037e-51
1.40255e-54
3.64515e-53
2.15659e-56
6.6638e-55
2.99254e-58
1.12361e-56
3.6908e-60
1.73251e-58
3.95978e-62
2.41355e-60
3.58128e-64
2.98573e-62
2.60133e-66
3.19759e-64
1.39983e-68
2.8512e-66
4.78267e-71
1.98456e-68
1.01281e-72
9.54296e-71
3.12479e-73
1.84775e-16
1.29537e-16
3.42478e-17
2.67515e-17
5.27842e-18
4.60612e-18
6.90296e-19
6.79908e-19
7.86398e-20
8.77403e-20
7.9169e-21
1.0026e-20
7.11911e-22
1.02498e-21
5.76979e-23
9.45917e-23
4.24723e-24
7.94117e-24
2.85839e-25
6.1031e-25
1.76868e-26
4.31525e-26
1.01103e-27
2.8179e-27
5.36056e-29
1.70465e-28
2.64515e-30
9.57698e-30
1.2181e-31
5.00775e-31
5.24656e-33
2.44179e-32
2.11733e-34
1.11216e-33
8.01666e-36
4.73889e-35
2.85029e-37
1.89148e-36
9.52158e-39
7.07976e-38
2.98907e-40
2.48714e-39
8.81654e-42
8.20569e-41
2.44208e-43
2.54344e-42
6.34617e-45
7.40726e-44
1.54507e-46
2.02645e-45
3.51737e-48
5.20493e-47
7.46758e-50
1.25394e-48
1.47337e-51
2.82924e-50
2.68905e-53
5.96548e-52
4.51204e-55
1.17179e-53
6.90353e-57
2.13494e-55
9.52527e-59
3.58581e-57
1.16726e-60
5.50471e-59
1.24338e-62
7.63097e-61
1.11569e-64
9.38894e-63
8.035e-67
9.99576e-65
4.28476e-69
8.85616e-67
1.45027e-71
6.12265e-69
2.62755e-73
2.92369e-71
9.16683e-74
3.99322e-17
3.03222e-17
7.54613e-18
6.50461e-18
1.19024e-18
1.15381e-18
1.5986e-19
1.74229e-19
1.86983e-20
2.28963e-20
1.93045e-21
2.65689e-21
1.77818e-22
2.75331e-22
1.47446e-23
2.57215e-23
1.10898e-24
2.1833e-24
7.61471e-26
1.69471e-25
4.79983e-27
1.20911e-26
2.79057e-28
7.96101e-28
1.50243e-29
4.85289e-29
7.51618e-31
2.746e-30
3.50361e-32
1.44553e-31
1.52526e-33
7.0928e-33
6.21257e-35
3.24937e-34
2.37085e-36
1.39192e-35
8.48547e-38
5.58227e-37
2.85009e-39
2.09822e-38
8.98608e-41
7.3977e-40
2.65931e-42
2.448e-41
7.38331e-44
7.60594e-43
1.92148e-45
2.21903e-44
4.68097e-47
6.07799e-46
1.06542e-48
1.56211e-47
2.25973e-50
3.7636e-49
4.4507e-52
8.48782e-51
8.10265e-54
1.78791e-52
1.35512e-55
3.50675e-54
2.06498e-57
6.37634e-56
2.8354e-59
1.06828e-57
3.45501e-61
1.63503e-59
3.65667e-63
2.2586e-61
3.25762e-65
2.76776e-63
2.32772e-67
2.9334e-65
1.23092e-69
2.58616e-67
4.13028e-72
1.77849e-69
6.30867e-74
8.44647e-72
2.52941e-74
8.07184e-18
6.57381e-18
1.56235e-18
1.45188e-18
2.52356e-19
2.64472e-19
3.47191e-20
4.08368e-20
4.15739e-21
5.46821e-21
4.3905e-22
6.4501e-22
4.13322e-23
6.78307e-23
3.49938e-24
6.42169e-24
2.68449e-25
5.51701e-25
1.87785e-26
4.32927e-26
1.20436e-27
3.11927e-27
7.11489e-29
2.07221e-28
3.88712e-30
1.27354e-29
1.97059e-31
7.26073e-31
9.29603e-33
3.84887e-32
4.09017e-34
1.90075e-33
1.68166e-35
8.75972e-35
6.47023e-37
3.77285e-36
2.3321e-38
1.52058e-37
7.87995e-40
5.74063e-39
2.49684e-41
2.03181e-40
7.41882e-43
6.74592e-42
2.06622e-44
2.1018e-43
5.38958e-46
6.14581e-45
1.31492e-47
1.68628e-46
2.99497e-49
4.33924e-48
6.35196e-51
1.04624e-49
1.25008e-52
2.36016e-51
2.27235e-54
4.97064e-53
3.79179e-56
9.74312e-55
5.76073e-58
1.76971e-56
7.88049e-60
2.96054e-58
9.55986e-62
4.52255e-60
1.00659e-63
6.23303e-62
8.91573e-66
7.61779e-64
6.33067e-68
8.04957e-66
3.32542e-70
7.07373e-68
1.10821e-72
4.84801e-70
1.3844e-74
2.29465e-72
6.56754e-75
1.54652e-18
1.34616e-18
3.0608e-19
3.03536e-19
5.05455e-20
5.64866e-20
7.10643e-21
8.89527e-21
8.68953e-22
1.21217e-21
9.36458e-23
1.45258e-22
8.99006e-24
1.5497e-23
7.75593e-25
1.48657e-24
6.05761e-26
1.29257e-25
4.31007e-27
1.02541e-26
2.80874e-28
7.46146e-28
1.68415e-29
5.00143e-29
9.32823e-31
3.09897e-30
4.78877e-32
1.78005e-31
2.28496e-33
9.50108e-33
1.01573e-34
4.72188e-34
4.21454e-36
2.18882e-35
1.63472e-37
9.47769e-37
5.93391e-39
3.83831e-38
2.01727e-40
1.45537e-39
6.42511e-42
5.1709e-41
1.91733e-43
1.72257e-42
5.35861e-45
5.38226e-44
1.40153e-46
1.57755e-45
3.42603e-48
4.33669e-47
7.81292e-50
1.11757e-48
1.65788e-51
2.69731e-50
3.26219e-53
6.08842e-52
5.92484e-55
1.28252e-53
9.87168e-57
2.51347e-55
1.49654e-58
4.563e-57
2.04156e-60
7.62687e-59
2.46835e-62
1.16375e-60
2.589e-64
1.60164e-62
2.28338e-66
1.95435e-64
1.61393e-68
2.0616e-66
8.43804e-71
1.80858e-68
2.79903e-73
1.23753e-70
2.77915e-75
5.84981e-73
1.59509e-75
2.83354e-19
2.63195e-19
5.7127e-20
6.01513e-20
9.61636e-21
1.13776e-20
1.37784e-21
1.82119e-21
1.71597e-22
2.52013e-22
1.88256e-23
3.06324e-23
1.83885e-24
3.31151e-24
1.6132e-25
3.21568e-25
1.28037e-26
2.82761e-26
9.25056e-28
2.26632e-27
6.1162e-29
1.66457e-28
3.71746e-30
1.12528e-29
2.08521e-31
7.0266e-31
1.08301e-32
4.06474e-32
5.22292e-34
2.18369e-33
2.34429e-35
1.09175e-34
9.81206e-37
5.08852e-36
3.83547e-38
2.21439e-37
1.40179e-39
9.0087e-39
4.79397e-41
3.4298e-40
1.53474e-42
1.22302e-41
4.59968e-44
4.08717e-43
1.29011e-45
1.28055e-44
3.3838e-47
3.76192e-46
8.28926e-49
1.03609e-47
1.89307e-50
2.67391e-49
4.02025e-52
6.46055e-51
7.91194e-54
1.45932e-52
1.43636e-55
3.07516e-54
2.3908e-57
6.02703e-56
3.6189e-59
1.09392e-57
4.92692e-61
1.82762e-59
5.94248e-63
2.78693e-61
6.21589e-65
3.83279e-63
5.46613e-67
4.67336e-65
3.85219e-69
4.92667e-67
2.00843e-71
4.3203e-69
6.64613e-74
2.95621e-71
4.43246e-76
1.39822e-73
3.63763e-76
4.99219e-20
4.94809e-20
1.02093e-20
1.13876e-20
1.74583e-21
2.17888e-21
2.54162e-22
3.53274e-22
3.2153e-23
4.9512e-23
3.58208e-24
6.0921e-24
3.55191e-25
6.66223e-25
3.16194e-26
6.53962e-26
2.54527e-27
5.80823e-27
1.86401e-28
4.69829e-28
1.24841e-29
3.47996e-29
7.6807e-31
2.37063e-30
4.35759e-32
1.49068e-31
2.28727e-33
8.67859e-33
1.11385e-34
4.68975e-34
5.04411e-36
2.35727e-35
2.12827e-37
1.10411e-36
8.37955e-39
4.82641e-38
3.08226e-40
1.97151e-39
1.06004e-41
7.53348e-41
3.41015e-43
2.69509e-42
1.02627e-44
9.03233e-44
2.88835e-46
2.83686e-45
7.59669e-48
8.3512e-47
1.86489e-49
2.30393e-48
4.26531e-51
5.95383e-50
9.06625e-53
1.43996e-51
1.78487e-54
3.25482e-53
3.23973e-56
6.86153e-55
5.38894e-58
1.34501e-56
8.14837e-60
2.44115e-58
1.10779e-61
4.0778e-60
1.33392e-63
6.21686e-62
1.39284e-65
8.5484e-64
1.22273e-67
1.0423e-65
8.60434e-70
1.09913e-67
4.48144e-72
9.64606e-70
1.4824e-74
6.61004e-72
4.98289e-77
3.13363e-74
7.8662e-77
8.48804e-21
8.99237e-21
1.75325e-21
2.07113e-21
3.03514e-22
3.99033e-22
4.47605e-23
6.53033e-23
5.73625e-24
9.24395e-24
6.47345e-25
1.14872e-24
6.50117e-26
1.2683e-25
5.86009e-27
1.2563e-26
4.77483e-28
1.1253e-27
3.53802e-29
9.17439e-29
2.39629e-30
6.84454e-30
1.49008e-31
4.69351e-31
8.53907e-33
2.96917e-32
4.52429e-34
1.73815e-33
2.22242e-35
9.43995e-35
1.01448e-36
4.7668e-36
4.31156e-38
2.2421e-37
1.70869e-39
9.83846e-39
6.32182e-41
4.03278e-40
2.18536e-42
1.54578e-41
7.06167e-44
5.54525e-43
2.13325e-45
1.8629e-44
6.02287e-47
5.86301e-46
1.58812e-48
1.72893e-47
3.90628e-50
4.77646e-49
8.94686e-52
1.23569e-50
1.9034e-53
2.991e-52
3.74868e-55
6.76451e-54
6.80399e-57
1.42654e-55
1.1313e-58
2.79686e-57
1.70938e-60
5.07664e-59
2.32183e-62
8.48075e-61
2.79306e-64
1.29312e-62
2.91382e-66
1.77866e-64
2.55637e-68
2.17016e-66
1.79867e-70
2.29118e-68
9.37359e-73
2.01458e-70
3.10532e-75
1.38441e-72
4.51489e-78
6.58881e-75
1.63559e-77
1.3962e-21
1.58651e-21
2.90041e-22
3.63431e-22
5.06573e-23
7.01846e-23
7.54528e-24
1.15527e-23
9.76948e-25
1.64696e-24
1.11406e-25
2.06198e-25
1.13058e-26
2.29362e-26
1.0297e-27
2.28829e-27
8.47571e-29
2.06367e-28
6.34261e-30
1.69316e-29
4.33691e-31