/*--------------------------------*- C++ -*----------------------------------*\
  =========                 |
  \\      /  F ield         | OpenFOAM: The Open Source CFD Toolbox
   \\    /   O peration     | Website:  https://openfoam.org
    \\  /    A nd           | Version:  7
     \\/     M anipulation  |
\*---------------------------------------------------------------------------*/
FoamFile
{
    version     2.0;
    format      ascii;
    class       volScalarField;
    location    "0.015";
    object      internalE;
}
// * * * * * * * * * * * * * * * * * * * * * * * * * * * * * * * * * * * * * //

dimensions      [1 -1 -2 0 0 0 0];

internalField   nonuniform List<scalar> 
250
(
0.281909
0.30684
0.301468
0.28628
0.294298
0.272573
0.313932
0.295459
0.296129
0.276843
0.280615
0.281151
0.2787
0.297174
0.287938
0.283232
0.309417
0.306602
0.297337
0.315675
0.325536
0.284538
0.297938
0.290265
0.290736
0.319192
0.286991
0.302957
0.290928
0.281747
0.301981
0.303029
0.286624
0.283565
0.30772
0.294966
0.322264
0.310925
0.292218
0.283906
0.290401
0.281215
0.286504
0.302868
0.290532
0.309184
0.299076
0.305383
0.301263
0.269164
0.307488
0.28379
0.317231
0.320334
0.307208
0.296093
0.277692
0.297413
0.296038
0.28976
0.273467
0.297198
0.302532
0.289141
0.302573
0.301469
0.290032
0.276731
0.288844
0.276596
0.284851
0.311092
0.296789
0.28442
0.300223
0.284785
0.315131
0.314868
0.285109
0.30084
0.320064
0.30318
0.277268
0.280742
0.301438
0.28836
0.303662
0.303357
0.305172
0.289872
0.29961
0.30273
0.304572
0.285584
0.305292
0.292395
0.307525
0.311263
0.298452
0.321125
0.314608
0.278797
0.295611
0.286087
0.327173
0.289971
0.304656
0.303299
0.278175
0.280709
0.300833
0.290662
0.29983
0.319075
0.281086
0.299865
0.283307
0.286817
0.289203
0.294488
0.306338
0.306012
0.285894
0.282339
0.307837
0.292841
0.292926
0.294828
0.287278
0.298752
0.28993
0.262812
0.279633
0.287191
0.315791
0.293867
0.31048
0.27825
0.306289
0.298861
0.293176
0.295373
0.315332
0.282338
0.287294
0.300778
0.288658
0.289907
0.299847
0.266369
0.296295
0.300358
0.259611
0.314573
0.302807
0.289002
0.28383
0.300766
0.257608
0.304902
0.329211
0.297939
0.30467
0.298427
0.29762
0.315639
0.312411
0.306121
0.278257
0.290974
0.277486
0.314944
0.279257
0.304377
0.314544
0.296357
0.328944
0.295458
0.315708
0.286808
0.291867
0.285338
0.29165
0.307282
0.294217
0.290534
0.272152
0.285202
0.283385
0.304182
0.302916
0.286895
0.335093
0.271456
0.303117
0.294449
0.26173
0.281654
0.292405
0.313483
0.27991
0.280756
0.297583
0.30053
0.301286
0.290598
0.263738
0.287172
0.272941
0.316109
0.292713
0.295601
0.293556
0.29552
0.288211
0.298309
0.285304
0.315398
0.294393
0.292137
0.277774
0.274965
0.32123
0.298783
0.301739
0.326521
0.286482
0.300935
0.281892
0.297993
0.328856
0.290583
0.3049
0.300331
0.292746
0.290482
0.296916
0.293827
0.300423
0.283828
0.273427
0.297827
0.306681
0.31584
0.264063
0.284155
0.300062
0.319533
0.325732
0.312741
)
;

boundaryField
{
    sides
    {
        type            symmetry;
    }
    empty
    {
        type            empty;
    }
    procBoundary3to2
    {
        type            processor;
        value           uniform 0.283458;
    }
}


// ************************************************************************* //
