/*--------------------------------*- C++ -*----------------------------------*\
  =========                 |
  \\      /  F ield         | OpenFOAM: The Open Source CFD Toolbox
   \\    /   O peration     | Website:  https://openfoam.org
    \\  /    A nd           | Version:  7
     \\/     M anipulation  |
\*---------------------------------------------------------------------------*/
FoamFile
{
    version     2.0;
    format      ascii;
    class       volScalarField;
    location    "0.009";
    object      iDof;
}
// * * * * * * * * * * * * * * * * * * * * * * * * * * * * * * * * * * * * * //

dimensions      [0 -3 0 0 0 0 0];

internalField   nonuniform List<scalar> 
654
(
1.24967977e+20
2.291079578e+20
1.666239693e+20
1.666239693e+20
1.874519654e+20
2.291079578e+20
2.082799616e+20
2.082799616e+20
1.666239693e+20
1.874519654e+20
3.332479385e+20
1.874519654e+20
1.457959731e+20
1.666239693e+20
2.499359539e+20
2.499359539e+20
1.666239693e+20
1.874519654e+20
2.915919462e+20
2.915919462e+20
1.666239693e+20
2.499359539e+20
1.874519654e+20
1.666239693e+20
2.707639501e+20
1.041399808e+20
1.874519654e+20
1.041399808e+20
2.082799616e+20
1.041399808e+20
2.291079578e+20
2.707639501e+20
2.082799616e+20
1.24967977e+20
1.666239693e+20
2.707639501e+20
2.707639501e+20
1.874519654e+20
2.291079578e+20
2.499359539e+20
1.457959731e+20
2.082799616e+20
2.707639501e+20
2.707639501e+20
2.082799616e+20
1.24967977e+20
1.666239693e+20
1.24967977e+20
2.291079578e+20
2.915919462e+20
1.24967977e+20
2.707639501e+20
2.499359539e+20
1.041399808e+20
3.124199424e+20
2.707639501e+20
1.457959731e+20
2.707639501e+20
1.457959731e+20
3.124199424e+20
1.24967977e+20
1.457959731e+20
2.707639501e+20
1.457959731e+20
2.082799616e+20
2.499359539e+20
1.457959731e+20
2.707639501e+20
2.082799616e+20
2.915919462e+20
2.499359539e+20
2.499359539e+20
2.082799616e+20
1.666239693e+20
2.291079578e+20
8.331198464e+19
2.707639501e+20
1.666239693e+20
3.540759347e+20
8.331198464e+19
2.082799616e+20
2.291079578e+20
1.874519654e+20
1.24967977e+20
2.082799616e+20
2.291079578e+20
3.332479385e+20
2.707639501e+20
8.331198464e+19
1.041399808e+20
1.041399808e+20
2.082799616e+20
3.749039309e+20
2.291079578e+20
2.499359539e+20
3.540759347e+20
1.24967977e+20
2.082799616e+20
1.874519654e+20
4.373879193e+20
1.24967977e+20
1.457959731e+20
2.707639501e+20
1.874519654e+20
1.666239693e+20
1.041399808e+20
1.874519654e+20
2.291079578e+20
2.291079578e+20
2.499359539e+20
2.082799616e+20
1.666239693e+20
1.24967977e+20
2.291079578e+20
1.874519654e+20
2.499359539e+20
2.499359539e+20
1.874519654e+20
8.331198464e+19
1.874519654e+20
1.457959731e+20
1.666239693e+20
1.666239693e+20
1.24967977e+20
3.124199424e+20
2.082799616e+20
1.666239693e+20
1.457959731e+20
1.666239693e+20
2.499359539e+20
1.457959731e+20
2.082799616e+20
1.666239693e+20
2.499359539e+20
2.499359539e+20
4.790439117e+20
1.666239693e+20
1.666239693e+20
1.666239693e+20
2.291079578e+20
1.874519654e+20
2.915919462e+20
2.082799616e+20
2.707639501e+20
1.041399808e+20
1.041399808e+20
3.540759347e+20
1.457959731e+20
1.24967977e+20
2.915919462e+20
8.331198464e+19
1.874519654e+20
1.666239693e+20
1.457959731e+20
1.666239693e+20
2.082799616e+20
2.082799616e+20
1.041399808e+20
1.874519654e+20
1.874519654e+20
1.666239693e+20
1.24967977e+20
2.291079578e+20
2.499359539e+20
4.165599232e+20
1.24967977e+20
3.332479385e+20
1.874519654e+20
2.499359539e+20
1.041399808e+20
1.666239693e+20
2.499359539e+20
2.082799616e+20
1.457959731e+20
2.082799616e+20
1.24967977e+20
2.291079578e+20
2.499359539e+20
2.915919462e+20
1.666239693e+20
1.666239693e+20
1.874519654e+20
1.24967977e+20
1.666239693e+20
2.291079578e+20
2.291079578e+20
1.874519654e+20
2.291079578e+20
1.874519654e+20
1.24967977e+20
2.082799616e+20
2.082799616e+20
1.041399808e+20
2.499359539e+20
2.707639501e+20
1.457959731e+20
8.331198464e+19
2.707639501e+20
1.666239693e+20
1.666239693e+20
1.874519654e+20
2.291079578e+20
1.666239693e+20
1.666239693e+20
2.915919462e+20
2.915919462e+20
1.666239693e+20
1.457959731e+20
2.915919462e+20
1.874519654e+20
1.24967977e+20
2.291079578e+20
2.915919462e+20
2.499359539e+20
2.291079578e+20
1.041399808e+20
3.332479385e+20
2.082799616e+20
2.082799616e+20
1.457959731e+20
1.666239693e+20
1.666239693e+20
1.24967977e+20
1.457959731e+20
1.874519654e+20
1.24967977e+20
2.499359539e+20
1.041399808e+20
3.124199424e+20
1.666239693e+20
1.457959731e+20
2.082799616e+20
1.457959731e+20
2.291079578e+20
1.874519654e+20
2.082799616e+20
2.915919462e+20
1.874519654e+20
1.666239693e+20
1.24967977e+20
1.666239693e+20
2.291079578e+20
2.499359539e+20
1.457959731e+20
2.707639501e+20
1.874519654e+20
2.082799616e+20
1.457959731e+20
1.874519654e+20
2.915919462e+20
1.24967977e+20
1.874519654e+20
1.874519654e+20
1.666239693e+20
3.124199424e+20
1.666239693e+20
1.457959731e+20
2.499359539e+20
2.291079578e+20
1.24967977e+20
8.331198464e+19
2.082799616e+20
2.082799616e+20
1.457959731e+20
2.499359539e+20
2.291079578e+20
2.082799616e+20
2.499359539e+20
1.041399808e+20
1.874519654e+20
1.041399808e+20
2.291079578e+20
2.499359539e+20
1.874519654e+20
1.041399808e+20
1.874519654e+20
2.082799616e+20
1.666239693e+20
2.082799616e+20
2.291079578e+20
1.457959731e+20
2.915919462e+20
1.874519654e+20
1.666239693e+20
1.24967977e+20
1.666239693e+20
1.457959731e+20
2.707639501e+20
2.499359539e+20
2.082799616e+20
2.291079578e+20
2.082799616e+20
2.499359539e+20
1.874519654e+20
1.666239693e+20
1.666239693e+20
1.874519654e+20
1.457959731e+20
1.041399808e+20
1.457959731e+20
1.457959731e+20
1.24967977e+20
1.24967977e+20
2.707639501e+20
2.915919462e+20
1.457959731e+20
1.24967977e+20
3.124199424e+20
1.24967977e+20
2.707639501e+20
2.082799616e+20
3.124199424e+20
3.749039309e+20
2.707639501e+20
2.707639501e+20
2.082799616e+20
2.499359539e+20
1.666239693e+20
3.124199424e+20
2.291079578e+20
2.082799616e+20
2.915919462e+20
2.291079578e+20
1.874519654e+20
2.291079578e+20
1.457959731e+20
1.874519654e+20
1.874519654e+20
2.499359539e+20
2.499359539e+20
1.666239693e+20
2.291079578e+20
2.082799616e+20
2.707639501e+20
1.041399808e+20
2.499359539e+20
6.248398848e+19
1.874519654e+20
1.666239693e+20
8.331198464e+19
1.666239693e+20
1.457959731e+20
1.666239693e+20
1.457959731e+20
2.082799616e+20
3.749039309e+20
1.874519654e+20
1.041399808e+20
1.666239693e+20
1.457959731e+20
1.24967977e+20
1.874519654e+20
2.499359539e+20
1.24967977e+20
2.707639501e+20
1.457959731e+20
1.666239693e+20
8.331198464e+19
2.707639501e+20
1.874519654e+20
1.457959731e+20
2.082799616e+20
2.707639501e+20
1.457959731e+20
2.499359539e+20
2.915919462e+20
1.666239693e+20
1.666239693e+20
2.082799616e+20
2.915919462e+20
1.24967977e+20
1.874519654e+20
1.874519654e+20
2.707639501e+20
3.540759347e+20
1.457959731e+20
1.041399808e+20
3.124199424e+20
1.874519654e+20
2.291079578e+20
1.24967977e+20
2.082799616e+20
1.457959731e+20
2.499359539e+20
1.666239693e+20
2.291079578e+20
1.041399808e+20
1.874519654e+20
1.24967977e+20
1.874519654e+20
1.457959731e+20
1.24967977e+20
2.082799616e+20
1.041399808e+20
2.707639501e+20
2.707639501e+20
2.291079578e+20
2.707639501e+20
1.24967977e+20
2.082799616e+20
1.041399808e+20
2.291079578e+20
2.499359539e+20
1.874519654e+20
2.082799616e+19
1.874519654e+20
1.874519654e+20
2.291079578e+20
1.24967977e+20
1.874519654e+20
2.707639501e+20
1.666239693e+20
1.24967977e+20
1.24967977e+20
2.707639501e+20
2.915919462e+20
2.499359539e+20
2.915919462e+20
2.082799616e+20
1.24967977e+20
1.041399808e+20
2.499359539e+20
1.24967977e+20
2.291079578e+20
2.499359539e+20
1.874519654e+20
1.874519654e+20
3.332479385e+20
2.291079578e+20
1.666239693e+20
2.499359539e+20
1.874519654e+20
2.291079578e+20
2.499359539e+20
2.499359539e+20
2.707639501e+20
1.874519654e+20
2.082799616e+20
2.291079578e+20
1.874519654e+20
5.225464392e+20
5.471851053e+20
4.662084805e+20
5.761540799e+20
6.661546615e+20
8.007095532e+20
5.666674338e+20
5.268291436e+20
4.421957139e+20
7.126612706e+20
1.46313003e+20
6.103218482e+20
3.602520079e+20
3.841027201e+20
3.86799481e+20
5.410199687e+20
6.102572368e+20
5.487803583e+20
5.527446424e+20
4.454132941e+20
2.508222908e+20
3.788204574e+20
2.119129457e+20
5.974931202e+20
3.223329011e+20
3.895343772e+20
4.576929273e+20
5.048779296e+20
5.748544281e+20
4.899546236e+20
3.762334362e+20
2.315013908e+20
3.390607133e+20
3.200855999e+20
4.512660609e+20
4.544567734e+20
3.923082237e+20
3.29268215e+20
4.200859282e+20
3.786013e+20
1.881167181e+20
2.525469716e+20
1.907216512e+20
2.987465603e+20
3.867994813e+20
4.760975725e+20
3.923082237e+20
4.170730723e+20
4.421957142e+20
5.790372828e+20
2.717241484e+20
2.104558097e+20
2.542955348e+20
2.987465599e+20
3.008440406e+20
4.111751757e+20
4.141031244e+20
3.512194288e+20
3.316467852e+20
4.454132945e+20
1.254111454e+20
1.683646477e+20
2.966781241e+20
2.133904002e+20
4.297772014e+20
1.298447925e+20
3.923082237e+20
3.512194293e+20
4.200859282e+20
4.676839589e+20
1.46313003e+20
2.104558098e+20
1.271477675e+20
1.707123199e+20
1.719108803e+20
3.24611981e+20
2.179490132e+20
2.853657863e+20
1.989880713e+20
3.563306353e+20
1.881167181e+20
1.473190668e+20
2.542955348e+20
1.4937328e+20
2.578663208e+20
1.514855911e+20
2.615388156e+20
4.170730723e+20
2.432076426e+20
2.449773118e+20
2.926260061e+20
1.683646478e+20
2.119129458e+20
3.627636801e+20
2.148886006e+20
1.082039937e+20
3.051286184e+20
2.195121433e+20
3.758663568e+20
3.340599706e+20
3.135278635e+20
1.262734858e+20
2.119129457e+20
2.133904001e+20
1.074443003e+20
1.514855911e+20
2.397439143e+20
2.414633575e+20
3.537565711e+20
1.781653177e+20
2.926260059e+20
1.683646478e+20
2.119129458e+20
1.2803424e+20
2.578663207e+20
2.380487862e+20
2.179490139e+20
2.195121447e+20
2.432076438e+20
2.449773128e+20
1.254111454e+20
1.683646482e+20
1.695303572e+20
2.347294401e+20
8.595543987e+19
3.029711819e+20
1.307694076e+20
1.53658499e+20
2.874272128e+20
1.55894653e+20
1.6721486e+20
1.473190659e+20
2.754868275e+20
3.414246389e+20
1.504220205e+20
2.164079869e+20
1.307694072e+20
1.097560715e+20
3.095369984e+20
1.781653164e+20
1.254111461e+20
2.735925533e+20
2.331042402e+20
2.347294409e+20
2.363774624e+20
2.380487872e+20
1.743592108e+20
1.975609301e+20
1.547685003e+20
2.672479765e+20
1.463130028e+20
1.894102292e+20
1.48339063e+20
1.493732806e+20
8.595544028e+19
1.947671896e+20
2.397439148e+20
1.097560707e+20
1.547684992e+20
1.113533235e+20
1.254111452e+20
2.946381323e+20
1.907216498e+20
2.133903993e+20
6.446658021e+19
1.731263895e+20
1.307694081e+20
1.975609301e+20
2.210978576e+20
2.004359824e+20
2.508222905e+20
2.315013913e+20
2.966781259e+20
1.280342396e+20
2.363774592e+20
1.947671882e+20
3.705133203e+20
1.975609287e+20
1.989880718e+20
8.908265883e+19
2.299204345e+20
2.315013913e+20
1.907216511e+20
1.707123206e+20
1.933997406e+20
2.380487856e+20
2.179490135e+20
1.756097144e+20
1.989880704e+20
2.672479784e+20
8.360743015e+19
2.104558102e+20
2.966781239e+20
2.774075191e+20
1.719108806e+20
1.514855919e+20
2.397439148e+20
1.536585001e+20
1.547685003e+20
2.004359824e+20
2.508222905e+20
1.894102279e+20
3.178694185e+20
2.987465611e+20
1.933997406e+20
1.947671882e+20
1.307694081e+20
1.317072867e+20
2.210978576e+20
1.55894653e+20
1.254111452e+20
1.68364647e+20
1.907216511e+20
1.707123206e+20
)
;

boundaryField
{
    flow
    {
        type            zeroGradient;
    }
    obstacle
    {
        type            calculated;
        value           nonuniform List<scalar> 10(200.1700445 211.0173292 375.9921835 654.4823227 651.0372352 152.7085267 108.9515654 233.6444085 2.225073859e-308 105.875996);
    }
    frontAndBack
    {
        type            empty;
    }
    procBoundary0to1
    {
        type            processor;
        value           nonuniform List<scalar> 
21
(
4.711119443e+20
6.730170638e+20
5.608475528e+20
3.589424338e+20
4.711119443e+20
5.384136515e+20
3.365085317e+20
3.365085317e+20
2.467729234e+20
4.262441401e+20
2.692068253e+20
3.813763373e+20
2.916407266e+20
2.916407266e+20
1.794712177e+20
2.916407266e+20
2.467729225e+20
2.019051199e+20
3.140746309e+20
1.570373143e+20
2.467729243e+20
)
;
    }
    procBoundary0to2
    {
        type            processor;
        value           nonuniform List<scalar> 
31
(
2.499359539e+20
1.666239693e+20
1.874519654e+20
2.707639501e+20
2.291079578e+20
1.666239693e+20
1.24967977e+20
2.291079578e+20
8.331198464e+19
2.499359539e+20
2.707639501e+20
1.457959731e+20
3.332479385e+20
1.874519654e+20
1.666239693e+20
2.499359539e+20
1.457959731e+20
2.915919462e+20
1.666239693e+20
1.666239693e+20
2.578663208e+20
2.164079869e+20
2.179490119e+20
1.536585001e+20
2.653174291e+20
2.449773118e+20
1.045092877e+20
8.418232409e+19
2.331042402e+20
2.578663208e+20
1.920513594e+20
)
;
    }
}


// ************************************************************************* //
