/*--------------------------------*- C++ -*----------------------------------*\
  =========                 |
  \\      /  F ield         | OpenFOAM: The Open Source CFD Toolbox
   \\    /   O peration     | Website:  https://openfoam.org
    \\  /    A nd           | Version:  7
     \\/     M anipulation  |
\*---------------------------------------------------------------------------*/
FoamFile
{
    version     2.0;
    format      ascii;
    class       volScalarField;
    location    "0.009";
    object      internalT;
}
// * * * * * * * * * * * * * * * * * * * * * * * * * * * * * * * * * * * * * //

dimensions      [1 2 -2 0 0 0 0];

internalField   nonuniform List<scalar> 
654
(
296.1424453
294.6745435
295.7393136
296.3963631
294.6362456
297.7090302
297.6679677
297.2560243
297.2267965
296.4567732
297.5559224
298.3067535
299.0447301
298.7499434
303.9725819
303.1675997
306.6498703
317.1182054
345.1269117
430.5983758
301.3186079
304.0610741
302.3529512
302.07957
299.574722
299.6168336
299.8876756
299.7041123
299.601649
300.8002166
301.8624351
299.0095123
299.4644304
300.5153854
299.6059057
302.0798337
307.4441982
321.8201553
349.7936504
418.8781808
301.0477077
300.3215146
300.1544411
301.1187142
301.502443
300.4642304
300.1813281
300.1432548
298.8691689
300.4300481
301.2119698
302.1258732
303.1970008
304.274167
304.1221484
307.9302768
312.0670415
325.1741286
349.6755778
400.4436726
302.1160315
300.9390345
300.2871621
299.9042511
300.5261622
301.7731376
300.618748
300.0037479
302.1826332
299.6325364
301.4479888
300.6575124
298.4077799
299.8943311
300.0927505
302.4038095
308.3794309
318.7139441
334.6975033
368.3973354
300.5849777
299.7780688
300.0954754
302.3997155
302.1046757
303.1595857
302.9946628
303.2959778
302.5429965
302.1092638
299.5451768
299.4317479
301.7171324
303.3943714
302.1448271
303.2061643
304.6122423
313.4438158
327.326252
352.5648145
301.3187737
302.8801457
302.7178532
302.3138996
300.8745745
299.2591256
298.3202742
297.6135361
298.3568462
299.2258601
299.2682494
299.8279367
299.6659119
298.7543736
299.4516163
302.3080815
306.0251093
312.0920283
323.2718534
339.6902237
298.5718668
299.7335406
301.0164898
300.361618
299.7065399
299.7693228
300.9539739
301.250091
299.7746791
299.0874964
298.8665743
298.3645798
300.3969519
300.3545536
299.6700871
298.9982145
302.6738126
304.3547511
311.1260653
325.3662403
297.2290585
297.3680381
298.7236098
298.3216997
298.7134511
299.727303
299.3711884
298.7667064
298.2090708
297.6408395
298.1659262
298.5686533
298.3255306
297.20336
296.9052469
301.523649
301.7021915
305.3154162
308.5749598
318.9873393
299.2343622
298.6740371
298.2709397
298.2845519
296.8633284
296.0397448
295.3144835
295.6761357
298.3696463
299.0932663
299.5527059
298.566153
299.1295862
301.7074048
304.1212543
306.3507944
304.4241394
306.3333323
308.1314521
311.5268666
299.9631804
298.7387747
300.2378183
299.0840862
300.8751283
301.0520997
300.0768083
300.022067
297.6767253
298.2432575
301.0139208
301.8178967
301.4847391
301.5728628
300.9288806
301.6966839
301.7165308
303.8575877
306.8065499
309.8271899
299.4094305
299.9142624
299.3551853
299.8674084
299.5929374
299.2838087
299.949848
299.6738497
300.5400778
297.6723204
296.7601797
296.1023823
295.6619653
295.9301907
298.0351682
298.4537019
298.93051
300.817674
302.3591206
302.6781838
301.0395631
300.7662054
300.5455673
300.422308
302.1156249
301.8103947
302.9836273
303.937015
304.0335814
304.0068645
301.7671829
301.3779801
301.2294985
301.7146488
302.6715615
301.3492376
302.3472348
301.9565317
307.6951877
307.6007083
298.5009092
300.6289394
300.3039396
300.7990863
299.1336397
299.124495
298.7263055
299.2880438
298.8202132
300.8767139
302.8384294
303.2646294
304.4088341
302.9926887
302.9551202
301.5763004
301.9205183
302.7886453
305.4396961
308.811029
298.5465884
295.2452909
297.1611704
298.3695833
300.3725523
302.3990443
302.4641351
301.9827966
303.1287301
303.931797
302.002554
302.8427307
303.7690018
302.4153133
302.6587483
303.900572
301.1425896
301.307541
302.3428037
301.8614092
300.2568633
302.1970668
300.080123
299.4049921
298.787652
298.9929318
298.741705
297.5077477
298.9119206
297.5206654
298.1335771
297.7844831
296.195008
296.0630208
296.7455125
299.0552907
300.0374205
300.9612831
300.8846104
301.9957372
303.1966823
302.3710123
302.1396923
301.5949974
300.8094863
301.8085928
302.4426125
302.3740302
302.849666
301.6191383
302.5893079
300.9383583
302.1788386
303.5488518
304.8715381
304.8696836
303.6627565
302.7247759
303.4072415
303.1995792
300.2549109
301.9985794
302.5949659
303.1134706
302.9584594
301.5212547
302.1144203
300.294226
300.2508816
302.3658803
301.0106593
301.7012992
301.4653902
301.0714069
298.1173754
297.1127484
299.2383802
300.6905408
301.4566661
303.095843
300.4199453
297.477746
297.8011606
297.9034608
297.7594258
299.0051881
300.5755073
300.1979987
299.263714
299.1420635
300.2418974
300.7627079
300.6359721
300.4107797
301.6117151
304.1652488
301.9580684
303.8566963
304.3901747
306.4198022
302.3550709
302.2815964
301.9637374
300.0841864
298.7500311
297.0447971
296.0750855
296.9539658
298.0605523
298.7497726
297.8632376
298.0204225
298.5173651
298.0800567
298.753984
302.2120464
301.8945131
301.6481065
303.6707924
303.43516
300.5473491
300.2718623
298.0942945
300.0001053
300.153701
301.6864895
303.4643112
304.5182597
304.5228334
304.962852
305.2628418
304.4648509
303.719427
302.7852649
303.0713717
299.8909622
301.8244069
300.4049872
299.6255416
300.9165977
300.0741756
300.7210778
299.8417917
301.665926
301.5935223
300.3962611
298.3562049
296.8198884
297.3340968
298.8681497
298.7414105
300.0205506
300.2718593
301.8901307
302.0590574
300.529644
299.4041486
301.9003812
300.3247682
300.1241545
300.1610418
302.2139167
303.2353406
303.6388145
301.764151
302.2518615
303.3486543
300.6597388
299.0316779
298.8461835
301.0331746
301.7751788
302.3484347
302.4212304
301.375096
303.7296983
305.6895333
303.237277
302.9530946
302.5554332
553.3556503
606.752707
643.477156
666.8186195
687.6245405
698.8108964
700.7641249
702.0048275
705.0066067
701.4047508
511.5363721
571.7902206
619.480709
660.4685475
693.9738411
706.5442653
722.5615312
738.1370195
750.5371022
752.7750181
460.3945771
520.3399665
562.5042685
611.0072973
640.117374
670.2535372
702.8132093
722.2780688
732.7430586
747.0966853
418.5698252
460.4458893
515.0266974
554.0756032
585.6192213
614.5717213
644.1882268
665.919449
687.3352909
720.1526446
387.9432139
420.1417425
458.6432693
491.7760042
533.2250539
567.4403915
592.3249432
622.558241
643.5507947
663.3518147
356.3264882
377.664223
408.5655845
445.6973488
478.1856419
515.1551702
537.7239085
569.2202851
592.5907352
625.6610319
349.8979919
361.0761946
380.4526651
410.8186793
432.6814719
457.5818276
491.569465
523.1117873
543.9562419
568.3781645
330.5495057
344.3176064
356.2905652
378.2752733
398.6938736
420.9545565
444.3929656
466.8262063
490.3839456
515.7069172
320.7916631
333.1845768
346.3330415
353.9279612
375.2334658
385.5154439
409.5656495
425.3399622
451.6265007
467.3437346
314.6822605
318.4383976
326.9416157
340.8317402
352.6549928
364.3429172
381.3306758
403.0844533
422.4246902
438.5907313
309.407037
313.8390881
318.7843056
329.1153985
339.4129962
346.8952407
365.7428573
375.1100561
397.3180097
415.5235664
310.0592916
308.792421
314.1437887
320.6528969
331.7535916
336.4037056
346.5857018
356.2054024
365.2225347
383.3621273
311.066258
310.2391199
312.9342165
317.5667659
321.7233433
328.5280915
335.0427433
345.9556564
354.9803296
361.8679655
307.3694384
307.8473417
306.9848725
310.1946015
314.6015217
318.3530013
324.290461
331.2894264
338.9923032
351.1827537
303.0411858
305.0805333
305.2425328
307.5601885
315.5763676
315.9059299
321.1849739
325.2886451
331.5312891
337.8202752
304.6589226
304.7786497
306.2193156
305.847396
309.259623
314.6491275
320.3564892
319.5125042
321.3319109
326.8019657
304.6401285
306.4231841
307.6802717
311.1362014
313.0400935
311.441977
312.1711628
318.2538367
320.6234185
325.6133201
306.8782598
306.2260241
306.5468278
307.5283902
304.8002274
305.5668104
307.1955949
308.4618198
312.9822285
316.3969375
304.4507214
305.3195359
304.9455961
306.3551009
306.0990468
310.5291085
311.3824047
311.7100149
309.099017
308.9832259
301.7503751
302.3664385
303.742185
302.3859246
302.6447173
298.529955
299.4360113
301.1246492
301.8252403
306.0024686
302.2932382
300.1398305
303.5396889
305.0741181
304.184572
306.5335758
307.496306
307.1079668
308.6584564
306.9918629
303.4744515
304.0828031
303.6235541
304.1703324
)
;

boundaryField
{
    flow
    {
        type            calculated;
        value           nonuniform List<scalar> 
42
(
296.1424453
301.3186079
301.0477077
302.1160315
300.5849777
301.3187737
298.5718668
297.2290585
299.2343622
299.9631804
299.4094305
301.0395631
298.5009092
298.5465884
300.2568633
303.1966823
300.2549109
300.4199453
302.3550709
300.5473491
300.0741756
300.1610418
296.1424453
294.6745435
295.7393136
296.3963631
294.6362456
297.7090302
297.6679677
297.2560243
297.2267965
296.4567732
297.5559224
298.3067535
299.0447301
298.7499434
303.9725819
303.1675997
306.6498703
317.1182054
345.1269117
430.5983758
)
;
    }
    obstacle
    {
        type            calculated;
        value           nonuniform List<scalar> 10(541.6246521 573.9586057 603.2965839 620.0946689 617.9953269 609.5521373 638.4924015 616.9434149 646.4202006 649.189991);
    }
    frontAndBack
    {
        type            empty;
    }
    procBoundary0to1
    {
        type            processor;
        value           nonuniform List<scalar> 
21
(
703.8405202
767.0370269
761.726032
733.0799067
691.778083
639.7030882
595.0860285
534.9543827
497.630734
462.0440742
432.6576269
403.6942573
373.9145622
356.8078515
347.0016157
332.6657671
327.6320221
320.6163107
309.1415917
309.7436462
307.4430335
)
;
    }
    procBoundary0to2
    {
        type            processor;
        value           nonuniform List<scalar> 
31
(
304.681964
301.9171846
299.2803281
299.8255936
301.2646332
301.9185246
300.3830913
301.2137616
303.3815982
303.7034277
303.7206282
304.9277385
304.0123989
304.1676253
303.049909
301.8455927
301.9400796
303.3419296
304.8431555
304.8286132
306.1900604
307.1190421
306.1443799
306.5382493
306.5450603
306.4923607
304.7896418
303.9503542
302.6932936
306.1900604
302.4719916
)
;
    }
}


// ************************************************************************* //
