/*--------------------------------*- C++ -*----------------------------------*\
  =========                 |
  \\      /  F ield         | OpenFOAM: The Open Source CFD Toolbox
   \\    /   O peration     | Website:  https://openfoam.org
    \\  /    A nd           | Version:  7
     \\/     M anipulation  |
\*---------------------------------------------------------------------------*/
FoamFile
{
    version     2.0;
    format      ascii;
    class       volScalarField;
    location    "0.009";
    object      internalE;
}
// * * * * * * * * * * * * * * * * * * * * * * * * * * * * * * * * * * * * * //

dimensions      [1 -1 -2 0 0 0 0];

internalField   nonuniform List<scalar> 
654
(
0.1848677239
0.2526108795
0.4764253184
0.4413385142
0.1968949744
0.5342481393
0.6364488563
0.6746004817
0.2505961525
0.3586620629
0.4958229992
0.5688401597
0.2796587931
0.4116368095
0.5559292942
0.649287264
0.440332444
0.6341479581
0.6380705474
0.4149317491
0.2454430471
0.405848832
0.280232265
0.3199817452
0.5887939541
0.1668919514
0.3246970505
0.1852337835
0.4029249523
0.3718592655
0.5132286487
0.5224808384
0.3973089704
0.1869318012
0.3920873529
0.3809116224
0.2812082999
0.5602862151
0.6565286766
0.2747887395
0.482579498
0.2233619687
0.2997694541
1.049165066
0.5221382827
0.3623915776
0.4124072785
0.3341664009
0.6067291732
0.6755676942
0.1097777473
0.6229817585
0.4654977775
0.2020302476
0.5457292559
0.5146723885
0.2818671695
0.5956854334
0.3830174539
1.008847235
0.3134957616
0.2776885713
0.6720701443
0.442782638
0.3529791386
0.4129748769
0.288151952
0.5247321021
0.4393347413
0.7291889343
0.5369022675
0.7290894304
0.4717742338
0.2592117932
0.2917335336
0.1581944485
0.587807353
0.4433009106
1.051551817
0.1359363283
0.7281436031
0.3012988584
0.4639282573
0.1565631746
0.4241040825
0.4368516791
0.8310092059
0.5495219294
0.0936490789
0.08895933665
0.08983024557
0.3201925283
0.5310444373
0.5709945126
0.9660836943
0.7575000596
0.222756588
0.5390490125
0.5334428546
0.7550242231
0.1825834381
0.4164534792
0.6484801492
0.5803142754
0.2695599252
0.1450000009
0.2728701619
0.5124364978
0.4429985736
0.6639286821
0.447572204
0.3536116041
0.2954273866
0.4813367263
0.2501960429
0.6027712679
0.4769069019
0.3077158509
0.2882257952
0.3107168333
0.4127798931
0.8660373417
0.3632732717
0.2008995257
0.7470006996
0.2113515085
0.3030536176
0.2948944087
0.3868391387
0.5012216092
0.3176578151
0.4424697588
0.6374413112
0.4938297219
0.5233707608
0.8812046386
0.4653022365
0.185620359
0.359363505
0.415655666
0.7100376186
0.5059972855
0.5128648557
0.5199087127
0.206456155
0.06921903441
0.5516433335
0.3697679296
0.3117887611
0.7380313828
0.181272172
0.241387033
0.3873035431
0.2843693612
0.5535317889
0.6750899879
0.3748802349
0.2415251174
0.3366747244
0.2250407139
0.2769931367
0.2419292775
0.6689644258
0.4345656877
0.8225823401
0.2930614587
0.655002517
0.1454281878
0.3257304852
0.1445141755
0.3219062033
0.3996247895
0.5509240599
0.3405068918
0.4782646973
0.2412916279
0.6421492597
0.5558069462
0.6796703793
0.346271814
0.3350352688
0.2563818811
0.4081747303
0.4065103962
0.8152293393
0.5851679586
0.2752875386
0.5374372544
0.25507438
0.2162290749
0.4870397785
0.2051262789
0.09973698033
0.5876945588
0.5719131029
0.4287868898
0.09067738659
0.3623820125
0.2616220123
0.3500901668
0.5438419558
0.4267740156
0.2967819605
0.2947994991
0.248915696
0.2452769164
0.4034454356
0.5291280148
0.6492840419
0.5146934152
0.2117314277
0.4549102359
0.4499043115
0.3664343493
0.4751617494
0.3320131753
0.6403798872
0.5047308757
0.313266395
0.2666984882
0.4250437112
0.3680538681
0.2952541326
0.2460892911
0.3950668628
0.4004915453
0.6224454562
0.3600099908
0.3301756998
0.4313638579
0.2185655587
0.4290874881
0.3921541691
0.676905008
0.5179293664
0.2812324444
0.7469679565
0.4840418788
0.37872407
0.1196310789
0.3963965056
0.3302775874
0.3488039634
0.0563731387
0.4402656455
0.4069849533
0.557142711
0.5954939639
0.3261414168
0.5252436945
0.3154253054
0.2719822957
0.2620053713
0.2625550441
0.4396312918
0.05675560541
0.326551124
0.5622737445
0.5088133756
0.4682848405
0.245599694
0.3007840439
0.3797193446
0.2995921489
0.5284758748
0.6539130922
0.4180656198
0.4946163583
0.1196243074
0.317033401
0.0765916489
0.4081039775
0.5381411146
0.3945823502
0.1737719318
0.4845863015
0.2665131919
0.3308448358
0.4446428205
0.4115780395
0.3320571028
0.4789240715
0.4064652126
0.41221881
0.2324826401
0.3200087554
0.5190834922
0.6917868351
0.5846824316
0.2349517685
0.7508589722
0.4242953924
0.633355351
0.3070576993
0.3183465508
0.344658398
0.3042174326
0.3034088781
0.2740118985
0.3603928187
0.4944038
0.1575046015
0.1781071527
0.5112131457
0.5422744569
0.2624087161
0.562104638
0.9981673651
0.1213842047
0.5364419762
0.2073869927
0.7223040436
0.7163944286
0.6188077582
0.4360508823
0.4948689754
0.50738991
0.2751754008
0.4443150376
0.3394413953
0.2269011672
0.4546145166
0.6472037242
0.242559414
0.4278853192
0.08659545768
0.4520636035
0.5462754188
0.4237621123
0.2970481015
0.2558838646
0.4595136819
0.1673972884
0.6509222964
0.06226131802
0.6902642009
0.1322293172
0.3717867567
0.2800650133
0.2612909786
0.3978482177
0.2755221851
0.2466128479
0.2837813025
0.2377785377
1.001293272
0.503491751
0.2113207928
0.3139660638
0.369391284
0.08661771518
0.2975570707
0.3271462701
0.09670174566
0.6441388706
0.3994923555
0.5214151047
0.09730539907
0.4302153792
0.3968806658
0.277704615
0.3010082271
0.6597602458
0.2235094454
0.4266446193
0.6533268861
0.2327146323
0.2855177292
0.5343068068
0.5921135257
0.2204961901
0.4298850352
0.5119298083
0.3860038186
0.6031324376
0.1572803652
0.1556975587
0.4936435638
0.2127744619
0.6993259329
0.2005974554
0.6210888593
0.07925570417
0.5637462403
0.3895282772
0.6220880256
0.1558199505
0.7803903495
0.1541240591
0.2826055784
0.3065915355
0.1534457416
0.335020842
0.2762236844
0.3335560252
0.5840710738
0.7843639786
0.463754871
0.2477224913
0.3548996076
0.1506426173
0.5244806441
0.6219582426
0.4160072304
0.03723256494
0.5557073353
0.3493295746
0.5333883213
0.3113246621
0.3839316112
0.721601026
0.497057556
0.1715271665
0.2204622951
0.40182509
0.6079831667
0.7826259477
0.6402147609
0.4715789239
0.2079703389
0.4254403497
0.2997076499
0.153311671
0.3292406893
0.5705523922
0.2595950321
0.4500948302
0.8060094251
0.6377488251
0.2834406147
0.547566406
0.4523725344
0.8974150409
0.3195471655
0.7422480987
0.6621145528
0.2626024567
0.36976978
0.3564132286
0.7291449419
1.962459106
1.946628931
2.447001662
2.891645636
4.286883628
3.916040682
1.726742167
2.118755453
2.472692098
2.985203868
0.6284445712
2.013301286
1.201006031
2.361706059
2.641080669
2.647120588
3.410529688
2.418964706
2.198849457
2.859978821
0.7347460658
1.081125289
0.4407516503
2.438818945
2.479555408
0.6769632276
2.761611373
3.758244405
2.141532509
2.084126982
1.160734568
0.4715746775
0.7409761324
1.46676874
1.427277071
2.260338287
1.545221427
1.084397139
2.026632456
2.534932394
0.5879848872
0.3347691903
0.633411115
0.5888964181
1.069643011
1.25286415
1.946022428
1.400856587
2.916709415
3.348687106
0.4862902417
0.5238696718
0.4298450532
0.765848753
0.6610170096
1.397714427
2.08149344
1.38543452
2.47805856
1.714489289
0.1032844443
0.2274279606
0.5526530237
0.5810283218
1.32760325
0.2444630527
1.08065308
1.283788387
1.334832606
1.969222441
0.371808681
0.4440318941
0.6400663696
0.1052083613
0.3198345768
0.5602925682
0.9728677744
1.652913668
0.2745908488
0.9522788884
0.4589733693
0.3262289686
0.4276926261
0.442002875
0.3005749863
0.3268296369
0.7731314288
1.156478629
0.6734052485
0.8815292303
0.3189019195
0.4328637333
0.736120998
1.173510293
0.5063129408
0.2379185823
0.811338224
0.4548859908
0.9816206038
1.119000565
0.3926456763
0.2545727692
0.6527775366
0.5404337528
0.2388767553
0.161919437
0.2824459603
0.5742340385
0.9381974036
0.6570327949
0.839815476
0.27216145
0.258980557
0.3885902665
0.4806697424
0.909539756
0.376753485
0.4612275859
0.6055205249
0.902244801
0.3776773372
0.1780490561
0.381553311
0.6231002113
0.1623225368
0.7421868719
0.1142548173
0.3949322722
0.3539846769
0.327452686
0.4390438326
0.2580317449
0.6601550573
0.7721119105
0.1707689811
0.6483632724
0.2837911693
0.2032426793
0.5201812582
0.1946062805
0.4830891623
0.8558461343
0.6052766125
0.494435026
0.6316015721
0.4844328237
0.6038128106
0.1647431874
0.3299849651
0.4697371567
0.253234827
0.2002766673
0.267223564
0.2580250187
0.1053922782
0.613605357
0.5574402062
0.287622841
0.3638738249
0.1967135449
0.1236798478
0.7802378285
0.4942960382
0.5185197647
0.06777411067
0.2656725392
0.1028904365
0.3376328736
0.4204478241
0.359840254
0.561071007
0.4079370528
0.6957480595
0.4431713288
0.4687271801
0.2945359775
0.7401879976
0.1291269037
0.6320316111
0.03009846405
0.3572300165
0.3130405728
0.6321243549
0.3538480406
0.3540559045
0.3498899212
0.4010728841
0.4166229165
0.2307940797
0.431805924
0.2538515392
0.1899126637
0.4412026814
0.8489092975
0.1881664392
0.3380298111
0.5473802963
0.416567302
0.2865062374
0.6168989665
0.6083447804
0.4817813969
0.8714945085
0.658334016
0.4107905717
0.3102316519
0.4013359607
0.4574233212
0.6069878646
0.3652525885
0.2711290991
0.3617731596
0.2338074126
0.3688637958
)
;

boundaryField
{
    flow
    {
        type            zeroGradient;
    }
    obstacle
    {
        type            calculated;
        value           nonuniform List<scalar> 10(3.540782025e-19 7.239761535e-19 5.740069742e-19 2.573869046e-18 7.08056092e-18 8.183262756e-19 1.142641576e-18 6.403524078e-19 0 5.038858734e-19);
    }
    frontAndBack
    {
        type            empty;
    }
    procBoundary0to1
    {
        type            processor;
        value           nonuniform List<scalar> 
21
(
1.540203252
4.400181328
2.104990498
1.02681209
2.284617885
2.021124969
1.292908762
1.014385405
1.028245679
1.335380004
0.3621614546
1.490597341
0.7517270707
0.2455624776
0.4738501018
0.5732576037
0.5476439617
0.3435142086
0.7235445955
0.2311460917
0.2370272411
)
;
    }
    procBoundary0to2
    {
        type            processor;
        value           nonuniform List<scalar> 
31
(
0.4280127209
0.2179639692
0.391331842
0.3515936466
0.8517409722
0.1554894034
0.2996527986
0.3313302394
0.2734679235
0.6426603053
0.3867491701
0.2331828106
0.7279990776
0.34165183
0.3371047398
0.3956032253
0.2015734096
0.891536645
0.1716629498
0.2489379251
0.6811024695
0.6052997457
0.6020285788
0.3716048915
0.5457460271
0.508668538
0.09347062701
0.1235890923
0.5456451085
0.6811024695
0.2250333676
)
;
    }
}


// ************************************************************************* //
