/*--------------------------------*- C++ -*----------------------------------*\
  =========                 |
  \\      /  F ield         | OpenFOAM: The Open Source CFD Toolbox
   \\    /   O peration     | Website:  https://openfoam.org
    \\  /    A nd           | Version:  7
     \\/     M anipulation  |
\*---------------------------------------------------------------------------*/
FoamFile
{
    version     2.0;
    format      ascii;
    class       volScalarField;
    location    "0.009";
    object      linearKEMean;
}
// * * * * * * * * * * * * * * * * * * * * * * * * * * * * * * * * * * * * * //

dimensions      [1 -1 -2 0 0 0 0];

internalField   nonuniform List<scalar> 
654
(
5.814496816
7.837084701
7.767894628
7.719465722
7.785261681
7.746559383
7.749909314
7.752889496
7.719347305
7.749343266
7.762210778
7.750692916
7.764316302
7.738115966
7.739361436
7.701318422
7.682250699
7.747257339
7.86861864
8.245849216
5.911654606
7.945958239
7.904473378
7.87947912
7.893242155
7.904994625
7.867900994
7.872270016
7.908543991
7.859333141
7.851602155
7.835080755
7.826711541
7.81806917
7.794945141
7.834319134
7.830090316
7.850913649
8.033804614
8.362187497
5.873184241
7.849878226
7.814113009
7.812334517
7.812377065
7.81684737
7.83059021
7.808490073
7.784202306
7.81174809
7.81737306
7.810261498
7.817651181
7.848912207
7.860455547
7.889825668
7.860490561
7.921803105
7.983381959
8.201469721
5.908363487
7.884319752
7.873562989
7.869178363
7.865361404
7.84254476
7.833765645
7.856693736
7.866866116
7.865317744
7.832995274
7.808232604
7.841476517
7.797906461
7.792316913
7.799361534
7.871332126
7.929936145
8.023214692
8.209034764
5.883065026
7.916899356
7.851671701
7.817728327
7.854216928
7.842407661
7.849676301
7.854891233
7.875292963
7.864910219
7.878180137
7.936661291
7.948300303
7.945578356
7.901576254
7.913688332
7.907979271
7.941355568
8.030952811
8.102412392
5.890775695
7.890594808
7.899583649
7.821732826
7.831305065
7.851483442
7.831580818
7.810203369
7.77545839
7.816502073
7.837631962
7.869259003
7.891314237
7.915918565
7.953642936
7.974307678
7.964545108
7.979884211
8.029905521
8.081546738
5.886885186
7.862014858
7.865905332
7.854946649
7.867138029
7.825735446
7.857566499
7.946651393
7.952496971
7.889370612
7.865603149
7.807283101
7.846040522
7.809956579
7.824891693
7.814357105
7.846183023
7.87452432
7.895282249
7.961010299
5.887338192
7.9198149
7.818139186
7.795536868
7.831550761
7.812892735
7.808805127
7.780188749
7.811807926
7.867259716
7.878976174
7.877816426
7.875277225
7.833335564
7.863037874
7.882485652
7.842960728
7.842459614
7.874700562
7.920338028
5.908884758
7.951078429
7.872985853
7.863833025
7.859984224
7.925528585
7.955392295
7.903380889
7.916030468
7.873482832
7.866180975
7.847613206
7.840875577
7.794360694
7.795043379
7.778739279
7.823210098
7.877995151
7.916510881
7.989308288
5.915347063
7.937177631
7.904505307
7.911974248
7.87349882
7.791153417
7.780290584
7.780061123
7.748293972
7.763453796
7.735335996
7.802582074
7.808585657
7.835761316
7.828349029
7.846374571
7.846720893
7.837348421
7.854878045
7.867585088
5.872526825
7.853484733
7.781125957
7.80048323
7.803497823
7.863084102
7.830880396
7.811763446
7.778332112
7.813115946
7.836219132
7.819808983
7.824867014
7.858680309
7.916879979
7.844874175
7.887040344
7.939421836
7.916064581
7.952154915
5.89544561
7.924912547
7.876751304
7.874484898
7.872428915
7.85364025
7.829703752
7.862057761
7.888331334
7.890059282
7.898318313
7.902837954
7.920952369
7.918087183
7.92037097
7.914708566
7.896583235
7.876288132
7.85655576
7.904220747
5.898261287
7.946964231
7.884713964
7.814513056
7.865819179
7.862782162
7.902206824
7.97758025
7.981808452
7.952611592
7.93513442
7.889887147
7.878227466
7.876132925
7.8293051
7.839795789
7.853136338
7.839812639
7.870739065
7.865678865
5.925339024
7.92580275
7.885709313
7.930929491
7.919113233
7.892514472
7.861322476
7.813257995
7.810654386
7.846037652
7.850058218
7.84998126
7.828151218
7.804424021
7.820027019
7.86081597
7.861541511
7.864289549
7.922958181
7.91100894
5.896882234
7.940280999
7.856754249
7.818916286
7.830190809
7.810116074
7.826959196
7.829471214
7.796932868
7.76673471
7.752513165
7.844567857
7.858666005
7.8857233
7.91328945
7.89745794
7.915425189
7.87273185
7.851832306
7.877143258
5.880945944
7.931774272
7.872014791
7.875663051
7.828131782
7.886784796
7.931834593
7.936221079
7.921526571
7.934235665
7.960033615
7.90657986
7.888440056
7.912145654
7.843212319
7.830658972
7.796490369
7.816533614
7.874719519
7.823842238
5.875919962
7.873048495
7.828631437
7.788145978
7.836888149
7.842308181
7.826792026
7.826502647
7.893080951
7.865981943
7.78357722
7.783082342
7.791403688
7.819110777
7.793567161
7.858581475
7.889105342
7.871842074
7.865104526
7.864088009
5.929859991
7.869375654
7.816490799
7.850643563
7.818447348
7.807307096
7.775970568
7.763419643
7.686013202
7.742913214
7.750683262
7.844607012
7.816799111
7.812383383
7.852456813
7.824777227
7.797442404
7.844516479
7.845803519
7.890394335
5.861610107
7.90683998
7.832633205
7.834362023
7.799870435
7.795336321
7.762660667
7.809746434
7.797527149
7.814162091
7.843288803
7.811394581
7.786517866
7.798629118
7.807644076
7.823784697
7.835139068
7.796114189
7.7588387
7.733153603
5.938744796
7.986365883
7.983016782
7.935003291
7.942478495
7.95940149
7.933889119
7.953169501
7.937521938
7.950135733
7.896147749
7.890155637
7.884860559
7.862399804
7.884431765
7.851314147
7.820278096
7.820061522
7.856384175
7.827336785
5.872999596
7.810769274
7.759556171
7.757290091
7.774519238
7.799169834
7.792400655
7.8345648
7.832868038
7.798877562
7.853525747
7.853090247
7.844042822
7.885714355
7.868828565
7.828497289
7.87032895
7.848253032
7.856569997
7.849330819
5.907621755
7.951277817
7.887895006
7.878702787
7.87001854
7.884418493
7.870989474
7.84916183
7.844342341
7.84031164
7.822457353
7.832687217
7.846215126
7.841625186
7.90324691
7.907460615
7.964034035
7.935089116
7.902512783
7.892825296
9.677736757
9.933325407
9.757450395
9.319309064
8.793130717
8.491692128
8.147825527
7.843280761
7.466250427
7.278472303
9.053843292
9.696754981
10.14679802
10.39990209
10.37352205
10.32516452
9.996509524
9.670026094
9.454710224
9.143141873
8.633999569
9.312819538
9.874974135
10.3882461
10.80337237
11.00044379
11.06671853
11.01214656
10.87873164
10.67647458
8.532762212
8.893290597
9.460984653
9.917180326
10.41309084
10.85896631
11.28251581
11.45908862
11.41217383
11.46915987
8.355073392
8.625072024
8.941042777
9.361716399
9.858190093
10.43471187
10.89868719
11.32980501
11.68215933
11.88939947
8.159215152
8.338830723
8.606668627
8.993534342
9.342007781
9.747023693
10.33370078
10.79632065
11.19562412
11.60807589
8.056422491
8.234482741
8.393965113
8.702572355
8.985749386
9.336476253
9.713914474
10.13601079
10.71279837
11.10438863
7.993577513
8.125309581
8.24776022
8.433557199
8.613964845
8.86167628
9.243787364
9.700512812
10.17627644
10.69666987
8.029012601
8.051670586
8.094011946
8.256480603
8.492887737
8.777670591
9.053018706
9.259939144
9.630662801
9.963032737
7.912670383
8.05951403
8.148133749
8.240370509
8.343673912
8.471925106
8.630073324
8.905031814
9.158018475
9.521074149
7.950465384
8.012001047
8.068923681
8.143190281
8.179401978
8.334102973
8.441626811
8.676593812
8.938315396
9.167488473
7.955183168
7.927471827
7.956903409
8.025771375
8.085200044
8.159809795
8.256998601
8.350093506
8.464959495
8.704143095
7.864762892
7.901896252
7.911225304
7.955322759
8.063299349
8.161258776
8.264407948
8.387825415
8.547732729
8.687100087
7.887963985
7.930104462
7.979714644
8.025919866
8.046665627
8.052620219
8.109379532
8.180880791
8.238050678
8.252774087
7.924128883
7.887770257
7.905306177
7.852462961
7.908380261
7.929324914
7.984633286
8.059826055
8.125352845
8.22948516
7.803789954
7.836687553
7.879036792
7.884842692
7.88477297
7.906999397
7.921443743
7.960436497
8.057271371
8.14364085
7.878781287
7.920420409
7.871248704
7.904339416
7.91462724
7.946860298
7.985077187
7.994475963
8.021428221
8.035659676
7.871207815
7.828214393
7.841438585
7.869579414
7.849166263
7.845860406
7.864390405
7.854023152
7.882371906
7.927131787
7.803951879
7.804565547
7.80848776
7.801715489
7.819398719
7.847771741
7.928324415
7.948780911
7.879604471
7.98618126
7.836997586
7.85646424
7.853028155
7.844773233
7.85403784
7.8663817
7.845481262
7.907890249
7.993553408
7.94830589
7.855567625
7.870338557
7.891388043
7.905642828
7.894979997
7.865085387
7.869384837
7.847834502
7.83937048
7.878347398
7.876647745
7.886370249
7.897388104
7.909211335
)
;

boundaryField
{
    flow
    {
        type            calculated;
        value           nonuniform List<scalar> 
42
(
5.814496816
5.911654606
5.873184241
5.908363487
5.883065026
5.890775695
5.886885186
5.887338192
5.908884758
5.915347063
5.872526825
5.89544561
5.898261287
5.925339024
5.896882234
5.880945944
5.875919962
5.929859991
5.861610107
5.938744796
5.872999596
5.907621755
5.814496816
7.837084701
7.767894628
7.719465722
7.785261681
7.746559383
7.749909314
7.752889496
7.719347305
7.749343266
7.762210778
7.750692916
7.764316302
7.738115966
7.739361436
7.701318422
7.682250699
7.747257339
7.86861864
8.245849216
)
;
    }
    obstacle
    {
        type            calculated;
        value           nonuniform List<scalar> 10(3.936843753e-18 3.695007246e-18 3.459382578e-18 3.182647371e-18 2.96853293e-18 2.76006194e-18 2.788095786e-18 2.678051633e-18 2.648349369e-18 2.506771264e-18);
    }
    frontAndBack
    {
        type            empty;
    }
    procBoundary0to1
    {
        type            processor;
        value           nonuniform List<scalar> 
21
(
6.975563521
8.796422889
10.38621213
11.44367113
11.97827196
11.88001555
11.51051759
11.15312253
10.44134955
9.880840403
9.494999835
8.970174226
8.856820806
8.329335027
8.436472786
8.196557795
8.074324998
8.007195877
8.011919982
7.918923031
7.979558088
)
;
    }
    procBoundary0to2
    {
        type            processor;
        value           nonuniform List<scalar> 
31
(
5.914718038
7.890966477
7.881974196
7.867367547
7.841337389
7.832624245
7.853413914
7.887436096
7.941595988
7.917816767
7.958806004
7.965281965
7.916424448
7.887068241
7.878006703
7.796715252
7.800559516
7.819887477
7.855112735
7.868335269
7.894643915
7.86909037
7.914763712
7.897728544
7.894497655
7.93824973
7.860595745
7.862460278
7.788623379
7.894643915
7.781879883
)
;
    }
}


// ************************************************************************* //
