/*--------------------------------*- C++ -*----------------------------------*\
  =========                 |
  \\      /  F ield         | OpenFOAM: The Open Source CFD Toolbox
   \\    /   O peration     | Website:  https://openfoam.org
    \\  /    A nd           | Version:  7
     \\/     M anipulation  |
\*---------------------------------------------------------------------------*/
FoamFile
{
    version     2.0;
    format      ascii;
    class       volVectorField;
    location    "0.009";
    object      momentum;
}
// * * * * * * * * * * * * * * * * * * * * * * * * * * * * * * * * * * * * * //

dimensions      [1 -2 -1 0 0 0 0];

internalField   nonuniform List<vector> 
654
(
(0.004794144417 -0.0001355353769 0.0006723286011)
(0.009002228971 0.0001750213494 1.844527096e-05)
(0.007441338604 0.000734193028 0.000268578408)
(0.006299121769 -0.0004042602949 -0.0007645972105)
(0.00835996742 -0.0005970667509 -0.0003840086632)
(0.009312132867 -0.0001200610169 -0.000290525337)
(0.009167798904 -0.00048149899 -0.0002455170128)
(0.008877732486 0.000286764047 0.0001534901001)
(0.006569016886 -0.0003179467109 -0.0002889938889)
(0.007443901202 -0.0003110873189 -0.0004142749187)
(0.01389845823 -0.0004339657757 0.000253038091)
(0.008360547288 -0.000125772881 -4.741556002e-05)
(0.006215461864 -0.0005050465124 -1.952183152e-05)
(0.00675078109 -0.0004400139343 -0.0002423910464)
(0.01106008503 -0.0001120388598 0.0007636597073)
(0.01035095629 -0.0005277732324 0.0006180436692)
(0.007306494326 0.0003832225977 0.0003810985629)
(0.007501120953 -0.0003878725026 -0.0001134690217)
(0.009269085367 1.233709176e-06 -0.0007446936579)
(0.007875543492 0.0002654526279 -0.001351299333)
(0.007017341981 -0.0001385412262 -0.0007517285562)
(0.009731141308 -0.0006806908444 0.0005946540669)
(0.008284809746 0.0002113974323 0.0005509954576)
(0.006547341842 0.0008167549794 0.000809030202)
(0.0106734595 0.0004507420449 0.0003392729408)
(0.004365088708 -0.0003135883062 -0.0003556734751)
(0.007628192386 -0.0006117548341 0.0001135599012)
(0.004859075264 -7.679423253e-05 0.0002467205801)
(0.008202585221 0.0002580134752 0.000433697526)
(0.005124698854 -8.92363965e-05 0.0004692710234)
(0.009423692427 0.0007533827157 -0.0006436361395)
(0.01121955748 0.0007293717863 -0.0002991951678)
(0.008479494799 -0.001299664251 0.0003185283761)
(0.005126634227 0.0006885638212 -0.0002329547172)
(0.007066752479 0.0005241310297 -0.0002935445407)
(0.01061618571 -0.0001595688698 -6.641973474e-05)
(0.01185149031 -0.0006877521677 0.0001093016852)
(0.006952441381 0.0004800160409 0.0005358708131)
(0.006881991154 0.0009923782338 -0.0009893073823)
(0.01003585393 -0.0005961364721 -0.0007549043242)
(0.005736072443 0.0003382007019 -1.789452042e-05)
(0.00928680773 0.0002693796646 -5.209870586e-05)
(0.01060027559 -1.553176399e-05 0.0002979411909)
(0.01170877967 0.000127515259 -7.506588101e-05)
(0.008295297638 0.0002121804283 -1.403595599e-05)
(0.00462677628 0.0001049747503 0.0001471573906)
(0.006896591662 0.0002638527972 5.882868983e-05)
(0.005299046271 0.000171301769 -0.0001167592673)
(0.00923395232 0.0001758440914 0.0006708526819)
(0.0122084496 0.0001540524304 0.0004944879936)
(0.005275167963 0.0006616400589 0.0001207915242)
(0.01064260675 0.0006745291434 0.0005080674427)
(0.01045234366 -0.0003146375715 3.158927241e-05)
(0.005030400141 0.0003052029938 0.0004402257906)
(0.01309525626 -0.0008365611796 -6.612214586e-05)
(0.01172239621 -0.0003050709629 -3.087552904e-05)
(0.006511814045 0.0006563281354 -0.0008545484476)
(0.01182212189 -8.209734126e-05 -5.343318107e-05)
(0.006473785978 -0.0004039476985 -8.111749214e-05)
(0.01126916181 0.001325243371 -0.001910679637)
(0.005230861845 0.000135581622 0.0002415591507)
(0.005829709077 -0.0003522754453 -0.0006192214397)
(0.01097867242 -0.0001314344745 -0.0004383828796)
(0.005556404296 0.0003355696479 -0.000268750007)
(0.008070652805 -0.0008152477353 0.0004384369035)
(0.0101164195 -8.088740187e-05 -0.0001515446135)
(0.005750793403 -5.653826925e-05 -6.384447065e-05)
(0.01180432466 0.0002517028502 -0.0004260936246)
(0.009394692834 -0.00044433111 -0.0001595221402)
(0.01159154112 -0.0009408691636 0.0004797559392)
(0.01083232489 0.000419238038 0.0002762735931)
(0.01048392653 0.0004720087651 -0.0003934861511)
(0.00777028129 -0.0005316443751 -0.0001613108195)
(0.006581038446 -0.0001032125609 0.0004605527373)
(0.0097538766 -0.0002287938638 -0.0003229236038)
(0.004061489779 -7.426928901e-06 0.0002118553719)
(0.009457677436 0.000702910052 0.00072985424)
(0.006887468602 -0.0003965620554 0.0004388900865)
(0.01347133772 -0.0008507542752 -1.800915005e-05)
(0.003817051825 -0.0001840497782 0.0001420897442)
(0.00863625211 0.0005737011567 -0.0007266304275)
(0.009772295976 -0.0001652671984 2.863326635e-05)
(0.007807831693 2.322861292e-05 -0.0005216348813)
(0.004623639716 -0.0004359682771 0.0005282972162)
(0.008912752845 0.0006181914225 0.0008170283479)
(0.009785948682 -0.0003201840692 -1.951553639e-05)
(0.01365398443 0.0008995261337 -0.0005914883049)
(0.01034092545 0.001071598072 0.0002163021626)
(0.002949262423 -0.0002027474866 0.000472855191)
(0.004265432525 -0.0001015400946 5.213452824e-05)
(0.004459988433 -0.0003453706219 -0.0002355794676)
(0.00967367901 -0.0008661896699 0.0002260964672)
(0.01584675354 -0.00135682017 -6.015513872e-05)
(0.008263302592 0.0004485408291 0.001423875769)
(0.01063495786 0.000417704769 0.0008859266833)
(0.01423098821 0.0008892906517 0.0002395227867)
(0.004513778798 -0.0003515747504 -0.0003185251512)
(0.008219499904 0.0002645253112 0.001210703481)
(0.00604454018 9.324448215e-05 6.147188933e-06)
(0.01656656933 0.0002961765578 -0.0008889384158)
(0.005264370183 -0.0001660813273 -2.419179562e-05)
(0.006084888545 -0.0003687254927 -0.00013458618)
(0.01114129463 7.28429073e-05 0.0002346786678)
(0.008195407583 -4.312798239e-05 0.0005548300547)
(0.007247043392 0.0001470208954 0.000126520467)
(0.003456604768 2.973582496e-06 0.0001119182837)
(0.007752379221 3.74596874e-05 -0.0005530873315)
(0.009225883744 -0.0007023773582 0.0009828766235)
(0.009154847451 -5.252682338e-06 -0.0002543750271)
(0.01039268334 2.826597507e-06 1.249305992e-05)
(0.009162564307 -0.0002066612212 -6.772449833e-05)
(0.00674273372 -0.0006127914364 0.000583165693)
(0.005204117742 0.0002511660664 -0.0008098580001)
(0.00941399137 0.001500745893 -0.0003494831752)
(0.007768321102 -0.0003371904635 0.0002491905343)
(0.01016926464 0.0003856748531 0.0001658449855)
(0.01010749487 0.0003369862737 -0.0006652882419)
(0.006080179952 -6.259588731e-05 -5.906899829e-06)
(0.002620262221 -0.0004643863393 0.0005512527459)
(0.007978024186 0.0003725972436 -0.0002335654231)
(0.005750353336 -0.0004874278347 -0.0003519350547)
(0.007101816335 0.0003751651131 0.0002365432621)
(0.007428901131 -0.0002813056481 0.0001203221014)
(0.004690051407 0.0003044829818 0.0005117333487)
(0.01350444392 0.0002257717437 0.0001687489422)
(0.008908572415 0.000196390426 -0.0003143413636)
(0.007127586266 0.0004040510057 -0.0008562676652)
(0.00673868342 0.0001696556218 0.0008727090305)
(0.007235684713 -0.0004107643003 -0.000394055718)
(0.009861853097 0.0005582532879 0.0003565089423)
(0.006292663318 -0.0005451881279 0.0004091139145)
(0.009053699307 -0.0002737889924 0.0002821478084)
(0.007304995727 0.0001500092715 -0.0007051354963)
(0.0106468338 0.0005771984635 -0.0003363250252)
(0.009642232555 -0.0008083103626 -0.0002510408145)
(0.01926100695 -8.056682427e-05 0.0008744797145)
(0.005924730951 -4.182652179e-05 0.0007129079506)
(0.006819722028 -7.396711403e-05 -0.0002299904393)
(0.006200161701 0.0006758742011 0.0004419918433)
(0.009303631013 -0.000276127537 -0.0001091893316)
(0.008562393482 -0.0001667692669 0.0007193957926)
(0.01217139117 -0.000602036571 0.0001085030466)
(0.008536455306 0.0003022635286 0.0002331725254)
(0.01194128729 0.0005057820357 -0.0001381602614)
(0.004259764994 0.000226884207 0.000161982704)
(0.004661960176 -0.0002811700477 1.261362737e-05)
(0.01411294306 8.009400782e-05 -0.0003062917043)
(0.005260858376 -0.000132025744 0.0003513391112)
(0.005354744006 0.0005564280926 0.00046140612)
(0.01203106739 0.0002233149083 -0.0005869882964)
(0.003444644129 0.0002145940603 0.0003036149249)
(0.007998577188 0.0002758466505 0.0003539711181)
(0.006794056356 0.0002809649165 -0.0003274739167)
(0.006245528176 -9.556544442e-05 -0.0003989620171)
(0.00677569049 -0.0001473760741 0.0004138487144)
(0.008014792363 0.0008599976354 7.180194133e-05)
(0.008436460743 -0.0001956231993 0.0003754123592)
(0.003942034593 0.0002080546891 -0.0001967875735)
(0.006921267092 0.0001092957137 -0.0001714353944)
(0.007674490212 0.0004117839698 0.000161455037)
(0.006715809971 -0.0008437614014 0.0004830162151)
(0.004858116114 0.0007393247258 0.0007684716872)
(0.009621124538 0.000467731355 -0.0008077236072)
(0.01049269267 -0.0003612217954 -0.0001999781333)
(0.01805141384 -0.001169766821 -0.0003622851254)
(0.004932617349 0.0003082209977 0.0002210478332)
(0.01415901582 0.0002655769373 -0.00053858479)
(0.007834008901 -0.0004597665757 9.093329865e-05)
(0.0111656042 -7.637790511e-05 0.0005198799024)
(0.004059215692 -0.0002608587166 -0.0005436606943)
(0.006137111194 0.0003820657179 0.0003701552075)
(0.01052352852 -0.0009817056668 9.356934947e-05)
(0.00837318251 0.0006132185998 0.0002279656695)
(0.00603937653 -0.0006881869714 0.0009847860929)
(0.007444412132 0.0006992630194 0.0001864005897)
(0.004886608519 -2.559812276e-05 -0.0007195187606)
(0.009873232182 -0.0001721156909 -7.918300755e-05)
(0.009993539661 0.0009306659912 -0.0004642709704)
(0.01219161099 -0.0003598805885 0.0004965530236)
(0.006684198332 -0.0001768574333 0.0004572991436)
(0.006522478881 4.392783057e-05 0.0005018166929)
(0.00807633005 -0.0009059928639 0.0005882059132)
(0.005040858196 -0.0002403379399 -6.82951271e-05)
(0.007786361073 4.477887159e-05 0.0005849717246)
(0.009091063038 -9.886463004e-06 0.0002472883581)
(0.009644874694 0.0003404803237 0.0007125849451)
(0.007132555329 0.0005755568888 -6.387350532e-05)
(0.009173095185 -2.075163753e-05 0.0004151091292)
(0.008277481029 0.0003184724476 2.13874779e-05)
(0.004521620305 0.0004795107163 -0.0001571744394)
(0.008979999394 -0.0005522635817 0.0005927382645)
(0.008540868592 -0.0003882666458 -0.0001136724457)
(0.004559016661 -0.0004814581262 0.0002406113521)
(0.01040948553 -5.475186135e-05 4.63969967e-05)
(0.01109974557 -0.0002110812735 0.0001078467613)
(0.006113209641 -5.357592874e-05 0.0001236981243)
(0.003187563591 -0.0002432283248 -4.455755641e-05)
(0.01039992336 -0.0003338728282 0.0002915904861)
(0.007315175706 0.0006010253077 -8.985079747e-05)
(0.006206895453 0.0001862027884 -0.0005595169473)
(0.007972950559 -0.0008917216778 0.0004122650858)
(0.008894795172 -0.0004548145784 6.533929803e-05)
(0.006579247161 0.0003597475741 -0.0003354438448)
(0.007311648607 -0.0001911029695 0.0003594826492)
(0.01272882582 -0.0005030298729 0.001121497545)
(0.01148110165 0.0002405834018 0.0001928994814)
(0.00626763064 -8.992273316e-05 0.0005000512969)
(0.006230119127 -0.0004894517581 -0.0002226452397)
(0.01196953309 -0.0005947763506 1.174498408e-05)
(0.007586847369 0.0008224761915 -1.363277909e-05)
(0.005351836307 0.0003531612885 0.0009773506183)
(0.009699229552 0.0003480507296 -0.0004008271324)
(0.01177257067 -0.0005653164762 0.0008292895415)
(0.01098977794 0.0002760721789 8.514789366e-05)
(0.008963127242 0.0007920317032 6.087759906e-05)
(0.004091700557 -0.0002253222367 -0.0002856650499)
(0.01382813238 -0.0003153297519 0.0001423699961)
(0.00842154976 -0.0003549966887 -0.0002511172698)
(0.00889407822 0.001178924221 -0.0005455659566)
(0.006109053296 -2.881471321e-05 -0.0001251816657)
(0.007080511425 0.0003227045998 -0.0004094576004)
(0.006681393882 -0.0004387612554 0.0003557394532)
(0.005144913975 0.0001690107774 0.0004243932744)
(0.006713273449 -0.000149084606 8.011712658e-05)
(0.007482792246 0.0001048679683 0.001692134423)
(0.004995559508 -0.0004033910914 0.0002485338819)
(0.01042174838 0.0002153443991 -3.46686611e-05)
(0.004451209038 0.000369518042 0.0001788585348)
(0.01310974254 -0.001193396772 0.0008261497654)
(0.006983314915 0.0005396643518 -0.001024408842)
(0.005831131645 0.0006159537986 -0.0002898696033)
(0.00823623803 0.000337373224 -0.0003739996014)
(0.006792925326 0.0002296344945 6.581289779e-05)
(0.009000154302 6.337566829e-05 0.0002991162343)
(0.007610337405 -9.008118592e-05 -0.0004799736894)
(0.008408325972 0.000452311275 0.001008101441)
(0.01204675327 -0.0002970492165 4.369757317e-05)
(0.008152921 6.090013743e-05 0.0004883819017)
(0.007244260033 0.0007298406126 -0.0003395061309)
(0.004021563498 -0.0002430833435 6.295085132e-05)
(0.007683481316 -4.426638681e-05 7.340772431e-06)
(0.009932716086 0.000264196164 -0.0002020676493)
(0.009624324881 -0.0005096473798 0.001259940108)
(0.005768402416 -0.0005952325335 -0.0004237365792)
(0.01185588817 0.0001383326725 -0.000483157242)
(0.007401173331 -0.0003923517022 7.751354367e-05)
(0.008630809192 -0.0003693731372 6.872259769e-05)
(0.00612283831 0.001300519481 -2.549662157e-05)
(0.007567845081 0.0004311911032 0.0005350018144)
(0.01262259366 0.0006261339356 0.0009571142835)
(0.005168113022 -0.0002116469335 -6.169358579e-05)
(0.007402034361 0.0001273362514 8.198310305e-05)
(0.007442095975 -0.000107685092 0.0004800509752)
(0.006742070474 0.0004604967409 7.065432124e-05)
(0.012067716 -0.0005966483803 0.000200376543)
(0.006587297624 0.00120727762 -0.0001933255551)
(0.005577353863 -0.0001643789837 -0.0001807033881)
(0.01064013154 0.0008438975033 -0.0007142786538)
(0.009189077961 0.0001706577435 4.406995103e-05)
(0.004766759693 0.0001009765958 0.0001122558466)
(0.002985076533 -0.0001040525919 -4.139424234e-05)
(0.008549247029 -0.0009163655049 0.000244790336)
(0.008813014632 0.0008768902378 0.0006021829306)
(0.005718260957 -0.000224459555 0.0004940982691)
(0.01129700104 0.000540458922 -0.0004421815001)
(0.009930483527 -0.0008612505905 -2.834619218e-05)
(0.008302124092 -4.728579272e-05 0.0002337109182)
(0.01031598443 0.0001746722951 2.517923792e-05)
(0.003802838694 0.0004455291271 0.001020413005)
(0.008093573315 -0.0001176982569 -0.0001563747662)
(0.004270222495 0.0001307431291 -0.0003301969021)
(0.009517698821 7.011494428e-05 -0.000148907554)
(0.01090869804 0.0003754162138 -0.0004609280343)
(0.00769460354 -0.0002017286492 0.0005143029957)
(0.005084943375 -0.000125141463 -0.0003291288928)
(0.007503874642 -0.0001097040603 -0.0002835407546)
(0.00913377695 -0.0005181034773 0.0001216798186)
(0.006368130547 5.183982773e-05 -3.181486809e-05)
(0.009187376391 0.0008471329416 -0.0001548029978)
(0.009045444587 -5.742173577e-05 0.0007048546386)
(0.006001312332 -0.0004301816361 -0.0004643805329)
(0.01207071157 -3.58000763e-05 -0.0001171624091)
(0.008571403391 -9.533061693e-05 -8.532881845e-06)
(0.007128685126 0.0004019088845 0.0001045330635)
(0.004874467659 4.411167715e-05 -0.0006411511801)
(0.006977197563 0.0006783552731 -7.786458971e-05)
(0.006409662845 -0.000220609781 -0.000747458033)
(0.01189291543 -0.0006744872996 -0.0005486161906)
(0.01054130555 -0.0001355842435 -0.0006903004595)
(0.008868304473 -2.325144891e-05 -0.0005462587444)
(0.01005493472 0.000362683235 -0.0005377295109)
(0.007933875707 -1.951735449e-05 -0.0005493439204)
(0.01048335469 -0.0003513216155 -8.388687231e-06)
(0.007823278328 -0.0001968677063 -0.0004537316085)
(0.006375916429 0.0003094154271 8.573098525e-05)
(0.006052263479 -1.04617222e-05 0.0004783687312)
(0.007102327554 -0.0009678375522 -0.0004266510276)
(0.006069523865 -0.0002605926103 0.0001003361779)
(0.004211189096 -0.0005629300645 -0.0001692454325)
(0.005669970373 -4.419946891e-06 -2.356184068e-05)
(0.006067959823 -0.0004947527043 0.0002621580552)
(0.005147964617 -0.0004853105748 -3.180468377e-06)
(0.004555275935 -5.681747257e-05 -1.506427559e-05)
(0.01058331782 0.0004283577616 -0.0006151468198)
(0.01226202942 4.063027968e-05 -1.124605086e-05)
(0.006050195608 -9.959884751e-05 7.260074189e-05)
(0.004949477146 4.221971051e-05 0.0001692585947)
(0.01333949268 3.369563665e-05 0.0001272161195)
(0.004934783896 0.0004648150242 -9.480910592e-05)
(0.01055683707 -0.0001078223854 0.0005328596756)
(0.008369099757 0.0002561436116 -3.863622023e-05)
(0.01364006971 -5.586267175e-05 0.0006914978754)
(0.01655158627 -0.0001406479191 -0.000566831853)
(0.01164238033 -3.022798446e-05 -0.0004041746038)
(0.01187162024 -0.0005348873491 -0.0004580390319)
(0.008736087928 -0.0005066836049 -0.0004538170884)
(0.0111693156 0.0001011687776 0.000741372257)
(0.006424795043 -1.636559e-05 0.0001492757106)
(0.01315501323 0.0003255740445 -0.0002143105648)
(0.01029605361 0.0003042367899 -0.000264717665)
(0.007867079961 0.0002365369258 0.000381323789)
(0.01099580508 -0.0004713291259 0.0005153569238)
(0.009323271583 0.000403957986 -0.0004077546529)
(0.007175459428 0.0001462121443 -0.0006709995649)
(0.009120461192 -0.0003075492622 -0.0003208991856)
(0.006171118834 0.0002376435048 4.873409668e-05)
(0.007888027204 -0.0001014213524 0.0001011731197)
(0.00825973806 0.0002077972363 -0.0005416095102)
(0.01057427521 0.0006996605025 -0.0006052067428)
(0.009741085121 0.0009274912586 0.0002483308775)
(0.007016264644 -0.0004769834057 0.0001203169924)
(0.009979166265 -0.0007453064524 0.0002842141255)
(0.008256274927 -0.0001891943835 0.0001469294371)
(0.01198846583 -0.0002265716449 -0.0001186832059)
(0.004578919675 -0.0001344604348 -0.0001310005036)
(0.01055194499 -0.0007685447204 -0.0004047469297)
(0.003107347757 -0.0001724057326 -0.0001238508907)
(0.007868621075 -0.0004094450426 0.0005069399841)
(0.006856076578 -2.874901716e-05 -0.0004306156701)
(0.003705259727 -0.0001548342424 0.0003869837688)
(0.006482198978 -0.0008522731079 0.0003858577992)
(0.00603529172 -0.0004983066514 -8.865157788e-05)
(0.006703028111 0.0005459052999 -4.476302341e-05)
(0.006583337498 -0.0004535932009 0.0003158161753)
(0.008425554555 -0.000163636435 0.00108389036)
(0.01556315267 0.0002193038211 -0.001402489257)
(0.007427672816 0.0003783814502 -0.0008824481528)
(0.004011738765 0.0001298085595 0.0005397172079)
(0.006790578558 0.0004353479751 -0.0006167090237)
(0.005977630352 0.0004169535273 0.0002282244909)
(0.005122804332 -0.0002122571861 -0.0005052085293)
(0.007695646472 -0.0003981936357 -2.526968567e-05)
(0.0115579322 0.0001709244616 6.791686018e-05)
(0.005682341135 -2.290566067e-05 -2.181616297e-05)
(0.0113895428 0.0003339740168 1.845521711e-05)
(0.005559444906 -0.000240503674 0.0006436174519)
(0.006586602413 0.0002236595221 -0.0005809647524)
(0.003950745867 -2.14664487e-05 8.762790078e-05)
(0.0117152565 0.0003339103941 0.0004622271895)
(0.007888886714 0.0001752446051 9.298480148e-05)
(0.006430103531 0.0001225931503 0.0007895869355)
(0.009267201365 -0.0005919133482 -2.65287044e-05)
(0.01192436413 0.0001664651235 3.968573362e-05)
(0.006246507097 -0.0002591202187 0.0001266174555)
(0.01024148796 -0.0004600985499 0.0001175222205)
(0.01216953449 -0.0001099850243 -0.0007117669382)
(0.007397247899 -0.0006841234328 -0.0001804441492)
(0.007462015622 0.0009546355899 0.0002540166477)
(0.008995976837 -0.001460958303 -0.000373503375)
(0.01249285881 -0.0003171884128 0.0005669516484)
(0.005595031235 0.0008588334731 0.0002132239524)
(0.008010521314 -0.0006291142359 -0.000135603328)
(0.007910940196 0.0005520763195 -0.001265418008)
(0.01198488046 -0.0005424006709 -0.0001547285494)
(0.01491549359 0.0002239314136 -0.0008903028231)
(0.006294542056 -0.0006560002224 0.000884764294)
(0.004918788599 0.0001677090885 0.0001559073712)
(0.0125137732 -2.785917923e-05 -0.0001084563022)
(0.007157242869 -0.0001214483455 0.0002274433663)
(0.008720076507 0.0001005936589 -0.000307065785)
(0.005389936791 -0.0005047799618 0.0003594542465)
(0.008781275364 -0.0002623519672 4.185932407e-05)
(0.006033824368 0.0004925725485 -0.0001164372838)
(0.01062202188 0.0001953668514 -0.0002617976112)
(0.007028693245 6.991297926e-06 -0.0002672505483)
(0.009578002275 -0.0005415598432 -0.0005330460769)
(0.004493152246 0.0006678179827 -0.000216962132)
(0.008162742117 2.325378769e-05 0.0009214035415)
(0.005240402413 -0.0004502240482 -0.0002858575753)
(0.007905630798 9.517394338e-05 -0.001003090908)
(0.006126033842 0.0003603586585 -0.0008212316107)
(0.005366555009 -0.0003605141041 3.849153359e-05)
(0.00952966182 -0.0004331355079 -0.0005640144058)
(0.004120039283 0.0001666642081 -1.81164124e-05)
(0.01172928 3.193751725e-05 -0.0002373308467)
(0.01189990643 -7.271693144e-05 -0.0007481308249)
(0.009200897818 0.0003597598603 -0.001613708157)
(0.01129272703 0.000185605011 0.0006489336407)
(0.005341022577 0.0002314086574 0.0003860186955)
(0.00919047502 -0.0001655672636 7.904505806e-05)
(0.004315194393 -8.943619212e-05 0.0001197453976)
(0.009657410037 -0.0002674606226 -0.0006264851933)
(0.01001031496 0.0003324456163 0.0004901764067)
(0.00772959424 -0.0001594098455 -0.0002182996187)
(0.00113653767 -0.0002723483643 -9.13669785e-06)
(0.007613115892 -0.0006157955532 0.0001113961216)
(0.008333319634 -0.0003387718718 0.0001015549852)
(0.009207347595 -0.0002536364614 0.0008146079677)
(0.005387359228 0.0004951770101 -0.0005584628569)
(0.007452244678 0.0004694795163 -0.0002357496624)
(0.0114457468 0.000320244826 0.001257074359)
(0.007121096875 0.0001167109109 -0.0003090292254)
(0.004686384642 2.551903566e-05 -0.0004687398117)
(0.004610303879 0.0008013530049 -0.0001454738932)
(0.01116334035 -0.0003304694231 8.024957686e-05)
(0.01148318169 0.001546694051 -0.0005848587979)
(0.009960460143 9.140034574e-05 0.0002284759975)
(0.01230245652 0.000643238057 2.080570183e-05)
(0.008828134579 -7.899901883e-05 -0.0002515539348)
(0.005572631886 0.0003924769396 -0.0003432071726)
(0.004592447688 -0.0003629268564 6.361225015e-06)
(0.01019056888 -0.0002669871044 -0.0002746162099)
(0.00495680926 0.0005120330287 0.0001735858357)
(0.00959579174 0.0005977242657 0.0004304206517)
(0.01000085104 0.000831102468 0.0005052066532)
(0.008298000872 0.0002398622842 -6.60870121e-05)
(0.007635335626 -0.0003118271669 0.0006977786945)
(0.01509873845 0.0007342670533 -0.0003145229021)
(0.009737562501 0.0004003395047 -0.0001365196355)
(0.006856243391 -0.0003434457163 0.0002013330329)
(0.01081830974 0.0004211005344 0.0001671848569)
(0.007927496181 0.0003327256888 -8.750993058e-05)
(0.00984743243 -2.008985458e-05 -0.0002186918478)
(0.01083038244 -0.0009102559161 0.0004590045854)
(0.009677386989 -0.0003882460446 -0.0003489122099)
(0.01036180478 -4.514146006e-05 -0.0003044264775)
(0.008078009053 -5.528422651e-05 0.0002829187228)
(0.008859631636 -0.0001051309638 0.000449397943)
(0.008858183881 0.0005597031641 0.0003795548644)
(0.00748021839 2.851139358e-06 -0.0001692363074)
(0.007718924908 0.002032814926 0.000806780905)
(0.003874674546 0.001730205507 0.000596731471)
(0.00647921701 0.002181522474 -0.000362813162)
(0.007671036814 0.002468635142 -0.0009440510917)
(0.008220115215 0.003142402588 0.001234323215)
(0.00877345235 0.004109185722 0.001128691263)
(0.004788843561 0.00154501008 -0.001374425522)
(0.005730294231 0.0006794897627 -0.001569941544)
(0.006793013555 -4.824471229e-05 0.001773462057)
(0.007567791929 0.001628102231 0.0003973573507)
(0.003493035786 0.0002843866083 -0.0001673850831)
(0.01192234608 0.005681350099 0.0001456639014)
(0.01060216307 0.001485891275 0.0002217802199)
(0.009294667217 0.0005162500911 0.0009621198153)
(0.008104844125 0.001463533637 -0.00206704577)
(0.01004234874 0.004615364658 0.0005146444523)
(0.01274470348 0.003893771542 -0.0001149382289)
(0.009488294295 0.004086283538 0.0007490292111)
(0.004158460766 0.002173001816 5.254846653e-06)
(0.006690324398 0.003028765776 -0.00247817667)
(0.01026712041 -0.001040706797 0.001699879335)
(0.008897639711 0.003529505099 0.0006619121247)
(0.005205895865 0.002033540235 0.0002257079782)
(0.01304554326 0.003021758855 -0.001217892193)
(0.00690679556 0.001883773629 0.0007593667112)
(0.01170482319 1.158632608e-05 -0.0004883495481)
(0.008680145929 0.004629610468 0.0005770305947)
(0.01220902105 0.001508438136 -0.002191563377)
(0.01144919565 0.003605117079 0.0006870908121)
(0.01109545513 0.002633111674 0.0005195869938)
(0.008990867108 0.003225409989 -0.001495892015)
(0.007657012354 5.835740522e-05 -0.001060159038)
(0.01009070364 0.0005153373836 4.190626803e-05)
(0.009537201574 0.001429165443 -0.0003470301904)
(0.009703928624 0.001376216824 -0.0004562814745)
(0.01145426093 0.003267144008 0.0005609391834)
(0.01017550212 0.002619070823 -0.001509781087)
(0.01211988818 0.0009846587757 -6.032855602e-05)
(0.0122243786 0.003390905162 0.0004378723865)
(0.009483423943 0.002653039335 -0.0007400187169)
(0.007463274428 -0.000357582787 0.0003835865535)
(0.008995449692 0.0004884890176 -0.001035165943)
(0.005208175445 0.001354542111 -0.0003506318331)
(0.008508668447 0.002394086475 0.0006287980685)
(0.01161801105 0.005569824065 -0.001713890393)
(0.01492252489 0.003944745889 0.001291701216)
(0.01248892464 0.001404513564 0.001271527155)
(0.01162722391 0.004573467844 0.000572218673)
(0.01284739793 0.002925306505 0.0001763402275)
(0.01240338382 0.004791057052 -0.0005488375548)
(0.008890080956 0.0002354592491 0.00016854677)
(0.009193607044 -9.684649737e-05 -9.863228865e-05)
(0.008850201082 0.001979627781 -0.0005930307291)
(0.0108150258 0.0005920484163 1.514634824e-05)
(0.01065123111 0.002328880262 -0.000191248647)
(0.01190245567 0.004610155985 -0.0001789808014)
(0.01124223097 0.001981904451 0.0009238468764)
(0.01161417725 0.001958241254 -0.0004262710984)
(0.008760631955 0.003355655483 -0.0007215082889)
(0.01200901986 0.003387706867 0.000309379799)
(0.005283155266 -0.0002862570457 0.0006214163962)
(0.006011644278 9.875487375e-05 0.001073044353)
(0.01171440396 9.216981808e-05 -0.0007007599296)
(0.008225435269 0.0009691721541 -0.0001870230741)
(0.01633536791 0.0003277491645 -0.0002009839265)
(0.004275004601 0.0005632766476 0.0005086630852)
(0.009500163495 0.002655620855 -0.0006452017816)
(0.007724346916 0.004229390109 -0.0006245297814)
(0.01364833831 0.00153925574 -0.0004290799943)
(0.01562342029 0.004795662366 -0.002327909515)
(0.00591706032 -3.940012492e-05 0.0002635821664)
(0.00748944397 -0.0002627914774 0.0002851970475)
(0.004160738827 0.0003507829385 -0.0003162222059)
(0.007583519975 -0.0003926692205 -0.0003259543937)
(0.006313429651 3.056831687e-05 -0.0008695056341)
(0.01223371873 -1.041009321e-05 0.0001333635529)
(0.007949535797 0.002320431047 0.001083036351)
(0.008285255311 0.001443981331 -7.223290635e-05)
(0.008257414954 -0.0007075638905 0.0003547332634)
(0.00912799375 0.002581580639 -0.001897654697)
(0.006819927225 0.001370991319 -0.0008858931953)
(0.005070991475 2.477445665e-05 0.0004130696371)
(0.01056596337 0.0002244162255 -0.000311228177)
(0.005201549865 0.0007919179741 -0.000613226044)
(0.01121110427 0.0009016889073 -0.0003342020886)
(0.004649630683 8.086169584e-05 0.0002571571592)
(0.008606994196 0.001546267861 -0.001013685463)
(0.01576262465 0.0009924303752 0.001594188677)
(0.008381997322 0.001274696028 0.000258018219)
(0.008395257991 0.001940710027 0.0001505858855)
(0.009953988999 0.0009810116555 -4.968054167e-05)
(0.006601885826 9.219583247e-05 -0.0006213263811)
(0.009263475676 -0.001085591989 0.0005109418848)
(0.01253985511 -8.866765181e-05 -0.0001533924408)
(0.007308298172 -0.0006002774379 7.099032979e-05)
(0.004688063289 -0.0004584199689 -0.0002289930619)
(0.01244069568 0.002022984355 0.0001764214213)
(0.00838649304 0.001464193159 -0.0003694781232)
(0.01660687988 0.0006132927946 -0.0007305837157)
(0.01138824604 0.0007883952503 -0.0003803748624)
(0.01352341516 -0.0008122547856 0.0002422527426)
(0.004007434104 0.0007777938114 -0.0006730392168)
(0.008684893391 -0.0004675459828 -4.703823826e-05)
(0.009336422748 0.000631605858 0.000176052752)
(0.004348558935 0.0002877691161 -0.0004075635994)
(0.00534218384 0.0004390695515 0.0007280067939)
(0.008660816723 5.683935468e-05 0.0002336074219)
(0.008736901127 0.001246995527 5.267453763e-05)
(0.01225014517 0.001907262548 -0.0008663503811)
(0.006623609889 0.000178579474 -0.0003456673242)
(0.01112478502 0.001964556792 -0.0001754440419)
(0.007398642146 0.0004470998944 -0.0001330855335)
(0.009364322594 -0.0006919111618 9.195456457e-05)
(0.004364474019 0.0002923650787 -0.0005975659783)
(0.01107508943 0.0006516068235 -0.000451267323)
(0.009148641862 0.001923658231 -0.00038819931)
(0.008813488268 -5.499663341e-05 0.00080507778)
(0.009403806543 -6.779366326e-05 -0.0002592265557)
(0.009730274944 0.0002148190361 0.0006337083299)
(0.009628595498 0.0001295469853 -7.479151641e-05)
(0.00450398731 0.001150248002 -0.0008679821707)
(0.007498093761 -0.0006940970811 -0.000592491925)
(0.006441733208 -0.0003249012669 0.0006143250735)
(0.008061846677 -1.938457001e-05 -6.045077132e-05)
(0.003142862583 0.0008195913745 -0.0002461483058)
(0.01280205437 0.0001220431648 0.000830548091)
(0.006255262433 0.0002043818945 -0.0001791315337)
(0.00614484129 0.0006392842222 0.0003203687775)
(0.01176854323 -0.0005012462449 -0.0004434032826)
(0.006200591949 -0.0006335710467 0.0003633574863)
(0.007409165491 -9.294299622e-05 4.256752877e-05)
(0.006101709488 0.0001602919 -0.000663645982)
(0.01163845616 -0.0004660747722 -0.0004812762929)
(0.01446001351 8.046194885e-05 -0.0007066341406)
(0.005821879423 -0.0002536725044 -0.0003102942513)
(0.009029771166 0.000425544498 -3.153501552e-05)
(0.005912611284 7.736623966e-05 -0.0009759065543)
(0.004425886039 -0.0002327294977 -0.0004310008373)
(0.01136376364 0.001338488556 -0.001132302565)
(0.007738695432 0.000551790341 -0.0001716418076)
(0.005265910118 0.0004191809827 0.000395956116)
(0.01229361121 0.0001024104115 0.0009818329387)
(0.0107870329 0.0002571322273 -0.0003638098979)
(0.009569406153 0.0006746778666 0.0002982042675)
(0.0104666184 0.0004909348459 0.0001000573501)
(0.009700474683 0.0005476690428 -0.0001794598059)
(0.006782389023 -6.592502759e-05 -0.0001965008807)
(0.008733361252 -0.0002306782734 0.001212654557)
(0.006696080638 -0.0001235647607 0.0003704460254)
(0.01162311176 0.0005213228261 1.190285073e-05)
(0.006034303432 -0.0005213411059 -8.4881704e-05)
(0.008064398682 0.0003426013056 -0.000100663091)
(0.00639791627 0.0006040133905 2.468177461e-05)
(0.006082754695 0.0005299652361 0.0006278199329)
(0.00356287405 9.101329788e-05 -9.032308658e-05)
(0.008186127232 -0.0003648361942 0.0001723817669)