/*--------------------------------*- C++ -*----------------------------------*\
  =========                 |
  \\      /  F ield         | OpenFOAM: The Open Source CFD Toolbox
   \\    /   O peration     | Website:  https://openfoam.org
    \\  /    A nd           | Version:  7
     \\/     M anipulation  |
\*---------------------------------------------------------------------------*/
FoamFile
{
    version     2.0;
    format      ascii;
    class       volScalarField;
    location    "0.009";
    object      rhoMMean;
}
// * * * * * * * * * * * * * * * * * * * * * * * * * * * * * * * * * * * * * //

dimensions      [1 -3 0 0 0 0 0];

internalField   nonuniform List<scalar> 
654
(
3.659763436e-06
4.726189192e-06
4.743136562e-06
4.713178359e-06
4.741875867e-06
4.721681504e-06
4.717865445e-06
4.718284643e-06
4.709352904e-06
4.729948923e-06
4.734405466e-06
4.725456555e-06
4.739693e-06
4.730617455e-06
4.740875984e-06
4.730177244e-06
4.734808603e-06
4.842186042e-06
5.13235164e-06
6.446033158e-06
3.712333853e-06
4.776056969e-06
4.808433024e-06
4.801051953e-06
4.823474031e-06
4.822118082e-06
4.808727949e-06
4.804900272e-06
4.818625227e-06
4.792206951e-06
4.791192859e-06
4.778529067e-06
4.767661435e-06
4.761453581e-06
4.751018616e-06
4.80815541e-06
4.847169765e-06
4.933908325e-06
5.281641163e-06
6.183894914e-06
3.715586909e-06
4.758820136e-06
4.782505131e-06
4.778399841e-06
4.779188944e-06
4.780295697e-06
4.789064608e-06
4.775201771e-06
4.759296541e-06
4.771872115e-06
4.774274277e-06
4.770997756e-06
4.785583972e-06
4.796679925e-06
4.813602579e-06
4.837736302e-06
4.852646463e-06
4.962285359e-06
5.187576517e-06
5.73038682e-06
3.746520649e-06
4.787414845e-06
4.825318373e-06
4.819768916e-06
4.809233514e-06
4.794865112e-06
4.784156976e-06
4.801789541e-06
4.807486276e-06
4.806589932e-06
4.784834905e-06
4.776310746e-06
4.789562258e-06
4.763766183e-06
4.763797564e-06
4.800286825e-06
4.859959959e-06
4.956459028e-06
5.120556052e-06
5.455486106e-06
3.719414585e-06
4.787689127e-06
4.798402446e-06
4.794313957e-06
4.799561455e-06
4.797961865e-06
4.794909591e-06
4.791297878e-06
4.796221801e-06
4.79125562e-06
4.803951534e-06
4.849551562e-06
4.859877064e-06
4.85902506e-06
4.83036981e-06
4.845599843e-06
4.865285678e-06
4.933364853e-06
5.059949869e-06
5.236712398e-06
3.722943635e-06
4.784383076e-06
4.832554528e-06
4.789633305e-06
4.789296261e-06
4.808722024e-06
4.794507565e-06
4.783719496e-06
4.773663462e-06
4.795156565e-06
4.801553445e-06
4.82424226e-06
4.830697828e-06
4.851679072e-06
4.874214316e-06
4.886203651e-06
4.888649552e-06
4.919676694e-06
5.005650358e-06
5.124424227e-06
3.725460952e-06
4.763387252e-06
4.824198151e-06
4.820987724e-06
4.831836333e-06
4.797718964e-06
4.834900223e-06
4.88423934e-06
4.877354067e-06
4.836758034e-06
4.827628615e-06
4.784878875e-06
4.810427235e-06
4.794451098e-06
4.798912825e-06
4.798680431e-06
4.829814814e-06
4.871285946e-06
4.912371112e-06
5.018775605e-06
3.710534731e-06
4.791733877e-06
4.785059014e-06
4.773022607e-06
4.797692906e-06
4.783400735e-06
4.772342967e-06
4.750380493e-06
4.770242255e-06
4.816602968e-06
4.818213435e-06
4.821783631e-06
4.828298258e-06
4.802566055e-06
4.840578676e-06
4.859255973e-06
4.835594953e-06
4.839730884e-06
4.873514912e-06
4.937355358e-06
3.732822631e-06
4.809258091e-06
4.811668908e-06
4.804396188e-06
4.801383072e-06
4.849278021e-06
4.860684079e-06
4.844072271e-06
4.85083128e-06
4.825083757e-06
4.817658207e-06
4.811605776e-06
4.811405503e-06
4.782024143e-06
4.780068117e-06
4.762638046e-06
4.809194959e-06
4.858073359e-06
4.885023259e-06
4.941361184e-06
3.726717945e-06
4.79505946e-06
4.830812984e-06
4.84681754e-06
4.815388233e-06
4.7705961e-06
4.764497709e-06
4.765633251e-06
4.754397936e-06
4.750613998e-06
4.743203026e-06
4.782451626e-06
4.781541443e-06
4.794744773e-06
4.795065015e-06
4.811157419e-06
4.820920889e-06
4.81727187e-06
4.847050304e-06
4.872810555e-06
3.720556052e-06
4.755424385e-06
4.758251809e-06
4.767242607e-06
4.77418842e-06
4.807217688e-06
4.780854027e-06
4.778350177e-06
4.753475163e-06
4.770187778e-06
4.782085563e-06
4.764915935e-06
4.782608669e-06
4.799407652e-06
4.831467909e-06
4.790780326e-06
4.82561427e-06
4.852014125e-06
4.851195863e-06
4.888552679e-06
3.720622146e-06
4.799559604e-06
4.820351452e-06
4.817166851e-06
4.820209127e-06
4.799845503e-06
4.784028491e-06
4.808637879e-06
4.8144332e-06
4.821688007e-06
4.816776812e-06
4.821264736e-06
4.830092937e-06
4.837118313e-06
4.833030564e-06
4.836749888e-06
4.806959467e-06
4.804790439e-06
4.800597671e-06
4.838522814e-06
3.702891736e-06
4.77151679e-06
4.788973798e-06
4.750745955e-06
4.781659931e-06
4.786895951e-06
4.816150908e-06
4.853223815e-06
4.864969879e-06
4.851641767e-06
4.844409685e-06
4.820905569e-06
4.818334144e-06
4.808928592e-06
4.778875135e-06
4.79508899e-06
4.816916545e-06
4.804946973e-06
4.82766754e-06
4.8325717e-06
3.738249898e-06
4.78288022e-06
4.814561685e-06
4.840998614e-06
4.832005965e-06
4.814667815e-06
4.796650395e-06
4.763113341e-06
4.75939883e-06
4.780505968e-06
4.777337057e-06
4.773053479e-06
4.759983588e-06
4.75859959e-06
4.769726184e-06
4.786375667e-06
4.785358983e-06
4.793100703e-06
4.834692545e-06
4.827460972e-06
3.708869417e-06
4.78644227e-06
4.786102635e-06
4.763632004e-06
4.769905952e-06
4.75384678e-06
4.765096675e-06
4.767511196e-06
4.748495744e-06
4.72730187e-06
4.734249163e-06
4.789256596e-06
4.7996157e-06
4.811826183e-06
4.829916871e-06
4.822349366e-06
4.833586532e-06
4.811110347e-06
4.805442402e-06
4.826231519e-06
3.707431915e-06
4.78484231e-06
4.802736058e-06
4.80874438e-06
4.778908368e-06
4.811788137e-06
4.84585126e-06
4.847260714e-06
4.84781335e-06
4.845237112e-06
4.854022314e-06
4.82735188e-06
4.821145137e-06
4.837251751e-06
4.80074754e-06
4.794537094e-06
4.776938502e-06
4.795893413e-06
4.825300831e-06
4.787808356e-06
3.699684271e-06
4.739887209e-06
4.76747278e-06
4.753547181e-06
4.786284996e-06
4.795860551e-06
4.786176644e-06
4.791759334e-06
4.838495506e-06
4.809517793e-06
4.761069096e-06
4.75688091e-06
4.758156926e-06
4.768788692e-06
4.757151721e-06
4.796563288e-06
4.813566986e-06
4.804667369e-06
4.806483292e-06
4.812163596e-06
3.751650908e-06
4.76502947e-06
4.787179859e-06
4.810742664e-06
4.789393736e-06
4.778162494e-06
4.753704826e-06
4.73432058e-06
4.685544607e-06
4.735242011e-06
4.74690518e-06
4.796678073e-06
4.787194809e-06
4.789776e-06
4.805211118e-06
4.789362356e-06
4.769515913e-06
4.807863726e-06
4.802657606e-06
4.833243565e-06
3.697421841e-06
4.779530801e-06
4.792780461e-06
4.797118516e-06
4.769859622e-06
4.766342051e-06
4.746570358e-06
4.78105467e-06
4.768162556e-06
4.779475583e-06
4.785059384e-06
4.778928872e-06
4.763141389e-06
4.774607248e-06
4.776756512e-06
4.791111815e-06
4.800060355e-06
4.763890596e-06
4.744842653e-06
4.731855656e-06
3.751433093e-06
4.8321357e-06
4.868685871e-06
4.836619181e-06
4.838061867e-06
4.850388616e-06
4.844911547e-06
4.860164675e-06
4.842657264e-06
4.855909516e-06
4.825873231e-06
4.816371684e-06
4.80098771e-06
4.78386071e-06
4.801035892e-06
4.779528949e-06
4.768338484e-06
4.76582797e-06
4.784772745e-06
4.769371228e-06
3.707508886e-06
4.723979758e-06
4.754109815e-06
4.768221477e-06
4.775343216e-06
4.793308752e-06
4.77198454e-06
4.792361633e-06
4.800835989e-06
4.779435918e-06
4.81766339e-06
4.816294343e-06
4.806484912e-06
4.830034248e-06
4.81733241e-06
4.789343333e-06
4.815167456e-06
4.810879805e-06
4.807544224e-06
4.802440902e-06
3.713102082e-06
4.779479286e-06
4.799825739e-06
4.792092304e-06
4.782640421e-06
4.790663828e-06
4.793299125e-06
4.785877276e-06
4.777637536e-06
4.772069055e-06
4.765724431e-06
4.770809841e-06
4.793606638e-06
4.798158805e-06
4.830654089e-06
4.82836213e-06
4.864425389e-06
4.84281713e-06
4.819000687e-06
4.808599324e-06
1.160186593e-05
1.339510704e-05
1.431501343e-05
1.459632848e-05
1.451582481e-05
1.477909273e-05
1.48964176e-05
1.501486347e-05
1.503973171e-05
1.510736657e-05
7.91726985e-06
9.377956761e-06
1.055621481e-05
1.145284852e-05
1.19872287e-05
1.260351184e-05
1.27805126e-05
1.289707242e-05
1.311973374e-05
1.329651789e-05
6.638124564e-06
7.684895002e-06
8.599706589e-06
9.523623181e-06
1.033482027e-05
1.093652168e-05
1.138706013e-05
1.176684737e-05
1.201115739e-05
1.235454613e-05
6.021178368e-06
6.546490987e-06
7.329619775e-06
8.048917828e-06
8.718010319e-06
9.426532929e-06
1.012587439e-05
1.065350905e-05
1.087345405e-05
1.127946859e-05
5.577439828e-06
5.953198564e-06
6.425987514e-06
6.971242733e-06
7.621775713e-06
8.306533066e-06
8.93451607e-06
9.585343981e-06
1.010346613e-05
1.047732365e-05
5.294617212e-06
5.567242672e-06
5.895530085e-06
6.343754501e-06
6.763352093e-06
7.233285005e-06
7.902479872e-06
8.479166133e-06
9.028740288e-06
9.568565017e-06
5.165532542e-06
5.362157134e-06
5.547879508e-06
5.889339842e-06
6.17914793e-06
6.549879171e-06
7.003322415e-06
7.498843108e-06
8.137427423e-06
8.586742663e-06
5.041384194e-06
5.170064813e-06
5.325252338e-06
5.544545001e-06
5.774824514e-06
6.014630174e-06
6.382684073e-06
6.829504924e-06
7.304478244e-06
7.801927903e-06
5.005967204e-06
5.065192201e-06
5.130831908e-06
5.308168855e-06
5.559555568e-06
5.805074529e-06
6.045556031e-06
6.286134955e-06
6.632555322e-06
6.9767537e-06
4.923224417e-06
5.04463446e-06
5.122811477e-06
5.228217115e-06
5.339411696e-06
5.469080357e-06
5.637646536e-06
5.869552517e-06
6.134068732e-06
6.440021575e-06
4.908539837e-06
4.971430349e-06
5.023897716e-06
5.086500235e-06
5.134469047e-06
5.280539607e-06
5.390009522e-06
5.607159794e-06
5.819318933e-06
6.052504486e-06
4.871354689e-06
4.869484389e-06
4.914239786e-06
4.986652445e-06
5.042514729e-06
5.110876807e-06
5.202575136e-06
5.324479947e-06
5.442819084e-06
5.642468712e-06
4.831716453e-06
4.858476531e-06
4.87567565e-06
4.921752034e-06
4.998984438e-06
5.099213416e-06
5.192931493e-06
5.264198762e-06
5.407211765e-06
5.52537072e-06
4.831731811e-06
4.853616971e-06
4.899458068e-06
4.945875613e-06
4.975988087e-06
4.980069947e-06
5.025510842e-06
5.099474935e-06
5.176799744e-06
5.215339819e-06
4.863972504e-06
4.855772361e-06
4.86350368e-06
4.842986619e-06
4.890438103e-06
4.91281841e-06
4.952695516e-06
4.999895628e-06
5.050649352e-06
5.133438596e-06
4.776834207e-06
4.789576152e-06
4.825100566e-06
4.836757327e-06
4.851345774e-06
4.886298332e-06
4.898389354e-06
4.935028793e-06
5.007987355e-06
5.067736819e-06
4.825351552e-06
4.852453347e-06
4.829320912e-06
4.856299207e-06
4.870953882e-06
4.886032838e-06
4.90526613e-06
4.92021672e-06
4.93577452e-06
4.962234544e-06
4.820911812e-06
4.793771518e-06
4.802984295e-06
4.815867322e-06
4.807117704e-06
4.814945026e-06
4.832340453e-06
4.82875217e-06
4.844491666e-06
4.874760223e-06
4.776952032e-06
4.779345287e-06
4.779766326e-06
4.778817091e-06
4.783868748e-06
4.797816815e-06
4.841801556e-06
4.855120213e-06
4.827396395e-06
4.902369646e-06
4.782026786e-06
4.795736755e-06
4.788466059e-06
4.792611041e-06
4.795778829e-06
4.805633697e-06
4.805657279e-06
4.843310899e-06
4.893373798e-06
4.869810692e-06
4.805171134e-06
4.798686565e-06
4.810658383e-06
4.825713805e-06
4.819466334e-06
4.811738581e-06
4.821148563e-06
4.812699525e-06
4.809104315e-06
4.831157132e-06
4.808329822e-06
4.823479755e-06
4.831504166e-06
4.841934605e-06
)
;

boundaryField
{
    flow
    {
        type            calculated;
        value           nonuniform List<scalar> 
42
(
3.659763436e-06
3.712333853e-06
3.715586909e-06
3.746520649e-06
3.719414585e-06
3.722943635e-06
3.725460952e-06
3.710534731e-06
3.732822631e-06
3.726717945e-06
3.720556052e-06
3.720622146e-06
3.702891736e-06
3.738249898e-06
3.708869417e-06
3.707431915e-06
3.699684271e-06
3.751650908e-06
3.697421841e-06
3.751433093e-06
3.707508886e-06
3.713102082e-06
3.659763436e-06
4.726189192e-06
4.743136562e-06
4.713178359e-06
4.741875867e-06
4.721681504e-06
4.717865445e-06
4.718284643e-06
4.709352904e-06
4.729948923e-06
4.734405466e-06
4.725456555e-06
4.739693e-06
4.730617455e-06
4.740875984e-06
4.730177244e-06
4.734808603e-06
4.842186042e-06
5.13235164e-06
6.446033158e-06
)
;
    }
    obstacle
    {
        type            calculated;
        value           nonuniform List<scalar> 10(6.497526094e-24 6.9322991e-24 7.341688707e-24 6.907485575e-24 6.704959821e-24 6.724993948e-24 6.906733671e-24 7.086092796e-24 6.884523777e-24 6.879218854e-24);
    }
    frontAndBack
    {
        type            empty;
    }
    procBoundary0to1
    {
        type            processor;
        value           nonuniform List<scalar> 
21
(
1.478053822e-05
1.316646369e-05
1.233952796e-05
1.160240692e-05
1.084103747e-05
9.949182197e-06
9.057674118e-06
8.306884001e-06
7.41415813e-06
6.792617344e-06
6.347970624e-06
5.898960382e-06
5.696294916e-06
5.302838373e-06
5.28841745e-06
5.112533776e-06
5.001136939e-06
4.916807737e-06
4.926137748e-06
4.861681822e-06
4.889307213e-06
)
;
    }
    procBoundary0to2
    {
        type            processor;
        value           nonuniform List<scalar> 
31
(
3.728623568e-06
4.766463131e-06
4.802771142e-06
4.789676905e-06
4.787122281e-06
4.783170563e-06
4.796391064e-06
4.822178252e-06
4.853010444e-06
4.834984369e-06
4.858917819e-06
4.867525984e-06
4.832419609e-06
4.807681735e-06
4.811157789e-06
4.765907162e-06
4.764216021e-06
4.779403426e-06
4.803275226e-06
4.815265301e-06
4.840043064e-06
4.832049e-06
4.850203602e-06
4.84387485e-06
4.847058317e-06
4.874891521e-06
4.808752876e-06
4.807622504e-06
4.765201597e-06
4.840043064e-06
4.747963272e-06
)
;
    }
}


// ************************************************************************* //
