/*--------------------------------*- C++ -*----------------------------------*\
  =========                 |
  \\      /  F ield         | OpenFOAM: The Open Source CFD Toolbox
   \\    /   O peration     | Website:  https://openfoam.org
    \\  /    A nd           | Version:  7
     \\/     M anipulation  |
\*---------------------------------------------------------------------------*/
FoamFile
{
    version     2.0;
    format      ascii;
    class       volVectorField;
    location    "0.009";
    object      UMean;
}
// * * * * * * * * * * * * * * * * * * * * * * * * * * * * * * * * * * * * * //

dimensions      [0 1 -1 0 0 0 0];

internalField   nonuniform List<vector> 
654
(
(1710.936917 -8.657068984 0.00610955543)
(1747.1908 -7.805729593 -0.4079960552)
(1737.360016 -5.867462049 -0.3509386857)
(1737.496128 -5.31135665 -1.10323958)
(1739.302414 -7.095435824 -1.461876222)
(1738.033193 -8.715413584 0.04253397031)
(1739.362587 -8.557993708 -0.2334467497)
(1740.147422 -6.812377198 0.2256033787)
(1737.886848 -5.820725321 -0.974560023)
(1737.169144 -7.464759854 0.4683605163)
(1737.315686 -7.831882766 1.60334682)
(1738.282573 -9.819684589 1.504971789)
(1737.080728 -9.371169902 1.063185992)
(1735.166606 -8.474557843 2.393263546)
(1730.019071 -7.502623683 3.180070258)
(1724.497451 -8.078179171 3.015165614)
(1713.324389 -8.461998554 0.8292840405)
(1678.925109 -11.68497805 0.7193012321)
(1573.690079 -17.51937179 0.6905136816)
(1198.221383 13.02191167 2.588702628)
(1712.876472 -1.017246407 -0.1181217624)
(1749.947563 0.1246317877 1.45332694)
(1740.447276 -2.395997629 0.3113718027)
(1738.720998 -1.034329845 -0.7020591339)
(1735.731321 0.5861645832 -1.245828185)
(1737.720068 2.234435088 -2.501141478)
(1736.05256 0.9694260284 -1.801466957)
(1737.111451 -2.041424664 -3.245428252)
(1738.662325 -4.271857642 -2.473555946)
(1738.104387 -2.322950488 -1.999088813)
(1737.200395 -0.5038359748 0.6854213061)
(1737.05366 -0.7383382497 1.01052918)
(1738.218113 4.538641971 0.9797693801)
(1737.334114 2.482587417 1.214119725)
(1735.154202 2.23309495 0.07938806221)
(1722.517889 1.229296849 1.52908281)
(1702.564562 -1.200827797 0.5272687642)
(1663.012348 1.394025846 2.022698621)
(1549.449915 11.48628316 1.766734003)
(1304.775368 63.35269362 -1.151021489)
(1705.655198 0.8231312917 0.04248826147)
(1741.27014 1.284198858 -1.81231324)
(1734.000902 1.322458235 -1.453541008)
(1734.581386 0.6796506286 -0.2958176739)
(1734.303596 -1.513758299 0.4794906236)
(1734.638125 -1.636550622 2.183833919)
(1734.835273 -0.3345854516 2.05257054)
(1734.830831 3.507851511 1.746493168)
(1734.922338 4.80772098 2.416924787)
(1735.653249 2.730170884 0.803233722)
(1736.005021 1.607632536 -2.338394128)
(1735.128831 1.562032515 -2.460399591)
(1734.112915 -0.7431010125 -2.289332493)
(1735.290977 0.001138391487 -3.2285429)
(1731.740034 -0.2266828438 -2.493891824)
(1724.905856 1.182027745 -2.319646932)
(1705.816709 1.607022419 0.1324988428)
(1666.850737 7.913981169 0.08611389884)
(1584.870192 22.08420091 -0.2662732915)
(1433.017975 63.77185568 -2.966966984)
(1704.056741 -0.5041925588 3.716707952)
(1740.696678 -2.487081176 3.346291747)
(1733.348471 -2.069542578 4.663658721)
(1733.475686 -1.919887893 2.512674397)
(1735.613041 0.1832964868 1.269413444)
(1735.665101 3.03302875 -1.581112444)
(1736.641025 1.290908266 -1.09793882)
(1735.621658 0.5374990533 -0.7264488249)
(1735.530569 -1.038259278 -1.496771991)
(1735.117456 1.338660293 0.001604204863)
(1735.376059 1.972175185 -0.434980173)
(1734.230187 2.083872517 0.0400956531)
(1735.024476 1.500376509 -0.4749383491)
(1734.015369 0.0801409115 -1.239408823)
(1732.004004 -1.716934042 0.4771413803)
(1720.19558 0.2808820501 0.3846673189)
(1709.552309 3.670176095 3.919522262)
(1676.849576 11.54886697 0.2079363953)
(1624.893516 26.2494047 2.008462523)
(1535.942755 55.36221983 3.610475573)
(1706.149563 -1.117798878 4.662039386)
(1743.85597 0.1909246897 3.706051814)
(1735.878751 -0.2914983711 3.013438395)
(1732.633725 -0.002771205174 3.620605379)
(1735.496917 -1.434694181 4.054734208)
(1734.577739 -2.580943905 4.305545993)
(1736.191593 1.660377016 4.827390419)
(1737.707419 2.056396894 5.981159599)
(1739.261019 2.995181488 4.736297167)
(1739.350781 2.595686836 4.301057195)
(1737.685261 3.020607999 4.024659154)
(1734.911395 1.789277202 3.728919609)
(1733.710914 0.9522424021 5.335486367)
(1732.355879 0.8957460916 5.273249986)
(1732.186863 0.9001324509 5.568639219)
(1726.255855 1.796789002 3.722348212)
(1714.451055 2.719802527 5.546221101)
(1692.442604 6.577399847 5.566793997)
(1658.442872 17.78259783 1.352555613)
(1599.589811 45.80145103 -2.628672175)
(1706.461052 2.148290862 -2.597659761)
(1741.840569 0.9516963327 -1.789983184)
(1734.99533 0.9410121094 -1.001202879)
(1734.273354 0.5563853476 1.118598873)
(1735.401994 1.524371001 1.203308095)
(1734.168359 1.00854739 2.535145126)
(1734.554944 -0.5394844104 2.047284056)
(1734.09086 -0.9289487762 0.981349205)
(1732.140986 -1.450702814 -0.1300382396)
(1732.343387 -1.529936891 0.751265002)
(1733.451518 -3.179972798 -0.1236961069)
(1732.534209 -1.69136906 -1.179229926)
(1733.62274 0.6866292578 0.2790467021)
(1731.695907 0.5778418808 0.3855236221)
(1730.75219 -0.3529967116 0.4204937018)
(1726.737526 1.532279189 -0.7293731717)
(1722.012106 4.102090478 0.2523408834)
(1708.328271 9.869445766 -0.6893336335)
(1680.449621 19.75023519 -0.689417552)
(1642.911924 33.70193079 -0.6790092384)
(1705.671652 0.06450766497 -0.5320602832)
(1742.651297 -1.03692192 1.258985904)
(1732.508102 -0.2307936217 1.532163571)
(1731.58856 1.732259497 1.736521735)
(1731.777105 1.323044201 0.5343421933)
(1733.565694 0.6724868087 -0.09138888167)
(1730.079162 0.5134956795 0.9280833521)
(1730.569537 -1.255274935 1.996808837)
(1732.294708 -1.095110215 1.468598661)
(1733.266217 -0.8517565769 2.081625294)
(1731.827687 -1.305846265 1.659189781)
(1732.879433 -2.383456826 1.64046858)
(1731.63742 -2.818842364 0.2317635953)
(1728.952933 -2.754138287 1.241793298)
(1728.425946 -2.357356528 1.237978481)
(1725.602956 2.275733844 2.111489977)
(1719.436067 3.593242791 1.184617581)
(1708.169208 8.087477717 3.073316737)
(1692.839952 16.20740438 1.655198875)
(1664.333436 30.2851248 0.2271995607)
(1710.412341 -0.1939480033 1.487758212)
(1744.106369 -0.0675942569 0.2583162217)
(1735.307489 0.100421615 -0.7584090886)
(1734.705427 -2.935379002 -1.36196995)
(1733.471497 -2.96866066 -0.8790000778)
(1733.714404 -2.852159198 -1.602592616)
(1735.638907 -1.525383574 -0.558855361)
(1736.747952 -1.566758937 -1.070046247)
(1736.504158 -0.7809020412 1.333427027)
(1733.620192 -1.683109684 -0.2345016952)
(1734.668515 -0.9850900865 0.9557073112)
(1734.130925 0.0849110429 1.525043728)
(1732.237966 2.286869685 2.546780055)
(1732.254172 1.597825343 3.132563596)
(1727.50815 2.212105799 2.183447718)
(1723.253043 4.242751785 0.6501153995)
(1721.48183 5.166265658 0.7314349189)
(1715.846501 6.190396407 -1.078529195)
(1706.478417 10.89426029 -0.303811988)
(1685.900084 22.81984595 -0.1038729588)
(1707.147781 -2.154830119 -0.6962323317)
(1744.324498 -1.855782455 -2.039123227)
(1736.807645 -1.918529696 -2.691069673)
(1737.065955 -0.1600840998 -1.537532048)
(1736.989888 -0.459536905 -0.2804555049)
(1735.372379 -1.170969458 -0.4326192726)
(1736.452341 -2.433669124 -0.9076195915)
(1733.45657 -1.163232777 -1.367031537)
(1733.698974 1.471832867 -0.8115881721)
(1733.67865 1.38430442 0.1981841444)
(1734.064055 -0.3803818784 -0.450167211)
(1732.685962 -1.142422596 -0.2444569065)
(1731.508798 -0.6603436973 1.351214078)
(1730.843928 0.3426064436 1.606539469)
(1730.655863 1.950861773 3.213793683)
(1730.562341 2.082605058 1.844253601)
(1724.317903 5.424438783 -0.8869759994)
(1718.145289 8.701313975 -2.764703355)
(1714.390817 9.57836207 -0.4608706768)
(1701.899273 17.73894676 1.304268839)
(1709.986645 -2.848616013 2.189259061)
(1744.966351 -1.888511007 2.62241283)
(1735.434294 -4.051936979 3.348874548)
(1732.924115 -2.799954042 2.615535077)
(1735.043609 -1.726773359 1.586318611)
(1734.030551 0.1064346505 2.537025499)
(1733.462068 0.378254708 2.957887346)
(1733.099923 1.533602927 0.9471400221)
(1732.02542 0.8503766524 -0.06620046274)
(1734.356782 0.5539529921 -1.79286177)
(1732.344523 0.2333338839 -1.034621443)
(1732.65224 3.516468163 -1.840314834)
(1733.498772 3.176867896 -2.841944034)
(1732.919131 2.678520638 -4.409043107)
(1731.650075 2.452425625 -4.410263535)
(1730.905768 -0.05856646142 -4.01347481)
(1726.925831 -0.4622287488 -3.726100019)
(1724.443121 2.08506542 -2.832768403)
(1718.175496 6.793008609 -3.256947929)
(1707.627216 14.96210188 -2.958994458)
(1703.975585 -1.265217335 0.5819561884)
(1742.542023 -0.1607766154 0.52482744)
(1734.901795 1.349487144 1.891929307)
(1735.172607 -0.8218250073 2.170086063)
(1734.676505 1.715239511 1.807010394)
(1735.023759 0.8177953154 -0.8144922154)
(1736.667349 0.3446414237 -0.4783892431)
(1735.586016 0.5890473032 -0.931889169)
(1736.335903 -0.4454374715 -0.08939252673)
(1736.827048 1.34769266 0.08952036715)
(1738.136683 1.830122968 -0.358073996)
(1739.009342 -0.3101549631 -1.079298548)
(1735.841538 -0.7827950791 -2.812868457)
(1735.714454 0.560570329 -1.739034272)
(1735.965196 1.448116946 -2.852575793)
(1734.918319 0.4083451933 -0.9859491544)
(1732.280662 0.9874620622 -0.2430226331)
(1731.675285 2.216279476 0.2278344699)
(1725.982959 4.697096479 0.1428734965)
(1718.980351 8.184421245 0.7546242054)
(1708.551421 -1.420958099 -1.010133865)
(1743.596497 -0.1854056215 -1.51341682)
(1735.337698 0.8071155235 -2.092034731)
(1735.655196 2.178006364 -2.462209315)
(1734.469215 1.970831596 -3.119661018)
(1736.353048 2.276463336 -1.708925657)
(1736.940501 1.872136624 -1.027594848)
(1735.638029 1.435049454 -1.691479802)
(1737.381347 1.617320025 -1.99648532)
(1736.741585 -0.7670026123 -2.049702366)
(1737.846448 -3.836790615 -0.5448552504)
(1737.405736 -3.580841286 0.7260343129)
(1737.704203 -2.3267059 0.6705968697)
(1735.267725 -2.696309987 -0.4816662999)
(1737.156202 -3.223288405 0.3263869493)
(1735.345871 0.02566753329 -3.88821858)
(1738.451131 -0.7725927194 -3.23396469)
(1735.141402 2.490093554 -2.331276368)
(1730.234547 3.908874798 -2.416836344)
(1723.99298 6.860820384 -4.707530242)
(1712.334174 0.297324106 -2.095539781)
(1750.374981 1.657854848 -0.7932574472)
(1741.333835 2.034029676 -2.349562423)
(1740.879036 0.9718302923 -1.502750296)
(1740.949811 -2.249508039 -2.093093011)
(1739.849336 -2.054772572 -2.006264734)
(1738.445595 -1.35850519 -0.872092779)
(1740.045727 -2.533331749 -0.8669219007)
(1738.594724 -1.373302385 0.4996167175)
(1737.235256 -0.8962783007 -0.9736641763)
(1737.184839 -2.070825185 -3.437174802)
(1736.524392 0.3113846357 -2.987534803)
(1735.904413 0.6528008339 -1.513750208)
(1736.650464 1.898251686 -1.329048498)
(1736.965539 1.504701154 -2.341828276)
(1734.994364 1.880953767 -1.232867369)
(1731.150895 1.73400879 -2.073869398)
(1731.874756 0.9815261392 -2.695093187)
(1728.063157 1.784412337 -2.763021515)
(1723.970939 8.116523901 -0.9140524407)
(1708.450792 1.696961305 1.678492454)
(1746.333663 -0.1958002441 -0.3748137271)
(1737.165469 -2.849159054 -0.7441040277)
(1736.488778 -2.656730214 0.991952392)
(1736.603117 -1.465017296 -0.7298477977)
(1736.38689 -2.388953372 -0.6932626272)
(1736.714263 -4.216070607 -0.07642989709)
(1738.131145 -3.060152454 -1.720537451)
(1738.404653 -2.002923803 -3.287207532)
(1738.75658 -0.5733699571 -1.986640113)
(1739.274516 0.3023599356 -0.06733425411)
(1739.305595 1.690768287 -2.531867739)
(1739.774097 4.096937503 -2.481937404)
(1737.355272 2.723555816 -1.615541166)
(1736.769814 1.976519067 -2.612564397)
(1738.564965 0.0876220186 -0.1347042792)
(1738.027743 -1.60200207 0.1539542277)
(1736.458909 0.6804078503 -0.8595507855)
(1733.438803 2.477927082 -1.85983133)
(1732.252418 2.613012465 -1.244477848)
(1711.978508 -3.771939807 1.072708381)
(1747.609109 -3.278848446 0.271585802)
(1738.704299 -2.329021029 1.688468218)
(1738.452937 -0.02606079963 -0.156297677)
(1738.537532 0.8932782184 0.6490315256)
(1739.479198 2.908499522 0.5873015675)
(1739.622446 3.187956454 -3.194875881)
(1738.834193 2.664975563 -1.497631769)
(1739.124802 0.7133814989 -1.09360686)
(1739.908386 0.0167170837 -0.6001237177)
(1737.006991 1.679093489 1.327840271)
(1736.824063 -1.822454813 0.7705372069)
(1735.938774 -4.644887624 -1.271394034)
(1736.782461 -4.3353085 -0.3367405934)
(1736.350267 -1.183387849 -0.452031792)
(1736.232247 2.225235305 -1.6179426)
(1735.305862 2.994113349 -1.515068331)
(1735.068725 0.007639997121 -2.85118116)
(1731.708101 2.262590748 -1.492330202)
(1729.682862 2.309213087 0.3334959113)
(1709.540869 -1.895654326 -3.068947186)
(1746.644869 -1.953494689 -1.226648467)
(1738.179662 0.7574637756 -1.118503237)
(1737.281334 -0.03731349779 -2.695652167)
(1737.704411 1.153089379 -3.912552701)
(1738.195218 0.9052682513 -3.783684475)
(1736.779618 -0.4958769386 0.5274305371)
(1736.858537 0.2117256706 0.8289288768)
(1735.042919 -0.8701604527 0.904354051)
(1736.75272 -1.119744039 0.1799755659)
(1737.876084 -4.233453441 -2.034063827)
(1737.07208 -2.155424056 -1.215430072)
(1736.332697 -1.073271824 0.04693040845)
(1736.012217 0.2412994563 0.06355389264)
(1734.794765 -0.2963845262 1.70530408)
(1734.520544 -0.7404492926 1.603380152)
(1732.7853 2.014889649 1.797121082)
(1731.148875 2.647450972 0.9837158419)
(1730.45529 2.375651995 0.3871261919)
(1732.445541 2.170011772 -1.463815565)
(1710.711934 -1.178817128 -1.414148509)
(1749.038506 -0.7957037655 -3.791920119)
(1740.342812 -3.06902806 -4.070442348)
(1738.096278 -2.468998133 -2.652270826)
(1737.138651 -4.296765039 -0.5134443282)
(1736.000191 -3.436232955 -0.795255668)
(1735.951913 -3.68074928 -1.644325745)
(1734.531217 -1.098086029 -2.34143972)
(1732.689279 1.176301602 -2.307646619)
(1735.065597 0.2354498123 -0.505027374)
(1735.60047 1.761229219 0.1885423988)
(1736.130985 0.7437620747 0.1390412022)
(1736.716104 0.3115747804 -0.5774914381)
(1737.240013 1.272047149 -0.8466225461)
(1736.199428 2.420148246 -2.058912705)
(1735.855779 2.59167685 -2.47251534)
(1736.077924 -0.4922800051 -2.838784474)
(1735.545295 1.029865748 -0.7135904839)
(1733.117403 2.453950519 -0.9816158943)
(1732.024629 0.7272239743 -0.111453279)
(1707.050244 1.986235665 0.9497700589)
(1743.956347 -0.8503798729 -0.6214838524)
(1734.654879 0.718904614 -0.03257054577)
(1734.034399 0.2824975256 1.489701841)
(1734.26972 0.5420314815 0.6645871798)
(1734.864659 0.3810271382 -1.102297027)
(1735.617274 0.4650872596 -0.1761843811)
(1737.871728 -0.8354587278 -0.6573144987)
(1738.608567 -1.580958231 0.2463883619)
(1735.439243 0.8837665089 -0.04989956935)
(1733.659358 1.540437254 2.072097848)
(1734.620675 1.202209313 2.755506535)
(1732.975708 0.5590490486 3.102243797)
(1732.396228 -0.4832057492 3.573989525)
(1733.95101 -3.266780999 4.556480772)
(1733.634574 -2.445848934 4.126849473)
(1734.818457 -2.461289517 6.296225338)
(1732.485124 -3.293743857 4.70027917)
(1732.850148 -1.028708934 5.328911033)
(1731.106772 1.679764924 5.230922146)
(1708.566981 1.200240869 2.289172387)
(1744.51643 3.562905349 2.028989774)
(1734.195831 2.463801637 1.378647247)
(1733.649923 3.19730463 0.08566326499)
(1734.891655 0.4513783165 1.403415446)
(1735.502711 -0.08973903434 2.974796909)
(1735.881729 0.6658297546 3.931468854)
(1735.210822 -0.1140898668 3.998720431)
(1736.37735 0.6500482445 2.044082684)
(1735.913485 -0.4783799494 1.513294642)
(1737.912305 -3.091153329 -1.323938846)
(1735.070722 -0.5838639401 -1.583245513)
(1734.845662 -1.125648171 -0.5366097101)
(1733.935893 -3.408956963 -0.4230145275)
(1734.616772 -0.5056654311 -0.1906731438)
(1733.447493 -1.547201393 1.605852031)
(1733.092537 -1.399550044 1.506266062)
(1735.098663 0.953052214 1.007041634)
(1734.355344 0.6044964911 1.607242227)
(1733.00775 1.342765094 1.784054783)
(1706.942226 1.500985863 4.640765545)
(1743.489363 0.8046547457 3.636873748)
(1737.665198 1.016797548 3.229776663)
(1738.542391 -0.6654575828 0.9673112997)
(1739.20875 1.558841178 0.9447908799)
(1738.90023 2.837345548 1.047501378)
(1736.847953 3.151517622 -0.9099024028)
(1736.227562 2.374804891 -1.945011827)
(1736.907345 1.136489391 -0.4948015844)
(1735.461836 0.775534931 -0.02211016469)
(1735.484034 -0.8924073466 0.7883658466)
(1736.442547 -0.5653071568 2.029220591)
(1738.950347 -0.2504910927 1.723152015)
(1739.824688 0.8012502143 2.703827464)
(1739.098976 -0.245168095 1.407457664)
(1738.898582 3.19808724 -1.17556918)
(1737.232497 1.637380181 -2.667581452)
(1737.783784 -0.1598464132 -1.285096512)
(1737.858749 -0.7033164847 0.300171697)
(1736.709872 -0.9174262738 0.6419063744)
(1707.441285 -1.473802328 -0.5990144381)
(1743.761935 0.3403084944 -1.602407315)
(1733.473572 0.6163048721 -0.8660875484)
(1730.50911 -0.6408552336 -0.3734155651)
(1730.695801 0.5313962116 -0.300140343)
(1729.677322 1.015454222 -1.541040179)
(1733.239069 -0.9751619442 0.9659654306)
(1734.107034 -1.089573566 3.568268221)
(1732.791627 -0.0889303291 2.348736438)
(1733.354391 1.103631324 3.419255399)
(1732.296351 2.880110688 3.00758932)
(1732.521195 0.777554542 2.68798209)
(1733.255561 1.120450304 0.3009196325)
(1734.28592 2.217603535 0.8307704329)
(1734.179327 1.669528485 -0.05271160479)
(1734.574156 -1.990590085 0.5676773232)
(1734.165884 1.403601431 0.2560991783)
(1731.96963 2.192199074 -0.5576291438)
(1734.026056 1.376162783 -1.216592379)
(1735.072822 0.1969756491 -2.944331583)
(1711.816406 -0.5622614417 -0.2448973014)
(1749.927478 -0.9837491924 1.115810586)
(1739.9168 0.0913868391 4.092067305)
(1740.081403 0.823779716 3.676763923)
(1741.110137 0.9737790728 5.180240857)
(1741.036041 1.54442893 6.229665436)
(1738.850149 1.711750756 3.743706477)
(1737.537135 1.86555476 2.093507097)
(1738.347466 1.235491002 -0.912929594)
(1738.914226 -1.814470389 0.5285579228)
(1738.181284 -2.349357221 0.8644140944)
(1738.914632 -0.5212103325 2.064971945)
(1736.359451 -2.336945633 3.32284972)
(1734.489906 -0.9423669395 3.517227821)
(1735.303478 -0.7961591937 2.330474033)
(1736.233115 0.6365597464 2.350472884)
(1735.675581 -0.0573124813 2.711994354)
(1736.749872 -0.106846341 3.16972383)
(1737.732215 0.8930665386 3.406079754)
(1738.506278 2.964426148 2.178023176)
(672.7199658 155.6904813 1.951313027)
(608.0188266 166.3652736 5.964147999)
(563.3370676 162.0592832 -1.320011869)
(528.2470536 159.6076566 2.796544258)
(502.5684925 146.399655 4.902785415)
(469.319223 135.91069 3.076230508)
(443.4430671 127.5353957 2.858913789)
(417.6515043 120.7677696 1.884010986)
(397.7992229 113.8868823 1.902324272)
(376.4082979 108.2402806 0.3590873463)
(1048.232705 157.7676852 0.2962601053)
(941.5662929 216.4581069 1.976740296)
(883.2291754 241.0742452 3.445728019)
(844.84411 253.1422866 1.897277834)
(816.5346127 246.1452933 0.8327635195)
(773.3104181 240.2019069 -2.380343711)
(746.679986 232.340666 0.2458485587)
(720.1682133 223.9704703 0.7859858505)
(692.0967675 212.0677798 1.796676132)
(660.4495445 201.3231231 5.279307177)
(1259.213785 134.1280831 0.7756034248)
(1157.237258 198.2338019 1.316554982)
(1099.191048 237.5134273 -1.109693456)
(1047.479618 269.4307089 4.395250914)
(1012.480642 283.5816031 3.689593486)
(977.0928678 295.9664722 4.177510117)
(947.4726475 295.6235172 -2.898865197)
(918.8697144 287.4295967 0.01445349081)
(897.0939301 280.9473072 -0.4855430125)
(861.8041601 276.4114737 3.649492527)
(1417.48038 108.1300795 5.029607428)
(1344.083054 157.710193 1.539776782)
(1265.368052 205.8514257 -2.725856353)
(1204.576736 248.7607371 -0.8916212884)
(1165.227098 282.6606627 1.692420464)
(1124.932694 309.4864438 -0.1334759675)
(1092.477519 316.4000137 -4.1387443)
(1059.834699 320.8809167 4.842771605)
(1040.476981 325.8729257 1.939639946)
(1014.151199 323.7436161 1.102035803)
(1529.802286 79.19611145 -4.11238393)
(1462.644682 120.143054 -5.4532094)
(1388.999499 171.8811676 0.7169383123)
(1332.525641 215.801942 -2.358137215)
(1282.855347 247.3808699 1.279043904)
(1239.37352 281.4305229 1.281953657)
(1201.117094 312.3548484 -1.685305611)
(1166.263366 327.0321165 -2.769905178)
(1148.802614 338.6397505 1.241858331)
(1129.920392 340.7400377 2.189885707)
(1593.863387 60.18623153 1.156606691)
(1537.660616 94.97723415 -1.02314543)
(1485.272695 128.9923448 -2.458302489)
(1425.197615 173.7643199 4.085648175)
(1384.340625 207.5910821 2.029929548)
(1344.423744 240.7740834 -1.792561078)
(1296.179296 278.1598203 0.5982409864)
(1263.243497 306.9799828 -1.085809611)
(1232.038073 327.1615129 3.174440187)
(1208.72413 343.302973 -1.440483698)
(1627.025644 48.25483214 -2.673493984)
(1590.938923 70.41000998 -4.530275197)
(1558.221437 98.8723677 -1.449109607)
(1505.787883 137.4210381 0.4222631485)
(1472.827194 168.7213456 0.4398660402)
(1440.048965 197.4713404 -2.520348068)
(1390.384004 240.2091504 -2.688041862)
(1350.085797 270.4620619 -5.180498911)
(1311.948086 296.1763457 -4.721368428)
(1289.209861 325.1263351 -4.076685527)
(1659.537813 35.7305729 -0.5511237329)
(1638.657761 50.05624322 1.933402888)
(1605.230099 71.10279552 -0.6102915632)
(1565.734554 103.0252097 -1.919388308)
(1526.692857 137.0669524 -2.581984889)
(1501.923078 161.4598261 -0.07781547338)
(1467.794213 192.2008789 2.637086516)
(1431.647131 228.6871838 -0.325145158)
(1398.908096 258.0776039 0.3449214242)
(1371.698862 287.0032126 -3.974711521)
(1683.345131 26.1114027 -1.663794889)
(1662.573481 42.60999963 -1.175894053)
(1646.6711 56.51832299 -3.423567062)
(1615.29371 80.32870923 1.81346803)
(1580.686372 98.29778522 0.9084357897)
(1557.175906 123.5523491 -0.5197283693)
(1534.00308 153.1225935 -2.014475003)
(1501.884086 179.9988753 0.9018419546)
(1471.109873 215.0708161 -1.078942154)
(1441.26673 246.3557913 -1.890646437)
(1694.982145 24.94219286 -1.077883526)
(1679.957746 34.05994215 1.499571506)
(1669.193818 38.05636866 -0.3811021198)
(1646.80776 53.17418974 -2.790864414)
(1626.842587 73.01574919 -1.4591922)
(1605.620034 96.96075752 -3.119072796)
(1580.42958 117.6681534 -0.9359280807)
(1556.98791 148.3325379 -2.53020175)
(1524.538107 177.3619417 -3.384971418)
(1504.813225 199.5990149 -4.087182167)
(1709.76447 11.14827181 -0.3320346261)
(1698.067329 19.69127757 -3.473888841)
(1685.762631 30.35431147 -2.034341721)
(1673.312596 42.69091484 -3.355355722)
(1661.419661 55.50790701 -4.678134758)
(1641.898187 75.06039694 -2.91181713)
(1625.826122 91.29506973 0.03240366272)
(1598.753107 116.5626124 1.035892406)
(1578.041212 138.3155399 -0.07369048486)
(1554.801681 161.5437001 2.011184405)
(1721.470265 10.20990808 -4.264768312)
(1714.748729 13.77492793 -4.803459448)
(1703.532686 23.84579293 -1.943432693)
(1689.61694 33.69910191 -4.507371547)
(1680.57182 43.09896894 -0.9376356761)
(1666.668948 54.20826836 0.1069560608)
(1653.042009 68.22366259 -0.09729268562)
(1631.47133 80.8174412 1.305112289)
(1613.284466 102.6340826 0.2796290025)
(1593.16338 126.7962859 1.435218501)
(1720.521242 9.244048072 -2.066352093)
(1717.775901 11.14906744 -2.916360212)
(1713.169273 15.45781671 -4.443210698)
(1702.65415 25.54180735 -2.143028169)
(1696.739482 32.37110115 -1.218059876)
(1682.272926 40.52962156 -2.259955966)
(1670.421936 52.51914414 -1.73270417)
(1662.824567 69.18793979 -1.319526276)
(1645.624417 81.81626132 -2.783549412)
(1631.288358 96.7146363 -2.802126287)
(1726.246561 6.311490427 -4.387441176)
(1725.886349 9.52118492 0.6163040868)
(1721.17265 12.1148515 -1.392609134)
(1712.664957 14.85133792 0.01774246982)
(1705.664158 19.47940689 -0.6670802227)
(1701.148721 28.44427862 0.4995683092)
(1695.030891 34.93101784 -1.362377301)
(1682.613542 45.87226204 -1.818132177)
(1665.218558 58.68378632 -0.2017682271)
(1652.1558 76.44726072 0.5819885366)
(1726.236803 2.432311597 1.240414435)
(1722.034444 6.026776825 0.855071429)
(1720.543907 6.783899717 -1.262008535)
(1716.861839 11.36446229 -2.894018318)
(1709.23744 16.89546263 -2.344207071)
(1703.379304 20.44240625 -2.381155463)
(1698.658642 28.61315834 2.72574876)
(1695.698159 37.24398888 0.4997938734)
(1686.577977 50.74376728 -2.0118432)
(1678.499151 58.33099416 -1.428746927)
(1731.000867 2.151735404 -2.438740644)
(1731.151741 1.08666959 -1.549025195)
(1727.238865 5.404612713 0.1176715771)
(1724.169158 7.219381452 1.298065963)
(1717.349135 11.8242012 2.592409687)
(1710.420922 14.51205533 1.916970337)
(1708.290213 21.73038267 2.052359774)
(1703.569951 26.17049366 2.965879597)
(1696.263109 31.16447187 -0.9861491478)
(1689.950142 40.23850777 0.7257981118)
(1729.781299 3.613019615 -0.163598333)
(1729.091686 3.642585437 1.977247642)
(1726.894473 6.857141315 2.547301921)
(1724.531831 9.129019774 0.7981369949)
(1721.404571 9.095831201 -0.9198985721)
(1719.717399 14.28511822 -1.301618358)
(1719.02493 13.63969197 -0.9805328631)
(1713.935325 17.76579556 -1.066114579)
(1711.738529 24.90858084 -1.271010044)
(1703.492086 32.07496008 -0.4285936924)
(1732.04918 2.648487583 2.258746829)
(1730.880927 6.632655597 0.2831593168)
(1729.964632 4.911926071 2.202303131)
(1728.697533 5.840890272 0.5089863888)
(1727.568412 4.606299507 1.379569065)
(1724.363223 7.342714535 1.264643658)
(1721.309609 13.07842459 1.073051287)
(1718.419138 17.73665703 2.029582084)
(1717.039045 19.17385891 2.055346879)
(1714.682601 23.12614536 -1.114606039)
(1732.828023 -1.181933495 4.050554411)
(1731.312177 -1.308684726 1.686031556)
(1730.572357 2.756851978 -0.1360384566)
(1729.690676 4.324570561 0.03083043092)
(1729.914407 5.733821312 1.150069223)
(1729.856359 7.163003737 0.4944034776)
(1729.919976 9.424734163 0.2637678607)
(1727.333462 12.3875849 -0.2020110123)
(1722.776096 16.14454036 0.5804902337)
(1720.18384 17.88090478 1.33072714)
(1735.217912 2.450101978 -0.1771805175)
(1735.078855 -0.1281003308 -0.1436778779)
(1736.549182 0.8060443811 -1.518880847)
(1733.94129 2.425930736 -1.819187637)
(1732.616788 6.098219629 -1.300081656)
(1732.24028 5.576311078 -0.002523091507)
(1729.232418 5.372557846 1.659951805)
(1727.530755 7.965946545 2.648197678)
(1726.211073 9.531434143 1.003118384)
(1723.776444 14.588459 0.6952444528)
(1734.694864 1.664024492 -2.755942626)
(1737.889864 1.279011742 0.9366788033)
(1736.786606 2.541333061 0.6448728905)
(1735.528386 2.543471721 2.093360503)
(1734.14636 3.84611543 -0.1567008282)
(1731.5726 3.902603261 -0.2189235494)
(1729.137311 4.54354343 -1.234106522)
(1727.342379 7.454549017 -2.632687663)
(1727.733999 9.021881396 -0.5584813342)
(1726.386564 11.1869281 -3.174118175)
(1736.046424 3.428461236 2.810052181)
(1734.281781 1.563921786 0.1433015624)
(1733.805641 3.788724902 1.112348782)
(1732.950723 4.584908544 0.1403421829)
)
;

boundaryField
{
    flow
    {
        type            calculated;
        value           nonuniform List<vector> 
42
(
(1710.936917 -8.657068984 0.00610955543)
(1712.876472 -1.017246407 -0.1181217624)
(1705.655198 0.8231312917 0.04248826147)
(1704.056741 -0.5041925588 3.716707952)
(1706.149563 -1.117798878 4.662039386)
(1706.461052 2.148290862 -2.597659761)
(1705.671652 0.06450766497 -0.5320602832)
(1710.412341 -0.1939480033 1.487758212)
(1707.147781 -2.154830119 -0.6962323317)
(1709.986645 -2.848616013 2.189259061)
(1703.975585 -1.265217335 0.5819561884)
(1708.551421 -1.420958099 -1.010133865)
(1712.334174 0.297324106 -2.095539781)
(1708.450792 1.696961305 1.678492454)
(1711.978508 -3.771939807 1.072708381)
(1709.540869 -1.895654326 -3.068947186)
(1710.711934 -1.178817128 -1.414148509)
(1707.050244 1.986235665 0.9497700589)
(1708.566981 1.200240869 2.289172387)
(1706.942226 1.500985863 4.640765545)
(1707.441285 -1.473802328 -0.5990144381)
(1711.816406 -0.5622614417 -0.2448973014)
(1710.936917 -8.657068984 0.00610955543)
(1747.1908 -7.805729593 -0.4079960552)
(1737.360016 -5.867462049 -0.3509386857)
(1737.496128 -5.31135665 -1.10323958)
(1739.302414 -7.095435824 -1.461876222)
(1738.033193 -8.715413584 0.04253397031)
(1739.362587 -8.557993708 -0.2334467497)
(1740.147422 -6.812377198 0.2256033787)
(1737.886848 -5.820725321 -0.974560023)
(1737.169144 -7.464759854 0.4683605163)
(1737.315686 -7.831882766 1.60334682)
(1738.282573 -9.819684589 1.504971789)
(1737.080728 -9.371169902 1.063185992)
(1735.166606 -8.474557843 2.393263546)
(1730.019071 -7.502623683 3.180070258)
(1724.497451 -8.078179171 3.015165614)
(1713.324389 -8.461998554 0.8292840405)
(1678.925109 -11.68497805 0.7193012321)
(1573.690079 -17.51937179 0.6905136816)
(1198.221383 13.02191167 2.588702628)
)
;
    }
    obstacle
    {
        type            calculated;
        value           nonuniform List<vector> 10((415.3455759 111.2915116 -5.053588444) (330.9071291 88.66629805 -4.547793083) (294.4292745 78.89208632 3.004844165) (288.1687639 77.21458755 1.845317204) (272.3452889 72.97470016 7.025691092) (240.8579966 64.5377058 -1.693276953) (224.141334 60.05848925 2.055670267) (212.9758078 57.0666958 9.285183374) (201.818236 54.07703344 7.494523615) (208.3142136 55.81762513 -11.39235368));
    }
    frontAndBack
    {
        type            empty;
    }
    procBoundary0to1
    {
        type            processor;
        value           nonuniform List<vector> 
21
(
(368.689347 105.489092 -4.358081121)
(642.6564841 193.8182262 2.019169381)
(846.7469196 267.4359699 4.178913785)
(989.7595077 318.1405785 0.420520264)
(1107.017205 345.254971 5.077979794)
(1195.308457 346.4724433 -0.545520391)
(1270.098733 338.8869 1.647511103)
(1345.163248 310.7471806 -1.734471261)
(1412.024451 281.4249689 -2.079684577)
(1472.553814 232.061066 -8.864531622)
(1525.115271 192.7281854 5.486957442)
(1566.109577 149.3451272 1.174891348)
(1607.684712 118.0075351 -4.35136715)
(1634.618544 94.03218643 -1.43841854)
(1664.271065 70.37324421 -1.059040029)
(1681.603223 52.91976697 1.179786603)
(1695.397678 43.73462192 1.34359816)
(1710.4864 32.28220882 0.2889241223)
(1715.658984 21.30696157 -1.470021871)
(1720.851839 18.20965139 -0.419302647)
(1725.283045 13.78585992 -2.593850466)
)
;
    }
    procBoundary0to2
    {
        type            processor;
        value           nonuniform List<vector> 
31
(
(1708.767163 2.137977787 -0.8009918436)
(1745.501681 0.4395144626 0.7035278643)
(1738.958019 -0.2421640684 -0.6483347385)
(1739.572069 1.282209551 -1.954546244)
(1736.908053 0.4254817661 -1.97233513)
(1736.826465 -2.176693827 -2.221822335)
(1736.593871 -0.1058199793 -1.079425531)