/*--------------------------------*- C++ -*----------------------------------*\
  =========                 |
  \\      /  F ield         | OpenFOAM: The Open Source CFD Toolbox
   \\    /   O peration     | Website:  https://openfoam.org
    \\  /    A nd           | Version:  7
     \\/     M anipulation  |
\*---------------------------------------------------------------------------*/
FoamFile
{
    version     2.0;
    format      ascii;
    class       scalarField;
    location    "0.00288/lagrangian/dsmc";
    object      Ei;
}
// * * * * * * * * * * * * * * * * * * * * * * * * * * * * * * * * * * * * * //


10358
(
2.19576e-21
1.10399e-20
1.21198e-20
6.0193e-21
6.37813e-21
1.64615e-20
6.30811e-22
3.58911e-22
1.66766e-22
5.16584e-21
1.34709e-20
5.07631e-21
7.95995e-21
8.5428e-21
2.06541e-21
1.35839e-21
2.53398e-22
1.58126e-20
4.66139e-22
9.05499e-21
1.32166e-20
1.04645e-20
2.73091e-21
9.69138e-21
8.28774e-21
5.23602e-21
1.89445e-21
1.0331e-21
3.45569e-21
1.21289e-20
1.14691e-21
3.78507e-21
4.67562e-21
1.44219e-21
1.709e-20
6.63969e-21
7.58094e-22
1.12845e-20
4.1252e-21
7.62791e-21
5.31394e-21
2.5186e-21
2.92437e-21
1.28477e-20
1.64912e-21
1.35932e-21
5.20619e-21
4.5362e-22
1.29141e-20
1.26419e-20
1.09911e-21
1.05461e-20
4.511e-21
7.9487e-21
4.37039e-21
5.221e-21
1.4557e-21
2.50985e-20
7.7013e-21
1.76682e-21
5.54683e-21
6.18683e-21
4.50925e-21
1.50679e-20
2.16137e-21
2.60784e-21
1.14687e-20
1.37727e-21
8.34329e-21
2.77202e-21
2.10386e-22
1.08941e-20
1.71603e-21
5.41982e-21
2.19841e-21
1.15942e-20
3.31679e-21
5.36202e-21
6.68921e-21
4.8375e-21
2.25675e-20
8.06659e-22
7.89521e-22
7.55674e-21
1.55538e-20
5.57015e-22
5.39737e-21
2.83434e-20
4.96224e-21
2.68392e-22
9.77708e-22
9.18353e-21
3.79587e-21
8.98899e-21
3.01088e-21
1.54139e-20
4.01102e-21
2.37453e-21
2.7837e-20
5.41117e-21
7.00762e-21
1.18705e-20
3.05637e-21
4.30844e-21
8.2956e-21
7.80621e-21
5.67603e-21
2.95087e-23
2.03301e-21
9.05949e-21
4.46865e-21
4.18062e-21
2.72683e-21
1.13191e-20
2.80787e-20
3.99342e-21
7.11379e-21
1.31217e-21
1.14331e-20
3.39044e-21
5.39964e-21
1.26137e-20
3.73248e-21
1.07456e-20
3.96914e-21
3.20039e-21
1.09357e-20
1.14147e-20
8.23042e-21
1.41101e-20
9.91992e-22
5.92275e-21
6.33643e-21
4.19989e-21
3.69471e-21
4.91583e-21
2.56727e-21
9.50701e-21
8.36621e-22
2.21046e-20
1.49333e-21
1.31558e-20
1.56491e-20
4.1926e-20
8.95068e-21
7.07717e-21
1.04898e-21
5.74852e-21
2.00011e-20
8.74924e-22
3.16677e-21
4.23971e-21
7.06987e-21
7.42141e-21
4.14681e-21
5.13141e-21
6.60676e-21
5.91895e-22
5.65973e-21
5.30163e-22
5.47897e-21
3.42511e-21
5.14192e-21
8.78445e-21
1.83356e-21
4.98349e-22
1.63599e-21
1.21153e-21
6.8127e-22
4.64476e-21
2.73547e-21
1.36526e-21
8.83081e-21
1.33829e-20
1.3279e-20
3.63609e-22
6.5154e-21
5.1598e-21
1.71865e-21
1.01294e-20
7.38297e-21
9.99977e-21
9.96408e-22
2.49605e-21
8.6191e-22
9.54543e-22
1.18181e-22
1.49492e-21
1.2693e-20
3.20449e-21
3.92465e-21
8.44805e-21
1.15988e-21
1.74398e-21
1.64567e-20
1.12645e-21
3.51594e-21
3.18259e-21
9.89718e-21
1.33776e-20
1.45934e-20
1.43445e-21
5.59168e-21
2.78817e-21
8.01081e-22
4.59595e-21
5.36562e-21
1.48581e-21
3.41219e-21
2.69878e-21
1.19802e-21
1.06027e-21
1.34076e-21
8.98025e-21
8.69279e-22
1.47813e-21
1.06326e-21
8.78777e-22
1.36549e-21
6.92707e-21
1.61501e-21
1.08248e-21
1.03501e-20
1.57851e-20
1.01034e-21
1.24045e-21
5.08585e-21
1.07432e-20
4.77816e-21
2.6427e-21
9.43403e-22
1.6565e-20
2.2325e-21
2.65146e-21
1.66755e-20
1.95657e-21
2.712e-20
2.6921e-21
1.78714e-23
4.27547e-21
4.15855e-21
5.82873e-21
5.55885e-21
2.73606e-21
6.86215e-21
1.01039e-21
2.76032e-22
1.25264e-20
7.99073e-21
1.23701e-21
3.69821e-21
2.67472e-21
3.10334e-23
7.35687e-21
4.99637e-21
1.21035e-20
7.93161e-22
9.58062e-21
2.8023e-21
1.11052e-20
5.08696e-21
1.06704e-20
1.47692e-20
1.21296e-20
1.95761e-20
3.79092e-21
8.9699e-21
9.18996e-21
1.59668e-20
5.46397e-21
1.75954e-21
2.95266e-21
3.50451e-21
4.84009e-22
8.15746e-22
5.80722e-21
1.93116e-20
9.52997e-21
1.01951e-20
2.51864e-21
4.52434e-21
1.2334e-21
7.2176e-23
5.18456e-21
1.01848e-21
4.16763e-22
1.63804e-20
3.38386e-21
7.05673e-21
2.61875e-21
1.9452e-20
3.04285e-21
6.72232e-21
1.18705e-20
2.60475e-22
1.50812e-21
7.00383e-21
1.71451e-21
3.86002e-22
1.34001e-20
8.95018e-22
1.20241e-20
5.10005e-21
4.8304e-21
1.12502e-20
1.73478e-20
1.03906e-21
2.66364e-21
1.14821e-20
2.8936e-22
4.15119e-22
1.00724e-21
2.40438e-20
6.65316e-21
6.53498e-21
1.17361e-21
5.49529e-21
5.8583e-21
1.72029e-22
7.46356e-21
2.24131e-22
4.06121e-21
5.12686e-21
3.58799e-21
1.60158e-20
2.73097e-21
4.89311e-21
2.60429e-20
5.57836e-21
1.44006e-20
1.19814e-20
6.04943e-21
1.83565e-21
2.62289e-21
1.73126e-21
1.5268e-21
6.03689e-21
1.40491e-20
6.21332e-21
8.32582e-21
3.1349e-20
1.3297e-21
8.12384e-21
2.76637e-21
1.92119e-20
2.43663e-21
4.76072e-22
1.70964e-20
3.28467e-21
1.00671e-20
1.11599e-20
1.0309e-20
1.06808e-20
2.56209e-21
5.75954e-22
4.2166e-21
9.37486e-22
1.09001e-20
2.79122e-22
1.18792e-21
4.06334e-21
1.43646e-20
5.3568e-21
1.34557e-20
3.71563e-21
1.01281e-20
1.16669e-20
8.52572e-21
2.03021e-20
1.35186e-21
1.90492e-21
1.81357e-21
8.91906e-21
4.12073e-21
4.38963e-22
3.47522e-20
1.35053e-21
6.74285e-21
2.88211e-21
2.26478e-20
4.14129e-21
9.25154e-21
5.41748e-21
1.53314e-21
5.96084e-22
1.65413e-21
3.07033e-21
2.40167e-20
5.5611e-22
2.76706e-22
6.40055e-22
6.1162e-21
1.69657e-21
5.41448e-21
3.46276e-22
8.303e-21
4.06431e-21
1.08272e-20
1.99361e-21
3.89733e-21
7.06879e-22
1.80655e-20
2.07498e-21
1.37819e-21
1.16699e-21
3.10964e-21
2.23095e-21
6.69015e-23
5.53859e-21
1.64193e-21
3.07734e-21
1.57206e-21
2.6306e-20
9.47991e-23
1.14883e-20
2.65432e-21
1.87886e-21
1.74904e-20
7.28198e-22
4.51147e-21
1.06645e-21
5.56542e-21
3.05428e-21
9.64739e-21
2.83543e-20
9.60583e-22
1.46421e-21
4.08806e-21
1.0193e-20
6.5114e-21
5.88513e-21
2.1155e-21
5.23095e-21
9.00103e-21
9.08664e-21
3.70602e-21
1.17336e-20
1.81133e-22
2.82969e-21
1.1909e-21
1.20355e-20
1.53277e-21
1.45417e-22
2.55746e-20
7.99332e-21
2.04126e-21
6.65525e-21
9.0887e-21
5.09307e-21
7.85821e-21
1.41702e-21
6.806e-22
1.27397e-20
2.19045e-21
4.10309e-21
5.90484e-22
1.94832e-20
1.56398e-20
7.82373e-21
1.06057e-20
6.52337e-22
4.08075e-21
4.81394e-22
6.23879e-21
5.9716e-22
1.10078e-20
2.1869e-21
7.96627e-21
9.35239e-21
4.43721e-21
1.94154e-21
3.68542e-21
6.96262e-21
1.45019e-22
1.41745e-20
9.3039e-21
9.59214e-21
2.85813e-20
9.23342e-21
4.44071e-22
2.16654e-20
1.86438e-21
2.27486e-21
1.32861e-21
1.3728e-20
1.49957e-20
7.3822e-22
4.57896e-21
2.77345e-21
1.40685e-20
8.82249e-21
1.66553e-20
2.54648e-21
2.13452e-21
3.3159e-20
2.80632e-21
8.14353e-21
1.19948e-20
2.37061e-20
4.03511e-22
4.93287e-22
2.62647e-21
1.42602e-21
8.35399e-21
3.7217e-21
2.0647e-22
1.65205e-21
1.24339e-21
2.04193e-20
8.63021e-21
6.57152e-21
4.0632e-22
9.76144e-21
2.08206e-20
2.04398e-21
5.0199e-21
2.06107e-21
1.4918e-20
1.44525e-21
2.27714e-21
1.95521e-21
5.83568e-21
2.75499e-21
1.99848e-22
5.55117e-21
6.17037e-21
4.63577e-21
4.60038e-21
2.1733e-21
1.76367e-20
1.33532e-20
2.06176e-20
1.09136e-20
7.38853e-21
2.82397e-22
3.2128e-21
4.33625e-24
6.04948e-22
1.69629e-20
4.37471e-21
4.16003e-22
1.83379e-21
1.69992e-20
7.6289e-21
1.35083e-21
7.01871e-22
6.1554e-21
1.95506e-22
9.91441e-21
1.81351e-22
2.19243e-21
7.22484e-23
4.64245e-21
1.47126e-21
4.04439e-21
8.10351e-21
1.39293e-22
1.92275e-20
3.21738e-21
6.77642e-21
4.3111e-21
5.39276e-21
5.03912e-21
3.64774e-21
2.3107e-22
1.95061e-21
4.26062e-21
8.05329e-21
1.9626e-22
3.47758e-21
4.08336e-22
1.72212e-21
9.01334e-21
2.45605e-21
5.42756e-21
3.039e-21
2.30433e-22
3.89508e-22
3.31636e-21
1.33499e-20
2.02151e-21
8.87736e-22
3.66612e-21
1.86381e-20
7.54587e-21
3.12156e-21
3.00201e-22
7.6337e-22
6.78332e-21
4.73646e-21
7.54759e-22
9.35258e-21
9.58293e-22
1.01144e-20
6.7652e-22
4.94376e-21
9.41093e-22
3.65048e-21
1.32316e-21
3.35102e-21
8.43784e-22
7.69575e-21
1.82113e-20
6.29776e-22
6.53362e-22
2.9219e-21
3.44952e-21
1.1127e-21
4.56135e-21
8.79161e-22
1.24842e-20
2.39643e-20
5.94514e-21
7.71236e-22
4.17544e-21
3.30281e-22
1.75774e-21
9.56651e-22
3.99001e-21
1.12706e-21
3.52016e-21
2.65345e-21
1.47197e-20
5.10914e-22
8.3015e-21
8.36903e-21
1.2035e-21
3.68244e-21
2.3123e-21
2.18311e-21
2.41902e-21
7.85829e-21
1.70925e-21
7.11366e-22
3.87804e-21
1.00435e-20
5.49327e-21
1.64938e-21
1.67086e-21
2.98887e-21
2.71397e-21
4.96989e-21
4.05882e-21
1.45991e-21
2.32127e-21
1.01805e-21
5.90692e-21
6.43328e-21
3.28834e-21
1.46861e-21
5.61417e-22
4.60728e-21
1.36032e-20
7.98902e-21
5.73259e-21
6.53015e-21
1.14528e-21
2.99203e-22
7.3002e-21
9.07029e-21
7.11893e-22
1.68808e-21
8.20348e-21
4.56543e-21
1.58289e-20
3.38317e-21
1.40708e-21
7.84558e-21
4.35892e-21
5.43798e-21
2.87795e-21
5.76846e-21
5.03297e-22
4.26843e-21
1.40951e-20
5.25718e-21
6.7274e-21
1.12348e-20
1.43569e-21
6.67681e-21
5.66194e-21
1.41175e-21
1.2571e-20
1.11916e-20
1.79909e-21
8.42071e-22
2.1568e-21
1.63598e-22
4.35442e-21
1.21426e-20
3.85837e-21
2.46953e-21
3.03724e-21
8.41231e-22
2.41276e-21
2.38355e-21
7.25414e-22
3.53456e-21
2.18498e-21
6.77753e-21
3.77037e-21
5.61912e-21
9.1183e-21
9.98206e-21
2.32511e-21
1.12283e-20
2.84476e-21
9.94748e-21
2.01027e-21
6.0758e-21
4.01563e-22
2.83897e-21
5.84148e-22
5.31979e-23
5.2236e-21
1.13787e-21
2.86247e-21
1.54814e-20
2.23752e-21
1.26934e-21
2.6707e-22
2.79657e-21
1.18394e-20
2.00906e-21
2.50267e-22
3.01242e-21
4.69976e-21
2.10759e-20
3.16821e-21
3.57616e-22
1.07038e-21
2.03185e-21
3.07574e-21
1.22634e-20
8.51663e-21
1.68325e-21
1.97302e-20
4.51804e-22
4.17245e-21
4.77917e-21
7.24828e-22
1.51702e-20
2.59173e-21
3.31013e-21
1.80614e-21
1.06208e-22
9.55213e-23
9.11508e-22
7.80597e-21
7.34541e-22
5.47718e-22
3.79959e-21
1.01303e-20
4.27965e-20
7.57766e-21
6.11217e-21
6.4559e-21
1.35226e-21
1.8866e-21
5.47089e-21
1.8559e-20
5.29252e-23
1.33924e-20
4.46436e-21
2.72679e-21
3.60472e-21
5.02635e-21
1.07071e-20
1.21616e-20
4.42702e-22
1.16408e-22
4.72315e-21
1.2443e-21
4.80131e-21
6.33587e-21
9.34171e-23
5.37326e-22
2.3036e-21
7.80006e-21
4.21311e-21
6.07741e-21
4.94325e-21
5.96729e-23
5.51202e-21
2.42983e-23
2.7359e-21
6.82285e-21
3.21067e-21
6.37e-21
6.55275e-21
1.28516e-21
4.37782e-21
6.0596e-21
7.09783e-22
2.87812e-21
5.18636e-21
4.1181e-21
4.64164e-21
3.3453e-21
1.19662e-20
2.87648e-21
2.99328e-21
1.75278e-21
5.0808e-21
1.44192e-20
3.30267e-21
2.21519e-21
1.11254e-20
4.30709e-22
4.17898e-21
3.73699e-22
5.4721e-21
3.96745e-21
2.58131e-21
1.00489e-21
6.33109e-22
5.94197e-22
3.70989e-21
7.65958e-21
9.79027e-22
8.2935e-22
8.64876e-22
4.768e-21
6.64789e-21
2.17979e-20
3.4797e-21
2.57539e-21
2.40123e-21
1.15009e-21
3.2343e-21
1.4138e-21
1.8038e-21
5.35556e-21
9.10068e-22
6.85759e-21
1.86246e-21
2.64964e-21
6.97089e-21
1.8983e-21
1.15446e-21
4.73183e-21
8.39539e-21
1.49318e-20
1.94528e-20
6.1395e-21
3.99601e-21
1.26143e-21
2.79678e-21
1.49881e-21
9.05302e-22
1.59612e-21
3.57617e-21
8.23489e-21
5.40943e-21
1.30999e-21
2.2838e-22
1.17216e-22
4.65459e-21
4.09527e-21
8.38209e-21
8.4951e-21
2.2091e-21
1.20783e-21
1.64718e-21
5.61972e-21
3.69205e-21
1.80245e-21
7.81333e-22
5.36955e-22
2.00452e-21
2.3302e-21
1.2696e-21
1.097e-21
1.25584e-21
2.58376e-21
6.76625e-21
7.34927e-21
5.81467e-21
1.13683e-20
1.42275e-22
7.85196e-21
1.73682e-21
5.24733e-22
2.4621e-21
3.99599e-21
1.34293e-22
7.32883e-21
4.76935e-23
4.41565e-24
1.28103e-20
3.60134e-21
2.4681e-21
5.06398e-21
2.69301e-22
6.13015e-22
3.02047e-21
5.05078e-21
6.92088e-21
6.27093e-21
9.33121e-22
1.68383e-21
9.47499e-23
9.03887e-21
6.15176e-22
1.72829e-21
4.3771e-21
4.49698e-21
2.25338e-21
4.73115e-21
1.78927e-21
3.49235e-22
1.1881e-21
3.80103e-22
4.09265e-21
1.35996e-21
9.49076e-23
5.3497e-21
7.01592e-21
3.75595e-22
1.85709e-20
1.12302e-21
2.18694e-20
1.12409e-21
6.26466e-22
3.80954e-21
7.62718e-21
4.09541e-21
1.59816e-21
2.06728e-21
9.20361e-22
3.03271e-21
1.61661e-20
3.28357e-21
1.14558e-20
3.75437e-21
9.25795e-21
2.96716e-21
4.12905e-21
1.13065e-21
7.85663e-22
2.69268e-22
1.46082e-21
1.20849e-21
4.81302e-22
4.48096e-21
5.28349e-21
1.74179e-21
9.84622e-22
2.54049e-21
3.75705e-21
1.7136e-21
3.7322e-21
2.51611e-21
1.06869e-21
6.23472e-21
6.81855e-21
1.48767e-20
4.40359e-21
3.64248e-21
5.36172e-22
5.75677e-21
6.35423e-21
4.05948e-21
2.64976e-21
1.00494e-21
5.0825e-21
5.14603e-21
7.73524e-22
2.435e-21
2.38461e-21
6.65653e-21
4.47813e-21
5.10255e-21
3.39754e-21
3.72775e-21
1.45018e-22
2.25511e-22
1.69404e-21
3.83628e-21
4.81786e-21
2.12662e-21
3.62061e-21
7.63956e-22
5.26437e-21
4.19275e-21
5.06738e-21
1.9648e-21
6.50283e-21
4.2828e-21
8.65064e-21
6.45839e-21
1.29342e-20
1.49843e-20
3.08869e-21
2.38317e-21
2.68175e-21
1.57779e-21
3.12918e-21
3.78705e-21
3.36759e-22
6.57555e-21
1.16369e-20
1.23621e-21
4.91292e-22
6.25099e-21
1.05004e-21
7.52004e-21
8.37608e-22
3.1099e-21
3.56496e-22
6.19761e-21
7.60819e-21
4.92845e-21
6.90031e-21
8.91554e-22
4.75625e-21
2.02746e-21
2.66156e-22
6.49918e-22
5.22485e-21
7.53879e-21
3.75456e-21
1.02879e-21
6.54085e-21
1.80013e-20
5.76946e-21
8.27928e-21
9.52646e-21
4.05002e-22
5.0759e-21
2.2675e-21
1.36534e-21
4.34617e-21
1.79278e-21
1.37013e-20
1.54708e-20
7.76495e-22
1.03426e-21
8.96614e-21
6.17273e-21
2.84897e-21
1.05443e-21
2.84075e-21
7.10874e-21
4.18541e-21
3.92274e-22
1.28492e-21
6.69917e-21
1.68329e-21
9.33933e-22
5.50695e-21
2.92596e-21
1.4732e-20
3.6425e-21
3.24758e-21
5.38908e-21
7.20843e-21
5.4702e-21
1.00751e-20
8.46592e-22
7.17572e-22
1.44458e-21
6.65592e-22
5.70228e-21
2.85424e-21
1.44159e-21
3.07094e-21
1.52423e-21
7.26097e-21
9.07081e-22
1.13187e-21
1.79175e-20
4.09611e-22
4.10656e-21
9.4998e-21
1.10197e-21
2.63931e-21
8.19455e-22
5.34156e-21
6.40973e-21
7.58465e-21
8.84751e-21
5.41531e-21
5.97617e-22
7.26471e-21
1.07516e-21
8.7372e-22
5.40214e-21
3.64463e-21
2.95996e-22
4.98823e-21
2.25129e-21
5.37472e-23
1.34459e-21
5.44046e-21
7.82619e-21
7.95523e-21
7.00044e-21
1.87323e-21
1.17661e-21
5.62192e-22
2.38904e-21
3.18939e-21
1.17093e-21
4.30253e-21
3.17381e-21
2.03142e-22
6.01854e-21
7.99162e-23
1.69156e-21
2.16195e-21
4.25964e-22
1.80639e-21
5.03715e-21
6.56718e-21
2.59888e-21
3.79573e-21
7.59369e-21
8.44953e-22
1.80145e-21
7.30328e-23
3.04736e-21
1.63844e-21
4.81577e-22
2.28625e-21
1.14763e-20
6.45907e-21
1.88916e-21
2.72927e-21
2.06808e-22
8.70031e-22
3.01651e-21
7.00424e-21
6.79801e-21
8.00131e-22
3.44982e-21
2.46797e-21
3.6427e-23
1.29646e-22
3.58174e-21
1.05815e-21
1.50362e-21
3.62748e-21
1.42783e-22
5.2725e-21
2.28809e-20
5.64553e-21
1.16425e-21
2.01598e-21
2.92659e-21
7.09195e-21
8.43527e-21
2.34107e-22
9.03917e-22
8.86578e-21
9.14e-22
4.47703e-21
2.17733e-22
6.72313e-21
3.91934e-21
1.74712e-22
7.24954e-23
4.11582e-21
3.47385e-22
7.26685e-21
2.8698e-21
4.80335e-21
3.55898e-21
2.67668e-21
2.52672e-21
1.18855e-21
7.72592e-21
1.68633e-21
3.06784e-21
4.44507e-21
1.90772e-20
3.38574e-21
1.2552e-20
2.97606e-21
4.24107e-21
7.39773e-22
4.01791e-21
2.40972e-21
2.87517e-21
1.04344e-20
6.46323e-21
1.03403e-20
3.9773e-21
1.21337e-21
1.02148e-21
6.59665e-21
6.49968e-21
1.37849e-21
1.53138e-21
1.87673e-21
7.19509e-21
1.97395e-21
3.13796e-21
3.88442e-21
6.5462e-21
5.52116e-21
5.72674e-21
9.7875e-22
7.43071e-21
8.17368e-22
8.3337e-22
5.9179e-21
4.93113e-21
6.20465e-22
9.01957e-21
3.38895e-22
4.33151e-22
1.15653e-21
9.00626e-21
3.48829e-21
4.09897e-21
3.00864e-21
7.20246e-21
5.79084e-21
6.27164e-22
7.23091e-21
2.96715e-21
4.1439e-21
1.60901e-21
2.37551e-21
2.03267e-21
5.07353e-22
8.96673e-21
9.93366e-21
2.61642e-21
1.36426e-21
4.35064e-21
3.31148e-21
6.703e-21
4.12085e-22
1.14479e-20
9.80613e-22
1.97416e-21
3.65412e-24
2.41203e-21
6.22416e-22
1.69482e-21
3.92801e-21
1.27968e-20
1.60912e-21
1.00665e-21
4.86719e-22
8.89957e-21
3.50531e-21
1.09591e-20
4.20906e-21
1.3135e-21
1.97247e-21
3.12868e-21
1.81608e-22
5.56472e-21
3.13406e-22
1.4746e-20
3.04446e-21
5.66017e-21
9.28642e-22
3.17041e-21
1.09129e-20
4.53045e-21
1.42734e-20
6.93262e-21
5.7647e-22
5.59235e-22
6.5544e-21
6.92961e-21
4.42635e-21
1.94821e-21
1.01485e-20
7.18856e-21
2.99155e-21
2.04601e-21
3.36904e-21
7.83902e-21
2.71502e-21
3.30824e-21
5.44286e-22
9.59225e-22
6.43806e-21
4.06092e-21
3.75175e-21
2.97483e-21
1.63105e-20
3.50076e-22
4.29014e-21
9.83906e-21
5.09051e-21
1.52909e-22
4.78259e-21
2.74932e-21
8.10238e-21
1.07505e-22
7.22299e-21
1.63271e-20
6.51904e-21
9.52643e-22
2.13207e-21
1.07875e-21
1.36714e-22
2.83551e-21
2.85099e-20
1.05841e-21
2.65575e-21
8.47499e-22
1.61707e-21
3.79993e-21
1.75768e-24
8.1864e-21
9.10021e-22
5.84407e-21
3.91405e-21
3.74537e-21
3.61087e-21
6.54848e-21
1.17402e-20
1.42808e-20
1.12044e-20
9.432e-22
5.50677e-22
9.13379e-22
6.23733e-21
7.75327e-22
3.16226e-21
5.44622e-21
9.07605e-21
6.17037e-21
5.33369e-21
8.14748e-22
4.13798e-21
1.60651e-21
3.79561e-22
4.0901e-21
5.07016e-21
2.37734e-22
1.04393e-20
1.56911e-21
1.06367e-21
4.88023e-22
4.72699e-22
8.94642e-21
1.58978e-20
4.66542e-21
4.57845e-21
3.30407e-21
5.00608e-21
8.70153e-22
1.15815e-21
3.58953e-22
6.7354e-21
7.50614e-22
1.42294e-21
1.4459e-21
1.50862e-20
1.00045e-22
2.79993e-22
4.22586e-21
5.45303e-21
2.44789e-21
2.56481e-22
4.3408e-22
5.06412e-21
6.01818e-21
1.44513e-20
1.39033e-21
3.97589e-22
4.69534e-21
2.1855e-21
3.04954e-22
8.02265e-23
1.15159e-20
1.91997e-21
1.13553e-20
3.8542e-22
1.71415e-21
3.36412e-21
6.58053e-21
1.63908e-20
4.09271e-21
2.09999e-21
4.41327e-21
1.45435e-21
1.14326e-21
8.54324e-21
4.14864e-21
1.37177e-21
7.72664e-21
2.29052e-21
2.21101e-21
1.20948e-20
1.56882e-21
5.4454e-22
1.77397e-20
8.32951e-21
4.20549e-22
6.7532e-21
1.92843e-21
4.95945e-21
1.05082e-21
3.42752e-21
2.93093e-21
1.41709e-21
3.74661e-21
4.56165e-21
4.38919e-22
2.02888e-21
1.72981e-21
4.24683e-22
1.83972e-21
1.17279e-21
5.06884e-21
4.92258e-21
7.4087e-23
4.04327e-22
9.10192e-21
1.1071e-21
3.14863e-21
9.59738e-21
9.85113e-24
1.56218e-21
7.62085e-22
8.2394e-22
6.97027e-22
2.40264e-21
2.52009e-21
4.52734e-21
7.46833e-21
3.50596e-21
1.37794e-20
2.39008e-21
1.50445e-20
9.09159e-21
4.76991e-21
6.68138e-22
7.11752e-21
5.64073e-21
3.45763e-21
6.03397e-21
1.81647e-21
7.09041e-21
6.59283e-22
4.05831e-21
1.77224e-21
2.48067e-22
4.45204e-21
8.19299e-21
8.24589e-21
2.17864e-21
3.66037e-21
1.01921e-20
5.90715e-22
3.39247e-21
4.31961e-21
7.23101e-21
4.85874e-22
9.66774e-21
4.7852e-21
2.40478e-22
5.73572e-21
8.5147e-21
3.93624e-21
7.00536e-21
1.05741e-20
1.63444e-20
1.33465e-21
6.60417e-21
2.122e-21
1.39092e-21
2.15172e-21
1.99179e-21
2.15946e-20
3.41765e-21
1.25359e-21
7.50351e-22
8.45146e-21
1.40554e-21
1.51761e-20
3.23651e-21
3.27413e-21
1.44535e-21
1.64196e-20
1.9618e-21
1.33771e-21
1.07336e-20
3.36941e-21
1.3753e-21
6.76221e-22
3.94886e-22
9.65344e-22
5.25968e-21
1.19597e-21
3.29026e-21
1.67442e-22
2.13819e-21
1.04964e-21
2.61977e-21
3.52609e-21
3.75559e-21
1.21224e-22
5.5016e-21
1.68148e-21
2.07624e-21
8.16997e-21
2.28099e-21
2.10886e-21
1.35499e-21
1.9275e-21
1.53719e-22
3.06327e-21
2.89892e-22
5.11387e-22
2.61987e-21
1.21709e-21
2.53973e-21
2.97846e-21
1.7257e-21
1.14334e-20
2.97184e-21
9.50587e-21
5.57346e-22
1.62493e-21
2.79508e-21
1.39095e-21
9.61351e-21
1.16006e-21
7.21481e-21
2.65694e-21
4.043e-21
1.20033e-21
2.81826e-21
2.30009e-21
3.61981e-22
3.13099e-21
2.29792e-22
1.85981e-22
1.6149e-21
5.5371e-21
6.08229e-21
3.70661e-23
2.39202e-21
2.97456e-21
1.44933e-21
1.47402e-21
1.77377e-22
3.06892e-21
1.43307e-22
4.9726e-21
7.91986e-21
3.0412e-21
7.86756e-21
1.43876e-21
1.76607e-22
3.3627e-21
1.19487e-20
1.56895e-21
2.95695e-21
1.82909e-21
6.13852e-22
1.55705e-21
5.55772e-21
3.36783e-21
2.15504e-21
3.51241e-21
8.05539e-21
1.02219e-20
1.68039e-21
1.15081e-21
1.48957e-20
7.53523e-21
6.42348e-21
2.70033e-21
9.57001e-21
8.60711e-21
1.36297e-20
7.29221e-21
8.91359e-21
4.6178e-23
2.26923e-20
6.1412e-22
9.10834e-22
7.05586e-22
1.1643e-20
1.17764e-21
8.73223e-21
2.10702e-21
8.34699e-21
9.313e-22
3.18902e-23
2.35429e-22
4.73821e-22
3.7165e-22
4.05196e-21
3.03745e-21
2.33966e-21
3.01393e-23
1.71263e-21
6.81848e-22
6.79775e-21
6.82612e-21
6.89486e-21
3.63896e-21
9.04511e-21
4.7928e-21
3.96133e-21
3.14364e-21
3.48873e-21
4.98126e-21
5.26472e-21
9.69665e-23
8.40096e-21
4.92677e-21
4.39598e-21
7.94919e-21
8.5667e-21
1.88397e-21
1.9025e-21
3.78451e-21
5.76271e-22
9.85581e-22
3.83015e-21
8.54721e-21
3.71931e-21
1.43838e-20
7.56227e-22
4.8366e-21
1.62492e-21
2.7557e-21
3.61613e-21
9.56393e-21
6.3962e-22
1.69246e-21
2.6738e-23
7.20287e-22
6.00771e-21
7.60876e-21
7.53164e-21
9.08791e-21
8.78109e-21
8.31302e-21
7.60102e-22
7.41825e-21
8.89403e-22
1.62983e-21
3.29077e-22
3.84801e-22
1.11008e-20
5.45763e-21
2.49267e-21
4.26226e-22
6.26924e-22
7.04478e-22
1.41688e-21
3.12405e-21
2.0549e-21
6.34013e-21
7.21159e-21
4.78875e-21
6.64741e-23
3.47006e-21
1.3486e-21
2.65773e-21
5.66676e-22
8.03757e-22
3.49574e-21
1.42984e-21
6.28835e-23
3.53222e-21
3.19738e-21
6.77986e-21
5.70549e-21
8.61172e-21
5.81321e-22
3.2711e-22
6.17762e-21
3.31129e-21
3.26247e-21
4.63028e-21
2.46455e-21
6.46162e-21
2.77923e-21
6.28866e-22
3.659e-21
1.8249e-21
4.13794e-21
1.63969e-21
1.24702e-21
3.09218e-21
2.05869e-20
5.34842e-21
9.7234e-23
9.56106e-21
2.72316e-21
2.21733e-22
6.20765e-21
8.80421e-21
1.34369e-21
3.26398e-21
5.6211e-21
4.049e-21
2.97187e-22
4.77871e-23
1.64995e-21
1.34736e-21
2.86827e-21
5.69182e-22
1.12688e-21
7.92909e-21
7.89739e-22
4.6154e-22
5.65341e-22
1.82482e-21
1.14143e-21
1.22136e-20
1.50089e-21
8.28684e-22
2.96341e-21
1.27e-20
7.70887e-22
3.18922e-21
7.8184e-21
5.97974e-21
9.87658e-21
1.27973e-21
2.87082e-21
9.19346e-21
4.19359e-21
2.00214e-22
8.06726e-21
5.75741e-21
2.38318e-21
1.47389e-20
6.81415e-21
4.93627e-21
3.88762e-22
9.11014e-22
6.29621e-21
6.24877e-22
9.11454e-21
3.55612e-21
2.7688e-23
2.55193e-21
2.87708e-21
2.78826e-21
1.58008e-22
2.67917e-21
4.59082e-21
5.28657e-22
9.02254e-22
6.37783e-22
3.29105e-21
9.72908e-21
3.78975e-21
3.1091e-21
4.08042e-21
7.7063e-21
7.13225e-23
4.57734e-21
1.76168e-21
6.16964e-23
1.54842e-21
4.90263e-21
6.60896e-22
2.64767e-21
1.80591e-20
6.10569e-21
5.50163e-21
5.83511e-22
8.14423e-21
1.26518e-23
2.09928e-20
5.93645e-22
8.142e-21
1.96781e-21
6.90524e-21
2.27057e-22
1.64497e-21
1.09358e-20
3.01725e-21
3.46489e-21
5.5253e-22
2.22645e-20
8.31193e-22
2.69473e-21
1.48432e-21
2.36346e-21
4.65056e-22
1.45389e-20
2.77934e-21
4.1078e-23
8.58628e-21
4.42594e-21
1.05545e-21
1.20012e-21
4.4676e-21
5.74046e-21
2.33365e-21
5.44728e-21
6.58895e-21
1.16495e-20
2.93393e-21
4.22039e-21
5.12524e-21
3.29389e-21
2.04301e-20
3.40329e-21
3.38934e-22
4.61876e-21
4.80073e-21
5.71035e-22
5.90091e-22
5.39085e-21
8.18779e-22
8.60712e-22
9.39734e-21
4.14267e-22
4.78453e-23
1.21573e-20
9.22517e-21
6.10283e-21
4.10794e-21
4.63129e-21
7.86029e-22
3.77054e-21
4.63778e-21
3.78308e-21
1.5568e-21
1.52918e-21
1.35509e-20
3.25845e-21
1.33963e-22
2.30014e-21
2.03053e-20
1.03963e-20
5.38647e-22
3.85591e-21
9.35542e-21
8.7262e-21
1.798e-22
6.75403e-21
2.41515e-20
4.64772e-21
7.20522e-21
1.17038e-20
2.07923e-20
2.56372e-21
2.57836e-21
1.05149e-20
1.9698e-21
4.24718e-21
5.94037e-21
1.03856e-20
1.30041e-21
4.09124e-21
8.42775e-21
3.92337e-21
4.72204e-21
1.35572e-22
4.68711e-21
5.6205e-21
2.18481e-21
2.94332e-21
3.6417e-22
2.6536e-22
6.33428e-21
2.58141e-21
1.38899e-21
1.05793e-21
5.73962e-21
1.81975e-20
1.22735e-21
9.01463e-21
6.99598e-21
4.61102e-22
5.28339e-21
1.5333e-21
6.26208e-22
9.25891e-21
2.27727e-21
2.98447e-21
9.63487e-23
1.54798e-21
1.20557e-20
4.18518e-22
8.62776e-21
2.47355e-21
9.03671e-22
7.07954e-21
6.66692e-21
4.7252e-21
3.7189e-21
5.89871e-21
8.20338e-21
3.84159e-21
2.54888e-21
3.9019e-21
7.20543e-21
4.91562e-21
4.79081e-21
3.05291e-22
3.75458e-21
3.81669e-21
1.39024e-22
2.45207e-21
2.42838e-21
4.52951e-22
1.03002e-20
9.09433e-23
9.92259e-22
7.561e-22
1.06057e-21
2.25546e-22
5.26167e-21
1.0242e-21
7.0733e-21
1.37899e-22
3.14832e-21
7.00516e-23
7.8266e-22
3.0384e-21
1.00975e-20
1.52947e-21
2.5502e-21
8.7647e-22
1.28117e-20
1.43957e-20
4.56231e-21
6.8661e-22
6.50617e-22
3.20317e-21
7.16984e-21
3.26879e-21
9.54309e-21
5.27709e-22
1.06275e-20
1.2339e-21
1.91724e-22
5.09567e-21
1.19575e-21
1.94309e-21
1.98843e-21
2.61494e-21
6.76734e-21
3.31081e-21
2.3088e-21
5.47744e-22
6.20805e-21
6.36876e-21
7.85677e-21
1.48532e-20
8.54222e-21
1.71932e-21
1.54556e-21
2.41956e-21
1.14046e-21
8.6104e-22
5.386e-21
1.93762e-21
1.44882e-20
3.2262e-21
4.73388e-21
1.74016e-21
7.35114e-23
5.49776e-22
7.21767e-21
3.69472e-21
4.09676e-21
2.60588e-21
4.29988e-21
5.75556e-22
3.511e-21
1.63923e-21
6.68868e-23
2.39566e-21
5.40908e-21
3.51397e-21
1.20645e-21
7.74138e-22
5.23e-21
2.07255e-21
1.71365e-21
1.96611e-21
1.22177e-21
2.05356e-21
1.26075e-21
4.19004e-22
1.02387e-21
6.61608e-21
6.40439e-21
1.207e-20
6.53975e-21
1.5696e-21
9.19123e-21
2.53837e-21
9.02374e-21
2.23325e-22
1.419e-21
6.99307e-21
3.97939e-22
5.61128e-22
2.38803e-21
5.63719e-22
1.28404e-21
5.34351e-21
1.08923e-21
1.12081e-20
1.02651e-20
4.60523e-21
5.80435e-22
4.63346e-21
3.18505e-21
7.7013e-22
1.32835e-21
5.73793e-23
1.57792e-21
1.82491e-21
7.53809e-21
1.61279e-22
9.02148e-23
8.0455e-21
1.36778e-21
3.81628e-21
6.90783e-21
2.62351e-21
8.03467e-21
1.38421e-20
1.30078e-22
8.6792e-21
9.68683e-21
4.98204e-21
6.28004e-23
4.54003e-21
4.56517e-21
9.67178e-21
2.23221e-22
2.30319e-21
7.75136e-22
1.22584e-22
1.17448e-21
4.07169e-21
7.53366e-22
2.30438e-21
2.87907e-21
6.59542e-21
4.95702e-21
6.56326e-21
3.48668e-21
7.76469e-22
1.08389e-21
3.14966e-21
5.62025e-22
5.9892e-21
5.16228e-21
8.74842e-21
9.93028e-22
8.29832e-21
9.81249e-22
6.44166e-21
7.32789e-22
1.31872e-22
8.98789e-22
9.69353e-22
1.86784e-21
2.60829e-21
4.00127e-21
2.36272e-22
1.4495e-22
3.88484e-21
5.81661e-21
9.08939e-22
5.95511e-21
3.16813e-21
1.28277e-21
6.61458e-21
1.86769e-21
1.93543e-21
8.54527e-22
2.67992e-21
6.06259e-22
1.19395e-20
5.52601e-22
4.26845e-21
9.76231e-21
1.23485e-20
3.52681e-21
1.20152e-21
1.9619e-21
9.7926e-21
3.82866e-22
3.8974e-21
1.30123e-20
1.07575e-21
3.28908e-21
6.27653e-22
9.80625e-22
3.74409e-21
2.64136e-21
1.32839e-21
5.46744e-22
1.82925e-21
3.46363e-21
6.97331e-21
3.13782e-21
6.53192e-21
2.94235e-21
2.1472e-21
1.27915e-21
6.19193e-21
6.82018e-22
4.71432e-21
4.62152e-21
1.23979e-21
7.5679e-22
1.38307e-22
6.58491e-22
2.01389e-22
1.55206e-21
3.68584e-21
1.13302e-20
2.58653e-21
5.73851e-21
1.65633e-20
8.5883e-21
5.89898e-21
3.70852e-21
9.17921e-21
2.15395e-21
6.79309e-22
1.6763e-21
8.52196e-22
1.58698e-21
2.72878e-21
3.29344e-21
2.36684e-21
4.60156e-21
1.8429e-21
5.60531e-21
5.73563e-21
8.91763e-22
1.20664e-20
1.76216e-21
7.70632e-21
1.98682e-21
1.38565e-21
1.08044e-21
3.99396e-21
4.74798e-21
9.35693e-21
1.12201e-20
1.30053e-23
2.67132e-21
2.63379e-21
1.38299e-21
7.46642e-21
9.27282e-22
1.74903e-20
3.03862e-21
4.68671e-23
2.82231e-21
2.50279e-23
8.21097e-22
4.78711e-22
2.2349e-21
7.83131e-22
2.88485e-21
1.83884e-22
4.03843e-21
3.82007e-21
3.82807e-21
3.20116e-21
9.12591e-21
2.76365e-21
1.08249e-20
3.77934e-21
8.12497e-21
1.46508e-21
1.12253e-20
7.81906e-22
4.13749e-21
1.5198e-21
2.42806e-21
2.03781e-20
5.25091e-21
2.11703e-21
4.46293e-21
2.98671e-21
1.39031e-21
7.85345e-22
7.9909e-21
1.65696e-22
1.165e-21
2.71108e-21
8.5238e-21
1.4901e-21
1.43702e-20
1.57399e-21
4.57944e-22
3.38548e-21
3.18011e-21
5.89762e-21
5.85069e-21
3.24789e-21
1.95927e-20
1.24228e-21
3.89601e-21
1.56453e-20
6.61881e-21
7.23491e-22
3.79015e-22
3.61686e-21
1.99866e-21
3.87054e-21
1.87105e-21
5.5381e-22
5.18532e-22
1.99906e-21
3.16681e-21
5.60701e-21
9.35396e-22
1.70088e-21
1.4625e-20
1.78554e-21
1.21167e-21
1.37328e-21
5.49026e-22
9.29643e-22
3.63297e-21
8.37834e-22
6.9244e-21
4.61139e-21
7.62521e-21
3.04113e-21
8.55658e-23
3.80953e-21
7.51916e-21
3.34433e-21
8.35614e-21
5.97984e-21
4.70014e-21
8.48697e-21
8.62513e-22
1.24747e-20
1.1429e-21
1.00131e-20
8.59731e-21
2.31911e-21
5.0273e-21
9.03523e-22
9.64444e-22
4.7544e-21
1.28288e-20
1.42785e-21
4.08293e-21
4.0787e-21
6.24418e-23
6.39124e-21
1.00425e-21
1.30391e-21
1.32705e-20
1.2197e-21
1.40717e-22
2.72674e-21
4.53667e-21
4.78314e-21
2.69943e-21
9.47496e-22
3.70073e-22
6.02259e-21
2.87899e-21
2.09012e-21
8.87368e-22
9.70551e-21
1.76904e-20
1.59103e-20
1.0915e-21
1.17466e-20
7.20608e-21
3.68983e-20
2.59504e-22
1.32717e-22
5.48914e-21
7.70149e-21
8.96816e-21
1.42733e-21
2.07738e-21
3.62515e-21
7.23434e-21
1.98339e-20
5.52508e-21
7.6663e-21
1.05266e-20
1.33718e-21
8.40453e-22
1.46021e-21
4.63309e-21
9.10636e-22
3.85531e-22
1.20353e-20
5.12488e-21
4.90873e-22
6.17997e-21
4.85875e-21
5.67126e-21
5.61484e-23
2.31341e-21
2.72534e-21
5.49759e-23
2.01109e-21
2.36432e-21
7.38795e-21
7.87331e-21
5.32984e-21
8.67162e-21
7.20974e-21
1.05621e-20
3.54485e-22
8.2936e-22
2.58007e-22
1.06334e-20
3.10835e-21
1.34989e-20
6.54318e-22
3.91821e-21
7.11878e-21
3.13813e-21
1.17073e-21
6.89299e-23
1.55572e-21
2.89139e-21
1.08565e-20
1.16757e-21
5.43731e-21
1.96334e-21
8.39203e-21
4.60693e-21
2.43238e-22
3.91959e-22
2.9301e-22
5.78468e-21
1.4933e-21
1.40824e-21
2.3013e-21
2.42563e-21
1.32222e-20
2.77156e-21
2.1308e-21
5.86921e-21
5.87864e-21
8.25352e-21
1.67523e-20
2.70992e-21
1.95287e-21
1.95426e-21
7.77808e-21
2.78706e-21
2.82778e-21
6.5104e-21
1.0472e-21
9.66219e-21
3.12653e-21
1.48439e-21
4.95519e-22
3.7677e-21
1.29543e-21
1.39817e-21
1.197e-21
1.10351e-21
5.96578e-21
1.44263e-20
3.64501e-21
8.14851e-21
2.35883e-22
8.72191e-21
2.1165e-22
9.27385e-21
5.43307e-21
2.74862e-21
1.06239e-21
2.45165e-21
9.4029e-22
2.15622e-22
5.22977e-22
2.29754e-21
2.39183e-21
1.29212e-22
5.9243e-22
1.59706e-21
3.25591e-21
2.3526e-21
5.09109e-21
5.04191e-21
2.28331e-21
4.2674e-21
4.82629e-22
4.25673e-21
1.29254e-22
3.2863e-23
9.76537e-21
5.97393e-21
2.52788e-20
4.91712e-21
1.11555e-24
3.06158e-22
1.55519e-20
3.20329e-21
2.60467e-23
5.70413e-21
2.92235e-21
8.15719e-21
1.98488e-22
1.03367e-21
2.11153e-21
6.69294e-22
1.14828e-20
2.85051e-24
9.7205e-21
3.83841e-21
7.02323e-22
6.60735e-22
1.41503e-20
6.06753e-21
1.99658e-21
3.78814e-22
1.33428e-20
3.47015e-21
1.18559e-21
1.02956e-20
1.04182e-21
1.43597e-21
4.00404e-21
7.02886e-21
1.34773e-21
6.54964e-21
3.72974e-21
4.41118e-21
6.43895e-21
8.09778e-21
1.72981e-20
4.69268e-22
9.2985e-21
2.70209e-21
5.67479e-21
3.6983e-21
9.7346e-21
5.60655e-23
9.14281e-21
7.10203e-21
2.65412e-21
3.6164e-21
6.29853e-21
9.48069e-21
3.42673e-21
3.18286e-21
4.46044e-21
2.79019e-21
3.82579e-21
1.72464e-21
6.88212e-21
1.43502e-20
1.48269e-22
1.88581e-21
6.13246e-21
7.98662e-21
7.16982e-21
3.05602e-21
1.69572e-20
8.61132e-22
6.82535e-22
2.93542e-21
4.18507e-21
5.57912e-21