/*--------------------------------*- C++ -*----------------------------------*\
  =========                 |
  \\      /  F ield         | OpenFOAM: The Open Source CFD Toolbox
   \\    /   O peration     | Website:  https://openfoam.org
    \\  /    A nd           | Version:  7
     \\/     M anipulation  |
\*---------------------------------------------------------------------------*/
FoamFile
{
    version     2.0;
    format      ascii;
    class       Cloud<dsmcParcel>;
    location    "0.00288/lagrangian/dsmc";
    object      positions;
}
// * * * * * * * * * * * * * * * * * * * * * * * * * * * * * * * * * * * * * //

10358
(
(0.844849 0.0775754 0.0775754 0) 8 8 2
(0.00942272 0.495289 0 0.495289) 6 6 1
(0.722624 0.138688 0.138688 0) 8 8 2
(0.357295 0.321353 0.321353 0) 8 8 2
(0.944772 0.0276142 0 0.0276142) 6 6 1
(0.570365 0.214817 0 0.214817) 6 6 1
(0.575358 0.212321 0 0.212321) 6 6 1
(0.421171 0.289414 0.289414 0) 8 8 2
(0.369448 0.315276 0 0.315276) 7 7 1
(0.274603 0.362699 0 0.362699) 10 9 2
(0.367353 0.316324 0.316324 0) 8 8 2
(0.535734 0.232133 0.232133 0) 8 8 2
(0.150061 0.42497 0.42497 0) 6 5 1
(0.498568 0.250716 0.250716 0) 6 6 2
(0.0972335 0.451383 0 0.451383) 7 6 2
(0.480015 0.259993 0 0.259993) 9 8 2
(0.210928 0.394536 0 0.394536) 7 7 1
(0.562649 0.218675 0.218675 0) 7 6 1
(0.51063 0.244685 0.244685 0) 7 7 2
(0.750915 0.124542 0.124542 0) 9 9 2
(0.494999 0.252501 0.252501 0) 7 6 1
(0.185599 0.4072 0.4072 0) 7 7 2
(0.256547 0.371726 0 0.371726) 6 6 1
(0.318521 0.34074 0 0.34074) 7 7 1
(0.595289 0.202355 0 0.202355) 6 6 1
(0.453548 0.273226 0 0.273226) 7 7 1
(0.0713462 0.464327 0.464327 0) 9 8 1
(0.830812 0.0845939 0 0.0845939) 9 9 1
(0.394292 0.302854 0 0.302854) 6 6 1
(0.77461 0.112695 0.112695 0) 8 7 1
(0.92758 0.0362102 0 0.0362102) 8 7 2
(0.22068 0.38966 0.38966 0) 9 9 2
(0.356079 0.321961 0.321961 0) 7 7 2
(0.82229 0.0888549 0 0.0888549) 9 8 2
(0.653967 0.173017 0.173017 0) 6 6 2
(0.0171122 0.491444 0 0.491444) 8 7 2
(0.220243 0.389878 0 0.389878) 7 6 2
(0.343683 0.328158 0.328158 0) 8 7 1
(0.208882 0.395559 0 0.395559) 8 7 2
(0.187908 0.406046 0.406046 0) 3 3 2
(0.328441 0.335779 0.335779 0) 9 8 1
(0.0503585 0.474821 0 0.474821) 8 7 2
(0.996415 0.00179239 0 0.00179239) 8 7 2
(0.533518 0.233241 0.233241 0) 9 8 1
(0.374908 0.312546 0.312546 0) 9 8 1
(0.621126 0.189437 0.189437 0) 7 7 2
(0.31786 0.34107 0.34107 0) 8 7 1
(0.16139 0.419305 0 0.419305) 8 7 2
(0.129806 0.435097 0 0.435097) 7 7 1
(0.834097 0.0829513 0.0829513 0) 9 8 1
(0.879119 0.0604407 0 0.0604407) 8 7 2
(0.39243 0.303785 0.303785 0) 7 6 1
(0.913617 0.0431913 0 0.0431913) 9 9 1
(0.374786 0.312607 0 0.312607) 7 7 1
(0.338475 0.330762 0 0.330762) 7 7 1
(0.229565 0.385218 0 0.385218) 6 6 1
(0.148315 0.425842 0.425842 0) 9 8 1
(0.687851 0.156074 0.156074 0) 9 9 2
(0.575469 0.212266 0.212266 0) 5 5 2
(0.724375 0.137813 0 0.137813) 7 7 1
(0.162515 0.418743 0 0.418743) 7 7 1
(0.885624 0.0571878 0.0571878 0) 8 7 1
(0.303479 0.34826 0.34826 0) 8 8 2
(0.0434788 0.478261 0 0.478261) 7 7 1
(0.231057 0.384472 0.384472 0) 7 6 1
(0.765997 0.117002 0.117002 0) 8 8 2
(0.354764 0.322618 0 0.322618) 7 7 1
(0.522017 0.238992 0 0.238992) 7 6 2
(0.541946 0.229027 0.229027 0) 7 6 1
(0.626945 0.186527 0 0.186527) 7 7 1
(0.369756 0.315122 0 0.315122) 9 8 2
(0.180631 0.409684 0.409684 0) 6 6 2
(0.398512 0.300744 0 0.300744) 7 7 1
(0.576968 0.211516 0 0.211516) 6 5 2
(0.590296 0.204852 0.204852 0) 9 9 2
(0.579529 0.210235 0 0.210235) 10 10 1
(0.470303 0.264849 0 0.264849) 9 9 1
(0.477792 0.261104 0 0.261104) 7 6 2
(0.741406 0.129297 0.129297 0) 8 8 2
(0.148944 0.425528 0.425528 0) 8 8 2
(0.833029 0.0834856 0.0834856 0) 7 7 2
(0.449015 0.275492 0 0.275492) 8 7 2
(0.49221 0.253895 0.253895 0) 8 7 1
(0.882694 0.058653 0.058653 0) 7 6 1
(0.100617 0.449691 0.449691 0) 8 7 1
(0.708556 0.145722 0.145722 0) 9 9 2
(0.741084 0.129458 0 0.129458) 7 6 2
(0.589573 0.205213 0 0.205213) 8 7 2
(0.404307 0.297847 0 0.297847) 8 8 1
(0.337234 0.331383 0 0.331383) 8 7 2
(0.688537 0.155732 0 0.155732) 7 7 1
(0.588026 0.205987 0.205987 0) 9 9 2
(0.402541 0.298729 0.298729 0) 6 6 2
(0.0501953 0.474902 0.474902 0) 7 7 2
(0.106415 0.446793 0.446793 0) 7 7 2
(0.251314 0.374343 0 0.374343) 8 7 2
(0.391817 0.304091 0 0.304091) 8 7 2
(0.311015 0.344493 0.344493 0) 9 8 1
(0.664865 0.167567 0.167567 0) 5 5 2
(0.774503 0.112748 0.112748 0) 11 10 1
(0.657614 0.171193 0 0.171193) 9 9 1
(0.230487 0.384756 0 0.384756) 8 7 2
(0.654567 0.172717 0 0.172717) 8 7 2
(0.348784 0.325608 0 0.325608) 8 8 1
(0.453571 0.273215 0.273215 0) 9 9 2
(0.437327 0.281337 0 0.281337) 7 7 1
(0.519226 0.240387 0.240387 0) 8 7 1
(0.705354 0.147323 0.147323 0) 7 7 2
(0.683182 0.158409 0.158409 0) 9 8 1
(0.919969 0.0400155 0.0400155 0) 7 7 2
(0.0984966 0.450752 0 0.450752) 11 10 2
(0.536169 0.231916 0 0.231916) 9 9 1
(0.57134 0.21433 0.21433 0) 7 6 1
(0.773834 0.113083 0 0.113083) 6 5 2
(0.955145 0.0224275 0.0224275 0) 9 8 1
(0.48082 0.25959 0.25959 0) 8 7 1
(0.973826 0.0130871 0.0130871 0) 8 8 2
(0.800438 0.099781 0 0.099781) 6 5 2
(0.338182 0.330909 0.330909 0) 9 8 1
(0.626633 0.186684 0 0.186684) 9 9 1
(0.946167 0.0269164 0.0269164 0) 9 8 1
(0.531218 0.234391 0 0.234391) 8 8 1
(0.514369 0.242815 0 0.242815) 8 7 2
(0.564232 0.217884 0.217884 0) 8 8 2
(0.317132 0.341434 0 0.341434) 9 9 1
(0.169929 0.415036 0.415036 0) 9 8 1
(0.23777 0.381115 0 0.381115) 7 7 1
(0.37803 0.310985 0.310985 0) 8 7 1
(0.696998 0.151501 0.151501 0) 7 6 1
(0.434168 0.282916 0 0.282916) 7 7 1
(0.495375 0.252313 0 0.252313) 10 10 1
(0.0886145 0.455693 0 0.455693) 6 6 1
(0.144492 0.427754 0.427754 0) 9 8 1
(0.398517 0.300741 0.300741 0) 8 8 2
(0.658578 0.170711 0.170711 0) 7 6 1
(0.930016 0.034992 0 0.034992) 7 7 1
(0.876939 0.0615303 0 0.0615303) 8 8 1
(0.380171 0.309914 0 0.309914) 7 7 1
(0.599064 0.200468 0.200468 0) 8 7 1
(0.863435 0.0682827 0.0682827 0) 9 8 1
(0.963055 0.0184724 0 0.0184724) 10 9 2
(0.707979 0.146011 0.146011 0) 8 8 2
(0.107565 0.446217 0.446217 0) 7 7 2
(0.0167735 0.491613 0 0.491613) 7 6 2
(0.528803 0.235598 0.235598 0) 7 7 2
(0.955567 0.0222166 0 0.0222166) 8 7 2
(0.311765 0.344117 0.344117 0) 9 9 2
(0.650087 0.174956 0 0.174956) 6 5 2
(0.98212 0.00893986 0.00893986 0) 7 6 1
(0.378266 0.310867 0.310867 0) 8 7 1
(0.490904 0.254548 0 0.254548) 9 9 1
(0.361138 0.319431 0 0.319431) 10 9 2
(0.566577 0.216711 0.216711 0) 9 8 1
(0.108265 0.445867 0 0.445867) 6 5 2
(0.367172 0.316414 0.316414 0) 8 7 1
(0.0513493 0.474325 0.474325 0) 7 7 2
(0.659532 0.170234 0 0.170234) 6 6 1
(0.578356 0.210822 0 0.210822) 7 6 2
(0.268997 0.365502 0.365502 0) 8 8 2
(0.723054 0.138473 0.138473 0) 8 7 1
(0.412965 0.293518 0 0.293518) 9 9 1
(0.229895 0.385052 0.385052 0) 7 7 2
(0.282914 0.358543 0 0.358543) 8 8 1
(0.375091 0.312455 0 0.312455) 6 5 2
(0.568274 0.215863 0 0.215863) 8 8 1
(0.63988 0.18006 0.18006 0) 11 11 2
(0.516765 0.241617 0 0.241617) 9 8 2
(0.313423 0.343288 0 0.343288) 7 7 1
(0.210849 0.394576 0 0.394576) 8 7 2
(0.334596 0.332702 0.332702 0) 6 5 1
(0.959658 0.0201711 0 0.0201711) 7 6 2
(0.23627 0.381865 0 0.381865) 9 9 1
(0.262316 0.368842 0.368842 0) 7 6 1
(0.185492 0.407254 0.407254 0) 5 5 2
(0.413241 0.293379 0 0.293379) 6 6 1
(0.978621 0.0106897 0 0.0106897) 7 6 2
(0.996246 0.00187718 0.00187718 0) 7 6 1
(0.693715 0.153143 0 0.153143) 8 8 1
(0.0421739 0.478913 0 0.478913) 8 8 1
(0.384568 0.307716 0 0.307716) 10 10 1
(0.672372 0.163814 0 0.163814) 8 7 2
(0.857592 0.071204 0.071204 0) 4 3 1
(0.0968822 0.451559 0.451559 0) 10 9 1
(0.977741 0.0111295 0 0.0111295) 9 8 2
(0.364191 0.317904 0 0.317904) 8 7 2
(0.318617 0.340691 0 0.340691) 7 7 1
(0.915235 0.0423826 0 0.0423826) 6 5 2
(0.34262 0.32869 0.32869 0) 7 6 1
(0.865648 0.0671761 0 0.0671761) 9 9 1
(0.0855784 0.457211 0 0.457211) 7 7 1
(0.28029 0.359855 0.359855 0) 9 8 1
(0.538424 0.230788 0 0.230788) 8 7 2
(0.45734 0.27133 0 0.27133) 9 9 1
(0.625666 0.187167 0.187167 0) 6 5 1
(0.809713 0.0951434 0.0951434 0) 9 9 2
(0.949107 0.0254464 0.0254464 0) 7 6 1
(0.215232 0.392384 0.392384 0) 8 8 2
(0.516596 0.241702 0 0.241702) 8 7 2
(0.246205 0.376898 0 0.376898) 6 6 1
(0.268552 0.365724 0 0.365724) 9 9 1
(0.356536 0.321732 0.321732 0) 9 8 1
(0.621046 0.189477 0.189477 0) 8 7 1
(0.507944 0.246028 0.246028 0) 8 8 2
(0.288573 0.355714 0 0.355714) 8 8 1
(0.738319 0.13084 0 0.13084) 10 9 2
(0.799223 0.100388 0.100388 0) 9 8 1
(0.409291 0.295355 0.295355 0) 10 10 2
(0.706767 0.146616 0.146616 0) 8 8 2
(0.205459 0.397271 0.397271 0) 9 9 2
(0.092868 0.453566 0 0.453566) 7 6 2
(0.427178 0.286411 0.286411 0) 6 6 2
(0.449212 0.275394 0.275394 0) 10 10 2
(0.832075 0.0839625 0.0839625 0) 11 10 1
(0.487287 0.256356 0.256356 0) 10 9 1
(0.292255 0.353872 0.353872 0) 9 9 2
(0.159393 0.420304 0 0.420304) 10 9 2
(0.972932 0.0135339 0.0135339 0) 8 8 2
(0.888734 0.0556328 0 0.0556328) 9 8 2
(0.0337657 0.483117 0.483117 0) 7 7 2
(0.713516 0.143242 0 0.143242) 8 7 2
(0.452278 0.273861 0 0.273861) 5 4 2
(0.517603 0.241198 0 0.241198) 8 7 2
(0.926798 0.0366011 0 0.0366011) 9 8 2
(0.219778 0.390111 0.390111 0) 9 8 1
(0.391338 0.304331 0.304331 0) 7 7 2
(0.00951226 0.495244 0.495244 0) 10 9 1
(0.273588 0.363206 0 0.363206) 9 8 2
(0.473667 0.263166 0.263166 0) 8 8 2
(0.575013 0.212493 0.212493 0) 7 7 2
(0.415777 0.292111 0 0.292111) 9 8 2
(0.1624 0.4188 0 0.4188) 9 9 1
(0.417912 0.291044 0.291044 0) 9 9 2
(0.240311 0.379844 0 0.379844) 7 6 2
(0.937195 0.0314024 0.0314024 0) 8 8 2
(0.158528 0.420736 0.420736 0) 7 6 1
(0.111166 0.444417 0 0.444417) 8 7 2
(0.724764 0.137618 0.137618 0) 8 7 1
(0.607627 0.196186 0.196186 0) 8 7 1
(0.117515 0.441243 0.441243 0) 9 8 1
(0.575275 0.212362 0 0.212362) 8 7 2
(0.792995 0.103503 0 0.103503) 9 9 1
(0.952599 0.0237004 0 0.0237004) 6 5 2
(0.0599198 0.47004 0.47004 0) 10 10 2
(0.265872 0.367064 0.367064 0) 7 7 2
(0.63909 0.180455 0.180455 0) 7 6 1
(0.510292 0.244854 0.244854 0) 6 5 1
(0.846836 0.0765819 0.0765819 0) 9 8 1
(0.228221 0.385889 0.385889 0) 10 9 1
(0.749992 0.125004 0.125004 0) 9 9 2
(0.580719 0.20964 0 0.20964) 8 8 1
(0.60398 0.19801 0 0.19801) 9 9 1
(0.581742 0.209129 0.209129 0) 8 7 1
(0.861929 0.0690357 0 0.0690357) 11 10 2
(0.125312 0.437344 0.437344 0) 8 7 1
(0.190871 0.404565 0 0.404565) 7 7 1
(0.832499 0.0837504 0.0837504 0) 9 8 1
(0.51534 0.24233 0.24233 0) 7 6 1
(0.826877 0.0865616 0 0.0865616) 8 8 1
(0.208545 0.395728 0 0.395728) 7 7 1
(0.888371 0.0558143 0 0.0558143) 7 6 2
(0.753443 0.123279 0 0.123279) 8 7 2
(0.539227 0.230386 0 0.230386) 8 7 2
(0.381907 0.309046 0.309046 0) 10 10 2
(0.939412 0.0302942 0.0302942 0) 9 9 2
(0.44939 0.275305 0.275305 0) 8 8 2
(0.11563 0.442185 0 0.442185) 9 8 2
(0.830287 0.0848563 0.0848563 0) 8 7 1
(0.946176 0.0269122 0.0269122 0) 7 6 1
(0.562383 0.218809 0 0.218809) 8 7 2
(0.198295 0.400852 0.400852 0) 8 8 2
(0.996016 0.00199193 0.00199193 0) 7 6 1
(0.239605 0.380197 0.380197 0) 10 9 1
(0.335109 0.332445 0.332445 0) 9 9 2
(0.313928 0.343036 0 0.343036) 9 8 2
(0.663414 0.168293 0.168293 0) 13 12 1
(0.709157 0.145422 0 0.145422) 10 9 2
(0.725159 0.13742 0.13742 0) 8 8 2
(0.811065 0.0944674 0.0944674 0) 9 8 1
(0.328121 0.335939 0 0.335939) 10 9 2
(0.913488 0.043256 0.043256 0) 8 8 2
(0.183101 0.40845 0 0.40845) 8 7 2
(0.584268 0.207866 0.207866 0) 8 7 1
(0.897346 0.0513272 0 0.0513272) 9 9 1
(0.789082 0.105459 0 0.105459) 8 8 1
(0.0824977 0.458751 0.458751 0) 10 9 1
(0.372089 0.313955 0 0.313955) 7 6 2
(0.758824 0.120588 0.120588 0) 8 7 1
(0.669875 0.165063 0.165063 0) 8 7 1
(0.644077 0.177961 0 0.177961) 9 8 2
(0.973123 0.0134383 0.0134383 0) 6 6 2
(0.416789 0.291606 0 0.291606) 8 7 2
(0.441909 0.279045 0 0.279045) 7 7 1
(0.412854 0.293573 0 0.293573) 9 8 2
(0.0663053 0.466847 0.466847 0) 9 9 2
(0.94428 0.0278601 0 0.0278601) 8 7 2
(0.964794 0.0176028 0.0176028 0) 8 8 2
(0.462841 0.26858 0.26858 0) 8 7 1
(0.184673 0.407664 0.407664 0) 8 8 2
(0.257391 0.371305 0 0.371305) 9 8 2
(0.580411 0.209795 0.209795 0) 9 8 1
(0.065206 0.467397 0 0.467397) 9 9 1
(0.0918711 0.454064 0.454064 0) 8 8 2
(0.0549738 0.472513 0.472513 0) 6 6 2
(0.787214 0.106393 0.106393 0) 8 7 1
(0.686172 0.156914 0 0.156914) 9 8 2
(0.778875 0.110562 0 0.110562) 9 9 1
(0.163689 0.418155 0.418155 0) 10 9 1
(0.014534 0.492733 0.492733 0) 7 7 2
(0.39203 0.303985 0 0.303985) 8 8 1
(0.242923 0.378539 0.378539 0) 10 9 1
(0.957921 0.0210393 0 0.0210393) 9 8 2
(0.677039 0.16148 0.16148 0) 8 7 1
(0.170936 0.414532 0.414532 0) 9 8 1
(0.659021 0.170489 0 0.170489) 10 10 1
(0.791432 0.104284 0.104284 0) 11 10 1
(0.238987 0.380506 0 0.380506) 12 12 1
(0.0813089 0.459346 0 0.459346) 7 7 1
(0.330312 0.334844 0 0.334844) 10 10 1
(0.413789 0.293105 0 0.293105) 8 7 2
(0.161373 0.419314 0 0.419314) 9 9 1
(0.201042 0.399479 0.399479 0) 6 6 2
(0.95678 0.0216102 0 0.0216102) 9 9 1
(0.134168 0.432916 0.432916 0) 9 9 2
(0.369034 0.315483 0 0.315483) 12 11 2
(0.979395 0.0103025 0.0103025 0) 9 9 2
(0.473323 0.263338 0.263338 0) 9 9 2
(0.646453 0.176773 0.176773 0) 8 7 1
(0.0356714 0.482164 0 0.482164) 8 8 1
(0.864861 0.0675697 0 0.0675697) 10 9 2
(0.597578 0.201211 0 0.201211) 8 8 1
(0.505101 0.247449 0 0.247449) 8 7 2
(0.991289 0.00435573 0.00435573 0) 9 8 1
(0.22182 0.38909 0 0.38909) 7 7 1
(0.660046 0.169977 0.169977 0) 6 6 2
(0.492668 0.253666 0 0.253666) 8 7 2
(0.272107 0.363947 0.363947 0) 7 7 2
(0.275356 0.362322 0.362322 0) 9 9 2
(0.624229 0.187886 0 0.187886) 8 7 2
(0.720902 0.139549 0.139549 0) 10 9 1
(0.322433 0.338784 0.338784 0) 10 9 1
(0.337931 0.331034 0 0.331034) 7 7 1
(0.893097 0.0534516 0 0.0534516) 12 12 1
(0.864905 0.0675473 0 0.0675473) 10 9 2
(0.151972 0.424014 0 0.424014) 8 8 1
(0.399188 0.300406 0.300406 0) 9 8 1
(0.557992 0.221004 0.221004 0) 10 9 1
(0.840273 0.0798637 0.0798637 0) 9 9 2
(0.271878 0.364061 0 0.364061) 11 10 2
(0.0833922 0.458304 0 0.458304) 8 7 2
(0.735711 0.132145 0.132145 0) 9 8 1
(0.535604 0.232198 0.232198 0) 8 8 2
(0.568548 0.215726 0.215726 0) 7 7 2
(0.801231 0.0993847 0 0.0993847) 10 9 2
(0.41448 0.29276 0.29276 0) 12 12 2
(0.792844 0.103578 0.103578 0) 9 8 1
(0.507244 0.246378 0.246378 0) 11 11 2
(0.38841 0.305795 0 0.305795) 13 13 1
(0.579955 0.210022 0 0.210022) 8 7 2
(0.212774 0.393613 0 0.393613) 9 8 2
(0.148104 0.425948 0 0.425948) 10 9 2
(0.86828 0.0658602 0.0658602 0) 9 9 2
(0.887198 0.0564011 0.0564011 0) 10 10 2
(0.784566 0.107717 0 0.107717) 10 9 2
(0.426991 0.286505 0 0.286505) 10 10 1
(0.420536 0.289732 0 0.289732) 8 8 1
(0.70817 0.145915 0 0.145915) 8 7 2
(0.947296 0.026352 0 0.026352) 6 6 1
(0.167241 0.416379 0.416379 0) 10 9 1
(0.325192 0.337404 0.337404 0) 10 9 1
(0.630757 0.184621 0 0.184621) 8 8 1
(0.00607293 0.496964 0 0.496964) 10 9 2
(0.430029 0.284986 0 0.284986) 9 9 1
(0.302041 0.34898 0 0.34898) 9 8 2
(0.0201476 0.489926 0 0.489926) 8 7 2
(0.593581 0.20321 0.20321 0) 12 12 2
(0.048968 0.475516 0 0.475516) 8 7 2
(0.658598 0.170701 0.170701 0) 10 10 2
(0.404051 0.297974 0 0.297974) 10 9 2
(0.383137 0.308432 0.308432 0) 13 12 1
(0.17682 0.41159 0.41159 0) 7 6 1
(0.994671 0.00266467 0.00266467 0) 10 10 2
(0.0187501 0.490625 0.490625 0) 10 9 1
(0.0786514 0.460674 0 0.460674) 8 7 2
(0.865421 0.0672893 0 0.0672893) 14 13 2
(0.909683 0.0451585 0 0.0451585) 11 11 1
(0.179594 0.410203 0.410203 0) 10 9 1
(0.951112 0.0244439 0 0.0244439) 9 8 2
(0.826556 0.0867222 0.0867222 0) 10 10 2
(0.486265 0.256867 0.256867 0) 10 9 1
(0.57813 0.210935 0.210935 0) 11 10 1
(0.0515894 0.474205 0.474205 0) 10 10 2
(0.301767 0.349116 0 0.349116) 9 8 2
(0.00672718 0.496636 0.496636 0) 9 9 2
(0.893319 0.0533404 0 0.0533404) 9 8 2
(0.774404 0.112798 0 0.112798) 10 10 1
(0.461532 0.269234 0 0.269234) 14 13 2
(0.216342 0.391829 0 0.391829) 9 9 1
(0.245777 0.377112 0 0.377112) 7 7 1
(0.460528 0.269736 0.269736 0) 9 8 1
(0.528151 0.235925 0 0.235925) 14 14 1
(0.962503 0.0187484 0.0187484 0) 10 9 1
(0.61662 0.19169 0.19169 0) 10 9 1
(0.477739 0.261131 0 0.261131) 8 8 1
(0.488178 0.255911 0 0.255911) 8 8 1
(0.817017 0.0914915 0 0.0914915) 8 7 2
(0.16007 0.419965 0.419965 0) 9 9 2
(0.902393 0.0488033 0 0.0488033) 10 9 2
(0.340753 0.329624 0 0.329624) 9 8 2
(0.572958 0.213521 0.213521 0) 7 6 1
(0.272118 0.363941 0 0.363941) 9 9 1
(0.291352 0.354324 0 0.354324) 11 11 1
(0.285607 0.357196 0 0.357196) 9 9 1
(0.77998 0.11001 0.11001 0) 9 8 1
(0.946996 0.0265018 0.0265018 0) 14 14 2
(0.386044 0.306978 0.306978 0) 9 9 2
(0.308493 0.345754 0 0.345754) 8 7 2
(0.16991 0.415045 0.415045 0) 13 12 1
(0.560675 0.219663 0 0.219663) 9 9 1
(0.960871 0.0195646 0.0195646 0) 12 12 2
(0.279649 0.360176 0 0.360176) 9 8 2
(0.0890339 0.455483 0.455483 0) 12 12 2
(0.509431 0.245284 0.245284 0) 8 8 2
(0.186804 0.406598 0.406598 0) 8 7 1
(0.830855 0.0845725 0.0845725 0) 11 11 2
(0.402582 0.298709 0 0.298709) 8 7 2
(0.456949 0.271526 0 0.271526) 10 9 2
(0.569073 0.215463 0.215463 0) 9 9 2
(0.851236 0.0743821 0 0.0743821) 10 9 2
(0.253127 0.373436 0 0.373436) 9 8 2
(0.763168 0.118416 0 0.118416) 8 7 2
(0.852066 0.0739671 0.0739671 0) 9 8 1
(0.106494 0.446753 0.446753 0) 9 9 2
(0.327269 0.336365 0.336365 0) 10 10 2
(0.297402 0.351299 0.351299 0) 9 9 2
(0.84865 0.0756748 0.0756748 0) 8 8 2
(0.749004 0.125498 0 0.125498) 9 9 1
(0.89688 0.0515598 0 0.0515598) 9 8 2
(0.0947109 0.452645 0 0.452645) 9 9 1
(0.821583 0.0892083 0 0.0892083) 10 10 1
(0.769405 0.115298 0 0.115298) 9 9 1
(0.0461904 0.476905 0.476905 0) 10 9 1
(0.665586 0.167207 0 0.167207) 13 12 2
(0.323058 0.338471 0 0.338471) 9 9 1
(0.996393 0.00180333 0.00180333 0) 9 9 2
(0.0530143 0.473493 0.473493 0) 11 10 1
(0.675206 0.162397 0 0.162397) 10 9 2
(0.224642 0.387679 0.387679 0) 12 11 1
(0.39508 0.30246 0 0.30246) 10 9 2
(0.560045 0.219978 0.219978 0) 10 9 1
(0.716714 0.141643 0.141643 0) 9 9 2
(0.086542 0.456729 0 0.456729) 7 6 2
(0.587566 0.206217 0.206217 0) 13 12 1
(0.790919 0.104541 0 0.104541) 10 9 2
(0.230036 0.384982 0.384982 0) 12 12 2
(0.0732999 0.46335 0 0.46335) 9 8 2
(0.0399783 0.480011 0 0.480011) 10 9 2
(0.362261 0.31887 0 0.31887) 9 9 1
(0.386647 0.306677 0.306677 0) 9 8 1
(0.0187695 0.490615 0 0.490615) 10 10 1
(0.472684 0.263658 0 0.263658) 9 8 2
(0.899745 0.0501276 0 0.0501276) 7 7 1
(0.487406 0.256297 0.256297 0) 11 11 2
(0.14699 0.426505 0.426505 0) 10 9 1
(0.0372832 0.481358 0 0.481358) 12 12 1
(0.228917 0.385542 0.385542 0) 9 8 1
(0.496433 0.251784 0.251784 0) 8 7 1
(0.138597 0.430702 0 0.430702) 7 7 1
(0.679577 0.160211 0.160211 0) 10 10 2
(0.169007 0.415497 0 0.415497) 10 9 2
(0.0652572 0.467371 0.467371 0) 7 7 2
(0.782189 0.108905 0 0.108905) 10 9 2
(0.591173 0.204414 0.204414 0) 11 11 2
(0.030075 0.484963 0.484963 0) 10 9 1
(0.514919 0.24254 0.24254 0) 12 11 1
(0.369932 0.315034 0 0.315034) 12 11 2
(0.583017 0.208491 0.208491 0) 10 9 1
(0.107084 0.446458 0.446458 0) 8 8 2
(0.321383 0.339308 0.339308 0) 9 8 1
(0.641705 0.179147 0.179147 0) 9 8 1
(0.888074 0.0559632 0.0559632 0) 8 7 1
(0.157436 0.421282 0 0.421282) 8 8 1
(0.757398 0.121301 0 0.121301) 11 11 1
(0.230092 0.384954 0 0.384954) 13 12 2
(0.186255 0.406872 0.406872 0) 11 11 2
(0.582684 0.208658 0 0.208658) 6 6 1
(0.851811 0.0740944 0 0.0740944) 9 9 1
(0.811245 0.0943773 0.0943773 0) 9 9 2
(0.204813 0.397593 0 0.397593) 15 14 2
(0.946782 0.0266092 0.0266092 0) 8 8 2
(0.757011 0.121495 0.121495 0) 8 7 1
(0.266703 0.366648 0.366648 0) 7 7 2
(0.987024 0.00648823 0.00648823 0) 9 8 1
(0.740113 0.129943 0 0.129943) 10 9 2
(0.0463421 0.476829 0 0.476829) 9 9 1
(0.506027 0.246986 0.246986 0) 9 9 2
(0.925048 0.0374761 0 0.0374761) 9 9 1
(0.884172 0.057914 0.057914 0) 10 10 2
(0.811866 0.094067 0 0.094067) 8 7 2
(0.309654 0.345173 0.345173 0) 10 9 1
(0.368918 0.315541 0.315541 0) 14 13 1
(0.457842 0.271079 0.271079 0) 10 10 2
(0.466975 0.266512 0 0.266512) 16 15 2
(0.793475 0.103262 0 0.103262) 8 7 2
(0.941209 0.0293956 0 0.0293956) 13 12 2
(0.12299 0.438505 0 0.438505) 10 9 2
(0.545189 0.227405 0 0.227405) 10 10 1
(0.177309 0.411346 0 0.411346) 14 13 2
(0.937735 0.0311327 0.0311327 0) 7 6 1
(0.0108893 0.494555 0.494555 0) 9 9 2
(0.579412 0.210294 0 0.210294) 12 11 2
(0.248761 0.375619 0.375619 0) 13 13 2
(0.220559 0.38972 0.38972 0) 13 13 2
(0.0411991 0.4794 0 0.4794) 11 10 2
(0.960975 0.0195125 0 0.0195125) 10 9 2
(0.49991 0.250045 0.250045 0) 14 13 1
(0.705926 0.147037 0.147037 0) 11 11 2
(0.786465 0.106767 0 0.106767) 10 9 2
(0.447388 0.276306 0.276306 0) 9 9 2
(0.0564754 0.471762 0 0.471762) 11 10 2
(0.962439 0.0187806 0.0187806 0) 10 10 2
(0.35919 0.320405 0.320405 0) 8 7 1
(0.134624 0.432688 0 0.432688) 10 9 2
(0.0232792 0.48836 0.48836 0) 10 10 2
(0.112041 0.443979 0 0.443979) 13 13 1
(0.0216166 0.489192 0 0.489192) 11 11 1
(0.0206905 0.489655 0 0.489655) 9 9 1
(0.61255 0.193725 0.193725 0) 11 10 1
(0.703219 0.14839 0.14839 0) 10 10 2
(0.425623 0.287189 0 0.287189) 8 7 2
(0.915477 0.0422614 0 0.0422614) 9 8 2
(0.170504 0.414748 0.414748 0) 9 9 2
(0.742942 0.128529 0 0.128529) 9 9 1
(0.670101 0.164949 0.164949 0) 11 10 1
(0.861589 0.0692057 0 0.0692057) 9 9 1
(0.283877 0.358061 0 0.358061) 9 9 1
(0.916806 0.0415971 0 0.0415971) 10 10 1
(0.76479 0.117605 0.117605 0) 10 9 1
(0.652927 0.173537 0 0.173537) 11 10 2
(0.72149 0.139255 0 0.139255) 12 11 2
(0.967728 0.0161362 0.0161362 0) 8 8 2
(0.793817 0.103091 0 0.103091) 9 9 1
(0.847672 0.0761639 0 0.0761639) 16 16 1
(0.565404 0.217298 0.217298 0) 8 8 2
(0.387369 0.306315 0 0.306315) 10 10 1
(0.865866 0.0670672 0 0.0670672) 17 17 1
(0.248415 0.375792 0 0.375792) 8 8 1
(0.775851 0.112074 0 0.112074) 11 11 1
(0.262255 0.368873 0 0.368873) 14 13 2
(0.480321 0.259839 0.259839 0) 11 10 1
(0.71487 0.142565 0 0.142565) 8 8 1
(0.90404 0.0479802 0.0479802 0) 12 12 2
(0.897575 0.0512125 0.0512125 0) 15 14 1
(0.95953 0.0202352 0 0.0202352) 12 11 2
(0.171823 0.414089 0 0.414089) 9 9 1
(0.711321 0.144339 0 0.144339) 9 9 1
(0.536704 0.231648 0.231648 0) 10 9 1
(0.887447 0.0562767 0 0.0562767) 11 11 1
(0.417339 0.29133 0 0.29133) 9 9 1
(0.352673 0.323664 0 0.323664) 8 7 2
(0.918989 0.0405056 0.0405056 0) 14 13 1
(0.470944 0.264528 0.264528 0) 9 9 2
(0.534181 0.23291 0.23291 0) 8 8 2
(0.0705527 0.464724 0 0.464724) 10 10 1
(0.723245 0.138378 0.138378 0) 11 11 2
(0.558842 0.220579 0.220579 0) 15 15 2
(0.1292 0.4354 0.4354 0) 12 11 1
(0.192948 0.403526 0 0.403526) 8 8 1
(0.574818 0.212591 0 0.212591) 10 10 1
(0.0953019 0.452349 0 0.452349) 9 9 1
(0.403425 0.298287 0.298287 0) 13 13 2
(0.902866 0.0485669 0 0.0485669) 10 9 2
(0.195769 0.402116 0.402116 0) 13 12 1
(0.680604 0.159698 0 0.159698) 13 12 2
(0.325554 0.337223 0 0.337223) 11 10 2
(0.556693 0.221653 0 0.221653) 12 12 1
(0.331929 0.334036 0.334036 0) 8 7 1
(0.464983 0.267509 0.267509 0) 13 12 1
(0.289748 0.355126 0 0.355126) 12 12 1
(0.426131 0.286934 0 0.286934) 13 12 2
(0.80234 0.0988299 0 0.0988299) 9 8 2
(0.619959 0.19002 0.19002 0) 18 17 1
(0.036617 0.481691 0.481691 0) 12 11 1
(0.395312 0.302344 0.302344 0) 11 11 2
(0.600062 0.199969 0 0.199969) 13 12 2
(0.825184 0.0874081 0 0.0874081) 10 9 2
(0.997112 0.00144383 0.00144383 0) 15 15 2
(0.409338 0.295331 0 0.295331) 11 10 2
(0.437304 0.281348 0 0.281348) 10 10 1
(0.0895165 0.455242 0.455242 0) 9 8 1
(0.65459 0.172705 0 0.172705) 10 9 2
(0.41403 0.292985 0.292985 0) 11 11 2
(0.661369 0.169316 0.169316 0) 15 15 2
(0.531199 0.234401 0 0.234401) 13 12 2
(0.833472 0.0832641 0 0.0832641) 9 9 1
(0.451785 0.274107 0.274107 0) 12 12 2
(0.646028 0.176986 0.176986 0) 12 12 2
(0.316856 0.341572 0 0.341572) 11 10 2
(0.704838 0.147581 0 0.147581) 9 8 2
(0.120735 0.439632 0 0.439632) 13 12 2
(0.244492 0.377754 0.377754 0) 14 13 1
(0.0837748 0.458113 0.458113 0) 10 9 1
(0.227998 0.386001 0 0.386001) 7 7 1
(0.937107 0.0314467 0 0.0314467) 11 11 1
(0.377243 0.311378 0 0.311378) 12 11 2
(0.32173 0.339135 0 0.339135) 11 10 2
(0.617504 0.191248 0 0.191248) 13 13 1
(0.644604 0.177698 0 0.177698) 10 9 2
(0.0530353 0.473482 0.473482 0) 10 9 1
(0.127627 0.436186 0.436186 0) 9 8 1
(0.295691 0.352154 0 0.352154) 8 8 1
(0.0652061 0.467397 0.467397 0) 10 9 1
(0.0320998 0.48395 0.48395 0) 18 17 1
(0.766746 0.116627 0.116627 0) 11 10 1
(0.337264 0.331368 0 0.331368) 9 8 2
(0.216407 0.391796 0.391796 0) 9 8 1
(0.321846 0.339077 0.339077 0) 16 15 1
(0.740242 0.129879 0 0.129879) 9 9 1
(0.34898 0.32551 0 0.32551) 14 13 2
(0.820326 0.0898371 0.0898371 0) 10 9 1
(0.42371 0.288145 0.288145 0) 9 9 2
(0.490247 0.254876 0 0.254876) 11 11 1
(0.961621 0.0191897 0.0191897 0) 10 9 1
(0.968738 0.0156309 0.0156309 0) 13 13 2
(0.617446 0.191277 0.191277 0) 10 9 1
(0.370709 0.314646 0.314646 0) 8 8 2
(0.345014 0.327493 0.327493 0) 10 9 1
(0.318226 0.340887 0 0.340887) 10 10 1
(0.965715 0.0171427 0 0.0171427) 9 9 1
(0.453198 0.273401 0 0.273401) 8 8 1
(0.831953 0.0840234 0.0840234 0) 9 8 1
(0.912815 0.0435927 0 0.0435927) 9 8 2
(0.753713 0.123143 0 0.123143) 9 8 2
(0.378815 0.310593 0 0.310593) 11 10 2
(0.22996 0.38502 0.38502 0) 10 9 1
(0.137945 0.431028 0.431028 0) 8 8 2
(0.147725 0.426138 0.426138 0) 10 10 2
(0.403736 0.298132 0 0.298132) 10 9 2
(0.874661 0.0626697 0 0.0626697) 11 11 1
(0.567158 0.216421 0.216421 0) 16 16 2
(0.198517 0.400741 0.400741 0) 10 9 1
(0.863207 0.0683966 0.0683966 0) 13 12 1
(0.96323 0.0183849 0 0.0183849) 10 10 1
(0.832651 0.0836744 0.0836744 0) 12 12 2
(0.515556 0.242222 0 0.242222) 8 8 1
(0.488668 0.255666 0 0.255666) 15 15 1
(0.174894 0.412553 0.412553 0) 13 13 2
(0.215604 0.392198 0 0.392198) 12 11 2
(0.695455 0.152272 0 0.152272) 15 14 2
(0.0802129 0.459894 0.459894 0) 9 9 2
(0.930083 0.0349583 0 0.0349583) 11 10 2
(0.713946 0.143027 0 0.143027) 13 12 2
(0.346076 0.326962 0.326962 0) 13 12 1
(0.998609 0.000695543 0.000695543 0) 14 14 2
(0.304969 0.347516 0.347516 0) 15 15 2
(0.181079 0.40946 0 0.40946) 12 11 2
(0.255617 0.372192 0.372192 0) 13 13 2
(0.998668 0.00066615 0.00066615 0) 15 15 2
(0.0263792 0.48681 0 0.48681) 9 8 2
(0.594663 0.202669 0.202669 0) 13 12 1
(0.646751 0.176625 0 0.176625) 13 12 2
(0.18333 0.408335 0 0.408335) 9 9 1
(0.0352858 0.482357 0.482357 0) 11 10 1
(0.702931 0.148535 0 0.148535) 9 9 1
(0.321843 0.339078 0 0.339078) 15 15 1
(0.946023 0.0269885 0.0269885 0) 10 9 1
(0.0169807 0.49151 0.49151 0) 12 12 2
(0.881799 0.0591007 0.0591007 0) 18 17 1
(0.315728 0.342136 0 0.342136) 10 9 2
(0.575988 0.212006 0 0.212006) 15 14 2
(0.635968 0.182016 0 0.182016) 13 12 2
(0.42666 0.28667 0.28667 0) 9 8 1
(0.456407 0.271797 0 0.271797) 8 7 2
(0.972192 0.0139042 0 0.0139042) 14 14 1
(0.765202 0.117399 0.117399 0) 10 9 1
(0.749094 0.125453 0.125453 0) 12 11 1
(0.943491 0.0282544 0 0.0282544) 12 11 2
(0.176405 0.411798 0.411798 0) 10 9 1
(0.898944 0.0505281 0.0505281 0) 10 10 2
(0.293265 0.353368 0.353368 0) 10 9 1
(0.247557 0.376221 0.376221 0) 10 9 1
(0.265661 0.36717 0 0.36717) 12 12 1
(0.376964 0.311518 0.311518 0) 15 14 1
(0.648134 0.175933 0.175933 0) 13 13 2
(0.230952 0.384524 0.384524 0) 11 11 2
(0.76331 0.118345 0.118345 0) 11 11 2
(0.53115 0.234425 0.234425 0) 13 13 2
(0.267433 0.366284 0 0.366284) 14 14 1
(0.123459 0.43827 0.43827 0) 14 14 2
(0.0281996 0.4859 0.4859 0) 13 12 1
(0.736093 0.131953 0 0.131953) 17 16 2
(0.333628 0.333186 0 0.333186) 11 11 1
(0.163087 0.418457 0.418457 0) 14 13 1
(0.774254 0.112873 0.112873 0) 18 17 1
(0.0722349 0.463883 0.463883 0) 12 12 2
(0.406132 0.296934 0.296934 0) 10 10 2
(0.260222 0.369889 0 0.369889) 11 11 1
(0.877902 0.061049 0 0.061049) 9 9 1
(0.450862 0.274569 0.274569 0) 11 10 1
(0.613695 0.193153 0 0.193153) 13 13 1
(0.995444 0.00227824 0.00227824 0) 12 11 1
(0.0938341 0.453083 0.453083 0) 12 11 1
(0.252364 0.373818 0 0.373818) 8 8 1
(0.389981 0.305009 0 0.305009) 10 10 1
(0.862734 0.0686328 0.0686328 0) 8 8 2
(0.756478 0.121761 0.121761 0) 6 5 1
(0.662849 0.168575 0.168575 0) 11 10 1
(0.0633133 0.468343 0 0.468343) 9 9 1
(0.963727 0.0181366 0 0.0181366) 12 11 2
(0.555162 0.222419 0.222419 0) 9 9 2
(0.208159 0.39592 0 0.39592) 18 18 1
(0.382717 0.308641 0.308641 0) 12 12 2
(0.591092 0.204454 0.204454 0) 9 9 2
(0.894343 0.0528286 0.0528286 0) 14 13 1
(0.296947 0.351527 0.351527 0) 13 13 2
(0.569612 0.215194 0.215194 0) 12 12 2
(0.872853 0.0635735 0.0635735 0) 10 9 1
(0.346931 0.326534 0 0.326534) 14 14 1
(0.465512 0.267244 0.267244 0) 15 14 1
(0.800841 0.0995795 0 0.0995795) 11 10 2
(0.933232 0.0333838 0 0.0333838) 15 14 2
(0.952832 0.0235841 0.0235841 0) 13 12 1
(0.201159 0.399421 0 0.399421) 9 9 1
(0.879421 0.0602896 0 0.0602896) 9 8 2
(0.797088 0.101456 0.101456 0) 13 13 2
(0.193165 0.403418 0 0.403418) 12 11 2
(0.720732 0.139634 0 0.139634) 16 16 1
(0.34028 0.32986 0 0.32986) 10 10 1
(0.51115 0.244425 0 0.244425) 13 12 2
(0.285605 0.357198 0 0.357198) 16 16 1
(0.538056 0.230972 0 0.230972) 11 10 2
(0.732654 0.133673 0.133673 0) 12 11 1
(0.595964 0.202018 0 0.202018) 14 13 2
(0.221819 0.389091 0.389091 0) 8 8 2
(0.988284 0.00585824 0.00585824 0) 14 13 1
(0.126899 0.43655 0.43655 0) 13 13 2
(0.0394806 0.48026 0.48026 0) 12 12 2
(0.654412 0.172794 0 0.172794) 14 14 1
(0.392587 0.303706 0.303706 0) 17 17 2
(0.296023 0.351989 0.351989 0) 9 9 2
(0.0748123 0.462594 0 0.462594) 10 9 2
(0.137648 0.431176 0.431176 0) 11 11 2
(0.0544222 0.472789 0.472789 0) 11 10 1
(0.0393662 0.480317 0 0.480317) 9 9 1
(0.18046 0.40977 0 0.40977) 18 18 1
(0.830843 0.0845783 0 0.0845783) 8 7 2
(0.806537 0.0967314 0.0967314 0) 9 8 1
(0.780739 0.109631 0 0.109631) 15 14 2
(0.0816408 0.45918 0.45918 0) 8 8 2
(0.427366 0.286317 0 0.286317) 12 11 2
(0.350468 0.324766 0.324766 0) 12 11 1
(0.874732 0.0626338 0.0626338 0) 13 13 2
(0.361887 0.319056 0 0.319056) 12 12 1
(0.675569 0.162216 0 0.162216) 15 15 1
(0.720845 0.139577 0.139577 0) 8 7 1
(0.898708 0.0506459 0.0506459 0) 14 14 2
(0.217984 0.391008 0 0.391008) 13 13 1
(0.434618 0.282691 0 0.282691) 17 16 2
(0.574396 0.212802 0 0.212802) 11 10 2
(0.572811 0.213595 0 0.213595) 14 13 2
(0.7841 0.10795 0 0.10795) 14 13 2
(0.229465 0.385268 0 0.385268) 8 8 1
(0.456002 0.271999 0 0.271999) 15 15 1
(0.274027 0.362986 0.362986 0) 10 9 1
(0.905554 0.0472229 0 0.0472229) 14 13 2
(0.984927 0.00753633 0.00753633 0) 15 14 1
(0.668998 0.165501 0.165501 0) 10 9 1
(0.475412 0.262294 0.262294 0) 12 11 1
(0.317248 0.341376 0.341376 0) 11 11 2
(0.519468 0.240266 0.240266 0) 16 16 2
(0.0490628 0.475469 0.475469 0) 13 13 2
(0.77146 0.11427 0 0.11427) 10 9 2
(0.113433 0.443283 0 0.443283) 13 13 1
(0.698366 0.150817 0.150817 0) 14 13 1