/*--------------------------------*- C++ -*----------------------------------*\
  =========                 |
  \\      /  F ield         | OpenFOAM: The Open Source CFD Toolbox
   \\    /   O peration     | Website:  https://openfoam.org
    \\  /    A nd           | Version:  7
     \\/     M anipulation  |
\*---------------------------------------------------------------------------*/
FoamFile
{
    version     2.0;
    format      ascii;
    class       vectorField;
    location    "0.00288/lagrangian/dsmc";
    object      U;
}
// * * * * * * * * * * * * * * * * * * * * * * * * * * * * * * * * * * * * * //


10348
(
(444.058 -3.50148 320.873)
(-75.0068 -2.32882 -39.1739)
(342.039 323.02 490.641)
(552.959 -328.559 -52.9679)
(837.036 37.9312 -354.831)
(-290.045 -248.419 266.922)
(453.304 66.4656 578.857)
(-625.73 -28.3878 -155.177)
(299.919 271.078 -539.379)
(1080.5 34.317 -78.1967)
(413.448 377.206 83.9783)
(-37.4878 -304.35 -3.31021)
(-304.637 -5.15019 90.0743)
(0.476701 -347.242 387.566)
(54.169 455.979 -279.123)
(166.541 52.4921 -388.771)
(351.411 -183.238 299.08)
(915.298 360.632 -112.179)
(-193.976 78.5049 -185.613)
(543.967 394.01 598.618)
(796.432 -159.137 113.969)
(608.689 -78.8413 128.458)
(-14.7248 392.726 -945.972)
(770.139 628.81 -708.073)
(441.244 108.259 -517.438)
(466.513 -282.386 -352.429)
(515.232 86.8617 -221.114)
(297.622 -257.108 -624.795)
(271.94 431.818 27.7685)
(622.682 186.353 157.811)
(914.274 174.886 77.1309)
(74.2511 813.777 221.72)
(488.05 112.206 432.891)
(179.654 -196.936 6.51904)
(872.07 -199.616 445.553)
(-179.387 40.134 -71.6855)
(754.367 69.5426 -241.047)
(913.934 -173.306 -134.844)
(-51.7521 555.072 623.7)
(529.659 342.221 83.1192)
(608.698 643.898 -244.769)
(628.247 627.439 75.9226)
(537.15 252.66 -247.334)
(161.66 -178.878 119.226)
(37.2555 76.7776 417.5)
(766.896 105.243 902.134)
(588.048 483.75 -87.7766)
(-213.152 286.085 774.909)
(-147.454 38.5198 -495.171)
(795.975 -951.109 24.9059)
(627.855 289.111 -235.251)
(255.733 87.9076 165.176)
(541.938 81.9447 -412.063)
(713.631 -733.526 298.604)
(421.148 141.584 140.247)
(336.282 -518.101 -568.621)
(-298.733 240.936 -43.374)
(-327.096 208.314 -107.646)
(543.272 -483.119 533.097)
(-266.2 -460.807 73.4797)
(851.312 606.71 -642.663)
(329.075 -398.219 -8.75183)
(1009.01 -909.536 14.6462)
(52.9001 -84.0482 33.2913)
(552.3 563.82 286.965)
(944.454 595.632 -255.761)
(263.33 -711.748 429.802)
(784.283 -317.831 -506.052)
(-204.001 -136.97 229.296)
(-153.172 -366.94 459.686)
(-346.758 168.356 556.848)
(810.811 -67.9534 -164.565)
(50.5749 -317.505 -7.32033)
(180.694 355.274 1.0303)
(1038.77 899.694 -714.027)
(643.914 41.517 -272.37)
(119.312 -209.493 563.229)
(499.348 135.94 61.8009)
(215.155 120.955 215.356)
(208.886 -236.985 -672.042)
(561.953 -66.277 -141.093)
(167.054 -407.685 20.9788)
(306.007 390.753 -869.238)
(-169.943 -191.035 403.247)
(569.162 690.25 -602.255)
(204.861 -105.457 693.231)
(1189.75 -102.183 -703.75)
(790.159 -37.2941 -226.71)
(-19.8524 417.405 576.738)
(255.728 -370.183 -227.297)
(423.615 0.185565 429.444)
(531.222 -87.7878 -4.78393)
(1124.78 -417.87 455.672)
(85.253 94.1566 71.0571)
(349.057 -132.803 220.912)
(740.012 203.369 -392.119)
(231.434 -274.324 -550.994)
(1160.94 -305.914 -244.675)
(289.8 -831.707 167.539)
(334.47 -142.748 167.127)
(577.295 -418.914 -149.993)
(570.796 -440.076 -441.331)
(99.0871 501.86 756.438)
(784.347 -55.5 5.08483)
(29.4589 -415.173 560.228)
(622.617 -431.778 204.64)
(-56.2534 -483.721 314.617)
(364.588 -607.208 -559.549)
(404.118 -189.706 -330.041)
(353.416 -78.3281 264.878)
(739.089 -121.966 -439.003)
(591.261 226.596 -334.362)
(430.85 -409.13 -121.167)
(400.198 -583.818 337.131)
(363.847 382.382 447.984)
(853.24 -469.344 642.905)
(57.5124 100.986 -113.007)
(52.8076 126.542 -693.621)
(881.058 130.251 -443.98)
(937.319 195.523 943.107)
(903.311 -45.2662 -458.302)
(609.2 -169.596 519.405)
(45.7385 292.998 -21.261)
(667.531 -180.719 -127.866)
(835.549 251.959 -258.071)
(388.928 131.319 289.698)
(287.762 794.022 -424.987)
(906.443 -370.907 271.361)
(702.753 -307.051 57.3647)
(554.556 -871.286 94.6543)
(903.866 654.615 -324.821)
(514.672 224.034 -392.661)
(677.76 -266.432 -58.1438)
(294.1 -510.583 -605.59)
(1119.91 122.368 -32.6401)
(399.864 468.783 -241.531)
(897.649 -203.495 305.982)
(432.974 33.9892 -238.552)
(241.896 -29.1634 127.37)
(935.284 -387.299 -12.942)
(-152.562 -159.516 -615.964)
(842.452 -58.0192 297.235)
(47.5481 272.933 140.221)
(164.411 -203.076 401.401)
(594.606 -228.69 -101.544)
(-75.2296 -86.4705 371.694)
(307.951 486.822 342.978)
(337.152 -211.911 -233.921)
(561.375 746.895 266.121)
(369.788 -260.642 -286.435)
(1155.39 -333.217 473.434)
(98.8009 761.519 114.018)
(534.165 -439.398 -1260.22)
(-80.3508 271.076 -879.746)
(-129.544 -344.474 -320.548)
(287.426 -423.334 70.6249)
(427.73 -97.1515 -224.983)
(800.983 -1100.52 -481.573)
(973.163 -655.815 136.503)
(994.546 32.0602 -407.351)
(1027.69 -68.792 -140.775)
(-146.317 -557.173 162.804)
(448.492 -479.801 -257.595)
(562.886 896.632 -509.444)
(605.641 -502.204 -183.163)
(1456.95 -238.289 -143.553)
(309.572 -87.8054 244.795)
(82.0361 -280.49 460.363)
(-466.913 348.059 121.872)
(624.231 954.069 401.866)
(776.789 481.584 -486.206)
(465.147 723.066 -265.251)
(337.217 240.204 -215.71)
(1224.66 -73.5217 204.987)
(114.758 237.341 852.672)
(645.531 -16.4302 -56.2365)
(418.003 300.485 -286.321)
(801.716 -628.368 136.578)
(-157.341 271.966 -40.2)
(-80.2378 107.033 332.195)
(117.433 -315.485 -17.2411)
(436.938 -462.169 -209.443)
(375.922 95.5159 -925.614)
(22.4988 -149.709 136.97)
(340.134 221.684 -437.474)
(1049.97 -90.2126 32.5344)
(-127.821 558.306 327.234)
(149.046 254.595 -153.863)
(-45.8354 111.627 211.202)
(141.585 55.8 -236.617)
(374.237 106.092 -134.646)
(-103.136 204.051 -537.852)
(724.04 -262.544 -233.205)
(967.688 492.33 -294.973)
(801.718 505.526 277.872)
(441.51 88.9995 44.2231)
(694.893 356.514 4.16917)
(451.723 32.7164 377.598)
(318.101 300.919 -341.312)
(915.023 124.919 -137.322)
(187.865 315.236 568.003)
(564.034 261.553 -130.617)
(519.264 468.954 148.589)
(385.767 11.7624 137.767)
(409.91 -603.347 753.944)
(582.729 -132.226 -138.3)
(689.656 741.442 19.1261)
(586.677 247.828 379.793)
(811.55 323.113 -249.488)
(1052.12 339 -226.543)
(835.982 94.7966 947.084)
(819.27 -15.8114 -476.355)
(786.987 -76.613 153.675)
(383.023 51.0634 -609.678)
(1101.87 -236.599 500.807)
(435.48 -102.644 109.713)
(525.212 -293.801 361.759)
(-136.301 534.988 65.0106)
(554.335 541.909 -486.591)
(-336.153 561.479 -557.548)
(653.322 78.5245 -1050)
(546.533 -284.786 -136.344)
(-432.037 -81.5353 171.201)
(196.067 -215.083 -259.022)
(466.41 487.969 -18.9027)
(412.476 329.966 -421.502)
(-0.409787 440.182 -144.306)
(-637.361 59.6115 -38.6191)
(381.47 -430.964 -684.464)
(416.249 568.055 -345.083)
(-535.129 24.5786 -699.298)
(816.071 323.933 -287.575)
(254.911 18.8461 -604.015)
(245.245 -553.454 -237.615)
(962.715 -151.49 5.10348)
(362.446 -71.6474 -49.2884)
(-294.785 -593.427 -246.554)
(-426.242 186.584 135.842)
(285.284 -142.875 8.04617)
(1133.05 -577.606 -88.1007)
(782.585 -334.989 -366.835)
(97.4894 201.102 189.914)
(60.4724 181.521 223.999)
(-251.269 50.3305 274.482)
(412.371 -277.593 487.614)
(766.833 103.699 206.712)
(-209.596 -206.633 -1078.32)
(-21.2851 325.302 403.156)
(-13.5154 -227.296 -431.023)
(526.444 -268.084 -455.621)
(556.234 -45.5252 -270.402)
(536.092 52.8829 73.2705)
(654.323 -634.647 43.3516)
(579.524 523.705 -349.087)
(471.716 -169.2 717.782)
(434.288 313.38 -928.337)
(-92.8262 359.083 92.871)
(-162.671 -808.663 499.559)
(96.6124 196.021 429.763)
(488.469 -118.55 -50.6983)
(104.702 273.207 -17.878)
(299.23 -570.068 81.3979)
(148.917 557.361 -188.412)
(759.003 146.166 -60.6784)
(1216.45 291.274 86.2193)
(-144.918 -398.915 -31.2532)
(247.408 100.906 -260.094)
(813.332 -63.9886 47.969)
(480.819 -14.6337 -75.3936)
(828.295 -76.5792 -376.994)
(709.149 -733.557 -178.53)
(184.081 -99.8553 -153.437)
(369.046 -366.342 469.23)
(383.128 -94.1032 -148.846)
(414.237 303.932 -192.645)
(1507.54 -70.3391 -105.99)
(647.59 363.81 501.64)
(603.229 -162.84 -359.467)
(-148.736 327.566 261.589)
(281.831 227.275 352.543)
(495.493 303.404 81.7863)
(305.944 -1099.38 -150.764)
(465.446 547.394 -281.69)
(484.831 78.4246 213.497)
(648.582 148.65 26.997)
(-220.82 -183.042 -201.554)
(575.978 -56.0637 -443.44)
(-16.0737 -382.801 70.5704)
(325.032 477.768 -99.655)
(911.198 -852.092 628.285)
(562.892 -167.756 -250.712)
(315.177 -162.473 -226.862)
(142.931 304.633 182.536)
(818.258 -278.024 192.103)
(-352.131 -119.785 3.21835)
(686.725 -256.999 296.806)
(132.77 -230.174 -49.4882)
(803.434 -404.426 450.458)
(83.7334 69.6218 -90.7644)
(107.891 -27.0753 275.088)
(205.52 -9.13519 -179.139)
(266.609 427.605 282.099)
(200.123 178.386 691.563)
(437.392 -42.4124 521.292)
(391.075 97.6519 -326.232)
(196.835 -367.492 449.061)
(-169.781 153.255 366.967)
(675.739 353.596 737.064)
(135.942 151.509 126.974)
(-165.473 -34.0713 -46.6015)
(818.811 -528.19 82.8918)
(1005.64 86.4792 -158.03)
(695.577 37.6107 -163.005)
(382.127 -624.476 1000.75)
(831.184 141.703 -733.332)
(479.726 685.796 -104.57)
(659.178 -476.4 20.8261)
(1041.84 556.899 136.267)
(-385.971 340.24 35.6225)
(1120.27 269.46 -205.443)
(16.8698 243.573 -304.745)
(330.478 136.987 -196.994)
(52.8394 -198.999 349.96)
(722.67 219.309 112.626)
(511.68 246.159 -239.988)
(415.526 670.038 -86.2234)
(682.594 744.229 -188.364)
(257.634 66.9849 23.9391)
(154.24 5.09664 -680.18)
(375.96 -282.192 1096.17)
(404.694 310.714 805.536)
(402.592 210.736 -254.517)
(48.9811 122.739 203.225)
(391.163 -52.9728 227.206)
(1337.27 106.356 158.069)
(186.517 355.681 242.87)
(627.146 -556.684 -72.1541)
(-308.486 -782.873 -531.581)
(483.052 666.575 -251.393)
(375.614 -348.525 332.279)
(119.153 -332.506 110.985)
(680.268 180.337 -228.157)
(201.178 -156.807 594.679)
(242.199 -724.413 379.652)
(156.112 464.834 40.0116)
(1132.62 69.3306 -279.447)
(18.5639 636.875 98.3539)
(135.798 81.9952 35.4693)
(1307.98 -138.009 -119.733)
(-190.372 -294.946 636.719)
(1017.32 -194.025 185.256)
(183.651 -508.214 108.422)
(1039.07 512.68 266.504)
(150.76 166.111 -343.029)
(189.889 -252.252 -135.226)
(614.952 13.2615 696.456)
(32.1993 163.715 427.24)
(-82.5268 -97.8882 389.802)
(206.304 517.716 -519.896)
(604.127 219.877 355.443)
(569.706 -56.6693 -14.8892)
(1073.92 -566.498 38.0857)
(2.46758 -80.4046 201.088)
(678.83 170.177 372.365)
(498.038 252.951 201.559)
(-74.6017 211.201 427.869)
(369.605 479.43 33.8153)
(224.511 -633.406 -206.656)
(-19.6889 32.555 -177.361)
(-241.55 -667.533 -345.682)
(-147.101 -24.3063 -161.636)
(650.785 -13.2918 67.9897)
(347.641 774.127 487.705)
(750.864 457.359 -310.775)
(-501.531 285.026 -449.423)
(971.291 -192.989 -224.191)
(-267.9 -422.218 -19.8422)
(717.732 182.772 52.8619)
(661.655 -397.81 2.58934)
(140.721 192.547 121.922)
(544.903 119.567 37.4117)
(697.498 316.193 -264.708)
(460.276 481.698 576.565)
(561.57 11.838 -726.378)
(638.673 -74.4102 51.9949)
(486.978 -88.3612 686.756)
(-318.441 496.82 -308.894)
(799.964 131.309 74.3338)
(558.877 -237.151 -414.477)
(150.394 389.851 150.713)
(1254.54 -59.4948 -72.4818)
(-74.5976 307.371 -239.517)
(244.21 596.467 477.98)
(936.38 -4.48109 -101.159)
(381.536 635.526 93.8779)
(292.988 96.8922 -224.926)
(239.011 -729.435 -96.8201)
(276.208 -7.65412 371.325)
(1145.23 399.702 217.652)
(28.8551 10.941 -1092.82)
(-114.752 -251.883 94.8605)
(845.708 644.572 215.407)
(212.343 -232.828 -464.292)
(1090.34 -362.631 -96.3091)
(339.125 -540.532 251.032)
(-2.12305 26.362 -737.176)
(-183.048 -396.559 -361.744)
(335.416 193.767 57.0228)
(513.909 -3.2305 -342.504)
(-127.819 163.449 153.36)
(75.1966 390.219 100.584)
(1311.26 -225.997 -315.086)
(273.899 206.891 493.973)
(635.447 -659.856 153.998)
(1042.09 145.669 191.246)
(184.438 86.4184 238.756)
(-424.362 -442.321 -373.562)
(337.753 -299.499 172.429)
(523.828 419.105 -693.605)
(450.999 -132.262 -527.426)
(542.271 188.334 -561.185)
(45.9993 97.8686 -792)
(-98.7902 -105.866 235.795)
(1367.08 -633.622 -551.977)
(295.32 345.559 11.1358)
(702.096 233.281 148.347)
(-106.344 375.365 -223.335)
(400.806 219.285 338.468)
(336.428 124.249 -215.406)
(144.253 108.677 357.621)
(841.29 -240.212 -721.658)
(448.699 -39.2675 494.004)
(203.592 -174.582 -273.178)
(64.8656 -139.902 -315.127)
(-134.517 -462.969 -521.94)
(46.6386 102.406 288.646)
(70.4995 462.555 107.624)
(-691.763 -9.15713 230.23)
(404.984 -419.792 560.381)
(-326.532 280.328 370.412)
(380.47 747.629 971.732)
(363.338 -32.6086 -123.022)
(59.5927 -54.9902 -613.03)
(468.619 889.542 -327.548)
(308.872 64.1116 72.56)
(291.926 798.569 467.137)
(360.803 250.176 -68.2345)
(707.008 68.1113 -800.676)
(153.927 -676.101 218.283)
(440.557 -377.079 233.492)
(622.584 276.614 -524.043)
(84.4287 120.739 174.55)
(474.389 -55.5804 10.7649)
(485.9 140.19 16.6611)
(1040.8 203.459 -415.447)
(387.475 -165.339 152.811)
(21.9786 -176.019 655.307)
(143.934 -46.1746 85.5529)
(1023.71 -706.5 4.30041)
(750.002 -50.1316 -871.524)
(395.92 320.655 140.75)
(307.089 196.509 102.726)
(829.58 -228.204 337.851)
(-100.195 5.91923 -272.719)
(-165.644 185.541 -4.42499)
(295.325 656.248 163.714)
(1193.73 473.785 -464.666)
(-100.292 -69.3809 -113.067)
(626.442 221.304 -300.329)
(415.094 -10.9375 422.133)
(495.106 126.157 -147.946)
(324.69 275.972 -206.737)
(189.214 378.484 290.058)
(-211.981 -35.672 44.6436)
(-343.227 -78.6305 -173.552)
(855.046 -312.707 400.665)
(-240.913 -22.7859 -279.213)
(297.81 -625.269 607.023)
(255.074 -395.328 -14.4374)
(280.323 -526.644 125.806)
(222.209 148.852 -333.459)
(769.535 630.288 58.0606)
(519.084 119.982 51.4577)
(-81.0354 -462.263 263.465)
(178.221 264.366 -4.16904)
(206.36 -68.8809 554.755)
(-247.144 621.625 114.798)
(262.365 324.081 34.4066)
(738.78 536.918 -147.65)
(-207.014 -532.929 240.46)
(195.643 610.359 -490.959)
(349.396 268.8 -237.442)
(292.647 520.901 -379.294)
(6.47348 1018.43 -406.442)
(480.852 -58.5898 769.378)
(-13.3277 -151.005 581.547)
(-82.7437 -683.851 -684.093)
(970.809 22.6094 -377.634)
(776.159 360.389 -361.73)
(90.4382 -64.8121 -93.6474)
(12.8632 -457.374 -99.9719)
(-91.0667 826.904 -125.099)
(-143.112 83.9872 166.864)
(564.841 73.4054 185.437)
(165.707 161.699 116.587)
(-752.423 -411.658 -349.325)
(1107.29 1115.4 -258.044)
(86.3082 -800.643 -59.0225)
(442.506 132.851 405.704)
(113.664 63.1754 274.732)
(19.2081 209.572 386.276)
(224.288 35.8858 -427.867)
(-352.216 -203.498 -122.417)
(691.984 -66.3349 -715.031)
(268.067 360.624 165.745)
(735.117 -286.65 24.6021)
(159.581 159.891 197.745)
(233.319 472.196 48.0947)
(-14.1752 471.684 291.11)
(-51.1541 -266.085 -140.254)
(1202.33 192.792 478.743)
(460.967 -74.0005 -210.255)
(1055.47 645.283 -141.189)
(93.9243 113.941 90.1346)
(-35.4777 -128.562 -509.821)
(-504.963 -447.113 -131.308)
(535.136 125.614 449.668)
(513.193 296.852 586.062)
(187.005 74.304 510.545)
(212.09 -321.11 -423.172)
(739.77 -360.924 65.7912)
(714.403 -170.579 -833.831)
(417.133 -459.253 -24.4887)
(-36.3995 -600.869 104.441)
(340.492 -585.366 -215.355)
(36.8206 -167.764 -444.459)
(245.227 -7.76803 -52.1041)
(1495.75 31.9526 -43.1478)
(-47.458 218.188 -167.403)
(527.23 182.821 290.353)
(403.194 165.619 362.034)
(-280.843 -55.6635 -83.3107)
(56.8579 155.468 -329.156)
(721.039 38.934 -283.923)
(293.69 -154.444 55.9574)
(350.612 -65.696 96.2216)
(218.2 231.4 -153.719)
(-436.768 -301.073 452.527)
(915.361 35.4781 258.029)
(-266.539 75.7787 -481.47)
(286.5 -20.0923 -259.626)
(-201.456 25.6398 -107.313)
(703.853 -120.598 132.43)
(168.935 -534.434 466.483)
(-117.487 127.116 -411.668)
(-78.2595 380.983 -475.586)
(-241.993 -398.879 -122.64)
(241.331 -303.234 -160.415)
(506.651 -171.625 -420.703)
(730.943 -378.492 308.276)
(564.351 -140.79 290.718)
(326.413 -116.084 243.452)
(279.545 -655.338 -94.751)
(-199.127 153.642 -261.551)
(579.594 330.669 -530.163)
(-23.8952 -535.957 -466.421)
(860.845 -346.899 201.029)
(659.642 303.359 9.87328)
(688.574 -423.937 249.925)
(-195.779 -520.791 -84.7957)
(55.4036 311.123 558.723)
(935.018 -242.823 -233.704)
(467.349 272.933 -243.212)
(439.646 -414.327 -272.319)
(-405.826 -96.7403 -45.0108)
(-96.1611 417.347 -322.892)
(-213.334 476.082 -298.391)
(373.146 983.434 -1039.42)
(264.189 680.367 -111.213)
(122.945 -117.773 -1124.75)
(618.922 -644.452 121.098)
(-66.5897 25.0989 -514.62)
(1407.06 -416.218 392.908)
(503.828 -594.574 -399.868)
(947.57 -131.394 46.9)
(597.456 663.741 535.412)
(29.8321 113.123 -330.602)
(268.336 18.5102 -305.839)
(268.218 -75.8027 227.993)
(828.009 -152.725 -65.1887)
(577.287 -133.558 -22.1039)
(431.279 -119.139 188.585)
(-140.612 -274.908 433.36)
(358.283 568.998 -649.86)
(-30.4794 -167.815 12.3171)
(-350.637 -209.996 248.868)
(584.585 322.087 154.774)
(850.536 488.955 53.0812)
(449.627 135.595 474.187)
(54.1793 209.814 193.157)
(861.224 86.1407 73.3171)
(82.1345 -103.227 94.4073)
(489.209 282.587 357.759)
(-49.3284 -475.943 179.789)
(56.0948 315.082 -329.492)
(-220.227 175.093 -410.775)
(-20.1747 330.58 -150.374)
(26.2473 -625.468 178.02)
(-36.8253 -274.392 -1.28511)
(-117.046 66.5522 -281.456)
(340.609 151.183 -756.295)
(163.715 177.429 235.157)
(-147.272 -279.277 308.514)
(537.125 747.299 -199.547)
(160.886 77.3123 -468.913)
(-48.6141 314.814 -209.435)
(180.109 -93.4188 -677.701)
(-15.9016 -897.359 -379.087)
(-7.16832 315.503 -237.233)
(300.158 142.447 473.995)
(1297.58 735.731 -25.7503)
(-62.72 -378.158 161.375)
(34.2735 -314.038 -28.9057)
(385.902 -512.972 387.964)
(-751.552 531.3 -54.2042)
(519.827 -602.475 236.701)
(506.66 289.041 312.494)
(521.01 772.002 -502.722)
(346.156 225.143 -104.641)
(736.197 192.481 -411.097)
(268.025 191.679 69.7405)
(1129.05 -235.088 184.87)
(-446.43 -72.7367 365.623)
(200.053 -122.497 -166.131)
(-91.7377 -438.64 -631.312)
(74.4825 -359.661 -36.0857)
(-109.189 -568.662 52.9445)
(678.143 51.1724 -330.528)
(-134.997 176.333 130.685)
(-77.8631 100.983 18.8031)
(-358.767 72.1818 -69.4424)
(-114.002 -367.394 388.9)
(452.227 121.977 17.396)
(23.6994 -67.1364 -491.027)
(336.219 -446.116 -356.797)
(354.813 -45.3583 466.901)
(261.236 -34.4461 276.303)
(437.95 -137.551 34.867)
(-207.074 -59.1504 124.345)
(386.018 52.5652 36.6171)
(261.014 -462.686 -76.521)
(114.419 -76.1968 298.402)
(-68.5688 -319.008 -391.524)
(585.551 83.3091 162.951)
(287.667 323.544 -555.831)
(-284.918 -568.064 -59.3574)
(304.472 626.736 6.70689)
(47.5299 225.052 264.372)
(-452.858 244.312 64.2857)
(-80.5221 -302.079 179.361)
(360.824 -598.026 326.479)
(-429.519 -29.4075 223.072)
(189.836 -362.195 -23.8717)
(516.421 -218.916 179.744)
(292.398 17.6379 13.8296)
(322.26 -342.904 383.193)
(676.725 502.217 76.3118)
(154.684 -144.281 856.139)
(156.191 -660.668 -74.9637)
(164.625 -137.732 286.436)
(324.278 -757.75 436.916)
(268.66 98.3102 1011.81)
(-131.323 474.647 327.12)
(447.911 141.01 20.261)
(48.8015 -471.966 -684.249)
(-210.155 227.493 289.45)
(928.275 -57.2489 217.136)
(86.6723 -848.931 395.242)
(-84.8362 -241.662 87.428)
(-141.583 -249.605 356.765)
(-256.164 -40.1124 -100.4)
(180.038 -170.023 145.437)
(388.985 -267.384 22.831)
(295.085 -547.718 276.568)
(42.5335 -328.343 46.0472)
(-68.8602 -216.191 211.03)
(-133.766 -653.696 -72.8306)
(-402.992 67.157 220.428)
(-368.134 -148.278 318.525)
(-125.879 -538.69 -311.513)
(-333.111 198.843 194.667)
(278.94 364.175 104.873)
(530.578 207.46 -59.8381)
(327.28 424.036 71.0606)
(-12.5146 253.782 37.6008)
(132.381 26.5783 -292.581)
(166.252 6.79896 -594.048)
(353.667 520.618 21.6062)
(111.227 185.732 -290.302)
(133.148 -355.75 67.2072)
(426.845 -195.201 451.64)
(-27.5926 256.044 64.4351)
(-139.28 441.253 -609.352)
(122.346 -5.99978 -262.841)
(-1.35924 390.441 -525.597)
(747.517 -7.66029 -112.67)
(-597.218 39.8654 -3.71684)
(-108.198 199.593 -54.0656)
(251.544 -9.31083 -98.5266)
(508.422 420.601 194.658)
(347.729 536.083 202.054)
(-504.278 242.705 355.252)
(-261.836 -340.783 273.728)
(598.231 -205.339 298.484)
(562.824 216.588 548.192)
(733.525 -762.218 -602.308)
(-92.7887 -84.2155 131.507)
(-680.311 743.696 233.582)
(-202.082 -254.551 -400.39)
(-212.185 50.0165 -21.4643)
(795.285 -479.042 -315.617)
(-144.411 66.2934 -102.116)
(-253.424 137.597 -179.448)
(607.027 -309.803 137.961)
(358.024 -504.452 357.88)
(-51.2661 -54.614 -115.7)
(503.661 -204.085 -74.9361)
(-325.258 118.427 84.943)
(351.698 213.231 -374.98)
(-410.603 223.418 264.339)
(-504.795 5.96125 -1.3682)
(-93.574 446.454 158.336)
(-345.267 -64.9607 242.107)
(519.796 -74.6866 -132.02)
(970.949 -128.246 -137.759)
(-264.207 117.022 230.615)
(140.686 257.996 295.646)
(275.773 -409.139 -193.525)
(194.588 86.0222 -519.365)
(84.2261 -79.9222 -147.777)
(-63.6402 -373.908 -78.7922)
(-134.332 150.179 -159.479)
(-181.021 126.325 364.784)
(247.455 -115.035 765.242)
(418.582 565.381 -952.345)
(543.579 166.911 259.829)
(236.56 238.668 123.281)
(1197.84 227.876 -487.832)
(81.6521 -54.59 76.3008)
(-4.89173 237.559 -274.158)
(77.2673 260.784 -48.354)
(164.71 -211.679 -10.2384)
(-11.3053 -25.7289 -38.1291)
(95.2821 210.597 -90.9397)
(-110.501 279.937 304.133)
(-40.1327 -123.464 572.784)
(214.136 375.794 134.156)
(-102.207 -15.5501 13.9695)
(367.175 131.345 177.06)
(440.065 -194.893 322.772)
(-236.82 -641.999 218.977)
(422.79 -235.821 349.362)
(102.09 14.5763 186.955)
(-51.8349 -156.129 -602.392)
(90.3198 -13.2661 -732.637)
(191.227 -187.047 221.484)
(227.148 -17.7532 74.0463)
(296.295 -89.87 -495.418)
(275.076 -402.244 241.034)
(-266.518 149.251 -225.046)
(27.7008 -485.674 381.757)
(143.594 24.9738 80.5549)
(43.9144 -607.923 -203.451)
(511.319 94.247 -90.0297)
(115.136 517.115 -159.13)
(-37.0466 -65.4984 -95.5067)
(-245.008 -130.789 -22.0997)
(265.129 -152.295 -63.2935)
(536.809 -291.674 435.788)
(-110.987 352.562 137.243)
(335.342 223.292 353.086)
(367.631 363.758 73.4499)
(-312.191 -38.3993 46.1244)
(-387.142 527.251 74.191)
(55.1914 -534.449 17.4695)
(366.205 -73.6423 -62.8385)
(127.437 633.826 -3.56445)
(-10.4174 -360.199 -363.33)
(-572.338 124.836 207.792)
(166.643 506.487 24.1148)
(-239.761 -189.245 470.259)
(-229.75 -654.826 189.25)
(-413.992 81.5423 100.318)
(-24.0218 19.1754 -216.713)
(-115.665 415.18 99.7039)
(341.44 -346.406 -437.216)
(602.64 -174.363 107)
(-22.2314 442.83 -165.343)
(75.4132 682.796 82.9596)
(129.088 375.459 44.8309)
(-238.263 399.902 -203.395)
(58.8408 847.449 220.161)
(-13.5303 -480.284 -121.356)
(412.352 -169.585 -212.267)
(-385.149 -331.779 -753.766)
(795.569 388.122 -201.54)
(209.126 356.933 -300.937)
(205.175 -205.685 524.719)
(-189.398 50.6561 -202.378)
(124.915 -436.381 -202.115)
(339.179 172.964 147.382)
(-207.999 -348.999 -206.078)
(-550.868 189.904 241.24)
(417.177 510.536 -714.022)
(106.93 223.352 293.042)
(307.846 -411.78 583.346)
(394.837 387.871 -174.814)
(-7.31492 -9.74116 230.697)
(-353.919 -227.32 -661.875)
(-153.707 194.601 448.025)
(316.261 170.914 2.67451)
(-28.9068 322.432 538.873)
(-58.6482 -453.235 -325.181)
(-304.831 -879.069 507.001)
(-12.3183 -601.228 -19.4324)
(-100.617 42.9975 -409.679)
(-621.879 -119.593 -344.669)
(-607.262 396.086 96.6009)
(-217.753 -58.3668 55.3613)
(248.798 102.004 713.029)
(59.0437 67.1929 157.28)
(-328.29 -464.768 13.3874)
(73.7777 75.3005 -165.542)
(-118.672 67.2437 -364.018)
(135.584 -774.224 256.793)
(90.7042 -16.3173 22.5159)
(278.27 27.765 -216.96)
(57.0371 -632.091 -419.768)
(-391.294 228.495 135.922)
(-467.24 466.809 125.482)
(392.717 -488.74 -177.041)
(738.739 114.312 -112.49)
(10.7142 461.594 519.048)
(-34.568 39.9867 433.094)
(48.8758 -401.641 414.088)
(23.8886 -15.2297 -185.066)
(-533.077 -52.3913 293.623)
(113.612 577.373 -183.927)
(108.748 272.05 462.059)
(-11.322 99.4892 -409.936)
(577.096 -188.804 10.232)
(271.828 386.65 449.941)
(-895.122 -339.897 195.176)
(-82.0913 -345.993 123.314)
(-468.605 603.477 -174.035)
(141.411 -360.999 16.5338)
(31.6178 -165.266 -193.052)
(-33.0071 499.942 -568.867)
(398.545 -433.394 -30.0711)
(16.8133 255.829 -245.968)
(-9.08365 620.146 -27.0136)
(-228.6 -272.71 248.875)
(25.4914 799.623 465.529)
(231.566 159.261 33.8402)
(-321.604 588.663 409.159)
(-251.781 88.3142 115.836)
(498.143 -160.494 486.827)
(272.132 -186.485 -141.553)
(395.662 -390.685 -469.133)
(-677.424 255.193 93.4936)
(344.906 566.641 -384.491)
(-104.954 376.655 265.875)
(189.746 190.045 317.118)
(401.374 -186.892 -127.004)
(203.227 -572.459 -102.831)
(-113.766 -30.6367 -560.474)
(98.2286 1095.98 -54.682)
(318.557 499.374 85.4426)
(254.776 -328.116 -850.544)
(38.0563 -84.326 -186.005)
(-247.628 -199.438 -4.48145)
(-197.306 -127.257 -365.975)
(420.005 -381.295 349.174)
(176.903 76.3036 -223.279)
(-0.361644 137.803 89.1359)
(-8.02029 -341.545 -23.4845)
(-300.682 515.3 306.382)
(-67.5579 -2.66413 82.7342)
(-317.62 -255.678 -209.921)
(278.251 211.393 25.9594)
(350.185 -368.1 -190.486)
(-5.25992 -311.821 -198.642)
(195.535 90.7699 -237.376)
(-745.537 654.673 -266.318)
(301.173 64.4365 -331.509)
(695.272 396.54 627.793)
(-1.26116 885.713 -384.095)
(-550.956 174.174 294.794)
(351.06 -153.946 -63.5118)
(110.595 40.123 -313.864)
(105.864 -268.349 -130.532)
(75.7668 626.057 -256.361)
(-121.512 -414.728 -117.046)
(-127.367 24.8442 360.677)
(-230.865 168.752 -40.9229)
(-121.417 90.9077 110.347)
(285.845 52.2351 113.554)
(-180.255 151.832 304.754)
(336.095 -204.936 -191.578)
(-404.389 -68.2694 77.7422)
(-410.539 -168.256 -246.329)
(190.846 -167.91 153.961)
(-69.4023 794.072 760.526)
(-158.599 60.6923 316.238)
(437.224 197.992 -1.4481)
(329.234 -75.5247 4.2135)
(487.654 187.788 385.1)
(111.483 216.945 147.238)
(-120.185 68.5861 166.762)
(-218.524 -549.941 -259.437)
(-19.4814 285.768 -523.339)
(401.847 -375.231 10.6714)
(-71.6491 95.8985 -56.4624)
(216.809 -500.64 395.503)
(296.029 -364.758 201.688)
(-140.647 -286.244 -765.176)
(423.075 -8.91225 586.662)
(441.829 -89.8003 -378.982)
(227.575 -204.314 -634.254)
(593.495 22.2001 149.572)
(-246.784 -87.8707 -142.46)
(-67.2677 249.086 -500.303)
(241.792 336.951 -498.711)
(615.339 -221.142 -177.948)
(284.328 -853.026 -70.5761)
(22.776 554.375 261.256)
(-484.153 -311.918 245.344)
(200.363 -177.406 194.408)
(994.786 -443.09 -239.528)
(16.5822 55.984 -86.6225)
(617.088 37.7421 -22.9409)
(267.582 -579.313 16.577)
(-373.783 54.5667 -151.007)
(-68.3872 -369.158 -153.883)
(40.3863 259.108 212.118)
(396.842 513.606 203.254)
(-78.2913 -252.588 551.288)
(219.419 -119.022 -49.0005)
(241.448 230.473 156.693)
(138.558 244.403 51.8596)
(-82.065 231.852 214.44)
(-66.6758 88.1691 10.0357)
(-59.7257 83.8938 29.1738)
(307.631 -266.741 536.575)
(-691.831 -667.524 137.553)
(18.2455 7.37385 -379.917)
(-90.5429 -21.8071 -43.3666)
(152.372 -570.495 -65.7013)
(504.938 -118.86 290.654)
(-71.4468 334.802 525.091)
(63.815 421.336 -389.407)
(-34.5352 153.836 -121.463)
(-505.328 438.312 -351.888)
(-99.4369 -59.6653 -315.16)
(-146.368 163.043 284.582)
(87.0712 210.633 35.9724)
(-104.175 -101.556 145.348)
(-44.8132 129.617 250.742)
(-182.693 -274.416 228.894)
(165.961 674.502 -23.1421)
(237.457 -24.8195 303.033)
(68.4621 348.185 -128.162)
(182.957 234.976 -108.054)
(82.7722 -143.666 -279.722)
(336.599 24.1764 32.2457)
(97.4873 -634.467 -69.6796)
(235.403 66.7946 340.036)
(416.128 417.749 157.352)
(185.541 555.014 -173.806)
(260.654 37.4414 -263.933)
(-410.157 75.3743 -149.736)
(-193.276 199.975 259.907)
(148.278 210.287 -131.885)
(106.94 142.543 168.012)
(213.902 -105.6 265.008)
(152.373 -450.443 -73.4028)
(50.9512 573.118 245.1)
(427.928 -375.375 137.841)
(254.678 10.2366 40.0866)
(322.253 272.658 593.941)
(240.479 383.951 -517.547)
(-36.5988 519.498 9.24626)
(73.2843 537.089 445.176)
(-272.432 370.652 142.494)
(-143.129 287.334 -495.221)
(413.979 335.538 245.456)
(-732.896 397.129 488.428)
(-298.992 -310.172 -47.1508)
(36.8748 -327.474 -420.914)
(-363.225 519.937 109.212)
(-41.1877 80.8136 -158.652)
(283.079 161.566 -139.373)
(31.6505 223.066 -499.372)
(-287.361 -35.1084 -308.648)
(266.659 493.234 -128.302)
(739.946 -43.7603 263.801)
(-341.611 226.391 134.148)
(269.259 94.8589 -377.467)
(-11.1111 -461.679 572.969)
(-203.202 32.1705 -416.137)
(147.202 161.463 -479.583)
(-194.729 -416.907 -209.043)
(121.992 139.095 -156.844)
(-296.212 372.934 -153.357)
(-217.845 89.8443 190.368)
(326.494 36.8746 -224.834)
(-37.694 -439.121 9.82007)
(513.478 -132.583 482.573)
(357.735 106.811 240.43)
(282.165 246.117 -483.712)
(-315.093 159.324 -464.014)
(785.163 -277.451 41.7223)
(-286.573 -251.278 129.606)
(-293.391 -600.279 -26.8665)
(-477.104 200.759 -501.151)
(-44.8735 -153.067 69.2369)
(-270.789 -197.181 -390.806)
(160.043 284.49 -107.668)
(-177.633 86.0531 155.132)
(-300.081 -182.682 63.6692)
(-6.11946 14.978 688.322)
(-14.6453 239.444 -474.248)
(248.406 -197.599 282.853)
(-133.314 152.546 -147.835)
(455.934 -296.759 162.169)
(-274.304 172.818 224.03)
(-216.659 213.884 -5.54794)
(-193.508 -272.784 125.898)
(194.575 139.809 321.062)
(-527.369 -20.3639 -209.193)
(-140.423 -377.242 -163.135)
(491.06 -113.705 -239.346)
(-269.359 -28.2107 -282.957)
(282.279 -510.024 291.33)
(158.156 63.0964 374.779)
(198.233 229.894 -48.5049)
(52.462 -335.154 -341.357)
(114.326 379.212 38.9384)
(351.587 357.672 28.2275)
(-232.728 -395.784 575.952)
(27.7839 -184.886 -37.8073)
(151.145 76.319 -429.684)
(78.7926 250.825 124.151)
(86.1026 249.578 144.166)
(203.87 -13.7992 -11.8988)
(186.428 -26.872 394.543)
(258.46 -43.9046 -50.5898)
(-11.608 243.824 -252.011)
(254.638 375.776 -378.077)
(-462.464 317.293 245.319)
(-166.454 132.597 -169.559)
(282.538 423.071 95.216)
(539.248 390.573 466.392)
(-128.138 169.569 -63.1156)
(-73.9185 113.109 -385.45)
(133.908 -20.413 118.101)
(-112.211 -175.911 -496.845)
(45.1492 208.698 -203.915)
(-65.7888 300.969 -399.975)
(267.05 69.3786 -387.911)
(-394.772 183.946 -525.205)
(495.982 208.844 402.782)
(-64.7289 -83.5353 -376.916)
(-353.685 -132.284 -411.736)
(193.976 -296.615 -197.904)
(-1.87929 467.239 -376.465)
(-427.381 84.3357 -269.764)
(360.431 -51.4782 205.464)
(-53.1322 -147.277 141.541)
(539.907 99.9357 136.039)
(-184.953 -212.626 48.211)
(-113.033 80.5817 166.468)
(74.4102 -49.8106 321.595)
(28.2938 -118.404 180.324)
(-120.711 446.559 -346.468)
(-62.7099 -164.574 577.668)
(-302.208 230.196 -403.256)
(50.3481 136.936 230.934)
(210.661 -318.218 490.68)
(225.904 171.198 -178.518)