/*--------------------------------*- C++ -*----------------------------------*\
  =========                 |
  \\      /  F ield         | OpenFOAM: The Open Source CFD Toolbox
   \\    /   O peration     | Website:  https://openfoam.org
    \\  /    A nd           | Version:  7
     \\/     M anipulation  |
\*---------------------------------------------------------------------------*/
FoamFile
{
    version     2.0;
    format      ascii;
    class       scalarField;
    location    "0.009/lagrangian/dsmc";
    object      Ei;
}
// * * * * * * * * * * * * * * * * * * * * * * * * * * * * * * * * * * * * * //


5369
(
3.994866245e-21
1.083158572e-20
3.78569956e-21
3.321087634e-21
4.531944033e-22
5.530550266e-21
1.410583352e-20
2.393330421e-21
1.047977984e-21
6.918907418e-21
7.158826695e-21
5.871179831e-21
3.771958307e-21
7.76116595e-21
1.746586644e-20
7.981816245e-21
1.769448436e-22
6.38889426e-22
9.66176561e-21
6.52437376e-21
9.080055853e-22
1.572445233e-21
5.420307799e-21
4.849328615e-21
2.961616554e-21
8.67189705e-22
2.215620583e-21
9.866816809e-21
3.613497685e-21
8.818467615e-22
1.583042452e-21
1.006953417e-21
8.774308326e-21
1.674615231e-21
5.487093713e-21
3.934918756e-21
6.017272659e-21
3.031463694e-21
7.017301135e-21
2.039247614e-21
5.413033266e-21
3.770436624e-21
6.739605637e-22
2.68757294e-20
1.063051541e-20
5.360014614e-21
1.079155109e-21
5.045412321e-22
6.042319347e-22
1.160144926e-20
4.62269772e-21
2.929267164e-21
5.849390302e-22
1.608835604e-21
7.149394508e-22
4.939757447e-21
2.67001177e-21
2.472383372e-21
1.312586044e-21
1.521706304e-20
1.533198443e-20
7.5814493e-22
5.619933061e-22
5.885334256e-23
1.120305701e-20
7.393590414e-21
3.523959234e-21
9.264849239e-21
5.298153211e-21
1.622618155e-20
8.148866456e-21
8.555951594e-21
9.33473446e-21
3.712188711e-21
5.140336066e-21
7.639047781e-22
6.801064192e-21
6.506139723e-21
1.894173235e-21
2.249132315e-20
2.59337405e-21
9.997889793e-23
1.490466044e-21
1.070965643e-20
2.654772794e-21
4.050488054e-21
1.671706355e-21
5.565214353e-21
2.458789437e-22
1.015299323e-21
2.278579185e-21
2.317985255e-21
7.35251393e-22
5.038689208e-21
9.984193501e-21
1.819611111e-20
2.315067589e-21
2.686976203e-21
1.690314191e-21
9.082695862e-21
8.094141948e-21
1.444666698e-20
1.063748608e-20
5.015974821e-21
1.026265706e-21
9.144846422e-21
5.002602346e-22
8.80664438e-23
1.335268533e-21
2.42975427e-20
1.449048818e-21
2.670401438e-21
3.167547125e-21
8.342712351e-21
1.925141651e-21
3.25877265e-21
4.399149041e-22
1.385813846e-21
2.814936303e-21
1.019613158e-20
8.067924424e-22
5.889942684e-21
4.418511799e-21
1.054269685e-20
8.766623129e-23
9.721968329e-21
2.438134222e-21
1.491964511e-21
1.01371095e-20
8.164503655e-21
2.029920916e-22
6.957875361e-21
2.131120893e-21
1.724264054e-21
3.488761388e-22
6.384317009e-21
1.102489552e-20
2.804185343e-21
7.995895389e-21
5.805030029e-21
3.857084307e-21
2.640939831e-21
1.673964706e-21
7.190001703e-21
5.080852438e-21
2.84806979e-21
1.406789251e-21
5.62424591e-21
8.722947646e-21
5.651951858e-21
2.519777783e-21
2.205956142e-21
1.683351775e-21
4.286727485e-21
2.493744314e-21
1.30442993e-21
2.092338364e-21
7.891447685e-21
1.3629213e-21
1.130379366e-20
1.924042536e-21
2.302408416e-22
1.183124969e-20
4.69292847e-21
1.324001817e-21
4.730384186e-21
3.878875498e-21
8.461252962e-21
1.575206887e-20
4.817410608e-22
3.779421641e-21
4.817026608e-22
2.284956808e-21
6.337881628e-22
1.154691157e-22
1.801784718e-21
1.270577909e-20
2.167971731e-21
9.413626502e-22
2.771707399e-20
6.63931835e-21
7.088915127e-21
2.787259859e-21
5.206876096e-22
1.258675516e-20
1.610608542e-22
1.154198443e-20
9.622359032e-21
4.027183244e-21
5.142256086e-21
3.260325642e-21
2.601961684e-21
3.993368816e-21
8.012541957e-21
1.044856792e-20
1.22195567e-21
1.337105357e-21
4.41887171e-21
4.329630037e-21
7.556047215e-23
3.261190234e-21
7.318250305e-21
5.175948329e-21
6.768819548e-21
3.658065197e-21
9.945672931e-21
6.365386922e-23
1.189448755e-20
1.65433421e-20
9.774261805e-21
1.238345279e-20
2.671330604e-21
3.600374234e-21
4.452070929e-21
4.291738901e-22
2.396412457e-22
5.933094058e-21
1.273766015e-21
3.084372107e-20
2.544188155e-21
1.614217776e-21
3.102391305e-21
2.893778573e-21
1.083332359e-20
4.678071525e-22
2.484463786e-21
7.289478573e-21
2.607957637e-21
9.576180652e-21
6.555842738e-21
6.004473166e-22
2.388808747e-21
2.721966341e-21
4.161341551e-21
3.153755474e-21
1.587267455e-20
2.428851548e-21
6.068874384e-21
2.035856167e-21
1.576007682e-20
6.443579948e-21
3.523296192e-23
2.009881298e-21
2.293980352e-21
1.43036995e-21
9.561755376e-22
1.23210356e-20
9.435383877e-22
3.905657494e-20
9.955733422e-22
4.428254503e-22
3.528543651e-21
1.183138425e-20
1.438175204e-21
4.073792286e-21
9.612417297e-21
1.212147231e-20
4.263869036e-22
1.125858951e-21
7.356385609e-22
1.208314751e-21
1.371261128e-22
8.185068365e-21
9.527044876e-22
2.117211202e-21
5.557968624e-21
7.61852976e-21
4.53978077e-21
2.028942642e-21
9.319874758e-21
5.793876927e-21
3.047717476e-22
4.008606929e-21
3.700793325e-21
1.783223264e-21
5.620407527e-22
4.092071983e-21
2.208073998e-21
2.925981241e-21
1.227852578e-20
8.140149285e-21
2.54118586e-21
8.026834297e-21
6.7768957e-23
2.060187977e-21
1.060282943e-20
3.240113741e-21
2.992852017e-21
2.75048521e-21
2.305225171e-22
1.669179808e-21
7.535811589e-21
1.126914004e-20
9.115884022e-22
8.683363999e-21
5.740313115e-22
8.400150637e-21
6.819153886e-21
7.276390163e-21
2.057787562e-21
3.248047903e-21
1.415686579e-20
1.822821961e-21
2.064720466e-21
9.115323242e-22
8.705718764e-21
7.866667577e-21
5.127427161e-22
3.08076209e-21
3.178999704e-21
2.213657635e-20
7.971702721e-21
1.044435954e-21
1.095384775e-20
2.838420527e-21
2.612896033e-21
2.236524727e-23
1.892307366e-21
1.956656087e-21
4.786590881e-21
5.290881572e-22
1.858294896e-21
6.819815269e-22
4.053313446e-22
9.265237818e-22
5.581879224e-21
1.945482867e-20
5.254264454e-21
2.444921712e-21
3.69943933e-22
2.915025309e-21
4.336401484e-21
3.118189993e-21
1.572633201e-21
2.222656253e-21
8.152862492e-21
2.313674205e-21
6.222346921e-21
6.361056902e-21
5.974274211e-21
2.151389938e-20
4.271159064e-21
3.239258557e-21
9.83919603e-22
1.941980698e-20
1.541037557e-20
5.264313891e-21
1.398982498e-21
4.122175636e-21
1.858380114e-20
3.141382365e-21
1.842447941e-21
6.835620288e-22
4.814983125e-21
2.453849811e-21
3.192922218e-22
3.048188256e-21
6.127840899e-21
1.42060867e-20
2.469972753e-21
4.058157244e-21
3.610433739e-22
5.688720641e-21
4.474905687e-21
5.070198279e-21
9.459247568e-22
5.412960019e-21
1.702949564e-21
1.884118854e-21
7.363363812e-22
1.545486654e-21
7.216629622e-21
1.593283795e-20
4.003096238e-21
6.042272356e-22
8.171201165e-21
1.090056743e-22
1.610433825e-21
2.197553777e-21
1.061376487e-20
1.254346309e-21
6.263623978e-21
5.13325736e-21
1.996160841e-21
7.562224898e-22
7.447411109e-21
1.009429806e-20
6.133806136e-21
3.945859457e-21
3.793780105e-21
7.665165088e-21
3.093177443e-21
7.761746301e-21
5.778722142e-21
1.339524267e-20
5.279410734e-21
1.366108825e-20
1.206676019e-20
1.350532806e-21
2.88459867e-21
6.595209195e-22
1.607151273e-21
3.737444239e-21
8.294602694e-21
3.951913396e-21
4.590603756e-21
2.524385651e-21
6.010337646e-21
7.714669443e-22
1.48980568e-21
3.765380796e-21
1.898091826e-21
9.559589935e-21
2.054619686e-21
6.702834732e-21
1.30323327e-21
4.408981541e-21
1.203428987e-20
4.949830143e-21
9.355115168e-22
2.507383459e-22
1.24485999e-20
1.278011665e-21
1.960895176e-20
7.595203113e-21
1.448415167e-21
1.030854559e-20
1.203426947e-21
3.534561451e-21
4.253474386e-21
2.044843472e-20
6.15150908e-23
9.010217516e-21
8.399609966e-21
3.752978477e-21
2.919709298e-21
1.994730313e-20
5.682974667e-21
2.463266607e-22
7.127645664e-21
5.725500598e-23
2.319490219e-21
2.50120283e-20
4.996620508e-21
1.145884786e-20
1.068643792e-21
1.082942522e-21
1.213426951e-21
3.355099455e-21
4.115405968e-21
3.486156384e-21
7.747618166e-21
1.59532207e-21
9.64198398e-23
9.776154244e-22
7.490424864e-22
2.069183536e-22
4.249048247e-21
7.326263449e-21
2.331653152e-23
1.305194667e-21
3.873047135e-21
1.377725081e-21
1.239297779e-20
6.129511359e-21
2.350634737e-22
2.348444416e-20
3.482826526e-21
2.967218036e-21
3.024090183e-21
9.543378899e-21
4.041746867e-21
6.819367524e-21
1.624361631e-21
4.146746461e-21
5.424224766e-21
7.509493487e-22
4.448190397e-22
5.589487257e-21
6.007492695e-21
3.4109484e-21
6.047134371e-23
3.385443344e-21
1.22100646e-20
8.606022363e-21
7.273225097e-21
7.176766988e-22
2.220351833e-21
3.235590241e-21
1.745375699e-20
1.82288898e-21
6.961429289e-21
3.963438399e-21
1.452414364e-22
1.138829732e-20
2.285998784e-20
2.456365829e-20
1.457375872e-21
1.348055658e-20
4.267927683e-21
7.365832424e-23
1.252409877e-21
5.042570094e-21
2.18154994e-21
1.142984031e-20
1.741548087e-22
1.367440805e-20
1.23313699e-21
4.658894873e-21
3.037188241e-21
6.062865631e-21
2.212867802e-21
1.078377187e-22
1.421003233e-21
1.187991791e-20
7.804012164e-21
1.628419535e-20
6.152298804e-22
1.097690356e-20
7.890553035e-22
1.916370501e-21
1.327253395e-21
1.324238733e-21
1.911270313e-20
1.611251287e-20
1.476305754e-21
5.566776707e-22
2.730858426e-21
7.20108179e-22
1.755110717e-21
2.083286055e-21
1.186325792e-20
6.990383944e-21
2.326383844e-21
1.085745795e-20
1.448305384e-20
1.431719658e-20
1.068360848e-21
1.286808871e-21
4.311101358e-21
3.875760713e-21
2.136733116e-20
1.021848275e-20
1.185307861e-20
2.744743684e-21
2.583136869e-21
5.644899529e-22
1.166850201e-23
5.802796116e-21
4.162424159e-21
4.280743712e-21
9.072447556e-21
1.099097717e-20
1.090327923e-21
1.89436289e-21
6.722410014e-22
2.663629428e-21
4.664049511e-22
8.905662888e-21
4.839135329e-21
1.528078319e-21
2.5260883e-22
1.232614441e-21
2.304968719e-21
6.933618745e-21
1.380560829e-21
4.176551264e-20
3.581696372e-21
9.935485659e-21
5.63873673e-21
4.532619234e-21
1.569869781e-21
8.690746381e-21
2.357190918e-21
6.715967324e-21
5.045490984e-21
1.249593197e-23
6.487826562e-21
2.0722629e-21
5.233493639e-21
9.047908769e-21
4.661321259e-21
1.309135438e-21
3.487844576e-21
6.004584433e-21
2.902374619e-21
3.094088952e-21
3.028473302e-21
1.920842354e-21
2.547643754e-21
1.837390205e-21
1.022458521e-22
9.735384157e-22
2.737297456e-22
4.065753896e-21
7.743371636e-21
6.496550066e-21
4.872901635e-21
7.033840653e-22
4.104343653e-22
2.305709087e-23
6.278949414e-21
2.217289441e-21
3.168844905e-22
5.758792903e-21
4.920060503e-21
1.143802966e-20
2.103307527e-21
6.519274612e-21
5.871872976e-21
3.593930507e-21
1.035723533e-21
7.47439941e-21
9.480551486e-22
5.644414488e-21
3.27589594e-21
1.911643124e-21
3.627260452e-21
4.438821764e-21
9.132343336e-22
6.391961304e-21
3.717778856e-21
4.763832315e-21
5.420494287e-21
3.409775471e-21
2.946739203e-22
8.200593482e-21
4.249738315e-21
5.05727588e-21
8.740502516e-21
1.23390224e-21
2.583538652e-21
3.585495515e-21
2.153483541e-21
6.226467359e-21
2.600950527e-21
9.589362341e-21
6.463890648e-22
6.895274834e-21
1.354001791e-20
6.65839963e-22
4.040661186e-21
1.594418698e-21
5.525999665e-21
5.569511812e-21
5.389099181e-21
1.332478887e-21
3.879110744e-21
1.013950883e-20
3.222727054e-21
2.258188149e-21
2.090196858e-21
1.008620466e-21
4.194785702e-21
1.508365601e-21
4.641856469e-21
6.96685222e-21
2.303020756e-22
1.17421166e-21
1.048017626e-20
2.223457948e-21
9.181875992e-22
6.067639124e-22
4.960608647e-22
1.053306701e-21
8.463719071e-21
3.972864798e-21
2.154213773e-21
2.497777309e-21
1.684630998e-21
5.002160995e-21
5.87738779e-21
1.392876239e-20
1.240142952e-21
2.106052429e-21
8.854357375e-21
2.160971783e-21
8.252822214e-22
9.682198505e-22
6.825102383e-22
1.655723411e-21
7.899370099e-22
7.491020804e-21
5.818647625e-21
4.275452166e-21
1.807152376e-21
9.834447506e-22
7.618379055e-21
1.657388652e-21
1.150994705e-20
2.75203402e-21
1.672702564e-22
1.995827935e-21
2.539465049e-21
5.660719845e-21
9.927319745e-21
1.427015641e-21
1.764734988e-20
6.166415535e-21
5.758035137e-21
7.841417905e-21
3.734067273e-21
4.077905347e-22
3.477752771e-21
1.482471823e-21
2.629648617e-21
2.455878204e-21
3.134487142e-21
2.178975887e-21
4.376005432e-21
3.673161281e-21
3.652960715e-22
3.078154861e-21
2.250265021e-23
3.613185588e-21
1.570355404e-20
4.862058568e-22
6.727547318e-21
6.831440712e-21
5.793379118e-21
4.000044634e-21
3.190903316e-21
1.091242817e-21
2.742064556e-21
2.657953736e-21
1.388081552e-21
5.498938585e-21
2.30125312e-21
8.830115207e-21
1.10612707e-21
1.45604772e-20
1.452899705e-20
1.028049996e-21
1.270352463e-20
7.295843609e-21
1.374847696e-20
1.68560047e-20
7.881690396e-21
1.128815523e-21
7.15216227e-21
1.317213144e-20
9.354717415e-21
2.657409672e-22
8.206751288e-21
1.027796021e-21
5.236999539e-21
1.490939571e-20
1.06276597e-20
8.036599586e-21
8.386696958e-22
1.416710708e-21
1.272316327e-20
3.7926363e-21
3.306518699e-21
9.659347452e-21
2.534108873e-22
2.407027386e-21
9.532289918e-21
3.565569073e-21
6.698810993e-22
3.371213866e-21
2.854698129e-22
1.49568232e-21
1.114478214e-20
5.018414965e-21
9.851433984e-21
3.949606179e-21
1.282814149e-21
1.244986194e-22
6.569928885e-24
7.35414097e-21
4.335561845e-23
4.817611668e-23
2.882911908e-21
2.132035185e-20
5.652702242e-21
6.852362572e-21
9.6883556e-22
2.699905895e-21
3.132481822e-21
3.490120386e-21
7.419357973e-21
4.671634294e-21
8.067079354e-22
6.262931099e-21
5.902576651e-21
2.221132908e-21
3.14111071e-21
5.814140513e-21
3.310228775e-20
3.426029858e-21
1.510263311e-20
4.367097779e-21
3.406501473e-21
1.565611331e-21
9.666367375e-21
1.252488193e-20
7.860528391e-22
5.502779501e-21
2.956701406e-22
2.165420405e-22
1.038893167e-20
2.865461301e-21
1.521194441e-21
3.56145666e-22
8.51669922e-22
7.37446131e-22
2.858787732e-21
5.66447526e-21
8.360321167e-22
5.651398865e-21
7.54876019e-21
1.841518685e-20
3.14072262e-21
3.518061225e-21
1.059886055e-20
1.21101686e-20
4.864628318e-21
2.873256777e-21
1.657390128e-21
2.238136177e-20
3.716528865e-21
6.299119634e-23
3.602579095e-21
9.229408418e-21
4.63193884e-21
1.297671988e-21
2.337552404e-22
4.021592203e-21
1.735597965e-21
1.311003543e-21
3.526162493e-21
7.470320586e-21
6.936592606e-22
6.198813925e-21
4.501305115e-21
1.641015025e-20
3.218015979e-22
5.356479243e-21
2.235468785e-21
1.051227401e-20
1.425309743e-20
9.495353811e-22
9.316379229e-21
2.340377524e-22
5.03472641e-21
6.750766167e-21
1.264304444e-21
5.577410966e-22
7.544681917e-22
2.283867753e-21
5.216858525e-21
1.184186273e-20
2.342710836e-22
8.732651381e-21
3.067383217e-21
3.180994947e-21
2.049243306e-21
6.598806253e-22
2.508984697e-21
1.763680282e-21
7.248247626e-21
9.461243716e-21
4.557567438e-21
1.123154672e-21
7.564075395e-21
7.170024157e-21
7.818027353e-22
2.244762387e-22
4.239170608e-21
3.399725423e-22
1.950945537e-21
1.215239425e-21
1.558041007e-20
6.964966784e-21
1.165030979e-22
1.725438742e-21
5.307355038e-22
2.100088415e-22
2.051004175e-21
1.373072683e-21
2.167562302e-21
3.088174296e-21
1.042838895e-21
1.318657177e-20
1.943893027e-21
2.203390896e-21
1.629629702e-22
7.7189762e-21
2.192024655e-21
4.137930739e-22
3.88649855e-21
2.134538046e-21
6.742506257e-21
5.958697409e-22
1.630001738e-21
8.407498508e-21
1.873479209e-21
4.882848528e-21
6.234417941e-21
2.304619336e-20
2.102536572e-21
5.237773161e-21
4.182386954e-22
2.52054277e-21
3.657740133e-21
4.567252046e-21
3.272154436e-21
5.41679427e-21
8.404262877e-21
4.000802036e-23
1.716772858e-22
2.678119447e-21
7.888072045e-21
7.196585425e-22
4.102712732e-21
3.529204687e-22
7.205468625e-21
1.793015659e-21
7.061929365e-21
6.19678192e-21
2.235114496e-22
7.791137526e-21
8.175603709e-21
1.210538745e-21
6.98478695e-21
4.194828053e-21
3.177072661e-21
3.128426549e-22
2.428899341e-21
7.283838506e-21
6.846928728e-21
3.282633281e-21
3.599499673e-22
5.798928981e-22
4.974151206e-21
1.096177486e-20
2.212904689e-21
4.674841523e-22
1.72120078e-21
2.458321727e-21
1.106830389e-20
8.163126088e-21
3.378688467e-21
3.808524777e-21
1.015815828e-21
5.410035969e-21
4.223134432e-22
5.527034021e-21
6.92748632e-21
2.541857672e-21
1.174774992e-21
5.886768457e-22
1.084248047e-20
1.135637477e-21
1.281860768e-20
6.468312645e-21
1.447737685e-21
2.435003377e-21
1.509712186e-20
4.108800401e-21
3.648474695e-21
2.689901769e-21
1.866560911e-21
2.733886859e-22
6.477601617e-21
1.21187914e-20
1.085672958e-20
8.249862388e-22
1.168730928e-21
2.263666435e-21
1.34082394e-20
6.561709887e-21
7.598415454e-21
1.846654954e-21
1.588443521e-21
4.012541761e-21
3.327526162e-22
3.766376332e-21
7.261801077e-21
1.232920078e-21
1.024574582e-21
2.277375819e-21
5.689998971e-21
6.977798877e-21
1.273465236e-21
1.07787611e-21
9.739845367e-22
4.189687421e-21
1.38031104e-21
2.018332333e-21
6.698886269e-21
5.554317029e-22
3.020617637e-22
4.53525326e-21
8.264492183e-21
5.573279275e-21
8.48115091e-21
1.405109155e-20
1.209572516e-21
5.53363761e-22
4.663159021e-21
3.904351952e-21
1.103740075e-20
4.925663488e-21
6.157839682e-21
4.983014126e-21
1.1865767e-20
7.643681623e-21
5.003964972e-22
8.341840381e-21
1.705705882e-21
2.110940816e-21
9.873496288e-22
4.280935253e-21
3.178260545e-21
8.606205625e-21
8.996091456e-21
1.284689305e-20
6.363640825e-21
2.844873788e-21
3.216579183e-21
2.198283543e-22
2.092830459e-21
4.397281384e-21
1.48086896e-21
2.143088307e-22
4.183904778e-21
1.695540393e-21
7.239410955e-21
4.058919887e-21
1.02511184e-20
5.873563228e-21
2.183978715e-21
5.492886071e-21
2.209396132e-22
1.162894304e-20
3.535161352e-21
2.510832573e-21
6.958210462e-21
2.815363413e-21
1.086872483e-21
3.408132576e-21
7.062171002e-22
1.471044747e-20
5.581423574e-22
1.781628558e-20
9.455442906e-21
1.613145981e-23
3.833607707e-21
2.585129057e-21
3.354095553e-21
2.184651909e-21
2.041800693e-21
4.979968817e-21
5.579019443e-21
1.887908614e-21
6.195099497e-21
2.738166661e-21
1.107064206e-21
5.415709198e-21
1.322432491e-21
2.903831213e-22
9.987653619e-22
1.122642776e-20
4.179353369e-21
4.204400449e-22
8.889798397e-21
2.184482645e-22
5.000711797e-22
4.789438227e-21
2.731874444e-21
4.608208857e-22
5.643527152e-21
5.443129523e-21
8.837339739e-23
5.687580736e-21
7.10968611e-21
8.902233838e-21
5.554247737e-21
1.022939918e-20
8.494504708e-22
5.060703882e-22
4.130505439e-23
1.567201191e-21
1.334120566e-21
4.379106271e-21
5.942708069e-21
1.536398654e-21
4.188833908e-21
2.010669798e-21
3.640442728e-21
4.067985555e-21
1.504077547e-22
4.904993956e-21
1.893852972e-20
1.286214937e-21
3.559806941e-22
1.301183722e-21
1.563039137e-20
1.159144237e-20
1.890401244e-21
6.037213249e-21
3.526805078e-21
3.291641855e-21
5.857373503e-21
4.187072822e-21
7.271212812e-22
1.008862173e-21
2.803599392e-21
1.035710681e-20
2.687197805e-21
7.031687023e-21
2.250547811e-21
3.228122092e-21
3.972761858e-21
1.286888055e-20
1.230744615e-21
3.300291094e-21
4.716502861e-23
4.249678886e-21
6.139113031e-22
2.050786246e-21
8.817259629e-21
3.232733324e-22
1.639726285e-20
1.114504655e-22
3.291157991e-21
5.530454189e-21
4.544147322e-21
3.895533224e-21
5.806748291e-21
4.005041816e-21
6.545694663e-22
3.645066221e-21
1.529382479e-20
2.928509313e-21
1.108093056e-21
1.157742867e-21
9.271298472e-22
6.504403061e-21
1.017864334e-22
3.237153353e-21
1.034699623e-20
1.202182383e-23
1.022994497e-21
8.604024358e-21
1.286825177e-20
1.12376449e-21
6.693117474e-21
8.598906888e-21
6.138524536e-22
4.848143164e-21
1.5557869e-20
2.627110888e-21
9.778275058e-22
1.105226041e-21
9.346560438e-21
2.910872603e-21
3.747025829e-21
5.562774458e-21
3.9229123e-21
1.069202443e-20
1.35964963e-22
5.333311614e-21
3.00448002e-21
1.142609309e-21
1.379588436e-20
2.634095913e-22
7.880522249e-25
9.35154581e-21
3.283113106e-21
6.760496034e-22
3.514024709e-21
7.505199671e-21
2.17754049e-21
3.706282615e-21
2.278151756e-21
5.597386133e-21
2.260975455e-21
1.349521807e-20
5.908358428e-21
8.84273865e-21
9.479515669e-21
1.269657144e-20
7.792721672e-21
1.144979674e-20
1.697048055e-21
8.962339559e-21
5.578573929e-21
2.185762321e-21
5.355428786e-21
7.525908777e-21
1.448605645e-21
1.18687192e-20
1.467369027e-20
7.592154607e-21
2.921658333e-21
1.486343612e-21
8.01598005e-21
5.831642277e-21
1.151226535e-20
2.2317049e-20
9.624135675e-21
1.305541883e-21
1.076172541e-20
2.696739454e-21
3.32426305e-21
1.026633814e-20
3.826518599e-21
8.09078392e-23
7.183060304e-21
6.571023301e-21
5.807764595e-22
6.04320658e-21
8.279749437e-21
3.371166005e-21
4.646476678e-21
1.28934808e-20
3.632125254e-21
2.127437622e-21
5.097223112e-21
2.320972096e-21
2.096947972e-21
4.889693138e-21
2.051269826e-21
2.313172447e-21
2.067094342e-20
6.021786305e-21
2.521932191e-22
6.343891929e-21
5.193023042e-21
7.289036201e-21
4.542845768e-21
1.834371434e-21
4.606623549e-22
9.182419932e-22
5.356326586e-22
1.864087941e-21
1.086132766e-20
5.475605837e-21
1.800322938e-21
7.198013826e-23
4.691818028e-21
9.889928739e-22
1.277773402e-20
3.671807995e-21
1.004470079e-20
1.349742301e-23
3.750832835e-22
2.665521185e-21
3.807402362e-21
1.294374755e-20
5.35850916e-21
1.102989991e-20
3.469265535e-22
6.188809758e-21
5.539355862e-21
1.132573398e-21
4.454509456e-22
6.479066426e-22
4.980668438e-21
2.588319288e-21
2.382814005e-21
6.733994578e-22
1.635612594e-21
4.706647483e-21
6.773918984e-21
8.593309252e-21
9.104872109e-21
2.392955472e-21
4.699731727e-21
1.808342344e-20
1.11392933e-20
3.900183956e-22
6.189097083e-21
5.766279121e-21
4.409095583e-22
8.228346018e-22
4.700506462e-21
5.569627268e-21
1.071371639e-21
1.840040555e-21
7.079143492e-21
1.834598323e-22
6.111525039e-21
3.343888064e-21
1.371087491e-20
7.653781483e-22
1.294992519e-20
2.166483011e-21
2.31530479e-21
5.410908802e-21
4.786302446e-21
1.980910094e-21
1.885576952e-20
3.029189834e-21
2.531556367e-21
5.668028072e-22
1.308509259e-21
7.047165992e-22
1.05460823e-21
1.246661109e-20
4.244612453e-21
3.363326458e-21
6.81429513e-21
2.092326774e-21
1.113343715e-20
6.251108983e-22
4.045342525e-21
3.160587942e-21
9.94102147e-21
4.791072824e-21
6.012230798e-21
1.862780065e-20
3.617942413e-21
2.470397632e-21
1.431757211e-20
7.103707553e-21
7.415444241e-21
5.864492385e-23
5.193638829e-21
3.698187928e-21
4.415233634e-21
1.579041547e-21
4.514785133e-22
5.519183607e-21
4.822468752e-21
7.684892192e-21
5.950216964e-21
2.382096479e-21
1.571658427e-20
1.304424479e-21
9.86424757e-21
8.297582718e-21
7.798757821e-21
1.25181401e-20
1.304153991e-21
1.428486111e-21
6.059285707e-23
2.565221486e-22
2.779607997e-21
6.558650037e-21
6.030934886e-21
1.447580614e-21
3.173748748e-21
5.133693257e-21
2.928299956e-21
1.65213117e-20
4.157105603e-21
4.328506136e-21
7.360554251e-21
2.286505245e-21
7.888916999e-23
9.272251609e-21
2.351996714e-21
5.512771141e-22
1.115245718e-21
1.000281821e-20
6.310681551e-21
4.939436449e-21
1.0217984e-20
6.179652261e-21
3.793584764e-23
4.226833338e-21
2.157683303e-21
4.448852351e-21
3.856815801e-21
2.727722374e-21
9.617472516e-21
2.013692587e-21
2.249434207e-21
3.832490521e-21
6.622798637e-22
5.066112962e-22
5.514421813e-21
2.526698733e-21
1.499679133e-22
1.888270476e-22
8.83906397e-21
8.605962197e-21
6.987036045e-22
1.575779244e-21
6.007309123e-22
8.996147618e-22
4.978148115e-21
5.239052095e-21
1.170147716e-20
2.122827505e-20
4.78895135e-21
4.941616534e-21
7.262477013e-21
8.145674209e-22
3.125305554e-21
1.104259611e-20
1.37214048e-21
4.783895184e-21
2.609551609e-21
1.574359518e-20
5.009948819e-22
5.412574554e-22
9.931962016e-22
7.296330016e-21
2.190714029e-22
1.651530103e-20
1.505903443e-21
3.9012584e-21
2.893654941e-21
1.271888425e-21
4.63393274e-22
9.339303546e-21
7.197990696e-21
1.141023442e-21
2.799255161e-21
4.21298845e-21
2.503309165e-21
2.498629914e-21
3.392634189e-21
4.364106698e-21
1.110386189e-20
2.070594465e-22
1.604321096e-20
2.560920121e-20
8.893328475e-21
5.457325115e-21
6.852226701e-22
7.419539635e-22
3.661709999e-22
1.922961675e-21
5.336763882e-21
2.173507167e-20
4.78152879e-23
1.106657372e-20
4.24804286e-21
1.237524252e-20
1.634295553e-20
5.500544672e-21
5.116299507e-22
1.397934679e-20
6.376887934e-21
7.137152032e-21
1.834499166e-21
1.883327926e-21
5.696636921e-22
9.31307235e-21
4.445539635e-21
1.295329135e-21
8.901955589e-21
3.316807269e-21
1.160205048e-21
4.313569943e-21
3.203285466e-21
8.247114757e-21
2.87852664e-21
2.429864501e-21
1.854750887e-21
3.443216904e-21
1.090270335e-20
3.034549053e-21
2.342427825e-21
3.578262988e-21
7.882099042e-21
1.682990451e-20
1.225420557e-20
9.309346755e-22
1.284484862e-20
5.669287117e-21
3.197552362e-22
4.300432285e-22
4.839789035e-21
3.781655027e-22
8.924089596e-21
4.529706178e-22
3.948822202e-21
1.103619713e-22
2.580973889e-21
3.346185801e-21
4.444884528e-22
6.593490779e-21
4.854035968e-21
4.295506987e-21
1.624378818e-20
1.889737932e-22
2.184387024e-21
2.194277619e-21
6.290406414e-21
2.261301652e-21
2.223843696e-21
1.222966387e-22
3.446275003e-21
7.246483342e-21
3.136093027e-21
4.499009394e-21
1.021007254e-20
1.243117844e-20
2.083209929e-21
4.82920777e-21
4.498077621e-22
6.657865741e-22
2.495152049e-21
3.159323756e-21
4.569299048e-21
1.081133002e-21
1.643426174e-21
2.009089452e-20
8.387807815e-21
1.817843618e-21
3.044747277e-22
1.630016199e-21
3.037975814e-20
4.058550161e-22
2.102569081e-20
1.332442525e-21
5.900451568e-21
4.762881645e-22
3.778485824e-21
1.432064109e-21
2.589067264e-20
3.027225362e-21
2.283204655e-21
3.130275871e-22
3.207845599e-21
5.142621056e-22
1.480051338e-21
3.128022834e-21
1.920570983e-22
7.743924871e-22
6.19723832e-22
3.046645191e-21
5.094151242e-21
1.034611134e-21
1.729500955e-21
6.051882183e-21
2.036278953e-21
1.05072856e-21
8.201710885e-23
2.677617822e-21
7.959923748e-21
4.647931304e-22
8.433093185e-21
2.322018596e-21
8.112128979e-23
6.714397928e-21
1.79661247e-21
1.42113711e-20
3.322643214e-21
2.782847669e-21
3.111158192e-21
1.676645781e-20
4.714480729e-21
1.66086686e-21
4.688993472e-23
3.910601054e-21
6.966513099e-21
5.462578595e-21
3.432948359e-21
5.914823516e-21
1.10040154e-20
1.198336699e-20
4.492791107e-22
4.721177296e-21
2.431190047e-21
1.074648714e-20
3.218348824e-21
1.152761794e-21
1.203094114e-21
6.758294367e-21
9.841068384e-21
5.674486835e-21
1.065194262e-20
4.532268029e-21
1.065087813e-21
1.769244175e-22
2.230029667e-21
1.371758377e-21
2.703013841e-21
2.875394898e-20
4.004717925e-22
1.723043924e-20
2.407144202e-21
9.454710902e-21
1.24823425e-20
9.6632287e-21
1.092192901e-21
4.309811357e-22
7.43698618e-21
7.503070908e-22
1.706512387e-21
1.497644154e-20
1.777509048e-21
3.58763647e-21
6.153611362e-21
1.984568037e-20
8.314708099e-21
4.074277394e-22
1.208802364e-21
4.317563137e-22
1.418595198e-21
3.144170013e-22
3.006359744e-21
2.639943404e-21
5.763324998e-21
1.023366241e-21
3.176998357e-21
7.668237238e-21
1.62542433e-22
5.428380131e-21
1.056145554e-21
2.836901636e-21
1.160246897e-20
1.794773232e-21
3.694966397e-21
7.829895207e-21
1.50012452e-21
2.057157411e-20
2.966269251e-22
1.010804092e-21
2.096766976e-21
3.923237719e-22
4.959696191e-21
6.490977253e-21
4.795362339e-21
1.913400331e-21
7.602625486e-21
2.072558246e-21
8.906284569e-21
1.802264242e-21
1.299468254e-21
1.974480586e-20
1.772556597e-21
6.506100913e-22
4.642264343e-21
2.735099333e-21
1.916657373e-20
2.425989599e-21
4.790937785e-21
9.539979007e-21
3.169087261e-21
1.932896706e-21
1.550772391e-21
1.066610311e-20
9.595327105e-23
5.62486783e-21
2.056481534e-21
5.808365539e-21
2.281919677e-21
4.477524893e-21
2.074576481e-22
2.628794566e-21
4.923947277e-21
1.226313065e-20
4.121918428e-21
5.020528313e-21
2.131229622e-21
5.043061767e-21
2.956405361e-20
2.044975238e-22
1.004117219e-20
7.5111026e-22
8.505276355e-22
1.580419947e-21
1.178625648e-21
6.180086408e-21
4.780540255e-22
1.990882258e-20
2.680908531e-21
6.094009968e-22
1.282875082e-20
3.294631317e-22
1.312060328e-21
5.903517365e-21
4.465731321e-21
2.345225865e-21
8.13109344e-22
4.836898707e-21
6.386249119e-22
3.819833537e-21
2.251655053e-21
2.449647379e-21
8.323519741e-21
9.090251356e-22
2.43574728e-21
1.526093893e-22
7.820656457e-21
7.530469948e-21
4.111289819e-21
5.447256487e-21
1.116237888e-21
3.821244888e-21
1.390372384e-21
1.174035002e-21
1.113782417e-21
4.714565554e-21
6.18850049e-21
1.688219146e-22
3.146115555e-21
4.157962314e-21
7.731545348e-22
2.61071176e-21
6.425621088e-21
2.862276844e-21
6.996300668e-21
8.367833442e-22
1.883042897e-22
4.483193507e-21
2.671195974e-21
8.341027332e-21
9.173340413e-21
5.196867355e-21
2.466769667e-21
7.140437748e-21
3.744886997e-21
3.960752055e-21
1.110511608e-21
6.106940736e-21
1.190208893e-21
3.950366169e-21
4.258330292e-21
4.430956064e-21
8.206539706e-21
3.464673252e-21
6.79816789e-21
5.58401426e-23
1.016455274e-21
2.142101158e-22
3.899210684e-23
1.912131322e-21
1.217793374e-20
1.335976895e-21
3.827644559e-21
1.427570382e-20
5.44718835e-21
3.661191786e-21
1.669582296e-21
5.765412162e-21
8.20915967e-21
3.981326636e-21
6.139510917e-21
9.22990473e-22
2.614402906e-21
6.03578569e-21
4.98357508e-21
2.651814722e-21
1.106624233e-22
1.402431689e-20
3.03842398e-22
1.026363474e-22
5.556895179e-21
3.486178667e-21
6.148173287e-21
4.462873104e-21
1.253104158e-21
2.114609926e-20
8.699446034e-22
2.851343311e-20
9.712359352e-21
1.230162223e-20
9.683111274e-21
6.669574839e-21
4.273882888e-21
2.062394855e-22
5.192426345e-22
7.930791802e-21
3.443198541e-22
1.923977135e-22
2.934485737e-21
7.880361062e-21
2.080820849e-21
1.670462896e-21
4.577039954e-21
6.187249355e-21
3.159683926e-21
4.470319221e-22
3.245996281e-21
3.606996779e-22
2.458383107e-21
2.843050473e-20
5.030722353e-21
5.88228661e-21
6.355353606e-22
1.027889824e-21
2.513652745e-21
1.234194879e-21
1.118824786e-20
4.795373286e-23
2.08267779e-21
1.026596764e-20
1.728762954e-20
5.378796435e-21
8.991098462e-22
1.525031842e-20
5.19134501e-21
1.875716616e-21
1.882723399e-21
6.393365569e-21
1.290718931e-21
6.351945215e-21
1.31297589e-20
2.085681526e-21
3.108019399e-21
2.902929477e-21
5.321715168e-21
1.042719318e-20
2.795036143e-22
3.491345477e-21
2.573227034e-21
7.598021258e-21
1.994059321e-21
1.602107471e-20
2.266440499e-21
2.320732965e-21
1.216763414e-20
3.682162815e-22
1.411344083e-21
1.341230505e-21
2.360883273e-21
7.792585738e-21
7.624110169e-21
1.64493749e-21
6.730670108e-22
5.334411566e-21
9.389400398e-22
1.265997164e-20
8.553786811e-21
6.177585004e-22
9.275142926e-22
4.771355585e-21
1.40099734e-21
1.069014695e-21
4.891418198e-21
2.088163676e-20
8.023097816e-22
2.26822076e-21
8.905381498e-22
8.234610542e-22
4.684207037e-21
6.116621577e-21
1.075877303e-20
1.915726318e-21
2.057374357e-20
2.872980388e-21
5.16633108e-21
4.681559158e-21
1.554873871e-21
1.847508349e-20
4.819413777e-21
9.208090125e-21