/*--------------------------------*- C++ -*----------------------------------*\
  =========                 |
  \\      /  F ield         | OpenFOAM: The Open Source CFD Toolbox
   \\    /   O peration     | Website:  https://openfoam.org
    \\  /    A nd           | Version:  7
     \\/     M anipulation  |
\*---------------------------------------------------------------------------*/
FoamFile
{
    version     2.0;
    format      ascii;
    class       scalarField;
    location    "0.009/lagrangian/dsmc";
    object      Ei;
}
// * * * * * * * * * * * * * * * * * * * * * * * * * * * * * * * * * * * * * //


6907
(
6.692536011e-21
1.276268178e-22
6.806225359e-21
1.708870972e-20
3.655149411e-21
1.147356558e-20
1.109759629e-20
4.971921926e-21
5.617133543e-21
1.136552885e-20
3.274805912e-20
1.777000747e-22
5.481632353e-21
4.49790913e-21
1.307437171e-21
2.833783613e-20
4.488567988e-21
1.259937448e-21
2.998800169e-21
2.350237095e-21
5.31353247e-21
7.66880083e-21
2.119606774e-20
1.333777067e-20
3.656278231e-21
2.516749846e-21
9.257092e-21
9.754235712e-21
2.023452352e-21
2.122284339e-20
5.68349414e-21
1.119554453e-20
2.201400485e-21
1.491317657e-20
4.121882926e-22
5.048955582e-21
4.986695432e-21
5.626880469e-21
9.68567342e-21
3.357525842e-21
3.820239695e-21
6.74329905e-21
2.111751203e-20
3.652027019e-21
2.899259668e-21
9.8732996e-22
1.303527623e-20
4.022787553e-21
3.863909133e-20
1.489872029e-20
1.207216157e-20
8.265757707e-22
3.378877922e-21
1.007358922e-20
1.004989212e-20
2.323068036e-20
2.032469496e-20
1.589788781e-20
1.221294929e-21
4.487082226e-21
3.115619434e-21
5.312968007e-22
9.415664039e-21
1.312084972e-21
2.81541668e-21
9.582862593e-21
4.916324973e-21
1.384610008e-20
2.48696657e-20
2.39294201e-22
4.727419028e-21
7.316133527e-21
5.745761421e-21
1.032728007e-20
1.337057589e-20
2.400125349e-20
3.595052001e-21
1.275422549e-21
1.889072576e-20
7.025812964e-23
7.895753661e-21
2.592758078e-20
2.73984171e-21
9.987795058e-21
3.75099202e-21
3.923855547e-21
1.352230744e-20
2.079793285e-21
1.001641523e-21
3.994785638e-20
1.351074601e-20
1.24619992e-21
7.460758773e-21
1.645159065e-21
3.022092495e-20
2.637373767e-20
2.477957047e-21
7.077428346e-21
7.323716197e-21
9.282582117e-21
2.2730436e-20
1.956269575e-21
1.598080142e-20
1.121571853e-20
1.359233362e-20
2.477149619e-21
3.835368626e-20
7.206088526e-21
2.041124729e-21
5.831948525e-21
4.846747047e-22
4.846402397e-20
1.64802661e-20
4.93237314e-21
1.43434664e-20
1.017915068e-20
2.762928145e-20
1.092595528e-21
2.704663217e-21
3.005150302e-20
1.380336924e-20
7.892561436e-21
6.21398235e-21
1.038115345e-20
6.973113452e-21
3.812104541e-20
6.994142358e-20
1.455727326e-20
1.570222545e-20
1.014309986e-21
2.696199635e-20
1.050043847e-21
3.863988927e-20
1.663113106e-21
6.696465495e-22
6.909148837e-21
3.9028013e-20
1.183008691e-21
3.774867485e-21
2.187014898e-21
8.020513942e-22
2.916259161e-20
4.492769382e-22
4.066686504e-21
9.638270502e-22
1.615804569e-20
4.922512544e-21
1.788048449e-21
8.514803194e-22
9.491751163e-21
5.56476014e-21
1.097211067e-20
2.371353637e-21
2.964153456e-22
2.893821544e-21
1.579029587e-22
1.217180415e-22
2.766150453e-21
3.07323078e-20
2.05515326e-21
2.54108153e-21
1.510767466e-20
3.15814892e-21
4.115140686e-20
2.173957428e-21
9.600141919e-21
1.497636279e-20
3.922208463e-21
4.873901377e-21
2.284034824e-20
3.543751591e-20
4.46036604e-22
1.705611627e-20
9.490932482e-20
2.718968222e-20
2.393197465e-21
1.937438419e-20
2.596280679e-21
5.092798625e-20
1.471130556e-21
2.389035487e-20
3.095126161e-21
3.324123642e-20
1.073093411e-20
1.510280678e-20
2.998270148e-20
4.056662363e-20
6.306141893e-21
2.701169727e-21
8.180980635e-21
7.989087932e-21
1.818384367e-20
1.945246304e-21
1.813889662e-21
6.567501736e-21
1.215959094e-20
4.852638785e-21
5.234268262e-21
1.30545411e-20
1.140845464e-20
9.173675245e-22
1.85851122e-20
9.806640031e-21
1.892582257e-20
1.12598948e-21
8.677136804e-21
4.448757329e-21
4.332883785e-21
2.200038335e-21
8.44831211e-21
3.183711746e-21
2.133862349e-21
1.432059475e-20
1.504378174e-20
1.160183294e-20
5.082812332e-21
1.121283406e-20
2.619879644e-21
1.402062735e-20
2.734942718e-21
2.09461774e-20
2.337855352e-21
4.417956535e-20
1.35262042e-20
3.104094588e-21
2.793091698e-21
2.330107328e-20
1.88795989e-20
1.599983648e-20
3.508195695e-20
5.44707558e-21
5.31952944e-21
1.753798192e-22
1.2018315e-21
6.1796981e-21
4.59937694e-21
2.524555192e-21
1.602086975e-20
5.460748402e-21
5.485675803e-21
4.002466095e-21
4.15241688e-22
3.162589138e-21
9.494698255e-22
4.699212348e-21
7.179165754e-22
8.97039206e-21
4.133282199e-21
9.08353619e-21
1.017711311e-20
9.671789522e-22
8.392279619e-23
1.322025363e-20
4.563804528e-21
3.361160944e-21
1.137927411e-20
1.651378563e-20
4.042074163e-20
2.040286684e-20
4.830768419e-21
5.06357822e-21
1.082302796e-20
1.468829128e-21
8.998232929e-22
8.390786538e-21
3.016780062e-22
5.576735622e-21
6.916845732e-21
1.543630318e-21
8.334594767e-22
2.004519387e-21
1.651241337e-20
2.205055863e-20
4.197942193e-21
2.954113318e-20
1.403242591e-20
2.24608599e-21
6.20221253e-21
1.936799032e-21
2.27594035e-20
1.389111179e-20
2.91848483e-20
7.968075771e-21
7.995963256e-21
5.977208599e-21
3.227629466e-21
7.095389415e-21
4.299342092e-20
1.755647431e-22
6.976219425e-21
6.621585346e-20
3.109872729e-20
5.527141076e-22
2.472321282e-20
1.484110996e-20
2.186679477e-20
1.630669499e-20
4.520805601e-22
1.220826055e-20
2.264927936e-20
3.473001094e-22
2.477253308e-21
1.314572677e-20
3.272163544e-21
1.043054749e-21
1.091349124e-20
1.865451475e-22
2.917470279e-21
2.500971339e-21
1.908639222e-20
2.195652765e-21
6.855820957e-21
1.247500808e-20
2.234331615e-20
3.775133442e-22
1.531295393e-20
2.443602541e-20
1.450056922e-21
2.043966409e-21
3.004003002e-21
8.575136167e-21
1.048281754e-20
7.321184327e-21
5.645255917e-21
1.690605005e-20
3.413672544e-21
9.035119892e-21
2.526690508e-22
3.421555997e-22
1.116197844e-20
2.750359983e-21
1.072552769e-20
1.389330904e-21
9.104505116e-21
4.858026653e-21
1.132402383e-20
3.291207493e-20
2.252370451e-20
5.380129758e-21
1.153643157e-22
2.471720333e-20
2.670438156e-22
2.494482936e-20
2.23658947e-22
1.88385075e-20
3.784911114e-21
7.214532018e-21
2.673205018e-20
5.33419759e-21
1.895837896e-21
1.137405129e-21
8.352299412e-22
7.080750211e-21
1.956981468e-21
1.49124512e-20
1.748891715e-21
5.878571159e-21
3.299349906e-21
9.655361114e-21
1.685992909e-20
3.386646613e-20
3.105521229e-21
6.725304524e-21
3.086178258e-21
1.010497406e-21
4.311334117e-22
3.898598174e-21
3.60293665e-21
4.794400412e-21
6.972827724e-21
1.377411595e-20
8.550435101e-21
7.857994738e-21
1.206435987e-20
8.377721124e-22
1.811158586e-20
6.063283535e-22
4.574206881e-21
3.533042483e-21
3.787892575e-21
2.141962435e-20
3.760395238e-20
2.024498588e-20
1.904434646e-20
1.748631474e-21
1.211481136e-20
1.185497795e-20
5.884484954e-21
4.696070378e-21
5.411225251e-21
3.437480096e-21
1.477617697e-20
1.083018562e-20
2.511755007e-21
2.47232511e-21
5.251092837e-21
5.786145855e-21
4.288491436e-20
7.190032587e-22
2.346811601e-22
3.023127491e-21
7.42977955e-21
5.219677432e-21
1.441273744e-20
7.61183977e-21
6.93550857e-22
3.022302793e-22
4.535024479e-21
2.369806437e-20
1.000106993e-20
8.79360967e-22
3.890642969e-20
2.651236854e-21
3.262441174e-22
1.69782013e-20
2.545104433e-21
2.075502717e-21
2.418488119e-21
8.466780719e-21
7.605850952e-22
1.426001994e-22
2.554042363e-21
1.212185973e-20
1.07626654e-20
1.62590551e-21
7.185982321e-21
1.072381769e-21
4.036433104e-22
1.246576189e-20
2.225053222e-21
2.65357013e-20
3.636437085e-22
4.950113943e-21
4.854526215e-21
1.177880741e-20
1.33113723e-20
5.22167152e-21
6.544812648e-21
1.007734392e-20
1.810583848e-22
6.039399318e-20
7.404023e-21
1.051079998e-20
1.847919542e-20
1.696788033e-20
5.569899189e-21
6.804390369e-21
1.424938223e-20
6.327846782e-22
4.495329221e-21
6.880765559e-21
1.634540831e-20
2.245524195e-20
3.045430285e-22
5.849040681e-21
5.782049255e-21
6.591977274e-21
1.715695433e-20
3.262153463e-22
1.908877527e-21
1.59411833e-20
5.600724303e-21
5.99906096e-20
2.366042383e-21
7.342810808e-22
3.029288634e-21
1.48903787e-21
5.976410491e-21
8.439728152e-22
2.910540678e-21
3.574822609e-21
3.981314249e-21
6.275722545e-21
1.522458927e-20
3.275137145e-21
6.195529182e-22
6.268479353e-22
2.2622002e-22
4.699694802e-21
3.236107319e-21
4.64319245e-21
1.671149488e-21
3.315495932e-21
1.309341976e-20
6.060644124e-21
7.992275089e-22
2.234482295e-20
8.452522838e-21
2.380411321e-20
3.245833974e-21
6.079189709e-21
5.264609267e-22
1.715995072e-20
6.909807459e-23
6.650900903e-22
1.656829213e-22
2.33207051e-21
2.106412978e-21
4.941842627e-21
3.878186816e-21
4.529978493e-21
6.023450571e-21
7.057304394e-21
1.547685176e-20
2.850224818e-22
4.113466036e-21
7.033423476e-21
7.358018859e-21
1.008143774e-22
8.757827743e-21
4.259237171e-21
8.270815249e-21
2.043843176e-21
1.4398536e-20
1.935190713e-21
9.204321651e-22
4.064290753e-21
3.02164922e-21
2.310784022e-20
5.892654177e-21
1.815513702e-21
1.528286571e-21
2.118029497e-20
2.596352988e-21
6.466408389e-21
4.300201646e-21
1.040457493e-20
1.240306728e-21
8.937727925e-22
6.58801325e-21
1.570842929e-22
3.381146017e-21
9.07450785e-21
6.160426882e-21
4.355999656e-20
4.688197542e-21
7.557025005e-22
8.591421283e-21
3.787752033e-21
2.105868954e-22
1.059518427e-21
3.990190533e-22
5.497169038e-22
1.575559875e-21
1.270520826e-21
4.553227341e-22
3.746067248e-21
1.670963174e-20
9.463589824e-23
1.001788526e-20
7.944259331e-21
3.575027401e-20
8.496163658e-21
1.511680449e-21
4.422550367e-20
1.419910822e-20
6.989717154e-22
2.165635073e-21
1.648849853e-20
1.032105314e-20
1.330574017e-21
6.124827172e-20
3.595045238e-21
2.756656702e-20
1.062145477e-21
3.326672017e-21
9.104576662e-21
4.538303885e-21
4.067373272e-20
4.312943615e-21
3.745537013e-21
9.170335316e-22
9.106670309e-21
1.942778632e-21
1.298623843e-21
9.314760593e-22
9.983078746e-22
1.0960873e-20
2.451793616e-21
4.014442037e-21
2.111423737e-21
3.250458338e-21
1.917507077e-21
2.158995859e-21
2.782467252e-21
9.620509547e-21
1.476778811e-21
1.32670723e-20
1.492984333e-21
7.140555502e-21
3.143729326e-21
1.80789407e-20
2.699374532e-20
1.175481456e-20
2.930573207e-21
6.702443301e-22
1.6057558e-21
5.703517576e-21
1.524991199e-21
1.79946366e-21
5.31338357e-21
1.443351486e-20
2.565267093e-21
4.328045125e-21
2.687050778e-21
7.619601909e-21
7.557065997e-21
1.540400514e-22
5.359284518e-22
1.650427504e-21
3.431085021e-21
2.182466022e-21
9.751682567e-21
2.515703986e-21
1.088009066e-20
8.524605399e-21
3.905012947e-21
9.674329981e-22
1.488216533e-21
8.832618799e-21
2.174344643e-21
8.259674294e-21
3.642299646e-21
5.821778624e-21
8.12608439e-22
2.891149308e-22
1.371436736e-21
1.04332024e-21
5.649129144e-21
3.052205097e-21
6.137488623e-21
1.167703065e-21
1.418095151e-21
1.920187189e-21
6.79637816e-22
9.555859819e-22
9.860169174e-21
9.702246173e-21
5.209134821e-21
1.132738745e-21
2.004850545e-21
5.58932344e-21
1.319654012e-20
1.049755835e-21
2.512214249e-20
2.91896463e-21
8.268131791e-22
6.390327374e-21
4.258461076e-22
1.814512329e-21
6.537804525e-21
7.676547004e-24
3.088294131e-21
1.840475284e-21
7.075049839e-22
1.686074242e-21
1.631908576e-20
8.673681329e-22
3.944587177e-20
1.261304253e-21
1.171320707e-20
6.128193296e-22
9.942780547e-21
1.137281818e-21
1.807313731e-21
3.905361077e-21
3.839230646e-21
6.553172158e-21
3.471262745e-21
1.966098613e-21
1.43929608e-21
5.057977355e-22
6.625163339e-21
8.29422175e-22
1.715684194e-21
2.962197784e-21
2.704904312e-22
4.800272638e-24
2.862988809e-21
1.19571779e-21
6.180004288e-21
1.124681216e-20
4.816273482e-21
5.803417729e-21
8.245899758e-21
8.601286289e-22
9.215293024e-21
1.129692035e-21
9.495409499e-21
2.016642613e-20
2.94402703e-22
2.379102954e-21
1.50018701e-22
4.853057502e-20
6.107083283e-22
3.115375773e-21
1.142546468e-20
2.334152918e-21
8.963568777e-21
2.3617566e-21
1.31823191e-20
4.275026462e-21
2.144067118e-21
1.118072839e-21
6.164014331e-22
3.755872312e-20
4.590363071e-22
4.308257346e-21
7.928034147e-21
9.906539799e-21
2.039568067e-21
1.233686846e-21
2.922734967e-22
1.462970452e-20
1.727333994e-21
1.086905254e-20
5.652401108e-21
7.354597502e-21
1.019185357e-21
1.862309777e-23
5.110253774e-21
3.499290284e-20
3.809083427e-21
3.841318551e-21
2.888002205e-20
8.517125627e-21
6.027752354e-21
2.942161042e-21
2.294734791e-20
1.16191799e-20
4.919357869e-21
9.312247473e-22
5.045917404e-21
9.389783754e-20
1.925296148e-21
2.016790808e-20
8.641036157e-21
1.082193603e-21
1.223431545e-20
9.496459655e-21
1.554552021e-20
2.94409921e-20
1.888539627e-21
4.050715769e-21
3.083482131e-21
8.691224203e-22
4.322535812e-21
8.62903348e-21
8.884230946e-22
8.722354165e-22
1.033847908e-20
1.66719304e-21
6.649800683e-21
3.0226858e-20
8.098029131e-21
4.081501839e-21
1.286244921e-21
7.332329683e-21
2.785765099e-21
1.127825738e-21
3.636636195e-21
2.62317402e-21
2.659405587e-21
4.202726545e-21
6.813566073e-21
7.082825006e-25
5.548755846e-21
6.88226893e-21
2.169652787e-20
1.877899261e-21
8.679572018e-23
6.187119806e-21
1.409546086e-21
7.311318079e-21
1.738954211e-21
5.1766654e-22
1.100029983e-20
4.619218589e-23
1.021491259e-21
1.459747146e-21
2.342213011e-20
4.535630399e-20
1.679936817e-20
2.187048116e-21
5.298330994e-21
8.886577856e-21
2.542479842e-21
4.179476871e-21
2.178188382e-20
8.921268756e-21
5.443286886e-21
3.417837562e-21
1.087907839e-21
5.72691043e-22
7.813307882e-21
3.869778372e-22
1.93803088e-20
5.453118799e-21
3.307801935e-21
3.739201886e-22
2.26211435e-20
1.85101342e-20
2.727151622e-21
6.587340667e-21
1.854909316e-21
1.841155721e-21
4.482092866e-22
7.65527716e-21
2.387144039e-21
2.691795081e-21
1.146527632e-20
9.049329979e-21
4.229600367e-21
5.461507671e-21
2.509686531e-20
5.239000648e-21
1.128393119e-20
5.286145726e-22
6.885639784e-22
7.391169611e-22
5.900469315e-21
1.666720364e-21
7.179745452e-22
5.818050807e-21
2.013606814e-21
1.50208602e-21
1.621097562e-22
1.655867025e-21
5.180535753e-21
2.632035635e-21
2.775187427e-21
7.97913303e-21
6.190099006e-21
3.539103242e-21
7.317867644e-21
4.849431681e-22
2.300279918e-21
2.795848822e-21
1.521397749e-22
2.716104927e-21
1.562036403e-21
2.467009095e-20
2.211604453e-20
1.250980191e-20
1.220269228e-20
5.945656629e-22
4.873200421e-21
1.819151706e-20
7.891706358e-22
1.958005293e-21
8.957727637e-21
9.385697642e-21
2.547629456e-20
5.108602976e-21
6.97278642e-21
1.086099709e-20
1.517705602e-21
1.125626465e-21
2.910761346e-20
2.257165837e-22
5.958699114e-21
2.608609314e-21
6.314291416e-20
2.585462763e-21
6.162943186e-21
4.688214173e-21
2.93670444e-21
1.454654805e-21
2.587857346e-21
3.886925488e-21
1.520299633e-20
7.765620667e-22
4.322722368e-21
7.302751971e-21
2.617320569e-22
8.459551604e-21
2.125948501e-20
1.798787916e-21
5.250829171e-22
5.466446087e-21
2.018853977e-21
2.620668294e-21
2.234878968e-21
6.346850914e-22
1.39843818e-20
2.602164012e-21
3.034502892e-21
8.098704708e-22
7.431918232e-21
4.051225798e-21
1.027382232e-20
2.989737109e-21
3.742855743e-23
9.539379829e-22
1.914977065e-21
8.621355362e-21
4.339002067e-21
8.315236108e-22
5.138201187e-21
2.161057016e-21
1.098082029e-21
2.451613394e-22
6.428676307e-21
4.627399374e-21
2.680351121e-21
1.802145152e-21
1.357447165e-22
1.483282148e-20
4.554161126e-22
2.346174925e-21
1.11327299e-21
9.801641774e-22
5.909609654e-21
2.181811323e-21
3.832128897e-21
4.03878199e-21
5.253895033e-20
7.921889141e-21
1.661659178e-20
5.124570945e-21
1.03344301e-21
8.622550154e-21
4.208527125e-21
2.694931167e-21
8.852881943e-21
1.827841756e-21
7.055571925e-21
6.592919045e-21
2.008605472e-20
1.382244535e-21
1.525526162e-20
4.277876694e-21
6.722496419e-22
8.729001637e-21
1.308000185e-21
5.95371721e-21
4.015704987e-21
1.83386888e-21
9.766656355e-22
6.058056094e-21
1.049111863e-21
1.98039814e-20
9.780902084e-22
5.169426878e-21
6.396389018e-21
2.137817333e-21
1.29664318e-21
9.019729546e-22
8.224123771e-22
9.299184329e-21
5.673787511e-22
2.428323325e-21
7.130747619e-22
3.728934373e-22
4.832709558e-21
5.048072006e-21
1.54148061e-21
3.235562216e-21
1.280277247e-21
2.840942409e-22
1.720456255e-21
3.270691243e-22
8.547619304e-21
2.861336447e-21
1.591087004e-21
6.329479517e-23
2.582323142e-21
9.754737168e-21
6.942839221e-21
5.75356699e-23
6.978045948e-21
1.654963276e-21
9.877585005e-22
3.729738505e-21
2.293800768e-21
1.605271781e-21
1.635731461e-21
1.082965455e-21
1.269760414e-21
1.978742315e-21
2.171225541e-21
5.769508115e-21
1.53855313e-22
1.28886723e-21
4.826762794e-21
1.461348197e-20
2.228058588e-20
3.679822586e-21
5.088324867e-21
1.087927629e-20
1.285573042e-20
2.560517898e-21
4.224423323e-22
7.908888628e-22
3.150070003e-21
1.578459753e-20
4.441235371e-21
1.453599357e-20
8.554922257e-22
6.06491941e-22
2.44336904e-21
3.671906521e-22
4.81075106e-21
1.255510967e-20
8.43679909e-21
8.635917308e-21
2.572822499e-21
6.279098161e-21
1.239780717e-21
3.256259699e-21
3.776281545e-21
1.435365503e-21
1.926502671e-21
1.195357724e-20
1.156713897e-20
2.028612908e-21
6.555006118e-21
2.695120711e-21
6.400748933e-21
1.120303174e-21
9.005938995e-23
1.161444139e-20
1.62222088e-21
1.081250682e-20
5.045727914e-21
9.895973254e-22
8.723941731e-21
2.922337644e-22
2.07977181e-21
6.815385927e-21
2.099835208e-21
7.818627936e-21
4.688997892e-21
9.329377479e-22
1.886613896e-21
1.127601724e-21
4.792329505e-21
3.324117978e-21
4.919349606e-22
1.058314891e-21
3.782864184e-21
2.364629035e-20
2.076114529e-21
2.501231965e-21
6.906422684e-22
3.555812113e-21
2.922086813e-21
4.716034086e-21
2.690181536e-21
1.032353929e-21
4.33595621e-21
1.048234871e-20
9.758963791e-21
9.99081004e-22
9.053191708e-22
1.176816925e-20
5.171102664e-21
4.261569963e-21
5.741760692e-21
1.539472547e-21
3.118714016e-22
5.488915267e-21
2.722948981e-21
1.681197588e-21
6.992733346e-23
1.982982246e-20
1.457419902e-20
7.144546955e-22
6.316217135e-21
4.16001218e-21
4.690898587e-21
6.638756191e-21
2.51749216e-21
1.108916537e-20
4.343749121e-22
3.821625687e-21
4.864743727e-21
2.340758946e-21
3.640951021e-21
3.459268275e-21
4.954308778e-21
8.253104375e-21
1.307182547e-21
6.977103538e-21
1.346061214e-21
6.452800921e-22
4.610088696e-22
1.015267505e-22
2.709353431e-21
2.548131333e-23
4.166601995e-21
3.089735213e-21
3.729467147e-21
1.204637032e-20
1.269679611e-21
6.673934576e-22
6.73978866e-21
1.485438112e-21
3.876532409e-22
2.195860496e-21
5.608539709e-21
1.463625873e-21
1.502842761e-21
2.59742904e-21
2.245352722e-21
9.308434602e-21
1.260275349e-20
2.273560744e-21
1.248636232e-21
1.419681941e-21
5.430118408e-22
1.091335733e-21
2.933784141e-21
3.309258339e-21
2.235622137e-21
1.34907117e-21
2.721745323e-21
9.094967341e-22
2.499909713e-21
4.996126397e-21
4.120720188e-21
5.284584808e-21
3.206378049e-21
3.030003648e-22
3.640592687e-21
5.300166169e-21
1.430763798e-20
1.673798543e-21
1.327539529e-21
8.338094182e-22
5.231616392e-21
3.069427199e-21
3.186724806e-22
5.021417342e-21
3.451376299e-21
7.410145308e-21
3.06389974e-21
5.01533059e-21
1.413976354e-21
1.138808805e-20
5.555000575e-21
2.81353633e-20
8.32115395e-21
4.686064742e-22
3.694254443e-23
4.709998541e-21
2.972814149e-21
1.892814975e-21
9.309854976e-22
1.044891024e-22
1.163979742e-20
1.350781211e-21
3.732678349e-21
3.227536086e-20
3.879033864e-21
1.206558275e-21
8.021795308e-21
2.337072187e-21
2.908560771e-21
6.526277811e-21
2.493651358e-21
1.007132593e-20
9.870430615e-21
1.203396775e-21
3.380542716e-21
4.029289205e-21
1.896762819e-21
1.941833903e-21
5.531665031e-22
3.444980992e-21
1.065437195e-20
9.218115489e-21
2.976390187e-21
1.377915078e-20
6.577790261e-21
4.727233479e-22
6.382363013e-21
2.504477586e-21
2.644192819e-21
3.611899396e-20
8.137579726e-22
3.045462439e-21
2.579248786e-21
2.583291126e-21
7.326239738e-21
6.953819866e-21
1.471494453e-21
1.320118573e-21
4.628639355e-21
7.805899565e-22
1.966001324e-21
3.410140853e-21
7.931155059e-22
3.293604307e-22
4.935627753e-24
6.362589694e-22
5.054045239e-22
5.750485915e-21
3.044459176e-21
4.747679973e-21
2.265674452e-21
1.975846146e-22
4.159203774e-21
2.602524516e-21
1.712673216e-21
7.471853846e-21
1.887401394e-20
1.343020022e-20
5.529068738e-20
8.285827973e-22
5.673348674e-21
8.017940934e-21
4.857713669e-21
2.541885047e-23
2.49872375e-21
2.517723562e-22
1.267644006e-20
1.988763441e-21
1.162053192e-21
1.999189069e-21
7.470540397e-21
4.002974676e-20
6.716981344e-21
6.69174933e-22
5.394951358e-21
9.134046974e-21
2.614445994e-21
7.769288936e-22
1.86109622e-21
4.227697384e-21
1.277254296e-22
7.884336131e-21
2.149808914e-21
8.674205954e-22
9.248858931e-21
4.698781196e-21
9.219770914e-21
1.19277888e-20
6.567688807e-22
8.92199393e-22
2.32721414e-21
1.825823784e-20
3.29723772e-21
4.752838553e-22
6.352966721e-22
4.892544156e-21
6.279474549e-21
1.791864949e-21
7.654775987e-21
3.683638222e-22
1.096963449e-22
1.344864626e-21
2.208848002e-21
7.059967637e-22
3.13609468e-21
4.683946848e-21
4.38577513e-21
5.658997272e-22
1.14710854e-20
5.458187843e-21
3.45616555e-21
4.525937186e-21
1.090895231e-21
1.375217546e-21
7.461581596e-22
4.152276606e-22
2.02418638e-21
4.150242196e-21
9.283367119e-21
3.607582761e-22
9.376978406e-23
1.627246085e-20
2.978891706e-22
2.569279125e-22
1.833052397e-20
4.11639733e-21
7.503837126e-21
3.661108606e-21
1.446224491e-21
1.59357939e-20
7.009596782e-21
4.302893552e-21
3.862041429e-21
4.142411109e-21
1.524570644e-23
4.688538584e-20
5.916424436e-21
3.564551364e-21
2.799168178e-21
1.81075755e-20
2.718387343e-21
4.335463726e-21
3.079432312e-21
1.767462916e-22
4.207690313e-21
3.288387222e-21
4.032217585e-21
5.038543375e-21
1.013321457e-21
1.173654924e-21
6.502171035e-21
9.839822359e-21
1.657125163e-21
4.030726686e-22
1.231160464e-21
1.236723219e-20
1.456132076e-20
8.721517026e-22
2.855717612e-21
7.228625055e-21
8.045380037e-21
2.802784524e-21
4.115783625e-22
3.535660947e-21
3.513243371e-21
5.451367755e-21
5.65566153e-21
3.212977827e-21
4.333214599e-21
6.291303022e-21
4.900549396e-21
6.719501259e-21
9.537653125e-21
3.864868357e-21
1.79344256e-21
7.343858607e-21
5.213341345e-22
4.154341893e-21
8.154838139e-21
1.545098124e-21
1.445727032e-21
1.231704343e-21
7.481838401e-21
1.268281199e-20
7.144747026e-21
8.540953393e-21
6.552551334e-22
1.37325672e-21
1.112334616e-21
2.880711099e-21
5.969857128e-21
5.91146563e-21
1.904645617e-21
2.297983454e-20
7.100204061e-22
1.478446049e-22
1.240039673e-20
1.296661909e-20
1.406525823e-21
4.655471675e-21
1.698442196e-20
8.754687005e-22
1.748839881e-22
2.311416282e-21
1.06867289e-21
7.007830987e-21
1.17073794e-20
7.775546446e-21
5.232989802e-21
1.380382073e-20
5.038867725e-20
2.996080686e-21
1.803596376e-20
7.17414076e-21
9.461800492e-23
1.456745385e-21
4.982693964e-21
1.447168696e-21
1.938942523e-20
3.589649559e-21
3.462892865e-21
7.777942539e-21
7.874696421e-22
6.641281401e-21
1.344774227e-22
1.641462732e-21
4.120090804e-21
9.968283927e-21
4.246358319e-21
3.042238175e-21
2.710848787e-21
1.233147384e-21
9.069223011e-21
1.014432465e-20
3.600656289e-22
6.401481262e-21
3.482289125e-21
8.990833905e-21
4.293546265e-21
3.093482095e-21
5.61938603e-21
2.1831165e-20
4.807741861e-22
1.703131011e-21
5.170180625e-21
2.457715621e-22
5.270242567e-21
2.125763987e-20
1.06613627e-21
8.452256972e-22
4.053863267e-22
1.190472816e-22
8.244754029e-22
7.278423177e-21
8.627292889e-22
1.141730614e-21
1.11753393e-21
4.70042924e-22
3.390358524e-21
5.04551987e-22
4.344011981e-21
1.352736312e-21
9.887830715e-21
3.779595322e-21
3.58158265e-21
7.703654016e-22
1.138092081e-21
3.612348208e-21
5.773067574e-21
1.23744015e-20
4.254259699e-21
5.774503781e-21
3.061753403e-21
6.229370023e-21
8.020226739e-21
5.534059097e-21
5.226012675e-22
1.314934517e-21
1.956328865e-22
4.990942889e-21
4.908981089e-21
6.781409584e-22
4.730189632e-22
1.768984506e-22
1.333552364e-21
7.281282205e-21
7.609838031e-22
1.808884677e-21
2.974035691e-21
5.409382153e-21
1.68565978e-21
7.615681355e-21
6.254229379e-21
1.265867483e-20
2.606003431e-21
3.671417557e-21
3.10418486e-21
8.194957533e-21
3.417330337e-21
2.99449826e-21
3.036380335e-22
2.117394152e-20
7.587620744e-21
1.701642512e-21
3.191398618e-21
2.93364015e-21
2.254826618e-21
6.074524417e-21
1.754313854e-20
1.823933305e-20
6.273775632e-22
2.813373072e-21
2.226320417e-23
1.870452398e-21
2.24060255e-21
3.782993439e-21
3.243726961e-21
4.095602864e-22
5.425636011e-22
1.098579124e-21
2.991124291e-21
7.506386969e-22
1.29537027e-21
3.744871044e-22
2.477030321e-21
1.863113269e-21
6.151329111e-21
1.297850965e-20
3.400927143e-21
2.930253847e-21
2.628300707e-22
2.208125786e-21
1.884703511e-21
2.236198849e-20
9.382642534e-22
1.577636849e-21
2.469888015e-21
2.360272846e-21
8.638467073e-22
2.587849867e-21
3.801684676e-21
6.489957606e-21
5.721357586e-22
5.479642192e-21
3.912691639e-21
1.62248865e-21
4.725686809e-21
1.212851347e-20
2.034258684e-21
1.640790937e-21
1.144345752e-21
1.363328801e-21
9.794680479e-22
2.867390785e-21
1.252469646e-21
3.798687888e-21
1.337048303e-21
1.524464856e-20
2.654143276e-22
1.185562427e-21
6.869472345e-22
1.353717417e-20
4.540860574e-21
3.333022485e-21
2.509814749e-21
1.616515689e-20
6.09804487e-21
1.942911793e-22
3.996778203e-22
1.538187925e-20
6.965402376e-21
1.837488446e-22
5.315690786e-21
2.166277411e-21
7.306790767e-22
2.068237147e-22
2.76111972e-21
9.78045492e-22
2.248176403e-20
5.424745633e-21
5.311186283e-22
1.643422891e-20
6.202123754e-21
5.037437277e-21
2.024575733e-22
3.109323159e-20
5.141207225e-21
2.154057903e-21
2.771591094e-21
5.018673382e-21
7.79403709e-21
1.429912247e-21
2.175067802e-20
3.120274344e-22
3.923160769e-22
5.259083729e-21
3.433581654e-21
5.325295578e-21
3.484850891e-21
1.551118071e-20
2.521142813e-21
1.039414885e-20
3.233225431e-21
1.62250211e-20
3.299637496e-21
4.195920381e-21
5.556125795e-23
2.876576222e-21
6.12802958e-21
2.097855271e-21
1.036706316e-21
3.304750784e-21
1.984410221e-21
1.986915027e-21
1.921368362e-21
1.886743609e-21
2.340529933e-21
1.74941916e-21
1.572247947e-21
1.65543489e-21
8.98367553e-21
9.978764553e-22
1.840889946e-22
3.447297806e-21
3.547801054e-21
2.787384779e-21
3.119294035e-21
8.467608224e-21
1.964638512e-21
3.822124882e-21
4.810674187e-21
4.946579627e-21
2.330414359e-21
1.522192659e-21
1.341323418e-21
1.615319207e-21
6.981329598e-21
9.950617084e-21
3.61144907e-22
2.01491095e-21
6.775464643e-21
2.973183034e-21
8.912937475e-21
1.150914787e-20
3.235038712e-21
3.487757832e-21
1.111968507e-21
1.076319975e-21
1.45792535e-21
6.886261071e-21
1.351177884e-20
1.205994947e-22
5.003801276e-21
1.004162532e-20
7.091272865e-21
9.182960022e-23
1.192404211e-20
8.574993992e-21
5.321456885e-21
1.470616011e-21
2.559804544e-21
1.539953046e-20
1.820501866e-20
1.654833339e-21
1.698725232e-21
3.319507975e-21
4.384457316e-22
2.219293133e-21
3.387575372e-21
1.030481015e-21
1.167699807e-20
1.658889214e-20
1.127912981e-20
1.13889797e-21
2.240071497e-21
2.337042054e-20
6.368447997e-22
1.806053089e-21
7.275443371e-22
2.965851775e-20
1.978313649e-21
9.336774011e-22
1.46204459e-21
4.131262435e-21
2.807502493e-22
2.687050408e-21
4.168797237e-22
6.701179432e-21
3.874309133e-21
1.378210023e-22
6.280271295e-21
3.444543284e-22
1.055564803e-20
2.134072165e-21
3.034658428e-21
2.748986724e-20
2.907300241e-21
1.744072876e-21
1.684655968e-21
2.44596196e-21
8.466548136e-21
1.26100557e-21
2.123173577e-21
2.745146627e-21
4.926845994e-21
3.558797385e-23
2.888640637e-21
5.117111316e-21
8.970656102e-21
2.241421615e-21
8.502124964e-22
1.059676675e-20
6.01722419e-21
5.117123626e-22
2.430014737e-21
3.058182953e-21
1.42969205e-20
3.379055834e-21
3.16585608e-21
5.683716092e-21
1.083711111e-20
5.239349068e-21
3.316159175e-21
1.113720751e-21
2.221927661e-21
6.034945627e-22
1.487117244e-21
1.866782548e-21
1.090669936e-20
1.257850605e-20
2.191376972e-21
2.584823241e-21
7.246042807e-21
6.486882831e-21
3.266127024e-21
3.382454157e-21
5.825278139e-21
5.526129513e-21
2.830434455e-21
4.604649812e-21
1.125365759e-21
1.801986613e-21
2.987292177e-22
2.451940968e-23
3.097762612e-21
3.95505595e-22
4.654081129e-21
2.762979509e-21
1.239767608e-20
1.448150516e-21
6.310494873e-21
3.337939211e-21
8.259839007e-22
1.43596759e-21
1.773155496e-21
6.026039359e-21
1.310473726e-20
4.617671221e-22
3.001335974e-20
3.537311783e-21
1.493921651e-20
1.700913891e-21
1.820102376e-21
2.847070344e-21
5.616988872e-22
1.886727451e-21
4.908610212e-21
7.209465726e-21
3.680619429e-23
1.209383806e-20
1.787288253e-20
2.389017465e-20
7.687390787e-22
1.317737048e-21
7.835360047e-21
1.294233756e-20
1.707529609e-20
2.500954184e-21
2.091744935e-21
2.528833604e-22
2.053709207e-21
4.112824229e-21
8.659012512e-22
1.185027472e-21
2.353324966e-21
5.183925805e-21
3.305184791e-21
7.878856753e-22
5.271842422e-21
1.240503384e-20
2.317771818e-22
1.468444584e-21
1.130335084e-20
1.604282594e-21
5.023280579e-21
1.184821982e-20
1.780529746e-21
4.395959739e-21
1.40261688e-21
2.082442925e-21
1.230234607e-21
2.273889825e-21
4.995940032e-21
1.051082549e-20
5.818942299e-21
4.597764638e-21
1.480604498e-21
1.83823039e-20
4.666358236e-21
2.530430046e-21
5.131546697e-24
8.016709828e-22
4.798620841e-21
4.374684985e-21
5.788095636e-21
3.238283279e-21
6.816930456e-21
6.631997561e-21
5.061618219e-21
3.424392826e-22
3.657953828e-21
3.966432438e-22
4.41415299e-21
6.787773692e-21
1.491075004e-21
1.596638575e-21
8.941351929e-21
1.12596531e-20
1.827237693e-21
3.813043776e-22
2.960137239e-21
1.999633336e-21
7.444837537e-21
1.434189049e-20
1.222123218e-21
8.298092203e-22
1.097272657e-21
5.915649324e-21
7.016007595e-22
4.933978672e-21
1.303880862e-21
7.479026007e-22
6.250531746e-21
3.05149874e-21
4.33405486e-21
1.375476285e-20
3.88377295e-21
1.242704168e-21
1.475817106e-21
4.514564685e-22
1.556353318e-22
1.180853249e-20
1.959082935e-21
3.576256384e-21
2.7215472e-21
1.295923766e-21
2.067461332e-21
1.22222919e-21
4.235609076e-21
2.205755212e-21
2.528866214e-22
7.921485822e-21
8.818477655e-22
1.109035272e-21
9.732626427e-21
8.620392133e-22
3.267731142e-21
1.309097798e-21
3.219360729e-21
2.175845151e-20
1.905969603e-20
1.110092508e-20
3.731367924e-22
1.065210684e-21
7.100137495e-21
2.79307422e-21
4.962555517e-21
9.933998629e-21
1.981282611e-22
2.60372796e-21
8.482570514e-22
7.851626052e-21
4.666832389e-21
3.143175624e-21
6.67879073e-22
4.590069841e-21
8.699965106e-22
3.155179429e-21
7.625207921e-22
9.254578096e-21
8.728658847e-22
6.327588775e-22
3.699502527e-21
5.128554792e-22
4.308780937e-22
1.960963141e-21
4.071587895e-21
1.845224966e-22
7.048113293e-21
1.3714643e-21