/*--------------------------------*- C++ -*----------------------------------*\
  =========                 |
  \\      /  F ield         | OpenFOAM: The Open Source CFD Toolbox
   \\    /   O peration     | Website:  https://openfoam.org
    \\  /    A nd           | Version:  7
     \\/     M anipulation  |
\*---------------------------------------------------------------------------*/
FoamFile
{
    version     2.0;
    format      ascii;
    class       labelField;
    location    "0.009/lagrangian/dsmc";
    object      origId;
}
// * * * * * * * * * * * * * * * * * * * * * * * * * * * * * * * * * * * * * //


6907
(
448245
448550
449664
449790
450078
450095
450187
450382
450499
452106
452109
452339
452527
452736
452737
452740
452837
453039
453054
453141
453345
453366
453457
453550
453568
453663
453691
453763
453773
453784
453858
454061
454076
454172
454272
454366
454388
454394
454463
454468
454475
454565
454574
454672
454681
454781
454870
454877
454880
454883
454887
454889
454893
454897
454922
454969
455017
455077
455093
455096
455097
455106
455187
455278
455287
455288
455293
455400
455415
455425
455494
455497
455500
455508
455532
455608
455614
455624
455690
455701
455716
455730
455739
455800
455804
455805
455813
455893
455899
455905
455908
455918
455930
455947
456003
456006
456007
456008
456009
456023
456055
456102
456130
456134
456199
456205
456208
456209
456210
456214
456215
456292
456329
456403
456418
456421
456426
456427
456441
456501
456512
456516
456518
456524
456595
456596
456606
456610
456614
456615
456616
456618
456619
456620
456621
456622
456629
456630
456633
456713
456722
456728
456732
456737
456820
456823
456829
456836
456847
456855
456914
456916
456920
456924
456925
456933
456934
456937
456940
456954
457011
457016
457027
457032
457034
457037
457046
457049
457057
457058
457076
457126
457131
457136
457144
457183
457234
457241
457244
457249
457254
457258
457267
457270
457294
457324
457326
457347
457352
457393
457425
457439
457446
457451
457457
457460
457463
457467
457472
457477
457478
457526
457529
457531
457532
457535
457536
457538
457540
457541
457542
457544
457545
457550
457552
457554
457570
457579
457586
457595
457641
457644
457645
457649
457650
457651
457654
457662
457674
457739
457771
457810
457824
457831
457832
457839
457842
457853
457859
457865
457897
457905
457931
457934
457942
457944
457949
457951
457952
457956
457957
457958
457960
457998
458001
458028
458029
458037
458047
458048
458054
458056
458058
458059
458061
458068
458072
458086
458093
458097
458142
458146
458153
458155
458157
458160
458162
458163
458165
458166
458173
458179
458180
458182
458197
458206
458209
458221
458225
458239
458240
458247
458250
458256
458257
458259
458264
458265
458267
458269
458278
458280
458284
458285
458289
458291
458297
458299
458300
458349
458353
458358
458360
458363
458365
458368
458370
458371
458376
458377
458384
458388
458390
458392
458399
458408
458413
458434
458435
458441
458454
458455
458460
458462
458465
458467
458469
458470
458471
458472
458476
458480
458482
458484
458486
458488
458490
458494
458503
458506
458523
458538
458544
458555
458556
458557
458562
458568
458569
458575
458578
458581
458582
458589
458595
458600
458615
458627
458659
458665
458667
458668
458669
458670
458673
458675
458677
458678
458680
458681
458686
458688
458689
458694
458696
458697
458706
458712
458717
458718
458729
458732
458733
458734
458763
458764
458766
458770
458774
458775
458776
458778
458783
458785
458786
458787
458789
458790
458791
458792
458793
458795
458798
458801
458803
458804
458810
458817
458828
458834
458856
458867
458868
458869
458870
458871
458872
458874
458875
458879
458880
458881
458882
458886
458888
458889
458890
458891
458892
458893
458897
458898
458899
458904
458911
458920
458926
458927
458940
458947
458948
458950
458966
458967
458970
458971
458973
458975
458976
458980
458981
458990
458991
458994
458995
458997
459002
459004
459007
459013
459016
459022
459023
459033
459036
459040
459047
459048
459049
459050
459061
459068
459071
459075
459077
459078
459080
459081
459082
459083
459085
459086
459087
459088
459089
459091
459094
459098
459104
459105
459110
459126
459136
459138
459143
459146
459148
459159
459164
459166
459175
459176
459177
459179
459180
459181
459182
459183
459185
459186
459187
459188
459190
459192
459193
459195
459197
459198
459205
459207
459209
459211
459212
459216
459217
459218
459223
459227
459228
459229
459230
459231
459233
459238
459239
459242
459243
459250
459252
459259
459262
459266
459267
459270
459274
459276
459277
459278
459279
459280
459283
459284
459287
459290
459291
459294
459297
459299
459302
459306
459309
459312
459313
459314
459317
459324
459334
459336
459343
459345
459350
459353
459356
459359
459361
459369
459370
393760
459374
459375
459376
459378
459380
459381
459382
459384
459385
459386
459387
459388
459389
459390
459392
459394
459395
459397
459398
459400
459402
459404
459405
459408
459411
459412
459414
459415
459416
459417
459418
459421
459422
459424
459430
459435
459438
459442
459443
459447
459448
459449
459451
459453
459455
459456
459460
459468
459474
459475
459477
459478
459479
459481
459482
459485
459487
459489
459490
459491
459492
459493
459494
459495
459497
459498
459500
459501
459504
459505
459506
459507
459508
459511
459514
459517
459521
459522
459525
459529
459530
459533
459534
459536
459537
459541
459542
459543
459547
459552
459564
459565
459568
459579
459581
459582
459586
459588
459589
459591
459592
459593
459594
459597
459598
459599
459601
459602
459603
459608
459609
459611
459612
459614
459617
459620
459622
459625
459627
459628
459630
459633
459634
459636
459637
459641
459642
459643
459645
459649
459650
459668
459670
459673
459674
459675
459677
459678
459682
459684
459685
459686
459687
459689
459690
459692
459693
459694
459695
459696
459697
459698
459699
459700
459702
459703
459704
459706
459707
459711
459712
459714
459715
459716
459719
459720
459721
459722
459723
459726
459728
459729
459732
459733
459735
459736
459739
459741
459742
459743
459745
459746
459747
459754
459756
459757
459761
459763
459766
459769
459770
459771
459774
459775
459779
459783
459784
459787
459789
459790
459791
459792
459793
459795
459796
459797
459799
459800
459801
459802
459805
459806
459807
459808
459809
459812
459813
459814
459815
459816
459818
459819
459820
459822
459824
459825
459827
459828
459829
459831
459832
459834
459835
459836
459838
459839
459841
459842
459845
459847
459848
459849
459850
459851
459852
459853
459854
459855
459856
459861
459867
459872
459873
459877
459878
459879
459881
459883
394015
459886
459887
459888
459889
459892
459893
459894
459895
459896
459897
459898
459900
459901
459902
459903
459904
459906
459907
459908
459909
459910
459911
459912
459914
459915
459916
459917
459918
459919
459920
459922
459923
459924
459925
459926
459928
459930
459933
459935
459936
459941
459943
459945
459946
459947
459948
459949
459951
459953
459954
459955
459956
459957
459959
459960
459961
459964
459965
459966
459967
459968
459969
459972
459973
459974
459976
459983
459984
459985
459986
459989
459991
459994
459995
459997
459998
459999
460000
460002
460003
460004
460005
460006
460007
460009
460010
460011
460012
460013
460014
460015
460016
460017
460019
460021
460023
460024
460025
460026
460027
460028
460029
460030
460031
460034
460035
460036
460037
460039
460040
460041
460043
460044
460046
460047
460050
460051
460052
460053
460056
460057
460058
460059
460060
460061
460063
460065
460068
460069
460070
460071
460072
460074
460075
460076
460077
460078
460083
460087
460092
460097
460098
460101
460102
460103
460105
460107
460108
460109
460110
460111
460112
460113
460115
460116
460117
460118
460121
460122
460123
460124
460125
460126
460127
460128
460130
460131
460132
460133
460134
460135
460136
460137
460138
460139
460140
460142
460143
460144
460147
460148
460149
460150
460152
460155
460156
460157
460159
460160
460161
460162
460163
460164
460166
460168
460169
460173
460174
460177
460178
460181
460185
460187
460190
460191
460192
460193
460196
394104
394817
460198
460199
460200
460201
460203
460205
460206
460207
460208
460209
460210
460211
460212
460213
460214
460215
460216
460217
460218
460219
460220
460221
460222
460223
460224
460225
460226
460227
460228
460229
460230
460231
460232
460235
460236
460237
460239
460241
460242
460243
460244
460245
460246
460248
460249
460250
460251
460252
460253
460254
460255
460256
460258
460259
460260
460262
460263
460264
460265
460266
460268
460269
460270
460272
460273
460274
460275
460277
460279
460280
460281
460282
460284
460285
460289
460294
460295
460296
460301
460302
460303
460306
460307
460308
460311
460312
460313
460314
460315
460316
460317
460319
460320
460321
460322
460324
460325
460326
460327
460328
460329
460330
460331
460333
460334
460335
460336
460340
460342
460343
460344
460345
460347
460349
460350
460351
460352
460353
460355
460356
460357
460358
460359
460360
460362
460363
460364
460365
460366
460367
460368
460369
460370
460371
460372
460373
460374
460377
460379
460381
460382
460384
460385
460388
460389
460390
460391
460393
460394
460396
460398
460402
460403
460404
460405
460406
460407
460408
460410
460411
460413
460415
460416
460417
460418
460419
460420
460421
460422
460423
460424
460425
460427
460428
460429
460430
460431
460432
460433
460434
460436
460438
460439
460440
460441
460442
460445
460446
460447
460448
460449
460451
460452
460456
460457
460458
460459
460460
460461
460463
460464
460465
460466
460469
460470
460471
460473
460474
460475
460476
460477
460479
460480
460481
460482
460484
460485
460490
460491
460492
460493
460494
460495
393768
394818
460497
460503
460506
460507
460508
460510
460511
460513
460515
460516
460519
460521
460522
460523
460524
460525
460526
460527
460528
460529
460530
460531
460533
460534
460535
460536
460537
460538
460539
460540
460541
460542
460543
460544
460546
460547
460549
460550
460551
460552
460553
460554
460555
460556
460558
460559
460560
460561
460562
460563
460564
460566
460568
460569
460571
460572
460573
460574
460576
460578
460579
460582
460583
460584
460587
460589
460590
460591
460592
460595
460597
460598
460599
460601
460602
460605
460606
460608
460609
460610
460611
460612
460613
460614
460615
460616
460617
460618
460619
460620
460621
460622
460623
460624
460625
460626
460627
460628
460630
460631
460632
460633
460634
460635
460636
460637
460638
460639
460640
460641
460642
460643
460644
460645
460646
460647
460649
460650
460651
460652
460653
460654
460655
460657
460658
460659
460660
460661
460662
460663
460664
460665
460666
460668
460669
460670
460671
460672
460673
460674
460675
460676
460677
460678
460679
460680
460682
460683
460684
460685
460687
460689
460691
460694
460695
460698
460700
394987
460702
460703
460704
460706
460707
460710
460711
460712
460713
460715
460716
460717
460718
460719
460720
460721
460722
460723
460724
460725
460726
460727
460728
460729
460730
460731
460732
460733
460734
460736
460737
460738
460739
460741
460742
460743
460744
460745
460746
460747
460748
460749
460750
460751
460752
460753
460754
460755
460756
460757
460758
460759
460760
460761
460762
460763
460764
460765
460766
460767
460768
460769
460770
460772
460773
460775
460776
460779
460781
460782
460783
460784
460787
460790
460794
460796
460797
460798
460799
460800
460801
460804
460805
460806
460807
460808
460809
460811
460814
460815
460817
460819
460820
460821
460822
460823
460824
460825
460826
460827
460828
460829
460830
460831
460832
460833
460834
460835
460836
460837
460838
460839
460840
460841
460842
460843
460844
460845
460846
460847
460848
460849
460850
460851
460852
460853
460854
460855
460856
460857
460858
460859
460860
460861
460862
460863
460864
460865
460866
460867
460868
460869
460870
460871
460872
460873
460874
460875
460876
460877
460878
460879
460880
460881
460883
460884
460885
460886
460887
460888
460889
460891
460892
460894
460895
460896
460897
460898
460901
460903
460904
460906
460907
460909
460911
460913
460914
460915
460916
460917
460918
460919
460920
460921
460922
460923
460924
460925
460926
460927
460928
460929
460930
460931
460932
460933
460934
460935
460936
460937
460938
460939
460940
460941
460942
460943
460944
460945
460946
460947
460948
460949
460950
460951
460952
460953
460954
460955
460956
460957
460958
460959
460960
460961
460962
460963
460964
460965
460966
460967
460968
460970
460972
460973
460974
460975
460976
460977
460978
460979
460980
460981
460982
460983
460984
460985
460986
460987
460988
460989
460991
460993
460994
460995
460996
460997
460998
460999
461002
461005
461006
461008
461009
461011
393500
395330
395416
461013
461015
461016
461017
461018
461019
461022
461023
461024
461025
461026
461027
461028
461029
461030
461031
461032
461033
461034
461035
461036
461037
461038
461039
461040
461041
461042
461043
461044
461045
461046
461047
461048
461049
461050
461051
461052
461054
461055
461056
461057
461059
461060
461062
461063
461064
461065
461066
461067
461068
461069
461070
461071
461072
461073
461074
461075
461076
461077
461078
461079
461080
461082
461083
461084
461085
461086
461087
461088
461089
461090
461091
461092
461093
461094
461096
461097
461099
461101
461104
461105
461108
461110
394274
395079
395512
461111
461113
461114
461117
461118
461121
461122
461123
461124
461125
461126
461127
461128
461129
461130
461131
461132
461133
461134
461135
461136
461137
461138
461139
461140
461141
461142
461143
461144
461145
461146
461147
461148
461149
461150
461151
461152
461153
461154
461155
461156
461157
461158
461159
461160
461161
461162
461164
461165
461166
461167
461168
461169
461170
461171
461172
461173
461174
461175
461176
461177
461178
461179
461180
461181
461182
461183
461186
461187
461188
461189
461191
461192
461193
461194
461195
461199
461201
461202
461203
394111
394726
395598
461206
461208
461210
461211
461212
461213
461214
461215
461216
461217
461218
461219
461220
461221
461222
461223
461224
461225
461226
461227
461228
461229
461230
461231
461232
461233
461234
461235
461236
461237
461238
461239
461240
461241
461242
461243
461244
461245
461246
461247
461248
461249
461250
461251
461252
461253
461254
461255
461256
461257
461258
461259
461260
461261
461262
461263
461264
461265
461266
461267
461268
461269
461270
461271
461272
461273
461274
461275
461276
461277
461278
461279
461280
461281
461282
461283
461284
461285
461286
461287
461288
461289
461290
461291
461292
461295
461296
461297
461298
461299
461302
461303
461304
461305
461306
461307
461308
461309
461311
461312
461313
461314
461316
461321
461322
461323
461324
461328
461329
461331
461332
461333
461334
461335
461336
461337
461338
461339
461340
461341
461342
461343
461344
461345
461346
461347
461348
461350
461351
461352
461353
461354
461355
461356
461357
461358
461359
461360
461361
461362
461363
461364
461365
461366
461367
461368
461369
461370
461371
461372
461373
461374
461375
461376
461377
461378
461379
461380
461381
461382
461383
461384
461385
461386
461387
461388
461389
461391
461392
461393
461394
461395
461396
461397
461398
461399
461400
461401
461402
461403
461404
461405
461409
461411
461412
461413
461414
461415
461416
461417
461418
461419
461424
461425
461426
461429
461430
461431
461432
461433
461434
461436
461437
461438
461439
461440
461441
461442
461443
461444
461445
461446
461447
461448
461449
461450
461451
461452
461453
461454
461455
461456
461457
461458
461459
461460
461461
461462
461463
461464
461465
461466
461467
461468
461469
461470
461471
461472
461473
461474
461475
461476
461477
461478
461479
461480
461481
461482
461483
461484
461485
461486
461487
461488
461489
461490
461491
461492
461494
461495
461496
461497
461498
461499
461500
461501
461502
461503
461506
461508
461511
461512
461514
461515
461516
461517
461518
461519
461520
461524
461527
461528
461529
461530
461531
461532
461534
461535
461536
461538
461539
461540
461541
461542
461543
461545
461546
461547
461548
461549
461550
461551
461552
461553
461554
461555
461556
461557
461558
461559
461560
461561
461562
461563
461564
461565
461566
461567
461568
461569
461570
461571
461572
461573
461574
461575
461576
461577
461578
461579
461580
461581
461582
461583
461584
461585
461586
461587
461588
461589
461590
461591
461592
461593
461594
461595
461596
461597
461598
461599
461600
461602
461603
461604
461605
461606
461607
461609
461610
461611
461613
461614
461615
461618
461619
461621
461622
461623
394453
461629
461630
461631
461632
461633
461634
461635
461636
461637
461638
461640
461641
461642
461643
461644
461645
461647
461648
461649
461650
461651
461652
461653
461654
461655
461656
461657
461658
461659
461660
461661
461662
461663
461664
461665
461666
461667
461668
461669
461670
461671
461672
461673
461674
461675
461676
461677
461678
461679
461680
461681
461682
461683
461684
461685
461686
461687
461688
461689
461690
461691
461692
461693
461694
461695
461697
461698
461699
461700
461701
461702
461703
461704
461705
461706
461707
461708
461709
461711
461712
461713
461714
461715
461717
461718
461720
461721
461722
461724
461725
461726
461728
461729
461730
461731
461732
461733
461734
461735
461739
461742
461744
461745
461747
461748
461749
461750
461751
461752
461753
461754
461755
461756
461757
461758
461759
461760
461761
461762
461763
461764
461765
461766
461767
461768
461769
461770
461771
461772
461773
461774
461775
461776
461777
461778
461779
461780
461781
461782
461783
461784
461785
461786
461787
461788
461789
461790
461791
461792
461793
461794
461795
461796
461797
461798
461799
461800
461801
461802
461803
461804
461805
461806
461807
461808
461809
461810
461811
461812
461814
461817
461819
461820
461821
461822
461823
461826
461827
461828
461830
461831
461832
461834
461835
461836
394446
461838
461840
461842
461844
461845
461846
461847
461848
461849
461851
461852
461853
461854
461855
461856
461857
461858
461859
461860
461861
461862
461863
461864
461865
461866
461867
461868
461869
461870
461871
461872
461873
461874
461875
461876
461877
461878
461879
461880
461881
461882
461883
461884
461885
461886
461887
461888
461889
461890
461891
461892
461893
461894
461895
461896
461897
461898
461899
461900
461901
461902
461903
461904
461905
461906
461907
461908
461909
461910
461911
461912
461913
461915
461916
461917
461918
461919
461920
461921
461922
461923
461924
461925
461926
461927
461929
461930
461931
461932
461933
461935
395943
461937
461939
461940
461941
461942
461943
461944
461945
461946
461947
461949
461950
461951
461952
461953
461954
461955
461956
461957
461958
461959
461960
461961
461962
461963
461964
461965
461966
461967
461968
461969
461970
461971
461972
461973
461974
461975
461976
461977
461978
461979
461980
461981
461982
461983
461984
461985
461986
461987
461988
461989
461990
461991
461992
461993
461994
461995
461996
461997
461998
461999
462000
462001
462002
462003
462004
462005
462006
462007
462008
462009
462010
462013
462014
462016
462017
462018
462020
462021
462023
462024
462025
462028
462030
460697
462031
462032
462033
462035
462036
462037
462038
462039
462040
462042
462043
462044
462045
462046
462047
462048
462049
462050
462051
462052
462053
462054
462055
462056
462057
462058
462059
462060
462061
462062
462063
462064
462065
462066
462067
462068
462069
462070
462071
462072
462073
462074
462075
462076
462077
462078
462079
462080
462081
462082
462083
462084
462085
462086
462087
462088
462089
462090
462091
462092
462093
462094
462095
462096
462097
462098
462100
462101
462102
462103
462104
462105
462106
462107
462108
462109
462110
462111
462112
462113
462114
462115
462116
462117
462118
462119
462120
462121
462122
462123
462124
462125
462126
462128
462129
462130
462131
462132
462133
462137
462139
462142
462143
462145
462146
462147
462148
462149
462150
462151
462152
462153
462154
462155
462156
462157
462158
462159
462160
462161
462162
462163
462164
462165
462166
462167
462168
462169
462170
462171
462172
462173
462174
462175
462176
462177
462178
462179
462180
462181
462182
462183
462184
462185
462186
462187
462188
462189
462190
462191
462192
462193
462194
462195
462196
462197
462198
462199
462200
462201
462202
462203
462204
462205
462206
462207
462208
462210
462211
462212
462213
462214
462215
462216
462217
462218
462220
462221
462222
462223
462225
462226
462229
462231
462233
462234
462235
462236
394371
462237
462241
462244
462245
462246
462247
462248
462249
462250
462251
462252
462253
462254
462255
462256
462257
462258
462259
462260
462261
462262
462263
462264
462265
462266
462267
462268
462269
462270
462271
462272
462273
462274
462275
462276
462277
462278
462279
462280
462281
462282
462283
462284
462285
462286
462287
462288
462289
462290
462291
462292
462293
462294
462295
462296
462297
462298
462299
462300
462301
462302
462303
462304
462305
462306
462307
462308
462309
462310
462311
462312
462313
462314
462315
462317
462319
462321
462322
462324
462325
462326
462327
462328
462333
462334
462335
462336
462337
462338
395334
396394
462340
462341
462342
462343
462344
462345
462346
462348
462349
462350
462351
462352
462353
462354
462355
462356
462357
462358
462359
462360
462361
462362
462363
462364
462365
462366
462367
462368
462369
462370
462371
462372
462373
462374
462375
462376
462377
462378
462379
462380
462381
462382
462383
462384
462385
462386
462387
462388
462389
462390
462391
462392
462393
462394
462395
462396
462397
462398
462399
462400
462401
462402
462403
462404
462405
462406
462407
462408
462409
462410
462411
462412
462413
462414
462415
462416
462417
462418
462419
462420
462421
462422
462423
462425
462426
462427
462428
462429
462430
462432
462433
462435
462436
462438
394190
395514
396302
396650
462439
462440
462442
462443
462446
462447
462449
462450
462451
462452
462453
462454
462455
462456
462457
462458
462459
462460
462461
462462
462463
462464
462465
462466
462467
462468
462469
462470
462471
462472
462473
462474
462475
462476
462477
462478
462479
462480
462481
462482
462483
462484
462485
462486
462487
462488
462489
462490
462491
462492
462493
462494
462495
462496
462497
462498
462499
462500
462501
462502
462503
462504
462505
462506
462507
462508
462510
462511
462512
462513
462515
462516
462517
462518
462519
462522
462527
462528
462530
462531
395175
395247
395332
396038
396126
396393
396395
462533
462534
462535
462536
462537
462540
462542
462544
462545
462546
462547
462548
462549
462550
462551
462552
462553
462554
462555
462556
462557
462558
462559
462560
462561
462562
462563
462564
462565
462566
462567
462568
462569
462570
462571
462572
462573
462574
462575
462576
462577
462578
462579
462580
462581
462582
462583
462584
462585
462586
462587
462588
462589
462590
462591
462592
462593
462594
462595
462596
462597
462598
462599
462600
462601
462602
462603
462604
462605
462606
462607
462608
462609
462610
462611
462612
462613
462614
462615
462616
462617
462618
462619
462620
462621
462622
462623
462624
462625
462626
462627
462628
462629
462631
462632
462633
462636
462637
462638
462639
462640
462641
462643
462644
395853
396731
396819
462647
462648
462651
462652
462654
462655
462656
462657
462658
462659
462660
462661
462662
462663
462664
462665
462666
462667
462668
462669
462670
462671
462672
462673
462674
462675
462676
462677
462678
462679
462680
462681
462682
462683
462684
462685
462686
462687
462688
462689
462690
462691
462692
462693
462694
462695
462696
462697
462698
462699
462700
462701
462702
462703
462704
462705
462706
462707
462708
462709
462710
462711
462712
462713
462714
462715
462716
462717
462718
462719
462720
462721
462722
462723
462724
462725
462726
462727
462728
462729
462730
462731
462732
462733
462734
462735
462736
462737
462738
462739
462740
462741
394834
395080
396912
462743
462747
462748
462749
462751
462752
462753
462754
462755
462756
462757
462758
462759
462760
462762
462763
462764
462765
462766
462767
462768
462769
462770
462771
462772
462773
462774
462775
462776
462777
462778
462779
462780
462781
462782
462783
462784
462785
462786
462787
462788
462789
462790
462791
462792
462793
462794
462795
462796
462797
462798
462799
462800
462801
462802
462803
462804
462805
462806
462807
462808
462809
462810
462811
462812
462813
462814
462815
462816
462817
462818
462819
462820
462821
462822
462823
462824
462825
462826
462827
462828
462829
462830
462831
462832
462833
462835
462836
462838
462843
462844
462845
462846
396121
396209
396911
462847
462852
462853
462855
462856
462858
462859
462860
462861
462862
462863
462864
462865
462866
462867
462868
462869
462870
462871
462872
462873
462874
462875
462876
462877
462878
462879
462880
462881
462882
462883
462884
462885
462886
462887
462888
462889
462890
462891
462892
462893
462894
462895
462896
462897
462898
462899
462900
462901
462902
462903
462904
462905
462906
462907
462908
462909
462910
462911
462912
462913
462914
462915
462916
462917
462918
462919
462920
462921
462922
462923
462924
462925
462926
462928
462929
462931
462932
462933
462934
462936
462937
462939
462942
462944
462945
462946
462947
462948
394550
394829
396124
396212
396474
396993
462949
462951
462956
462957
462958
462959
462960
462961
462962
462963
462964
462965
462966
462967
462968
462969
462970
462971
462972
462973
462974
462975
462976
462977
462978
462979
462980
462981
462982
462983
462984
462985
462986
462987
462988
462989
462990
462991
462992
462993
462994
462995
462996
462997
462998
462999
463000
463001
463002
463003
463004
463005
463006
463007
463008
463009
463010
463011
463012
463013
463014
463015
463016
463017
463018
463019
463020
463021
463022
463023
463024
463025
463026
463027
463028
463029
463030
463031
463032
463033
463034
463036
463037
463038
463043
463044
463045
463047
463048
463049
463050
463052
463053
393580
394543
394826
394897
396991
463054
463057
463058
463059
463060
463061
463062
463063
463064
463065
463066
463067
463068
463069
463071
463072
463073
463074
463075
463076
463077
463078
463079
463080
463081
463082
463083
463084
463085
463086
463087
463088
463089
463090
463091
463092
463093
463094
463095
463096
463097
463098
463099
463100
463101
463102
463103
463104
463105
463106
463107
463108
463109
463110
463111
463112
463113
463114
463115
463116
463117
463118
463119
463120
463121
463122
463123
463124
463125
463126
463127
463128
463129
463130
463131
463132
463133
463134
463135
463136
463137
463138
463139
463141
463142
463144
463147
463148
463149
463150
463151
463152
463153
463154
463155
463156
463157
463158
396567
397077
397347
397349
463161
463163
463164
463165
463166
463167
463168
463169
463170
463171
463172
463173
463174
463175
463176
463177
463178
463179
463180
463181
463182
463183
463184
463185
463186
463187
463188
463189
463190
463191
463192
463193
463194
463195
463196
463197
463198
463199
463200
463201
463202
463203
463204
463205
463206
463207
463208
463209
463210
463211
463212
463213
463214
463215
463216
463217
463218
463219
463220
463221
463222
463223
463224
463225
463226
463227
463228
463229
463230
463231
463232
463233
463234
463235
463236
463237
463238
463239
463240
463241
463242
463243
463244
463245
463246
463247
463248
463249
463253
463254
463256
463257
463258
463259
463260
463261
394038
394647
395087
395607
395949
396475
397171
397346
463262
463263
463264
463265
463267
463268
463269
463271
463272
463273
463274
463275
463276
463277
463278
463279
463280
463281
463282
463283
463284
463285
463286
463287
463288
463289
463290
463291
463292
463293
463294
463295
463296
463297
463298
463299
463300
463301
463302
463303
463304
463305
463306
463307
463308
463309
463310
463311
463312
463313
463314
463315
463316
463317
463318
463319
463320
463321
463322
463323
463324
463325
463326
463327
463328
463329
463330
463331
463332
463333
463334
463335
463336
463337
463338
463339
463340
463341
463342
463343
463344
463345
463346
463347
463348
463349
463351
463352
463354
463355
463356
463357
394641
395414
396040
396732
396822
463358
463359
463360
463362
463363
463364
463365
463366
463367
463368
463369
463370
463371
463372
463373
463374
463375
463376
463377
463378
463379
463380
463381
463382
463383
463384
463385
463386
463387
463388
463389
463390
463391
463392
463393
463394
463395
463396
463397
463398
463399
463400
463401
463402
463403
463404
463405
463406
463407
463408
463409
463410
463411
463412
463413
463414
463415
463416
463417
463418
463419
463420
463421
463422
463423
463424
463425
463426
463427
463428
463429
463430
463431
463432
463433
463434
463435
463436
463437
463438
463440
463441
463442
463443
463444
463445
463446
463447
463448
463450
463451
463452
463454
463455
463456
463458
463459
463460
463461
463462
463463
463465
463466
463467
463468
463470
394107
396219
396478
396910
463471
463472
463473
463474
463475
463476
463477
463478
463479
463480
463481
463482
463483
463484
463485
463486
463487
463488
463489
463490
463491
463492
463493
463494
463495
463496
463497
463498
463499
463500
463501
463502
463503
463504
463505
463506
463507
463508
463509
463510
463511
463512
463513
463514
463515
463516
463517
463518
463519
463520
463521
463522
463523
463524
463525
463526
463527
463528
463529
463530
463531
463532
463533
463534
463535
463536
463537
463538
463539
463540
463541
463542
463543
463544
463545
463546
463547
463548
463549
463550
463551
463552
463553
463554
463555
463556
463557
463558
463559
463560
463563
463564
463565
463566
463567
463569
463570
463571
463572
463573
461507
463574
463575
463576
463577
463578
463579
463580
463581
463582
463583
463584
463585
463586
463587
463588
463589
463590
463591
463592
463593
463594
463595
463596
463597
463598
463599
463600
463601
463602
463603
463604
463605
463606
463607
463608
463609
463610
463611
463612
463613
463614
463615
463616
463617
463618
463619
463620
463621
463622
463623
463624
463625
463626
463627
463628
463629
463630
463631
463632
463633
463634
463635
463636
463637
463638
463639
463640
463641
463642
463643
463644
463645
463646
463647
463648
463649
463650
463651
463652
463653
463654
463655
463656
463657
463658
463659
463660
463661
463662
463663
463666
463667
463668
454495
394720
395263
395855
396205
397443
463670
463671
463672
463673
463675
463676
463677
463678
463679
463681
463682
463684
463685
463686
463687
463688
463689
463690