/*--------------------------------*- C++ -*----------------------------------*\
  =========                 |
  \\      /  F ield         | OpenFOAM: The Open Source CFD Toolbox
   \\    /   O peration     | Website:  https://openfoam.org
    \\  /    A nd           | Version:  7
     \\/     M anipulation  |
\*---------------------------------------------------------------------------*/
FoamFile
{
    version     2.0;
    format      ascii;
    class       vectorField;
    location    "0.009/lagrangian/dsmc";
    object      U;
}
// * * * * * * * * * * * * * * * * * * * * * * * * * * * * * * * * * * * * * //


6907
(
(698.4310821 -190.8085577 337.3430517)
(225.2246575 -38.14138746 220.5895164)
(1609.724998 -923.4808034 -576.2575405)
(-786.4854229 -70.05025809 519.2406955)
(614.5311491 776.3807666 -270.7950814)
(659.22596 297.870557 132.7554499)
(-28.17880401 -178.9470445 -384.1225844)
(48.51579584 1204.977781 218.2614881)
(1866.875669 8.015075574 -10.85605359)
(459.2123089 522.5355273 -180.6514894)
(1879.921088 837.2903231 195.3750152)
(803.6633372 -382.6426238 653.1452025)
(1192.235836 757.3761735 38.5978647)
(978.0653269 614.2023123 323.7417139)
(321.8895996 -126.2215194 545.4588628)
(-27.26742678 6.171904913 -483.6142699)
(942.3861922 -246.4810853 -399.902576)
(1231.467724 571.7014711 336.7607787)
(419.5383531 -19.73215626 611.5526374)
(-214.2059511 121.1570172 -250.2667398)
(-433.2698202 -86.27164865 -234.2703688)
(1872.253879 -241.1913304 -121.2722018)
(-178.9550336 354.0285665 24.08354699)
(1970.21412 366.0141169 -773.6115025)
(724.4778596 105.3153216 -699.0392607)
(712.2130498 896.3245194 -127.9907074)
(995.372774 -326.0101568 -384.4223066)
(1552.99969 -307.5258337 -825.2763113)
(-344.4853908 -521.2197187 482.4015815)
(910.8860016 991.5320709 -499.6454372)
(83.29483538 275.1075423 -199.2695931)
(826.6941279 -41.09446968 904.1191737)
(321.1857168 -215.5144191 -252.1645465)
(511.5980429 -239.3989232 68.74630257)
(136.4213508 189.1615675 557.0299386)
(740.8231473 -806.5858508 -286.0077228)
(-320.2570552 809.6561315 -70.09955075)
(336.0664425 127.4998881 -321.4419165)
(1071.676874 319.5743543 -527.7908664)
(2150.09934 287.7899257 50.05135495)
(293.3052116 207.4561765 -439.3110829)
(1482.010783 -391.4998056 32.21140864)
(267.306713 618.0735028 -575.3779554)
(616.9795992 -232.1561326 -270.2161108)
(281.347893 -15.84657219 -385.7871888)
(1673.082175 90.49808112 600.4617499)
(-250.6846153 -52.62885115 -359.0251493)
(474.9828174 42.44091825 -1299.138624)
(266.1277685 660.5015471 -5.983598652)
(221.9364699 1337.170851 813.0853988)
(325.647498 4.056731387 640.3828463)
(126.5652716 750.0380961 -379.8153363)
(-286.8062345 -76.53298283 96.94346656)
(1784.874631 23.29193712 -637.8171946)
(330.7547667 -315.3329415 -115.8929908)
(897.6029636 1251.866706 369.7582565)
(371.7702326 1206.538707 269.2835666)
(5.30091783 236.9452172 987.6273047)
(1035.120163 805.2005679 -520.5074043)
(-69.48397724 1013.430781 -6.11036033)
(657.2047124 184.9692349 549.8801481)
(-504.8935868 -121.2222945 -299.8884291)
(79.03350123 793.3933945 637.4668244)
(1455.10928 770.780558 505.3339855)
(453.7544739 521.3592351 925.138707)
(1046.769736 622.5794882 900.8517126)
(177.0085555 320.6576884 -947.4123929)
(572.1548778 1312.772279 -34.56209054)
(1858.844756 -370.7197407 624.6364125)
(1822.383421 123.3414153 -257.3769507)
(1850.752945 -431.0257848 312.399494)
(1961.427346 -30.3728048 -55.51843254)
(1468.846267 402.0924682 -444.1635071)
(142.7627458 286.9914415 0.2318197089)
(564.4172833 643.8888883 856.1451821)
(929.251514 693.489153 947.2960053)
(-120.109366 148.2577279 -636.8978548)
(548.087356 48.05390075 332.0586544)
(134.0263571 1452.709732 721.0441371)
(3.737795313 -274.5089314 -107.897153)
(83.7118652 159.7671942 71.28402604)
(482.4833526 882.811117 -505.6452925)
(1191.312878 433.1828751 -1332.730748)
(-299.6086565 -123.9533059 494.5156116)
(-31.99719008 618.9716162 474.4673359)
(1280.962458 1410.471476 -249.483679)
(515.4843135 -90.38266428 100.2631702)
(-218.1924179 585.1260013 -81.93490104)
(648.9682567 504.1686887 152.8944336)
(727.6878772 -321.3852209 472.0956872)
(-459.1000928 152.959366 1057.002928)
(1122.10831 15.01993785 -301.1748319)
(-437.9251413 269.5615263 18.96391811)
(-224.3537149 -3.347932382 -544.7123514)
(789.6477398 550.8621591 306.5455102)
(-200.5098902 700.6217167 -642.8199775)
(160.0751487 176.2706648 311.1809611)
(323.4082557 495.4897484 -30.0494172)
(-215.328367 207.9671009 581.1769156)
(-9.643381234 11.21983296 972.5232689)
(59.52386734 592.949075 -692.0913675)
(932.35936 -260.5131184 459.4110081)
(640.2707943 -674.7630478 -616.9428347)
(148.9524469 469.6300469 666.8293128)
(352.027417 331.4913836 -923.1963278)
(677.8200676 20.28171297 310.599289)
(1164.929657 45.04036468 138.3427614)
(513.7117939 51.53861694 298.0866233)
(1180.251981 204.6383787 1032.444074)
(334.0294737 50.84641939 -1194.538345)
(646.2079565 120.4912144 -142.0942717)
(1102.522619 147.5548803 -393.3848215)
(840.3174487 576.8078009 -438.6449645)
(298.2653069 -0.1037783708 811.826361)
(71.72384895 173.2087227 -652.9609358)
(569.7460246 -122.0862511 264.235262)
(1769.037121 911.0347125 -168.8189046)
(1336.013645 872.2130732 -61.65551937)
(498.9638947 -10.61780883 -1181.71688)
(628.17626 64.83468199 879.2069371)
(954.6057245 -519.2025421 -643.4433637)
(284.857529 85.4615608 -372.0603683)
(559.224857 906.605564 447.453947)
(281.3561278 178.8481635 143.2124991)
(159.9201226 24.58060346 -385.2574175)
(1505.968851 -67.83770096 232.9191251)
(565.5188757 383.7157945 -403.7858807)
(1567.029143 -733.2103848 -177.9972426)
(1138.09787 1483.978907 -143.2799706)
(-389.2384201 341.8393001 -215.1755459)
(974.7280331 656.202492 582.6215897)
(43.28714118 -13.29509568 830.7625197)
(8.390102118 -213.7885124 36.37518296)
(-123.9182862 41.84300074 -443.8163646)
(502.6353489 565.9375287 -1.222520354)
(-129.7137098 1026.3438 -138.0776717)
(-35.17300668 396.0172003 -321.3705963)
(37.21062659 1039.530833 -1152.793362)
(1504.442098 356.4760762 878.9460059)
(734.0974772 1325.456183 -771.3923918)
(2001.914419 -97.072261 998.6152416)
(525.4701731 270.7352695 -215.2114608)
(-551.018817 -83.55934409 400.1728097)
(15.88879821 391.2106491 -194.6317691)
(1517.069938 88.7799165 515.7516539)
(1542.584514 -160.1198497 -310.0701375)
(383.2629447 394.3194547 1220.584133)
(699.5078332 -14.17807529 -340.4137155)
(540.9391394 430.2835052 -191.397217)
(603.7658056 244.7748304 478.4702376)
(278.8955041 2.490551579 -30.52181188)
(1769.009484 479.0657838 295.5952309)
(868.5688072 319.7448259 -564.8516002)
(155.4628632 892.91253 -942.0895662)
(1497.303795 430.7491119 -423.0483215)
(-577.3512705 856.2384043 -296.4453458)
(-124.997395 16.67336256 -667.9435974)
(1633.481129 103.3876006 654.1175106)
(-22.88741269 197.2178114 420.904213)
(361.7765054 531.1658693 -516.6720368)
(695.9758244 -457.7673761 -506.5459476)
(870.021743 249.2721406 -684.6011765)
(858.9011992 69.31755523 331.2372622)
(201.2430198 126.5522237 -364.7022943)
(598.8662413 1287.32285 -756.7418038)
(255.3176184 -447.0627397 -1117.263789)
(-221.3254505 186.7234906 -240.5563527)
(-111.8681059 629.0276103 -707.9118797)
(557.9683073 -61.50025647 160.1085159)
(266.9929417 477.8053156 118.0773966)
(1046.367222 199.4880137 435.6681462)
(1786.408422 -140.0027246 206.8654935)
(159.2658189 1301.031428 -370.2177441)
(872.100748 -493.1405612 343.3393226)
(249.6749583 -597.4631018 262.9031235)
(723.7410585 -418.4128706 973.6960253)
(334.3742001 142.6281603 214.2996299)
(316.5832848 1272.993673 670.6978575)
(647.3209447 -21.86311586 293.9992268)
(38.11812258 645.9223794 574.9867782)
(1560.272434 579.5054886 -176.4032077)
(891.1026845 506.1860926 163.5401088)
(369.4263337 670.2860833 -378.2304793)
(491.1384562 380.0363727 -136.4082128)
(249.5514493 93.87208193 221.7866756)
(1359.421062 -911.1828574 -661.0705551)
(827.8378931 65.54268784 -960.2050083)
(264.9276691 572.5182576 -769.8433895)
(2060.231487 -570.5394718 -49.83570779)
(1471.512429 270.0250915 -385.5345013)
(-270.0172703 1027.319795 -419.9893901)
(91.7016459 190.7909583 874.0390736)
(1486.322128 -89.47789133 72.3253886)
(1770.955185 767.8105585 -55.67252328)
(485.2568414 -381.6662702 215.1815196)
(826.8455071 341.2513237 180.5991089)
(783.8539402 684.7261252 -900.6487969)
(878.0634709 255.8769961 301.6928901)
(853.4269669 608.2727129 -502.2139856)
(749.4729458 174.4578209 556.6525933)
(545.2701466 -120.4474987 163.5927893)
(1003.332327 507.0442508 605.3279641)
(2218.096958 -374.9853365 -196.4053929)
(1100.860575 115.2362938 661.3659967)
(138.7066989 174.796764 207.2828203)
(1440.812105 665.3630096 59.02885343)
(767.6253219 11.04742479 -957.621355)
(88.78889788 607.3060179 238.2094673)
(680.7785884 196.5325688 -38.10345659)
(2010.345244 -153.873274 1251.617259)
(335.8557092 262.8335761 -1266.025037)
(1466.29664 749.8400925 -448.0760319)
(32.4647765 622.2667712 196.3975298)
(737.6555693 -966.5577601 -256.9603678)
(89.31211008 577.5784115 492.4656811)
(108.4674033 169.6020964 96.35415153)
(1201.582479 387.6331036 -990.0177442)
(1037.488025 118.5818116 -231.6827837)
(1648.409971 392.5360533 444.882391)
(1396.606228 -121.5429284 21.07288512)
(1191.09299 40.93044231 191.3507041)
(1265.68083 299.1990222 -325.6437282)
(1838.9516 223.8450279 -344.0971567)
(1105.81786 592.0134596 -196.0412553)
(1181.866579 210.3223395 444.2012417)
(-409.5681097 -221.0963033 -332.8596165)
(277.3659592 1144.661223 -377.1348554)
(459.2384609 -434.7446328 546.6055341)
(216.986519 481.5911929 472.6924813)
(238.3343123 1179.611366 -574.4124801)
(263.7364531 -216.954834 -297.2354803)
(1716.758855 63.07919244 -56.00288842)
(1067.171538 204.403255 42.7281065)
(-404.5560647 495.8741198 -643.4312463)
(858.7517932 1182.847164 -285.7287051)
(-157.2304726 484.355005 -686.876562)
(1439.883829 -371.5218851 -971.5479847)
(698.8973725 148.2103295 742.6312034)
(563.7158814 449.0514718 -27.5519628)
(597.0227637 876.5939587 -630.6419688)
(1943.973405 812.2625097 -832.5893676)
(1770.644829 -667.5139579 5.286607873)
(841.8923595 504.0935439 914.5997475)
(-81.62899111 1315.770119 -130.2703699)
(585.9144157 573.0075213 -379.0922654)
(374.6298523 619.1190368 -63.09974064)
(610.1384404 356.9953822 746.345351)
(1152.672065 984.6135833 -626.1422004)
(34.16494843 51.41459082 388.4248445)
(-328.5201756 -384.2821108 39.50353577)
(22.52812739 267.4607242 201.5554526)
(177.4709721 374.3860884 772.4979181)
(1458.382011 -119.8745639 -91.18419053)
(1339.029722 523.4275001 -598.7009517)
(804.4273611 -346.2600487 -65.91552517)
(1566.068832 -328.6420505 524.1229524)
(2018.563042 270.207394 491.3453576)
(462.5945316 329.6545458 347.9816045)
(396.9881809 -648.5662062 -1081.526849)
(-331.4950017 779.672438 226.359799)
(-11.50867651 -964.1953382 692.9806445)
(1343.511012 1477.747831 -633.9556907)
(846.372349 271.5963127 -211.8423174)
(-379.0730142 427.4866259 111.8804872)
(2709.818229 1532.36802 -398.4120691)
(1350.752749 231.3885399 -348.5940238)
(1642.88579 723.9988239 -95.0127734)
(1345.993671 8.651008086 -51.36482611)
(878.312416 -118.3087128 176.1147901)
(-207.2382069 -216.4609914 -1194.281177)
(1132.272327 793.8314167 -1195.707382)
(945.4702333 9.508014256 -251.6142122)
(850.4110414 1634.367295 -134.370055)
(411.8830515 404.9912251 478.081464)
(-980.7879323 925.5042482 506.5607221)
(755.0010246 593.5427876 -84.24857747)
(1236.222062 -89.96171789 -21.70775815)
(653.6990396 4.282617862 -922.498173)
(788.0698574 937.9849264 749.5504156)
(-268.1404609 395.9121255 293.2912926)
(1910.511001 538.6952379 684.8338165)
(1932.467615 392.8068822 -242.9481867)
(1421.333457 -43.04051273 -585.2436337)
(1516.877748 82.38437894 -41.80036768)
(968.5162296 -273.9335854 301.8858504)
(1285.713768 5.9958773 143.0201283)
(1461.418266 -280.490898 -218.9902936)
(656.8459744 1134.558463 -222.7925409)
(1647.004088 556.367461 198.8497109)
(521.7809046 279.9184363 761.4974984)
(1592.677947 108.7335465 -355.9588088)
(551.9125539 109.8136572 450.6004936)
(1291.533466 280.1240203 -489.6143331)
(118.8664124 633.3890571 130.4533296)
(71.69125818 -38.37076113 -739.8119838)
(639.442316 755.553124 -887.5448251)
(1500.224144 530.8283598 -614.5217112)
(668.3738021 1133.594976 -174.4722434)
(756.6241762 -236.8939632 -605.204807)
(1099.542635 460.0397851 1450.707697)
(1795.858332 221.2894915 -916.4974004)
(787.9522971 670.9228706 -187.0421268)
(1838.228375 -130.3354047 -713.5243638)
(307.3961197 -533.5919655 -410.4937904)
(1369.082832 228.2997994 343.7465476)
(1034.316415 -134.1008426 -953.373926)
(1586.178973 -734.595958 -747.4588196)
(1502.138341 183.9271375 -173.7507545)
(781.7310242 709.5919587 84.93503295)
(1225.331437 671.8348154 1093.795015)
(-179.7794219 825.7267683 -124.6156817)
(216.2331788 -240.8261199 160.9438724)
(1169.644132 -130.9493037 -608.3094091)
(818.0873341 1179.081307 369.9769372)
(11.32260847 -166.326766 -123.8612426)
(-343.8119843 -134.7318936 -333.1030285)
(995.8139648 166.0890656 362.7090926)
(732.7533466 207.3206999 -659.2924129)
(808.499488 528.1856561 75.62861818)
(1151.615476 187.7284194 -242.9418186)
(489.3910418 503.1687327 147.2803386)
(1371.276828 739.8787444 93.92669997)
(1021.101266 -348.7370738 -650.1991734)
(962.5658404 520.1254138 -185.8637205)
(803.2361971 -131.4724832 -446.9580614)
(928.3571245 193.5931069 -466.5239201)
(535.2757023 38.23759391 -1036.180177)
(1599.580495 146.2520315 168.1707194)
(2060.365181 -6.233752247 -841.4791873)
(1538.405634 -104.1977987 -218.1562704)
(287.1610528 238.0065276 -174.5440787)
(498.554413 272.5383092 -113.3822592)
(139.9821351 677.3235833 -153.8473596)
(644.3526876 267.8890378 -163.6592832)
(720.0389352 34.41470711 120.7611218)
(844.5578426 -110.7081621 -172.7384214)
(611.8831844 1148.527639 359.8726221)
(-25.76825983 205.9459388 208.1974603)
(1054.171687 295.2718553 1266.705049)
(-162.7556089 10.93823003 511.177943)
(398.6851469 849.7938287 384.6056474)
(1736.794624 -192.6258057 -488.4218434)
(1220.772611 931.8187185 315.563992)
(1675.800748 311.9442002 226.1212925)
(575.5122945 256.6531175 676.8485022)
(1176.179906 466.1271263 -1497.033778)
(1170.842867 -94.40571936 987.3408283)
(827.6516492 620.1905968 -1026.575862)
(355.0694838 16.78769895 -300.0667845)
(1322.657892 662.8237442 -56.01926501)
(1475.846472 210.1783598 -292.2209139)
(1255.51635 443.6220669 546.7599031)
(1400.92429 -251.6664963 -186.8227698)
(200.3804497 348.544744 663.1246722)
(338.1164216 1410.99284 -363.4816907)
(948.6141138 79.27643972 -814.031843)
(-654.6049025 806.7667651 -520.358321)
(1030.124689 -202.490816 -1217.167028)
(71.13366112 -195.3920201 -427.4423272)
(2008.790122 1046.928283 209.3925624)
(699.425883 515.6789821 -236.7158313)
(705.0493196 969.6181198 -372.1536941)
(780.8286689 725.3748714 -327.0301073)
(1306.382688 -449.2917578 -553.2611479)
(1578.37558 270.3440872 -632.8458012)
(490.098461 299.8209063 -6.568891604)
(836.2867484 -227.5012178 451.6534127)
(1299.741399 321.1143327 -162.9119319)
(358.9762863 686.1944449 -1541.042811)
(274.0074887 132.9097276 643.1459003)
(1210.628595 670.3831403 -892.9551802)
(500.2340178 735.5798188 -294.4147169)
(362.2587181 -640.5114202 1044.34841)
(1719.441067 769.6093539 -344.8477842)
(690.1391639 -452.5547883 -353.6618299)
(207.0975747 1071.576488 211.9034618)
(184.9389867 753.0790783 -1789.789987)
(338.8828109 568.4989337 -405.1334179)
(444.2443569 507.6862893 11.6146106)
(1509.977347 -19.5312085 1060.696442)
(458.0458742 863.3343462 -1043.710964)
(1242.385042 809.8971793 1389.788791)
(2000.580515 846.5963514 -168.9940284)
(1349.509692 1125.941029 795.2613332)
(116.4771974 345.5870313 -0.1660486965)
(-442.5029902 672.1259981 73.55106557)
(82.05754356 -92.08954825 198.1547477)
(1459.771387 341.7518745 10.60919121)
(1696.102402 -210.9055655 -393.4456193)
(2083.685547 64.66795319 -251.8448928)
(1512.885969 -449.6809056 -46.94623037)
(1400.151615 24.49929135 -402.6386788)
(1045.826627 305.0493632 -26.08718817)
(1258.435093 241.7877666 368.9829058)
(-343.5368588 252.6601345 -485.4840114)
(-146.3487387 764.4317524 -49.40177165)
(226.2180168 1197.240869 265.6570835)
(966.7169762 1019.897423 323.3606959)
(882.2959842 468.0463525 184.7299126)
(1390.62698 685.7365008 -154.8679809)
(909.2700794 161.8997987 -146.5970689)
(437.0837249 974.9896314 -735.2375454)
(146.2088391 820.2866661 -809.0123146)
(754.5979895 300.7276026 -211.0860537)
(1685.763519 623.9093366 373.9951045)
(444.1800249 162.0124139 80.95475754)
(246.5298186 765.8220711 -276.2062869)
(1022.807081 162.2044178 -76.75373037)
(1502.442124 870.5950298 136.3263816)
(1376.488701 375.3820987 33.4853882)
(1360.018553 967.8095827 267.0847218)
(1126.448172 653.8237888 -421.0866077)
(1285.916524 290.6875138 -101.3746809)
(1529.674539 -478.5719522 -319.4006821)
(728.251473 735.1650981 -73.60470391)
(1839.109377 671.8998617 165.4438347)
(1375.467712 190.9985266 239.6611951)
(1773.58761 549.9276368 423.4732539)
(512.3962451 1408.560552 238.3237107)
(1828.979886 101.4427402 297.6767543)
(1829.685916 -496.2492903 57.91129738)
(1525.935028 709.7422003 795.8885137)
(916.9631816 350.0713807 -559.7136306)
(725.8547859 1379.353974 -107.1156156)
(1174.952055 1574.594322 -560.8282694)
(-272.2432557 -242.6587105 -236.6636345)
(1481.747658 385.8540653 -225.1746357)
(414.2639704 792.2850687 1033.146013)
(1169.675708 458.662599 -473.6837818)
(102.1284005 815.9874298 -897.0822741)
(549.1260926 332.9640838 342.5478451)
(981.5058851 799.791258 -185.3087073)
(107.9053143 1245.578134 -1289.99421)
(-125.8592666 832.4207998 131.8582215)
(-15.38601475 443.3781221 -1089.490397)
(417.7576198 11.6639026 188.7627139)
(114.5237134 604.5078767 -386.1885638)
(113.2699511 460.6052081 -97.98070774)
(-144.2185296 683.5947306 224.1383115)
(-195.263748 661.2563317 -222.7652287)
(757.5129702 1152.979707 128.9761574)
(531.1822278 963.7854497 197.2137935)
(868.5775673 530.2166585 -324.9417973)
(1043.760986 96.3554729 492.8032457)
(798.2403976 968.5098906 162.0494872)
(2247.484071 145.0501608 -26.59644758)
(1777.75688 159.6779372 -163.2689202)
(2003.224266 -95.80255322 52.04584182)
(1533.504054 249.3194114 -121.8654244)
(1456.646369 78.55447596 -51.50181769)
(1045.895554 -83.99966 -64.86185919)
(1537.986126 146.3192054 -463.997952)
(1241.888645 -138.7530982 54.26341169)
(1088.525226 -112.1551275 -147.4819356)
(-22.84333008 306.295242 314.4642235)
(1315.519631 154.1107095 468.3997557)
(1205.628592 606.2058094 -841.0893087)
(-516.2967246 381.0239534 459.9402807)
(244.7116419 521.9909665 39.89635496)
(845.6480016 7.123275093 -108.575752)
(1223.350326 1061.236512 44.28315673)
(1215.418624 412.8290082 -849.0043499)
(1265.700415 577.299968 255.8257955)
(668.4961097 -523.4927155 -613.238623)
(1119.002529 -367.326265 30.73646576)
(1367.510693 -119.1596353 -747.2618272)
(604.5779561 791.5998715 818.3751576)
(2087.057632 -31.41724461 758.2129445)
(1425.467889 -844.1228362 309.3858815)
(1943.073803 478.2814169 373.7341985)
(1597.555149 259.0673443 -172.277802)
(623.0383565 1475.492162 388.0202881)
(1197.093927 -386.2649243 -956.6296998)
(1616.135712 -598.3298656 -286.6281904)
(1722.361762 82.26226665 52.39107149)
(1412.087087 -8.805230712 -282.6442414)
(1588.814539 -89.03660526 225.0646118)
(1519.742199 69.81016939 306.8707274)
(1811.512749 -451.9201873 79.68585133)
(1808.328427 -108.0519333 8.400951886)
(1019.45573 -825.3386681 -22.06364577)
(-281.3563739 108.2025021 548.7253838)
(307.0058029 653.8174063 24.0146864)
(112.4282875 945.5844416 487.2372217)
(447.0597696 642.5642848 -233.3594376)
(692.2060817 90.80463221 -281.907469)
(413.3990072 -255.5733056 519.145163)
(1128.492413 48.18455005 -236.0026724)
(1645.677395 -62.43848165 -303.9809016)
(511.0040995 1162.102708 -523.1087979)
(1819.70653 21.67322187 36.47827633)
(290.5452478 749.1104041 -429.584044)
(1369.115027 321.1301704 288.4722104)
(1383.345977 746.3318233 2.989830838)
(1455.176439 685.6263255 75.05821462)
(73.78135665 403.1311331 34.51561685)
(300.4995312 -80.90770097 -64.81790006)
(1131.000681 -257.3530467 436.5289786)
(2034.164564 172.0393847 276.2657029)
(870.5529379 977.7755462 -978.5663851)
(1425.669381 -240.6383859 -14.57972663)
(1409.251348 145.7666064 119.0263427)
(1548.090861 -1.04285419 114.1541364)
(1354.167779 -158.8735976 -99.84805674)
(456.0018098 178.1639362 -1426.23858)
(1702.671288 70.70660161 -596.1779606)
(1356.04257 -307.0649818 -488.781528)
(1466.887902 -120.6080029 223.9258814)
(1684.712735 -151.7194394 30.458958)
(1535.994787 123.9585768 765.8223063)
(-292.1338056 -108.8170751 -1197.204343)
(1065.596562 412.4788737 -1117.201404)
(1403.370289 -173.335949 157.4354877)
(1818.172693 -287.3448179 690.1428933)
(613.3571699 242.8782233 -764.871762)
(602.3672782 493.6389835 -733.0877573)
(1399.492722 -151.4771057 540.3949434)
(504.1407963 715.1101009 -48.426851)
(2096.868551 -454.1796082 -416.918746)
(1102.037947 152.4623275 -453.2437186)
(1361.171298 993.203826 1014.099613)
(1434.654042 339.8981423 -175.7185848)
(454.2222158 893.6911212 710.6420396)
(787.1525591 62.70465189 800.0972459)
(-140.4746434 566.7813596 -205.8148778)
(-280.6480873 -405.6531586 427.7775154)
(1244.500964 -129.2937685 -122.8661416)
(1448.605741 566.5911543 -1260.934514)
(1450.964459 -841.0954163 -508.443549)
(1036.228135 665.4559926 -113.2196663)
(736.6056623 385.2635925 137.6005183)
(413.9200504 337.0667984 -437.4455206)
(1423.922982 -427.8056339 361.4076731)
(1704.523805 -194.328132 128.0478363)
(1097.002965 1051.119484 -902.3475891)
(1793.88897 -312.7098265 -195.6052659)
(1022.614486 374.8414951 392.8319537)
(1753.809083 -32.42715601 -172.8138317)
(900.3119457 665.7942413 -444.4120546)
(1882.680113 -115.2397959 -108.2266819)
(1693.960232 830.9551376 239.5163987)
(1451.083981 191.9049571 176.0349541)
(1731.540581 -104.8026233 -0.5263449985)
(1382.487731 -101.7142203 170.0185554)
(1410.772708 20.18050099 668.2075524)
(1786.792221 -328.5685411 -61.91735605)
(1843.426503 25.06329646 -89.63402028)
(1652.545607 -23.14519806 -518.0196614)
(1782.608724 382.4686198 -333.5364317)
(1280.511251 213.8298112 -525.0594132)
(1172.61058 57.65239091 16.50896874)
(34.50941071 1385.605593 202.7521855)
(-625.2413129 692.1003926 -12.01358231)
(1998.065606 1053.012327 -161.2621437)
(932.3619478 838.9528926 -117.2756997)
(-132.9375491 1018.032444 -794.9543322)
(2239.81707 51.01551847 65.48521477)
(1431.954997 -220.3936954 669.8055877)
(-120.8930766 1348.40417 274.9679429)
(766.985799 550.4937772 -177.9995856)
(-503.0609501 573.4199274 517.5170004)
(1102.827503 -866.9893412 412.8715996)
(1052.704536 320.8088067 -29.3658043)
(999.7482656 362.1024629 218.0052696)
(158.3111886 -254.1477632 -30.96465615)
(661.0671865 790.2612184 -197.1405091)
(1695.641576 290.8801785 -871.6191649)
(1612.666474 -352.7586704 -456.3467204)
(1005.538561 496.9038098 850.5618638)
(1433.881303 243.0462497 -139.3256958)
(-59.17947907 877.9409213 -477.3756532)
(1662.125728 132.2471963 131.19076)
(1847.422798 -88.36736698 -437.6062614)
(1503.077888 510.118069 -224.9170378)
(2089.956023 -152.7074973 106.7656751)
(1617.87702 739.521184 -1344.334441)
(860.129795 648.9390962 -882.4694101)
(917.9043674 -784.2309644 443.5416239)
(1046.880998 -269.9614189 338.9325655)
(1679.106883 -311.7754986 134.8024281)
(983.8448677 611.095573 -123.148894)
(1907.574765 332.6010194 190.4291053)
(2017.275868 -430.2371028 572.3159673)
(1140.478667 -181.9129604 125.8201993)
(1864.400736 -90.94582863 448.351825)
(1450.390596 481.4980815 398.7965953)
(77.16315379 975.1604222 481.5338473)
(1789.542021 3.264566065 46.33339326)
(781.3180429 307.9858865 -701.2019157)
(1062.782965 533.2198319 85.87931605)
(-6.084981386 411.3765059 376.7397337)
(315.5678529 -58.26547073 -472.1192985)
(897.5935135 -122.7317356 534.5744122)
(1033.028633 -230.3147137 315.4578751)
(1617.17288 323.9904047 -351.7418762)
(473.5068824 -367.241828 5.38754624)
(255.2566127 -27.58630717 -238.1732617)
(664.8047692 762.1781111 908.4686403)
(1306.870411 -29.61631468 -102.6562789)
(1238.489719 -169.5317452 92.16539358)
(1787.775002 463.9581556 -79.33868275)
(1092.167155 -60.51532895 -45.59362231)
(1663.750798 876.3886294 -518.8221326)
(1404.855488 17.64914999 69.16372436)
(-445.8983513 422.9525922 -813.4728678)
(2105.090366 275.3220352 -60.23668849)
(987.7518057 1186.789068 -160.0356172)
(725.1096866 692.6080778 211.7059992)
(901.619701 433.9704767 340.547502)
(573.2821215 509.5309332 224.8706951)
(370.9863484 129.803763 -35.36025743)
(1333.584671 154.0243099 -192.6914168)
(1594.315245 -495.9610236 -633.2881914)
(1403.42697 72.03695325 -652.015926)
(989.7345435 529.6921289 -186.1289927)
(1077.260776 68.89601362 696.1068584)
(1187.940127 -169.5795129 241.0103732)
(1790.72007 -266.9402556 207.8828332)
(1782.587398 -357.5401228 402.2486284)
(1366.464068 -309.0820821 -39.40370137)
(1725.182899 -113.5181983 -357.0550398)
(2044.805425 -225.4103342 -33.11597752)
(1344.154606 642.337545 -312.818844)
(1729.874505 82.93824444 517.6076361)
(1828.798179 -41.56291326 -92.19011078)
(1591.468075 -98.52005389 -54.88825994)
(1894.008383 -62.89709998 -222.261005)
(1442.403383 -750.9817425 -52.60107501)
(1437.984508 201.9850904 202.9292206)
(1628.624551 -95.58042143 -134.5958625)
(1459.398594 134.9967614 -134.3770938)
(1417.177306 -132.9804598 -68.06471279)
(1615.875741 -132.8001017 -121.401045)
(1464.916112 -373.2356715 12.01401838)
(1285.222918 -707.3910404 -147.6376068)
(136.5845277 722.7823005 -220.1231995)
(1666.576226 -202.4888788 -682.2025533)
(870.3310514 819.9773503 -241.8947596)
(-347.8220995 809.674961 -116.8485912)
(214.9472209 -499.4703092 -718.0421988)
(1834.945861 158.2623669 521.8537815)
(2108.698468 774.8503672 15.53156977)
(-39.4530036 386.47879 -37.56062766)
(1779.503785 524.8643276 382.6247855)
(969.5027202 -286.8522969 -241.0556188)
(118.6544917 196.1635025 428.8282517)
(209.7774305 887.3260638 205.2469573)
(583.5184382 906.8442935 -20.3449445)
(1582.062391 167.0337461 -146.6012622)
(1478.55441 -351.3932845 -797.5317279)
(1608.214879 -476.5954526 1209.38044)
(1013.124656 311.3587801 -556.9632163)
(1858.656487 49.10548789 -272.3805528)
(488.52548 -789.6230414 304.0338077)
(1481.965274 234.0723821 330.7869963)
(1842.523671 40.60741695 589.0590516)
(2013.802623 47.35421242 -226.2378217)
(434.4707808 -140.229859 660.0689454)
(-151.6777839 -326.4667385 642.7256221)
(1671.493574 214.7750387 -79.90905977)
(1987.856423 664.418521 24.35141884)
(1161.556289 -117.5243745 -76.38575029)
(971.4578903 663.5805518 -90.83102233)
(1030.02098 -724.1236021 322.2279925)
(1713.557369 394.1737496 -182.9422046)
(1794.14926 40.43322577 417.904674)
(1297.610685 -73.79025876 310.2182319)
(1325.332909 -221.5015313 -247.4379909)
(1391.593008 -392.5177889 -116.310993)
(1660.000053 37.19563266 -165.7424162)
(1743.736822 -308.8437219 299.7494492)
(1623.88467 196.555483 96.55179589)
(1681.904042 7.236964697 -335.8565414)
(1609.712799 -157.9329554 -451.1711158)
(1543.344317 401.8179672 17.90559465)
(2309.835199 -5.191930859 -127.5534958)
(1741.172467 587.6177316 340.9378944)
(1933.742715 298.36354 -165.3063106)
(-498.3503897 98.42975251 -484.7939645)
(917.5952399 -747.5163529 -529.9336868)
(645.3845702 204.6943906 -368.4675125)
(-253.1701668 611.1275228 -507.9273728)
(-304.5571484 962.2412682 1336.717378)
(-438.4634433 260.0039507 1269.086696)
(1929.514394 474.7528136 -174.673641)
(656.7877945 -298.4467552 -704.1087498)
(229.216238 1152.391322 -698.6452075)
(401.1272515 91.88324121 -541.730918)
(862.4084545 389.2232978 -382.2274051)
(668.1675953 -407.2421494 -1.83191327)
(1203.376304 143.2041766 640.7675452)
(1999.910347 84.61422606 -383.8362493)
(1690.906435 150.2468123 93.07256196)
(181.7277375 1468.490378 936.6916284)
(1473.676533 107.2107536 37.80536129)
(1787.704413 212.5959614 -120.768752)
(1099.724823 637.5759609 915.4102764)
(1319.580187 306.2539947 341.504371)
(1224.46142 484.6669195 502.1117413)
(366.5242689 -536.4811909 -246.5407122)
(1009.910736 757.8113427 631.7925387)
(1366.172254 108.574054 -9.896587136)
(1693.239952 417.5348413 -397.295291)
(1651.731985 434.2160788 -467.7359204)
(1053.121783 704.5450143 852.8859146)
(1549.353141 88.01108641 236.7785359)
(1701.724936 231.8880277 138.8819351)
(1140.828132 457.5628246 -108.6752891)
(1866.574801 245.5722949 210.8539444)
(1363.460083 -81.16491825 70.34992653)
(1647.468822 -1.309712367 -336.9298084)
(1676.266467 -137.363247 -187.0725741)
(1837.312542 -260.2123864 351.8626431)
(1285.929813 124.0114573 62.70240368)
(1499.861868 171.8671781 -55.38060967)
(1613.641837 285.1424442 662.6975038)
(1720.113881 -294.764498 -71.9851324)
(921.2079047 -439.4798966 -79.87872738)
(1673.888097 -119.3275251 -37.73450763)
(1375.770388 -390.3469854 173.7314049)
(1796.229581 -537.2106829 -418.9539156)
(-649.5396372 108.8880217 416.091978)
(126.4838751 253.3156686 79.83427514)
(66.30718475 386.4834009 108.3673725)
(1316.489543 798.7155593 609.9850165)
(1394.694095 208.000966 -1160.952675)
(205.4615964 1161.448426 -816.1427102)
(1428.393339 372.7196293 376.6069245)
(471.7901358 1252.335231 211.6405336)
(1303.953508 668.0520705 -740.1025088)
(1601.694484 564.6591236 605.1331206)
(97.69526915 168.4460218 -740.8000659)
(1133.723479 915.7473196 -290.9480529)
(387.5634369 78.32229358 -330.107)
(257.0491614 536.0965485 359.0831844)
(1791.626043 295.8053718 1.144523145)
(1333.945343 889.6833476 938.2146271)
(1332.960542 318.3825255 -423.5917768)
(907.1280545 1110.285773 -191.1463265)
(747.3695156 -455.7250006 1093.542182)
(1408.359158 1025.718945 -596.448074)
(1233.592646 252.5186048 338.9831655)
(1674.478092 -213.3834754 -358.2337234)
(1210.165525 -30.74651282 33.85206425)
(1983.335548 839.7915176 415.1755925)
(1383.486049 -30.74319833 443.9571217)
(1621.31452 -871.0877248 102.8708185)
(1913.731696 -24.40027281 85.32665623)
(2166.875754 -266.0412808 571.1079134)
(1979.977412 138.031625 -189.1856847)
(1628.516435 463.8579978 -95.25969659)
(981.0965911 191.2386603 31.43756197)
(570.3220023 779.4255804 -357.7666041)
(285.2151184 973.1907965 -871.073277)
(946.7588405 494.496388 1244.029266)
(1277.879309 220.2529448 -505.5777497)
(1191.833047 604.2985475 -1020.292518)
(971.0799246 -612.6209402 265.1423183)
(1349.223919 -367.1354622 -11.56689552)
(2203.785462 154.6286379 424.1176676)