/*--------------------------------*- C++ -*----------------------------------*\
  =========                 |
  \\      /  F ield         | OpenFOAM: The Open Source CFD Toolbox
   \\    /   O peration     | Website:  https://openfoam.org
    \\  /    A nd           | Version:  7
     \\/     M anipulation  |
\*---------------------------------------------------------------------------*/
FoamFile
{
    version     2.0;
    format      ascii;
    class       vectorField;
    location    "0.009/lagrangian/dsmc";
    object      U;
}
// * * * * * * * * * * * * * * * * * * * * * * * * * * * * * * * * * * * * * //


5369
(
(-120.2279155 -100.6009759 -147.0610696)
(50.28618825 293.9305475 -651.0900081)
(-387.6249586 -183.317876 321.4701173)
(-139.7196119 -145.9656289 236.0057437)
(-591.8752954 770.4744352 -303.7772937)
(-161.147623 53.14295995 -58.62555537)
(-7.271010119 375.8711967 494.386004)
(-332.1028014 -58.75129204 198.6274814)
(-370.3428332 -29.70196701 -291.0230863)
(238.4897901 606.8344325 377.5864987)
(62.25072491 454.5712953 -204.446164)
(-363.4193727 -86.11391015 -348.0781362)
(-90.62395135 -475.2378476 -93.5089188)
(348.7092707 400.4415442 -34.58386699)
(-9.074610025 -12.38329616 88.00106221)
(278.9000669 49.48817337 156.2329345)
(-1098.011425 -216.7314196 296.3991464)
(-51.3287458 -493.6083926 426.4034841)
(361.7530878 293.6561261 518.7439007)
(-236.2859968 33.61090032 243.5447717)
(-445.7030441 -141.0207889 48.59591032)
(239.7480756 -18.03166863 196.379684)
(61.38544165 350.5306874 -42.26477849)
(107.6049479 -21.96361013 396.0218316)
(639.616249 161.6740571 280.5223354)
(-693.8309818 296.7903177 -90.33529299)
(637.9478044 -522.9740572 -224.9440431)
(-71.65296792 250.0207215 645.6873938)
(-20.85253631 494.1977971 -55.32492514)
(-171.3387681 -162.1209018 99.52078145)
(141.4151419 0.300198689 -19.05517827)
(-25.28680593 18.91199862 -97.70183638)
(32.62321203 82.6437998 64.89888859)
(92.76462187 802.9941013 49.27840931)
(-68.84440074 -249.8411094 -546.7408039)
(-49.45144641 104.3375229 189.8454746)
(-108.3065038 173.1777674 -146.1314444)
(123.3025321 -118.9709311 -44.74836167)
(-4.089186735 -63.95514843 5.060037929)
(-611.696199 102.1753138 222.8414265)
(306.9683054 806.4564042 -449.0317928)
(-152.3972216 -85.85664868 -648.7430831)
(265.2483209 21.12675859 765.3222212)
(44.47949902 183.9868414 -52.22943977)
(-588.1568265 277.0047762 -515.757872)
(135.11482 247.7216127 -484.6268099)
(377.9683121 65.79195111 51.12266481)
(-538.8490628 429.278617 57.48383969)
(-3.415809305 -356.5144703 56.4442401)
(-517.7971535 287.3470802 249.2413937)
(-77.43662167 -428.3185312 -41.20934259)
(372.3169705 26.19458397 -24.89305229)
(279.8557019 -221.4747745 -295.5193061)
(795.3349781 -66.48843114 -180.1886619)
(161.7072352 -134.0513728 -1.412913233)
(99.21105303 75.46821186 192.3921243)
(36.89025923 11.31859493 -311.8080448)
(351.4713549 -15.17787142 -344.1369299)
(85.42169604 -117.0746942 -124.7665441)
(18.69342138 -579.0555263 -212.682291)
(99.94940253 -8.789252574 -167.163834)
(-262.3886959 -346.92303 277.666332)
(-361.9000627 484.1704318 -86.30929406)
(-298.2719217 128.0094332 89.52629396)
(-519.9878341 -6.396377056 -460.9146147)
(0.5999315414 -112.3857131 -47.25772969)
(-168.8790253 455.9726626 -150.40539)
(153.6945527 476.9358 -282.2235298)
(-21.78363066 191.4867948 -86.1789684)
(314.8449889 -106.4391887 -473.8750761)
(81.65813352 -8.660799007 88.08509377)
(-145.0809852 234.2953952 173.9485349)
(-316.0361557 366.335833 265.3814138)
(266.7033527 -222.1892002 -291.9214741)
(110.2464145 404.755842 -228.8149675)
(-391.7013194 386.2124629 -201.2802416)
(-366.5001187 532.7339568 68.48503331)
(-333.8588359 228.0710279 -14.47975742)
(-200.6147578 -320.0695723 -262.325174)
(227.8163079 -193.3348805 414.349482)
(74.19782851 -153.2755426 100.5822546)
(-237.0593895 11.81985916 133.0940052)
(148.5341738 -411.4657249 144.3895536)
(310.8630084 271.4779613 400.1523723)
(459.5440234 -350.4925219 185.1619674)
(28.60123795 78.79397713 570.2107351)
(23.00527526 372.6928921 557.5338455)
(33.434113 1.508656871 -161.3942009)
(-128.6374779 -51.98812277 -149.8546137)
(127.831858 824.9909971 -109.8742197)
(23.80829326 205.9484786 -466.5137653)
(-536.6992214 217.295837 -578.0683186)
(75.25903776 21.80474928 393.9839608)
(277.3734518 -319.1273662 113.2054868)
(165.574037 29.68851665 -334.513475)
(6.440790879 228.0024274 376.0078891)
(70.0273079 113.3644618 350.7423305)
(-563.2121676 -439.5286738 -101.3926056)
(-308.7077113 438.2860956 144.2174982)
(95.49735593 432.854395 -157.7868942)
(9.20558318 -48.40583079 -258.7381436)
(177.1389596 -385.027736 -205.9630034)
(-379.1986963 -523.5401947 -478.3930771)
(389.1428225 -200.0049345 -138.1337116)
(-33.25184805 -576.2437122 543.4164985)
(-72.05541414 -285.4062204 419.4088306)
(-273.4447644 739.6037605 -219.0296851)
(234.697391 291.7409307 59.31466108)
(131.7210808 -32.02975062 334.52988)
(187.5524447 -576.8242872 247.6529498)
(352.3832943 -38.44040575 -175.8099618)
(-115.8957716 -789.4365416 171.9845212)
(96.7658693 552.2213102 243.7882838)
(-584.6918029 133.5843578 126.7977908)
(42.65822319 59.79304723 284.98458)
(296.7154591 -204.1800966 -489.4874316)
(473.0273791 165.5834784 -503.0483196)
(161.647353 36.48581893 -400.146907)
(85.26729217 -22.33293963 94.72999385)
(-314.6565401 -136.9613449 -722.6267246)
(69.98053116 -150.5563948 -606.7482853)
(-54.2284147 386.3810455 -312.7941327)
(183.4812696 -295.3830407 172.4923141)
(-11.86003191 363.9908454 -187.6870215)
(-94.13183058 -67.36321802 857.861458)
(186.2044224 518.0152241 -542.0895974)
(107.4217579 -668.6939862 285.7770542)
(695.7931129 -37.16499578 105.9437268)
(-78.64109805 -346.0856795 -381.2549602)
(-121.1677248 318.6298233 449.2995352)
(-122.8038365 -489.2984027 305.1724377)
(-77.98050276 7.304407614 -10.34898814)
(31.71735383 -351.1980623 -273.5636511)
(-28.16196941 4.931781456 -333.4334485)
(102.6291515 -261.8170508 -46.71595594)
(-122.361218 -142.0646465 -12.38348706)
(-267.237142 -106.9297324 -188.0528642)
(211.0140906 354.1145738 -373.0422047)
(267.065702 -210.1669408 61.85479128)
(-251.6689314 506.3558057 202.0325618)
(54.15274481 316.1293774 -2.848121133)
(-32.12959259 783.7401599 195.1654827)
(254.5768214 -413.3194047 92.37048448)
(-614.4326987 109.6595034 -141.0648221)
(0.891982339 -56.17046422 66.13267161)
(-268.3812302 69.05495778 189.9571772)
(230.9749071 -113.2117351 -422.3649187)
(242.437618 -66.01810989 -45.61936652)
(94.95687198 -244.3167257 72.09007761)
(-467.1333056 -230.3885375 244.1084183)
(253.1620426 -272.0174536 -138.4630589)
(270.8595819 -212.01041 159.2236591)
(-302.6232993 -391.7822366 -600.4081135)
(332.3082287 -280.4512414 214.8054442)
(173.529774 -540.5648017 74.23650834)
(235.7961007 55.28906985 477.2646619)
(-83.39249323 36.82193863 246.7100221)
(402.330731 -75.75242012 86.50099035)
(535.2412399 12.71055619 -169.0386142)
(153.9457391 -23.68845049 -141.3627892)
(456.5128259 -223.9716884 -167.134163)
(-627.87842 164.972428 321.3719258)
(168.3105396 59.86371755 -47.29883258)
(36.62861297 -29.66509259 -354.8799763)
(-426.0922106 323.2374076 -342.8692786)
(-52.53685957 -406.4525984 93.45983633)
(-201.758026 184.1357283 -107.3173167)
(299.9472191 -178.0735921 -727.2171846)
(-226.4647677 -305.4650958 68.04112597)
(169.0741756 452.1385918 250.8585319)
(303.3085971 524.4435477 755.0839482)
(317.1849405 130.0113822 -319.0877872)
(-142.155092 -366.8498183 -492.3503827)
(168.6187609 435.8818638 293.8910943)
(480.756668 -348.4422141 123.8934904)
(59.02053244 241.5943198 -64.65300081)
(-115.1126002 -502.5657098 371.2795582)
(-3.800526152 -3.928724359 356.9695559)
(152.4871337 440.3445639 95.61804647)
(-237.335904 65.67677371 -204.3354463)
(204.2777198 259.3925027 284.0884533)
(3.26385954 62.86669368 -292.8468432)
(-562.7264213 -62.14755671 -6.092840098)
(-362.2297137 -8.835885135 327.2803015)
(43.11713805 254.7094789 80.17621587)
(-244.4170603 373.1010333 -56.13205094)
(322.8867764 -99.9691961 -141.6691209)
(34.25401367 190.1060959 -110.5329659)
(314.906323 255.2798899 446.9236353)
(-427.2082439 -347.569446 -469.969748)
(-322.4724957 -211.4574784 49.84132146)
(-497.7023262 208.7014522 -184.6246965)
(-124.2858754 24.08736271 41.72492454)
(-453.2759493 -232.5260017 -294.0745291)
(-237.2999497 -8.566578988 188.2083679)
(-481.4612238 93.86120537 38.62455644)
(440.8780158 115.7948391 -66.77273258)
(-154.8887347 -75.77804516 -213.8770405)
(-18.20056594 -250.4224137 230.7854971)
(54.92300591 -41.59255274 -148.30458)
(174.7828538 -598.1665758 -348.571949)
(328.1726832 84.83133958 -54.27641656)
(32.89581515 -340.2368766 633.454794)
(-574.3039365 689.2392083 -8.036683803)
(263.9220232 186.9525397 202.9149124)
(-121.6127731 125.0413223 89.81395444)
(129.4539266 555.1146778 -71.49402149)
(-229.4993077 157.609398 129.7047052)
(147.2579508 -219.6626137 -362.8004057)
(492.0865989 400.1118322 458.2494598)
(-283.2930443 271.0680099 276.1801229)
(299.8003941 150.5194697 -105.7492151)
(-695.2727298 -97.36021607 -246.283584)
(728.8006178 457.3029835 -54.81670792)
(-281.0784416 -9.716860183 -567.4737939)
(-13.37353461 233.1657943 -51.17883998)
(8.930668598 322.4236374 319.9068004)
(-271.8608684 322.4339257 -1020.523136)
(-298.5906654 358.8647189 526.3600046)
(25.22022356 78.87957892 -158.0657976)
(696.5098399 88.31139019 -519.3695193)
(-314.93116 605.7510183 -62.52746687)
(427.6020455 105.9692325 -231.9065775)
(-126.4547994 -570.6493963 -92.73886678)
(-301.8166487 89.49399724 261.9188017)
(78.64690115 -192.6036087 -61.89241847)
(273.3922424 221.4409444 98.22097544)
(142.3264157 142.7661259 68.44118633)
(-479.7338659 -7.248621828 250.373036)
(212.0784007 53.92384449 159.4923744)
(413.3633638 26.6720847 241.4917728)
(-144.3527945 299.3258259 -163.2889827)
(-672.537832 -131.1110008 152.0325426)
(-177.9392886 405.5649331 -250.8654966)
(433.8274938 20.52282955 34.82862156)
(779.5406805 -13.21543236 203.6255821)
(269.1318995 -581.2323313 -88.43775553)
(62.82370038 -52.18867829 -8.667804202)
(-28.76711911 -190.9597015 13.55010127)
(-553.7997539 469.7792454 -189.7524445)
(422.0330372 691.6875986 -184.714792)
(58.85410566 -118.8693885 520.2543525)
(-145.2450004 100.6929419 298.4310516)
(183.6710217 -48.15597156 -203.905259)
(178.7803291 -179.932632 -220.5334588)
(-391.3383158 63.4193644 139.2563743)
(153.7831585 5.581353957 26.75660857)
(-132.2820454 -80.58739203 276.7240453)
(247.1689605 -30.65239559 -103.3660191)
(110.8524852 195.1675004 -230.8055815)
(-489.054757 -67.25933256 -161.0214159)
(-225.2147706 -48.86519462 67.59563914)
(-142.980548 -52.973508 -299.4324428)
(370.7181214 237.899369 339.6124697)
(-84.41225045 582.0439292 -224.5707797)
(-287.6679113 243.2349654 1.585369448)
(-335.1738948 256.286413 367.2269299)
(-2.965591557 -107.2552443 -88.10035056)
(308.2500338 239.977167 1004.482648)
(128.5466926 122.2098703 273.8517655)
(-84.59817747 -408.9830592 -193.2857012)
(322.8043719 185.114837 -32.18373257)
(-95.84856823 31.15965489 487.7087838)
(-65.1392992 334.3894364 136.6778272)
(367.4547462 -314.4096665 506.8440512)
(314.4044929 325.9640831 244.7122683)
(-46.11108676 -71.13858291 311.5324565)
(312.4603036 85.18930063 -6.703958615)
(519.7896049 112.0519695 286.6660062)
(-162.1163599 391.6244067 641.3424065)
(-84.96187807 229.5240542 58.43366505)
(-34.79492982 526.0291729 -109.8966729)
(122.1189483 35.11709408 21.03095017)
(-299.9837804 174.7528744 -124.8868144)
(-54.2734549 -208.6508706 376.394372)
(-436.103701 -330.089342 -561.1390036)
(355.4473903 -350.6850261 106.8640088)
(-167.2104549 291.5549399 -329.2561734)
(-660.1165981 351.3268864 408.1631663)
(46.50895119 150.9221503 -231.5362564)
(-240.5605059 398.4832641 475.714415)
(208.397032 379.8054424 97.80589138)
(-162.7566732 -197.4410964 -190.5648111)
(-541.4228395 -652.9020397 -251.0049903)
(-250.8742181 23.84738914 241.5677312)
(-131.6448942 -242.4239771 -164.9911435)
(-210.0649121 44.8884321 103.3563175)
(-321.0107038 -123.0768883 -492.4057178)
(617.4929715 -476.4299631 20.09698352)
(-799.1424997 165.3900388 324.7751358)
(582.7517144 348.9090947 62.56010738)
(395.461428 106.7010127 -131.8667787)
(-313.0067884 32.2688574 255.2024599)
(-117.948086 247.0948558 149.5879933)
(-432.5978214 270.4247285 -223.6031332)
(317.2899637 510.4077257 -207.94862)
(-54.3063313 -526.4831147 -184.8873113)
(340.8471515 -549.5363085 -177.3335977)
(306.1873995 -142.0391627 -100.7836829)
(364.801135 279.1903622 -21.66248862)
(193.5288059 -207.5217206 203.554181)
(-499.8637773 84.299152 549.8736682)
(-119.8934128 -278.8658228 -534.681317)
(48.76344626 -127.4175819 459.1315003)
(251.5791645 208.5890636 -85.00171297)
(103.7881836 -301.9068994 -242.7807727)
(299.1606694 595.0280117 400.9751689)
(-240.7170575 -82.93276213 -36.8643571)
(-334.0110754 441.088362 -127.3646272)
(-41.31633081 -557.0723022 203.6516081)
(455.3984032 427.2034623 -252.8425404)
(-182.8435675 370.7489149 -301.55918)
(377.7309027 260.9741772 243.6237033)
(-38.97356666 -197.0734812 -204.2119074)
(-205.4828763 37.88420168 191.9319029)
(317.7014833 58.5875727 137.4557433)
(450.257055 320.9909519 -280.2995715)
(121.230344 129.3249676 40.78053301)
(96.3121171 348.4869975 -784.4157318)
(-582.301811 181.5849008 -580.297175)
(63.97162341 329.7089802 212.8633138)
(581.958174 113.6068553 305.4375334)
(-176.6700531 -211.2257972 198.3166166)
(-163.5238671 63.26322065 140.7655477)
(121.2897163 -138.0186396 -396.3801805)
(716.5813399 273.7689679 62.17473295)
(-135.2382548 166.3170484 910.1839548)
(-22.09778237 70.27840963 -367.8883281)
(-734.4172221 -197.6852449 -241.0690541)
(25.37941128 -101.5354932 -242.8420772)
(-507.0830987 -237.9259045 -281.719879)
(-119.4488293 -247.4496346 16.96282965)
(-114.2034331 -514.3404291 -38.75036631)
(216.2495446 -357.3724448 249.6290904)
(-593.5744484 -131.0231074 -574.1036588)
(-4.793114484 -56.6754883 542.1289753)
(83.16179975 81.94361047 505.2879916)
(278.9047707 673.034916 -168.378543)
(194.1046704 -104.7429276 368.1541064)
(-120.4560044 -82.07580392 -455.333359)
(-53.0246172 127.4965374 -402.9013643)
(-429.5917816 -255.5316731 561.5704928)
(-136.3403851 -109.4895837 -129.1184212)
(-199.7698126 -444.9425618 -373.0203351)
(-304.930488 -256.4630116 7.188046671)
(-290.8128105 -285.6066396 547.3298161)
(416.1813061 80.47620868 -53.97108734)
(328.868717 416.0938301 -19.5232854)
(173.2424242 152.2406316 149.6919004)
(91.85408014 -471.4389863 282.3263694)
(306.038729 118.8473675 160.5076245)
(-405.2455711 448.3079391 -251.575821)
(-557.4251919 -235.9992838 -359.9911856)
(-369.8931777 202.6977655 -461.2870735)
(-108.0231709 363.3695955 -74.29751394)
(36.55518599 -321.8132821 359.0259785)
(-417.2528623 67.31308933 467.9930703)
(-17.23298938 261.9906763 -197.2746139)
(-91.4044069 -64.62876294 -355.5972538)
(-201.0252314 420.7929389 414.1712261)
(300.2324278 -173.5208102 237.2164577)
(184.5721933 195.1369266 -160.5634261)
(-114.8614552 -449.6615899 -405.597493)
(497.4264497 79.98235099 364.3398516)
(-33.80175018 225.4642703 565.6194218)
(187.734245 645.7207197 262.768756)
(156.9124368 118.1599624 -42.62028215)
(158.6152375 -44.49131224 -236.9976097)
(42.77244179 -7.424520795 -64.90430526)
(395.8809259 331.5203318 22.70531658)
(-77.40565245 -768.9947534 381.8260463)
(195.358263 -66.63613439 41.57315148)
(190.02176 -421.1809755 -62.6803261)
(-95.91985204 -168.876539 156.8998477)
(57.32290309 -78.50929303 254.4638098)
(4.002101858 -108.0610182 -592.753822)
(432.4501676 -170.9042236 -139.8182113)
(91.10474935 -427.8985674 -4.183007663)
(86.81778005 -601.7865328 -194.9722305)
(-471.7708575 -179.9721385 -402.0216996)
(101.1942124 -275.060451 -265.2266266)
(-413.8177609 292.8942547 206.1900439)
(-103.6233254 -187.9014523 -494.8545978)
(97.80255669 186.3274653 -208.7764399)
(-466.4448295 622.4138366 102.4839656)
(231.9750617 -111.4633323 -317.8101269)
(-104.9727227 -108.0777049 -283.8546656)
(3.751187558 -93.88524725 -91.6258729)
(320.1928363 396.9774313 145.1441458)
(262.6573967 -252.0392457 -260.3688575)
(210.5409491 -532.8505845 -68.88896488)
(291.7644603 577.6187432 -68.75450638)
(-129.073497 -249.4544919 -4.923051558)
(77.2656631 350.8172585 511.8289046)
(301.4279127 -106.1020296 104.3718795)
(-210.6847617 -24.07141603 -242.1559321)
(510.0256851 471.4469429 494.8890328)
(-217.4356134 271.0200006 -462.0520044)
(133.6226361 -227.8600255 26.4225746)
(-154.1466577 -273.8489554 -414.9588017)
(-365.3719986 -33.20916065 -459.1257159)
(-280.6224335 -266.2391849 -34.16932001)
(-227.0530417 243.1522185 309.8195372)
(74.21978474 -388.0714355 241.7277597)
(194.8788327 554.9833732 86.98994531)
(-512.3434013 130.2298449 115.5458389)
(-137.4069551 329.6787898 -344.5999744)
(293.734691 432.3525906 176.6400588)
(360.8769622 -7.985810728 372.3541487)
(-52.8123973 522.8964688 86.71423666)
(213.9998389 -107.3664548 446.5769834)
(0.5269022334 -22.38291048 -70.53800966)
(-269.0119585 -39.49057917 197.3262612)
(-179.350632 -513.432148 15.22020045)
(-329.4900454 257.1650864 -93.01862819)
(107.2075392 429.5576582 -471.5015401)
(101.1426362 169.9441012 472.7592695)
(-450.4900856 87.54302266 -238.3802892)
(-696.6558457 384.0556822 168.2075482)
(-512.7330759 37.95238285 -393.8680692)
(-8.112460464 372.4427276 230.0891994)
(-512.85264 227.7090861 -192.0840593)
(369.6964666 276.6846149 98.50169639)
(339.8754416 -608.4162503 -23.84360301)
(-636.8291938 109.3314219 -470.9307238)
(-497.3703485 -26.21909374 101.4729503)
(40.41121164 -430.8176358 -410.2685109)
(157.3399141 152.8103198 -27.11526016)
(-329.9754639 198.9055331 156.458515)
(-475.7875127 -114.734403 385.7691337)
(-511.403603 -534.5194996 270.685266)
(8.166835398 -263.9408816 -67.61654279)
(-464.4967919 -195.2469241 372.4694894)
(-145.0448045 138.0621397 -274.5684962)
(-420.2337872 85.12693321 31.94215054)
(-109.0937399 18.58155045 -315.7974052)
(-107.3429361 411.2652934 227.6421282)
(215.5626267 289.3387565 249.0228459)
(-105.9939485 335.2287825 -282.3061953)
(154.0190302 -10.10662226 -372.4500221)
(139.6165301 -97.17038474 -148.9469212)
(-577.1798171 -35.92778732 -368.5039657)
(300.9194699 -280.634976 -37.9305178)
(-351.9574385 123.51569 182.3521074)
(-470.4475667 131.0508689 -133.9769987)
(53.49000782 243.313098 295.7812056)
(-146.5496596 -189.0388201 -8.277217269)
(-203.0179459 -126.4837748 -409.7426063)
(81.2471933 134.4504495 173.31748)
(-758.5220696 -395.5603474 673.6194387)
(-36.2049795 -233.8568681 -578.789334)
(268.8422456 252.5414435 -411.473577)
(-369.1288726 96.43593632 -427.0027727)
(466.104477 -81.14460492 81.42092133)
(-97.65006242 -56.59911525 -16.64766454)
(233.7474837 137.6489891 55.98538304)
(156.3703048 -286.6821069 -144.0211229)
(-246.6753993 -57.20577482 223.2435198)
(-31.6940041 -212.4907454 -222.3805887)
(128.6822357 -334.3297393 172.1813384)
(-127.8758578 -280.4299758 -61.2155964)
(148.8397209 74.76042036 586.5416861)
(602.2509875 -128.1101064 15.10138954)
(171.0791609 -433.3259364 -119.0366658)
(-44.37710487 -73.55664997 -183.9306821)
(100.4495808 230.9779081 -391.9800989)
(-601.2203289 -244.3412442 -91.5989162)
(-49.59351312 -105.8018074 -201.6413122)
(-513.8554342 237.9835577 -310.7078062)
(-151.8495177 -221.7542537 222.239703)
(228.3260355 -35.0556882 102.6406819)
(100.6617609 -117.5143735 166.4596203)
(54.9774763 250.5632638 35.75811838)
(-415.6618236 516.0513939 -31.96232942)
(265.0420127 -217.6549708 390.5420324)
(-14.90724577 -90.97151363 -411.4187113)
(-512.5501964 -237.1747396 -204.8755812)
(-549.5982007 112.2004201 -96.33406446)
(228.5299098 -724.6136998 62.98893683)
(-101.9198694 213.788338 -7.628738136)
(-32.76781727 387.7949349 34.77974351)
(295.1727205 3.934685287 -212.6058281)
(651.6973696 -182.4414818 -221.1493973)
(261.6908277 238.8858831 -129.1626307)
(61.58381334 126.5079259 103.9113504)
(200.7944515 251.4362883 494.7231969)
(199.2255717 99.06663673 419.7568355)
(270.1210907 137.3763334 -231.299479)
(6.52978369 -229.1273727 16.13497009)
(-462.4768875 -105.5893727 -441.9750917)
(-318.8599978 105.4404775 461.3534638)
(-91.29773374 -195.5935884 -445.4844569)
(403.7604455 361.4173275 321.8375385)
(368.755679 -198.7256364 -481.684874)
(-78.67345612 -381.7932123 -519.6416899)
(-353.5788631 473.4448521 -457.3386211)
(114.095443 426.8595491 -119.5709903)
(422.471279 177.9217891 -362.1053909)
(-398.164525 -606.2270127 27.45898915)
(-12.06182586 -174.3877184 282.3868203)
(128.6755366 549.4498714 -134.3766661)
(295.9611392 -368.6242919 -366.9293638)
(-150.3636295 -135.5385605 -106.144519)
(352.8780367 39.0723716 -301.6167569)
(-420.7547775 -441.5507026 -15.88333866)
(164.9263929 -217.4123313 10.40367974)
(481.6883262 41.11661313 245.0229969)
(199.7576716 -644.3683185 195.7732198)
(69.35835196 -27.67368511 241.0159469)
(86.07421288 74.7528017 93.48098437)
(-338.8740409 235.8712424 479.2932988)
(101.4932372 370.6460844 -269.9205152)
(172.7729604 -53.26967236 611.0138532)
(44.81035715 -279.930829 127.0275174)
(-734.0394495 -319.8878295 -161.7210262)
(-324.0724722 197.2306144 490.7944765)
(-52.68791381 126.3718477 -345.7794664)
(-415.3869325 32.42671145 252.0781157)
(-240.0087932 64.39723503 339.5126335)
(2.928631026 -290.4193943 -3.693802108)
(-344.8301348 -200.5008004 574.0323248)
(-258.8439985 -340.9846411 -506.0914566)
(184.6245697 -285.7733144 -234.192476)
(-2.07770632 -264.9761185 370.6311279)
(249.4812229 755.967394 40.41962758)
(-400.6601118 -191.5411771 216.4709382)
(-757.273908 27.658829 113.4142247)
(-436.5872618 48.49165225 -12.84893455)
(313.8952242 -543.7333934 237.9827932)
(-317.5355302 -85.42839425 -313.2741048)
(212.0812761 50.15218812 705.768285)
(574.6867444 268.4881855 -149.2533787)
(46.67781204 -251.0330687 -94.68876438)
(-156.5218431 167.2492982 509.9516097)
(-148.9110614 -26.60780156 379.4662713)
(27.44481793 126.9347078 -89.5949012)
(-569.2805252 5.344744108 369.9500594)
(376.8825365 285.4932153 210.7339355)
(-352.3441467 -727.054852 24.05461376)
(58.0613895 -326.8287871 -632.2020773)
(-627.7981105 254.7393256 -67.89103798)
(-138.4368127 716.2690176 339.4576589)
(531.7782194 -155.1353516 88.10331361)
(322.2799964 36.34907956 116.4878874)
(-738.2555266 125.3769534 180.130515)
(-635.4889716 137.0208488 -231.5807309)
(135.2865537 44.73813525 13.22319635)
(-382.57187 718.5874993 -368.5146839)
(-347.5154176 364.5245349 588.4669878)
(115.0046923 551.827828 -279.2000292)
(375.1409893 254.7403554 781.8919465)
(213.7209057 250.3438154 231.0952539)
(-30.61606347 -268.902717 35.91167561)
(-305.1928375 -193.9556789 84.90209162)
(140.1404565 -366.5954894 605.0425373)
(41.24120857 210.0009626 15.56618379)
(-115.6351427 345.986173 20.73426069)
(129.824655 -349.1184564 67.41847732)
(-104.37728 30.86778816 345.6736543)
(25.93305558 -194.561039 523.2040935)
(30.43629893 -132.5762193 -136.8807497)
(97.42162605 -690.2140392 -177.442649)
(84.12336347 -533.329305 -79.55861509)
(-244.0682352 119.9201546 617.3078685)
(-328.8013386 -114.7735524 -358.0305929)
(-88.71085499 -506.6543712 371.0424733)
(283.9779239 -470.831168 -256.1429129)
(-37.12789465 201.0534203 51.77946133)
(-461.0931499 310.8608183 -131.2115432)
(333.1659995 60.71936219 -143.4543185)
(210.6182455 280.8252008 476.2153287)
(149.8512919 438.3188854 -137.6167536)
(-14.19926229 94.53142988 142.8671885)
(-116.1168432 -62.1944459 200.1263721)
(380.967994 -309.666855 -772.1733191)
(-96.30634377 -317.5394822 16.53396157)
(-351.3803213 -40.42835914 93.58891913)
(-455.925115 -247.3053349 -215.7356297)
(375.974273 -303.9487542 -257.694178)
(405.1260697 -307.2561924 218.1821915)
(-14.86400694 35.78514379 21.82745933)
(-83.25283948 -328.943708 -136.6813579)
(185.7075948 115.6843333 -61.77195555)
(-385.1999943 -21.67087907 228.1824908)
(-524.5618004 35.42274887 78.88931403)
(-524.1867169 -305.8535198 40.04416739)
(213.8865207 -199.5622848 5.155713077)
(659.5971164 97.07752272 -102.6483905)
(175.462579 -397.4693997 -124.5006386)
(49.77837568 -145.085495 2.564973427)
(529.8401943 375.1666056 66.22672009)
(-234.2299282 -272.1902565 629.6950131)
(40.17718652 -342.6555674 -69.11421808)
(315.4872419 452.836396 107.7578)
(-39.24783672 -195.7655347 -365.4837718)
(195.4627037 16.36294086 -221.7793563)
(-137.573029 138.5947528 -289.2978016)
(71.62298425 293.7577431 121.4202179)
(-451.0842602 -44.49654561 398.2777345)
(-151.2503104 -223.2126989 245.6214475)
(165.778141 -27.74798096 -2.157398759)
(249.0326294 52.36495656 86.61221233)
(122.6283268 543.1677117 -144.865973)
(124.1944989 -288.4531938 -835.4691222)
(427.4159868 -179.3763247 -448.0115596)
(-35.09147866 101.6254462 -336.4271255)
(195.3119434 -65.88677689 -246.1377301)
(338.8066972 -181.3105086 181.9377389)
(-292.8407801 -449.1916299 -409.2582137)
(501.5127956 -366.930477 21.2168892)
(316.2785093 -317.1945878 -98.87765879)
(442.0166576 56.90454493 -198.5377962)
(-66.65131294 528.1695642 147.7582181)
(-162.860099 -382.1051201 -374.5782253)
(275.4558698 88.43318378 186.0388484)
(-189.63652 -549.7471435 581.3851461)
(-76.32611534 -362.8411242 -345.864497)
(850.5884966 348.630709 -420.1098146)
(-566.5628879 -508.1051453 58.70503695)
(-165.3742655 -77.25111974 9.572387887)
(-105.1277231 -50.50355469 -141.895437)
(131.3115406 -108.7809077 -441.8348121)
(-231.586581 64.02852066 -455.3294485)
(-402.3558552 250.6140934 -188.604912)
(-77.14587709 -99.19245805 -9.935533852)
(424.2305795 -422.5675398 328.3453653)
(-26.68165705 -10.23903631 813.1582256)
(-167.7855929 -545.5600511 -65.26320462)
(0.3807517876 -98.73500084 -340.1230101)
(-393.5750822 336.2749764 -105.8753746)
(276.4444654 6.88684766 -383.5960621)
(-231.5282456 -408.5226894 49.10332232)
(-407.842578 438.1702309 -183.0372843)
(65.15994447 125.1207006 528.0386903)
(-267.00432 -210.8470081 -229.8037401)
(-116.464782 -303.1013712 90.21455149)
(137.741508 -367.3136235 375.9605897)
(-612.4144541 60.16280521 -53.52134655)
(-359.8167815 -223.0948472 194.4196311)
(260.3258731 -11.25501059 126.6579482)
(-624.8810364 -79.80797841 150.2175608)
(-356.3249202 154.2908638 105.4446355)
(893.6916083 403.5805904 -4.21014817)
(-140.9717124 107.5956719 532.2832797)
(62.20634044 -600.9166629 -224.0451683)
(162.6855268 88.13529362 74.47184084)
(0.9235662737 -231.470043 114.9647253)
(-127.9448427 -131.4518929 -309.8343361)
(-57.63154342 542.2315141 -104.8950608)
(-239.2788272 221.7202205 -328.639037)
(-41.60542518 90.02034272 -528.5838461)
(-45.41163288 265.2368093 31.9092781)
(-435.3531952 8.994871469 -134.4815722)
(217.6536068 117.383219 235.6360844)
(119.6146706 -110.0721109 -819.3060516)
(-4.92393358 163.595484 287.4848775)
(-115.9775898 -110.3470236 370.5489636)
(5.727892367 -723.7057462 231.611773)
(787.3510272 -206.0356409 -64.81698707)
(11.19192691 -399.8851524 222.6309831)
(171.5005888 -72.09542995 132.0639478)
(-80.52639769 -190.1445817 30.08010853)
(-375.304367 -381.6502182 -82.26887329)
(177.5618976 -293.7095481 476.3698126)
(132.7201499 155.137687 -387.8349488)
(447.206308 52.82311951 -676.3357353)
(387.6113545 425.5868497 169.3704848)
(119.3236988 344.4865085 538.3493382)
(108.8060829 301.5617292 -7.650385668)
(-1340.646786 -282.3701743 -11.4872617)
(86.2339282 402.0728933 241.0629464)
(391.0463068 329.7139073 -532.2546209)
(-388.145045 -110.4593986 434.482474)
(-770.4970191 -556.3898589 280.8064468)
(619.9359819 326.7004457 224.6606424)
(311.9349421 41.43099167 -422.3420087)
(-25.19083542 96.93026726 144.6630359)
(489.0394475 -68.20998263 26.57563538)
(-539.6996598 283.4317265 473.0294133)
(212.0282806 381.3546235 -433.939667)
(-744.8242057 -264.6032424 -11.74316473)
(505.0455107 237.0238051 391.7751877)
(-5.744280633 220.6710542 234.3513419)
(-184.4007644 -179.2748834 383.3244753)
(119.0774181 -394.3866375 87.78961874)
(-446.5365857 -688.3530959 375.2609514)
(133.5115132 -150.3388321 -43.69031455)
(-426.181869 8.004831073 -504.9810465)
(163.6715394 67.26904396 -229.451015)
(-364.0123556 -131.3997147 -99.15704313)
(52.90806081 627.6633071 -58.51953116)
(690.9880993 231.7516473 -225.5148177)
(-371.9531462 73.45749219 322.5879423)
(56.77260033 -191.6592609 -17.26602079)
(200.7190456 471.0813843 398.1208104)
(448.0592831 -558.9681705 -427.7557981)
(443.4236102 -371.0392091 102.5574852)
(-401.6530434 56.39528908 185.1526955)
(-762.9906307 -625.7234146 -203.8702185)
(-562.3826695 -74.32920465 233.5168977)
(134.8836289 335.4972637 323.8455778)
(182.313476 -188.7504562 177.138574)
(310.7597658 -237.1004979 -296.8291791)
(-671.5711375 46.47749252 -454.8272226)
(-277.7688096 -173.8973738 -511.0022809)
(86.24388629 -18.22994741 -416.9819055)
(1.573866976 -189.2582645 71.70499521)
(-205.5178263 -94.32325381 -555.7581797)
(-465.6711794 76.28027065 -323.4883427)
(-146.8729666 -33.6915815 106.7616426)
(-395.6067178 -593.8211809 -288.9954415)
(-228.3259368 -976.5717528 59.53063066)
(105.6231273 -318.4680477 128.3377557)
(66.24460981 345.3397292 -352.7968906)
(-189.5233764 182.6630493 -276.4201678)
(271.9092473 -355.2456641 412.4731785)
(453.7863743 -371.4626192 -117.7187426)
(243.0200452 241.2885149 -106.902592)
(20.00610527 138.1062804 212.1567923)
(-416.8834443 403.7154186 -242.9933889)
(70.95894721 21.92897518 202.1854647)
(205.6386916 355.6020612 -392.3287117)
(-675.5291812 819.6875607 -77.51844686)
(151.1322994 -161.6471306 -564.9909745)
(92.46750933 375.8452747 41.45167169)
(-188.9905083 -136.3460594 -348.6119972)
(125.1981578 -298.4167565 181.317288)
(192.9283729 -11.34944507 -169.1922497)
(-283.6520312 76.23411712 692.519508)
(168.3776774 1.82148571 -64.27433872)
(31.57770786 481.0973372 -17.8359117)
(329.1046121 -135.8775045 -184.5214756)
(21.71389485 20.06567682 -289.6978242)
(69.42009922 271.2182019 199.8092413)
(190.1584315 55.86444313 -49.30816629)
(99.40384655 71.57514479 -291.1969639)
(269.8533452 33.20621206 -191.5555482)
(-72.63826158 -101.0410352 -458.5721414)
(242.6023452 121.0811675 -131.7494214)
(81.01398997 -583.6630747 356.8214738)
(-929.5997938 184.381786 -171.5188246)
(-394.1095507 353.9998709 -62.20351436)
(386.9585647 -642.0433157 157.6904361)
(46.65638245 -458.5210878 -57.94966448)
(243.2469989 224.9214426 264.6130552)
(-267.3727805 223.6858417 -94.29783764)
(255.8298209 -765.6675488 118.0824187)
(-131.0205082 -456.322812 -414.6461587)
(-540.6126662 34.87278455 -383.6707542)
(296.3022006 166.880166 104.5386132)