/*--------------------------------*- C++ -*----------------------------------*\
  =========                 |
  \\      /  F ield         | OpenFOAM: The Open Source CFD Toolbox
   \\    /   O peration     | Website:  https://openfoam.org
    \\  /    A nd           | Version:  7
     \\/     M anipulation  |
\*---------------------------------------------------------------------------*/
FoamFile
{
    version     2.0;
    format      ascii;
    class       volScalarField;
    location    "0.00036";
    object      mag(U);
}
// * * * * * * * * * * * * * * * * * * * * * * * * * * * * * * * * * * * * * //

dimensions      [0 1 -1 0 0 0 0];

internalField   nonuniform List<scalar> 
500
(
1.3681e-13
2.65155e-13
2.51451e-13
2.47184e-13
6.58498e-14
4.35643e-14
1.79415e-13
3.81811e-14
1.48343e-13
2.40449e-13
3.99663e-13
3.06382e-13
6.97834e-14
5.94656e-14
9.73642e-15
7.82761e-14
4.44602e-14
1.70611e-13
9.64056e-14
1.9336e-13
1.73958e-13
4.10985e-14
8.3116e-14
4.21031e-14
1.2655e-13
1.49346e-13
5.33002e-14
1.63172e-13
2.42866e-13
1.67479e-13
1.29909e-13
2.42569e-13
2.21988e-14
4.72742e-14
2.35724e-13
1.55905e-13
5.03749e-14
1.40313e-14
9.44167e-14
4.50161e-14
2.50964e-14
2.52124e-14
6.93909e-14
1.53659e-13
8.64505e-14
1.58728e-14
4.23021e-15
6.6344e-14
1.26461e-13
1.08953e-13
3.0916e-13
9.12877e-14
4.75393e-15
9.24652e-14
1.53047e-13
1.49006e-13
2.88351e-14
2.26012e-14
1.24684e-13
1.53923e-13
1.9799e-13
1.79952e-14
1.1233e-13
2.21042e-13
2.3341e-13
2.94314e-14
1.95467e-14
7.54507e-14
4.85558e-14
1.54104e-13
4.54278e-14
2.40478e-14
1.98008e-14
8.06956e-14
6.26932e-14
2.1098e-13
3.72109e-13
3.03199e-13
1.7701e-13
8.92982e-14
9.28213e-14
1.40128e-13
1.30538e-13
7.79339e-14
6.28791e-14
6.77646e-14
7.77572e-14
6.79722e-14
2.63923e-14
1.07222e-13
9.20647e-14
3.06909e-15
1.3629e-14
1.70639e-13
1.12664e-14
1.52837e-14
4.25813e-14
1.88585e-14
1.10697e-13
4.1876e-14
1.34973e-13
1.1067e-13
2.08583e-13
1.60974e-13
1.57083e-13
1.02267e-13
1.81888e-14
1.25209e-13
6.99568e-14
6.85492e-14
1.39268e-13
4.84417e-14
1.19053e-13
1.27577e-13
1.60475e-14
1.10748e-14
6.88656e-14
5.8027e-14
5.99876e-14
6.93696e-14
6.62183e-14
4.94576e-14
2.38446e-13
3.67382e-13
1.5522e-13
5.30814e-14
2.14428e-14
1.38e-14
8.53765e-14
1.02745e-13
1.55347e-13
6.28572e-14
3.14023e-13
1.62536e-13
5.71991e-14
6.90421e-14
1.12716e-15
1.12547e-13
1.44216e-13
1.29228e-13
4.86828e-14
1.74875e-13
1.30339e-15
3.79172e-14
1.23585e-13
1.31805e-13
7.99271e-14
2.95742e-15
6.52379e-14
1.98464e-13
2.07175e-13
1.52785e-13
8.0015e-14
2.05462e-13
4.6262e-14
2.32122e-13
2.62567e-13
7.79513e-14
1.57162e-13
7.22204e-14
2.10295e-15
3.12354e-14
2.47591e-13
2.25429e-13
4.85311e-14
7.3714e-14
2.01004e-13
9.50902e-14
1.66606e-13
8.8283e-14
6.41086e-15
9.05411e-14
5.45219e-14
2.14821e-13
1.48158e-13
1.95514e-13
1.43029e-13
2.58018e-13
4.77346e-13
4.28331e-13
1.77349e-13
3.8942e-14
1.53743e-13
1.83801e-13
1.39376e-13
2.2103e-13
1.32528e-13
1.10515e-13
1.74992e-13
1.95818e-13
2.37692e-13
3.04227e-13
1.6922e-13
1.33975e-14
1.69296e-13
9.90944e-14
1.17417e-14
1.13481e-13
2.36696e-13
2.12924e-13
2.1705e-13
6.26964e-14
1.05673e-13
2.62062e-13
2.21018e-13
1.09035e-13
1.80248e-13
9.16097e-14
4.85132e-14
3.08561e-14
3.97503e-14
2e-14
1.10422e-13
1.75726e-13
4.16941e-13
4.32686e-13
3.71497e-13
7.41931e-12
6.53487e-11
5.26108e-10
3.97563e-09
2.83083e-08
1.89966e-07
1.20121e-06
7.15436e-06
4.0112e-05
0.000211522
0.00104787
0.00486911
0.0211782
0.0859907
0.324796
1.13624
3.66455
10.8836
29.7526
64.9336
102.918
136.431
167.162
196.695
225.74
254.512
283.021
311.079
337.176
361.033
379.884
388.497
391.143
390.697
389.531
389.087
389.017
387.296
387.636
387.55
388.211
388.914
389.438
388.094
381.298
390.332
396.479
396.231
387.207
303.765
62.5136
4.02771
0.236434
0.0138653
0.000819208
4.86866e-05
2.90351e-06
1.73228e-07
1.03051e-08
6.09222e-10
3.57257e-11
2.05198e-12
1.5661e-13
1.68809e-13
2.7983e-13
2.8055e-13
2.4396e-13
1.66609e-13
6.26177e-14
0
4.26543e-14
1.57859e-13
2.89741e-13
2.85669e-13
2.05045e-13
2.47403e-13
3.31606e-13
2.1274e-13
1.0936e-13
2.41307e-14
5.92722e-14
2.62159e-13
2.06544e-13
1.00641e-13
5.95268e-14
1.4937e-13
4.21504e-14
8.92696e-15
7.197e-14
1.0315e-13
8.8964e-14
1.035e-13
1.70355e-13
1.03564e-13
1.83255e-14
4.73936e-15
3.37477e-14
1.76143e-14
1.4756e-13
1.75149e-13
9.28037e-14
7.51538e-14
1.7327e-13
2.15337e-13
2.59557e-13
3.33003e-13
3.86832e-13
1.98298e-13
4.08188e-14
3.24138e-14
1.21731e-14
5.31338e-14
5.44712e-14
2.1296e-16
3.86505e-14
8.27129e-15
1.56478e-14
3.06228e-14
2.77953e-14
3.21665e-15
1.81611e-14
6.51083e-15
2.26517e-14
1.52271e-15
2.29811e-14
1.73706e-14
4.43308e-14
9.40571e-14
3.16407e-14
3.56937e-14
2.4478e-14
3.83364e-14
4.52084e-14
9.07461e-15
3.64134e-14
5.73035e-14
6.96828e-14
2.16754e-14
1.41265e-14
5.05532e-15
1.99494e-14
2.76591e-14
5.14175e-14
2.04238e-14
7.77362e-15
6.33769e-14
1.28077e-13
5.58686e-14
1.07092e-14
2.14539e-14
7.84676e-15
2.24328e-15
2.89287e-14
1.32376e-14
1.15949e-13
1.21069e-13
1.82374e-14
4.40115e-14
1.44362e-14
4.99203e-14
4.7683e-15
5.21064e-14
1.62914e-14
3.56471e-14
1.02626e-14
3.64097e-14
3.78101e-14
2.36263e-14
5.71027e-14
2.04757e-13
3.03901e-13
3.98915e-13
3.96494e-13
3.3155e-13
2.67313e-13
2.5386e-13
1.4694e-13
1.05095e-14
2.26597e-15
1.06108e-13
5.85443e-14
3.1251e-14
3.90226e-14
1.65889e-14
1.78059e-14
1.04337e-13
3.425e-14
3.57874e-14
9.62912e-14
6.48234e-14
1.04832e-13
2.21986e-13
1.7105e-13
6.5063e-14
6.16655e-15
9.55866e-14
1.44088e-13
4.81599e-14
1.71501e-15
8.31049e-14
2.77306e-15
5.31145e-14
6.39604e-14
9.33545e-14
1.7013e-13
1.11531e-13
5.40153e-14
1.19849e-13
2.74806e-14
1.1765e-13
7.72077e-14
1.07635e-13
1.71861e-13
2.61957e-14
2.34213e-14
4.78935e-14
1.52007e-14
9.77633e-14
6.3507e-14
6.28759e-14
8.60429e-14
8.25743e-14
4.33863e-14
1.41037e-13
5.01923e-14
8.64485e-14
1.77018e-13
1.98179e-13
2.09718e-13
1.8473e-13
1.17129e-13
2.41518e-14
1.14063e-13
2.0676e-13
1.71192e-13
2.42952e-13
1.46958e-13
1.17496e-13
1.9576e-13
8.97891e-14
1.1779e-14
4.63792e-14
9.72124e-14
6.1605e-14
3.50679e-14
5.39005e-14
6.1729e-15
1.55999e-14
5.99518e-14
1.61421e-13
5.61012e-14
3.54192e-14
1.22268e-13
1.75565e-13
1.4364e-13
7.86177e-14
1.86621e-13
1.1095e-13
1.5523e-14
7.1671e-14
1.66353e-13
1.08703e-13
6.28559e-14
7.57487e-14
4.65196e-14
6.65069e-14
1.34217e-14
7.89098e-14
5.06929e-14
5.2025e-14
5.18479e-14
2.86313e-14
4.90399e-15
7.60446e-14
5.84236e-14
1.17502e-13
1.86327e-13
4.18026e-14
3.49937e-14
7.16915e-14
1.10117e-13
4.70229e-15
7.52626e-14
)
;

boundaryField
{
    sides
    {
        type            calculated;
        value           nonuniform List<scalar> 2(7.52626e-14 1.3681e-13);
    }
    empty
    {
        type            empty;
    }
}


// ************************************************************************* //
