/*--------------------------------*- C++ -*----------------------------------*\
  =========                 |
  \\      /  F ield         | OpenFOAM: The Open Source CFD Toolbox
   \\    /   O peration     | Website:  https://openfoam.org
    \\  /    A nd           | Version:  7
     \\/     M anipulation  |
\*---------------------------------------------------------------------------*/
FoamFile
{
    version     2.0;
    format      ascii;
    class       volVectorField;
    location    "0.00036";
    object      U;
}
// * * * * * * * * * * * * * * * * * * * * * * * * * * * * * * * * * * * * * //

dimensions      [0 1 -1 0 0 0 0];

internalField   nonuniform List<vector> 
500
(
(1.3681e-13 0 0)
(2.65155e-13 0 0)
(2.51451e-13 0 0)
(2.47184e-13 0 0)
(6.58498e-14 0 0)
(-4.35643e-14 0 0)
(-1.79415e-13 0 0)
(-3.81811e-14 0 0)
(1.48343e-13 0 0)
(2.40449e-13 0 0)
(3.99663e-13 0 0)
(3.06382e-13 0 0)
(6.97834e-14 0 0)
(5.94656e-14 0 0)
(-9.73642e-15 0 0)
(-7.82761e-14 0 0)
(4.44602e-14 0 0)
(1.70611e-13 0 0)
(9.64056e-14 0 0)
(1.9336e-13 0 0)
(1.73958e-13 0 0)
(-4.10985e-14 0 0)
(-8.3116e-14 0 0)
(4.21031e-14 0 0)
(1.2655e-13 0 0)
(1.49346e-13 0 0)
(5.33002e-14 0 0)
(-1.63172e-13 0 0)
(-2.42866e-13 0 0)
(-1.67479e-13 0 0)
(1.29909e-13 0 0)
(2.42569e-13 0 0)
(2.21988e-14 0 0)
(-4.72742e-14 0 0)
(-2.35724e-13 0 0)
(-1.55905e-13 0 0)
(-5.03749e-14 0 0)
(-1.40313e-14 0 0)
(-9.44167e-14 0 0)
(-4.50161e-14 0 0)
(2.50964e-14 0 0)
(2.52124e-14 0 0)
(-6.93909e-14 0 0)
(-1.53659e-13 0 0)
(-8.64505e-14 0 0)
(-1.58728e-14 0 0)
(-4.23021e-15 0 0)
(-6.6344e-14 0 0)
(-1.26461e-13 0 0)
(-1.08953e-13 0 0)
(-3.0916e-13 0 0)
(-9.12877e-14 0 0)
(-4.75393e-15 0 0)
(9.24652e-14 0 0)
(1.53047e-13 0 0)
(1.49006e-13 0 0)
(2.88351e-14 0 0)
(2.26012e-14 0 0)
(1.24684e-13 0 0)
(1.53923e-13 0 0)
(1.9799e-13 0 0)
(1.79952e-14 0 0)
(-1.1233e-13 0 0)
(-2.21042e-13 0 0)
(-2.3341e-13 0 0)
(-2.94314e-14 0 0)
(1.95467e-14 0 0)
(7.54507e-14 0 0)
(4.85558e-14 0 0)
(-1.54104e-13 0 0)
(-4.54278e-14 0 0)
(-2.40478e-14 0 0)
(-1.98008e-14 0 0)
(8.06956e-14 0 0)
(6.26932e-14 0 0)
(2.1098e-13 0 0)
(3.72109e-13 0 0)
(3.03199e-13 0 0)
(1.7701e-13 0 0)
(8.92982e-14 0 0)
(-9.28213e-14 0 0)
(-1.40128e-13 0 0)
(-1.30538e-13 0 0)
(-7.79339e-14 0 0)
(6.28791e-14 0 0)
(-6.77646e-14 0 0)
(-7.77572e-14 0 0)
(6.79722e-14 0 0)
(-2.63923e-14 0 0)
(-1.07222e-13 0 0)
(9.20647e-14 0 0)
(-3.06909e-15 0 0)
(1.3629e-14 0 0)
(1.70639e-13 0 0)
(1.12664e-14 0 0)
(1.52837e-14 0 0)
(4.25813e-14 0 0)
(-1.88585e-14 0 0)
(1.10697e-13 0 0)
(4.1876e-14 0 0)
(-1.34973e-13 0 0)
(-1.1067e-13 0 0)
(-2.08583e-13 0 0)
(-1.60974e-13 0 0)
(-1.57083e-13 0 0)
(-1.02267e-13 0 0)
(1.81888e-14 0 0)
(1.25209e-13 0 0)
(6.99568e-14 0 0)
(-6.85492e-14 0 0)
(1.39268e-13 0 0)
(-4.84417e-14 0 0)
(-1.19053e-13 0 0)
(1.27577e-13 0 0)
(1.60475e-14 0 0)
(-1.10748e-14 0 0)
(6.88656e-14 0 0)
(5.8027e-14 0 0)
(5.99876e-14 0 0)
(-6.93696e-14 0 0)
(6.62183e-14 0 0)
(4.94576e-14 0 0)
(-2.38446e-13 0 0)
(-3.67382e-13 0 0)
(-1.5522e-13 0 0)
(-5.30814e-14 0 0)
(-2.14428e-14 0 0)
(1.38e-14 0 0)
(8.53765e-14 0 0)
(1.02745e-13 0 0)
(1.55347e-13 0 0)
(-6.28572e-14 0 0)
(-3.14023e-13 0 0)
(-1.62536e-13 0 0)
(-5.71991e-14 0 0)
(-6.90421e-14 0 0)
(-1.12716e-15 0 0)
(1.12547e-13 0 0)
(1.44216e-13 0 0)
(1.29228e-13 0 0)
(-4.86828e-14 0 0)
(-1.74875e-13 0 0)
(1.30339e-15 0 0)
(3.79172e-14 0 0)
(1.23585e-13 0 0)
(1.31805e-13 0 0)
(7.99271e-14 0 0)
(-2.95742e-15 0 0)
(6.52379e-14 0 0)
(1.98464e-13 0 0)
(2.07175e-13 0 0)
(1.52785e-13 0 0)
(-8.0015e-14 0 0)
(-2.05462e-13 0 0)
(-4.6262e-14 0 0)
(2.32122e-13 0 0)
(2.62567e-13 0 0)
(7.79513e-14 0 0)
(-1.57162e-13 0 0)
(-7.22204e-14 0 0)
(-2.10295e-15 0 0)
(-3.12354e-14 0 0)
(-2.47591e-13 0 0)
(-2.25429e-13 0 0)
(-4.85311e-14 0 0)
(-7.3714e-14 0 0)
(-2.01004e-13 0 0)
(-9.50902e-14 0 0)
(-1.66606e-13 0 0)
(8.8283e-14 0 0)
(-6.41086e-15 0 0)
(-9.05411e-14 0 0)
(5.45219e-14 0 0)
(2.14821e-13 0 0)
(1.48158e-13 0 0)
(1.95514e-13 0 0)
(1.43029e-13 0 0)
(2.58018e-13 0 0)
(4.77346e-13 0 0)
(4.28331e-13 0 0)
(1.77349e-13 0 0)
(3.8942e-14 0 0)
(1.53743e-13 0 0)
(1.83801e-13 0 0)
(1.39376e-13 0 0)
(2.2103e-13 0 0)
(1.32528e-13 0 0)
(1.10515e-13 0 0)
(1.74992e-13 0 0)
(1.95818e-13 0 0)
(2.37692e-13 0 0)
(3.04227e-13 0 0)
(1.6922e-13 0 0)
(1.33975e-14 0 0)
(-1.69296e-13 0 0)
(-9.90944e-14 0 0)
(-1.17417e-14 0 0)
(-1.13481e-13 0 0)
(-2.36696e-13 0 0)
(-2.12924e-13 0 0)
(-2.1705e-13 0 0)
(-6.26964e-14 0 0)
(-1.05673e-13 0 0)
(-2.62062e-13 0 0)
(-2.21018e-13 0 0)
(-1.09035e-13 0 0)
(-1.80248e-13 0 0)
(-9.16097e-14 0 0)
(-4.85132e-14 0 0)
(-3.08561e-14 0 0)
(3.97503e-14 0 0)
(2e-14 0 0)
(-1.10422e-13 0 0)
(-1.75726e-13 0 0)
(-4.16941e-13 0 0)
(-4.32686e-13 0 0)
(3.71497e-13 0 0)
(7.41931e-12 0 0)
(6.53487e-11 0 0)
(5.26108e-10 0 0)
(3.97563e-09 0 0)
(2.83083e-08 0 0)
(1.89966e-07 0 0)
(1.20121e-06 0 0)
(7.15436e-06 0 0)
(4.0112e-05 0 0)
(0.000211522 0 0)
(0.00104787 0 0)
(0.00486911 0 0)
(0.0211782 0 0)
(0.0859907 0 0)
(0.324796 0 0)
(1.13624 0 0)
(3.66455 0 0)
(10.8836 0 0)
(29.7526 0 0)
(64.9336 0 0)
(102.918 0 0)
(136.431 0 0)
(167.162 0 0)
(196.695 0 0)
(225.74 0 0)
(254.512 0 0)
(283.021 0 0)
(311.079 0 0)
(337.176 0 0)
(361.033 0 0)
(379.884 0 0)
(388.497 0 0)
(391.143 0 0)
(390.697 0 0)
(389.531 0 0)
(389.087 0 0)
(389.017 0 0)
(387.296 0 0)
(387.636 0 0)
(387.55 0 0)
(388.211 0 0)
(388.914 0 0)
(389.438 0 0)
(388.094 0 0)
(381.298 0 0)
(390.332 0 0)
(396.479 0 0)
(396.231 0 0)
(387.207 0 0)
(303.765 0 0)
(62.5136 0 0)
(4.02771 0 0)
(0.236434 0 0)
(0.0138653 0 0)
(0.000819208 0 0)
(4.86866e-05 0 0)
(2.90351e-06 0 0)
(1.73228e-07 0 0)
(1.03051e-08 0 0)
(6.09222e-10 0 0)
(3.57257e-11 0 0)
(2.05198e-12 0 0)
(1.5661e-13 0 0)
(1.68809e-13 0 0)
(2.7983e-13 0 0)
(2.8055e-13 0 0)
(2.4396e-13 0 0)
(1.66609e-13 0 0)
(6.26177e-14 0 0)
(0 0 0)
(-4.26543e-14 0 0)
(-1.57859e-13 0 0)
(-2.89741e-13 0 0)
(-2.85669e-13 0 0)
(-2.05045e-13 0 0)
(-2.47403e-13 0 0)
(-3.31606e-13 0 0)
(-2.1274e-13 0 0)
(-1.0936e-13 0 0)
(-2.41307e-14 0 0)
(5.92722e-14 0 0)
(2.62159e-13 0 0)
(2.06544e-13 0 0)
(1.00641e-13 0 0)
(-5.95268e-14 0 0)
(-1.4937e-13 0 0)
(-4.21504e-14 0 0)
(8.92696e-15 0 0)
(7.197e-14 0 0)
(-1.0315e-13 0 0)
(-8.8964e-14 0 0)
(-1.035e-13 0 0)
(-1.70355e-13 0 0)
(-1.03564e-13 0 0)
(-1.83255e-14 0 0)
(-4.73936e-15 0 0)
(-3.37477e-14 0 0)
(1.76143e-14 0 0)
(1.4756e-13 0 0)
(1.75149e-13 0 0)
(9.28037e-14 0 0)
(7.51538e-14 0 0)
(1.7327e-13 0 0)
(2.15337e-13 0 0)
(2.59557e-13 0 0)
(3.33003e-13 0 0)
(3.86832e-13 0 0)
(1.98298e-13 0 0)
(4.08188e-14 0 0)
(-3.24138e-14 0 0)
(-1.21731e-14 0 0)
(-5.31338e-14 0 0)
(-5.44712e-14 0 0)
(-2.1296e-16 0 0)
(3.86505e-14 0 0)
(8.27129e-15 0 0)
(1.56478e-14 0 0)
(3.06228e-14 0 0)
(2.77953e-14 0 0)
(3.21665e-15 0 0)
(-1.81611e-14 0 0)
(6.51083e-15 0 0)
(2.26517e-14 0 0)
(-1.52271e-15 0 0)
(-2.29811e-14 0 0)
(-1.73706e-14 0 0)
(-4.43308e-14 0 0)
(-9.40571e-14 0 0)
(-3.16407e-14 0 0)
(3.56937e-14 0 0)
(-2.4478e-14 0 0)
(-3.83364e-14 0 0)
(4.52084e-14 0 0)
(9.07461e-15 0 0)
(-3.64134e-14 0 0)
(5.73035e-14 0 0)
(6.96828e-14 0 0)
(2.16754e-14 0 0)
(-1.41265e-14 0 0)
(-5.05532e-15 0 0)
(1.99494e-14 0 0)
(-2.76591e-14 0 0)
(-5.14175e-14 0 0)
(2.04238e-14 0 0)
(7.77362e-15 0 0)
(-6.33769e-14 0 0)
(-1.28077e-13 0 0)
(-5.58686e-14 0 0)
(1.07092e-14 0 0)
(-2.14539e-14 0 0)
(7.84676e-15 0 0)
(2.24328e-15 0 0)
(2.89287e-14 0 0)
(-1.32376e-14 0 0)
(1.15949e-13 0 0)
(1.21069e-13 0 0)
(1.82374e-14 0 0)
(-4.40115e-14 0 0)
(-1.44362e-14 0 0)
(4.99203e-14 0 0)
(4.7683e-15 0 0)
(-5.21064e-14 0 0)
(1.62914e-14 0 0)
(3.56471e-14 0 0)
(-1.02626e-14 0 0)
(3.64097e-14 0 0)
(3.78101e-14 0 0)
(-2.36263e-14 0 0)
(-5.71027e-14 0 0)
(-2.04757e-13 0 0)
(-3.03901e-13 0 0)
(-3.98915e-13 0 0)
(-3.96494e-13 0 0)
(-3.3155e-13 0 0)
(-2.67313e-13 0 0)
(-2.5386e-13 0 0)
(-1.4694e-13 0 0)
(-1.05095e-14 0 0)
(2.26597e-15 0 0)
(-1.06108e-13 0 0)
(-5.85443e-14 0 0)
(-3.1251e-14 0 0)
(-3.90226e-14 0 0)
(-1.65889e-14 0 0)
(1.78059e-14 0 0)
(1.04337e-13 0 0)
(3.425e-14 0 0)
(-3.57874e-14 0 0)
(9.62912e-14 0 0)
(6.48234e-14 0 0)
(-1.04832e-13 0 0)
(-2.21986e-13 0 0)
(-1.7105e-13 0 0)
(-6.5063e-14 0 0)
(-6.16655e-15 0 0)
(9.55866e-14 0 0)
(1.44088e-13 0 0)
(4.81599e-14 0 0)
(-1.71501e-15 0 0)
(8.31049e-14 0 0)
(-2.77306e-15 0 0)
(-5.31145e-14 0 0)
(6.39604e-14 0 0)
(9.33545e-14 0 0)
(1.7013e-13 0 0)
(1.11531e-13 0 0)
(5.40153e-14 0 0)
(1.19849e-13 0 0)
(2.74806e-14 0 0)
(-1.1765e-13 0 0)
(-7.72077e-14 0 0)
(-1.07635e-13 0 0)
(-1.71861e-13 0 0)
(-2.61957e-14 0 0)
(-2.34213e-14 0 0)
(4.78935e-14 0 0)
(1.52007e-14 0 0)
(-9.77633e-14 0 0)
(6.3507e-14 0 0)
(6.28759e-14 0 0)
(-8.60429e-14 0 0)
(-8.25743e-14 0 0)
(-4.33863e-14 0 0)
(1.41037e-13 0 0)
(5.01923e-14 0 0)
(8.64485e-14 0 0)
(1.77018e-13 0 0)
(1.98179e-13 0 0)
(2.09718e-13 0 0)
(1.8473e-13 0 0)
(1.17129e-13 0 0)
(2.41518e-14 0 0)
(-1.14063e-13 0 0)
(-2.0676e-13 0 0)
(-1.71192e-13 0 0)
(-2.42952e-13 0 0)
(-1.46958e-13 0 0)
(-1.17496e-13 0 0)
(-1.9576e-13 0 0)
(-8.97891e-14 0 0)
(1.1779e-14 0 0)
(4.63792e-14 0 0)
(9.72124e-14 0 0)
(6.1605e-14 0 0)
(-3.50679e-14 0 0)
(5.39005e-14 0 0)
(-6.1729e-15 0 0)
(1.55999e-14 0 0)
(-5.99518e-14 0 0)
(-1.61421e-13 0 0)
(-5.61012e-14 0 0)
(3.54192e-14 0 0)
(1.22268e-13 0 0)
(1.75565e-13 0 0)
(1.4364e-13 0 0)
(7.86177e-14 0 0)
(1.86621e-13 0 0)
(1.1095e-13 0 0)
(1.5523e-14 0 0)
(-7.1671e-14 0 0)
(-1.66353e-13 0 0)
(-1.08703e-13 0 0)
(-6.28559e-14 0 0)
(-7.57487e-14 0 0)
(-4.65196e-14 0 0)
(-6.65069e-14 0 0)
(1.34217e-14 0 0)
(7.89098e-14 0 0)
(5.06929e-14 0 0)
(5.2025e-14 0 0)
(5.18479e-14 0 0)
(-2.86313e-14 0 0)
(-4.90399e-15 0 0)
(-7.60446e-14 0 0)
(-5.84236e-14 0 0)
(-1.17502e-13 0 0)
(-1.86327e-13 0 0)
(-4.18026e-14 0 0)
(3.49937e-14 0 0)
(7.16915e-14 0 0)
(1.10117e-13 0 0)
(4.70229e-15 0 0)
(-7.52626e-14 0 0)
)
;

boundaryField
{
    sides
    {
        type            zeroGradient;
    }
    empty
    {
        type            empty;
    }
}


// ************************************************************************* //
