/*--------------------------------*- C++ -*----------------------------------*\
  =========                 |
  \\      /  F ield         | OpenFOAM: The Open Source CFD Toolbox
   \\    /   O peration     | Website:  https://openfoam.org
    \\  /    A nd           | Version:  7
     \\/     M anipulation  |
\*---------------------------------------------------------------------------*/
FoamFile
{
    version     2.0;
    format      ascii;
    class       volScalarField;
    location    "0.0025";
    object      rhoN;
}
// * * * * * * * * * * * * * * * * * * * * * * * * * * * * * * * * * * * * * //

dimensions      [0 -3 0 0 0 0 0];

internalField   nonuniform List<scalar> 
250
(
1.398e+20
1.323e+20
1.2615e+20
1.317e+20
1.359e+20
1.2885e+20
1.314e+20
1.3425e+20
1.386e+20
1.3695e+20
1.344e+20
1.3665e+20
1.362e+20
1.293e+20
1.296e+20
1.389e+20
1.4535e+20
1.371e+20
1.3995e+20
1.3755e+20
1.4055e+20
1.3875e+20
1.404e+20
1.4085e+20
1.377e+20
1.4625e+20
1.3425e+20
1.5105e+20
1.4775e+20
1.4085e+20
1.4535e+20
1.377e+20
1.431e+20
1.4415e+20
1.4235e+20
1.443e+20
1.455e+20
1.4925e+20
1.506e+20
1.41e+20
1.5915e+20
1.461e+20
1.497e+20
1.455e+20
1.494e+20
1.4385e+20
1.443e+20
1.479e+20
1.4655e+20
1.4775e+20
1.5465e+20
1.431e+20
1.497e+20
1.458e+20
1.518e+20
1.452e+20
1.4895e+20
1.5165e+20
1.482e+20
1.5315e+20
1.5045e+20
1.4895e+20
1.3995e+20
1.4475e+20
1.479e+20
1.4565e+20
1.488e+20
1.527e+20
1.443e+20
1.473e+20
1.4295e+20
1.5e+20
1.482e+20
1.464e+20
1.5495e+20
1.383e+20
1.4925e+20
1.32e+20
1.413e+20
1.473e+20
1.4355e+20
1.455e+20
1.386e+20
1.464e+20
1.47e+20
1.4685e+20
1.5105e+20
1.3965e+20
1.4625e+20
1.389e+20
1.4415e+20
1.428e+20
1.443e+20
1.4385e+20
1.38e+20
1.4355e+20
1.38e+20
1.416e+20
1.4685e+20
1.3335e+20
1.4235e+20
1.407e+20
1.4205e+20
1.404e+20
1.3815e+20
1.3965e+20
1.3215e+20
1.425e+20
1.359e+20
1.4385e+20
1.353e+20
1.389e+20
1.3155e+20
1.353e+20
1.353e+20
1.332e+20
1.371e+20
1.3275e+20
1.296e+20
1.356e+20
1.35e+20
1.3095e+20
1.245e+20
1.2945e+20
1.362e+20
1.281e+20
1.245e+20
1.308e+20
1.3545e+20
1.311e+20
1.3095e+20
1.293e+20
1.281e+20
1.266e+20
1.281e+20
1.3275e+20
1.32e+20
1.179e+20
1.1895e+20
1.2885e+20
1.2825e+20
1.29e+20
1.2165e+20
1.197e+20
1.2345e+20
1.1925e+20
1.2495e+20
1.2e+20
1.146e+20
1.308e+20
1.23e+20
1.197e+20
1.296e+20
1.2825e+20
1.3155e+20
1.1865e+20
1.2525e+20
1.206e+20
1.185e+20
1.1115e+20
1.146e+20
1.227e+20
1.2105e+20
1.1835e+20
1.2435e+20
1.257e+20
1.227e+20
1.1895e+20
1.2195e+20
1.152e+20
1.2255e+20
1.1775e+20
1.203e+20
1.128e+20
1.17e+20
1.2045e+20
1.1625e+20
1.0665e+20
1.164e+20
1.086e+20
1.101e+20
1.158e+20
1.1265e+20
1.1715e+20
1.062e+20
1.116e+20
1.1505e+20
1.1565e+20
1.098e+20
1.08e+20
1.11e+20
1.158e+20
1.0545e+20
1.104e+20
1.0935e+20
1.158e+20
1.137e+20
1.071e+20
1.1145e+20
1.1595e+20
1.1835e+20
1.1475e+20
1.0995e+20
1.1115e+20
1.053e+20
1.1655e+20
1.119e+20
1.1775e+20
1.08e+20
1.0905e+20
1.11e+20
1.095e+20
1.1085e+20
1.1265e+20
1.0305e+20
1.152e+20
1.0965e+20
1.044e+20
1.143e+20
1.0065e+20
1.041e+20
1.149e+20
1.083e+20
1.1355e+20
1.0635e+20
1.0455e+20
1.1505e+20
1.095e+20
1.0005e+20
1.0455e+20
1.005e+20
1.047e+20
1.143e+20
1.092e+20
1.0545e+20
1.1055e+20
1.1145e+20
1.074e+20
1.0275e+20
1.1175e+20
1.152e+20
1.0965e+20
1.11e+20
1.0845e+20
1.11e+20
1.1055e+20
1.0485e+20
1.092e+20
1.1445e+20
1.092e+20
)
;

boundaryField
{
    sides
    {
        type            symmetry;
    }
    empty
    {
        type            empty;
    }
    procBoundary3to2
    {
        type            processor;
        value           uniform 1.3125e+20;
    }
}


// ************************************************************************* //
