/*--------------------------------*- C++ -*----------------------------------*\
  =========                 |
  \\      /  F ield         | OpenFOAM: The Open Source CFD Toolbox
   \\    /   O peration     | Website:  https://openfoam.org
    \\  /    A nd           | Version:  7
     \\/     M anipulation  |
\*---------------------------------------------------------------------------*/
FoamFile
{
    version     2.0;
    format      ascii;
    class       surfaceScalarField;
    location    "0.45";
    object      alphaPhi0.water;
}
// * * * * * * * * * * * * * * * * * * * * * * * * * * * * * * * * * * * * * //

dimensions      [0 3 -1 0 0 0 0];

internalField   nonuniform List<scalar> 
4432
(
-5.37782e-06
5.37782e-06
-6.8006e-06
1.42278e-06
-4.70236e-06
-2.09823e-06
-1.1874e-06
-3.51496e-06
2.71748e-06
-3.90488e-06
6.63013e-06
-3.91265e-06
1.03777e-05
-3.74756e-06
1.39032e-05
-3.52549e-06
1.71874e-05
-3.28422e-06
2.0213e-05
-3.02561e-06
2.29496e-05
-2.73654e-06
2.5343e-05
-2.39343e-06
2.73033e-05
-1.9603e-06
2.86815e-05
-1.37824e-06
2.92128e-05
-5.31323e-07
2.84238e-05
7.8902e-07
2.57817e-05
2.64217e-06
2.07964e-05
4.98521e-06
1.32108e-05
7.58565e-06
3.40233e-06
9.80846e-06
-6.81863e-06
1.05048e-05
-1.19847e-05
4.96841e-06
-1.24503e-05
-3.7265e-06
9.10432e-06
-3.0882e-06
7.84479e-07
-6.42051e-07
-4.54438e-06
2.64974e-06
-6.80676e-06
6.2831e-06
-7.53824e-06
9.91817e-06
-7.54772e-06
1.3415e-05
-7.24443e-06
1.67146e-05
-6.82505e-06
1.97884e-05
-6.35803e-06
2.26119e-05
-5.84915e-06
2.515e-05
-5.27457e-06
2.73467e-05
-4.59014e-06
2.91165e-05
-3.73014e-06
3.03362e-05
-2.59791e-06
3.08583e-05
-1.0534e-06
3.05223e-05
1.12502e-06
2.90042e-05
4.16027e-06
2.58075e-05
8.18186e-06
2.03524e-05
1.30408e-05
1.23841e-05
1.77768e-05
2.85335e-06
2.01427e-05
-3.35725e-06
1.09798e-05
-1.5787e-05
-1.6732e-06
1.07775e-05
-2.42643e-07
-6.46075e-07
2.27533e-06
-7.06235e-06
5.4404e-06
-9.97184e-06
8.8204e-06
-1.09182e-05
1.21775e-05
-1.09048e-05
1.54037e-05
-1.04706e-05
1.84505e-05
-9.87185e-06
2.12901e-05
-9.19764e-06
2.38952e-05
-8.45428e-06
2.62282e-05
-7.60755e-06
2.82336e-05
-6.59553e-06
2.98315e-05
-5.32799e-06
3.09122e-05
-3.67868e-06
3.13407e-05
-1.48188e-06
3.09784e-05
1.48738e-06
2.96562e-05
5.4824e-06
2.71627e-05
1.06754e-05
2.32412e-05
1.69622e-05
1.77033e-05
2.33147e-05
1.08362e-05
2.70099e-05
3.8398e-06
1.84304e-05
-1.1927e-05
2.01533e-07
1.0576e-05
2.09817e-06
-2.54272e-06
4.80451e-06
-9.76868e-06
7.87602e-06
-1.30433e-05
1.10316e-05
-1.40739e-05
1.41184e-05
-1.39915e-05
1.70722e-05
-1.34244e-05
1.98633e-05
-1.2663e-05
2.24685e-05
-1.18028e-05
2.48594e-05
-1.08451e-05
2.69968e-05
-9.745e-06
2.88266e-05
-8.42537e-06
3.02748e-05
-6.77615e-06
3.12447e-05
-4.64856e-06
3.16213e-05
-1.85844e-06
3.12899e-05
1.81875e-06
3.01482e-05
6.62411e-06
2.81122e-05
1.27113e-05
2.51137e-05
1.99608e-05
2.1051e-05
2.73775e-05
1.5786e-05
3.22748e-05
8.82902e-06
2.53874e-05
-3.1169e-06
1.84779e-06
8.72819e-06
4.20351e-06
-4.89844e-06
7.10134e-06
-1.26665e-05
1.01136e-05
-1.60556e-05
1.3059e-05
-1.70193e-05
1.58772e-05
-1.68097e-05
1.85578e-05
-1.6105e-05
2.10938e-05
-1.5199e-05
2.34676e-05
-1.41766e-05
2.565e-05
-1.30276e-05
2.76014e-05
-1.16964e-05
2.92694e-05
-1.00934e-05
3.05866e-05
-8.09337e-06
3.14687e-05
-5.53065e-06
3.18199e-05
-2.20965e-06
3.15507e-05
2.08801e-06
3.05982e-05
7.57662e-06
2.8941e-05
1.43685e-05
2.65927e-05
2.2309e-05
2.34808e-05
3.04894e-05
1.92327e-05
3.6523e-05
1.22277e-05
3.23922e-05
9.09173e-06
2.99011e-06
5.73807e-06
6.07131e-06
-7.97964e-06
9.23171e-06
-1.58269e-05
1.21986e-05
-1.90225e-05
1.49282e-05
-1.97489e-05
1.74726e-05
-1.93541e-05
1.98803e-05
-1.85127e-05
2.21657e-05
-1.74844e-05
2.43149e-05
-1.63258e-05
2.62975e-05
-1.50102e-05
2.8073e-05
-1.34719e-05
2.9592e-05
-1.16124e-05
3.07943e-05
-9.29567e-06
3.16075e-05
-6.3438e-06
3.19531e-05
-2.55524e-06
3.17634e-05
2.27766e-06
3.10027e-05
8.33731e-06
2.9684e-05
1.56872e-05
2.78597e-05
2.41334e-05
2.54657e-05
3.28833e-05
2.19827e-05
4.0006e-05
1.50829e-05
3.9292e-05
2.41583e-05
3.84481e-06
1.89326e-06
7.77642e-06
-1.19113e-05
1.12491e-05
-1.92996e-05
1.41456e-05
-2.1919e-05
1.663e-05
-2.22333e-05
1.889e-05
-2.16141e-05
2.10286e-05
-2.06513e-05
2.30732e-05
-1.95291e-05
2.50092e-05
-1.82617e-05
2.68029e-05
-1.68039e-05
2.84134e-05
-1.50824e-05
2.97949e-05
-1.2994e-05
3.08956e-05
-1.03964e-05
3.16548e-05
-7.10296e-06
3.20096e-05
-2.91011e-06
3.19108e-05
2.37645e-06
3.13421e-05
8.90602e-06
3.03385e-05
1.66909e-05
2.89789e-05
2.54929e-05
2.72218e-05
3.46404e-05
2.45183e-05
4.27095e-05
1.79472e-05
4.58631e-05
4.20895e-05
4.61119e-06
-2.71793e-06
9.46732e-06
-1.67674e-05
1.32049e-05
-2.30371e-05
1.59377e-05
-2.46518e-05
1.8128e-05
-2.44235e-05
2.00976e-05
-2.35836e-05
2.19809e-05
-2.25346e-05
2.38034e-05
-2.13515e-05
2.5543e-05
-2.00013e-05
2.71619e-05
-1.84228e-05
2.86191e-05
-1.65395e-05
2.98736e-05
-1.42485e-05
3.08833e-05
-1.1406e-05
3.15996e-05
-7.81932e-06
3.19743e-05
-3.28481e-06
3.19735e-05
2.37734e-06
3.15946e-05
9.28492e-06
3.08879e-05
1.73976e-05
2.99605e-05
2.64203e-05
2.88235e-05
3.57774e-05
2.70409e-05
4.44921e-05
2.1693e-05
5.1211e-05
6.37672e-05
-3.37538e-21
2.96828e-22
-4.14592e-20
6.0227e-21
-4.61943e-19
1.06228e-19
-1.41943e-18
3.8461e-19
-3.1042e-18
6.75149e-19
-7.23984e-18
1.01077e-18
-1.98994e-17
1.59901e-18
-5.4536e-17
1.98701e-18
-1.28773e-16
8.51624e-20
-2.38645e-16
-1.26568e-17
-3.57982e-16
-2.45046e-17
-4.39377e-16
-4.91551e-17
-5.52927e-16
-9.87712e-17
-3.43136e-16
-6.57704e-16
-1.24124e-16
-4.50006e-16
-4.79067e-17
-2.46097e-16
-2.09345e-17
-1.43003e-16
-4.99295e-18
-8.80493e-17
-7.71027e-17
-3.52214e-20
1.49885e-20
-1.08933e-18
7.10643e-19
-4.82124e-18
4.14477e-18
-1.23853e-17
8.77471e-18
-3.54266e-17
1.64501e-17
-1.31606e-16
4.09322e-17
-4.87802e-16
9.42401e-17
-1.37132e-15
1.22488e-16
-2.63426e-15
-3.05967e-17
-3.34343e-15
-5.5813e-16
-3.89681e-15
-5.82498e-16
-4.67674e-15
-8.26537e-16
-7.68473e-15
2.99251e-16
-6.45369e-15
-2.42479e-15
-2.59406e-15
-4.6735e-15
-6.84751e-16
-2.38639e-15
-3.66716e-16
-6.27927e-16
-4.65855e-17
-5.22973e-16
-2.21681e-16
-1.15161e-18
5.23995e-19
-1.10806e-17
8.80195e-18
-2.3067e-17
2.23162e-17
-4.21075e-17
3.33616e-17
-1.46107e-16
7.83185e-17
-8.80044e-16
3.20273e-16
-3.89037e-15
1.00783e-15
-1.02939e-14
1.5512e-15
-1.68842e-14
-1.64534e-17
-2.34322e-14
-1.71184e-16
-3.08645e-14
-4.79077e-16
-4.95533e-14
4.11853e-15
-1.35245e-13
6.68887e-14
-1.14598e-13
-2.67808e-14
-4.53309e-14
-8.05048e-14
-1.14868e-14
-3.99897e-14
-5.16011e-15
-9.63728e-15
-7.39516e-16
-7.40673e-15
-2.02357e-15
-1.33e-18
9.26302e-19
-9.34747e-18
1.16953e-17
-1.8844e-17
2.80608e-17
-5.25187e-17
6.46932e-17
-4.34422e-16
2.83934e-16
-3.45009e-15
1.53176e-15
-1.44362e-14
5.86187e-15
-3.20656e-14
1.57751e-14
-3.24047e-14
3.40334e-15
-8.13189e-14
4.36427e-14
-1.43732e-13
6.09566e-14
-4.71983e-13
2.56753e-13
-1.63974e-12
1.01025e-12
-1.42922e-12
-2.83553e-13
-5.88568e-13
-1.0354e-12
-1.49264e-13
-5.28255e-13
-5.61677e-14
-1.29254e-13
-8.09325e-15
-8.079e-14
-2.18748e-14
-5.4313e-19
8.0808e-19
-2.88709e-18
1.33703e-17
-6.24998e-17
8.64772e-17
-6.76461e-16
6.95538e-16
-1.52053e-15
1.37958e-15
-1.06948e-14
8.47839e-15
-1.00563e-13
3.35675e-14
-8.45096e-13
1.29623e-13
-2.01879e-12
8.09281e-14
-1.47152e-12
-7.1984e-13
-1.36617e-12
8.09476e-13
-4.8056e-12
3.786e-12
-1.5107e-11
9.76464e-12
-1.32641e-11
-2.69343e-12
-5.50503e-12
-1.01258e-11
-1.41645e-12
-5.1572e-12
-5.02402e-13
-1.31557e-12
-7.8403e-14
-7.34008e-13
-1.81748e-13
-1.62085e-16
1.25929e-16
-6.19019e-15
7.26561e-15
-2.10001e-14
4.87998e-14
-2.7785e-14
6.85673e-14
-2.85584e-14
6.22889e-14
-1.83656e-14
3.926e-14
4.68604e-15
3.81385e-14
7.02828e-14
7.19641e-14
-2.55395e-12
2.23622e-13
-2.86849e-11
1.22283e-13
-3.7816e-11
-2.61375e-12
-3.31931e-11
9.51274e-12
-1.10323e-10
8.63125e-11
-9.81116e-11
-2.17204e-11
-4.05821e-11
-7.9521e-11
-1.0494e-11
-3.97872e-11
-3.45741e-12
-1.05354e-11
-5.71516e-13
-5.34457e-12
-1.51176e-12
-2.50425e-16
3.52248e-16
-4.4564e-15
1.19338e-14
-1.34291e-14
8.14607e-14
-1.44996e-14
1.25399e-13
-1.62816e-15
7.57485e-14
-3.05602e-15
7.19772e-14
-2.51226e-14
6.01672e-14
1.67681e-14
7.21051e-14
1.14982e-12
1.65458e-13
-4.42632e-13
1.26257e-12
-1.35382e-10
8.76611e-12
-1.88618e-10
-6.89081e-11
-6.29121e-10
5.01863e-10
-5.79008e-10
-1.2803e-10
-2.38707e-10
-5.09157e-10
-6.30577e-11
-2.47051e-10
-1.94486e-11
-6.86365e-11
-3.30229e-12
-3.21516e-11
-9.85991e-12
4.43567e-18
3.19131e-16
1.73115e-18
1.13948e-14
-1.43025e-16
8.17541e-14
1.22919e-15
1.24014e-13
-9.8293e-15
-3.69336e-13
-9.68629e-14
-7.97952e-13
-2.63184e-13
-7.51075e-13
-2.30647e-13
-4.28081e-13
-1.81946e-14
-1.49214e-13
-3.31382e-12
4.55805e-12
-7.2727e-11
6.33782e-11
-6.75129e-10
1.11402e-11
-2.3367e-09
2.65413e-09
-2.55288e-09
-3.0182e-10
-1.22981e-09
-2.40538e-09
-3.51315e-10
-1.3189e-09
-1.0489e-10
-3.96562e-10
-1.89125e-11
-1.74046e-10
-5.69419e-11
1.29818e-05
-1.56993e-05
2.62717e-05
-3.0053e-05
3.40415e-05
-3.08014e-05
3.87536e-05
-2.93587e-05
4.23698e-05
-2.80352e-05
4.57155e-05
-2.69255e-05
4.90285e-05
-2.58444e-05
5.2307e-05
-2.46274e-05
5.54701e-05
-2.31625e-05
5.84236e-05
-2.1375e-05
6.10827e-05
-1.91977e-05
6.33797e-05
-1.65451e-05
6.52649e-05
-1.3291e-05
6.6678e-05
-9.23239e-06
6.75645e-05
-4.17135e-06
6.79038e-05
2.03808e-06
6.77118e-05
9.47693e-06
6.71264e-05
1.7983e-05
6.64725e-05
2.70742e-05
6.60038e-05
3.62461e-05
6.54045e-05
4.50914e-05
6.37097e-05
5.29058e-05
6.24435e-05
6.50514e-05
1.85792e-05
-1.76188e-05
2.69693e-05
-1.77402e-05
3.0049e-05
-1.21964e-05
3.3023e-05
-1.14745e-05
3.62763e-05
-1.19053e-05
3.98011e-05
-1.26577e-05
4.35535e-05
-1.34918e-05
4.74162e-05
-1.42966e-05
5.12345e-05
-1.49354e-05
5.48766e-05
-1.5289e-05
5.82134e-05
-1.52349e-05
6.11011e-05
-1.45946e-05
6.33825e-05
-1.3112e-05
6.48417e-05
-1.0248e-05
6.59177e-05
-5.24731e-06
6.67784e-05
1.17735e-06
6.74091e-05
8.84629e-06
6.78963e-05
1.74957e-05
6.86245e-05
2.63461e-05
6.98526e-05
3.50179e-05
7.11404e-05
4.38036e-05
7.18798e-05
5.21664e-05
6.12529e-05
7.30704e-05
4.19398e-06
1.5517e-13
2.59583e-06
1.02116e-13
2.2088e-06
7.88514e-14
2.85284e-06
8.90197e-14
3.8834e-06
2.76454e-13
5.21975e-06
1.3567e-12
6.96084e-06
2.44207e-12
9.19183e-06
2.70403e-12
1.1986e-05
2.21038e-12
1.55074e-05
1.43721e-12
2.00442e-05
7.66526e-13
2.60293e-05
3.29011e-13
3.38069e-05
1.01747e-13
4.29673e-05
7.30179e-15
5.16153e-05
-1.69278e-06
5.91496e-05
5.6956e-08
6.38197e-05
5.12867e-06
6.70032e-05
1.43121e-05
6.93689e-05
2.39804e-05
7.23294e-05
3.20574e-05
7.50496e-05
4.10834e-05
7.73497e-05
4.98663e-05
5.74721e-05
8.11305e-05
-5.57948e-14
2.47657e-13
-5.7925e-14
1.77633e-13
-7.94841e-14
2.07033e-13
-1.02928e-13
2.30985e-13
-3.51408e-13
6.76691e-13
-1.88863e-12
2.86534e-12
-3.72267e-12
4.93126e-12
-4.52575e-12
5.52601e-12
-4.09803e-12
4.74886e-12
-2.99499e-12
3.37953e-12
-1.83463e-12
2.05897e-12
-9.34667e-13
1.08098e-12
-3.61538e-13
4.82595e-13
-3.59326e-14
1.67877e-13
2.83815e-06
5.1897e-14
9.02754e-06
5.86775e-15
2.02709e-05
3.64834e-08
4.00188e-05
2.87074e-07
6.22943e-05
5.12634e-06
7.29668e-05
2.08033e-05
7.85121e-05
3.5538e-05
8.35675e-05
4.4811e-05
5.10408e-05
8.99988e-05
5.03063e-14
1.65084e-13
2.55553e-14
1.83032e-13
-3.86206e-14
2.7415e-13
-9.59635e-14
2.91979e-13
-4.15258e-13
5.88653e-13
-2.29079e-12
1.89192e-12
-4.79238e-12
3.01381e-12
-6.29639e-12
3.30889e-12
-6.26284e-12
2.87611e-12
-5.178e-12
2.10858e-12
-3.73317e-12
1.34618e-12
-2.40782e-12
7.58734e-13
-1.41381e-12
3.7655e-13
-7.78265e-13
1.62306e-13
-3.89041e-13
5.53382e-14
-1.79929e-13
9.90307e-15
3.63972e-08
8.23127e-11
3.22127e-07
1.427e-09
5.50369e-06
2.7911e-08
2.23975e-05
1.09696e-07
4.45366e-05
2.87748e-07
6.75361e-05
4.05974e-06
1.58229e-05
9.21966e-05
4.01669e-14
7.25807e-14
3.96855e-14
1.08795e-13
-1.43874e-14
1.92345e-13
-6.84836e-14
2.12123e-13
-2.33132e-13
2.13097e-13
-1.04642e-12
2.00816e-13
-2.1404e-12
1.8013e-13
-2.87774e-12
1.55045e-13
-2.99323e-12
1.28333e-13
-2.61453e-12
1.02001e-13
-2.01275e-12
7.75231e-14
-1.41036e-12
5.58808e-14
-9.21102e-13
3.76353e-14
-5.6885e-13
2.3027e-14
-3.3785e-13
1.21639e-14
-1.95514e-13
4.82803e-15
8.21808e-11
1.08049e-15
1.50459e-09
2.39321e-12
2.92353e-08
1.89848e-10
1.3708e-07
1.86497e-09
4.17809e-07
6.37742e-09
2.63306e-06
2.69576e-08
1.55371e-07
1.42152e-05
6.15365e-15
2.71787e-14
4.78206e-15
4.5091e-14
-1.37793e-14
8.22771e-14
-4.04048e-14
9.86153e-14
-6.71174e-14
1.02857e-13
-8.94406e-14
9.91914e-14
-1.05155e-13
9.05833e-14
-1.13593e-13
7.92554e-14
-1.15333e-13
6.67826e-14
-1.1171e-13
5.42514e-14
-1.04318e-13
4.24011e-14
-9.46586e-14
3.17056e-14
-8.39515e-14
2.24548e-14
-7.30722e-14
1.48073e-14
-6.25368e-14
8.86669e-15
-5.25466e-14
4.57507e-15
-4.26514e-14
1.80025e-15
2.34522e-12
3.46706e-15
1.93168e-10
5.18225e-13
2.03408e-09
5.11683e-12
8.37834e-09
1.18377e-11
3.50418e-08
1.22734e-10
1.44191e-09
1.88179e-07
9.40843e-16
8.32673e-15
-7.44819e-16
1.3634e-14
-6.8345e-15
2.52505e-14
-1.64926e-14
3.22158e-14
-2.70883e-14
3.49343e-14
-3.67926e-14
3.45362e-14
-4.45055e-14
3.2091e-14
-4.97237e-14
2.84587e-14
-5.24301e-14
2.42636e-14
-5.29281e-14
1.99353e-14
-5.16772e-14
1.57725e-14
-4.91569e-14
1.19629e-14
-4.58124e-14
8.63542e-15
-4.20145e-14
5.87514e-15
-3.7968e-14
3.70156e-15
-3.37868e-14
2.10275e-15
-2.94706e-14
1.0236e-15
-2.49923e-14
3.41724e-16
4.90716e-13
4.14325e-15
5.5714e-12
1.44102e-14
1.75599e-11
3.12658e-14
1.41252e-10
4.44634e-13
9.02441e-12
1.56545e-09
-1.73463e-17
2.01856e-15
-4.56228e-16
3.07803e-15
-2.04305e-15
5.75969e-15
-4.59467e-15
7.76324e-15
-7.58537e-15
8.77551e-15
-1.05211e-14
8.91042e-15
-1.30491e-14
8.41153e-15
-1.49697e-14
7.5171e-15
-1.62111e-14
6.40863e-15
-1.67895e-14
5.21516e-15
-1.67811e-14
4.04488e-15
-1.62733e-14
2.9667e-15
-1.53668e-14
2.02277e-15
-1.41759e-14
1.26989e-15
-1.27414e-14
6.76024e-16
-1.11114e-14
2.37193e-16
-9.35307e-15
1.24296e-17
-7.52832e-15
-1.35974e-16
-5.12915e-15
-1.52008e-16
9.48068e-15
-1.99611e-16
4.17136e-14
-1.3628e-16
5.0868e-13
-2.51304e-15
1.71063e-14
9.53078e-12
-2.4611e-17
4.07635e-16
-1.06828e-16
5.52113e-16
-3.94724e-16
1.01626e-15
-8.87962e-16
1.48453e-15
-1.51068e-15
1.79205e-15
-2.15992e-15
1.88615e-15
-2.74767e-15
1.80244e-15
-3.21408e-15
1.59803e-15
-3.52218e-15
1.31805e-15
-3.65053e-15
9.97137e-16
-3.60132e-15
6.77348e-16
-3.38034e-15
4.05305e-16
-2.99007e-15
1.59713e-16
-2.48814e-15
4.09992e-18
-1.8083e-15
-1.20041e-16
-9.00375e-16
-2.75218e-16
-7.05389e-17
-4.16112e-16
1.87944e-15
-4.82225e-16
3.27231e-15
-4.41969e-16
4.94963e-15
-4.0582e-16
1.02657e-14
-5.14429e-16
2.45926e-14
-5.8916e-16
9.50709e-17
5.61027e-14
-5.48304e-18
8.68547e-17
-1.51883e-17
1.0114e-16
-5.21503e-17
1.74034e-16
-1.26742e-16
2.90594e-16
-2.32874e-16
3.82359e-16
-3.50254e-16
4.12036e-16
-4.5777e-16
3.86502e-16
-5.38558e-16
3.23564e-16
-5.77753e-16
2.36044e-16
-5.61721e-16
1.35672e-16
-4.87817e-16
3.1628e-17
-3.73418e-16
-1.55124e-17
-1.89384e-16
-7.53075e-17
-6.32602e-18
-1.47648e-16
4.01042e-16
-1.49988e-16
1.0374e-15
-1.91594e-16
1.95717e-15
-1.83777e-16
2.94056e-15
-2.14172e-16
3.83027e-15
-2.93349e-16
5.4696e-15
-3.12409e-16
1.25121e-14
-2.62522e-16
2.96872e-14
-1.91056e-16
-1.22896e-16
4.32786e-14
-9.08381e-19
2.3578e-17
-1.81679e-18
2.60567e-17
-5.9268e-18
4.28212e-17
-1.71419e-17
7.6759e-17
-3.55714e-17
1.02129e-16
-5.63551e-17
1.0548e-16
-7.39494e-17
9.12573e-17
-8.36385e-17
6.68673e-17
-8.04742e-17
3.68086e-17
-6.00402e-17
8.24278e-18
-1.79944e-17
-2.78727e-17
3.05868e-17
-3.80068e-17
1.04243e-16
-4.07865e-17
1.76054e-16
-2.28368e-17
2.31666e-16
-9.83311e-18
2.35657e-16
-1.77574e-17
2.88649e-16
-2.16999e-17
5.12488e-16
-3.12159e-17
9.50735e-16
-4.53282e-17
1.17628e-15
-5.68019e-17
1.26508e-15
-6.00334e-17
1.2625e-15
-5.72821e-17
-5.26991e-17
1.34044e-15
-1.41547e-19
6.6371e-18
-2.37152e-19
7.54446e-18
-8.33477e-19
1.24864e-17
-2.86726e-18
2.18264e-17
-6.43774e-18
2.74734e-17
-1.02333e-17
2.60397e-17
-1.27949e-17
1.98763e-17
-1.2972e-17
1.18909e-17
-9.58453e-18
3.48306e-18
-2.82048e-18
-9.92161e-19
1.23322e-17
-5.63198e-18
2.1613e-17
-6.43453e-18
1.40814e-17
-5.70527e-18
1.02348e-17
-2.26497e-18
1.15417e-17
-2.04156e-18
1.56143e-17
-2.44537e-18
2.78838e-17
-4.01066e-18
5.35533e-17
-6.35928e-18
9.51567e-17
-8.31101e-18
1.43055e-16
-9.30314e-18
1.88569e-16
-9.78953e-18
2.38367e-16
-1.03465e-17
-1.2094e-17
3.10374e-16
-1.2277e-20
1.60197e-18
-1.81338e-20
1.86393e-18
-1.09048e-19
3.09392e-18
-4.65371e-19
5.18131e-18
-1.11248e-18
6.09896e-18
-1.7374e-18
5.23003e-18
-2.00272e-18
3.38195e-18
-1.70875e-18
1.51826e-18
-6.86369e-19
-1.57036e-19
6.45422e-19
-3.78023e-19
1.51016e-18
-3.19216e-19
2.85551e-18
-2.50006e-19
1.11314e-18
-1.98959e-19
8.69386e-19
-1.91698e-19
1.00752e-18
-2.10385e-19
1.83386e-18
-3.03485e-19
4.11896e-18
-5.25807e-19
7.69371e-18
-7.33083e-19
1.14899e-17
-8.05215e-19
1.53409e-17
-8.68156e-19
2.04113e-17
-1.13044e-18
2.98027e-17
-2.05248e-18
-5.66578e-18
5.42577e-17
1.37531e-21
3.18533e-19
4.99484e-21
3.75537e-19
-6.39175e-21
6.17986e-19
-5.60835e-20
9.76008e-19
-1.52958e-19
1.06569e-18
-2.36989e-19
8.16782e-19
-2.44123e-19
4.22088e-19
-1.61817e-19
1.35305e-19
3.33403e-20
-8.92573e-21
4.3697e-20
-2.5293e-20
4.12374e-20
-2.55274e-20
4.19461e-20
-2.46861e-20
4.71966e-20
-2.10532e-20
6.00322e-20
-1.80249e-20
8.98469e-20
-1.86365e-20
1.80855e-19
-2.42747e-20
3.8071e-19
-3.29736e-20
5.84702e-19
-3.90166e-20
7.65296e-19
-5.0624e-20
1.09574e-18
-1.13659e-19
2.3578e-18
-4.30294e-19
7.60576e-18
-1.7343e-18
-7.72988e-18
2.97192e-17
7.81923e-22
4.88395e-20
1.9428e-21
5.76949e-20
9.33263e-22
9.30041e-20
-5.10367e-21
1.36761e-19
-1.69691e-20
1.37771e-19
-2.58661e-20
9.34016e-20
-2.24033e-20
3.57408e-20
-1.09468e-20
8.83423e-21
1.53207e-21
9.06908e-22
2.27688e-21
-1.23962e-21
2.97945e-21
-2.15959e-21
3.73073e-21
-2.07882e-21
3.83509e-21
-1.60277e-21
4.34289e-21
-1.12e-21
5.94131e-21
-1.1051e-21
1.03766e-20
-1.23805e-21
1.67637e-20
-1.49317e-21
2.44449e-20
-2.38934e-21
4.64987e-20
-9.25222e-21
1.91708e-19
-6.1928e-20
1.164e-18
-4.01278e-19
6.31959e-18
-2.17171e-18
-1.54059e-17
3.80455e-17
1.20947e-22
5.1175e-21
2.45598e-22
5.98643e-21
1.3516e-22
9.34074e-21
-4.93965e-22
1.26906e-20
-1.63419e-21
1.17755e-20
-2.27604e-21
7.0054e-21
-1.49143e-21
1.94691e-21
-5.70799e-22
1.68075e-22
-8.50541e-23
-1.34216e-22
1.38664e-22
-1.47975e-22
2.02467e-22
-1.51919e-22
2.5347e-22
-1.40422e-22
2.15972e-22
-9.49102e-23
2.17296e-22
-5.3586e-23
2.72052e-22
-4.99754e-23
3.9989e-22
-5.51141e-23
6.40727e-22
-1.05504e-22
1.69209e-21
-6.09025e-22
1.18148e-20
-5.68804e-21
1.11161e-19
-5.10049e-20
9.85226e-19
-4.46602e-19
7.36244e-18
-3.69195e-18
-3.70335e-17
7.07323e-17
5.71287e-24
2.73704e-22
3.67822e-24
3.13169e-22
-1.11866e-23
4.67445e-22
-6.26663e-23
5.87277e-22
-1.36892e-22
5.03821e-22
-1.53373e-22
2.61828e-22
-7.07377e-23
7.77465e-23
-9.33733e-24
1.27856e-23
1.0766e-23
-1.81912e-24
8.88422e-24
-7.13481e-24
1.19532e-23
-7.80105e-24
1.37438e-23
-6.95051e-24
9.69188e-24
-4.24686e-24
8.40707e-24
-2.01352e-24
1.00458e-23
-1.98125e-24
1.5696e-23
-4.27427e-24
5.78306e-23
-3.53555e-23
5.77314e-22
-4.04954e-22
7.12859e-21
-4.43561e-21
8.02387e-20
-4.51749e-20
9.3404e-19
-5.22326e-19
1.11711e-17
-6.38224e-18
-7.12907e-17
1.23271e-16
-1.69861e-25
1.01865e-27
-8.24808e-25
5.15546e-27
-2.1866e-24
1.23476e-26
-4.78932e-24
8.77643e-27
-7.03372e-24
1.97932e-28
-5.96005e-24
-6.65313e-26
-2.73264e-24
-5.73566e-25
-6.60783e-25
-4.64465e-25
2.58892e-25
-2.05537e-25
4.04952e-25
-2.45895e-25
5.36075e-25
-2.7094e-25
5.6979e-25
-2.32506e-25
3.44969e-25
-1.27162e-25
2.8212e-25
-6.14213e-26
3.61153e-25
-1.33379e-25
1.73715e-24
-1.51357e-24
2.40955e-23
-2.21813e-23
3.61105e-22
-2.92105e-22
4.79684e-21
-3.42837e-21
5.99672e-20
-3.81505e-20
9.2947e-19
-5.80116e-19
1.48136e-17
-9.29227e-18
-1.08574e-16
1.7208e-16
-2.8901e-30
1.47095e-28
-3.09445e-29
7.43007e-28
-1.07711e-28
1.83965e-27
-1.08185e-28
1.38638e-27
-3.51147e-30
1.25148e-28
1.70605e-27
-4.12161e-28
2.09994e-26
-6.41743e-27
1.97453e-26
-3.13356e-27
7.45622e-27
-4.20227e-27
1.25896e-26
-5.82868e-27
1.68841e-26
-5.49519e-27
1.64573e-26
-4.09985e-27
8.79501e-27
-1.85374e-27
7.75384e-27
-3.30439e-27
3.87832e-26
-4.41693e-26
7.33333e-25
-8.04105e-25
1.38606e-23
-1.28704e-23
2.20234e-22
-1.83706e-22
3.086e-21
-2.29731e-21
4.1736e-20
-2.72993e-20
8.86298e-19
-5.81192e-19
1.68363e-17
-1.12757e-17
-1.36233e-16
1.9979e-16
-7.62837e-31
1.06727e-29
-6.89003e-30
5.39045e-29
-2.3414e-29
1.37398e-28
-2.31249e-29
1.01785e-28
-2.75638e-30
1.11119e-29
1.55127e-29
-1.44022e-29
2.52997e-28
-4.62557e-29
8.37617e-29
-1.03065e-28
1.73038e-28
-1.4233e-28
2.67167e-28
-1.2706e-28
3.05905e-28
-7.10641e-29
2.37927e-28
-2.13047e-29
1.69388e-28
-4.57209e-29
6.4473e-28
-8.58524e-28
1.53164e-26
-1.90155e-26
3.52169e-25
-3.54337e-25
6.71404e-24
-6.07404e-24
1.14489e-22
-9.36497e-23
1.68978e-21
-1.23249e-21
2.40733e-20
-1.53374e-20
6.75485e-19
-4.40459e-19
1.68304e-17
-1.21229e-17
-1.48832e-16
2.01516e-16
-7.83823e-32
6.06099e-48
-6.52058e-31
3.10839e-45
-2.23084e-30
3.36679e-45
-2.09993e-30
5.85319e-44
-2.8993e-31
-1.36677e-33
5.3152e-31
-1.16357e-31
1.44665e-30
-1.19107e-30
3.57484e-30
-3.54814e-30
5.11435e-30
-5.39177e-30
5.20955e-30
-4.84963e-30
2.52314e-30
-2.56155e-30
1.48653e-30
-1.02065e-30
6.99066e-30
-1.17149e-29
2.16927e-28
-3.08071e-28
5.97344e-27
-6.63429e-27
1.31506e-25
-1.3172e-25
2.68466e-24
-2.39888e-24
4.87478e-23
-3.91467e-23
7.44224e-22
-5.24684e-22
1.09703e-20
-6.65662e-21
4.13272e-19
-2.80438e-19
1.48569e-17
-1.01355e-17
-1.34082e-16
1.83663e-16
-5.52982e-50
2.10092e-48
-4.43317e-47
1.02946e-45
-6.38452e-47
1.14514e-45
-1.39263e-45
1.32801e-44
7.94938e-35
-2.92446e-40
4.01404e-33
-7.12346e-36
4.43512e-32
-5.44111e-34
1.31658e-31
-3.20989e-33
1.91845e-31
-7.34378e-33
1.94821e-31
-9.80432e-33
9.00108e-32
-1.23699e-32
7.10926e-32
-1.10485e-31
2.19769e-30
-3.47332e-30
7.16685e-29
-8.87258e-29
1.81438e-27
-2.05976e-27
4.27337e-26
-4.28133e-26
9.13236e-25
-8.14417e-25
1.72766e-23
-1.37956e-23
2.6362e-22
-1.80318e-22
3.9181e-21
-2.25382e-21
2.15792e-19
-1.40229e-19
9.31201e-18
-6.655e-18
-1.02063e-16
1.25768e-16
-2.19081e-50
3.57815e-49
-1.61525e-47
1.71697e-46
-2.37941e-47
1.96251e-46
-3.44763e-46
1.08548e-45
9.30281e-42
-1.50119e-43
2.74245e-37
-1.23293e-39
2.34297e-35
-1.70892e-36
1.39592e-34
-3.12039e-35
3.13457e-34
-1.28953e-34
4.77102e-34
-2.42769e-34
8.07857e-34
-1.00183e-33
1.51524e-32
-2.99438e-32
6.11502e-31
-8.75837e-31
1.83237e-29
-2.38384e-29
5.02655e-28
-5.75691e-28
1.21815e-26
-1.22974e-26
2.68447e-25
-2.40837e-25
5.19223e-24
-4.14786e-24
7.59614e-23
-5.08486e-23
1.10221e-21
-6.05704e-22
8.75421e-20
-5.47846e-20
5.07038e-18
-3.83494e-18
-7.18267e-17
8.12049e-17
-4.0287e-51
-5.79476e-51
-2.81846e-48
-1.06115e-51
-4.25485e-48
5.40097e-53
-2.9397e-47
-5.58595e-49
5.06879e-45
-3.87797e-45
4.92456e-41
-2.31753e-42
8.01348e-38
-1.185e-38
1.56855e-36
-4.84485e-37
6.35841e-36
-2.23299e-36
1.44605e-35
-7.40167e-36
9.78176e-35
-1.91404e-34
4.11526e-33
-6.76346e-33
1.39395e-31
-2.07401e-31
4.4448e-30
-5.78191e-30
1.24407e-28
-1.43259e-28
3.05681e-27
-3.08977e-27
6.84793e-26
-6.11206e-26
1.32662e-24
-1.05219e-24
1.79833e-23
-1.19288e-23
2.47823e-22
-1.35218e-22
2.80267e-20
-1.69961e-20
2.42245e-18
-1.89693e-18
-4.53236e-17
4.79532e-17
6.78938e-53
-1.19827e-51
1.75383e-53
-6.18755e-53
-1.17488e-54
5.80014e-53
3.03754e-50
-1.16072e-51
1.43648e-46
-7.1816e-46
9.42182e-44
-7.39712e-44
5.60385e-40
-2.21216e-41
2.44467e-38
-2.07605e-39
1.20502e-37
-2.37518e-38
5.291e-37
-8.36257e-37
2.02796e-35
-3.9309e-35
8.37093e-34
-1.33637e-33
2.98331e-32
-4.26429e-32
9.5658e-31
-1.21237e-30
2.71141e-29
-3.05985e-29
6.63433e-28
-6.52032e-28
1.4824e-26
-1.27858e-26
2.83262e-25
-2.17924e-25
3.53654e-24
-2.36556e-24
4.66895e-23
-2.77283e-23
7.12117e-21
-4.15452e-21
9.88354e-19
-8.3126e-19
-2.59397e-17
2.51703e-17
1.43282e-53
-6.90219e-54
5.29338e-55
-1.98365e-54
-1.22467e-54
2.60636e-53
3.11652e-53
4.16419e-53
2.67265e-47
-8.87228e-47
3.15919e-45
-1.19147e-44
1.03649e-42
-7.27177e-43
1.09572e-40
-4.78658e-41
1.53715e-39
-2.88843e-39
6.95005e-38
-1.54228e-37
3.83178e-36
-5.99661e-36
1.4894e-34
-2.21271e-34
5.43423e-33
-7.22215e-33
1.75415e-31
-2.08802e-31
4.99543e-30
-5.30834e-30
1.19126e-28
-1.09809e-28
2.6075e-27
-2.09432e-27
4.88526e-26
-3.53617e-26
5.88037e-25
-4.07573e-25
8.15561e-24
-5.82871e-24
1.4162e-21
-8.02765e-22
3.54989e-19
-3.20359e-19
-1.31084e-17
1.18204e-17
4.24749e-56
-1.93433e-55
1.5428e-56
8.08117e-56
-5.18083e-55
2.13691e-53
-1.04004e-54
1.76853e-52
2.97773e-48
-6.76723e-48
4.91637e-46
-1.03876e-45
3.44679e-44
-1.02852e-43
2.66225e-42
-7.15574e-42
1.92781e-40
-4.07859e-40
1.19399e-38
-1.81218e-38
5.21633e-37
-7.76127e-37
2.1914e-35
-2.92618e-35
8.04666e-34
-9.57686e-34
2.60416e-32
-2.77712e-32
7.36471e-31
-7.09631e-31
1.68286e-29
-1.41304e-29
3.54321e-28
-2.58804e-28
6.55165e-27
-4.42642e-27
8.49991e-26
-6.32163e-26
1.44726e-24
-1.20205e-24
2.20452e-22
-1.2502e-22
1.10098e-19
-1.08534e-19
-5.71113e-18
4.77778e-18
1.2536e-57
-8.05386e-57
-1.16249e-57
1.33017e-55
-3.87566e-55
2.02378e-53
-4.04932e-54
2.0558e-52
2.05994e-49
-5.01757e-49
3.86228e-47
-8.92374e-47
4.64341e-45
-7.79961e-45
3.78864e-43
-5.6529e-43
2.47006e-41
-3.39884e-41
1.24171e-39
-1.77441e-39
6.04392e-38
-7.97629e-38
2.54294e-36
-2.92377e-36
9.22812e-35
-9.51723e-35
2.95054e-33
-2.71259e-33
8.26743e-32
-6.99222e-32
1.79572e-30
-1.36781e-30
3.59825e-29
-2.4879e-29
6.75347e-28
-4.60332e-28
1.09228e-26
-8.71187e-27
2.41442e-25
-1.97622e-25
2.72907e-23
-1.69228e-23
2.93485e-20
-3.24271e-20
-2.09681e-18
1.61692e-18
5.24588e-59
-2.57812e-58
-1.72367e-57
9.01758e-56
-3.23439e-55
1.32084e-53
-4.18871e-54
1.5655e-52
1.36935e-50
-2.93677e-50
2.99634e-48
-5.59005e-48
3.11767e-46
-5.40796e-46
2.64968e-44
-4.13051e-44
1.83558e-42
-2.59599e-42
1.08983e-40
-1.31537e-40
5.47022e-39
-5.81295e-39
2.21005e-37
-2.13656e-37
7.87265e-36
-6.91743e-36
2.43589e-34
-1.89271e-34
6.7851e-33
-5.0174e-33
1.43202e-31
-1.05622e-31
2.83513e-30
-2.20809e-30
5.74257e-29
-4.63095e-29
1.20294e-27
-9.39623e-28
3.04586e-26
-2.17745e-26
2.88281e-24
-2.23241e-24
6.6728e-21
-8.5094e-21
-6.40985e-19
4.43949e-19
1.63374e-60
-4.07912e-60
-1.00792e-57
4.24234e-56
-1.78641e-55
6.50648e-54
-2.75118e-54
8.78901e-53
6.99469e-52
-1.26316e-51
1.64996e-49
-2.57187e-49
1.9301e-47
-2.62654e-47
1.73327e-45
-2.08996e-45
1.25122e-43
-1.35654e-43
7.1273e-42
-7.04775e-42
3.4861e-40
-3.15676e-40
1.39928e-38
-1.15027e-38
4.89513e-37
-3.87339e-37
1.43293e-35
-1.04198e-35
4.05019e-34
-2.97282e-34
9.1119e-33
-7.57348e-33
2.0496e-31
-1.92972e-31
4.58589e-30
-4.05762e-30
9.85097e-29
-6.45584e-29
2.47693e-27
-1.52102e-27
2.85403e-25
-2.72161e-25
1.26609e-21
-1.9196e-21
-1.63628e-19
9.63342e-20
2.315e-62
2.32749e-61
-3.85445e-58
1.33655e-56
-7.09738e-56
2.15477e-54
-1.28836e-54
3.27428e-53
2.7036e-53
-3.02129e-53
6.57666e-51
-8.66083e-51
8.19511e-49
-9.33364e-49
7.70026e-47
-7.74943e-47
5.74093e-45
-5.23339e-45
3.34999e-43
-2.83316e-43
1.65206e-41
-1.32284e-41
6.51991e-40
-5.09191e-40
2.34787e-38
-1.94602e-38
6.6784e-37
-5.85425e-37
2.00296e-35
-1.82822e-35
5.33978e-34
-4.98953e-34
1.40777e-32
-1.0885e-32
3.01278e-31
-1.91577e-31
4.89862e-30
-2.38092e-30
1.22846e-28
-6.09633e-29
2.42574e-26
-2.46638e-26
1.90659e-22
-3.56172e-22
-3.52579e-20
1.60325e-20
-2.49583e-63
1.10647e-61
-9.06999e-59
2.13501e-57
-1.78518e-56
3.59888e-55
-3.85571e-55
6.17924e-54
1.02876e-54
-2.62995e-55
1.88758e-52
-2.1383e-52
2.51471e-50
-2.39225e-50
2.48336e-48
-2.11866e-48
1.93102e-46
-1.48575e-46
1.17316e-44
-8.59205e-45
6.01342e-43
-4.53338e-43
2.49315e-41
-1.88502e-41
1.00661e-39
-7.16577e-40
3.1557e-38
-2.40572e-38
1.01176e-36
-7.77422e-37
2.78738e-35
-2.26633e-35
6.00708e-34
-4.6178e-34
1.02492e-32
-5.46442e-33
1.25784e-31
-3.32169e-32
3.36972e-30
-3.6663e-30
1.3982e-27
-2.04499e-27
2.07017e-23
-5.18944e-23
-6.40129e-21
1.90196e-21
-1.05619e-63
-3.70195e-64
-9.39787e-60
1.50816e-60
-2.07349e-57
9.83874e-59
-5.57211e-56
2.15162e-57
8.13787e-56
-1.55772e-56
3.88958e-54
-3.52513e-54
5.46705e-52
-4.16383e-52
5.81205e-50
-3.891e-50
4.71817e-48
-3.19409e-48
3.06759e-46
-2.03753e-46
1.77014e-44
-1.01786e-44
7.87933e-43
-5.24521e-43
3.1281e-41
-2.12752e-41
1.07659e-39
-7.72292e-40
3.48648e-38
-2.54334e-38
9.91585e-37
-6.87611e-37
1.89518e-35
-1.04098e-35
1.98759e-34
-3.77521e-35
1.15483e-33
-5.42833e-34
1.29604e-31
-1.49766e-31
6.44215e-29
-1.18311e-28
1.3533e-24
-5.80308e-24
-9.44061e-22
1.16891e-22
2.99237e-66
1.23254e-63
-2.99443e-63
5.52118e-61
-3.28746e-61
3.47243e-59
-1.37338e-59
8.4402e-58
1.88687e-58
-8.12959e-59
5.18496e-56
-3.22683e-56
7.88091e-54
-4.1947e-54
8.95918e-52
-5.00484e-52
8.56598e-50
-3.86187e-50
6.14637e-48
-2.55899e-48
3.36224e-46
-1.7131e-46
1.8487e-44
-9.06993e-45
7.77438e-43
-4.11186e-43
2.85497e-41
-1.69713e-41
9.23071e-40
-6.16475e-40
2.34057e-38
-1.41152e-38
2.8857e-37
-6.26288e-38
9.28756e-37
-1.34638e-37
1.32151e-35
-1.1618e-35
3.08485e-33
-9.51731e-33
2.26939e-30
-6.50005e-29
2.15353e-26
-5.27192e-25
-1.04286e-22
-1.65336e-23
-6.7772e-66
2.80667e-64
1.32328e-62
1.11294e-61
-1.82371e-62
6.20337e-60
-3.14205e-60
1.66761e-58
6.65611e-60
2.77757e-60
3.69093e-58
-1.12633e-58
6.36954e-56
-1.61805e-56
9.38566e-54
-1.71573e-54
8.49984e-52
-1.82575e-52
6.38351e-50
-1.50201e-50
4.69544e-48
-1.21651e-48
2.64322e-46
-7.83789e-47
1.24019e-44
-4.43142e-45
5.14308e-43
-2.25338e-43
1.80316e-41
-8.95752e-42
3.48475e-40
-1.13926e-40
1.15722e-39
-7.30706e-40
2.22189e-39
-2.82169e-39
2.07919e-37
-1.62542e-36
1.57e-34
-6.04806e-33
3.0903e-31
-1.14228e-28
-4.16066e-26
-4.45319e-26
-7.27293e-24
-5.69481e-24
1.76209e-64
9.78589e-71
2.73675e-62
1.50961e-69
4.40983e-61
2.42901e-68
-1.84172e-61
2.11332e-67
-1.33994e-62
-7.9982e-64
9.61921e-61
-5.05478e-62
1.87964e-58
-9.7928e-60
2.52297e-56
-1.50444e-57
3.20195e-54
-1.94876e-55
3.00837e-52
-2.2783e-53
2.68624e-50
-2.76848e-51
1.84745e-48
-2.58838e-49
1.08231e-46
-2.08052e-47
5.51553e-45
-1.41884e-45
2.06565e-43
-6.69609e-44
2.28884e-42
-4.63412e-43
1.20876e-41
-1.13303e-42
4.26108e-41
-2.34512e-40
2.30856e-38
-3.59652e-37
7.15211e-35
-5.38093e-33
-2.80997e-31
-1.1237e-28
-3.35827e-27
-5.78204e-27
-2.33133e-25
-5.28607e-25
1.72119e-71
5.44777e-71
2.45651e-70
7.00944e-70
1.2953e-69
1.09105e-68
-1.20894e-66
1.3279e-67
3.39691e-66
2.9834e-70
2.68961e-64
-3.35171e-66