/*--------------------------------*- C++ -*----------------------------------*\
  =========                 |
  \\      /  F ield         | OpenFOAM: The Open Source CFD Toolbox
   \\    /   O peration     | Website:  https://openfoam.org
    \\  /    A nd           | Version:  7
     \\/     M anipulation  |
\*---------------------------------------------------------------------------*/
FoamFile
{
    version     2.0;
    format      ascii;
    class       volVectorField;
    location    "0.45";
    object      U;
}
// * * * * * * * * * * * * * * * * * * * * * * * * * * * * * * * * * * * * * //

dimensions      [0 1 -1 0 0 0 0];

internalField   nonuniform List<vector> 
2268
(
(-0.0486635 0.0184094 0)
(-0.0809949 0.00587009 0)
(-0.0698013 -0.00831026 0)
(-0.0349087 -0.0136866 0)
(0.00812877 -0.0147781 0)
(0.0529449 -0.0146426 0)
(0.0965607 -0.0138902 0)
(0.137933 -0.0129687 0)
(0.176644 -0.0120229 0)
(0.212502 -0.0110536 0)
(0.245271 -0.0100091 0)
(0.274503 -0.00880321 0)
(0.299409 -0.00730703 0)
(0.318692 -0.00529723 0)
(0.330406 -0.00225313 0)
(0.330653 0.00251425 0)
(0.312996 0.00977221 0)
(0.271913 0.0192898 0)
(0.203408 0.0294935 0)
(0.101431 0.0371684 0)
(-0.0171152 0.0388533 0)
(-0.169845 0.00266738 0)
(-0.085763 -0.0585079 0)
(-0.0466087 0.0408182 0)
(-0.0441512 0.00780423 0)
(-0.024151 -0.0173028 0)
(0.0100686 -0.0283323 0)
(0.0503325 -0.0318377 0)
(0.0920106 -0.0320005 0)
(0.132675 -0.0307253 0)
(0.17132 -0.0289388 0)
(0.207521 -0.0269575 0)
(0.241021 -0.0248122 0)
(0.271512 -0.0224029 0)
(0.298504 -0.0195398 0)
(0.321221 -0.0159332 0)
(0.338511 -0.0111351 0)
(0.348649 -0.00437895 0)
(0.350275 0.00538935 0)
(0.34112 0.019244 0)
(0.31627 0.0373797 0)
(0.270406 0.0586118 0)
(0.193217 0.0783022 0)
(0.096966 0.0870447 0)
(-0.0477808 0.0460224 0)
(-0.0141723 -0.0886232 0)
(-0.0277957 0.0551562 0)
(-0.0140307 0.000976327 0)
(0.00914099 -0.0308151 0)
(0.0429545 -0.0451077 0)
(0.0808044 -0.0498351 0)
(0.119381 -0.0499153 0)
(0.156874 -0.0479535 0)
(0.192509 -0.0452049 0)
(0.225924 -0.0421143 0)
(0.25684 -0.0387238 0)
(0.284915 -0.0348789 0)
(0.309641 -0.030292 0)
(0.330269 -0.0245373 0)
(0.345745 -0.0170032 0)
(0.354614 -0.00685834 0)
(0.355357 0.00707878 0)
(0.346427 0.026143 0)
(0.325586 0.0512077 0)
(0.290891 0.0816144 0)
(0.236924 0.111862 0)
(0.170172 0.128078 0)
(0.0584093 0.0815994 0)
(0.0446123 -0.0806952 0)
(-0.00796338 0.0602992 0)
(0.0112597 -0.00781371 0)
(0.0378073 -0.0447958 0)
(0.0716925 -0.0617022 0)
(0.107513 -0.0671959 0)
(0.143113 -0.0670068 0)
(0.177424 -0.0643209 0)
(0.210011 -0.0606455 0)
(0.240618 -0.0564984 0)
(0.268972 -0.0519082 0)
(0.294705 -0.0466636 0)
(0.317301 -0.0403889 0)
(0.33605 -0.0325405 0)
(0.349994 -0.0223703 0)
(0.357895 -0.00892719 0)
(0.35842 0.00900244 0)
(0.350388 0.0327488 0)
(0.332661 0.0632177 0)
(0.30487 0.0998304 0)
(0.264785 0.137105 0)
(0.215599 0.160078 0)
(0.129782 0.117553 0)
(0.0875288 -0.0439014 0)
(0.00754918 0.0540326 0)
(0.0329345 -0.0187807 0)
(0.063751 -0.059775 0)
(0.0981366 -0.0780537 0)
(0.132118 -0.0836047 0)
(0.164776 -0.0828734 0)
(0.195888 -0.0794382 0)
(0.225417 -0.0749186 0)
(0.253237 -0.0698231 0)
(0.279079 -0.064135 0)
(0.302553 -0.0575836 0)
(0.323148 -0.0497187 0)
(0.340198 -0.0399024 0)
(0.352848 -0.0272811 0)
(0.360047 -0.0108228 0)
(0.360698 0.0106683 0)
(0.35393 0.0384141 0)
(0.33919 0.0731359 0)
(0.316808 0.114084 0)
(0.286069 0.156094 0)
(0.247683 0.18525 0)
(0.179274 0.154733 0)
(0.117667 0.0134886 0)
(0.0171821 0.0401396 0)
(0.0511918 -0.0334558 0)
(0.0876749 -0.0760274 0)
(0.122911 -0.0941162 0)
(0.154974 -0.0988401 0)
(0.184584 -0.0972436 0)
(0.212467 -0.0930493 0)
(0.238974 -0.0878003 0)
(0.264076 -0.0818982 0)
(0.287493 -0.0752478 0)
(0.308815 -0.0675204 0)
(0.327535 -0.0582077 0)
(0.343046 -0.0466023 0)
(0.3546 -0.0317727 0)
(0.361316 -0.0126402 0)
(0.362319 0.0119416 0)
(0.356995 0.0430312 0)
(0.345144 0.0810972 0)
(0.327443 0.125181 0)
(0.303956 0.170669 0)
(0.273525 0.205825 0)
(0.218298 0.192497 0)
(0.144247 0.0886149 0)
(0.0224728 0.0212363 0)
(0.0670457 -0.05226 0)
(0.110392 -0.0937709 0)
(0.146354 -0.109814 0)
(0.176026 -0.112762 0)
(0.202354 -0.110035 0)
(0.226999 -0.105134 0)
(0.250584 -0.0993034 0)
(0.273098 -0.0927479 0)
(0.294219 -0.0852746 0)
(0.313509 -0.0765065 0)
(0.330477 -0.0658988 0)
(0.344587 -0.0526997 0)
(0.355207 -0.035921 0)
(0.361612 -0.0144608 0)
(0.363128 0.0127585 0)
(0.359347 0.046615 0)
(0.3503 0.0873036 0)
(0.336886 0.133649 0)
(0.319716 0.181704 0)
(0.296636 0.222454 0)
(0.254601 0.229488 0)
(0.172018 0.176078 0)
(0.0257415 -0.00113783 0)
(0.0826731 -0.0750338 0)
(0.132984 -0.112795 0)
(0.168483 -0.124892 0)
(0.194863 -0.125294 0)
(0.217666 -0.121353 0)
(0.239185 -0.115891 0)
(0.260061 -0.109645 0)
(0.280197 -0.102571 0)
(0.2992 -0.0943822 0)
(0.316602 -0.0846759 0)
(0.331938 -0.0728996 0)
(0.344758 -0.0582875 0)
(0.354563 -0.0398126 0)
(0.360784 -0.0163625 0)
(0.362923 0.0130636 0)
(0.360741 0.0491661 0)
(0.354414 0.0918635 0)
(0.345026 0.139698 0)
(0.333718 0.189311 0)
(0.318531 0.234336 0)
(0.290174 0.261014 0)
(0.220492 0.292036 0)
(-0.0102085 0.018819 0)
(-0.213576 0.0557484 0)
(-0.527087 0.0800016 0)
(-0.897616 0.0945967 0)
(-1.29396 0.0962248 0)
(-1.66719 0.0836544 0)
(-1.96178 0.0584921 0)
(-2.13639 0.0266301 0)
(-2.19099 -0.000137968 0)
(-2.16932 -0.0152143 0)
(-2.12267 -0.0231329 0)
(-2.02586 -0.0375966 0)
(-1.85787 -0.0555583 0)
(-1.62463 -0.0681468 0)
(-1.35469 -0.0715233 0)
(-1.07425 -0.0707999 0)
(-0.779826 -0.0759119 0)
(-0.45586 -0.0874504 0)
(-0.145025 -0.0690672 0)
(-0.107235 0.103156 0)
(-0.463915 0.191074 0)
(-0.88269 0.233444 0)
(-1.28265 0.249813 0)
(-1.63457 0.238034 0)
(-1.90992 0.197822 0)
(-2.08692 0.134938 0)
(-2.16207 0.0621897 0)
(-2.16771 0.00341395 0)
(-2.15398 -0.0258824 0)
(-2.11685 -0.0447685 0)
(-2.03397 -0.0813103 0)
(-1.87538 -0.130729 0)
(-1.64272 -0.170808 0)
(-1.36525 -0.187904 0)
(-1.07615 -0.189657 0)
(-0.781237 -0.200517 0)
(-0.466079 -0.224687 0)
(-0.152219 -0.180426 0)
(-0.159521 0.241523 0)
(-0.514523 0.349063 0)
(-0.880012 0.388325 0)
(-1.20839 0.390621 0)
(-1.49866 0.356931 0)
(-1.74292 0.28753 0)
(-1.92558 0.190759 0)
(-2.0291 0.0846331 0)
(-2.05973 0.00148303 0)
(-2.05839 -0.0365214 0)
(-2.04555 -0.0647444 0)
(-1.99235 -0.122792 0)
(-1.85878 -0.203799 0)
(-1.63913 -0.272098 0)
(-1.36332 -0.302909 0)
(-1.07473 -0.305519 0)
(-0.786285 -0.321352 0)
(-0.479938 -0.361353 0)
(-0.161466 -0.309958 0)
(-0.176389 0.381454 0)
(-0.476933 0.491321 0)
(-0.770574 0.519519 0)
(-1.04358 0.511341 0)
(-1.30174 0.464318 0)
(-1.53182 0.376338 0)
(-1.71346 0.253905 0)
(-1.82363 0.117349 0)
(-1.86412 0.00920618 0)
(-1.88375 -0.0375978 0)
(-1.90619 -0.0719076 0)
(-1.89824 -0.152554 0)
(-1.80773 -0.271004 0)
(-1.61628 -0.375542 0)
(-1.34926 -0.424716 0)
(-1.06421 -0.426404 0)
(-0.78391 -0.444707 0)
(-0.486984 -0.499671 0)
(-0.167817 -0.444562 0)
(-0.170164 0.530521 0)
(-0.401509 0.607368 0)
(-0.627896 0.623402 0)
(-0.8478 0.614525 0)
(-1.06453 0.560849 0)
(-1.25432 0.45858 0)
(-1.40272 0.314504 0)
(-1.49797 0.152201 0)
(-1.54619 0.0239617 0)
(-1.59764 -0.0254668 0)
(-1.6598 -0.0597607 0)
(-1.7071 -0.159244 0)
(-1.68204 -0.317817 0)
(-1.54866 -0.468162 0)
(-1.3117 -0.544185 0)
(-1.04071 -0.544827 0)
(-0.774147 -0.564691 0)
(-0.488631 -0.63456 0)
(-0.170924 -0.581705 0)
(-0.154128 0.593429 0)
(-0.311863 0.690437 0)
(-0.463464 0.696497 0)
(-0.615327 0.694406 0)
(-0.768287 0.634664 0)
(-0.887343 0.519197 0)
(-0.972344 0.360695 0)
(-1.03502 0.18623 0)
(-1.09602 0.0494169 0)
(-1.19564 0.00250615 0)
(-1.28715 -0.0282079 0)
(-1.37772 -0.137847 0)
(-1.42681 -0.332628 0)
(-1.3888 -0.537955 0)
(-1.22553 -0.650724 0)
(-0.993836 -0.652415 0)
(-0.75589 -0.676373 0)
(-0.488059 -0.76338 0)
(-0.173398 -0.718759 0)
(-0.148869 0.794537 0)
(-0.192022 0.78038 0)
(-0.272018 0.73925 0)
(-0.338787 0.750439 0)
(-0.409784 0.683374 0)
(-0.438833 0.552466 0)
(-0.436418 0.383767 0)
(-0.440229 0.218404 0)
(-0.521661 0.0968284 0)
(-0.70024 0.0506916 0)
(-0.801308 0.0127764 0)
(-0.902188 -0.0988964 0)
(-1.0014 -0.318046 0)
(-1.07533 -0.575672 0)
(-1.05112 -0.727844 0)
(-0.902685 -0.738763 0)
(-0.722663 -0.774987 0)
(-0.486701 -0.886266 0)
(-0.177624 -0.859043 0)
(-0.0609167 0.781941 0)
(0.0252041 0.851581 0)
(-0.0490151 0.847877 0)
(-0.0122518 0.850626 0)
(-0.000543009 0.751155 0)
(0.0500712 0.57442 0)
(0.138309 0.369775 0)
(0.23282 0.235796 0)
(0.130406 0.18753 0)
(-0.13686 0.131096 0)
(-0.222523 0.0500154 0)
(-0.301269 -0.0601713 0)
(-0.401555 -0.269316 0)
(-0.558312 -0.541521 0)
(-0.752478 -0.745509 0)
(-0.742291 -0.793143 0)
(-0.661141 -0.857256 0)
(-0.48109 -1.00438 0)
(-0.18377 -1.00725 0)
(0.0316699 -0.0453251 0)
(0.11289 -0.121488 0)
(0.168256 -0.14515 0)
(0.198505 -0.147199 0)
(0.218543 -0.142864 0)
(0.236236 -0.137225 0)
(0.253655 -0.131205 0)
(0.271031 -0.124553 0)
(0.288034 -0.116827 0)
(0.304164 -0.107626 0)
(0.318931 -0.0965467 0)
(0.331938 -0.0830717 0)
(0.342902 -0.0664753 0)
(0.351567 -0.0457045 0)
(0.357632 -0.0196317 0)
(0.360864 0.0126266 0)
(0.36122 0.0514848 0)
(0.358978 0.0964834 0)
(0.355461 0.145487 0)
(0.352599 0.195664 0)
(0.350336 0.243926 0)
(0.345908 0.288068 0)
(0.353626 0.365762 0)
(0.0641559 -0.12908 0)
(0.170037 -0.207676 0)
(0.209521 -0.192859 0)
(0.221646 -0.173305 0)
(0.23304 -0.161805 0)
(0.246653 -0.154465 0)
(0.261298 -0.148112 0)
(0.276163 -0.141165 0)
(0.290626 -0.132795 0)
(0.304127 -0.12252 0)
(0.31621 -0.109961 0)
(0.326574 -0.094691 0)
(0.335182 -0.0761443 0)
(0.342217 -0.0533816 0)
(0.347978 -0.0253291 0)
(0.352693 0.00883359 0)
(0.356514 0.0492999 0)
(0.359291 0.0956172 0)
(0.362294 0.144238 0)
(0.367766 0.192529 0)
(0.374857 0.240164 0)
(0.379068 0.28517 0)
(0.388152 0.336531 0)
(0.160251 -0.26254 0)
(0.226946 -0.279752 0)
(0.215703 -0.19439 0)
(0.212956 -0.170179 0)
(0.22534 -0.163716 0)
(0.240792 -0.159405 0)
(0.256026 -0.154493 0)
(0.27051 -0.148192 0)
(0.283976 -0.139966 0)
(0.296111 -0.129483 0)
(0.306602 -0.116509 0)
(0.315233 -0.100805 0)
(0.321998 -0.0820872 0)
(0.327026 -0.0591058 0)
(0.331625 -0.0307029 0)
(0.336889 0.00364797 0)
(0.343199 0.0440354 0)
(0.350862 0.0890645 0)
(0.361305 0.134179 0)
(0.375912 0.17834 0)
(0.391209 0.226156 0)
(0.404167 0.272647 0)
(0.419325 0.316635 0)
(0.201548 -0.458583 0)
(0.130098 -0.253466 0)
(0.150626 -0.170961 0)
(0.191626 -0.175136 0)
(0.214928 -0.173281 0)
(0.232876 -0.168357 0)
(0.248312 -0.161952 0)
(0.261768 -0.154099 0)
(0.273491 -0.144321 0)
(0.283491 -0.132317 0)
(0.291555 -0.117889 0)
(0.297443 -0.100801 0)
(0.300537 -0.0809465 0)
(0.298308 -0.0574058 0)
(0.297342 -0.0309014 0)
(0.303213 0.000186387 0)
(0.314429 0.0390345 0)
(0.332889 0.0827764 0)
(0.35606 0.124174 0)
(0.379605 0.163455 0)
(0.402958 0.207481 0)
(0.428592 0.25135 0)
(0.458193 0.287617 0)
(-0.118194 -0.657036 0)
(-0.0523617 -0.311108 0)
(0.00632419 -0.223271 0)
(0.0621148 -0.230587 0)
(0.103431 -0.233387 0)
(0.137107 -0.22619 0)
(0.164809 -0.215525 0)
(0.187142 -0.203084 0)
(0.205042 -0.188149 0)
(0.219475 -0.170023 0)
(0.231178 -0.148383 0)
(0.24075 -0.123043 0)
(0.249003 -0.0940173 0)
(0.25819 -0.0606556 0)
(0.268107 -0.0357126 0)
(0.269945 -0.00648086 0)
(0.275214 0.0309256 0)
(0.296664 0.0740531 0)
(0.331368 0.11024 0)
(0.365271 0.146557 0)
(0.403546 0.190298 0)
(0.449695 0.231449 0)
(0.500325 0.258494 0)
(-0.070875 -0.348655 0)
(-0.0637757 -0.345322 0)
(-0.0107187 -0.296418 0)
(0.0365003 -0.271748 0)
(0.0750643 -0.253233 0)
(0.10685 -0.235659 0)
(0.133673 -0.218773 0)
(0.156208 -0.202176 0)
(0.174937 -0.185 0)
(0.190493 -0.166453 0)
(0.203557 -0.145992 0)
(0.214791 -0.123298 0)
(0.224865 -0.0983405 0)
(0.234591 -0.0718993 0)
(0.24427 -0.0484532 0)
(0.25429 -0.0277054 0)
(0.270086 -0.016495 0)
(0.300061 -0.00708549 0)
(0.308596 0.0651141 0)
(0.32921 0.122035 0)
(0.369036 0.170578 0)
(0.439328 0.207655 0)
(0.512425 0.226646 0)
(-0.0181198 -0.382343 0)
(-0.0211982 -0.374185 0)
(0.00575258 -0.338572 0)
(0.0379218 -0.309908 0)
(0.0686917 -0.286076 0)
(0.0964323 -0.264297 0)
(0.121312 -0.243556 0)
(0.143467 -0.223279 0)
(0.163029 -0.202818 0)
(0.180305 -0.181558 0)
(0.195752 -0.159035 0)
(0.209906 -0.134976 0)
(0.223364 -0.109346 0)
(0.236836 -0.0824949 0)
(0.250815 -0.0556518 0)
(0.265255 -0.0301802 0)
(0.278125 -0.00911496 0)
(0.288052 0.00690152 0)
(0.304599 0.0181718 0)
(0.342737 0.0108283 0)
(0.402691 -0.00388826 0)
(0.457931 0.0481018 0)
(0.507137 0.158777 0)
(-0.00955918 -0.357978 0)
(-0.00492742 -0.385612 0)
(0.0159641 -0.363541 0)
(0.0396588 -0.337757 0)
(0.0642487 -0.31333 0)
(0.0882772 -0.290108 0)
(0.11132 -0.267604 0)
(0.133176 -0.2454 0)
(0.153755 -0.223043 0)
(0.17314 -0.200097 0)
(0.191571 -0.176231 0)
(0.209396 -0.151276 0)
(0.227039 -0.125275 0)
(0.244984 -0.0985928 0)
(0.263489 -0.072146 0)
(0.282343 -0.0472469 0)
(0.300352 -0.02512 0)
(0.317336 -0.00385289 0)
(0.33819 0.018121 0)
(0.363866 0.027142 0)
(0.384992 0.0231755 0)
(0.405029 0.0149571 0)
(0.443468 0.012963 0)
(-0.00233014 -0.353717 0)
(0.00392458 -0.398205 0)
(0.019878 -0.382465 0)
(0.037688 -0.359195 0)
(0.0574289 -0.335599 0)
(0.0781084 -0.312479 0)
(0.099181 -0.289677 0)
(0.120323 -0.266928 0)
(0.141348 -0.243936 0)
(0.16222 -0.220425 0)
(0.183033 -0.196192 0)
(0.203984 -0.171158 0)
(0.225326 -0.145418 0)
(0.247321 -0.119322 0)
(0.270082 -0.093586 0)
(0.293435 -0.0691537 0)
(0.316792 -0.0468946 0)
(0.339977 -0.026638 0)
(0.364618 -0.00891367 0)
(0.38944 0.00174953 0)
(0.409607 0.00897661 0)
(0.428002 0.0246076 0)
(0.454681 0.0489945 0)
(0.00236169 -0.357276 0)
(0.00698656 -0.409029 0)
(0.018473 -0.396649 0)
(0.0320176 -0.37593 0)
(0.0479486 -0.354076 0)
(0.0656265 -0.332125 0)
(0.0845714 -0.310093 0)
(0.104465 -0.287842 0)
(0.125114 -0.265209 0)
(0.146439 -0.242048 0)
(0.168469 -0.218263 0)
(0.19131 -0.193842 0)
(0.215106 -0.168903 0)
(0.239994 -0.143742 0)
(0.266006 -0.118884 0)
(0.29298 -0.0950208 0)
(0.320512 -0.0728832 0)
(0.348245 -0.0529376 0)
(0.376195 -0.0358871 0)
(0.403032 -0.0234085 0)
(0.426387 -0.0131163 0)
(0.446982 0.00049278 0)
(0.468922 0.0177594 0)
(0.00371286 -0.3617 0)
(0.00630103 -0.416462 0)
(0.0140545 -0.406954 0)
(0.0242828 -0.389011 0)
(0.0370804 -0.369416 0)
(0.0520175 -0.349259 0)
(0.068716 -0.328673 0)
(0.086913 -0.307628 0)
(0.106445 -0.286067 0)
(0.127239 -0.263943 0)
(0.149302 -0.24124 0)
(0.172696 -0.217996 0)
(0.197511 -0.194336 0)
(0.223819 -0.170506 0)
(0.25161 -0.14689 0)
(0.280726 -0.123998 0)
(0.310826 -0.102395 0)
(0.34146 -0.0825767 0)
(0.37213 -0.0650604 0)
(0.401752 -0.0503892 0)
(0.429039 -0.037374 0)
(0.454098 -0.0236411 0)
(0.479161 -0.00843825 0)
(0.00344061 -0.365764 0)
(0.00407528 -0.42088 0)
(0.00882023 -0.414173 0)
(0.0163036 -0.399099 0)
(0.026394 -0.381976 0)
(0.0387803 -0.363919 0)
(0.0531744 -0.345157 0)
(0.0693748 -0.325748 0)
(0.0872597 -0.305719 0)
(0.106777 -0.285097 0)
(0.127933 -0.263925 0)
(0.150774 -0.242274 0)
(0.17536 -0.22027 0)
(0.201732 -0.198109 0)
(0.229863 -0.176076 0)
(0.259609 -0.154529 0)
(0.290675 -0.133867 0)
(0.322627 -0.114457 0)
(0.354896 -0.0966179 0)
(0.38666 -0.0805347 0)
(0.417157 -0.0656904 0)
(0.446295 -0.0511825 0)
(0.475237 -0.0366874 0)
(0.00243693 -0.368237 0)
(0.00154026 -0.422862 0)
(0.00410365 -0.418924 0)
(0.0093366 -0.406661 0)
(0.0170803 -0.392032 0)
(0.0271195 -0.376184 0)
(0.0392483 -0.359422 0)
(0.0533245 -0.34188 0)
(0.0692674 -0.323649 0)
(0.087049 -0.30481 0)
(0.106683 -0.285445 0)
(0.128209 -0.265651 0)
(0.151675 -0.245546 0)
(0.177106 -0.225284 0)
(0.20447 -0.205067 0)
(0.233641 -0.185133 0)
(0.264375 -0.165739 0)
(0.2963 -0.147119 0)
(0.328923 -0.129458 0)
(0.361649 -0.112846 0)
(0.393987 -0.0971413 0)
(0.42572 -0.0821939 0)
(0.457377 -0.0681005 0)
(0.00130503 -0.369053 0)
(-0.000570118 -0.423185 0)
(0.000585438 -0.421799 0)
(0.00404229 -0.412129 0)
(0.00981025 -0.399879 0)
(0.0177639 -0.386214 0)
(0.0277773 -0.371498 0)
(0.0397656 -0.355917 0)
(0.0536871 -0.339609 0)
(0.0695374 -0.322695 0)
(0.0873405 -0.305286 0)
(0.107136 -0.287489 0)
(0.128964 -0.269413 0)
(0.152842 -0.251175 0)
(0.178741 -0.232908 0)
(0.206555 -0.214756 0)
(0.236088 -0.196863 0)
(0.267041 -0.179358 0)
(0.299027 -0.16234 0)
(0.331617 -0.145886 0)
(0.364478 -0.130075 0)
(0.397337 -0.115172 0)
(0.430408 -0.101554 0)
(0.000397246 -0.368563 0)
(-0.00191524 -0.422564 0)
(-0.0015278 -0.423346 0)
(0.000612424 -0.415939 0)
(0.0047993 -0.405856 0)
(0.0109878 -0.39426 0)
(0.0191312 -0.381544 0)
(0.0292005 -0.367925 0)
(0.0411915 -0.353573 0)
(0.0551235 -0.338633 0)
(0.071032 -0.323234 0)
(0.088959 -0.307487 0)
(0.108942 -0.291488 0)
(0.130997 -0.275323 0)
(0.155098 -0.259067 0)
(0.181162 -0.24279 0)
(0.209032 -0.226553 0)
(0.23848 -0.210405 0)
(0.269211 -0.19439 0)
(0.30092 -0.178592 0)
(0.333381 -0.163227 0)
(0.36632 -0.148804 0)
(0.399829 -0.135928 0)
(-0.000110655 -0.367281 0)
(-0.00240991 -0.421621 0)
(-0.00232826 -0.424063 0)
(-0.00107229 -0.418521 0)
(0.001932 -0.410338 0)
(0.00670906 -0.400639 0)
(0.0132887 -0.389815 0)
(0.0216952 -0.378098 0)
(0.031961 -0.365671 0)
(0.0441287 -0.352693 0)
(0.0582468 -0.339298 0)
(0.074362 -0.325597 0)
(0.0925126 -0.311672 0)
(0.112716 -0.297577 0)
(0.134953 -0.283345 0)
(0.159159 -0.268986 0)
(0.185214 -0.254498 0)
(0.212945 -0.239873 0)
(0.242137 -0.225125 0)
(0.272577 -0.210348 0)
(0.304122 -0.195847 0)
(0.336539 -0.182302 0)
(0.369892 -0.170522 0)
(-0.00025291 -0.365771 0)
(-0.00217642 -0.420791 0)
(-0.00204082 -0.424374 0)
(-0.00130625 -0.420278 0)
(0.000884943 -0.413701 0)
(0.00460409 -0.405693 0)
(0.00994726 -0.39662 0)
(0.0169874 -0.386705 0)
(0.0257911 -0.376132 0)
(0.0364243 -0.365062 0)
(0.0489486 -0.353628 0)
(0.0634183 -0.341934 0)
(0.0798752 -0.330046 0)
(0.0983401 -0.317992 0)
(0.118803 -0.305765 0)
(0.141215 -0.293331 0)
(0.165487 -0.280641 0)
(0.191493 -0.26765 0)
(0.219079 -0.254355 0)
(0.248108 -0.240868 0)
(0.278508 -0.227562 0)
(0.310105 -0.215249 0)
(0.342981 -0.204939 0)
(-9.41558e-05 -0.36454 0)
(-0.00141181 -0.420328 0)
(-0.000980041 -0.424613 0)
(-0.00046308 -0.421558 0)
(0.00123194 -0.416293 0)
(0.00421529 -0.409761 0)
(0.00863486 -0.402276 0)
(0.0146041 -0.394039 0)
(0.02222 -0.385222 0)
(0.0315696 -0.375979 0)
(0.0427284 -0.366438 0)
(0.0557589 -0.356689 0)
(0.0707088 -0.346781 0)
(0.0876049 -0.336717 0)
(0.106446 -0.326458 0)
(0.127199 -0.315934 0)
(0.1498 -0.305061 0)
(0.174159 -0.293771 0)
(0.200174 -0.282057 0)
(0.227768 -0.270057 0)
(0.256932 -0.258208 0)
(0.287558 -0.247438 0)
(0.319762 -0.238943 0)
(0.000315138 -0.363963 0)
(-0.000325796 -0.420432 0)
(0.000507339 -0.424966 0)
(0.00107986 -0.422624 0)
(0.00252208 -0.418409 0)
(0.00503873 -0.413143 0)
(0.00880839 -0.407076 0)
(0.0139729 -0.400377 0)
(0.0206532 -0.3932 0)
(0.0289544 -0.385686 0)
(0.0389641 -0.377948 0)
(0.050754 -0.370064 0)
(0.064379 -0.362063 0)
(0.0798732 -0.353924 0)
(0.0972447 -0.34558 0)
(0.116474 -0.336931 0)
(0.137519 -0.327869 0)
(0.160319 -0.318313 0)
(0.18481 -0.308264 0)
(0.210965 -0.297891 0)
(0.23883 -0.287698 0)
(0.268358 -0.278722 0)
(0.299698 -0.272329 0)
(0.000902999 -0.364184 0)
(0.000971019 -0.421223 0)
(0.00215745 -0.425571 0)
(0.00293131 -0.423676 0)
(0.00432281 -0.420284 0)
(0.00658917 -0.416086 0)
(0.00993197 -0.411268 0)
(0.0145125 -0.405961 0)
(0.0204691 -0.400295 0)
(0.0279198 -0.394393 0)
(0.0369623 -0.388354 0)
(0.0476766 -0.382238 0)
(0.0601255 -0.376056 0)
(0.0743511 -0.369763 0)
(0.0903709 -0.363265 0)
(0.108178 -0.356438 0)
(0.127745 -0.349156 0)
(0.149035 -0.341335 0)
(0.172015 -0.332988 0)
(0.196697 -0.324327 0)
(0.223167 -0.315925 0)
(0.251432 -0.308927 0)
(0.281663 -0.304842 0)
(0.00149976 -0.365252 0)
(0.00226031 -0.422641 0)
(0.00377401 -0.426531 0)
(0.00481053 -0.424854 0)
(0.0062775 -0.422089 0)
(0.00844811 -0.418784 0)
(0.0115314 -0.415051 0)
(0.0156979 -0.410985 0)
(0.0210953 -0.406689 0)
(0.0278489 -0.40227 0)
(0.0360632 -0.397809 0)
(0.045825 -0.393349 0)
(0.0572048 -0.388881 0)
(0.0702524 -0.384336 0)
(0.0849938 -0.379598 0)
(0.101432 -0.37452 0)
(0.119553 -0.368963 0)
(0.139338 -0.362842 0)
(0.160776 -0.356194 0)
(0.183904 -0.349275 0)
(0.208839 -0.342733 0)
(0.235628 -0.337818 0)
(0.264453 -0.33616 0)
(0.00204109 -0.367196 0)
(0.00341811 -0.424549 0)
(0.00518781 -0.427835 0)
(0.00650264 -0.426229 0)
(0.0081128 -0.423937 0)
(0.0102858 -0.421368 0)
(0.0132242 -0.418567 0)
(0.0170979 -0.415591 0)
(0.0220551 -0.412521 0)
(0.0282224 -0.409443 0)
(0.0357069 -0.406425 0)
(0.0446005 -0.403492 0)
(0.0549797 -0.400615 0)
(0.0669011 -0.397704 0)
(0.0803981 -0.39462 0)
(0.0954822 -0.391197 0)
(0.11215 -0.387284 0)
(0.130395 -0.382799 0)
(0.150222 -0.377801 0)
(0.171682 -0.372601 0)
(0.194912 -0.367924 0)
(0.219989 -0.365122 0)
(0.247097 -0.365923 0)
(0.00247966 -0.369917 0)
(0.00436897 -0.426816 0)
(0.00629422 -0.429434 0)
(0.00786562 -0.427816 0)
(0.00964101 -0.425886 0)
(0.0118675 -0.423922 0)
(0.0147311 -0.421911 0)
(0.0183911 -0.419878 0)
(0.0229882 -0.417883 0)
(0.028644 -0.415998 0)
(0.0354646 -0.414275 0)
(0.0435436 -0.412724 0)
(0.0529612 -0.411299 0)
(0.0637792 -0.40989 0)
(0.0760372 -0.408337 0)
(0.0897542 -0.406454 0)
(0.104935 -0.40408 0)
(0.121583 -0.401135 0)
(0.13971 -0.397705 0)
(0.159377 -0.394155 0)
(0.180732 -0.391292 0)
(0.203871 -0.390565 0)
(0.228977 -0.393787 0)
(0.00278801 -0.373264 0)
(0.00507672 -0.429297 0)
(0.0070488 -0.43126 0)
(0.00882651 -0.429599 0)
(0.0107541 -0.427953 0)
(0.013049 -0.426487 0)
(0.0158726 -0.425139 0)
(0.019365 -0.423907 0)
(0.0236517 -0.422837 0)
(0.0288442 -0.421989 0)
(0.0350429 -0.421403 0)
(0.0423396 -0.421079 0)
(0.0508154 -0.420953 0)
(0.0605348 -0.420898 0)
(0.0715428 -0.420735 0)
(0.0838652 -0.420259 0)
(0.0975146 -0.419297 0)
(0.1125 -0.417772 0)
(0.128839 -0.415798 0)
(0.146594 -0.413792 0)
(0.165921 -0.412646 0)
(0.186934 -0.41391 0)
(0.209815 -0.419464 0)
(0.00297307 -0.377065 0)
(0.00554153 -0.431855 0)
(0.00745539 -0.433225 0)
(0.00936927 -0.43153 0)
(0.0114106 -0.430124 0)
(0.0137633 -0.429073 0)
(0.0165564 -0.428276 0)
(0.0199035 -0.427713 0)
(0.0239084 -0.42742 0)
(0.0286675 -0.427451 0)
(0.0342714 -0.42784 0)
(0.0408061 -0.428574 0)
(0.0483497 -0.429582 0)
(0.0569676 -0.430721 0)
(0.0667089 -0.431792 0)
(0.0776058 -0.432575 0)
(0.0896782 -0.432882 0)
(0.10294 -0.432638 0)
(0.117412 -0.431982 0)
(0.13316 -0.431389 0)
(0.150341 -0.431837 0)
(0.16909 -0.434978 0)
(0.189592 -0.442751 0)
(0.0030843 -0.381162 0)
(0.00579459 -0.434366 0)
(0.0075488 -0.435234 0)
(0.00951698 -0.433548 0)
(0.0116193 -0.432367 0)
(0.0140038 -0.431669 0)
(0.0167604 -0.431326 0)
(0.019969 -0.431309 0)
(0.0237074 -0.431653 0)
(0.0280527 -0.432408 0)
(0.0330816 -0.433603 0)
(0.03887 -0.435224 0)
(0.0454896 -0.43719 0)
(0.0530041 -0.439349 0)
(0.0614652 -0.441487 0)
(0.0709114 -0.443366 0)
(0.0813698 -0.444784 0)
(0.0928598 -0.445668 0)
(0.105405 -0.446182 0)
(0.119074 -0.446856 0)
(0.134031 -0.448759 0)
(0.150425 -0.45365 0)
(0.168457 -0.463529 0)
(0.00319952 -0.385445 0)
(0.00588215 -0.436702 0)
(0.00737251 -0.437183 0)
(0.00931306 -0.435581 0)
(0.0114208 -0.434637 0)
(0.0138063 -0.434251 0)
(0.0165129 -0.434282 0)
(0.019582 -0.434702 0)
(0.0230625 -0.435549 0)
(0.0270095 -0.436874 0)
(0.0314821 -0.43871 0)
(0.0365422 -0.441041 0)
(0.0422518 -0.443783 0)
(0.0486696 -0.446779 0)
(0.055848 -0.449803 0)
(0.063831 -0.452602 0)
(0.0726529 -0.454964 0)
(0.0823396 -0.456815 0)
(0.0929198 -0.458341 0)
(0.104466 -0.460129 0)
(0.117149 -0.463342 0)
(0.131136 -0.469858 0)
(0.146644 -0.481744 0)
(0.00338493 -0.389869 0)
(0.00584153 -0.438723 0)
(0.00695981 -0.438969 0)
(0.00880711 -0.437561 0)
(0.0108735 -0.436891 0)
(0.0132326 -0.436797 0)
(0.0158745 -0.437136 0)
(0.0188008 -0.437894 0)
(0.0220306 -0.439119 0)
(0.0255952 -0.44087 0)
(0.0295341 -0.443184 0)
(0.0338921 -0.446046 0)
(0.0387175 -0.449377 0)
(0.0440606 -0.453016 0)
(0.0499712 -0.456735 0)
(0.0564972 -0.460272 0)
(0.0636804 -0.463402 0)
(0.0715543 -0.466054 0)
(0.0801544 -0.46843 0)
(0.0895592 -0.471176 0)
(0.0999432 -0.475551 0)
(0.11149 -0.483564 0)
(0.12444 -0.497375 0)
(0.00365055 -0.394432 0)
(0.00568366 -0.440278 0)
(0.00632908 -0.440508 0)
(0.00805027 -0.439439 0)
(0.0100446 -0.4391 0)
(0.0123578 -0.439287 0)
(0.0149228 -0.43988 0)
(0.0177034 -0.440888 0)
(0.0206905 -0.442378 0)
(0.0238926 -0.444419 0)
(0.0273279 -0.447053 0)
(0.031022 -0.450272 0)
(0.035006 -0.454002 0)
(0.0393168 -0.458089 0)
(0.0439981 -0.462307 0)
(0.0490994 -0.46639 0)
(0.0546691 -0.470108 0)
(0.060749 -0.473386 0)
(0.0673822 -0.476446 0)
(0.0746515 -0.479985 0)
(0.0827302 -0.485367 0)
(0.0918103 -0.49474 0)
(0.10216 -0.510388 0)
(0.00393661 -0.399123 0)
(0.00539757 -0.441217 0)
(0.00549562 -0.441748 0)
(0.00709916 -0.441192 0)
(0.00900703 -0.441247 0)
(0.0112617 -0.44171 0)
(0.01374 -0.442509 0)
(0.0163727 -0.44369 0)
(0.0191274 -0.445343 0)
(0.0219913 -0.447548 0)
(0.0249621 -0.450356 0)
(0.0280446 -0.453764 0)
(0.0312493 -0.457709 0)
(0.0345952 -0.46205 0)
(0.038116 -0.466569 0)
(0.0418592 -0.471003 0)
(0.0458777 -0.475122 0)
(0.0502202 -0.478846 0)
(0.0549361 -0.482413 0)
(0.0601069 -0.486568 0)
(0.0658946 -0.492777 0)
(0.0724873 -0.503342 0)
(0.0801678 -0.520704 0)
(0.00414692 -0.403862 0)
(0.00497373 -0.44143 0)
(0.00448776 -0.442689 0)
(0.00602122 -0.442819 0)
(0.00783699 -0.443323 0)
(0.0100233 -0.444056 0)
(0.0124043 -0.445017 0)
(0.0148866 -0.446304 0)
(0.0174197 -0.44803 0)
(0.0199733 -0.450291 0)
(0.0225265 -0.453142 0)
(0.025063 -0.456588 0)
(0.0275704 -0.460576 0)
(0.030047 -0.464984 0)
(0.0325121 -0.469609 0)
(0.0350069 -0.474199 0)
(0.0375843 -0.478524 0)
(0.0402962 -0.482506 0)
(0.0431933 -0.486391 0)
(0.0463473 -0.490965 0)
(0.0498936 -0.497787 0)
(0.053994 -0.509316 0)
(0.0589186 -0.528192 0)
(0.00419384 -0.408516 0)
(0.00442122 -0.440876 0)
(0.00335412 -0.443379 0)
(0.00489351 -0.444334 0)
(0.00660764 -0.445326 0)
(0.00871364 -0.446314 0)
(0.0109837 -0.447397 0)
(0.0133099 -0.44873 0)
(0.0156307 -0.450457 0)
(0.0179028 -0.452684 0)
(0.0200898 -0.45547 0)
(0.0221561 -0.458824 0)
(0.0240665 -0.462707 0)
(0.0257979 -0.467011 0)
(0.0273516 -0.471557 0)
(0.0287567 -0.47611 0)
(0.0300595 -0.480448 0)
(0.0313094 -0.484495 0)
(0.0325515 -0.488498 0)
(0.0338376 -0.493269 0)
(0.0352565 -0.50044 0)
(0.0369103 -0.512623 0)
(0.0390128 -0.532691 0)
(0.00403192 -0.41298 0)
(0.0037728 -0.439575 0)
(0.00215028 -0.44391 0)
(0.00379195 -0.445757 0)
(0.00537909 -0.44725 0)
(0.00738985 -0.448468 0)
(0.00953083 -0.449635 0)
(0.0116911 -0.45097 0)
(0.0138051 -0.452644 0)
(0.0158222 -0.454771 0)
(0.017695 -0.45741 0)
(0.0193721 -0.460574 0)
(0.0207995 -0.464228 0)
(0.0219336 -0.468285 0)
(0.022756 -0.472587 0)
(0.0232778 -0.476925 0)
(0.0235319 -0.481094 0)
(0.0235588 -0.485016 0)
(0.0233921 -0.488933 0)
(0.0230537 -0.493655 0)
(0.0225646 -0.500858 0)
(0.0219262 -0.513282 0)
(0.0212348 -0.534059 0)
(0.00364839 -0.417209 0)
(0.00307469 -0.437567 0)
(0.000905295 -0.444387 0)
(0.00277634 -0.447096 0)
(0.00418668 -0.449084 0)
(0.00608921 -0.4505 0)
(0.00808113 -0.451717 0)
(0.0100621 -0.453021 0)
(0.0119707 -0.454609 0)
(0.0137549 -0.456595 0)
(0.0153617 -0.459036 0)
(0.0167301 -0.461941 0)
(0.0177928 -0.46528 0)
(0.0184901 -0.468981 0)
(0.0187842 -0.47291 0)
(0.0186657 -0.476888 0)
(0.0181495 -0.48073 0)
(0.0172631 -0.484359 0)
(0.0160255 -0.487995 0)
(0.0144223 -0.492418 0)
(0.0123904 -0.499297 0)
(0.00979121 -0.511453 0)
(0.00653041 -0.532277 0)
(0.00292644 -0.421006 0)
(0.00237136 -0.434971 0)
(-0.000421439 -0.444806 0)
(0.00187305 -0.448337 0)
(0.00302769 -0.450812 0)
(0.00482592 -0.452387 0)
(0.00665376 -0.453624 0)
(0.00844278 -0.454877 0)
(0.0101451 -0.45636 0)
(0.0117134 -0.458187 0)
(0.0130952 -0.460405 0)
(0.0142266 -0.463018 0)
(0.0150347 -0.465998 0)
(0.0154502 -0.469282 0)
(0.0154212 -0.472761 0)
(0.0149206 -0.476282 0)
(0.0139458 -0.479683 0)
(0.0125109 -0.482889 0)
(0.0106205 -0.486086 0)
(0.00822661 -0.489989 0)
(0.00518069 -0.496198 0)
(0.00118523 -0.507531 0)
(-0.00410801 -0.527595 0)
(0.00108278 -0.423689 0)
(0.001725 -0.432196 0)
(-0.00193153 -0.444988 0)
(0.00099734 -0.449581 0)
(0.00185981 -0.452446 0)
(0.00359864 -0.454104 0)
(0.00525877 -0.455326 0)
(0.00684845 -0.456513 0)
(0.00834395 -0.457887 0)
(0.00970855 -0.459554 0)
(0.0108957 -0.46155 0)
(0.0118455 -0.463872 0)
(0.0124874 -0.466491 0)
(0.012752 -0.46935 0)
(0.012583 -0.472358 0)
(0.0119438 -0.475385 0)
(0.0108203 -0.478294 0)
(0.00921656 -0.48101 0)
(0.00712883 -0.48368 0)
(0.00448985 -0.486924 0)
(0.00109106 -0.492202 0)
(-0.00350501 -0.502216 0)
(-0.009918 -0.520674 0)
(-0.00390325 -0.424474 0)
(0.00112926 -0.42994 0)
(-0.00384341 -0.445366 0)
(-0.000122933 -0.451019 0)
(0.000703885 -0.454018 0)
(0.00241913 -0.455668 0)
(0.00390989 -0.456836 0)
(0.00529951 -0.457944 0)
(0.00658989 -0.459208 0)
(0.00775832 -0.460723 0)
(0.00876887 -0.462515 0)
(0.00957133 -0.464574 0)
(0.0101052 -0.466867 0)
(0.0103112 -0.46934 0)
(0.01014 -0.471911 0)
(0.00955654 -0.474473 0)
(0.00854421 -0.476908 0)
(0.00710525 -0.479148 0)
(0.00523945 -0.4813 0)
(0.00288528 -0.483872 0)
(-0.00017977 -0.488123 0)
(-0.00446608 -0.496511 0)
(-0.0108063 -0.512666 0)
(-0.0140556 -0.422827 0)
(-1.62424e-05 -0.429209 0)
(-0.00637836 -0.446693 0)
(-0.0014029 -0.452926 0)
(-0.000428735 -0.455715 0)
(0.00127106 -0.457238 0)
(0.00262427 -0.458294 0)
(0.00382803 -0.459297 0)
(0.00491857 -0.460448 0)
(0.00589438 -0.461824 0)
(0.00673419 -0.463442 0)
(0.00740208 -0.465282 0)
(0.00785411 -0.467308 0)
(0.00804852 -0.469466 0)
(0.00795161 -0.471679 0)
(0.00753944 -0.473857 0)
(0.00680313 -0.475905 0)
(0.00575371 -0.477763 0)
(0.00440786 -0.479507 0)
(0.00273422 -0.481534 0)
(0.000549465 -0.484878 0)
(-0.00262939 -0.491655 0)
(-0.00770408 -0.505203 0)
(-0.030475 -0.417383 0)
(-0.00188368 -0.429896 0)
(-0.00952368 -0.448831 0)
(-0.00276895 -0.455311 0)
(-0.00145004 -0.457625 0)
(0.000218592 -0.458843 0)
(0.00145977 -0.459696 0)
(0.00249086 -0.460553 0)
(0.00338382 -0.461581 0)
(0.004164 -0.462832 0)
(0.00482796 -0.464308 0)
(0.00535706 -0.465982 0)
(0.0057269 -0.467811 0)
(0.00591567 -0.469739 0)
(0.00590739 -0.471697 0)
(0.00569336 -0.473611 0)
(0.00527896 -0.475404 0)
(0.00469139 -0.477033 0)
(0.00397181 -0.478556 0)
(0.00313413 -0.480281 0)
(0.0020769 -0.48303 0)
(0.00044077 -0.488561 0)
(-0.00256097 -0.499805 0)
(-0.0551019 -0.399986 0)
(-0.00380346 -0.434243 0)
(-0.0127348 -0.451383 0)
(-0.00411414 -0.457335 0)