/*--------------------------------*- C++ -*----------------------------------*\
  =========                 |
  \\      /  F ield         | OpenFOAM: The Open Source CFD Toolbox
   \\    /   O peration     | Website:  https://openfoam.org
    \\  /    A nd           | Version:  7
     \\/     M anipulation  |
\*---------------------------------------------------------------------------*/
FoamFile
{
    version     2.0;
    format      ascii;
    class       volScalarField;
    location    "0.005";
    object      p;
}
// * * * * * * * * * * * * * * * * * * * * * * * * * * * * * * * * * * * * * //

dimensions      [1 -1 -2 0 0 0 0];

internalField   nonuniform List<scalar> 
2400
(
0.371097232
0.3712418323
0.3976038145
0.386299695
0.3985629545
0.3870944652
0.38843487
0.3930721526
0.3982616522
0.3961857633
0.3963833603
0.4134710835
0.4031192011
0.4081211687
0.4072374654
0.393190855
0.4043662546
0.4192817384
0.4250955621
0.4251777637
0.3867786022
0.3905533698
0.3857278682
0.3856402458
0.3855409645
0.3954994573
0.4112352867
0.4034194071
0.4011516166
0.4092253241
0.4170683531
0.4138702833
0.4411354661
0.424844732
0.4424406322
0.4326498755
0.4320596738
0.4372616559
0.4448123001
0.4451181766
0.379981371
0.3888951699
0.39160522
0.3963879095
0.3979564745
0.4081797468
0.3916601667
0.4051167831
0.3968231942
0.4170245038
0.4223626867
0.4175289217
0.4204104998
0.4262240497
0.4344084195
0.4322550469
0.4275362053
0.4343628833
0.4354024231
0.4455715769
0.3846269192
0.3846370856
0.389354086
0.4000726877
0.3799144541
0.391227012
0.4045552146
0.4042625152
0.406153127
0.4090107128
0.4291728868
0.4203805793
0.4269670842
0.4408091986
0.4392510997
0.4467080017
0.437941418
0.4633132385
0.4624959925
0.4643097011
0.3640647086
0.3726926418
0.3866349058
0.3838350941
0.3978557711
0.3870559788
0.4021088189
0.4067858296
0.4139592105
0.4089340671
0.4075303568
0.4159121898
0.4368592608
0.4468243626
0.4427598708
0.4307921866
0.456464991
0.4670816171
0.4626395384
0.4597652506
0.3684224981
0.3651958593
0.3789243883
0.3849440619
0.3890154704
0.3926107971
0.3994606364
0.4053043544
0.4085105575
0.4183694721
0.4218419175
0.4317355838
0.4280495202
0.4493935071
0.4191846618
0.4328624542
0.4310066749
0.44732087
0.4605748743
0.4525198917
0.3876853361
0.396760865
0.3975374557
0.4021712583
0.3972119121
0.3972699565
0.3993921806
0.4073857282
0.4111911835
0.4254035182
0.4310847756
0.4162285741
0.4257986521
0.4307836863
0.4285027762
0.4222435577
0.4381287078
0.4440455592
0.4419551451
0.4604080143
0.3905122502
0.3951128672
0.3903592903
0.3889641085
0.3843918691
0.4048233944
0.3951985038
0.4148609617
0.4311719366
0.4264714468
0.4292233496
0.4359693598
0.4379455744
0.4373345419
0.4491655244
0.4346269525
0.4491491639
0.458142677
0.4499316634
0.4570276963
0.3779946545
0.3940264992
0.4039577972
0.3872574822
0.3878930247
0.4002134391
0.3970366598
0.4020579243
0.4136421771
0.4323761515
0.4250516213
0.4207854675
0.4310509448
0.433577914
0.4341757077
0.4453803618
0.4444881469
0.4511153451
0.4480148773
0.455179934
0.3783414164
0.3922071784
0.3752117631
0.3898387488
0.3902215358
0.410750809
0.4147801078
0.4202327152
0.4240508711
0.4158385908
0.4221443136
0.4233675436
0.4316618595
0.4411641603
0.4450213747
0.4421404462
0.4325988302
0.4344198388
0.4445195184
0.4503914024
0.38103666
0.3859083717
0.3857252731
0.3923742237
0.3977636672
0.4122250946
0.3965375192
0.4141929494
0.4101065605
0.4097013622
0.406031331
0.4252854632
0.4324389181
0.4285941337
0.4458229594
0.4350845606
0.4379692852
0.4482342922
0.4480405277
0.449316083
0.3796467898
0.3790271695
0.3796674016
0.3938113805
0.3892110681
0.3973311228
0.4143676257
0.4133097429
0.4208155174
0.4253191387
0.4137703949
0.4232374494
0.4342708653
0.438890177
0.4307178016
0.4527033501
0.4353976826
0.4400174076
0.4457167714
0.4605520604
0.3611852228
0.3813416537
0.3878149871
0.38111645
0.38156959
0.3968275153
0.4084551219
0.406757293
0.4164946263
0.4181827265
0.4319608787
0.4210783501
0.4254922575
0.4435480292
0.4539800415
0.4507262918
0.4612078274
0.448844078
0.4664212577
0.4737338471
0.3625020724
0.3844573327
0.3718610671
0.3886986864
0.3918549047
0.4070472571
0.4053559388
0.4167843162
0.4097193789
0.4198289491
0.4252190995
0.4435459257
0.4294168512
0.4224878032
0.4529167076
0.4558813369
0.4547760224
0.4449863249
0.4528093478
0.4656137474
0.3748370987
0.3913948865
0.3955230198
0.3830122967
0.3919956355
0.3963885932
0.3993784782
0.408383739
0.408335999
0.413381248
0.4222903206
0.4254173814
0.4222340047
0.4038914701
0.4183776524
0.4338825199
0.4463713615
0.4482570701
0.4627963862
0.4551876916
0.3812878755
0.3848236406
0.3919035398
0.3931074617
0.401100147
0.3966626954
0.3967790845
0.4138691326
0.4065274181
0.415407502
0.4000215193
0.4285387792
0.4249709516
0.4246956158
0.4227553239
0.4317771425
0.4340569907
0.4492151694
0.4602106148
0.4676446735
0.3755230812
0.380935081
0.3951318514
0.391448405
0.3859568601
0.3913083843
0.3952253378
0.4123916885
0.4142989946
0.4169567173
0.419557357
0.4453241671
0.4317648032
0.4483871961
0.4152168498
0.4329376601
0.448122698
0.4648817916
0.4564518032
0.4683989024
0.3692454539
0.3794038764
0.3916012668
0.4027346626
0.4027849214
0.3944830726
0.3910727804
0.4191191148
0.4178648853
0.426789948
0.4198834861
0.4445975173
0.4355804088
0.4407612935
0.4442833725
0.4368508747
0.4539354579
0.4486067636
0.4469230937
0.4513949485
0.3676724642
0.3852554619
0.3781345605
0.3952631207
0.3892280574
0.3928863103
0.4004642456
0.4145222302
0.4232746862
0.4305037679
0.414519946
0.4177738961
0.4407198903
0.4374666309
0.4375273267
0.4541827624
0.4398095502
0.440021971
0.453797241
0.4667707879
0.3616947263
0.3827685906
0.3698997146
0.3861202176
0.3943748219
0.3955377523
0.4103264896
0.4117077353
0.4165185444
0.4156305164
0.4159802447
0.4172258363
0.4128999366
0.4199337787
0.4470319557
0.4442264627
0.4518762084
0.4457450988
0.4392408066
0.4555416532
0.3721564704
0.3864787078
0.3845267767
0.396527693
0.4030679703
0.3965578521
0.4074816708
0.4079946219
0.4015668843
0.4068311713
0.4081996495
0.428931151
0.4478272364
0.4328789739
0.4576950685
0.4530675689
0.4695260217
0.4649290931
0.4556987105
0.464169347
0.3880172727
0.392280116
0.3920325491
0.3864910936
0.3870876713
0.3947207748
0.4080089656
0.4117871125
0.4130402968
0.4219546829
0.4256975576
0.4137398762
0.4381857114
0.4381499389
0.4512866985
0.4331500875
0.451908779
0.4574787971
0.4698842183
0.4707611801
0.3852717648
0.3897682005
0.3974833709
0.3900794062
0.3901282592
0.3761353849
0.3929371329
0.3988984736
0.4166441389
0.4161388973
0.4160510942
0.414218841
0.4264591778
0.4324487224
0.45788435
0.450562599
0.4473952225
0.4667917531
0.4804248919
0.4730703992
0.3898635213
0.3873354898
0.4018014527
0.4025977995
0.399206523
0.4016965629
0.4000264255
0.4151561729
0.4020091871
0.4041109985
0.4152732076
0.4225919162
0.4319249965
0.4406864967
0.4478076911
0.4488088445
0.4517030972
0.4571965736
0.4589606459
0.4637163196
0.3794728855
0.3944776674
0.3805850064
0.3742520842
0.3807037287
0.3975002764
0.4131434209
0.3972751314
0.4150170501
0.4004180644
0.4093940618
0.4193759599
0.4266073933
0.4275502161
0.4322028169
0.4417066619
0.4450344836
0.4647063554
0.472218339
0.4573997807
0.3842076185
0.3848410984
0.3708114023
0.3721730528
0.3738811899
0.3892146907
0.4050871889
0.3971581767
0.4019271702
0.4186636978
0.4156761308
0.4152087606
0.4285431799
0.4436921548
0.438162393
0.4590133137
0.4656326066
0.4708467328
0.4599681373
0.4832222614
0.3842482043
0.3825993662
0.3832050266
0.3908374446
0.3876013284
0.3945499058
0.4206078333
0.4311422368
0.4299236835
0.4013865171
0.4193178848
0.4079279368
0.4160750212
0.4459701524
0.4460076889
0.4376976924
0.4379217629
0.4590358043
0.4678956773
0.4689814342
0.3679446271
0.3838204633
0.3815421198
0.3924868465
0.3912869879
0.3958176326
0.4147916937
0.4032606797
0.4076470285
0.4188604613
0.4186717965
0.4300752432
0.4318866717
0.432454078
0.4374235791
0.4411122524
0.4475179841
0.4578080821
0.4579607086
0.4647264781
0.3672137925
0.3805567558
0.3842800183
0.387912995
0.3886184863
0.417205956
0.420213797
0.409565903
0.4136713691
0.4175796677
0.401826166
0.4310668388
0.4329024348
0.43376358
0.4390700754
0.4610372108
0.4532275449
0.4551278649
0.4578237185
0.4650743689
0.3709807851
0.3845981981
0.3777434395
0.3840265931
0.3926598495
0.4045796772
0.4033227652
0.4107302202
0.4102456154
0.4187290106
0.4261778743
0.4260221514
0.4298791177
0.4378507555
0.4414666943
0.4677603132
0.4600354046
0.4553687727
0.4489433398
0.4512158545
0.3654784464
0.3719366629
0.3916594723
0.3770770966
0.3901285131
0.3963291447
0.3944924642
0.4085202902
0.3980260961
0.4136015954
0.4353336131
0.4421143597
0.4392750177
0.4357948204
0.4454478291
0.4571263585
0.4493184204
0.4377884221
0.4485868718
0.4693594142
0.367441912
0.3915697952
0.4102650967
0.3919513544
0.4007655695
0.416591335
0.4102952335
0.4078004792
0.3962360823
0.4142836596
0.4239064106
0.4225519542
0.4264054627
0.448732316
0.443595625
0.4368308935
0.4380113253
0.4418115474
0.4397342992
0.4417394357
0.3811217876
0.3980069344
0.385257803
0.3992795777
0.4026442413
0.3932466686
0.3889833414
0.389834667
0.4012849385
0.4142715121
0.4077123488
0.4205756508
0.4399587983
0.4199706633
0.4326498188
0.4342451723
0.4459794511
0.4541490477
0.4416223381
0.4550906746
0.3657266923
0.382698285
0.395253195
0.3869964622
0.3870329684
0.4094174991
0.4110332506
0.4050087396
0.4079531194
0.4152257286
0.4327918451
0.4194972481
0.4239569954
0.4348058856
0.4073109979
0.4252097261
0.4320659932
0.455083835
0.4360676549
0.452170112
0.3639886623
0.3836244504
0.3853799674
0.3865264198
0.3833885148
0.4096288559
0.417015771
0.4223079059
0.4147267398
0.4428443034
0.4360421492
0.4301118111
0.4451764635
0.4436180018
0.4361215247
0.4400733166
0.4530223877
0.4596680829
0.4597132974
0.4685675794
0.3801215392
0.3924291925
0.3975787666
0.3928716033
0.403561546
0.3906813755
0.3947697781
0.398864095
0.4097233993
0.4303721361
0.42066202
0.4193608022
0.4409800236
0.4473315623
0.4441766348
0.4490196621
0.4698084724
0.4618242407
0.4558653001
0.4558225316
0.3760941884
0.3888359629
0.394662548
0.4041099855
0.4148427262
0.4005381826
0.4029277695
0.4066317123
0.4113543321
0.4428661519
0.4482349902
0.4363049388
0.4350030506
0.4534921032
0.4392634608
0.4299372464
0.4397774777
0.452803299
0.4558049723
0.468487725
0.3706170344
0.3885771411
0.396604482
0.3852472132
0.4188523551
0.4142141399
0.4090337593
0.4221162286
0.4201759929
0.4344425311
0.4327893639
0.4395187016
0.4361772237
0.4327129968
0.4539514495
0.4272011668
0.4401257103
0.4500035621
0.4495933545
0.4656398384
0.3802390333
0.398233021
0.3919993103
0.3854427972
0.4023870605
0.4061881891
0.4166135042
0.4181531109
0.4191914569
0.4124443718
0.4309117693
0.4289483089
0.442879887
0.4205281641
0.4177365186
0.4396119027
0.4292880979
0.4385028201
0.4651224642
0.4694891261
0.3810198429
0.4040804348
0.3987803725
0.3869112662
0.3949575419
0.4005795664
0.3928127229
0.4115376546
0.4144232855
0.4228189872
0.4297513483
0.4167072595
0.415490026
0.4102615599
0.4035183177
0.4150533519
0.4041885939
0.4124032524
0.423890142
0.4268462213
0.4566686182
0.4613675994
0.4827659979
0.489818389
0.491716528
0.4841366633
0.4759676856
0.4842090737
0.5020887252
0.5053844671
0.499061605
0.5090820571
0.5319198497
0.5390872677
0.5199611409
0.5434877925
0.5450096963
0.5391376935
0.5099131898
0.5092785909
0.5293630965
0.5463125499
0.5330932589
0.5480609739
0.5512509783
0.5501723586
0.5650373387
0.5652569732
0.5698254204
0.5821231056
0.5815173663
0.5889274787
0.567630261
0.5593076945
0.5989385918
0.6062696676
0.6052983025
0.6484573945
0.6130622846
0.6141537234
0.448693854
0.4597370496
0.4796788853
0.4965990544
0.5015513938
0.517551287
0.4968506358
0.5051561673
0.5216433109
0.5271107708
0.5207793373
0.5507175559
0.5598483825
0.5199091469
0.5250803207
0.5306482707
0.5321134531
0.5446130018
0.5541334912
0.5552171201
0.5664836312
0.5623357445
0.5484543004
0.5643365895
0.5885109275
0.5778112095
0.6037130956
0.6109288415
0.5867502194
0.5949823821
0.5880246386
0.6067559458
0.6288329517
0.6521891226
0.6225706152
0.6417338566
0.6545211258
0.6452571947
0.6635305673
0.6506521195
0.4505639034
0.4594004585
0.4899275699
0.5010401272
0.5125360922
0.5274557079
0.4914785858
0.5228348347
0.5300492105
0.5432016847
0.5551444612
0.5614174411
0.5528768048
0.5544086085
0.5727536486
0.553240711
0.570427796
0.5999649725
0.5880571056
0.588473125
0.5812317231
0.5825742694
0.6086872464
0.5943697634
0.5913899516
0.5926716768
0.6367664371
0.622881487
0.6413055194
0.6153740386
0.6453951511
0.6328319895
0.6411028844
0.6405036247
0.6325886697
0.6644422039
0.6522682948
0.6655567837
0.6826239437
0.643983957
0.4673666922
0.4728574649
0.4761386763
0.4834832221
0.4975506123
0.510392237
0.5198448868
0.5365811549
0.5470415469
0.5531198386
0.5823889887
0.5597203968
0.5759498792
0.5742195501
0.5567627817
0.5728806504
0.5740136994
0.6001020716
0.5831623612
0.5838513382
0.596159322
0.5989091436
0.6100968994
0.6397168356
0.6421179049
0.654742467
0.6630848829
0.6588847891
0.6719452958
0.6547123303
0.6397057442
0.6545451049
0.6536523458
0.6570649426
0.6617844722
0.6831372586
0.6855780435
0.7021452553
0.6965809421
0.6794110146
0.4555433435
0.4777526269
0.4891553398
0.494040512
0.4902591458
0.5035690183
0.522669274
0.527300644
0.5330574787
0.5404182886
0.5651516052
0.5405005654
0.5310348223
0.5274653052
0.5516437734
0.5671652225
0.5724873169
0.5775287028
0.5864394224
0.583511233
0.5994746298
0.6382310255
0.6296489377
0.6021621052
0.6431849843
0.6363556837
0.64399594
0.6473407524
0.6423742008
0.6280546043
0.6520853174
0.6496422939
0.6626465489
0.6735993264
0.6827862112
0.6781391354
0.6877275156
0.689732843
0.6908538774
0.7150561793
0.4654042536
0.4869776926
0.4901934827
0.4928095553
0.4761878617
0.476857405
0.5139171474
0.5256433177
0.4982240673
0.5030822951
0.5283614957
0.5340706541
0.5133637435
0.5578555529
0.5540150735
0.553208535
0.5549198907
0.5729735959
0.5907809925
0.6061242812
0.6142194025
0.5883717289
0.6226959025
0.6260272325
0.6383839284
0.6443894556
0.6559851892
0.6600556828
0.6517714658
0.6344825066
0.6531993986
0.6502599625
0.6811532181
0.6784655686
0.6887036086
0.6794298134
0.7036968923
0.6880256539
0.6987026134
0.6933823508
0.4688695385
0.4576626679
0.4519375571
0.4795516516
0.5004497739
0.5024801478
0.4998835795
0.4888053865
0.5084258479
0.5055210927
0.5265621409
0.5438093181
0.520924708
0.5364527705
0.5420218105
0.5513090073
0.5700686189
0.5753913212
0.5968676802
0.5918932198
0.6276378577
0.6155193902
0.6205078185
0.6207780724
0.6643774348
0.6600574934
0.6637810103
0.68929824
0.6776922885
0.6585727461
0.650504356
0.6663517046
0.6864227316
0.6892207568
0.7076081001
0.69224204
0.7027981076
0.715401638
0.7203900203
0.7390880034
0.4818624546
0.4815249354
0.4897389662
0.4642142316
0.4601420192
0.4760591303
0.4978906308
0.5072193468
0.5045313109
0.4813909511
0.5078021611
0.5365153372
0.5389323863
0.5346896513
0.5498340571
0.5729358241
0.5834300823
0.5568787168
0.6159697892
0.6230010042
0.6196327281
0.6180902646
0.6041432964
0.6289067517
0.6658701289
0.6427520222
0.6581199151
0.658360294
0.6699775011
0.6507099052
0.6461690943
0.695918125
0.7004244318
0.6878548387
0.6808501973
0.6947111707
0.6920630792
0.7008318575
0.7015271336
0.7397726315
0.4544404511
0.4665752601
0.4600717991
0.4789968524
0.4888635595
0.4878173701
0.5016900254
0.4782201406
0.5200308002
0.5193450605
0.5019626982
0.5240320377
0.541701213
0.5570320841
0.5452301441
0.5663334843
0.59249568
0.5730198918
0.5810644023
0.6078480455
0.6071551701
0.623430664
0.6236217579
0.6171123435
0.6263798825
0.6406844799
0.639819122
0.6406130388
0.6492950202
0.6589029892
0.6369033287
0.6586890066
0.706702506
0.7242336486
0.6994783352
0.6962772261
0.7216225623
0.7417049439
0.7484885345
0.7593039258
0.4675869535
0.4670731146
0.476083162
0.4818667492
0.478955265
0.4783674682
0.4940631379
0.4893480079
0.5055207121
0.5314756615
0.5414605278
0.5417682799
0.5349316041
0.5582221761
0.5751750382
0.5717112625
0.5627412913
0.5556565781
0.5630781262
0.5963923823
0.5983852792
0.6131794758
0.6063649403
0.6200434389
0.6421095075
0.6585081866
0.6463415223
0.6233528454
0.6439820707
0.6476760842
0.6858847653
0.7006316257
0.7196778815
0.7129222421
0.6986842734
0.7199450246
0.7111894612
0.7408326094
0.741832074
0.7446822889
0.4635187896
0.4598314859
0.4569066312
0.4849500539
0.5020420715
0.4906898954
0.5089386122
0.4890929979
0.4954624754
0.4890614724
0.5152041831
0.5155737797
0.5416574743
0.5402770557
0.5436001892
0.5599010264
0.5586175522
0.5736001558
0.5725069962
0.5742655879
0.5794581518
0.605089409
0.6089020654
0.601242012
0.6377127027
0.6335098056
0.6476391829
0.646291758
0.6536763331
0.6444078106
0.6465095197
0.6757539563
0.6846327567
0.6891190812
0.6887191823
0.7003945547
0.7445446813
0.7391907857
0.7871970925
0.7834635103
0.454656143
0.4639341676
0.4781556041
0.4839829606
0.4877753434
0.4954926902
0.5118495704
0.4817375668
0.5100409142
0.4986949959
0.5093488183
0.5220337095
0.5308789249
0.5170848364
0.5540072865
0.5530112553
0.5460105343
0.5447423731
0.5563209853
0.5697325837
0.5619704299
0.5833890186
0.5847935843
0.5745048998
0.5989275618
0.6106420493
0.6241697269
0.6182679425
0.6378100349
0.6474296318
0.6412730768
0.6383049422
0.6640870832
0.6996087323
0.6984568379
0.7071459819
0.7160552063
0.7112802656
0.7693677754
0.7881584613
0.4733118258
0.4713678327
0.4907466857
0.4819566738
0.4986216308
0.4971883683
0.4994022342
0.4992128399
0.5083163006
0.5192252026
0.5052169781
0.5212340863
0.5233757515
0.5365985051
0.5358500956
0.5483538215
0.5642317982
0.5531480774
0.5361801041
0.5618899931
0.5602934566
0.5854549491
0.5637724474
0.5784301201
0.6092821079
0.5949199653
0.6282841897
0.6287802761
0.6339388181
0.6557731178
0.6421096455
0.6618615579
0.6689524916
0.6878456753
0.6836002506
0.6939027863
0.7104337616
0.7279286915
0.7461451364
0.7588570739
0.4787261235
0.4620913608
0.46381545
0.4659550364
0.4787506237
0.4680493763
0.4844183084
0.4854635968
0.492795506
0.5102262213
0.5206062737
0.5068023238
0.5295467794
0.531273553
0.532181637
0.5400123707
0.556153003
0.5617612913
0.5787426876
0.5849370527
0.581028679
0.5727899145
0.5863262203
0.584025973
0.5986941131
0.6086398749
0.6336752538
0.6239710477
0.6448538162
0.6746459204
0.6868581156
0.6568642964
0.6731258587
0.669324565
0.7123638383
0.6828127037
0.67940705
0.6986598383
0.7345845914
0.779005434
0.4607956273
0.4476640758
0.4693222868
0.4845788203
0.4800216316
0.4886626631
0.4985823001
0.528101897
0.5061560005
0.5200107784
0.533000614
0.5238757574
0.5173351433
0.523712498
0.5382767015
0.5466715583
0.5540913271
0.5621988042
0.5552857019
0.56536238
0.5591952535
0.5723327586
0.5694498118
0.5928630965
0.6089752633
0.6215274949
0.6284080781
0.6244243856
0.6255208954
0.6259397219
0.6467922268
0.643015933
0.6667282075
0.6785433098
0.676336413
0.6970531678
0.7030021848
0.7098091137
0.7131644654
0.7311956512
0.4577790119
0.4774602848
0.4897495073
0.5011873219
0.4940908816
0.4950708063
0.4977239663
0.5090538017
0.4935712771
0.5049794776
0.5071551935
0.5119813939
0.5162539441
0.5183425748
0.5436538084
0.5316755979
0.5609193877
0.5634561974
0.5793083561
0.58731664
0.5569338935
0.5666929132
0.5837326645
0.5888766803
0.588711131
0.5930404255
0.5840997284
0.6075542646
0.6000520169
0.6276731743
0.6309640626
0.6522423375
0.6438625719
0.6335855908
0.678609823
0.6904163801
0.7119368345
0.7182336288
0.7323808852
0.7411696559
0.4787599951
0.4815387431
0.4628356053
0.4743669042
0.4809398994
0.4687396659
0.5021317455
0.5063120737
0.5274357715
0.5231416858
0.5279744638
0.5262314465
0.5316721252
0.5307631048
0.5135525468
0.5201883824
0.5404951075
0.5632092335
0.5403482181
0.5601132805
0.5602410034
0.5815945498
0.5657681437
0.5624393425
0.5779142241
0.5884120226
0.5939544787
0.622029757
0.6482850739
0.6536876542
0.6318707098
0.6424040598
0.6587538647
0.6460562449
0.6814771317
0.6711040311
0.6407357347
0.6903683297
0.7127439504
0.6946849013
0.4568201547
0.483384007
0.4719922908
0.4887786518
0.484195982
0.5067136001
0.4987318779
0.5089155171
0.5309353173
0.5215879461
0.5326721947
0.5347447535
0.5137836664
0.5275531483
0.5290958189
0.5375983162
0.5447675589
0.5562320327
0.5555293519
0.5784002131
0.5650165777
0.570961017
0.5621188384
0.5701477789
0.5790633169
0.5892037865
0.6096522976
0.6068093506
0.6094557614
0.6147876957
0.605775647
0.643734714
0.6280400215
0.6289550275
0.6565869274
0.6762938684
0.6575319472
0.6781387175
0.7041950788
0.7394482362
0.4756688383
0.4774283034
0.4749582381
0.4928709451
0.5005327052
0.5197707111
0.5132044084
0.5012871111
0.5140278456
0.5024059713
0.5138268667
0.5200511828
0.5146892756
0.507810814
0.5292944036
0.5271972263
0.5286147182
0.5435288035
0.5484445893
0.5767284263
0.5680795878
0.5787218241
0.5787647555
0.6044798993
0.5904584336
0.591355916
0.5863973224
0.5888724089
0.6148906439
0.6301352373
0.6215672582
0.6532900745
0.6646705457
0.6507581722
0.6603734334
0.6727154967
0.7023383395
0.7110508554
0.7141084347
0.7230365583
0.4833670085
0.4731559463
0.4760868537
0.4854244873
0.4910802885
0.504536896
0.4932415244
0.4972139648
0.5032046969
0.5137453553
0.5269272086
0.5115503392
0.5180726098
0.52431039
0.5298860238
0.5348503884
0.545502946
0.5413976439
0.562880059
0.5636531386
0.5699166414
0.5709050554
0.5629478184
0.5788985184
0.5802185888
0.5724278906
0.5862825228
0.6080806428
0.6198066945
0.6016368335
0.6112580307
0.5978782516
0.6442632899
0.6521063602
0.6544422427
0.6544434111
0.6665789617
0.6646882393
0.6842164892
0.7168491068
0.4642151239
0.4427173633
0.4765374547
0.4781983573
0.4731614452
0.4702144256
0.4753304403
0.5059107647
0.5038954059
0.5001485234
0.4971729282
0.4975797761
0.5250035079
0.5321458621
0.5489442499
0.5465948982
0.5439079822
0.5377077047
0.5497186217
0.5351776089
0.5471612217
0.5842586897
0.5602997965
0.5672532166
0.5880643197
0.5701533985
0.5957502637
0.6053883013
0.5907195232
0.595447285
0.6067051385
0.6341830812
0.6334111558
0.6531117246
0.6465380237
0.6517916844
0.6693267655
0.7039729136
0.6961156911
0.6927391777
0.4613805562
0.4628202295
0.4796631248
0.4872109411
0.4800628613
0.4818445292
0.4706579678
0.4997799071
0.488445272
0.5067278015
0.5142733114
0.5302197341
0.530341045
0.5172487816
0.5151185048
0.5532084996
0.5353340535
0.5367710464
0.5498130822
0.5549675118
0.565754576
0.5753643862
0.5870906282
0.55071032
0.5791735201
0.5922275279
0.5824012564
0.5821932528
0.5862370422
0.5934597509
0.6053895985
0.6338560208
0.6249584674
0.6307384671
0.6439005605
0.6491076048
0.6443737932
0.6500302474
0.6475914295
0.6927844839
0.4567208826
0.4612400665
0.452476584
0.4963052994
0.4852157019
0.4858107882
0.4740900617
0.4807529418
0.4959579655
0.5056598137
0.5148191304
0.5313934447
0.5212121952
0.5119490246
0.5226670045
0.5328284733
0.5251649619
0.5420881612
0.5238541896
0.5374391514
0.5419354341
0.5483996096
0.5550464712
0.583027121
0.582623185
0.5978129181
0.5804759546
0.6078337143
0.608253825
0.5970104478
0.6137500288
0.6234989561
0.631472019
0.6398328101
0.6580294116
0.6501728465
0.6565410992
0.6616452821
0.6651618704
0.7139053892
0.462106023
0.4753510014
0.4690086396
0.4736044883
0.4951283199
0.4855238801
0.4823921014
0.4979552026
0.4984222706
0.5012413945
0.5074146591
0.5268774008
0.5186609072
0.5204279225
0.5249818522
0.5339191058
0.52783259
0.5507473183
0.5415164563
0.5495784289
0.5587681048
0.576624523
0.5709137752
0.5966733598
0.5892016759
0.5821075237
0.5769979182
0.5873330981
0.6099877216
0.6261408217
0.6580820557
0.6582684871
0.6628682132
0.6441209113
0.6691169617
0.6680205943
0.6837304682
0.6919351462
0.6859615885
0.7100799974
0.4623742767
0.4664079697
0.4729580101
0.489019379
0.4846338833
0.4846367875
0.4797082754
0.5000508727
0.5071638244
0.5033261542
0.4992726363
0.5316529199
0.528243731
0.5308816081
0.5238283214
0.5158562395
0.5468242123
0.5495390147
0.5381380196
0.5514198773
0.5417702904
0.5639903387
0.5758369394
0.5764376451
0.5692439952
0.5575441475
0.5908895058
0.6197258465
0.6250028024
0.621487586
0.6112264826
0.6022800847
0.629051433
0.631535459
0.6387377658
0.6210765976
0.6526820913
0.6609952151
0.6749445221
0.7238823484
0.4833032133
0.4766569078
0.4802257839
0.4753429382
0.4748371978
0.4705079507
0.4971281495
0.5117919406
0.4964196648
0.4961269117
0.4978083006
0.5156714505
0.5166154348
0.5252423336
0.5229702385
0.5209713319
0.5436904975
0.5602228326
0.5557264058
0.57237523
0.5573432291
0.5528737254
0.5746079126
0.5771947229
0.5811470109
0.5835997796
0.5980159995
0.5978578033
0.6042186287
0.6070722435
0.6093113977
0.6061397182
0.626392259
0.6342350072
0.6418999263
0.6426106678
0.6524591163
0.6585637392
0.6705584553
0.6793749718
0.4508622333
0.4531560594
0.4502327431
0.4715644321
0.4755482068
0.4866643842
0.4800759688
0.4807258941
0.4974934379
0.5015443918
0.504380604
0.5038083019
0.5125162843
0.5111198083
0.5196670861
0.5255797986
0.5424344921
0.5394174622
0.5367406509
0.5641745819
0.5462073264
0.5385293488
0.5369686621
0.5720409393
0.5585328038
0.5842597946
0.5808145823
0.6082751637
0.6138920442
0.6141405356
0.6099702131
0.6203195202
0.6279389804
0.6150990449
0.6399330217
0.6265283798
0.6532083162
0.6487221457
0.657125284
0.6787384607
0.4614423456
0.4587506521
0.4660464771
0.4693574215
0.488503102
0.5059408034
0.4696109514
0.4807699895
0.5049323763
0.5164061466
0.5308926283
0.5316487677
0.5095506478
0.5161705462
0.527875338
0.5480479948
0.5267881319
0.5380263114
0.5251084844
0.5362402435
0.554216287
0.579301228
0.5736749182
0.5693552454
0.559131125
0.5773910674
0.5788752122
0.5836908567
0.6065494217
0.6089018013
0.6217464837
0.6325623767
0.6081635721
0.6034558083
0.6082855229
0.6275163588
0.6289067815
0.6441413149
0.6610833608
0.6734423486
0.4638740629
0.471344307
0.4782979388
0.4775587393
0.4823028346
0.5113176998
0.4987915404
0.5036858124
0.508764083
0.4997441706
0.5034775669
0.5119634533
0.5269124611
0.5223880159
0.532363846
0.5258990585
0.5480940461
0.5507341411
0.5637566786
0.5733512494
0.5612842566
0.5768486333
0.566698648
0.5574181875
0.58760292
0.6051741047
0.5965447741
0.5995046909
0.6003906997
0.6186692971
0.6298258226
0.6288702224
0.6062687044
0.6299056873
0.6155254862
0.6255586077
0.6339929084
0.6657662052
0.6720812592
0.6789266241
0.4715906668
0.4676270344
0.4639920609
0.4840235205
0.4792139653
0.5035573791
0.5058426043
0.5147292238
0.5236840673
0.5098110498
0.516408241
0.5246880219
0.5337984283
0.5160112124
0.537224725
0.5323143028
0.5393934179
0.5409486005
0.5325879752
0.5361759081
0.5052474675
0.5318470769
0.5366986477
0.5590159788
0.5610174
0.5518137958
0.5545907442
0.5947455154
0.5862928497
0.5960714668
0.5976948925
0.5806017979
0.593056545
0.6076086281
0.6040865755
0.6423308366
0.6564185182
0.6527917315
0.669207475
0.6900688176
0.4651970001
0.4748382081
0.4893866095
0.49368754
0.4927419569
0.5002872221
0.4926491774
0.5110219838
0.5096549284
0.5277889251
0.5196537031
0.5415798271
0.542402018
0.5416148493
0.5461801641
0.5207696499
0.5373699157
0.5344048892
0.5426405187
0.55347241
0.5555077646
0.5478278061
0.5401333267
0.5527715991
0.5781656117
0.5897603609
0.5991184339
0.5961157174
0.6118528424
0.6078059609
0.5959382417
0.6101971814
0.5950714258
0.6250102106
0.6195521557
0.6363889861
0.6394438917
0.6648624706
0.6776022659
0.6873411279
0.4493078902
0.4593639781
0.4698775897
0.4820972552
0.4742718263
0.4983291336
0.4880508882
0.495256019
0.4980090821
0.5169285732
0.5043850902
0.5178168801
0.5132056776
0.5094186448
0.5276867796
0.516556188
0.5396085718
0.5313787425
0.5326355175
0.5615777831
0.5479072199
0.5532389838
0.5672690731
0.5418889848
0.570371642
0.5867168387
0.586809019
0.5616487007
0.5748800133
0.5558106465
0.5854589769
0.5740463078
0.6042054126
0.615799917
0.6351431704
0.6257559171
0.648873945
0.6462805681
0.6741696959
0.6615203506
0.4599100074
0.4550361507
0.4667058348
0.4782711601
0.4820876936
0.4632076042
0.4856703956
0.4906570408
0.5088257757
0.5245535738
0.5070487694
0.494265305
0.5145410844
0.5268949915
0.5298779029
0.5312532878
0.5336363125
0.538184082
0.5585541985
0.5477150122
0.5394997144
0.551049689
0.5583444405
0.5542526491
0.5488867647
0.5671035249
0.5611706007
0.5801370934
0.5765363332
0.5851905742
0.5957107202
0.5809314079
0.6082547859
0.6238930498
0.6149851381
0.6172273827
0.6205155802
0.6320947372
0.6286914454
0.6289998634
0.4623039832
0.4664374913
0.4633269839
0.4792658435
0.4720526047
0.4741471273
0.4901093576
0.4983893493
0.5056265192
0.5194225779
0.5151421521
0.4802979666
0.5202542425
0.5099950311
0.5195703718
0.5174702849
0.516163881
0.5280480095
0.5343873214
0.5332046637
0.552344995
0.5618733909
0.5695244605
0.5602413169
0.5494189601
0.5542921549
0.5445520604
0.559827679
0.584835398
0.6058421491
0.5935155651
0.5838789167
0.6205411457
0.6215221614
0.5979182246
0.6078131325
0.6124125245
0.611682547
0.6199853338
0.6214978428
0.4738464111
0.4797379138
0.4871527621
0.4777549201
0.4862531261
0.4892158421
0.491016363
0.4893135283
0.490999192
0.5008712225
0.5033098051
0.4862258866
0.4984195016
0.5011581219
0.4966454157
0.5222130622
0.5226081773
0.5325722494
0.5394656558
0.5428180267
0.5442208964
0.5374012359
0.5622317668
0.5555820139
0.5697060666
0.5733973246
0.5862057886
0.5737088635
0.5651348725
0.57351475
0.5930351953
0.5807587186
0.6038638768
0.6039117181
0.6162082531
0.6123439487
0.5896560553
0.5961673458
0.6147388404
0.6184846757
0.4562940141
0.4535626484
0.4647223941
0.4577476676
0.4789421039
0.4795576782
0.4753393219
0.5097866238
0.5033622648
0.5091610262
0.5012886918
0.4983637516
0.5096265667
0.5306520888
0.5240299894
0.5240309038
0.5280194796
0.520716559
0.5287753592
0.5114410116
0.5321105437
0.5419401418
0.5559222375
0.559254481
0.5536421557
0.5513700279
0.539393351
0.5589812562
0.5697084604
0.5919470565
0.5772284828
0.5611352613
0.5630594133
0.5801323289
0.5789687109
0.6149577087
0.5917950598
0.628348042
0.615675102
0.6099553794
0.4567842779
0.4674658344
0.4712224255
0.47946288
0.4750476665
0.4776339941
0.4923198849
0.5064624362
0.5004896905
0.5115227954
0.5204482646
0.504636898
0.5019633013
0.4983343086
0.5298117713
0.5060135923
0.5113261777
0.5296414545
0.518928369
0.5162683626
0.5045151549
0.5303851145
0.5236916249
0.5420509112
0.5489858001
0.5880914936
0.5790433828
0.5641703012
0.5672786645
0.5616075105
0.5604114147
0.5597825663
0.5641913122