/*--------------------------------*- C++ -*----------------------------------*\
  =========                 |
  \\      /  F ield         | OpenFOAM: The Open Source CFD Toolbox
   \\    /   O peration     | Website:  https://openfoam.org
    \\  /    A nd           | Version:  7
     \\/     M anipulation  |
\*---------------------------------------------------------------------------*/
FoamFile
{
    version     2.0;
    format      ascii;
    class       volScalarField;
    location    "0.005";
    object      q;
}
// * * * * * * * * * * * * * * * * * * * * * * * * * * * * * * * * * * * * * //

dimensions      [1 0 -3 0 0 0 0];

internalField   uniform 0;

boundaryField
{
    flow
    {
        type            zeroGradient;
    }
    obstacle
    {
        type            calculated;
        value           nonuniform List<scalar> 
40
(
4492.435214
0
1246.188819
1463.221257
5435.596966
1132.639725
-10.66507674
2996.925873
557.7200658
1178.265527
0
4061.848345
1867.881424
8352.52587
-1902.389249
0
0
302.9359038
2661.241418
907.7313336
0
-441.2139522
0
4033.586358
13.48406006
-953.7127469
2579.598492
747.5584991
-805.8916151
0
1092.570385
2002.716195
-667.019933
0
-207.7002169
-311.6661202
0
-213.9783184
-917.4085929
2602.915962
)
;
    }
    frontAndBack
    {
        type            empty;
    }
}


// ************************************************************************* //
