/*--------------------------------*- C++ -*----------------------------------*\
  =========                 |
  \\      /  F ield         | OpenFOAM: The Open Source CFD Toolbox
   \\    /   O peration     | Website:  https://openfoam.org
    \\  /    A nd           | Version:  7
     \\/     M anipulation  |
\*---------------------------------------------------------------------------*/
FoamFile
{
    version     2.0;
    format      ascii;
    class       volScalarField;
    location    "0.005";
    object      rhoM;
}
// * * * * * * * * * * * * * * * * * * * * * * * * * * * * * * * * * * * * * //

dimensions      [1 -3 0 0 0 0 0];

internalField   nonuniform List<scalar> 
2400
(
5.049331109e-06
4.427198864e-06
5.811010928e-06
6.433143174e-06
4.01188862e-06
4.080829287e-06
5.464641352e-06
5.948892263e-06
4.080829287e-06
6.086773598e-06
4.427198864e-06
5.948892263e-06
6.086773598e-06
5.395700685e-06
6.917394084e-06
6.433143174e-06
4.01188862e-06
2.490195221e-06
3.389756375e-06
2.974446132e-06
3.52763771e-06
5.049331109e-06
4.634020865e-06
2.559135888e-06
3.52763771e-06
6.224654932e-06
5.948892263e-06
4.634020865e-06
4.911449774e-06
5.395700685e-06
4.980390442e-06
3.043386799e-06
6.433143174e-06
7.401644995e-06
5.464641352e-06
4.358258196e-06
6.01783293e-06
3.596578377e-06
2.074884977e-06
4.980390442e-06
2.905505464e-06
6.086773598e-06
3.458697042e-06
8.576968818e-06
3.389756375e-06
5.879951596e-06
3.458697042e-06
6.571024508e-06
4.427198864e-06
4.634020865e-06
4.911449774e-06
3.942947953e-06
4.496139531e-06
4.01188862e-06
2.490195221e-06
4.01188862e-06
4.427198864e-06
6.571024508e-06
4.634020865e-06
9.685018214e-07
5.602522687e-06
4.080829287e-06
6.01783293e-06
3.874007286e-06
5.879951596e-06
6.571024508e-06
5.879951596e-06
2.974446132e-06
4.01188862e-06
4.911449774e-06
5.464641352e-06
4.496139531e-06
2.143825645e-06
4.427198864e-06
2.559135888e-06
3.458697042e-06
2.905505464e-06
4.980390442e-06
2.974446132e-06
9.685018214e-07
5.049331109e-06
2.421254554e-06
1.937003643e-06
4.149769955e-06
4.01188862e-06
2.905505464e-06
4.565080198e-06
5.464641352e-06
8.854397727e-06
4.980390442e-06
7.470585662e-06
2.974446132e-06
3.181268133e-06
2.974446132e-06
4.080829287e-06
3.52763771e-06
4.565080198e-06
2.490195221e-06
3.874007286e-06
1.937003643e-06
3.942947953e-06
6.917394084e-06
3.942947953e-06
4.980390442e-06
5.326760018e-06
5.118271776e-06
3.458697042e-06
4.080829287e-06
3.389756375e-06
4.01188862e-06
4.980390442e-06
6.502083841e-06
3.458697042e-06
3.043386799e-06
3.043386799e-06
4.427198864e-06
4.01188862e-06
3.596578377e-06
5.740404021e-06
3.389756375e-06
4.496139531e-06
4.01188862e-06
9.685018214e-07
6.986334752e-06
3.942947953e-06
4.496139531e-06
2.00594431e-06
5.395700685e-06
3.596578377e-06
4.565080198e-06
2.905505464e-06
2.00594431e-06
4.496139531e-06
5.879951596e-06
5.395700685e-06
3.942947953e-06
4.842509107e-06
2.421254554e-06
4.980390442e-06
3.874007286e-06
3.942947953e-06
4.565080198e-06
4.634020865e-06
2.974446132e-06
5.671463354e-06
3.458697042e-06
3.043386799e-06
4.980390442e-06
4.980390442e-06
1.521693399e-06
4.427198864e-06
5.948892263e-06
5.53358202e-06
4.980390442e-06
4.496139531e-06
3.043386799e-06
6.571024508e-06
7.53952633e-06
4.911449774e-06
2.421254554e-06
4.01188862e-06
5.464641352e-06
6.639965176e-06
4.496139531e-06
6.433143174e-06
4.358258196e-06
4.01188862e-06
3.596578377e-06
3.942947953e-06
4.427198864e-06
3.942947953e-06
6.502083841e-06
2.974446132e-06
6.086773598e-06
4.980390442e-06
4.980390442e-06
4.01188862e-06
1.937003643e-06
1.590634067e-06
2.974446132e-06
1.937003643e-06
6.848453417e-06
1.937003643e-06
5.464641352e-06
2.421254554e-06
4.980390442e-06
4.911449774e-06
5.118271776e-06
4.080829287e-06
3.112327466e-06
5.879951596e-06
2.490195221e-06
4.149769955e-06
3.596578377e-06
2.974446132e-06
4.01188862e-06
5.948892263e-06
4.01188862e-06
2.559135888e-06
2.00594431e-06
3.52763771e-06
2.421254554e-06
2.00594431e-06
6.77951275e-06
6.571024508e-06
2.559135888e-06
3.043386799e-06
3.52763771e-06
3.596578377e-06
4.427198864e-06
3.52763771e-06
2.490195221e-06
3.596578377e-06
2.00594431e-06
3.043386799e-06
2.490195221e-06
4.496139531e-06
3.043386799e-06
4.427198864e-06
2.905505464e-06
4.565080198e-06
6.77784651e-06
1.452752732e-06
2.974446132e-06
4.080829287e-06
6.502083841e-06
4.980390442e-06
3.942947953e-06
9.614411307e-06
4.980390442e-06
4.080829287e-06
5.049331109e-06
2.421254554e-06
4.01188862e-06
2.559135888e-06
4.911449774e-06
4.01188862e-06
1.937003643e-06
2.421254554e-06
5.811010928e-06
6.986334752e-06
3.389756375e-06
3.043386799e-06
7.470585662e-06
4.496139531e-06
3.874007286e-06
4.427198864e-06
5.187212443e-06
5.464641352e-06
5.049331109e-06
4.080829287e-06
4.358258196e-06
1.037442489e-06
3.389756375e-06
4.842509107e-07
3.942947953e-06
3.52763771e-06
4.01188862e-06
4.01188862e-06
4.980390442e-06
5.879951596e-06
7.53952633e-06
2.559135888e-06
4.911449774e-06
4.634020865e-06
4.980390442e-06
6.502083841e-06
5.811010928e-06
4.01188862e-06
3.874007286e-06
4.911449774e-06
3.112327466e-06
6.01783293e-06
2.490195221e-06
3.458697042e-06
3.52763771e-06
7.055275419e-06
4.980390442e-06
2.00594431e-06
5.464641352e-06
5.049331109e-06
2.905505464e-06
4.080829287e-06
5.395700685e-06
4.01188862e-06
4.911449774e-06
3.043386799e-06
6.433143174e-06
7.124216086e-06
1.937003643e-06
5.326760018e-06
3.112327466e-06
5.118271776e-06
3.458697042e-06
3.52763771e-06
3.942947953e-06
4.980390442e-06
1.037442489e-06
4.634020865e-06
4.01188862e-06
4.01188862e-06
3.389756375e-06
4.427198864e-06
4.565080198e-06
7.470585662e-06
5.464641352e-06
3.181268133e-06
4.911449774e-06
2.074884977e-06
4.358258196e-06
2.490195221e-06
3.112327466e-06
5.118271776e-06
6.01783293e-06
2.490195221e-06
4.634020865e-06
3.874007286e-06
3.874007286e-06
5.671463354e-06
2.559135888e-06
4.565080198e-06
5.464641352e-06
4.149769955e-06
4.842509107e-06
6.155714265e-06
3.52763771e-06
2.697017223e-06
5.879951596e-06
3.596578377e-06
5.049331109e-06
1.452752732e-06
7.608466997e-06
4.080829287e-06
4.702961533e-06
2.559135888e-06
3.874007286e-06
2.421254554e-06
4.634020865e-06
3.112327466e-06
3.52763771e-06
6.639965176e-06
3.942947953e-06
4.427198864e-06
6.224654932e-06
4.496139531e-06
2.421254554e-06
4.427198864e-06
5.049331109e-06
6.433143174e-06
2.559135888e-06
3.942947953e-06
4.080829287e-06
3.112327466e-06
4.911449774e-06
1.590634067e-06
1.037442489e-06
4.911449774e-06
5.879951596e-06
3.458697042e-06
4.702961533e-06
7.677407664e-06
4.565080198e-06
6.917394084e-06
3.942947953e-06
6.502083841e-06
2.490195221e-06
5.118271776e-06
6.708905843e-06
2.905505464e-06
5.464641352e-06
3.52763771e-06
5.53358202e-06
4.358258196e-06
4.911449774e-06
5.602522687e-06
3.112327466e-06
2.559135888e-06
7.124216086e-06
5.118271776e-06
2.421254554e-06
4.01188862e-06
6.986334752e-06
4.427198864e-06
4.01188862e-06
3.389756375e-06
3.458697042e-06
4.427198864e-06
9.685018214e-07
2.974446132e-06
4.149769955e-06
3.52763771e-06
4.080829287e-06
2.559135888e-06
6.433143174e-06
3.874007286e-06
2.559135888e-06
4.496139531e-06
3.942947953e-06
2.905505464e-06
3.52763771e-06
4.496139531e-06
3.458697042e-06
5.879951596e-06
5.464641352e-06
5.395700685e-06
5.53358202e-06
2.00594431e-06
4.427198864e-06
7.263763661e-06
4.565080198e-06
3.389756375e-06
5.53358202e-06
1.452752732e-06
3.942947953e-06
6.639965176e-06
5.53358202e-06
2.490195221e-06
5.53358202e-06
3.043386799e-06
2.490195221e-06
4.01188862e-06
2.974446132e-06
3.942947953e-06
4.980390442e-06
4.080829287e-06
1.937003643e-06
4.427198864e-06
4.496139531e-06
4.911449774e-06
7.401644995e-06
4.565080198e-06
2.628076555e-06
4.01188862e-06
3.942947953e-06
4.427198864e-06
7.124216086e-06
4.01188862e-06
5.948892263e-06
3.52763771e-06
7.470585662e-06
2.974446132e-06
4.980390442e-06
5.049331109e-06
1.521693399e-06
2.974446132e-06
2.559135888e-06
5.602522687e-06
4.565080198e-06
2.559135888e-06
6.01783293e-06
2.490195221e-06
3.942947953e-06
3.942947953e-06
5.53358202e-06
4.911449774e-06
4.496139531e-06
3.52763771e-06
4.149769955e-06
3.043386799e-06
5.53358202e-06
6.433143174e-06
4.842509107e-06
3.389756375e-06
6.502083841e-06
3.942947953e-06
5.049331109e-06
4.496139531e-06
5.049331109e-06
4.565080198e-06
2.974446132e-06
6.571024508e-06
3.043386799e-06
4.911449774e-06
3.942947953e-06
3.52763771e-06
4.149769955e-06
1.937003643e-06
5.326760018e-06
2.490195221e-06
4.980390442e-06
4.911449774e-06
6.364202506e-06
4.01188862e-06
5.464641352e-06
4.427198864e-06
5.602522687e-06
2.974446132e-06
4.496139531e-06
4.427198864e-06
4.496139531e-06
6.502083841e-06
4.427198864e-06
3.874007286e-06
6.01783293e-06
6.433143174e-06
3.043386799e-06
3.596578377e-06
6.433143174e-06
5.464641352e-06
6.433143174e-06
3.458697042e-06
7.53952633e-06
6.01783293e-06
5.948892263e-06
5.53358202e-06
5.326760018e-06
4.01188862e-06
3.52763771e-06
2.905505464e-06
2.628076555e-06
4.980390442e-06
2.974446132e-06
3.043386799e-06
3.596578377e-06
3.458697042e-06
6.01783293e-06
6.708905843e-06
3.458697042e-06
4.496139531e-06
3.389756375e-06
3.665519044e-06
4.427198864e-06
8.439087484e-06
5.53358202e-06
6.502083841e-06
4.358258196e-06
5.464641352e-06
4.427198864e-06
5.464641352e-06
2.421254554e-06
4.980390442e-06
3.942947953e-06
2.974446132e-06
2.00594431e-06
2.559135888e-06
4.080829287e-06
5.53358202e-06
4.980390442e-06
3.665519044e-06
5.464641352e-06
4.427198864e-06
4.980390442e-06
5.879951596e-06
4.496139531e-06
6.917394084e-06
5.53358202e-06
7.055275419e-06
7.124216086e-06
3.52763771e-06
3.596578377e-06
6.01783293e-06
5.602522687e-06
2.905505464e-06
6.986334752e-06
4.149769955e-06
5.602522687e-06
3.942947953e-06
4.427198864e-06
4.980390442e-06
3.942947953e-06
4.496139531e-06
5.671463354e-06
6.986334752e-06
9.685018214e-07
3.458697042e-06
4.634020865e-06
5.602522687e-06
2.559135888e-06
5.53358202e-06
3.458697042e-06
5.325093778e-06
8.78545706e-06
4.842509107e-06
3.389756375e-06
4.427198864e-06
5.948892263e-06
5.464641352e-06
4.427198864e-06
3.043386799e-06
6.502083841e-06
4.565080198e-06
2.421254554e-06
3.665519044e-06
6.986334752e-06
2.905505464e-06
4.496139531e-06
5.464641352e-06
4.149769955e-06
3.942947953e-06
5.53358202e-06
5.395700685e-06
6.571024508e-06
5.049331109e-06
2.00594431e-06
5.464641352e-06
1.452752732e-06
8.992279062e-06
4.634020865e-06
2.974446132e-06
4.427198864e-06
7.332704328e-06
6.364202506e-06
5.049331109e-06
3.874007286e-06
6.433143174e-06
3.874007286e-06
3.458697042e-06
3.389756375e-06
3.458697042e-06
4.911449774e-06
7.124216086e-06
4.496139531e-06
1.452752732e-06
5.049331109e-06
3.458697042e-06
4.980390442e-06
2.00594431e-06
4.565080198e-06
2.974446132e-06
4.565080198e-06
4.427198864e-06
7.124216086e-06
3.043386799e-06
4.980390442e-06
4.01188862e-06
5.53358202e-06
2.905505464e-06
3.458697042e-06
5.049331109e-06
4.080829287e-06
6.433143174e-06
3.043386799e-06
5.118271776e-06
5.948892263e-06
6.571024508e-06
3.458697042e-06
3.665519044e-06
3.596578377e-06
4.427198864e-06
4.496139531e-06
4.980390442e-06
2.974446132e-06
2.559135888e-06
3.52763771e-06
4.565080198e-06
3.874007286e-06
1.937003643e-06
6.848453417e-06
4.427198864e-06
7.401644995e-06
9.476529973e-06
8.092717908e-06
4.565080198e-06
4.149769955e-06
5.464641352e-06
3.942947953e-06
5.879951596e-06
4.496139531e-06
5.948892263e-06
5.395700685e-06
5.464641352e-06
6.01783293e-06
6.086773598e-06
4.980390442e-06
1.452752732e-06
4.427198864e-06
6.571024508e-06
5.948892263e-06
5.118271776e-06
5.948892263e-06
6.155714265e-06
2.421254554e-06
3.596578377e-06
2.905505464e-06
3.458697042e-06
5.049331109e-06
4.496139531e-06
3.874007286e-06
7.608466997e-06
6.77784651e-06
6.433143174e-06
4.149769955e-06
1.521693399e-06
7.677407664e-06
6.571024508e-06
1.521693399e-06
6.01783293e-06
4.911449774e-06
2.490195221e-06
4.565080198e-06
6.086773598e-06
7.124216086e-06
1.937003643e-06
7.055275419e-06
6.01783293e-06
4.980390442e-06
3.458697042e-06
1.521693399e-06
8.439087484e-06
2.421254554e-06
3.942947953e-06
2.421254554e-06
8.923338395e-06
6.639965176e-06
4.496139531e-06
6.433143174e-06
5.049331109e-06
4.01188862e-06
4.634020865e-06
7.055275419e-06
4.149769955e-06
4.496139531e-06
4.01188862e-06
3.043386799e-06
5.395700685e-06
2.490195221e-06
4.218710622e-06
4.980390442e-06
4.565080198e-06
5.53358202e-06
5.602522687e-06
5.395700685e-06
6.502083841e-06
3.458697042e-06
2.490195221e-06
3.458697042e-06
2.421254554e-06
6.086773598e-06
4.496139531e-06
3.458697042e-06
4.980390442e-06
4.980390442e-06
4.080829287e-06
5.464641352e-06
3.942947953e-06
5.049331109e-06
5.53358202e-06
4.565080198e-06
8.161658575e-06
6.502083841e-06
4.565080198e-06
7.055275419e-06
4.427198864e-06
6.155714265e-06
3.874007286e-06
4.01188862e-06
3.942947953e-06
3.942947953e-06
4.565080198e-06
8.923338395e-06
5.948892263e-06
7.055275419e-06
6.364202506e-06
4.427198864e-06
2.490195221e-06
5.049331109e-06
5.948892263e-06
3.043386799e-06
4.496139531e-06
1.937003643e-06
3.942947953e-06
4.980390442e-06
7.608466997e-06
3.52763771e-06
4.980390442e-06
4.080829287e-06
4.427198864e-06
3.181268133e-06
3.942947953e-06
2.974446132e-06
6.01783293e-06
5.948892263e-06
5.118271776e-06
2.974446132e-06
2.905505464e-06
5.395700685e-06
6.01783293e-06
3.942947953e-06
3.874007286e-06
3.942947953e-06
5.879951596e-06
2.490195221e-06
2.905505464e-06
4.427198864e-06
6.986334752e-06
2.974446132e-06
3.596578377e-06
4.911449774e-06
6.848453417e-06
6.986334752e-06
4.01188862e-06
6.848453417e-06
8.370146817e-06
4.427198864e-06
5.948892263e-06
7.470585662e-06
5.602522687e-06
4.980390442e-06
3.112327466e-06
5.049331109e-06
4.164486102e-06
5.452068207e-06
4.22215353e-06
4.606458564e-06
5.138416215e-06
1.509445712e-06
1.085604034e-06
3.645218649e-06
3.303865276e-06
4.216059536e-06
2.495854457e-289
5.478808947e-06
2.646740781e-06
2.209187186e-06
3.914395461e-06
2.242804595e-06
3.428835918e-06
3.533599703e-06
6.329597047e-07
1.196352892e-06
1.125685908e-06
8.104159692e-06
1.143779224e-06
2.306091523e-06
4.815349525e-06
1.758055053e-06
1.772653064e-06
4.255648869e-06
3.089856628e-06
2.510189088e-06
1.833552688e-06
2.553681499e-06
3.90826291e-06
3.226056299e-06
7.052321127e-06
4.652091485e-06
4.049826716e-06
3.994257218e-06
2.062262657e-06
2.743844734e-06
4.373713697e-06
2.516209661e-06
4.011723977e-06
2.055162943e-06
6.279904463e-06
3.665302084e-06
3.112529857e-06
2.624487185e-06
2.459795308e-289
3.180473627e-06
2.160609114e-06
3.30224627e-06
2.646740781e-06
2.209187186e-06
3.837896382e-06
2.784235465e-06
2.883253964e-06
3.455327502e-06
2.770390274e-06
3.988483457e-06
2.251371816e-06
7.698366076e-06
3.022282864e-06
5.765228802e-07
2.906159183e-06
2.510931102e-06
1.940896265e-06
1.787495534e-06
1.973673055e-06
3.116168701e-06
1.833552689e-06
2.641446902e-06
2.042663829e-06
5.646138178e-06
2.621821384e-06
6.020224436e-06
3.221956995e-06
1.485714891e-06
4.687371157e-06
4.25721855e-06
3.054179428e-06
3.494829175e-06
3.096471962e-06
1.984530721e-06
3.568440103e-06
3.233784555e-06
3.547120187e-06
3.062194399e-06
3.598367622e-06
2.736396573e-06
3.278041777e-06
4.953369405e-06
1.738766395e-06
3.885059014e-06
4.375238857e-06
2.784235463e-06
2.337672008e-06
3.848580283e-06
8.547815778e-06
4.626410238e-06
1.76865833e-06
4.700178369e-06
1.797086238e-06
4.117737182e-06
1.826442925e-06
3.516110106e-06
3.629427729e-06
2.979159223e-06
3.175398828e-06
4.241857278e-06
1.222368458e-06
4.490883973e-06
3.908262913e-06
5.735451045e-06
1.265857069e-06
3.374874422e-06
2.024913358e-06
3.251399773e-06
2.718539782e-06
4.257218554e-06
2.984994279e-06
2.026899904e-06
3.729455933e-06
2.125795164e-06
3.639568225e-06
2.65900494e-06
2.026925822e-06
1.5310972e-06
1.028105035e-06
2.662680672e-06
3.725373785e-06
1.725927645e-06
3.176088937e-06
3.733207504e-06
2.763211438e-06
3.790016072e-06
3.974417872e-06
5.576244035e-06
2.295193869e-06
3.030632561e-06
4.743132041e-06
2.8366511e-06
4.166062087e-06
3.128845466e-06
2.906159185e-06
4.352415005e-06
4.556798486e-06
4.766654757e-06
2.660078141e-06
3.722148312e-06
1.833552689e-06
3.170160526e-06
1.243732722e-06
2.59870761e-06
3.887678453e-06
2.554434127e-06
4.049826719e-06
6.595377048e-06
1.312554252e-06
5.393388487e-06
3.054179428e-06
5.452068205e-06
3.941580792e-06
4.039693666e-06
4.996159966e-06
3.522039996e-06
2.243349192e-06
1.020731466e-06
1.615340944e-06
1.553378864e-06
2.682197336e-06
2.702002216e-06
2.797462706e-06
1.599946071e-06
4.912581326e-06
3.790016074e-06
4.597671923e-06
5.104719052e-06
2.770390274e-06
2.313205117e-06
2.331501286e-06
5.673302209e-07
4.737951702e-06
6.011459869e-06
2.407674762e-06
1.758055053e-06
3.881792534e-06
3.914294886e-06
3.089856628e-06
2.423918442e-06
3.316955956e-06
1.937202473e-06
2.975695877e-289
3.226056299e-06
3.797571215e-06
3.922567065e-06
2.669304747e-06
6.687954551e-06
7.96875679e-06
3.500531652e-06
2.013057902e-06
4.962758448e-06
2.463487993e-06
5.102591243e-06
3.211080356e-06
3.090522465e-06
3.691402431e-06
3.790535685e-06
3.084315102e-06
1.627094765e-06
2.68219734e-06
2.176562678e-06
2.79746271e-06
2.666576789e-06
3.990894542e-06
2.165723471e-06
3.35116382e-06
1.64939155e-06
3.561113278e-06
5.981764453e-06
2.251371814e-06
4.780946667e-06
2.45039325e-06
5.929382839e-06
1.162463673e-06
1.758055053e-06
3.545306128e-06
3.574991068e-06
4.2915824e-06
2.510189092e-06
6.111842298e-07
2.729212308e-06
2.753062577e-06
2.598707612e-06
4.067892915e-06
2.097657358e-06
1.380521967e-06
6.037674583e-06
5.437079549e-06
4.919604461e-06
6.108358855e-06
3.494829175e-06
2.463487995e-06
4.180958111e-06
5.209544347e-06
5.246378841e-06
4.125992768e-06
3.645218652e-06
3.157498495e-06
1.109301809e-06
5.364394673e-06
2.702002216e-06
2.872823669e-06
3.809133255e-06
2.225868966e-06
5.104121187e-06
3.428835918e-06
4.005124686e-06
2.928153574e-06
1.196352892e-06
4.18028909e-06
1.134660442e-06
3.594172478e-06
1.153045761e-06
2.40767476e-06
2.344073402e-06
3.629427729e-06
2.383327379e-06
3.690719526e-06
6.059796157e-07
2.444736936e-06
1.849437084e-06
3.731198175e-06
5.108102393e-06
1.988892874e-06
3.193042687e-06
5.155131215e-06
3.43655476e-06
5.437079598e-06
3.689133619e-06
2.429840942e-06
4.123460681e-06
3.096471964e-06
2.621927844e-06
2.71146436e-06
2.65900494e-06
4.198133892e-06
2.697145705e-06
2.570262587e-06
3.845698382e-06
4.172705793e-06
3.7528813e-06
3.78079806e-06
2.742502545e-06
4.60473609e-06
2.319885721e-06
6.70232764e-06
1.884208153e-06
2.295193871e-06
4.546909574e-06
4.020030144e-06
4.132848145e-06
6.616455339e-06
4.858414108e-06
3.652885859e-06
1.924912756e-06
2.531780616e-06
1.276489636e-06
5.407765944e-06
2.423918434e-06
4.365301176e-06
3.786639506e-06
2.487465428e-06
3.31536916e-06
5.786464027e-06
2.554434105e-06
3.497174436e-06
5.294817089e-06
6.562771234e-06
3.406230654e-06
1.943872754e-06
3.425168302e-06
4.011723974e-06
3.614193206e-06
3.996927973e-06
3.162153511e-06
3.040388731e-06
3.280169957e-06
3.744734403e-06
4.289775436e-06
3.651117571e-06
4.728955872e-06
1.058696312e-06
3.733207501e-06
4.451737936e-06
3.790016074e-06
1.091163908e-06
4.476649668e-06
3.324468328e-06
6.381189239e-06
3.939900668e-06
1.134660442e-06
3.512755078e-06
2.388168547e-06
1.743695513e-06
2.427502238e-06
3.20678657e-06
3.659817033e-06
3.089856626e-06
4.934107514e-06
4.452312817e-06
2.641446915e-06
1.865599087e-06
5.197415216e-06
3.887678433e-06
3.28395854e-06
5.430348704e-06
4.737114672e-06
5.343648268e-06
2.838145708e-06
2.568211241e-06
3.00551942e-06
3.941580792e-06
5.598723927e-06
6.566136079e-06
1.14955923e-06
2.026925822e-06
3.280169957e-06
3.817917794e-06
2.662680672e-06
2.60794112e-06
5.553613454e-06
2.117392625e-06
4.342448615e-06
1.765025573e-06
1.082861735e-06
3.351163815e-06
3.455327508e-06
2.452957167e-06
3.668559324e-06
4.020030163e-06
2.350089183e-06
5.881730899e-06
5.270782947e-06
1.909190333e-06
1.255465553e-06
6.752092747e-06
1.276489646e-06
1.888130855e-06
2.682730393e-06
4.976485443e-06
2.641446893e-06
5.773862007e-06
5.108102349e-06
5.153535541e-06
3.374874422e-06
1.288782792e-06
5.945097093e-06
4.874233706e-06
4.919604461e-06
3.956930656e-06
1.467929272e-06
3.589169561e-06
3.047428303e-06
3.211080358e-06
5.103116749e-06
1.664476612e-06
4.155584382e-06
4.331970311e-06
3.106757727e-06
2.756453552e-06
3.8276858e-06
2.722101732e-06
4.951689718e-06
6.60110782e-06
2.784235469e-06
2.727909781e-06
6.204313447e-06
3.085916878e-06
1.754779001e-06
5.145716027e-06
1.782758962e-06
1.225196631e-06
4.694260066e-06
2.573169603e-06
2.344073408e-06
1.181768698e-06
4.851480686e-06
1.973673055e-06
5.540087123e-06
3.841128587e-06
3.082395141e-06
3.197864185e-06
1.882046056e-06
3.887678433e-06
4.013482954e-06
2.577565607e-06
6.687954539e-06
4.687371187e-06
3.974315699e-06
4.65045429e-06
4.123460681e-06
6.475211972e-06
5.243855688e-06
2.498079982e-06
3.59367104e-06
5.790469402e-06
1.603755729e-06
4.11242016e-06
2.292319528e-06
3.352298005e-06
5.929444003e-06
2.722101758e-06
5.560930854e-06
3.7613973e-06
3.325666318e-06
2.805581845e-06
1.177866555e-06
4.59038771e-06
2.951131913e-06
3.939900717e-06
4.700178402e-06
4.328896909e-06
1.729568642e-06
3.652885839e-06
3.013520609e-06
1.772653076e-06
1.78749554e-06
1.28726797e-06
4.414398551e-06
3.142932727e-06
3.257925888e-06
5.596797166e-06
8.423471509e-06
3.254749958e-06
7.297441558e-06
4.785957302e-06
8.266246922e-06
4.780802425e-06
4.162917558e-06
3.609332764e-06
3.005519426e-06
6.122800764e-06
2.055162943e-06
3.710696339e-06
1.581076753e-06
3.691402428e-06
2.041462915e-06
2.056210061e-06
1.627094764e-06
4.321218212e-06
2.62719769e-06
3.40217182e-06
5.027615496e-06
2.686712357e-06
3.325666342e-06
5.688835873e-06
1.099594372e-06
3.482231634e-06
2.313205114e-06
3.377057705e-06
3.403981294e-06
1.797086231e-06
3.210922487e-06
5.396581345e-06
3.682967781e-06
2.447659015e-06
4.340474833e-06
3.089856626e-06
3.288710006e-06
2.44473694e-06
3.082395141e-06
2.575997822e-06
5.197415216e-06
3.977785678e-06
3.922567038e-06
4.049826701e-06
7.338234495e-06
2.062262651e-06
5.676291364e-06
4.095300939e-06
3.494829154e-06
5.630103102e-06
3.188692737e-06
3.568440103e-06
6.684193491e-06
5.067314528e-07
2.624487182e-06
2.716629357e-06
2.736396553e-06
2.607941113e-06
4.427929867e-06
5.51956444e-06
3.96098475e-06
3.300553908e-06
5.79971428e-06
4.364655597e-06
3.533599693e-06
5.06558415e-06
6.222187901e-06
2.894344224e-06
4.700178365e-06
3.594172461e-06
2.388168525e-06
4.399612502e-06
1.255465553e-06
5.992965138e-06
3.063985161e-06
3.690719511e-06
3.722148297e-06
3.22994433e-06
4.666414763e-06
1.95413146e-06
1.882046056e-06
6.509499803e-06
1.368132945e-06
1.933174188e-06
3.34397724e-06
2.625108494e-06
4.919604506e-06
2.568211253e-06
4.053799817e-06
4.574564758e-06
2.125795173e-06
5.28067251e-06
5.246378863e-06
3.691402441e-06
4.665950144e-06
1.542157557e-06
3.106757727e-06
3.799630017e-06
2.702002239e-06
2.192753599e-06
3.275817907e-06
5.142078596e-06
3.944178338e-06
2.259999913e-06
2.199188743e-06
4.511506095e-06
5.343837668e-06
2.894344246e-06
5.673302245e-07
3.431337683e-06
1.729568642e-06
4.898096962e-06
6.694472012e-07
5.317959184e-06
6.806577999e-07
2.574535962e-06
3.808418974e-06
4.015151796e-06
7.132330915e-06
1.332265097e-06
5.108102349e-06
5.786464078e-06
4.833923291e-06
5.246870378e-06
4.086834716e-06
6.749633856e-06
6.906762337e-06
5.067237323e-06
3.494829185e-06
1.478092806e-06
2.551295632e-06
4.0680561e-06
4.168450672e-06
3.619261318e-06
4.228242869e-06
5.800944448e-06
1.627094764e-06
1.117432661e-06
1.576318614e-06
4.006880938e-06
1.599946076e-06
2.763211436e-06
4.021259464e-06
2.805581888e-06
1.649391557e-06
4.115191371e-06
4.546909599e-06
5.788688447e-06
2.998187681e-06
4.819369082e-06
4.117737186e-06
5.812318352e-07
3.599538961e-06
3.545306151e-06
3.744642986e-06
6.094171052e-06
3.722148328e-06
2.007575915e-06
1.232958056e-06
3.819730547e-06
3.853404979e-06
2.531714126e-06
3.283958512e-06
3.313696143e-06
6.037674583e-06
6.749633796e-06
3.974315662e-06
2.499026087e-06
6.080699684e-06
3.026328756e-06
4.606458551e-06
3.068824107e-06
4.168450643e-06
2.750080652e-06
2.6244872e-06
3.671551023e-06
1.553378863e-06
4.246961997e-06
2.176562678e-06
4.385507199e-06
2.666576793e-06
4.528237008e-06
3.248585192e-06
2.182327799e-06
5.576243975e-06
3.957428009e-06
5.18483638e-06
1.125685919e-06
5.186740323e-06
5.391258734e-06
5.352859968e-06
1.743695506e-06
6.696488366e-06
4.220312077e-06
2.46815334e-06
2.488993741e-06
4.500669196e-06
3.928140159e-06
4.403118524e-06
5.773861958e-06
3.942717879e-06
2.53171417e-06
4.652091526e-06
2.024913369e-06
1.950839867e-06
7.59277348e-06
4.825303495e-06
7.983046449e-06
3.005519426e-06
4.504421603e-06
5.243855673e-06
2.640336219e-06
2.730635979e-06
4.198133868e-06
2.624487182e-06
3.671551023e-06
2.588964772e-06
3.799630017e-06
3.15263725e-06
2.192753567e-06
2.742502529e-06
1.612027414e-06
5.568470946e-06
2.805581888e-06
2.827258131e-06
4.511506095e-06
2.792130563e-06
5.868817917e-06
6.321400723e-06
2.287558455e-06
4.776337087e-06
1.743695519e-06
3.51611014e-06
6.077086738e-06
3.063985161e-06
4.291582396e-06
5.106648805e-06
4.976485443e-06
5.107363028e-06
3.286396557e-06
1.971358923e-06
4.610714209e-06
4.470259684e-06
6.535653124e-06
3.994257225e-06
4.780802425e-06
6.906762337e-06
5.622390697e-06
2.026899908e-06
4.714851128e-06
3.684825441e-06
6.137648213e-06
3.665302074e-06
2.026925825e-06
5.176315844e-06
6.241813573e-06
3.698266608e-06
6.630339798e-06
6.529688034e-06
2.797462722e-06
3.809133266e-06
4.451737929e-06
3.944178308e-06
3.351163795e-06
8.010249347e-06
3.957428039e-06
3.988483451e-06
4.582873112e-06
3.40398132e-06
4.328896875e-06
3.541214305e-06
3.071654004e-06
4.855004475e-06
4.304433677e-06
6.723802219e-06
1.802588655e-06
4.328127942e-06
7.421222362e-06
2.641446893e-06
1.95413146e-06
4.570066531e-06
3.977785678e-06
4.652091485e-06
4.694218139e-06
4.644537181e-06
2.625108517e-06
2.743844741e-06
2.429840939e-06
4.12346069e-06
5.419673585e-06
3.614193194e-06
5.209544347e-06
2.515742865e-06
3.691402441e-06
7.363095812e-06
1.542157557e-06
3.327905427e-06
5.364394658e-06
5.254395379e-07
4.46086813e-06
3.809133266e-06
2.686712377e-06
5.027040076e-06
3.273491723e-06
5.33953568e-06
4.036309689e-06
2.95113189e-06
4.100159595e-06
6.482937328e-06
1.225196631e-06
7.741028511e-06
8.468235348e-06
4.771575665e-06
3.713549353e-06
5.021132633e-06
3.260941026e-06
4.328127905e-06
3.055921149e-06
1.937202486e-06
6.395728369e-06
5.108102349e-06
3.887678467e-06
5.199784182e-06
3.866348377e-06
4.55195965e-06
6.843065076e-06
4.068616629e-06
3.678517908e-06
6.150360557e-06
2.04093358e-06
3.047428314e-06
3.63956823e-06
1.72433884e-06
4.704865354e-06
2.114121464e-06
4.185603542e-06
4.289775436e-06
5.960239139e-06
2.627197728e-06
2.797462722e-06
3.73320751e-06
2.763211436e-06
3.944178338e-06
2.805581888e-06
4.005124704e-06
4.194072989e-06
4.067984146e-06
5.868818008e-06
2.917419425e-06
4.737951717e-06
2.964691448e-06
3.487391039e-06
2.427502238e-06
5.40208074e-06
4.936306599e-06
5.063529639e-06
4.328127905e-06
7.071072886e-06
4.578649324e-06
4.3530645e-06
2.688020475e-06
6.419392559e-06
2.645349985e-06
2.669304747e-06
4.644537181e-06
5.343648268e-06
4.162917558e-06
2.984994275e-06
4.053799789e-06
2.463487993e-06
2.551295632e-06
4.70992835e-06
2.515742848e-06
2.605798387e-06
2.624487182e-06
3.744734414e-06
3.327905427e-06
2.160609106e-06
4.203516303e-06
2.192753567e-06
5.409079302e-06
4.298739772e-06
5.722633155e-06
3.896745745e-06
4.161669044e-06
1.187037752e-06
6.939615341e-06
3.054603163e-06
4.78094663e-06
1.715668815e-06
4.117737153e-06
1.826442934e-06
2.427502277e-06
4.979439672e-06
4.340474833e-06
5.921019215e-06
1.904209503e-06
5.674681325e-06
6.252555683e-06
3.731198175e-06
3.404682056e-06
3.887678501e-06
5.381615946e-06
3.866348411e-06
4.644537181e-06
3.93766274e-06
6.81246137e-06
3.887745502e-06
3.494829185e-06
4.644707943e-06
2.551295614e-06
3.139952234e-06
2.587373891e-06
2.533657282e-06
2.624487182e-06
4.626472637e-06
3.698266581e-06
6.63033975e-06
5.929443981e-06
2.192753599e-06
2.666576793e-06
2.686712357e-06
2.707154327e-06
3.896745774e-06
2.827258131e-06
6.329597057e-07
4.546909564e-06
6.351531398e-06
4.29438475e-06
4.737951717e-06
2.882614403e-06
2.98890659e-06
3.013520585e-06
4.220312077e-06
3.233637093e-06
5.063529681e-06
5.106648805e-06
3.754116952e-06
1.232958046e-06
5.151995644e-06
6.092702501e-06
3.797571188e-06
2.554434127e-06
6.074740106e-06
4.922269652e-06
2.625108517e-06
3.406230685e-06
1.943872764e-06
2.935858553e-06
5.912371184e-06
4.110325872e-06
5.638032178e-06
2.587373909e-06
2.099066949e-06
3.717877166e-06
2.275760248e-06
2.662680672e-06
8.12084826e-06
4.803760387e-06
2.11739262e-06
5.333153585e-07
3.377052986e-06
6.185119953e-07
1.636745861e-06
5.104719037e-06
4.590387745e-06
7.657042781e-06
2.331501291e-06
6.402169075e-06
5.800313542e-06
2.882614403e-06
2.98890659e-06
5.524451716e-06
3.713549353e-06
2.46815334e-06
1.888130855e-06
3.894689588e-06
2.531748524e-06
3.082395141e-06
4.530129282e-06
5.018789483e-06
4.700821495e-06
3.374874422e-06
3.866348377e-06
1.950839867e-06
2.718539774e-06
4.825303539e-06
5.96998855e-06
1.048280391e-06
3.236758332e-06
4.606458551e-06
3.996927973e-06
4.599968169e-06
7.238522635e-06
2.55182868e-06
5.506442104e-06
3.698266555e-06
3.725373774e-06
3.227441761e-06
5.293481589e-06
4.875763983e-06
3.914395458e-06
2.165723461e-06
2.805581866e-06
5.182991277e-06
4.669269395e-06
5.822763161e-06
4.020030157e-06
3.484749595e-06
3.512755059e-06
3.459137284e-06
3.487391039e-06
5.607880565e-06
2.447658995e-06
4.170822892e-06
3.690719511e-06
3.20243936e-06
4.452312855e-06
3.082395115e-06
3.109331786e-06
7.166615519e-07
7.775356866e-06
5.199784136e-06
4.602478976e-06
2.135994848e-06
3.281385617e-06
4.73100253e-06
3.054179423e-06
5.521729056e-06
4.081867159e-06
2.05516295e-06
2.56920811e-06
3.736933118e-06
2.026925811e-06
2.697145682e-06
3.671550997e-06
2.071171818e-06
4.768550219e-06
3.227441738e-06
3.780798021e-06
4.494300104e-06
5.449923834e-06
3.47982862e-06
4.519999859e-06
5.026446874e-06
3.957428039e-06
3.988483451e-06
4.502743642e-06
5.509813535e-06
4.0846447e-06
3.541214305e-06
3.071654004e-06
3.68296781e-06
4.388555313e-06
5.021132633e-06
4.377124596e-06
7.097128921e-06
2.924580733e-289
4.490883962e-06
3.819730547e-06
4.570066531e-06
3.164642657e-06
3.374874392e-06
8.65230556e-06
4.737114629e-06
6.093356672e-06
2.649543775e-06
2.568211236e-06
6.080699684e-06
3.589169561e-06
4.961326819e-06