/*--------------------------------*- C++ -*----------------------------------*\
  =========                 |
  \\      /  F ield         | OpenFOAM: The Open Source CFD Toolbox
   \\    /   O peration     | Website:  https://openfoam.org
    \\  /    A nd           | Version:  7
     \\/     M anipulation  |
\*---------------------------------------------------------------------------*/
FoamFile
{
    version     2.0;
    format      ascii;
    class       volScalarField;
    location    "0.15";
    object      epsilon;
}
// * * * * * * * * * * * * * * * * * * * * * * * * * * * * * * * * * * * * * //

dimensions      [0 2 -3 0 0 0 0];

internalField   nonuniform List<scalar> 
7700
(
0.0751316
0.202001
0.333613
0.44266
0.533459
0.610439
0.676851
0.735302
0.788016
0.836913
0.883678
0.929827
0.976768
1.02585
1.07842
1.13583
1.19944
1.27059
1.35049
1.44007
1.5397
1.64888
1.76586
1.88725
2.00783
2.12058
2.21727
2.28945
2.32988
2.33392
2.30016
2.22827
2.11836
1.98823
1.8513
1.71391
1.58685
1.48169
1.40694
1.3654
1.35347
1.36173
1.3437
1.24393
1.1142
0.774651
0.135779
0.167373
0.205617
0.236235
0.260475
0.280087
0.296419
0.310499
0.323123
0.33492
0.346405
0.358021
0.370164
0.38321
0.397533
0.413513
0.431539
0.451997
0.475237
0.501517
0.530926
0.563275
0.59799
0.634004
0.669721
0.703069
0.731714
0.753439
0.766644
0.770815
0.766642
0.755868
0.741384
0.731233
0.723775
0.711663
0.69305
0.669865
0.646596
0.629357
0.623483
0.631585
0.653389
0.709657
1.10904
1.39661
0.190043
0.189533
0.204337
0.215722
0.224107
0.230493
0.235642
0.240137
0.244421
0.248828
0.253622
0.25902
0.265217
0.272402
0.280766
0.290507
0.301829
0.314924
0.329949
0.34698
0.365956
0.386612
0.408408
0.430485
0.451664
0.470526
0.485606
0.495699
0.500234
0.499618
0.495347
0.489765
0.485489
0.485377
0.490491
0.497439
0.503084
0.507149
0.513443
0.529486
0.565478
0.636279
0.769046
0.929096
1.29904
1.93023
0.230402
0.21052
0.212557
0.213699
0.213867
0.213632
0.213387
0.213428
0.213981
0.215212
0.217246
0.220192
0.224146
0.229209
0.235488
0.243098
0.25215
0.26274
0.274919
0.288654
0.303782
0.319961
0.336623
0.352957
0.367936
0.38042
0.389341
0.393978
0.394266
0.391056
0.386149
0.381957
0.380814
0.384492
0.393918
0.408326
0.427402
0.452983
0.490652
0.551077
0.652742
0.838405
1.23344
1.77457
2.00545
2.27694
0.261829
0.226012
0.219764
0.214479
0.20947
0.205063
0.201449
0.198751
0.197052
0.196404
0.196841
0.198396
0.201102
0.205002
0.210147
0.216593
0.224392
0.233569
0.244101
0.255883
0.268684
0.282117
0.295608
0.308402
0.319607
0.328304
0.333725
0.335492
0.333866
0.329936
0.325603
0.32323
0.325016
0.332648
0.347573
0.370982
0.405381
0.455995
0.532815
0.653541
0.849704
1.18273
1.70673
2.34275
2.59665
2.34366
0.287311
0.236632
0.224516
0.215046
0.206641
0.19944
0.193535
0.18896
0.185713
0.183771
0.183107
0.183698
0.185531
0.188606
0.19293
0.198516
0.205366
0.213455
0.222708
0.23297
0.243975
0.255324
0.266469
0.276737
0.285382
0.291693
0.295156
0.295651
0.293646
0.290335
0.28761
0.287757
0.292996
0.305453
0.327802
0.363638
0.418774
0.503038
0.633358
0.843032
1.17716
1.60226
1.93369
2.32869
2.695
2.16517
0.308642
0.243716
0.227124
0.214836
0.204177
0.195078
0.187575
0.181659
0.177284
0.174382
0.172883
0.172727
0.173864
0.176259
0.179888
0.184726
0.190738
0.197864
0.205992
0.21494
0.224433
0.234086
0.243409
0.251829
0.258752
0.263663
0.266258
0.266606
0.265287
0.263504
0.263069
0.266189
0.275265
0.29333
0.325038
0.377164
0.459351
0.585828
0.786188
1.09356
1.46017
1.71369
1.83183
2.10018
2.44172
1.96345
0.326979
0.248422
0.228213
0.213933
0.201745
0.191344
0.182716
0.175829
0.170611
0.16697
0.164807
0.164034
0.164578
0.166375
0.169374
0.173523
0.17876
0.184998
0.192108
0.199897
0.208103
0.216379
0.224307
0.23143
0.237303
0.241586
0.244147
0.245177
0.245299
0.245656
0.247931
0.254233
0.267256
0.29131
0.333653
0.403495
0.512463
0.679705
0.913486
1.17486
1.38218
1.50436
1.60279
1.85185
2.15005
1.77764
0.343107
0.251585
0.228336
0.212562
0.199295
0.187985
0.178558
0.170961
0.165108
0.160887
0.158184
0.156892
0.156917
0.158176
0.160596
0.164106
0.168626
0.174054
0.180253
0.187041
0.19418
0.201378
0.208303
0.214612
0.220006
0.224294
0.227478
0.229829
0.231961
0.234915
0.240202
0.249751
0.266483
0.296008
0.346955
0.429356
0.553906
0.717152
0.888264
1.03672
1.15479
1.25713
1.39444
1.66388
1.99178
1.65382
0.357577
0.253763
0.227887
0.210921
0.196855
0.184894
0.174893
0.166775
0.160438
0.155761
0.152617
0.150884
0.150455
0.151231
0.153126
0.156054
0.159925
0.164632
0.170044
0.175998
0.182295
0.188708
0.194994
0.200925
0.206333
0.211158
0.21551
0.219706
0.224326
0.230304
0.238905
0.251721
0.271641
0.305041
0.362094
0.449433
0.559485
0.674076
0.777473
0.865096
0.948121
1.05457
1.2373
1.56396
2.0803
1.76896
0.0620398
0.0853796
0.0864079
0.407688
0.467322
0.50649
0.529305
0.540546
0.543977
0.542348
0.537576
0.530935
0.523623
0.518144
0.51322
0.508394
0.503677
0.499114
0.494715
0.490467
0.486353
0.482353
0.478447
0.474603
0.47077
0.466865
0.462759
0.458266
0.453116
0.446936
0.439214
0.429256
0.41614
0.398646
0.375339
0.085861
0.0862328
0.368087
0.0843481
0.0834912
0.140521
0.14337
0.188578
0.221179
0.237431
0.245969
0.249904
0.251254
0.251234
0.250521
0.249476
0.248309
0.247266
0.246866
0.246622
0.246298
0.245867
0.245344
0.24475
0.244103
0.243414
0.242692
0.241946
0.241178
0.240389
0.239571
0.238705
0.237758
0.236672
0.235357
0.233675
0.231419
0.228279
0.223782
0.216989
0.200202
0.184016
0.165073
0.128323
0.137778
0.184924
0.176422
0.196598
0.207654
0.210368
0.208481
0.204765
0.200854
0.197502
0.194936
0.193123
0.191938
0.191282
0.19113
0.191239
0.191409
0.191548
0.191622
0.191621
0.191547
0.191408
0.191215
0.190981
0.190715
0.190429
0.190132
0.18983
0.189527
0.189217
0.188886
0.188497
0.187985
0.187227
0.18601
0.183915
0.179744
0.17336
0.164393
0.154648
0.192525
0.229592
0.206897
0.218966
0.219765
0.212611
0.202412
0.19231
0.183765
0.177191
0.172481
0.169318
0.167348
0.16626
0.165827
0.165794
0.165947
0.166158
0.166358
0.16651
0.166602
0.166634
0.166614
0.166552
0.166463
0.166362
0.166266
0.166194
0.166168
0.166209
0.166342
0.166583
0.166939
0.167393
0.167884
0.168264
0.168212
0.167549
0.166789
0.170787
0.242037
0.270651
0.243735
0.253964
0.245562
0.227767
0.208402
0.191333
0.177792
0.167743
0.160657
0.155897
0.152868
0.151079
0.150174
0.149829
0.149796
0.149915
0.150085
0.15025
0.15038
0.150467
0.150512
0.150526
0.150521
0.150516
0.150533
0.1506
0.15075
0.151023
0.151467
0.152132
0.153074
0.154344
0.155984
0.158015
0.160456
0.16351
0.168374
0.18198
0.282761
0.315786
0.293234
0.303447
0.284087
0.253084
0.222446
0.197027
0.177685
0.163705
0.153975
0.147431
0.143192
0.140576
0.139098
0.138354
0.138054
0.138001
0.138068
0.138177
0.138286
0.138375
0.138439
0.138485
0.138525
0.13858
0.138676
0.138845
0.139131
0.139584
0.14027
0.141265
0.142656
0.144544
0.147043
0.150296
0.154522
0.160241
0.169229
0.190197
0.315654
0.350442
0.360917
0.368505
0.335239
0.287764
0.243152
0.207613
0.18146
0.163021
0.150374
0.141898
0.136358
0.13285
0.130745
0.129558
0.128947
0.128681
0.128606
0.128624
0.128678
0.12874
0.128798
0.128854
0.12892
0.129017
0.129173
0.129426
0.129824
0.13043
0.13132
0.132586
0.134343
0.136726
0.139905
0.144107
0.149696
0.157434
0.169576
0.196358
0.342098
0.375931
0.458947
0.450095
0.398015
0.330582
0.269251
0.221829
0.187908
0.164548
0.148781
0.138286
0.131404
0.126985
0.124237
0.122591
0.121652
0.121153
0.120915
0.120822
0.120804
0.120823
0.12086
0.120914
0.120995
0.121123
0.121329
0.121653
0.122151
0.122889
0.123955
0.125454
0.127518
0.13031
0.134042
0.139004
0.145668
0.154982
0.169594
0.201015
0.363313
0.615156
0.614842
0.552912
0.470808
0.379061
0.298719
0.238168
0.195895
0.167393
0.148451
0.135947
0.127747
0.122441
0.119067
0.11697
0.115705
0.114969
0.114561
0.114349
0.11425
0.114216
0.114224
0.114268
0.114356
0.114509
0.114758
0.115146
0.115732
0.116589
0.11781
0.119511
0.121838
0.124975
0.129164
0.134746
0.142273
0.15284
0.169411
0.204548
0.380306
1.43202
0.850117
0.677301
0.549429
0.428846
0.328454
0.254643
0.204149
0.170699
0.148761
0.134388
0.124977
0.118849
0.114894
0.112376
0.110801
0.109838
0.109263
0.108931
0.108748
0.108658
0.108633
0.108663
0.108755
0.108928
0.109214
0.10966
0.110325
0.111288
0.112647
0.114527
0.117082
0.120512
0.125085
0.131178
0.139408
0.150982
0.169119
0.207235
0.3939
0.370787
0.255314
0.227111
0.209138
0.194444
0.181997
0.171575
0.163069
0.156363
0.151325
0.147818
0.145711
0.144885
0.145232
0.146656
0.149065
0.152363
0.156448
0.161203
0.166495
0.172173
0.178079
0.184063
0.190008
0.195866
0.201696
0.207694
0.214214
0.221805
0.231286
0.243593
0.259824
0.282578
0.319484
0.379087
0.454722
0.532853
0.603023
0.661498
0.714131
0.779513
0.891634
1.10915
1.51914
2.26102
1.66461
0.383167
0.25648
0.22615
0.207283
0.192066
0.179243
0.168507
0.159713
0.152726
0.147405
0.143604
0.141183
0.140017
0.139992
0.141005
0.142962
0.145772
0.149343
0.15358
0.158386
0.163666
0.169334
0.175334
0.181657
0.188369
0.195637
0.203741
0.213068
0.224154
0.237685
0.25421
0.27429
0.299745
0.339261
0.392056
0.445559
0.49225
0.528986
0.557756
0.588629
0.642143
0.752844
0.979695
1.42873
2.20478
1.95009
0.394824
0.257392
0.225095
0.205409
0.189741
0.176618
0.165646
0.15664
0.149445
0.143907
0.139873
0.137197
0.135749
0.135411
0.136079
0.137661
0.140076
0.143247
0.14711
0.151608
0.156705
0.162391
0.168703
0.175737
0.183671
0.192776
0.203417
0.21602
0.231132
0.249271
0.270566
0.294614
0.322285
0.360132
0.397769
0.427432
0.448053
0.460508
0.469553
0.486089
0.529073
0.629117
0.837248
1.24818
1.9485
2.23705
0.405902
0.258138
0.223994
0.203542
0.187471
0.1741
0.162948
0.153787
0.146442
0.140743
0.13653
0.133653
0.131979
0.131387
0.131778
0.133065
0.135179
0.138067
0.141695
0.146056
0.151173
0.157115
0.164011
0.172061
0.181555
0.192875
0.20647
0.222824
0.242495
0.265812
0.292552
0.320241
0.349447
0.378869
0.397052
0.404894
0.405136
0.400613
0.396833
0.403629
0.436601
0.520106
0.693577
1.02536
1.59594
2.13445
0.416508
0.258774
0.222876
0.201695
0.185253
0.17167
0.160379
0.151108
0.143657
0.137844
0.1335
0.130473
0.128624
0.127838
0.128017
0.129087
0.130994
0.13371
0.137239
0.141622
0.146947
0.153362
0.161088
0.170435
0.181806
0.195699
0.212658
0.233249
0.258028
0.287076
0.319609
0.350241
0.378784
0.393671
0.391997
0.381378
0.366372
0.350403
0.338548
0.33872
0.36272
0.428457
0.564097
0.814214
1.23912
1.75582
0.426719
0.259335
0.221753
0.199872
0.183083
0.169315
0.157915
0.148566
0.141045
0.135157
0.130725
0.127591
0.125618
0.124692
0.124724
0.125651
0.127439
0.130089
0.133643
0.138195
0.143899
0.150983
0.159766
0.170667
0.184215
0.201028
0.221759
0.247089
0.277573
0.313061
0.351492
0.385119
0.407513
0.404417
0.384669
0.359242
0.333179
0.309758
0.293026
0.288778
0.305346
0.355123
0.45712
0.639377
0.939081
1.33395
0.436593
0.259842
0.220632
0.198075
0.180959
0.167024
0.155537
0.146136
0.138574
0.132642
0.128157
0.124956
0.122904
0.12189
0.121834
0.122687
0.124438
0.127118
0.130812
0.135666
0.141903
0.149834
0.15988
0.172577
0.188585
0.208662
0.233586
0.264179
0.301004
0.343871
0.388769
0.424626
0.434205
0.412263
0.376833
0.339772
0.305863
0.277751
0.25822
0.251093
0.261858
0.298665
0.37379
0.50442
0.710669
0.983528
0.446168
0.260305
0.219516
0.196306
0.178877
0.164792
0.153233
0.143799
0.136219
0.130269
0.12576
0.122527
0.120435
0.119379
0.119289
0.120132
0.121921
0.12472
0.128656
0.133932
0.14084
0.149781
0.161279
0.175998
0.194744
0.218425
0.247985
0.284404
0.328231
0.379219
0.429884
0.46437
0.457207
0.417761
0.369307
0.323328
0.28398
0.253032
0.231995
0.223017
0.229396
0.25621
0.311049
0.403984
0.544711
0.725831
0.455472
0.260731
0.218404
0.194562
0.176838
0.162614
0.150996
0.141544
0.133962
0.128016
0.123509
0.120273
0.118175
0.117118
0.117042
0.117932
0.119826
0.122822
0.127093
0.132898
0.140603
0.150701
0.163828
0.180786
0.20254
0.230168
0.264828
0.307677
0.359263
0.41882
0.474533
0.501271
0.475636
0.421157
0.36233
0.309721
0.266715
0.234144
0.212369
0.202186
0.205271
0.22454
0.26442
0.33041
0.426374
0.545473
0.464523
0.261122
0.217294
0.192845
0.174841
0.16049
0.148823
0.139363
0.131794
0.125868
0.121382
0.118167
0.116094
0.115071
0.115051
0.116039
0.118098
0.121362
0.126049
0.13248
0.141098
0.152489
0.167415
0.186822
0.211851
0.243774
0.284006
0.333906
0.394193
0.463567
0.52295
0.534534
0.490227
0.422969
0.35597
0.298534
0.253153
0.219735
0.197652
0.186651
0.187224
0.200785
0.229664
0.276506
0.342158
0.420706
0.473332
0.261477
0.216185
0.191154
0.172885
0.158417
0.146711
0.137253
0.129706
0.123814
0.119366
0.116193
0.11417
0.113211
0.113285
0.114415
0.116692
0.120286
0.125465
0.13261
0.142245
0.15506
0.171945
0.194009
0.222581
0.259154
0.305425
0.362972
0.432855
0.512259
0.570809
0.562984
0.501418
0.423435
0.350088
0.289243
0.242416
0.208648
0.186494
0.174899
0.173506
0.182693
0.203421
0.236611
0.281664
0.33378
0.481906
0.261794
0.215075
0.189487
0.170971
0.156399
0.144661
0.135212
0.127697
0.121848
0.117452
0.114338
0.112385
0.111518
0.111718
0.113029
0.115572
0.119553
0.125291
0.133232
0.143984
0.158347
0.177349
0.202273
0.234656
0.276242
0.329016
0.394757
0.474788
0.561621
0.612775
0.585016
0.508818
0.422363
0.344376
0.281309
0.233738
0.199953
0.177859
0.16581
0.162842
0.168629
0.183247
0.206643
0.237597
0.272368
0.490248
0.262072
0.213961
0.187844
0.169099
0.154434
0.142674
0.133241
0.125765
0.119969
0.115634
0.112594
0.110729
0.109976
0.110331
0.111859
0.114709
0.11913
0.125489
0.134303
0.146268
0.162299
0.183574
0.211561
0.24802
0.294981
0.354723
0.429226
0.519721
0.610864
0.647413
0.600246
0.512356
0.41967
0.338583
0.274278
0.226505
0.192937
0.170988
0.158583
0.154338
0.157457
0.167463
0.183768
0.204994
0.228277
0.49836
0.262308
0.21284
0.186223
0.16727
0.152523
0.14075
0.13134
0.12391
0.118173
0.11391
0.110955
0.109195
0.108576
0.109111
0.110887
0.114085
0.118993
0.126034
0.135795
0.149066
0.166886
0.190589
0.221841
0.262638
0.315322
0.382484
0.466424
0.568376
0.660401
0.675211
0.610085
0.512821
0.415608
0.332605
0.267815
0.220248
0.187072
0.165335
0.152661
0.147385
0.148403
0.154914
0.166064
0.180516
0.196085
0.506244
0.262497
0.211709
0.184624
0.165481
0.150668
0.13889
0.129511
0.122132
0.116463
0.112279
0.10942
0.107778
0.107312
0.10805
0.110105
0.113688
0.11913
0.12691
0.137691
0.152362
0.172091
0.198379
0.233098
0.278491
0.337223
0.412203
0.506198
0.620005
0.707531
0.697796
0.616255
0.511059
0.410438
0.326377
0.261671
0.214624
0.181981
0.160519
0.147665
0.14157
0.140944
0.144804
0.152194
0.161895
0.172234
0.5139
0.262637
0.210565
0.183043
0.163734
0.148869
0.137096
0.127756
0.120435
0.114838
0.110743
0.107988
0.106478
0.106182
0.107146
0.109507
0.113511
0.119532
0.128109
0.139984
0.156149
0.177911
0.206944
0.245335
0.295581
0.36066
0.443764
0.548168
0.671004
0.746849
0.714296
0.618755
0.507098
0.404145
0.319789
0.255651
0.209386
0.177399
0.156283
0.143341
0.136618
0.134721
0.136581
0.141223
0.14757
0.154329
0.52133
0.262724
0.209405
0.181479
0.162027
0.147126
0.13537
0.126076
0.118821
0.113303
0.109302
0.106663
0.105296
0.105186
0.106398
0.109094
0.113554
0.120201
0.129633
0.142676
0.160432
0.184353
0.216295
0.258564
0.313926
0.385642
0.477118
0.591814
0.717965
0.775635
0.723115
0.616683
0.500627
0.396626
0.312752
0.24962
0.204365
0.17315
0.152454
0.139519
0.13234
0.12948
0.129843
0.13248
0.136448
0.140732
0.528539
0.262753
0.208224
0.179929
0.160359
0.145439
0.133713
0.124475
0.117291
0.11186
0.107962
0.105447
0.104237
0.104329
0.10581
0.108869
0.113823
0.121141
0.131489
0.145777
0.165226
0.191435
0.226451
0.272807
0.333553
0.412228
0.512427
0.637449
0.76182
0.794973
0.724554
0.610329
0.491885
0.388013
0.305282
0.243517
0.199463
0.169122
0.14892
0.136086
0.128608
0.125039
0.124293
0.125472
0.127747
0.130306
0.535538
0.262721
0.207018
0.178391
0.15873
0.143811
0.132128
0.122955
0.115852
0.110514
0.106726
0.104345
0.103305
0.103617
0.10539
0.108841
0.114325
0.122363
0.133689
0.149305
0.170552
0.199184
0.237442
0.288094
0.354487
0.440468
0.549935
0.686054
0.803619
0.807873
0.721647
0.601462
0.481731
0.37866
0.297487
0.237336
0.194627
0.165247
0.145612
0.132969
0.125326
0.121258
0.119706
0.119828
0.120895
0.122244
0.542348
0.262628
0.205784
0.176865
0.157141
0.142244
0.130619
0.121522
0.114508
0.109272
0.105602
0.103367
0.102509
0.103059
0.105147
0.109021
0.115074
0.123882
0.136251
0.15328
0.176435
0.207632
0.249306
0.304463
0.376744
0.470337
0.589654
0.737359
0.843012
0.818432
0.717494
0.591689
0.470876
0.368846
0.289455
0.231084
0.189829
0.161488
0.142487
0.130117
0.122427
0.118028
0.115902
0.115266
0.115472
0.115966
0.549006
0.262473
0.204519
0.17535
0.155596
0.140743
0.129192
0.120183
0.113267
0.10814
0.104599
0.10252
0.101859
0.102666
0.105094
0.109421
0.116085
0.125715
0.139196
0.157726
0.182905
0.216815
0.26209
0.321961
0.400339
0.501721
0.631181
0.786601
0.873274
0.825661
0.71184
0.580872
0.459286
0.358581
0.281198
0.224763
0.185061
0.157826
0.139521
0.127496
0.119856
0.115262
0.112742
0.111568
0.111161
0.111049
0.555581
0.262264
0.203226
0.173851
0.154101
0.139317
0.127856
0.118948
0.112139
0.107132
0.103729
0.101818
0.10137
0.102454
0.105246
0.110061
0.117376
0.127883
0.142544
0.162667
0.189991
0.226769
0.275838
0.340651
0.42533
0.534528
0.673605
0.828557
0.89132
0.825701
0.70211
0.567795
0.446507
0.34774
0.272699
0.218375
0.180324
0.154258
0.136701
0.125082
0.117573
0.112889
0.110111
0.108561
0.107718
0.107175
0.562195
0.262015
0.201915
0.172381
0.152669
0.137977
0.126625
0.117829
0.111138
0.10626
0.103007
0.101277
0.101059
0.10244
0.105624
0.110958
0.118967
0.130405
0.146317
0.168125
0.197713
0.237518
0.290588
0.360609
0.451882
0.569045
0.716999
0.865383
0.899483
0.817283
0.68725
0.55201
0.432435
0.33634
0.263995
0.211952
0.175635
0.150787
0.134022
0.122857
0.115542
0.110852
0.107917
0.10611
0.10496
0.104109
0.569065
0.261755
0.200616
0.170968
0.151324
0.136747
0.125518
0.116847
0.110284
0.105546
0.102453
0.100919
0.100948
0.102648
0.106251
0.112138
0.120883
0.133304
0.150537
0.174117
0.206085
0.249068
0.306348
0.381879
0.480189
0.605942
0.763326
0.899578
0.900925
0.803611
0.669261
0.53459
0.41759
0.324621
0.255198
0.205546
0.17102
0.147426
0.131484
0.120811
0.113737
0.1091
0.106084
0.104107
0.102741
0.101669
0.576555
0.261544
0.199404
0.169666
0.150107
0.135657
0.124563
0.116027
0.109602
0.105013
0.102094
0.10077
0.101064
0.103106
0.107154
0.113627
0.123148
0.136603
0.155219
0.180654
0.215106
0.261404
0.323082
0.404413
0.510288
0.645706
0.814109
0.93414
0.902281
0.790174
0.65137
0.517108
0.402659
0.312866
0.246427
0.199211
0.166507
0.14419
0.129091
0.118935
0.112135
0.107595
0.104552
0.102465
0.100948
0.0997168
0.585288
0.261567
0.198437
0.168574
0.149083
0.134756
0.123799
0.115403
0.109124
0.104695
0.101961
0.100863
0.101442
0.103848
0.108368
0.115458
0.125791
0.140324
0.160377
0.187735
0.224757
0.274478
0.340692
0.428022
0.541863
0.6881
0.867435
0.965572
0.905811
0.779136
0.634744
0.500085
0.387851
0.301166
0.237734
0.192987
0.162124
0.141095
0.12685
0.117223
0.110718
0.106303
0.103269
0.101116
0.0994925
0.098145
0.596347
0.262392
0.19803
0.167852
0.148347
0.134111
0.123279
0.115021
0.108891
0.10463
0.102095
0.10124
0.102123
0.104916
0.109933
0.117668
0.128845
0.14449
0.16602
0.195348
0.234998
0.288212
0.359031
0.452398
0.574184
0.731429
0.911729
0.981349
0.90451
0.766388
0.617161
0.48244
0.372721
0.289385
0.229109
0.186903
0.157906
0.138167
0.124773
0.115677
0.109473
0.1052
0.102197
0.100005
0.0983054
0.0968706
0.611772
0.265571
0.198737
0.167747
0.148039
0.133813
0.12307
0.114936
0.108954
0.104868
0.102544
0.10195
0.103158
0.106361
0.1119
0.120305
0.132349
0.149128
0.172153
0.203468
0.245764
0.302493
0.377936
0.477262
0.606457
0.772384
0.944241
0.984443
0.892042
0.746203
0.59524
0.462503
0.356631
0.277376
0.22059
0.181039
0.153923
0.135453
0.122884
0.114304
0.108395
0.104265
0.101303
0.0990887
0.0973318
0.095829
0.631693
0.272195
0.200995
0.168557
0.148339
0.133979
0.123259
0.115217
0.109373
0.105465
0.103364
0.103049
0.104606
0.108246
0.114334
0.123432
0.13636
0.154278
0.178789
0.212062
0.256964
0.317168
0.397227
0.502546
0.639098
0.812984
0.969319
0.973224
0.865418
0.716025
0.567415
0.439902
0.339567
0.265173
0.212199
0.175413
0.150198
0.132987
0.121219
0.113122
0.107482
0.103484
0.100562
0.0983322
0.0965287
0.09497
0.654412
0.284412
0.205346
0.170438
0.149413
0.134746
0.123943
0.115942
0.110213
0.106481
0.104617
0.104603
0.106538
0.110646
0.117313
0.12713
0.140955
0.160004
0.18596
0.22111
0.26849
0.332017
0.41659
0.52803
0.672562
0.855227
0.988863
0.952713
0.829152
0.678779
0.535758
0.415406
0.321804
0.25289
0.203991
0.17005
0.146737
0.130754
0.119755
0.112116
0.106731
0.10285
0.0999587
0.0977095
0.0958632
0.0942547
0.680279
0.306558
0.212571
0.173686
0.151373
0.136227
0.125225
0.117186
0.111537
0.107974
0.10636
0.106677
0.109027
0.113647
0.120937
0.131508
0.146248
0.166415
0.193752
0.230639
0.280258
0.346767
0.435477
0.552944
0.706572
0.89988
1.00347
0.927314
0.788915
0.638867
0.502388
0.39011
0.303868
0.240768
0.19607
0.164994
0.143553
0.128759
0.118487
0.111274
0.106118
0.102338
0.0994709
0.0972007
0.0953104
0.0936534
0.714925
0.346195
0.223232
0.178721
0.154562
0.138605
0.127228
0.119037
0.113401
0.109988
0.108638
0.109324
0.112146
0.117343
0.125322
0.136709
0.152407
0.173695
0.202349
0.240799
0.292314
0.361214
0.453145
0.575542
0.738166
0.929623
0.989171
0.889783
0.743681
0.596681
0.468108
0.364661
0.286162
0.229021
0.188543
0.160289
0.140665
0.127003
0.117411
0.110585
0.105628
0.101931
0.0990755
0.0967785
0.0948451
0.0931434
0.779283
0.390434
0.235988
0.185801
0.159471
0.142303
0.130208
0.121665
0.115921
0.1126
0.111516
0.112617
0.115985
0.121852
0.130627
0.142933
0.159677
0.182137
0.212084
0.251941
0.30497
0.375487
0.469108
0.59348
0.759454
0.921377
0.935582
0.828832
0.687307
0.549944
0.432425
0.339156
0.268879
0.217795
0.181491
0.155978
0.138089
0.125488
0.116521
0.110038
0.105249
0.101612
0.0987551
0.0964243
0.094445
0.0926991
0.810807
0.378964
0.248435
0.195315
0.166398
0.147614
0.134347
0.125196
0.119198
0.115884
0.115054
0.11662
0.120629
0.127293
0.137008
0.150392
0.168335
0.192091
0.223389
0.264592
0.318882
0.390366
0.484149
0.606934
0.76835
0.883019
0.848899
0.744972
0.618978
0.498289
0.395392
0.313797
0.252209
0.207222
0.174992
0.152098
0.135838
0.124216
0.115809
0.109622
0.104967
0.101367
0.0984937
0.0961218
0.0940942
0.0923046
0.820402
0.385369
0.25532
0.203646
0.17375
0.153741
0.139236
0.129391
0.123073
0.119709
0.119138
0.121247
0.126026
0.133654
0.144511
0.159196
0.178578
0.203865
0.23672
0.279412
0.335013
0.407416
0.500827
0.620192
0.755835
0.797908
0.745262
0.651909
0.546122
0.445236
0.358626
0.289335
0.236508
0.19747
0.169124
0.148682
0.13392
0.123179
0.115261
0.10932
0.104763
0.101178
0.0982753
0.0958555
0.0937779
0.0919453
0.825975
0.384035
0.255188
0.202032
0.174049
0.155178
0.141367
0.131653
0.125521
0.122508
0.122515
0.125442
0.131268
0.140157
0.152471
0.168789
0.189944
0.217076
0.251745
0.296051
0.352811
0.425293
0.515235
0.616778
0.692603
0.696893
0.643493
0.564253
0.477752
0.395569
0.324441
0.266818
0.22223
0.188727
0.163956
0.145745
0.132327
0.122359
0.114855
0.109108
0.104617
0.101024
0.0980811
0.0956086
0.0934801
0.0916064
0.832969
0.364756
0.246836
0.195263
0.168637
0.152277
0.140858
0.132747
0.127546
0.125328
0.126162
0.130018
0.136933
0.147081
0.1608
0.178619
0.201287
0.22981
0.265491
0.309967
0.364981
0.431515
0.506962
0.577523
0.61445
0.60311
0.554893
0.489046
0.418778
0.352346
0.294515
0.247077
0.209747
0.18114
0.15953
0.143282
0.131033
0.121722
0.114557
0.108956
0.104499
0.100883
0.0978912
0.0953639
0.0931863
0.0912753
0.84664
0.341494
0.233988
0.187291
0.162757
0.148237
0.1388
0.132573
0.129039
0.128199
0.130156
0.134985
0.142823
0.15389
0.168517
0.187167
0.210454
0.239149
0.274137
0.316247
0.365841
0.421521
0.477753
0.522229
0.53897
0.522311
0.480617
0.426681
0.369901
0.316341
0.26943
0.230448
0.19921
0.17475
0.15583
0.141251
0.129986
0.121218
0.11432
0.108823
0.104377
0.100728
0.0976838
0.0951041
0.0928824
0.0909403
0.86823
0.325226
0.22303
0.180232
0.157707
0.144759
0.136944
0.132364
0.130359
0.130817
0.133812
0.139475
0.147994
0.159605
0.174608
0.193371
0.216327
0.24393
0.27655
0.314228
0.356141
0.399682
0.439224
0.465961
0.471421
0.45382
0.419054
0.375628
0.330138
0.287067
0.248966
0.216814
0.19053
0.169468
0.152766
0.139564
0.129108
0.120778
0.114087
0.108661
0.104214
0.100528
0.0974363
0.0948116
0.0925546
0.0905904
0.8955
0.319751
0.217298
0.175696
0.154046
0.141965
0.135223
0.131874
0.131094
0.132631
0.136495
0.142812
0.151766
0.163574
0.178476
0.19672
0.218533
0.244051
0.273181
0.305361
0.339154
0.371721
0.398494
0.41385
0.413435
0.397086
0.368829
0.334348
0.298157
0.263549
0.232476
0.205756
0.183425
0.165091
0.15018
0.138095
0.128292
0.120315
0.113789
0.108418
0.103968
0.100253
0.0971259
0.0944694
0.0921902
0.0902158
0.914573
0.318557
0.215046
0.173676
0.152126
0.140212
0.133881
0.131173
0.131145
0.133407
0.137871
0.144601
0.153732
0.165424
0.179834
0.19708
0.217195
0.240051
0.265232
0.291848
0.318301
0.342091
0.359907
0.368338
0.36525
0.351036
0.328457
0.301273
0.272537
0.244648
0.219127
0.196694
0.177494
0.161334
0.147861
0.136681
0.127417
0.119735
0.113353
0.10804
0.1036
0.0998742
0.0967313
0.0940622
0.0917781
0.0898082
0.921994
0.318536
0.21473
0.173463
0.151745
0.139601
0.133182
0.130585
0.130812
0.133376
0.138088
0.144924
0.153943
0.165226
0.178834
0.194761
0.212886
0.232899
0.254208
0.275826
0.296271
0.313568
0.325451
0.329912
0.325944
0.314073
0.296179
0.274752
0.25185
0.229219
0.208054
0.189002
0.172289
0.157875
0.145577
0.135154
0.126354
0.118944
0.112713
0.107476
0.103074
0.0993666
0.0962352
0.0935779
0.0913096
0.0893613
0.919387
0.318126
0.215126
0.174236
0.15242
0.13994
0.133172
0.130323
0.130404
0.132879
0.13748
0.144103
0.152722
0.163334
0.175908
0.190337
0.206391
0.223659
0.241489
0.258941
0.274766
0.287486
0.295593
0.297912
0.293987
0.284304
0.270141
0.253156
0.234749
0.216199
0.198449
0.182083
0.167379
0.154407
0.143107
0.133353
0.124992
0.117863
0.111811
0.106689
0.102364
0.0987122
0.0956256
0.0930084
0.0907794
0.0888715
0.909106
0.316719
0.215447
0.175287
0.15358
0.14084
0.133656
0.130371
0.130048
0.132142
0.136339
0.142472
0.150444
0.160176
0.171563
0.184422
0.198458
0.213222
0.228081
0.242203
0.25459
0.26416
0.269912
0.271147
0.267667
0.259862
0.248604
0.235011
0.22005
0.204669
0.189623
0.175432
0.162401
0.150671
0.14027
0.131156
0.123245
0.116435
0.11061
0.105655
0.101455
0.0979026
0.0948978
0.0923515
0.0901864
0.0883381
0.89342
0.314206
0.21528
0.176115
0.154728
0.141869
0.134318
0.130549
0.129697
0.131232
0.134825
0.140266
0.147407
0.156115
0.166226
0.177513
0.189653
0.202199
0.214573
0.226075
0.235918
0.243316
0.24759
0.248309
0.245386
0.239114
0.230093
0.219093
0.206793
0.193908
0.181047
0.168672
0.157093
0.146491
0.136952
0.128489
0.121072
0.114636
0.109099
0.104369
0.100348
0.0969401
0.0940552
0.0916104
0.0895336
0.0877637
0.874119
0.310728
0.214475
0.176438
0.155512
0.142671
0.134847
0.130624
0.129209
0.130105
0.132981
0.137609
0.143806
0.151403
0.160205
0.169963
0.180348
0.190944
0.201243
0.210663
0.218592
0.224447
0.227755
0.228231
0.225835
0.22078
0.213484
0.204489
0.194285
0.183417
0.172381
0.161582
0.151318
0.14179
0.133114
0.125342
0.118475
0.112478
0.107294
0.102848
0.0990577
0.0958385
0.0931091
0.0907946
0.0888283
0.0871538
0.852578
0.306511
0.213042
0.176149
0.155745
0.143016
0.135008
0.130394
0.128438
0.128679
0.130796
0.134555
0.139757
0.146214
0.153716
0.162009
0.170782
0.179657
0.188197
0.195925
0.202359
0.207061
0.209686
0.210034
0.208083
0.203981
0.198027
0.190613
0.182115
0.172933
0.163476
0.154096
0.145067
0.136592
0.128801
0.121765
0.115506
0.110011
0.105238
0.101129
0.0976146
0.0946217
0.0920786
0.0899185
0.0880815
0.0865165
0.829804
0.30179
0.211082
0.175269
0.15538
0.142806
0.13468
0.129736
0.127285
0.126895
0.12826
0.131146
0.135351
0.140681
0.146924
0.153837
0.161132
0.168477
0.1755
0.181812
0.187031
0.190818
0.192916
0.193175
0.191576
0.188225
0.183337
0.177199
0.170134
0.162408
0.15436
0.146288
0.138442
0.13101
0.124123
0.11786
0.112256
0.10731
0.102994
0.0992629
0.0960592
0.0933214
0.0909879
0.0890007
0.0873071
0.085862
0.806487
0.296775
0.208735
0.173897
0.15447
0.142052
0.133843
0.128619
0.125724
0.124746
0.125394
0.127441
0.130685
0.134936
0.139991
0.145622
0.151571
0.157551
0.16325
0.168351
0.172548
0.175577
0.177238
0.177416
0.176093
0.173346
0.169331
0.164267
0.158413
0.151966
0.145192
0.13834
0.131625
0.125216
0.119237
0.113765
0.108841
0.104471
0.100639
0.0973103
0.0944388
0.0919742
0.0898649
0.0880619
0.0865205
0.0852016
0.783109
0.291636
0.206142
0.172161
0.153123
0.140834
0.132554
0.127085
0.123793
0.122281
0.122267
0.123531
0.12588
0.129129
0.133088
0.13755
0.142289
0.147059
0.151601
0.155655
0.158978
0.161362
0.162649
0.16275
0.161647
0.159393
0.156107
0.151956
0.147134
0.141829
0.136211
0.130489
0.124842
0.119416
0.114322
0.109632
0.105386
0.101597
0.098255
0.0953354
0.092803
0.0906177
0.0887379
0.0871234
0.0857372
0.0845466
0.760034
0.286503
0.203427
0.170192
0.151465
0.139269
0.130914
0.125226
0.12158
0.119589
0.11898
0.119537
0.121076
0.123421
0.126396
0.129818
0.133488
0.137199
0.140736
0.143891
0.146468
0.148302
0.14927
0.1493
0.148375
0.146535
0.143866
0.140494
0.136572
0.132262
0.127678
0.122982
0.118319
0.113812
0.109553
0.105607
0.102012
0.098784
0.0959182
0.0933982
0.0911982
0.0892875
0.0876337
0.0862052
0.0849722
0.083908
0.737559
0.281473
0.200687
0.168104
0.14962
0.13748
0.129045
0.123156
0.119198
0.116786
0.115653
0.115589
0.116416
0.117968
0.120085
0.122603
0.12535
0.128153
0.130836
0.133229
0.135178
0.136551
0.137252
0.137222
0.136448
0.134956
0.132811
0.130107
0.12696
0.123494
0.11982
0.116034
0.112252
0.108574
0.105076
0.101814
0.0988218
0.0961149
0.0936944
0.0915501
0.089664
0.0880137
0.0865753
0.0853244
0.0842381
0.0832952
0.715925
0.276615
0.197996
0.16599
0.147697
0.135582
0.127063
0.120993
0.116761
0.113987
0.112405
0.111809
0.112027
0.112904
0.114293
0.116046
0.118019
0.120063
0.122035
0.123798
0.125229
0.126225
0.126709
0.126636
0.125991
0.124793
0.123088
0.120948
0.118457
0.115709
0.112803
0.109798
0.106781
0.103828