/*--------------------------------*- C++ -*----------------------------------*\
  =========                 |
  \\      /  F ield         | OpenFOAM: The Open Source CFD Toolbox
   \\    /   O peration     | Website:  https://openfoam.org
    \\  /    A nd           | Version:  7
     \\/     M anipulation  |
\*---------------------------------------------------------------------------*/
FoamFile
{
    version     2.0;
    format      ascii;
    class       volScalarField;
    location    "0.15";
    object      nut;
}
// * * * * * * * * * * * * * * * * * * * * * * * * * * * * * * * * * * * * * //

dimensions      [0 2 -1 0 0 0 0];

internalField   nonuniform List<scalar> 
7700
(
4.75504e-05
5.63378e-05
6.69402e-05
7.3728e-05
7.85967e-05
8.23369e-05
8.53449e-05
8.78551e-05
9.00232e-05
9.19599e-05
9.3748e-05
9.54524e-05
9.71256e-05
9.88119e-05
0.000100549
0.000102371
0.000104304
0.000106371
0.000108586
0.000110951
0.000113455
0.000116071
0.000118749
0.00012142
0.000123993
0.000126362
0.00012841
0.000130023
0.0001311
0.000131566
0.000131389
0.000130575
0.000129056
0.000126693
0.000124025
0.000121034
0.000117845
0.000114719
0.000112008
0.000110034
0.000108953
0.000108638
0.000109272
0.000108608
0.000106351
9.80974e-05
7.11382e-05
0.000288306
0.000436162
0.000542147
0.000621413
0.000682626
0.000731218
0.000770832
0.000804042
0.00083274
0.000858367
0.000882052
0.000904699
0.000927037
0.000949646
0.000972956
0.000997231
0.00102253
0.0010487
0.00107527
0.00110152
0.00112641
0.00114862
0.00116665
0.00117885
0.00118358
0.00117937
0.00116516
0.00114055
0.00110609
0.0010634
0.00101475
0.000960735
0.000889765
0.000812517
0.000747663
0.000704333
0.000685411
0.000689413
0.00071094
0.000741155
0.000767101
0.000762529
0.000666184
0.000472863
0.000166
7.98897e-05
0.000392933
0.000662416
0.000885762
0.00107235
0.0012294
0.00136273
0.00147713
0.00157664
0.00166462
0.00174394
0.00181705
0.00188602
0.00195257
0.0020181
0.00208364
0.00214975
0.00221652
0.00228346
0.00234944
0.0024127
0.00247091
0.00252123
0.00256047
0.00258531
0.00259252
0.00257938
0.00254403
0.0024861
0.00240718
0.00231097
0.00220259
0.00208618
0.00196119
0.00182992
0.00171239
0.00162535
0.0015765
0.00156257
0.00156887
0.001572
0.00154799
0.00147825
0.00126963
0.000824711
0.000190891
8.5355e-05
0.000451235
0.000799839
0.0011113
0.00138837
0.00163398
0.00185142
0.00204426
0.00221615
0.00237062
0.00251104
0.00264049
0.00276176
0.00287728
0.00298905
0.00309853
0.00320657
0.00331328
0.00341798
0.00351915
0.00361444
0.00370077
0.00377444
0.00383133
0.00386719
0.00387794
0.00386013
0.00381153
0.00373182
0.00362314
0.00349039
0.00334034
0.00317972
0.00301317
0.00284565
0.00269509
0.00257626
0.00249207
0.00243057
0.00236759
0.00227528
0.00213699
0.00197844
0.00174273
0.00112946
0.000213937
8.92042e-05
0.000491788
0.000897427
0.00127528
0.00162451
0.00194486
0.00223689
0.00250218
0.00274305
0.00296234
0.00316311
0.00334849
0.0035215
0.00368489
0.00384101
0.00399162
0.00413778
0.0042797
0.0044167
0.00454713
0.00466846
0.00477733
0.00486973
0.0049412
0.00498712
0.00500309
0.00498543
0.00493178
0.00484181
0.00471782
0.00456494
0.0043904
0.00420194
0.0040063
0.00381025
0.00362862
0.00346852
0.00332448
0.00318047
0.00301759
0.00282245
0.00259478
0.00233265
0.00198486
0.00128971
0.000231979
9.21205e-05
0.000523024
0.000974065
0.00140444
0.00181167
0.00219395
0.0025499
0.00287923
0.0031827
0.00346198
0.00371938
0.00395762
0.00417956
0.00438798
0.00458535
0.00477361
0.00495399
0.00512685
0.00529163
0.00544678
0.00558982
0.00571743
0.00582561
0.00590991
0.00596571
0.00598866
0.0059751
0.00592268
0.00583096
0.00570188
0.00553989
0.0053513
0.00514309
0.00492174
0.00469334
0.00446891
0.0042489
0.00402515
0.00378768
0.00353743
0.00328024
0.00297572
0.00253685
0.00200664
0.00127189
0.000236091
9.44427e-05
0.000548252
0.0010375
0.00151119
0.00196596
0.00239955
0.00280956
0.00319429
0.00355307
0.00388632
0.00419535
0.0044822
0.00474932
0.00499929
0.00523454
0.00545707
0.00566824
0.00586861
0.00605778
0.00623441
0.00639621
0.00654004
0.00666213
0.0067582
0.00682389
0.00685503
0.00684816
0.00680097
0.00671272
0.00658458
0.00641954
0.00622182
0.00599587
0.00574636
0.00547777
0.00519929
0.00491114
0.00460695
0.00429413
0.00398524
0.00364122
0.00316364
0.00254703
0.00190513
0.0011219
0.000228244
9.63631e-05
0.000569176
0.00109137
0.00160166
0.00209603
0.00257234
0.00302783
0.00345988
0.0038667
0.00424751
0.00460264
0.00493331
0.00524139
0.00552914
0.00579882
0.00605243
0.0062914
0.00651644
0.00672736
0.00692303
0.0071014
0.0072596
0.00739411
0.00750095
0.00757605
0.00761557
0.0076163
0.00757596
0.0074935
0.00736915
0.00720424
0.00700003
0.00675719
0.00647789
0.00616761
0.00583612
0.00548205
0.00511214
0.00472685
0.00429548
0.0037656
0.00313442
0.00245568
0.00177915
0.000985807
0.000219263
9.80003e-05
0.000586856
0.00113773
0.00167929
0.00220696
0.00271902
0.00321265
0.00368476
0.00413271
0.00455478
0.00495033
0.00531978
0.00566442
0.00598604
0.0062867
0.0065683
0.0068323
0.00707951
0.00730991
0.00752256
0.00771562
0.00788644
0.00803176
0.00814789
0.0082311
0.00827789
0.00828538
0.0082515
0.0081751
0.00805589
0.00789379
0.00768689
0.00743128
0.00712708
0.00678193
0.00640182
0.00599025
0.00553794
0.0050127
0.0044027
0.00373572
0.00304975
0.00237841
0.00171297
0.000957785
0.000209305
9.94316e-05
0.000602033
0.00117798
0.00174634
0.00230217
0.00284417
0.00336971
0.00387547
0.00435824
0.00481555
0.00524597
0.00564919
0.0060259
0.00637745
0.00670562
0.00701216
0.00729851
0.00756552
0.00781325
0.00804087
0.00824668
0.00842817
0.00858226
0.00870553
0.00879457
0.00884632
0.00885844
0.00882943
0.00875865
0.00864611
0.00849091
0.008288
0.00802829
0.0077094
0.00734211
0.00692527
0.00643695
0.00585294
0.00517651
0.0044425
0.00370417
0.00300795
0.0023734
0.00175724
0.00106871
0.000201102
0.000209155
0.000290742
0.000303265
7.183e-05
7.52322e-05
7.73456e-05
7.85249e-05
7.9092e-05
7.92625e-05
7.91793e-05
7.89369e-05
7.85959e-05
7.82026e-05
7.7884e-05
7.76156e-05
7.73539e-05
7.70965e-05
7.68457e-05
7.66025e-05
7.63664e-05
7.61367e-05
7.59122e-05
7.56916e-05
7.5473e-05
7.52533e-05
7.50275e-05
7.4788e-05
7.45236e-05
7.42182e-05
7.38493e-05
7.33855e-05
7.27832e-05
7.19821e-05
7.08975e-05
6.94382e-05
0.000302693
0.0003005
6.74963e-05
0.000285732
0.000102154
7.77962e-05
0.000341922
0.000456152
0.000531024
0.000587467
0.000622991
0.000644009
0.000655533
0.000660996
0.000662666
0.000662016
0.000659945
0.000656687
0.000651362
0.000645927
0.000641246
0.000637442
0.000634441
0.000632126
0.000630378
0.00062909
0.000628169
0.000627523
0.000627052
0.000626631
0.000626099
0.000625243
0.000623786
0.000621369
0.000617527
0.000611669
0.000603043
0.000590693
0.000573409
0.000550022
0.000534801
0.00049309
0.000425065
0.000352411
7.70887e-05
8.50002e-05
0.000453649
0.000709701
0.000896495
0.00103721
0.00114112
0.00121564
0.00126702
0.00130051
0.00132052
0.00133068
0.00133384
0.00133193
0.00132576
0.00131749
0.00130911
0.00130148
0.00129492
0.00128944
0.00128496
0.00128132
0.00127835
0.00127585
0.00127356
0.00127117
0.00126827
0.00126432
0.00125859
0.00125016
0.00123785
0.00122015
0.00119518
0.00116065
0.00111371
0.00105102
0.000970495
0.000860994
0.000707464
0.000474981
8.62515e-05
9.16009e-05
0.00054125
0.000868797
0.00112805
0.00134393
0.00152218
0.00166498
0.00177457
0.00185427
0.00190847
0.00194214
0.00196017
0.00196681
0.00196487
0.00195766
0.00194835
0.00193875
0.0019298
0.00192188
0.00191508
0.00190929
0.00190429
0.00189978
0.00189535
0.00189046
0.00188441
0.00187626
0.0018648
0.00184844
0.00182518
0.00179255
0.00174749
0.00168635
0.00160474
0.00149738
0.00135789
0.00117535
0.00093024
0.000581829
9.32685e-05
9.73703e-05
0.000594187
0.000952105
0.00125737
0.00153604
0.00178741
0.00200557
0.00218534
0.00232492
0.00242643
0.00249493
0.00253697
0.00255922
0.00256635
0.00256385
0.0025563
0.00254664
0.00253664
0.00252719
0.00251867
0.00251109
0.00250424
0.00249772
0.00249097
0.00248321
0.00247339
0.00246014
0.0024417
0.00241579
0.00237957
0.00232956
0.00226161
0.00217082
0.00205148
0.00189685
0.0016986
0.00144464
0.00111428
0.00066747
9.84003e-05
0.000102985
0.000599453
0.000966648
0.00130456
0.001637
0.00195812
0.00225444
0.00251198
0.00272158
0.00288097
0.00299395
0.00306806
0.0031122
0.00313305
0.00313873
0.0031355
0.00312765
0.00311791
0.00310785
0.00309821
0.00308921
0.00308068
0.00307215
0.00306289
0.00305184
0.00303762
0.00301838
0.00299176
0.00295477
0.00290373
0.00283422
0.00274106
0.00261827
0.00245912
0.00225587
0.00199928
0.00167675
0.00126789
0.00073545
0.000102225
0.00010646
0.000562634
0.000928142
0.00129426
0.00167337
0.0020581
0.00243054
0.00276845
0.00305396
0.00327859
0.00344345
0.00355617
0.00362729
0.00366607
0.00368308
0.00368652
0.00368221
0.00367399
0.00366419
0.00365402
0.00364395
0.00363389
0.00362331
0.0036113
0.00359656
0.00357729
0.00355117
0.00351522
0.00346575
0.00339825
0.00330743
0.00318719
0.00303071
0.00283051
0.00257832
0.00226463
0.0018771
0.00139654
0.000789653
0.000105133
0.000108069
0.000505
0.000869936
0.00126176
0.00167886
0.00211666
0.00255724
0.00297205
0.00333403
0.00362707
0.00384808
0.00400383
0.0041056
0.00416549
0.0041964
0.00420852
0.00420928
0.00420372
0.00419498
0.00418482
0.00417399
0.00416251
0.00414982
0.00413485
0.00411598
0.00409105
0.00405722
0.00401091
0.00394771
0.00386237
0.0037488
0.00360016
0.00340897
0.00316731
0.00286675
0.00249805
0.00204972
0.00150435
0.000833111
0.000107378
0.000127049
0.00047012
0.000844687
0.00125233
0.00169215
0.00216671
0.00266137
0.00314329
0.0035765
0.0039362
0.00421382
0.00441434
0.00454838
0.00463131
0.00467788
0.00470018
0.00470722
0.00470524
0.00469825
0.00468856
0.00467724
0.00466445
0.00464959
0.00463141
0.00460803
0.00457687
0.0045346
0.00447703
0.0043991
0.00429487
0.00415756
0.00397973
0.00375348
0.00347071
0.00312319
0.00270233
0.00219787
0.00159454
0.000868076
0.000109128
0.000176221
0.000540121
0.000915457
0.00131251
0.00174958
0.00223905
0.00276922
0.00330358
0.00379759
0.00421738
0.00454802
0.0047912
0.00495752
0.00506396
0.00512697
0.00516029
0.0051744
0.00517667
0.00517194
0.00516308
0.00515149
0.00513745
0.00512033
0.00509874
0.0050705
0.00503263
0.0049813
0.00491178
0.0048184
0.00469457
0.00453298
0.00432575
0.00406475
0.00374194
0.00334957
0.00287996
0.00232436
0.00166976
0.000896235
0.000110504
0.00010071
0.000615302
0.00121332
0.00180485
0.00238467
0.00295195
0.00350432
0.00403836
0.00455052
0.00503777
0.00549805
0.00593042
0.00633502
0.0067128
0.00706522
0.00739385
0.00770005
0.00798461
0.00824759
0.00848817
0.00870464
0.00889455
0.00905492
0.00918254
0.00927441
0.00932813
0.0093423
0.00931663
0.00925183
0.00914916
0.00900732
0.00881795
0.00856623
0.00824965
0.00787475
0.00740676
0.00681663
0.00610847
0.00531812
0.0045025
0.00372584
0.00303647
0.00244432
0.00189509
0.00128816
0.000300424
0.000101884
0.000627152
0.00124481
0.00185646
0.0024568
0.00304544
0.00362028
0.00417794
0.00471465
0.005227
0.00571245
0.00616958
0.00659804
0.00699841
0.00737185
0.00771973
0.00804324
0.00834305
0.00861909
0.0088704
0.00909518
0.0092909
0.00945461
0.00958337
0.00967478
0.00972748
0.00974165
0.00971896
0.00966242
0.00957504
0.00945513
0.00929137
0.00906132
0.00876437
0.00837343
0.00783713
0.00715084
0.00634634
0.0054771
0.00461026
0.00381316
0.00313135
0.00256723
0.00207076
0.00151862
0.000579097
0.000102969
0.000637837
0.00127299
0.00190209
0.00251989
0.00312644
0.00371992
0.00429703
0.0048539
0.00538687
0.00589309
0.00637072
0.00681908
0.00723842
0.00762962
0.00799383
0.008332
0.0086446
0.00893131
0.00919093
0.0094214
0.00962005
0.00978399
0.0099107
0.00999872
0.0100483
0.0100619
0.0100438
0.00999994
0.00993497
0.00984635
0.00971855
0.00952031
0.00924273
0.00881895
0.00821549
0.00745502
0.00658525
0.00566852
0.0047743
0.00396621
0.00328332
0.00272275
0.00224076
0.00173213
0.000974289
0.000103984
0.000647609
0.00129845
0.00194275
0.00257544
0.003197
0.00380585
0.00439881
0.00497201
0.00552165
0.00604463
0.00653891
0.00700349
0.00743839
0.00784425
0.00822194
0.00857217
0.0088951
0.00919007
0.0094555
0.00968901
0.00988778
0.0100491
0.0101711
0.0102538
0.0102997
0.0103141
0.0103044
0.0102793
0.0102444
0.0101965
0.0101107
0.00994879
0.00967224
0.00920442
0.00854649
0.00773802
0.00683382
0.00589814
0.00499655
0.00418383
0.00349077
0.00291326
0.00241446
0.00193139
0.00135339
0.00010494
0.000656675
0.00132172
0.00197936
0.0026248
0.00325891
0.00388038
0.00448616
0.0050724
0.00563526
0.00617154
0.00667901
0.00715652
0.00760387
0.0080215
0.00841003
0.00876986
0.00910077
0.00940166
0.0096705
0.00990458
0.010101
0.0102574
0.0103731
0.0104501
0.0104935
0.010512
0.010516
0.0105162
0.010518
0.0105166
0.0104718
0.0103413
0.0100427
0.0095305
0.00883603
0.00800612
0.00709609
0.00616686
0.00527554
0.00446526
0.00375843
0.00315313
0.00262378
0.0021421
0.00168133
0.000105846
0.000665202
0.00134323
0.00201269
0.00266912
0.00331378
0.00394558
0.00456164
0.00515816
0.00573134
0.00627791
0.0067956
0.00728316
0.00774023
0.00816708
0.00856407
0.00893125
0.00926797
0.00957263
0.00984274
0.0100753
0.0102674
0.0104175
0.0105264
0.0105986
0.0106425
0.0106697
0.0106933
0.010725
0.010769
0.0108151
0.010809
0.0106876
0.0103504
0.00980181
0.00909034
0.0082632
0.00737218
0.006471
0.00560568
0.00480695
0.00408972
0.00345582
0.00289464
0.00240116
0.00199767
0.00010671
0.000673326
0.00136335
0.00204341
0.00270941
0.00336297
0.00400325
0.0046275
0.00523204
0.0058131
0.00636749
0.00689291
0.00738806
0.00785253
0.0082864
0.00868979
0.00906237
0.009403
0.00970957
0.00997912
0.0102084
0.010395
0.0105382
0.0106412
0.010711
0.0107592
0.0108003
0.0108492
0.0109178
0.0110087
0.0111042
0.0111305
0.0109862
0.0106022
0.010027
0.00931526
0.0085107
0.00765848
0.00680247
0.00597658
0.0052
0.00448156
0.00382682
0.00323972
0.00273231
0.002348
0.000107536
0.000681153
0.00138239
0.00207208
0.00274651
0.00340767
0.00405492
0.00468569
0.0052964
0.00588342
0.00644359
0.0069747
0.00747547
0.00794542
0.00838449
0.00879255
0.00916888
0.00951183
0.00981876
0.0100863
0.0103112
0.0104916
0.0106284
0.010727
0.0107976
0.0108547
0.0109148
0.0109941
0.0111032
0.0112433
0.0113816
0.0114239
0.0112356
0.0108062
0.0102143
0.00951536
0.00874803
0.00794874
0.00715007
0.00637408
0.00563037
0.00492329
0.00426129
0.00365938
0.00314251
0.00276004
0.000108327
0.00068877
0.00140058
0.00209914
0.00278112
0.00344884
0.0041019
0.00473786
0.00535331
0.00594473
0.00650911
0.0070443
0.0075491
0.00802301
0.00846584
0.00887719
0.00925592
0.00959988
0.0099059
0.0101704
0.0103902
0.0105644
0.0106958
0.0107924
0.0108674
0.0109379
0.0110219
0.0111357
0.0112877
0.0114752
0.011647
0.0116788
0.0114363
0.0109691
0.0103704
0.00969411
0.00897364
0.00823586
0.00750182
0.00678292
0.00608144
0.00539896
0.00474581
0.00414386
0.00362613
0.00324159
0.000109087
0.000696243
0.00141813
0.00212496
0.00281381
0.00348731
0.00414526
0.0047854
0.00540448
0.00599913
0.00656649
0.00710455
0.00761218
0.0080889
0.00853437
0.00894791
0.00932797
0.00967187
0.00997602
0.0102366
0.010451
0.0106195
0.010747
0.0108443
0.0109274
0.0110155
0.0111276
0.0112794
0.0114772
0.0117141
0.0119091
0.0118984
0.0115974
0.0111
0.0105018
0.00985457
0.009186
0.00851346
0.00784709
0.00718924
0.00653718
0.00589106
0.00526232
0.00467599
0.00416841
0.00378514
0.000109818
0.000703627
0.0014352
0.00214986
0.00284505
0.00352372
0.00418589
0.00482946
0.00545136
0.00604837
0.00661782
0.00715785
0.00766744
0.0081461
0.00859337
0.00900827
0.0093888
0.00973181
0.0100333
0.0102895
0.0104984
0.0106619
0.0107874
0.0108882
0.0109829
0.0110923
0.0112358
0.0114278
0.0116736
0.0119597
0.0121597
0.0120863
0.0117283
0.0112066
0.0106141
0.00999921
0.00938402
0.00877675
0.00817776
0.00758223
0.0069842
0.0063835
0.00579205
0.00523533
0.00474919
0.0043743
0.00011052
0.000710969
0.00145192
0.00217406
0.00287523
0.00355864
0.00422453
0.00487099
0.00549511
0.00609388
0.0066648
0.00720619
0.00771713
0.00819714
0.0086456
0.00906121
0.00944152
0.00978291
0.0100811
0.0103325
0.0105362
0.0106957
0.0108209
0.010928
0.0110376
0.0111714
0.0113487
0.0115819
0.0118747
0.0121968
0.0123793
0.0122393
0.0118325
0.0112931
0.0107106
0.0101298
0.0095671
0.0090226
0.00848842
0.00795429
0.00741245
0.00686302
0.006318
0.00580166
0.00534688
0.0049889
0.000111196
0.000718307
0.0014684
0.00219779
0.00290466
0.00359251
0.00426179
0.00491077
0.00553673
0.00613685
0.00670884
0.0072512
0.0077631
0.00824405
0.00869325
0.00910907
0.00948858
0.00982773
0.0101221
0.0103685
0.0105672
0.0107238
0.0108507
0.0109667
0.0110939
0.0112547
0.0114673
0.0117416
0.0120776
0.0124189
0.0125609
0.0123562
0.0119114
0.0113622
0.0107937
0.0102475
0.00973506
0.00924934
0.00877593
0.00830063
0.0078149
0.00731948
0.00682615
0.00635704
0.00594103
0.0056078
0.000111846
0.000725675
0.00148473
0.0022212
0.0029336
0.0036257
0.00429816
0.00494944
0.00557701
0.00617825
0.0067511
0.0072942
0.00780685
0.00828848
0.0087381
0.00915368
0.00953186
0.00986821
0.0101583
0.0103996
0.0105937
0.0107484
0.0108789
0.011006
0.0111532
0.0113429
0.011592
0.0119079
0.0122864
0.012631
0.0127079
0.0124429
0.0119693
0.0114166
0.0108652
0.0103534
0.00988804
0.00945633
0.00903877
0.00861856
0.00818699
0.0077455
0.00730554
0.00688677
0.00651373
0.00621081
0.000112472
0.000733106
0.00150101
0.00224446
0.00296229
0.00365854
0.00433407
0.00498755
0.00561662
0.00621891
0.00679253
0.0073363
0.00784958
0.00833173
0.00878151
0.00919648
0.00957281
0.00990579
0.0101911
0.0104271
0.0106171
0.0107712
0.010907
0.0110472
0.0112163
0.0114362
0.0117224
0.0120804
0.0125015
0.0128312
0.01283
0.012509
0.0120118
0.0114593
0.0109266
0.0104482
0.0100264
0.00964362
0.00927657
0.00890685
0.00852599
0.00813612
0.00774824
0.00737958
0.00705055
0.00678077
0.000113073
0.00074063
0.00151731
0.00226771
0.00299094
0.00369131
0.00436991
0.00502557
0.00565617
0.00625952
0.00683394
0.0073784
0.0078923
0.00837487
0.00882457
0.00923853
0.0096125
0.00994154
0.0102217
0.0104523
0.0106387
0.0107933
0.010936
0.0110911
0.0112834
0.0115341
0.0118569
0.0122564
0.0127109
0.0130061
0.0129288
0.0125578
0.0120412
0.0114916
0.0109787
0.0105325
0.0101506
0.00981169
0.00948967
0.0091653
0.00883064
0.00848841
0.00814907
0.00782767
0.00754094
0.00730435
0.000113652
0.000748286
0.00153372
0.00229109
0.00301976
0.0037243
0.00440601
0.00506394
0.00569616
0.00630068
0.00687602
0.00742127
0.00793581
0.00841871
0.00886811
0.00928065
0.0096517
0.00997621
0.0102508
0.010476
0.0106592
0.0108155
0.0109666
0.0111381
0.0113546
0.011636
0.0119936
0.0124303
0.0128976
0.013142
0.0129979
0.0125867
0.0120569
0.0115139
0.011022
0.0106066
0.0102613
0.0099613
0.00967886
0.00939446
0.00910079
0.00880107
0.00850527
0.00822646
0.00797828
0.00777267
0.00011421
0.000756116
0.00155036
0.00231477
0.00304896
0.00375777
0.00444274
0.00510309
0.00573709
0.00634297
0.0069194
0.00746557
0.0079808
0.00846397
0.00891278
0.00932345
0.00969096
0.0100103
0.0102789
0.0104988
0.0106794
0.0108383
0.0109992
0.0111883
0.0114297
0.0117413
0.0121318
0.0126002
0.0130607
0.0132387
0.0130352
0.0125948
0.0120589
0.0115264
0.0110567
0.0106709
0.010359
0.0100934
0.00984528
0.00959538
0.00933715
0.00907425
0.00881611
0.00857419
0.00835952
0.00818118
0.000114749
0.000764177
0.00156733
0.00233892
0.00307878
0.00379204
0.00448044
0.00514342
0.00577944
0.00638691
0.00696466
0.00751191
0.00802789
0.00851119
0.0089591
0.00936736
0.00973069
0.0100443
0.0103065
0.010521
0.0106997
0.0108623
0.011034
0.0112416
0.0115083
0.0118502
0.0122727
0.0127705
0.0132064
0.0133042
0.013048
0.0125859
0.0120491
0.01153
0.0110833
0.010726
0.0104445
0.010209
0.00999026
0.00976953
0.00954115
0.00930917
0.00908257
0.00887143
0.0086847
0.00852917
0.000115273
0.000772537
0.00158478
0.00236374
0.00310948
0.00382741
0.0045195
0.00518538
0.00582371
0.00643305
0.00701236
0.00756085
0.0080776
0.00856087
0.00900748
0.00941274
0.00977119
0.0100784
0.0103338
0.0105432
0.0107205
0.0108876
0.0110711
0.0112978
0.01159
0.0119619
0.012417
0.0129445
0.0133413
0.0133537
0.0130477
0.0125663
0.0120305
0.0115261
0.0111027
0.0107726
0.0105186
0.0103094
0.0101153
0.00991868
0.00971473
0.00950795
0.00930692
0.00912057
0.00895623
0.0088189
0.000115787
0.000781285
0.00160289
0.00238948
0.00314136
0.00386426
0.00456035
0.00522946
0.00587042
0.00648194
0.00706305
0.00761292
0.00813042
0.00861341
0.00905824
0.00945984
0.00981269
0.010113
0.0103614
0.0105657
0.0107422
0.0109146
0.0111105
0.0113565
0.0116737
0.0120747
0.0125628
0.0131113
0.0134543
0.0133905
0.013038
0.0125383
0.0120044
0.0115156
0.0111156
0.0108115
0.0105825
0.0103958
0.0102221
0.0100448
0.00986023
0.00967333
0.00949235
0.00932529
0.00917821
0.00905475
0.0001163
0.000790549
0.00162185
0.00241641
0.00317477
0.00390298
0.00460345
0.00527618
0.00592014
0.00653417
0.00711732
0.00766867
0.0081868
0.00866917
0.00911167
0.00950888
0.00985539
0.0101482
0.0103894
0.0105889
0.0107652
0.0109436
0.0111521
0.011417
0.011758
0.0121857
0.0127025
0.0132491
0.0135289
0.0134035
0.0130129
0.0124995
0.0119704
0.0114989
0.0111226
0.0108433
0.010637
0.0104695
0.0103122
0.0101499
0.00998024
0.00980846
0.00964264
0.00949007
0.00935578
0.00924242
0.000116829
0.000800527
0.00164194
0.00244484
0.00321008
0.00394405
0.00464934
0.00532612
0.00597348
0.00659034
0.00717574
0.00772859
0.00824717
0.00872849
0.00916799
0.00956005
0.00989954
0.0101843
0.0104183
0.0106133
0.01079
0.0109748
0.0111961
0.0114792
0.0118421
0.0122928
0.0128306
0.0133558
0.0135642
0.0133847
0.0129666
0.0124471
0.0119276
0.011476
0.0111242
0.010869
0.0106832
0.0105318
0.0103874
0.0102364
0.0100775
0.00991672
0.00976192
0.00961978
0.00949458
0.00938822
0.000117398
0.000811535
0.00166343
0.00247506
0.00324768
0.00398794
0.0046986
0.00537992
0.00603111
0.00665112
0.00723891
0.0077932
0.00831192
0.00879164
0.00922743
0.0096136
0.00994542
0.0102219
0.0104486
0.0106396
0.0108171
0.0110086
0.0112427
0.0115433
0.0119264
0.0123975
0.0129513
0.0134381
0.0135651
0.0133374
0.0129004
0.0123815
0.0118762
0.0114472
0.0111208
0.0108892
0.010722
0.0105841
0.0104494
0.0103063
0.0101548
0.0100016
0.00985435
0.00971938
0.00960033
0.00949853
0.000118048
0.000824007
0.00168653
0.00250729
0.00328791
0.00403515
0.00475181
0.00543825
0.00609371
0.00671716
0.00730743
0.007863
0.00838143
0.0088589
0.00929022
0.00966977
0.00999345
0.0102615
0.0104813
0.0106686
0.0108473
0.0110457
0.011292
0.0116093
0.012012
0.0125032
0.0130723
0.0135074
0.0135481
0.0132739
0.0128206
0.0123054
0.0118173
0.0114131
0.0111133
0.0109048
0.0107546
0.0106278
0.0105
0.0103618
0.0102149
0.0100664
0.00992402
0.00979368
0.00967852
0.00957946
0.000118845
0.000838254
0.001711
0.0025414
0.00333092
0.00408606
0.00480956
0.00550177
0.00616199
0.00678913
0.00738188
0.00793844
0.00845603
0.00893052
0.00935661
0.00972893
0.0100442
0.010304
0.0105172
0.0107014
0.0108815
0.0110864
0.0113441
0.0116769
0.0120984
0.0126116
0.0131955
0.0135668
0.0135244
0.0132026
0.0127318
0.0122207
0.0117517
0.0113745
0.0111024
0.0109168
0.0107822
0.0106641
0.0105408
0.0104051
0.0102603
0.0101143
0.00997477
0.00984714
0.00973422
0.00963658
0.000119899
0.000853451
0.00173544
0.00257657
0.00337648
0.00414086
0.00487227
0.00557108
0.0062366
0.00686767
0.00746281
0.00801996
0.00853606
0.00900677
0.0094269
0.00979156
0.0100984
0.0103503
0.0105577
0.0107393
0.0109209
0.0111315
0.0113988
0.0117448
0.0121828
0.0127179
0.0132946
0.0135907
0.0134826
0.0131181
0.0126313
0.0121268
0.0116803
0.0113328
0.0110897
0.0109265
0.0108058
0.0106944
0.0105734
0.0104382
0.0102937
0.0101485
0.0100101
0.00988381
0.00977195
0.00967485
0.000121402
0.00086516
0.00175612
0.00261078
0.00342369
0.00419933
0.00494014
0.00564659
0.00631806
0.00695332
0.00755072
0.00810797
0.00862182
0.00908796
0.00950149
0.00985826
0.010157
0.0104019
0.0106044
0.0107842
0.0109672
0.0111822
0.0114564
0.0118113
0.0122598
0.0128061
0.0133506
0.0135699
0.0134045
0.0130072
0.012513
0.0120226
0.0116037
0.0112891
0.0110757
0.0109342
0.0108259
0.0107195
0.010599
0.0104627
0.0103172
0.0101715
0.0100332
0.00990725
0.00979565
0.0096985
0.00012301
0.000873412
0.00177267
0.00264126
0.00347063
0.00426059
0.0050129
0.00572842
0.00640669
0.00704649
0.00764602
0.00820284
0.00871367
0.00917446
0.00958091
0.00992984
0.0102212
0.0104602
0.0106594
0.0108384
0.0110227
0.0112405
0.0115182
0.0118767
0.0123283
0.0128752
0.0133669
0.0134975
0.0132799
0.012863
0.0123744
0.0119074
0.0115227
0.0112443
0.0110615
0.0109404
0.0108426
0.0107393
0.0106182
0.01048
0.0103327
0.0101858
0.0100469
0.00992053
0.00980866
0.00971111
0.000124697
0.000876986
0.0017833
0.00266933
0.00351582
0.00432284
0.00508965
0.00581622
0.00650252
0.0071474
0.00774902
0.00830492
0.00881203
0.00926681
0.0096659
0.0100073
0.0102924
0.0105273
0.0107248
0.0109043
0.0110903
0.0113095
0.0115873
0.0119443
0.0123926
0.0129316
0.0133494
0.0133816
0.0131155
0.0126893
0.0122171
0.0117837
0.01144
0.011201
0.0110487
0.0109465
0.0108569
0.010755
0.010632
0.0104912
0.0103417
0.0101932
0.0100533
0.00992624
0.00981377
0.00971561
0.000126671
0.000872532
0.00178479
0.00269267
0.00356037
0.00438523
0.00516866
0.00590902
0.00660511
0.00725599
0.0078599
0.00841456
0.00891739
0.00936571
0.00975742
0.010092
0.0103721
0.0106049
0.010803
0.0109849
0.0111733
0.011393
0.0116682
0.0120192
0.0124603
0.0129852
0.0133051
0.0132337
0.0129212
0.0124926
0.0120468
0.0116557
0.011359
0.0111615
0.011039
0.0109534
0.0108697
0.0107675
0.0106415
0.0104975
0.0103454
0.0101953
0.0100543
0.00992645
0.00981325
0.00971432
0.000130663
0.000853289
0.00177501
0.00270944
0.00360242
0.00444873
0.00524961
0.00600552
0.0067137
0.00737192
0.00797867
0.00853209
0.00903038
0.00947213
0.00985679
0.0101856
0.0104624
0.0106952
0.0108964
0.0110827
0.0112748
0.0114949
0.0117651
0.0121062
0.0125376
0.0130131
0.0132053
0.013047
0.0126999
0.0122796
0.0118704
0.0115296
0.0112841
0.0111286
0.0110338
0.0109618
0.0108816
0.0107773
0.0106476
0.0104999
0.0103452
0.0101934
0.0100512
0.00992256
0.00980866
0.00970907
0.000132685
0.000838192
0.00175425
0.00271679
0.00363974
0.00451208
0.00533407
0.00610653
0.00682815
0.00749543
0.00810587
0.00865834
0.00915224
0.00958771
0.00996607
0.0102903
0.0105658
0.0108009
0.0110074
0.0112003
0.0113974
0.0116179
0.0118811
0.012206
0.0126146
0.0129811
0.0130388
0.0128162
0.0124561
0.0120601
0.0116985
0.0114144
0.0112218
0.0111063
0.0110353
0.0109729
0.0108932
0.0107852
0.0106508
0.0104994
0.010342
0.0101884
0.0100452
0.00991577
0.0098012
0.009701
0.000132887
0.00082409
0.00171334
0.00270433
0.00366487
0.00457174
0.00541989
0.00621322
0.0069495
0.00762684
0.00824227
0.00879445
0.00928451
0.00971448
0.0100877
0.010409
0.010685
0.0109243
0.0111379
0.0113388
0.0115421
0.0117633
0.0120175
0.0123186
0.012682
0.0129017
0.0128218
0.0125588
0.0122094
0.0118541
0.0115488
0.0113234
0.0111806
0.0110992
0.0110456
0.0109878
0.0109052
0.0107917
0.0106519
0.0104965
0.0103365
0.0101813
0.0100371
0.00990695
0.0097918
0.00969108
0.000133019
0.000797965
0.0016226
0.00263483
0.0036509
0.00461302
0.00549877
0.00632042
0.00707651
0.00776515
0.0083867
0.00893992
0.00942742
0.0098534
0.0102232
0.0105435
0.0108219
0.0110671
0.011289
0.0114989
0.011709
0.0119319
0.0121771
0.0124506
0.01271
0.0127503
0.0125945
0.0123193
0.0119968
0.0116901
0.0114419
0.0112702
0.0111684
0.0111112
0.0110664
0.011007
0.0109178
0.0107969
0.0106511
0.0104915
0.010329
0.0101724
0.0100273
0.00989664
0.00978103
0.00967988
0.000133347
0.000772325
0.00158238
0.00257551
0.00361157
0.00460934
0.00554097
0.00640052
0.0071852
0.00789203
0.00852305
0.00908081
0.00956959
0.00999543
0.0103657
0.0106884
0.0109718
0.0112245
0.0114554
0.0116736
0.0118887
0.012108
0.012332
0.0125423
0.0126531
0.0126049
0.0124141
0.0121428
0.011852
0.011592
0.0113934
0.0112635
0.0111891
0.0111435
0.0110977
0.0110301
0.0109308
0.0108008
0.0106485
0.0104846
0.0103198
0.0101619
0.0100162
0.00988504
0.00976911
0.00966769
0.000134101
0.000775686
0.00162533
0.00260712
0.00363901
0.00465292
0.0056131
0.00650187
0.00730903
0.0080317
0.00867178
0.00923325
0.00972253
0.0101475
0.0105172
0.0108407
0.0111268
0.0113834
0.0116178
0.011837
0.0120468
0.0122489
0.0124345
0.0125705
0.0126015
0.0125024
0.0123006
0.0120449
0.0117873
0.0115677
0.0114063
0.0113029
0.0112404
0.0111932
0.011137
0.0110555
0.010943
0.0108028
0.0106435
0.0104755
0.0103085
0.0101497
0.0100035
0.00987216
0.00975611
0.00965459
0.000135353
0.000819332
0.00173848
0.00273182
0.00375735
0.00476982
0.00573622
0.00663535
0.00745406
0.00818606
0.00883094
0.00939241
0.00987888
0.0103
0.0106659
0.0109868
0.0112713
0.0115269
0.0117596
0.0119737
0.0121713
0.0123491
0.0124926
0.0125728
0.0125576
0.012441
0.0122483
0.0120186
0.0117946
0.0116077
0.0114705
0.0113782
0.0113133
0.0112535
0.0111796
0.0110802
0.0109527
0.0108016
0.0106354
0.0104637
0.0102948
0.0101353
0.00998903
0.0098578
0.00974189
0.00964053
0.000136898
0.000882973
0.00187802
0.00290042
0.00392887
0.00493753
0.00590079
0.00679901
0.00761808
0.0083481
0.00898952
0.00954664
0.0100275
0.0104424
0.0108023
0.0111175
0.0113969
0.0116474
0.0118736
0.012078
0.0122593
0.0124114
0.0125203
0.0125654
0.0125301
0.0124165
0.0122455
0.0120465
0.011854
0.0116915
0.0115667
0.011473
0.0113951
0.0113153
0.0112195
0.0111003
0.0109574
0.0107958
0.0106232
0.0104482
0.0102781
0.0101184
0.00997241
0.00984166
0.00972624
0.00962534
0.000138314
0.000936362
0.00199994
0.00306231
0.00410507
0.00511468
0.00607309
0.00696371
0.00777422
0.00849731
0.00913201
0.0096823
0.0101561
0.0105638
0.0109165
0.0112247
0.0114972
0.0117403
0.0119577
0.0121504
0.0123157
0.0124468
0.0125323
0.0125595
0.0125208
0.0124207
0.0122755
0.0121065
0.0119403
0.011794
0.011672
0.0115686
0.0114718
0.0113689
0.0112502
0.0111117
0.0109544
0.0107833
0.0106055
0.0104281
0.0102575
0.0100982
0.00995309
0.00982331
0.00970882
0.00960879
0.000139013
0.000981673
0.00210358
0.00320258
0.00426105
0.00527296
0.00622633
0.00710837
0.00790904
0.00862263
0.00924845
0.00979048
0.0102565
0.0106568
0.0110022
0.0113032
0.0115683
0.0118034
0.0120118
0.0121935
0.0123456
0.012462
0.0125346
0.0125557
0.0125223
0.0124392
0.0123184
0.0121747
0.0120281
0.0118907
0.0117655
0.0116484
0.0115313
0.0114057
0.0112661
0.0111106
0.0109411
0.0107625
0.0105809
0.0104023
0.0102321
0.0100741
0.00993054
0.00980233
0.00968931