/*--------------------------------*- C++ -*----------------------------------*\
  =========                 |
  \\      /  F ield         | OpenFOAM: The Open Source CFD Toolbox
   \\    /   O peration     | Website:  https://openfoam.org
    \\  /    A nd           | Version:  7
     \\/     M anipulation  |
\*---------------------------------------------------------------------------*/
FoamFile
{
    version     2.0;
    format      ascii;
    class       scalarField;
    location    "0.0175/lagrangian/dsmc";
    object      Ei;
}
// * * * * * * * * * * * * * * * * * * * * * * * * * * * * * * * * * * * * * //


337587
(
3.42436e-22
4.88555e-22
2.82028e-21
6.6364e-22
4.38566e-21
3.91557e-22
2.52551e-21
2.20722e-21
1.96537e-21
2.83287e-21
2.74677e-21
2.49787e-21
1.27875e-21
3.50013e-21
1.73464e-21
1.04002e-20
1.19396e-21
5.02871e-23
1.19651e-21
2.61316e-22
1.22075e-21
1.22836e-21
1.11563e-22
1.2448e-21
4.5099e-21
3.85064e-22
2.82154e-21
3.13401e-21
1.09302e-21
3.93343e-21
5.05498e-22
9.85199e-22
2.63603e-22
1.59569e-21
8.053e-22
1.67592e-21
3.19337e-21
3.93155e-22
5.06231e-22
1.06012e-21
1.47891e-22
4.75176e-22
3.30855e-22
1.02299e-21
4.83912e-23
8.10074e-22
2.01962e-21
7.06329e-22
1.48401e-21
1.03668e-22
3.90908e-22
2.81581e-21
1.07251e-21
6.7402e-21
5.42237e-22
4.27791e-21
3.06595e-21
1.71842e-21
3.2912e-22
1.6817e-20
8.70715e-23
4.27481e-22
6.51083e-22
2.21795e-21
1.94967e-22
2.13917e-22
3.03004e-22
4.2891e-22
1.39099e-23
7.78019e-22
4.57397e-21
7.89386e-22
1.80584e-21
1.15598e-21
2.19712e-22
3.70982e-22
1.76083e-21
6.54144e-22
6.84905e-21
1.9962e-21
6.03398e-22
2.01318e-21
1.39465e-21
2.68514e-21
2.04945e-21
5.08855e-21
6.24007e-22
1.54865e-21
3.44515e-21
1.50255e-21
2.00511e-21
5.99269e-22
8.4756e-23
3.90904e-22
7.66582e-22
3.41378e-21
3.5155e-21
3.35446e-22
1.92771e-21
9.71885e-22
1.64629e-22
2.75531e-21
1.48139e-22
3.01843e-21
7.24163e-23
4.60184e-22
7.64057e-21
1.3273e-21
1.34929e-21
7.67352e-23
1.19532e-21
1.58928e-21
7.82811e-22
8.27112e-24
1.97583e-21
1.25218e-21
9.37712e-22
5.91881e-21
8.16341e-22
5.1326e-23
1.9399e-21
2.28687e-22
2.70767e-21
1.81347e-23
2.3505e-21
7.92831e-22
7.67226e-22
7.32293e-22
1.13701e-21
3.56844e-22
5.77551e-22
2.49863e-21
1.97227e-21
2.29435e-22
6.10124e-22
5.32776e-22
1.49979e-21
1.84777e-21
1.53692e-21
1.3018e-21
2.32264e-22
4.1396e-21
1.26257e-21
8.24624e-22
1.91043e-21
1.51179e-21
1.48463e-21
1.97378e-21
1.63185e-21
2.53729e-21
2.24473e-21
2.22838e-21
1.65128e-21
2.40702e-21
1.31763e-21
3.2466e-22
4.69116e-21
1.47198e-21
4.95481e-21
3.51233e-21
8.88023e-22
8.64786e-23
8.0914e-22
2.34733e-21
1.62536e-21
2.88763e-21
1.30225e-22
8.00806e-22
8.48623e-22
6.33915e-22
8.1351e-22
4.26237e-21
1.90797e-22
3.94969e-21
3.73211e-22
4.50576e-21
1.54578e-21
4.90208e-22
3.7898e-22
4.00288e-21
4.70259e-23
1.07235e-21
3.65678e-21
5.72487e-21
2.0306e-21
2.29521e-21
2.99586e-22
1.3955e-21
4.19093e-24
1.8751e-23
4.20336e-22
6.92728e-22
6.51068e-22
3.4372e-21
1.82307e-21
2.0596e-21
5.70495e-22
1.36153e-21
1.59082e-21
1.13581e-21
1.69142e-21
3.90053e-22
2.81015e-21
3.0938e-21
1.51859e-21
2.6493e-21
2.49863e-21
3.9962e-22
5.42266e-21
3.41172e-21
7.45128e-22
9.16469e-22
4.0924e-22
1.39484e-21
3.21631e-21
1.79058e-22
1.15489e-21
1.38162e-21
1.75585e-21
3.52674e-21
3.82954e-22
5.36623e-22
2.47325e-21
2.29376e-21
2.73928e-21
1.37155e-21
8.41316e-22
7.64635e-22
1.43616e-21
8.16139e-23
3.98159e-22
1.67596e-22
5.04239e-21
1.66483e-21
7.37832e-22
1.38722e-21
1.01217e-21
9.83418e-21
1.19944e-22
1.96082e-21
2.62173e-21
2.26179e-22
2.8158e-21
2.99101e-21
3.50688e-21
4.29663e-21
2.41333e-21
2.16829e-21
8.45604e-23
1.37902e-21
3.44579e-22
1.15532e-20
4.03035e-22
4.80814e-22
3.02834e-21
1.2342e-21
6.77186e-22
6.67064e-22
9.79098e-22
9.11802e-22
7.51703e-22
1.04285e-20
5.92316e-22
1.89276e-21
8.47879e-22
3.68776e-21
2.45695e-21
4.71015e-22
2.18891e-21
1.6398e-21
4.96355e-22
6.89577e-22
2.17859e-22
3.57811e-22
2.8752e-21
1.99687e-22
6.75143e-22
1.87054e-21
1.22286e-21
9.29876e-22
2.81663e-21
6.58592e-21
2.85701e-22
1.66203e-22
1.25956e-21
8.22396e-22
2.40826e-22
2.05129e-21
4.78385e-21
1.03292e-21
4.67004e-22
1.32406e-23
6.19489e-22
1.94227e-21
3.69891e-21
1.19792e-21
5.04767e-22
2.69642e-22
2.63082e-22
6.6106e-22
6.01134e-22
5.30701e-21
2.92977e-21
1.52264e-22
3.18493e-21
1.08948e-21
2.58673e-22
3.64405e-21
1.07467e-22
2.3521e-22
1.10791e-21
1.46792e-22
2.50701e-21
1.25694e-22
3.36084e-21
9.52674e-23
1.32592e-21
9.18205e-22
4.43973e-21
1.15594e-20
8.69582e-22
5.83842e-21
3.36294e-22
1.92567e-22
2.48978e-21
9.68965e-22
2.32332e-21
1.24671e-21
3.4455e-21
1.0881e-21
8.25178e-22
1.24357e-21
4.84105e-21
6.70605e-22
7.58703e-22
1.29866e-22
2.50924e-21
2.7426e-21
9.12947e-22
1.59402e-21
1.73777e-21
1.73202e-22
2.69491e-21
1.66321e-21
6.49258e-23
3.14022e-22
6.03313e-23
2.44291e-21
1.82111e-21
1.57694e-22
1.46068e-21
1.07201e-23
1.14524e-21
3.24804e-21
1.45355e-21
3.1861e-21
3.99567e-21
5.17338e-22
3.9834e-22
1.7639e-22
5.02765e-22
3.234e-22
8.92696e-22
1.26498e-21
1.2649e-21
1.5715e-21
2.26843e-21
4.29544e-21
2.4099e-21
3.59825e-22
6.34137e-22
1.17277e-21
2.23564e-21
2.40662e-21
1.12263e-21
7.39597e-22
2.57175e-22
2.20775e-21
3.92506e-21
3.63707e-21
9.32181e-22
2.85269e-21
1.48283e-21
3.67011e-22
1.08628e-21
1.10276e-21
4.56554e-22
5.22479e-22
1.68415e-21
7.02883e-23
1.40178e-21
1.55981e-22
3.66598e-21
1.73322e-21
1.89305e-21
2.47789e-21
4.41642e-23
7.94086e-22
2.83768e-21
1.40322e-21
4.43671e-22
1.14047e-21
6.37287e-22
9.67463e-22
1.34479e-22
1.65322e-21
4.13007e-21
2.35239e-21
2.47586e-22
2.13125e-23
1.74428e-21
4.52285e-22
2.34382e-22
1.41656e-22
5.73459e-22
9.6243e-22
1.64001e-21
2.3284e-22
2.21557e-21
4.68963e-21
1.27981e-21
5.18827e-21
3.44147e-22
1.6798e-21
2.14657e-21
6.13027e-22
2.52867e-22
2.01073e-21
1.28058e-22
1.72021e-22
6.48588e-22
2.26294e-21
1.77843e-22
2.68419e-21
1.29483e-21
3.18326e-21
4.05081e-21
5.94729e-22
2.08402e-21
7.38591e-22
1.66296e-22
1.52987e-22
1.91876e-21
3.32701e-22
1.94712e-21
4.26462e-22
1.09791e-21
3.74693e-21
4.59369e-21
1.0297e-20
1.02618e-21
6.60213e-21
2.59105e-21
4.4365e-21
6.89535e-22
4.90766e-22
5.31861e-22
1.37576e-21
4.58866e-22
1.20287e-21
1.96068e-21
2.37758e-22
2.51438e-22
3.90839e-22
6.49192e-22
5.27611e-21
8.09457e-22
8.28164e-22
1.32665e-21
1.31408e-21
1.18361e-21
3.16952e-21
1.35823e-21
1.88356e-22
7.13927e-22
2.25037e-22
3.44197e-21
2.23179e-21
1.38247e-21
2.79581e-22
3.61302e-22
3.37759e-21
1.7145e-21
3.9108e-22
2.80683e-21
2.01069e-22
3.64074e-21
7.34998e-23
7.269e-22
1.00106e-22
1.94337e-21
2.96697e-21
4.65706e-22
1.56519e-21
8.05438e-22
1.33429e-21
4.14173e-22
2.0543e-21
3.64154e-21
1.23747e-22
5.57021e-22
1.32323e-21
1.94328e-21
3.43193e-21
1.15738e-21
2.87647e-21
1.57642e-21
8.66696e-22
4.78717e-22
8.84184e-22
5.74526e-22
1.46258e-21
5.50721e-23
1.84427e-21
9.94595e-22
6.79783e-22
1.17373e-23
2.31203e-22
4.16598e-22
2.31462e-24
7.58317e-22
2.03773e-21
5.83131e-23
5.11368e-23
1.80377e-21
1.21869e-21
7.09428e-23
3.1706e-22
1.57298e-22
5.09552e-22
2.77685e-21
1.023e-21
2.10413e-22
2.39925e-21
2.97198e-23
9.6335e-22
2.90744e-21
2.83845e-21
1.2616e-24
2.594e-22
9.02989e-22
6.05739e-21
3.66333e-21
1.7786e-21
2.74832e-21
5.66442e-22
1.10501e-21
2.3663e-21
4.24615e-22
1.21158e-22
5.89628e-22
3.07964e-21
2.38891e-21
4.6347e-22
3.44832e-22
6.60821e-22
3.79129e-21
1.00606e-21
1.36168e-21
1.5975e-21
2.84783e-22
3.8227e-21
5.90814e-22
8.3425e-23
1.29417e-21
5.27392e-22
4.10917e-22
1.71437e-22
7.77711e-22
4.2653e-21
6.65204e-22
1.78565e-21
2.44708e-21
3.13069e-22
2.04186e-22
1.83426e-21
7.56375e-22
1.35178e-21
7.45008e-22
1.66069e-21
1.05094e-21
6.09084e-22
6.12122e-21
5.67015e-22
3.96807e-21
7.82244e-22
1.22308e-21
3.95659e-22
2.3256e-22
2.37237e-22
3.48298e-24
2.06764e-22
2.82457e-23
8.35678e-21
3.3463e-22
6.79917e-22
1.71439e-21
1.16678e-21
1.69279e-21
7.19614e-22
7.42464e-21
2.11599e-21
1.09797e-21
4.7702e-22
1.13563e-21
1.59094e-22
8.81372e-22
2.68214e-21
1.45793e-21
6.12396e-22
1.54049e-21
8.14883e-22
2.03083e-21
2.99927e-21
4.8557e-22
3.15676e-21
2.58926e-21
1.09912e-21
8.71702e-22
1.93253e-21
9.05573e-22
3.2576e-21
2.03327e-22
5.12014e-22
4.73167e-21
2.71532e-21
4.65063e-22
1.01591e-21
1.29685e-21
1.42515e-21
1.42092e-21
3.26603e-22
7.74954e-22
5.21108e-21
2.68614e-21
4.58506e-21
5.5468e-21
2.33434e-22
8.27406e-22
5.93279e-22
1.02975e-21
2.62364e-21
1.02848e-21
1.22145e-21
1.42987e-21
4.27528e-22
3.19844e-21
5.32258e-22
4.62309e-21
5.98662e-22
4.93945e-23
1.1477e-21
4.48822e-21
4.6743e-22
4.80106e-22
7.95409e-23
4.8156e-21
7.58526e-21
3.10921e-21
4.36104e-21
3.6804e-21
2.06608e-21
4.03818e-21
1.9007e-21
1.63855e-21
1.35176e-21
1.92764e-22
1.80826e-22
1.08635e-21
7.55711e-22
1.88617e-21
1.89985e-21
2.47442e-22
2.82589e-22
1.92139e-23
1.90533e-21
2.40648e-21
1.8075e-21
1.74437e-21
2.24905e-21
3.98144e-22
2.95421e-22
3.27816e-21
6.8933e-22
4.41118e-21
9.96547e-22
7.68335e-22
7.77051e-22
1.30563e-22
2.44465e-21
2.72314e-21
1.41712e-21
3.02639e-21
1.41179e-21
3.81986e-21
1.03941e-22
2.68577e-21
1.67939e-21
2.85004e-22
1.53237e-21
3.30526e-21
1.13076e-22
2.64603e-21
6.31108e-22
1.147e-21
5.35692e-24
2.84883e-21
1.13238e-22
3.88999e-21
1.14096e-21
8.42259e-22
1.11427e-20
6.94183e-22
1.07944e-22
1.99604e-21
2.69417e-22
4.48185e-22
8.93163e-22
8.56834e-22
1.09228e-21
2.86419e-22
1.46585e-21
1.97828e-22
3.77722e-22
2.52955e-21
1.23801e-22
6.94394e-21
1.3121e-22
2.33765e-21
9.07339e-22
1.19501e-22
4.99057e-22
3.49135e-21
2.49192e-21
4.37631e-22
3.44968e-22
8.24782e-22
2.79814e-21
2.49898e-21
1.70449e-22
4.9009e-23
4.09444e-23
1.2669e-21
1.91629e-21
3.60372e-21
2.40216e-21
1.10624e-21
1.93033e-21
2.19098e-21
6.76618e-22
3.83126e-21
5.27084e-21
5.11366e-22
1.37072e-21
1.11285e-21
1.08967e-23
8.81255e-22
2.75041e-21
1.82022e-21
2.10672e-21
1.92351e-21
1.84094e-21
5.62285e-21
3.33939e-21
1.73899e-21
3.16374e-22
2.6453e-21
3.58217e-21
2.21923e-21
1.69233e-22
3.03344e-21
1.88824e-21
2.49685e-22
4.62377e-22
1.14999e-21
1.78451e-22
3.10471e-21
1.33638e-21
2.5573e-22
3.4839e-22
6.46607e-22
3.51468e-21
1.16537e-21
1.22366e-22
5.32976e-22
2.63801e-22
8.87485e-22
3.16271e-22
7.28988e-22
1.30892e-21
8.29404e-22
3.39493e-21
8.55564e-23
5.93841e-21
2.11861e-21
1.47896e-22
1.93521e-21
4.18277e-22
4.84585e-22
1.20009e-20
1.44846e-21
2.4607e-21
3.83562e-22
2.82503e-21
1.73422e-22
2.04481e-21
1.88282e-21
2.54591e-22
2.15083e-21
5.20112e-22
1.90597e-21
1.18808e-22
1.50938e-21
1.017e-23
5.61259e-23
6.90258e-21
4.39637e-22
3.12522e-21
1.38414e-21
3.32661e-22
6.0535e-21
2.18727e-21
3.39242e-21
3.01919e-22
1.66011e-21
2.99079e-21
2.10758e-22
1.07164e-21
1.50548e-21
1.77193e-21
3.55041e-22
1.31901e-22
1.87174e-21
9.31409e-22
2.26732e-21
1.81249e-21
5.97628e-21
3.83278e-21
3.57734e-21
2.5433e-21
1.32422e-22
1.9042e-21
3.252e-21
2.15202e-21
2.66331e-21
6.98284e-22
2.97726e-21
1.82446e-21
7.62947e-22
5.92092e-21
1.06997e-22
6.99066e-21
2.20924e-21
2.11368e-21
3.55927e-21
5.86894e-22
8.15772e-21
2.74588e-21
1.03925e-21
1.19993e-21
3.59191e-21
9.70766e-22
1.60173e-21
1.49147e-21
1.41279e-21
4.12068e-22
2.09199e-21
3.37402e-22
4.52664e-21
1.61119e-21
1.42008e-22
1.59436e-21
3.40018e-21
1.67846e-21
2.41452e-21
6.32228e-22
1.64361e-21
7.74684e-21
1.04066e-22
1.05811e-21
8.41484e-22
4.55539e-21
4.01632e-22
1.78622e-21
4.97316e-22
2.79392e-21
3.6088e-22
7.43076e-22
5.64459e-22
5.68513e-21
7.28933e-23
1.1681e-21
6.52103e-22
1.42617e-21
1.1432e-21
6.4204e-22
2.64501e-21
2.38632e-21
3.0456e-21
7.76047e-22
7.02688e-22
8.8732e-22
2.17663e-21
4.84452e-24
3.44602e-21
3.44049e-22
2.04458e-21
1.99833e-21
9.22451e-22
1.59636e-21
2.04153e-21
2.19779e-21
3.35692e-21
6.3684e-22
3.91535e-22
1.84731e-21
2.05555e-22
1.0341e-21
1.03322e-21
6.14046e-22
8.37288e-22
3.45566e-21
2.0315e-22
3.36404e-21
2.34468e-21
3.39096e-22
4.67184e-21
3.90982e-21
2.35566e-22
4.53123e-21
2.91902e-21
1.49221e-21
1.20355e-21
1.07177e-21
2.03567e-21
1.37869e-21
7.82682e-22
2.64064e-22
3.38502e-21
1.73224e-22
1.21896e-21
1.84969e-23
4.16527e-21
4.6663e-22
4.60398e-23
1.49971e-21
9.23911e-22
1.7386e-22
3.19037e-21
5.97235e-22
3.23522e-21
5.41561e-21
7.20846e-22
5.66463e-21
3.25934e-21
1.96259e-21
1.32345e-21
3.3463e-22
5.15538e-21
2.59166e-22
1.07021e-23
4.2436e-21
1.40716e-21
2.22346e-21
7.14872e-22
2.35265e-21
2.01275e-21
3.60742e-21
9.18601e-22
3.67951e-22
1.64632e-21
3.07306e-21
6.90007e-22
1.09715e-21
3.12118e-21
5.07389e-21
1.75732e-21
2.72024e-21
2.41478e-22
2.96922e-24
5.37114e-21
2.83618e-21
3.52816e-23
2.30358e-21
1.58258e-22
8.22782e-24
3.53004e-21
8.80309e-22
3.77296e-21
7.6387e-22
1.59831e-22
3.28346e-21
5.89115e-22
4.08562e-22
4.7949e-21
3.77989e-21
8.12383e-23
1.02184e-21
1.48781e-21
9.58475e-22
3.84539e-21
5.44923e-21
7.25865e-23
1.61014e-21
9.86894e-22
5.0252e-22
5.50342e-21
1.48499e-22
9.1306e-22
2.73479e-21
1.8944e-21
4.28163e-21
4.741e-22
6.96142e-21
3.61363e-22
2.11999e-21
2.32678e-22
1.07643e-21
9.29819e-22
2.22124e-21
1.11394e-21
6.45752e-22
1.03935e-21
7.31933e-22
7.52148e-22
1.52756e-21
7.99792e-22
7.53232e-22
2.17694e-21
6.0495e-23
3.17726e-22
9.88164e-22
4.37383e-22
7.12806e-21
3.67061e-21
2.44405e-21
1.6873e-21
1.004e-21
5.12051e-22
6.91215e-21
7.72196e-22
1.90138e-21
8.96168e-22
2.47211e-21
4.02229e-22
5.88027e-22
1.45054e-21
1.50153e-22
2.40984e-21
3.54231e-21
1.96326e-21
1.63718e-22
1.97282e-22
1.03375e-21
5.00364e-22
1.0009e-21
3.14678e-21
1.4617e-21
2.34738e-21
1.02114e-21
2.17978e-22
4.66413e-21
1.7688e-22
6.35216e-22
2.63661e-22
9.01483e-22
8.16162e-22
3.70058e-21
4.45854e-22
2.72712e-22
2.19978e-21
3.28006e-21
2.39295e-21
1.61158e-21
8.82386e-22
5.27267e-21
3.08856e-21
2.30817e-22
2.49051e-21
1.84054e-21
4.00779e-21
2.84027e-21
2.02426e-22
5.29215e-22
5.66692e-22
4.20918e-21
2.75262e-21
8.74144e-23
1.39182e-22
3.93433e-22
1.67477e-22
5.18751e-22
1.07416e-21
5.00179e-21
7.11816e-21
9.14686e-22
4.32209e-22
1.51028e-21
2.89208e-21
3.83963e-22
3.20692e-21
3.55001e-22
2.33256e-22
3.18024e-21
9.12854e-22
1.81668e-22
2.93251e-21
1.01725e-22
8.73266e-22
2.03549e-21
8.25045e-22
1.60508e-21
1.40145e-21
1.19772e-21
4.08091e-22
5.70567e-22
2.70213e-21
5.23821e-23
7.4265e-22
2.75678e-21
8.17101e-22
1.72375e-21
6.94769e-22
2.22546e-21
3.26587e-21
6.70563e-21
5.11261e-21
6.35573e-22
2.27421e-21
1.45958e-22
6.77777e-22
1.96964e-21
1.30363e-21
1.66631e-22
8.75079e-22
7.10485e-22
2.41256e-21
1.00869e-21
6.21408e-22
5.79599e-21
6.80783e-22
1.91085e-21
5.33656e-22
7.94858e-21
3.09729e-21
4.93067e-21
1.90545e-21
1.18489e-21
1.27824e-21
4.64506e-23
9.19431e-22
1.45977e-21
1.39329e-21
1.76444e-21
3.67874e-21
4.28922e-22
5.16467e-23
1.80308e-22
3.50352e-22
3.92277e-22
2.27437e-21
2.4414e-21
5.7106e-21
4.64009e-21
2.88611e-21
1.56656e-21
8.88919e-23
1.81905e-21
7.01792e-22
1.74036e-21
8.04933e-22
2.47719e-22
3.00785e-21
1.12086e-21
1.04556e-21
1.14181e-21
3.64819e-21
4.46942e-22
1.28472e-22
6.6138e-22
1.07532e-21
8.47174e-22
2.10739e-21
2.40071e-21
3.80751e-21
1.73458e-22
7.35733e-22
1.74314e-21
1.78468e-22
1.07559e-21
5.91586e-21
3.83988e-22
4.42961e-21
4.73926e-21
7.76342e-24
1.39089e-21
1.82541e-21
2.98222e-21
3.87509e-22
1.48351e-21
3.20024e-22
2.19074e-22
5.91695e-21
7.804e-22
2.2272e-21
2.79414e-21
3.93798e-21
6.27388e-22
2.96342e-21
2.8286e-21
6.9942e-22
2.19556e-21
7.8293e-22
3.34543e-21
1.62327e-22
2.86639e-22
2.43573e-22
2.38277e-21
3.53415e-23
4.5896e-21
4.66608e-21
1.07843e-21
6.06159e-22
1.13645e-21
1.27308e-21
3.96829e-21
1.01594e-22
1.406e-21
9.66582e-22
1.88146e-21
3.61971e-21
3.88759e-22
4.62661e-22
4.19072e-21
5.55515e-21
4.28477e-21
5.46017e-26
2.29085e-21
5.37195e-22
1.48369e-21
1.0509e-21
3.66952e-21
3.08218e-22
1.22836e-21
2.13879e-21
2.16281e-21
2.73853e-21
4.5958e-22
2.86054e-21
1.81767e-21
8.19898e-22
1.13464e-21
4.07171e-21
1.22717e-21
1.6853e-21
5.66769e-23
9.56598e-22
1.9142e-21
9.10661e-22
1.48749e-21
3.19683e-22
2.76414e-21
9.44141e-22
9.23474e-22
2.91309e-22
1.2642e-21
1.65414e-21
2.10896e-21
1.79557e-22
7.29295e-22
5.10888e-22
1.7443e-21
1.46463e-21
8.8959e-22
3.60193e-21
1.22427e-21
1.07322e-21
3.1811e-21
1.23335e-21
7.6281e-22
4.53316e-23
1.7362e-21
7.89715e-24
1.39583e-22
5.46917e-21
1.47977e-21
2.58541e-21
4.98483e-22
3.40125e-23
2.94447e-22
2.74879e-22
3.77804e-21
1.53728e-21
9.67632e-21
1.05225e-21
1.23546e-21
2.80546e-22
5.45559e-22
5.40602e-21
3.27512e-21
2.87672e-21
7.0288e-22
5.99623e-21
1.00187e-22
1.50253e-21
8.12124e-22
1.18238e-21
1.46898e-22
4.25423e-21
1.08515e-21
6.17767e-21
1.4745e-21
2.62865e-22
8.40858e-22
7.27959e-22
1.91044e-22
5.27744e-21
3.80024e-21
4.49499e-21
2.45138e-22
6.67129e-21
1.13787e-22
1.38499e-21
4.75372e-22
1.39428e-21
6.33875e-22
8.47204e-22
6.19345e-22
9.79988e-22
1.94665e-21
1.07064e-21
4.65525e-22
7.02441e-22
2.62174e-21
6.84781e-22
2.89104e-21
1.68311e-21
2.03994e-21
2.43042e-21
3.75174e-21
6.13858e-21
3.21761e-21
2.10744e-21
1.46255e-21
2.87931e-21
6.03025e-22
8.85418e-23
2.77555e-21
1.16238e-21
6.53797e-22
1.16985e-21
1.2634e-21
2.55065e-22
2.53633e-22
1.16649e-21
2.42962e-21
1.47842e-22
6.29044e-21
1.10273e-21
5.01441e-21
2.95954e-21
3.93243e-21
1.18408e-21
3.55419e-21
3.0735e-22
3.48607e-21
1.63746e-21
1.51607e-21
9.02909e-22
1.86406e-21
2.70898e-21
2.94058e-21
2.08092e-21
4.65609e-22
9.22909e-22
2.85858e-21
6.34528e-22
2.36525e-21
2.17803e-21
6.21817e-21
3.29985e-22
2.96972e-21
2.69624e-21
1.32037e-21
1.38529e-21
2.85686e-22
4.49581e-22
2.62042e-21
3.98135e-22
8.3915e-22
6.5704e-22
8.45576e-22
5.16571e-22
8.69482e-23
1.01646e-21
2.77183e-22
1.34489e-21
2.91308e-22
6.52601e-22
1.66646e-22
1.93664e-21
1.94393e-21
3.27834e-21
1.19188e-21
3.71647e-21
5.52064e-22
2.73061e-22
8.97678e-22
1.89332e-21
4.96143e-21
4.74159e-23
2.56461e-21
1.24984e-21
2.56032e-21
5.14713e-22
3.122e-23
2.40844e-21
4.9891e-23
1.71493e-22
1.77098e-22
2.64265e-22
1.6163e-21
1.29603e-21
7.97682e-22
1.37713e-22
5.05985e-22
1.91782e-21
4.04049e-22
2.3527e-21
1.26703e-21
1.03932e-21
2.45325e-21
7.79928e-22
1.18892e-21
6.2209e-21
1.91964e-21
1.95541e-22
1.25752e-21
6.98522e-22
2.51843e-21
1.95648e-22
1.67977e-21
4.38647e-21
1.96565e-21
2.11912e-21
2.75757e-23
2.64153e-21
1.99392e-21
6.72533e-23
3.82887e-21
6.05321e-21
7.83068e-22
3.28762e-21
7.08276e-22
2.2146e-22
4.60667e-21
2.39003e-21
1.36638e-21
1.6645e-21
2.33179e-21
8.04606e-22
2.78488e-21
2.15854e-22
4.59825e-21
2.17194e-21
9.01738e-22
5.55941e-22
1.24601e-21
9.14466e-22
6.52306e-22
3.71747e-22
7.93492e-22
1.92224e-21
5.25385e-22
2.48447e-21
2.23339e-22
2.28359e-22
1.98732e-21
6.08398e-22
6.87889e-22
5.11187e-21
1.24528e-21
1.56803e-22
9.98071e-22
1.50534e-21
2.27916e-21
2.82339e-21
1.66238e-21
1.01917e-21
3.15027e-21
1.66859e-21
9.98718e-22
2.1725e-23
1.83284e-21
2.47053e-21
6.7999e-23
1.85942e-21
6.31001e-22
1.22715e-21
2.41511e-21
8.07937e-22
9.49243e-22
1.10703e-21
1.26214e-21
7.9461e-22
3.07439e-23
1.51366e-22
3.24926e-21
7.81374e-22
2.09397e-21
3.79825e-23
9.90559e-22
1.41757e-22
3.19659e-21
2.66354e-21
5.31192e-21
2.82401e-23
1.60182e-21
2.67676e-22
1.72522e-23
1.65924e-21
1.2367e-21
9.09226e-22
4.9957e-22
3.90852e-21
1.27052e-21
7.14379e-22
1.9418e-21
3.44351e-21
1.59783e-21
2.11727e-21
1.74558e-21
7.64429e-22
6.01332e-22
1.20688e-21
4.70764e-22
2.21923e-23
1.53371e-21
3.68291e-21
2.28761e-22
1.37942e-21
1.20207e-22
2.97381e-22
2.4315e-22
8.51174e-22
1.68414e-21
1.26394e-21
3.76152e-21
3.45222e-21
6.36413e-22
1.61281e-21
2.43248e-22
1.37619e-22
2.40465e-21
2.20213e-23
4.7673e-21
1.12982e-21
1.08117e-21
1.11124e-21
4.55213e-21
1.95753e-22
1.12237e-22
9.33041e-22
1.31929e-21
8.50816e-22
9.26911e-22
8.72945e-22
8.39358e-23
1.84095e-21
9.83861e-23
1.14681e-22
5.92625e-21
5.62526e-21
2.25929e-21
3.25131e-22
5.31166e-22
4.68928e-23
4.02176e-21
5.55291e-22
5.50041e-23
4.03715e-22
2.51066e-21
3.63102e-22
1.58466e-21
1.8878e-22
5.71036e-22
9.00164e-22
5.49122e-24
1.82682e-21
3.83348e-22
8.51832e-22
1.81099e-22
1.26957e-21
1.86069e-22
1.07411e-21
2.15741e-24
8.24128e-21
1.06874e-24
2.94073e-22
5.76354e-21
1.48669e-21
2.4027e-21
5.60221e-22
2.95751e-21
4.45205e-22
7.96788e-22
2.16852e-21
2.87538e-22
2.7552e-21
4.69345e-21
2.04722e-21
1.67728e-21
1.22114e-22
9.41556e-22
4.2288e-21
7.19243e-22
1.14617e-22
3.21867e-21
2.03062e-21
1.09778e-21
1.57701e-21
6.2766e-21
4.5086e-21
1.51124e-21
3.9142e-21
1.99904e-21
1.04574e-21
7.11346e-22
2.08254e-21
1.69114e-21
5.86849e-22
2.31507e-22
2.65045e-21
1.65847e-22
1.92523e-21
2.9009e-22
2.03757e-21
1.71531e-21
2.49623e-21
2.53624e-22
1.32916e-21
3.01514e-22
4.11359e-21
1.48835e-21
6.01816e-21
1.09044e-21
2.80391e-21
2.39852e-22
2.01849e-21
1.04652e-21
2.18832e-21
4.57836e-22
6.04404e-22
2.01579e-21
1.17758e-21
1.56434e-21
2.73083e-21
2.39302e-22
1.83031e-21
4.14428e-21
2.30719e-22
8.10964e-22
1.23239e-21
3.73303e-21
3.52603e-21
7.29689e-22
1.55558e-21
2.1449e-21
1.91035e-21
9.64462e-22
1.17647e-20
4.92762e-22
3.20364e-21
1.6113e-21
1.32206e-21
2.08861e-21
2.96474e-22
6.81536e-22
8.68315e-22
8.39773e-22
5.74978e-21
1.24571e-21
1.96256e-21
1.06378e-21
1.31886e-22
4.99717e-21
5.31594e-22
4.63359e-21
7.59073e-22
1.28229e-22
4.94776e-21
3.2748e-21
8.53872e-23
3.76621e-22
6.07969e-22
1.05297e-21
9.64655e-22
3.47833e-22
4.82823e-21
3.90083e-21
1.38251e-21
2.0675e-21
4.36989e-22
1.17553e-20
9.06867e-23
3.07472e-21
2.7978e-21
1.03091e-22
2.32839e-21
3.20692e-21
1.99519e-21
2.8095e-21
9.96353e-22
9.65282e-22
6.96398e-23
7.77653e-22
1.06409e-21
9.10354e-22
9.48761e-22
5.7579e-22
1.03583e-21
9.49494e-22
2.12627e-21
4.39757e-22
4.91633e-22
4.08749e-22
6.18151e-22
5.22542e-21
2.15185e-21
6.10506e-22
4.83299e-23
6.5486e-22
8.6577e-22
1.56799e-21
1.02213e-21
1.75038e-21
5.63102e-21
1.14772e-21
1.06674e-21
7.40011e-22
8.94454e-22
3.0643e-21
9.27806e-22
3.93048e-22
2.06038e-21
1.31564e-21
1.92063e-21
1.25469e-21
2.67087e-22
6.64363e-22
1.12722e-21
1.97409e-21
8.11659e-22
2.24763e-21
7.4177e-22
2.00319e-21
1.59042e-22
2.29862e-21
6.9164e-23
2.52514e-21
2.05634e-21
2.08073e-21
1.60338e-21
1.04833e-21
3.42395e-21
1.98616e-22
2.48507e-22
2.98754e-21
2.27595e-21
3.02514e-21
2.07055e-21
2.68301e-21
1.69648e-22
5.2872e-22
5.49421e-22
2.93388e-23
4.82273e-21
7.85192e-21
4.47901e-21
1.34549e-21
4.12838e-21
3.02045e-21
2.38926e-23
5.86065e-23
3.74335e-22
1.41415e-22
5.18855e-24
1.92854e-21
1.78803e-22
8.01665e-21
1.58897e-21
6.83187e-22
2.67575e-21
3.55951e-21
9.37621e-23
1.14919e-21
1.58797e-22
1.02284e-21
7.13327e-22
1.73015e-22
2.55595e-21
9.42454e-22
2.34153e-21
1.32313e-21
7.01146e-22
2.64269e-21
1.06525e-22
4.46683e-22
4.94629e-22
3.31054e-21
4.19195e-21
1.73978e-21
1.87749e-21
6.12231e-22
3.32964e-22
4.49806e-21
1.02116e-21
3.64528e-22
3.98939e-21
2.36089e-21
1.30902e-21
2.13112e-22
1.45212e-21
6.37465e-22
1.50419e-21
2.07461e-22
1.58108e-21
1.0654e-21
7.52365e-22
7.30326e-22
1.61928e-21
1.4872e-22
3.50839e-21
6.0986e-22
2.31804e-21
3.84132e-21
3.26856e-21
3.22087e-22
1.02635e-21
5.59575e-21
8.69054e-22
7.3956e-22
1.11697e-20
1.72935e-21
3.92345e-21
4.7904e-21
5.61149e-21
2.75633e-22
8.49726e-22
1.1886e-21
1.213e-21
2.89384e-21
9.8017e-22
3.89247e-21
7.0298e-22
1.99556e-21
2.24566e-21
2.68601e-22
1.05614e-21
4.62016e-22
3.82818e-21
5.04927e-23
1.41812e-22
4.00011e-21
2.28404e-21
1.597e-22
1.01013e-21
7.57671e-22
8.7794e-22
5.77294e-22
5.01531e-22
1.63916e-21
5.60343e-22
1.68222e-21
4.35049e-22
2.80368e-21
1.12665e-21
3.48631e-22
2.49523e-21
9.76428e-22
5.38423e-21
1.04085e-21
1.45755e-21
4.26254e-21
1.63131e-21
2.05264e-22
6.3811e-22
4.59097e-21
7.84658e-22
8.46779e-22
9.23824e-22
6.89519e-22
3.10845e-21
3.25089e-21
1.27228e-21
8.75716e-22
4.6439e-21
1.02916e-22
3.95657e-22
2.74955e-22
5.72371e-21
9.25493e-22
3.13469e-22
1.7241e-21
1.63936e-21
1.13606e-21
3.43987e-22
4.40644e-21
4.8797e-21
3.67938e-21
2.74977e-21
1.99591e-21
1.84568e-21
9.67964e-22
3.9144e-21
1.10401e-21
6.95388e-22
7.602e-22
6.55574e-22
2.18382e-21
2.65291e-22
4.97152e-22
3.44965e-21
1.89072e-21
1.26297e-21
5.29953e-22
4.49295e-22
2.11883e-22
3.22527e-22
1.39918e-22
6.03734e-22
7.61228e-22
1.29423e-21
4.8604e-23
2.69953e-21
9.61147e-23
7.19987e-22
1.33555e-22
7.07401e-22
8.33006e-22
3.15675e-21
9.94393e-21
1.92504e-21
1.03031e-21
9.96299e-22
7.19012e-22
1.43353e-21
2.60682e-21
2.58424e-21
7.23836e-23
2.97218e-22
1.00097e-21
6.7714e-22
3.20673e-23
1.94991e-21
1.08777e-21
1.68347e-21
4.73982e-21
5.60518e-22
2.1021e-22
2.17184e-21
1.81583e-21
1.09457e-21
2.88886e-21
2.89487e-21
1.21833e-21
9.1051e-22
1.74836e-21
1.77406e-22
1.39071e-22
1.2216e-21
4.03179e-23
4.33291e-21
3.40021e-22
1.98045e-21
7.84312e-22
3.70803e-21
5.03734e-22
1.1422e-21
1.38999e-21
1.5363e-21
3.30622e-21
5.95482e-23
6.03965e-22
3.10208e-22
3.46835e-21
1.3702e-21
7.60666e-22
4.5123e-22
2.14004e-23
1.59739e-22
7.42136e-22
4.13609e-22
5.86615e-21
2.48024e-21
9.80256e-24
6.36599e-23
5.91568e-22
8.65818e-23
2.47989e-21
7.92569e-22
2.45961e-21
1.42053e-21
5.32511e-22
3.56902e-21
2.46281e-21
1.35903e-21
1.05088e-21
1.46173e-21
5.32736e-21
1.83488e-22
9.9388e-22
1.9259e-21
3.87324e-21
4.94141e-22
2.20919e-22
4.79891e-22
5.03819e-22
1.77522e-21
5.27851e-22
9.21659e-22
4.45785e-22
3.59939e-23
3.2478e-22
1.84472e-21
7.41446e-22
1.17249e-21
8.83517e-22
4.44354e-21
2.26693e-23
6.651e-22
4.80924e-21
1.24368e-21
5.73848e-21
8.43421e-21
2.08901e-21
4.45859e-23
5.3922e-21
9.1216e-22
3.50715e-23
2.84392e-21
1.11735e-20
1.26649e-21
1.43536e-21
4.27545e-22
2.92577e-22
4.48424e-22
7.75775e-22
4.75042e-21
1.89554e-21
1.01661e-21
2.71045e-21
1.37961e-21
4.95572e-22
6.40117e-22
8.1967e-21
5.29399e-22
2.04729e-21
2.41775e-21
9.19273e-22
3.31033e-22
2.52536e-21
5.98261e-21
4.23633e-21
2.0612e-21
2.88561e-22
8.35727e-22
7.68625e-22
7.21224e-22
1.98073e-21
4.49047e-21
4.78317e-22
6.72896e-21
1.89687e-21
1.06167e-22
1.13901e-21
1.49709e-22
5.44222e-22
6.83413e-21
7.41254e-22
1.33557e-21
1.64151e-21
1.10666e-21
1.11797e-21
1.344e-21
2.93263e-21
2.15703e-21
4.05512e-22
1.3094e-23
1.56557e-21
9.9403e-22
8.37918e-22
2.20205e-22
2.22115e-21
1.69324e-21
2.17544e-21
2.87172e-21
3.27218e-22
2.34282e-21
1.22158e-21
7.85905e-21
2.6615e-22
2.74027e-21
1.1369e-22
2.01232e-21
2.13466e-22
5.35571e-21
2.89446e-22
7.96365e-22
2.05167e-21
5.39666e-23
1.38626e-22
3.8918e-21
2.7e-22
1.92675e-21
8.43984e-22
3.13128e-21
2.43126e-21
5.30423e-22
1.04864e-21
2.85314e-21
2.48274e-21
5.28912e-22
2.40237e-21
3.75763e-21
1.00551e-21
1.84895e-21
3.31915e-21
5.40159e-21
7.20141e-21
1.49206e-22
4.45719e-22
1.00871e-21
1.0849e-21
4.39772e-22
1.32285e-21
1.70257e-21
4.1e-22
1.45554e-21
2.20342e-23
1.12833e-21
7.02685e-21
1.1991e-22
2.07849e-21
2.29185e-21
4.00221e-21
3.3806e-22
1.95888e-21
4.76007e-21
1.31008e-21
3.33989e-21
1.59375e-21
9.36766e-23
4.97155e-21
8.44591e-22
1.32251e-21
2.1482e-21
1.37078e-21
3.20107e-21
8.30683e-22
1.29387e-21
5.38388e-21
1.40402e-21
9.20791e-22
1.85985e-21
6.54719e-21
9.32205e-22
4.11103e-22
6.24481e-22
4.02713e-21
1.90726e-22
1.10391e-21
1.80917e-21
2.47013e-21
3.4792e-22
2.18171e-22
4.35048e-21
2.61788e-22
7.75415e-22
1.51781e-22
2.40578e-22
7.63082e-22
4.86773e-22
8.30706e-22
1.86191e-22
2.34071e-21
4.22461e-21
2.73721e-21
3.15336e-21
1.58191e-22
4.38112e-21
2.11803e-21
3.75288e-22
4.3491e-22
1.90703e-21
5.89873e-22
1.62546e-21
2.5698e-21
1.17132e-22
3.12315e-21
6.05176e-22
3.01005e-21
6.24917e-22
1.11856e-21
4.16899e-22
7.63317e-22
3.12331e-22
2.3809e-21
1.41303e-21
1.85974e-21
2.09245e-21
8.31187e-22
2.10744e-22
2.56146e-21
5.83156e-22
5.0899e-21
1.9346e-22
3.15564e-22
4.82308e-21
9.22745e-22
3.99495e-22
3.27927e-21
7.10704e-22
8.16867e-22
4.78345e-22
2.97545e-21
3.63666e-21
1.88698e-21
9.01748e-22
1.68211e-21
1.38393e-21
1.2899e-21
2.24424e-21
5.88045e-21
4.47937e-22
1.04675e-21
1.46446e-21
9.48867e-22
3.95779e-22
1.14063e-21
1.53982e-21
1.83295e-21
7.50575e-22
4.42066e-22
2.94178e-22
1.42115e-21
3.47287e-21
7.75426e-23
2.73109e-21
5.49715e-21
9.55693e-22
2.71502e-21
1.29366e-22
1.58367e-21
1.60662e-21
2.95778e-22
9.49112e-22
3.33643e-21
4.67447e-21
1.11667e-21
6.73228e-22
1.14626e-21
4.59917e-22
8.73354e-23
8.41721e-22
7.50469e-22
1.48777e-21
8.62623e-22
9.34347e-22
3.91775e-21
1.06519e-21
1.47362e-21
9.38588e-22
3.19321e-21
6.77998e-22
7.26903e-22
7.63259e-23
1.91471e-21
1.14782e-21
7.6693e-22
2.21497e-21
2.4524e-22
2.42081e-22
5.24898e-21
8.70504e-22
2.32437e-21
6.035e-22
6.61116e-21
4.92479e-22
3.84179e-21
2.27749e-21
3.54575e-21
1.42066e-22
8.35718e-22
5.9142e-21
3.77735e-21
1.73416e-21
3.26898e-21
7.03099e-21
4.51261e-22
2.14564e-22
4.02341e-21
4.49517e-22
1.36004e-22
1.42988e-21
1.70143e-21
4.40588e-21
3.24747e-22
2.57564e-21
3.12543e-23
1.33568e-21
7.41665e-22
3.16455e-21
9.44124e-22
1.43801e-21
5.98563e-22
2.84356e-21
9.8632e-22
2.14805e-22
2.16125e-21
3.99869e-21
4.3632e-21
2.06392e-21
7.8087e-22
1.22298e-21
1.67242e-21
1.74668e-22
1.75063e-21
1.05057e-21
3.7488e-21
1.96817e-21
6.01446e-23
2.28642e-22
1.62744e-21
2.20295e-21
1.37459e-22
1.14616e-22
1.06151e-21
4.41977e-22
1.24586e-21
1.09935e-21
1.53277e-21
3.90595e-22
6.77372e-22
2.72556e-21
1.79157e-21
1.2783e-22
4.1692e-22
6.17911e-22
1.81599e-21
1.30351e-21
3.32399e-21
4.025e-21
1.00976e-21
4.85951e-21
1.38845e-21
1.81844e-21
2.13787e-22
5.92853e-23
2.67733e-21
1.64196e-21
5.71927e-21
1.14689e-21
8.50367e-23
6.72877e-22
1.09571e-21
1.07844e-21
2.58327e-21
2.42332e-21
1.81928e-21
7.30783e-22
9.56251e-22
8.24898e-22
1.28303e-21
2.30182e-22
1.23713e-21
2.44499e-21
3.46971e-22
6.4384e-22
3.89838e-22
6.88925e-22
2.49493e-21
1.49777e-21
5.78637e-22
1.35983e-21
4.0417e-22
1.75496e-21
1.85726e-22
5.6944e-21
4.31014e-23
9.28025e-21
2.58181e-21
5.33551e-22
8.29316e-22
1.26903e-21
2.64874e-22
4.53193e-21
2.53048e-22
1.1871e-21
7.61593e-23
6.98693e-21
2.8001e-22
2.50962e-23
2.12407e-21
2.077e-21
3.92802e-21
6.54508e-21
3.37902e-22
1.52905e-21
1.60269e-21
4.67839e-23
1.22627e-21
5.60334e-21
8.01912e-22
1.9514e-21
1.10486e-21
7.20155e-22
1.1201e-21
3.81377e-22
1.1484e-21
1.44931e-21
3.3888e-21
1.71841e-21
7.51607e-22
2.9608e-22
1.55958e-22
5.52993e-22
2.44478e-21
7.11327e-22
3.35188e-21
4.56024e-22
1.25967e-21
2.74625e-21
2.46006e-21
3.10406e-23
2.63134e-21
6.54583e-22
7.46258e-23
2.66903e-21
1.77553e-21
1.88602e-21
5.37826e-22
4.78655e-22
4.28893e-24
4.19157e-22
1.02199e-21
6.54061e-22
9.62405e-22
1.6674e-22
1.16843e-21
9.61497e-22
2.86896e-21
3.59378e-22
4.23099e-21
5.53841e-22
1.93211e-21
1.98718e-21
8.12552e-22
3.73255e-22
3.14468e-22
7.05779e-22
1.16195e-21
1.98082e-21
9.39955e-22
6.01432e-22
1.66867e-21
2.79468e-21
2.4398e-21
3.36454e-22
8.09265e-22
8.45481e-22