/*--------------------------------*- C++ -*----------------------------------*\
  =========                 |
  \\      /  F ield         | OpenFOAM: The Open Source CFD Toolbox
   \\    /   O peration     | Website:  https://openfoam.org
    \\  /    A nd           | Version:  7
     \\/     M anipulation  |
\*---------------------------------------------------------------------------*/
FoamFile
{
    version     2.0;
    format      ascii;
    class       labelField;
    location    "0.007/lagrangian/dsmc";
    object      origId;
}
// * * * * * * * * * * * * * * * * * * * * * * * * * * * * * * * * * * * * * //


9379
(
314308
314487
316962
315518
316742
313901
319280
318263
322717
315304
316968
320620
323988
324902
325533
321838
326153
322369
325249
320213
327691
318578
326873
326968
329202
327074
325534
328196
324726
322667
328307
325238
323086
325560
328410
329305
326232
329712
329742
326430
320038
329954
331350
331351
330176
330674
325538
326561
329515
318173
325623
326548
328930
326576
328273
332089
326864
330887
331045
332400
327673
330748
333401
329816
330691
330950
329534
330571
330767
331273
332306
334414
331496
329848
331355
331390
324711
328611
330247
331472
334002
328401
330359
332401
332490
330246
333091
331857
332613
332615
333107
329843
334404
329634
331683
333208
330681
332397
329162
335033
330864
331777
327386
333220
333529
331975
332083
333388
334136
331672
332099
332912
334572
334778
335338
335744
330042
333728
334044
328807
329620
334429
333422
333429
334407
329318
332479
333520
324725
328328
327091
328528
333533
333723
331741
333647
335240
331685
332178
333918
334642
329525
333769
330661
331476
334335
332677
334117
335438
334447
333834
334323
334747
331075
331995
331258
333121
333821
335044
327571
328095
334242
334536
334644
335551
335702
335809
335814
330345
330550
335479
334232
334955
335074
335357
333936
335954
333236
335047
335842
335878
335983
336164
333420
334524
334745
335268
335492
337444
335643
335856
336499
333084
334550
335130
335348
336284
339119
334637
334646
337398
330672
334964
335042
335051
335392
335889
331057
332167
332576
335057
335148
335470
336279
337219
335968
335980
337303
328278
331042
334530
335385
335648
335846
333637
337411
337531
337584
323071
335049
335774
336585
338013
331275
335260
335673
336058
335764
335964
336473
336692
337120
337310
337838
338122
331876
332177
324828
336199
336487
333740
334854
336475
336682
337094
338732
334230
334537
336263
337286
337685
339933
331103
336741
337097
337305
337617
338002
332884
333504
334141
334736
334934
336185
336604
336921
337175
337209
338149
333432
333511
335333
335638
336260
336360
336704
336809
336974
337085
337090
337823
288711
339525
336267
337485
337646
337783
337993
332679
332608
335560
335772
336271
336695
338005
338241
338527
336158
334040
335447
336162
336887
336583
337288
337436
337488
337624
327563
333624
337176
337204
337700
337721
338645
338911
335138
331369
333621
337098
338011
338132
340046
337941
338119
338340
338375
338713
338744
339671
332080
336457
338023
338338
338466
338709
333832
335272
337610
337960
337994
333916
335437
337182
338308
338422
339002
339677
334210
336811
337000
337343
338433
339026
339560
337185
339015
335553
336085
336365
337618
339339
339530
335985
334559
336060
337217
337484
338020
338236
338245
338964
339027
341778
337071
328293
334532
338130
339462
340453
336497
337625
338705
338741
338854
338962
339137
339164
339446
331069
337825
338100
338724
339037
339857
333633
336294
336601
337378
339452
339527
339685
340408
334844
330578
338743
336819
337205
338557
339145
335747
336574
336679
336877
336906
337280
338118
340402
341171
334858
335555
336368
336989
337302
338009
338108
338836
338925
339518
340041
340179
340348
340541
340878
341019
342601
336687
333901
337592
339521
339669
339811
341042
341285
341594
341623
333015
328200
337804
338523
338610
339097
339674
339859
339975
340174
340375
340540
340687
340967
343005
343414
334224
335657
336471
337715
338543
338826
338935
339240
339340
339721
339833
340109
340267
340477
340481
340546
340900
333410
334843
337998
338839
338840
339463
339529
339865
340200
340368
340503
341180
342900
343413
336992
337711
338215
338224
338324
338521
339194
339773
340114
340675
340762
340793
340837
340892
340989
341412
341801
341875
336686
337195
338110
338803
339252
339275
339447
339458
339950
340993
337597
340196
340475
340604
340669
340718
340761
340904
340968
341377
341692
336895
338065
338206
339673
339746
339847
340695
340772
340919
337423
339142
339541
340451
340574
340777
340884
341210
341255
341921
335857
337296
339555
339955
339989
340448
340584
340727
340765
341614
329321
337498
339440
339769
340351
340498
341106
292303
335567
337509
337710
339793
340786
342182
340857
336083
336256
336495
340454
341272
341511
341622
341906
342187
342749
344027
337799
341773
342562
342703
339218
338832
339133
339438
340250
340370
340656
341009
341014
341476
341700
341732
341987
342431
342623
342713
337992
336320
337806
338824
340081
341133
341304
341333
341488
341991
342082
342116
342393
343044
337388
338444
339146
341689
342227
342533
342944
337497
338222
338326
338941
339279
339431
341026
341186
341609
341997
342035
342124
342330
342459
342921
343153
333332
339258
340277
341315
341496
341798
341805
341833
342107
342304
342539
342610
342626
337385
338808
339707
340561
340696
340855
341892
342050
342144
342240
342289
342429
342919
343142
333179
337907
339242
339660
339937
340252
340757
340759
340873
341114
341899
342003
342024
342303
342316
343817
338330
339127
340966
341193
341403
341797
342329
342437
342450
342509
343422
343654
343783
338016
338246
338916
339662
340980
341095
341404
341982
341988
342137
342217
342222
342410
342435
342541
342616
343023
343286
345355
339866
340893
340979
341487
341516
341886
342420
342842
342898
343351
343749
343917
344231
345771
339031
339349
339763
339962
340875
341688
341795
342121
342309
343390
343646
343766
344235
339148
341190
341310
341390
342201
342230
342430
342445
342664
342840
343007
343540
343587
336262
337920
338816
339011
339156
339948
340570
340894
341112
341582
341993
342101
342416
343341
344256
344289
345149
340760
341788
342204
342505
342721
343016
343412
343562
343572
337196
336174
338609
338616
340058
341783
342320
342516
342520
342526
342628
342723
342726
342818
342899
342945
343165
343248
343553
343557
343736
343918
345248
338615
340773
341593
341602
342125
342602
343111
343334
343469
343878
343972
344337
341884
338745
340144
340148
340178
341776
341989
342712
342946
343030
343434
343450
343945
344890
340990
340242
341518
341719
342023
342341
342525
342624
342733
342841
342853
343122
343257
343324
343649
343832
344749
339120
339231
340764
341269
341680
341807
342328
342412
342506
342914
343135
343311
344155
338752
339566
339766
341992
342188
342284
342439
342641
343131
343221
343360
343595
343751
343889
344086
344661
344956
345147
336462
340357
340366
340568
340578
340676
341189
341793
341880
341913
342197
343246
343653
344308
344367
344492
334305
338518
342511
342559
342816
342832
342902
343031
343032
343250
343976
344168
344182
344248
344349
344885
345108
345268
293789
341091
344548
338930
339371
339752
340654
340897
341419
341484
341994
342133
342419
342614
343144
343325
343558
343898
343964
344023
344055
344485
344490
344556
344989
337786
337902
340852
341612
341903
342581
342642
342915
342940
343037
343860
344176
344496
344558
345168
345212
345662
339441
338820
340467
341003
341077
341369
342080
342186
343534
343853
343966
343994
344050
344166
344228
344668
344916
344974
345360
338021
341883
342422
342426
342742
343021
343180
343547
343742
343846
343934
344136
344152
344246
344292
344360
344374
344475
344597
344712
344769
345098
339111
340783
341383
341601
341815
342288
342678
343767
343921
343949
344405
344820
344883
344901
345076
346988
294427
339023
340553
340981
341072
342008
342216
342715
342955
343564
343656
343734
343821
344047
344270
344488
344595
344646
344678
344690
344971
345485
329208
339032
340547
341897
343238
343837
343924
343970
344384
344469
344512
344520
344569
345005
345285
345866
334237
296960
339219
340973
341028
341701
341907
342293
342306
342390
343410
343971
343973
344073
344350
344353
344369
344468
344489
344662
344893
345077
345506
345619
338530
342296
342748
343038
343847
343935
344157
344267
344365
344486
344716
344773
344806
345380
345475
345557
345663
345667
345706
345803
345903
346329
347404
340344
340559
341696
341919
342198
343233
343322
343842
343936
343950
343953
344060
344262
344356
344501
344608
344774
344802
345152
345202
345295
345382
345486
342099
341101
343670
343884
343977
344149
344161
344310
344504
344565
344577
344673
344853
345017
345351
345399
345868
338022
340562
342708
343119
343753
343836
343928
344343
344438
344574
344593
344765
345100
345245
345616
345617
345688
345715
346590
337803
339336
340155
341397
341695
342537
342810
343761
344253
344466
344681
344779
344908
344961
344968
344986
345092
345352
345487
345629
345659
345807
345910
346210
348111
338029
339436
339961
340851
341402
342618
342625
342813
343134
343137
343252
343318
343440
343518
343963
344185
344386
344471
344480
344586
344905
345086
345090
345303
345321
345502
345657
345773
345920
346077
346336
343948
338538
340362
340465
340769
342317
342830
342906
343109
343822
343965
344128
344694
344978
345074
345169
345186
345294
345363
345569
345571
345794
345901
346409
334013
334650
338039
339115
340154
340563
342294
343346
343643
343941
344479
344566
344686
344772
344807
344969
345073
345262
345797
345843
346088
346177
346178
346213
346284
346516
346642
347399
340538
341079
343539
343541
344224
344339
344477
344481
344559
344564
344768
344784
345172
345310
345480
345729
346138
346536
346659
347344
339217
340774
341090
343747
344244
344450
344462
344917
344981
345111
345203
345777
345792
345838
345875
346005
346106
346220
346479
346585
346626
346648
346801
346833
338129
342740
342941
339220
341085
342896
343420
343551
344259
345463
345479
345798
345991
346131
346135
346625
346687
296876
341381
342004
343848
343922
343927
344754
344876
345264
345369
345559
345566
345592
345830
345890
345894
346016
346068
346105
346408
346546
346720
346933
347055
347143
339640
343112
343828
343961
344180
344361
344675
344786
345556
345705
346013
346109
346211
346323
346622
346711
346886
341917
338426
339776
341494
342302
342504
342617
343230
343447
343944
344864
345274
345373
345552
345570
345577
345591
345599
345674
345685
345694
345829
345906
345908
346009
346033
346305
346541
346552
346816
348170
343154
341117
341613
341791
342307
342417
342802
343620
344268
344578
344663
344755
344770
345177
345389
345581
345587
345594
345986
346054
346194
346235
346434
346900
347221
349038
341611
334947
341200
342801
343719
343816
344260
344373
344664
344894
345367
345625
345965
346225
347444
336272
297563
341297
341401
343623
344048
344493
344498
344679
345178
345260
345280
345784
345823
345825
346000
346112
346240
346512
346616
346618
346634
346698
346864
346882
347006
347417
347659
347672
347772
347944
334339
340872
342606
342803
343015
343515
343682
343727
344144
344233
344642
345150
345271
345379
345499
345517
345586
345809
345984
346317
346477
346553
346605
346615
346765
346799
346954
347032
347217
347301
347350
343121
338320
342221
343942
344052
344454
344553
345091
345558
345624
345814
345836
345884
345886
346110
346391
346500
346517
346639
346744
346759
346815
346820
347012
347017
347629
349450
337709
343731
343733
344170
344669
344878
344963
345511
345697
345943
346297
346325
346326
346388
346609
346636
346791
346802
346909
346949
347042
347130
347157
347644
347817
347879
344056
344362
340905
341290
341685
343066
343431
343435
343730
343930
344482
345083
345087
345254
345419
345712
345818
346014
346221
346302
346387
346410
346524
346613
346710
346908
346938
347026
347036
347112
347216
347337
347398
347455
347624
347919
345769
340544
340750
342519
342928
343559
344043
344568
344689
345061
345358
345384
345580
345681
345768
346019
346309
346327
346621
346818
346926
347004
347154
347471
347638
347847
348183
348221
348223
348733
337593
343115
343738
344227
344252
344461
344965
345163
345279
345282
345404
345710
345746
345831
345871
345999
346199
346319
346386
346393
346572
346620
346693
346943
347024
347062
347097
347099
347259
347407
347418
347572
347777
341092
344045
345497
345606
345808
345896
345977
346444
346716
347076
347132
347237
347339
347434
347554
347740
347767
347920
348083
348831
349037
344383
341378
344760
344863
344868
344870
345174
345291
345473
346097
346281
346330
346441
346563
346608
346689
346775
346796
347211
347224
347264
347416
347448
347560
347612
347654
347864
347871
348254
349248
350888
342699
339953
340854
341597
342704
343849
343952
344889
344994
346202
346384
346499
346595
346617
346721
346788
346931
347124
347159
347257
347408
347463
347536
347653
347865
347868
347898
348363
348726
297837
349246
349656
343421
343625
343720
345155
345157
345385
345610
345895
345966
346402
346412
346474
346614
346795
346845
347019
347035
347126
347203
347207
347209
347402
347465
347666
347735
347742
347782
347969
348056
348423
336389
342823
345476
345978
345987
346002
346310
346312
346539
346557
346702
346731
346805
346809
346930
346994
347030
347037
347045
347162
347227
347475
347713
347721
347737
347851
347902
348063
348144
348153
348523
348862
349655
350051
344037
342403
343225
341506
343320
343328
344359
344563
344667
344674
344682
345103
345785
345802
346205
346360
346381
346419
346478
346484
346493
346700
346732
346751
346847
347021
347092
347152
347263
347348
347443
347667
347752
347841
348147
348322
348367
348541
342114
342732
343127
344775
345067
345362
345887
346206
346399
346501
346697
346737
346869
346891
347222
347524
347548
347597
347670
347749
347778
347842
347953
348044
348369
348431
348487
348796
350362
297480
341482
339858
342621
344138
344142
344478
344672
345277
345305
345865
345882
346119
346129
346405
346498
346519
346523
346586
346599
346682
346722
346760
346804
347041
347244
347343
347460
347507
347528
347545
347578
347846
348053
348060
348117
348128
348137
348165
348250
348253
348348
348573
348681
348969
348981
350053
298474
339543
341702
341774
343644
343729
344761
344966
345055
346094
346100
346231
346345
346714
346798
346808
346817
347028
347054
347121
347141
347376
347440
347445
347506
347619
347641
347646
347650
348070
348184
348220
348384
348450
348567
348755
348861
348917
349278
349336
344357
340489
344154
344656
345164
346322
346475
346641
346644
347016
347084
347236
347319
347373
347396
347447
347496
347550
347571
347647
347729
347738
347829
347860
347870
347940
348026
348152
348261
348286
348784
349375
351392
343946
344858
344964
345467
345671
346114
346201
346400
346508
346787
346811
346814
346837
347133
347246
347516
347539
347937
348031
348058
348260
348280
348657
348779
348782
348803
348959
349056
349173
349597
349654
346289
341677
343427
343629
345484
345811
345972
346115
346280
346389
346502
346601
346928
346989
347050
347212
347213
347225
347251
347265
347328
347347
347349
347353
347372
347377
347497
347623
347645
347660
347848
347960
347980
348151
348158
348257
348277
348376
348390
348470
348566
348663
348773
349235
349391
349667
349811
344859
342605
343737
344685
344967
344976
345175
345563
345596
345885
346086
346212
346283
346650
346917
347025
347095
347127
347201
347240
347274
347449
347618
347706
347780
347876
347892
347897
347911
347951
347967
347971
348027
348064
348119
348160
348167
348171
348276
348356
348415
348443
348747
348769
348774
348837
348863
348972
349082
349175
349304
349383
338838
343232
343313
344363
344453
346090
346394
346706
346832
346889
346935
347100
347312
347428
347563
347565
347639
347651
347727
347734
347755
347823
347827
347959
347961
348003
348178
348236
348477
348500
348546
348584
348592
348670
348675
348775
348810
348866
348872
348886
348970
349070
349495
349552
350465
340342
341507
343550
344653
346308
346511
346841
346940
347009
347010
347125
347138
347403
347478
347485
347549
347562
347640
347642
347711
347832
347837
347845
347852
347956
347983
348129
348136
348176
348186
348224
348270
348295
348301
348329
348347
348370
348381
348486
348552
348641
348646
348673
348687
348770
348887
348910
298971
348989
349066
349142
349185
349359
349399
349856
350200
340963
341981
342421
343839
344958
345275
345481
345979
347078
347101
347195
347220
347226
347313
347446
347566
347873
347927
348082
348155
348243
348264
348274
348435
348569
348576
348745
348766
348852
348879
348899
349036
349105
349276
349280
349551
349588
298807
345971
345180
345283
345296
345883
345994
346521
347117
347420
347625
347715
347728
347753
347833
347857
347921
348037
348096
348166
348196
348244
348287
348343
348474
348482
348547
348582
348661
348679
348759
348851
348984
349064
349090
349143
349210
349267
349285
349311
349378
349471
349574
349677
349743
349896
351094
351302
339561
344255
338549
344472
345806
345888
345909
346488
346513
347031
347118
347119
347321
347530
347531
347658
347710
347815
347935
348068
348135
348156
348164
348273
348385
348578
348651
348677
348731
348804
348846
348868
348987
349093
349299
349368
349452
349723
299495
341182
343531
343637
344265
345472
345554
345684
346514
346520
346890
346903
347205
347230
347233
347254
347415
347442
347540
347632
347732
347748
347781
348124
348252
348400
348444
348591
348656
348664
348876
348958
348967
348996
349003
349043
349190
349205
349315
349361
349414
349437
349487
349499
349505
349511
349527
349562
349570
349726
349987
350010
350365
350564
350673
343129
344766
337589
342285
343329
344352
344849
345162
345783
345891
346294
346406
346510
347020
347102
347218
347235
347298
347318
348040
348350
348382
348451
348480
348494
348536
348705
348754
348777
348780
348789
348871
348877
348991
349008
349050
349073
349087
349298
349583
349614
349696
349869
350214
350361
351193
343323
343335
343740
343835
344660
345267
345383
345465
346209
346306
346707
347147
347307
347616
347693
347720
347839
347973
348035
348256
348366
348519
348556
348597
348606
348644
348672
348680
348751
348957
349187
349188
349193
349216
349230
349291
349305
349312
349319
349357
349500
349606
349610
349642
349713
349781
350201
350257
350301
350304
350735
335062
343052
345774
346102
346311
346415
346881
346910
347013
347128
347231
347324
347325
347450
347567
347637
347934
347963
348036
348110
348118
348173
348331
348404
348448
348468
348622
348650
348666
348778
348932
348945
348986
349260
349279
349290
349294
349309
349328
349347
349393
349400
349440
349474
349537
349888
350385
350481
350566
350778
350986
352205
336383
344560
344455
341183
343728
344650
344872
345276
345477
345574
346099
347215
347451
347774
347811
347831
347925
347938
347942
348050
348145
348258
348284
348440
348460
348616
348652
348667
348748
348874
348941
348964
349078
349079
349080
349089
349146
349249
349277
349429
349568
349640
349668
349710
349720
349759
349794
349802
349821
349840
350130
350205
350210
350366
350845
351370
299955
346712
345869
340165
341874
343027
343545
343833
344261
345065
345353
345578
345699
346069
346180
346189
346603
347206
347314
347452
347643
347649
347824
348080
348113
348134
348142
348330
348334
348336
348374
348388
348439
348484
348562
348654
348665
348728
348870
348980
348982
349166
349204
299490
349386
349392
349415
349472
349482
349513
349613
349623
349675
349681
349742
349819
349843
349894
350073
350089
350516
350541
351019
348712
341781
344652
344759
345173
345249
345872
346091
346200
346282
346290
346606
346713
346894
346902
347512
347523
347537
347622
347724
347933
347988
348263
348353
348360
348446
348534
348551
348740
348743
348850
348948
349052
349097
349106
349172
349182
349217
349306
349321
349372
349445
349467
349491
349601
349664
349801
349853
349870
349883
349969
350054
350134
350298
350310
350337
350511
350531
350671
350815
351153
351897
300736
299246
347414
343437
345782
346507
347322
347505
347850
347863
347970
348025
348049
348052
348075
348227
348352
348454
348563
348607
348857
348873
348900
348905
349083
349128
349177
349222
349274
349385
349408
349477
349576
349603
349605
349678
349785
349846
349857
349904
349999
350100
350103
350125
350203
350221
350437
350544
350602
350780
351297
351698
352104
344783
300737
298109
299422
340859
343915
344242
344654
344953
345967
345975
346810
346911
347107
347631
347739
347770
348120
348126
348246
348249
348432
348457
348465
348475
348512
348588
348596
348684
348692
348855
348856
348869
348943
349071
349180
349244
349269
349296
349395
349398
349512
349526
349592
349596
349676
349695
349793
349815
349839
349868
350209
350329
350415
350570
350586
350933
300459
352106
344645
345060
345099
346699
347423
347826
347844
347861
347947
348062
348132
348333
348339
348429
348565
348585
348648
348739
348838
348864
348955
348962
348968
349085
349218
349370
349444
349451
349459
349489
349504
349523
349582
349586
349687
349690
299232
349789
349790
349797
349875
349882
349898
349912
349985
350059
350085
350101
350112
350165
350232
350246
350294
350308
350423
350509
350631
350732
350843
351249
346806
345690
345478
299339
342295
344443
345156
345678
346176
346878
346892
347509
348057
348059
348327
348342
348359
348442
348461
348553
348696
348798
348847
348951
349253
349286
349348
349387
349463
349473
349609
349689
349703
349784
349798
349804
349891
350016
350090
350198
350207
350218
350224
350359
350396
350399
350604
350606
350719
350831
350913
350954
351384
300286
299949
339843
342717
343919
345167
345576
345969
346425
348038
348247
348355
348426
348668
348689
348690
299229
348963
348966
348971
349164
349219
349268
349379
349420
349478
349578
349674
349749
349764
349777
349817
349826
349899
349911
349916
349983
349986
350011
350082
350088
350116
350160
350176
350177
350181
350190
350241
350395
350412
350519
350695
350698
350737
350951
350961
351027
351535
352107
352410
300662
348436
299712
341908
343216
344139
344847
344855
345153
346288
346291
346380
346877
346893
347113
347115
347432
347741
347976
348361
348453
348456
348511
348741
348763
348891
348939
348977
349141
349200
349247
349292
349409
349475
349502
349522
349572
349692
349700
349722
349774
349803
349810
349855
349880
349897
349922
350068
350081
350097
350204
350206
350213
350288
350432
350488
350557
350609
350733
350846
350914
350940
351034
351037
351293
348357
346082
346792
347122
347317
347357
348069
348232
348266
348483
348713
348719
348756
348776
348954
349057
349067
349098
349116
349186
349208
349262
349264
349374
349468
349485
349498
349658
349682
349688
349705
349728
349732
349767
349788
349812
349877
349964
349974
349989
349995
349997
350005
350006
350102
350120
350202
350216
350276
350279
350367
350413
350484
350525
350538
300632
350605
350701
350706
350710
350718
350730
350731
350743
350776
350816
350992
351011
351055
299764
351235
351299
351301
351596
351644
351697
343844
300633
347110
343519
345361
345585
346404
347663
347818
348109
348215
348328
348387
348548
348718
348928
348976
349039
349176
349261
349337
349371
349481
349488
349565
349590
349633
349680
349884
350042
350069
350076
350080
350192
350195
350212
350277
350290
350345
350405
350520
350593
350619
350620
350644
350717
350742
350773
350826
350848
350881
350886
350963
351008
351021
351152
351330
351365
351465
351653
352314
352623
300385
341100
348841
344151
345469
345780
346781
347000
347011
348046
348143
348237
348434
348635
348703
348772
348883
348946
348979
349072
349397
349580
349644
349685
349799
349940
349954
349967
349982
349990
350067
350141
350161
350293
350299
350303
350363
350382
350386
350421
350507
350587
350595
350638
350708
350724
350727
350736
350788
350814
350817
350894
350967
350981
351036
351054
351117
351142
351228
351662
301516
345582
344970
345482
345980
346215
346691
348042
348558
348764
348765
348781
348835
348901
348983
349055
349147
349149
349153
349224
349271
349284
349310
349454
349549
349566
349581
349589
349598
349607
349715
349822
349879
349881
349893
350017
350074
350143
350240
350302
350316
350411
350596
350618
350629
350637
350658
350662
350696
350705
350830
350901
351024
351061
351131
351221
351340
351354
351423
351429
351447
351646
351858
351901
351962
352201
349131
346096
300392
345779
343223
345877
346476
346906
347311
348614
348722
348892
349002
349035
349084
349115
349158
349251
349358
349542
349737
349874
349890
349895
349903
349908
349965
350004
350045
350078
350234
350285
350325
350364
350475
350512
350515
350530
350597
350600
350642
350702
350704
350770
350790
350832
350949
350957
351135
351253
351364
351436
351458
351467
351484
351528
351595
351624
351629
351659
351843
351878
351932
352043
352102
352180
300550
301261
346081
347309
347621
348033
348054
348122
348438
348640
348771
349018
349456
349719
349861
349906
349984
349988
350014
350084
350117
350252
350267
350346
350388
350393
350422
350427
350501
350543
350594
350640
350648
350674
350807
350820
350829
350938
350956
351010
351014
351031
351032
351043
351049
351124
351212
351230
351259
351260
351295
351358
351448
351558
351848
351865
352091
352204
352627
301010
301270
353840
301949
300819
349844
343145
346187
346719
347341
347431
347517
347552
348346
348750
349053
349108
349384
349575
349591
349704
349786
349865
349907
349930
349972
349998
350072
350079
350110
350187
350223
350319
350328
350402
350407
350420
350429
350503
350581
350607
350614
350616
350633
350723
350739
350836
350838
350907
350936
350948
350983
351013
351045
351126
351146
351164
351237
351335
351360
351425
351478
351536
351551
300901
300115
351738
352073
352308
301258
346703
346784
346984
347190
347308
347439
347518
347628
347928
348089
348179
348234
348532
348533
348637
348884
348995
349047
349048
349061
349096
349171
349231
349266
349275
349355
349382
349671
349709
349887
349902
349909
349970
350049
350095
350126
350189
350236
350265
350327
350332
350380
350430
350580
350585
350611
350762
350798
350803
350827
350906
350910
350923
350925
351020
351111
351128
351139
351160
351171
351217
351262
351348
351401
351437
351565
351625
351658
351770
351849
351854
351982
352036
352047
352126
352150
352158
353130
346214
340596
345695
346780
346883
346985
347725
347726
348255
348349
348391
348433
348437
348469
348540
348638
348752
348965
349076
349220
349263
349476
349516
349594
349630
349670
349780
349808
349813
349862
350012
350108
350113
350297
350300
350307
350335
350379
350425
350435
350506
350715
350809
350916
350929
351022
351040
351042
351047
351072
351140
351229
351231
351252
351291
351343
351355
351438
351439
351445
351531
351533
351552
351562
351652
351670
351755
351758
351807
351811
351825
352052
352067
352142
352480
352660
338920
301362
353950
349432
343231
345079
350551
345160
347326
347835
348219
348430
348464
348545
348643
349058
349768
349791
350036
350060
350094
350269
350270
350313
350428
350522
350523
350539
350546
350584
350636
350703
350766
350818
350822
350823
350824
350919
350921
350935
351044
351123
351134
351149
351163
351204
351261
351351
351383
351435
351442
351494
351572
351614
351639
351648
351671
351711
351722
351844
351857
351869
351884
351894
351946
351992
352062
352256
352270
352307
301180
353024
353093
301617
346487
346496
347943
348048
348543
348685
348859
348949
349020
349075
349530
349556
349724
349734
349827
349866
349937
349975
350025
350163
350170
350185
350275
350289
350291
350322
350406
350443
350445
350498
350504
350513
350536
350569
350628
350713
350747
350749
350801
350840
350841
350883
350959
351012
351050
351051
351062
351150
351224
351282
351321
351350
351400
351412
351451
351490
351522
351547
351751
351793
351955
352075
352101
352164
352179
352194
349016
352229
352250
352357
352481
352783
352955
353030
351197
350150
345567
346295
348039
348248
348978
349054
349063
349100
349138
349140
349178
349195
349699
349782
349792
349805
349806
349818
349872
349878
349914
350015
350064
350138
350237
350259
350272
350306
350392
350398
350436
350446
350491
350571
350576
350639
350753
350760
350852
350905
350947
350995
351086
351109
351141
351176
351213
351236
351247
351300
351356
351373
351396
351404
351413
351421
351427
351432
351453
351464
351468
351480
351524
351538
351567
351657
351666
351675
351679
351744
351771
351830
351845
351850
352034
352099
352103
352191
352202
352265
352280
352464
301352
355183
347297
301099
299271
300908
339025
346004
346084
347108
347302
348240
348304
349065
349169
349281
349494
349577
349738
349796
349958
350001
350099
350235
350284
350360
350371
350401
350518
350521
350556
350692
350712
350797
350799
350800
350808
350811
350854
350918
350998
351077
351118
351121
351125
351132
351202
351225
351226
351274
351296
351311
351371
351406
351477
351539
351541
351548
351554
351555
351577
351650
351663
351796
351803
351838
351840
351875
351898
351930
352085
352095
352175
352235
352245
352261
301173
352381
352383
301950
352449
352516
352725
301349
301868
348378
345675
346279
347520
348125
349761
349807
349859
349900
350273
350377
350390
350441
350452
350583
350714
350728
350755
350922
350932
350969
350980
351023
351089
351095
351104
351114
351129
351144
351170
351209
351243
351251
351267
351278
351280
351312
351324
351329
351331
351347
351359
351366
351411
351461
351512
351627
351638
351643
351726
351782
351837
351937
351948
351977
351980
351989
352035
352040
352045
352268
352309
352313
352443
352572
352573
352607
352619
352644
352720
352814
352861
302665
353228
354257
345378
347830
342297
344148
345071
345492
345876
347533
347535
348727
348935
349553
349584
349662
349672
349854
349921
350188
350287
350321
350372
350579
350804
350805
350812
350813
350833
350928
350971
351067
351232
351255
351258
351287
351344
351372
351527
351532
351616
351631
351656
351660
351665
351684
351707
351717
351732
351734
351745
351750
351784
351928
351934
351961
351987
351999
352021
352054
352069
352148
352156
352247
352253
352274
301175
352374
352430
352433
352471
352672
352674
352797
353004
353102
301089
301446
347814
301269
299147
340983
348323
348344
348836
348929
349381
349405
350002
350052
350136
350296
350492
350505
350627
350691
350707
350857
350899
350975
351016
351080
351112