/*--------------------------------*- C++ -*----------------------------------*\
  =========                 |
  \\      /  F ield         | OpenFOAM: The Open Source CFD Toolbox
   \\    /   O peration     | Website:  https://openfoam.org
    \\  /    A nd           | Version:  7
     \\/     M anipulation  |
\*---------------------------------------------------------------------------*/
FoamFile
{
    version     2.0;
    format      ascii;
    class       labelField;
    location    "0.007/lagrangian/dsmc";
    object      origId;
}
// * * * * * * * * * * * * * * * * * * * * * * * * * * * * * * * * * * * * * //


3157
(
17949
10888
5270
9034
21275
21351
25395
9172
25007
29189
28369
12100
9988
19147
28428
19949
11162
5716
13957
25356
28253
7984
25526
27457
27598
24734
24877
13169
11550
11577
23321
26214
22695
9553
31365
7869
11855
32596
6246
32151
11897
23310
27590
20887
17304
30673
8844
31965
36592
31089
34823
21209
5381
10919
32663
4611
22576
35663
33158
15750
20161
31736
12242
20552
7240
12289
7278
12331
12340
15041
34289
40342
12396
10274
10982
23104
12010
12463
35704
10210
30852
34687
33548
29288
12520
29823
35634
17008
6648
35639
39900
41578
12583
36383
12596
29849
18955
37789
40838
12626
19268
12677
32547
31989
11317
7078
12706
23898
24294
23836
130
35656
40812
8618
5759
18089
6991
12789
41070
35977
12803
10816
12819
25854
29209
32087
34417
34409
616
26509
38394
12874
27113
12892
31285
25289
12909
38868
12936
12937
12225
24803
8510
40352
8460
39790
42157
12991
12341
27111
35797
35033
35548
13040
22853
11050
13056
11754
13065
18500
16644
23198
32317
13761
8481
42809
13116
38916
11866
42736
13123
37562
13132
40721
11565
25816
9701
6825
28853
8086
13171
13183
15471
13191
13234
37322
6420
13212
25606
7847
27728
42232
43627
13235
34373
25782
12778
36613
13259
24095
41398
27686
6295
29321
23041
19664
38547
38414
19115
7968
13312
39814
13321
13331
33676
42252
15991
8519
41326
23232
34524
39637
13370
12925
33996
21132
7007
28681
18525
43827
37360
33849
12237
13411
35522
13417
13421
9353
42361
6827
13432
29591
11592
13438
44288
13474
44809
26607
35092
18822
37662
13498
33239
37242
43806
13516
35253
13528
13534
30647
29950
40116
13062
6347
31488
13551
40752
39252
11134
44671
34003
46255
26981
22593
32940
23982
27936
13578
33877
13583
18428
12142
42198
40165
43825
10120
42679
10691
30743
33701
7799
44415
45163
33233
7514
21184
44589
35994
38863
13655
12873
36752
35288
7373
31060
13671
7794
13205
17471
40998
39693
30940
36544
39508
45416
40517
8502
25976
16020
26760
38663
33463
42369
42201
45396
31257
40577
31330
6137
43685
13743
11973
46077
39794
36536
22198
19954
44853
13747
13757
18813
12559
23008
30148
47130
38771
13764
23936
13768
37541
32081
32752
11121
34173
7363
7621
13785
33605
33748
8750
32379
29483
38319
39805
28178
29696
11634
13810
35524
13818
5130
8703
43912
11719
10809
8280
21325
12382
29764
16729
38684
13851
20896
34513
41640
19708
13857
13863
37043
13870
34635
24933
31510
16772
41642
13877
30283
36982
42066
11322
42139
38307
13898
46108
32079
10809
33266
31702
45068
45246
34325
44289
11267
35662
10798
34770
7923
21358
39115
40163
41243
15896
41609
5747
46718
38454
44925
7180
41192
44363
41204
27809
15561
43543
39153
2130
40620
27392
7204
45347
43057
30063
27318
13187
33942
44817
13911
41760
22642
43203
26305
39457
6225
24920
18198
168
19570
720
41024
21654
39464
24257
41062
35008
13997
13629
46903
7433
46389
12871
46540
45589
14010
10584
13642
14015
35664
9818
46489
10032
14035
47993
44410
14045
21470
13064
46933
47766
41005
12124
38592
28040
13086
34599
34783
14059
10783
46688
11132
14063
20958
35784
43031
42228
41868
29341
14064
14066
31864
11579
44752
43723
14078
13984
39023
14097
33323
14098
13096
13301
46309
10443
48477
43405
37579
8103
23559
8396
40860
37161
40613
45182
21105
48081
14110
13676
27950
27709
14124
14126
14127
43926
13800
14134
14135
12190
14138
29005
35359
29296
40796
41131
39319
17893
35031
38098
11634
14152
19144
30461
13809
10495
14163
10621
27132
20142
12507
46445
40768
42223
14183
16789
39374
41336
8121
44958
31628
14188
17864
14195
13545
7083
23608
38884
49069
6889
43426
26793
12949
12092
37856
7914
46720
24450
40148
8913
39526
12449
26837
38799
44555
38807
43622
27146
36662
36612
37840
14908
35696
37734
13646
14243
34506
33087
16433
5652
14250
14251
38791
47642
19145
28980
35776
12544
43839
33286
14259
31012
41740
36518
14262
14265
14266
43525
39287
13124
37141
24963
14273
40118
4874
34066
34839
36395
6788
36743
14278
13063
34904
14289
39672
49182
47322
12359
7082
47006
14293
14295
24827
13231
14306
34242
14311
39873
48630
31683
12003
11812
43785
26993
41389
20236
21735
14323
30253
14327
39347
45568
39154
21402
11494
39932
10129
10604
39116
35364
25736
14338
17597
15799
13831
14342
32768
40642
14347
23999
36161
34882
21805
13728
40126
16833
44139
29668
39147
35671
13294
14360
14364
16229
14369
9454
46045
44697
41193
44035
29229
36332
14379
21404
21326
11288
20004
6258
33548
35493
10036
48087
35373
12271
34076
43959
13426
10879
22847
15872
49330
20560
13184
15362
15024
13843
14413
26341
46700
14415
38061
42489
44192
33249
20710
48237
14421
34299
29086
30090
44988
44866
9025
14430
14433
14434
14440
11942
10131
37213
45166
13582
11501
41617
41064
49603
28890
36964
14454
14457
26379
30137
41108
14465
39335
44431
49106
18688
19392
32368
9382
50301
10195
28130
14246
40324
39896
2327
37677
14260
14473
7106
11148
46371
14480
16304
1413
9639
28416
16540
10988
25977
29838
31145
47267
18694
18699
14494
7357
31624
10684
16210
38232
45824
14500
36482
47439
19263
29743
49889
14505
46227
46867
14513
14514
29985
44966
32217
38245
29011
16812
16890
48561
14267
35189
37392
13659
40653
43518
12372
14527
11980
11944
14530
14533
28611
20150
41218
34503
27907
33525
28435
41651
44040
15070
14545
14546
30922
31877
46502
10512
14550
21895
45017
45962
5810
33211
41774
14555
14557
27257
33441
9770
44565
12743
35171
37671
1963
44561
46538
10254
36954
45044
32411
24323
47684
14358
44618
44244
47960
29466
42530
14576
14774
47513
9548
14577
42863
14579
37206
44469
42641
50239
14584
14586
42581
10100
36562
14224
40060
14590
14591
14592
13390
9619
14634
31725
46737
48025
13542
17660
22914
14607
23490
50614
14610
14613
43279
18763
13520
10529
14615
11422
20423
23054
2331
17927
13815
49890
13229
46722
13826
1216
31669
35009
14620
38767
33971
34904
34136
9973
14622
14624
47243
14631
33944
47297
49328
14632
35513
6575
26041
14634
46605
27769
14637
42875
29339
34187
13486
47965
50366
14645
34102
32033
48425
33543
14650
186
14280
47740
43328
48270
8620
14652
5516
40055
10952
14653
14664
42848
49207
14672
41822
44365
31330
49519
14559
29422
10460
47840
18405
38519
39133
25461
50624
31466
14681
13444
12461
35575
29901
13387
49540
25373
51049
14686
11396
16917
31292
48341
43562
29418
14114
34087
1248
47987
14696
14697
35257
10151
29137
28485
7395
14700
11840
10098
43507
46707
44194
28132
14703
11476
37895
18495
10973
14706
11749
33537
40781
44016
11226
40398
37913
50964
14713
14715
24332
37645
41260
24298
18194
48687
14719
13926
33090
44349
13880
14729
40474
8687
12045
31425
24620
46761
46228
19604
44486
47734
16566
22849
6109
48350
5882
14740
14743
42689
25917
40156
49920
14746
14748
39369
44275
47446
48068
38666
39864
39439
44838
29040
27954
39859
44124
47296
28362
17946
13128
49158
45425
37122
51645
36478
43652
37429
35706
16315
30565
14001
25828
36109
14767
38921
36957
39359
38046
38091
19762
39561
46984
7872
14772
27997
49109
46069
37846
9374
26016
50963
47487
14779
14782
26047
29635
12348
21705
29964
32851
50304
34133
26681
48551
14790
20581
44060
22831
30178
28553
14795
43616
48947
40356
49993
14803
25695
9014
35599
42265
28547
23367
49565
31571
49139
31489
14816
39513
42695
37581
43147
14471
14823
14824
21423
22363
14508
14404
34129
24749
32240
10305
48114
10020
27439
50550
51573
14830
26708
26885
46517
42982
42519
14833
11009
25373
41921
19219
39957
48325
43266
45767
38307
14569
38282
10623
44292
48372
22421
18863
27961
45770
14116
26960
34854
14366
14847
14850
45240
46880
14346
14855
31985
45916
13840
35508
21002
41488
49667
45050
44122
50852
20461
14862
40335
40498
26316
14864
12460
38915
13431
19853
14870
14873
6656
49937
51311
14875
14876
14881
37741
43482
45415
9262
45080
48871
37780
45640
35398
16786
25959
12416
14886
39803
12838
51274
14888
14890
12047
14892
45614
46056
41723
29485
32792
9968
12902
28764
48328
9751
14061
52257
14902
38240
15466
48678
50381
12703
43652
14904
39796
39501
48005
24078
40144
14907
14909
14910
40361
48552
42761
52180
26813
13989
24622
14918
40040
45019
21907
40988
30259
49379
12276
48810
14164
12922
45376
25814
12582
48688
14920
37843
18675
7233
36935
13801
52387
44200
32354
50669
40693
14928
16293
44967
12399
36870
14930
14932
13404
50996
43159
14560
14937
19860
10142
14940
20775
14169
37755
35117
44804
14947
14950
14951
34341
44538
47080
28104
14955
14957
26261
40797
23180
47398
47512
20761
14959
35886
14523
31471
31199
50114
45317
8779
31238
12099
46447
7516
34243
7255
49256
41903
24931
14964
14965
42561
44012
44644
12943
36886
49653
14970
39046
42445
12797
13110
14331
42627
28601
36293
36125
14975
43305
20595
11094
46464
49405
49693
14977
13244
28460
24160
29790
21841
50670
50802
13455
47410
46381
14982
46555
40028
14983
14984
30855
12068
14384
8543
14989
45413
28858
33095
45381
10066
11705
49291
40973
46711
14994
12141
14998
15002
11470
50109
12445
15003
13135
34820
34712
44721
38239
40226
15009
15010
44260
14062
22019
33359
15015
15016
47364
12346
20935
15018
15019
7880
45213
15020
15022
41761
30439
24779
31053
32698
37735
12095
45761
26630
40547
34141
32111
5788
15033
15036
40751
12843
51888
52434
15037
6165
30188
6641
15038
40560
10679
12212
42273
15039
9011
46375
47288
28022
52700
15041
15042
29518
29126
15044
15046
41053
20506
10857
32308
40005
41922
47902
8217
51582
33122
32752
21201
39109
15174
48064
15054
37808
42725
41167
28113
49146
22856
49934
26233
45635
15067
42041
41848
52435
39137
39148
27460
37085
51424
8449
51186
14571
31077
16554
37697
12829
15074
7268
45859
47043
15088
30878
39059
43718
45193
15089
15091
15092
18334
2149
33132
49028
49726
26069
45517
42547
13381
38971
16328
51764
38206
43918
47132
14357
15097
15098
47645
45505
13124
14442
15100
15102
15103
48003
45641
42981
15104
15106
15108
35382
36185
51062
47468
52433
50017
15110
33439
34662
44257
38257
24239
11450
30620
44355
40393
43809
32359
33850
44121
45366
48837
44459
27374
27287
43728
43808
46570
7171
49945
19715
11469
47587
15115
15117
41211
39169
50411
15120
35727
13258
52918
15122
15123
15124
12947
46492
10393
15126
39964
46173
47841
5617
47579
48814
15129
41447
15131
15133
37171
34224
16824
44099
50061
52796
47583
47057
15135
15138
15139
15140
15141
15142
47621
41904
6211
15147
20633
42854
36808
50840
20913
15149
10236
46034
37708
47222
47810
47918
45124
14738
49916
26851
30193
42775
32156
40458
51292
20125
15157
39270
43440
25959
40151
15160
15161
38837
22698
44497
24400
49825
15166
7933
41108
38628
46725
48289
47646
51245
52181
15168
22718
41120
47187
26127
9525
15170
15171
15172
48413
48431
48089
38595
43563
9926
14691
17405
34361
33894
28051
38720
15176
6295
40080
48130
15178
15179
15180
7637
48389
51821
46798
41515
13549
50191
19883
14002
15687
51844
46400
15184
13800
11010
49315
13393
12990
43346
9699
41821
42806
11012
50144
51020
50687
15483
15189
15190
15192
45837
7104
30420
8928
24668
15195
13636
14804
15197
42956
39083
42286
17239
47556
50941
35970
31124
52452
46426
37027
41999
28447
35557
42904
42712
38749
44389
31149
41384
29903
12441
32176
51152
35761
15025
11357
43618
45748
50150
53112
47030
15211
15212
15213
15215
14002
14390
52519
52198
42019
16850
13060
49910
36844
44502
29123
45501
34932
35246
39750
46977
18136
14988
15227
39738
21596
14504
42132
39293
43676
47189
53463
51898
15229
15231
35543
31339
39134
29428
53081
34011
21011
15235
15236
44803
19757
9905
47944
26879
35036
48731
12185
40161
14808
34389
14574
12960
43891
15246
15248
13661
38098
37154
31344
8926
15251
49717
51674
1005
21113
43993
32386
15254
31529
31418
7433
42460
50884
51753
50621
15258
15259
15260
46028
13119
14671
53403
53589
34228
10848
47112
36748
46164
46751
51734
52026
46189
39185
39888
33982
42334
33584
10937
7346
35177
20759
13410
53422
39937
18906
42915
44615
14793
53796
25136
15265
15266
15267
15268
15269
32047
23164
45529
39101
53843
15272
11379
12709
41664
47180
36187
50420
15276
45847
39365
44686
29475
38974
33262
10417
17583
47548
14205
10002
53952
15279
43531
6882
28537
28431
46020
40222
52215
42134
15280
10547
21473
36419
42175
11773
9831
24856
17412
35421
48329
15283
15284
15285
15286
15287
15289
44612
34176
38614
47437
40464
5937
45934
51512
13558
12265
44213
28023
15291
15293
37514
31433
50372
15297
15299
15300
15302
49305
14687
15304
15305
15306
15307
15308
45009
28311
48168
50685
53571
14318
15309
48202
13155
14079
5450
27768
15312
15313
15314
40291
38301
9669
37338
48537
49060
52411
15318
15319
39364
15682
45160
33630
44770
38971
53201
49369
34869
15321
15322
39013
46481
45264
42723
47778
36323
31465
43819
7003
36616
41667
48909
45486
31728
45181
29445
31768
41831
47040
9169
15078
6781
16339
33368
14241
15325
15328
46904
24287
14521
42073
15334
38189
18712
14660
23194
14877
12653
15335
15336
29101
39200
27894
15337
15338
13580
27399
50893
43252
47453
50706
38438
33111
29564
50683
15341
26909
33116
42990
34681
48994
49181
50232
39606
47596
54230
49130
15345
15346
15347
29892
37145
35298
14070
44857
43082
15351
48862
36961
40109
50513
51333
45602
52808
15096
15354
36054
50404
44179
38811
32597
53080
50207
52482
15356
46266
32688
48665
49919
51076
37319
52771
53218
53725
53929
15359
16663
24362
12246
47654
53816
50026
15362
15363
15364
17986
35004
49800
42531
48506
27811
13805
13956
53069
33258
15034
11853
10011
15365
15366
15367
15368
41897
16761
48726
13312
48006
49393
43788
46326
53462
12894
14627
49705
15372
15373
15374
15375
15376
15377
19877
39870
15344
45784
39442
50006
49157
42673
32633
6654
10322
32140
15379
15380
41622
10998
6898
35410
12248
29444
15382
11164
35758
6430
13678
15383
47027
21927
45128
51950
33506
8497
36207
15384
15385
15386
15387
15390
6890
41649
8501
28834
7736
15392
15393
15395
38939
18777
47532
11905
45285
48576
52199
15397
37302
49115
42852
50333
43793
53111
53387
13375
46622
25695
41863
40388
49019
13441
43448
52563
38079
42320
14227
15399
42398
43992
48696
45943
51141
21094
42480
15400
40414
42928
49461
52579
48671
13745
12678
54425
35943
15402
15404
15405
15406
15407
47427
34740
48693
50620
20622
15410
15411
24756
33437
46548
31018
45281
15556
32124
15412
12200
51513
14895
10632
30181
36792
37871
49657
51721
48030
13525
49518
13295
14551
14432
11710
15417
15418
46464
48870
8628
42677
15419
15421
15422
15423
11209
13462
49388
13707
14549
48593
54188
15424
28767
24828
39447
38566
8428
49458
14297
15427
15428
15429
12001
45549
44029
23300
30679
11072
17092
23831
53749
14554
15431
15432
15433
15434
33243
34559
31981
34644
48978
51917
52132
40796
47288
24799
14189
15436
9017
11318
45981
41285
51034
53635
13090
13795
42423
15437
15439
30027
44213
40714
15440
15441
15443
15445
40498
42271
49523
32956
14880
9788
14407
14825
12173
47264
44244
15449
15450
15453
23614
27556
46920
9809
42031
19164
52929
22004
51494
30397
22207
36586
33765
15456
38241
7827
10540
23430
10715
10393
37737
47888
45203
47873
42074
11353
10395
30397
15457
15459
10033
40171
37374
46980
14233
26375
50784
50521
37796
49550
15460
15462
15463
39077
34928
53137
42781
39821
54153
15273
15465
15466
31121
30205
36720
46415
36476
11355
48487
52000
22434
23447
15182
14007
54732
47143
15467
15468
15469
25432
35845
40971
39795
50908
7655
14055
26051
9397
11591
45739
15473
38482
38700
27121
37534
43327
37610
34594
44283
26200
38139
54332
13767
45456
14712
47289
12730
38991
27480
39123
9283
982
50849
14068
14945
14662
15474
15476
44277
48171
49358
14340
6209
16914
54740
16437
32824
15477
15478
15479
15480
42638
43429
42991
576
51076
50324
52674
38627
15481
15482
43478
46849
34255
39260
46469
23235
32376
54062
37518
10768
25599
48482
23138
33954
51012
54917
15483
15484
14580
51522
14979
17431
15486
15487
11601
37337
37752
26321
41356
15488
37537
41833
25360
46262
36325
2394
48707
50107
41946
52517
27748
54253
22097
47746
15489
15490
15491
15492
15493
26401
45810
42176
12932
13285
36442
6795
14341
14906
15061
53933
23701
12617
15495
15497
44296
18130
43722
47414
44324
50917
50198
11847
46327
15499
15500
15502
15503
15504
38694
45204
43699
52669
30210
45401
4803
54571
47392
46818
15506
15507
15508
15509
15510
40665
49055
49395
49762
49633
53484
44532
54590
44166
11916
42379
27980
29619
14286
31196
15086
44285
48049
7630
54830
15090
15514
25026
33777
8529
36725
39230
10334
52444
15353
33405
15515
15516
44845
29988
47879
36137
46905
44733
13031
33234
9589
54873
15519
15521
35819
46152
23742
33112
48149
35569
23082
50141
25599
23467
13840
14752
13274
35962
15522
15524
15525
47633
8898
47119
6
49392
15527
15528
15529
15531
46622
46275
9741
25877
5432
42964
28426
16177
35792
52002
20832
11299
33238
15532
15533
34961
40067
27006
41723
38606
14446
53386
42092
41962
52136
49684
39430
38342
47719
23595
37841
33872
51249
53310
28074
33032
15534
15535
40867
44657
29455
13389
32535
33569
7719
14868
55009
51185
23907
33426
14252
15536
15537
15538
15539
46473
53427
53797
33052
36449
8992
43627
48788
42771
42720
15275
12810
15540
15541
15542
15543
40546
2105
35969
50739
41634
49296
9965
33749
11119
54741
15544
15545
15546
15547
44846
33830
48981
50266
13711
15148
34287
48824
43012
44717
28219
11358
42509
50415
27457
30592
53040
15030
36160
10499
39271
40572
34450
26736
30776
51066
29039
53235
33149
27587
15391
13352
15549
15550
45343
44419
37729
40067
51654
52033
52699
36111
30470
47236
15498
44506
15551
15552
15553
15554
15555
39706
44378
17612
41603
13228
16793
55145
15557
15558
15559
5077
31697
40278
38414
43239
48932
13885
29838
14247
28314
17931
12853
40429
15560
15561
15562
15563
41605
45056
49534
37401
43965
36841
44522
49381
47173
54013
45656
49303
13047
15566
31088
45270
38774
10347
32841
11337
49593
11394
24027
11533
35653
19213
47451
25185
8131
10361
32388
14354
35389
24706
15567
15568
15569
15571
15572
41673
10886
12766
14092
51576
24856
47063
49475
11019
55044
15225
44109
15573
15574
15575
15577
15578
39144
34348
42935
43572
46111
33390
11237
17259
33038
33756
10669
13500
36150
51234
52658
51201
44439
54078
47428
54889
37990
52070
51095
47434
15579
15581
15582
15583
15584
15586
15587
45819
11791
49252
44160
45030
33120
51040
42107
53102
47062
13204
38675
10808
12197
9390
15588
6442
49547
40201
14166
52319
52854
34757
37984
54515
54831
24498
29377
15589
15590
15591
15592
25525
35778
30091
19684
39783
34749
43458
12902
42636
52856
13786
14263
28629
37389
31437
45529
27426
40510
21030
13685
15052
26743
55046
28373
44206
15387
15593
15594
15595
15596
20630
48570
47532
13970
50545
50946
10818
52952
11331
11709
41477
39167
48248
13613
15597
15598
42213
16960
43835
9333
48812
52941
48290
15186
13691
15600
15601
15602
15603
15604
15605
43987
37150
17885
49041
43106
8550
51705
14741
22492
35081
46819
37615
44419
33527
12744
55350
40314
15606
30759
48462
47239
41522
9742
49367
53019
13913
43116
54389
54427
41307
27005
45860
54591
48327
8112
40270
15607
15608
47679
49911
50734
52759
12469
43239
45099
16216
33404
43344
226
15405
49213
46983
45169
29811
8544
52341
14722
42592
6895
17155
45234
15609
15610
15611
15612
15613
15614
32843
41202
45246
51335
31353
36244
28813
45148
51487
52991
43412
22543
44599
43439
51707
15615
15616
47591
51400
44134
48690
37599
49231
19230
29898
7525
14428
36949
15208
23670
)


// ************************************************************************* //
