/*--------------------------------*- C++ -*----------------------------------*\
  =========                 |
  \\      /  F ield         | OpenFOAM: The Open Source CFD Toolbox
   \\    /   O peration     | Website:  https://openfoam.org
    \\  /    A nd           | Version:  7
     \\/     M anipulation  |
\*---------------------------------------------------------------------------*/
FoamFile
{
    version     2.0;
    format      ascii;
    class       volScalarField;
    location    "0.02";
    object      linearKE;
}
// * * * * * * * * * * * * * * * * * * * * * * * * * * * * * * * * * * * * * //

dimensions      [1 -1 -2 0 0 0 0];

internalField   nonuniform List<scalar> 
250
(
0.386002
0.35048
0.372494
0.349739
0.390914
0.400607
0.366139
0.364615
0.395722
0.37353
0.387205
0.368609
0.363778
0.396498
0.394063
0.385746
0.391066
0.38711
0.40896
0.386867
0.386386
0.364199
0.385992
0.381942
0.379703
0.390133
0.35691
0.393299
0.35502
0.387146
0.383405
0.363399
0.347113
0.372132
0.379936
0.354038
0.366157
0.416479
0.394098
0.409499
0.379412
0.402323
0.392308
0.355803
0.363256
0.385987
0.377962
0.375318
0.378707
0.365671
0.374807
0.350572
0.370722
0.375004
0.368705
0.365041
0.368876
0.390727
0.364529
0.370708
0.390816
0.364074
0.36582
0.355998
0.371543
0.329174
0.377267
0.367305
0.394591
0.387669
0.350405
0.386233
0.341707
0.367653
0.376843
0.367314
0.356872
0.355124
0.342852
0.355194
0.346206
0.363125
0.367704
0.329869
0.354964
0.344949
0.331232
0.337686
0.368441
0.359632
0.328616
0.354198
0.373937
0.371821
0.347809
0.372826
0.347611
0.341451
0.373592
0.364864
0.352238
0.36693
0.369828
0.339054
0.349948
0.350512
0.366546
0.347463
0.337246
0.358451
0.349724
0.3793
0.338079
0.349592
0.353077
0.338352
0.34719
0.357577
0.352276
0.321325
0.368033
0.311847
0.338016
0.346616
0.323669
0.335272
0.316989
0.325759
0.323882
0.327128
0.324214
0.343979
0.33138
0.341681
0.304706
0.327632
0.318989
0.315475
0.323698
0.347001
0.323308
0.32392
0.318878
0.312839
0.331799
0.343295
0.336539
0.329491
0.338785
0.314042
0.322148
0.307655
0.314703
0.298924
0.304615
0.323635
0.31962
0.341055
0.351856
0.335954
0.309366
0.293353
0.2891
0.314764
0.299849
0.316819
0.313302
0.312032
0.320034
0.289382
0.307831
0.31009
0.346829
0.341629
0.30114
0.320615
0.318161
0.329114
0.322467
0.297682
0.304372
0.305269
0.298913
0.294572
0.303047
0.306234
0.294135
0.28872
0.296255
0.300864
0.319975
0.30826
0.29732
0.3049
0.294812
0.308095
0.32124
0.303457
0.298967
0.315732
0.313372
0.302311
0.301906
0.310478
0.296052
0.312407
0.287832
0.298445
0.30207
0.289855
0.268352
0.287142
0.290763
0.275866
0.29486
0.289724
0.310629
0.322447
0.303284
0.307366
0.260388
0.282048
0.319847
0.291046
0.262164
0.298817
0.310574
0.266651
0.29076
0.290573
0.287449
0.297018
0.310593
0.304466
0.26703
0.268208
0.261784
0.299956
0.295482
0.292383
0.280502
0.268807
0.279139
0.294058
0.273538
0.275452
0.269268
0.310713
0.276048
0.293531
)
;

boundaryField
{
    sides
    {
        type            symmetry;
    }
    empty
    {
        type            empty;
    }
    procBoundary3to2
    {
        type            processor;
        value           uniform 0.375175;
    }
}


// ************************************************************************* //
