/*--------------------------------*- C++ -*----------------------------------*\
  =========                 |
  \\      /  F ield         | OpenFOAM: The Open Source CFD Toolbox
   \\    /   O peration     | Website:  https://openfoam.org
    \\  /    A nd           | Version:  7
     \\/     M anipulation  |
\*---------------------------------------------------------------------------*/
FoamFile
{
    version     2.0;
    format      ascii;
    class       volScalarField;
    location    "0.007";
    object      dsmcRhoNMean;
}
// * * * * * * * * * * * * * * * * * * * * * * * * * * * * * * * * * * * * * //

dimensions      [0 -3 0 0 0 0 0];

internalField   nonuniform List<scalar> 
546
(
27.50371429
27.10314286
27.24971429
26.55028571
26.31114286
26.136
26.25542857
25.66057143
24.97228571
24.72342857
24.07657143
23.96742857
24.02114286
23.52685714
23.62085714
23.736
22.94228571
22.56771429
22.14142857
21.75342857
21.69828571
21.504
20.85514286
20.50228571
20.08114286
19.514
18.53171429
17.45514286
15.71885714
12.88371429
24.48142857
24.27085714
24.40142857
24.232
23.95428571
23.53971429
23.26942857
23.014
22.46257143
22.40771429
22.32028571
21.98628571
22.14714286
21.60285714
21.60971429
21.19514286
20.57828571
20.62342857
20.318
20.36085714
19.93942857
19.75085714
19.54971429
19.10542857
18.386
17.84085714
17.37542857
15.992
14.36142857
12.12714286
22.76657143
23.04085714
23.11171429
22.76142857
22.73971429
22.71285714
22.47
21.64885714
21.66685714
21.35142857
21.31942857
20.84485714
20.956
20.61085714
20.65514286
19.99914286
19.76742857
19.492
19.332
19.21514286
19.01371429
18.48771429
18.30628571
17.736
17.75371429
17.33857143
16.14285714
15.22085714
14.05457143
12.17028571
21.50257143
21.75342857
21.81228571
21.88885714
21.88057143
21.76285714
21.69942857
21.43142857
21.31057143
20.82571429
20.61485714
20.498
20.32371429
20.06514286
20.00257143
19.54142857
19.50771429
19.242
19.00085714
18.55057143
18.21457143
18.17114286
17.97742857
17.43285714
17.10171429
16.67857143
15.88285714
15.15542857
14.01085714
12.31342857
20.14657143
20.604
20.92542857
21.24285714
21.31485714
21.31428571
21.40771429
21.206
20.70257143
20.75542857
20.57542857
20.33942857
20.12657143
19.81285714
19.81514286
19.44657143
18.96514286
18.91714286
18.78971429
18.35828571
18.23257143
17.99571429
17.56828571
16.90914286
16.46628571
16.18028571
15.73057143
14.91228571
14.06285714
12.73771429
18.50285714
19.29914286
19.86342857
20.08114286
20.53914286
20.66514286
21.02742857
20.99857143
20.78514286
20.78257143
20.79514286
20.32771429
20.28114286
19.922
19.90628571
19.636
19.388
18.67514286
18.50514286
18.42257143
18.12114286
17.72571429
17.28714286
17.15628571
16.73542857
16.13828571
15.56314286
15.06857143
14.18028571
13.25971429
16.84114286
17.58571429
18.27171429
18.98057143
19.55085714
19.82742857
20.10571429
20.33742857
20.742
20.49228571
20.34028571
19.91685714
19.77828571
19.63
19.57457143
19.53657143
19.24971429
19.06171429
18.57428571
18.37314286
18.24
17.95142857
17.40028571
16.97285714
16.69828571
16.28057143
15.79828571
15.31828571
14.59228571
13.58428571
15.33228571
16.18085714
16.9
17.62457143
18.33085714
18.84657143
19.268
19.56514286
19.73142857
19.826
19.848
19.93457143
19.88314286
19.786
19.324
19.27514286
19.284
19.24971429
18.93685714
18.43057143
18.22142857
18.22
17.688
17.26857143
16.81457143
16.42085714
16.03342857
15.356
14.68428571
14.082
13.782
14.61857143
15.36628571
16.09857143
16.80828571
17.60485714
18.16742857
18.50885714
19.04885714
19.51314286
19.64571429
19.69857143
19.75714286
19.72485714
19.58885714
19.34742857
19.14857143
19.21685714
19.21571429
18.87771429
18.53514286
18.37628571
17.89
17.41257143
17.17428571
16.66857143
16.12657143
15.70771429
15.08542857
14.36057143
12.60428571
13.354
14.108
14.61028571
15.13657143
15.98657143
16.67428571
17.50428571
17.91542857
18.23628571
18.71971429
19.10457143
19.158
19.396
19.56771429
19.46057143
19.34971429
19.18428571
18.97742857
18.934
18.42085714
18.18857143
18.09314286
17.74628571
17.40057143
17.12257143
16.52771429
16.07542857
15.52771429
14.81314286
11.79314286
12.126
12.80828571
13.49171429
14.00085714
14.80828571
15.5
16.10228571
16.70314286
17.33571429
17.65714286
18.21057143
18.57914286
19.028
19.28771429
19.34771429
19.21085714
18.79885714
18.81142857
18.722
18.53828571
18.54742857
18.37942857
18.038
17.76342857
17.37828571
16.80628571
16.34057143
15.82942857
15.28657143
10.90314286
11.41457143
11.812
12.366
13.02742857
13.61085714
14.136
14.81971429
15.38542857
16.11714286
16.70857143
17.26
17.58685714
17.99485714
18.42085714
18.72942857
18.81171429
18.88342857
18.81542857
18.998
18.848
18.484
18.19828571
17.96485714
17.702
17.50114286
17.16885714
16.59885714
16.294
15.87285714
10.52057143
10.75057143
11.00314286
11.39628571
11.79171429
12.27114286
12.84914286
13.41914286
14.23885714
14.89314286
15.59514286
16.08114286
16.73942857
17.21257143
17.52685714
17.98057143
18.53657143
18.80914286
18.87142857
18.844
18.83457143
18.96542857
18.65171429
18.14
17.83514286
17.58885714
17.41142857
17.11971429
16.54285714
16.05285714
9.899142857
10.15485714
10.47542857
10.74628571
11.02628571
11.41514286
11.912
12.48657143
12.95342857
13.76342857
14.39114286
15.11085714
15.66085714
16.25914286
16.74
17.18628571
17.51114286
17.88285714
18.07914286
18.36885714
18.64828571
18.34914286
18.34371429
18.32457143
17.92314286
17.73171429
17.55828571
17.41514286
17.12085714
16.62085714
9.842
9.892857143
10.00742857
10.23371429
10.44685714
10.81571429
11.12685714
11.58057143
11.98657143
12.41457143
12.98657143
13.594
14.16542857
14.76885714
15.41285714
15.93257143
16.50057143
16.83514286
17.37857143
17.84028571
17.88714286
18.28342857
18.32314286
18.18571429
18.26971429
17.93485714
17.77428571
17.396
17.00628571
16.52171429
9.476571429
9.494
9.612571429
9.773714286
9.955142857
10.16971429
10.47371429
10.73857143
11.16257143
11.50942857
11.95742857
12.54314286
13.20428571
13.73114286
14.34885714
15.02057143
15.63
16.18571429
16.49714286
16.99285714
17.32971429
17.58085714
17.89114286
18.18514286
18.05714286
17.86257143
17.70914286
17.48057143
17.19857143
9.303428571
9.378285714
9.421714286
9.613428571
9.738
9.87
10.00142857
10.24542857
10.49771429
10.87971429
11.23485714
11.62171429
12.13628571
12.68428571
13.29142857
13.78485714
14.26142857
14.88428571
15.52742857
15.98542857
16.666
17.04514286
17.37257143
17.714
9.149714286
9.223142857
9.258857143
9.288571429
9.313142857
9.387142857
9.555714286
9.725428571
9.888
10.12971429
10.41057143
10.82742857
11.118
11.60771429
12.15771429
12.66885714
13.38942857
13.88142857
14.57885714
9.232571429
9.243714286
9.184857143
9.169428571
9.220285714
9.297142857
9.308
9.416571429
9.482285714
9.752571429
9.964857143
10.23457143
10.58457143
11.01028571
9.016
9.028857143
8.944285714
8.980285714
9.016
9.048571429
9.153714286
9.308571429
9.071142857
9.011142857
)
;

boundaryField
{
    flow
    {
        type            calculated;
        value           nonuniform List<scalar> 
15
(
12.88371429
12.12714286
12.17028571
12.31342857
12.73771429
13.25971429
13.58428571
14.082
14.36057143
14.81314286
15.28657143
15.87285714
16.05285714
16.62085714
16.52171429
)
;
    }
    obstacle
    {
        type            calculated;
        value           nonuniform List<scalar> 
30
(
27.50371429
27.10314286
27.24971429
26.55028571
26.31114286
26.136
26.25542857
25.66057143
24.97228571
24.72342857
24.07657143
23.96742857
24.02114286
23.52685714
23.62085714
23.736
22.94228571
22.56771429
22.14142857
21.75342857
21.69828571
21.504
20.85514286
20.50228571
20.08114286
19.514
18.53171429
17.45514286
15.71885714
12.88371429
)
;
    }
    frontAndBack
    {
        type            empty;
    }
    procBoundary1to0
    {
        type            processor;
        value           nonuniform List<scalar> 
21
(
28.09142857
24.84628571
23.11942857
21.08457143
19.49657143
17.91971429
15.96542857
14.53028571
12.98485714
12.09457143
11.29057143
10.55085714
10.29828571
9.837428571
9.610571429
9.440857143
9.319142857
9.149428571
9.215428571
9.137428571
8.989142857
)
;
    }
    procBoundary1to3
    {
        type            processor;
        value           nonuniform List<scalar> 
36
(
17.08514286
17.85685714
17.96514286
17.744
17.60857143
17.08514286
17.47485714
15.12742857
15.54228571
16.04485714
16.50742857
17.85685714
16.89942857
11.41114286
11.86085714
12.44914286
13.02171429
15.12742857
13.52914286
9.433142857
9.505428571
9.561714286
9.69
9.906285714
11.41114286
10.13114286
9.070285714
9.076285714
9.040571429
9.050857143
9.095142857
9.433142857
9.050857143
9.009428571
9.070285714
8.999714286
)
;
    }
}


// ************************************************************************* //
