/*--------------------------------*- C++ -*----------------------------------*\
  =========                 |
  \\      /  F ield         | OpenFOAM: The Open Source CFD Toolbox
   \\    /   O peration     | Website:  https://openfoam.org
    \\  /    A nd           | Version:  7
     \\/     M anipulation  |
\*---------------------------------------------------------------------------*/
FoamFile
{
    version     2.0;
    format      ascii;
    class       volScalarField;
    location    "0.007";
    object      iDof;
}
// * * * * * * * * * * * * * * * * * * * * * * * * * * * * * * * * * * * * * //

dimensions      [0 -3 0 0 0 0 0];

internalField   nonuniform List<scalar> 
546
(
1.570373148e+20
1.129977508e+20
9.107065053e+19
1.605680646e+20
1.38669025e+20
1.862987931e+20
7.039767146e+19
1.418831441e+20
1.668191993e+20
4.803665495e+19
7.262489728e+19
1.22006499e+20
7.379220801e+19
7.439004912e+19
4.999843759e+19
2.016407229e+20
1.270719042e+20
5.125435227e+19
1.550613898e+20
1.56381835e+20
1.840124561e+20
1.060609074e+20
2.942163428e+20
1.618964352e+20
5.444546535e+19
2.19736269e+20
8.314727722e+19
1.398451515e+20
2.25815785e+20
1.424485897e+20
1.121695106e+20
2.259955017e+19
4.553532527e+19
2.064446544e+20
2.311150417e+19
6.986204746e+19
9.386356194e+19
9.458876272e+19
9.532525673e+19
7.205498237e+19
2.178746918e+20
1.22006499e+20
1.229870133e+20
7.439004906e+19
9.999687511e+19
2.804159384e-289
1.779006659e+20
5.125435223e+19
1.550613897e+20
7.819091756e+19
7.886248126e+19
7.954568065e+19
2.139755222e+20
8.09482176e+19
8.166819803e+19
1.373351683e+20
1.385787955e+20
1.118761213e+20
1.411348656e+20
5.697943586e+19
1.121695106e+20
4.519910033e+19
9.107065053e+19
2.064446544e+20
1.155575209e+20
2.328734913e+19
1.173294523e+20
7.094157204e+19
7.14939426e+19
9.60733099e+19
7.262489722e+19
1.22006499e+20
9.83896106e+19
1.983734642e+20
2.249929692e+20
1.008203615e+20
1.016575234e+20
1.025087045e+20
1.809049548e+20
1.303181959e+20
1.051499748e+20
1.85606588e+20
2.139755222e+20
2.428446528e+20
1.361136634e+20
2.19736269e+20
5.543151814e+19
1.678141818e+20
1.693618388e+20
8.546915387e+19
1.346034127e+20
2.033959513e+20
6.83029879e+19
1.146914748e+20
9.244601666e+19
1.397240948e+20
1.877271239e+20
9.458876272e+19
1.429878851e+20
7.205498243e+19
1.210414955e+20
1.708090985e+20
1.721818186e+20
1.735767813e+20
1.499953128e+20
5.041018073e+19
7.624314254e+19
7.688152835e+19
1.550613897e+20
7.819091756e+19
7.886248126e+19
1.060609075e+20
1.872285818e+20
1.079309567e+20
1.088909307e+20
1.373351681e+20
1.940103137e+20
1.678141821e+20
1.693618389e+20
1.139588714e+20
1.794712169e+20
9.03982006e+19
9.107065046e+19
2.523212441e+20
1.617805292e+20
1.630114441e+20
9.386356194e+19
9.458876272e+19
1.429878851e+20
1.200916373e+20
7.262489728e+19
7.320389948e+19
1.47584416e+20
1.239834152e+20
1.24996094e+20
7.56152711e+19
1.779006661e+20
5.125435231e+19
1.292178249e+20
1.56381835e+20
1.577249623e+20
1.856065879e+20
1.872285818e+20
8.09482176e+19
1.361136636e+20
1.922692351e+20
1.108630359e+20
1.118761216e+20
1.693618389e+20
1.13958872e+20
2.243390214e+20
1.807964015e+20
1.138383132e+20
1.605680647e+20
1.617805293e+20
1.862987932e+20
1.173294524e+20
9.458876272e+19
2.144818276e+20
1.441099647e+20
1.452497944e+20
1.708090985e+20
9.838961052e+19
2.97560196e+20
7.499765633e+19
2.016407229e+20
2.033150468e+20
5.125435223e+19
1.033742599e+20
1.30318196e+20
1.577249625e+20
1.060609077e+20
1.604816425e+20
8.09482176e+19
1.905591274e+20
8.240110088e+19
1.940103145e+20
2.237522429e+20
2.258157844e+20
1.709383065e+20
1.570373148e+20
1.355973009e+20
1.821413009e+20
6.881488477e+19
1.848920333e+20
1.164367458e+20
9.386356194e+19
1.891775254e+20
1.668191993e+20
2.882199297e+20
1.452497947e+20
1.46407799e+20
1.967792214e+20
1.239834152e+20
1.499953127e+20
2.520509035e+19
7.624314254e+19
7.688152835e+19
1.033742602e+20
1.824454757e+20
1.577249636e+20
1.590913621e+20
1.604816419e+20
1.079309575e+20
1.08890932e+20
2.197362709e+20
1.662945553e+20
8.390709107e+19
2.82269733e+20
1.709383096e+20
1.346034127e+20
2.033959515e+20
9.10706506e+19
1.146914748e+20
1.155575208e+20
1.630114439e+20
1.407953429e+20
4.729438136e+19
1.429878852e+20
4.803665495e+19
3.14707888e+20
1.708090985e+20
1.967792212e+20
9.918673216e+19
2.249929697e+20
7.561527128e+19
1.779006656e+20
1.281358799e+20
7.753069454e+19
1.824454736e+20
1.577249612e+20
2.121218125e+20
1.604816405e+20
8.094821746e+19
1.088909301e+20
1.648022003e+20
1.108630349e+20
8.390709032e+19
2.822697305e+20
2.848971775e+19
8.973560851e+19
1.35597301e+20
9.107065046e+19
2.523212443e+20
9.244601673e+19
2.095861424e+20
9.386356194e+19
7.094157204e+19
4.766262837e+19
1.681282922e+20
1.452497942e+20
1.952103986e+20
1.229870134e+20
9.918673232e+19
1.249960941e+20
1.512305412e+20
1.27071904e+20
1.537630572e+20
1.809049547e+20
7.819091724e+19
2.365874438e+20
1.325761351e+20
1.872285822e+20
1.618964349e+20
2.450045928e+20
1.648022018e+20
1.385787961e+20
3.076593339e+20
2.258157844e+20
1.709383081e+20
1.570373148e+20
1.355973009e+20
6.83029879e+19
4.587658988e+19
9.244601666e+19
2.095861422e+20
1.642612332e+20
1.891775257e+20
2.383131416e+20
2.401832738e+20
2.178746927e+20
1.708090985e+20
7.379220766e+19
1.735767813e+20
2.499921872e+20
1.008203616e+20
1.01657524e+20
7.68815286e+19
5.168712991e+19
1.042545572e+20
1.577249625e+20
7.954568038e+19
2.139755226e+20
5.396547831e+19
8.166819831e+19
1.922692354e+20
1.108630359e+20
1.118761214e+20
2.258157844e+20
1.424485887e+20
8.973560845e+19
1.807964008e+20
1.138383127e+20
1.605680642e+20
1.38669025e+20
1.630114443e+20
1.407953435e+20
2.630837303e-289
2.383131422e+20
2.401832742e+19
9.683319584e+19
1.220064989e+20
1.96779222e+20
1.735767813e+20
7.499765675e+19
1.512305424e+20
2.54143806e+20
2.050174079e+20
1.550613897e+20
1.824454736e+20
1.314374688e+20
2.121218161e+20
2.139755226e+20
1.079309566e+20
2.722273253e+20
2.746703363e+19
1.940103145e+20
2.796903036e+20
2.258157864e+20
1.994280279e+20
2.467729241e+20
1.581968518e+20
4.55353255e+19
9.175317996e+19
1.61780529e+20
9.314939619e+19
1.173294515e+20
9.458876172e+19
7.149394211e+19
1.681282932e+20
1.210414967e+20
1.464077999e+20
7.379220824e+19
9.918673216e+19
9.999687487e+19
2.268458137e+20
1.270719051e+20
2.050174096e+20
1.550613897e+20
5.212727816e+19
2.102999483e+20
1.590913594e+20
1.604816392e+20
1.349136958e+20
1.63336398e+20
2.197362709e+20
1.662945553e+20
2.517212732e+20
2.540427574e+20
1.424485887e+20
1.570373143e+20
2.259955002e+19
6.830298775e+19
1.376297699e+20
1.155575207e+20
2.328734922e+19
1.173294533e+20
1.418831447e+20
2.14481828e+20
1.200916371e+20
4.841659792e+19
1.464077976e+20
1.229870128e+20
9.918673216e+19
9.999687487e+19
2.016407216e+20
1.27071904e+20
2.818989382e+20
2.325920846e+20
1.824454751e+20
1.577249639e+20
7.954568105e+19
1.337347016e+20
1.079309566e+20
8.16681976e+19
1.098681335e+20
3.603048667e+20
1.398451518e+20
3.104967035e+20
2.848971775e+20
1.570373143e+20
2.48595052e+20
1.593736381e+20
1.376297689e+20
2.080035373e+20
1.862987924e+20
1.407953419e+20
9.458876244e+19
1.668191995e+20
1.441099645e+20
2.178746906e+20
1.220064989e+20
9.838961021e+19
1.735767799e+20
7.499765615e+19
2.016407233e+20
1.27071904e+20
7.688152797e+19
1.809049547e+20
2.345727517e+20
1.051499741e+20
5.303045358e+19
1.872285822e+20
1.349136958e+20
1.361136627e+20
1.373351681e+20
1.662945538e+20
1.957832107e+20
2.822697305e+20
1.4244859e+20
2.243390221e+20
1.807964028e+20
1.593736392e+20
1.146914749e+20
1.617805302e+20
1.630114445e+20
9.386356194e+19
9.458876315e+19
1.668191995e+20
1.200916371e+20
1.210414957e+20
1.464077999e+20
2.213766247e+20
1.735767813e+20
7.499765675e+19
1.26025452e+20
2.033150464e+20
1.793902334e+20
1.033742607e+20
1.042545572e+20
1.840124563e+20
1.060609081e+20
8.024082096e+19
1.618964349e+20
1.361136639e+20
1.373351693e+20
2.217260738e+20
1.118761214e+20
1.693618398e+20
1.4244859e+20
8.973560819e+19
9.039820007e+19
1.366059755e+20
1.376297699e+20
1.155575207e+20
1.164367461e+20
1.40795344e+20
2.364719079e+20
9.53252576e+19
2.40183276e+20
1.694580927e+20
1.464077976e+20
7.379220766e+19
9.918673216e+19
9.999687487e+19
5.041018082e+19
2.541438101e+20
1.793902334e+20
1.809049547e+20
1.824454751e+20
2.365874458e+20
1.856065891e+20
3.209632838e+20
1.349136958e+20
1.088909301e+20
2.197362671e+20
2.217260718e+20
2.237522429e+20
2.258157844e+20
1.346034123e+20
1.355973011e+20
1.138383137e+20
1.146914749e+20
1.155575207e+20
2.328734905e+20
2.346589031e+20
1.891775234e+20
2.144818263e+20
1.681282932e+20
1.936663947e+20
2.684142998e+20
1.229870137e+20
2.231701474e+20
7.499765615e+19
2.268458118e+20
1.524862848e+20
1.537630572e+20
1.809049547e+20
1.824454736e+20
1.314374677e+20
2.121218125e+20
1.872285806e+20
1.349136969e+20
8.973560883e+19
4.519910036e+19
1.138383121e+20
6.881488446e+19
1.155575207e+20
2.09586143e+20
9.386356265e+19
1.891775263e+20
1.429878853e+20
1.200916371e+20
1.694580927e+20
3.41618197e+20
1.229870137e+20
9.918673216e+19
1.749945324e+20
3.528712686e+20
2.287294272e+20
2.050174079e+20
2.584356495e+20
6.730170662e+19
2.033959516e+20
2.049089647e+20
1.146914749e+20
9.24460166e+19
9.314939619e+19
1.877271225e+20
9.458876244e+19
2.383131422e+20
1.441099645e+20
1.210414957e+20
2.684142977e+20
9.838961021e+19
2.231701474e+20
8.973560819e+19
1.355973001e+20
2.276766258e+20
1.376297699e+20
1.155575216e+20
2.561608414e+20
9.386356194e+19
1.182359539e+20
1.570373155e+20
2.033959531e+20
)
;

boundaryField
{
    flow
    {
        type            zeroGradient;
    }
    obstacle
    {
        type            calculated;
        value           nonuniform List<scalar> 
30
(
2.225073859e-308
2.225073859e-308
2.225073859e-308
2.225073859e-308
2.225073859e-308
2.225073859e-308
2.225073859e-308
2.225073859e-308
2.225073859e-308
2.225073859e-308
2.225073859e-308
2.225073859e-308
2.225073859e-308
2.225073859e-308
2.225073859e-308
2.225073859e-308
2.225073859e-308
2.225073859e-308
2.225073859e-308
2.225073859e-308
2.225073859e-308
2.225073859e-308
2.225073859e-308
2.225073859e-308
2.225073859e-308
2.225073859e-308
2.225073859e-308
2.225073859e-308
170.3938345
2.225073859e-308
)
;
    }
    frontAndBack
    {
        type            empty;
    }
    procBoundary1to0
    {
        type            processor;
        value           nonuniform List<scalar> 
21
(
1.336239882e+20
1.55894653e+20
2.004359824e+20
8.908265883e+19
6.681199417e+19
1.113533236e+20
6.681199412e+19
2.672479765e+20
8.908265883e+19
8.908265883e+19
1.55894653e+20
1.558946536e+20
8.908265883e+19
2.004359809e+20
8.908265883e+19
2.227066471e+20
2.449773118e+20
1.336239882e+20
1.781653189e+20
8.908265883e+19
1.336239882e+20
)
;
    }
    procBoundary1to3
    {
        type            processor;
        value           nonuniform List<scalar> 
36
(
2.564074621e+20
1.36113665e+20
1.648022032e+20
1.385787961e+20
1.118761214e+20
2.564074621e+20
8.468091915e+19
1.824454736e+20
1.577249625e+20
1.325761351e+20
2.407224629e+20
1.36113665e+20
1.888791741e+20
1.499953123e+20
1.26025451e+20
1.016575232e+20
1.537630572e+20
1.824454736e+20
2.584356495e+20
1.429878853e+20
1.681282919e+20
1.210414948e+20
1.708090985e+20
2.459740275e+20
1.499953123e+20
1.735767813e+20
1.366059765e+20
2.523212449e+20
1.386690249e+20
3.493102383e+20
2.11193016e+20
1.429878853e+20
1.655303355e+20
2.019051184e+20
1.366059765e+20
1.355973001e+20
)
;
    }
}


// ************************************************************************* //
