/*--------------------------------*- C++ -*----------------------------------*\
  =========                 |
  \\      /  F ield         | OpenFOAM: The Open Source CFD Toolbox
   \\    /   O peration     | Website:  https://openfoam.org
    \\  /    A nd           | Version:  7
     \\/     M anipulation  |
\*---------------------------------------------------------------------------*/
FoamFile
{
    version     2.0;
    format      ascii;
    class       volVectorField;
    location    "0.007";
    object      momentum;
}
// * * * * * * * * * * * * * * * * * * * * * * * * * * * * * * * * * * * * * //

dimensions      [1 -2 -1 0 0 0 0];

internalField   nonuniform List<vector> 
546
(
(0.005010525652 0.004432978082 0.001222802764)
(0.004854648958 0.0007472508235 0.00161409782)
(0.006526650076 -0.0009605040906 0.0003917479156)
(0.007042787454 0.002053128088 -0.0003416287625)
(0.007222599787 0.0004234306746 -0.0007889973098)
(0.003776310462 0.002253898809 -0.001578449783)
(0.005170327433 0.0004549732255 0.0002717932265)
(0.004401597747 0.003325575259 0.001452797718)
(0.006538575683 0.0004397358369 -0.001027112648)
(0.004158240945 0.001068778973 -0.001845232131)
(0.002530632961 0.003272852913 -0.0002525908606)
(0.00171551888 0.0007589682287 3.231459241e-05)
(0.008768919026 -0.002604165492 -0.0003430606604)
(0.00222716207 0.001702552222 -0.0005176184826)
(0.004082130855 0.0009886974581 -0.002512610159)
(0.004714969395 0.003000174822 -0.001658066573)
(0.00363782003 -3.217961883e-05 0.0006789057724)
(0.001780956624 -0.0004492595889 0.000632269164)
(0.003919445845 -0.001939481827 0.001023305686)
(0.002901903383 -6.804366073e-05 0.0001998862537)
(0.002526496407 -0.002086225815 0.0009873998415)
(0.002052254129 0.001656537922 0.0007460934355)
(0.004196151516 -0.0002387619844 0.001215758487)
(0.003473792149 0.001472867252 0.0007187861114)
(0.002749448888 0.002240921104 -0.003636431987)
(0.001672404475 -0.0009866233803 -0.0007126360301)
(0.001951370906 0.0001100633166 0.0007101164371)
(0.001320090458 0.002343561985 -0.0003703729801)
(0.002117244796 0.002743459173 0.000713772987)
(0.001508413967 0.001803822865 -0.001252609189)
(0.008194090967 0.002087340552 0.0002656641013)
(0.008538171541 0.002847504631 0.001107032096)
(0.002492372118 0.002007348259 -0.0006982161535)
(0.005552405177 0.0003011872812 -0.001267772874)
(0.005160228237 0.003211521544 -0.0004188348897)
(0.007945842899 0.001070703424 -0.001415373538)
(0.005576426696 0.002213627634 0.0010511806)
(0.005818918877 0.001353838864 -3.870324701e-05)
(0.00713354034 0.001229795476 0.0004046605321)
(0.004023238253 0.0002776710526 -0.0003578016562)
(0.003127657967 0.002098247593 -0.001548164491)
(0.001955969191 7.784582679e-05 0.002664968474)
(0.00727696556 -0.0006865186325 0.0009347853648)
(0.007291142915 0.002459391391 0.00350983745)
(0.007979309062 0.001368409802 0.002112384288)
(0.004393386935 0.002568062814 0.001507058453)
(0.006296540861 0.00214976457 -0.001795288346)
(0.008854859741 0.002107824395 7.459157462e-05)
(0.004789651738 0.0002827287169 -0.001910485087)
(0.005902424537 0.002168467258 0.00137105411)
(0.006984764872 0.001262523765 -0.0006958595007)
(0.007291562605 0.001911193817 -0.0004207077091)
(0.003992683793 0.0003652036195 -0.001769053359)
(0.00141897049 0.0002615402249 0.0004767180017)
(0.004869897288 0.0007081067953 0.0009548749323)
(0.005116625113 0.001469092145 -0.002097455602)
(0.005534181671 1.893933827e-05 0.000570713341)
(0.003755649339 0.002573059034 0.0006669809765)
(0.003041233311 0.001149910373 -0.001557565331)
(0.005780751373 -0.001141581808 -0.0009601938448)
(0.01122067288 0.006302636318 -0.00195652056)
(0.01278517953 0.004476881647 0.00199331578)
(0.01439760996 0.002748923694 0.002034690498)
(0.01113298169 0.002536537914 -0.0002300784508)
(0.01135948071 0.002106635572 0.001137309547)
(0.006382087147 0.00225863525 0.0009713385164)
(0.006899492148 0.001708244891 0.0008990613777)
(0.002263901592 0.000424778523 -0.0001608595502)
(0.01124332258 0.002910319546 0.0001724908658)
(0.006588448924 0.003740669708 -0.00191852005)
(0.01121594402 0.004758515605 0.0005846555782)
(0.006798418248 0.003263225039 -0.001130931164)
(0.00896631721 0.003229392363 0.001902999985)
(0.007973060925 0.003294869937 0.002817413916)
(0.006563485132 0.004034760227 -0.0004884895326)
(0.005495875281 0.0001630531466 -9.043524227e-05)
(0.005724146006 0.003203501104 -0.001957833635)
(0.008424279118 0.003972875508 0.0008915473363)
(0.004981625971 0.00176271327 -0.0006818100429)
(0.004745977293 0.0005993842421 0.001457282055)
(0.005114999164 0.002237315339 0.001459291217)
(0.00336809556 2.893507437e-05 -0.0003573094032)
(0.005112932182 0.001865830637 -0.001815646227)
(0.005628880344 0.001749359704 -0.0003725244059)
(0.004687493305 0.00247378609 -0.000229415375)
(0.002598630977 0.001522354772 -0.0005664734697)
(0.006334656119 0.0004763668476 0.002027939042)
(0.002163035984 -2.73263107e-05 0.0001781443755)
(0.005379104831 -7.759326945e-05 -0.0005227043822)
(0.006872236143 0.0004811110144 -0.001176910313)
(0.008316154951 0.001435056257 9.843587558e-06)
(0.01441349058 0.00554808649 -0.0004721239398)
(0.00862244357 0.0008055905977 0.001637794601)
(0.01222957361 0.00435217059 -0.0005566441121)
(0.01256157871 0.005889225423 0.0001110698151)
(0.01189622966 0.005669633275 -0.0005609912699)
(0.01391288144 0.002680433971 1.081773684e-05)
(0.01538364362 0.003503853849 0.0003710670691)
(0.01111171912 0.003564942078 -0.0002074131325)
(0.009453369145 0.004615926317 0.0007190847856)
(0.01088919976 0.0008559764759 0.003230427057)
(0.0069968991 0.003818038048 0.0001853853727)
(0.005415329522 0.001595209128 -0.0006337269467)
(0.01132421937 0.002097952322 -0.002089894866)
(0.0120197313 0.006061170392 0.001908564145)
(0.008422135717 0.004296038345 0.001200457187)
(0.0110862048 0.002630304117 -0.001087233607)
(0.00407345607 0.0008126015715 -0.002560437125)
(0.004937677289 0.002532652192 0.002529531703)
(0.003602690251 0.002402925474 0.001270036441)
(0.004806462952 0.002654006041 -0.0003499427739)
(0.006866427225 0.002949351558 -0.0001780800424)
(0.009678728805 0.003092481103 0.001944501072)
(0.004618444249 0.0004956857885 0.001134571121)
(0.005699403089 0.0007137379042 0.0009510420258)
(0.00368187084 0.001539127076 -0.0003070455099)
(0.004615178761 0.0005715439531 -0.0002695332693)
(0.006259996758 0.002313815218 0.0003755857407)
(0.01065934389 0.001154027794 -0.0001846329085)
(0.004713631512 -0.0001789872207 0.0009899281229)
(0.008442697458 0.003285646947 -0.001300897424)
(0.008977510218 0.002996119933 -0.0007770509436)
(0.01099154742 0.001693997182 -0.0005359563759)
(0.009886765928 0.003416719339 0.001202711629)
(0.01611398449 0.006845636319 -0.0005482802958)
(0.01223404645 0.004355400364 -0.0006181480645)
(0.01065258528 0.004549707871 0.0004614135255)
(0.007844355282 0.002784311072 0.0006315381434)
(0.01226813481 0.003365206307 0.0003122871911)
(0.01503044314 0.007228428839 0.0006314721418)
(0.0158898139 0.006188404662 0.0003877144817)
(0.01387677173 0.002253338728 0.00111108162)
(0.01107864253 0.00409564011 -0.001925111823)
(0.008760027447 0.004209996824 -0.001874505343)
(0.007785070561 0.001555242764 -0.0008227299215)
(0.01360312595 0.006204356089 0.0008482955211)
(0.008759717557 0.00240898099 -0.002276117183)
(0.009459883542 0.005258898772 -0.00201151295)
(0.009488737538 0.002771559305 -0.0003290442814)
(0.008835961032 0.00467559589 -0.002251693684)
(0.008723411209 0.001998611243 -0.001965961919)
(0.007303013057 0.001436743518 -0.00081122277)
(0.008952793303 0.002842685721 -8.820697135e-05)
(0.01257488321 0.0005691083517 0.002515482519)
(0.009215583599 0.003678903877 -0.0004366156904)
(0.004819071635 0.001659472695 0.0001863459314)
(0.007220036844 0.002249737811 0.0003899266514)
(0.009234915555 0.002766071282 -0.001596572997)
(0.008255417969 0.001489795686 -0.002007916328)
(0.007291234678 0.001426509378 0.001991195336)
(0.007160068745 0.003745063317 -0.001175127343)
(0.01258236704 0.005070524233 -0.0001078112074)
(0.01918703405 0.005919351662 -0.0005415287325)
(0.01103135798 0.004066004048 0.002725129774)
(0.01606295083 0.004084876994 -0.003142241258)
(0.01065431566 0.004326801371 -0.001917303142)
(0.01347997767 0.005699217839 7.067928733e-05)
(0.009878990098 0.002701814543 -0.001179225297)
(0.01448635855 0.003308185252 0.001516063496)
(0.01346626545 0.003992840888 -0.003079125293)
(0.01259937422 0.003553425725 0.00133822211)
(0.01192747982 0.00480988006 -0.0002022233402)
(0.01580576589 0.00454372278 -0.001756129717)
(0.009299420075 0.005327849167 -0.0004672513689)
(0.009234678973 0.002060012348 0.0003928102565)
(0.00910482108 0.004566347642 -0.0002956143689)
(0.008271392004 0.001968038621 0.0001456280937)
(0.008690742859 0.0009702730189 -0.0007383335298)
(0.008212013118 0.001432735195 0.001371687307)
(0.004750085933 0.002073754434 -0.0002439413069)
(0.008305757701 0.003639276685 -6.891610689e-05)
(0.008814504081 0.0004112952537 0.0001564174368)
(0.009009058153 0.002475521871 0.0005345985043)
(0.01014373302 0.0002510324968 0.0006198127941)
(0.00596578621 0.002018767796 -0.002389959679)
(0.009604574475 0.002636658237 -0.001293348301)
(0.008764484195 0.003817425829 -0.002203859776)
(0.009558802135 0.002149385609 -0.0006600998443)
(0.009720217077 0.002585733819 0.0003340585552)
(0.008365957908 0.002216468707 0.0005197117057)
(0.01261198007 0.002572060013 -0.0020173641)
(0.0140844975 0.004983266057 0.001334528)
(0.006402321036 0.001680108165 -0.000492250492)
(0.01650017218 0.004516190281 -0.0005761477576)
(0.01873706682 0.00668635999 0.003543840178)
(0.01393144093 0.005218958317 -0.0004647664588)
(0.01274942119 0.005263849995 -0.0006195638177)
(0.004771891069 0.002523754726 -0.001024204845)
(0.01555553963 0.005050500758 -0.0003682961385)
(0.008063297664 0.002265726876 -0.0006395948175)
(0.009785757337 0.002122748529 0.0006235884991)
(0.0180994339 0.002893237007 -0.001235850565)
(0.00727281562 0.003574222971 0.00193039752)
(0.009212185433 0.002964374729 -3.991347405e-05)
(0.01169316392 0.00654521628 0.0005679913762)
(0.01253830328 0.005195256917 0.001092952672)
(0.01429405592 0.003086662116 5.039267692e-05)
(0.01194694873 0.002939385313 0.0005168116179)
(0.01238299657 0.006349194099 0.0006730335265)
(0.01091995438 0.00237550639 -0.001338503489)
(0.008881603547 0.0026696672 -0.0009787245764)
(0.01489972025 0.007115099818 0.0009899925506)
(0.01351647312 0.003069217603 0.0006974223793)
(0.008062112039 0.001957151938 -0.0003573892234)
(0.004662141115 0.002507322803 -0.0002225926378)
(0.008053615923 0.004951408086 0.0008541569479)
(0.0125317224 0.001124037958 0.001761553876)
(0.008519331573 0.002084795744 0.0012493302)
(0.008989927109 0.0004451621372 -0.0008030036837)
(0.008948924459 0.0009239296867 0.001234562758)
(0.01009816572 0.001697801347 -0.0005919018474)
(0.009663469278 0.001003508372 -0.002822622661)
(0.006989690906 0.001274766545 0.0004402986163)
(0.01226379571 0.0006741569686 0.001335546818)
(0.0148087215 0.00604572062 0.002125421056)
(0.01148171732 0.004936696457 0.0003336914719)
(0.01258942115 0.005611124187 0.001496601411)
(0.01252472343 0.002619800428 -3.563864037e-05)
(0.01176480939 0.003812981551 -0.001818135285)
(0.0139427215 0.004705295718 0.002463345283)
(0.01429882883 0.005724437584 0.001118754549)
(0.01169277381 0.002202426868 -0.0007099437041)
(0.01227200816 0.004858875222 -0.0009264525397)
(0.01517366488 0.002759723586 -0.001540610956)
(0.009410218936 0.003560783947 -0.001035109599)
(0.01320508668 0.004074158361 -8.363408102e-05)
(0.01158046934 0.004036393544 -0.000874777798)
(0.00985679773 0.002447630589 -0.0005686558835)
(0.01357832517 0.00490789221 0.003355966919)
(0.008895608701 0.002802243593 0.002074430251)
(0.01154544306 0.003071733079 0.003089762538)
(0.01149602984 0.002780056743 0.002493796943)
(0.006068737168 0.001305508715 -0.0008023084202)
(0.01336131217 0.004286659694 0.002113451232)
(0.009616230658 0.003518732144 -4.853006335e-06)
(0.0175017738 0.003365849443 0.0005253534547)
(0.009890447414 0.00292952141 0.001721118583)
(0.01011435976 0.0001568838222 4.55183268e-05)
(0.01221227287 0.003318381619 0.0002080150971)
(0.01239286794 0.004050434138 -8.986195403e-05)
(0.011286122 0.001666349636 -0.0002622399633)
(0.006844589481 0.002607291954 0.000152108573)
(0.01217352938 0.005011237873 0.0001823812588)
(0.006081743309 0.001202637827 0.0006070036086)
(0.009637297847 0.003131846446 0.0004116563865)
(0.01370805283 0.003815601791 -0.0003639211774)
(0.008730443102 0.001077824908 0.0002800597235)
(0.01127286775 0.003310393779 -7.194649571e-05)
(0.01687028976 0.003611523217 0.0002564778259)
(0.01236443136 0.001704296024 0.0003894509521)
(0.01314121469 0.004929643433 -7.616082141e-06)
(0.01396808365 0.004883448663 0.001774439822)
(0.01638115614 0.005162307783 -0.002897159479)
(0.01363480434 0.002598476983 -0.0002205425773)
(0.0164399776 0.006585252623 -0.003645024779)
(0.008996350588 0.002061766919 0.0007443781084)
(0.008900173218 0.001597905662 0.001666287443)
(0.01215833704 0.004932726489 -0.0008550951669)
(0.01803294278 0.01025919186 -0.001303188389)
(0.01736825384 0.004301692313 0.0002148252964)
(0.00891996613 0.002611881973 -0.0005703290358)
(0.01541338633 0.005896165076 0.0007271434451)
(0.01581697095 0.004541702678 -0.001507881421)
(0.0181204145 0.004915214721 -0.002455215706)
(0.01111774 0.002278601139 -0.00033881227)
(0.0117859673 0.003798727752 -0.001223899683)
(0.01065199299 0.001125885674 0.0005568411546)
(0.01014501548 0.004926702281 0.0004447591147)
(0.007913889734 0.002295483382 -0.001520095213)
(0.01367973734 0.00409406262 0.0001872338036)
(0.009400609463 0.001210728285 -0.0007615188556)
(0.01002288195 0.00172479179 0.0009052853863)
(0.01633346799 0.002019062953 -0.0005501081505)
(0.008097449747 0.002070967181 0.0001937618947)
(0.0154224178 0.001928696915 0.0008113691007)
(0.01181049162 0.004423656602 -0.0001885838776)
(0.009975579751 0.001552592318 -0.0008982223797)
(0.01289225136 0.00557428437 0.0001970852733)
(0.01149544441 0.003494289826 0.001267391955)
(0.01451021201 0.005496497105 0.0005786501779)
(0.016279364 0.007187331677 -0.0001224718781)
(0.00972938093 0.002681548512 0.0009141730229)
(0.01431998341 0.003261782505 0.001690045479)
(0.01436215793 0.005233194305 -0.000985856018)
(0.01611762093 0.004374005132 0.0002797346835)
(0.01302050441 0.005001010542 1.755625172e-06)
(0.01886916174 0.002219509875 0.001642701064)
(0.008599500472 0.003129999619 0.0005353564581)
(0.01354040517 0.001946407423 0.0009838025754)
(0.01473416401 0.006615793744 0.002866685149)
(0.01348461019 0.003228904921 0.000526469365)
(0.01155025682 0.002515330219 0.0007655907163)
(0.01440875808 0.005681503672 0.0006454900698)
(0.007727285191 0.001974319644 0.0001018525243)
(0.01739194031 0.007721979799 0.0009144263653)
(0.01281598821 0.002513831309 0.00128883521)
(0.01540370376 0.001967436701 0.001179002664)
(0.01606756408 0.00502319444 -0.0002903083001)
(0.009396841348 0.001943565216 0.0008483321313)
(0.01359881022 0.00169047455 -0.0006670979788)
(0.01493149665 0.002765915042 0.0006908588714)
(0.01084047883 0.003510851278 -0.0006226637906)
(0.01263438352 0.00179282768 0.0004051315166)
(0.01447429761 0.002643116051 0.001330504883)
(0.01315605246 0.004156691899 0.001447787919)
(0.007105092409 0.001463046435 -0.0008619891368)
(0.01422568602 0.005054564515 0.0006895663833)
(0.01291273264 0.002540187499 0.001314246702)
(0.01088809268 0.00159939463 -0.00151267956)
(0.01195016887 0.002914801792 -0.0004218528892)
(0.01572405114 0.00564214194 -0.0001347349876)
(0.01867024748 0.005203477465 -0.002686881815)
(0.01152510388 0.002601108978 0.00130731558)
(0.008848354146 0.001332237333 0.0005243093839)
(0.01411378727 0.006395244537 -0.002158218035)
(0.02021478786 0.009281608069 0.001506441587)
(0.009646233128 0.002806406235 -0.0006643752831)
(0.01345239545 0.003122615747 0.0009348555393)
(0.01109759339 0.006313206122 -0.0003658613958)
(0.01821750454 0.00602033731 0.0003304067703)
(0.01989221926 0.007436954203 0.002311623073)
(0.003092049701 0.001094631938 -0.0001420928724)
(0.01165348083 0.004740181857 0.001345249856)
(0.01203057473 0.003548850134 -0.000315780051)
(0.01085869618 0.003004738493 -0.001586591137)
(0.01652498771 0.006163503596 0.002504554472)
(0.01458167174 0.005994906708 -0.0004920370316)
(0.01108690167 0.003107992893 -0.0002685501156)
(0.008490329896 0.002898398707 0.0006954893689)
(0.00944396195 0.001874297041 0.0009862134717)
(0.01118649412 -7.134441192e-05 0.0003117201806)
(0.01419719062 0.001320975438 0.000586285474)
(0.00543207401 0.0005340322986 0.0002693924003)
(0.004931442511 0.001073827982 -0.0004139569677)
(0.006535356225 0.0007251296662 -0.0003082885653)
(0.01041516121 0.002275611915 -0.0009472277765)
(0.01415667979 0.004817467112 -0.0005933555254)
(0.007094507975 0.001120443895 -0.001712803214)
(0.01151954904 0.003442170836 -0.0009755196248)
(0.01347672258 0.003013729179 0.0005586511105)
(0.02132149761 0.006078850652 0.002092130449)
(0.02617642325 0.007123191892 -0.0008881912872)
(0.01587570654 0.003290697295 -0.0004514670584)
(0.02071146653 0.006492721623 -0.004255335099)
(0.01315523942 0.007135881824 -0.0006405394284)
(0.02175911791 0.007787155614 -0.0009736389149)
(0.01777013607 0.002506098654 0.001034693541)
(0.02192218743 0.003881616202 -0.001871363127)
(0.01352494875 0.006461074957 0.000249706705)
(0.01645919576 0.005044237684 -6.416106367e-05)
(0.01726290292 0.003636929423 0.0003538747187)
(0.0143533491 0.002905583402 0.0003083478955)
(0.009631635234 0.003826481557 -0.001624831189)
(0.01270915827 0.003983119421 -0.001367227999)
(0.01054693106 0.003083045889 0.002514516429)
(0.01188655578 0.003822584019 0.001178278323)
(0.009531091052 0.002929598467 -0.0008532225969)
(0.02218439075 0.008389608947 -0.002322400006)
(0.01677556768 0.005970462421 0.0007238247093)
(0.01386165938 0.003266291054 -0.0007655421189)
(0.01030919958 0.001792864822 0.0007404874513)
(0.007195221843 0.00196448629 0.000543367408)
(0.01165584759 0.002902465048 0.0004617185523)
(0.006972110403 0.004566457495 -0.0005681707313)
(0.0098054924 2.141385919e-05 -0.001306063516)
(0.01223791468 0.001229325127 -0.0006575217821)
(0.01312286485 0.003560652081 0.0006483165927)
(0.01184795439 0.002302462444 0.0004241433678)
(0.01346216804 0.002102309533 -6.056346046e-05)
(0.01364147786 0.001697745439 0.0003311784124)
(0.01772804897 0.006007335913 0.000953129433)
(0.00991571481 0.00374351591 0.001484482279)
(0.01762739209 0.003051239814 -0.001736978131)
(0.01029298156 0.003511387965 -6.133186804e-05)
(0.01324052671 0.005340710351 0.0003955829923)
(0.01478048317 0.003921186683 0.0001722532592)
(0.01227544419 0.004857418952 0.002998743854)
(0.01352672614 0.003690213404 0.00213934334)
(0.0144026745 0.003300973497 -0.0007475954377)
(0.01168583807 0.002675285883 -0.0001422587869)
(0.01074155819 0.001696034131 -0.0003633939173)
(0.01293312017 0.005738089346 -9.854259385e-05)
(0.007828395837 0.003620443963 -0.0008618296668)
(0.02398223275 0.005707978236 0.002215188564)
(0.01278111342 0.003711345591 -0.001834879105)
(0.01613778619 0.00673518071 -0.0006385861541)
(0.01273993433 0.005108312248 -0.002486006767)
(0.01017557578 0.00145855975 -0.0005385191881)
(0.01365651242 0.001535751454 0.001028342507)
(0.01484851265 0.00457625828 0.001821486057)
(0.00932414251 0.000909768879 0.001673994756)
(0.008852598934 0.0005488656861 -0.0001757212197)
(0.01570752393 0.001070133424 -0.0005782573232)
(0.01373733992 0.001565513834 -0.0008646908594)
(0.008713675275 0.001457140735 0.0004001856779)
(0.008570941183 0.001185838086 -1.810022076e-05)
(0.006438088571 0.001191932547 -0.0001099994093)
(0.01485721052 0.002039760387 0.000696766613)
(0.01348100659 0.002830964033 0.0002134090997)
(0.009041154558 0.0001822682764 0.0003025448296)
(0.01261624262 0.002144852094 -0.001089846161)
(0.01221157344 0.003932572052 0.0003975764238)
(0.02135003514 0.006600662873 -0.0006790337464)
(0.01017510194 0.002090161236 -0.0001536930497)
(0.0123066662 0.003885910078 0.0008781411399)
(0.01018537755 0.003167820964 0.0001378421842)
(0.01547021602 0.006019400031 -0.001244222775)
(0.01211834945 0.006346621416 0.001401458237)
(0.01784368319 0.00791425655 -0.0001413705431)
(0.0117428846 0.002570781971 0.0007370577464)
(0.01844971574 0.007957978074 0.002061562415)
(0.01612296155 0.005815395074 -0.001208830538)
(0.02095020382 0.005204927101 0.002778148109)
(0.01116775903 0.00348186647 0.00136435399)
(0.02558421877 0.008288874028 -0.001412127172)
(0.01460735309 0.005715804478 0.001709616652)
(0.01857584638 0.005706133649 0.0007915593766)
(0.01095122045 0.004519638306 0.0007290178055)
(0.01653045118 0.005576739003 0.002241500927)
(0.01673431863 0.004940504209 0.0005424068109)
(0.002926576286 0.0004983333459 -0.0003835058821)
(0.006392200931 0.0002364071332 -0.0008101834797)
(0.00526121679 0.0006517126452 0.0006063479789)
(0.0127755965 0.0002937303684 0.0002031501603)
(0.008094904533 0.001885523991 0.001571695484)
(0.01306248091 0.0006102116113 -0.0006237908595)
(0.007225050746 0.003551314975 0.0002794383227)
(0.007812968053 0.0007799060367 0.0004051918009)
(0.00962354788 0.002334073207 -3.515364649e-05)
(0.01632978346 0.003879237553 0.0006565382596)
(0.008106618573 0.001181925087 0.0003883021321)
(0.009825774536 0.0002594898265 0.0001001575812)
(0.01708673657 0.004246190611 -8.705853327e-06)
(0.01119719606 0.003402327288 -0.0001955514843)
(0.01449089524 0.005195195242 -0.001021858038)
(0.007893916636 0.002130295824 0.0008793147346)
(0.01445570388 0.003658528537 -0.0003616190011)
(0.01994273438 0.006353085547 0.00188427703)
(0.01877126267 0.008657596397 0.0008695705779)
(0.01110291094 0.004213342908 0.0003365464782)
(0.01771212015 0.003695802233 -0.002490018006)
(0.01012966428 0.003627858135 -0.0006084098755)
(0.01191579021 0.005643926642 0.0006320969017)
(0.0256688683 0.008250903969 0.002408519185)
(0.01816743526 0.007021348759 -0.002981299022)
(0.01044919807 0.003808422645 0.0009864849609)
(0.01700486035 0.006489367742 -0.00124436278)
(0.00978454743 0.002737165975 0.001025867463)
(0.01268120493 0.004531976971 -0.001695155207)
(0.0125508508 0.004755391996 -0.0001318065692)
(0.005118086331 -0.0003241400591 0.0003253884841)
(0.0063235785 0.0003186771571 -0.0004904100157)
(0.004514018356 6.731802244e-06 0.0001069524343)
(0.01169429855 -0.0007867233997 0.0002473346546)
(0.006640384729 0.0001006820284 0.0001778035144)
(0.00510334568 0.0005926750689 -0.0005251457191)
(0.009369104002 0.000720144564 0.001079257426)
(0.008688706565 0.001308685173 0.001241563597)
(0.008589145939 0.002027340824 -0.0001757458896)
(0.0109686461 0.0007642886123 -0.001961769042)
(0.01003082511 0.001918138939 -0.001542073869)
(0.0114751783 0.002444303327 -0.0006274193347)
(0.01130015702 0.002328274053 0.0006078017531)
(0.01881254719 0.003580858473 0.002749896655)
(0.01114814639 0.003611569208 7.646195966e-05)
(0.01402566212 0.004732231502 0.001341427015)
(0.01426768006 0.005489134374 0.0003247435919)
(0.01198114009 0.004000304713 -0.001719862934)
(0.01248824044 0.004179810484 0.0006830984424)
(0.01222923769 0.00228284615 -0.0001741998339)
(0.02039335353 0.004750005499 -0.001407621779)
(0.007771455318 0.0005089163283 -0.00133646734)
(0.01812950328 0.005822804388 0.0006616170515)
(0.01175218607 0.006231846054 0.001367185131)
(0.02137967369 0.005859022867 -0.0009353930888)
(0.01891976572 0.008039292861 0.000171023309)
(0.01727399347 0.006103101637 -0.001511329745)
(0.01461932241 0.007030094203 0.0003185054758)
(0.01631824912 0.005957724919 -0.001320428713)
(0.01157647474 0.0001649591475 0.0001359605501)
(0.00915747919 1.516151101e-05 -0.0004635268766)
(0.0106057062 0.0006721399036 -0.0006224488399)
(0.01307523756 0.001132429386 0.0004471909921)
(0.007031497713 0.0005456806772 -0.0002622439021)
(0.007200862741 -5.116738984e-05 -0.0002030255483)
(0.008366983059 0.001562022931 -0.0004359864545)
(0.00300849229 0.001555085975 0.0001838750475)
(0.007591705137 6.904732804e-05 -0.0001308972131)
(0.007029768134 0.0008758967586 3.314666981e-05)
(0.003947625356 -0.0001692151738 -0.0005159112264)
(0.003568468459 0.001902625965 -0.0002065976059)
(0.01480100093 0.003255484597 0.001066700897)
(0.01094544048 0.001749583731 0.0003426059803)
(0.01024766699 0.003486053547 -0.0002535757681)
(0.0118049471 0.003341349386 0.000630071792)
(0.01135805855 0.002220052995 0.001155351276)
(0.01376769035 0.00372636932 -0.0001058052949)
(0.01736328256 0.004567061521 -0.0002568320878)
(0.01831754646 0.005303549125 -0.001876445822)
(0.01137530428 0.002298953159 0.0001831921646)
(0.01277817359 0.004139911969 -0.0009021068276)
(0.01692767212 0.005162073299 0.0001651607939)
(0.01280628724 0.004368682364 -0.0004758453495)
(0.008199900344 -0.0003619318306 0.0003944557849)
(0.009020399724 0.0002768181011 -0.0008808539583)
(0.0111653744 -0.0009153307036 0.001060866555)
(0.006035812114 0.0001988980659 -0.0006192550435)
(0.007630541748 0.0002202761422 -0.0003726203395)
(0.005697499593 6.127198096e-05 -0.000537205437)
(0.00546376787 -0.0004993571861 -0.0006965503135)
(0.00849153656 0.0006884069216 0.0001369236392)
(0.005245739011 0.0008347950432 -0.001318617142)
(0.01039113035 0.002075674565 -0.0008902440254)
(0.01177675211 0.0002774750807 0.0001393689626)
(0.008997070677 0.001541254485 -0.0004931201278)
(0.01015480336 0.002178427952 -0.0002011273316)
(0.01215963778 0.002597868396 0.00101345687)
(0.01071359733 0.001821988746 0.0002255933851)
(0.009093630199 0.001948992343 0.0004078480482)
(0.01618776148 0.004607191365 -0.0005949448442)
(0.008151911681 0.003236785701 -4.031746819e-05)
(0.01912384297 0.003666709849 0.001478694743)
(0.01052613599 0.0003255043994 -0.001183345468)
(0.005724768242 -0.0001217100699 -0.0002277850873)
(0.008664419587 -4.080624616e-05 0.0004798556965)
(0.01016754369 -9.0407444e-05 4.820038387e-05)
(0.004975038179 8.810294033e-05 0.0006660194999)
(0.01110913465 2.826169049e-05 -0.000552324066)
(0.007622971969 0.0005698767935 -0.0007032995646)
(0.01459882384 0.000499337332 0.0004343120032)
(0.008832030449 0.002430478302 -0.0004431991305)
(0.01030735389 -0.0001483476639 0.0009647240112)
(0.01796632591 0.0004751260742 -0.0005090408665)
(0.01428118683 0.0007898664311 -0.00117597441)
(0.007105620175 0.0006322230447 -0.0006334822774)
(0.008724514807 0.002920001907 -0.000513038501)
(0.00623401846 0.0008340793754 0.000274195783)
(0.01026374029 -0.000648449984 -7.912139061e-06)
(0.006721189688 -0.0003287662543 0.0002572582691)
(0.009505515919 0.0006008641433 -0.001040858999)
(0.006703716499 0.0007773695728 0.0009898017161)
(0.008123563488 0.0003602662054 0.000408804337)
(0.012090998 0.0004940486523 -0.001356648571)
(0.00833984545 -0.0004850026145 -0.0001744081524)
(0.01244880541 -0.0001975628049 -0.0009973563155)
(0.007711814591 0.0008013158294 0.0005981443789)
)
;

boundaryField
{
    flow
    {
        type            zeroGradient;
    }
    obstacle
    {
        type            calculated;
        value           nonuniform List<vector> 
30
(
(2.200089212e-21 5.895121287e-22 2.361932977e-21)
(1.175095827e-21 3.148659785e-22 1.406673201e-21)
(-3.33404033e-22 -8.933534111e-23 5.048050651e-22)
(-3.465536895e-21 -9.285878141e-22 1.614882697e-21)
(1.465582619e-21 3.92701678e-22 1.780416116e-22)
(2.977639919e-21 7.978562132e-22 -1.64051694e-21)
(0 0 0)
(6.591299782e-22 1.766133448e-22 -2.574703226e-22)
(6.567975179e-22 1.759883648e-22 -1.604880566e-22)
(2.987987091e-21 8.006287294e-22 8.254974174e-22)
(8.789853772e-22 2.355234213e-22 2.458556546e-22)
(7.41811859e-21 1.987678889e-21 -1.135528741e-21)
(0 0 0)
(1.408203916e-21 3.773271009e-22 1.001792408e-21)
(3.40669149e-22 9.128202352e-23 1.90671798e-22)
(-1.128171197e-21 -3.022925602e-22 -1.75919768e-21)
(-4.550865462e-22 -1.219400728e-22 5.279562329e-23)
(0 0 0)
(-5.602124995e-22 -1.501084864e-22 1.590331516e-21)
(-1.563060613e-21 -4.188208296e-22 2.065103985e-21)
(0 0 0)
(-6.0568183e-22 -1.622919567e-22 -8.542782929e-23)
(0 0 0)
(0 0 0)
(1.031863461e-21 2.764869802e-22 -5.324641677e-21)
(3.245902412e-21 8.697369315e-22 1.050860062e-21)
(4.895726737e-21 1.311806021e-21 -4.555228888e-21)
(3.944859027e-22 1.057021792e-22 1.846632229e-22)
(2.488582008e-21 6.668135405e-22 -1.553594528e-21)
(-4.976470811e-22 -1.333441331e-22 9.83999129e-22)
)
;
    }
    frontAndBack
    {
        type            empty;
    }
    procBoundary1to0
    {
        type            processor;
        value           nonuniform List<vector> 
21
(
(0.008901562205 0.0006965286484 -0.001958978099)
(0.00846128608 -2.95643205e-05 -0.0005292955988)
(0.007681870856 0.003949814591 0.000789565674)
(0.01036072986 0.002925996874 -0.001302001829)
(0.01863377389 0.006275209185 0.0001453268906)
(0.01024296319 0.003392379069 0.002557746573)
(0.007908265537 0.003125495242 0.0005513672292)
(0.009831152845 0.001807638898 0.0001838158421)
(0.01195924304 0.002429610164 0.0005830634616)
(0.01037639215 0.001083667529 -0.0002344305879)
(0.01068971674 0.002251795403 -0.0002836474773)
(0.008342495339 0.0009568306123 -0.0004476124841)
(0.006936325215 0.0004838461662 0.0002393786046)
(0.008838618363 0.001350538184 0.0002113816282)
(0.01462266562 -0.0009283313653 -0.0006703482164)
(0.007146442341 0.0009405765855 0.000207985311)
(0.003005686097 -0.0001075261218 1.306567307e-05)
(0.009627119971 0.0006948110686 0.0001238384373)
(0.005970776479 0.0003811992766 -0.0001389463331)
(0.01101415407 -0.0008143568065 -0.0004272837529)
(0.005876987874 0.0002988443428 0.000206756843)
)
;
    }
    procBoundary1to3
    {
        type            processor;
        value           nonuniform List<vector> 
36
(
(0.01097281906 0.003326433406 -0.0007146238301)
(0.01063699074 0.004657697869 0.001387713679)
(0.01700011362 0.003048154013 -0.000462453119)
(0.007747522018 0.002515222668 -0.0008590765861)
(0.01519572241 0.008096646633 0.0003036446006)
(0.01097281906 0.003326433406 -0.0007146238301)
(0.02160865024 0.008817668358 0.002235828168)
(0.01483693507 0.002975382509 2.53018927e-05)
(0.008633358915 0.003357621754 0.0009710116007)
(0.01006876636 0.00438336068 0.002018483317)
(0.02009034054 0.006148479293 -0.001222448485)
(0.01063699074 0.004657697869 0.001387713679)