/*--------------------------------*- C++ -*----------------------------------*\
  =========                 |
  \\      /  F ield         | OpenFOAM: The Open Source CFD Toolbox
   \\    /   O peration     | Website:  https://openfoam.org
    \\  /    A nd           | Version:  7
     \\/     M anipulation  |
\*---------------------------------------------------------------------------*/
FoamFile
{
    version     2.0;
    format      ascii;
    class       volScalarField;
    location    "0.007";
    object      overallT;
}
// * * * * * * * * * * * * * * * * * * * * * * * * * * * * * * * * * * * * * //

dimensions      [1 2 -2 0 0 0 0];

internalField   nonuniform List<scalar> 
546
(
541.6216463
555.2577451
559.5824965
550.0726743
570.3202337
561.4453196
552.6466097
552.1290107
555.8537498
568.7179527
571.3138743
569.6455259
573.1262379
566.5313129
578.4718734
575.429639
579.1291637
579.6260427
555.1621805
567.3492594
569.78463
554.5232596
554.506782
541.4161447
550.3984246
537.0787316
535.9769367
528.7811519
513.0926097
474.9632098
555.4073106
547.4715079
563.8474699
546.4646991
561.1979253
572.9922486
562.9755477
561.912591
572.4986529
578.1139511
573.6439256
572.8341433
567.978239
586.7046342
593.3217435
577.4685334
583.7331939
589.5122091
578.2177057
572.1078502
566.2012693
562.8303721
559.0628306
561.5600753
548.0024598
541.681072
546.2389131
528.4729181
513.9598473
464.0103277
551.6990394
549.7538234
560.5612037
551.7586466
571.9773862
577.4368966
564.6070842
586.169689
575.3975104
574.8630847
563.1383596
566.1853606
574.2407603
584.3778909
580.7921697
573.3846178
586.6089969
588.8968842
573.3712747
566.0393328
584.6342823
582.5069479
562.998339
547.5767957
545.2090616
533.9077712
524.4298816
524.3935744
489.9696305
463.4101765
545.0753389
547.051875
572.073343
565.2128164
562.2491764
576.8677044
566.252732
578.9479051
585.2626864
562.0404124
574.4481377
577.5979432
578.0396728
585.950454
596.3114549
602.8392617
589.429087
598.533831
581.4147202
577.6249611
558.3840698
573.6245055
556.0537319
554.1756963
535.8036589
543.2285819
540.1453739
524.1992249
497.2764823
458.5175312
530.3434262
551.0495901
552.1605668
549.3978448
558.2860507
559.002526
556.0022365
565.6031774
578.6482177
564.1572727
582.903907
582.3265895
576.7172838
583.907622
588.339883
590.5605923
585.1005104
599.7118063
583.105544
568.8032017
563.2583731
559.290836
547.354501
552.826774
541.4550811
534.6621496
523.6796552
504.0493937
483.337574
456.3505997
511.872051
525.5932297
525.9320431
545.8724285
546.4096512
550.4995721
548.3277102
561.1999599
566.6302348
570.7007765
571.9981019
563.7980384
571.3472306
576.0695307
574.6158183
578.2556216
584.5564501
586.8083156
577.0643828
566.206278
564.3574052
538.2307697
546.991742
556.3937289
538.6652683
524.9513256
513.7122855
498.6841953
476.8907383
459.3201199
515.5903555
532.6458217
524.4242713
528.4993031
536.8114665
539.3061883
551.1131479
557.8931427
555.8030088
562.4783685
572.1583043
565.6626536
570.4496118
558.7419818
568.6352923
575.3523348
572.5141082
577.515493
594.4702919
553.9282092
573.4727391
556.7627385
555.6773234
536.5825448
540.1843067
523.7622395
522.4286351
503.0231538
485.7091954
458.9975991
513.720732
514.8528044
519.3744585
521.9538757
535.3113759
524.2967652
534.4732933
548.2365483
548.7565333
570.665725
560.9569723
558.9463344
560.9722889
552.5411434
566.2336181
568.3112767
565.9667959
571.5654815
576.8223039
550.0359402
555.8323264
559.8883346
553.4396762
536.596249
518.9474093
515.1739924
517.0917573
495.3859366
478.3739712
464.3816108
497.6489617
510.3722063
515.6975424
514.3714919
515.4249285
519.9227597
548.5687364
541.3305156
537.0561722
543.5714334
564.5108932
545.3186519
569.4424395
550.8914139
551.8995979
555.1262381
560.9751712
569.4894144
566.2158319
556.0737798
538.7469747
522.2480988
544.523635
539.4012313
537.2631134
511.7314758
501.674159
490.7896079
477.7471614
450.6627925
511.3929721
502.391855
514.1201035
514.1430525
528.7712289
522.0488059
536.0655206
535.3437836
521.8966717
538.406135
537.7031882
545.9604103
547.6263779
551.6292803
555.4994964
549.3358155
544.3140087
553.9656844
551.1165602
534.396548
538.9899894
527.0779317
542.3074094
541.9052345
535.258908
515.8266785
495.7430877
488.0840746
468.8709028
454.9107507
493.0440204
502.1158903
504.6580765
506.3452168
512.2474943
531.304184
539.5611048
533.0308444
530.526466
536.4261097
538.4529065
534.0734528
548.3378983
543.6194991
540.2354039
544.8000002
544.8644944
554.4821792
544.1835732
547.282623
532.3379086
537.1370851
521.9626759
524.3600464
515.4084896
516.7193546
499.8639664
481.4725718
478.554251
452.6690931
478.9180537
487.0826931
495.0709442
494.4998247
497.481114
510.777916
533.3119081
517.6803835
517.4121056
537.8728028
522.3028884
518.537709
529.6281842
525.9557496
518.6662806
528.1859809
538.1228874
535.7661899
526.6015664
519.0794474
520.0888469
510.8854824
512.4451739
509.7089369
508.2578381
505.1812393
491.0798244
475.842629
478.2497535
461.6075004
479.2995797
479.3784705
490.5229798
496.808498
496.0133314
504.0707028
507.6719353
506.066041
502.8738084
507.9952831
512.4771575
514.7879523
517.2043171
531.6835604
527.8734093
514.7311284
511.8986171
520.2885489
516.9002826
510.9880992
526.6566032
523.9204568
508.7091307
503.5866236
491.5607723
489.5676352
479.6464435
478.5317161
466.0167349
449.7954443
471.3476035
478.8832528
488.5493455
484.5469713
494.1246432
490.1438399
501.6234038
504.4799827
502.153599
511.5038524
518.5846692
522.9974127
515.5920443
508.6944316
503.6521362
506.1695194
529.3181845
521.0180927
512.4613751
519.4044738
524.2790005
512.5890125
504.3022067
494.939295
493.1854742
488.8162364
463.0636281
464.5225295
454.9520786
439.7406713
487.5835979
481.8507665
491.6155706
486.2283617
483.9512459
489.9539412
488.6719586
502.5931395
499.0654829
492.2661259
500.4101071
508.7955775
497.8564777
499.7340746
503.0605064
510.4795989
510.0143622
501.4515077
502.0200169
484.4196762
504.6031493
502.0168033
503.4212456
488.2481739
484.7759242
469.4847526
459.4431207
458.0457766
448.0359952
431.80611
469.5352263
481.2902498
481.3036967
473.9776033
478.5369618
480.9608396
491.6108936
501.9140452
496.4711064
492.533182
487.7189048
495.3444029
506.7993556
504.2890962
496.69883
502.3758741
494.0840615
501.8357504
487.1492415
490.1961859
493.2929465
493.543711
482.4831725
464.9770106
476.1941869
476.6088943
465.4637062
452.4049671
441.7184318
470.724244
469.6273158
483.5576705
474.5574717
475.0050322
481.4133458
490.2318966
490.5382635
491.4976187
487.8352141
484.6375489
488.6993368
493.0428243
489.3006996
489.0031688
497.9733343
492.0615477
494.6775267
491.7530127
486.356796
486.1404824
486.3719105
475.6044709
471.8695405
465.059132
473.3836997
471.6660717
475.108071
473.8692868
474.511059
486.036339
476.2019636
476.0218918
480.6952725
479.9966715
480.955241
479.2017536
479.9776747
493.1407602
477.432003
472.9323358
473.9066406
467.0662709
459.8118116
455.8614956
456.1471281
461.7133186
471.117815
469.0995754
459.0322044
470.0600185
475.2491607
468.3237208
473.7460717
479.4881305
487.6381341
476.1313877
449.0833262
452.2173481
450.3932933
466.5077233
471.163771
466.761173
460.4446034
471.0467742
447.611111
441.4890319
)
;

boundaryField
{
    flow
    {
        type            calculated;
        value           nonuniform List<scalar> 
15
(
474.9632098
464.0103277
463.4101765
458.5175312
456.3505997
459.3201199
458.9975991
464.3816108
450.6627925
454.9107507
452.6690931
461.6075004
449.7954443
439.7406713
431.80611
)
;
    }
    obstacle
    {
        type            calculated;
        value           nonuniform List<scalar> 
30
(
551.0523263
527.3037511
534.7140495
539.0898915
561.7580576
538.1948802
564.4291413
557.4822331
552.9365092
528.622896
554.9612317
555.2777428
565.8863577
540.7744071
544.4347107
550.9675155
557.9742976
551.031992
563.4510273
575.3534547
562.9569466
551.1479875
572.6887429
556.8673549
525.0419821
511.5483538
517.8605249
534.8625214
508.2100924
483.8264058
)
;
    }
    frontAndBack
    {
        type            empty;
    }
    procBoundary1to0
    {
        type            processor;
        value           nonuniform List<scalar> 
21
(
534.0341529
554.7619236
550.4801034
544.7508627
523.9340354
509.367621
523.6845702
504.2858356
504.0043714
501.4191985
493.2131741
483.9523251
488.0916483
479.68479
484.4440081
476.4166049
468.0499243
454.4661819
452.5900559
451.5895751
435.4799805
)
;
    }
    procBoundary1to3
    {
        type            processor;
        value           nonuniform List<scalar> 
36
(
433.5832843
467.2466662
460.7204859
451.8658349
441.1063534
433.5832843
434.3912409
470.6249426
475.2308979
483.0332299
471.2939502
467.2466662
472.4202367
474.6800174
475.5668376
473.5534031
462.3138743
470.6249426
470.4569006
477.5552458
471.5493097
471.5182648
469.2455653
473.5418573
474.6800174
461.5211246
450.29906
460.6817364
456.6547611
458.4925111
463.5115919
477.5552458
457.8766616
448.5059741
450.29906
449.7716735
)
;
    }
}


// ************************************************************************* //
