/*--------------------------------*- C++ -*----------------------------------*\
  =========                 |
  \\      /  F ield         | OpenFOAM: The Open Source CFD Toolbox
   \\    /   O peration     | Website:  https://openfoam.org
    \\  /    A nd           | Version:  7
     \\/     M anipulation  |
\*---------------------------------------------------------------------------*/
FoamFile
{
    version     2.0;
    format      ascii;
    class       volScalarField;
    location    "0.007";
    object      rhoMMean;
}
// * * * * * * * * * * * * * * * * * * * * * * * * * * * * * * * * * * * * * //

dimensions      [1 -3 0 0 0 0 0];

internalField   nonuniform List<scalar> 
546
(
1.480982092e-05
1.471149784e-05
1.489951081e-05
1.461620584e-05
1.460229095e-05
1.461891779e-05
1.48013725e-05
1.457535021e-05
1.427966245e-05
1.423101426e-05
1.397690764e-05
1.402138782e-05
1.41928445e-05
1.4000046e-05
1.417092353e-05
1.436811351e-05
1.400575949e-05
1.389805504e-05
1.374914871e-05
1.362381523e-05
1.36940977e-05
1.369388679e-05
1.340370456e-05
1.328966098e-05
1.312382952e-05
1.286591499e-05
1.232506835e-05
1.171736282e-05
1.0654201e-05
8.831443413e-06
1.318132564e-05
1.316521188e-05
1.333417871e-05
1.33380693e-05
1.328938378e-05
1.316539625e-05
1.311139206e-05
1.305897438e-05
1.284732264e-05
1.292036877e-05
1.295659465e-05
1.286832594e-05
1.307929807e-05
1.285758649e-05
1.2969168e-05
1.283154632e-05
1.256081535e-05
1.269984066e-05
1.260512571e-05
1.273222536e-05
1.258438191e-05
1.257770393e-05
1.255939843e-05
1.237596067e-05
1.20270082e-05
1.177579372e-05
1.156303536e-05
1.073565074e-05
9.723630041e-06
8.289913378e-06
1.226572393e-05
1.250237876e-05
1.263626944e-05
1.253064446e-05
1.26121977e-05
1.270141311e-05
1.265959287e-05
1.229460204e-05
1.239762262e-05
1.231731414e-05
1.239741309e-05
1.221568215e-05
1.238909341e-05
1.227481818e-05
1.240587683e-05
1.211066929e-05
1.20802024e-05
1.199043613e-05
1.19890897e-05
1.20183501e-05
1.200094899e-05
1.177941862e-05
1.17456042e-05
1.149306872e-05
1.160848614e-05
1.143115786e-05
1.073879133e-05
1.022202466e-05
9.521072153e-06
8.328109307e-06
1.157456989e-05
1.179359733e-05
1.191775818e-05
1.204765226e-05
1.213924374e-05
1.216348899e-05
1.222267214e-05
1.217052064e-05
1.219234689e-05
1.200949958e-05
1.199132608e-05
1.201195353e-05
1.199897642e-05
1.19514309e-05
1.201256176e-05
1.183257187e-05
1.190287479e-05
1.185020313e-05
1.179485972e-05
1.161053107e-05
1.149847934e-05
1.156908811e-05
1.154003661e-05
1.129835024e-05
1.11853128e-05
1.099772728e-05
1.056978175e-05
1.017503407e-05
9.502180413e-06
8.43133135e-06
1.08460802e-05
1.11705349e-05
1.142911723e-05
1.169770725e-05
1.182048618e-05
1.191143491e-05
1.205856927e-05
1.203759053e-05
1.18474215e-05
1.196536658e-05
1.195981607e-05
1.191144515e-05
1.188693034e-05
1.17913258e-05
1.188482682e-05
1.177400425e-05
1.158083575e-05
1.165610972e-05
1.166945826e-05
1.149063296e-05
1.151696363e-05
1.146244461e-05
1.12827208e-05
1.096068887e-05
1.075988428e-05
1.06748161e-05
1.047351109e-05
1.001583869e-05
9.52853868e-06
8.71040544e-06
9.953349804e-06
1.046234179e-05
1.085400895e-05
1.105018483e-05
1.13912691e-05
1.154345155e-05
1.184035131e-05
1.191417658e-05
1.188487868e-05
1.198081915e-05
1.207590274e-05
1.190159161e-05
1.197102463e-05
1.185961932e-05
1.194482365e-05
1.187466769e-05
1.182408585e-05
1.148402278e-05
1.148326778e-05
1.152552177e-05
1.143188057e-05
1.128245436e-05
1.109711193e-05
1.111547843e-05
1.093321879e-05
1.064204607e-05
1.036085121e-05
1.012204411e-05
9.604563239e-06
9.061182243e-06
9.065785014e-06
9.532565671e-06
9.977805391e-06
1.044893743e-05
1.084221114e-05
1.107559413e-05
1.130929675e-05
1.15391649e-05
1.186288986e-05
1.181058425e-05
1.18098391e-05
1.166870764e-05
1.167153567e-05
1.16788224e-05
1.174736325e-05
1.181947566e-05
1.174420163e-05
1.172627845e-05
1.151264177e-05
1.149258664e-05
1.150554354e-05
1.14270189e-05
1.117174648e-05
1.099558194e-05
1.090692977e-05
1.073140443e-05
1.051161512e-05
1.029336864e-05
9.889578172e-06
9.282155338e-06
8.247298261e-06
8.766186198e-06
9.224582562e-06
9.690467193e-06
1.015819566e-05
1.052391409e-05
1.084566392e-05
1.109463853e-05
1.12812507e-05
1.14245208e-05
1.153035565e-05
1.166742683e-05
1.173708528e-05
1.177811675e-05
1.159569446e-05
1.165538033e-05
1.175931707e-05
1.184096074e-05
1.174638379e-05
1.153266188e-05
1.149339727e-05
1.159429251e-05
1.136025301e-05
1.118602278e-05
1.099003001e-05
1.08293042e-05
1.066819773e-05
1.031202134e-05
9.945417488e-06
9.634143027e-06
7.406481512e-06
7.917365367e-06
8.390794446e-06
8.854913185e-06
9.319551621e-06
9.82965455e-06
1.021882569e-05
1.049578119e-05
1.088468468e-05
1.124274899e-05
1.140596924e-05
1.152982158e-05
1.165902558e-05
1.172985144e-05
1.174769919e-05
1.169542881e-05
1.16683346e-05
1.181042884e-05
1.192168643e-05
1.180897011e-05
1.169067847e-05
1.168753017e-05
1.148480772e-05
1.128286807e-05
1.122357328e-05
1.099276987e-05
1.072604285e-05
1.054274443e-05
1.022277314e-05
9.815755055e-06
6.776711879e-06
7.234443502e-06
7.698411487e-06
8.033854285e-06
8.388745491e-06
8.928314234e-06
9.380315255e-06
9.918893195e-06
1.023238123e-05
1.049673716e-05
1.086728561e-05
1.118232753e-05
1.130140114e-05
1.153840516e-05
1.17242748e-05
1.176385417e-05
1.179254661e-05
1.178903439e-05
1.175519303e-05
1.184238804e-05
1.161747268e-05
1.157341301e-05
1.161042717e-05
1.149390748e-05
1.13666416e-05
1.128303583e-05
1.099331651e-05
1.079320902e-05
1.052363292e-05
1.013274858e-05
6.345524781e-06
6.573024585e-06
6.991268411e-06
7.421184994e-06
7.754391688e-06
8.262935139e-06
8.712816053e-06
9.129560604e-06
9.546504183e-06
9.985907227e-06
1.024539188e-05
1.065415763e-05
1.096086789e-05
1.131576233e-05
1.156557278e-05
1.170179391e-05
1.171513661e-05
1.156224352e-05
1.165936029e-05
1.170494812e-05
1.169866529e-05
1.180617589e-05
1.179589535e-05
1.167910859e-05
1.160382166e-05
1.146075382e-05
1.118129185e-05
1.097358777e-05
1.072844833e-05
1.045248423e-05
5.863468574e-06
6.184315144e-06
6.447242461e-06
6.800844988e-06
7.220202016e-06
7.59873159e-06
7.951998148e-06
8.397011045e-06
8.789139571e-06
9.279894123e-06
9.696888832e-06
1.00942162e-05
1.037538512e-05
1.070294257e-05
1.104574565e-05
1.131796633e-05
1.146239311e-05
1.160635685e-05
1.166354791e-05
1.187665992e-05
1.1885049e-05
1.175852245e-05
1.168314732e-05
1.163431979e-05
1.15639894e-05
1.153928947e-05
1.141757709e-05
1.114062002e-05
1.103555149e-05
1.084584288e-05
5.65683762e-06
5.823881957e-06
6.007362131e-06
6.268843404e-06
6.532747816e-06
6.853063605e-06
7.2313375e-06
7.608844154e-06
8.135098275e-06
8.57689147e-06
9.050125103e-06
9.40801497e-06
9.867231449e-06
1.022923679e-05
1.050033084e-05
1.086720381e-05
1.129294147e-05
1.155058296e-05
1.168666232e-05
1.177306062e-05
1.186746948e-05
1.206010275e-05
1.19716203e-05
1.174850797e-05
1.164692038e-05
1.158855061e-05
1.158206582e-05
1.149651594e-05
1.120767998e-05
1.097046097e-05
5.325197311e-06
5.501573025e-06
5.720093881e-06
5.912491574e-06
6.107593274e-06
6.369601687e-06
6.696192735e-06
7.078071621e-06
7.397583309e-06
7.922088456e-06
8.355932626e-06
8.848242742e-06
9.244312982e-06
9.671003869e-06
1.003537166e-05
1.039027238e-05
1.067551913e-05
1.099261335e-05
1.120474149e-05
1.148114055e-05
1.175915827e-05
1.166600759e-05
1.176728621e-05
1.186659523e-05
1.170645408e-05
1.168905392e-05
1.167662067e-05
1.168939418e-05
1.160051565e-05
1.13656912e-05
5.293122189e-06
5.357239616e-06
5.459052391e-06
5.626959588e-06
5.791739219e-06
6.043224678e-06
6.265502848e-06
6.571300755e-06
6.854949935e-06
7.152973987e-06
7.535479817e-06
7.951130482e-06
8.354758104e-06
8.784711265e-06
9.240115514e-06
9.628255814e-06
1.005548317e-05
1.034382508e-05
1.077064515e-05
1.11496466e-05
1.12777757e-05
1.162950834e-05
1.175537885e-05
1.176907205e-05
1.193049471e-05
1.181971792e-05
1.182424932e-05
1.167660221e-05
1.151825106e-05
1.129764937e-05
5.09719368e-06
5.148818353e-06
5.253523587e-06
5.380246167e-06
5.521181711e-06
5.682933257e-06
5.895156767e-06
6.08775239e-06
6.377993125e-06
6.631232352e-06
6.941375663e-06
7.339370604e-06
7.790225934e-06
8.168106884e-06
8.602581935e-06
9.081221239e-06
9.52458838e-06
9.94495075e-06
1.022186589e-05
1.062189983e-05
1.092383362e-05
1.117921085e-05
1.147454041e-05
1.17653452e-05
1.178506198e-05
1.176345079e-05
1.177115817e-05
1.172474658e-05
1.164671272e-05
5.012145988e-06
5.088615965e-06
5.148833359e-06
5.292745878e-06
5.400086542e-06
5.512532097e-06
5.628232042e-06
5.810764514e-06
5.999310588e-06
6.266590769e-06
6.525111781e-06
6.801408923e-06
7.152021854e-06
7.533591576e-06
7.963146562e-06
8.327416926e-06
8.689698954e-06
9.151147283e-06
9.62338748e-06
9.987312082e-06
1.049687632e-05
1.082844201e-05
1.1139436e-05
1.146194043e-05
4.926263342e-06
5.001327139e-06
5.054658426e-06
5.105090336e-06
5.159203192e-06
5.241386154e-06
5.375338345e-06
5.516483758e-06
5.649265941e-06
5.833211157e-06
6.039785155e-06
6.331817568e-06
6.556996977e-06
6.899556686e-06
7.285447586e-06
7.658403381e-06
8.155700698e-06
8.521815375e-06
9.03030528e-06
4.962161111e-06
5.006493784e-06
5.014001048e-06
5.042417381e-06
5.10836726e-06
5.191534155e-06
5.237371434e-06
5.340077701e-06
5.417865038e-06
5.616244685e-06
5.785941819e-06
5.98997955e-06
6.24337421e-06
6.545956269e-06
4.851491303e-06
4.892252829e-06
4.882951517e-06
4.939201738e-06
4.994661668e-06
5.05155427e-06
5.149401135e-06
5.276830762e-06
4.882608186e-06
4.884825912e-06
)
;

boundaryField
{
    flow
    {
        type            calculated;
        value           nonuniform List<scalar> 
15
(
8.831443413e-06
8.289913378e-06
8.328109307e-06
8.43133135e-06
8.71040544e-06
9.061182243e-06
9.282155338e-06
9.634143027e-06
9.815755055e-06
1.013274858e-05
1.045248423e-05
1.084584288e-05
1.097046097e-05
1.13656912e-05
1.129764937e-05
)
;
    }
    obstacle
    {
        type            calculated;
        value           nonuniform List<scalar> 
30
(
6.665959032e-24
6.323039877e-24
6.672940044e-24
6.550908351e-24
6.230976053e-24
6.561991331e-24
6.386895373e-24
6.28000516e-24
6.242481924e-24
6.15805627e-24
6.067043321e-24
6.063459545e-24
6.147533723e-24
6.282717968e-24
6.066194165e-24
6.302362563e-24
5.914592794e-24
6.097699767e-24
6.025047014e-24
5.842592761e-24
5.913767116e-24
5.993554859e-24
5.832065728e-24
5.771478857e-24
5.521959572e-24
5.396499097e-24
5.449646499e-24
5.04455214e-24
4.556555903e-24
3.848595051e-24
)
;
    }
    frontAndBack
    {
        type            empty;
    }
    procBoundary1to0
    {
        type            processor;
        value           nonuniform List<scalar> 
21
(
1.502692968e-05
1.328574931e-05
1.236048673e-05
1.126917269e-05
1.04166729e-05
9.573733904e-06
8.528899108e-06
7.759633635e-06
6.930798778e-06
6.453681856e-06
6.030910383e-06
5.632369099e-06
5.498556486e-06
5.254030595e-06
5.130436652e-06
5.043128456e-06
4.983264909e-06
4.89216561e-06
4.919326439e-06
4.880791982e-06
4.801314788e-06
)
;
    }
    procBoundary1to3
    {
        type            processor;
        value           nonuniform List<scalar> 
36
(
1.168217265e-05
1.165675094e-05
1.183646104e-05
1.179689632e-05
1.181343126e-05
1.168217265e-05
1.183246403e-05
9.455525526e-06
9.798097215e-06
1.019927419e-05
1.058015979e-05
1.165675094e-05
1.093400161e-05
6.840641071e-06
7.168286174e-06
7.58803514e-06
8.000578744e-06
9.455525526e-06
8.380922726e-06
5.389080963e-06
5.473168332e-06
5.548458569e-06
5.668566327e-06
5.838069641e-06
6.840641071e-06
6.021147154e-06
4.95406342e-06
4.996582539e-06
5.01300127e-06
5.055698886e-06
5.11833334e-06
5.389080963e-06
5.133373458e-06
4.848700206e-06
4.95406342e-06
4.880637499e-06
)
;
    }
}


// ************************************************************************* //
