/*--------------------------------*- C++ -*----------------------------------*\
  =========                 |
  \\      /  F ield         | OpenFOAM: The Open Source CFD Toolbox
   \\    /   O peration     | Website:  https://openfoam.org
    \\  /    A nd           | Version:  7
     \\/     M anipulation  |
\*---------------------------------------------------------------------------*/
FoamFile
{
    version     2.0;
    format      ascii;
    class       volScalarField;
    location    "0.007";
    object      rhoNMean;
}
// * * * * * * * * * * * * * * * * * * * * * * * * * * * * * * * * * * * * * //

dimensions      [0 -3 0 0 0 0 0];

internalField   nonuniform List<scalar> 
546
(
6.020618358e+19
6.101878545e+19
6.308268811e+19
6.445005498e+19
6.135113863e+19
6.2250411e+19
6.248296182e+19
6.396227262e+19
6.158352032e+19
5.868020521e+19
6.108099694e+19
6.29902125e+19
6.18589538e+19
6.44926302e+19
6.339444755e+19
6.213414848e+19
6.269727755e+19
6.278658153e+19
6.60783037e+19
6.630589804e+19
6.361573483e+19
6.68865537e+19
6.531602809e+19
6.752623219e+19
7.06118796e+19
7.120239889e+19
7.138391719e+19
7.613170049e+19
7.472083029e+19
8.201782796e+19
6.025105143e+19
6.263303903e+19
6.384377855e+19
6.278211325e+19
6.194213281e+19
5.880721014e+19
5.995199792e+19
6.224278404e+19
6.236654922e+19
6.006983697e+19
6.241937004e+19
6.401506709e+19
6.415002611e+19
6.146389244e+19
6.33944475e+19
6.305233392e+19
6.383366344e+19
6.43901105e+19
6.298076779e+19
6.412399915e+19
6.495264171e+19
6.711003924e+19
6.825437059e+19
7.035941981e+19
7.049132178e+19
7.494183939e+19
7.366056889e+19
7.374234626e+19
7.831372072e+19
8.542438424e+19
6.288863731e+19
6.29365187e+19
6.393810172e+19
6.371930644e+19
6.430610957e+19
5.992832962e+19
6.327074524e+19
6.238466719e+19
6.394622495e+19
6.378924658e+19
6.322170219e+19
6.487259849e+19
6.708414486e+19
6.32315417e+19
6.508010916e+19
6.546842187e+19
6.632064213e+19
6.459878894e+19
6.761414985e+19
6.51218642e+19
6.530940045e+19
6.541685255e+19
6.895361203e+19
6.974267148e+19
7.117966802e+19
7.61817797e+19
7.494737193e+19
7.59159394e+19
8.294697674e+19
8.274635083e+19
6.541084887e+19
6.31786567e+19
6.313147596e+19
6.480396015e+19
6.430610952e+19
6.153515671e+19
6.288523423e+19
6.255357569e+19
6.18558782e+19
6.435539288e+19
6.268566133e+19
6.340852045e+19
6.361239717e+19
6.525424261e+19
6.453726898e+19
6.558724586e+19
6.664376783e+19
6.560190983e+19
6.904292974e+19
6.68718514e+19
6.732978222e+19
6.788276871e+19
6.94770878e+19
7.015897654e+19
7.418194654e+19
7.576585033e+19
7.54858496e+19
7.908443112e+19
8.270099891e+19
8.6535483e+19
6.577299615e+19
6.104138495e+19
6.152798196e+19
6.294595817e+19
6.301846857e+19
6.378404933e+19
6.426301723e+19
6.270559335e+19
6.206695555e+19
6.424902595e+19
6.29000777e+19
6.596019933e+19
6.624080539e+19
6.412067996e+19
6.436941709e+19
6.428018189e+19
6.518788692e+19
6.469031467e+19
6.671700895e+19
6.604153827e+19
6.865917822e+19
6.779564713e+19
7.156334914e+19
7.118817537e+19
7.431417137e+19
7.591495695e+19
7.712899783e+19
8.047888721e+19
8.278567983e+19
8.95431837e+19
6.578261077e+19
6.286549159e+19
6.148569925e+19
6.421739518e+19
6.382406962e+19
6.309208238e+19
6.19365418e+19
6.292179623e+19
6.409261726e+19
6.512054811e+19
6.412778424e+19
6.387911694e+19
6.682411512e+19
6.561202322e+19
6.654792039e+19
6.696632438e+19
6.703950605e+19
6.541519755e+19
6.648072493e+19
6.802237496e+19
6.752506074e+19
7.001156276e+19
7.116596645e+19
7.05945551e+19
7.479640199e+19
7.520081421e+19
7.940169077e+19
8.194925895e+19
8.533013953e+19
8.704015768e+19
6.466091557e+19
6.294297567e+19
6.319652638e+19
6.462373059e+19
6.422356843e+19
6.468227565e+19
6.427642631e+19
6.317515899e+19
6.614891922e+19
6.606412532e+19
6.704315522e+19
6.600551603e+19
6.486335084e+19
6.774808045e+19
6.834786414e+19
6.806454612e+19
6.881125146e+19
6.903961245e+19
6.618906206e+19
7.004044578e+19
6.696175776e+19
6.8810802e+19
6.998145885e+19
7.282641361e+19
7.48702937e+19
7.666441539e+19
7.662219606e+19
7.966378961e+19
8.57051558e+19
9.068684321e+19
6.280531138e+19
6.499630628e+19
6.482929313e+19
6.432880975e+19
6.336844278e+19
6.657187765e+19
6.544636856e+19
6.185767265e+19
6.739155209e+19
6.704544555e+19
6.805990368e+19
6.726392581e+19
6.521825617e+19
6.844592996e+19
6.979781905e+19
6.593651656e+19
6.789996426e+19
6.600096125e+19
6.894324713e+19
6.814896944e+19
6.857280456e+19
7.198884013e+19
7.183846009e+19
7.355494694e+19
7.702477722e+19
7.755120683e+19
7.633711833e+19
8.142184222e+19
8.483415129e+19
9.039787442e+19
6.540764407e+19
6.502536284e+19
6.65043425e+19
6.542329406e+19
6.569610146e+19
6.58566234e+19
6.592574318e+19
6.431360231e+19
6.694216154e+19
6.843850849e+19
6.52413659e+19
6.95367327e+19
6.479658651e+19
6.603002466e+19
6.756931715e+19
6.678988832e+19
6.60084082e+19
6.744340571e+19
6.734094639e+19
6.967927739e+19
6.959801739e+19
7.475778863e+19
7.464306845e+19
7.609132442e+19
7.508418529e+19
7.761398931e+19
8.106067693e+19
8.557724174e+19
8.707617943e+19
9.408118879e+19
6.621205966e+19
6.568397825e+19
6.376571799e+19
6.70977896e+19
6.520415654e+19
6.553725399e+19
6.371994938e+19
6.43710313e+19
6.711238516e+19
6.783461891e+19
6.828123702e+19
6.810054181e+19
6.609673458e+19
6.78224705e+19
6.715504411e+19
6.857945027e+19
6.993311529e+19
6.739581238e+19
6.946011872e+19
6.966066108e+19
7.290273089e+19
7.671612689e+19
7.541490873e+19
7.459185505e+19
7.417027992e+19
7.995653489e+19
8.126260531e+19
8.638035247e+19
8.881415449e+19
9.103278813e+19
6.612873374e+19
6.579374736e+19
6.824769471e+19
6.735011069e+19
6.626068244e+19
6.460576017e+19
6.436693789e+19
6.61107891e+19
6.573697804e+19
6.711406919e+19
6.606444786e+19
6.94147261e+19
6.579805235e+19
6.486458045e+19
6.859785671e+19
6.856504736e+19
6.869870138e+19
6.705533649e+19
6.800180327e+19
6.722184856e+19
6.984587091e+19
7.205323547e+19
7.530409998e+19
7.493492131e+19
7.633643099e+19
7.857925935e+19
8.377286194e+19
8.581298071e+19
8.945531083e+19
9.709702982e+19
6.724081456e+19
6.593257364e+19
6.667022158e+19
6.652105547e+19
7.014011345e+19
6.813878331e+19
6.56106293e+19
6.551960834e+19
6.593784147e+19
6.541563083e+19
6.57255327e+19
6.905219304e+19
6.701035291e+19
6.612212652e+19
7.094778272e+19
6.952644153e+19
6.8179523e+19
6.734821905e+19
6.948596228e+19
7.284042447e+19
7.146067349e+19
7.253050833e+19
7.417308523e+19
7.861613787e+19
7.793479564e+19
8.023120593e+19
8.456474077e+19
8.415881234e+19
8.834639322e+19
9.558707301e+19
6.705172838e+19
6.702380834e+19
6.600670635e+19
6.852324093e+19
6.851570487e+19
6.885403812e+19
6.782648082e+19
6.737084656e+19
6.464073758e+19
6.667830811e+19
6.583273986e+19
6.952627435e+19
6.743202214e+19
6.559076902e+19
7.064422078e+19
6.923838279e+19
7.194085081e+19
7.117032933e+19
7.033879993e+19
7.460902917e+19
7.061196418e+19
7.220853895e+19
7.567473615e+19
7.681985837e+19
7.962649266e+19
8.095319511e+19
8.319083026e+19
8.640033035e+19
8.998759008e+19
9.377594095e+19
7.082062392e+19
6.812472977e+19
6.704426126e+19
6.756310895e+19
6.876993142e+19
6.951606367e+19
6.945903532e+19
6.935045372e+19
7.120115794e+19
6.828410485e+19
6.659703044e+19
6.573012983e+19
6.755852307e+19
6.873994722e+19
7.14906229e+19
7.210816293e+19
7.112759062e+19
6.953018948e+19
7.279024666e+19
7.417339344e+19
7.475036554e+19
7.394339174e+19
7.584285977e+19
7.663483388e+19
8.144652678e+19
8.039208356e+19
8.227225082e+19
8.560521e+19
9.009243312e+19
9.695865031e+19
6.866376497e+19
6.977449744e+19
6.681008008e+19
6.793339906e+19
6.968448717e+19
7.075362046e+19
7.124244351e+19
7.038079613e+19
6.84741747e+19
7.030164436e+19
6.921844392e+19
6.807962694e+19
6.881299114e+19
7.121253131e+19
7.121563206e+19
7.19713353e+19
7.192269768e+19
7.262375632e+19
7.188941442e+19
7.609837999e+19
7.466023762e+19
7.455703048e+19
7.474623522e+19
7.689309724e+19
7.889925749e+19
8.317410242e+19
8.539225416e+19
8.641631265e+19
8.882222014e+19
9.39387402e+19
7.016683592e+19
6.691081059e+19
6.761670535e+19
6.763192433e+19
6.853221309e+19
6.909356514e+19
7.098096698e+19
7.022202213e+19
7.096624981e+19
7.353725675e+19
6.942940142e+19
6.974588605e+19
6.948063438e+19
6.923942381e+19
6.954425515e+19
6.950843789e+19
7.096784366e+19
7.235650149e+19
7.261303364e+19
7.50744513e+19
7.364629205e+19
7.620855034e+19
7.65497432e+19
7.969544743e+19
8.011261289e+19
8.178505384e+19
8.47864661e+19
8.690776847e+19
9.104408536e+19
7.091676921e+19
7.072044953e+19
6.957472484e+19
6.95849563e+19
6.849589501e+19
6.90769308e+19
7.01764211e+19
7.190097159e+19
6.874312758e+19
7.049722271e+19
7.17257326e+19
7.306446393e+19
7.105486871e+19
6.862304912e+19
7.054065259e+19
6.897552971e+19
7.059388863e+19
7.449820121e+19
7.778913051e+19
7.74350717e+19
7.517472079e+19
7.568960818e+19
7.959125173e+19
7.950656894e+19
7.201603093e+19
7.072367804e+19
7.009838006e+19
6.99978451e+19
7.197252556e+19
6.993523648e+19
7.116534184e+19
7.245161441e+19
7.132712346e+19
7.268975234e+19
7.2310189e+19
7.204658057e+19
7.132192622e+19
7.21689748e+19
7.037637257e+19
7.424699549e+19
7.723430327e+19
7.651908648e+19
7.905915713e+19
7.27563497e+19
7.271889547e+19
7.188076382e+19
7.044022701e+19
7.151029548e+19
7.107964282e+19
7.335772538e+19
7.194826651e+19
7.033642168e+19
7.468327352e+19
7.449931146e+19
7.353157396e+19
7.158195535e+19
7.535357738e+19
7.322105144e+19
7.37391032e+19
7.228407618e+19
7.229167511e+19
7.106457414e+19
7.326865418e+19
7.190619299e+19
6.993487767e+19
7.148082212e+19
7.338073997e+19
)
;

boundaryField
{
    flow
    {
        type            calculated;
        value           nonuniform List<scalar> 
15
(
8.201782796e+19
8.542438424e+19
8.274635083e+19
8.6535483e+19
8.95431837e+19
8.704015768e+19
9.068684321e+19
9.039787442e+19
9.408118879e+19
9.103278813e+19
9.709702982e+19
9.558707301e+19
9.377594095e+19
9.695865031e+19
9.39387402e+19
)
;
    }
    obstacle
    {
        type            calculated;
        value           nonuniform List<scalar> 
30
(
22.4012004
24.55907072
24.60433789
26.54136899
23.45834099
25.03346561
25.58937154
25.66041092
24.60562948
25.7596464
23.21350827
23.95902212
26.25700942
26.41001621
26.6482073
25.28792254
27.09760966
26.69655456
28.03304392
26.16199517
24.87704104
26.03921159
26.51746383
28.35361276
27.06110222
29.79474703
28.66217327
30.90962595
30.34972811
30.79633027
)
;
    }
    frontAndBack
    {
        type            empty;
    }
    procBoundary1to0
    {
        type            processor;
        value           nonuniform List<scalar> 
21
(
6.266646896e+19
6.063347543e+19
6.137477041e+19
6.295916913e+19
6.357956626e+19
6.25837494e+19
6.054439277e+19
6.218287739e+19
6.63761254e+19
6.679926803e+19
6.4429033e+19
6.665291823e+19
6.636021778e+19
6.698061439e+19
6.839639284e+19
6.94590217e+19
7.008260031e+19
7.246237991e+19
7.097979045e+19
7.159700551e+19
7.263100066e+19
)
;
    }
    procBoundary1to3
    {
        type            processor;
        value           nonuniform List<scalar> 
36
(
9.381257145e+19
8.335989743e+19
8.498692665e+19
8.153184484e+19
8.940100775e+19
9.381257145e+19
9.274576859e+19
7.733454052e+19
7.371013249e+19
7.662521819e+19
7.654210121e+19
8.335989743e+19
7.855831771e+19
7.537621575e+19
7.516517972e+19
7.568402604e+19
7.775651361e+19
7.733454052e+19
7.73977851e+19
7.107519242e+19
7.345833882e+19
7.400476992e+19
7.389410756e+19
7.430172587e+19
7.537621575e+19
7.667134396e+19
7.386805553e+19
7.400221653e+19
7.658161982e+19
7.525140563e+19
7.282136326e+19
7.107519242e+19
7.353262884e+19
7.100009514e+19
7.386805553e+19
7.306757372e+19
)
;
    }
}


// ************************************************************************* //
