/*--------------------------------*- C++ -*----------------------------------*\
  =========                 |
  \\      /  F ield         | OpenFOAM: The Open Source CFD Toolbox
   \\    /   O peration     | Website:  https://openfoam.org
    \\  /    A nd           | Version:  7
     \\/     M anipulation  |
\*---------------------------------------------------------------------------*/
FoamFile
{
    version     2.0;
    format      ascii;
    class       volScalarField;
    location    "0.007";
    object      rhoN;
}
// * * * * * * * * * * * * * * * * * * * * * * * * * * * * * * * * * * * * * //

dimensions      [0 -3 0 0 0 0 0];

internalField   nonuniform List<scalar> 
546
(
7.851865739e+19
5.649887541e+19
4.553532527e+19
8.028403229e+19
6.93345125e+19
9.314939654e+19
3.519883573e+19
7.094157204e+19
8.340959964e+19
2.401832748e+19
3.631244864e+19
6.100324952e+19
3.6896104e+19
3.719502456e+19
2.49992188e+19
1.008203615e+20
6.353595212e+19
2.562717614e+19
7.753069492e+19
7.81909175e+19
9.200622806e+19
5.303045372e+19
1.471081714e+20
8.09482176e+19
2.722273268e+19
1.098681345e+20
4.157363861e+19
6.992257577e+19
1.129078925e+20
7.122429483e+19
5.608475532e+19
1.129977508e+19
2.276766263e+19
1.032223272e+20
1.155575208e+19
3.493102373e+19
4.693178097e+19
4.729438136e+19
4.766262837e+19
3.602749119e+19
1.089373459e+20
6.100324952e+19
6.149350663e+19
3.719502453e+19
4.999843755e+19
2.804159384e-289
8.895033296e+19
2.562717612e+19
7.753069486e+19
3.909545878e+19
3.943124063e+19
3.977284032e+19
1.069877611e+20
4.04741088e+19
4.083409901e+19
6.866758413e+19
6.928939774e+19
5.593806066e+19
7.056743281e+19
2.848971793e+19
5.608475528e+19
2.259955017e+19
4.553532527e+19
1.032223272e+20
5.777876046e+19
1.164367457e+19
5.866472617e+19
3.547078602e+19
3.57469713e+19
4.803665495e+19
3.631244861e+19
6.100324952e+19
4.91948053e+19
9.918673208e+19
1.124964846e+20
5.041018073e+19
5.082876169e+19
5.125435223e+19
9.045247741e+19
6.515909797e+19
5.257498742e+19
9.280329401e+19
1.069877611e+20
1.214223264e+20
6.805683169e+19
1.098681345e+20
2.771575907e+19
8.390709092e+19
8.468091938e+19
4.273457694e+19
6.730170633e+19
1.016979757e+20
3.415149395e+19
5.734573739e+19
4.622300833e+19
6.98620474e+19
9.386356194e+19
4.729438136e+19
7.149394255e+19
3.602749121e+19
6.052074773e+19
8.540454926e+19
8.609090928e+19
8.678839064e+19
7.499765639e+19
2.520509037e+19
3.812157127e+19
3.844076417e+19
7.753069486e+19
3.909545878e+19
3.943124063e+19
5.303045376e+19
9.361429088e+19
5.396547836e+19
5.444546535e+19
6.866758407e+19
9.700515684e+19
8.390709107e+19
8.468091945e+19
5.697943571e+19
8.973560845e+19
4.51991003e+19
4.553532523e+19
1.261606221e+20
8.089026458e+19
8.150572203e+19
4.693178097e+19
4.729438136e+19
7.149394255e+19
6.004581864e+19
3.631244864e+19
3.660194974e+19
7.379220801e+19
6.19917076e+19
6.249804699e+19
3.780763555e+19
8.895033304e+19
2.562717616e+19
6.460891244e+19
7.81909175e+19
7.886248113e+19
9.280329393e+19
9.361429088e+19
4.04741088e+19
6.805683181e+19
9.613461753e+19
5.543151795e+19
5.593806081e+19
8.468091945e+19
5.697943602e+19
1.121695107e+20
9.039820073e+19
5.691915662e+19
8.028403234e+19
8.089026464e+19
9.314939661e+19
5.866472621e+19
4.729438136e+19
1.072409138e+20
7.205498237e+19
7.262489722e+19
8.540454926e+19
4.919480526e+19
1.48780098e+20
3.749882817e+19
1.008203615e+20
1.016575234e+20
2.562717612e+19
5.168712995e+19
6.515909802e+19
7.886248126e+19
5.303045385e+19
8.024082124e+19
4.04741088e+19
9.52795637e+19
4.120055044e+19
9.700515727e+19
1.118761214e+20
1.129078922e+20
8.546915325e+19
7.851865739e+19
6.779865045e+19
9.107065046e+19
3.440744238e+19
9.244601666e+19
5.821837288e+19
4.693178097e+19
9.458876272e+19
8.340959964e+19
1.441099649e+20
7.262489733e+19
7.320389948e+19
9.838961068e+19
6.19917076e+19
7.499765633e+19
1.260254517e+19
3.812157127e+19
3.844076417e+19
5.168713012e+19
9.122273784e+19
7.88624818e+19
7.954568105e+19
8.024082096e+19
5.396547877e+19
5.444546602e+19
1.098681355e+20
8.314727766e+19
4.195354554e+19
1.411348665e+20
8.546915481e+19
6.730170633e+19
1.016979757e+20
4.55353253e+19
5.734573739e+19
5.777876042e+19
8.150572197e+19
7.039767146e+19
2.364719068e+19
7.14939426e+19
2.401832748e+19
1.57353944e+20
8.540454926e+19
9.83896106e+19
4.959336608e+19
1.124964849e+20
3.780763564e+19
8.895033282e+19
6.406793997e+19
3.876534727e+19
9.122273678e+19
7.88624806e+19
1.060609063e+20
8.024082027e+19
4.047410873e+19
5.444546507e+19
8.240110016e+19
5.543151746e+19
4.195354516e+19
1.411348652e+20
1.424485887e+19
4.486780426e+19
6.77986505e+19
4.553532523e+19
1.261606222e+20
4.622300837e+19
1.047930712e+20
4.693178097e+19
3.547078602e+19
2.383131418e+19
8.40641461e+19
7.262489711e+19
9.76051993e+19
6.149350672e+19
4.959336616e+19
6.249804704e+19
7.561527061e+19
6.353595201e+19
7.68815286e+19
9.045247734e+19
3.909545862e+19
1.182937219e+20
6.628806754e+19
9.361429112e+19
8.094821746e+19
1.225022964e+20
8.240110088e+19
6.928939805e+19
1.53829667e+20
1.129078922e+20
8.546915403e+19
7.851865739e+19
6.779865045e+19
3.415149395e+19
2.293829494e+19
4.622300833e+19
1.047930711e+20
8.213061658e+19
9.458876287e+19
1.191565708e+20
1.200916369e+20
1.089373463e+20
8.540454926e+19
3.689610383e+19
8.678839064e+19
1.249960936e+20
5.041018082e+19
5.082876202e+19
3.84407643e+19
2.584356495e+19
5.212727859e+19
7.886248126e+19
3.977284019e+19
1.069877613e+20
2.698273915e+19
4.083409916e+19
9.61346177e+19
5.543151795e+19
5.593806071e+19
1.129078922e+20
7.122429437e+19
4.486780422e+19
9.03982004e+19
5.691915633e+19
8.028403211e+19
6.93345125e+19
8.150572215e+19
7.039767177e+19
2.630837303e-289
1.191565711e+20
1.200916371e+19
4.841659792e+19
6.100324947e+19
9.838961099e+19
8.678839064e+19
3.749882838e+19
7.561527122e+19
1.27071903e+20
1.02508704e+20
7.753069486e+19
9.122273678e+19
6.571873439e+19
1.060609081e+20
1.069877613e+20
5.396547831e+19
1.361136627e+20
1.373351681e+19
9.700515727e+19
1.398451518e+20
1.129078932e+20
9.971401394e+19
1.233864621e+20
7.909842592e+19
2.276766275e+19
4.587658998e+19
8.089026452e+19
4.65746981e+19
5.866472577e+19
4.729438086e+19
3.574697106e+19
8.406414662e+19
6.052074834e+19
7.320389993e+19
3.689610412e+19
4.959336608e+19
4.999843743e+19
1.134229068e+20
6.353595253e+19
1.025087048e+20
7.753069486e+19
2.606363908e+19
1.051499741e+20
7.95456797e+19
8.024081959e+19
6.745684789e+19
8.166819902e+19
1.098681355e+20
8.314727766e+19
1.258606366e+20
1.270213787e+20
7.122429437e+19
7.851865717e+19
1.129977501e+19
3.415149387e+19
6.881488497e+19
5.777876037e+19
1.164367461e+19
5.866472665e+19
7.094157237e+19
1.07240914e+20
6.004581855e+19
2.420829896e+19
7.320389879e+19
6.149350638e+19
4.959336608e+19
4.999843743e+19
1.008203608e+20
6.353595201e+19
1.409494691e+20
1.162960423e+20
9.122273754e+19
7.886248193e+19
3.977284053e+19
6.68673508e+19
5.396547831e+19
4.08340988e+19
5.493406677e+19
1.801524333e+20
6.992257589e+19
1.552483518e+20
1.424485887e+20
7.851865717e+19
1.24297526e+20
7.968681904e+19
6.881488446e+19
1.040017687e+20
9.314939619e+19
7.039767093e+19
4.729438122e+19
8.340959977e+19
7.205498226e+19
1.089373453e+20
6.100324947e+19
4.919480511e+19
8.678838995e+19
3.749882808e+19
1.008203616e+20
6.353595201e+19
3.844076398e+19
9.045247734e+19
1.172863759e+20
5.257498707e+19
2.651522679e+19
9.361429112e+19
6.745684789e+19
6.805683133e+19
6.866758407e+19
8.314727692e+19
9.789160537e+19
1.411348652e+20
7.122429502e+19
1.12169511e+20
9.039820138e+19
7.968681962e+19
5.734573747e+19
8.089026512e+19
8.150572227e+19
4.693178097e+19
4.729438158e+19
8.340959977e+19
6.004581855e+19
6.052074787e+19
7.320389993e+19
1.106883124e+20
8.678839064e+19
3.749882838e+19
6.301272602e+19
1.016575232e+20
8.96951167e+19
5.168713033e+19
5.212727859e+19
9.200622814e+19
5.303045403e+19
4.012041048e+19
8.094821746e+19
6.805683193e+19
6.866758467e+19
1.108630369e+20
5.593806071e+19
8.468091991e+19
7.122429502e+19
4.486780409e+19
4.519910004e+19
6.830298775e+19
6.881488497e+19
5.777876037e+19
5.821837305e+19
7.039767198e+19
1.182359539e+20
4.76626288e+19
1.20091638e+20
8.472904636e+19
7.320389879e+19
3.689610383e+19
4.959336608e+19
4.999843743e+19
2.520509041e+19
1.270719051e+20
8.96951167e+19
9.045247734e+19
9.122273754e+19
1.182937229e+20
9.280329456e+19
1.604816419e+20
6.745684789e+19
5.444546507e+19
1.098681335e+20
1.108630359e+20
1.118761214e+20
1.129078922e+20
6.730170614e+19
6.779865055e+19
5.691915687e+19
5.734573747e+19
5.777876037e+19
1.164367452e+20
1.173294515e+20
9.458876172e+19
1.072409132e+20
8.406414662e+19
9.683319734e+19
1.342071499e+20
6.149350687e+19
1.115850737e+20
3.749882808e+19
1.134229059e+20
7.624314242e+19
7.68815286e+19
9.045247734e+19
9.122273678e+19
6.571873383e+19
1.060609063e+20
9.361429032e+19
6.745684847e+19
4.486780442e+19
2.259955018e+19
5.691915604e+19
3.440744223e+19
5.777876037e+19
1.047930715e+20
4.693178132e+19
9.458876315e+19
7.149394266e+19
6.004581855e+19
8.472904636e+19
1.708090985e+20
6.149350687e+19
4.959336608e+19
8.749726621e+19
1.764356343e+20
1.143647136e+20
1.02508704e+20
1.292178248e+20
3.365085331e+19
1.016979758e+20
1.024544824e+20
5.734573747e+19
4.62230083e+19
4.65746981e+19
9.386356124e+19
4.729438122e+19
1.191565711e+20
7.205498226e+19
6.052074787e+19
1.342071488e+20
4.919480511e+19
1.115850737e+20
4.486780409e+19
6.779865006e+19
1.138383129e+20
6.881488497e+19
5.77787608e+19
1.280804207e+20
4.693178097e+19
5.911797697e+19
7.851865773e+19
1.016979766e+20
)
;

boundaryField
{
    flow
    {
        type            zeroGradient;
    }
    obstacle
    {
        type            calculated;
        value           nonuniform List<scalar> 
30
(
2.225073859e-308
2.225073859e-308
2.225073859e-308
2.225073859e-308
2.225073859e-308
2.225073859e-308
2.225073859e-308
2.225073859e-308
2.225073859e-308
2.225073859e-308
2.225073859e-308
2.225073859e-308
2.225073859e-308
2.225073859e-308
2.225073859e-308
2.225073859e-308
2.225073859e-308
2.225073859e-308
2.225073859e-308
2.225073859e-308
2.225073859e-308
2.225073859e-308
2.225073859e-308
2.225073859e-308
2.225073859e-308
2.225073859e-308
2.225073859e-308
2.225073859e-308
85.19691727
2.225073859e-308
)
;
    }
    frontAndBack
    {
        type            empty;
    }
    procBoundary1to0
    {
        type            processor;
        value           nonuniform List<scalar> 
21
(
6.681199412e+19
7.794732648e+19
1.002179912e+20
4.454132941e+19
3.340599708e+19
5.567666181e+19
3.340599706e+19
1.336239882e+20
4.454132941e+19
4.454132941e+19
7.794732648e+19
7.794732681e+19
4.454132941e+19
1.002179905e+20
4.454132941e+19
1.113533235e+20
1.224886559e+20
6.681199412e+19
8.908265946e+19
4.454132941e+19
6.681199412e+19
)
;
    }
    procBoundary1to3
    {
        type            processor;
        value           nonuniform List<scalar> 
36
(
1.28203731e+20
6.805683252e+19
8.240110161e+19
6.928939805e+19
5.593806071e+19
1.28203731e+20
4.234045957e+19
9.122273678e+19
7.886248126e+19
6.628806754e+19
1.203612314e+20
6.805683252e+19
9.443958704e+19
7.499765615e+19
6.301272551e+19
5.082876161e+19
7.68815286e+19
9.122273678e+19
1.292178248e+20
7.149394266e+19
8.406414597e+19
6.05207474e+19
8.540454926e+19
1.229870137e+20
7.499765615e+19
8.678839064e+19
6.830298825e+19
1.261606224e+20
6.933451245e+19
1.746551192e+20
1.05596508e+20
7.149394266e+19
8.276516776e+19
1.009525592e+20
6.830298825e+19
6.779865006e+19
)
;
    }
}


// ************************************************************************* //
