/*--------------------------------*- C++ -*----------------------------------*\
  =========                 |
  \\      /  F ield         | OpenFOAM: The Open Source CFD Toolbox
   \\    /   O peration     | Website:  https://openfoam.org
    \\  /    A nd           | Version:  7
     \\/     M anipulation  |
\*---------------------------------------------------------------------------*/
FoamFile
{
    version     2.0;
    format      ascii;
    class       volScalarField;
    location    "0.007";
    object      rhoN;
}
// * * * * * * * * * * * * * * * * * * * * * * * * * * * * * * * * * * * * * //

dimensions      [0 -3 0 0 0 0 0];

internalField   nonuniform List<scalar> 
546
(
3.589424338e+20
2.824943771e+20
3.642826021e+20
3.440744241e+20
3.004495542e+20
4.075286099e+20
2.933236311e+20
2.955898835e+20
2.740601131e+20
2.76210766e+20
2.783954396e+20
1.22006499e+20
4.181558454e+20
1.859751228e+20
3.874878914e+20
3.780763555e+20
3.049725702e+20
3.84407642e+20
3.359663447e+20
2.606363917e+20
2.628749373e+20
2.78409882e+20
1.872285818e+20
2.968101312e+20
3.538955248e+20
3.570714372e+20
1.385787954e+20
2.936748182e+20
1.552483522e+20
1.566934486e+20
3.701593851e+20
2.824943771e+20
1.593736384e+20
1.835063595e+20
2.657822979e+20
2.794481898e+20
2.346589049e+20
2.364719068e+20
2.740601131e+20
1.801374559e+20
2.6629129e+20
1.586084487e+20
3.197662345e+20
3.223568793e+20
2.624917972e+20
3.024610844e+20
2.795581893e+20
2.690853492e+20
2.067485196e+20
2.606363919e+20
3.417374188e+20
3.181827226e+20
2.808428729e+20
1.34913696e+20
1.769477624e+20
2.060027524e+20
3.187312296e+20
1.957832123e+20
1.975888119e+20
2.136728845e+20
3.477254827e+20
3.276934774e+20
3.301311082e+20
2.637903918e+20
2.311150418e+20
1.979424676e+20
2.463918499e+20
8.276516738e+19
3.098070846e+20
2.401832748e+20
4.115410842e+20
2.684142979e+20
3.443636371e+20
3.099585378e+20
3.999875008e+20
2.142432681e+20
2.287294276e+20
2.562717612e+20
1.809049548e+20
1.433500155e+20
2.234436965e+20
1.325761343e+20
2.006020521e+20
2.428446528e+20
2.586159604e+20
2.472033026e+20
2.217260726e+20
8.390709092e+19
1.411348656e+20
1.566934488e+20
1.906881679e+20
3.05093927e+20
1.821413011e+20
2.293829496e+20
3.004495542e+20
3.143792133e+20
2.933236311e+20
2.601190975e+20
3.217227415e+20
2.521924385e+20
2.541871405e+20
1.830097484e+20
2.090779225e+20
2.727635134e+20
3.624886726e+20
2.646534489e+20
3.30386951e+20
1.409494686e+20
2.584356495e+20
2.215409331e+20
2.234436969e+20
2.386370419e+20
3.744571635e+20
1.484050655e+20
2.177818614e+20
1.510686849e+20
1.801524341e+20
2.097677277e+20
2.822697315e+20
1.424485893e+20
1.794712169e+20
1.807964012e+20
2.049089635e+20
2.523212441e+20
2.888938021e+20
2.678045152e+20
2.815906858e+20
1.773539301e+20
2.740601131e+20
3.602749119e+20
3.147078882e+20
2.928155979e+20
3.074675334e+20
2.107718058e+20
2.49992188e+20
3.528712651e+20
2.541438087e+20
3.3315329e+20
2.713574322e+20
2.736682112e+20
2.102999497e+20
2.121218147e+20
2.407224623e+20
3.103015008e+20
2.586159609e+20
1.510686847e+20
2.217260718e+20
2.517212737e+20
1.834753255e+20
1.566934491e+20
1.346034129e+20
2.146957267e+20
3.187472771e+20
2.064446546e+20
2.888938023e+20
2.212298169e+20
3.050565763e+20
2.364719068e+20
2.62144456e+20
2.762107658e+20
2.783954393e+20
2.806149476e+20
3.566623381e+20
2.355684885e+20
2.124933596e+20
2.142432681e+20
2.033150468e+20
1.922038209e+20
1.938267373e+20
1.042545568e+20
1.971562032e+20
1.856065885e+20
2.139755233e+20
2.428446528e+20
2.041704936e+20
2.334697858e+20
2.910154718e+20
2.097677277e+20
1.975888113e+20
1.851831654e+20
2.01905119e+20
2.372952766e+20
1.024544818e+20
2.867286865e+20
3.582283146e+20
2.678045152e+20
2.346589049e+20
9.458876272e+19
2.502287989e+20
1.561191286e+20
1.936663929e+20
3.294175476e+20
1.721818187e+20
1.735767813e+20
2.874910159e+20
2.394483583e+20
2.668509989e+20
2.17830997e+20
3.101227807e+20
2.606363938e+20
1.971562045e+20
3.712131782e+20
2.674694032e+20
2.698273939e+20
1.769477646e+20
1.922692371e+20
2.355839534e+20
1.678141821e+20
1.693618398e+20
1.994280279e+20
1.682542658e+20
1.807964013e+20
1.252221446e+20
2.179138021e+20
2.7733805e+20
2.095861422e+20
2.463918501e+20
2.010011208e+20
2.144818278e+20
2.28174111e+20
2.541871403e+20
1.830097484e+20
2.336753252e+20
2.727635134e+20
2.374925791e+20
2.520509043e+20
2.541438081e+20
2.434581719e+20
2.972009957e+20
1.954772931e+20
2.102999483e+20
2.121218125e+20
1.337347005e+20
2.698273915e+20
2.04170494e+20
3.296044006e+20
2.078681905e+20
1.817986957e+20
2.822697305e+20
3.276317541e+20
1.68254266e+20
1.016979757e+20
2.049089635e+20
8.028403229e+19
1.733362814e+20
2.328734915e+20
1.407953429e+20
2.010011208e+20
2.740601131e+20
1.921466197e+20
2.299788408e+20
2.562136482e+20
2.582727282e+20
2.107718062e+20
2.999906258e+20
1.890381765e+20
1.651934752e+20
2.818989382e+20
4.264188217e+20
3.127636689e+20
1.577249625e+20
3.181827242e+20
2.942163435e+20
3.372842394e+20
2.04170494e+20
2.472033026e+20
1.940103145e+20
2.237522429e+20
1.975888113e+20
2.991420391e+20
1.121695106e+20
1.355973009e+20
2.16292795e+20
1.146914747e+20
2.426707937e+20
1.746551185e+20
1.525282879e+20
1.891775257e+20
2.144818275e+20
3.002290923e+20
2.541871414e+20
2.196116981e+20
2.705714281e+20
2.603651719e+20
2.624917965e+20
2.268458137e+20
2.922653816e+20
1.665766453e+20
2.584356495e+20
2.60636393e+20
2.497311907e+20
2.253794277e+20
2.54095933e+20
1.753878045e+20
3.53895526e+20
2.19736269e+20
2.632997103e+20
3.076593339e+20
1.693618383e+20
2.564074597e+20
2.01905119e+20
1.468970757e+20
1.70757469e+20
2.179138014e+20
2.080035375e+20
9.314939675e+19
2.346589059e+20
2.010011217e+20
1.906505138e+20
1.681282919e+20
3.02603737e+20
3.050162473e+20
1.844805206e+20
1.239834152e+20
2.499921892e+20
3.276661753e+20
1.651934739e+20
2.306445839e+20
2.067485196e+20
2.997318494e+20
3.023061782e+20
9.280329456e+19
2.273489927e+20
2.293532828e+20
1.905591277e+20
3.021373699e+20
2.49441833e+20
1.957832125e+20
1.693618398e+20
1.709383096e+20
1.458203642e+20
1.807964021e+20
6.830298825e+19
6.881488497e+19
1.040017687e+20
1.513677688e+20
1.994600676e+20
1.064123569e+20
1.906505123e+20
1.921466208e+20
3.026037417e+20
3.782201497e+20
2.213766247e+20
3.471535626e+20
2.499921872e+20
3.528712657e+20
2.541438101e+20
3.459668787e+20
2.196703021e+20
2.606363908e+20
2.760186821e+20
2.518946524e+20
1.87228579e+20
2.293532828e+20
2.041704976e+20
2.334697879e+20
1.801524349e+20
3.91566425e+20
2.822697305e+20
2.136728831e+20
1.570373143e+20
1.129977501e+20
1.593736381e+20
1.146914749e+20
1.155575207e+20
1.746551192e+20
1.7599418e+20
1.655303355e+20
1.668191995e+20
1.921466194e+20
2.662912886e+20
1.464077976e+20
2.582727268e+20
1.611784398e+20
2.249929685e+20
2.268458118e+20
2.160222368e+20
2.306445858e+20
2.067485196e+20
1.824454751e+20
1.708687108e+20
2.253794296e+20
1.337347016e+20
3.642669786e+20
2.313932265e+20
2.746703339e+20
2.355839513e+20
2.237522429e+20
2.399292709e+20
2.27917742e+20
1.346034123e+20
1.129977509e+20
2.049089632e+20
1.94975506e+20
1.271132728e+20
1.280804198e+20
1.055965064e+20
2.010011202e+20
1.787348566e+20
1.200916371e+20
1.694580927e+20
2.074110482e+20
3.320649345e+20
1.363817556e+20
1.74994531e+20
1.638330877e+20
2.668509985e+20
2.050174079e+20
3.101227794e+20
1.954772931e+20
2.891624289e+20
2.386370411e+20
3.34336754e+20
1.888791741e+20
4.08340988e+20
2.746703363e+20
2.632997103e+20
2.237522409e+20
2.68156244e+20
2.848971801e+20
3.365085331e+19
9.039820138e+19
6.830298825e+19
1.720372124e+20
1.155575216e+20
1.630114445e+20
1.173294524e+20
1.064123585e+20
1.429878853e+20
2.041557831e+20
1.089373462e+20
1.342071499e+20
2.582727288e+20
1.611784398e+20
1.999937513e+20
1.134229068e+20
2.160222368e+20
2.690853501e+20
2.972009994e+20
1.824454751e+20
2.891624313e+20
1.723489756e+20
1.872285822e+20
3.777583482e+20
2.586159613e+20
1.785357201e+20
2.910154718e+20
1.53829667e+20
2.258157864e+20
2.136728851e+20
5.608475512e+19
6.779865006e+19
5.691915646e+19
1.490989174e+20
6.933451245e+19
6.986204766e+19
1.05596508e+20
1.182359539e+20
1.072409148e+20
1.441099656e+20
1.452497938e+20
1.586084474e+20
1.844805192e+20
2.85161855e+20
1.74994531e+20
2.016407233e+20
2.160222386e+20
1.793902334e+20
1.809049547e+20
1.824454751e+20
2.891624337e+20
1.193185216e+20
2.407224629e+20
2.158619132e+20
3.538955229e+20
3.021373672e+20
2.494418308e+20
2.517212732e+20
2.822697305e+20
1.458203633e+20
1.129977509e+20
1.366059765e+20
1.605680649e+20
9.24460166e+19
8.150572167e+19
1.173294515e+20
5.911797608e+19
9.532525615e+19
8.406414662e+19
4.841659867e+19
6.100324995e+19
2.090779234e+20
1.363817567e+20
1.374957029e+20
1.512305412e+20
1.651934752e+20
1.922038215e+20
2.584356495e+20
2.867000299e+20
1.445812144e+20
2.121218125e+20
2.407224608e+20
2.158619151e+20
1.009525599e+20
9.039820073e+19
1.366059745e+20
8.028403187e+19
9.24460166e+19
6.986204766e+19
7.039767198e+19
9.458876315e+19
7.149394266e+19
1.561191282e+20
1.573539432e+20
1.220064989e+20
1.352857151e+20
1.859751228e+20
1.37495704e+20
1.260254531e+20
2.541438081e+20
1.281358799e+20
2.842792145e+20
1.233864621e+20
6.779865055e+19
1.138383137e+20
1.261606224e+20
5.777876037e+19
1.280804198e+20
1.055965064e+20
2.010011202e+20
1.191565711e+20
1.200916371e+20
2.178746923e+20
1.952103983e+20
8.609090894e+19
1.239834152e+20
7.851865717e+19
1.242975251e+20
7.968681904e+19
1.146914749e+20
9.244601728e+19
1.047930715e+20
1.525282882e+20
1.064123585e+20
1.570373155e+20
1.016979766e+20
)
;

boundaryField
{
    flow
    {
        type            zeroGradient;
    }
    obstacle
    {
        type            calculated;
        value           nonuniform List<scalar> 
30
(
263.8474321
123.9027149
444.5279449
277.580448
66.47593421
208.6920173
2.225073859e-308
119.770593
183.2918641
362.5312117
113.6898433
143.0354174
2.225073859e-308
165.9944935
55.88339443
183.1731226
87.8707244
2.225073859e-308
198.6224512
252.9509337
2.225073859e-308
54.51422684
2.225073859e-308
2.225073859e-308
345.1008963
306.2106287
216.9562274
100.3689443
181.2750269
66.01132339
)
;
    }
    frontAndBack
    {
        type            empty;
    }
    procBoundary1to0
    {
        type            processor;
        value           nonuniform List<scalar> 
21
(
3.674659677e+20
2.227066471e+20
2.338419794e+20
2.227066471e+20
3.006539738e+20
1.670299854e+20
1.447593206e+20
1.447593206e+20
1.670299853e+20
1.336239882e+20
1.781653177e+20
1.11353324e+20
1.002179912e+20
1.113533227e+20
1.670299853e+20
1.002179912e+20
4.454132941e+19
1.113533235e+20
6.68119946e+19
1.224886559e+20
6.681199412e+19
)
;
    }
    procBoundary1to3
    {
        type            processor;
        value           nonuniform List<scalar> 
36
(
1.851831671e+20
1.63336398e+20
2.334697879e+20
1.385787961e+20
2.517212732e+20
1.851831671e+20
3.387236766e+20
2.215409322e+20
1.314374688e+20
1.590913621e+20
3.075898137e+20
1.63336398e+20
1.484050653e+20
1.874941404e+20
2.142432667e+20
1.779006656e+20
1.409494691e+20
2.215409322e+20
1.421396072e+20
9.532525688e+19
1.801374556e+20
1.210414948e+20
1.220064989e+20
1.229870137e+20
1.874941404e+20
6.19917076e+19
9.1070651e+19
6.881488497e+19
1.271132728e+20
1.397240953e+20
1.290623986e+20
9.532525688e+19
1.064123585e+20
1.009525592e+20
9.1070651e+19
1.807964001e+20
)
;
    }
}


// ************************************************************************* //
