/*--------------------------------*- C++ -*----------------------------------*\
  =========                 |
  \\      /  F ield         | OpenFOAM: The Open Source CFD Toolbox
   \\    /   O peration     | Website:  https://openfoam.org
    \\  /    A nd           | Version:  7
     \\/     M anipulation  |
\*---------------------------------------------------------------------------*/
FoamFile
{
    version     2.0;
    format      ascii;
    class       volScalarField;
    location    "0.007";
    object      translationalT;
}
// * * * * * * * * * * * * * * * * * * * * * * * * * * * * * * * * * * * * * //

dimensions      [1 2 -2 0 0 0 0];

internalField   nonuniform List<scalar> 
546
(
925.0658833
906.3592313
889.9873505
880.5855601
866.4161917
858.0069767
845.7451012
848.9337067
837.7530816
834.3202907
820.41302
816.7295846
815.0899228
805.6550269
797.2039583
798.4103744
785.8164571
795.535584
782.5785703
778.7035916
778.6164686
768.2663564
771.9728694
770.0764802
758.9928528
753.152551
754.0725463
761.7554434
748.9103064
729.2852687
1024.426317
1012.087343
996.8717624
982.4052012
972.2853575
965.1790481
952.5352246
944.3804813
951.6429645
929.7429275
922.2387308
917.1608011
905.9953224
901.5713831
889.7229065
880.1916694
882.6704183
880.356865
861.1388469
854.5953208
853.7880155
842.0511079
827.6225207
832.7632553
834.8470961
821.1232459
817.4102454
799.3250676
774.4511644
728.4684151
1037.376215
1028.285783
1015.583924
1007.28149
996.2097564
995.62553
988.1440403
978.8829127
968.6682534
965.9865758
963.2787508
963.5841603
951.9330891
935.1114431
928.9401531
929.9212468
929.4794921
925.3569788
915.182446
905.0297938
900.838542
894.7450785
889.3575877
882.7906062
867.1462632
855.876614
849.7937341
823.4306723
793.5716505
735.1553419
1035.106826
1022.894803
1013.10146
998.1644719
997.2990175
997.4806115
990.7185802
983.0748368
978.0845535
972.5002197
965.1730042
962.59371
959.6474783
955.1479633
950.0240088
948.411234
930.4369131
923.5949177
933.1213671
923.5119328
924.5310917
911.1655255
907.5992166
894.6471578
885.4178794
871.6265426
851.430001
831.1641575
793.3553166
737.5500904
1001.853311
994.1292015
988.2162332
983.5350799
977.0884437
974.3254676
971.4600128
970.8139017
956.7407805
958.1226752
958.4621242
957.8256995
952.8065516
942.7122708
941.4461129
939.7712984
938.8463643
927.2330259
928.1075932
931.0137454
920.9764353
922.1198665
910.8964651
906.5674026
900.8801709
883.7010657
859.3509459
833.1911279
807.9695111
758.9658033
972.5986279
974.3260177
971.3368707
954.0216539
957.0789511
947.8062487
949.1726671
937.3400564
933.8247606
930.7649537
930.631006
925.2147235
925.2573279
924.5002059
925.7837026
927.6547595
922.6428499
925.2844039
930.8403213
927.0145858
921.4879324
925.1981147
914.2338978
906.9759113
891.6225444
881.6921273
857.841662
848.0035264
812.058699
777.4580091
942.5567741
948.1010578
943.6154496
940.2407749
932.0679359
929.4071148
927.5232871
918.2658645
921.8986707
918.1391641
919.3033588
920.5095394
919.6459302
912.2965629
916.9328451
919.5089882
910.635759
911.5389001
917.8046325
908.4477858
905.8222626
913.868447
904.7467469
900.5350281
889.0276402
873.7606294
867.5619554
844.8519594
817.3363738
777.6144151
902.8409557
919.8849561
926.6230466
917.5462248
916.6585532
918.2771593
915.7509709
910.8289818
908.3598745
906.8138638
901.6453207
896.0694025
899.4294874
900.9541735
896.6326725
896.3817163
896.0301839
901.6607114
902.6744307
895.9432479
884.6678058
891.7644873
884.4801318
885.8176716
876.6431857
867.6990622
854.6874113
840.3334259
819.3147335
789.7768433
859.0803961
874.7219931
889.6745057
891.4060811
891.5561735
896.3050394
894.8058583
896.9028686
891.9132656
889.1022435
884.8044343
884.4809395
877.4445539
885.6018913
874.7063713
879.2114492
879.7589605
879.6923837
876.1006309
872.8595001
867.10208
864.02572
871.6404985
866.3116778
866.8043502
861.4399593
846.1059395
835.876834
820.1901688
792.2183668
791.3917981
821.2441758
847.1567243
856.4743015
856.3839455
871.0891443
877.4993859
880.1269247
873.6717242
868.8859878
868.7752711
865.5836826
854.706371
858.2145207
869.434758
862.5860014
861.5898296
858.5287515
856.5444623
857.7114504
852.9840851
866.9477904
863.5275758
849.9181574
847.7928544
845.4458492
836.9121115
821.6931685
801.2382106
780.9474973
726.4195246
747.2059735
788.5125928
811.0139265
813.1909905
838.1638089
848.4328601
845.6107061
844.5696147
852.77277
845.6271967
854.5492103
843.3875364
843.6270543
843.3318625
847.6240841
852.6909524
842.2321831
850.1302732
853.5312998
854.2908995
852.3470479
849.938704
834.8284768
833.9753219
833.8091163
818.2434285
810.2168161
797.1580184
780.6282334
647.5999077
698.3193078
709.5233251
750.7954588
776.5524982
793.6896976
804.5710985
811.5788989
824.1727788
835.7841529
839.1175066
842.1805519
833.6643521
834.8236824
838.0070586
838.9622445
834.5161439
826.2474016
827.0553451
835.5763685
831.7641377
835.9244516
830.202256
832.8539475
816.2455714
816.361336
814.1350269
807.8964241
798.7209524
775.3373024
587.3706338
620.3196896
650.1375819
688.3565461
717.5068217
745.9875586
767.803727
775.2761565
793.0977772
797.5942952
814.1196869
818.83665
820.4850751
819.4503997
818.4652215
821.3122444
828.1521254
822.4216119
816.351667
818.6684978
819.3343579
821.1420894
820.3639797
809.9482328
807.9775955
801.1324221
806.1478929
798.8954635
795.5397799
783.0111563
529.7242727
563.3798149
601.4204131
632.8587264
654.1690364
687.4768563
715.4732438
732.8007703
750.9783378
771.6411133
789.7863392
802.0836946
801.5835154
805.968283
799.691821
804.0586457
808.7340591
803.8846865
802.8424526
803.4372936
809.3101289
805.7341845
806.9654387
804.76983
797.3614547
795.0460229
797.6280897
788.4375431
782.6231163
768.7298694
479.8841034
489.8191534
527.3378569
568.4295395
595.5038489
633.561012
664.095228
696.6914348
709.8461813
736.1216752
761.741864
772.7260756
785.3754837
785.7439445
790.6398629
796.2958256
800.6323956
797.7923667
790.7538401
799.0650453
795.0976091
793.5161007
794.519075
796.7374411
799.470946
779.5778627
788.7140299
782.8240133
770.0125782
760.8945697
432.3994562
453.6132485
477.0001878
508.5329553
536.0848195
575.9001682
609.8849477
635.5367342
665.5056821
685.0483727
708.482268
724.7645821
741.7896271
756.1504208
768.0538105
778.6290428
779.3658032
782.4807436
784.9535854
791.384661
788.7604472
787.2065907
788.2248822
789.7188655
788.9478748
784.161035
775.8113602
768.3732405
771.340441
404.1861871
423.3638547
443.717315
471.4801851
488.4780213
519.8918391
549.5387375
579.5079451
608.6498402
634.0136984
661.7481941
688.9652486
710.0256497
721.8486315
740.8469322
751.1124924
764.452374
771.18665
773.0087504
775.2203219
779.5557927
779.7689312
776.3175314
776.2818203
383.5272514
397.7777168
418.8136337
432.1366565
455.8514795
479.1192777
501.8389475
531.8981505
549.1419342
584.3836287
611.2348245
646.1999845
657.5863354
690.0117739
712.2080139
719.8675013
742.6912984
743.1737518
760.9891436
356.9323822
371.0932268
386.6097859
403.5161664
421.302371
443.3917647
461.5908186
485.6684755
507.5782951
532.9141837
554.8766098
582.1754875
606.8320295
633.1480905
345.4809158
358.5090202
370.0186461
380.1845866
396.8924156
413.1753778
425.3297109
448.586257
334.4803592
341.1661105
)
;

boundaryField
{
    flow
    {
        type            calculated;
        value           nonuniform List<scalar> 
15
(
729.2852687
728.4684151
735.1553419
737.5500904
758.9658033
777.4580091
777.6144151
789.7768433
792.2183668
780.9474973
780.6282334
775.3373024
783.0111563
768.7298694
760.8945697
)
;
    }
    obstacle
    {
        type            calculated;
        value           nonuniform List<scalar> 
30
(
800.4638418
799.0918478
786.9188644
766.9749425
782.1692633
744.5482196
724.4547443
753.1602905
743.1497509
743.6972555
732.3056832
738.4565823
733.5503514
707.1588508
715.2311669
715.0469207
714.836153
717.3727849
691.4967475
722.6307696
703.341304
689.6732879
709.4734563
713.8641463
697.0721187
698.8179462
686.6335227
704.8912498
723.314344
711.4760805
)
;
    }
    frontAndBack
    {
        type            empty;
    }
    procBoundary1to0
    {
        type            processor;
        value           nonuniform List<scalar> 
21
(
941.2658477
1039.821374
1057.825161
1043.161284
1013.54961
977.8958817
946.5110111
904.0607191
825.9811408
752.021416
668.4674155
613.6419959
544.6933324
494.8403087
442.1780581
408.0451563
388.8823001
364.6254402
344.5788653
339.7400687
327.4348088
)
;
    }
    procBoundary1to3
    {
        type            processor;
        value           nonuniform List<scalar> 
36
(
767.8247523
774.4932944
772.7779259
769.2947072
763.0555195
767.8247523
754.5510229
758.9595508
765.2047686
769.9972509
771.3706365
774.4932944
766.547521
660.1295272
675.453657
703.1156136
719.2428001
758.9595508
729.7670155
463.6178606
490.7056155
511.7753581
533.7710654
559.4902229
660.1295272
584.5436241
351.0245706
361.7155654
375.4831182
383.4355065
401.2059062
463.6178606
416.7695197
323.8350219
351.0245706
334.2139683
)
;
    }
}


// ************************************************************************* //
