/*--------------------------------*- C++ -*----------------------------------*\
  =========                 |
  \\      /  F ield         | OpenFOAM: The Open Source CFD Toolbox
   \\    /   O peration     | Website:  https://openfoam.org
    \\  /    A nd           | Version:  7
     \\/     M anipulation  |
\*---------------------------------------------------------------------------*/
FoamFile
{
    version     2.0;
    format      ascii;
    class       scalarField;
    location    "0.003/lagrangian/dsmc";
    object      Ei;
}
// * * * * * * * * * * * * * * * * * * * * * * * * * * * * * * * * * * * * * //


6189
(
2.594786083e-20
2.10979942e-22
1.277019722e-20
4.581809907e-21
2.13384674e-20
2.305153669e-20
7.478614774e-21
6.49164347e-21
9.116849948e-21
1.975105531e-21
4.325091233e-21
5.441791424e-21
1.840801898e-21
1.858365058e-20
5.507253726e-21
7.467820063e-21
7.068171377e-21
6.307250354e-21
4.143716144e-21
2.389138189e-21
4.865479293e-22
4.170440714e-21
2.712502777e-21
2.399062897e-21
9.237305438e-21
1.67666833e-21
2.956142551e-20
1.362241601e-22
6.191213924e-21
1.93344642e-20
2.474435359e-21
3.945533043e-21
8.846958896e-21
2.949984268e-21
4.727852252e-22
4.650932339e-21
8.777304881e-21
6.009649457e-21
1.096469666e-21
8.047076673e-22
6.862963968e-21
6.400744766e-21
1.019844017e-20
8.44307724e-21
6.990539834e-22
4.448270951e-21
6.98428746e-22
9.094251405e-22
2.18422356e-20
6.084884909e-21
2.748339257e-20
4.433506345e-22
2.279002789e-21
7.67204726e-21
6.114462761e-23
1.291122302e-21
3.106089596e-22
4.679428624e-21
3.897372782e-21
4.179823115e-21
9.286974419e-21
6.069400323e-21
5.261933206e-21
6.665291349e-21
9.730690828e-21
1.246633416e-20
5.39145428e-21
4.236611353e-21
3.627871932e-22
1.42217089e-21
2.023824426e-20
6.690737217e-22
9.813896252e-22
2.694561841e-21
2.2584884e-21
9.262722267e-21
7.139243015e-21
3.03695083e-21
6.057374385e-21
1.809384642e-21
9.764031652e-21
1.110480577e-21
4.186362788e-22
9.197728438e-21
2.108786624e-21
3.376627656e-21
1.333413171e-21
5.75940755e-21
2.264234147e-21
1.707418461e-21
2.244281931e-22
2.77589349e-22
1.283158602e-21
2.850103032e-22
1.221664004e-21
2.332695331e-21
8.741239199e-21
2.847130797e-21
2.045016355e-20
1.443307616e-21
3.373710359e-21
2.018220358e-22
7.63294002e-21
2.551132416e-21
6.654147667e-21
7.56996769e-21
2.400602316e-20
7.518124002e-21
6.45092053e-22
2.266324988e-21
1.129876616e-22
7.026305814e-21
7.884458345e-21
2.321659896e-22
7.090706562e-22
1.68660441e-22
9.700105203e-22
2.800983149e-21
1.717105814e-21
2.764394671e-22
7.967357967e-22
1.087000681e-20
7.927803443e-21
8.220007132e-21
7.105091719e-22
2.979465189e-21
4.599935631e-21
3.475856852e-22
6.76972897e-21
3.770611848e-21
4.04887776e-22
1.449208425e-21
3.812345944e-21
1.662113653e-20
1.038934874e-20
6.23245162e-22
4.922330466e-21
2.614678529e-21
1.092772175e-21
1.347258884e-20
2.432172878e-22
8.180757441e-22
4.374935587e-21
1.567445789e-21
1.414604642e-21
6.428628742e-22
1.375484598e-21
4.166836708e-21
2.359188278e-21
6.432038326e-21
6.033908195e-22
1.11162604e-20
5.890462515e-21
6.187924091e-22
5.970096789e-21
2.266484276e-21
8.910074464e-21
8.73641012e-22
6.406347241e-21
1.008707419e-20
6.70688131e-21
2.184326907e-21
9.959065316e-22
3.837103142e-21
2.088493923e-20
3.899421067e-21
5.398671609e-21
2.154651694e-21
4.492029664e-21
1.921222125e-20
1.185244987e-21
1.377392183e-20
5.099607968e-21
3.669392882e-21
1.781970997e-21
4.161468181e-21
2.783359446e-21
4.393509584e-21
2.421388866e-21
6.821342742e-22
1.123195578e-20
3.985458234e-22
2.342699391e-21
3.514134082e-21
7.615519454e-22
7.196559043e-21
6.403198364e-21
2.613615889e-21
6.749387487e-20
4.045362834e-21
4.208508005e-21
6.492354978e-21
3.071151031e-21
6.905464755e-21
7.594060916e-21
4.614406301e-21
9.455611732e-21
4.620893247e-21
4.547101529e-22
3.20732542e-21
1.192800372e-20
4.318631239e-21
1.59374057e-21
2.563833648e-21
1.790048813e-21
2.363888152e-21
1.128186717e-21
6.888958666e-21
2.926053835e-21
1.289608852e-20
1.384282979e-20
8.312601593e-21
1.747130832e-21
4.945747863e-23
5.387851791e-21
2.646635941e-21
5.69907242e-21
6.731491099e-21
5.480834425e-20
2.338539724e-20
3.69742799e-22
1.153485326e-21
2.66105737e-21
1.167081256e-21
3.740930359e-21
3.091574797e-21
1.919876696e-20
1.340138133e-20
1.942503949e-21
2.310507594e-21
8.156525077e-22
1.617879492e-21
2.687724359e-23
1.408471381e-20
2.745359736e-20
1.88970648e-20
2.402292817e-22
1.086721246e-20
1.836793561e-21
3.624289914e-21
2.234666646e-20
1.231413653e-21
3.685842174e-21
1.849519495e-21
1.127235701e-21
3.298988797e-20
3.441271066e-21
1.34553395e-20
3.297806615e-21
3.438196331e-21
3.364727984e-22
1.100565862e-20
3.411029948e-21
1.077437658e-21
2.562945963e-21
1.41707426e-20
8.167119675e-21
5.043624356e-22
2.861761103e-22
1.615844896e-21
1.770142215e-21
3.49780064e-20
6.277552914e-21
5.33749032e-22
3.730627997e-21
9.218612474e-23
5.656891141e-21
1.324946142e-21
1.251427478e-20
4.239997841e-21
3.155056258e-22
4.436251197e-21
2.150466697e-21
7.749324406e-21
4.181632028e-21
6.358414873e-21
1.966427713e-21
1.851721353e-20
1.62644823e-20
1.476758369e-21
1.962696566e-21
7.773105094e-21
2.964772693e-21
1.087187532e-20
1.67537859e-21
1.878519383e-22
7.025860658e-22
5.551760583e-21
2.518879752e-21
4.741667613e-21
1.015669767e-20
4.048567206e-21
6.410813465e-22
5.425642596e-22
3.476153932e-21
6.318915954e-21
6.364468332e-21
1.730505127e-21
4.467431575e-22
1.329405741e-21
1.503309452e-20
3.101921312e-21
7.840355359e-21
5.465406199e-21
6.313472002e-21
2.766789234e-21
4.920466494e-21
2.170672715e-21
6.658801043e-22
9.21443082e-22
1.248911527e-20
5.061572188e-22
2.942120863e-21
5.288736511e-22
6.871618925e-21
1.299725141e-21
4.570223802e-21
8.796069849e-21
5.991808665e-21
1.065908747e-20
6.287315227e-21
4.097150409e-21
1.086571438e-22
9.059927871e-21
6.898191275e-21
7.677803623e-21
1.23162209e-21
6.471166127e-22
6.431023638e-22
1.952192622e-21
1.094449045e-20
1.167196706e-21
6.619254863e-21
1.385034666e-20
6.7185949e-21
4.740927267e-21
1.14992457e-20
2.663709954e-21
6.45820836e-22
7.663494074e-21
4.534035232e-21
1.483792237e-21
4.361546742e-22
3.727874531e-21
4.598690336e-22
3.735108709e-21
1.132122022e-20
1.19997346e-20
2.273053873e-21
5.331168937e-22
2.583249414e-21
2.96451591e-20
4.948584418e-21
2.251517881e-21
2.057710911e-22
4.157720733e-21
3.670510306e-22
3.948940797e-21
2.229321654e-21
1.666886945e-21
2.550692227e-21
1.872036493e-21
3.851343061e-21
5.733801988e-22
8.339747698e-21
5.109987803e-21
6.955567706e-21
3.32499319e-21
2.119854566e-21
1.409458504e-21
3.218235126e-21
1.272650629e-21
3.753620699e-21
4.672650916e-21
7.006956223e-21
8.193741103e-21
1.382147559e-21
3.714654803e-21
1.132253309e-20
1.293648794e-21
6.58192448e-22
5.31171635e-21
5.798931512e-22
2.633498266e-21
1.775131666e-21
6.906904494e-23
1.224476848e-21
2.723600417e-21
2.713437265e-21
1.497328183e-21
2.726559343e-22
3.392194923e-22
1.506885143e-21
6.042921074e-21
3.774364943e-22
4.154168122e-22
1.857533273e-21
7.946780564e-22
2.09445594e-21
2.51099969e-22
1.622686693e-21
6.212172178e-21
2.428425638e-24
9.214681651e-21
1.954589256e-21
6.912298882e-21
7.214092505e-21
1.692429012e-21
3.449028818e-22
1.335521025e-21
8.981067532e-21
2.61751939e-20
2.655791147e-20
6.084525958e-21
9.869465756e-21
2.851464585e-21
1.064992915e-20
5.508105992e-21
3.124434491e-21
4.584976483e-21
8.449213249e-22
2.456173547e-21
9.495961982e-21
1.948899253e-21
1.015699502e-20
3.125405418e-20
1.094525716e-21
3.166055176e-21
1.256176987e-21
3.087598377e-21
1.346719195e-20
1.424685748e-21
5.722524296e-21
2.891609051e-21
2.863029975e-21
1.101092546e-21
5.338366388e-21
1.068162761e-20
1.121563161e-20
3.291829221e-22
8.218669274e-21
1.193834221e-21
1.09538615e-20
3.333402912e-21
1.782312244e-20
4.807688106e-21
1.787033027e-21
1.895666803e-21
1.225175152e-20
1.885955065e-21
5.082580584e-21
3.674494981e-22
4.350139047e-21
2.170966037e-20
3.142454267e-21
6.770868368e-21
6.194212496e-21
4.11634976e-22
4.129457429e-22
4.097399901e-21
5.092021299e-21
9.296891292e-21
4.072840058e-22
3.423725067e-21
1.069176747e-21
2.761293008e-21
1.195330762e-20
3.42748636e-20
7.276630363e-21
7.979758175e-21
3.590062347e-21
4.487215863e-21
9.714380505e-21
9.935127265e-22
2.383081283e-21
8.022839583e-21
1.964159547e-21
1.080964985e-20
2.318715467e-21
1.987659493e-21
7.653995746e-21
3.624332764e-20
3.875844903e-21
2.469328114e-21
1.605598563e-21
8.627056409e-21
1.884588479e-22
6.100351462e-21
4.612034442e-21
6.607923355e-21
1.722003411e-21
3.421971225e-21
9.261690126e-21
1.10847551e-20
1.484364225e-21
3.846800183e-21
3.196589243e-20
1.710367972e-21
1.004168793e-20
9.030870145e-21
5.923402346e-22
9.141661382e-21
1.362268442e-20
3.830803067e-21
6.549922077e-21
8.951918269e-22
7.287429489e-21
1.730076487e-21
1.787921413e-20
1.613983002e-20
3.610709169e-21
9.684039239e-21
6.305780665e-21
4.001180043e-21
4.34149648e-21
5.851774344e-22
2.196916497e-20
4.84207969e-22
6.731246705e-22
3.012715337e-21
5.785313946e-21
6.193953892e-22
4.155039973e-21
5.045610785e-21
7.556569137e-21
4.324191443e-22
3.901995469e-21
5.700105932e-21
2.835998523e-20
2.077645172e-20
3.49609022e-20
3.340655284e-21
1.089339818e-21
5.309014288e-21
6.834116225e-21
2.196547886e-21
1.974671502e-21
4.548885893e-21
3.526749686e-20
2.431987208e-21
1.828522055e-21
1.891285358e-21
2.996195387e-21
5.392480368e-21
5.09193546e-21
7.61924688e-21
6.782506069e-22
6.613501318e-22
1.610914294e-21
5.35480791e-21
5.221176481e-21
1.009436702e-20
3.942756099e-21
2.661734933e-20
2.67958392e-21
1.191779149e-22
8.630216071e-21
9.336153324e-22
9.833871605e-22
9.812141614e-21
1.171578472e-22
5.463141564e-21
1.262960534e-21
2.970462486e-22
1.391991932e-20
3.235215537e-22
3.094612985e-21
8.844135935e-21
1.553341351e-21
4.73819148e-21
9.134976916e-22
6.616000666e-22
6.606629351e-21
8.433360043e-23
2.86981907e-21
3.421398655e-21
3.488155091e-22
1.077966629e-21
9.294489845e-21
3.188343558e-21
2.645957317e-21
1.638016072e-20
1.395114682e-20
2.976847718e-21
1.772519245e-21
9.055509195e-21
1.018939129e-21
1.54387616e-20
1.446442439e-21
7.476376203e-21
2.255615126e-21
1.739193432e-21
1.209534657e-21
8.247446656e-22
3.309467278e-21
5.840019466e-21
5.780030697e-22
1.123963472e-20
2.568383628e-21
3.00128148e-21
1.047662664e-20
8.725436119e-22
4.224793373e-22
1.3782896e-21
6.047165432e-21
2.183344596e-22
7.603638477e-21
3.572680567e-22
3.78282918e-22
1.063840117e-20
1.671304357e-21
5.426291357e-21
6.997972345e-21
9.417767938e-21
4.154004458e-21
7.647142589e-21
5.105137492e-21
1.763891122e-21
1.503183491e-21
1.130049441e-20
2.482765037e-21
4.206889299e-22
3.292400729e-21
6.805222337e-21
4.492047836e-23
2.121390836e-21
2.745917373e-20
4.518222357e-21
7.679568646e-22
7.36596334e-21
8.418377682e-22
2.742078254e-21
1.135389448e-22
1.955855635e-21
3.127483696e-21
5.724837611e-21
4.060003519e-21
1.623023869e-21
2.561555773e-21
1.855103083e-21
3.759516121e-21
2.4553755e-21
3.529188841e-21
8.076075632e-22
4.063207585e-21
4.797525014e-21
1.026648116e-20
3.623831802e-21
1.829315381e-21
7.066769249e-21
8.687375751e-23
1.425302528e-20
7.961263743e-21
2.322001937e-21
3.047489705e-21
1.145733973e-20
2.142818183e-21
2.63812015e-21
6.99240351e-21
4.108440146e-21
1.168305196e-20
1.472500214e-20
8.543610892e-22
3.626830946e-21
1.656289975e-21
6.699911786e-21
1.347100527e-21
3.185275331e-22
3.20995844e-21
2.022328601e-21
6.73721887e-21
8.36812197e-21
3.797492113e-21
1.830869125e-20
7.719720194e-22
3.973513009e-21
2.51478081e-21
4.254665252e-21
9.680140369e-21
3.49120509e-21
4.106431168e-22
1.632864482e-21
6.026641611e-21
3.254332156e-21
7.137423121e-21
5.433871716e-21
9.06924839e-22
1.505277976e-20
4.401175183e-21
9.881840877e-21
6.560973038e-21
2.349051934e-20
4.247612081e-22
5.386544755e-21
8.330113095e-22
2.420975383e-23
1.47753154e-20
5.459777953e-21
1.254869367e-21
3.727701683e-21
5.27644426e-21
3.471329185e-22
1.17584124e-20
6.369147437e-21
3.952178028e-21
1.337063833e-21
2.624021633e-22
7.678839057e-21
6.611470634e-21
3.05487622e-21
5.143397065e-21
1.348262655e-21
5.091980506e-22
3.832380027e-21
1.643410431e-21
2.056089486e-21
5.485512339e-21
4.846760984e-21
6.828781918e-21
6.084544418e-21
3.887981476e-21
1.290211189e-21
5.692123539e-22
2.843616054e-21
5.991664432e-22
1.643809044e-21
2.921476956e-21
4.471626805e-21
9.486468155e-21
4.431175916e-20
1.618004051e-20
6.597748468e-21
3.702447944e-21
1.41362633e-21
3.586896469e-22
1.09305901e-20
2.437475537e-21
3.596861908e-21
1.102920399e-22
2.313287199e-21
1.485158896e-21
3.103548916e-22
3.937225737e-22
1.557433585e-21
9.403850127e-22
1.956352898e-22
2.787236502e-21
1.37923359e-21
5.504222801e-22
1.539584899e-20
2.587768592e-21
6.304606568e-22
4.000849349e-21
3.627994107e-21
2.09248022e-22
3.156329326e-21
3.937968537e-21
1.952666879e-21
6.700563146e-22
3.457449444e-21
9.551852714e-21
1.590173879e-22
2.630004877e-20
5.957146098e-21
1.103066708e-20
8.750730673e-22
9.417647778e-22
3.285104913e-21
4.80138926e-21
1.168882992e-21
2.628989707e-21
1.056544872e-21
3.944863382e-21
4.595283862e-21
7.760512011e-21
6.409932359e-21
2.410295894e-21
3.243266283e-22
5.876760707e-21
1.77512289e-20
1.216560067e-20
1.785651492e-20
2.010880173e-21
3.44779495e-21
1.612375573e-21
3.817491035e-21
8.635958343e-23
1.483735924e-21
5.372823387e-21
2.143171145e-21
1.790259907e-20
3.081111346e-21
1.977262341e-20
1.213323359e-21
3.606970159e-20
1.45084614e-21
7.973591892e-21
7.683725999e-21
6.076974886e-21
6.206950813e-22
1.496695327e-20
4.116055127e-21
2.454034236e-21
4.447124442e-21
1.60452205e-20
5.17068683e-21
2.415000776e-21
8.084985635e-22
1.136417927e-21
5.547446687e-21
3.739051334e-21
1.323330768e-20
2.587310169e-21
1.168583047e-20
4.979715618e-21
4.854498627e-21
6.232881229e-22
1.527223355e-21
5.055666937e-22
3.904296594e-21
8.04988481e-21
4.08034623e-21
1.696283989e-21
5.393464427e-21
1.053255856e-20
2.204485358e-21
2.063885693e-21
2.64434684e-21
1.209749431e-20
1.278033175e-20
3.227131159e-21
7.040149116e-22
7.790238561e-21
2.226821287e-21
2.481271849e-21
9.716373824e-21
4.536494312e-21
2.275895496e-21
7.873247098e-21
3.036077539e-21
5.178514084e-21
1.033734609e-20
2.159255139e-22
4.439804888e-20
3.093222572e-21
3.612257342e-20
1.926276151e-21
1.918163023e-22
8.259180201e-22
1.852159898e-21
2.07981251e-21
6.041202042e-21
2.593185825e-21
6.377762852e-21
1.913743652e-21
1.595828199e-22
4.740717784e-21
1.172080112e-20
7.973431694e-21
3.109646956e-21
1.379295958e-21
6.547795599e-22
2.165836833e-21
7.827520873e-21
2.974677217e-21
5.43574078e-21
2.171786426e-21
7.070963069e-21
3.902399512e-21
7.667036527e-22
2.754722687e-21
3.000636292e-22
4.382960513e-21
1.515807534e-21
6.35852737e-21
8.803541653e-22
7.72946338e-21
1.683263845e-22
3.263753836e-21
1.39868788e-22
3.789549371e-21
8.051121785e-21
1.426732928e-21
1.370657712e-21
3.988942475e-21
9.264040999e-22
9.509552613e-21
1.102922247e-20
4.374953173e-21
1.316642069e-20
7.386059923e-22
3.224107041e-21
5.506098123e-21
1.564460328e-21
3.325160889e-21
3.684208093e-22
2.558335995e-22
7.495686749e-21
3.679686541e-21
2.471879441e-21
4.473435124e-21
9.331320172e-22
3.429149085e-21
3.056057979e-21
4.57472392e-21
1.466929316e-21
2.411134341e-21
2.226612825e-21
1.665694071e-21
3.991535634e-21
2.009460023e-22
4.6584222e-21
2.179261179e-21
6.181160943e-21
1.369595621e-21
3.816411409e-21
5.232348656e-21
1.20704019e-21
3.061711552e-21
5.390701932e-21
2.565580182e-21
7.537633651e-22
4.546903216e-21
2.481480126e-21
9.96646488e-22
1.145443401e-20
8.129355379e-21
8.566559482e-22
1.301069887e-20
5.466687317e-22
2.507131553e-22
9.267662826e-21
1.486745426e-21
1.171847477e-20
5.265788543e-21
6.536186555e-21
2.465321249e-21
2.464551706e-21
8.369385197e-21
6.026971513e-22
3.509857845e-21
4.088861428e-21
7.401012529e-21
4.940131939e-21
3.136733913e-21
2.912409065e-21
7.175201502e-22
1.176777394e-20
1.125463804e-21
2.546984762e-21
3.374579039e-21
3.982283698e-21
4.883839217e-21
3.228350216e-21
6.505138177e-21
9.059129221e-21
1.360423306e-21
2.448084002e-20
2.21872202e-21
6.712968467e-22
5.199278719e-21
8.543715232e-21
3.394223361e-21
1.105115298e-20
3.829230383e-21
2.382067328e-21
3.400841767e-21
6.702196095e-22
6.907323841e-21
2.135369083e-21
2.752033747e-21
1.780237627e-20
5.188577763e-21
2.073580877e-21
3.05585844e-22
3.252513539e-21
1.209256836e-21
3.281624129e-21
1.899360748e-21
1.565842971e-21
3.933872339e-21
3.723569373e-21
1.14777272e-21
2.344912072e-21
1.019159833e-20
1.591102111e-21
5.007263596e-21
2.928394366e-21
9.813488393e-22
1.697832738e-21
5.618830248e-21
2.378233165e-21
2.452484331e-21
1.928425014e-21
3.275224861e-21
8.247877928e-21
4.406757049e-21
1.356302507e-21
6.443874882e-21
1.980885333e-20
4.271153729e-21
9.40638434e-22
1.130843503e-20
1.197614849e-21
2.425786721e-21
2.549399409e-21
1.146505032e-22
3.795808923e-21
5.967711904e-22
8.133368737e-21
3.064750577e-21
7.480134495e-22
5.620519744e-21
2.622156827e-21
3.105985186e-21
1.529388096e-21
6.138602308e-21
1.898517613e-20
1.000902626e-20
4.199672153e-22
1.417240445e-21
2.870654372e-23
1.218915619e-20
2.036616226e-21
2.316013279e-21
1.79314449e-21
8.255458699e-22
1.394098637e-21
1.329874799e-21
1.732953813e-20
4.075251944e-21
6.829230036e-22
4.650313817e-21
2.356281627e-22
1.908086749e-21
3.622954507e-22
2.158532133e-21
2.421588037e-22
3.781032573e-22
7.153228343e-21
3.965928248e-21
1.685526323e-21
8.244609764e-21
6.182436388e-22
9.617651195e-22
1.255348425e-20
3.498128229e-21
7.510269828e-22
3.664484901e-22
1.764292481e-21
5.223792149e-21
4.145487499e-21
8.658848962e-22
2.655194188e-20
5.72334259e-22
3.446111471e-21
9.345927621e-21
2.011140252e-21
2.153199718e-21
6.067650022e-21
3.094101011e-21
3.258582074e-21
2.008302129e-21
4.366964049e-22
4.582915275e-21
2.204968716e-21
4.818145778e-21
4.259723781e-21
6.74474649e-23
6.022727938e-22
3.351748417e-21
1.01244002e-20
2.301797772e-20
3.685794828e-21
8.253659868e-21
6.945943155e-21
5.999065458e-23
2.187219906e-20
1.176448365e-21
4.874725778e-21
2.104356178e-21
1.940505968e-21
2.487212201e-21
5.227749083e-21
8.974966268e-21
1.560184267e-21
2.435442461e-21
6.911764888e-21
1.599673826e-21
1.178516887e-20
2.893712899e-21
1.583355406e-21
7.04595033e-22
4.62247605e-22
3.236683169e-21
6.369622679e-21
7.187026899e-21
2.335345985e-20
4.039296383e-21
1.449871536e-21
4.681101083e-21
2.099769055e-21
6.605922325e-21
6.459302869e-21
3.021898183e-22
9.721635286e-22
1.702714534e-21
3.373583438e-22
8.372719518e-21
2.655925433e-21
1.514450662e-20
1.380963636e-21
2.166905931e-21
7.077874958e-21
2.215070447e-21
4.850255427e-21
8.937774629e-21
8.983402521e-21
1.060825861e-21
5.945705604e-21
2.476811751e-21
3.724222474e-21
3.047165863e-21
4.280425715e-22
2.19761885e-21
1.587792414e-21
2.492817494e-20
3.787063374e-22
1.51679315e-23
8.234085532e-21
1.310654258e-20
5.310411786e-21
5.135774125e-21
2.710065131e-22
8.370282519e-21
5.562569324e-21
3.17126309e-21
4.218581477e-21
2.754256069e-21
2.388441001e-20
5.499758945e-21
5.942739484e-22
7.216707149e-21
2.220526127e-21
1.630254511e-20
5.195866732e-21
4.202234249e-22
1.563224367e-20
1.703774276e-21
1.889138176e-21
4.811528206e-21
8.548596452e-22
3.743296317e-21
2.006844614e-21
3.397763625e-21
6.838326461e-21
7.701170563e-21
1.381786845e-21
1.053097593e-21
5.883045314e-21
6.107946669e-21
1.545101015e-21
1.195293669e-20
3.11790811e-21
5.930642759e-21
3.601147733e-22
7.832067485e-22
2.802944738e-21
4.24624878e-21
1.115088395e-21
8.714590417e-22
6.568554268e-22
1.561412569e-21
8.610714628e-21
4.276531682e-21
1.851205662e-21
1.250260916e-20
1.971812597e-21
9.412605535e-21
1.279512771e-22
3.022680246e-23
1.126778809e-20
9.160838021e-21
4.96594824e-21
1.971364855e-20
5.522888409e-21
4.052049866e-22
7.214596817e-22
5.049479343e-21
7.284446784e-21
3.368373758e-21
1.364254125e-21
6.505244271e-21
9.422804684e-22
3.826775088e-21
5.346016434e-22
1.343092629e-20
8.986681279e-22
1.282568212e-20
9.232002939e-21
6.90016256e-20
1.459915724e-22
5.496810963e-21
9.565028108e-22
7.117141914e-21
1.546587512e-20
1.56401125e-21
2.219483773e-21
1.134399254e-20
5.480390019e-21
4.183203249e-22
1.086563794e-21
2.325782905e-21
9.828479883e-23
3.068137103e-22
2.748398784e-21
6.793699996e-21
1.35202062e-20
7.165035941e-22
2.693294852e-22
9.433563147e-21
1.328632502e-20
1.603080449e-21
2.184395501e-21
2.038771592e-21
3.782228389e-21
4.915568807e-21
1.394625844e-21
3.137597017e-21
4.9201665e-21
1.011662053e-20
5.865937442e-22
9.472813871e-21
6.124861424e-22
4.232113339e-21
1.856413413e-21
1.819296745e-21
2.160986178e-22
4.063386612e-21
2.921686266e-21
7.8510366e-21
2.829582295e-21
1.116257594e-20
1.311483219e-21
7.282733842e-21
2.412755901e-21
1.900317995e-21
5.857504569e-21
3.323350487e-21
1.355329771e-21
1.099884574e-20
6.633183199e-21
3.677352336e-21
1.010853036e-21
6.631386206e-22
2.073702582e-21
1.207851533e-21
2.105173234e-20
1.090937842e-20
4.111953794e-21
9.716455271e-21
1.725783556e-20
1.117536034e-20
7.481426771e-21
7.807777493e-21
2.532792832e-21
6.153298946e-21
8.188972899e-21
2.168645809e-22
1.845161861e-21
1.502259477e-21
9.285901257e-21
5.263328481e-21
1.726379555e-21
1.045161142e-20
3.351150006e-21
3.872317024e-21
1.768221362e-22
4.616632941e-21
2.98692119e-22
4.203572473e-21
1.068651469e-21
1.190031658e-20
7.523656415e-21
4.19039985e-22
3.938752929e-21
2.654807181e-21
7.080107246e-21
7.465317571e-22
2.182031855e-20
2.998962297e-21
2.604180689e-21
1.22721199e-20
4.515544536e-21
2.237788161e-21
8.671842702e-21
6.499907607e-21
5.121869188e-21
1.246038269e-20
3.98092923e-21
2.955773356e-21
5.365971274e-22
9.866787629e-21
1.003420548e-20
2.990032137e-21
2.742443112e-21
2.328158254e-22
1.486162194e-21
6.132841217e-21
3.572462009e-21
6.682668242e-21
1.256527299e-21
2.359647912e-21
4.651492076e-22
5.78257519e-21
2.436420855e-22
2.70364711e-21
1.667125162e-21
9.996508647e-21
2.955263263e-21
1.088428634e-21
4.912155323e-21
1.666121833e-20
7.085976035e-21
6.520529222e-21
5.148769986e-21
8.016114541e-21
1.100673546e-21
4.038211141e-21
1.225498247e-20
8.250881432e-22
4.049413004e-21
2.19265147e-21
2.134259555e-21
7.668522181e-21
2.6704615e-21
1.695918306e-21
1.196077474e-21
2.836117697e-21
2.207896578e-21
9.486871906e-22
2.636949422e-21
3.550221796e-21
2.639623533e-20
6.008080894e-21
2.394586236e-21
2.045925377e-21
2.245929832e-21
6.053597003e-22
1.811215778e-21
1.287101725e-20
2.763585692e-21
4.21073907e-21
1.527015998e-20
1.747224652e-21
2.05428344e-22
1.122061987e-21
7.865497335e-22
9.661976578e-21
1.392284306e-21
1.619690196e-21
8.269622005e-24
2.255458908e-20
1.739898274e-21
5.43573516e-21
1.268089313e-22
1.192349585e-20
5.582485884e-22
1.57141757e-20
6.708830739e-22
6.609890645e-22
5.383414279e-25
3.251569877e-21
2.082629837e-21
7.673749188e-21
5.335281715e-21
4.412801462e-21
4.750514571e-21
7.410609336e-21
1.377931125e-21
1.451671149e-20
4.220576572e-21
2.904002559e-22
6.772578353e-22
4.10199134e-21
1.247539004e-22
1.738161111e-21
7.016555437e-22
1.218006068e-21
3.480939766e-21
9.505773008e-21
6.767037281e-22
8.296978887e-21
2.442777328e-21
1.460063117e-20
1.695716067e-21
8.071343636e-21
1.325379334e-20
3.027247598e-21
3.379571074e-21
8.883299364e-22
8.396687266e-21
1.764313578e-21
4.337299848e-21
3.580462434e-20
2.839612754e-21
5.564965139e-21
4.829829801e-21
3.245009669e-21
1.793014693e-21
6.610445027e-21
3.356114255e-21
2.587319663e-21
1.706404972e-21
1.290062911e-20
8.714704224e-22
9.384063761e-21
5.673921502e-21
6.130903641e-21
4.168040483e-21
6.264836101e-21
1.216941172e-20
1.59331632e-21
1.235761025e-21
1.309003574e-20
4.715256736e-21
7.67216872e-21
8.221648699e-21
2.645308103e-21
4.46482813e-21
1.091676517e-21
1.346124115e-22
1.428224798e-21
1.70744811e-21
2.356553698e-21
5.434459337e-21
2.796628843e-22
3.656919744e-21
9.912235458e-22
4.546394776e-21
1.836962137e-21
8.290420161e-23
6.272910209e-21
5.712806726e-22
3.991328345e-22
4.811581042e-21
1.930524121e-21
1.598344216e-21
2.048855615e-21
5.636821532e-22
3.204162095e-21
4.343658618e-22
2.048607449e-20
9.48731041e-21
2.550397833e-22
4.100993275e-23
4.129650335e-21
4.442653959e-21
6.081013047e-21
7.448943412e-22
5.393582437e-22
1.311030929e-21
4.868116138e-21
9.574703518e-21
2.798880759e-22
9.875726665e-21
1.350802211e-21
3.670136516e-22
1.974892844e-21
1.384514748e-21
4.65519261e-21
3.714941798e-21
1.144444703e-21
6.195848778e-22
2.815522751e-21
8.037655687e-21
1.342232081e-21
2.950962388e-21
4.899275202e-21
3.273947429e-21
5.259366796e-21
9.314225513e-21
5.009659066e-21
2.657437465e-21
1.048504096e-21
1.169705046e-21
2.460315365e-22
3.008769461e-22
1.129473994e-20
4.140855994e-21
7.470885032e-21
7.434498955e-22
1.851240253e-21
1.706109011e-21
9.775877385e-22
4.579870958e-21
2.050790555e-20
5.546574666e-22
8.190114929e-22
4.696942561e-21
1.304151215e-21
1.284713356e-20
9.055499034e-21
7.606825417e-22
1.569884379e-21
5.301386177e-20
8.300849964e-21
4.625585595e-22
1.688752571e-22
1.293204633e-21
4.652699853e-22
1.347531077e-21
3.476849304e-21
4.973670211e-21
1.321563089e-21
1.979437665e-21
1.018263288e-21
4.429992241e-21
1.970746413e-20
4.363465641e-21
5.976447995e-21
6.832061424e-21
1.441435674e-21
1.710109181e-21
1.237582071e-21
3.451958126e-21
4.686795078e-21
9.588232504e-21
2.388035467e-20
1.143598892e-20
8.963214223e-22
3.601105108e-21
3.883893086e-22
4.772047764e-22
2.698649321e-21
2.181085407e-21
7.457326371e-22
4.134486394e-21
2.366753143e-21
1.562053192e-21
1.124215937e-21
3.418186135e-23
3.358264326e-21
5.846287249e-21
7.670262063e-21
3.136271855e-22
3.690264441e-21
1.834372113e-20
2.957199241e-21
1.636229359e-21
2.484725782e-22
5.087548746e-21
2.182289148e-21
8.327621644e-21
3.809335547e-21
3.760911603e-22
3.702317255e-22
1.264976705e-21
6.657147434e-21
1.406172359e-21
4.039414247e-21
2.570443327e-21
9.695691257e-21
2.489256774e-21
1.436950229e-21
3.159593929e-21
9.938348855e-22
3.352709649e-21
7.926773066e-21
1.849911531e-21
9.207377051e-21
2.895585092e-21
6.226840167e-21
1.199145978e-20
4.308071123e-21
1.062285194e-20
1.218948683e-21
2.798018564e-22
8.509195109e-21
1.85976573e-21
5.102694791e-22
6.565572347e-22
4.108321528e-22
2.835652634e-21
2.739711154e-21
5.533253712e-21
8.650649171e-21
5.122324115e-22
5.966383989e-21
2.773781044e-21
4.861228077e-22
3.794193151e-21
1.348697591e-20
1.05619626e-20
1.133910313e-20
8.282955251e-22
6.727190527e-22
6.784679167e-22
8.774364011e-21
1.440682271e-21
7.656935115e-22
1.590594283e-20
8.412489813e-22
2.728633375e-23
2.764058645e-21
1.412496562e-20
2.741336829e-21
2.065614949e-21
3.254907174e-21
4.248363415e-21
8.997876525e-21
1.884932517e-21
5.905013363e-21
3.540362437e-21
9.078225665e-21
6.020548332e-22
4.932738231e-22
2.783966408e-21
4.422034472e-21
1.493876046e-20
2.149508315e-21
3.299670216e-22
3.338000564e-21
4.131715451e-21
2.908198856e-20
1.747660673e-20
2.22300551e-21
5.980608004e-21
1.712515742e-21
6.348196184e-21
4.388660232e-21
5.61105556e-22
1.153201074e-20
1.252937083e-21
6.086200045e-21
1.131097661e-20
3.192614332e-22
1.13467826e-21
2.810901897e-21
5.918046516e-21
1.570945524e-20
1.888138932e-21
5.216221631e-21
6.445175686e-21
5.306554318e-21
4.519707584e-21
2.935346184e-22
3.449777841e-21
5.085895092e-21
1.185259185e-21
6.508788751e-22
1.506894383e-20
3.945808331e-22
1.558049705e-21
6.501194081e-21
1.481201545e-20
1.740463934e-21
7.035208819e-21
6.306924275e-23
3.251642228e-21
1.935726231e-21
3.048399078e-22
4.081048288e-21
4.157124355e-21
1.563697408e-21
8.240931378e-22
1.306108678e-20
6.014127438e-22
5.692557552e-22
3.228305344e-21
3.330869515e-22
1.068488297e-22
4.178124585e-21
1.409610672e-21
3.706048737e-21
2.354533735e-22
2.498172588e-21
1.666583905e-21
4.434308693e-21
1.552498366e-21
2.60864578e-21
3.32586701e-21
2.423637541e-21
1.203377917e-22
4.98333288e-22
9.092027314e-22
4.280196903e-21
5.849454785e-21
1.865930388e-21
2.249433454e-21
9.993841677e-22
1.158847613e-20
1.177003987e-22
1.180137513e-21
8.641383546e-21
5.593586897e-22
1.834913464e-21
4.795096952e-22
3.64326463e-21
6.511248026e-21
1.385767207e-20
2.847609735e-21
4.634420303e-21
2.00475143e-21
1.197819545e-20
5.369371216e-22
2.17101459e-22
1.43134546e-20
1.323454593e-20
1.478921038e-21
5.871970035e-22
1.584416642e-21
1.46357928e-21
3.781337764e-21
2.194910624e-21
1.151381617e-21
4.5542715e-21
1.736350238e-22
4.459650052e-21
2.197998011e-22
1.573499984e-21
2.410961637e-21
4.320822859e-21
7.390800687e-21
7.517564573e-21
1.399559677e-21
2.884103875e-21
2.479480173e-21
9.809433412e-22
8.964221223e-22
9.248245527e-21
4.155693065e-21
9.822759373e-24
4.12392403e-22
2.430129235e-21
4.388407301e-21
3.487325439e-21
1.50524844e-21
3.985179665e-21
6.474008264e-22
1.420176716e-21
1.469072034e-20
1.641333391e-21
3.082005556e-22
1.558441192e-20
8.664438455e-22
4.414601746e-21
2.858840724e-22
1.2839534e-21
1.790987588e-21
4.524381897e-21
6.987449342e-22
6.781915772e-21
2.22285114e-21
9.945293163e-22
3.38700199e-21
6.424220666e-22
3.216441935e-21
6.121751035e-21
1.50068998e-22
4.978058042e-21
1.582722376e-20
8.736650229e-22
2.530928898e-21
2.711664629e-22
2.106008328e-21
4.133472168e-22
1.905720869e-22
1.085679683e-20
7.096919972e-21
1.512372078e-21
1.717656933e-22
2.676478135e-20
1.525887817e-22
2.238780674e-21
3.054457965e-21
8.714595159e-21
2.056358056e-21
1.370203487e-21
2.930461348e-21
2.670545411e-21
7.83152311e-21
1.077361919e-20
3.24124577e-22
4.781629777e-21
1.876196152e-22
3.378808952e-21
2.261241349e-21
4.452180604e-22
2.726873583e-21
3.98196407e-21
1.01132712e-21
3.966682527e-21
5.913211468e-21
5.957413544e-21
5.571373768e-21
5.310208163e-21
6.465296922e-22
1.077633971e-22
4.025011123e-22
6.349803838e-21
1.09169092e-21
8.077507124e-21
2.018456465e-21
8.019756715e-22
6.081688237e-24
5.514277744e-21
2.021039816e-20
1.025917151e-21
1.517659709e-21
1.243082602e-22
1.852828616e-20
1.195867255e-20
5.177054197e-21
7.797412976e-21
1.715083959e-21
5.876779613e-21
3.745738146e-22
6.809413724e-22
2.100237751e-21
6.666763736e-21
7.630638296e-21
3.773002032e-21
1.187074984e-20
1.547100323e-20
9.278861384e-21
4.078665109e-21
3.179278439e-21
2.113246055e-21
1.315054707e-20
8.901407663e-21
3.959138642e-21
1.502167975e-21
7.012253978e-21
1.694890515e-20
5.163549984e-22
2.717670121e-21
5.579240408e-21
3.508452101e-21
8.676777707e-21
2.908333606e-23
1.630870099e-21
3.564886755e-21
6.118015157e-21
1.355844509e-21
2.624001417e-21
7.1439265e-21