/*--------------------------------*- C++ -*----------------------------------*\
  =========                 |
  \\      /  F ield         | OpenFOAM: The Open Source CFD Toolbox
   \\    /   O peration     | Website:  https://openfoam.org
    \\  /    A nd           | Version:  7
     \\/     M anipulation  |
\*---------------------------------------------------------------------------*/
FoamFile
{
    version     2.0;
    format      ascii;
    class       scalarField;
    location    "0.003/lagrangian/dsmc";
    object      Ei;
}
// * * * * * * * * * * * * * * * * * * * * * * * * * * * * * * * * * * * * * //


4622
(
5.027757505e-22
2.073042114e-21
2.269958003e-21
7.914048079e-21
1.245291568e-21
3.868203744e-21
4.102304028e-21
3.153633044e-21
7.782643493e-22
1.928471855e-21
8.219762548e-21
1.296206072e-21
6.984149955e-21
3.26845165e-21
3.308392009e-21
4.333786886e-21
7.209388784e-21
5.452548995e-22
7.801796935e-22
2.855983189e-22
9.678122908e-21
3.249644429e-21
7.925777697e-21
4.007926217e-22
1.756258081e-21
8.719282547e-21
1.202615998e-20
1.357017325e-20
2.227653789e-21
5.821999875e-21
9.774038885e-21
2.23317586e-21
7.70152572e-21
4.422537368e-21
3.79458444e-21
9.51137833e-21
1.265867309e-20
4.964521438e-21
1.364300812e-20
5.692178112e-21
6.030933202e-21
2.211300047e-22
6.638504162e-21
3.944024443e-21
2.232993153e-21
1.823496322e-21
1.490316934e-20
1.075290725e-20
2.344284213e-21
2.465489981e-20
9.425239785e-22
4.676565094e-21
1.762625668e-20
6.279135553e-21
1.612968904e-21
4.657582274e-21
8.98924333e-21
1.366889469e-22
6.538997975e-21
6.607231968e-21
1.339429128e-20
9.131261429e-22
4.499264642e-21
3.173368964e-22
9.415965697e-21
7.34398789e-21
3.928636902e-21
1.241177593e-20
5.269789776e-21
3.476610393e-21
4.630659249e-21
1.4859995e-20
3.161194029e-21
7.02867051e-22
3.805946511e-21
3.405337592e-24
4.920670964e-21
1.33209073e-21
1.886685601e-22
3.882157648e-22
8.966011573e-21
8.507082321e-21
3.913802783e-22
1.069192147e-20
5.997546915e-21
2.854034645e-21
6.851124953e-22
6.271959971e-21
1.394917449e-21
4.275166215e-22
3.654426173e-21
1.5522384e-20
5.90847623e-21
1.359930489e-22
1.285934496e-21
1.772301927e-21
2.029067381e-21
1.688525121e-21
7.682629103e-21
3.216291022e-21
2.300934876e-21
9.942204285e-21
5.147326807e-21
6.75379665e-22
8.102651328e-21
2.433939226e-21
8.200423732e-21
3.998941545e-21
6.710282252e-22
1.291373078e-20
3.147388484e-21
2.394045616e-20
1.976798238e-22
6.029988256e-21
4.03886726e-21
4.975796358e-21
5.109877827e-21
2.74187573e-21
2.053624164e-22
5.278375227e-21
2.699626894e-21
3.730429693e-21
2.165317833e-20
6.902631802e-21
2.626366504e-21
2.882872617e-21
6.668686886e-21
1.283272822e-21
2.866279784e-21
3.380646219e-21
4.772618192e-21
2.286893415e-22
7.779823471e-21
6.860990472e-21
5.134430695e-21
8.073803911e-21
6.281472152e-21
1.826684417e-21
1.549528624e-21
1.664603072e-21
1.430381199e-20
6.978041803e-22
5.330611017e-21
1.748355062e-21
4.90743992e-21
2.903144921e-21
3.063058551e-21
2.405995495e-21
7.453888411e-23
2.405155534e-21
7.166764841e-22
1.681567476e-21
9.265158132e-21
2.426053236e-22
6.545095668e-22
1.746489567e-21
2.857381976e-21
3.641407573e-21
4.770542222e-22
9.045494118e-22
6.011021976e-21
5.005190055e-21
4.72036421e-21
7.753263568e-23
2.651858548e-21
1.741052248e-22
4.085428138e-22
1.045838948e-21
2.754546022e-21
1.46791645e-20
6.493851465e-22
2.034325757e-21
9.327751949e-21
3.304300627e-21
1.426924851e-22
4.765629468e-21
5.19591904e-21
1.862587923e-20
8.340199237e-21
8.69116393e-21
8.529391503e-21
8.90692326e-22
1.826855682e-21
7.640355737e-22
1.094165011e-22
1.015523452e-22
5.563823559e-21
5.460235958e-21
4.471702561e-22
2.131521112e-21
8.113229963e-21
1.631600475e-21
4.150285956e-21
1.209141392e-20
8.31651866e-21
3.042810444e-21
2.182593834e-21
9.844189545e-22
6.806778581e-21
8.602447564e-22
6.467390963e-21
1.759814617e-21
3.609290916e-21
4.337168947e-21
1.751862028e-22
5.618136819e-22
1.031304777e-21
1.011275313e-21
1.842999863e-21
1.864289372e-21
1.720370981e-20
3.417980257e-21
2.615867133e-22
5.519315343e-21
3.280899387e-21
5.548775012e-21
4.211681768e-22
3.728735211e-21
6.080053317e-21
6.345081727e-22
2.691650773e-21
9.606145297e-21
1.435264452e-21
3.58863609e-21
2.627883003e-21
1.687036397e-20
6.253124371e-21
8.811736948e-21
2.365391016e-21
1.883507634e-21
4.466470062e-21
1.043226665e-20
5.463231818e-21
2.107470848e-22
1.585440864e-21
6.595932051e-21
1.003400261e-20
1.162796055e-20
2.693834341e-21
1.858104727e-20
1.388389285e-21
5.123439298e-21
1.565152803e-20
6.321212533e-21
3.169001065e-21
1.185826105e-20
4.407243711e-21
2.416587322e-23
1.433308124e-21
6.857295171e-21
9.169579176e-21
1.45995043e-21
4.349036952e-22
2.930053336e-23
3.947505323e-21
5.267498562e-22
1.924196415e-21
4.762884053e-21
8.225426675e-21
4.854025297e-21
2.758137813e-21
5.172084407e-22
3.274015058e-21
6.730512802e-21
1.220422652e-21
1.032916739e-20
6.285784148e-21
9.648933372e-21
2.93787848e-21
1.045180428e-21
1.770420115e-20
2.621204638e-21
9.44271751e-22
8.701501302e-22
2.070091691e-21
1.380939692e-21
7.128187356e-21
1.471347921e-21
2.120902124e-21
1.397918973e-21
5.40144732e-21
4.773085508e-21
1.141159414e-22
3.921818264e-22
8.536938942e-22
8.162766913e-22
5.119148257e-21
7.75741288e-21
5.955513511e-21
3.651340511e-21
6.716345615e-21
9.754050957e-21
7.713277998e-21
1.985767394e-21
1.281842493e-20
1.342220379e-21
1.023475527e-20
3.244149119e-21
3.206344186e-21
9.529813977e-22
8.341703141e-21
6.402562295e-22
1.099478272e-22
4.108189342e-22
6.726881781e-21
8.907911078e-21
5.762826456e-22
1.334344991e-20
3.522232262e-21
6.415926874e-21
5.082589957e-23
5.246351142e-22
1.452418586e-21
5.983379114e-21
2.807472253e-21
1.155365449e-20
2.311720504e-21
5.070859355e-21
1.428256283e-21
3.610806087e-21
6.04105313e-21
2.892396568e-21
3.592151473e-21
6.887606976e-21
4.260145495e-22
8.97746116e-21
5.981201676e-21
5.777906804e-22
1.535113366e-22
1.797957704e-21
1.468076172e-20
2.409833026e-21
1.364256234e-22
8.719303549e-22
4.605195937e-21
1.596713161e-21
1.618665868e-21
1.751898714e-20
3.130458072e-21
6.894180118e-21
5.956732501e-21
3.049160309e-21
4.128191642e-21
4.698051672e-21
2.771379457e-21
3.879883322e-21
1.067907872e-20
4.718733923e-21
1.554261103e-21
2.448060322e-21
3.774049705e-22
5.437530755e-21
6.148152291e-21
2.60918343e-21
2.537814717e-21
1.009182488e-21
8.673190961e-22
1.604366532e-21
9.551467481e-22
6.013927473e-21
2.187168598e-21
1.782685937e-21
4.724801639e-21
1.27420855e-21
1.415589248e-22
1.678429971e-20
1.316095131e-20
2.74041677e-21
1.694696327e-21
4.753890401e-22
3.480060929e-21
2.475876994e-21
3.797268254e-21
2.772201138e-21
1.283986758e-21
1.78301958e-21
1.826415384e-21
4.796628168e-21
8.334260283e-22
2.199785641e-21
4.301245062e-21
1.283730376e-21
1.144950781e-20
1.372868209e-22
2.295096669e-21
1.042182341e-20
4.550852472e-21
1.761573415e-22
2.901327548e-21
1.946393554e-21
9.172425715e-22
1.569268857e-21
1.822485534e-21
3.973001625e-21
9.28293389e-22
2.964944683e-21
1.308109582e-20
1.273665423e-21
7.259061397e-22
4.41433866e-21
4.917281076e-21
4.074307556e-21
2.328026967e-21
3.064154161e-21
2.510177563e-22
1.268647498e-20
1.814991289e-21
6.476944613e-21
3.014030371e-21
8.790162714e-21
3.626150013e-21
2.964640506e-21
2.920996046e-21
1.098088739e-21
2.138101193e-21
7.405971496e-21
4.52239452e-21
7.240256606e-21
1.259896883e-21
1.428413322e-21
3.679277312e-21
5.98129227e-21
2.305395579e-21
1.264402398e-20
1.03605075e-20
5.552125879e-21
2.507148573e-22
2.173960193e-20
2.820251014e-21
9.690379935e-22
2.096398906e-22
6.140001545e-22
7.829217099e-21
4.740811109e-21
4.023557332e-22
5.956662559e-21
3.908018077e-22
4.451632836e-21
7.443719582e-21
3.321501476e-21
1.410975149e-20
1.865746547e-21
8.011730662e-22
6.315681985e-21
1.158731934e-20
4.390295424e-21
3.899108776e-22
5.983238804e-21
1.86463268e-21
1.870517768e-21
2.43280817e-22
5.447695293e-21
3.724081436e-22
3.136960523e-21
1.428928687e-20
7.07286794e-21
4.855948405e-21
1.927136205e-21
3.392694879e-21
1.068582448e-20
2.145093041e-21
9.995097981e-21
2.294475563e-20
1.482124227e-21
3.697822226e-21
1.910937542e-23
2.623304019e-21
4.417459962e-21
1.46089004e-20
4.815805724e-22
9.418724546e-21
4.526023374e-21
8.305555533e-21
2.154772896e-21
7.57530229e-21
7.287263817e-21
1.482707116e-21
2.574569235e-21
3.121154777e-21
8.313495661e-21
4.93833058e-21
2.059496489e-21
2.797747281e-22
1.600427766e-20
6.239906789e-21
3.327249795e-22
1.065393248e-20
1.917565728e-21
6.052311122e-22
2.567730613e-21
7.974285573e-21
1.848991077e-20
1.029039482e-20
2.875534536e-21
4.588870929e-21
1.289523378e-21
1.423876719e-21
1.048422503e-21
2.075371624e-21
9.283469071e-21
1.393878257e-20
1.121254119e-20
4.829107052e-21
3.956830843e-21
4.537330239e-21
1.181599321e-20
2.785137115e-21
7.162176828e-22
1.623605097e-20
5.451260295e-21
1.980674023e-20
2.914837876e-22
1.337528744e-21
3.051071392e-21
1.095626184e-20
2.140989302e-21
8.392498343e-22
9.29351957e-22
8.855980605e-21
1.139412466e-21
1.140342785e-20
3.14909786e-21
9.843017805e-22
1.584622849e-21
3.48149812e-21
5.986172915e-21
5.852554488e-21
2.776564243e-21
5.72498672e-21
1.125709754e-21
5.953085948e-21
9.954060848e-22
5.04367873e-22
4.278439953e-22
4.358934366e-22
2.679377528e-22
2.386302092e-21
1.577405195e-21
5.621211947e-21
1.689111924e-21
3.164183324e-21
7.817037949e-21
2.70537006e-21
2.151622967e-21
5.04148799e-21
1.256420133e-20
6.196361893e-22
4.914510723e-21
3.762124374e-21
7.967311994e-21
4.613012654e-21
5.407490115e-21
4.070794039e-21
3.451029275e-21
1.111211901e-21
1.326686637e-20
3.693521912e-21
1.817864063e-21
1.723783073e-21
2.064162272e-21
4.079956804e-22
3.21937782e-21
9.030491462e-22
1.370640983e-21
1.255839556e-21
1.374038048e-20
5.48764426e-22
2.188943568e-21
5.760342151e-23
7.003075057e-21
1.129234931e-21
1.192871414e-21
1.132216997e-21
2.089676427e-21
3.653262781e-21
4.686816336e-21
7.974467236e-22
1.763021279e-21
2.068524809e-22
1.008191759e-20
4.337413216e-21
7.300889263e-21
5.445303965e-22
9.269889036e-22
9.060073586e-21
1.763933143e-21
1.289297136e-21
1.050323653e-20
7.531322693e-22
1.876767705e-21
6.447437503e-21
8.217361087e-22
4.426044192e-21
6.989903656e-22
5.849655976e-21
2.493277767e-21
1.617138338e-21
2.732296325e-21
2.097285722e-21
1.08190262e-20
1.16734246e-22
6.897980306e-21
7.329656361e-22
5.044923048e-21
1.378641684e-21
1.174952429e-21
3.771279457e-21
1.373670233e-21
5.194016513e-22
2.093398553e-22
2.939018673e-21
3.45927357e-21
1.889200335e-22
6.311175711e-21
8.444695193e-21
1.307189185e-20
7.979519286e-21
5.932299318e-21
3.102807634e-21
3.263934869e-21
2.452360986e-21
7.56656344e-21
1.047254353e-20
1.071974174e-20
1.3947258e-21
7.677422939e-21
4.291613497e-22
5.376306899e-22
6.630175424e-21
6.831162219e-21
2.576690616e-21
1.46847522e-21
2.271649385e-21
2.630526114e-21
7.079200342e-21
6.322267952e-21
1.410128182e-21
4.30050903e-21
3.217114602e-21
1.996049993e-23
9.028306816e-22
5.196819886e-22
9.936746692e-21
7.667094808e-21
1.949538692e-21
8.248954765e-22
4.339297924e-22
3.112434957e-21
4.086523585e-21
1.644443681e-21
1.116905494e-20
3.285153563e-21
1.135256726e-21
8.062604614e-21
2.171420429e-21
2.597850843e-21
5.792909222e-21
1.750529806e-21
1.698217025e-20
7.470563752e-21
7.416688306e-21
3.350095774e-21
1.047396832e-21
8.678558074e-22
2.355283877e-22
9.071183292e-21
3.244281027e-21
2.510086182e-21
4.250227066e-21
4.455476926e-21
1.42839397e-21
9.830031085e-21
1.377182695e-21
3.821538181e-21
4.509010744e-21
2.275436358e-21
1.675012184e-20
3.23386826e-21
8.217248313e-21
1.016261814e-21
1.805029127e-21
5.79578046e-21
3.123730998e-21
6.784065144e-21
3.008662272e-21
2.853175332e-21
6.376500325e-22
7.619452604e-21
6.118256269e-21
1.015328373e-20
1.58084045e-20
7.31798643e-22
2.265691951e-21
4.161489493e-22
3.202119145e-21
1.209582787e-21
4.208128126e-21
5.45993869e-21
1.196157897e-22
1.182890676e-21
2.13202523e-20
1.2675395e-20
4.736827769e-22
1.589741565e-21
3.810846876e-22
4.475652604e-21
3.686744853e-23
3.072503559e-21
4.158443472e-21
6.032648275e-22
1.759670455e-21
3.296863756e-22
1.00150422e-21
1.374157779e-21
2.375217864e-22
5.885548428e-21
2.597844636e-21
4.249619194e-21
8.121901412e-23
1.141026414e-21
1.083410827e-20
1.315293232e-23
1.453289281e-20
4.85212477e-21
8.253333231e-21
2.994561813e-21
3.308869717e-21
2.390502226e-21
8.032012894e-22
6.577877397e-22
1.404377657e-20
7.717064974e-21
1.321575212e-20
8.104948314e-22
9.106406616e-22
2.809396331e-21
1.074405852e-21
4.644996764e-22
8.504811938e-21
2.446211452e-21
8.057052872e-24
3.407330536e-21
7.328517858e-21
1.969450363e-21
1.619973534e-22
7.022118568e-21
2.650779665e-22
1.285777218e-21
7.579478829e-22
9.222892784e-22
8.498953791e-21
1.235321292e-20
2.198117371e-20
1.67694477e-21
1.838881449e-21
3.110555824e-21
4.912289063e-21
7.580435045e-21
5.412290936e-22
1.289042255e-20
2.183653868e-21
6.876392113e-22
3.794592586e-21
1.878518287e-21
5.687726191e-22
5.091283451e-22
2.505771091e-21
8.194454785e-22
4.25132533e-21
3.849019797e-21
9.438637125e-21
1.111242021e-21
3.100427073e-21
1.94549728e-20
1.168942656e-20
5.406877001e-21
1.276156273e-20
4.931082207e-21
4.22582673e-21
1.723021761e-22
7.209702948e-21
5.489312469e-21
1.121009052e-21
3.167488078e-22
4.569958572e-21
4.411801448e-21
3.154557285e-22
6.600387167e-21
3.858114275e-21
1.187478145e-20
4.573201491e-21
2.087934457e-21
1.825441548e-21
1.818995557e-20
6.508335152e-21
1.087065262e-21
5.565197279e-21
5.863860141e-21
9.693956655e-21
3.208390861e-21
6.156789115e-22
2.477212867e-21
2.387089713e-21
9.540295825e-21
3.239132403e-22
9.706519555e-21
1.793495593e-21
3.718294536e-21
8.003744039e-22
2.674811365e-21
5.446620577e-22
1.121882425e-20
3.841939712e-21
5.557072252e-22
5.759743465e-21
7.782323672e-22
2.05607321e-21
3.192206418e-21
3.727700676e-21
5.07648267e-21
8.786448554e-24
9.639630126e-21
2.31309892e-21
6.593229416e-21
7.381694208e-21
5.414790706e-22
1.205823783e-21
1.967798032e-21
2.934860506e-21
2.127704897e-21
1.012904618e-20
9.61147889e-22
2.769720697e-21
3.110420086e-22
1.068264176e-22
3.079072372e-22
4.282920892e-21
5.234619214e-21
2.183240823e-22
2.15271128e-21
6.166621442e-22
1.028522957e-21
9.226399679e-22
2.075924414e-22
6.038241077e-21
1.107343517e-22
8.502521941e-21
1.439634185e-20
7.30306597e-21
1.040985836e-21
6.915692645e-21
3.784032679e-21
9.364327841e-21
2.262564702e-21
1.045621533e-21
2.619656146e-21
1.191021558e-21
1.826087495e-21
1.737562599e-21
6.60537838e-21
1.111994137e-20
7.911671771e-22
3.391308026e-20
6.598919615e-22
2.654066169e-21
1.541256478e-21
3.974809025e-21
7.036684411e-21
1.247757124e-20
1.390101663e-20
1.042871951e-21
9.940048907e-21
5.321410772e-21
6.927926103e-22
5.447540527e-21
2.887852928e-22
5.435850145e-21
2.457638891e-21
3.289391676e-21
1.328268169e-20
2.425287219e-21
1.847261166e-21
1.076830385e-20
1.14063845e-21
1.32965866e-21
5.489901437e-21
2.613128471e-21
1.427354393e-20
4.630877463e-22
1.362800064e-21
4.79300252e-22
4.009536178e-21
1.975901944e-21
3.634014261e-21
3.5241968e-21
7.220074294e-21
6.305282218e-21
1.252621436e-20
1.364088015e-20
4.461009061e-22
1.126839317e-22
5.00605085e-21
3.265556976e-21
7.49971669e-21
3.327175574e-21
7.500071334e-21
2.425950079e-21
4.193019626e-21
3.49118706e-21
7.40564162e-21
1.408838075e-20
4.310979571e-21
1.397104283e-21
8.56865781e-21
1.413201035e-21
3.421294439e-22
1.831412253e-21
1.741698658e-20
6.543435277e-21
6.546723558e-21
6.625403299e-21
1.551235562e-20
1.000873581e-20
4.651708728e-21
3.369077476e-22
7.998117724e-21
9.091631972e-21
6.563326406e-21
7.989150057e-21
2.086797219e-21
7.384726147e-21
3.863613602e-21
6.290373125e-22
6.026024769e-21
2.587945307e-21
1.731053301e-21
6.681501715e-21
4.179385987e-21
1.483133615e-21
1.692040662e-21
3.75485842e-21
1.734655574e-21
8.017647386e-21
1.221873455e-20
5.581665801e-22
1.504599494e-21
1.86991569e-21
6.704334383e-22
3.283566556e-21
2.849187558e-21
8.599273228e-22
2.384827217e-21
1.732579885e-21
1.621274541e-20
2.89501294e-21
9.799211117e-21
2.658237892e-21
5.030942763e-22
2.462829743e-21
4.013254181e-21
1.193559093e-20
3.238382644e-21
4.139118437e-21
4.641034789e-21
5.964748991e-21
1.691713405e-21
4.003126215e-21
4.122063524e-21
5.062436145e-21
4.123275585e-21
5.829309305e-21
4.958078887e-21
8.829735016e-22
3.977782527e-21
4.383721227e-21
3.51858446e-22
1.619012634e-21
1.923944835e-21
5.264757904e-21
8.92721752e-23
1.141773807e-21
2.92814671e-21
1.378980533e-21
8.246360299e-21
5.286106328e-21
9.213859708e-22
4.207933292e-21
1.210304534e-21
5.057158419e-22
2.090314788e-22
6.091555131e-21
3.064991309e-22
4.605129556e-21
4.940885281e-21
4.693279009e-21
1.404171165e-21
1.095343117e-21
2.461866682e-21
1.608233237e-21
2.310109981e-21
1.096712843e-21
4.839931495e-22
3.444801608e-21
9.513097645e-21
6.645708628e-21
4.706885677e-21
2.514350385e-21
9.991382882e-21
4.523942565e-21
9.271809645e-22
8.961667341e-21
1.316066639e-22
1.781719131e-21
5.343707298e-21
6.301980796e-23
1.0233019e-22
2.100863168e-21
6.042535762e-21
4.745375502e-21
4.243643219e-21
4.876020962e-21
2.270744732e-23
5.62352158e-21
8.834902839e-22
1.383952132e-20
3.930594436e-21
3.957847623e-23
4.899411659e-21
6.427318589e-21
2.124067924e-21
5.362983331e-21
7.919406729e-22
3.26542267e-22
1.08195507e-20
1.965128018e-22
9.030536754e-22
1.47963456e-21
5.342330277e-21
1.024298972e-20
2.653726347e-21
1.90455524e-21
1.43508976e-20
4.065796663e-22
5.828374119e-22
1.092854894e-21
1.353671651e-20
7.721013802e-21
2.730413458e-21
5.800205173e-21
5.215301919e-21
2.88051152e-21
1.357437768e-21
8.376723253e-21
4.946422945e-21
1.334738855e-21
3.816789902e-21
7.940010547e-22
2.246583988e-21
1.517494551e-21
2.751336217e-20
4.508800224e-22
1.675903265e-21
1.587089375e-21
5.600222655e-21
1.516798692e-21
1.218398095e-20
6.336389833e-21
5.597538375e-21
8.796016638e-21
3.845837704e-21
1.734056658e-21
5.061663901e-21
4.023161713e-21
6.560251604e-21
7.184067364e-21
2.423517993e-20
3.215493712e-21
4.24744577e-22
1.32289939e-20
4.821830375e-21
2.16425233e-21
2.265970399e-21
1.897771647e-21
5.124632063e-21
1.462517284e-22
1.565158667e-21
2.553527936e-20
5.723075166e-22
1.202745097e-22
3.735326885e-21
3.986299433e-21
8.192437378e-21
6.383197544e-21
1.892882167e-21
5.61304826e-21
5.156988131e-22
1.700910991e-21
1.909939164e-21
3.085262032e-21
6.214768704e-23
1.307588577e-20
3.193510561e-21
1.47990547e-21
1.725749474e-21
8.720356692e-21
3.610583346e-21
1.536550467e-21
3.82779466e-21
1.216744656e-20
9.552717542e-21
2.004002318e-22
1.398646123e-21
1.46628517e-20
5.770932766e-21
1.253180503e-21
4.111441495e-21
2.45001109e-21
4.135720621e-21
1.850687573e-21
4.889777066e-21
3.58750257e-21
9.289561376e-22
2.151951916e-24
3.755742413e-21
4.929922324e-21
4.068535994e-21
9.554273669e-21
9.079042934e-21
3.392782692e-21
1.012011959e-21
1.372393875e-20
4.066290861e-21
1.627336298e-21
4.65360988e-21
9.599160315e-21
1.943878664e-21
1.16792888e-20
3.506630969e-21
2.536359262e-21
1.698114528e-20
4.249499607e-21
2.790436219e-21
1.203794075e-20
6.361462711e-21
5.36531704e-21
1.435214928e-20
1.663019798e-21
1.624934782e-22
6.690417874e-21
2.929886122e-21
3.359770992e-21
6.209140807e-21
3.916186419e-22
1.450034747e-22
1.943476003e-20
1.575876728e-21
5.426445244e-21
7.934448889e-21
1.094098566e-21
8.704780743e-22
4.080358644e-21
5.021973228e-21
2.832633439e-22
2.401474524e-21
2.450557296e-21
3.055962137e-21
1.204233017e-22
3.934228544e-21
3.105849471e-21
9.325091193e-21
6.084023443e-21
1.781926489e-21
1.566912387e-21
9.070073091e-21
1.654167951e-21
3.17014773e-22
1.075377146e-20
9.574863045e-21
1.377917458e-21
2.106433053e-21
7.885610441e-22
2.911066635e-21
2.125743707e-21
2.16116166e-21
5.522520112e-22
2.715402285e-21
8.865492975e-21
1.659805279e-21
3.380993594e-21
3.59635278e-21
3.425240503e-21
8.056545073e-21
2.307371344e-21
1.306859319e-21
2.596390134e-21
6.839302982e-21
6.27350388e-21
5.566972531e-21
9.247202868e-21
1.062934313e-20
1.787137081e-21
2.771227017e-21
1.584694447e-21
1.83149856e-21
7.857035121e-22
1.360692519e-21
2.712326458e-21
4.613031829e-21
9.894620807e-21
8.280673495e-21
2.093048379e-22
6.011646241e-21
4.947612903e-21
3.883283198e-22
1.448534575e-20
3.447858272e-21
1.238263731e-21
4.734344031e-22
1.089060222e-20
1.039705216e-21
9.840075979e-21
7.621278081e-21
6.435658065e-21
1.441537017e-20
2.025781281e-21
1.33548359e-21
6.598659402e-22
2.364033816e-23
9.605912963e-21
2.291640351e-20
1.593563258e-21
9.126666189e-22
1.653573296e-21
3.263379698e-21
5.281882115e-21
5.52364093e-21
8.310123827e-21
3.504314835e-21
3.614386502e-21
2.215033327e-21
2.093501176e-21
7.594775945e-22
4.941785163e-21
2.104385161e-20
5.509932854e-21
2.226330094e-21
1.825778194e-20
1.811528998e-21
3.747932992e-21
1.428000829e-21
3.522523275e-22
7.318233565e-21
2.20467665e-21
9.375594076e-21
7.960057436e-21
4.561524925e-21
2.698802043e-21
8.830334307e-21
9.979548654e-22
3.860694615e-22
1.840342439e-22
2.582751743e-22
3.937135471e-21
3.358327532e-22
3.117905303e-23
2.828719179e-21
6.345751106e-21
2.116447706e-21
4.588364616e-21
1.210925691e-21
3.190136535e-22
1.457522249e-21
2.062702511e-20
1.172332952e-21
2.450164899e-22
6.900517579e-21
3.976440887e-21
7.224594596e-21
2.611716042e-22
1.537839476e-22
7.583088977e-21
1.493224945e-20
2.249764162e-22
6.321362734e-21
7.612774019e-21
2.276881497e-21
5.2750233e-21
1.866871271e-22
4.832360673e-21
1.486787659e-20
2.057481344e-21
6.846916512e-22
6.596803452e-21
6.100502074e-21
2.154898566e-21
1.992259215e-20
4.507473262e-21
5.255511497e-22
1.549820843e-21
1.206211262e-21
2.258819592e-21
5.770904176e-21
4.149852578e-23
1.418286732e-21
2.288712191e-21
9.654660828e-21
1.107310929e-21
4.066482284e-22
2.052679832e-21
8.505752883e-21
8.021592092e-21
3.863838599e-21
2.171971869e-21
1.172009191e-20
1.576858552e-21
8.594266827e-22
2.656248579e-21
4.714365026e-21
4.658687517e-21
4.317133917e-22
9.835747176e-22
7.456560616e-21
5.675741404e-21
6.04429765e-21
3.872200769e-21
3.341517291e-21
6.806236603e-21
1.763916465e-21
2.843009577e-21
1.086180179e-20
6.802933094e-21
8.782532715e-21
1.04222848e-21
1.175614745e-21
5.103957665e-22
2.60850144e-22
7.683281709e-21
1.138032908e-21
2.127585749e-21
2.468711908e-21
2.187415825e-22
1.247260374e-21
5.017157341e-21
1.55101869e-21
4.084860975e-21
4.413891322e-21
1.463038463e-21
3.018297295e-21
4.566613063e-22
4.351737121e-22
6.653067923e-21
5.321424495e-21
4.295939064e-21
1.372745187e-21
1.519903862e-21
3.29541709e-21
6.982372419e-21
5.68545775e-22
4.925746011e-21
2.512914891e-21
6.535655236e-22
5.823615089e-22
3.471165889e-20
8.128881988e-23
2.817810812e-21
1.714634797e-20
1.976201473e-21
1.227005363e-21
2.512020487e-21
1.363998624e-21
1.893613911e-21
1.046030238e-21
1.663790937e-21
2.742303249e-22
6.520184034e-21
4.511238183e-22
3.013061593e-21
6.011959743e-21
9.335155793e-21
3.758164543e-21
4.789791112e-21
2.126660362e-21
4.34284223e-21
7.550502068e-21
1.592303178e-21
1.239837559e-23
1.908543407e-21
1.966238135e-21
4.00025475e-21
1.155262288e-21
3.449494442e-21
2.176519163e-21
6.931506062e-21
5.770949694e-23
2.488574823e-21
1.352850952e-21
1.886871008e-23
5.094676683e-23
4.449804346e-21
1.561440851e-20
8.102162891e-21
3.225525717e-21
1.937252847e-21
6.935261937e-21
1.488753063e-20
2.385999811e-21
3.342401072e-22
2.864350779e-21
1.195642853e-20
7.656615272e-22
9.423664706e-21
5.512775718e-22
2.587723389e-22
3.507040069e-21
2.085209433e-21
8.56322604e-21
1.203997874e-20
1.819217757e-21
2.80068419e-21
1.683722498e-23
2.100223883e-21
6.535928191e-21
1.382993229e-21
2.154622502e-21
1.064047009e-20
1.521455097e-21
2.411985669e-20
5.300280555e-21
1.097337819e-20
6.804046357e-21
1.221472604e-21
6.02776014e-21
2.497198488e-21
6.428466349e-22
1.281258129e-20
1.95735355e-21
3.107656174e-21
8.913212619e-21
7.869654411e-22
2.484117569e-21
3.081797963e-21
2.891536769e-21
2.130102695e-22
5.513273968e-21
4.241773082e-21
7.129808118e-21
4.781395811e-21
2.670626459e-21
8.562262328e-21
1.241741193e-21
1.003574442e-22
1.414296633e-20
2.590453257e-21
5.533481779e-21
3.078708689e-21
2.483602361e-21
1.549070644e-21
1.025171935e-21
3.482380969e-21
3.054870612e-21
4.902611282e-22
3.272542711e-21
1.670507361e-22
1.481750865e-21
4.863823157e-22
4.928064023e-21
6.772942333e-22
5.614428586e-22
2.01844899e-22
5.222383005e-21
1.037691117e-20
6.059082181e-22
2.815512691e-21
9.994907612e-22
9.014404814e-21
8.012037937e-22
1.813996851e-22
4.206664277e-21
6.104984919e-21
1.914658828e-21
9.112759513e-22
8.188953582e-21
3.690063438e-21
6.627534139e-21
1.772887115e-20
2.361783959e-22
5.168381739e-22
2.771669984e-21
5.86808617e-21
1.524217867e-21
1.68310804e-20
6.358506175e-22
1.130962874e-20
3.782964792e-22
8.347187884e-21
1.840125366e-21
2.714858466e-21
7.731970741e-22
7.946950787e-21
9.056168111e-21
1.017780983e-21
5.814588953e-21
5.224785434e-21
3.303674819e-21
4.717348577e-21
3.166419031e-21
1.284984814e-20
7.199365066e-22
5.910764268e-21
1.215982034e-21
2.255708484e-21
1.085304349e-21
2.471801936e-21
1.230198811e-20
2.549099897e-21
2.481557938e-22
1.667967657e-21
1.050875781e-21
4.14491948e-21
2.682796014e-21
1.442175789e-20
7.075343624e-21
7.503060656e-22
2.390163853e-21
6.152899058e-21
2.923313448e-21
2.912456865e-21
8.532993005e-21
7.059368832e-21
1.121658903e-20
5.950723812e-22
7.302311698e-21
6.427607607e-21
4.102068782e-21
1.4103164e-21
1.644292051e-21
1.892499401e-21
3.009206903e-21
3.267245591e-21
1.783472866e-21
1.303817944e-20
2.096802366e-21
2.396555784e-21
1.139114228e-21
1.894485936e-21
2.011605122e-21
4.615626802e-24
6.591753142e-22
1.889168987e-20
8.358153002e-22
6.049820123e-22
6.067276335e-21
5.051207061e-21
9.928373418e-21
3.241616097e-21
4.626993175e-21
4.632191819e-21
7.038799869e-21
4.275658746e-21
2.920256657e-20
4.693277754e-21
4.53774634e-20
2.750362991e-21
3.213435316e-20
6.079452299e-21
4.224210559e-21
2.924672879e-21
5.468526298e-22
4.235607017e-21
1.112007481e-21
2.464340761e-21
3.584873427e-21
5.284264128e-21
1.593387443e-21
5.774394302e-21
8.195207137e-21
7.90164464e-22
1.20324628e-20
4.963138957e-21
6.276507229e-21
1.534067513e-20
2.140236661e-21
4.723769524e-21
4.403888588e-22
4.379080851e-21
3.894098749e-21
9.872818846e-21
2.04895548e-22
6.399859764e-21
1.536434926e-20
4.150508369e-22
1.044888454e-21
3.15955615e-21
3.943768979e-21
1.323595315e-20
5.39709963e-21
1.87805466e-20
7.765422027e-21
2.006181388e-21
1.234729232e-20
5.907609757e-21
1.02233697e-20
6.251720531e-21
3.619169237e-22
3.436680738e-21
9.939628404e-22
3.386026611e-21
1.044669456e-21
1.525301985e-21
1.591851679e-21
1.785343837e-20
5.77762628e-21
7.799390895e-22
1.875788476e-21
8.724727966e-21
3.395005884e-21
1.088125217e-21
2.730347278e-21
3.681836878e-21
1.009204731e-21
7.73700744e-21
4.386814185e-21
1.607175806e-21
4.439448357e-21
4.145793249e-21
1.796731699e-21
2.792736409e-21
4.015919636e-21
2.97665558e-21
1.059571122e-20
4.506271239e-21
2.629404341e-21
1.318572447e-21
1.303890496e-22
1.941906994e-21
1.016078906e-20
2.585519756e-21
1.823611345e-22
5.540588275e-22
8.49498433e-22
2.07846405e-21
7.625251301e-21
9.67279401e-21
1.825050567e-21
2.440605472e-21
2.262719433e-21
4.452149544e-22
2.957901183e-21
1.841991577e-21
1.446041349e-21
4.531332559e-21
2.67716452e-21
3.069608809e-21
5.906053426e-21
1.851354842e-21
4.916769654e-21
6.564308431e-21
4.998973342e-22
3.71375877e-21
8.120956289e-21
3.47080476e-21
2.086827572e-21
5.723554496e-21
5.867625514e-22
5.072331054e-21
2.671641808e-21
5.777317736e-21
1.745148386e-21
8.03983103e-22
1.081473155e-20
8.22227391e-21
6.138149511e-21
6.274852427e-21
5.200577863e-21
2.606902438e-21
3.751900797e-22
1.448691369e-20
2.759531324e-21
5.242266794e-22
5.756281924e-21
3.851997189e-21
3.276732617e-21
1.77581295e-20
1.83900387e-20
1.327128291e-21
3.348008444e-21
6.642488619e-21
1.974635539e-22
6.645756429e-21
3.605132461e-21
2.960357844e-21
1.527751968e-21
3.399314986e-21
4.514786701e-21
1.334414006e-20
4.804222754e-22
3.313685706e-21
3.991087119e-21
4.164120236e-21
3.78163232e-21
8.231769179e-22
1.877624842e-21
2.102744094e-22
6.528220545e-21
3.046185466e-21
5.306408265e-21
5.926940555e-21
4.604848513e-22
4.113612685e-21
2.201246259e-21
5.45616101e-21
4.908152962e-21
6.977751959e-21
3.3840126e-21
1.052693341e-21
9.237073326e-21
6.04577825e-21
5.519641575e-21
1.273391915e-21
7.506233248e-22
2.341869689e-21
7.104348072e-22
1.42356167e-20
5.554754059e-21
1.560274465e-20
4.009825353e-21
2.641816622e-21
2.382620094e-21
9.892927184e-22
7.822657995e-22
3.133054612e-22
8.931201825e-22
2.04414404e-20
4.591909715e-21
5.240703684e-21
8.35899597e-22
1.530277063e-21
6.494076267e-21
6.265651317e-21
3.418826465e-23
5.015383329e-22
1.991728969e-20
2.280788231e-21
2.665622832e-21
5.130385592e-22
1.564870217e-21
7.509461561e-21
2.030107966e-21
1.054875829e-20
4.892246002e-21
6.111861783e-22
7.148111655e-21
2.386474096e-21
2.223082472e-22
1.340694129e-20
3.259853755e-21
1.770475665e-22
3.004869465e-21
4.279974062e-21
5.649291401e-21
2.103959274e-22
2.505176295e-22
1.548943403e-21
2.623776753e-21
1.141624995e-20
2.188121464e-21
2.92811404e-23
4.438597857e-21
6.345486387e-22
5.007529214e-21
7.895197068e-21
2.769109473e-21
1.340001112e-21
2.293836565e-21
1.308311189e-20
2.556511979e-21
7.090417862e-21
1.663903703e-21
2.714819711e-21
6.218026769e-21
8.751336779e-22
8.539902875e-23
3.652851962e-22
5.921154068e-21
2.726917443e-21
4.694031401e-21
2.207084924e-21
6.482559375e-21
1.113099443e-20
3.389804622e-21
1.300131662e-21
4.724594417e-22
1.423395999e-20
5.719697848e-21
1.452085237e-21
9.50323067e-22
6.628151799e-21
6.476107723e-21
8.488239818e-22
7.550393684e-21
1.605925835e-21
3.452244293e-21
3.522584889e-21
1.349303383e-21
1.684845287e-21
1.132906645e-21
1.254722668e-20
4.538132465e-22
7.175414997e-21
1.744309325e-21
4.118889613e-21
3.24401812e-21
5.177615352e-21
1.112718074e-21
2.182273305e-21
1.769917347e-21
1.139962674e-21
6.08438561e-21
4.367224344e-22
6.285776946e-23
4.856591422e-21
1.258989713e-21
5.50795367e-21
3.50065561e-21
5.064299162e-21
7.960041932e-22
5.0275526e-23
5.19583194e-21
7.039934253e-21
4.306114998e-21
5.561784811e-21
1.546866971e-20
1.307138159e-21
1.772149313e-21
3.207091231e-21
9.75534252e-22
1.765296339e-21
6.448279546e-22
2.84048525e-21
7.195203037e-21
5.710691551e-21
1.476832861e-21
1.155919817e-21
5.809936442e-21
1.165604673e-20
3.195454156e-21
1.040354401e-22