/*--------------------------------*- C++ -*----------------------------------*\
  =========                 |
  \\      /  F ield         | OpenFOAM: The Open Source CFD Toolbox
   \\    /   O peration     | Website:  https://openfoam.org
    \\  /    A nd           | Version:  7
     \\/     M anipulation  |
\*---------------------------------------------------------------------------*/
FoamFile
{
    version     2.0;
    format      ascii;
    class       labelField;
    location    "0.003/lagrangian/dsmc";
    object      origId;
}
// * * * * * * * * * * * * * * * * * * * * * * * * * * * * * * * * * * * * * //


4622
(
7125
7611
8170
1605
8528
8803
9044
5552
9818
7375
10191
10489
8162
10754
10828
6625
8628
11409
11438
9975
5545
9084
11515
11538
7392
6146
11695
7590
11853
12014
12041
12094
6015
12209
12279
12448
12477
8659
6326
12694
12722
12737
4533
9319
12779
12826
12891
12992
10818
6101
10101
8626
13391
5117
5930
8204
12149
13688
13724
9419
5865
5596
13889
13923
12427
14022
14048
12767
14201
9154
14382
7944
14455
7345
11175
14483
6887
14543
6196
14573
14631
14662
6791
470
14709
9624
14268
14746
6158
14859
6336
14891
6063
2329
9525
6500
12232
10137
15199
15209
15281
15286
612
15339
6249
15439
15475
14058
15506
15526
8089
15577
15665
13483
10854
8215
15772
5432
15799
15810
5871
9339
15849
57
8610
9144
5060
16033
259
6794
16122
16145
16161
16192
16199
16209
6289
7159
16220
16235
16243
16260
7401
13779
16275
16290
16297
1777
15335
11614
16349
16363
16372
8774
16417
16459
2219
16473
7051
501
16538
16540
16581
16583
16595
16605
6268
13690
16626
12724
16718
16728
9970
6593
10556
16826
16827
16863
16872
8228
8103
16925
16940
6907
16943
11154
15471
16980
16992
17017
17024
7028
17080
17092
17094
17098
8687
17132
6703
17147
17149
9390
7715
15224
8323
12115
17197
6909
6211
17247
9254
17273
17277
13851
17310
1570
6715
17379
17380
17396
17402
17415
17457
17460
11532
17551
5921
6882
6794
17560
17566
17575
9747
17584
6283
8197
7062
6640
7792
17697
5631
9502
17717
17739
7087
10456
7098
17823
9508
8478
16007
6817
17870
11462
17893
17895
17906
17911
5974
17921
17929
6828
10902
6072
10584
728
17995
18036
8112
10347
14536
18059
18073
14115
16143
492
14811
5983
7065
18153
7171
18179
18180
6868
17996
18260
18272
6770
18290
18344
10591
18389
8349
7327
5392
18479
13114
6377
18495
10687
14965
18530
18535
18548
18557
18561
18573
18577
8350
18592
7253
18596
18626
18643
18670
18678
15896
18694
12882
7721
18725
18735
4244
12628
18765
7259
7052
18776
6016
18792
8373
18813
6862
18824
18835
5810
18856
18871
18888
4873
18908
18923
5056
11225
5766
18954
7017
11120
18974
18984
13425
9821
18991
19000
19001
7892
16954
19008
12026
19042
19045
127
19064
12455
8032
7742
10189
19098
19118
8433
19130
19132
7513
19161
19162
4286
12864
102
17976
19204
19213
5549
12266
19221
19224
19229
7327
5000
19269
19292
19294
19329
8336
15584
19362
7047
6592
6915
19315
177
15364
19386
19392
19314
19419
19424
757
7111
19432
19433
19434
19450
10067
7502
19476
13027
19490
6581
18567
19504
19534
9598
7473
16396
19550
8716
9723
8725
19557
9931
9028
19597
19603
19611
14294
19618
19628
6511
19640
19641
8006
19647
19654
16868
19668
6349
8753
8362
19682
19693
5422
7426
19721
19744
19745
15732
19754
19756
19758
19762
19764
19792
9320
19809
19811
19831
5516
944
8294
17927
18933
19843
8992
5418
16525
16999
15174
19879
19882
19883
19893
7320
19900
10560
14152
8203
7067
8961
9332
6065
19024
6719
19965
19980
19997
20002
14778
20018
20029
7229
7831
12031
15654
20039
20042
8538
5301
20052
20061
20065
20082
6767
12082
6767
7208
12305
8010
13438
9122
16562
18784
6469
7172
10032
20159
12834
17876
20178
20183
20194
20200
8859
20211
20219
20222
20238
20253
20259
20267
20276
20293
14804
14682
20300
20310
20315
20316
16556
20331
20336
9932
20341
20351
7399
20359
20360
6660
20371
20373
20374
7582
14061
16615
19643
20378
20383
7578
20399
20410
20416
20435
20447
20448
20452
19008
20462
20472
20480
20487
20505
6919
7652
12499
20514
20519
20527
20528
6455
20537
20541
20545
7669
2158
20552
20558
20561
6905
10830
15344
20220
20564
20565
7609
45
20589
20591
8897
20243
20595
20603
20604
20617
2427
20653
7023
20666
10851
20198
20680
20700
10742
20712
14862
9568
20714
20730
5934
19255
20736
20744
20750
7312
20760
20761
16793
7515
20692
14092
16912
20769
20776
6330
20307
20781
977
20804
20805
9138
11192
19766
20814
20818
20828
20842
20843
9365
14989
5788
20873
9583
14833
13699
14385
20896
5949
20902
20904
20905
20911
6055
6980
20935
10182
20950
13053
20958
20960
20967
6320
20968
20979
20988
20990
7268
21004
21009
7128
21020
6431
21036
21038
8083
11549
21045
21047
11300
8611
5664
10492
6585
21066
14677
13805
21098
21103
21112
21113
21121
21123
21126
8080
7475
1543
20988
21141
7105
6790
11195
21164
21180
21190
11559
13109
6717
7636
11763
21209
10522
18485
7851
699
6474
1137
19149
7772
21236
7591
7075
8744
19456
21244
21246
7612
19604
21253
21255
21260
15742
7771
21265
21267
21268
12193
21283
21290
6600
10729
18728
21315
21329
12381
6381
16848
16106
21339
21344
21345
21351
6555
21357
21367
21370
932
7813
21378
6437
21404
6499
15143
5683
18408
21413
21414
8679
7527
7799
7861
21422
21424
21425
21427
21429
19350
17793
21446
18428
15730
7987
21455
21462
21463
21466
21468
7342
21476
21482
7814
21486
6539
1336
10587
20110
21493
8817
615
21510
8058
18863
20469
6536
21538
21539
21547
21556
21562
21577
12531
21054
21589
21602
21603
10528
17162
15576
21609
21610
21611
21616
6623
17530
6228
7929
6483
1373
7030
21660
5728
6308
6825
21677
21681
14814
7732
13749
19979
9211
6989
6049
21704
21719
7760
21727
483
18360
21736
21739
21749
21758
7256
6256
11889
21764
21766
21769
21779
21781
21796
15078
6562
6374
21814
21818
10704
18727
21824
21834
21835
21841
21843
21851
21863
6656
979
21871
21878
21879
21881
21886
9506
12320
21899
20812
18174
16212
21902
21907
17620
21915
6902
21927
21931
6382
21937
21943
21946
21948
21951
21961
21963
21964
21965
12156
7647
21966
21974
21980
9384
21991
21996
21997
22003
22004
7054
9557
22017
22021
22022
22030
22031
22033
22034
7269
22038
22041
2017
7267
19881
22064
22065
5155
12011
18662
15806
19061
6898
22072
6974
7677
22090
22093
12222
12349
20470
1585
22105
22106
22125
12669
22129
22131
22136
22137
22138
6759
6992
5001
13657
11471
9567
22150
22153
22156
9040
6986
22161
22162
7204
22166
22172
22174
7266
8028
22009
22181
1771
9489
22200
22203
22204
22207
22209
22212
16229
12572
6967
4406
6654
16155
7525
22234
22235
9730
11399
7798
7230
22249
22251
22252
6453
5654
6474
22258
22262
22264
22265
22266
13386
2335
22281
6052
415
22294
5022
7489
22299
22303
22306
22309
22322
22323
22326
6494
15023
9252
22334
7121
7284
21117
22338
7401
9379
17931
15233
8708
22347
22353
22356
22359
22366
22367
6037
22388
22389
22393
7584
19443
7083
22397
3496
8546
22405
12084
11358
21464
22430
12160
10136
7534
22439
22443
22446
22449
22453
6700
22466
11592
16084
17869
22475
22476
22485
8339
6999
17422
22502
6174
8629
22512
22517
22518
6484
7443
10255
13865
22535
22538
22544
22548
22549
10459
22554
22562
1976
22579
8138
17862
17076
18811
15661
22585
22595
19489
22597
22599
22600
22603
5520
17344
5036
22624
12761
17405
22636
19820
5043
22638
22640
22641
7114
22647
22650
22654
22657
5544
8051
22664
22673
22677
22680
22681
10215
6417
22692
22694
14817
11678
7122
22703
22706
22708
22711
12318
9491
9824
12655
6929
22720
22733
8291
22745
22746
22749
22751
22754
22755
22759
22764
22771
8358
6454
22777
7605
22785
22795
1455
7648
22800
22806
22812
22813
22816
12540
8102
17867
22679
22700
22821
22825
5308
21312
22829
22831
22832
9847
6708
4398
6225
6290
7857
17235
11339
22836
22840
22841
22845
22847
22849
14353
11718
19639
21542
22853
22854
22867
18896
7895
17570
4896
22876
22882
11643
22895
22896
22897
12663
10496
7504
10023
22902
22903
22906
22917
22925
22926
22931
1727
21981
13302
22597
22940
22944
22947
7675
16415
15852
7434
21187
7898
7488
5105
10391
18691
22965
22966
11089
16343
11876
22977
22978
22981
22982
22983
8481
5217
19784
22996
23001
7921
22912
23008
7994
8048
18942
21967
7908
23029
23032
23036
23038
23044
12248
7558
6595
1331
23047
23054
959
13702
13088
23065
23069
23072
23073
7695
5627
9724
5696
15578
23089
23090
23091
23093
23095
7940
23105
23108
23109
23113
23114
986
23130
23132
4901
5591
15765
9429
23135
23136
23143
23145
8074
6729
22749
23150
23159
23163
23164
23167
23168
23171
14472
21848
7423
18461
20895
23185
6497
20194
5524
23197
6240
15051
19484
5294
18405
23201
23202
5128
14684
21802
23212
23214
23215
23216
23217
13345
20234
13924
8142
23224
23230
23232
23237
23239
15087
7171
16325
19466
14410
22471
23129
23250
23252
16807
7970
18346
7271
23258
7239
6142
23266
23267
23269
23276
23277
13620
6021
7521
16133
21184
23285
23287
23293
8063
14469
6034
19790
7522
16698
11942
2355
15487
23300
7161
15413
7359
11274
7794
23309
23310
23311
23315
23316
23317
8631
23319
23320
23326
23331
23333
23343
23351
23352
23353
6086
6868
13869
23366
23377
8309
21032
23382
23385
23386
23392
7637
18802
23403
23404
23408
23414
23417
23420
6287
17010
23430
23434
18050
7028
23441
23444
23445
8336
23449
23452
5904
17578
23461
23465
23469
2799
23472
23481
23483
23486
10458
23493
23496
9360
23503
10470
12513
6394
10104
7868
10959
23506
23508
23511
8081
2166
23517
23520
23522
6354
10552
16373
23528
23536
7231
12846
19465
7632
13883
20894
23541
23542
7988
20139
10195
23552
23554
23560
23561
23566
8964
13788
23574
23575
23588
23589
23591
4874
7284
23597
23598
23600
23607
23608
6348
9350
23610
23611
23613
23616
7412
7316
10196
5655
12828
10484
23618
23623
23629
23633
7922
19785
23641
23644
23654
7077
11253
21801
9881
23660
23663
23664
23668
23670
23672
11066
8618
8437
23456
23369
23678
23679
23681
23686
10006
7862
23692
23693
23696
23705
23708
23709
9431
5325
7204
23713
23718
23723
13593
15896
7167
23699
23727
23728
23729
23731
23735
23740
23741
10885
16063
8230
18576
23745
23747
23748
23749
5732
7727
23753
23754
23755
14178
8270
5329
23249
23766
23767
23770
23773
23776
5937
23782
23792
11296
10456
558
13645
16950
23793
23803
23805
23806
23807
17333
17964
8971
23812
23819
23820
23821
1655
12907
6945
23828
23834
23836
23837
23838
23839
23840
5736
5228
7012
23845
23851
23853
23854
23855
23856
23857
8231
16369
17117
7859
23859
23860
23862
23863
8200
20297
10563
23871
23872
11996
11068
22629
8341
23874
23883
9560
14005
23895
23898
23899
23904
23905
7839
9236
23161
23912
23915
23920
16398
22684
23921
23927
23928
23929
6246
8020
4617
23936
23937
23938
23941
6684
7881
23947
23948
23949
23950
8248
23959
23960
23961
23967
8555
20268
6600
23970
23971
23982
7562
8000
16226
694
17490
10419
23986
23989
23990
23999
24002
24003
10455
8022
13779
7527
24005
24006
24008
24010
24015
6727
22697
3082
23989
24025
24030
8222
8264
8510
24035
24036
24037
24039
24045
24048
8267
24051
24057
24061
24063
24066
24068
18288
10189
1181
24072
24073
24076
24077
24090
24091
6456
13212
19143
20125
13090
15403
24094
24095
24101
24104
24107
18307
13748
7637
18780
19915
24109
24113
24114
24115
11385
5715
5245
18711
22185
24119
24122
24125
6926
19988
21417
24131
24133
24137
24138
8339
12868
24142
24144
24147
24148
24153
24155
24158
24159
6376
7374
24164
24168
5272
6772
8430
21094
24170
24175
10469
5975
11136
11443
7095
17720
23683
24178
24180
24183
24185
24186
5709
9411
15762
5414
14452
24188
24190
12963
6710
24196
24197
24200
24202
24203
24205
24207
11337
14739
2387
24210
24217
8993
6006
17040
6837
24223
24233
24239
24242
6330
9052
11051
19330
19379
22652
7809
23603
21830
24245
24249
24250
24252
24255
24256
24257
24258
4862
24271
24273
24274
24275
24276
7758
8510
18722
21831
23355
118
24278
24282
24283
24288
15042
12739
12549
7366
24290
24291
24293
24298
24300
24303
24304
24305
1065
14103
14154
18125
24308
24314
24320
24321
24322
24323
24324
24329
24331
24333
24334
6504
13613
14819
23028
24339
24341
24348
24349
24350
24351
6501
13016
7161
20468
24359
24360
7604
13488
23576
24363
6241
18340
23341
15598
21906
24370
24373
24374
24376
24377
24378
24379
24381
7118
2333
13179
14434
15289
16613
21657
24389
24391
24396
24397
24398
11422
10519
9767
24403
7680
16543
17667
5172
9030
10448
6328
24422
7078
14534
19992
5450
14581
14753
18523
10407
11040
24428
24435
24437
13674
6667
11119
15789
10180
12239
24439
24441
24446
24447
24451
5783
15637
9835
24452
24457
15457
7883
18356
24461
24464
24467
24468
24469
24470
24471
24475
11022
14775
8938
21629
17159
8261
24482
24489
24491
24493
24495
24497
24499
7849
6229
24501
24508
24509
239
15402
15326
24516
24520
24521
24522
24525
24526
24529
24531
257
11668
7949
24533
24538
24539
24540
24542
7810
14123
24545
24546
24548
24549
24550
24552
5969
8946
24555
24558
24559
24561
24562
24566
24570
24571
5230
645
20858
11367
24577
24578
24580
24581
24582
24584
24585
11823
8207
20921
16985
12835
24587
24592
24594
10809
9674
23953
24596
24599
24601
24604
24606
24607
13791
23198
21481
24609
24614
24617
24618
24621
24623
6433
8551
10539
16784
7744
24632
24634
24635
24636
14089
23031
24500
23209
6743
19309
10686
24637
24639
24640
24644
24646
13798
1952
16621
8307
24651
24660
24661
24663
8682
8486
5921
7493
23228
24667
24671
24674
24676
24677
24678
6924
7451
13230
21082
16122
16208
20425
24690
24693
24695
24696
24698
13993
8641
17220
9612
24707
24710
24712
6991
24715
24716
24719
24720
24723
24726
818
7786
16014
16987
16369
266
23109
24729
24734
24735
24737
24742
24743
24744
24747
24748
24749
24750
24751
24752
24753
24754
24757
16483
2593
9310
23619
12623
24769
24772
24773
24775
11624
14158
7664
9354
8721
12380
6082
11088
24781
24783
24784
24785
7936
20155
24132
24786
24790
24791
24792
24793
5810
9924
21197
24141
13036
8076
24419
24798
24799
24801
12111
8173
5808
19949
6723
12888
24006
24684
24808
24810
24811
24816
6667
8537
8361
21376
7178
21707
24819
24827
24828
2580
6478
14128
8655
20648
22244
24834
24835
24837
24838
21341
24839
24842
24846
8282
4817
4833
8291
19107
24096
24852
24854
24855
24856
24857
24858
24859
24860
24861
24862
24863
24865
6821
24801
24869
24870
24872
24873
9968
6764
9765
23697
24058
24876
6905
10767
11311
6932
5167
8990
22037
7002
7099
9019
24883
24889
24891
24894
24896
24897
858
4940
9828
6369
1235
532
18037
22053
12062
23487
21350
24904
24905
24906
24910
24913
24915
24916
24917
24919
24920
24921
24923
16169
16003
8736
14329
16196
24930
24931
24933
24935
24936
24939
24940
24944
24945
7355
12938
20433
8419
22596
12221
21089
24946
24947
24950
24955
24956
24957
24958
24959
24960
24961
24962
24963
24964
7631
18339
24965
24968
24972
24973
24975
24977
24978
13082
18582
1716
8424
17130
21506
6041
23726
10377
24985
24986
24987
24988
24991
24992
24994
24996
24998
24999
25000
5884
7211
7893
8330
8179
14918
8218
8343
21818
7429
25003
25010
25011
25012
25013
25015
25017
25018
7314
8358
5514
12502
18021
2949
21257
25022
25024
25025
25026
25030
25031
25033
6384
4373
4930
7583
15057
14070
20869
12010
25034
25036
25038
25040
16009
7705
19083
7357
22085
23380
21209
25047
25048
25052
11131
8697
17651
25056
25057
25059
25062
8050
8062
17232
21011
15172
3143
25068
25069
25073
25074
25079
8115
6294
7817
12346
8708
11281
8192
13760
23774
17538
25088
25090
25091
6312
8072
8313
8382
14324
8525
16239
25092
25094
25097
25098
25099
25100
25101
25102
25104
20404
18675
14825
25108
25112
25113
11067
12699
6423
12799
23189
25119
25120
25121
25122
8343
7364
19068
22952
25124
25125
25126
25127
25128
17053
16245
6769
25130
25132
25136
25140
25144
25145
154
22274
12509
25147
25151
25154
25156
25158
25159
25160
25161
25165
13823
19131
22566
25171
25172
25173
25175
25178
25179
8163
7530
9119
24188
7009
25188
25192
25193
25196
25197
25198
16380
9545
16438
194
18335
9018
9565
8298
8588
20913
24479
15236
25201
25202
25205
25206
25208
25209
25210
25211
25212
25214
25217
17106
7685
7103
25221
25226
25227
25228
25229
25230
25231
25236
16004
13349
10808
22399
13154
24661
25242
25243
25245
25249
25250
25251
25252
8647
161
10433
6016
23211
2130
24911
25258
25261
25262
25264
5513
7573
17199
9758
25267
25270
25271
25272
7026
7606
6398
9869
13745
20240
8488
18871
10400
7477
25273
25275
25276
25277
25278
25279
25280
25281
25286
25289
25292
16749
7486
18040
22789
25119
25296
25297
25298
25299
25300
25302
5853
8905
5055
11130
13661
13957
25306
25308
25309
25310
25313
25315
25318
25319
16035
12571
25323
25324
25326
25327
9240
8160
21531
8363
7808
5270
23208
1597
9939
11939
25329
25332
25333
25337
25340
570
7948
7405
22364
5094
9085
25348
25352
25353
25360
25362
25365
6710
21813
11060
11090
15767
25369
25372
25373
25375
25377
25378
22436
14839
23781
6821
11525
25380
25381
25382
25384
25385
25386
19729
6118
18188
5875
24422
25389
25392
25395
25396
10080
6582
8515
24627
8377
12130
23067
10662
8157
25401
25402
25403
25404
25406
25408
25412
25415
25416
25417
25420
25421
8611
8779
8759
10217
22406
23244
25431
25432
25434
25435
10829
6889
8397
8436
21446
5480
8445
22398
22182
17962
6169
5957
25439
25441
25447
25450
20929
8847
6940
20549
16497
22729
25455
25456
25458
25459
25462
6202
8223
6327
8819
24628
8252
14409
12678
25009
25469
25471
25473
25474
25476
25480
1602
25484
25486
25487
25489
10200
8043
10311
8478
22736
8599
17817
16633
10471
25491
25492
25493
17292
22965
25497
25498
25502
25503
25504
25505
25507
14600
20135
8848
19708
25512
25513
25515
25522
25524
25526
25529
18857
6607
6419
10735
12166
18810
14495
25055
25531
25537
25538
25542
6686
14529
8178
10904
10446
23578
24253
18659
23645
24012
25544
25546
25547
13739
6541
8277
8287
957
20594
8478
2566
8321
25548
25549
25553
25554
25555
8325
20833
7258
22656
20387
18320
5158
7925
17559
25557
25561
25562
25563
25564
25567
25569
25570
25571
25572
25573
5076
12183
10298
8671
24402
14083
5751
8778
9358
25583
25584
25586
25588
25591
25593
25595
25598
25599
25601
25602
25603
25604
25606
5769
6198
20571
20945
25237
25612
25616
25617
25619
25620
25621
25626
25627
25628
25629
25630
7897
6644
8920
23776
25532
25632
25633
25634
25636
25637
25638
25639
25640
25641
6615
20957
21421
22968
19820
16075
21402
18455
25643
25644
25647
25651
25652
7157
12923
8310
11285
19862
25001
20189
8895
24620
25655
25656
25657
25658
25659
25660
25661
25663
11349
6622
13116
7540
18877
6212
8489
15262
9687
15043
18650
9694
19194
6751
25674
25676
25679
25681
25683
25686
25687
6193
18814
7426
25690
25691
25692
25696
25698
25699
8533
17700
8868
6480
13283
23548
24657
21120
25703
25705
25706
25708
25709
25710
25711
25712
25713
25714
25715
25716
13518
7585
9439
7842
20246
24738
6404
25717
25718
25719
25720
25721
25722
25725
10732
7499
8326
8337
9197
25663
25729
25732
25733
25735
8595
8535
9515
7880
18825
13031
25096
25740
5801
6563
7237
22727
25744
25745
25746
25748
25749
25752
25753
25757
25758
283
8016
13959
8414
8397
24140
25761
25762
25765
25766
25768
25769
25770
25771
25772
25773
25774
25775
19134
5228
8662
9227
25776
25777
25778
25779
25780
25781
25782
25784
25785
25786
25787
8603
8819
8957
15843
9417
7982
8584
7443
17674
25441
25789
25790
25791
25793
1746
16506
19855
21056
25795
6558
13782
6539
6764
6886
9212
20357
25799
25800
25805
25806
25808
25809
25810
25813
25814
9382
6437
10159
8194
7023
23759
21978
23349
25819
25822
25825
25828
25829
25832
25833
25835
25836
25837
10669
8710
21498
8883
14617
22089
9196
23924
25537
25839
25841
25842
25843
25844
25845
25850
25852
25854
25855
25856
25857
25858
25859
25861
25863
7476
8729
23283
21505
6975
20422
20361
25865
25866
25867
25868
25869
25870
25871
25873
25875
6180
19704
19950
8703
18043
8426
8970
25488
25878
25879
25880
25881
25882
25883
25886
25888
25889
25892
25895
16729
8735
6928
10848
17734
14364
25896
25897
25899
25900
25901
25905
25906
25907
25908
25909
25911
25912
25914
25915
25916
10261
9968
9671
8976
7619
25918
25919
25920
25921
25923
25926
25928
25929
6131
7474
6857
8393
19013
7868
14614
16758
6991
24577
5618
4937
11471
1166
12737
25930
25932
25936
25938
25939
16501
8640
21588
25941
25942
25943
25944
25946
25947
25950
25951
25952
25953
25954
25957
25958
25959
25960
843
668
18136
17070
8756
19689
8082
19656
21514
9020
16063
25961
25962
25963
25964
25966
25967
25968
25970
25972
7370
13936
18496
22039
23017
15011
13492
20744
25973
25974
25975
25977
25980
10915
19773
10317
13925
20440
20150
6986
25697
25982
25984
25985
25986
10467
16791
14163
8889
21705
8506
7262
7239
21131
24080
14982
25989
25990
25993
25994
25995
25996
25998
6512
18490
6287
21630
8946
6239
11200
469
7700
26002
26003
26004
26005
26007
26010
26011
26012
26013
26014
26015
26018
26019
26020
26021
26022
26023
7892
5659
12700
15533
8068
17093
7901
19268
20174
26024
26026
26028
26029
26031
26032
26034
26036
26037
26038
10416
10082
20131
6629
8720
16544
16921
20561
12498
25321
26040
26041
26042
26044
26045
26046
9005
6450
6211
8933
16993
17305
25129
7734
2936
19291
18761
18706
26047
26048
26049
26050
26051
26052
26053
26055
26056
10718
7269
14832
15483
8960
6163
25208
9250
26062
26063
26066
26067
26068
26069
26071
26072
21044
14882
9081
13904
7883
16900
13640
18390
25276
25573
8801
26074
26075
26076
26077
26078
26079
26080
26082
26083
26084
26086
26087
26089
26090
26091
16296
10261
8062
5314
7695
20584
16224
8293
15608
26093
26094
26095
26096
26098
26100
26101
26102
7546
11516
21320
25255
7837
7057
10625
26105
26106
26107
26109
26110
26111
26112
26115
26116
26117
26119
26121
18993
6220
19862
7209
7306
25200
14902
8914
21724
23321
20316
650
26123
26124
26127
26128
26129
26130
26132
26133
26134
26135
11189
6982
5999
3282
22195
9000
22871
17830
26000
13410
23317
23761
23088
26137
26138
26139
26142
26143
26144
26145
26146
26147
26148
6085
8355
7093
9397
11290
21815
26150
26151
26152
26154
26156
26157
26158
26159
26160
23422
6217
11886
20021
10592
26162
26163
26164
26165
26166
7752
18452
6565
9015
18328
11179
26167
26169
26171
26172
26173
26174
26175
26176
26177
26178
26180
26181
26182
26183
16555
13428
13201
13846
20158
16289
25355
8413
26185
26186
26187
26188
26190
26194
26195
26196
26197
26198
26199
26200
26201
26202
26203
26206
26208
26209
26210
6898
12377
11652
8692
8791
21175
20788
22248
17574
26212
26213
26214
26215
26216
26217
26219
26220
26221
26223
9732
8635
8128
20279
14651
9554
26224
26226
26227
26228
26229
7083
21205
8864
6004
9199
10253
19401
23223
5159
14529
26232
26233
26234
26235
26238
26239
26240
26241
7324
10109
19912
13761
17141
358
7835
10314
23763
9053
6916
21815
26242
26243
26244
26246
26248
26249
26250
26251
26252
26253
26254
26257
26258
26261
8650
6424
13970
6578
22909
10136
20679
19206
20882
22601
12391
6982
13130
18034
26264
26265
26266
26268
26270
26271
26272
26273
26274
26275
26276
21134
11975
8259
25428
25020
26277
26278
26280
26281
26282
26283
26284
26285
26286
26287
26288
26289
26291
26292
26293
26294
26295
26296
26298
26299
13244
19766
9586
9103
16306
14127
15104
22864
609
19954
26300
26304
26305
26306
26307
26308
26309
26310
26311
26313
26314
26315
26316
26317
9400
11821
8806
20924
22557
25486
26318
26320
26321
26322
26323
26324
26325
26326
26328
26329
26330
26331
26332
26333
26334
26335
9740
12338
10056
10090
21420
25426
6278
6162
1248
12113
6948
5197
8050
25947
26336
26337
26338
26339
26342
26343
866
7478
6779
11601
6454
8716
20609
16241
7577
13399
8541
11218
6843
15595
8547
23262
24270
26060
26346
26347
26348
26349
26350
26351
26352
26353
8089
8296
14632
6301
10391
17660
12725
6900
25530
13322
1975
9087
24430
25984
26358
26359
26361
26362
26364
26365
26366
26367
26368
26369
8444
10602
21880
17032
10982
15830
24641
9076
14898
13660
25377
8913
26372
26373
26376
26377
26378
26379
26380
26381
26382
26383
9874
15687
22402
17640
19435
8208
23342
16890
13002
20512
17797
13789
25036
26385
26386
26387
26388
26389
26390
26391
26395
26396
26397
26398
26399
26401
9322
12107
7947
19938
1829
12461
9585
26403
26404
26406
26407
26408
26409
5249
13371
449
5947
8932
8957
15119
25418
25777
26410
26411
26412
26413
26414
26415
26416
10203
15843
7865
19363
8596
16187
12726
18382
25453
10705
12507
6467
12575
13723
25999
26417
26418
26419
26420
26421
26422
26423
26424
26426
7776
11461
13216
8283
13672
19090
6204
11973
26429
26431
26432
26436
26437
26438
26439
26440
26441
26442
26443
26445
26446
12495
16362
6641
8491
9906
24702
21732
8964
10753
12164
17758
14366
23559
6360
7433
521
15568
26448
26449
26450
26452
26454
26455
26457
26458
943
20292
23003
22317
7408
9311
24604
26461
26464
26465
26466
26467
7539
5432
12490
16315
16169
24485
9298
11190
7064
26469
26471
26473
26475
26476
26477
26478
26479
26480
26481
26482
26483
8054
22434
20607
19464
22483
8994
19212
20149
7000
9381
26485
26486
26487
26488
26489
26490
26493
26494
26495
26497
9616
9852
13539
7268
6504
8663
6923
8737
8796
14098
7837
16616
17539
10490
22354
15581
5849
26040
9213
26498
26499
26500
26502
26503
26504
26505
26506
26507
26509
26510
26511
26513
26514
26515
26516
26517
26518
26520
26521
26522
26523
26525
8291
8501
9399
8557
20212
21143
15060
20387
26526
26527
26529
26530
26531
26532
26533
26534
26535
26536
26537
26539
26540
26541
26542
26543
10762
10792
7748
18712
19230
8185
6094
7310
18879
22342
13998
6793
16421
13599
24359
21606
26101
26227
17316
24252
26545
26546
26547
26548
26549
26552
26554
26556
26557
26558
26559
26560
26562
26563
26564
26565
26566
26567
26568
12017
8009
20726
12141
8345
6049
13448
12909
297
11819
8717
7741
11111
12901
1600
26570
26571
26572
26574
26575
26576
26578
26579
26580
26581
26582
26583
26584
26585
26586
811
7621
8514
267
20901
9070
24335
9206
23085
20362
9398
9844
26589
26590
26591
26592
26593
26594
26595
26596
26597
9195
6829
15761
15566
8649
20857
7329
6987
15079
6080
7353
26598
26599
26600
26601
26602
26603
26604
26605
6414
12161
7394
257
21674
5579
8950
8558
9568
9906
13440
26606
26607
26608
26609
26610
26612
26613
26614
26615
26616
26617
11549
56
13729
8871
6166
7555
24638
24982
24647
6366
21374
25440
7273
10530
13969
26619
26620
26621
26622
26623
26624
26625
26626
26627
26628
26629
26630
26631
26632
26633
26634
26635
26636
26637
7775
6324
7104
18491
10885
7395
9062
18763
19086
11425
5936
26639
26640
26641
26642
26643
26644
26645
26646
26647
26648
26649
26650
26651
18272
18346
15950
8878
17946
5850
13203
7609
26652
26653
26654
26655
26656
26657
7449
8755
5501
23354
12530
7372
22099
22581
16065
25788
17311
26126
26359
10813
19140
26658
26659
26660
26661
26662
26663
26664
6648
11557
6336
16481
7673
15045
18048
24333
10848
16516
6914
26665
26666
26668
26669
26670
26671
26672
26673
26674
26675
26676
26677
26678
7247
8217
8571
17690
8980
21892
22922
24905
25038
25065
24967
25841
21558
26679
26680
26681
26682
26683
26684
26685
26686
26687
26688
26689
26691
7920
12675
10643
23685
8431
20981
6947
9092
9100
15812
26692
26693
26694
26695
26696
26697
26698
26699
26700
26701
26703
26704
26705
26706
26707
7177
7447
16917
8518
24388
7257
7658
21733
12476
8807
10929
23107
24731
26709
26710
26711
26712
26713
26714
26715
26716
26717
26718
26719
16150
8189
15174
1183
9153
11428
7524
23256
22353
26412
26720
26721
26722
26723
26724
26725
26726
26727
26728
26729
26730
26731
26732
26733
26734
26735
26736
26737
8044
12212
8587
9245
8939
10185
8992
12237
9108
24431
25959
26718
26738
26739
26740
26741
26742
26744
26745
26746
26747
26748
26749
26750
26751
26752
26753
16076
8147
20585
18782
18410
15245
5075
9707
10123
24704
9864
22230
5402
22108
26755
26756
26757
26758
26759
26760
26761
26762
26763
26764
26765
26766
26767
26768
26769
26770
20388
22344
23286
22937
12621
26772
26773
26774
26775
21918
15551
5568
18535
8131
14717
22395
9752
6155
26776
26777
26778
26779
26780
26781
26782
26783
26784
26785
26786
26787
26788
26789
26790
26791
26792
26793
26794
26795
26796
26797
26798
26799
18152
8581
928
8756
8162
236
6718
21847
16836
26590
)


// ************************************************************************* //
