/*--------------------------------*- C++ -*----------------------------------*\
  =========                 |
  \\      /  F ield         | OpenFOAM: The Open Source CFD Toolbox
   \\    /   O peration     | Website:  https://openfoam.org
    \\  /    A nd           | Version:  7
     \\/     M anipulation  |
\*---------------------------------------------------------------------------*/
FoamFile
{
    version     2.0;
    format      ascii;
    class       Cloud<dsmcParcel>;
    location    "0.003/lagrangian/dsmc";
    object      positions;
}
// * * * * * * * * * * * * * * * * * * * * * * * * * * * * * * * * * * * * * //

6189
(
(0.5987621625 0.2006189188 0.1191895694 0.08142934937) 350 684 2
(0.1333152924 0.3190638994 0.1142784544 0.4333423538) 350 686 1
(0.7495003187 0.1252498407 0.0366205264 0.08862931427) 55 104 2
(0.2468075383 0.3398166272 0.3765962309 0.03677960364) 322 632 2
(0.100592185 0.4497039075 0.3366061714 0.1130977361) 443 810 1
(0.6180968875 0.02278249617 0.1909515563 0.1681690601) 51 96 1
(0.4386778283 0.2806610858 0.2077583222 0.07290276363) 353 1267 2
(0.3267321004 0.3366339498 0.1885764368 0.148057513) 173 1261 2
(0.01969594789 0.2916646966 0.1984873294 0.4901520261) 262 455 2
(0.447286757 0.1379848538 0.2763566215 0.1383717677) 290 569 2
(0.5511346127 0.05430613108 0.1701265626 0.2244326937) 201 335 2
(0.03523241755 0.4823837912 0.2911346885 0.1912491027) 653 1307 1
(0.5855492623 0.2072253688 0.06038486845 0.1468405004) 200 391 2
(0.5697897775 0.04040219544 0.2151051112 0.1747029158) 173 338 2
(0.1553698499 0.4223150751 0.3065323832 0.1157826918) 323 1266 2
(0.6355410819 0.1822294591 0.136008677 0.04622078206) 142 277 2
(0.4191031864 0.2904484068 0.02231752371 0.2681308831) 262 511 2
(0.1855283305 0.4072358347 0.3282530457 0.07898278901) 142 219 1
(0.2488228908 0.3755885546 0.1857922953 0.1897962593) 201 393 2
(0.2088276057 0.1016707473 0.3955861972 0.2939154499) 141 276 2
(0.2624028356 0.1472727569 0.3687985822 0.2215258253) 82 160 2
(0.4068503964 0.2965748018 0.005010605164 0.2915641966) 262 513 2
(0.4861759918 0.2569120041 0.1078050781 0.149106926) 108 211 1
(0.07311089393 0.463444553 0.2296398954 0.2338046577) 55 1257 2
(0.7083834004 0.07413692277 0.07167137704 0.1458082998) 202 395 1
(0.5264625336 0.2367687332 0.187103094 0.04966563922) 172 334 2
(0.3024455074 0.3487772463 0.1337136093 0.215063637) 142 278 1
(0.5753563028 0.2123218486 0.1424836872 0.06983816139) 472 927 1
(0.0009825898583 0.1278093064 0.4995087051 0.3716993986) 321 627 1
(0.30105317 0.349473415 0.2759733629 0.07350005211) 382 747 2
(0.8165047471 0.04754072887 0.04420689755 0.09174762643) 443 810 2
(0.08022941139 0.4301269776 0.4598852943 0.02975831672) 503 987 2
(0.2823214114 0.264915595 0.09392369931 0.3588392943) 292 572 1
(0.006408985332 0.4967955073 0.3598606271 0.1369348802) 353 1267 2
(0.540034012 0.229982994 0.1047712564 0.1252117376) 352 691 1
(0.0234641332 0.4882679334 0.006428006819 0.4818399266) 172 337 1
(0.007892559313 0.4960537203 0.1356696793 0.360384041) 169 330 2
(0.6533042249 0.0698706166 0.103477271 0.1733478876) 173 279 2
(0.08122441122 0.2901210545 0.4593877944 0.1692667399) 383 751 2
(0.6361185319 0.1819407341 0.03465639613 0.1472843379) 173 338 1
(0.762254229 0.1188728855 0.03279616397 0.08607672155) 54 62 1
(0.2849741639 0.09249834018 0.357512918 0.2650145779) 262 514 2
(0.08580716074 0.002208793336 0.4548876263 0.4570964196) 263 1264 1
(0.4184604863 0.09002874736 0.2007410095 0.2907697568) 173 1261 1
(0.7105855206 0.03765554539 0.1070516943 0.1447072397) 142 219 2
(0.06341045275 0.4682947736 0.2540826922 0.2142120814) 353 690 2
(0.1315796896 0.4342101552 0.4192881133 0.01492204186) 173 338 1
(0.4942947856 0.08653151803 0.2528526072 0.1663210892) 143 277 1
(0.005195494986 0.1749385053 0.4974022525 0.3224637472) 110 215 2
(0.3011398295 0.1237305145 0.3494300853 0.2256995708) 323 631 1
(0.1262665993 0.4368667004 0.1702027966 0.2666639037) 439 803 1
(0.01907269944 0.4904636503 0.2534490346 0.2370146157) 263 456 1
(0.5084365123 0.2457817438 0.1761489345 0.06963280931) 652 1252 2
(0.4381405341 0.1506599349 0.2809297329 0.130269798) 323 633 2
(0.5922712795 0.1071791408 0.2038643603 0.09668521944) 593 1162 1
(0.725322869 0.1373385655 0.02582568157 0.1115128839) 199 387 2
(0.4462301461 0.1043366841 0.1725482429 0.2768849269) 472 868 2
(0.1897163696 0.4051418152 0.2476987912 0.157443024) 111 214 2
(0.6264075325 0.06174519848 0.1867962337 0.1250510353) 592 1163 2
(0.07356416833 0.4632179158 0.2064850037 0.2567329122) 351 686 2
(0.6205763363 0.1897118319 0.01091268891 0.178799143) 83 106 1
(0.00115928034 0.4994203598 0.0196738161 0.4797465437) 201 335 1
(0.388704621 0.3056476895 0.077572596 0.2280750935) 262 511 2
(0.1677717924 0.1339986816 0.2821154222 0.4161141038) 142 277 1
(0.06434165741 0.4031671963 0.06466197495 0.4678291713) 31 59 1
(0.8823737107 0.05881314464 0.001773802906 0.05703934173) 233 1263 2
(0.8005033664 0.08666144745 0.01308686934 0.09974831679) 143 220 2
(0.7653185875 0.1173407063 0.1061685708 0.01117213549) 262 513 2
(0.08337456553 0.4583127172 0.4002838188 0.05802889847) 562 1045 1
(0.412664085 0.2518193622 0.2936679575 0.04184859525) 173 338 2
(0.3108897709 0.3445551146 0.1886284061 0.1559267084) 83 159 2
(0.4292504572 0.02390466482 0.2853747714 0.2614701066) 502 986 2
(0.490841196 0.254579402 0.1197024888 0.1348769133) 382 749 2
(0.1542781569 0.4228609216 0.3764150324 0.0464458892) 592 1104 1
(0.1155909473 0.4045643118 0.03764021456 0.4422045264) 499 921 2
(0.154173741 0.4229131295 0.1561187473 0.2667943822) 529 1036 2
(0.06308194365 0.3265913113 0.4684590282 0.1418677169) 55 104 1
(0.7756146689 0.07261721677 0.03957544876 0.1121926655) 16 10 2
(0.7540065884 0.07127429608 0.1229967058 0.05172240973) 54 102 1
(0.4778298533 0.1861977902 0.07488728316 0.2610850733) 620 1159 2
(0.2720219137 0.1568388244 0.3639890432 0.2071502188) 379 744 2
(0.1836332185 0.03665914824 0.3715242425 0.4081833908) 503 928 2
(0.1961967935 0.0402074093 0.361694194 0.4019016033) 293 515 2
(0.3199466624 0.1174154344 0.3400266688 0.2226112344) 168 326 1
(0.2948399526 0.3525800237 0.008642666463 0.3439373572) 163 318 2
(0.02269478718 0.2441187099 0.4886526064 0.2445338965) 233 456 2
(0.4749037528 0.2625481236 0.04014235923 0.2224057644) 563 1046 1
(0.08742919169 0.06302598356 0.3932594206 0.4562854042) 142 219 2
(0.4797275844 0.2601362078 0.03157307438 0.2285631334) 261 453 1
(0.2719282932 0.1588420932 0.3640358534 0.2051937602) 529 1039 2
(0.01893680489 0.4905315976 0.3191659661 0.1713656314) 231 453 1
(0.1303086637 0.4348456682 0.3063795549 0.1284661132) 622 1221 2
(0.3215841842 0.3392079079 0.0861711069 0.253036801) 380 746 1
(0.5766350868 0.2116824566 0.03992747155 0.1717549851) 382 750 1
(0.3706867587 0.1410921936 0.173564427 0.3146566206) 469 920 1
(0.2009502113 0.07280398765 0.3267209067 0.3995248943) 230 450 1
(0.7662403243 0.03997254539 0.07690729247 0.1168798379) 562 1103 1
(0.2632657176 0.3683671412 0.3645815188 0.003785622402) 291 570 2
(0.8357969187 0.01023295212 0.07186858852 0.08210154064) 591 1102 2
(0.2555191167 0.3641407583 0.008099683333 0.3722404416) 502 985 1
(0.01298894045 0.4935055298 0.4584957844 0.0350097454) 81 157 2
(0.09322067113 0.338946904 0.4533896644 0.1144427604) 83 161 2
(0.02289174352 0.425442794 0.4885541282 0.06311133421) 653 1252 1
(0.1253345926 0.1567043383 0.4373327037 0.2806283654) 173 338 2
(0.2001629261 0.108127613 0.291790924 0.3999185369) 531 1042 1
(0.1994856116 0.4002571942 0.03169999943 0.3685571948) 201 391 2
(0.2439700449 0.3780149776 0.01866268361 0.3593522939) 199 331 1
(0.3814010102 0.3092994949 0.1773049633 0.1319945316) 292 573 1
(0.5284753461 0.08265431345 0.235762327 0.1531080135) 263 513 1
(0.5713212548 0.168060631 0.04627874163 0.2143393726) 442 809 2
(0.3327206559 0.247318083 0.08632158912 0.3336396721) 260 451 2
(0.4983130378 0.243669344 0.007174137093 0.2508434811) 352 632 2
(0.5131436105 0.1945310043 0.2434281948 0.04889719048) 231 453 2
(0.4955115468 0.2522442266 0.08125005585 0.1709941707) 200 391 2
(0.9225642702 0.01858159912 0.0201362658 0.03871786492) 382 691 2
(0.4440386628 0.2779806686 0.1689655617 0.1090151069) 166 324 2
(0.3175868218 0.2697632834 0.07144330572 0.3412065891) 322 631 1
(0.1487456348 0.1023798544 0.3232473282 0.4256271826) 412 750 2
(0.4329718615 0.2835140692 0.1301424761 0.1533715931) 143 1260 2
(0.03872624453 0.3415024114 0.1391344664 0.4806368777) 233 397 2
(0.4455397436 0.2560444293 0.2772301282 0.02118569886) 501 981 1
(0.7700101599 0.11499492 0.08226016334 0.0327347567) 53 60 1
(0.01157929672 0.2285278811 0.2656824705 0.4942103516) 651 1251 1
(0.2777958406 0.2166911334 0.1444109463 0.3611020797) 51 98 1
(0.1691831012 0.4154084494 0.1679521744 0.247456275) 55 63 1
(0.371643229 0.3141783855 0.1837388853 0.1304395003) 292 570 2
(0.08972798778 0.4551360061 0.1226845785 0.3324514276) 139 213 1
(0.2128710991 0.3159175666 0.3935644504 0.07764688386) 113 220 2
(0.1687850916 0.1315759842 0.4156074542 0.28403147) 199 387 1
(0.3223524366 0.227479294 0.3388237817 0.1113444877) 233 454 1
(0.3402119603 0.3298940198 0.2308105824 0.09908343746) 322 629 2
(0.2633791596 0.1908240095 0.1774864108 0.3683104202) 203 1262 1
(0.08372854277 0.1809043335 0.4581357286 0.2772313951) 232 452 1
(0.4469965147 0.02161666136 0.2765017426 0.2548850813) 353 692 2
(0.4261020317 0.2869489841 0.1649571415 0.1219918426) 323 631 2
(0.643975735 0.1780121325 0.0869552388 0.09105689368) 292 570 2
(0.07117573774 0.1508041821 0.3136079491 0.4644121311) 293 515 2
(0.4545025428 0.2727487286 0.112189789 0.1605589396) 322 629 2
(0.3500558929 0.3249720535 0.02196651884 0.3030055347) 322 573 1
(0.06248173769 0.1429450377 0.3258140935 0.4687591312) 173 279 2
(0.1909263968 0.1909858804 0.4045368016 0.2135509212) 293 572 1
(0.3343825219 0.332808739 0.06824236445 0.2645663746) 593 1275 2
(0.1564111294 0.01058951395 0.4217944353 0.4112049214) 443 869 2
(0.2846902683 0.1547745965 0.3576548658 0.2028802694) 412 809 2
(0.03563521609 0.482182392 0.3960344218 0.08614797018) 410 746 1
(0.147494767 0.4262526165 0.1726313398 0.2536212767) 171 335 1
(0.2313724941 0.384313753 0.03850305914 0.3458106938) 12 23 1
(0.7105496363 0.01153358709 0.1331915947 0.1447251818) 81 103 2
(0.3072189411 0.2241621076 0.1222284218 0.3463905295) 622 1163 2
(0.08694800424 0.1224439905 0.3340820074 0.4565259979) 111 158 2
(0.4202406435 0.2011902977 0.08868938052 0.2898796782) 473 1271 1
(0.3862991556 0.2312830732 0.07556734905 0.3068504222) 7 12 1
(0.01345207574 0.4733333513 0.0199406108 0.4932739621) 82 159 1
(0.03065372778 0.4846731361 0.09641161753 0.3882615186) 200 389 2
(0.1938316715 0.4030841642 0.1968691083 0.2062150559) 352 688 2
(0.4304738407 0.08029883507 0.2044642446 0.2847630796) 320 569 2
(0.09174873573 0.4541256321 0.4385055378 0.01562009433) 113 218 2
(0.1825826344 0.3855586432 0.4087086828 0.0231500396) 80 156 2
(0.5100248344 0.1390732166 0.1059143662 0.2449875828) 502 927 2
(0.4839896327 0.2580051837 0.2263006898 0.03170449385) 531 984 1
(0.4245782558 0.2877108721 0.02602879901 0.2616820731) 383 1268 2
(0.6667031519 0.01658353468 0.1500648894 0.1666484241) 413 751 2
(0.1264670902 0.4367664549 0.1072687154 0.3294977395) 233 397 1
(0.5339065578 0.03892879359 0.1941179275 0.2330467211) 142 219 2
(0.4901606724 0.2549196638 0.2287778235 0.02614184035) 263 515 1
(0.1812832877 0.4093583561 0.01574166326 0.3936166929) 472 868 1
(0.09050798096 0.08518287072 0.4547460095 0.3695631388) 412 806 1
(0.3560602061 0.3219698969 0.003186138499 0.3187837584) 293 574 1
(0.5074066083 0.1620549182 0.08424177764 0.2462966958) 409 802 1
(0.6290424207 0.1193891954 0.06608959421 0.1854787896) 111 158 2
(0.0521539446 0.3739934737 0.09992955401 0.4739230277) 380 687 2
(0.6292791183 0.02544915618 0.1853604408 0.1599112846) 17 32 2
(0.6599690902 0.03867921832 0.1700154549 0.1313362366) 379 741 1
(0.2447357714 0.3776321143 0.1103655371 0.2672665772) 54 102 2
(0.2502304033 0.3748847983 0.3681109654 0.006773832933) 142 219 1
(0.02491518809 0.487542406 0.4259338748 0.06160853119) 199 389 2
(0.1946398949 0.07006814128 0.3326119113 0.4026800525) 140 215 2
(0.01355123731 0.4932243813 0.1852320289 0.3079923525) 410 804 2
(0.4879580836 0.2560209582 0.1058325744 0.1501883837) 592 1160 2
(0.1491927396 0.2020504845 0.4254036302 0.2233531457) 32 62 2
(0.08202227595 0.458988862 0.03831126368 0.4206775983) 293 574 1
(0.2375036809 0.3812481595 0.377257221 0.003990938523) 411 748 1
(0.05168722646 0.1477621073 0.3263942795 0.4741563868) 81 157 1
(0.04361445563 0.4781927722 0.3800678606 0.09812491162) 413 751 1
(0.2666770144 0.3666614928 0.2466628787 0.1199986141) 229 449 1
(0.07126355457 0.4643682227 0.1225340601 0.3418341626) 292 514 1
(0.2360948373 0.09385597006 0.3819525813 0.2880966113) 411 804 1
(0.875576425 0.06221178752 0.001290176217 0.0609216113) 82 105 1
(0.1489704393 0.4255147803 0.2746864909 0.1508282895) 33 32 1
(0.5962901633 0.01529419294 0.2018549184 0.1865607254) 260 510 2
(0.1127417548 0.01688670991 0.4436291226 0.4267424127) 233 454 1
(0.1771415657 0.2834281464 0.1280010708 0.4114292172) 292 514 2
(0.1974607358 0.2054957517 0.1957738804 0.4012696321) 352 690 1
(0.04868326403 0.475658368 0.02445818668 0.4512001813) 473 869 1
(0.4492104827 0.2753947587 0.1616437288 0.1137510298) 291 568 2
(0.1032560889 0.4483719556 0.1531197827 0.2952521728) 233 1263 2
(0.09141126768 0.4542943662 0.2680085272 0.186285839) 82 159 2
(0.802346416 0.09882679199 0.08026376737 0.01856302463) 111 216 2
(0.8106130771 0.09469346144 0.08793088997 0.006762571464) 140 274 1
(0.1435180295 0.4282409852 0.2953165047 0.1329244806) 79 99 1
(0.1248913774 0.0004939617001 0.4370603496 0.4375543113) 533 1273 1
(0.3198165706 0.002394633816 0.3376970809 0.3400917147) 410 746 2
(0.07142990222 0.09634606707 0.4642850489 0.3679389818) 1 2 2
(0.3514212764 0.06858074609 0.2557086157 0.3242893618) 81 103 2
(0.2961759114 0.3519120443 0.06876346642 0.2831485779) 438 859 2
(0.1457168427 0.4271415787 0.3754049093 0.05173666932) 353 633 1
(0.3034336876 0.05285902562 0.3482831562 0.2954241306) 230 451 2
(0.7688066045 0.05828281114 0.1155966978 0.05731388661) 141 273 1
(0.7500778268 0.02843554787 0.09652553872 0.1249610866) 231 452 1
(0.4023662614 0.2235357071 0.07528116223 0.2988168693) 12 22 1
(0.5051672413 0.2474163793 0.02163885141 0.2257775279) 533 1273 2
(0.01666487409 0.04372104587 0.4479465171 0.491667563) 231 452 1
(0.4133637616 0.2003469246 0.2933181192 0.09297119457) 383 749 1
(0.5993472676 0.02605757384 0.2003263662 0.1742687924) 593 1164 2
(0.6660141131 0.0411521172 0.1669929434 0.1258408262) 323 631 1
(0.7163481514 0.1161793752 0.1418259243 0.02564654906) 473 928 2
(0.2054806208 0.2564386888 0.3972596896 0.1408210008) 233 456 2
(0.2336486608 0.3831756696 0.02189069557 0.361284974) 471 925 1
(0.09472697903 0.3491122886 0.1035242219 0.4526365105) 141 275 1
(0.607129596 0.196435202 0.1853042532 0.01113094885) 259 507 2
(0.4250528779 0.287473561 0.1806516283 0.1068219327) 203 395 2
(0.0819300745 0.4590349627 0.05959469033 0.3994402724) 171 334 2
(0.02541005554 0.4872949722 0.2538378727 0.2334570996) 318 624 1
(0.5766386182 0.2116806909 0.04322613343 0.1684545575) 412 808 2
(0.3491753238 0.2942894627 0.3254123381 0.03112287539) 592 1163 2
(0.4448423093 0.2775788453 0.07244230088 0.2051365445) 382 691 1
(0.01909564289 0.3274831835 0.4904521786 0.1629689951) 226 443 2
(0.2187780391 0.3906109805 0.1182341028 0.2723768776) 352 688 2
(0.4997945126 0.05345337919 0.2501027437 0.1966493645) 138 267 1
(0.4536367621 0.02560271403 0.273181619 0.2475789049) 410 805 2
(0.5017306784 0.05204706999 0.1970875908 0.2491346608) 562 1103 1
(0.487793466 0.256103267 0.08740399672 0.1686992703) 468 919 1
(0.2153833406 0.3923083297 0.330444303 0.06186402675) 442 868 1
(0.6573416294 0.1713291853 0.004569283431 0.1667599019) 471 922 2
(0.244913424 0.1335192975 0.2440239905 0.377543288) 172 336 1
(0.3607897742 0.3196051129 0.1406979818 0.1789071311) 408 800 2
(0.8641018157 0.06794909214 0.02192242176 0.04602667037) 261 512 1
(0.4814983789 0.2592508106 0.0557522878 0.2034985228) 171 276 1
(0.03964194425 0.4801790279 0.3264456655 0.1537333624) 32 61 2
(0.201969772 0.399015114 0.3171239136 0.08189120036) 201 391 2
(0.5809895324 0.2095052338 0.117717666 0.09178756783) 202 393 2
(0.1992850603 0.4003574699 0.1362942347 0.2640632351) 353 690 2
(0.5300599779 0.09986463949 0.2349700111 0.1351053716) 502 983 1
(0.08362350398 0.458188248 0.2681536215 0.1900346265) 173 279 1
(0.4672009419 0.266399529 0.08613042476 0.1802691043) 323 631 2
(0.2235860719 0.3882069641 0.03577720448 0.3524297596) 583 1145 1
(0.4501038529 0.2749480735 0.05836000702 0.2165880665) 651 1251 2
(0.2349615946 0.1981800754 0.3825192027 0.1843391273) 28 54 2
(0.03904459611 0.4804777019 0.3083384362 0.1721392658) 81 158 1
(0.1499373707 0.1406381723 0.2843931424 0.4250313147) 323 1266 1
(0.5205618442 0.2397190779 0.02084237499 0.2188767029) 260 451 1
(0.18369764 0.1014454522 0.3067057278 0.40815118) 230 450 1
(0.47327924 0.26336038 0.02157547169 0.2417849083) 54 104 2
(0.09094880013 0.3943403419 0.06018525804 0.4545255999) 258 505 1
(0.07262711717 0.4636864414 0.4095760049 0.05411043652) 556 1092 1
(0.2887509453 0.3556245274 0.1965632198 0.1590613076) 314 616 1
(0.7562221435 0.1218889283 0.006375427593 0.1155135007) 561 1043 1
(0.1104043724 0.3552773941 0.08952041971 0.4447978138) 471 866 2
(0.3078400973 0.3460799513 0.2970757952 0.0490041561) 438 860 1
(0.324038228 0.04202831102 0.295952575 0.337980886) 471 924 1
(0.2681470719 0.2423290104 0.365926464 0.1235974537) 173 336 1
(0.6183068685 0.1908465657 0.1162334788 0.0746130869) 258 447 1
(0.3880648789 0.1184403956 0.3059675606 0.187527165) 289 564 1
(0.5922642695 0.2038678653 0.09175891028 0.112108955) 411 807 1
(0.5951915903 0.176422389 0.0259818158 0.2024042048) 17 1255 1
(0.1165644272 0.2287497307 0.4417177864 0.2129680557) 16 28 1
(0.6548113752 0.1725943124 0.08368333322 0.0889109792) 500 982 1
(0.1666446511 0.4144016119 0.4166776745 0.002276062587) 413 808 1
(0.3415969465 0.3292015268 0.142320408 0.1868811188) 15 28 2
(0.01889591777 0.149976356 0.3405756852 0.4905520411) 323 1266 1
(0.01108193575 0.4944590321 0.04386471742 0.4505943147) 172 278 1
(0.2277990328 0.05515748974 0.3309429938 0.3861004836) 232 396 2
(0.2781434037 0.0644021588 0.3609282982 0.2965261394) 263 513 1
(0.3325849275 0.237787679 0.09591985728 0.3337075362) 412 808 1
(0.2008015839 0.3995992081 0.1554896773 0.2441095308) 199 331 1
(0.5601464798 0.2199267601 0.1273250457 0.09260171442) 81 158 1
(0.3132292954 0.3433853523 0.08711055314 0.2562747991) 33 32 1
(0.2583884418 0.3708057791 0.3118536481 0.058952131) 382 691 1
(0.5543634084 0.2228182958 0.1290426176 0.09377567825) 173 338 1
(0.1076423249 0.4461788375 0.2149274192 0.2312514183) 378 741 2
(0.1462177879 0.4268911061 0.2435478739 0.1833432322) 532 1044 2
(0.6528927076 0.02225837865 0.1735536462 0.1512952675) 441 863 1
(0.1080620222 0.02893877985 0.417030209 0.4459689889) 561 1043 2
(0.2309436029 0.3845281985 0.1657278586 0.2188003399) 349 682 2
(0.2271535901 0.3864232049 0.1292501145 0.2571730905) 173 338 1
(0.1703797078 0.4148101461 0.04312072748 0.3716894186) 558 1095 2
(0.05774234127 0.4711288294 0.03658295425 0.4345458751) 470 922 2
(0.0004731082452 0.4997634459 0.02187664606 0.4778867998) 263 456 1
(0.7257886886 0.1371056557 0.02703634188 0.1100693138) 140 273 2
(0.2571999778 0.3714000111 0.3373452011 0.03405480993) 5 10 1
(0.4572310657 0.1932720554 0.07811241171 0.2713844671) 533 1273 1
(0.0294089418 0.4852955291 0.03036740238 0.4549281267) 292 514 1
(0.4830732421 0.2584633789 0.06121961489 0.197243764) 81 103 1
(0.01922278867 0.06694313983 0.4903886057 0.4234454658) 142 278 2
(0.3255930633 0.143931913 0.3372034683 0.1932715553) 292 573 2
(0.8078180723 0.02866394695 0.09609096383 0.06742701688) 173 338 2
(0.1466554268 0.4266722866 0.2279800452 0.1986922414) 319 567 1
(0.5039352367 0.1325556175 0.1154767641 0.2480323816) 502 927 2
(0.4098431638 0.2950784181 0.112836582 0.1822418361) 292 572 2
(0.4722942299 0.263852885 0.165129414 0.09872347104) 171 335 1
(0.2070053314 0.3964973343 0.1059451007 0.2905522336) 379 743 2
(0.8201552952 0.0899223524 0.06688191589 0.02304043652) 316 561 1
(0.1628371703 0.4169882473 0.4185814149 0.001593167518) 171 332 1
(0.5271518647 0.1152256409 0.2364240677 0.1211984268) 590 1159 2
(0.1519544238 0.166796485 0.4240227881 0.2572263031) 230 448 1
(0.3886159043 0.02274521111 0.3056920478 0.2829468367) 467 914 1
(0.6730271631 0.1634864185 0.06817128825 0.09531513021) 443 869 1
(0.129416603 0.4352916985 0.003173527962 0.4321181705) 232 396 1
(0.2980749802 0.3509625099 0.1588414071 0.1921211028) 52 98 2
(0.5933751148 0.04523617403 0.1580762686 0.2033124426) 559 1097 1
(0.1149911018 0.4425044491 0.2719450582 0.1705593909) 502 985 2
(0.1231498979 0.4215283716 0.438425051 0.01689667942) 16 31 2
(0.1882011516 0.1922405506 0.4058994242 0.2136588736) 470 923 2
(0.3637447131 0.1203167462 0.3181276435 0.1978108972) 503 985 1
(0.2387447596 0.2330105954 0.3806276202 0.1476170248) 317 619 1
(0.3341075661 0.006202608713 0.3267436082 0.332946217) 379 743 1
(0.4442805777 0.2778597111 0.1046539597 0.1732057515) 33 61 2
(0.5177481058 0.2411259471 0.002423344226 0.2387026029) 199 389 2
(0.573963827 0.2130180865 0.04944666602 0.1635714205) 203 395 2
(0.02229998069 0.4378917436 0.4888500097 0.05095826607) 503 987 2
(0.3978859079 0.01264059733 0.3010570461 0.2884164487) 261 512 2
(0.5429249316 0.2285375342 0.1166022141 0.1119353201) 381 689 1
(0.7751008034 0.07862242001 0.1124495983 0.03382717827) 112 219 2
(0.2603623311 0.3698188344 0.1996971331 0.1701217013) 439 803 1
(0.1334752416 0.08217752567 0.4332623792 0.3510848535) 502 986 2
(0.09890881216 0.4505455939 0.02897287552 0.4215727184) 203 395 2
(0.27966521 0.360167395 0.02044558248 0.3397218125) 201 335 1
(0.3104987371 0.003925424205 0.3408252073 0.3447506315) 623 1276 1
(0.3286761119 0.3356619441 0.2916259361 0.04403600793) 259 505 2
(0.6161240806 0.1919379597 0.05798022318 0.1339577365) 526 974 1
(0.08029864841 0.4598506758 0.2208292774 0.2390213984) 83 1258 2
(0.8269148623 0.08654256885 0.04538505509 0.04115751376) 172 334 2
(0.219916449 0.3900417755 0.1080494954 0.2819922801) 199 387 2
(0.204146826 0.397926587 0.3537785329 0.04414805408) 499 979 2
(0.155962097 0.4220189515 0.3214768501 0.1005421014) 502 986 1
(0.3873764349 0.3063117826 0.2512931782 0.0550186043) 142 219 1
(0.6209220987 0.1895389506 0.1206752146 0.068863736) 443 867 2
(0.5621311487 0.159703257 0.2189344256 0.05923116865) 441 866 2
(0.2410046198 0.188714433 0.3794976901 0.1907832571) 351 689 2
(0.4235826505 0.1145898229 0.2882086747 0.1736188518) 78 152 2
(0.1506354802 0.4246822599 0.216643943 0.2080383169) 353 692 1
(0.4628500127 0.2685749936 0.01451482962 0.254060164) 259 507 2
(0.1387843556 0.05461044999 0.4306078222 0.3759973722) 111 217 2
(0.03653214889 0.1336541244 0.4817339256 0.3480798012) 261 509 1
(0.8626873086 0.013378007 0.05527833872 0.06865634572) 255 441 2
(0.2302533637 0.3848733181 0.06295949938 0.3219138187) 409 802 2
(0.3528986629 0.3025148255 0.02103584303 0.3235506686) 108 210 1
(0.08129928681 0.1238291013 0.3355212553 0.4593503566) 623 1164 2
(0.2038876541 0.01643066273 0.3816255102 0.3980561729) 169 330 1
(0.1279326971 0.1181611278 0.4360336515 0.3178725237) 292 570 1
(0.3453003322 0.3273498339 0.09943872633 0.2279111076) 52 101 1
(0.7185259005 0.1407370497 0.08118123736 0.05955581237) 380 745 2
(0.1307603849 0.08675419786 0.4346198076 0.3478656097) 533 1044 1
(0.6077358802 0.01540236543 0.1807296944 0.1961320599) 410 804 1
(0.4093071218 0.2953464391 0.2593519991 0.03599443998) 410 746 1
(0.01827327284 0.4908633636 0.4513692819 0.03949408169) 233 454 2
(0.7537389157 0.1231305421 0.02081869684 0.1023118453) 293 1265 2
(0.6177935201 0.1911032399 0.09426690339 0.09683633654) 291 512 1
(0.3964384132 0.3017807934 0.1949154765 0.1068653169) 15 26 2
(0.1163158206 0.2650965174 0.1767455723 0.4418420897) 263 456 2
(0.01455039617 0.4927248019 0.07191564315 0.4208091588) 231 450 2
(0.1054106128 0.1027993305 0.4472946936 0.3444953631) 383 749 1
(0.1425265102 0.4287367449 0.008604251163 0.4201324937) 411 807 1
(0.006707736357 0.07004546616 0.4266006657 0.4966461318) 648 1248 1
(0.5944163062 0.1988756271 0.2027918469 0.003916219757) 290 566 1
(0.7924369019 0.1037815491 0.1030903741 0.0006911749349) 263 456 1
(0.1767399279 0.4116300361 0.07462107514 0.3370089609) 592 1104 1
(0.01973927651 0.3516075143 0.4901303617 0.1385228474) 319 623 1
(0.2560237614 0.05966475871 0.3719881193 0.3123233606) 350 687 2
(0.1732837681 0.3620709175 0.05128719846 0.413358116) 203 338 2
(0.5749582982 0.2125208509 0.1958512773 0.01666957362) 530 1038 2
(0.4349410414 0.2669824981 0.01554698121 0.2825294793) 293 515 2
(0.04335903566 0.4783204822 0.1582828492 0.3200376329) 262 513 2
(0.1770588657 0.4114705671 0.03624755317 0.375223014) 200 333 1
(0.01537782133 0.2191623612 0.4923110893 0.2731487281) 81 155 1
(0.3397859477 0.01672687541 0.3133801508 0.3301070262) 259 507 1
(0.7263574705 0.1368212647 0.005271961001 0.1315493037) 113 1259 2
(0.663750533 0.1681247335 0.08116078497 0.08696394852) 171 334 2
(0.7350355723 0.1324822138 0.09163964246 0.04084257138) 383 751 1
(0.6122339003 0.1938830499 0.1073529479 0.08653010192) 259 449 1
(0.608327759 0.1958361205 0.1201028328 0.07573328766) 556 1091 2
(0.8374597444 0.0812701278 0.007435248667 0.07383487913) 443 869 1
(0.04599842881 0.4770007856 0.112582835 0.3644179506) 291 512 1
(0.2821259852 0.3589370074 0.1337173507 0.2252196567) 442 867 2
(0.7821190349 0.1089404825 0.04547071134 0.06346977121) 501 984 1
(0.002614367718 0.4986928161 0.02890162669 0.4697911894) 526 1033 1
(0.2731539075 0.3634230463 0.2471189884 0.1163040579) 113 218 2
(0.2706504661 0.364674767 0.2454729743 0.1192017927) 173 1261 2
(0.239028257 0.3804858715 0.1910336785 0.189452193) 228 447 1
(0.5923462531 0.2038268734 0.06887471815 0.1349521553) 317 619 2
(0.1314448762 0.3051438775 0.1291336844 0.4342775619) 467 916 1
(0.4700856487 0.1734011265 0.2649571757 0.0915560492) 380 746 2
(0.2281627985 0.3859186007 0.25243638 0.1334822208) 472 926 2
(0.08566771471 0.4571661426 0.1651457236 0.2920204191) 230 450 2
(0.2000555787 0.3999722106 0.2264102925 0.1735619182) 473 928 1
(0.4235967846 0.04415731565 0.2882016077 0.2440442921) 261 509 1
(0.2413989757 0.3038761688 0.07542434336 0.3793005121) 589 1098 2
(0.1077809662 0.4461095169 0.03391171978 0.4121977971) 230 448 2
(0.02503469399 0.487482653 0.08421624426 0.4032664087) 78 151 2
(0.4218310202 0.2890844899 0.2733967796 0.01568771026) 349 626 1
(0.4642381538 0.2678809231 0.2118956197 0.05598530341) 410 746 1
(0.2830152693 0.1473434674 0.3584923654 0.2111488979) 5 10 2
(0.2303911713 0.2018706441 0.3848044144 0.1829337702) 529 1036 1
(0.1135943088 0.4432028456 0.1132080577 0.3299947879) 502 986 1
(0.2225135803 0.3887432098 0.003171746064 0.3855714638) 80 156 1
(0.1896270993 0.4051864503 0.3479033746 0.05728307576) 31 60 1
(0.0120301422 0.3830610172 0.4939849289 0.1109239117) 408 801 2
(0.735529546 0.132235227 0.109384935 0.02285029196) 232 396 1
(0.0007215106645 0.04234715525 0.4572920894 0.4996392447) 562 1045 2
(0.3418661505 0.3277943604 0.001272564314 0.3290669247) 472 926 1
(0.29150494 0.35424753 0.00422961269 0.3500179173) 202 393 2
(0.1212291746 0.4393854127 0.2863664646 0.1530189481) 321 629 2
(0.1527846653 0.1812275555 0.4236076674 0.2423801118) 112 219 2
(0.08157184362 0.07259056771 0.4592140782 0.3866235105) 440 864 2
(0.3007481078 0.3496259461 0.1946218615 0.1550040846) 259 507 2
(0.07979446703 0.4601027665 0.1734250639 0.2866777026) 353 692 1
(0.7364620971 0.1317689515 0.1032066926 0.02856225883) 142 278 1
(0.2991470262 0.2675578826 0.3504264869 0.08286860428) 323 631 1
(0.01895489715 0.4905225514 0.3137174579 0.1768050935) 263 515 1
(0.3803382904 0.3098308548 0.1079641488 0.201866706) 653 1277 2
(0.379782273 0.3101088635 0.2409842053 0.06912465819) 80 156 1
(0.007642874223 0.06829405969 0.4961785629 0.4278845032) 559 1098 2
(0.1283405315 0.06775222647 0.4358297342 0.3680775078) 201 391 1
(0.382503622 0.308748189 0.1582817259 0.1504664631) 532 1042 2
(0.2748301348 0.005695304336 0.3568896283 0.3625849326) 17 1255 1
(0.192532547 0.1506717064 0.2530620201 0.4037337265) 51 98 1
(0.4105490197 0.1285575007 0.1661679894 0.2947254901) 170 332 1
(0.1064455878 0.4467772061 0.1745952502 0.2721819559) 381 747 2
(0.07019902867 0.4649004857 0.4013678014 0.06353268428) 339 664 2
(0.6430477678 0.1784761161 0.05271954656 0.1257565695) 503 928 1
(0.02880774891 0.1108456124 0.4855961255 0.3747505132) 467 917 2
(0.6234084071 0.1882957964 0.1481526434 0.04014315307) 202 395 2
(0.0009576794645 0.4995211603 0.03505219229 0.464468968) 29 53 2
(0.5620749009 0.2189625496 0.06993575093 0.1490267986) 82 157 2
(0.0057696946 0.2537470864 0.2433680663 0.4971151527) 499 979 1
(0.1072539975 0.2476490109 0.1987239904 0.4463730012) 139 213 2
(0.08044109933 0.006064355369 0.4597794503 0.453715095) 471 922 1
(0.06815953228 0.4659202339 0.4000387793 0.06588145456) 315 617 2
(0.5493916574 0.2253041713 0.1305482884 0.09475588285) 173 1261 2
(0.403679147 0.2981604265 0.1514542447 0.1467061818) 196 384 1
(0.09172788159 0.4541360592 0.06778074795 0.3863553113) 382 747 2
(0.3148877286 0.1879836011 0.3425561357 0.1545725346) 410 802 1
(0.4502369781 0.2748815109 0.2124632302 0.06241828077) 290 568 2
(0.2371854439 0.03893828681 0.3814072781 0.3424689913) 106 207 2
(0.308707289 0.3456463555 0.09401909429 0.2516272612) 170 332 2
(0.6814071698 0.1592964151 0.1015253564 0.0577710587) 527 1034 2
(0.60229242 0.19885379 0.01137141943 0.1874823706) 472 927 1
(0.07725207711 0.4613739614 0.04071099844 0.420662963) 593 1105 1
(0.1406954154 0.4296522923 0.2664449638 0.1632073285) 80 155 2
(0.2072657476 0.3963671262 0.2118185101 0.1845486161) 320 569 1
(0.0258836744 0.02128716209 0.4657710007 0.4870581628) 441 807 2
(0.4476577809 0.2761711096 0.1193082812 0.1568628283) 620 1159 1
(0.4778759047 0.2610620476 0.05550092889 0.2055611188) 591 1161 1
(0.6446707088 0.1776646456 0.09481758223 0.08284706335) 171 335 1