/*--------------------------------*- C++ -*----------------------------------*\
  =========                 |
  \\      /  F ield         | OpenFOAM: The Open Source CFD Toolbox
   \\    /   O peration     | Website:  https://openfoam.org
    \\  /    A nd           | Version:  7
     \\/     M anipulation  |
\*---------------------------------------------------------------------------*/
FoamFile
{
    version     2.0;
    format      ascii;
    class       volScalarField;
    location    "0.0175";
    object      linearKE;
}
// * * * * * * * * * * * * * * * * * * * * * * * * * * * * * * * * * * * * * //

dimensions      [1 -1 -2 0 0 0 0];

internalField   nonuniform List<scalar> 
250
(
0.538234
0.551794
0.522384
0.526764
0.528411
0.505454
0.538518
0.546975
0.508664
0.53176
0.524992
0.517116
0.507999
0.528935
0.508622
0.551171
0.51881
0.525436
0.522956
0.511063
0.540203
0.515421
0.538779
0.533954
0.521933
0.551617
0.554084
0.541367
0.514163
0.531523
0.502
0.534398
0.503177
0.52713
0.519462
0.558749
0.53698
0.525949
0.548225
0.527586
0.553701
0.534313
0.525763
0.536808
0.556489
0.535748
0.540321
0.538725
0.556885
0.513619
0.523137
0.56231
0.520782
0.53388
0.535913
0.547889
0.541271
0.499371
0.55472
0.531555
0.510427
0.528772
0.539731
0.53415
0.559164
0.527871
0.501687
0.514697
0.520851
0.530332
0.489512
0.527421
0.545887
0.545698
0.506327
0.545199
0.510466
0.543469
0.549276
0.508266
0.528935
0.54769
0.546766
0.533959
0.543559
0.489744
0.517477
0.549372
0.550157
0.51502
0.550605
0.51795
0.517277
0.492704
0.548306
0.552661
0.544903
0.527276
0.529738
0.526589
0.522762
0.501869
0.538212
0.532664
0.542433
0.514012
0.553971
0.552446
0.532703
0.569817
0.529566
0.476661
0.551652
0.543814
0.521495
0.534652
0.509419
0.578154
0.529311
0.524193
0.51847
0.525929
0.53922
0.521594
0.528664
0.530787
0.514031
0.53879
0.527138
0.513867
0.527006
0.51143
0.527583
0.511415
0.524428
0.516056
0.496519
0.556573
0.51299
0.551093
0.532247
0.536212
0.49426
0.538875
0.514748
0.520668
0.539907
0.53888
0.522864
0.541757
0.536168
0.49569
0.557845
0.510766
0.544021
0.526015
0.521206
0.521633
0.507402
0.495486
0.506212
0.543354
0.538949
0.512421
0.561831
0.509575
0.487407
0.536463
0.545858
0.563003
0.532369
0.538844
0.48808
0.525754
0.505735
0.512312
0.510777
0.520953
0.547018
0.50683
0.51931
0.53557
0.527654
0.529649
0.522687
0.547798
0.510746
0.502864
0.524958
0.50481
0.509153
0.520671
0.520369
0.505424
0.512859
0.509044
0.53285
0.500026
0.523385
0.487363
0.516296
0.507026
0.511987
0.522179
0.532922
0.54817
0.515033
0.504155
0.507208
0.480532
0.507216
0.538263
0.504063
0.512393
0.50362
0.517497
0.517267
0.478364
0.547722
0.504457
0.482772
0.504754
0.510318
0.474204
0.504583
0.510034
0.485822
0.462178
0.51924
0.507126
0.525166
0.482491
0.485617
0.516671
0.486221
0.486177
0.480297
0.51481
0.490686
0.530612
0.509608
0.480612
0.490081
0.461208
0.50704
0.520401
0.501141
0.474005
0.478294
0.45353
)
;

boundaryField
{
    sides
    {
        type            symmetry;
    }
    empty
    {
        type            empty;
    }
    procBoundary0to1
    {
        type            processor;
        value           uniform 0.480712;
    }
}


// ************************************************************************* //
