/*--------------------------------*- C++ -*----------------------------------*\
  =========                 |
  \\      /  F ield         | OpenFOAM: The Open Source CFD Toolbox
   \\    /   O peration     | Website:  https://openfoam.org
    \\  /    A nd           | Version:  7
     \\/     M anipulation  |
\*---------------------------------------------------------------------------*/
FoamFile
{
    version     2.0;
    format      ascii;
    class       volScalarField;
    location    "0.0175";
    object      rhoN;
}
// * * * * * * * * * * * * * * * * * * * * * * * * * * * * * * * * * * * * * //

dimensions      [0 -3 0 0 0 0 0];

internalField   nonuniform List<scalar> 
250
(
2.0865e+20
2.0925e+20
2.0565e+20
2.031e+20
2.088e+20
1.9755e+20
2.0745e+20
2.091e+20
1.995e+20
2.0445e+20
2.0715e+20
2.016e+20
1.9785e+20
2.0775e+20
2.028e+20
2.073e+20
2.037e+20
2.1195e+20
2.0295e+20
2.07e+20
2.0475e+20
2.067e+20
2.097e+20
2.0955e+20
2.058e+20
2.1135e+20
2.0685e+20
2.0775e+20
2.0235e+20
2.088e+20
2.0205e+20
2.043e+20
1.962e+20
2.082e+20
2.0325e+20
2.136e+20
2.0475e+20
2.007e+20
2.097e+20
2.0835e+20
2.0805e+20
2.0925e+20
2.007e+20
2.0355e+20
2.0805e+20
2.076e+20
2.0325e+20
2.049e+20
2.1165e+20
2.031e+20
2.031e+20
2.1705e+20
2.0655e+20
2.0355e+20
2.0745e+20
2.1225e+20
2.115e+20
1.98e+20
2.1525e+20
2.031e+20
1.9965e+20
2.0355e+20
2.1165e+20
2.1015e+20
2.1825e+20
2.001e+20
2.1165e+20
1.983e+20
2.043e+20
2.058e+20
1.9365e+20
2.043e+20
2.139e+20
2.025e+20
1.9785e+20
2.1225e+20
1.9575e+20
2.043e+20
2.0865e+20
1.9485e+20
2.082e+20
2.1465e+20
2.097e+20
2.0985e+20
2.1255e+20
1.9635e+20
1.995e+20
2.0145e+20
2.1135e+20
1.9785e+20
2.109e+20
2.046e+20
2.0595e+20
1.9455e+20
2.091e+20
2.1075e+20
2.091e+20
2.0055e+20
2.049e+20
2.1075e+20
2.013e+20
1.98e+20
2.0835e+20
2.082e+20
2.115e+20
2.004e+20
2.0715e+20
2.0775e+20
2.097e+20
2.0655e+20
2.0385e+20
1.9395e+20
2.085e+20
2.1165e+20
2.0535e+20
2.022e+20
2.01e+20
2.187e+20
2.07e+20
2.022e+20
2.037e+20
2.0475e+20
2.058e+20
2.0775e+20
2.076e+20
2.0745e+20
2.07e+20
2.073e+20
2.019e+20
2.0115e+20
2.0355e+20
2.031e+20
2.073e+20
1.9965e+20
2.001e+20
2.058e+20
1.9485e+20
2.103e+20
1.947e+20
2.1495e+20
2.073e+20
2.0925e+20
1.9455e+20
2.1165e+20
1.989e+20
2.058e+20
2.0175e+20
2.0685e+20
2.037e+20
2.034e+20
2.0925e+20
1.953e+20
2.1375e+20
2.025e+20
2.0745e+20
2.031e+20
2.0295e+20
2.037e+20
1.9515e+20
1.959e+20
1.962e+20
2.0415e+20
2.079e+20
2.013e+20
2.157e+20
1.9845e+20
1.9575e+20
1.9725e+20
2.088e+20
2.112e+20
2.019e+20
2.067e+20
1.935e+20
2.0235e+20
2.0355e+20
1.944e+20
2.028e+20
2.0475e+20
2.052e+20
1.956e+20
2.055e+20
2.028e+20
1.965e+20
2.0055e+20
2.016e+20
2.1105e+20
2.0115e+20
2.0085e+20
1.932e+20
1.9245e+20
1.9995e+20
1.983e+20
1.986e+20
2.0025e+20
2.0355e+20
1.9905e+20
2.0205e+20
1.9515e+20
1.989e+20
1.9335e+20
2.0145e+20
1.9935e+20
1.9605e+20
1.983e+20
1.9965e+20
2.094e+20
2.0265e+20
1.95e+20
2.046e+20
1.9065e+20
1.965e+20
2.019e+20
2.0025e+20
2.01e+20
1.9425e+20
2.028e+20
1.9905e+20
1.9245e+20
2.0205e+20
2.007e+20
1.908e+20
1.9845e+20
1.9395e+20
1.899e+20
1.917e+20
1.95e+20
1.9725e+20
1.878e+20
1.9545e+20
1.956e+20
1.9545e+20
1.92e+20
1.9095e+20
1.9515e+20
1.914e+20
1.9395e+20
1.8825e+20
1.935e+20
1.908e+20
2.0325e+20
1.9455e+20
1.764e+20
1.863e+20
1.839e+20
1.965e+20
1.962e+20
1.9485e+20
1.8765e+20
1.8735e+20
1.791e+20
)
;

boundaryField
{
    sides
    {
        type            symmetry;
    }
    empty
    {
        type            empty;
    }
    procBoundary0to1
    {
        type            processor;
        value           uniform 1.8285e+20;
    }
}


// ************************************************************************* //
