/*--------------------------------*- C++ -*----------------------------------*\
  =========                 |
  \\      /  F ield         | OpenFOAM: The Open Source CFD Toolbox
   \\    /   O peration     | Website:  https://openfoam.org
    \\  /    A nd           | Version:  7
     \\/     M anipulation  |
\*---------------------------------------------------------------------------*/
FoamFile
{
    version     2.0;
    format      ascii;
    class       volScalarField;
    location    "0.00288/particle";
    object      linearKE;
}
// * * * * * * * * * * * * * * * * * * * * * * * * * * * * * * * * * * * * * //

dimensions      [1 -1 -2 0 0 0 0];

internalField   nonuniform List<scalar> 
600
(
140.842312482456
194.023695829388
164.824017918218
187.381805351651
165.492374480345
161.539836410921
169.142991618414
170.848835400104
151.125627124403
147.514687986846
158.335996662291
165.475889447933
178.770240993632
142.368697270631
181.871841473272
165.751092188251
178.934548570561
161.074180453824
185.869579044009
163.900378036536
177.780515184042
168.845457841558
162.233272517065
182.673885021233
161.110187883071
155.91407960483
167.156425563086
185.748022440936
199.067814563836
150.663630919752
142.210699952477
197.151969315587
174.894875167989
175.24050251698
170.706917289251
164.270691319202
159.716696314172
196.085754137091
165.252374216454
161.635726510768
184.497650285686
155.916659636279
164.965100480847
162.310223091839
163.592303490312
164.168651490155
156.924503864984
147.385325117519
169.146617747976
188.775551474698
175.914163613503
161.032136042187
157.90305457699
157.679771082339
195.180174865918
182.691962426024
171.695815757914
164.055965430817
176.077266931767
178.044690907861
162.259703131965
156.908387603492
167.315448172077
158.517031920505
158.702304502878
161.872218463414
184.23370406116
174.481363920873
169.934119421513
174.052440866571
157.521220177429
157.610401733749
161.944647980847
149.334936154395
185.429179658665
181.707227514119
145.86887888963
166.478469736537
173.662327819335
152.884557959822
155.642054529915
157.751259877041
148.064227736229
168.391646420693
161.51467070143
158.117266262334
177.372994933677
184.543899888678
153.116521471592
193.865870656161
149.198717043772
167.08825987492
171.717790994177
187.982521107242
182.560161348381
158.699041110132
181.381526916565
161.5194324415
198.954771137821
183.507299053696
165.588114804553
178.356105812716
142.907323248875
136.490531391971
179.187446001749
144.130450878097
171.093010444722
178.818983143333
160.160574531978
175.931306082694
172.659233015336
168.432269284842
167.319934359976
184.495078768555
161.944474348236
179.152390854634
141.163985398128
167.735254516042
153.128542073841
133.22533764158
178.409178668215
172.484289892604
145.69170075634
173.804786168916
136.830447677156
163.984105875206
158.117745802913
168.570254843173
187.837815335033
138.98372000927
167.891623240101
157.188407877062
133.426103401216
145.188206569896
152.716309803214
177.481233018487
145.876958729969
165.974343088879
141.893091692132
131.857560298001
158.140571216335
145.24099755317
156.848773699169
145.218312811982
151.988707137432
169.786906279921
149.317557413745
153.101832845324
137.675570577569
140.1947115741
151.592400158478
161.341375963247
144.883008361524
122.315853540201
127.219645501264
142.740368495214
145.833334509977
147.96404174569
113.283832491743
112.972498642187
161.33175857526
137.441300128173
144.665595793921
134.861089267938
123.796109915677
141.981226987198
151.365142876004
105.110598441791
122.262938697828
103.976586576628
118.947571946443
128.868487444996
115.630524127834
146.664571011513
127.509506226217
119.71804142938
120.147437102766
126.2553748995
148.513475753284
131.188847969532
126.680485433505
114.234028803655
112.896799258722
131.957074684886
109.177242682009
121.320301036038
98.2061981060986
104.165871037842
112.845748685767
105.456151559974
118.728266910813
113.664436271293
125.740336064107
105.833185217405
117.062077826671
115.103557532637
109.0958394303
114.624118015836
98.5523380900819
108.424693549032
111.68806631241
101.898617576883
109.056479604811
104.144588803022
107.183991814465
109.322348222201
93.6017455116281
106.77522085053
98.7880618401458
120.469126577903
112.936359081744
114.292273099044
90.4541088796913
118.742486556769
83.782923257486
110.44262681216
92.0645742702327
90.6286264071002
86.4873769497525
105.501644356788
110.097960673023
79.3814349244765
87.0627732516212
98.3400536329093
94.3680693759335
115.881343285244
87.1107846427795
111.124951342398
111.895232420475
98.437288400413
99.9821924448498
99.6642430751163
86.9822277568824
101.112020176095
96.2399217566748
98.4773132725749
79.030807624518
104.92738526944
86.2896777409832
82.7408648108629
92.7006482924436
95.5791801798501
83.8770088241249
111.013894723903
92.0821761639793
89.1524460049262
65.5294682776998
81.427773580007
68.9067176940835
72.3331788802358
92.637945588312
87.1307097294668
92.8005606002708
78.8451726790274
79.57983052858
93.8053527379858
84.875165101285
80.9319409401989
80.3372094754571
66.3988043931807
90.9180783548495
82.8654015007791
86.9528570208186
74.4975496691825
77.9417788218165
100.155167574032
101.223872579466
67.9364961415437
90.1214434710649
67.0839557136805
61.937041494364
77.7534503788548
79.300802679335
74.8257856191317
70.7566992544839
86.4821310276935
71.1100423422598
72.1379196146573
83.7501588381496
78.1002157819183
72.8773075760332
85.0677587683978
73.3919688646385
96.0159830263966
72.6756768619169
91.5181604227727
75.5620398019886
84.9404788643103
98.9516311880078
87.9914194768744
86.9027887842639
84.2149414532257
71.4190985306727
100.446150348607
70.430867624511
82.689215078362
99.9915917562002
84.4944825533204
85.3396122092367
76.2322632765483
83.4650858018674
86.9573808662458
86.4645278536929
82.6469723749449
85.5598348179026
83.9976621654935
72.3279273543494
67.038322624625
85.8717730152401
66.6440908714383
91.624189669402
66.4697748491532
84.3620377312988
86.1261989000358
89.7798663877807
82.3532918182224
92.4520665054176
76.4436377040651
71.1838837187357
73.2820905520067
97.9761991980788
77.8676877551171
78.6817261725009
73.2995506630503
73.2612279242618
84.9610911166905
97.4533728153115
82.4086268678938
81.4333826129037
87.5550717148462
74.9098135300091
76.8180904938976
81.8755055965727
62.3325651613383
76.6692525038616
81.6184611980847
85.4761027881748
90.0326100048049
82.8074817309329
76.82558251354
79.9694704745556
68.8800040078217
65.6925289703628
76.6236048736819
88.5364646811963
76.9101538829463
72.0713663793454
80.4992359919553
88.0803493430212
77.2707620877026
70.8912834642119
73.0972605040209
84.2294013863078
71.8045918675491
84.5482698814593
65.1852907984076
70.1567491970957
84.0272312156385
102.518451414616
79.5711958994845
78.5317357967688
73.375796694438
101.451422782388
95.6500348416776
88.4166203083372
68.8512495712306
84.5931653203377
78.2081780095651
59.9754121313654
86.0668313682908
72.2232855206979
72.3128546120179
67.3844851560086
86.2849547498427
89.8359339594781
87.612286000379
87.8326905784047
90.3982478541654
80.6409121381092
78.672312322222
72.3586434691169
82.7510200182404
74.5982374571261
79.9203708871409
82.1581914493788
68.3775074357767
77.1994352105355
86.679052030123
78.2958868318473
67.0479497076409
81.9902608731737
90.8556735716873
53.9243644855533
72.8949483613655
72.341183689226
81.745518145505
83.453376147495
72.5167089690446
90.9092819582001
69.036385642126
92.9376940560116
105.683319279448
88.0050278668345
72.6860100628831
86.6043185040689
78.9910645362215
93.0930449497192
92.4164213325665
75.7010903254141
68.6036601519709
64.1187666268212
89.3578329363871
85.2507012663594
97.6337997955785
77.3603232003571
91.0726819528441
87.8165985182803
93.624934903123
104.03443874127
84.609678323457
76.3470204191368
100.906950867243
85.8166358244381
69.8829055655653
85.8231762704764
86.5234481846873
98.7668398029723
87.2663191551751
107.447333112894
78.8708046497469
97.2746696499115
81.4772077752214
87.7696022724922
70.2577465855606
95.654037431363
85.496808628841
84.0780067656381
84.2096406186629
97.7421098726512
85.5979672149473
98.165652171999
97.0816320050051
93.5749170139691
80.9457808223536
111.092962533781
85.9886857090841
93.2413302861895
88.1908219042624
91.7283259331217
75.4153451517416
84.1474813144294
84.7881879143955
85.0403092364579
80.4364271130012
85.304806639713
92.3362137256722
99.3430219838473
83.4371313150852
77.8499087581807
85.7439765239929
97.9085064876594
89.089320962072
91.14233613515
88.5551698810841
100.033695807261
81.9451804708651
102.35662841665
79.2998311988021
79.1836419529552
94.3494786246818
90.3777418393346
101.850576893481
102.387245871176
76.9634820298002
105.404074958066
87.7567183505712
94.4585830388861
79.9881933673879
82.1746555137968
88.0636312951207
88.2653081707362
74.6121680333238
65.5890456656395
73.7871051667107
88.4026989146074
99.3286662011747
90.0983220255212
88.5540901032081
81.7924809399412
71.1422410269444
87.3466995357359
62.2964078038576
37.7574265758788
20.7389278010959
19.7659633786028
13.3910572363485
22.9530956235277
20.1217674679482
15.1786785173232
17.1990078186397
16.9757168581881
14.2993523582952
19.0734093428564
17.2102634353465
19.0019978070815
20.5183510920662
15.7345597619321
21.5962440678442
12.0031234709077
15.0508200637371
14.5264802203975
19.2783041675312
15.1951307293197
18.1015521258145
14.6642189762722
19.9307064979666
16.0576195274827
16.2580977321954
15.7889816787175
10.961747468948
12.9907370395459
16.3230316063357
13.4608941213328
17.5834271102271
16.1584432201595
17.0655640492112
16.7404565393775
16.5247773239459
18.646712688844
13.6927966775915
16.7645008051663
17.0162699811543
20.8682554099781
16.7913735271928
17.3619699704339
17.899877130828
19.3410594881933
16.9506190742271
18.909634541075
13.1034816509361
16.4693228618757
17.9620229994586
14.6366405636761
13.6486631683115
15.6630564109392
18.1938274642883
14.2890600478623
12.4590953150301
13.1315932038961
18.2647767724137
18.3292102059562
17.9103067040723
21.445296596991
14.9745320532723
16.5738527716808
16.237261283045
19.5757024020739
16.0966023356155
19.9833963817586
17.2164469071677
17.2781082308612
15.6896604376064
12.4083182994893
16.4428172539635
13.9536577718752
14.7606257830568
12.7453267941783
10.1415390313015
18.57136295773
20.5879446680796
15.4867275314916
15.7798241741824
16.4915205150538
20.9514690064781
18.2933926298727
20.4643163368718
19.9466336523852
20.6266328226285
12.6530518796813
15.9554356789032
14.2593403945553
16.3758803690472
18.8716453022217
18.4778180792443
15.1964652601117
13.7710939641776
17.2850580726168
18.1295534945663
15.4135703345757
19.6085025309935
13.7811810209743
14.121167284286
18.2739158736585
16.642893736853
18.2423221181001
19.4596338831595
20.086022537962
19.100886876661
14.818825661899
18.3102808368612
)
;

boundaryField
{
    DSMCSide
    {
        type            symmetry;
    }
    DSMCBound
    {
        type            symmetry;
    }
    nullDims
    {
        type            empty;
    }
}


// ************************************************************************* //
