/*--------------------------------*- C++ -*----------------------------------*\
  =========                 |
  \\      /  F ield         | OpenFOAM: The Open Source CFD Toolbox
   \\    /   O peration     | Website:  https://openfoam.org
    \\  /    A nd           | Version:  7
     \\/     M anipulation  |
\*---------------------------------------------------------------------------*/
FoamFile
{
    version     2.0;
    format      ascii;
    class       volScalarField;
    location    "0.00288/particle";
    object      overallT;
}
// * * * * * * * * * * * * * * * * * * * * * * * * * * * * * * * * * * * * * //

dimensions      [1 2 -2 0 0 0 0];

internalField   nonuniform List<scalar> 
600
(
903.205705869489
904.337174111414
860.038831615197
925.59101253946
918.84064211911
847.459341401285
914.903413314858
900.444617873633
875.448123505103
870.78855637424
869.722568708904
949.299586693483
967.203994108523
843.425545273148
920.848584940116
894.986478916819
882.515241594308
836.442706653008
895.95883857946
828.307047250549
926.619417360052
869.794025947524
892.966091447776
897.394258173081
850.862112493141
868.354085198404
946.634353301176
938.720828765358
929.374331100964
917.761297866068
868.898590837034
1022.62114796395
951.59299692908
873.811000399095
930.528910789652
906.91266957322
843.527650737229
997.805517351066
831.482281238607
911.444056081663
924.503211052756
852.599761427536
900.321378391395
904.60678674081
875.630992462482
897.264037635497
911.045424085531
854.815784558791
916.720068981433
871.442657871149
903.884597260292
905.073836339641
939.452634302131
820.498742025963
881.272895585459
926.253463115844
916.639248763171
929.373137805812
903.938985154504
961.208204072312
914.795740890682
922.41743452623
918.608957627459
893.23776855391
889.705178471738
874.952260364798
930.833842124394
882.137224547527
922.627647778914
887.456567977834
859.69305917573
880.231664290161
898.860205881151
880.894788281706
899.701335274437
941.901368386503
815.279988553226
844.706787878347
921.451382323033
908.858098939345
907.363704616151
894.708628117644
855.159694415273
921.52207132295
855.968953700538
846.753469902633
879.65074830026
945.924027882036
837.41402228397
972.031183463547
861.71539418712
899.715476595191
934.839397514867
968.166731986745
971.905780774852
940.319280187602
875.663944997812
901.421733828184
984.521710683505
934.449072510948
898.912644001758
883.960047694836
844.431123046762
889.551115266019
895.145542995908
858.30701215153
847.267786646713
934.595506957959
877.047582728805
917.149618586221
874.11120689753
905.994266648682
907.555023923445
969.147988298178
929.332351916026
877.356778131643
816.544984653932
976.647508855593
838.721779295911
895.496508697836
847.501925584468
921.12981040461
894.188375498481
885.225264400157
839.820580930307
921.925049599966
871.298188359548
852.8723830997
946.949280412095
799.523349369997
862.183205652028
897.552322752689
781.982846728046
844.76224932256
848.221835754969
943.283457309542
836.70729001185
893.36545153729
846.581910150189
877.666864484569
940.85777597804
862.831177907242
904.279553954811
845.462628671581
848.495312076144
871.1829829747
874.892839122755
879.443150158145
879.078005327433
806.330010842037
791.3992201729
919.263167693314
814.302865158997
834.06796076471
846.332018054728
810.770246532539
861.341906411751
798.751901816994
742.053970451683
800.00327764777
882.496432720003
820.760678447172
831.748877000453
919.84190067328
821.294076555676
812.745871250518
829.885419733752
817.386519110338
781.498324528418
740.304206053777
814.97616599654
818.98912769822
777.590011177724
866.386040682631
846.02581100108
775.757937067068
780.895669124211
842.97220152079
872.638865724718
845.304396652465
813.435743720874
805.176584569645
813.427820550956
831.235805755379
792.4461601914
785.192636206641
765.497415940282
830.556013002084
786.889359551566
757.922563535805
813.916163841914
756.294650610052
767.103022782152
769.974187645029
778.098640808744
782.283671879319
789.879124095809
798.26774776774
787.206097499029
719.258705684417
793.554427572095
752.336966819785
762.5619183154
712.877483112156
788.876984306153
749.452106668445
689.891401689531
751.008519209975
774.482610502021
791.420080563148
806.204504391679
788.366008027581
778.514693526869
795.254505213894
692.054466572148
694.458012765723
735.964996997994
725.127255149016
748.265533598354
819.042597540433
756.392214016276
689.67670122017
711.906471350721
746.298259629428
723.892522186849
754.521342545749
765.511919424847
757.472124810382
799.751636374379
728.538561892877
691.925424380015
718.085946930105
761.99369664476
820.205245361083
692.090297688338
733.207987256207
724.743239658222
781.157862972937
711.443076216172
716.225789489124
716.014200931194
720.357637580607
708.360901828217
737.19226125852
740.058475662908
726.762132896762
584.453738150355
681.517770363795
603.673257695175
658.228906883852
714.559381851984
760.734905207664
635.82819406162
790.231044834221
651.74506429213
679.615905114905
725.713845018909
683.326756476056
666.144614062382
669.815614080175
727.477654842359
691.526324689652
731.047188335828
682.4893455368
713.696629150114
736.088151452916
764.690580611523
678.629468510094
700.408222556243
668.691747805839
619.514978883868
699.698990514614
672.411592025915
689.164060569683
638.614967518207
700.546283099231
660.705180245409
697.421913800633
638.352953410967
681.26081642664
684.520703944491
679.137028572374
680.004163041295
710.552466378668
644.82680158721
654.085507969394
618.434825257303
620.034658413138
688.030860473462
720.48865450948
691.147384405768
769.171439793448
625.804589772401
696.444660782443
659.907118681227
672.36964115249
733.206118873198
728.623403130365
647.925146720802
653.751746416147
661.541424366877
682.648404047018
665.548945191707
625.888988629965
679.689132708511
715.950708963956
644.877488686798
613.833877133741
659.75733738164
687.50980156146
704.823096494257
631.241284588578
739.212036908385
662.426949358654
688.7274364734
627.473954099229
658.796876646604
623.410499447881
681.257889955766
594.378992805976
746.669335729578
739.448412945892
677.358653129687
664.479480963865
623.044836198705
642.928446614804
725.212377559891
736.564946912093
695.290663775999
690.085831389203
668.427567465306
658.049699246037
690.041628643533
695.153132417642
625.249062665669
725.74899223208
756.89577125058
657.520601715301
705.346346453685
697.676406841878
681.103971774419
671.254942145632
613.239619065053
650.733903358673
672.764892572692
650.775766863014
675.374114802248
698.291422056017
689.311895226601
666.286843445839
664.33515718173
616.86102335492
621.765991824149
684.109745992363
677.261323036104
596.859869377626
619.029752161892
698.103546971716
731.078053418125
654.660061426118
670.346501214918
695.201761881164
751.477352689915
721.292719685121
694.977783220915
650.809856933325
682.684380946607
701.563935812261
647.823044858006
687.844037380374
683.641109335332
684.312333673277
672.662040741973
644.965045997364
756.841827299628
664.088299821884
708.241325860382
657.185346712384
664.305907368494
695.250315787232
695.176445588027
715.846751474348
702.142915144548
705.771739688959
638.723094374537
664.325467481435
676.008932355299
683.696168796413
675.980217611761
643.875700205114
661.126845755165
757.953811633001
642.078395732813
628.756850365542
583.411653922004
634.7259963053
682.542461748351
710.456667767308
593.934129341612
609.014456635516
723.661547279511
677.654070682661
722.71786926507
644.393401228587
639.628418263547
648.045488292575
642.01915108999
661.784622406895
623.002549032808
665.037051924101
567.268886202228
588.92316028541
619.371654365682
593.570062701041
547.512147065014
570.347912499745
488.032111108045
525.440925822415
513.904713700255
548.450769860276
512.496087037569
518.070622755698
502.218702033236
501.153871185813
511.083687290744
449.680527449862
496.949560115992
509.273887745786
527.226150437463
420.17243244074
483.816610807717
489.95485320694
482.5019229974
460.002640678118
466.604484319641
486.814845567967
482.808217438023
486.048565136836
478.79188451967
461.865370569024
477.69878944647
483.874138994892
462.637068881164
497.796782225273
497.322668386569
467.268806567805
477.448549246643
487.68308450042
491.921029650633
461.491198577287
425.44029261141
476.11305475378
506.042865069323
411.005956233794
405.363575770401
472.316097703479
484.278029770757
495.804073313877
507.871429351545
482.340384881324
446.485710452464
449.711705206114
475.682773850047
478.456634242442
471.524471902075
484.068204106836
494.474402768505
478.820628181323
503.886558151352
464.756133136566
452.489705431609
474.914373626049
463.209556151967
485.932053072002
501.547250543789
489.994062171541
493.865834927089
487.223138125749
481.901999821105
443.047756436271
445.370617918014
435.154760747413
461.864111517522
436.001294468265
506.182217720182
469.213139777052
474.121756509921
487.702975615932
468.480031662582
475.885828739737
505.797939693281
432.818145003806
410.997962502605
318.913294397133
311.795568916055
287.98797857268
347.667136476719
337.189020433651
286.59392840381
320.099531033345
330.111169435581
331.548338063158
305.966732998325
334.669824867792
318.313153445808
324.807187505469
264.936870287316
307.823914396392
289.910884165309
301.150112732622
279.391282035958
328.119522137782
285.521938029811
300.168034939191
233.297925628164
333.310235669886
271.329996473753
287.777405211395
289.902779190846
255.798481833033
245.702076312723
304.072164650842
301.238399551762
301.21303056661
287.414847718384
288.052552882993
322.300641869106
355.269508589504
335.410398279742
281.907423423603
324.09416520791
292.027353986665
305.435130613278
306.898951270245
296.832262629183
283.694862473845
345.682850193095
308.667477064446
332.840285897875
296.942087210342
303.067346678287
330.099717643196
269.707249574296
296.884983520739
316.8670042078
293.154598808238
316.610503795575
280.118876234129
249.306249776675
298.668855637246
302.343766455875
302.565526514768
306.890552613917
286.623325798903
299.569467507931
303.747899814166
326.434251334554
278.046218362146
274.509582737582
291.146277755197
309.425204258583
348.470704705278
281.472787414087
327.213091529947
290.830604771186
284.38194843738
275.923479409597
318.064749540469
349.047092837856
302.084456289545
296.162064878554
307.300038757414
322.667995788207
293.471822037062
297.535688500783
309.186686204756
290.277421063411
307.121939030911
252.403518251654
312.558045019954
313.80037297384
314.109494827215
319.191961691396
297.969402805498
284.404269341971
297.164504670203
312.924564104537
280.960783289955
311.243743783606
318.070642485659
262.761325166187
320.932378091191
327.97689250453
347.490089623707
340.006724555103
315.456411453347
333.191472331361
312.202649690523
240.5672374861
318.530231512392
)
;

boundaryField
{
    DSMCSide
    {
        type            symmetry;
    }
    DSMCBound
    {
        type            symmetry;
    }
    nullDims
    {
        type            empty;
    }
}


// ************************************************************************* //
