/*--------------------------------*- C++ -*----------------------------------*\
  =========                 |
  \\      /  F ield         | OpenFOAM: The Open Source CFD Toolbox
   \\    /   O peration     | Website:  https://openfoam.org
    \\  /    A nd           | Version:  7
     \\/     M anipulation  |
\*---------------------------------------------------------------------------*/
FoamFile
{
    version     2.0;
    format      ascii;
    class       volScalarField;
    location    "0.00288/particle";
    object      p_Mean;
}
// * * * * * * * * * * * * * * * * * * * * * * * * * * * * * * * * * * * * * //

dimensions      [1 -1 -2 0 0 0 0];

internalField   nonuniform List<scalar> 
600
(
93.6222188562997
128.938804207232
109.521687472969
124.726886841135
109.348812843916
106.777458199733
111.821505531617
113.311713793616
100.277269235671
97.744284157746
104.868274503193
109.965667648495
118.969664621329
94.7137123085315
120.459879548724
110.063124313901
118.924287069052
106.079389006186
122.664941250361
108.992590938588
118.386134266345
111.857074579584
107.505994935643
121.678732840833
107.195288564028
103.699458548045
110.657123924769
123.607557471822
132.597221584323
100.26522833131
94.5681644417809
130.551391510171
116.32842333473
115.691327678112
112.636041660396
109.325283066458
106.386223439021
130.465901602878
109.467738749999
106.937672520961
122.808667180842
103.470756439374
109.686070890224
107.957574357483
108.086008121511
108.693965240191
104.121106574814
97.3243663324159
112.387692139777
125.579884662195
116.513354813275
106.513457697763
105.177531968037
104.910301100264
128.276036676649
121.593098078854
113.888831424235
108.803952281093
117.187516333196
118.454196382765
108.129288147507
104.464117330857
111.112467895902
105.496106538626
105.551792755511
107.748701775839
122.575678193321
116.282139088379
112.803560890261
115.788010154003
104.618164327001
104.278566069552
107.757470400378
99.3848665968189
123.247273080462
120.590154454674
97.2077851336345
110.692423161865
115.147472747012
101.204050119241
103.564226499427
104.749165521115
98.3851667178397
111.962097827653
106.751105414497
104.251074078831
118.045307249929
122.969819102898
102.024981366307
128.778570311682
98.4039958392323
110.3380618324
113.621315806099
124.784910989907
121.485994123413
105.595012698085
120.704361716938
106.143028268903
132.353801923585
122.269475226817
109.690093065872
117.828543974482
95.1799147231446
90.5833469095415
118.175980941889
95.9435949908504
113.613965981897
118.541200485478
106.249134025087
116.85077186363
114.507891433225
112.023201857832
110.144900838097
122.80449820687
107.725555819161
118.82642530818
92.4920061729211
111.672379193184
101.875663697156
88.3428105053749
117.5686990956
114.861907935429
96.8861230856905
114.803426733618
90.6924863028558
107.892259950356
105.253089653588
112.234605963112
124.13884449719
92.5571551593686
110.863223514216
104.060978833333
88.8157949399986
96.5161009895589
101.560851796019
118.202710425738
96.6731050952216
110.079143514207
93.500446111167
87.5652191709015
104.133721589316
95.0569073681723
104.067075148832
95.4904194728945
100.634994638853
110.403800649313
99.1563398503712
101.551439849093
91.1380884663723
92.9969021544792
99.9783024342829
105.235434088427
94.7623842545961
80.2333535875585
84.2590100545098
94.3478481738623
96.3659829469644
96.6352340358175
73.2476385838638
73.6152436923047
105.232328268355
89.1755458740042
91.8890077422323
88.3128652364151
82.0121452308111
90.4106206235178
96.718212012927
68.073220984039
78.1229750713406
69.0376394816469
76.7456831602704
84.1084235720594
75.3099729236459
94.5315219140182
82.5768763885789
76.791902660944
77.2070893313035
79.4213214037949
96.5255838614448
86.5650390577871
81.595926545188
71.6489055899891
71.1445257039351
84.8048801437336
70.6688275291017
77.2281593694432
61.0930350255587
66.5341228207436
72.8822191264304
64.8190799474929
73.9339423470204
73.5308468518252
79.0851352606295
67.0056237810715
73.1105548246384
69.8003713414879
66.0453961483291
72.1932382685556
59.1786609659767
69.6154323131343
68.2996527711891
64.2128781963225
68.5678495200568
62.6943016169168
64.1158854091935
69.1421673094761
57.1989215943881
64.9723041337278
61.4261266556957
71.3499475741415
66.5537180746204
71.3760447793177
53.9937290971751
73.5419172829772
49.8717012087206
68.0275999304379
55.9545274872929
55.1685174244615
53.0617126600531
63.8562351238034
63.5377812792917
45.1447061754312
52.0261924107804
58.1149170524064
56.2133003152286
67.0304790952581
50.0493293209036
63.8396546362485
67.272644915021
59.8956583990956
56.4646711933463
54.7446282477703
49.8240558411686
57.4685759612836
54.725585504798
54.6501413810394
45.8104623128992
61.2836433414827
49.9463987716985
48.1831071791247
50.8470108544805
54.09832836535
47.4603235865718
63.8648503256287
52.969405012168
52.401260699759
37.937390618751
42.4729337769635
38.8408336452919
40.7981130024558
51.8392505088951
46.6330059431801
49.8332270432505
41.9514497992193
39.8879116181687
48.5558149598418
46.0901028648074
43.9082441614551
43.9847933777296
38.4642161364279
49.5660130313738
46.9765826333464
46.5525373841409
39.1747035912393
44.3902851442124
56.0625388721912
55.361647043367
35.8975844878275
46.5306055601943
36.442631468044
33.5903306557637
38.3123398830857
43.3560561950921
40.8620279751592
38.4512335821121
40.8997346045284
40.1802170010372
36.7849893111275
43.5714465706883
39.4027468356352
39.4765996599046
43.6479770040125
38.8939783327186
51.8921523664822
38.0077583691223
47.9359602802617
36.208591283378
43.5354179487164
49.6245890436937
47.8837803453139
46.4674378363885
45.7438568181314
35.8484185624237
53.3230666500825
40.45977654446
43.5405807721257
50.6346892714294
46.7160776757487
43.0972079618411
41.4802840828465
44.9407538064731
46.0735680123152
41.9264220139899
43.3109022159049
46.3319459932856
44.6305602561692
35.6576463707137
37.2684255144434
44.069390825241
37.9339166710354
51.3787668416033
35.8435622402248
46.2476080829242
41.047063991541
46.772244848318
42.3125756890196
43.7754038091803
40.7079340653914
36.623041499983
37.5910367196389
53.3719878672847
42.8543058814681
40.3552936287002
37.5002136724671
37.242121561779
43.1650712745081
53.6708416481877
45.5300224952577
43.9688628404078
47.1988900137321
40.9034610786317
40.4843381355558
42.2940627803441
33.6169115280968
40.6260538408488
43.4737195042698
46.7064958929104
44.1827899895325
45.7545004158267
36.9692604713631
42.7277609077038
36.7744818634483
34.4741810421099
39.6570532151306
45.9448687352968
40.3051517837548
38.7407662580815
46.5832798531779
47.9212555981056
41.4838067667927
37.9788621877936
36.2638658275143
42.4763912755061
36.599688261242
42.8406450560363
33.7113319598775
36.8715358491449
41.4060185452426
52.4104941519033
38.5469364604934
39.0931381603345
41.2494087436436
53.972194006204
46.3894727344565
47.4416760866686
38.2693327526943
44.2485327619156
40.2071493062819
34.8933854941707
48.6393310376403
37.5177838973359
37.4623867128575
34.3032007794997
41.171461385532
49.5854419041225
46.9452848610429
46.4948076811655
45.8870382493962
40.8390182289541
41.244978455379
42.3716556695859
43.719698332021
40.3523546490415
42.1041057120073
42.2690975464989
38.4344156650189
43.8207020987413
46.27252230518
40.1509376658044
34.2577922413053
41.8704914859234
47.6459196021314
26.8420913547418
40.7669230636335
33.8667060473629
42.6526502278677
45.0253425247931
40.0848614243113
45.6277375442561
34.9503568509905
44.9367124204345
56.6070461201821
49.5454709768823
37.0792780229816
46.1035970047133
41.6766171527274
48.3951211172813
45.1459510033437
42.4620621487967
37.7715235739644
34.0945475953028
45.3401910100129
40.2541694028317
48.4831218902266
41.1288725206443
47.2884116723483
41.1967730959134
43.7115606089884
49.6306006120098
45.7518375585423
38.2055340236384
50.2991281089067
47.1130364401276
36.0089943310373
40.125862231173
42.2727784120739
47.1540469191561
44.597239010519
52.6600584940228
37.9272779897525
47.7907891510927
40.0167049904876
43.7449834758477
34.4587792728047
46.1352309030179
43.0756008923085
41.4110968986117
44.3328150470868
48.2207613434708
40.5074412386748
45.7319786558213
42.9027227711911
42.1989287816336
39.4258883759543
48.7630079547903
39.4162250256268
46.3812774605183
41.8903161994369
45.9356718531579
34.8772379764278
41.1056918475466
39.9971821432061
45.3849152982679
38.0759472367323
37.084558955926
42.5681003682399
44.6848410632315
42.0932973604602
39.0670980576155
43.353797293139
44.6112009211732
41.6666160527937
45.9118312720998
43.0809296538618
44.1983275703665
40.5777918020568
53.2620749084697
39.1041928748841
39.3589617983365
44.474449923559
42.1599563759046
42.496152654502
47.9384336862437
38.1404437725489
50.489215393659
45.3031411744203
46.0247470760421
39.7394185641037
39.4683068629104
40.3336925578635
40.4623030368604
36.2398450527525
32.4402092268641
35.4399208901562
43.3002018962331
49.7973532186869
43.3659434061611
42.5049438805381
39.131912581279
33.733351260403
43.9125484171118
31.6558665577056
23.1707344185329
13.7028136302861
12.2880570365489
8.8432629165243
15.0067901095338
13.3543344708904
9.96284581032853
11.2655674430211
11.1432841728031
9.23766957111381
12.583848058659
11.395764545655
12.525216962695
13.4150390551181
10.3657368825159
13.9872607501671
7.96325683769789
10.007563858877
9.49366195370447
12.8263281432099
9.72040497588336
12.0132783693921
9.04967190541639
12.9761446775872
10.5582272047189
10.5578940206253
10.4469006863969
7.10535223239995
8.5498690028751
10.7128249513026
8.93950009786195
11.0960651504113
10.7142662996901
11.2533972879917
11.0495981138835
10.8181105133557
12.3153531957587
9.09116271108496
11.1141579096374
11.3257602726791
13.6208424554484
11.0512065527437
11.4522392489301
11.8348523223923
12.8401092536926
11.0954593548773
12.5523458293964
8.68925139796161
10.9289809722011
11.818499413863
9.52158305526214
8.8919649934005
10.4093254936803
12.1020545091968
9.44017868581689
8.2216433703099
8.6211420895864
12.0553445018376
12.1319745044822
11.7519053170849
14.0271235993205
9.76907628018509
11.0404539096168
10.7763226789579
13.0361112733099
10.5911327253451
13.0575771874247
11.1017108040913
11.2028769218141
10.364315051593
8.24930053995072
10.807073980632
9.18137368562151
9.7646162044696
8.3850946871883
6.56819542513503
12.1612839518049
13.5173868676453
10.2326522103952
10.4554599452643
10.9454233856403
13.6263273505683
12.0199612499395
13.4404515720392
13.1418315500441
13.3752351835043
8.27610985991646
10.4962401804868
9.38815718813818
10.8754343626882
12.5395224987666
12.2303835331706
9.85264294152661
9.13966433790626
11.3819170347457
11.869148363848
10.2286709395914
12.943008159016
9.16712756052284
9.30679757961274
12.072500427914
11.0284940085134
11.9254094985538
12.8115511239044
13.1998545028314
12.6696822899754
9.70486442283908
12.1439273991517
)
;

boundaryField
{
    DSMCSide
    {
        type            symmetry;
    }
    DSMCBound
    {
        type            symmetry;
    }
    nullDims
    {
        type            empty;
    }
}


// ************************************************************************* //
