/*--------------------------------*- C++ -*----------------------------------*\
  =========                 |
  \\      /  F ield         | OpenFOAM: The Open Source CFD Toolbox
   \\    /   O peration     | Website:  https://openfoam.org
    \\  /    A nd           | Version:  7
     \\/     M anipulation  |
\*---------------------------------------------------------------------------*/
FoamFile
{
    version     2.0;
    format      ascii;
    class       volScalarField;
    location    "0.5";
    object      alpha.water;
}
// * * * * * * * * * * * * * * * * * * * * * * * * * * * * * * * * * * * * * //

dimensions      [0 0 0 0 0 0 0];

internalField   nonuniform List<scalar> 
2268
(
1
1
1
1
1
1
1
1
1
1
1
1
1
1
1
1
1
1
1
1
0.967004
0.942063
0.959865
1
1
1
1
1
1
1
1
1
1
1
1
1
1
1
1
1
1
1
1
0.992655
0.942064
0.995025
1
1
1
1
1
1
1
1
1
1
1
1
1
1
1
1
1
1
1
1
1
0.954971
0.995083
1
1
1
1
1
1
1
1
1
1
1
1
1
1
1
1
1
1
1
1
1
0.997295
0.998738
1
1
1
1
1
1
1
1
1
1
1
1
1
1
1
1
1
1
1
1
1
1
0.998944
1
1
1
1
1
1
1
1
1
1
1
1
1
1
1
1
1
1
1
1
1
1
0.999021
1
1
0.999999
0.999999
0.999999
0.999999
1
1
1
1
1
1
1
1
1
1
1
1
1
1
1
1
0.999028
1
0.999984
0.999962
0.99996
0.999969
0.99998
0.999988
0.999994
0.999997
0.999998
0.999999
1
1
1
1
1
1
1
1
1
1
1
0.99904
3.01836e-16
8.67735e-16
4.27016e-14
1.05776e-12
8.88338e-12
3.7442e-11
1.0688e-10
2.44472e-10
4.94769e-10
9.58515e-10
1.92382e-09
3.88097e-09
7.06778e-09
1.23803e-08
2.49441e-08
6.30151e-08
1.66534e-07
4.43815e-07
1.01331e-06
1.01788e-15
1.76105e-14
3.60519e-13
4.42716e-12
2.81091e-11
1.04464e-10
2.68014e-10
5.64599e-10
1.18038e-09
2.89572e-09
7.60602e-09
2.06145e-08
4.80785e-08
8.80944e-08
1.2972e-07
1.82518e-07
4.09101e-07
1.01159e-06
1.7258e-06
1.1515e-14
1.36346e-13
2.72414e-12
2.78597e-11
1.39807e-10
4.35512e-10
1.08094e-09
2.1511e-09
3.60991e-09
9.89748e-09
2.85305e-08
7.48833e-08
1.99297e-07
4.19938e-07
7.55947e-07
1.42004e-06
3.7253e-06
6.89269e-06
1.11513e-05
3.33149e-14
6.15042e-13
6.49961e-12
3.82582e-11
1.33316e-10
2.87088e-10
4.58481e-10
1.37276e-09
2.51911e-08
7.67241e-08
1.32086e-07
3.00272e-07
6.94022e-07
1.29463e-06
2.51821e-06
7.06189e-06
1.97067e-05
4.64792e-05
7.20841e-05
6.23709e-14
5.55198e-13
7.72057e-12
7.04357e-11
3.10662e-10
6.41725e-10
7.90652e-10
1.46539e-09
1.2288e-08
8.19669e-08
6.26598e-07
1.33842e-06
2.53451e-06
4.29385e-06
8.77147e-06
2.49397e-05
6.96004e-05
0.000192274
0.000310902
8.36513e-14
6.16841e-13
8.44872e-12
1.13038e-10
4.80692e-10
7.70589e-10
1.01438e-09
3.95859e-09
3.56568e-07
2.04104e-06
2.24379e-06
4.09818e-06
6.65264e-06
9.86055e-06
3.01295e-05
7.74019e-05
0.000190116
0.00056093
0.000987912
3.4661e-13
3.76774e-12
1.07635e-11
7.67768e-11
4.52182e-10
9.03853e-10
2.29234e-09
1.75356e-08
5.97177e-08
1.10749e-06
9.948e-06
1.39632e-05
9.4102e-06
3.09786e-05
0.00011105
0.000265038
0.000517495
0.00139473
0.00256854
4.25022e-13
1.95151e-12
5.98943e-13
2.31747e-12
8.44674e-12
2.50781e-10
1.72481e-09
5.06688e-09
3.44408e-11
7.41172e-08
1.5075e-06
1.23199e-06
2.62962e-05
0.000207187
0.000667362
0.00127107
0.00160513
0.00263878
0.00566925
0.979813
0.957302
0.944426
0.95067
0.963309
0.976354
0.987074
0.994931
0.999334
0.999931
0.999957
0.999978
0.999991
0.999998
1
1
1
1
1
1
1
1
0.999617
0.324996
0.277609
0.255752
0.274836
0.312308
0.359412
0.414066
0.47914
0.557319
0.641933
0.719537
0.798357
0.874995
0.942175
0.988404
0.999999
1
1
1
1
1
1
1
-1.29279e-09
-1.0409e-09
-1.03624e-09
-1.12236e-09
-2.30798e-09
-7.27379e-09
-1.22348e-08
-1.13827e-08
-3.95994e-09
0.00670637
0.0352954
0.0783189
0.14092
0.241077
0.417723
0.669657
0.929466
0.999999
1
1
1
1
1
-2.05796e-09
-2.63587e-09
-3.65307e-09
-4.15044e-09
-9.07498e-09
-3.38641e-08
-6.8526e-08
-9.45386e-08
-1.01215e-07
-9.05894e-08
-6.9652e-08
-4.67838e-08
-2.73838e-08
-1.33924e-08
-4.00427e-09
0.0136749
0.086591
0.261069
0.596886
0.989507
1
1
1
-1.78828e-09
-2.66001e-09
-4.56263e-09
-5.32443e-09
-1.14887e-08
-4.0344e-08
-7.78837e-08
-1.05662e-07
-1.14577e-07
-1.06156e-07
-8.72565e-08
-6.50073e-08
-4.44376e-08
-2.80625e-08
-1.63878e-08
-1.34333e-11
3.32706e-07
3.61578e-06
0.0166403
0.149217
0.430053
0.736398
0.964561
-1.08155e-09
-1.67347e-09
-3.19067e-09
-3.93406e-09
-6.59236e-09
-1.77228e-08
-3.17398e-08
-4.22948e-08
-4.63385e-08
-4.41977e-08
-3.80109e-08
-3.01666e-08
-2.24524e-08
-1.58476e-08
-1.06721e-08
-4.28185e-10
-3.20413e-09
3.60097e-09
3.8587e-07
4.87851e-06
0.00110582
0.0428193
0.155963
-4.85328e-10
-7.26762e-10
-1.49173e-09
-1.93987e-09
-2.239e-09
-2.42312e-09
-2.50674e-09
-2.50498e-09
-2.43416e-09
-2.31079e-09
-2.15042e-09
-1.96634e-09
-1.76906e-09
-1.56618e-09
-1.36228e-09
-1.1598e-09
-1.30486e-12
-1.59317e-10
-1.19547e-08
-2.45193e-08
5.46446e-09
2.34835e-06
1.05449e-05
-1.75228e-10
-2.47309e-10
-5.02156e-10
-6.9224e-10
-8.32949e-10
-9.28359e-10
-9.83809e-10
-1.00549e-09
-9.99844e-10
-9.73005e-10
-9.30569e-10
-8.77097e-10
-8.16155e-10
-7.50475e-10
-6.8149e-10
-6.09889e-10
-5.36979e-10
-4.55553e-10
-3.86262e-12
-8.9157e-11
-6.27904e-10
-1.15751e-08
-2.31931e-07
-5.05347e-11
-6.52241e-11
-1.29413e-10
-1.87449e-10
-2.3321e-10
-2.65525e-10
-2.85475e-10
-2.94919e-10
-2.95748e-10
-2.89638e-10
-2.78182e-10
-2.62634e-10
-2.43855e-10
-2.22912e-10
-2.00063e-10
-1.7538e-10
-1.4984e-10
-1.24267e-10
-8.91907e-11
-2.45532e-11
-2.08873e-13
-3.33155e-11
-6.28519e-11
-1.17076e-11
-1.34719e-11
-2.6348e-11
-3.99631e-11
-5.14122e-11
-5.95391e-11
-6.43433e-11
-6.62384e-11
-6.56193e-11
-6.27928e-11
-5.81721e-11
-5.22981e-11
-4.50768e-11
-3.71652e-11
-2.84604e-11
-1.77323e-11
-6.48165e-12
2.1577e-12
1.77424e-11
3.1955e-11
5.15162e-11
5.18515e-11
5.32811e-11
-2.38196e-12
-2.40351e-12
-4.50232e-12
-7.35992e-12
-9.97465e-12
-1.17336e-11
-1.25581e-11
-1.25452e-11
-1.17559e-11
-1.02362e-11
-8.07215e-12
-5.90492e-12
-3.21602e-12
-3.54522e-13
1.57418e-12
5.71201e-12
1.19963e-11
2.06641e-11
3.00002e-11
3.84584e-11
5.15597e-11
8.82121e-11
1.76093e-10
-5.34688e-13
-4.80086e-13
-8.34393e-13
-1.50407e-12
-2.13921e-12
-2.48988e-12
-2.53458e-12
-2.32318e-12
-1.87394e-12
-1.23088e-12
-3.33222e-13
1.5968e-13
8.53202e-13
2.04145e-12
2.56585e-12
2.29664e-12
2.29023e-12
2.68399e-12
4.16398e-12
7.0995e-12
9.85996e-12
1.07928e-11
1.11424e-11
-1.45574e-13
-1.27722e-13
-2.13909e-13
-3.94669e-13
-5.47617e-13
-5.96124e-13
-5.48062e-13
-4.30448e-13
-2.55954e-13
-7.5762e-14
1.88437e-13
3.45484e-13
2.28158e-13
1.12411e-13
1.47731e-13
1.20654e-13
1.46817e-13
2.37803e-13
4.14882e-13
6.80145e-13
1.00133e-12
1.33344e-12
1.70956e-12
-3.94995e-14
-3.54828e-14
-5.91918e-14
-1.04544e-13
-1.35307e-13
-1.33565e-13
-1.06865e-13
-6.77065e-14
-2.04229e-14
4.51323e-15
9.02359e-15
4.63987e-14
1.98632e-14
8.18868e-15
8.00936e-15
1.01127e-14
1.76338e-14
3.35089e-14
5.56706e-14
7.93029e-14
1.04641e-13
1.38982e-13
2.16347e-13
-9.23182e-15
-8.4048e-15
-1.38685e-14
-2.31525e-14
-2.77159e-14
-2.44834e-14
-1.63527e-14
-7.68861e-15
5.79648e-16
5.90562e-16
5.15357e-16
4.68063e-16
4.40104e-16
4.82461e-16
5.87779e-16
8.81268e-16
1.62278e-15
2.786e-15
3.89989e-15
5.28333e-15
9.12373e-15
2.35372e-14
8.80214e-14
-1.78009e-15
-1.61979e-15
-2.61619e-15
-4.08674e-15
-4.50166e-15
-3.51865e-15
-1.85809e-15
-6.2596e-16
-9.13825e-19
2.85681e-17
3.68089e-17
4.09711e-17
3.97341e-17
3.65048e-17
4.06682e-17
5.4873e-17
8.21912e-17
1.1692e-16
2.0173e-16
6.72553e-16
3.79643e-15
1.91713e-14
1.31991e-13
-2.64462e-16
-2.37243e-16
-3.71643e-16
-5.39189e-16
-5.45212e-16
-3.73844e-16
-1.46438e-16
-3.71314e-17
-3.55928e-18
1.51612e-18
2.69595e-18
2.84971e-18
2.44422e-18
1.80905e-18
1.92248e-18
2.31527e-18
3.28799e-18
8.27217e-18
5.15669e-17
4.30174e-16
3.69587e-15
2.88768e-14
2.92895e-13
-2.67752e-17
-2.33916e-17
-3.52523e-17
-4.73299e-17
-4.39756e-17
-2.63515e-17
-7.58555e-18
-6.99651e-19
5.62121e-19
1.53762e-19
1.60434e-19
1.60877e-19
1.19996e-19
7.19579e-20
7.25515e-20
9.83457e-20
3.67549e-19
3.48684e-18
3.73637e-17
3.65826e-16
4.05053e-15
4.76531e-14
5.48811e-13
-1.37791e-18
-1.15967e-18
-1.66941e-18
-2.07948e-18
-1.78507e-18
-9.39068e-19
-2.84118e-19
-4.6704e-20
7.76183e-21
6.01432e-21
7.0522e-21
6.72003e-21
4.46806e-21
2.29755e-21
2.83988e-21
1.36614e-20
1.81453e-19
2.42197e-18
2.75476e-17
2.90341e-16
4.32525e-15
6.56727e-14
7.98864e-13
-6.20477e-24
-2.30925e-23
-5.18412e-23
-3.61089e-23
1.19665e-24
3.74812e-22
2.19724e-21
1.74942e-21
1.51013e-22
1.86984e-22
2.1321e-22
1.91421e-22
1.12772e-22
6.98669e-23
3.62486e-22
6.26083e-21
1.0273e-19
1.42067e-18
1.71029e-17
1.91681e-16
4.08884e-15
7.60762e-14
9.57549e-13
-8.31916e-25
-3.0658e-24
-7.14632e-24
-5.26219e-24
-4.50114e-25
1.11537e-24
2.3257e-23
2.11709e-24
3.04847e-24
4.11845e-24
3.89447e-24
2.92078e-24
1.5885e-24
6.86443e-24
1.43488e-22
2.75741e-21
4.51884e-20
6.73253e-19
8.49673e-18
9.91198e-17
2.75404e-15
7.82635e-14
1.00841e-12
-5.59017e-26
-2.04454e-25
-4.92648e-25
-3.58978e-25
-3.9422e-26
8.51552e-27
3.00259e-26
7.22281e-26
1.00731e-25
9.01089e-26
5.01629e-26
1.73833e-26
8.39037e-26
2.22294e-24
5.04698e-23
9.52784e-22
1.6822e-20
2.64938e-19
3.3979e-18
4.03541e-17
1.58755e-15
6.00282e-14
8.59353e-13
1.48279e-57
0
-3.07075e-43
1.79068e-33
5.25676e-30
7.2304e-29
7.31649e-28
2.18163e-27
3.29024e-27
2.99077e-27
1.64168e-27
1.11635e-27
2.52818e-26
6.68673e-25
1.4624e-23
2.96386e-22
5.46032e-21
8.90799e-20
1.12079e-18
1.31917e-17
7.52135e-16
3.5934e-14
5.90686e-13
-2.87579e-44
-4.07983e-42
-3.67617e-45
1.95933e-41
2.78851e-37
5.38725e-33
3.30998e-31
1.94323e-30
4.48296e-30
6.22832e-30
1.06023e-29
1.94846e-28
6.41453e-27
1.6658e-25
3.95115e-24
8.20218e-23
1.55961e-21
2.59044e-20
3.0947e-19
3.54786e-18
2.82603e-16
1.98989e-14
3.98892e-13
-3.52904e-45
-6.33378e-43
-4.45523e-43
-6.16475e-52
2.79591e-41
1.0603e-36
1.11797e-33
1.97645e-32
7.94073e-32
1.6311e-31
1.33621e-30
4.94331e-29
1.43646e-27
3.96301e-26
9.5645e-25
2.01238e-23
3.89684e-22
6.47651e-21
7.24491e-20
8.08332e-19
8.84174e-17
9.72437e-15
2.43545e-13
3.4562e-47
4.13114e-48
-2.03309e-54
1.14883e-46
1.82388e-43
8.64818e-40
8.31843e-36
2.84566e-34
1.33538e-33
6.96692e-33
2.70298e-31
9.43477e-30
2.96597e-28
8.27408e-27
2.03477e-25
4.26777e-24
8.28327e-23
1.36244e-21
1.45766e-20
1.65453e-19
2.35377e-17
4.36539e-15
1.34888e-13
5.87593e-48
4.61439e-50
2.525e-50
1.74874e-47
8.11621e-43
7.66768e-41
1.50405e-38
1.27494e-36
2.13716e-35
1.01022e-33
4.63857e-32
1.61435e-30
5.17694e-29
1.47138e-27
3.65899e-26
7.52936e-25
1.44002e-23
2.34362e-22
2.5679e-21
3.26286e-20
5.51473e-18
1.86723e-15
6.7244e-14
6.46968e-51
0
-7.83411e-51
1.06727e-48
6.90604e-44
1.0705e-41
6.70825e-40
4.50859e-38
3.00742e-36
1.58217e-34
6.12647e-33
2.28827e-31
7.42097e-30
2.13441e-28
5.3357e-27
1.06625e-25
1.97435e-24
3.23872e-23
4.02004e-22
5.73371e-21
1.21614e-18
7.48329e-16
2.94636e-14
1.91578e-52
-1.90554e-51
-6.22369e-50
3.53498e-50
4.77508e-45
8.14518e-43
8.65882e-41
6.2334e-39
3.52865e-37
1.59042e-35
7.00234e-34
2.60122e-32
8.4144e-31
2.41605e-29
6.08453e-28
1.18248e-26
2.12701e-25
3.6876e-24
5.24762e-23
4.26397e-22
2.62499e-19
2.74416e-16
1.12431e-14
7.16702e-54
-1.86689e-51
-1.39617e-49
0
3.30686e-46
6.52965e-44
5.79507e-42
4.29651e-40
2.63905e-38
1.39936e-36
6.27232e-35
2.27799e-33
7.32803e-32
2.06248e-30
5.26849e-29
1.03273e-27
1.93895e-26
3.46393e-25
3.36712e-24
8.92715e-23
5.2639e-20
8.91396e-17
3.71203e-15
2.13034e-56
-1.09087e-51
-8.90124e-50
-4.08345e-49
1.71406e-47
3.69105e-45
3.69047e-43
2.88141e-41
1.83769e-39
9.33439e-38
4.11871e-36
1.50844e-34
4.86366e-33
1.31933e-31
3.49691e-30
7.65962e-29
1.62314e-27
1.88429e-26
3.02981e-25
3.20907e-23
1.18982e-20
2.4977e-17
1.06386e-15
-6.08552e-56
-4.66634e-52
-3.94111e-50
-4.39234e-49
6.57978e-49
1.57807e-46
1.6518e-44
1.33923e-42
8.81045e-41
4.63047e-39
2.08391e-37
7.66237e-36
2.60577e-34
7.08046e-33
2.03787e-31
5.32008e-30
8.6537e-29
7.93192e-28
8.20581e-26
9.28391e-24
2.51257e-21
5.90888e-18
2.64661e-16
-1.57624e-56
-1.34234e-52
-1.12961e-50
-1.41943e-49
1.28299e-50
5.01927e-48
5.52687e-46
4.67766e-44
3.19933e-42
1.75524e-40
8.3001e-39
3.24136e-37
1.23436e-35
3.7606e-34
1.22888e-32
2.54355e-31
1.45748e-30
1.3747e-28
1.74664e-26
1.99638e-24
4.65734e-22
1.15531e-18
5.59826e-17
-2.78724e-57
-1.97887e-53
-1.6312e-51
-2.21651e-50
4.85967e-53
1.17971e-49
1.34496e-47
1.21259e-45
8.65641e-44
5.08392e-42
2.69491e-40
1.14518e-38
4.33676e-37
1.51216e-35
4.36349e-34
2.98026e-33
1.33333e-31
1.90266e-29
2.55725e-27
3.04289e-25
6.71732e-23
1.77923e-19
9.72245e-18
-1.11277e-59
-1.4368e-56
-6.92663e-55
-1.12439e-53
7.94604e-54
1.85536e-51
2.2277e-49
2.12599e-47
1.77426e-45
1.13975e-43
5.78149e-42
3.01631e-40
1.22775e-38
4.61436e-37
9.76704e-36
7.4649e-35
1.017e-32
1.65117e-30
2.40056e-28
3.0777e-26
6.53013e-24
2.00818e-20
1.33416e-18
-1.62475e-59
-4.91718e-57
-2.14226e-55
-3.69108e-54
1.48137e-56
1.6161e-53
2.1331e-51
2.62566e-49
2.0347e-47
1.35673e-45
9.28412e-44
4.94235e-42
2.3148e-40
9.55082e-39
1.08153e-37
2.44367e-36
4.48337e-34
8.17388e-32
1.32843e-29
1.90203e-27
4.27165e-25
1.54709e-21
1.34152e-19
-7.15704e-60
-9.24927e-58
-3.39767e-56
-5.94481e-55
-7.99755e-57
5.3821e-56
8.0695e-54
8.55016e-52
9.24097e-50
7.64693e-48
6.29276e-46
4.06977e-44
2.47328e-42
1.14016e-40
6.68277e-40
6.05377e-38
1.39979e-35
2.95976e-33
5.54707e-31
1.32036e-28
5.12196e-25
8.88058e-23
8.13546e-21
-1.00511e-66
-1.26054e-65
-7.63185e-65
1.38454e-63
2.85253e-60
2.33447e-59
4.6738e-57
7.28536e-55
9.44297e-53
1.09747e-50
1.34908e-48
1.2773e-46
7.01166e-45
7.27227e-44
1.27996e-41
4.03074e-39
1.15159e-36
2.93264e-34
7.02512e-32
5.0522e-28
3.19263e-25
5.97208e-24
2.23824e-22
-5.31088e-67
-5.50901e-66
-6.41275e-65
-5.65617e-64
2.66278e-69
1.44523e-63
4.28061e-61
8.76688e-59
1.57197e-56
3.04093e-54
3.5382e-52
6.33966e-51
9.86403e-50
3.43882e-47
1.90107e-44
9.53597e-42
4.34567e-39
1.80273e-36
1.21381e-33
7.22135e-29
3.20141e-26
3.92266e-25
2.004e-24
-1.39505e-67
-1.04045e-66
-1.07443e-65
-8.92024e-65
-4.50411e-76
2.4206e-72
5.63851e-67
1.71966e-64
6.34353e-62
7.79543e-60
2.845e-58
8.489e-57
1.66454e-54
1.5724e-51
1.43635e-48
1.19233e-45
9.04842e-43
6.32969e-40
4.1077e-37
2.61142e-33
6.60926e-29
5.50969e-27
2.14561e-26
1.48489e-86
2.80674e-86
1.4531e-88
-1.4531e-88
-2.49991e-87
-5.76851e-83
-2.54794e-83
-3.17848e-81
-4.83317e-78
-5.77004e-75
-4.11944e-72
-1.84138e-68
-3.8295e-65
-5.12243e-62
-6.0155e-59
-6.04619e-56
-4.79277e-53
-1.87705e-50
6.10092e-47
5.01128e-37
9.64935e-32
3.0189e-29
1.97196e-28
1.29031e-99
3.26214e-100
1.14432e-118
-2.64379e-102
-3.00131e-99
-2.81591e-99
-1.13945e-99
-1.28771e-97
-2.10167e-94
2.95094e-89
5.2366e-86
4.29597e-82
1.04506e-77
-3.1952e-75
2.55076e-71
8.34376e-67
-1.08065e-64
-2.87502e-61
-6.98662e-58
-1.55221e-54
1.73443e-41
8.11613e-37
2.28972e-35
0.999548
0.99956
0.999989
0.659188
0.999908
0.999846
0.999998
0.99999
1
0.999999
0.999998
0.999998
0.999999
0.999999
0.999999
0.999998
0.999999
0.999999
0.999998
0.999996
0.277339
0.377354
0.496818
0.629756
2.08345e-05
3.5038e-05
0.00353925
0.0144848
-1.0713e-06
-1.36643e-06
-9.87921e-07
7.63993e-07
-4.21053e-10
-3.26105e-11
-3.7693e-09
-1.8443e-08
5.55394e-11
7.93309e-11
9.09948e-11
1.14176e-10
2.76556e-10
3.5688e-10
3.71124e-10
2.88739e-10
1.14144e-11
1.1687e-11
1.2241e-11
1.29301e-11
2.04533e-12
2.30874e-12
2.64975e-12
3.07827e-12
3.13929e-13
4.14504e-13
5.69715e-13
7.8157e-13
1.82684e-13
2.89334e-13
4.6756e-13
7.0805e-13
3.23634e-13
5.71242e-13
1.00157e-12
1.62661e-12
7.62896e-13
1.40869e-12
2.45183e-12
4.16232e-12
1.4476e-12
2.70445e-12
4.6313e-12
8.36318e-12
2.11199e-12
3.94273e-12
6.79943e-12
1.23892e-11
2.53044e-12
4.70608e-12
8.32357e-12
1.39633e-11
2.66509e-12
4.95787e-12
8.8651e-12
1.48545e-11
2.31318e-12
4.39223e-12
8.0844e-12
1.94033e-11
1.67003e-12
3.30747e-12
7.28728e-12
1.80986e-11
1.20068e-12
2.55834e-12
7.06972e-12
1.51939e-11
7.90931e-13
1.88013e-12
5.43968e-12
1.34092e-11
4.77841e-13
1.27078e-12
3.43551e-12
7.07729e-12
2.59674e-13
7.34744e-13
1.84304e-12
3.26781e-12
1.23024e-13
3.49956e-13
7.80636e-13
1.27204e-12
5.01801e-14
1.37111e-13
2.58231e-13
3.82611e-13
1.74569e-14
4.35803e-14
7.07755e-14
9.5451e-14
5.20139e-15
1.17159e-14
1.68555e-14
1.76019e-14
1.32787e-15
2.80801e-15
3.96239e-15
3.1652e-15
2.85131e-16
6.30246e-16
1.07167e-15
1.38687e-15
5.11752e-17
1.28862e-16
3.16009e-16
6.5938e-16
7.54107e-18
2.08924e-17
7.11417e-17
2.4694e-16
8.41488e-19
2.207e-18
8.50505e-18
5.73997e-17
5.57938e-20
1.32522e-19
5.70021e-19
6.8649e-18
1.74343e-21
3.73854e-21
2.44148e-20
4.96584e-19
1.10885e-23
1.26019e-24
8.27376e-23
-5.6281e-21
4.09766e-30
3.32802e-28
5.74619e-26
-7.04728e-23
1.95931e-30
1.36093e-35
8.12253e-33
-3.23002e-27
1.44286e-37
0
2.54665e-49
-9.2132e-33
0.00030327
-1.55043e-07
-4.03528e-10
-7.35677e-09
-1.17436e-09
5.2028e-11
-9.72868e-12
-6.89782e-09
-1.59926e-08
-4.76928e-09
0
0.000228607
0.0103805
0.0375504
0.0616801
0.0551956
0.0162766
0.0065687
0.0121566
0.29699
0.000102519
3.43258e-06
4.49376e-08
-1.68094e-09
-3.85762e-10
1.19117e-10
-2.08151e-32
-8.90966e-10
0.02766
0.181254
0.419162
0.604097
0.710707
0.749977
0.718235
0.502097
0.174219
0.0638406
0.931791
0.536283
0.22567
0.0190147
9.96707e-07
9.60573e-08
1.04721e-08
9.67648e-10
0.151971
0.627737
0.925986
0.988886
0.999894
0.999929
0.999935
0.999936
0.999937
0.835942
0.392251
0.999996
0.99773
0.940189
0.784304
0.496672
0.349379
0.374869
0.545323
0.848635
0.992838
0.999756
0.999882
0.999929
0.999935
0.999936
0.999937
0.999937
0.999937
0.577935
0.999989
0.999929
0.999478
0.997463
0.991989
0.97138
0.974844
0.99226
0.998819
0.999757
0.999907
0.999924
0.999924
0.99993
0.999936
0.999936
0.999937
0.999937
0.569594
0.830721
0.986359
0.997463
0.995642
0.995357
0.994594
0.993556
0.995001
0.996481
0.986737
0.948578
0.930564
0.949637
0.985959
0.999626
0.999708
0.999925
0.999935
0.508451
0.077522
0.225288
0.371245
0.463372
0.522092
0.552275
0.549183
0.526439
0.467516
0.374095
0.294268
0.271671
0.290346
0.41999
0.75991
0.990478
0.999862
0.999913
0.472293
1.05656e-05
3.50619e-05
7.37957e-05
0.00120032
0.00440554
0.00782863
0.00777411
0.00581076
0.00164208
0.000160138
0.000227854
0.00050462
0.0016118
0.0289885
0.301959
0.91139
0.999163
0.967851
0.355059
-8.21492e-08
-5.14275e-07
-3.28413e-07
5.27001e-07
1.60433e-06
3.93277e-06
6.59998e-06
7.85619e-06
8.5985e-06
1.45125e-05
3.48817e-05
0.00015818
0.000633808
0.00161407
0.308398
0.89729
0.99724
0.737091
0.191481
1.89148e-10
2.04152e-09
7.46632e-09
1.82754e-08
4.3925e-08
1.04233e-07
2.03308e-07
3.59962e-07
6.22997e-07
1.45679e-06
6.31575e-06
3.66028e-05
0.000139374
0.000655375
0.29397
0.915054
0.973312
0.371933
0.039496
1.48241e-11
1.68317e-11
8.44242e-11
3.06899e-10
1.0168e-09
3.25699e-09
8.90335e-09
2.1522e-08
5.16909e-08
1.72381e-07
1.15786e-06
4.84271e-06
2.89301e-05
0.000340149
0.242745
0.880453
0.844185
0.141252
0.0339563
5.73478e-12
6.32664e-12
8.54232e-12
1.67884e-11
5.04543e-11
1.80185e-10
5.6089e-10
1.84512e-09
5.14996e-09
1.91717e-08
1.42643e-07
7.03568e-07
8.86923e-06
0.000160948
0.170848
0.789338
0.778047
0.0668124
0.0339127
4.24014e-12
6.56833e-12
6.79613e-12
8.82748e-12
1.88582e-11
5.9153e-11
1.29134e-10
4.981e-10
8.91691e-10
2.90341e-09
1.82227e-08
1.2503e-07
1.49313e-06
4.98194e-05
0.090351
0.68718
0.775305
0.113891
0.0339113
1.42015e-12
3.23119e-12
6.61861e-12
1.4268e-11
3.09962e-11
5.11563e-11
8.91436e-11
3.5147e-10
4.72414e-10
8.70827e-10
2.90113e-09
1.39996e-08
7.35152e-07
7.75386e-06
0.041238
0.609424
0.770573
0.233202
0.0339113
1.52013e-12
5.3645e-12
1.24556e-11
2.382e-11
5.25801e-11
6.78506e-11
7.61223e-11
1.11776e-10
1.5478e-09
3.02252e-09
2.5058e-09
3.89763e-09
3.67816e-08
8.16746e-07
0.0118631
0.506206
0.769591
0.291053
0.0339113
3.89807e-12
1.49711e-11
4.16216e-11
6.09543e-11
6.91027e-11
7.15652e-11
7.13619e-11
2.62746e-10
1.51826e-08
2.51723e-09
2.20829e-09
1.45334e-09
6.40129e-09
1.29481e-07
9.19096e-05
0.331045
0.769591
0.257733
0.0339124
1.26184e-11
2.66458e-11
6.29564e-11
2.16796e-10
6.89835e-11
7.01472e-11
7.10869e-11
1.38996e-10
2.07609e-08
1.06452e-08
3.33753e-09
4.91947e-10
1.04051e-09
3.29651e-09
2.26286e-09
0.12756
0.646534
0.24611
0.0339376
2.91471e-11
3.59682e-11
4.97004e-11
3.60452e-10
2.38149e-09
1.98281e-09
5.24878e-10
1.34932e-10
1.8775e-08
3.7286e-08
5.89729e-09
2.73187e-10
3.22787e-10
4.16737e-10
1.47827e-09
0.00796016
0.57967
0.362874
0.037883
3.97035e-11
3.75109e-11
3.75365e-11
2.47983e-09
1.10395e-08
1.3661e-08
5.34607e-09
5.52277e-10
6.76016e-09
3.79588e-08
2.47331e-09
2.54153e-10
2.54605e-10
2.58478e-10
4.24465e-10
2.50843e-08
0.465705
0.519134
0.120641
6.74261e-11
4.15124e-11
3.76383e-11
6.50012e-09
1.49622e-08
1.50115e-08
1.41251e-08
2.51619e-09
9.42427e-10
4.31576e-08
2.54765e-10
2.56161e-10
2.54113e-10
2.56161e-10
2.58403e-10
2.41144e-08
0.318345
0.519416
0.221641
1.38315e-10
5.17589e-11
1.25727e-10
7.76636e-09
1.50106e-08
1.50039e-08
1.32203e-08
1.23348e-09
9.43379e-10
9.65948e-08
9.90411e-07
3.09437e-07
2.56161e-10
0.000183025
0.000237938
3.37915e-07
0.0615946
0.505679
0.220697
1.7732e-10
5.18821e-11
7.88741e-10
8.56282e-09
1.49389e-08
9.23024e-09
5.18318e-09
9.71012e-10
9.43379e-10
9.49028e-08
3.65776e-06
4.35378e-07
0.000506186
0.00111255
0.000466317
4.51645e-06
4.39322e-05
0.32412
0.344469
1.72755e-10
1.58395e-10
1.34653e-09
6.13447e-09
9.08934e-09
7.10155e-09
2.79104e-09
5.3152e-07
4.01333e-09
5.14119e-09
3.02057e-06
2.75812e-05
0.00048487
0.000488424
0.000207672
4.39307e-05
0.000147864
0.0417253
0.346097
8.78088e-11
3.24169e-10
4.07181e-10
1.06823e-09
3.36135e-09
3.34769e-08
2.94449e-09
6.03331e-07
5.14232e-09
7.20216e-09
1.14542e-06
1.97318e-05
9.77562e-05
0.000104104
0.000477222
0.000368599
0.00110601
0.00706266
0.271069
3.67452e-11
1.86925e-10
1.1097e-10
1.48668e-09
1.90843e-09
3.53744e-08
1.81976e-09
1.96892e-09
5.02183e-06
2.66564e-06
1.18633e-06
4.55367e-06
4.03289e-06
9.58683e-05
0.00475987
0.0582424
0.0375637
0.00795712
0.120619
1.98609e-11
7.53019e-11
6.20064e-11
3.06292e-09
2.76431e-09
9.54468e-09
1.87024e-09
2.4361e-06
1.35596e-05
1.35275e-05
6.30908e-06
3.86192e-06
3.4257e-06
3.36388e-06
0.0127317
0.163801
0.175988
0.0427494
0.0813073
9.81092e-12
3.63989e-11
3.07806e-11
3.3121e-09
3.31223e-09
6.57895e-10
5.15321e-06
1.35596e-05
1.35595e-05
1.35596e-05
1.35275e-05
5.88411e-06
3.29578e-06
3.32737e-06
0.0303292
0.179756
0.182377
0.0842047
0.0277724
3.9807e-12
1.65633e-11
3.02284e-11
1.34042e-09
2.65962e-09
1.43749e-10
1.42217e-05
5.14397e-06
6.75638e-06
9.85824e-06
1.10295e-05
4.15479e-06
3.23877e-06
3.29531e-06
0.00283462
0.158312
0.185447
0.0860154
0.015921
1.57203e-12
6.77904e-12
4.04957e-11
8.00229e-11
7.85506e-10
1.03686e-10
1.4151e-05
4.55483e-06
4.3733e-06
3.82373e-06
3.33157e-06
3.23877e-06
3.22272e-06
3.20393e-06
3.89434e-06
0.143184
0.189548
0.0728258
0.0148459
7.94919e-13
3.69847e-12
2.05105e-11
2.54483e-11
2.7826e-10
6.20731e-11
2.26512e-06
2.46287e-05
4.05326e-06
3.39348e-06
3.24854e-06
3.23681e-06
3.20393e-06
3.20389e-06
2.96481e-05
0.17713
0.193787
0.0538966
0.0143245
6.59017e-13
3.23743e-12
1.09751e-11
3.4157e-11
2.15697e-10
6.16039e-11
5.83371e-11
0.000112471
0.000459893
0.000512166
0.000213538
5.52179e-06
3.22837e-06
-4.63054e-06
0.0806981
0.20866
0.195842
0.0313773
0.0142673
6.72757e-13
4.09222e-12
2.54627e-11
2.80454e-10
1.07534e-10
6.15717e-11
4.89417e-11
6.73269e-05
0.000576316
0.000579806
0.000580329
0.000113958
3.63254e-06
0.0202373
0.20115
0.209631
0.209785
0.0471397
0.013726
6.92649e-13
5.68826e-12
6.31365e-11
6.43401e-10
1.03778e-10
6.15719e-11
6.15719e-11
-1.45945e-09
0.000514172
0.000580478
0.000580326
0.000121302
7.39977e-06
0.112645
0.209503
0.209793
0.209785
0.091826
0.0120015
5.35944e-13
6.39928e-12
9.1346e-11
6.81421e-10
1.01666e-10
1.11574e-08
9.6165e-08
3.29458e-08
4.93169e-05
0.00057065
0.000474665
3.88447e-05
7.84325e-06
0.0499184
0.208421
0.209785
0.209789
0.0987896
0.0105762
2.27262e-13
5.51934e-12
8.72911e-11
5.29907e-10
2.04451e-10
7.1307e-09
2.2163e-07
2.14422e-08
3.89372e-08
6.78655e-05
6.03426e-05
3.19243e-05
5.18894e-06
2.97935e-07
0.0893637
0.18427
0.150273
0.0571664
0.00992027
6.67279e-14
1.99807e-12
1.83453e-11
2.33008e-10
1.91381e-09
2.46441e-09
6.93407e-08
1.59847e-08
1.9527e-08
2.03228e-07
2.02581e-07
1.26202e-05
6.78981e-06
4.29702e-08
2.44977e-08
0.00728335
0.00649144
0.0124552
0.00983291
5.97404e-15
5.79948e-13
1.03004e-11
8.52416e-11
8.43894e-10
3.45752e-09
3.46228e-09
1.57807e-08
2.15058e-08
1.22933e-08
1.25448e-08
3.90366e-07
1.5287e-06
5.60684e-07
3.51279e-09
-4.33722e-08
1.24379e-05
0.000123975
0.00175099
5.74413e-17
8.76629e-14
4.58664e-12
4.58952e-11
2.7748e-10
1.89244e-09
4.19945e-09
3.45215e-09
4.04196e-09
3.01907e-09
4.27388e-09
3.38201e-09
1.90157e-09
2.79463e-08
1.54679e-09
-5.66164e-08
4.64754e-07
1.43119e-05
0.00291167
1.47164e-18
1.02662e-14
9.34046e-13
8.7223e-12
3.85954e-11
1.36646e-10
1.77954e-09
2.04996e-09
2.20481e-09
3.00485e-09
4.90359e-09
3.27313e-09
1.34387e-09
1.41328e-09
1.30345e-09
1.0172e-09
1.79667e-08
1.00888e-06
0.00777844
1.34752e-21
1.37398e-18
9.94357e-15
7.35367e-13
2.11641e-11
1.71927e-10
2.62107e-10
8.37155e-10
4.15518e-10
4.9506e-10
4.7249e-10
5.31838e-10
1.32937e-09
1.79664e-09
1.33956e-09
9.43568e-10
2.06583e-09
0.00011469
0.0078418
-4.26853e-27
2.84425e-24
1.93927e-18
3.20514e-14
1.91144e-12
1.1802e-11
1.38656e-19
2.76725e-19
1.34191e-11
2.34325e-10
2.60085e-10
1.54475e-10
1.36782e-09
2.70811e-09
2.12205e-09
7.69675e-10
9.4197e-10
0.000224097
0.0078413
-5.91921e-32
-2.39509e-33
4.33895e-23
3.5511e-18
2.4661e-16
2.27103e-40
-4.48146e-34
9.85416e-15
2.27242e-11
8.43148e-12
2.81513e-12
9.17802e-31
0
2.90356e-10
7.51758e-10
7.50616e-10
7.76225e-10
2.27743e-09
0.00659748
)
;

boundaryField
{
    leftWall
    {
        type            zeroGradient;
    }
    rightWall
    {
        type            zeroGradient;
    }
    lowerWall
    {
        type            zeroGradient;
    }
    atmosphere
    {
        type            inletOutlet;
        inletValue      uniform 0;
        value           nonuniform List<scalar> 
46
(
0
0
0
0
0
0
0
0
0
0
0
0
0
0
0
0
0
0
0
0
0
0
0
0
0
0
0
0
0
0
0
0
0
0
0
0
0
0
0
0
0
0
7.50616e-10
7.76225e-10
2.27743e-09
0.00659748
)
;
    }
    defaultFaces
    {
        type            empty;
    }
}


// ************************************************************************* //
