/*--------------------------------*- C++ -*----------------------------------*\
  =========                 |
  \\      /  F ield         | OpenFOAM: The Open Source CFD Toolbox
   \\    /   O peration     | Website:  https://openfoam.org
    \\  /    A nd           | Version:  7
     \\/     M anipulation  |
\*---------------------------------------------------------------------------*/
FoamFile
{
    version     2.0;
    format      ascii;
    class       volScalarField;
    location    "0.5";
    object      epsilon;
}
// * * * * * * * * * * * * * * * * * * * * * * * * * * * * * * * * * * * * * //

dimensions      [0 2 -3 0 0 0 0];

internalField   nonuniform List<scalar> 
2268
(
0.0341465
0.10817
0.20695
0.305961
0.392426
0.475006
0.550258
0.621177
0.687989
0.750005
0.805923
0.853948
0.891706
0.915904
0.921081
0.90854
0.876533
0.816462
0.727173
0.611713
0.470597
0.347351
0.259993
0.0433834
0.0704375
0.111907
0.155077
0.1923
0.224882
0.254416
0.282037
0.308136
0.33268
0.355389
0.375845
0.393539
0.40789
0.418323
0.427462
0.436144
0.442338
0.444418
0.437526
0.408549
0.323236
0.306622
0.053851
0.0662316
0.0983584
0.129714
0.15638
0.179359
0.199942
0.219038
0.237074
0.254157
0.270217
0.285117
0.298717
0.310949
0.322014
0.333464
0.346665
0.361855
0.378895
0.394399
0.39695
0.36478
0.47226
0.0582949
0.069222
0.0960154
0.121643
0.143594
0.162522
0.179474
0.195197
0.21007
0.22423
0.237692
0.250439
0.262487
0.273971
0.285316
0.29774
0.312579
0.330639
0.352138
0.374842
0.392111
0.404894
0.661
0.0649433
0.0748398
0.0978237
0.119545
0.138375
0.15489
0.169876
0.183873
0.197163
0.209875
0.222071
0.233807
0.245189
0.25645
0.268096
0.28118
0.296934
0.316281
0.339592
0.365811
0.393571
0.445316
0.862667
0.0714386
0.0824461
0.102302
0.120646
0.13697
0.151783
0.165533
0.178511
0.190897
0.202803
0.214325
0.22557
0.236703
0.248009
0.260011
0.273655
0.29006
0.310151
0.334478
0.363256
0.400068
0.486013
1.07076
0.0768238
0.0921831
0.109026
0.124072
0.138228
0.151723
0.164578
0.176845
0.188617
0.200005
0.211132
0.222148
0.233253
0.244756
0.257169
0.271352
0.288327
0.308994
0.334125
0.365153
0.409941
0.526095
1.29659
0.0836296
0.105194
0.117971
0.129634
0.141883
0.154252
0.166305
0.177922
0.189154
0.200122
0.210977
0.221893
0.233092
0.244887
0.257764
0.272511
0.290078
0.311329
0.337253
0.370254
0.421133
0.560368
1.66058
0.337411
1.02876
2.19216
3.76415
5.71273
7.83354
9.83334
11.4769
12.6245
13.2026
13.2147
12.8043
12.2482
11.5652
10.6864
9.59164
8.14358
5.81464
1.01446
0.66653
1.67306
2.87132
3.82431
4.55114
5.20724
5.79769
6.23293
6.44725
6.42188
6.1719
5.75128
5.31125
4.97321
4.74455
4.6639
4.68858
4.42272
2.14963
1.30073
1.98852
2.96251
3.74756
4.47318
5.22444
5.91261
6.42225
6.71956
6.82579
6.74227
6.4373
5.97569
5.50743
5.05944
4.75935
4.78469
5.06257
3.89408
1.73777
2.16851
3.06905
3.93502
4.84995
5.81549
6.72041
7.4554
8.00758
8.41746
8.66943
8.63299
8.26714
7.62834
6.7261
5.76224
5.1698
5.44512
5.50856
1.93372
2.26237
3.19025
4.20185
5.3237
6.53167
7.7165
8.76357
9.66076
10.4594
11.151
11.5442
11.5162
10.7795
9.30351
7.44066
5.86887
5.58358
6.78858
1.91727
2.26352
3.25168
4.41053
5.71833
7.15269
8.62125
10.0015
11.2682
12.4605
13.5554
14.395
14.9449
14.1167
11.9038
9.03044
6.59489
5.61658
7.75351
1.7338
2.17882
3.19688
4.46041
5.88801
7.4706
9.14574
10.7901
12.3692
13.8873
15.1371
16.0857
17.0276
15.7896
12.7699
9.23529
6.64637
5.6067
8.50069
1.53954
1.99625
2.99343
4.26733
5.69053
7.28439
8.99618
10.701
12.3854
14.0687
15.0539
15.3062
14.7586
12.8439
10.2404
7.61472
5.99473
5.59249
9.10369
0.109343
0.126988
0.132437
0.140273
0.150486
0.161414
0.172247
0.182814
0.193197
0.203556
0.214075
0.224951
0.236422
0.248797
0.262514
0.278262
0.296891
0.319217
0.346494
0.381989
0.436538
0.554922
0.959043
0.206921
0.172545
0.163382
0.16669
0.173662
0.181313
0.189107
0.197159
0.205673
0.214845
0.224806
0.235698
0.247721
0.261132
0.276283
0.293696
0.314096
0.338203
0.3673
0.404368
0.456468
0.544368
0.724338
0.36107
0.242176
0.212069
0.207488
0.207552
0.209067
0.211977
0.216368
0.22232
0.229967
0.239256
0.250189
0.262897
0.277563
0.294465
0.314015
0.336877
0.363638
0.395266
0.433882
0.483377
0.552238
0.65289
0.499008
0.287363
0.252764
0.245408
0.239017
0.234876
0.233661
0.235172
0.23924
0.24569
0.254508
0.265735
0.279397
0.295601
0.314583
0.336861
0.363197
0.393825
0.428496
0.468661
0.516693
0.575311
0.645889
0.562138
0.289609
0.263995
0.254041
0.247815
0.244674
0.244369
0.246663
0.251434
0.258493
0.267936
0.280068
0.295019
0.312929
0.334065
0.359103
0.389272
0.425436
0.463526
0.505836
0.554056
0.606944
0.664348
0.507879
0.27333
0.250439
0.244968
0.243162
0.243522
0.245933
0.250423
0.257063
0.265919
0.277186
0.2911
0.307846
0.327599
0.350517
0.377026
0.40842
0.445772
0.488558
0.537688
0.590758
0.640155
0.692889
0.459935
0.252812
0.232338
0.230233
0.232056
0.235765
0.241115
0.248182
0.25713
0.26815
0.281479
0.297361
0.315999
0.337525
0.361963
0.389365
0.420363
0.456332
0.498519
0.547566
0.600655
0.6563
0.717059
0.427967
0.235844
0.215296
0.214249
0.218078
0.224126
0.231823
0.241126
0.252168
0.265161
0.28035
0.297971
0.318197
0.341102
0.366626
0.394701
0.425652
0.46028
0.499147
0.542408
0.590692
0.645322
0.704654
0.407023
0.222778
0.200431
0.198783
0.203162
0.21038
0.219526
0.230368
0.242944
0.257416
0.273993
0.292878
0.314204
0.337992
0.364141
0.392529
0.423254
0.456695
0.493088
0.532282
0.574622
0.620159
0.667115
0.393934
0.212196
0.187426
0.184413
0.188377
0.195789
0.205485
0.217069
0.230469
0.245773
0.263137
0.282713
0.304597
0.32878
0.35514
0.38351
0.413818
0.446125
0.480423
0.516549
0.554574
0.594227
0.63405
0.38397
0.202761
0.175813
0.171236
0.174265
0.181193
0.190708
0.202302
0.215822
0.231288
0.2488
0.268473
0.29037
0.314471
0.34065
0.368717
0.398496
0.429856
0.462642
0.496647
0.531733
0.567556
0.603335
0.374241
0.193773
0.165198
0.159197
0.161083
0.167122
0.175944
0.186977
0.200016
0.215036
0.232102
0.251299
0.272681
0.296231
0.321839
0.349323
0.378469
0.409063
0.44088
0.473682
0.50725
0.541287
0.575374
0.363159
0.184917
0.155349
0.148193
0.148955
0.153921
0.161725
0.17181
0.183922
0.198017
0.21414
0.232366
0.252755
0.27531
0.299962
0.326565
0.354927
0.384828
0.416036
0.448312
0.481422
0.515106
0.54909
0.350189
0.176107
0.146157
0.138144
0.137904
0.14179
0.148459
0.157348
0.16824
0.181091
0.195914
0.212793
0.231807
0.252996
0.276345
0.301775
0.329156
0.35832
0.389077
0.421221
0.454535
0.488786
0.523744
0.335565
0.167414
0.137595
0.129007
0.127927
0.13081
0.136349
0.143995
0.153535
0.164931
0.178254
0.193561
0.210954
0.23052
0.252311
0.276333
0.302544
0.330867
0.361192
0.393381
0.427261
0.462634
0.499292
0.319954
0.158995
0.129692
0.120761
0.119007
0.121006
0.125494
0.131942
0.140146
0.150074
0.161793
0.175429
0.191109
0.20894
0.229048
0.25153
0.276453
0.303852
0.333725
0.366029
0.400667
0.437493
0.476332
0.304173
0.151054
0.122509
0.113406
0.111123
0.112366
0.115918
0.121272
0.128233
0.136773
0.146967
0.158955
0.172912
0.189038
0.207473
0.228413
0.252039
0.278511
0.307953
0.340441
0.375976
0.414486
0.455848
0.289026
0.143806
0.116123
0.106953
0.104252
0.104856
0.107597
0.111985
0.117836
0.125127
0.13394
0.144427
0.156793
0.17128
0.188166
0.207678
0.23011
0.255752
0.284869
0.317668
0.354267
0.394683
0.438854
0.275215
0.137458
0.11062
0.101424
0.098374
0.0984336
0.100476
0.104029
0.108915
0.115117
0.122723
0.131898
0.142869
0.155922
0.17139
0.189656
0.211082
0.236076
0.265053
0.298363
0.336251
0.37883
0.426095
0.263315
0.1322
0.106086
0.0968424
0.0934725
0.093051
0.0944873
0.0973227
0.101384
0.106656
0.113232
0.121289
0.131077
0.142917
0.157201
0.174393
0.19502
0.2196
0.248672
0.282744
0.322197
0.367232
0.417895
0.253761
0.12819
0.102595
0.09323
0.0895292
0.0886594
0.0895569
0.0917704
0.0951273
0.0996133
0.105324
0.112445
0.121246
0.132084
0.145407
0.161756
0.181764
0.206137
0.235559
0.270662
0.311969
0.359773
0.414152
0.246875
0.125558
0.100203
0.090598
0.086521
0.085207
0.0856076
0.087272
0.0900232
0.0938432
0.0988273
0.105168
0.113154
0.123173
0.135725
0.151429
0.171026
0.195355
0.225312
0.2617
0.305135
0.356006
0.414414
0.24287
0.124393
0.0989443
0.0889418
0.0844147
0.0826367
0.0825603
0.083726
0.085947
0.0891968
0.0935671
0.0992545
0.106562
0.115907
0.127839
0.143052
0.162394
0.186843
0.217457
0.255263
0.301062
0.355255
0.41798
0.241857
0.124745
0.098823
0.0882357
0.083163
0.0808832
0.0803323
0.0810318
0.0827777
0.0855301
0.089373
0.0945031
0.101234
0.110012
0.12143
0.136258
0.155444
0.18011
0.211484
0.250775
0.298976
0.356688
0.423973
0.243876
0.126623
0.0998118
0.0884304
0.0827023
0.0798716
0.0788373
0.0790897
0.0803998
0.0827084
0.0860871
0.0907291
0.0969557
0.105234
0.116202
0.130695
0.149766
0.174676
0.206829
0.247624
0.298232
0.359378
0.431358
0.248901
0.129997
0.10185
0.089451
0.0829518
0.0795169
0.0779852
0.077802
0.0787044
0.080608
0.0835674
0.0877677
0.093533
0.101348
0.111887
0.126048
0.144981
0.170086
0.202944
0.245159
0.298092
0.36261
0.439081
0.256872
0.134794
0.104843
0.091199
0.083815
0.0797258
0.0776834
0.0770737
0.0775904
0.0791181
0.0816892
0.085476
0.0908004
0.0981582
0.108253
0.122038
0.14075
0.165922
0.199315
0.242745
0.297785
0.365471
0.446254
0.267711
0.140907
0.108667
0.0935551
0.085183
0.0803987
0.0778389
0.076814
0.0769657
0.0781411
0.0803458
0.0837345
0.088621
0.095505
0.10511
0.118431
0.136782
0.161816
0.195467
0.239774
0.296551
0.367034
0.451801
0.281325
0.148192
0.113175
0.0963856
0.0869392
0.0814336
0.0783602
0.076938
0.0767476
0.0775931
0.0794487
0.0824464
0.0868861
0.0932625
0.102307
0.115043
0.13284
0.157454
0.190982
0.235689
0.293657
0.36638
0.454631
0.297596
0.156485
0.118205
0.0995501
0.0889652
0.0827305
0.0791609
0.0773682
0.0768638
0.0774036
0.0789265
0.0815372
0.0855148
0.0913397
0.0997378
0.11174
0.12875
0.152596
0.185519
0.230003
0.288432
0.36262
0.453634
0.316401
0.165612
0.123593
0.102908
0.091146
0.0841952
0.0801618
0.0780361
0.0772527
0.0775152
0.078724
0.0809527
0.0844527
0.0896798
0.0973385
0.108446
0.124407
0.14709
0.178836
0.222338
0.280294
0.354924
0.447701
0.337635
0.175408
0.129179
0.106328
0.0933752
0.0857424
0.0812938
0.0788835
0.0778634
0.0778825
0.0788006
0.0806568
0.083669
0.0882576
0.0950894
0.105142
0.119788
0.140885
0.170825
0.212461
0.268813
0.342572
0.435755
0.361297
0.185727
0.134815
0.109685
0.0955572
0.087299
0.0824993
0.0798635
0.0786565
0.0784717
0.0791284
0.0806291
0.0831534
0.0870766
0.0930111
0.10187
0.114953
0.134052
0.161538
0.200351
0.253789
0.325055
0.416841
0.387579
0.196456
0.140361
0.112864
0.0976075
0.0888044
0.0837341
0.080942
0.0796042
0.0792603
0.0796906
0.080862
0.0829124
0.0861641
0.0911602
0.0987243
0.110046
0.126791
0.15122
0.186253
0.235361
0.302225
0.390305
0.417045
0.207535
0.145681
0.115755
0.0994503
0.0902112
0.0849687
0.0820994
0.0806922
0.0802375
0.0804817
0.0813588
0.0829651
0.0855646
0.0896197
0.0958446
0.105284
0.119422
0.140317
0.170724
0.214119
0.274513
0.356106
0.450896
0.219028
0.15063
0.118231
0.101012
0.091485
0.086191
0.083334
0.0819225
0.0814069
0.0815083
0.0821338
0.0833409
0.0853341
0.0884888
0.0933964
0.100933
0.112357
0.129441
0.15463
0.191174
0.243133
0.315221
0.491097
0.231028
0.154982
0.120123
0.102212
0.0926043
0.0874106
0.0846673
0.083319
0.0827918
0.082794
0.083215
0.0840793
0.0855355
0.0878718
0.0915523
0.0972735
0.106043
0.119296
0.139049
0.168092
0.210157
0.270004
0.541015
0.243439
0.158282
0.12116
0.10295
0.0935659
0.0886675
0.0861538
0.084937
0.0844442
0.0843879
0.0846517
0.0852362
0.086241
0.0878732
0.0904746
0.0945651
0.100903
0.110569
0.125096
0.146653
0.178282
0.224186
0.607991
0.255778
0.15961
0.120896
0.103102
0.0943984
0.0900487
0.0878949
0.0868762
0.0864575
0.0863778
0.0865284
0.0868959
0.0875412
0.0886015
0.0903097
0.0930246
0.0972741
0.103811
0.1137
0.128447
0.150214
0.182146
0.711935
0.266083
0.157057
0.11863
0.102549
0.0951997
0.0917147
0.090059
0.0892972
0.0889832
0.0889072
0.0889818
0.0891897
0.0895638
0.0901859
0.0911982
0.0928238
0.0953935
0.0993802
0.105445
0.114512
0.127893
0.147527
0.924893
0.265938
0.14675
0.113469
0.101312
0.0962166
0.0939415
0.092906
0.0924421
0.0922505
0.0921965
0.0922246
0.0923215
0.0925016
0.0928059
0.0933067
0.0941195
0.0954171
0.0974479
0.100556
0.105212
0.11206
0.122031
1.63867
0.218893
0.12244
0.105051
0.0999071
0.0979803
0.0971715
0.096816
0.0966594
0.0965944
0.0965741
0.0965795
0.0966055
0.0966559
0.0967425
0.0968864
0.097122
0.0975012
0.0980992
0.0990197
0.100401
0.102423
0.105331
2.20282
1.64267
1.23174
1.06632
0.949746
0.986035
0.96968
0.952228
0.737295
0.786413
0.821418
0.849506
0.698477
0.735187
0.768679
0.799886
0.705524
0.734702
0.762651
0.789555
0.730455
0.756138
0.779605
0.80078
0.761553
0.790174
0.811758
0.82609
0.747152
0.77465
0.798683
0.818026
0.701536
0.725658
0.749812
0.774208
0.662802
0.682849
0.703206
0.72399
0.629427
0.647561
0.665931
0.684581
0.60042
0.617726
0.635205
0.65288
0.574258
0.591584
0.609098
0.626833
0.549923
0.567921
0.586187
0.604761
0.527142
0.546298
0.565846
0.585825
0.506335
0.527001
0.548221
0.570017
0.488353
0.510782
0.533955
0.557868
0.474128
0.498507
0.523836
0.550081
0.464368
0.490845
0.518484
0.547224
0.459388
0.488096
0.518178
0.549551
0.459093
0.490165
0.522825
0.556973
0.463045
0.496622
0.532009
0.569099
0.470551
0.506782
0.545066
0.585299
0.480727
0.519764
0.56113
0.604727
0.492533
0.534519
0.579146
0.626329
0.504737
0.549814
0.597872
0.648847
0.516316
0.564525
0.616075
0.67097
0.52615
0.577478
0.632567
0.691484
0.533012
0.587335
0.64587
0.708733
0.535614
0.592686
0.654444
0.721042
0.532615
0.592044
0.656665
0.726661
0.522624
0.583822
0.650756
0.723643
0.504243
0.56633
0.634736
0.709717
0.476238
0.537923
0.60652
0.682327
0.437899
0.497377
0.564291
0.639
0.389615
0.444553
0.507245
0.578141
0.333558
0.381306
0.436701
0.500315
0.274109
0.312249
0.357266
0.409846
0.217336
0.244554
0.277132
0.315754
0.169128
0.185892
0.206063
0.230122
0.132828
0.141151
0.151095
0.162848
0.108401
0.110734
0.113466
0.116599
1.18696
1.70449
2.42231
3.40393
4.56187
5.90685
7.32489
8.59656
9.71722
10.5965
10.8213
10.3196
9.10755
7.76236
6.43807
5.32792
4.90529
5.43803
9.60454
0.959632
1.3588
1.85663
2.51762
3.27038
3.98022
4.648
5.1647
5.48044
5.53974
5.36684
5.03718
4.57099
4.06612
3.61156
3.32288
3.44972
4.50674
9.7441
0.894122
1.04857
1.30015
1.70312
2.22795
2.64959
2.96616
3.11276
3.04943
2.89911
2.69447
2.4943
2.33247
2.21132
2.1566
2.23646
2.61931
3.75618
9.06765
0.852526
0.937049
1.06136
1.25446
1.50483
1.71853
1.85225
1.87539
1.7985
1.68159
1.56686
1.48903
1.48099
1.52664
1.63644
1.86914
2.36132
3.46848
8.4517
0.834756
0.892829
0.96296
1.05462
1.16126
1.25019
1.29767
1.29271
1.24904
1.20247
1.18947
1.23909
1.35883
1.51258
1.70358
2.00571
2.54735
3.59697
8.16403
0.834197
0.874239
0.918705
0.969257
1.0203
1.05927
1.07746
1.07569
1.07067
1.09698
1.20543
1.45304
1.81759
2.06229
2.25773
2.55682
3.09126
4.04662
8.19043
0.845925
0.874856
0.909941
0.9496
0.987936
1.01812
1.03939
1.06182
1.114
1.25558
1.60623
2.35576
3.38633
3.5278
3.3847
3.51939
3.97953
4.79902
8.6425
0.84599
0.883227
0.926896
0.978008
1.02868
1.07414
1.12302
1.1997
1.36508
1.75138
2.69013
4.88584
7.76304
6.14443
4.96808
4.77407
5.1532
5.79617
9.03037
0.814138
0.859129
0.907393
0.964191
1.02855
1.10247
1.20234
1.37043
1.70482
2.43538
4.12697
7.45238
9.46974
8.98572
6.26106
5.94924
6.4099
6.89368
9.02553
0.759288
0.803683
0.851193
0.907533
0.977485
1.06865
1.19956
1.41297
1.79925
2.57791
4.11007
6.14398
7.6203
8.28302
6.53657
6.89631
7.55751
7.91547
8.74862
0.716303
0.757145
0.800495
0.851833
0.918545
1.01098
1.14703
1.36391
1.74528
2.43665
3.53358
4.85755
6.24107
7.04619
6.84398
7.81068
8.58413
8.80315
8.9113
0.682868
0.72229
0.76476
0.815838
0.883456
0.978219
1.11615
1.32674
1.67039
2.21129
2.97744
3.96658
5.45149
6.70631
7.34696
8.66096
9.51128
9.64988
9.40856
0.656997
0.697606
0.742103
0.795955
0.866901
0.964561
1.1012
1.29589
1.58191
1.98795
2.54186
3.36854
5.01304
6.74062
7.84591
9.38721
10.3375
10.4423
10.2131
0.636506
0.680045
0.728038
0.785488
0.859319
0.957413
1.08776
1.25947
1.48808
1.79167
2.21454
2.9504
4.64121
6.74944
8.22034
9.95491
11.068
11.2433
11.4443
0.620115
0.66766
0.719789
0.780735
0.856174
0.951947
1.07239
1.22022
1.4013
1.63546
1.98881
2.68292
4.26912
6.48849
8.43099
10.3353
11.6856
12.0863
12.9119
0.607544
0.659872
0.716588
0.780984
0.857306
0.949393
1.05889
1.18536
1.33263
1.52625
1.85157
2.53608
4.0104
6.11944
8.42424
10.4825
12.1359
12.8874
14.4645
0.599145
0.656904
0.718752
0.787024
0.864556
0.953412
1.05349
1.16361
1.29
1.4679
1.80318
2.53642
4.02117
6.06507
8.23326
10.4064
12.3705
13.6066
16.3743
0.595485
0.659252
0.726918
0.799985
0.880047
0.967696
1.06181
1.1621
1.28014
1.46531
1.85312
2.72339
4.39262
6.57363
8.46847
10.5373
12.5315
14.2193
19.3772
0.597041
0.667377
0.741651
0.820805
0.905431
0.994931
1.08763
1.18519
1.30695
1.52287
2.0175
3.15426
5.25894
7.89682
9.90206
11.6064
13.1748
14.9197
22.6557
0.604035
0.68155
0.76333
0.85012
0.941736
1.03661
1.13276
1.23439
1.37113
1.6438
2.32278
3.89336
6.70057
10.1285
12.9194
14.3895
15.001
16.081
25.1914
0.61639
0.70176
0.792149
0.888296
0.98944
1.09313
1.19709
1.30826
1.46894
1.82641
2.75575
4.91311
8.6053
12.8113
16.8382
19.3657
18.6892
18.1814
26.7799
0.633778
0.727839
0.828121
0.935436
1.04851
1.16393
1.27876
1.40199
1.58732
2.02074
3.15853
5.76837
10.0429
14.9513
19.7359
24.0725
25.239
22.2053
28.4914
0.655638
0.759398
0.871003
0.991293
1.11838
1.24759
1.37465
1.50873
1.70756
2.16328
3.33141
5.9431
10.1776
15.1519
19.8425
24.0859
29.5307
30.2938
30.557
0.681175
0.795743
0.920146
1.05508
1.19781
1.34196
1.48134
1.62335
1.82117
2.24289
3.26425
5.4162
8.66023
12.3033
16.7996
22.8691
29.2976
38.6869
33.1615
0.709327
0.835785
0.974339
1.12529
1.2847
1.44416
1.59548
1.74412
1.93712
2.31337
3.16529
4.84072
7.15254
9.37578
12.0737
17.0092
26.2343
34.2908
32.9889
0.738748
0.877991
1.03175
1.1996
1.37606
1.55041
1.71308
1.86961
2.06414
2.41522
3.15708
4.53358
6.40967
7.94915
9.48617
13.0478
20.1791
32.1142
34.583
0.767816
0.920352
1.09002
1.27516
1.46837
1.65634
1.82888
1.99538
2.20314
2.55784
3.25214
4.45713
6.02258
7.13611
8.39174
11.403
17.3755
28.3657
36.5859
0.795214
0.960728
1.1463
1.34885
1.55834
1.75809
1.9374
2.11291
2.34156
2.72322
3.42044
4.55432
5.85663
6.81739
8.19283
11.0915
16.4844
25.9432
38.843
0.819149
0.997245
1.19841
1.41812
1.64362
1.85383
2.03579
2.21288
2.45675
2.87152
3.61304
4.79602
6.06107
6.98185
8.53246
11.547
16.8294
26.0077
41.9059
0.837754
1.02786
1.24429
1.48141
1.72396
1.94517
2.1276
2.29564
2.53708
2.97336
3.79008
5.15762
6.58672
7.54064
9.2694
12.4921
18.024
28.0078
45.5555
0.849117
1.05061
1.28227
1.53814
1.80123
2.03835
2.22589
2.3822
2.60864
3.05514
3.95373
5.59088
7.38258
8.34794
10.2935
13.8167
19.7873
31.1636
49.761
0.851071
1.06317
1.31019
1.58751
1.87804
2.14237
2.35081
2.51027
2.72498
3.1787
4.14653
6.04831
8.0189
9.17756
11.607
15.5332
21.8984
34.4212
54.4039
0.840916
1.06219
1.32414
1.62572
1.95308
2.26259
2.51817
2.71159
2.93167
3.38325
4.36028
6.2939
8.50893
10.2941
13.3296
17.7462
24.507
37.2262
58.4124
0.81536
1.04303
1.3174
1.64325
2.01454
2.38949
2.72285
2.99362
3.25741
3.70446
4.6491
6.55241
9.13302
11.694
15.441
20.5297
27.9271
41.1073
61.4572
0.770869
1.00012
1.28108
1.62477
2.03828
2.4932
2.93394
3.32617
3.68949
4.16166
5.03492
6.8
9.84446
13.1758
17.7837
23.9066
32.5745
46.3559
63.3168
0.704513
0.928135
1.20612
1.55363
1.99134
2.52272
3.08686
3.63801
4.15655
4.7133
5.5175
7.01147
9.92811
14.4426
20.0663
27.8206
39.8967
55.025
64.6617
0.615441
0.823652
1.08595
1.41778
1.84695
2.41359
3.08448
3.80544
4.52585
5.24148
6.05661
7.27689
9.5757
13.9138
20.8805
30.2503
45.2552
66.7972
69.8445
0.506999
0.687719
0.919367
1.21431
1.59881
2.12215
2.81999
3.65931
4.57755
5.51431
6.4694
7.5904
9.32434
12.5487
18.3382
27.9682
43.5594
72.212
80.1059
0.388813
0.529277
0.714012
0.951378
1.25919
1.67598
2.26864
3.05395
4.03493
5.15164
6.3311
7.58084
9.13803
11.6592
16.306
25.0482
41.5851
71.115
85.529
0.276456
0.367882
0.49171
0.653746
0.863417
1.14229
1.53946
2.10488
2.88311
3.89465
5.11878
6.53884
8.26908
10.7989
15.2348
24.0975
42.2189
73.0657
89.1387
0.185505
0.229835
0.290021
0.369282
0.471711
0.60575
0.791798
1.06686
1.4772
2.08391
2.94782
4.15339
5.91351
8.82024
14.0683
24.3792
44.7953
82.4774
100.165
0.122457
0.133073
0.14637
0.162484
0.181601
0.204572
0.23401
0.275193
0.336488
0.431731
0.584663
0.848562
1.40293
2.99344
8.21928
25.3351
48.897
97.6867
135.2
)
;

boundaryField
{
    leftWall
    {
        type            epsilonWallFunction;
        value           nonuniform List<scalar> 
50
(
0.0341465
0.0433834
0.053851
0.0582949
0.0649433
0.0714386
0.0768238
0.0836296
0.109343
0.206921
0.36107
0.499008
0.562138
0.507879
0.459935
0.427967
0.407023
0.393934
0.38397
0.374241
0.363159
0.350189
0.335565
0.319954
0.304173
0.289026
0.275215
0.263315
0.253761
0.246875
0.24287
0.241857
0.243876
0.248901
0.256872
0.267711
0.281325
0.297596
0.316401
0.337635
0.361297
0.387579
0.417045
0.450896
0.491097
0.541015
0.607991
0.711935
0.924893
1.63867
)
;
    }
    rightWall
    {
        type            epsilonWallFunction;
        value           nonuniform List<scalar> 
50
(
1.01446
2.14963
3.89408
5.50856
6.78858
7.75351
8.50069
9.10369
9.60454
9.7441
9.06765
8.4517
8.16403
8.19043
8.6425
9.03037
9.02553
8.74862
8.9113
9.40856
10.2131
11.4443
12.9119
14.4645
16.3743
19.3772
22.6557
25.1914
26.7799
28.4914
30.557
33.1615
32.9889
34.583
36.5859
38.843
41.9059
45.5555
49.761
54.4039
58.4124
61.4572
63.3168
64.6617
69.8445
80.1059
85.529
89.1387
100.165
135.2
)
;
    }
    lowerWall
    {
        type            epsilonWallFunction;
        value           nonuniform List<scalar> 
62
(
0.0341465
0.10817
0.20695
0.305961
0.392426
0.475006
0.550258
0.621177
0.687989
0.750005
0.805923
0.853948
0.891706
0.915904
0.921081
0.90854
0.876533
0.816462
0.727173
0.611713
0.470597
0.347351
0.259993
0.259993
0.306622
0.47226
0.661
0.862667
1.07076
1.29659
1.66058
2.20282
1.64267
1.23174
1.06632
0.337411
0.66653
1.30073
1.73777
1.93372
1.91727
1.7338
1.53954
0.337411
1.02876
2.19216
3.76415
5.71273
7.83354
9.83334
11.4769
12.6245
13.2026
13.2147
12.8043
12.2482
11.5652
10.6864
9.59164
8.14358
5.81464
1.01446
)
;
    }
    atmosphere
    {
        type            inletOutlet;
        inletValue      uniform 0.1;
        value           nonuniform List<scalar> 
46
(
0.1
0.1
0.1
0.1
0.1
0.1
0.1
0.1
0.1
0.1
0.1
0.1
0.1
0.1
0.1
0.1
0.1
0.1
0.1
0.1
0.1
0.1
0.1
0.1
0.1
0.1
0.1
0.1
0.1
0.1
0.1
0.1
0.1
0.1
0.1
0.1
0.1
0.1
0.1
0.1
0.1
0.1
25.3351
48.897
97.6867
135.2
)
;
    }
    defaultFaces
    {
        type            empty;
    }
}


// ************************************************************************* //
