/*--------------------------------*- C++ -*----------------------------------*\
  =========                 |
  \\      /  F ield         | OpenFOAM: The Open Source CFD Toolbox
   \\    /   O peration     | Website:  https://openfoam.org
    \\  /    A nd           | Version:  7
     \\/     M anipulation  |
\*---------------------------------------------------------------------------*/
FoamFile
{
    version     2.0;
    format      ascii;
    class       volScalarField;
    location    "0.5";
    object      p_rgh;
}
// * * * * * * * * * * * * * * * * * * * * * * * * * * * * * * * * * * * * * //

dimensions      [1 -1 -2 0 0 0 0];

internalField   nonuniform List<scalar> 
2268
(
634.818
633.551
639.832
650.166
661.892
673.691
685.455
697.373
709.697
722.629
736.333
750.959
766.674
783.717
802.53
823.628
847.508
874.149
902.514
929.172
947.615
948.674
972.988
634.579
632.203
637.189
646.436
657.35
668.747
680.4
692.394
704.902
718.098
732.149
747.226
763.53
781.331
801.032
823.298
848.632
877.271
908.041
936.594
956.373
944.981
971.541
633.442
631.172
635.662
643.477
653.225
663.888
675.163
687.031
699.59
712.978
727.362
742.931
759.912
778.609
799.432
822.956
849.675
879.583
911.355
940.333
960.711
948.673
973.993
632.347
630.538
634.802
641.517
650.179
660.035
670.786
682.371
694.844
708.311
722.936
738.917
756.49
775.959
797.699
822.146
849.665
879.996
911.72
940.379
961.119
960.914
982.478
631.611
630.821
634.455
640.24
647.945
657.007
667.176
678.394
690.692
704.152
718.932
735.235
753.286
773.37
795.807
820.887
848.794
879.078
910.339
938.612
959.877
966.836
993.675
631.207
631.468
634.325
639.242
646.073
654.355
663.912
674.72
686.803
700.208
715.094
731.661
750.115
770.712
793.717
819.273
847.392
877.458
908.162
936.052
957.601
971.354
1004.07
631.003
632
634.046
638.118
644.126
651.635
660.574
670.974
682.85
696.206
711.194
728.017
746.848
767.912
791.426
817.39
845.669
875.479
905.631
933.052
954.288
973.347
1008.99
630.857
631.795
632.8
636.025
641.335
648.204
656.623
666.7
678.463
691.843
707.002
724.146
743.402
764.947
788.945
815.27
843.669
873.239
902.876
929.668
949.759
968.416
1003.05
382.533
382.436
382.314
382.111
381.802
381.416
381.012
380.646
380.366
380.214
380.205
380.346
380.688
381.268
382.076
383.082
384.226
385.263
385.75
382.544
382.455
382.349
382.148
381.826
381.426
381.017
380.647
380.359
380.197
380.18
380.307
380.623
381.176
381.958
382.933
384.045
385.143
385.745
382.575
382.485
382.372
382.151
381.81
381.407
381.006
380.641
380.346
380.175
380.151
380.255
380.535
381.057
381.815
382.761
383.812
384.943
385.751
382.619
382.514
382.375
382.124
381.769
381.371
380.979
380.615
380.309
380.126
380.095
380.175
380.417
380.91
381.644
382.568
383.528
384.584
385.752
382.665
382.537
382.37
382.093
381.726
381.329
380.939
380.57
380.25
380.053
380.02
380.075
380.278
380.744
381.444
382.346
383.208
384
385.836
382.712
382.557
382.365
382.067
381.69
381.291
380.897
380.521
380.182
379.973
379.938
379.964
380.125
380.569
381.231
382.116
382.916
383.121
386.192
382.765
382.578
382.364
382.051
381.665
381.261
380.859
380.474
380.117
379.897
379.864
379.844
379.956
380.437
381.137
382.085
382.879
381.911
386.8
382.831
382.614
382.38
382.054
381.655
381.243
380.832
380.436
380.056
379.815
379.805
379.761
379.862
380.608
381.718
383.122
383.88
380.827
387.246
621.003
609.107
601.867
607.173
618.038
630.695
643.731
657.177
670.896
684.546
699.922
717.548
737.485
759.868
784.732
811.611
840.118
869.301
898.329
924.365
942.503
949.978
943.616
234.13
200.844
185.577
199.214
225.835
259.375
298.473
345.245
401.741
463.988
524.252
587.958
653.259
716.494
771.072
806.62
836.094
864.384
893.921
922.978
945.548
960.474
976.445
0.740019
0.989507
1.05446
1.02905
1.01352
1.00936
1.00645
1.00451
1.0248
6.72609
30.8099
67.2505
120.354
205.159
353.933
566.471
788.764
864.37
893.036
926.66
953.884
977.29
1002.37
0.95965
0.95674
0.975653
0.988123
0.998525
1.00707
1.01296
1.01726
1.02283
1.03275
1.03433
1.04345
1.05033
1.0471
1.04953
14.2274
83.5775
248.694
566.455
942.262
972.202
994.288
1017.96
0.911351
0.926741
0.945637
0.960867
0.970445
0.977391
0.983387
0.989453
0.996585
1.00572
1.01157
1.01452
1.01724
1.02392
1.04052
1.04448
0.941162
0.724167
18.0451
158.098
456.04
780.663
1024.36
0.918923
0.92225
0.930819
0.940203
0.947451
0.953504
0.959268
0.965344
0.972287
0.979778
0.985882
0.990901
0.995641
1.0011
1.00734
1.01
1.01156
1.00557
0.919442
0.693743
1.75637
50.1578
182.964
0.906968
0.909901
0.915137
0.921533
0.927453
0.933011
0.938554
0.944367
0.950652
0.957115
0.963184
0.96889
0.974086
0.978475
0.981043
0.978265
0.969268
0.968032
0.997778
1.00988
0.977094
0.819453
0.629933
0.893531
0.895348
0.898823
0.903481
0.908368
0.913377
0.918609
0.924167
0.930089
0.936196
0.942221
0.948002
0.953285
0.957687
0.960423
0.959531
0.953984
0.947924
0.945085
0.937085
0.954245
1.01908
1.03663
0.878399
0.879696
0.881972
0.885374
0.889399
0.893886
0.898808
0.904162
0.90991
0.915919
0.921991
0.927936
0.933514
0.938404
0.9421
0.943729
0.942841
0.940485
0.93758
0.932362
0.931194
0.935227
0.922861
0.862105
0.862913
0.864334
0.866886
0.870289
0.874371
0.879047
0.884256
0.889929
0.895952
0.902172
0.908417
0.914473
0.920081
0.924909
0.928571
0.930957
0.932556
0.933845
0.934377
0.935814
0.938902
0.940105
0.845107
0.8454
0.846158
0.848097
0.851052
0.854832
0.859325
0.864445
0.870111
0.876226
0.882664
0.889281
0.895902
0.902326
0.908341
0.913762
0.918587
0.923123
0.927718
0.932462
0.938245
0.945494
0.953628
0.827543
0.827389
0.827638
0.829129
0.83175
0.835304
0.839663
0.844735
0.850439
0.85669
0.863386
0.870407
0.877616
0.884866
0.892025
0.899008
0.905845
0.912735
0.919947
0.927763
0.936823
0.947451
0.959743
0.809484
0.808984
0.808872
0.810041
0.812412
0.815793
0.820054
0.825106
0.830872
0.837279
0.844245
0.851675
0.85946
0.867493
0.875693
0.884027
0.892547
0.901401
0.910816
0.921103
0.932762
0.946098
0.96152
0.79091
0.790196
0.789865
0.790817
0.793002
0.796251
0.800444
0.805495
0.811336
0.817902
0.825131
0.832947
0.841267
0.850011
0.859125
0.868604
0.87851
0.888972
0.900196
0.912484
0.926259
0.941798
0.959568
0.771779
0.770981
0.77056
0.771384
0.773439
0.776591
0.780737
0.7858
0.791718
0.798438
0.805907
0.81407
0.822862
0.832221
0.842111
0.852537
0.863563
0.87531
0.887968
0.901822
0.917248
0.934476
0.953929
0.752042
0.751273
0.750867
0.751638
0.753615
0.756703
0.76082
0.765901
0.771892
0.778748
0.786427
0.794884
0.804069
0.813936
0.824456
0.835639
0.847546
0.860288
0.874045
0.889081
0.905735
0.924189
0.944784
0.731658
0.730999
0.730686
0.731468
0.733411
0.736464
0.740568
0.74567
0.751724
0.758694
0.766543
0.775236
0.784732
0.794993
0.805997
0.817756
0.830324
0.843806
0.858367
0.874254
0.89177
0.911054
0.932357
0.710597
0.710093
0.709926
0.710763
0.712711
0.715754
0.719857
0.724979
0.731084
0.73814
0.746117
0.754985
0.764708
0.775254
0.786605
0.798771
0.811802
0.825794
0.840903
0.857356
0.875426
0.895211
0.916876
0.688836
0.688505
0.688507
0.68943
0.691407
0.69446
0.698571
0.70371
0.70985
0.716963
0.725024
0.734005
0.743875
0.754604
0.766174
0.778594
0.791911
0.806214
0.821649
0.838428
0.856798
0.87682
0.898584
0.666362
0.666197
0.66637
0.66739
0.669414
0.672488
0.67661
0.68176
0.687917
0.695057
0.703158
0.712195
0.722135
0.73295
0.744624
0.757163
0.770611
0.785053
0.800629
0.817538
0.836007
0.856062
0.877734
0.643166
0.643144
0.643474
0.64459
0.646667
0.649766
0.653898
0.659049
0.665202
0.672339
0.680438
0.689474
0.699414
0.71023
0.721905
0.734446
0.747895
0.762335
0.777902
0.79479
0.813206
0.833151
0.854603
0.619242
0.619332
0.619795
0.620997
0.623125
0.626247
0.630381
0.635519
0.641648
0.648751
0.656807
0.665789
0.675666
0.686408
0.697998
0.710442
0.723785
0.738113
0.753562
0.770321
0.788583
0.80833
0.829499
0.594586
0.594756
0.595324
0.596596
0.598764
0.601903
0.606028
0.611137
0.617219
0.624256
0.632229
0.64111
0.650867
0.66147
0.672901
0.685171
0.698328
0.712463
0.727718
0.744281
0.762336
0.781848
0.802728
0.569197
0.569418
0.570062
0.571383
0.57358
0.576721
0.580823
0.585886
0.591896
0.598837
0.60669
0.615424
0.625011
0.635419
0.646632
0.658666
0.671575
0.685461
0.700473
0.716804
0.734634
0.753916
0.774545
0.543078
0.543327
0.544017
0.545365
0.547573
0.550702
0.554766
0.559761
0.565675
0.572491
0.580188
0.588737
0.598108
0.608272
0.619217
0.630965
0.64358
0.657176
0.671913
0.687995
0.705601
0.724684
0.745124
0.516238
0.516498
0.517207
0.518557
0.520757
0.523857
0.527864
0.53277
0.538564
0.545227
0.552735
0.561062
0.570177
0.580055
0.590688
0.602108
0.614391
0.627665
0.642104
0.657923
0.675308
0.694215
0.714549
0.48869
0.48895
0.48965
0.490977
0.493149
0.496201
0.500131
0.504928
0.510577
0.517058
0.524348
0.53242
0.541244
0.550798
0.561082
0.572138
0.584055
0.596976
0.611091
0.626628
0.643784
0.662527
0.682788
0.46045
0.4607
0.461367
0.462648
0.464771
0.467756
0.471588
0.476253
0.481732
0.488005
0.495049
0.502835
0.511335
0.520532
0.530433
0.541091
0.552608
0.565143
0.578901
0.594125
0.611024
0.629582
0.64976
0.431535
0.431765
0.432381
0.433596
0.435652
0.438548
0.442261
0.44677
0.452055
0.458095
0.464864
0.472335
0.480482
0.48929
0.498775
0.509
0.520082
0.532192
0.545551
0.560415
0.577003
0.595321
0.615362
0.401967
0.402169
0.40272
0.403852
0.405822
0.40861
0.412181
0.416509
0.421574
0.427353
0.433819
0.440947
0.44871
0.457099
0.466136
0.475893
0.486499
0.498139
0.511048
0.525487
0.54169
0.55968
0.579481
0.371778
0.371942
0.372419
0.373452
0.375316
0.377974
0.381379
0.385502
0.39032
0.39581
0.401945
0.408699
0.416049
0.423988
0.432543
0.441793
0.451878
0.462998
0.475392
0.48933
0.505051
0.522596
0.542019
0.341005
0.34112
0.341515
0.342433
0.344172
0.346676
0.349891
0.353783
0.358327
0.363498
0.369273
0.375624
0.38253
0.389987
0.398023
0.406726
0.416243
0.426781
0.438588
0.451934
0.46706
0.484026
0.502906
0.309689
0.309737
0.310044
0.31083
0.312423
0.314752
0.317752
0.321388
0.325631
0.330456
0.33584
0.341758
0.348189
0.355131
0.362614
0.370727
0.379621
0.389511
0.400647
0.413301
0.427708
0.443943
0.462103
0.277883
0.277817
0.278039
0.278674
0.280104
0.282238
0.285002
0.288357
0.292273
0.296725
0.30169
0.307145
0.313071
0.319465
0.326359
0.333838
0.342055
0.351224
0.361599
0.373448
0.387001
0.402344
0.419592
0.245691
0.245351
0.245524
0.245993
0.247246
0.24917
0.25168
0.254732
0.258297
0.262351
0.26687
0.271835
0.277227
0.283044
0.289314
0.296118
0.303603
0.311977
0.321494
0.332419
0.344973
0.359248
0.375377
0.213235
0.212266
0.212496
0.212804
0.213876
0.215586
0.217829
0.220561
0.223755
0.227386
0.231436
0.235884
0.240716
0.245928
0.251543
0.257635
0.264336
0.271845
0.280407
0.290282
0.30168
0.3147
0.329482
0.180564
0.178434
0.178886
0.179078
0.179999
0.181506
0.183479
0.185878
0.188683
0.191873
0.195432
0.199343
0.203591
0.208171
0.213105
0.218451
0.224326
0.230908
0.238425
0.247122
0.257203
0.268767
0.281963
0.147719
0.143773
0.144571
0.144759
0.145586
0.146917
0.148626
0.150686
0.153088
0.15582
0.15887
0.162224
0.165867
0.169795
0.174023
0.178597
0.183614
0.18922
0.195614
0.203017
0.211621
0.221529
0.232892
0.114739
0.108417
0.109581
0.10997
0.110764
0.111928
0.113371
0.115083
0.117072
0.119333
0.12186
0.124642
0.127665
0.130925
0.134429
0.138214
0.14235
0.146947
0.152162
0.158178
0.165163
0.173219
0.182469
0.081301
0.0721905
0.0740324
0.0752742
0.0761624
0.0771345
0.0782908
0.0796463
0.0812145
0.0830004
0.0850005
0.0872057
0.0896054
0.0921932
0.094974
0.0979695
0.101223
0.104806
0.108821
0.113399
0.118669
0.124713
0.131567
0.0484817
0.0322383
0.0365994
0.0403655
0.0416816
0.0424775
0.043339
0.0443354
0.0454839
0.0467944
0.0482671
0.0498957
0.0516731
0.0535949
0.0556615
0.0578801
0.0602668
0.0628502
0.0656755
0.0688054
0.0723134
0.0762649
0.0807987
0.0223815
-0.0163372
-0.00615177
8.79663e-05
0.00163535
0.0023143
0.0028988
0.00351224
0.00419829
0.00497487
0.00584665
0.00681347
0.0078739
0.00902624
0.0102677
0.011594
0.0129978
0.0144679
0.0159887
0.0175451
0.0191294
0.0207443
0.0224854
891.56
903.563
913.465
730.439
981.781
986.303
987.503
992.614
1017.14
1024.59
1031.15
1040.6
1033.63
1045.73
1058.92
1072.45
1065.08
1071.29
1081.63
1095.12
326.008
443.608
584.026
741.138
0.467235
0.252637
4.51233
18.54
1.03232
1.0098
0.957064
0.874416
0.908365
0.916058
0.954195
1.00836
0.943237
0.946147
0.951879
0.962428
0.961578
0.967735
0.975473
0.984156
0.970761
0.97921
0.989326
1.00018
0.974976
0.985024
0.996643
1.00898
0.974707
0.985817
0.998428
1.01165
0.970152
0.981886
0.995058
1.00876
0.96165
0.973674
0.987039
1.00088
0.94953
0.961619
0.974939
0.988684
0.934125
0.946152
0.959307
0.972834
0.915761
0.927671
0.940623
0.953888
0.894745
0.906518
0.919274
0.93229
0.871395
0.883028
0.895616
0.908426
0.846059
0.857564
0.870019
0.882678
0.819085
0.830491
0.842852
0.855417
0.790768
0.802123
0.814436
0.826962
0.761307
0.772667
0.784984
0.797523
0.730786
0.742209
0.754579
0.767172
0.699144
0.710673
0.723133
0.735805
0.666237
0.67787
0.69041
0.703126
0.631915
0.643604
0.656166
0.668859
0.596008
0.607664
0.620144
0.632701
0.558372
0.569876
0.582139
0.594422
0.518913
0.530133
0.542038
0.553908
0.477582
0.488386
0.499797
0.511127
0.434356
0.444625
0.45542
0.466103
0.389234
0.398854
0.408925
0.418863
0.34223
0.351086
0.360323
0.369424
0.293391
0.301351
0.309639
0.317804
0.242792
0.249714
0.256919
0.264023
0.190537
0.196232
0.202194
0.208125
0.137316
0.14151
0.146078
0.150832
0.0849358
0.0878121
0.0908697
0.0940148
0.0242711
0.0255206
0.0269267
0.0284832
383.036
382.646
382.456
382.104
381.676
381.247
380.821
380.409
379.985
379.622
379.788
380.378
385.724
400.086
413.571
412.59
394.038
382.171
390.065
557.969
381.809
382.206
381.913
381.709
381.379
380.977
380.565
380.218
396.467
489.354
636.987
756.068
829.54
861.345
847.78
712.206
497.29
450.36
1014.59
757.23
540.536
394.376
381.326
381.03
380.594
379.821
489.125
837.79
1062.09
1117.35
1136.24
1150.2
1165.88
1182.33
1198.01
1086.33
815.494
1095.38
1137.35
1124.46
1021.44
786.254
664.985
686.709
827.593
1073.67
1186.99
1196.47
1212.73
1233.09
1257.83
1283.74
1313.84
1355.52
1443.92
1217.07
1119.55
1151.13
1178.36
1202.57
1220.98
1216.6
1223.34
1235.11
1232.21
1235.95
1254.34
1285.85
1320.24
1362.54
1396.62
1429.25
1475.11
1582.97
1302.82
981.077
1172.86
1197.79
1206.2
1215.91
1223.94
1229.28
1236.5
1245.92
1248.61
1229.35
1251.56
1332.58
1441.01
1512.17
1537.82
1559.46
1641.65
1209.42
100.038
292.926
483.581
602.81
678.055
717.745
716.621
692.315
622.163
507.191
411.355
396.996
452.705
715.237
1268.98
1610.97
1615.5
1648.11
1062.48
0.706399
0.665666
0.668465
2.09236
6.32856
11.0359
11.3153
9.23281
3.98586
2.37467
3.16508
5.10346
15.6399
111.002
592.442
1532.72
1653.84
1599.42
782.04
1.07002
1.09315
1.09823
1.0719
1.03799
1.1147
1.39249
1.82463
2.20594
2.50073
2.95235
3.64605
6.35089
19.2499
532.317
1535.85
1706.21
1277.09
458.847
0.990636
1.01534
1.04491
1.09778
1.19925
1.35451
1.55811
1.81364
2.08821
2.40246
2.82037
3.21862
3.5418
6.19151
514.006
1624.89
1755.55
733.33
187.832
0.999476
1.02777
1.06872
1.13104
1.22717
1.36157
1.533
1.74161
1.97789
2.24227
2.53325
2.74676
2.71009
3.1691
443.353
1637.78
1625.88
361.281
168.081
1.01997
1.05575
1.10458
1.17116
1.26156
1.38028
1.52791
1.70049
1.88748
2.07179
2.22515
2.30131
2.27441
2.20737
329.128
1544.15
1589.14
233.224
166.753
1.03155
1.07149
1.12396
1.19208
1.27874
1.38564
1.51113
1.64916
1.78852
1.90889
1.97511
1.96755
1.96964
1.65324
184.299
1413.41
1662.6
330.845
165.318
1.03541
1.07673
1.12963
1.19597
1.27668
1.37134
1.47655
1.5853
1.68647
1.7621
1.78034
1.71812
1.73527
1.21514
89.0621
1318.24
1728.72
592.526
160.537
1.03304
1.07431
1.12587
1.18863
1.26226
1.34512
1.43302
1.51873
1.59199
1.63815
1.63469
1.56581
1.51109
1.0572
27.4595
1151.96
1805.43
743.397
155.301
1.0252
1.06559
1.11485
1.1733
1.23993
1.31251
1.38669
1.45588
1.51166
1.5433
1.53592
1.47364
1.3821
1.17864
1.09252
791.571
1883.08
688.609
152.665
1.01268
1.0517
1.09824
1.15232
1.21266
1.27695
1.34123
1.40017
1.44792
1.47811
1.48273
1.451
1.39224
1.32473
0.911444
319.632
1644.65
680.199
152.781
0.996309
1.03372
1.07753
1.12762
1.18275
1.24084
1.29873
1.35267
1.39942
1.43668
1.46187
1.4674
1.43924
1.37791
1.13877
21.4462
1539.94
1005.38
166.518
0.976753
1.01257
1.05389
1.10063
1.15177
1.20565
1.25999
1.3126
1.36251
1.41065
1.45904
1.50494
1.52069
1.46873
1.34743
1.41306
1296.29
1469.62
402.395
0.95456
0.988941
1.02819
1.07235
1.12066
1.17199
1.22486
1.27817
1.3325
1.39077
1.45844
1.54062
1.60381
1.55014
1.35699
1.42883
929.344
1527.28
711.124
0.930189
0.963398
1.00109
1.04346
1.09006
1.14018
1.19278
1.24725
1.30459
1.36803
1.44674
1.54783
1.63426
2.121
2.00024
1.21415
188.552
1540.64
714.336
0.904061
0.936436
0.973139
1.01453
1.06044
1.11034
1.16331
1.21822
1.27467
1.33279
1.40104
1.44374
3.08314
5.0026
2.81216
1.17961
1.92733
1029.4
1102.86
0.876564
0.908485
0.944794
0.98601
1.03216
1.08285
1.13676
1.19326
1.24362
1.2868
1.31265
1.34693
2.76554
2.74034
1.70742
1.3849
4.03167
141.52
1145.15
0.848015
0.879869
0.916362
0.958185
1.00557
1.05823
1.11422
1.17228
1.21996
1.25204
1.24393
1.21118
1.32062
1.17311
2.23512
3.32405
13.1103
47.4883
968.76
0.818605
0.850733
0.887925
0.931077
0.980603
1.03635
1.09642
1.15729
1.22991
1.2576
1.24737
1.18494
1.05892
1.33385
17.4506
207.521
151.255
79.7102
519.452
0.788359
0.820984
0.859225
0.904185
0.956493
1.01612
1.08221
1.1606
1.26804
1.3222
1.32422
1.30034
1.24481
1.61725
49.2651
606.691
678.64
233.039
426.484
0.757126
0.790269
0.829654
0.876501
0.9317
0.995451
1.0877
1.19879
1.28019
1.35657
1.41997
1.42765
1.39538
1.76184
118.494
695.803
746.855
422.744
238.641
0.724482
0.758141
0.798358
0.846635
0.904142
0.971227
1.10455
1.15724
1.26072
1.3704
1.46821
1.53185
1.59389
1.73194
13.4369
628.864
787.369
447.044
190.288
0.690113
0.723887
0.764327
0.813079
0.871398
0.939536
1.07488
1.13152
1.24644
1.36261
1.4767
1.61342
1.77889
1.92796
2.29128
583.413
825.792
397.998
177.334
0.653626
0.686992
0.726774
0.774493
0.831276
0.89643
0.978108
1.16494
1.21561
1.35257
1.47829
1.64475
1.92761
2.14719
2.80805
747.169
865.196
317.964
164.776
0.614765
0.647169
0.685363
0.730434
0.783297
0.841435
0.9019
1.45695
3.07697
3.45421
2.30741
1.5785
2.05163
2.27001
349.361
911.904
890.742
215.716
154.141
0.573437
0.604418
0.640368
0.68197
0.729159
0.779645
0.829203
1.17368
3.49744
3.6279
3.72916
1.76765
2.07215
91.7385
891.182
936.493
955.938
271.86
139.26
0.529656
0.558877
0.592177
0.629824
0.671178
0.713975
0.753727
0.785972
3.13198
3.47546
3.49379
1.41963
1.31793
513.347
953.101
953.263
960.644
454.215
109.424
0.483485
0.510713
0.541199
0.574889
0.610797
0.64672
0.678916
0.700296
0.910903
3.30115
2.80225
0.678958
-0.0346511
234.031
974.582
977.87
977.834
469.71
71.472
0.434977
0.460037
0.487686
0.517675
0.54887
0.579066
0.605174
0.617612
0.600738
0.851286
0.714361
0.436365
-0.0695276
0.105599
431.332
890.343
725.191
267.895
45.2503
0.384157
0.406877
0.431703
0.458297
0.485588
0.511521
0.532559
0.541216
0.526261
0.470258
0.375748
0.322836
0.140788
0.159539
0.245434
36.7118
32.5588
55.9463
40.1088
0.331018
0.351195
0.373148
0.396557
0.420517
0.443396
0.461863
0.470149
0.458699
0.416699
0.341233
0.249191
0.156536
0.148046
0.205167
0.218561
-0.0773186
-2.30851
3.48363
0.275532
0.292923
0.311831
0.332043
0.352885
0.373157
0.390427
0.400038
0.394618
0.365716
0.309243
0.230277
0.139232
0.0743648
0.00583932
-0.192621
-0.442037
-1.27688
13.0939
0.217845
0.232281
0.247895
0.264652
0.282159
0.299639
0.315496
0.326326
0.326877
0.31047
0.271687
0.208745
0.122662
0.0264498
-0.0907442
-0.258298
-0.419433
-0.802741
40.6502
0.158913
0.170349
0.182495
0.195508
0.209294
0.223458
0.236938
0.247437
0.251326
0.243882
0.220032
0.174995
0.103191
-0.00224306
-0.144287
-0.286873
-0.354225
0.100401
42.3972
0.0992731
0.107319
0.115831
0.124859
0.134525
0.144747
0.154885
0.163482
0.167948
0.165247
0.151633
0.122057
0.0685185
-0.0221975
-0.179309
-0.358452
-0.339059
0.670755
40.3902
0.0311839
0.0354543
0.0396292
0.0437163
0.0479082
0.0523113
0.0568212
0.0609977
0.0639563
0.0641292
0.0584689
0.03986
-0.00702898
-0.11857
-0.396087
-0.482585
-0.483291
-0.953344
26.9989
)
;

boundaryField
{
    leftWall
    {
        type            fixedFluxPressure;
        gradient        uniform 0;
        value           nonuniform List<scalar> 
50
(
634.818
634.579
633.442
632.347
631.611
631.207
631.003
630.857
621.003
234.13
0.740019
0.95965
0.911351
0.918923
0.906968
0.893531
0.878399
0.862105
0.845107
0.827543
0.809484
0.79091
0.771779
0.752042
0.731658
0.710597
0.688836
0.666362
0.643166
0.619242
0.594586
0.569197
0.543078
0.516238
0.48869
0.46045
0.431535
0.401967
0.371778
0.341005
0.309689
0.277883
0.245691
0.213235
0.180564
0.147719
0.114739
0.081301
0.0484817
0.0223815
)
;
    }
    rightWall
    {
        type            fixedFluxPressure;
        gradient        uniform 0;
        value           nonuniform List<scalar> 
50
(
385.75
385.745
385.751
385.752
385.836
386.192
386.8
387.246
390.065
450.36
815.494
1217.07
1302.82
1209.42
1062.48
782.04
458.847
187.832
168.081
166.753
165.318
160.537
155.301
152.665
152.781
166.518
402.395
711.124
714.336
1102.86
1145.15
968.76
519.452
426.484
238.641
190.288
177.334
164.776
154.141
139.26
109.424
71.472
45.2503
40.1088
3.48363
13.0939
40.6502
42.3972
40.3902
26.9989
)
;
    }
    lowerWall
    {
        type            fixedFluxPressure;
        gradient        uniform 0;
        value           nonuniform List<scalar> 
62
(
634.818
633.551
639.832
650.166
661.892
673.691
685.455
697.373
709.697
722.629
736.333
750.959
766.674
783.717
802.53
823.628
847.508
874.149
902.514
929.172
947.615
948.674
972.988
972.988
971.541
973.993
982.478
993.675
1004.07
1008.99
1003.05
891.56
903.563
913.465
730.439
382.533
382.544
382.575
382.619
382.665
382.712
382.765
382.831
382.533
382.436
382.314
382.111
381.802
381.416
381.012
380.646
380.366
380.214
380.205
380.346
380.688
381.268
382.076
383.082
384.226
385.263
385.75
)
;
    }
    atmosphere
    {
        type            totalPressure;
        rho             rho;
        psi             none;
        gamma           1;
        p0              uniform 0;
        value           nonuniform List<scalar> 
46
(
-0.00403102
-0.0241312
-0.0244512
-0.0237499
-0.0231869
-0.0227321
-0.0223252
-0.0219206
-0.0214919
-0.0210249
-0.0205116
-0.0199466
-0.0193258
-0.0186466
-0.0179099
-0.0171215
-0.0162957
-0.0154597
-0.0146582
-0.0139588
-0.0134518
-0.0132363
-0.0133829
-0.0136752
-0.0135938
-0.0130844
-0.0121741
-0.0103728
-0.00864328
-0.00775167
-0.00755166
-0.00799345
-0.00917109
-0.0112879
-0.014588
-0.0193648
-0.0261121
-0.0357669
-0.0494986
-0.0637372
-0.0582433
-0.00967708
0
0
0
0
)
;
    }
    defaultFaces
    {
        type            empty;
    }
}


// ************************************************************************* //
