/*--------------------------------*- C++ -*----------------------------------*\
  =========                 |
  \\      /  F ield         | OpenFOAM: The Open Source CFD Toolbox
   \\    /   O peration     | Website:  https://openfoam.org
    \\  /    A nd           | Version:  7
     \\/     M anipulation  |
\*---------------------------------------------------------------------------*/
FoamFile
{
    version     2.0;
    format      ascii;
    class       volScalarField;
    location    "0.00252";
    object      p;
}
// * * * * * * * * * * * * * * * * * * * * * * * * * * * * * * * * * * * * * //

dimensions      [1 -1 -2 0 0 0 0];

internalField   nonuniform List<scalar> 
500
(
1129.9
1129.9
1129.9
1129.9
1129.9
1129.9
1129.9
1129.9
1129.9
1129.9
1129.9
1129.9
1129.9
1129.9
1129.9
1129.9
1129.9
1129.9
1129.9
1129.9
1129.9
1129.9
1129.9
1129.9
1129.9
1129.9
1129.9
1129.9
1129.9
1129.9
1129.9
1129.9
1129.9
1129.9
1129.9
1129.9
1129.9
1129.9
1129.9
1129.9
1129.9
1129.9
1129.9
1129.9
1129.9
1129.9
1129.9
1129.9
1129.9
1129.9
1129.9
1129.9
1129.9
1129.9
1129.9
1129.9
1129.9
1129.9
1129.9
1129.9
1129.9
1129.9
1129.9
1129.9
1129.9
1129.9
1129.9
1129.9
1129.9
1129.9
1129.9
1129.9
1129.9
1129.9
1129.9
1129.9
1129.9
1129.9
1129.9
1129.9
1129.9
1129.9
1129.9
1129.9
1129.9
1129.9
1129.9
1129.9
1129.9
1129.9
1129.9
1129.9
1129.9
1129.9
1129.9
1129.9
1129.9
1129.9
1129.9
1129.9
1129.9
1129.9
1129.9
1129.9
1129.9
1129.9
1129.9
1129.9
1129.9
1129.9
1129.9
1129.9
1129.9
1129.9
1129.9
1129.9
1129.9
1129.9
1129.9
1129.9
1129.9
1129.9
1129.9
1129.9
1129.9
1129.9
1129.9
1129.9
1129.9
1129.9
1129.9
1129.9
1129.9
1129.9
1129.9
1129.9
1129.9
1129.9
1129.9
1129.9
1129.89
1129.86
1129.8
1129.63
1129.17
1127.9
1124.41
1114.52
1087.12
1048.71
1022.38
1005
991.794
980.498
970.042
959.906
949.853
939.804
929.758
919.741
909.78
899.897
890.101
880.398
870.791
861.28
851.863
842.539
833.309
824.17
815.122
806.163
797.292
788.508
779.811
771.199
762.67
754.225
745.863
737.581
729.38
721.258
713.215
705.25
697.363
689.551
681.816
674.155
666.568
659.056
651.616
644.248
636.952
629.727
622.573
615.489
608.474
601.528
594.651
587.841
581.099
574.424
567.815
561.273
554.797
548.385
542.039
535.758
529.54
523.387
517.297
511.269
505.304
499.401
493.558
487.775
482.052
476.389
470.786
465.25
459.794
454.446
449.266
444.355
439.877
436.027
432.966
430.883
429.546
428.821
428.598
428.576
428.653
428.992
429.291
429.512
429.664
429.759
429.782
429.735
429.687
429.619
429.572
429.506
429.416
429.316
429.225
429.144
429.111
429.051
428.986
428.922
428.882
428.867
428.888
428.883
428.866
428.839
428.841
428.864
428.909
428.952
428.994
429.026
429.076
429.125
429.178
429.221
429.26
429.289
429.333
429.371
429.401
429.415
429.425
429.444
429.494
429.567
429.637
429.68
429.689
429.68
429.66
429.619
429.565
429.507
429.445
429.389
429.341
429.314
429.312
429.299
429.294
429.296
429.287
429.274
429.257
429.221
429.19
429.174
429.169
429.17
429.185
429.172
429.156
429.147
429.16
429.192
429.225
429.226
429.186
429.135
429.115
429.122
429.126
429.14
429.166
429.215
429.328
429.648
429.694
435.013
432.598
427.79
424.772
424.177
425.5
429.664
431.348
431.992
432.478
432.589
432.352
431.257
428.109
425.934
425.421
425.398
426.148
429.348
432.233
432.831
433.096
433.169
432.612
430.375
426.576
425.565
425.404
425.41
425.978
428.271
431.858
432.839
432.817
432.576
432.123
430.749
427.454
425.622
425.284
425.516
426.113
428.421
429.545
427.516
399.722
240.061
119.311
109.692
109.134
109.102
109.1
109.1
109.1
109.1
109.1
109.1
109.1
109.1
109.1
109.1
109.1
109.1
109.1
109.1
109.1
109.1
109.1
109.1
109.1
109.1
109.1
109.1
109.1
109.1
109.1
109.1
109.1
109.1
109.1
109.1
109.1
109.1
109.1
109.1
109.1
109.1
109.1
109.1
109.1
109.1
109.1
109.1
109.1
109.1
109.1
109.1
109.1
109.1
109.1
109.1
109.1
109.1
109.1
109.1
109.1
109.1
109.1
109.1
109.1
109.1
109.1
109.1
109.1
109.1
109.1
109.1
109.1
109.1
109.1
109.1
109.1
109.1
109.1
109.1
109.1
109.1
109.1
109.1
109.1
109.1
109.1
109.1
109.1
109.1
109.1
109.1
109.1
109.1
109.1
109.1
109.1
109.1
109.1
109.1
109.1
109.1
109.1
109.1
109.1
109.1
109.1
109.1
109.1
109.1
109.1
109.1
109.1
109.1
109.1
109.1
109.1
109.1
109.1
109.1
109.1
109.1
109.1
109.1
109.1
109.1
109.1
109.1
109.1
109.1
109.1
109.1
109.1
109.1
)
;

boundaryField
{
    sides
    {
        type            zeroGradient;
    }
    empty
    {
        type            empty;
    }
}


// ************************************************************************* //
