/*--------------------------------*- C++ -*----------------------------------*\
  =========                 |
  \\      /  F ield         | OpenFOAM: The Open Source CFD Toolbox
   \\    /   O peration     | Website:  https://openfoam.org
    \\  /    A nd           | Version:  7
     \\/     M anipulation  |
\*---------------------------------------------------------------------------*/
FoamFile
{
    version     2.0;
    format      ascii;
    class       volScalarField;
    location    "0.00144";
    object      dsmcRhoN;
}
// * * * * * * * * * * * * * * * * * * * * * * * * * * * * * * * * * * * * * //

dimensions      [0 -3 0 0 0 0 0];

internalField   nonuniform List<scalar> 
125
(
73
86
63
69
83
70
60
61
62
55
76
85
75
80
83
68
65
73
65
75
70
77
66
86
74
74
62
83
78
65
68
67
81
73
69
66
63
64
87
68
78
67
66
83
72
70
77
81
76
62
81
77
61
63
70
78
71
84
79
68
67
68
70
79
67
75
64
74
61
79
82
78
78
74
94
101
79
73
66
66
81
75
69
76
76
59
66
85
87
82
83
64
66
75
88
80
67
82
75
71
77
79
84
94
82
76
50
62
74
81
71
70
64
78
66
83
71
89
72
73
80
62
72
72
71
)
;

boundaryField
{
    sides
    {
        type            symmetry;
    }
    empty
    {
        type            empty;
    }
    procBoundary3to2
    {
        type            processor;
        value           uniform 66;
    }
}


// ************************************************************************* //
