/*--------------------------------*- C++ -*----------------------------------*\
  =========                 |
  \\      /  F ield         | OpenFOAM: The Open Source CFD Toolbox
   \\    /   O peration     | Website:  https://openfoam.org
    \\  /    A nd           | Version:  7
     \\/     M anipulation  |
\*---------------------------------------------------------------------------*/
FoamFile
{
    version     2.0;
    format      ascii;
    class       volScalarField;
    location    "0.00144";
    object      internalE;
}
// * * * * * * * * * * * * * * * * * * * * * * * * * * * * * * * * * * * * * //

dimensions      [1 -1 -2 0 0 0 0];

internalField   nonuniform List<scalar> 
125
(
107.304
133.682
72.1211
101.055
129.165
73.5107
112.16
76.9158
133.979
128.801
108.378
128.379
69.4265
110.328
131.007
90.2669
96.2209
103.897
118.102
126.274
116.74
112.854
105.838
80.0224
101.91
109.82
111.999
137.812
94.3662
105.519
90.2435
129.39
125.163
129.142
96.8211
109.123
108.551
106.595
90.8326
120.324
121.453
95.7024
98.5098
137.801
91.6705
88.9299
130.69
77.7817
96.7406
136.31
85.9582
92.3074
106.74
97.0179
89.2609
94.7188
78.2878
124.312
115.011
105.601
111.018
128.758
125.193
105.067
105.912
85.101
113.491
85.3661
127.238
110.216
92.0561
81.4904
110.189
130.485
118.57
111.325
105.455
112.578
112.006
89.7985
102.757
100.513
113.001
98.0364
112.521
110.629
88.0033
162.499
127.415
99.5465
120.469
113.731
146.995
104.116
96.7098
117.399
149.295
135.542
128.698
110.986
135.115
102.87
114.758
132.907
114.027
108.396
98.0601
135.713
117.576
120.834
99.9843
81.8766
76.6635
124.99
151.105
113.69
108.859
109.755
79.3891
99.9424
182.536
83.5093
94.5088
116.95
119.332
)
;

boundaryField
{
    sides
    {
        type            symmetry;
    }
    empty
    {
        type            empty;
    }
    procBoundary3to2
    {
        type            processor;
        value           uniform 118.691;
    }
}


// ************************************************************************* //
