/*--------------------------------*- C++ -*----------------------------------*\
  =========                 |
  \\      /  F ield         | OpenFOAM: The Open Source CFD Toolbox
   \\    /   O peration     | Website:  https://openfoam.org
    \\  /    A nd           | Version:  7
     \\/     M anipulation  |
\*---------------------------------------------------------------------------*/
FoamFile
{
    version     2.0;
    format      ascii;
    class       volScalarField;
    location    "0.00144";
    object      internalE;
}
// * * * * * * * * * * * * * * * * * * * * * * * * * * * * * * * * * * * * * //

dimensions      [1 -1 -2 0 0 0 0];

internalField   nonuniform List<scalar> 
125
(
104.609
137.265
87.1095
103.461
113.764
115.002
87.8856
74.0934
106.504
84.3584
118.81
133.069
109.656
109.962
135.748
76.8923
86.8781
101.663
74.6869
106.72
112.554
124.209
103.793
129.209
98.6405
104.919
106.089
102.665
128.371
94.9827
115.593
132.754
134.43
78.834
106.347
118.095
96.7771
80.9131
122.43
136.634
100.276
108.845
100.791
124.282
131.972
89.6849
115.419
121.365
117.371
106.244
114.536
110.911
80.5755
78.0859
105.85
113.162
136.2
122.632
107.267
80.1839
84.8021
91.0529
105.558
125.97
102.031
119.058
83.4438
124.422
84.0092
134.164
132.108
110.432
102.67
103.736
124.121
153.324
109.782
107.803
90.2963
96.4725
115.763
140.894
116.364
91.6902
101.249
84.5528
97.0772
138.26
126.347
115.465
146.668
110.181
72.8777
121.648
123.68
121.473
99.2192
97.8752
99.0831
104.709
127.928
133.94
128.781
141.845
132.219
108.768
61.0454
84.7914
110.465
104.308
117.391
89.7085
109.536
130.338
109.092
121.267
78.0367
136.822
117.943
107.212
127.764
106.614
107.843
114.644
100.236
)
;

boundaryField
{
    sides
    {
        type            symmetry;
    }
    empty
    {
        type            empty;
    }
    procBoundary3to2
    {
        type            processor;
        value           uniform 98.1333;
    }
}


// ************************************************************************* //
