/*--------------------------------*- C++ -*----------------------------------*\
  =========                 |
  \\      /  F ield         | OpenFOAM: The Open Source CFD Toolbox
   \\    /   O peration     | Website:  https://openfoam.org
    \\  /    A nd           | Version:  7
     \\/     M anipulation  |
\*---------------------------------------------------------------------------*/
FoamFile
{
    version     2.0;
    format      ascii;
    class       volScalarField;
    location    "0.00144";
    object      linearKE;
}
// * * * * * * * * * * * * * * * * * * * * * * * * * * * * * * * * * * * * * //

dimensions      [1 -1 -2 0 0 0 0];

internalField   nonuniform List<scalar> 
125
(
175.269
189.677
125.631
178.355
147.044
165.754
180.481
152.278
227.982
144.48
151.287
173.306
102.298
218.746
173.509
117.777
154.444
141.458
172.717
219.607
187.077
161.258
165.244
129.133
90.457
155.889
152.65
186.925
137.826
184.077
170.881
166.599
140.545
145.32
156.305
151.617
150.976
158.814
181.204
185.017
174.219
162.264
150.122
191.153
118.108
146.016
221.176
124.959
162.52
175.805
155.357
134.717
167.57
162.56
161.17
140.104
139.005
165.008
174.407
177.759
175.258
155.461
171.035
166.456
169.367
174.54
154.022
174.678
183.601
162.142
189.542
149.887
173.427
185.025
208.814
171.521
144.67
166.67
173.9
150.371
192.515
157.088
148.303
183.606
173.799
142.897
184.394
161.915
162.468
180.865
120.685
163.717
187.767
192.725
149.771
180.582
182.189
235.456
153.314
136.579
213.631
146.903
174.827
179.431
160.975
120.034
136.596
207.529
188.774
157.241
172.94
155.302
117.886
147.089
169.499
166.833
193.16
163.199
121.718
172.849
230.585
114.391
161.518
145.108
138.818
)
;

boundaryField
{
    sides
    {
        type            symmetry;
    }
    empty
    {
        type            empty;
    }
    procBoundary3to2
    {
        type            processor;
        value           uniform 172.748;
    }
}


// ************************************************************************* //
