/*--------------------------------*- C++ -*----------------------------------*\
  =========                 |
  \\      /  F ield         | OpenFOAM: The Open Source CFD Toolbox
   \\    /   O peration     | Website:  https://openfoam.org
    \\  /    A nd           | Version:  7
     \\/     M anipulation  |
\*---------------------------------------------------------------------------*/
FoamFile
{
    version     2.0;
    format      ascii;
    class       volScalarField;
    location    "0.00144";
    object      linearKE;
}
// * * * * * * * * * * * * * * * * * * * * * * * * * * * * * * * * * * * * * //

dimensions      [1 -1 -2 0 0 0 0];

internalField   nonuniform List<scalar> 
125
(
166.921
203.104
141.298
164.237
220.248
143.688
137.593
136.228
143.322
136.7
174.852
196.064
162.117
173.64
189.145
183.7
113.164
176.502
155.135
142.97
158.063
158.647
151.221
229.419
154.523
148.535
141.346
177.819
172.901
139.089
147.203
170.305
174.01
164.649
135.889
160.496
123.584
131.438
203.031
159.73
168.83
144.572
182.073
174.357
186.144
156.175
167.531
179.777
159.546
149.244
185.753
136.885
119.449
129.237
132.77
167.819
137.942
167.108
189.059
154.691
163.356
151.2
133.194
190.841
159.926
167.958
139.77
163.431
146.847
176.57
163.605
185.009
167.741
158.204
245.753
234.888
151.726
147.195
152.63
130.998
195.723
160.183
140.696
161.723
166.69
130.012
128.018
208.946
168.256
205.318
189.45
149.821
152.023
179.368
183.094
222.767
145.987
219.443
170.572
161.648
166.437
205.04
198.601
212.708
149.596
157.577
97.8099
122.165
159.195
203.43
161.732
162.994
137.653
187.189
145.456
146.608
155.788
235.182
160.342
166.098
174.012
125.204
165.099
178.357
165.87
)
;

boundaryField
{
    sides
    {
        type            symmetry;
    }
    empty
    {
        type            empty;
    }
    procBoundary3to2
    {
        type            processor;
        value           uniform 154.299;
    }
}


// ************************************************************************* //
