/*--------------------------------*- C++ -*----------------------------------*\
  =========                 |
  \\      /  F ield         | OpenFOAM: The Open Source CFD Toolbox
   \\    /   O peration     | Website:  https://openfoam.org
    \\  /    A nd           | Version:  7
     \\/     M anipulation  |
\*---------------------------------------------------------------------------*/
FoamFile
{
    version     2.0;
    format      ascii;
    class       volVectorField;
    location    "0.00144";
    object      momentum;
}
// * * * * * * * * * * * * * * * * * * * * * * * * * * * * * * * * * * * * * //

dimensions      [1 -2 -1 0 0 0 0];

internalField   nonuniform List<vector> 
125
(
(-0.0176033 -0.0274404 -0.0286712)
(-0.0186042 -0.00847868 -0.0358036)
(0.0540102 0.0238933 -0.0444264)
(0.05064 0.0406948 0.0179173)
(0.0475917 0.0308123 0.006353)
(-0.000872143 -0.0436936 0.018126)
(0.00562321 -0.0304812 -0.0578329)
(0.0249642 0.0309694 -0.0385549)
(-0.00363657 0.0146659 0.0778797)
(-0.0112409 0.0276133 -0.0256057)
(-0.03724 -0.0512621 0.0389257)
(-0.0719581 0.0290468 0.0083847)
(0.0589967 0.0115585 -0.00717242)
(0.0355138 -0.00591984 -0.0522206)
(0.00960994 0.0584149 0.0109138)
(0.060201 -0.0245437 -0.0767368)
(0.0446089 0.0346329 -0.0152168)
(-0.0226323 0.00124975 0.0307022)
(-0.0432674 0.00415128 0.0679771)
(-0.01499 0.0311977 -0.0539514)
(-0.00857158 0.0651793 0.0497932)
(-0.0499078 0.00178038 -0.0425572)
(0.0435379 0.0300606 0.071141)
(0.0782948 0.016788 0.0199836)
(0.00279439 0.0452035 0.017436)
(0.00498584 -0.00618385 -0.046656)
(-0.00805138 -0.0115946 -0.00620308)
(0.0248123 -0.00794817 -0.0319245)
(-0.00137944 -0.00656979 0.0977114)
(-0.0529736 -0.0604237 0.00597483)
(0.0672137 -0.0640789 0.048666)
(0.00440409 -0.010782 -0.079446)
(0.0079073 -0.0776256 0.0533483)
(0.00501709 0.00179209 -0.0605279)
(-0.0054846 0.0215478 -0.0257676)
(-0.0796356 -0.0111799 -0.056363)
(0.0241258 -0.0345152 -0.0686473)
(-0.0288985 0.0523818 -0.00477237)
(0.00430281 0.0100695 0.0603291)
(0.0215512 -0.0361114 0.0867611)
(0.00950647 0.0644035 0.0138229)
(0.0286542 0.00202286 -0.0150764)
(0.00377923 0.000833486 0.00599356)
(0.0583025 -0.0133856 0.0021661)
(-0.0893774 0.0110892 0.0651237)
(-0.0357858 0.00322853 -0.0272646)
(-0.0809984 0.0252854 -0.0728158)
(0.0683919 -0.0602816 -0.00667705)
(-0.02183 -0.0201926 -0.0230808)
(-0.00384274 0.000452528 0.0257831)
(0.00158882 0.0687733 0.0846074)
(-0.0061255 0.0172437 -0.0330341)
(0.0340796 0.00519089 0.0351193)
(0.0744426 0.0340494 -0.0612297)
(0.0632705 0.0775703 0.0217542)
(0.0680995 0.031092 0.0798549)
(0.0053498 -0.0534284 -0.0263812)
(0.0118536 -0.0592924 0.0395653)
(0.0047798 -0.164304 -0.0281922)
(-0.121859 0.00442537 0.0966206)
(0.000395079 -0.0248192 0.0060102)
(0.0668862 0.00752852 0.0505339)
(-0.0197614 0.0367401 0.0725408)
(-0.0237302 -0.0396473 -0.00348187)
(0.0964071 0.0398927 -0.00687189)
(0.00631858 -0.00121348 -0.0480915)
(-0.0234558 0.0107105 -0.00970402)
(0.0136905 -0.0130564 -0.0284919)
(-0.0298658 -0.0722011 0.0411771)
(0.0555017 0.00303484 0.00123367)
(0.0366255 0.00391385 -0.0553627)
(0.0250103 0.0421265 -0.0509771)
(0.0192096 -0.0404542 -0.0342014)
(-0.0214079 0.0363108 -0.00641949)
(0.0447104 0.0138815 -0.0361241)
(-0.0134158 -0.00629905 -0.0254546)
(-0.0502673 -0.0319438 0.00026855)
(0.0152612 0.00989612 -0.0348225)
(0.0356611 -0.0706996 0.047824)
(0.0786726 -0.0400666 0.021337)
(0.00553499 0.000296925 -0.0379757)
(0.0113168 0.0366313 0.015154)
(0.0605186 0.0228494 0.0675187)
(-0.0123922 0.129384 -0.0338184)
(0.0620272 0.0395975 0.0493756)
(-0.0226384 0.00440844 -0.0181628)
(-0.0616837 0.0148864 0.0423364)
(0.0563749 -0.0396404 -0.0297201)
(-0.00829367 0.0261628 0.0101523)
(0.00193794 -0.0922601 0.00114948)
(-0.0187581 0.0226072 -0.0886217)
(-0.0648651 0.0290065 0.000839344)
(-0.0252481 -0.0258227 -0.0250221)
(0.0064553 0.0204491 0.00911119)
(-0.0171408 -0.036121 0.0207134)
(-0.0445479 0.00113949 0.0308265)
(-0.0150989 0.0296349 -0.0538765)
(0.00257904 0.0897181 -0.00570362)
(0.00512048 -0.00486002 0.0656759)
(-0.0414041 -0.012629 0.0480829)
(0.010439 0.0425702 0.0220845)
(0.0425557 0.0325347 0.0720068)
(0.00730901 0.0647638 0.0829135)
(0.0800327 -0.00349878 0.0882975)
(0.0394634 0.0107222 -0.0400705)
(0.0149909 -0.064653 0.00495949)
(0.0805482 0.0141467 0.0161065)
(-0.0469505 0.00723719 0.0170024)
(0.0338396 0.0518639 0.0265069)
(-0.0691696 0.0328594 -0.0285628)
(0.0339755 -0.0278455 -0.0179591)
(-0.0200825 -0.0136871 0.0289114)
(-0.00412729 0.00984985 -0.0218782)
(-0.049986 -0.0496258 -0.0673303)
(0.0445914 -0.00448679 -0.0423548)
(0.0308266 0.00958497 -0.00192277)
(-0.039165 -0.00920752 -0.0364272)
(-3.5141e-05 -0.00610499 0.0339407)
(0.020329 0.0397492 0.0534313)
(-0.000562651 -0.016929 -0.0375986)
(0.0176151 -0.0119435 -0.0574691)
(-0.0426929 0.00557884 -0.0172727)
(-0.00701439 -0.00717 -0.0649214)
(-0.0178232 0.136627 -0.0117819)
(0.0953102 0.0337489 -0.060961)
)
;

boundaryField
{
    sides
    {
        type            symmetry;
    }
    empty
    {
        type            empty;
    }
    procBoundary3to2
    {
        type            processor;
        value           uniform (0.0362194 -0.00556633 -0.0587631);
    }
}


// ************************************************************************* //
