/*--------------------------------*- C++ -*----------------------------------*\
  =========                 |
  \\      /  F ield         | OpenFOAM: The Open Source CFD Toolbox
   \\    /   O peration     | Website:  https://openfoam.org
    \\  /    A nd           | Version:  7
     \\/     M anipulation  |
\*---------------------------------------------------------------------------*/
FoamFile
{
    version     2.0;
    format      ascii;
    class       volScalarField;
    location    "0.05/fluid";
    object      rho;
}
// * * * * * * * * * * * * * * * * * * * * * * * * * * * * * * * * * * * * * //

dimensions      [1 -3 0 0 0 0 0];

internalField   nonuniform List<scalar> 
200
(
0.000990937195173726
0.000990937195173726
0.000990937195173726
0.000990937195173725
0.000990937195173726
0.000990937195173726
0.000990937195173726
0.000990937195173727
0.000990937195173727
0.000990937195173727
0.000990937195173727
0.000990937195173725
0.000990937195173725
0.000990937195173725
0.000990937195173726
0.000990937195173725
0.000990937195173725
0.000990937195173725
0.000990937195173725
0.000990937195173725
0.000990937195173725
0.000990937195173725
0.000990937195173725
0.000990937195173725
0.000990937195173725
0.000990937195173725
0.000990937195173725
0.000990937195173725
0.000990937195173725
0.000990937195173725
0.000990937195173725
0.000990937195173725
0.000990937195173725
0.000990937195173725
0.000990937195173725
0.000990937195173724
0.000990937195173724
0.000990937195173724
0.000990937195173725
0.000990937195173725
0.000990937195173724
0.000990937195173724
0.000990937195173724
0.000990937195173725
0.000990937195173724
0.000990937195173724
0.000990937195173724
0.000990937195173725
0.000990937195173725
0.000990937195173724
0.000990937195173724
0.000990937195173724
0.000990937195173724
0.000990937195173724
0.000990937195173724
0.000990937195173724
0.000990937195173724
0.000990937195173724
0.000990937195173724
0.000990937195173724
0.000990937195173725
0.000990937195173725
0.000990937195173725
0.000990937195173725
0.000990937195173725
0.000990937195173725
0.000990937195173725
0.000990937195173725
0.000990937195173724
0.000990937195173724
0.000990937195173724
0.000990937195173725
0.000990937195173725
0.000990937195173725
0.000990937195173725
0.000990937195173724
0.000990937195173724
0.000990937195173724
0.000990937195173725
0.000990937195173725
0.000990937195173725
0.000990937195173725
0.000990937195173725
0.000990937195173724
0.000990937195173724
0.000990937195173725
0.000990937195173725
0.000990937195173725
0.000990937195173725
0.000990937195173725
0.000990937195173725
0.000990937195173725
0.000990937195173725
0.000990937195173725
0.000990937195173725
0.000990937195173724
0.000990937195173725
0.000990937195173724
0.000990937195173725
0.000990937195173725
0.000990937195173725
0.000990937195173725
0.000990937195173725
0.000990937195173725
0.000990937195173725
0.000990937195173724
0.000990937195173724
0.000990937195173724
0.000990937195173725
0.000990937195173725
0.000990937195173725
0.000990937195173725
0.000990937195173725
0.000990937195173725
0.000990937195173725
0.000990937195173725
0.000990937195173725
0.000990937195173725
0.000990937195173725
0.000990937195173725
0.000990937195173725
0.000990937195173725
0.000990937195173725
0.000990937195173725
0.000990937195173725
0.000990937195173725
0.000990937195173725
0.00099093719517373
0.000990937195173754
0.000990937195173884
0.000990937195174588
0.000990937195178402
0.000990937195199197
0.000990937195313536
0.000990937195948942
0.000990937199519673
0.000990937219798626
0.000990937336024599
0.000990938007032183
0.000990941901987683
0.000990964589011118
0.000991097277652428
0.00099186511545317
0.000996567067082015
0.00100310288568071
0.00100497564763347
0.0010050315675341
0.0010051004746472
0.00100475706853522
0.00100233164444722
0.000998621356998731
0.000998355867232102
0.000997609884957133
0.000996991376189836
0.000997516890362303
0.000997976069833921
0.000997504609106726
0.000996555622209463
0.000993024688474122
0.000990041677943256
0.000988282644144095
0.000989148126241859
0.000992207318383623
0.000995178810349899
0.000994736511404443
0.000994348022483187
0.000994825197465033
0.000995336494582351
0.000995037404155726
0.000994926227206311
0.000993702002711237
0.000990997507061225
0.0009890873249517
0.00099029005418785
0.00099153482077763
0.000990940607493756
0.000990450251121626
0.000990912336286209
0.000991573835980448
0.000992469557766116
0.000996747791050856
0.00100127425225838
0.00100380398051205
0.00100266953110271
0.00100075600777671
0.000997501582879265
0.000996933378589069
0.000996294991959121
0.000996489042946028
0.000997172359642117
0.000996118689045004
0.000991297785928764
0.000987951328612306
0.0009892046329622
0.00099020164896241
0.000992567763720701
0.000997066586479495
0.000999699675224086
0.000997989353520869
0.00103513159633783
)
;

boundaryField
{
    fluidSide
    {
        type            calculated;
        value           uniform 0.000990937195173726;
    }
    fluidBound
    {
        type            calculated;
        value           uniform 0.000983609200475038;
    }
    nullDims
    {
        type            empty;
    }
}


// ************************************************************************* //
