/*--------------------------------*- C++ -*----------------------------------*\
  =========                 |
  \\      /  F ield         | OpenFOAM: The Open Source CFD Toolbox
   \\    /   O peration     | Website:  https://openfoam.org
    \\  /    A nd           | Version:  7
     \\/     M anipulation  |
\*---------------------------------------------------------------------------*/
FoamFile
{
    version     2.0;
    format      ascii;
    class       volScalarField;
    location    "0.05/fluid";
    object      T;
}
// * * * * * * * * * * * * * * * * * * * * * * * * * * * * * * * * * * * * * //

dimensions      [0 0 0 1 0 0 0];

internalField   nonuniform List<scalar> 
200
(
0.00340000000000001
0.00340000000000001
0.00340000000000001
0.0034
0.0034
0.0034
0.0034
0.0034
0.0034
0.0034
0.0034
0.00340000000000001
0.00340000000000001
0.00340000000000001
0.00340000000000001
0.00340000000000001
0.00340000000000001
0.0034
0.0034
0.0034
0.0034
0.0034
0.0034
0.0034
0.0034
0.00340000000000001
0.0034
0.0034
0.0034
0.0034
0.0034
0.0034
0.0034
0.0034
0.0034
0.0034
0.0034
0.0034
0.0034
0.0034
0.0034
0.0034
0.0034
0.0034
0.0034
0.0034
0.0034
0.0034
0.0034
0.0034
0.0034
0.00340000000000001
0.0034
0.0034
0.0034
0.0034
0.0034
0.0034
0.0034
0.0034
0.0034
0.0034
0.0034
0.0034
0.0034
0.0034
0.0034
0.0034
0.0034
0.0034
0.0034
0.0034
0.0034
0.0034
0.0034
0.0034
0.0034
0.0034
0.0034
0.0034
0.0034
0.0034
0.0034
0.0034
0.0034
0.0034
0.0034
0.0034
0.0034
0.0034
0.0034
0.0034
0.0034
0.0034
0.0034
0.0034
0.0034
0.0034
0.0034
0.0034
0.0034
0.0034
0.0034
0.0034
0.0034
0.0034
0.0034
0.0034
0.0034
0.0034
0.0034
0.0034
0.0034
0.0034
0.0034
0.0034
0.0034
0.0034
0.0034
0.0034
0.0034
0.0034
0.0034
0.0034
0.0034
0.0034
0.0034
0.00340000000000001
0.00340000000000004
0.00340000000000019
0.00340000000000104
0.00340000000000561
0.00340000000003055
0.00340000000016767
0.00340000000092967
0.00340000000521179
0.00340000002953087
0.00340000016891231
0.0034000009736043
0.00340000564456916
0.00340003285202894
0.00340019198832249
0.00340111298851053
0.00340674857655422
0.00341452996405008
0.00341675905335835
0.00341682512655211
0.00341690698762009
0.00341649897131029
0.00341361589809308
0.00340919124280532
0.00340887460812228
0.0034079843552395
0.00340724567130039
0.0034078733516236
0.00340842154648583
0.00340785870667773
0.00340672552925469
0.00340250403992923
0.00339892432722132
0.00339681330912122
0.00339785282448471
0.00340152344384165
0.00340507853109889
0.00340454973840607
0.00340408518802496
0.00340465613212075
0.00340526781688821
0.0034049100263274
0.00340477712350332
0.00340331302318927
0.00340006998455589
0.00339777821235235
0.00339922102685545
0.00340071302513463
0.00340000002969636
0.00339941061456438
0.0033999635416745
0.00340075491214011
0.00340182749277401
0.00340694797429041
0.00341233837007048
0.00341534986906646
0.00341400215907728
0.00341172694828355
0.00340785126354088
0.00340718830695119
0.00340643979870877
0.00340667410201022
0.00340748315002955
0.00340618093434853
0.00340027338735572
0.00339604650152972
0.00339728004899385
0.00339825126278881
0.00340096240041067
0.00340623726308132
0.00340937657072422
0.00340756227672979
0.00345180808445867
)
;

boundaryField
{
    fluidSide
    {
        type            zeroGradient;
    }
    fluidBound
    {
        type            codedFixedValue;
        value           uniform 0.00340880296203296;
        name            HPCFluidT;
    }
    nullDims
    {
        type            empty;
    }
}


// ************************************************************************* //
