/*--------------------------------*- C++ -*----------------------------------*\
  =========                 |
  \\      /  F ield         | OpenFOAM: The Open Source CFD Toolbox
   \\    /   O peration     | Website:  https://openfoam.org
    \\  /    A nd           | Version:  7
     \\/     M anipulation  |
\*---------------------------------------------------------------------------*/
FoamFile
{
    version     2.0;
    format      ascii;
    class       volScalarField;
    location    "0.00324";
    object      T;
}
// * * * * * * * * * * * * * * * * * * * * * * * * * * * * * * * * * * * * * //

dimensions      [0 0 0 1 0 0 0];

internalField   nonuniform List<scalar> 
500
(
900
900
900
900
900
900
900
900
900
900
900
900
900
900
900
900
900
900
900
900
900
900
900
900
900
900
900
900
900
900
900
900
900
900
900
900
900
900
900
900
900
900
900
900
900
900
900
900
900
900
900
900
900
900
900
900
900
900
900
900
900
900
900
900
900
900
900
900
900
900
900
900
900
900
900
900
900
900
900
900
900
900
900
900
900
900
900
900
900
900
900
900
900
900
900
900
900
900
900
900
900
900
900
900
900
900
900
900
900
900
899.999
899.997
899.991
899.975
899.93
899.803
899.436
898.362
895.104
887.285
879.796
875.143
871.982
869.519
867.385
865.392
863.443
861.486
859.502
857.486
855.445
853.389
851.325
849.257
847.191
845.126
843.065
841.006
838.951
836.9
834.851
832.806
830.764
828.726
826.691
824.659
822.63
820.604
818.581
816.561
814.545
812.531
810.52
808.512
806.507
804.505
802.506
800.509
798.515
796.524
794.535
792.55
790.567
788.586
786.608
784.633
782.66
780.69
778.723
776.758
774.795
772.835
770.878
768.923
766.971
765.021
763.074
761.129
759.187
757.247
755.31
753.375
751.443
749.513
747.586
745.662
743.74
741.82
739.903
737.989
736.078
734.169
732.263
730.36
728.459
726.561
724.666
722.774
720.884
718.998
717.114
715.233
713.355
711.48
709.608
707.738
705.871
704.006
702.144
700.284
698.427
696.575
694.728
692.895
691.086
689.324
687.647
686.109
684.779
683.711
682.931
682.462
682.181
682.044
682.01
682.028
682.111
682.267
682.356
682.413
682.447
682.469
682.469
682.447
682.409
682.366
682.333
682.309
682.269
682.223
682.177
682.137
682.115
682.1
682.077
682.053
682.034
682.024
682.027
682.026
682.019
682.009
682.011
682.019
682.039
682.063
682.083
682.091
682.104
682.122
682.143
682.163
682.179
682.185
682.193
682.199
682.207
682.213
682.224
682.238
682.262
682.285
682.298
682.299
682.292
682.277
682.254
682.22
682.191
682.16
682.129
682.102
682.08
682.07
682.065
682.055
682.043
682.029
682.013
681.998
681.984
681.966
681.948
681.931
681.918
681.911
681.902
681.886
681.874
681.873
681.868
681.859
681.85
681.828
681.801
681.776
681.759
681.75
681.737
681.718
681.699
681.692
681.693
681.699
681.704
681.699
681.682
681.657
681.63
681.614
681.6
681.578
681.551
681.525
681.516
681.513
681.508
681.511
681.506
681.476
681.386
681.189
680.818
680.102
678.692
675.975
670.851
661.361
644.078
613.398
564.134
513.898
488.205
478.504
474.967
474.072
474.404
476.129
477.074
477.854
478.596
478.858
478.746
477.729
475.949
474.995
474.368
474.129
474.516
475.948
476.658
477.19
477.809
478.133
477.975
476.935
476.572
476.535
476.477
476.485
477.039
477.743
477.715
477.318
476.865
476.357
475.448
474.668
474.596
474.787
475.279
476.076
477.425
478.351
478.604
478.673
478.65
478.3
477.044
476.148
475.793
475.476
475.246
475.251
475.99
476.611
476.661
476.741
476.769
474.041
442.92
336.068
301.837
300.097
300.005
300
300
300
300
300
300
300
300
300
300
300
300
300
300
300
300
300
300
300
300
300
300
300
300
300
300
300
300
300
300
300
300
300
300
300
300
300
300
300
300
300
300
300
300
300
300
300
300
300
300
300
300
300
300
300
300
300
300
300
300
300
300
300
300
300
300
300
300
300
300
300
300
300
300
300
300
300
300
300
300
300
300
300
300
300
300
300
300
300
300
300
300
300
300
300
)
;

boundaryField
{
    sides
    {
        type            zeroGradient;
    }
    empty
    {
        type            empty;
    }
}


// ************************************************************************* //
