/*--------------------------------*- C++ -*----------------------------------*\
  =========                 |
  \\      /  F ield         | OpenFOAM: The Open Source CFD Toolbox
   \\    /   O peration     | Website:  https://openfoam.org
    \\  /    A nd           | Version:  7
     \\/     M anipulation  |
\*---------------------------------------------------------------------------*/
FoamFile
{
    version     2.0;
    format      ascii;
    class       scalarField;
    location    "0.0006/lagrangian/dsmc";
    object      Ei;
}
// * * * * * * * * * * * * * * * * * * * * * * * * * * * * * * * * * * * * * //


107417
(
1.55627e-21
1.70242e-21
5.1391e-21
2.52535e-21
2.88734e-21
7.96341e-22
4.6988e-21
2.68913e-21
3.58929e-22
7.19923e-22
2.34146e-21
1.48966e-21
2.84739e-21
1.54497e-21
1.07677e-21
9.44459e-24
6.46427e-21
1.9695e-21
1.29071e-21
1.21617e-22
1.38631e-20
1.91781e-21
6.69674e-21
1.87926e-21
3.58282e-21
5.83746e-23
2.6806e-22
1.04122e-20
4.00351e-23
2.17914e-21
6.2484e-21
9.82824e-22
1.99419e-21
1.49867e-21
9.63293e-22
3.8798e-21
5.25746e-22
1.67751e-21
2.28e-21
1.87353e-21
8.32332e-23
6.98893e-21
1.43552e-21
3.74044e-21
2.05459e-22
2.04978e-22
2.56487e-21
2.34985e-21
3.59125e-21
2.77144e-21
1.02638e-21
2.25166e-22
4.70772e-23
3.39292e-21
1.5412e-21
4.94809e-21
3.21568e-22
7.29693e-21
2.4203e-21
7.6516e-21
6.4179e-21
2.51001e-21
5.89481e-22
1.56309e-21
1.40137e-21
1.43651e-20
2.00537e-22
4.25363e-21
7.32701e-21
1.29558e-21
1.27671e-21
6.96341e-21
2.01983e-21
2.27303e-22
4.98882e-21
1.18809e-22
1.95441e-22
1.53937e-21
6.60736e-22
8.63484e-21
1.32051e-21
2.67531e-21
1.0347e-21
4.14563e-22
3.10137e-21
1.35834e-20
3.84941e-21
1.9195e-21
5.3972e-21
1.25896e-20
6.40097e-21
1.21262e-21
6.16933e-21
2.39519e-21
1.97227e-21
3.92447e-21
1.38036e-20
1.05814e-21
5.28564e-22
4.04041e-22
5.72268e-21
1.76683e-20
3.90596e-22
2.50525e-21
2.36209e-21
7.84138e-22
1.15701e-21
7.53595e-22
4.94703e-22
1.05557e-21
4.99981e-21
1.36368e-21
1.66082e-21
8.10272e-22
2.27212e-21
1.21888e-20
4.53475e-21
7.60411e-22
1.11268e-20
2.47697e-21
4.26192e-22
3.81962e-22
5.9277e-21
4.39109e-21
2.61251e-21
3.76057e-21
9.29303e-22
1.68256e-21
3.92208e-21
1.6727e-21
6.58131e-21
3.42487e-21
5.962e-23
2.65055e-22
5.14362e-21
1.72536e-21
2.45438e-21
1.35444e-21
2.71139e-21
7.12867e-21
8.35215e-21
1.06466e-20
1.66004e-21
3.27957e-21
2.9274e-21
5.1419e-21
1.82314e-21
2.71078e-21
3.22196e-21
1.12788e-20
5.02392e-21
7.10248e-21
1.20653e-21
5.5571e-21
5.45592e-22
3.22454e-21
3.87042e-21
4.88743e-21
5.54181e-21
2.96828e-22
1.22389e-21
4.89412e-21
6.551e-21
7.13036e-21
3.3212e-21
5.08819e-21
3.34744e-21
1.28646e-22
8.55535e-22
1.41023e-20
6.35877e-23
4.24024e-22
9.83128e-21
3.40931e-22
5.96028e-21
8.32932e-22
3.09634e-21
1.30361e-21
3.03267e-22
8.71172e-21
6.00247e-21
2.10724e-21
1.39147e-21
1.66189e-21
3.82252e-22
1.1728e-21
1.21255e-20
6.93798e-21
1.24317e-21
8.3551e-22
2.86921e-23
7.83378e-21
2.26665e-21
3.39795e-21
6.92429e-22
1.01308e-21
5.7198e-22
5.1393e-21
6.28765e-22
5.5877e-22
2.28265e-21
2.64841e-22
8.85591e-21
3.79274e-21
2.72499e-21
4.56647e-22
3.70713e-22
1.94337e-21
5.17509e-23
2.05502e-21
7.95418e-22
4.50472e-21
8.93798e-21
2.08512e-21
1.0359e-21
2.33969e-21
2.55506e-21
9.82542e-22
3.2142e-21
1.71622e-22
4.20471e-22
3.27494e-21
5.74956e-22
1.33429e-21
8.48602e-21
3.39009e-21
2.37336e-21
8.47532e-22
2.22176e-21
4.13164e-21
2.77244e-21
2.92062e-21
3.69239e-21
5.02893e-22
9.9225e-22
4.90405e-21
6.51196e-21
9.72201e-21
1.42129e-21
3.58513e-22
5.03751e-21
5.34881e-22
1.94009e-22
1.02444e-20
4.0949e-21
7.17533e-21
3.1208e-21
4.10997e-22
5.14778e-21
1.29044e-20
8.82696e-22
5.05487e-21
1.72391e-21
2.64611e-21
8.61762e-21
3.36784e-22
1.21033e-21
1.1267e-20
3.45756e-21
2.0548e-21
9.62428e-22
3.84036e-21
1.93652e-21
4.24144e-21
7.67477e-21
3.89981e-22
2.71212e-21
3.82832e-21
5.23953e-22
2.05269e-22
2.85335e-21
3.10665e-21
6.99124e-21
5.54037e-22
1.28556e-20
3.78314e-22
2.30149e-22
8.89304e-22
1.49171e-21
8.17895e-21
8.93167e-22
1.06418e-21
2.35745e-21
5.44263e-21
2.08619e-21
1.64548e-21
1.19694e-21
3.56817e-21
3.03082e-21
2.99846e-22
1.45519e-20
3.76565e-21
1.52606e-21
6.97482e-21
1.25521e-22
9.05365e-21
1.89142e-21
1.74049e-21
9.71199e-22
2.79496e-21
2.9942e-21
2.52638e-22
1.90342e-21
9.94443e-22
7.45218e-22
6.31432e-22
4.48722e-21
1.31776e-21
3.04281e-21
2.79814e-21
3.23905e-21
1.09751e-20
3.8301e-22
1.25675e-22
1.05646e-20
8.1875e-22
2.69858e-21
6.80807e-22
8.20433e-22
4.38716e-21
5.64682e-22
9.52621e-22
7.39406e-21
1.55391e-21
5.33313e-22
1.03704e-20
1.05032e-20
2.78682e-21
1.78755e-21
6.15411e-21
5.60103e-22
1.30383e-21
4.39571e-21
1.39994e-20
2.28242e-21
1.34352e-21
1.20185e-21
1.00947e-20
7.59915e-21
4.40924e-21
2.05245e-21
1.43571e-21
4.95437e-21
8.49492e-22
7.234e-21
2.58357e-21
6.13932e-22
1.11259e-21
1.10495e-20
6.44263e-21
3.0314e-21
1.1939e-21
2.55542e-22
7.58736e-21
5.74684e-22
1.34727e-21
2.47846e-21
1.29713e-21
3.02179e-21
5.71866e-22
2.63443e-21
7.74462e-21
5.36246e-21
4.03366e-22
1.45012e-21
7.69205e-21
4.87326e-21
4.75212e-21
5.41105e-21
1.05314e-20
1.42483e-21
2.55274e-21
1.87124e-22
1.13321e-20
1.64965e-21
1.07349e-20
7.63965e-21
2.17467e-21
9.28746e-21
5.17755e-21
4.83134e-22
1.20838e-21
5.52608e-21
2.56577e-21
3.00793e-21
1.09785e-20
3.74929e-21
3.2332e-22
4.51133e-23
2.89641e-21
1.96259e-21
4.46543e-22
6.00799e-21
4.90459e-21
1.01133e-20
3.16734e-21
3.55156e-21
4.13442e-21
2.80609e-21
8.89874e-22
6.01953e-22
2.67265e-21
8.91893e-23
1.24108e-21
6.93401e-21
4.2261e-21
1.03235e-21
1.59296e-21
1.78613e-21
1.36855e-21
1.07282e-20
3.67929e-21
8.70587e-22
1.48436e-21
3.00216e-21
1.3111e-21
2.02993e-21
1.03821e-21
1.48019e-21
2.15755e-21
2.09416e-22
3.47323e-21
6.74823e-21
1.01421e-21
2.77219e-22
4.91848e-21
1.42255e-21
7.89541e-24
1.25752e-21
9.2346e-22
5.81121e-22
7.48985e-21
2.17734e-23
5.05838e-22
1.69547e-21
8.61788e-24
3.50256e-21
1.57848e-20
2.74493e-21
8.65563e-21
1.33544e-21
2.96563e-21
1.03935e-20
2.0397e-21
1.99303e-20
3.83863e-22
1.01478e-20
2.71827e-22
1.05449e-21
5.37921e-21
7.86997e-21
3.00855e-21
4.39954e-21
2.1331e-21
3.96192e-21
6.36511e-22
5.6748e-22
2.74753e-21
5.73613e-21
2.06413e-21
4.46988e-22
7.1612e-22
2.67928e-21
1.04194e-20
5.30878e-21
1.8722e-21
6.29049e-21
2.37214e-21
4.34887e-21
5.26765e-21
7.36044e-21
5.48536e-22
1.36653e-22
3.46231e-23
7.49012e-22
7.28437e-21
4.52975e-22
2.83485e-21
1.54743e-21
8.69541e-22
9.35783e-22
8.56209e-22
8.40371e-22
5.59253e-21
5.38481e-21
3.72653e-22
1.09043e-21
7.47961e-22
1.75328e-21
6.8812e-21
2.57163e-21
1.58548e-21
4.10829e-21
5.70107e-22
3.42798e-21
4.28317e-21
2.90509e-22
2.39758e-22
6.84088e-21
4.616e-22
3.91237e-21
2.27354e-21
1.34921e-21
9.73888e-21
6.03395e-22
9.74738e-22
6.19599e-21
2.92477e-22
2.35698e-21
2.39936e-22
2.76562e-21
1.26826e-21
1.15592e-21
5.10454e-22
3.26769e-21
5.07696e-21
1.99753e-21
2.09192e-21
1.17143e-21
7.94076e-21
1.12791e-21
6.75156e-21
1.23802e-20
1.49457e-21
2.1416e-21
1.10586e-20
1.67683e-21
1.89812e-21
6.62403e-21
7.53263e-21
5.09417e-22
1.40787e-21
5.89772e-22
4.47621e-21
3.56931e-22
4.44855e-21
3.90864e-21
1.83044e-21
1.56536e-23
4.92942e-21
4.19999e-21
2.90714e-21
1.52415e-21
2.49938e-21
1.53568e-21
5.9416e-21
8.4544e-23
1.09785e-20
2.85704e-21
8.31056e-22
9.85212e-21
5.04494e-21
2.06411e-21
4.08024e-21
1.7941e-21
1.32058e-21
1.31095e-21
5.03789e-21
1.84334e-21
2.028e-21
3.5857e-21
6.7867e-21
4.42754e-21
8.96927e-23
1.28571e-22
1.76887e-22
3.96128e-22
1.33199e-21
1.39299e-20
5.61719e-22
1.30945e-21
6.18376e-22
5.43924e-22
5.65252e-21
1.96503e-21
2.6686e-21
9.89704e-22
6.76622e-22
8.31014e-23
5.86051e-22
4.12943e-21
7.46728e-22
1.14254e-21
4.07328e-21
7.22443e-21
3.50265e-22
3.57695e-21
7.38844e-22
3.79452e-21
8.27439e-21
2.77521e-23
4.90118e-21
1.76151e-21
2.06148e-22
3.80924e-21
3.45268e-21
1.90574e-21
4.19446e-23
1.2495e-20
4.24046e-21
5.03701e-21
3.87609e-21
5.28079e-21
6.76046e-22
1.45191e-20
9.06231e-22
8.99105e-22
1.615e-21
2.7543e-21
1.30064e-21
7.00902e-21
8.00776e-21
9.85507e-21
3.15982e-21
1.35195e-20
4.8028e-21
2.41061e-21
2.56536e-20
1.00986e-21
1.82088e-21
1.32993e-21
6.06241e-22
1.78756e-21
6.55879e-21
7.5736e-21
3.39448e-21
1.10363e-20
7.1359e-22
7.11203e-23
3.21754e-21
2.92552e-21
1.97022e-21
7.38323e-22
1.27352e-21
1.39536e-21
4.03955e-21
1.43637e-21
6.16339e-22
1.15655e-20
2.00916e-21
2.51505e-21
4.35201e-21
5.08419e-22
1.59477e-21
3.71609e-22
3.17464e-22
8.71912e-22
4.0555e-21
2.53957e-21
4.02207e-21
2.99349e-21
1.05085e-21
2.96669e-21
1.09654e-20
2.84721e-21
6.87791e-22
4.22339e-21
5.8296e-22
1.7364e-21
1.26913e-21
3.14245e-22
2.90263e-21
8.60192e-21
5.01431e-21
4.15927e-22
1.08961e-21
7.97859e-21
1.07818e-21
1.91256e-21
1.36295e-20
4.32618e-21
1.44797e-21
1.52556e-22
1.29476e-20
3.05969e-21
8.32282e-22
2.43757e-21
3.61473e-22
1.10516e-22
2.62608e-21
2.88354e-22
5.326e-21
5.01023e-22
4.43192e-21
1.09723e-20
2.08217e-21
8.0562e-22
3.73737e-21
2.13575e-21
9.76353e-21
7.3848e-21
5.82887e-21
3.09759e-21
4.9725e-21
1.35951e-21
3.72024e-21
4.20564e-22
4.6826e-21
5.03884e-22
1.25602e-21
2.42666e-22
1.1069e-21
1.2481e-21
2.72204e-21
2.29806e-21
3.46694e-21
2.31036e-22
4.00522e-21
1.16583e-21
3.78548e-22
2.11206e-21
7.56534e-22
1.30262e-21
4.50414e-21
9.11141e-23
9.88048e-21
9.30467e-22
1.94065e-21
2.61721e-21
1.33949e-21
2.59037e-21
6.09285e-21
3.50735e-21
1.38461e-21
8.37887e-22
8.18911e-23
1.85403e-21
4.86373e-21
9.25208e-22
2.18426e-21
4.5368e-22
1.12844e-21
1.38688e-22
1.05414e-20
3.74846e-21
2.07746e-21
1.06147e-20
4.35073e-21
9.61402e-21
6.59848e-21
3.77285e-22
5.90394e-21
8.63526e-21
2.30222e-21
6.05499e-21
5.48068e-21
1.1867e-21
2.44855e-21
7.05585e-22
4.11209e-22
1.55766e-20
2.29492e-20
4.59133e-22
6.18173e-22
4.24961e-21
1.37631e-21
2.09989e-21
7.09926e-22
4.16458e-21
2.31519e-21
3.54291e-21
9.40729e-21
2.51643e-21
8.79425e-21
1.54449e-21
5.42718e-21
2.4574e-21
2.09686e-21
6.06267e-21
2.33154e-20
5.52155e-21
3.39244e-21
5.5531e-21
3.36936e-21
5.82487e-21
4.96665e-22
6.11034e-21
5.4804e-21
5.34164e-21
1.73364e-21
7.59072e-21
3.29402e-21
8.18255e-21
2.65099e-21
2.46335e-21
1.33576e-21
5.781e-21
4.15385e-21
6.92035e-21
7.9985e-22
4.23846e-21
1.12725e-21
8.68267e-21
9.7319e-22
1.07787e-20
1.7092e-21
1.06749e-20
2.85791e-21
9.13313e-22
8.20809e-22
2.16888e-21
2.6848e-21
1.49857e-20
3.4613e-22
9.9575e-22
4.76928e-21
2.05086e-21
1.28973e-21
1.14537e-20
2.67541e-21
4.89375e-21
1.29295e-21
1.67489e-21
2.21219e-22
3.23998e-23
4.50909e-21
3.44974e-21
3.69689e-21
2.24179e-21
4.21794e-21
1.74235e-21
5.15367e-21
4.72512e-22
1.40471e-21
5.58424e-21
4.95422e-22
9.90345e-21
5.27484e-21
4.8454e-21
3.00054e-21
1.82722e-21
5.22624e-22
3.08668e-21
1.35527e-21
2.21817e-21
9.18046e-21
2.40889e-21
8.8216e-21
1.3038e-21
2.01188e-21
1.08362e-21
7.0189e-22
3.26646e-21
9.73233e-23
7.33202e-21
2.51983e-21
8.44042e-22
1.78522e-21
1.03023e-21
1.58658e-21
1.34863e-21
8.53075e-22
3.03549e-21
3.16179e-22
2.16239e-21
6.78816e-21
6.0734e-22
6.78438e-22
3.87233e-21
5.17492e-22
1.27086e-21
5.36085e-21
5.40501e-21
2.25972e-20
5.50362e-22
1.02029e-21
9.88183e-22
9.20189e-22
4.6974e-21
2.78359e-21
9.95843e-22
3.50236e-21
4.85453e-22
1.62642e-21
1.96877e-20
3.61048e-22
8.73035e-21
1.05779e-21
1.63767e-22
4.24558e-21
4.47279e-21
1.74554e-22
7.11269e-22
7.24325e-21
3.76121e-21
1.46739e-22
5.6721e-21
1.782e-21
2.27183e-21
1.93079e-21
1.38018e-21
3.40126e-21
1.67994e-21
1.99355e-21
2.80594e-21
2.7955e-21
1.88305e-21
4.12405e-21
8.49347e-21
3.12907e-21
5.60694e-21
3.22817e-21
1.22881e-21
1.90755e-21
2.03193e-22
5.66162e-21
1.49625e-21
3.12063e-21
7.99751e-22
2.10463e-21
4.89756e-21
8.48565e-21
1.5937e-21
1.8261e-21
5.7412e-21
3.54863e-21
2.51322e-22
3.43377e-21
1.27941e-21
1.67862e-21
2.10675e-21
1.45205e-21
6.48723e-21
7.5176e-21
1.49646e-21
7.20517e-23
6.09343e-21
7.87236e-21
2.32866e-21
4.0405e-21
2.15563e-21
2.85163e-21
3.23814e-21
2.0896e-21
9.2619e-22
6.20043e-21
2.70813e-21
4.65748e-21
6.0788e-23
5.42017e-23
2.07483e-21
2.94515e-21
5.37769e-21
8.24552e-23
4.57576e-21
9.02003e-21
1.75011e-20
4.55406e-22
7.76413e-22
1.85555e-22
1.56023e-22
4.08636e-21
2.10168e-22
3.5765e-21
3.10682e-21
1.31917e-22
5.00955e-21
5.90385e-22
1.50664e-21
2.17081e-22
4.92439e-22
8.69743e-21
1.92459e-21
5.80253e-21
1.43236e-21
9.69375e-22
2.18474e-21
8.20837e-23
5.25145e-21
2.36764e-21
3.22815e-21
2.73319e-21
4.35025e-21
1.48851e-21
1.55658e-21
1.61817e-21
1.14234e-20
8.67192e-22
6.92157e-21
9.40356e-22
3.87446e-21
1.21088e-21
5.29664e-21
3.88561e-21
4.40157e-21
6.83408e-21
3.36166e-23
4.86771e-21
1.0002e-21
4.43596e-21
4.90133e-22
1.3177e-21
6.4539e-21
1.7045e-21
4.57719e-21
1.52952e-21
5.24228e-21
3.85033e-21
1.8192e-21
5.5027e-21
1.28372e-21
3.74061e-21
2.0877e-21
3.90927e-21
6.69109e-21
1.67011e-20
3.85627e-21
1.30694e-20
6.97795e-22
9.81615e-21
6.30208e-21
1.20955e-21
1.0259e-21
7.09508e-21
3.51575e-21
2.25038e-21
9.89211e-22
7.58046e-21
1.1844e-20
4.27872e-21
3.95951e-21
2.60522e-21
4.95172e-21
2.66764e-21
6.02462e-21
1.14961e-21
8.19657e-21
1.49771e-21
1.46593e-22
1.13431e-22
7.66031e-22
1.17043e-21
7.97835e-21
1.0487e-20
1.04654e-21
4.95803e-21
6.72537e-22
5.50913e-21
1.11823e-21
1.69125e-21
3.47972e-22
4.01232e-21
4.78978e-21
1.81991e-21
3.04258e-20
1.35037e-21
3.63767e-22
3.21872e-21
5.51213e-21
1.78648e-20
2.11123e-21
1.46031e-20
2.44362e-21
5.31696e-22
2.2677e-21
9.63264e-22
1.49738e-21
9.54969e-23
4.89588e-21
1.46661e-21
1.92847e-21
9.94109e-22
2.34067e-21
1.85637e-21
1.44823e-21
6.51696e-21
1.16387e-20
1.32244e-21
5.8988e-22
1.32681e-20
7.89783e-21
9.40764e-21
8.06467e-22
2.38057e-21
1.64495e-21
3.82305e-21
1.06865e-22
8.12319e-22
2.97725e-21
4.39542e-21
6.09017e-22
3.25848e-21
5.45693e-21
1.83636e-21
2.69233e-21
4.35203e-21
3.49641e-21
3.92865e-22
1.27515e-21
1.98259e-21
1.5761e-21
1.83106e-21
2.57949e-21
6.9842e-21
9.21258e-21
3.45089e-21
4.16666e-22
7.40542e-21
2.47068e-21
2.6216e-22
4.36972e-21
4.3476e-21
1.78651e-21
3.4784e-22
3.32475e-21
6.8533e-21
7.97353e-21
3.83752e-21
4.86766e-22
1.8571e-21
1.86283e-20
5.77372e-21
1.26473e-21
5.6135e-21
6.49901e-21
1.80405e-21
2.14516e-21
1.30062e-22
3.13949e-21
3.32661e-21
2.84613e-21
7.69729e-21
4.64262e-21
3.5485e-21
2.17246e-21
6.4734e-21
4.33122e-21
2.977e-21
2.19178e-21
6.07177e-21
1.90409e-21
3.23898e-21
4.65382e-21
5.28421e-21
7.83656e-21
4.72726e-21
3.79793e-22
6.82413e-22
4.794e-21
5.85864e-21
3.82575e-21
3.02509e-21
1.42488e-21
1.23946e-22
1.05652e-21
6.70042e-21
7.84196e-21
1.31714e-20
2.92009e-21
2.03123e-21
4.01426e-21
6.09547e-21
9.11689e-22
1.70145e-21
2.83945e-21
2.93951e-21
2.06087e-21
4.21352e-21
1.05778e-21
2.75604e-21
1.37871e-21
9.24883e-21
1.27928e-21
6.37161e-21
2.75655e-20
1.57392e-21
1.6255e-20
3.89545e-21
2.80293e-21
7.98216e-21
2.61088e-21
1.01243e-21
2.5313e-20
2.51141e-21
7.99658e-22
4.62849e-21
7.20954e-21
1.04299e-21
1.23659e-21
1.08435e-20
7.78875e-23
1.64292e-21
2.30105e-21
1.36535e-20
4.68921e-21
2.43031e-22
2.85283e-21
2.8221e-21
2.39861e-21
3.98987e-21
3.85733e-21
4.76099e-21
1.35914e-20
2.10815e-20
6.26034e-21
1.58959e-21
1.58136e-20
2.02725e-21
4.33544e-21
6.17761e-21
6.19694e-22
2.55602e-21
1.9777e-21
7.8863e-22
1.40008e-20
1.64532e-21
3.11349e-21
2.12728e-20
4.38294e-21
6.05883e-22
1.30845e-21
1.82414e-20
1.19866e-20
3.56351e-21
4.88423e-22
1.40166e-20
5.46728e-21
4.63164e-21
1.38918e-22
6.07276e-22
4.34638e-21
2.77129e-22
5.16911e-21
4.31635e-21
8.29895e-21
4.25062e-21
2.70378e-21
4.37812e-21
5.51376e-21
6.38022e-21
1.00986e-21
1.21693e-21
1.65898e-21
3.95152e-22
5.66895e-21
7.38046e-21
4.53994e-21
3.02896e-21
4.48914e-24
5.9619e-22
2.22072e-21
9.20155e-21
7.91951e-22
9.58368e-22
1.42096e-21
4.28867e-21
7.5145e-22
3.79912e-21
4.37326e-21
4.72376e-21
5.02071e-21
2.40842e-22
1.84669e-21
4.14112e-21
2.27485e-22
2.88906e-21
6.37006e-21
3.86232e-22
5.67801e-21
1.55115e-20
5.12554e-21
6.63596e-22
8.01992e-21
1.17637e-21
1.38713e-21
6.97045e-21
7.82416e-22
2.79518e-21
4.58298e-21
5.62193e-21
4.82346e-21
3.33522e-21
7.64337e-23
6.88201e-21
4.5053e-22
7.69751e-21
8.08008e-21
2.14034e-21
5.96939e-22
3.66385e-21
4.46166e-21
3.98418e-21
4.72176e-21
3.53024e-21
4.35388e-21
7.70463e-21
1.21641e-21
2.54198e-21
5.04895e-21
9.92905e-21
5.55417e-21
6.3854e-21
1.24914e-20
1.90004e-21
3.0908e-21
1.7259e-21
1.27415e-21
3.42706e-22
5.0456e-21
6.45625e-21
8.58188e-22
1.55069e-20
7.83194e-22
4.45096e-21
4.78504e-21
3.64063e-22
6.34996e-22
5.68704e-21
1.26106e-21
1.3629e-21
4.59446e-21
4.47636e-21
1.4868e-21
3.91366e-23
6.4355e-21
1.47327e-21
2.44914e-21
7.56878e-21
6.19543e-22
2.72793e-21
6.72981e-21
2.16634e-21
6.52041e-21
5.49206e-22
3.26121e-22
9.85242e-22
9.55127e-22
5.98392e-21
6.13034e-22
1.39949e-21
3.81246e-21
8.23564e-21
5.53298e-21
2.90638e-21
5.0725e-21
4.59775e-21
4.12076e-21
5.85364e-21
2.46934e-21
5.22566e-21
6.87987e-22
5.53485e-21
3.1568e-22
1.09093e-20
1.55377e-21
1.07293e-20
1.3739e-20
4.95811e-21
4.92091e-21
6.85871e-21
1.49634e-21
5.58844e-22
1.45378e-21
3.71947e-21
3.90521e-21
8.84423e-23
6.02438e-22
5.84313e-22
6.52762e-21
1.15485e-20
2.77766e-21
7.80938e-21
3.99044e-21
3.00623e-21
3.14654e-21
1.56105e-21
2.25145e-21
1.2815e-22
2.87133e-21
5.24015e-22
4.28443e-21
5.13888e-21
1.38747e-20
3.46389e-21
2.30616e-22
4.19715e-22
1.11557e-20
2.37778e-21
8.19155e-22
9.67852e-21
3.72687e-22
8.0355e-22
4.35216e-21
5.18831e-22
1.94332e-21
1.98634e-22
1.00169e-21
1.34673e-21
1.28501e-20
2.85221e-22
1.19205e-21
8.32725e-21
2.08258e-21
4.66072e-21
2.99249e-21
6.67992e-21
2.29919e-21
3.49421e-21
3.17639e-21
2.48051e-21
5.2825e-21
1.80596e-21
1.39225e-20
2.08134e-21
1.87605e-20
6.411e-21
1.21816e-21
4.28784e-22
1.19952e-21
1.29889e-20
5.63276e-22
6.24391e-22
2.42284e-21
4.6669e-21
3.63176e-22
9.07426e-22
4.21376e-22
1.82137e-21
1.68025e-21
3.16337e-21
7.27305e-21
1.89428e-20
1.91032e-21
6.51791e-21
3.16474e-21
6.28873e-21
7.38273e-21
3.64426e-21
8.48619e-21
4.12126e-21
1.41302e-21
3.37123e-22
6.69677e-22
9.83534e-23
2.08641e-20
4.80146e-21
2.72502e-21
8.57022e-21
3.40837e-22
7.68897e-22
1.665e-21
2.66405e-21
9.90932e-22
1.37633e-21
7.06794e-21
2.4058e-21
2.40237e-21
1.08383e-21
3.5795e-21
5.65873e-21
2.09e-21
3.38677e-21
7.08076e-22
3.64552e-22
1.8809e-21
3.95384e-21
3.19614e-22
4.43674e-21
6.28757e-21
3.46379e-21
2.2509e-21
8.48121e-21
2.21068e-21
7.48009e-21
5.21617e-21
1.0512e-21
1.25181e-20
1.34519e-20
2.83758e-21
3.65106e-21
6.97173e-21
2.15802e-21
1.50862e-21
5.95361e-22
1.66047e-21
1.81028e-22
3.03206e-21
9.03667e-23
1.50745e-22
7.79003e-21
1.31265e-21
2.34791e-22
1.52016e-21
1.61477e-21
4.32967e-21
3.73925e-21
1.32573e-21
1.10275e-21
7.98949e-21
2.09678e-21
3.01314e-21
8.41937e-22
7.70983e-22
3.8226e-21
2.01639e-21
2.08055e-21
1.39102e-20
1.56802e-21
4.29669e-21
2.59022e-21
1.04173e-21
9.58006e-22
1.07215e-21
9.8197e-22
3.60333e-23
2.91056e-21
5.07042e-21
2.64034e-21
6.6144e-21
3.72642e-21
4.091e-21
1.72064e-23
3.85314e-21
9.50311e-21
2.02383e-21
9.839e-21
4.46002e-21
1.20731e-22
3.03795e-21
3.00717e-21
7.46117e-21
4.48645e-21
3.60409e-21
3.77942e-22
4.1826e-21
1.59037e-21
8.017e-21
1.96193e-21
9.80546e-21
2.95497e-21
9.2622e-22
1.5658e-20
3.59607e-21
7.26083e-21
1.68278e-21
3.68806e-21
3.26726e-22
5.08955e-21
4.78183e-21
1.29749e-21
1.25234e-21
1.88382e-21
3.26713e-21
1.04861e-21
5.32322e-22
1.28751e-20
1.0542e-21
2.32455e-21
2.82648e-21
6.78476e-21
2.24053e-21
2.95597e-21
1.37592e-20
3.89635e-22
1.61899e-21
2.448e-22
3.51927e-22
3.2143e-21
7.54497e-21
4.02085e-21
4.1634e-21
1.38271e-21
4.76561e-22
3.15284e-21
4.66725e-21
5.71966e-22
3.0372e-21
2.17858e-21
1.35226e-21
1.79542e-20
2.17191e-21
2.35755e-21
8.32864e-25
8.07918e-22
1.4108e-21
9.7069e-21
4.38747e-21
1.60447e-21
7.49884e-21
5.21478e-21
1.1076e-20
7.44168e-21
9.77242e-22
1.74495e-21
4.2048e-21
3.3191e-21
2.72138e-22
1.31125e-21
3.79161e-21
2.80476e-21
1.59062e-21
5.75454e-23
3.14659e-21
1.47236e-21
1.15677e-20
1.32857e-20
5.46464e-21
9.11369e-22
2.4277e-21
6.10453e-21
2.74356e-21
5.04627e-22
2.70304e-22
5.00181e-22
3.13535e-21
2.54724e-21
2.08304e-22
1.10816e-20
2.41561e-21
9.46651e-21
1.00519e-20
1.43127e-21
2.40191e-21
3.2671e-21
8.23358e-22
4.77158e-21
8.94308e-21
8.2841e-22
1.84091e-21
6.43709e-21
2.36497e-21
1.36541e-21
2.74879e-21
8.41704e-22
3.52789e-21
2.09216e-21
3.38657e-21
2.42091e-21
7.75933e-22
5.34025e-21
4.81502e-21
1.13261e-21
4.38491e-22
9.66447e-21
1.85981e-20
1.62653e-21
9.05552e-21
5.33993e-22
1.47918e-21
2.30487e-21
3.09265e-21
6.20201e-21
1.11169e-20
2.28796e-21
9.58317e-21
3.11727e-21
1.12042e-20
4.19033e-21
1.86122e-20
7.3293e-21
5.85833e-21
1.36549e-21
1.50167e-21
7.8754e-21
1.9457e-20
2.13187e-21
7.86011e-22
2.15219e-22
5.23624e-21
7.33057e-21
6.32505e-21
2.23082e-21
4.07181e-21
3.72824e-21
1.01209e-20
1.02804e-21
1.09784e-21
1.44678e-21
8.38585e-22
1.459e-21
1.5419e-21
6.46657e-22
1.74921e-21
7.72229e-21
3.10482e-21
1.18732e-22
8.60831e-22
1.9e-21
3.81063e-21
4.37466e-21
5.09207e-23
3.06788e-21
1.16708e-21
1.1388e-21
4.257e-21
4.30743e-21
3.26849e-21
1.12414e-21
2.89593e-22
3.22258e-21
1.29317e-21
2.81482e-21
1.09105e-21
2.18631e-21
5.75287e-21
3.7514e-21
5.94397e-21
3.50463e-21
3.06508e-21
3.29762e-21
1.28586e-21
7.8255e-21
1.88284e-21
7.17151e-21
2.90378e-21
3.92792e-21
2.90542e-21
4.7039e-21
4.53805e-21
3.1882e-21
1.96178e-21
2.86439e-22
3.63342e-22
2.02358e-21
3.73157e-21
2.03079e-21
1.05048e-20
2.58779e-21
1.41005e-22
2.1153e-21
1.01343e-20
1.98582e-21
4.16562e-21
1.02737e-20
1.35103e-20
1.24747e-21
4.40809e-21
4.65988e-21
1.94441e-21
1.97228e-21
4.07786e-21
6.3479e-21
1.79531e-22
5.2136e-23
6.86543e-22
1.94396e-21
2.25423e-21
5.68299e-21
1.42933e-21
8.25178e-21
1.49878e-21
2.52253e-21
1.38952e-22
1.68995e-21
2.70312e-21
2.53918e-21
2.77604e-21
9.24127e-22
5.37864e-21
1.42466e-21
2.65816e-21
6.9623e-22
6.24316e-21
1.0513e-20
3.12474e-22
5.47484e-21
1.55421e-20
1.75518e-21
1.17961e-21
9.7549e-21
1.10256e-20
3.63314e-21
5.41716e-21
1.92882e-21
3.68706e-22
6.50175e-21
2.2437e-21
7.34228e-21
4.89172e-21
4.58759e-21
1.32522e-21
2.95537e-21
2.16189e-21
2.17703e-21
3.06222e-21
6.39075e-21
1.37227e-21
6.29105e-22
4.45264e-21
5.26866e-21
4.71112e-21
5.56807e-21
1.02659e-21
1.75999e-21
3.79837e-21
2.32492e-21
6.98115e-22
5.55305e-21
1.16245e-20
1.26702e-21
6.90123e-22
1.7044e-21
5.54936e-22
5.83583e-21
1.87033e-21
1.12494e-21
1.45208e-21
3.99661e-22
2.3547e-20
2.72925e-22
4.8226e-21
3.72192e-21
1.16143e-21
5.07338e-21
4.70631e-21
3.50695e-21
6.48226e-22
6.67275e-21
7.44606e-21
1.8256e-21
1.03828e-20
4.92502e-21
1.10515e-22
1.02681e-20
2.07654e-21
6.1508e-21
1.93479e-21
8.13324e-21
1.78586e-21
1.53167e-21
1.53222e-20
1.36519e-21
8.88206e-21
1.13918e-21
8.48032e-22
6.64242e-22
2.97451e-22
7.42544e-22
4.74452e-21
7.75734e-21
2.61278e-21
7.58215e-22
1.81732e-21
3.73046e-21
3.4125e-21
1.50624e-20
7.89142e-22
2.52565e-21
6.50598e-21
7.7866e-21
8.80553e-21
9.88749e-22
1.41039e-20
3.15359e-20
1.24337e-21
5.11795e-21
1.34114e-20
9.99453e-22
1.83593e-21
1.55174e-20
2.42354e-22
1.55687e-21
1.90357e-21
3.52767e-21
8.33539e-22
4.96511e-21
1.08732e-21
4.00045e-21
4.61323e-22
3.47833e-21
1.36177e-21
5.59532e-21
2.07502e-21
1.55776e-21
1.08604e-20
4.88349e-22
1.86079e-20
3.52077e-21
3.14253e-21
1.13768e-20
7.31648e-22
1.17786e-21
2.57075e-21
3.75347e-21
4.68786e-22
2.23975e-21
5.84389e-21
2.76923e-22
4.25917e-21
8.69509e-22
1.07256e-22
1.88906e-22
5.71259e-22
1.76163e-21
3.21275e-22
6.32667e-21
1.19539e-20
3.11261e-21
2.52692e-22
2.60622e-21
1.37119e-20
4.20988e-21
3.47967e-21
2.95442e-21
1.73373e-21
6.94369e-22
4.6026e-21
5.92072e-21
3.36403e-21
1.98982e-21
3.95891e-21
6.41213e-21
2.25572e-21
3.61887e-21
2.12608e-21
5.09473e-21
9.58222e-21
5.77674e-21
3.35092e-21
2.24483e-21
1.20084e-21
2.0755e-21
1.84452e-22
4.04526e-22
3.19472e-21
4.54797e-21
4.59122e-21
2.05706e-21
4.8352e-22
1.99228e-21
9.61292e-21
1.51421e-21
2.49819e-21
5.64118e-21
6.00858e-22
1.54633e-20
1.12786e-20
5.1703e-23
6.14216e-21
9.43683e-21
5.34158e-21
4.6307e-22
2.41977e-21
4.91252e-21
2.99689e-21
3.7179e-21
3.13642e-22
7.48181e-22
2.52491e-21
1.35594e-21
1.56181e-21
3.61808e-21
1.91278e-21
3.39383e-21
7.07184e-21
3.72675e-21
3.1915e-21
1.26005e-21
2.0347e-22
6.49355e-21
5.48273e-21
2.26713e-21
3.80928e-22
6.34917e-21
6.21813e-21
8.24849e-22
3.17635e-21
2.55259e-21
2.58187e-21
9.42743e-22
4.34437e-24
8.89798e-21
1.05375e-21
4.30865e-22
2.11154e-21
2.66379e-21
3.98394e-22
8.1598e-22
1.53291e-20
3.04929e-21
7.75788e-22
8.94411e-22
2.3294e-21
4.41985e-23
1.3128e-20
2.26669e-21
2.33243e-21
3.46062e-22
6.8652e-22
5.40516e-22
3.7522e-21
3.42751e-21
2.75837e-21
1.159e-20
9.73066e-22
1.45167e-21
4.02802e-21
4.84984e-21
6.26928e-22
4.09167e-21
3.89471e-21
9.8606e-21
3.25854e-21
4.97776e-21
3.50501e-22
7.32391e-21
2.31966e-21
8.36616e-21
2.41098e-21
8.03203e-21
6.72347e-21
9.0447e-21
2.37297e-21
3.24115e-22
5.63885e-23
7.44096e-21
1.23642e-21
2.22041e-21
2.60019e-21
2.20371e-21
3.58672e-21
5.52897e-21
2.03664e-21
3.202e-21
2.00792e-20
3.32995e-21
2.64244e-21
7.17041e-21
5.41759e-21
4.23626e-21
1.54852e-21
3.25364e-22
4.47625e-21
2.18648e-21
2.14373e-21
4.83447e-22
1.14113e-21
3.0822e-21
3.94378e-21
5.93933e-22
1.88877e-21
1.00277e-21
6.17361e-21
5.1196e-21
2.84791e-21
1.44545e-20
3.76572e-22
6.27552e-22
3.45595e-21
4.41936e-21
1.42816e-22
6.96403e-22
1.23712e-22
5.3804e-21
1.00181e-21
5.05653e-21
2.01617e-21
2.08563e-21
4.58666e-21
1.08517e-20
1.86902e-21
1.78419e-21
7.06967e-21
6.03463e-22
5.12646e-21
3.63534e-21
1.1476e-22
2.35063e-21
2.95189e-21
2.01103e-21
2.19304e-21
6.41381e-22
5.75428e-23
5.38932e-21
1.1206e-22
5.7015e-21
5.52857e-21
3.04393e-21
6.93954e-22
5.49218e-21
3.23677e-21
3.01131e-21
1.26686e-21
8.78082e-22
5.62302e-21
2.50455e-20
2.91989e-21
5.9165e-21
7.73371e-21
1.85888e-21
4.74663e-21
4.3487e-21
1.36845e-21
5.14673e-21
1.35968e-21
8.40605e-22
4.23412e-21
4.7598e-21
5.14794e-22
1.91032e-21
1.33617e-20
7.80646e-22
1.96241e-21
4.38609e-21
4.48738e-22
5.2036e-22
2.74645e-21
3.15365e-21
4.79879e-21
1.48175e-20
7.06998e-22
2.79169e-21
1.81834e-21
1.6305e-21
4.44254e-21
8.65761e-22
2.81841e-21
1.98092e-20
1.64073e-21
2.10685e-21
2.20402e-21
2.02002e-21
3.45491e-21
3.1557e-22
6.04847e-22
2.56351e-21
3.1443e-22
3.07249e-21
1.40265e-21
4.79395e-21
1.36574e-21
5.34052e-21
3.66563e-21
1.33512e-22
1.79587e-22
9.93253e-22
4.77687e-22
2.1869e-23
1.21113e-21
1.32228e-21
1.75177e-23
4.12383e-21
1.454e-21
1.80343e-21
8.83845e-21
2.60572e-21
1.00026e-21
1.1095e-20
3.61083e-22
2.40722e-21
2.08566e-21
1.03578e-21
1.35721e-21
3.30082e-21
1.8869e-20
9.52776e-22
1.59857e-21
1.06824e-20
1.56585e-21
1.20096e-21
2.75894e-21
3.88203e-21
3.09476e-21
1.50543e-20
3.36839e-21
2.9385e-22
1.49633e-21
1.36776e-21
1.00433e-20
5.87525e-21
4.68865e-21
4.11731e-21
1.23876e-21
9.75246e-21
2.18381e-21
9.3562e-21
3.15273e-22
4.6e-21
3.11891e-21
3.8684e-21
3.83356e-21
2.83686e-21
1.49252e-20
8.97823e-21
4.38368e-21
8.04817e-22
4.49847e-21
1.5116e-20
2.34627e-21
9.64193e-21
3.80188e-21
4.045e-22
2.98469e-22
1.36616e-21
2.37513e-21
6.53288e-22
1.87547e-21
3.51783e-21
4.87746e-21
2.31432e-21
6.27885e-21
5.31118e-22
8.83586e-22
6.21979e-21
7.78608e-22
1.7105e-21
6.23982e-21
2.77922e-21
5.01536e-21
1.37413e-22
1.16261e-21
2.156e-21
2.93324e-21
1.57811e-21
2.82206e-21
2.54047e-21
9.29699e-21
4.2268e-21
4.31163e-21
1.91718e-22
6.88536e-22
1.43286e-21
2.09246e-21
4.72348e-21
6.69019e-22
2.40441e-21
6.37445e-21
8.83243e-22
2.72877e-22
2.28263e-21
3.53226e-21
2.81456e-21
2.68852e-21
2.40942e-21
4.11581e-21
9.49555e-22
6.76364e-21
2.04375e-23
9.83138e-22
2.31374e-21
8.45478e-21
6.60937e-21
1.00967e-20
9.45286e-21
2.18278e-21
3.71529e-21
2.35093e-21
3.43807e-21
9.56522e-21
1.09097e-20
1.79887e-21
8.35711e-21
2.50817e-21
5.75754e-22
7.33337e-21
2.02648e-21
8.91523e-22
2.88907e-21
1.16306e-21
1.65805e-23
2.60355e-21
2.55702e-21
4.77416e-21
1.6113e-20
6.66707e-22
9.21994e-22
3.97217e-22
8.75602e-22
1.06126e-20
5.03921e-21
2.11794e-21
1.09699e-20
1.70532e-20
7.43872e-21
1.82228e-22
1.61855e-22
1.68065e-22
2.19678e-21
4.94369e-21
2.14829e-21
1.39848e-20
6.34282e-21
5.19217e-22
1.10866e-21
4.59094e-21
3.8274e-21
1.49586e-21
2.09766e-22
7.67726e-21
4.08055e-21
1.32846e-21
1.54381e-22
3.6318e-21
6.44303e-21
1.82899e-21
1.69838e-20
3.45022e-21
5.18759e-21
7.18178e-22
2.06347e-21
8.05754e-21
1.22391e-21
1.8986e-21
1.01516e-20
7.29893e-22
4.46874e-21
4.30426e-21
9.18611e-21
2.13616e-21
1.11358e-20
1.06768e-21
7.47407e-21
1.04854e-21
1.49075e-21
1.00816e-22
5.54175e-22
1.07146e-21
1.65306e-22
2.42403e-21
8.8417e-23
2.62324e-21
1.31557e-21
1.64477e-21
1.52236e-21
9.27375e-21
1.25406e-20
5.10041e-21
6.68027e-21
3.79384e-22
6.06882e-21
7.0602e-22
1.15838e-21
2.79538e-21
1.39641e-21
2.56251e-21
6.51969e-21
1.35017e-22
7.56102e-21
6.21216e-21
8.63958e-21
1.9707e-21
9.2947e-21
1.4343e-21
1.85577e-21
1.77495e-21
2.33762e-21
3.79408e-21
2.51464e-21
1.06924e-21
3.53592e-21
1.34854e-20
2.45225e-21
3.65172e-21
2.82504e-21
5.58725e-22
5.88806e-21
1.87111e-21
5.56099e-21
3.93271e-22
3.8333e-21
1.13492e-21
1.7366e-21
5.59299e-22
2.71272e-21
6.22661e-22
6.27329e-21
5.36757e-22
2.3045e-21
3.09408e-21
6.87133e-21
5.05152e-21
5.78631e-21
2.03285e-21
5.76239e-21
2.066e-21
1.46306e-20
1.43664e-21
2.64877e-21
1.12319e-20
9.40289e-22
4.65246e-22
3.55655e-21
2.3665e-21
2.11355e-21
6.23225e-21
1.07437e-21
9.99947e-21
3.62861e-21
1.06371e-21
2.51039e-21
1.82037e-21
7.82006e-21
5.72408e-21
5.09905e-21
2.45861e-21
2.77314e-21
2.14936e-21
5.41677e-21
7.73917e-21
2.19875e-21
5.062e-21
3.60996e-21
1.25539e-20
1.98348e-21
2.37588e-21
3.71459e-21
2.814e-22
8.8932e-21
4.9341e-21
6.92462e-21
9.98447e-21
3.88449e-21
7.75342e-21
6.57051e-21
5.85545e-22
2.31881e-20
2.51491e-21
2.45465e-21
2.64962e-21
2.13461e-21
3.99097e-21
9.08902e-22
7.61944e-21
7.46431e-22
1.05399e-20
3.84577e-21
2.37782e-21
7.6928e-22
2.05995e-21
3.18668e-21
6.95852e-22
3.36221e-21
2.35453e-21
9.94434e-21
2.33792e-21
1.60889e-21
1.75987e-21
1.27343e-20
6.94875e-21
3.94383e-21
1.56743e-21
1.40508e-21
2.29276e-21
3.12535e-20
3.39601e-22
1.04929e-21
1.71492e-20
7.86642e-21
2.74262e-21
2.90709e-21
2.30122e-22
3.98933e-21
8.15146e-22
7.85822e-21
2.43039e-21
2.37065e-20
1.0994e-20
9.5218e-21
6.64716e-22
3.98167e-21
5.86519e-21
2.72439e-21
7.883e-22
1.89552e-21
6.98343e-21
2.026e-21
3.77888e-21
4.92778e-21
2.94948e-21
5.70965e-21
9.99996e-21
4.13309e-21
1.23845e-21
1.13092e-21
5.31044e-21
1.95012e-21
1.75212e-21
3.36483e-22
7.17242e-21
1.87895e-21
1.80025e-21
1.1279e-21
9.89801e-21