/*--------------------------------*- C++ -*----------------------------------*\
  =========                 |
  \\      /  F ield         | OpenFOAM: The Open Source CFD Toolbox
   \\    /   O peration     | Website:  https://openfoam.org
    \\  /    A nd           | Version:  7
     \\/     M anipulation  |
\*---------------------------------------------------------------------------*/
FoamFile
{
    version     2.0;
    format      ascii;
    class       volScalarField;
    location    "0.001";
    object      dsmcRhoN;
}
// * * * * * * * * * * * * * * * * * * * * * * * * * * * * * * * * * * * * * //

dimensions      [0 -3 0 0 0 0 0];

internalField   nonuniform List<scalar> 
1000
(
358
373
364
363
342
301
342
317
318
357
335
354
305
355
326
336
337
328
376
305
325
309
346
331
350
342
318
349
336
325
363
338
341
337
356
347
349
290
338
321
302
363
314
345
346
333
348
319
336
335
329
346
325
336
330
324
340
334
313
347
311
332
347
336
346
334
325
327
340
347
316
364
347
376
337
342
335
353
339
316
345
349
333
297
344
360
322
331
345
361
307
364
354
346
319
319
327
309
335
340
343
338
329
320
333
331
327
346
335
360
322
334
370
317
355
320
332
296
341
320
376
331
335
337
335
306
360
355
361
317
332
303
353
324
354
351
346
366
347
367
350
367
351
362
342
333
345
350
346
333
299
337
319
314
374
343
316
344
315
339
349
346
321
333
349
332
324
333
303
345
332
334
359
347
315
354
330
346
358
358
346
363
358
315
359
338
347
373
317
371
298
348
349
346
355
351
317
328
334
354
336
355
348
337
358
331
334
381
348
324
311
357
358
333
368
347
333
362
345
334
329
335
339
336
328
356
359
359
325
325
314
327
330
325
318
359
312
336
341
320
351
319
332
358
329
353
382
314
330
335
340
350
340
325
374
369
339
316
317
356
327
338
348
337
340
320
358
363
327
353
319
323
359
337
339
364
302
304
340
371
341
338
322
329
337
344
328
357
352
332
342
333
333
337
327
349
348
350
331
340
372
365
322
331
343
314
319
349
327
338
337
349
341
366
291
343
334
357
348
338
349
327
336
324
318
319
327
334
313
330
322
333
329
314
332
328
351
349
354
337
351
298
370
345
349
345
345
321
330
331
310
336
321
336
342
331
358
324
354
318
350
353
325
321
337
325
310
337
300
320
359
370
335
326
350
316
365
348
370
333
346
323
330
320
345
335
328
331
341
336
325
341
340
333
337
330
333
360
363
342
380
359
303
308
348
356
342
355
304
370
303
352
317
322
350
322
377
367
305
324
333
368
305
303
327
345
334
313
316
342
304
339
290
346
336
312
338
326
332
319
284
327
302
320
308
306
287
280
324
291
298
297
269
295
282
289
273
278
264
292
250
300
250
227
235
244
226
216
191
245
224
222
209
237
200
228
216
193
219
178
202
190
210
169
181
180
164
213
210
179
186
180
193
197
167
167
160
187
163
167
171
159
169
166
192
173
169
162
158
167
177
158
171
150
151
159
162
146
166
179
170
142
168
152
180
185
185
157
162
159
196
155
167
177
181
195
181
185
190
176
209
188
225
232
206
230
218
222
226
250
228
244
246
260
246
239
227
239
247
261
233
238
242
231
220
233
183
146
148
132
118
107
114
87
88
98
103
122
88
95
100
105
97
107
92
77
100
110
108
96
80
103
106
99
116
104
86
107
107
93
105
95
100
108
90
105
94
91
97
108
108
100
87
112
88
95
89
94
93
105
76
103
93
87
108
105
91
101
115
90
102
103
96
116
114
106
76
107
86
99
83
84
104
103
95
105
113
101
103
112
94
88
112
87
94
98
96
120
108
112
71
62
109
117
108
87
105
83
107
80
125
92
103
123
96
106
92
78
95
93
95
99
108
110
99
115
89
88
82
84
95
94
92
120
90
93
89
88
91
112
102
109
109
88
101
121
105
97
97
100
105
88
101
97
92
112
83
107
103
103
96
91
103
79
94
98
94
92
87
107
104
91
96
87
106
85
98
109
115
104
92
82
96
107
98
109
74
79
83
95
111
121
99
88
106
99
100
92
91
106
91
98
101
116
85
91
92
93
95
91
85
100
100
98
105
108
90
104
108
97
107
100
97
100
93
92
106
98
89
89
91
111
103
99
112
98
87
81
100
82
100
105
106
103
98
81
100
93
94
93
81
99
127
85
91
82
94
106
122
98
89
111
94
106
93
101
94
99
94
112
99
103
90
103
103
96
96
80
110
95
103
108
98
97
89
105
84
99
91
110
86
82
84
93
99
97
96
106
95
112
85
103
110
87
112
94
85
102
89
103
108
96
99
109
112
107
101
97
88
90
112
98
106
75
97
91
100
91
106
104
94
103
104
95
101
109
83
72
87
86
90
106
92
94
103
82
103
95
94
105
100
103
93
96
89
100
91
93
84
96
102
111
94
87
110
95
95
100
105
100
91
97
96
91
95
98
91
92
99
104
88
107
121
93
92
94
96
89
91
114
85
104
100
105
104
102
92
92
101
115
88
107
93
89
95
103
87
93
97
102
97
130
86
103
104
92
89
105
89
94
104
101
104
88
96
117
102
111
85
88
81
128
101
93
98
103
80
113
103
111
)
;

boundaryField
{
    sides
    {
        type            symmetry;
    }
    empty
    {
        type            empty;
    }
}


// ************************************************************************* //
