/*--------------------------------*- C++ -*----------------------------------*\
  =========                 |
  \\      /  F ield         | OpenFOAM: The Open Source CFD Toolbox
   \\    /   O peration     | Website:  https://openfoam.org
    \\  /    A nd           | Version:  7
     \\/     M anipulation  |
\*---------------------------------------------------------------------------*/
FoamFile
{
    version     2.0;
    format      ascii;
    class       volScalarField;
    location    "0.001";
    object      dsmcRhoNMean;
}
// * * * * * * * * * * * * * * * * * * * * * * * * * * * * * * * * * * * * * //

dimensions      [0 -3 0 0 0 0 0];

internalField   nonuniform List<scalar> 
1000
(
70.933
85.335
94.125
97.208
101.597
110.153
116.05
117.292
120.761
123.361
128.904
131.985
138.793
140.077
137.277
142.791
151.185
146.555
155.56
154.831
152.4
151.621
157.295
160.389
162.888
159.06
158.886
158.863
157.39
157.894
161.115
161.159
160.062
166.273
164.782
166.455
169.279
172.663
169.349
171.935
173.203
172.131
168.656
169.796
168.734
166.73
172.954
167.057
164.987
166.7
169.27
165.671
166.166
163.106
167.431
169.162
173.274
169.369
170.016
168.766
172.108
170.829
168.842
169.41
165.87
164.424
169.097
171.463
167.797
166.968
166.969
169.646
172.452
173.313
168.582
168.177
167.139
166.074
166.147
168.116
175.343
170.226
174.065
176.673
166.169
171.766
169.572
172.33
171.216
174.494
170.115
170.825
167.628
169.52
176.126
176.615
169.705
171.511
173.212
170.724
165.563
163.811
164.193
164.472
165.375
162.412
166.189
163.979
169.047
167.148
165.645
165.673
167.64
163.904
168.57
163.975
165.304
165.003
164.491
167.869
167.676
170.498
172.191
170.733
169.656
167.476
167.167
167.485
170.364
166.399
167.864
169.394
167.352
170.623
172.493
173.125
170.095
167.372
168.95
167.401
167.404
170.245
165.689
165.343
166.482
167.384
169.095
166.102
171.001
173.013
172.496
171.998
172.674
173.328
179.899
180.907
175.355
171.469
171.335
172.479
167.077
172.436
171.45
170.93
178.183
171.702
161.037
167.039
166.468
168.479
174.485
174.319
171.748
171.371
169.019
166.57
163.94
168.659
174.917
167.406
165.706
168.939
168.564
169.227
168.121
167.856
172.085
172.971
175.087
175.086
170.327
176.985
173.635
169.284
167.886
164.989
167.428
169.042
165.238
166.364
168.485
164.85
165.501
162.413
160.99
164.227
169.895
169.129
172.043
170.122
164.972
162.955
160.455
158.209
159.012
166.912
165.988
160.485
161.968
161.807
166.785
169.393
166.883
170.156
171.56
168.023
173.202
170.131
167.592
171.415
167.573
168.767
171.576
166.973
169.71
168.881
168.309
169.651
166.563
172.043
170.443
164.732
166.374
169.611
169.933
173.451
171.867
173.935
173.936
169.768
169.931
170.356
165.048
166.368
169.63
170.402
166.258
166.923
171.084
173.13
171.814
170.347
172.019
168.096
173.893
170.342
172.831
169.481
167.903
178.593
172.534
166.65
174.376
173.302
169.51
165.407
168.861
174.377
170.095
174.684
174.381
174.142
170.648
169.177
167.375
167.811
169.545
168.325
165.065
165.211
164.282
160.787
166.767
165.863
165.645
166.605
164.997
168.156
169.041
169.88
171.999
171.106
169.678
164.985
166.619
163.573
163.083
164.853
167.15
166.033
162.293
164.203
164.254
165.83
166.078
163.459
165.738
163.885
164.859
162.491
167.653
165.836
164.606
166.506
164.377
164.74
171.098
165.39
161.246
175.9
173.604
173.476
174.395
171.545
169.074
169.472
170.94
171.973
173.764
170.951
167.279
169.357
171.453
178.974
173.907
177.081
167.078
165.033
168.188
167.27
173.347
167.828
163.643
170.687
177.792
172.392
177.502
174.553
175.534
171.824
169.799
163.539
166.001
165.653
166.043
169.781
170.048
165.92
168.429
172.697
172.471
169.925
168.904
169.273
166.321
168.733
172.082
172.979
172.456
169.624
169.631
173.896
169.346
169.828
167.528
167.233
170.023
169.1
169.611
170.511
170.139
169.76
169.14
167.918
166.487
164.132
170.894
170.832
170.924
167.649
170.302
169.359
168.577
169.274
168.087
171.27
176.018
176.858
173.322
162.777
169.395
163.401
166.326
168.186
170.77
164.343
165.192
168.839
164.553
170.197
171.396
171.1
171.506
169.295
165.71
165.767
166.58
164.17
167.459
171.932
172.242
161.993
164.602
166.685
162.879
166.96
167.782
170.418
170.931
171.004
166.35
172.376
172.052
172.261
168.791
167.307
169.302
167.277
169.03
168.333
169.73
172.424
174.385
179.073
172.819
173.468
168.233
172.808
175.98
172.163
171.696
170.138
165.23
169.802
167.729
167.88
167.73
167.02
171.574
165.981
167.772
163.886
162.466
164.629
161.253
157.072
156.458
155.727
162.008
160.71
154.568
151.05
150.904
148.632
146.644
145.656
143.111
141.541
142.2
136.155
133.61
130.108
128.476
128.289
124.406
123.539
123.074
116.599
114.283
110.317
104.25
98.854
94.739
90.759
93.273
85.59
83.611
80.793
79.846
76.898
74.599
72.514
69.02
69.405
65.11
66.46
64.824
62.133
61.667
62.823
62.646
63.92
63.192
59.562
57.892
57.011
55.839
59.096
57.516
54.108
54.801
54.965
55.428
56.165
56.573
57.303
55.767
52.982
50.882
54.649
52.223
52.704
52.883
55.052
54.639
50.69
50.603
49.077
50.969
51.502
49.958
49.07
50.658
48.424
49.469
48.799
49.011
50.396
49.534
50.551
54.098
55.251
51.274
53.746
50.015
51.013
54.989
53.835
49.585
48.597
49.345
47.848
48.779
46.924
45.587
48.429
48.473
46.006
45.782
47.51
47.636
48.401
47.284
45.437
45.384
45.486
48.688
49.457
48.476
49.299
46.874
48.991
48.837
49.148
47.31
46.26
49.297
48.543
46.694
48.838
48.403
49.618
53.141
51.709
50.201
51.348
48.365
48.292
45.153
47.58
47.935
49.709
49.582
50.95
48.066
45.239
49.781
51.157
52.599
49.051
47.309
50.272
52.54
52.033
53.256
53.047
51.342
52.701
48.535
48.307
50.787
50.08
50.034
50.846
46.771
49.103
47.58
44.789
48.235
48.865
49.612
48.934
49.999
50.096
47.548
49.826
51.877
51.471
50.68
47.139
48.371
48.8
48.994
47.908
45.416
48.33
47.435
46.259
48.738
47.831
48.943
47.944
48.49
51.319
50.013
49.425
47.166
49.873
49.702
48.254
47.488
44.817
46.91
48.289
49.178
49.048
47.517
47.821
49.927
50.061
51.637
51.488
52.688
50.254
48.566
46.411
48.719
50.3
52.386
52.759
53.078
50.463
49.255
48.326
47.529
49.663
50.702
50.629
49.001
48.698
50.608
51.853
49.789
49.929
48.738
48.482
51.487
50.159
51.036
51.702
49.311
46.819
46.958
46.411
47.424
45.919
47.052
49.809
49.583
47.232
43.449
45.289
47.494
48.545
45.583
44.87
47.733
49.829
50.277
49.691
49.303
48.516
52.788
52.653
53.24
49.865
53.077
51.806
51.887
52.609
50.001
50.565
48.789
48.5
50.02
49.078
49.471
49.79
46.591
46.207
48.803
50.598
48.396
48.007
48.643
50.859
49.929
51.199
51.281
48.812
48.608
45.952
51.224
51.236
50.484
48.316
48.973
46.783
48.151
46.718
49.095
47.165
48.688
46.423
48.097
48.521
48.8
51.389
49.779
48.663
46.511
46.139
45.018
45.201
49.805
48.342
48.678
50.548
50.155
49.383
46.684
48.006
47.661
48.872
46.267
48.41
48.077
45.166
48.639
47.661
49.225
50.478
51.83
49.241
49.295
49.736
45.998
44.455
50.098
48.647
48.372
48.416
47.196
44.792
47.987
48.604
45.681
49.318
48.726
48.015
48.493
48.46
50.147
49.367
50.592
52.745
50.843
49.074
47.771
46.895
48.153
49.791
48.568
46.116
46.88
48.33
49.66
51.341
51.887
50.079
51.939
49.587
48.079
48.839
48.301
49.149
46.524
47.455
48.229
46.647
46.278
48.326
50.683
48.363
48.346
49.445
52.462
50.918
49.338
50.07
49.765
49.34
49.889
52.042
49.342
49.601
50.201
49.733
51.689
51.036
50.856
50.152
50.882
48.066
48.791
48.445
49.238
48.492
47.715
49.115
49.948
50.585
51.302
48.753
47.326
49.122
47.667
48.659
46.272
47.853
46.269
48.49
48.117
49.666
49.639
51.026
50.097
49.381
47.218
48.665
48.428
50.36
47.056
49.008
49.407
51.479
53.062
52.233
51.515
52.153
49.901
49.517
48.76
47.331
46.087
48.562
48.261
49.877
49.664
49.717
51.608
51.792
52.673
52.92
51.534
48.955
48.231
50.81
48.032
46.185
48.517
48.853
47.861
48.551
47.612
48.947
47.898
47.56
48.527
48.187
46.468
49.298
49.299
48.049
47.728
50.603
49.144
48.675
49.036
47.491
49.601
48.763
47.629
46.375
48.098
48.574
47.002
44.648
44.126
44.558
45.756
44.283
48.838
47.876
44.748
46.215
51.45
47.957
48.694
49.17
50.08
48.655
47.325
44.738
45.882
45.484
43.791
45.353
45.861
44.824
45.394
44.994
43.257
39.373
41.87
43.035
41.647
42.055
40.801
39.56
39.762
35.291
35.486
33.68
32.074
29.502
28.408
25.678
24.303
21.362
)
;

boundaryField
{
    sides
    {
        type            calculated;
        value           nonuniform List<scalar> 2(21.362 70.933);
    }
    empty
    {
        type            empty;
    }
}


// ************************************************************************* //
