/*--------------------------------*- C++ -*----------------------------------*\
  =========                 |
  \\      /  F ield         | OpenFOAM: The Open Source CFD Toolbox
   \\    /   O peration     | Website:  https://openfoam.org
    \\  /    A nd           | Version:  7
     \\/     M anipulation  |
\*---------------------------------------------------------------------------*/
FoamFile
{
    version     2.0;
    format      ascii;
    class       volScalarField;
    location    "0.001";
    object      dsmcSigmaTcRMax;
}
// * * * * * * * * * * * * * * * * * * * * * * * * * * * * * * * * * * * * * //

dimensions      [0 3 -1 0 0 0 0];

internalField   nonuniform List<scalar> 
1000
(
5.96687e-16
6.06634e-16
6.29074e-16
6.19951e-16
6.0984e-16
6.34624e-16
6.12247e-16
6.15893e-16
6.32661e-16
6.96031e-16
6.42623e-16
6.1695e-16
6.49554e-16
6.43923e-16
6.75868e-16
6.42154e-16
6.34899e-16
6.62163e-16
6.40138e-16
6.34122e-16
6.27872e-16
6.75112e-16
6.38384e-16
6.47055e-16
6.83352e-16
6.44431e-16
6.72922e-16
6.78706e-16
6.31281e-16
6.81067e-16
6.49657e-16
6.38497e-16
6.44232e-16
6.57623e-16
6.53192e-16
6.55377e-16
6.49687e-16
6.36131e-16
6.71368e-16
6.41628e-16
6.44032e-16
6.64789e-16
6.63139e-16
6.91583e-16
6.63315e-16
6.66919e-16
6.79477e-16
6.58873e-16
6.835e-16
6.73063e-16
6.80974e-16
6.61746e-16
6.95029e-16
6.89896e-16
6.66841e-16
6.67276e-16
6.57326e-16
6.34802e-16
6.34617e-16
6.45572e-16
6.49766e-16
6.25494e-16
6.63107e-16
6.39878e-16
6.53253e-16
6.41453e-16
6.52726e-16
6.3425e-16
6.44631e-16
6.61996e-16
6.94793e-16
6.3701e-16
6.91657e-16
6.40156e-16
6.40847e-16
6.48791e-16
6.33997e-16
6.45567e-16
6.77739e-16
6.83545e-16
6.59408e-16
6.47081e-16
6.56428e-16
6.76636e-16
6.50313e-16
6.55638e-16
6.67467e-16
6.34775e-16
6.40428e-16
6.62809e-16
6.36736e-16
6.62012e-16
6.46868e-16
6.83551e-16
6.50842e-16
6.39567e-16
6.61709e-16
6.49337e-16
6.2636e-16
6.36142e-16
6.52005e-16
6.74039e-16
6.53786e-16
6.90219e-16
6.64365e-16
6.68704e-16
6.50927e-16
6.66158e-16
6.69547e-16
6.61016e-16
6.60617e-16
6.35565e-16
6.51515e-16
6.49107e-16
6.69928e-16
6.39195e-16
6.33621e-16
6.55875e-16
6.51927e-16
6.74094e-16
6.49433e-16
6.32066e-16
6.42125e-16
6.84284e-16
6.80637e-16
6.60335e-16
6.49327e-16
6.48494e-16
6.42492e-16
7.10338e-16
6.37909e-16
6.28257e-16
6.62796e-16
6.46939e-16
6.59776e-16
6.48972e-16
6.40177e-16
6.81611e-16
6.48687e-16
6.49595e-16
7.07397e-16
6.91912e-16
6.63986e-16
6.66886e-16
6.6286e-16
6.43646e-16
6.46986e-16
6.45763e-16
6.50716e-16
6.7622e-16
6.69388e-16
6.71481e-16
6.69632e-16
6.43467e-16
6.69876e-16
6.87105e-16
6.6178e-16
6.66405e-16
6.79132e-16
6.54378e-16
6.23736e-16
6.27358e-16
6.67189e-16
6.61264e-16
6.57698e-16
6.59226e-16
6.43255e-16
6.26526e-16
6.73968e-16
6.7121e-16
6.45055e-16
6.47775e-16
6.41758e-16
6.57017e-16
6.39827e-16
6.50087e-16
6.66837e-16
6.49629e-16
6.50298e-16
6.75761e-16
6.55508e-16
6.79109e-16
6.58672e-16
6.88251e-16
6.76661e-16
6.42694e-16
6.64071e-16
6.45624e-16
6.46483e-16
6.60593e-16
6.51028e-16
6.66327e-16
6.72299e-16
6.81332e-16
6.72871e-16
6.54915e-16
6.84511e-16
6.60136e-16
6.88191e-16
6.54142e-16
6.34426e-16
6.95627e-16
6.5723e-16
6.60937e-16
6.66179e-16
6.64739e-16
6.26829e-16
6.57622e-16
6.41952e-16
6.62633e-16
6.63962e-16
6.55137e-16
6.47892e-16
6.75101e-16
6.39165e-16
6.37804e-16
6.4529e-16
7.18779e-16
6.56141e-16
6.55633e-16
6.51154e-16
6.17252e-16
6.81785e-16
7.36384e-16
6.56122e-16
6.30129e-16
6.58638e-16
6.46627e-16
6.29536e-16
6.67108e-16
6.81596e-16
6.57119e-16
6.33582e-16
6.66653e-16
6.45242e-16
6.52858e-16
6.92322e-16
6.36993e-16
6.35862e-16
6.62559e-16
6.79363e-16
6.65091e-16
6.38269e-16
6.32659e-16
6.37868e-16
6.45663e-16
6.49794e-16
6.58309e-16
6.64731e-16
6.46311e-16
7.11905e-16
6.66801e-16
6.42308e-16
6.34546e-16
6.77463e-16
6.24111e-16
6.66978e-16
6.51639e-16
6.51664e-16
6.65956e-16
6.25032e-16
6.51127e-16
6.76003e-16
6.35729e-16
6.50836e-16
6.26678e-16
6.90449e-16
6.6649e-16
6.26045e-16
6.84621e-16
6.36061e-16
6.35898e-16
6.4413e-16
6.61025e-16
6.48242e-16
6.43627e-16
6.37579e-16
6.58783e-16
6.31125e-16
6.4249e-16
6.4065e-16
6.47716e-16
6.38989e-16
6.58258e-16
6.47853e-16
6.61752e-16
6.63638e-16
6.69435e-16
6.57778e-16
7.40893e-16
6.45856e-16
6.69147e-16
6.8076e-16
6.70281e-16
6.74272e-16
6.67487e-16
6.48565e-16
6.55676e-16
6.6714e-16
6.36823e-16
6.48422e-16
6.33164e-16
6.3375e-16
6.43036e-16
6.73785e-16
6.32066e-16
6.43366e-16
6.57564e-16
6.4871e-16
6.97206e-16
6.4033e-16
6.62649e-16
6.71817e-16
6.75685e-16
6.76715e-16
6.52589e-16
6.51945e-16
6.39665e-16
6.39172e-16
6.75021e-16
6.43415e-16
6.47166e-16
6.91737e-16
6.58963e-16
6.64369e-16
6.61013e-16
6.78899e-16
6.74966e-16
6.76832e-16
6.71781e-16
6.72163e-16
6.61756e-16
6.52737e-16
6.72684e-16
6.84576e-16
6.49884e-16
6.52792e-16
6.63187e-16
6.57186e-16
6.34341e-16
6.93321e-16
6.48161e-16
6.48395e-16
6.87207e-16
6.54273e-16
6.42846e-16
6.52737e-16
6.89933e-16
6.44308e-16
6.53029e-16
6.79766e-16
6.49763e-16
6.6201e-16
7.01749e-16
6.71943e-16
6.42525e-16
6.66498e-16
6.62551e-16
6.98862e-16
6.59502e-16
6.47786e-16
6.77662e-16
6.46904e-16
6.30535e-16
6.6334e-16
6.76299e-16
6.85173e-16
6.5304e-16
6.76754e-16
6.41638e-16
6.88125e-16
6.51955e-16
6.34127e-16
6.59177e-16
6.50009e-16
6.9218e-16
6.55921e-16
6.53527e-16
6.28891e-16
6.38745e-16
6.31614e-16
6.74264e-16
6.39009e-16
6.65484e-16
6.25195e-16
6.42286e-16
6.46537e-16
7.07654e-16
6.35247e-16
6.2709e-16
6.58161e-16
6.38555e-16
6.61369e-16
6.71944e-16
6.56116e-16
6.59979e-16
6.41966e-16
6.42219e-16
6.72037e-16
6.43434e-16
6.60797e-16
6.44492e-16
6.46055e-16
6.58947e-16
6.62034e-16
6.42217e-16
6.66073e-16
6.57672e-16
6.53275e-16
6.52831e-16
6.56224e-16
6.68246e-16
6.49175e-16
6.46267e-16
6.30964e-16
7.04008e-16
6.8393e-16
6.69334e-16
6.49557e-16
6.51787e-16
6.43778e-16
6.68878e-16
6.43775e-16
6.47756e-16
6.44811e-16
6.76616e-16
6.44126e-16
6.62609e-16
6.65068e-16
6.39512e-16
6.69106e-16
6.42751e-16
6.8833e-16
6.396e-16
6.56361e-16
6.82061e-16
6.64588e-16
6.62003e-16
6.44608e-16
6.37311e-16
6.5795e-16
6.63388e-16
6.48649e-16
6.64128e-16
6.28764e-16
6.59098e-16
6.27488e-16
6.9513e-16
6.56521e-16
6.61559e-16
6.71421e-16
6.39168e-16
6.2696e-16
6.88921e-16
6.46445e-16
6.71194e-16
6.47716e-16
6.61936e-16
6.49467e-16
6.37875e-16
6.56972e-16
6.71041e-16
6.55934e-16
6.69214e-16
6.64155e-16
6.37244e-16
6.55121e-16
6.85538e-16
7.0649e-16
6.62598e-16
6.55367e-16
6.54003e-16
6.58615e-16
6.45505e-16
6.4522e-16
7.03368e-16
6.38491e-16
6.66864e-16
6.98724e-16
6.76939e-16
6.54242e-16
6.56621e-16
6.40144e-16
6.45284e-16
6.25443e-16
7.13542e-16
6.59016e-16
6.31609e-16
6.40666e-16
6.53094e-16
6.83719e-16
6.51023e-16
6.23304e-16
6.18998e-16
6.54752e-16
6.3591e-16
6.16305e-16
6.53782e-16
6.28906e-16
6.25778e-16
6.16708e-16
6.16542e-16
6.23458e-16
6.27907e-16
6.15821e-16
6.14948e-16
6.3545e-16
6.10707e-16
6.30351e-16
6.2764e-16
6.48895e-16
6.54804e-16
6.58466e-16
6.48719e-16
6.41436e-16
6.17381e-16
6.25625e-16
6.22336e-16
6.38556e-16
6.62554e-16
6.71602e-16
6.47173e-16
6.12353e-16
6.8492e-16
6.33923e-16
6.69721e-16
6.49438e-16
6.35433e-16
6.44545e-16
6.51061e-16
6.46626e-16
6.40548e-16
6.62846e-16
6.56439e-16
6.31178e-16
6.45993e-16
6.19326e-16
6.13546e-16
6.4542e-16
6.40344e-16
5.91926e-16
6.11819e-16
6.72425e-16
6.26847e-16
6.14112e-16
6.20053e-16
6.25996e-16
6.19339e-16
6.1294e-16
5.99424e-16
6.25529e-16
6.03302e-16
6.75145e-16
6.26856e-16
6.1877e-16
6.22432e-16
6.06542e-16
6.33324e-16
5.87025e-16
5.96904e-16
6.16698e-16
6.33532e-16
6.03308e-16
6.10116e-16
6.24714e-16
6.13343e-16
6.39019e-16
6.06721e-16
6.24014e-16
6.23772e-16
5.7496e-16
5.83191e-16
6.23431e-16
6.38806e-16
6.29415e-16
6.49358e-16
5.97493e-16
6.04271e-16
6.72832e-16
6.14211e-16
6.26184e-16
6.09775e-16
6.24869e-16
6.3655e-16
6.4159e-16
5.98701e-16
6.55251e-16
6.06108e-16
6.54826e-16
6.28649e-16
6.17455e-16
6.41479e-16
6.07386e-16
5.97037e-16
6.09236e-16
6.25365e-16
5.98293e-16
5.7962e-16
6.18286e-16
5.93416e-16
6.45538e-16
6.28184e-16
6.18994e-16
6.01766e-16
5.94114e-16
5.84264e-16
6.0518e-16
6.10661e-16
5.66962e-16
6.12146e-16
5.90196e-16
6.19313e-16
6.12227e-16
6.26346e-16
5.90661e-16
6.19109e-16
6.34699e-16
5.98743e-16
6.37955e-16
5.91253e-16
6.00673e-16
6.00668e-16
6.4789e-16
6.44803e-16
6.11389e-16
5.87223e-16
5.94675e-16
6.35994e-16
6.39233e-16
5.79821e-16
6.10824e-16
5.96754e-16
6.30011e-16
6.40072e-16
6.0584e-16
6.27373e-16
6.11025e-16
5.93572e-16
6.0583e-16
6.07191e-16
6.08443e-16
6.48277e-16
6.15085e-16
6.13035e-16
6.76501e-16
5.98248e-16
6.1032e-16
6.3228e-16
6.1096e-16
6.07813e-16
6.77266e-16
6.01134e-16
6.14322e-16
5.85291e-16
5.92106e-16
6.14072e-16
6.16665e-16
5.97398e-16
6.67814e-16
6.23956e-16
6.01694e-16
6.32127e-16
5.82451e-16
6.02355e-16
6.046e-16
6.15261e-16
6.02208e-16
5.98087e-16
5.84602e-16
6.37021e-16
6.1278e-16
6.10148e-16
6.24504e-16
6.35995e-16
6.16863e-16
5.90634e-16
5.8877e-16
5.96687e-16
6.18006e-16
6.41686e-16
5.91508e-16
5.82553e-16
6.27262e-16
5.92903e-16
5.98685e-16
5.95654e-16
6.47863e-16
5.98898e-16
6.48104e-16
6.20699e-16
6.1348e-16
6.1985e-16
6.29554e-16
6.03147e-16
6.18058e-16
5.84264e-16
6.249e-16
6.12287e-16
6.26824e-16
6.06428e-16
5.89478e-16
6.163e-16
6.03601e-16
6.12306e-16
6.18358e-16
6.20395e-16
5.92514e-16
6.18293e-16
5.88975e-16
6.38508e-16
6.01286e-16
6.05421e-16
6.36321e-16
6.25198e-16
6.39234e-16
6.11292e-16
6.21444e-16
6.28985e-16
6.06341e-16
6.61873e-16
6.54957e-16
6.12484e-16
6.00805e-16
6.15789e-16
5.9801e-16
5.9782e-16
6.08984e-16
6.11819e-16
6.1875e-16
6.45871e-16
6.41471e-16
5.86228e-16
6.37826e-16
5.80875e-16
5.89491e-16
6.5204e-16
6.31678e-16
6.41403e-16
5.8639e-16
5.68133e-16
5.83073e-16
6.22793e-16
6.0472e-16
5.98312e-16
6.04199e-16
6.48262e-16
6.17549e-16
6.56983e-16
6.35557e-16
6.18563e-16
6.24785e-16
5.92681e-16
5.78793e-16
6.20774e-16
6.74241e-16
6.00106e-16
6.19668e-16
6.05338e-16
6.09219e-16
5.90402e-16
6.21646e-16
5.89173e-16
6.09994e-16
5.97246e-16
5.91656e-16
6.25941e-16
5.97346e-16
6.0301e-16
6.58261e-16
5.86258e-16
6.14748e-16
6.06649e-16
5.88234e-16
6.26977e-16
6.14339e-16
6.14532e-16
6.18879e-16
6.33673e-16
6.14511e-16
6.13493e-16
5.85631e-16
6.215e-16
6.27883e-16
6.31141e-16
6.25706e-16
5.91205e-16
5.99019e-16
5.92758e-16
5.87573e-16
5.98655e-16
6.13916e-16
5.87082e-16
6.12718e-16
5.903e-16
6.16501e-16
6.1401e-16
5.95852e-16
6.0466e-16
6.07649e-16
6.39054e-16
6.29344e-16
6.2817e-16
6.00962e-16
6.14073e-16
6.09768e-16
6.73301e-16
6.51988e-16
6.31683e-16
6.29631e-16
6.23874e-16
6.05117e-16
6.0773e-16
6.28049e-16
6.36726e-16
6.19748e-16
6.15764e-16
5.95982e-16
5.82492e-16
5.92885e-16
6.09695e-16
6.43192e-16
6.00103e-16
5.91155e-16
6.22885e-16
5.90915e-16
6.09871e-16
6.35687e-16
5.97495e-16
6.4178e-16
6.13492e-16
5.80633e-16
6.27579e-16
6.25928e-16
5.82694e-16
6.13428e-16
6.28145e-16
6.07602e-16
5.82667e-16
6.03839e-16
5.89153e-16
5.95371e-16
6.31456e-16
5.92292e-16
6.10522e-16
5.96875e-16
6.12078e-16
6.35608e-16
6.1969e-16
6.13734e-16
6.23076e-16
6.23167e-16
6.29674e-16
5.8738e-16
6.1172e-16
5.94035e-16
5.75371e-16
6.15478e-16
6.05058e-16
6.62593e-16
6.31217e-16
6.4043e-16
5.99355e-16
5.77032e-16
5.95323e-16
5.82659e-16
6.41823e-16
6.1018e-16
5.97995e-16
5.95945e-16
6.53287e-16
6.24149e-16
6.41727e-16
6.50741e-16
5.9193e-16
5.94963e-16
6.19422e-16
6.64875e-16
6.42764e-16
6.25872e-16
5.92067e-16
5.9875e-16
5.90346e-16
6.28058e-16
6.30165e-16
6.13251e-16
6.08688e-16
6.07885e-16
6.38492e-16
6.22321e-16
5.99774e-16
5.91877e-16
6.04911e-16
6.15118e-16
5.98775e-16
5.79026e-16
5.79576e-16
6.78267e-16
6.08288e-16
5.86066e-16
5.98903e-16
6.04483e-16
5.81523e-16
6.30401e-16
5.82075e-16
6.3012e-16
6.24054e-16
6.57954e-16
6.12068e-16
5.96949e-16
6.03586e-16
6.20636e-16
6.33525e-16
6.51867e-16
6.17795e-16
6.01738e-16
5.92538e-16
6.02638e-16
5.81829e-16
5.85854e-16
5.83218e-16
6.24301e-16
6.21077e-16
6.06141e-16
6.10382e-16
6.49156e-16
6.29219e-16
6.05394e-16
6.25325e-16
6.68473e-16
6.32657e-16
6.01823e-16
5.99924e-16
6.39667e-16
6.26047e-16
6.74606e-16
5.8882e-16
6.05201e-16
6.43591e-16
6.51776e-16
6.05785e-16
6.231e-16
6.27219e-16
6.06993e-16
6.17926e-16
5.89986e-16
6.07782e-16
6.02282e-16
6.1495e-16
6.28568e-16
5.96829e-16
6.19185e-16
6.55294e-16
5.72954e-16
5.93284e-16
6.2126e-16
6.08855e-16
6.32411e-16
6.5479e-16
5.82779e-16
6.15622e-16
6.1565e-16
6.30829e-16
5.94963e-16
6.31014e-16
5.83275e-16
6.38278e-16
6.1142e-16
6.08392e-16
6.01004e-16
5.77001e-16
5.92417e-16
6.23476e-16
5.89479e-16
6.00815e-16
6.01736e-16
5.88766e-16
5.85306e-16
6.51943e-16
5.79042e-16
5.71126e-16
6.07759e-16
6.27802e-16
6.37294e-16
6.53867e-16
6.2571e-16
5.80997e-16
6.06371e-16
5.67611e-16
5.68257e-16
6.20533e-16
5.89024e-16
5.97417e-16
6.74394e-16
6.29832e-16
5.46227e-16
5.35661e-16
5.43492e-16
5.82129e-16
5.63229e-16
5.42143e-16
)
;

boundaryField
{
    sides
    {
        type            zeroGradient;
    }
    empty
    {
        type            empty;
    }
}


// ************************************************************************* //
