/*--------------------------------*- C++ -*----------------------------------*\
  =========                 |
  \\      /  F ield         | OpenFOAM: The Open Source CFD Toolbox
   \\    /   O peration     | Website:  https://openfoam.org
    \\  /    A nd           | Version:  7
     \\/     M anipulation  |
\*---------------------------------------------------------------------------*/
FoamFile
{
    version     2.0;
    format      ascii;
    class       volScalarField;
    location    "0.001";
    object      iDofMean;
}
// * * * * * * * * * * * * * * * * * * * * * * * * * * * * * * * * * * * * * //

dimensions      [0 -3 0 0 0 0 0];

internalField   nonuniform List<scalar> 
1000
(
8.5593e+20
8.6134e+20
8.54862e+20
8.51112e+20
8.48048e+20
8.609e+20
8.50242e+20
8.40165e+20
8.45668e+20
8.41983e+20
8.46675e+20
8.60143e+20
8.4264e+20
8.48113e+20
8.33575e+20
8.26553e+20
8.35703e+20
8.32663e+20
8.45712e+20
8.4693e+20
8.34483e+20
8.44942e+20
8.45807e+20
8.3557e+20
8.31168e+20
8.25785e+20
8.40178e+20
8.17865e+20
8.32692e+20
8.412e+20
8.51172e+20
8.68722e+20
8.57163e+20
8.61215e+20
8.6536e+20
8.6351e+20
8.52005e+20
8.5315e+20
8.55208e+20
8.62275e+20
8.52373e+20
8.44678e+20
8.48208e+20
8.56645e+20
8.52535e+20
8.48525e+20
8.42902e+20
8.38447e+20
8.52198e+20
8.33203e+20
8.42213e+20
8.3592e+20
8.28505e+20
8.29815e+20
8.229e+20
8.29022e+20
8.3354e+20
8.42358e+20
8.4426e+20
8.43665e+20
8.3514e+20
8.29413e+20
8.21762e+20
8.32273e+20
8.302e+20
8.2106e+20
8.16513e+20
8.23948e+20
8.24025e+20
8.4472e+20
8.42473e+20
8.47667e+20
8.464e+20
8.54208e+20
8.65258e+20
8.64803e+20
8.62275e+20
8.54712e+20
8.39657e+20
8.3078e+20
8.264e+20
8.23152e+20
8.33088e+20
8.1647e+20
8.19455e+20
8.3015e+20
8.3675e+20
8.39292e+20
8.44463e+20
8.43802e+20
8.44588e+20
8.5713e+20
8.47183e+20
8.44475e+20
8.45595e+20
8.53763e+20
8.47517e+20
8.5132e+20
8.53095e+20
8.41498e+20
8.46275e+20
8.53212e+20
8.42813e+20
8.40515e+20
8.47265e+20
8.37857e+20
8.27375e+20
8.23805e+20
8.34965e+20
8.4547e+20
8.50085e+20
8.47457e+20
8.50258e+20
8.45142e+20
8.55943e+20
8.54462e+20
8.54245e+20
8.51805e+20
8.475e+20
8.58892e+20
8.5106e+20
8.36757e+20
8.432e+20
8.44955e+20
8.52635e+20
8.44283e+20
8.3795e+20
8.35385e+20
8.36597e+20
8.4533e+20
8.46567e+20
8.44713e+20
8.5282e+20
8.5082e+20
8.48072e+20
8.44953e+20
8.4915e+20
8.506e+20
8.41725e+20
8.46605e+20
8.43287e+20
8.47658e+20
8.5067e+20
8.51438e+20
8.51415e+20
8.39378e+20
8.5315e+20
8.49615e+20
8.42862e+20
8.28968e+20
8.3976e+20
8.30465e+20
8.44935e+20
8.4668e+20
8.57615e+20
8.44985e+20
8.56973e+20
8.4793e+20
8.34228e+20
8.27127e+20
8.27753e+20
8.3428e+20
8.432e+20
8.31297e+20
8.38843e+20
8.3064e+20
8.3754e+20
8.32345e+20
8.49005e+20
8.47457e+20
8.46743e+20
8.46065e+20
8.58868e+20
8.50775e+20
8.5967e+20
8.49025e+20
8.40792e+20
8.47845e+20
8.53932e+20
8.50148e+20
8.45727e+20
8.49613e+20
8.43507e+20
8.53568e+20
8.69647e+20
8.61078e+20
8.5297e+20
8.58828e+20
8.68522e+20
8.79498e+20
8.66172e+20
8.66905e+20
8.714e+20
8.71578e+20
8.51907e+20
8.62588e+20
8.46755e+20
8.45585e+20
8.69557e+20
8.57923e+20
8.49005e+20
8.44165e+20
8.46055e+20
8.37487e+20
8.52908e+20
8.56052e+20
8.43103e+20
8.47105e+20
8.61518e+20
8.62855e+20
8.56095e+20
8.5955e+20
8.56613e+20
8.59872e+20
8.5201e+20
8.58717e+20
8.5182e+20
8.4905e+20
8.43268e+20
8.46412e+20
8.45445e+20
8.33277e+20
8.25693e+20
8.26977e+20
8.35738e+20
8.38343e+20
8.44917e+20
8.46123e+20
8.3718e+20
8.3665e+20
8.4327e+20
8.51315e+20
8.4291e+20
8.40613e+20
8.53837e+20
8.49995e+20
8.36735e+20
8.483e+20
8.32555e+20
8.39583e+20
8.49185e+20
8.34683e+20
8.3014e+20
8.29335e+20
8.3818e+20
8.5163e+20
8.44812e+20
8.4053e+20
8.35402e+20
8.44923e+20
8.37115e+20
8.48925e+20
8.48415e+20
8.55927e+20
8.59208e+20
8.49977e+20
8.386e+20
8.43637e+20
8.42625e+20
8.52745e+20
8.55268e+20
8.61857e+20
8.63553e+20
8.38832e+20
8.4375e+20
8.41975e+20
8.34053e+20
8.39542e+20
8.5489e+20
8.50195e+20
8.46948e+20
8.49822e+20
8.51905e+20
8.60607e+20
8.58285e+20
8.42758e+20
8.51517e+20
8.585e+20
8.70747e+20
8.62998e+20
8.61777e+20
8.55595e+20
8.34835e+20
8.48273e+20
8.49077e+20
8.56525e+20
8.60327e+20
8.4762e+20
8.53595e+20
8.43975e+20
8.4621e+20
8.46415e+20
8.49052e+20
8.55773e+20
8.55212e+20
8.54805e+20
8.51302e+20
8.50345e+20
8.54e+20
8.54093e+20
8.58215e+20
8.5025e+20
8.40533e+20
8.46572e+20
8.36017e+20
8.38703e+20
8.35465e+20
8.32335e+20
8.24127e+20
8.325e+20
8.2585e+20
8.4194e+20
8.37495e+20
8.37165e+20
8.31248e+20
8.29138e+20
8.27695e+20
8.45935e+20
8.35137e+20
8.42068e+20
8.3464e+20
8.34702e+20
8.22013e+20
8.2655e+20
8.33557e+20
8.25232e+20
8.21663e+20
8.22145e+20
8.26898e+20
8.3061e+20
8.44293e+20
8.35345e+20
8.18832e+20
8.33912e+20
8.15442e+20
8.43813e+20
8.41672e+20
8.53288e+20
8.6497e+20
8.60018e+20
8.55198e+20
8.56795e+20
8.524e+20
8.48318e+20
8.5824e+20
8.5306e+20
8.48555e+20
8.55788e+20
8.42983e+20
8.3609e+20
8.4282e+20
8.41357e+20
8.39045e+20
8.36072e+20
8.42837e+20
8.33818e+20
8.50645e+20
8.3695e+20
8.33787e+20
8.32622e+20
8.28038e+20
8.3152e+20
8.4219e+20
8.30672e+20
8.41238e+20
8.36803e+20
8.40195e+20
8.42992e+20
8.352e+20
8.3519e+20
8.28508e+20
8.27767e+20
8.50458e+20
8.54215e+20
8.58627e+20
8.5279e+20
8.5513e+20
8.5592e+20
8.57345e+20
8.55122e+20
8.49435e+20
8.4483e+20
8.33337e+20
8.383e+20
8.35548e+20
8.33173e+20
8.3778e+20
8.27093e+20
8.35855e+20
8.4537e+20
8.46783e+20
8.323e+20
8.32445e+20
8.36593e+20
8.39442e+20
8.3908e+20
8.4853e+20
8.47825e+20
8.54512e+20
8.63237e+20
8.6718e+20
8.58373e+20
8.5471e+20
8.5023e+20
8.57262e+20
8.53858e+20
8.45048e+20
8.44063e+20
8.50675e+20
8.28618e+20
8.39852e+20
8.3536e+20
8.31377e+20
8.50843e+20
8.45152e+20
8.48195e+20
8.421e+20
8.36795e+20
8.46263e+20
8.37083e+20
8.3443e+20
8.35842e+20
8.3739e+20
8.41685e+20
8.45248e+20
8.43165e+20
8.49293e+20
8.4535e+20
8.45642e+20
8.5565e+20
8.5438e+20
8.40433e+20
8.4062e+20
8.39152e+20
8.528e+20
8.38882e+20
8.40498e+20
8.38447e+20
8.45073e+20
8.55522e+20
8.47063e+20
8.4048e+20
8.39708e+20
8.47285e+20
8.54398e+20
8.41253e+20
8.55058e+20
8.3241e+20
8.36822e+20
8.36875e+20
8.28517e+20
8.28788e+20
8.27708e+20
8.2761e+20
8.31548e+20
8.2371e+20
8.11307e+20
8.18912e+20
8.03802e+20
7.95555e+20
7.96222e+20
7.87205e+20
7.72127e+20
7.6581e+20
7.64382e+20
7.67543e+20
7.70498e+20
7.58847e+20
7.5192e+20
7.36387e+20
7.40583e+20
7.33228e+20
7.25693e+20
7.2358e+20
7.0073e+20
6.96273e+20
6.99075e+20
6.91168e+20
6.69263e+20
6.64863e+20
6.59763e+20
6.5736e+20
6.48268e+20
6.33832e+20
6.2834e+20
6.22233e+20
6.15848e+20
6.0991e+20
6.08013e+20
5.90405e+20
5.63848e+20
5.5034e+20
5.4699e+20
5.26608e+20
5.14115e+20
5.11315e+20
4.9664e+20
4.85378e+20
4.61848e+20
4.44143e+20
4.24153e+20
4.18455e+20
4.14678e+20
4.07168e+20
4.11678e+20
4.08963e+20
4.04835e+20
4.13513e+20
4.10665e+20
4.10352e+20
3.9472e+20
3.96817e+20
3.96167e+20
4.03722e+20
4.07335e+20
4.03825e+20
3.94842e+20
3.99265e+20
3.93852e+20
3.98127e+20
3.96193e+20
3.97232e+20
3.9255e+20
4.01135e+20
3.99955e+20
4.10437e+20
3.99872e+20
3.9658e+20
4.015e+20
4.10882e+20
3.97187e+20
3.92515e+20
4.08067e+20
3.98765e+20
3.9296e+20
3.8016e+20
3.79455e+20
3.82265e+20
3.76425e+20
3.79422e+20
3.85765e+20
3.80935e+20
3.67695e+20
3.62002e+20
3.55617e+20
3.59447e+20
3.44223e+20
3.47032e+20
3.43635e+20
3.32695e+20
3.29015e+20
3.2399e+20
3.19707e+20
3.29675e+20
3.24012e+20
3.02775e+20
3.0563e+20
2.98325e+20
2.98455e+20
2.91973e+20
2.84632e+20
2.80395e+20
2.79627e+20
2.76515e+20
2.65752e+20
2.5672e+20
2.58087e+20
2.47533e+20
2.48468e+20
2.51518e+20
2.53042e+20
2.54705e+20
2.46015e+20
2.45285e+20
2.44452e+20
2.49037e+20
2.51392e+20
2.53265e+20
2.52117e+20
2.4885e+20
2.5888e+20
2.6523e+20
2.4582e+20
2.47107e+20
2.5173e+20
2.5009e+20
2.48658e+20
2.48165e+20
2.4605e+20
2.4377e+20
2.4537e+20
2.54722e+20
2.48528e+20
2.4833e+20
2.46415e+20
2.4643e+20
2.4072e+20
2.2775e+20
2.30345e+20
2.47435e+20
2.41775e+20
2.3196e+20
2.47393e+20
2.4839e+20
2.50512e+20
2.54635e+20
2.5439e+20
2.49342e+20
2.446e+20
2.51645e+20
2.4288e+20
2.47097e+20
2.47908e+20
2.4983e+20
2.52882e+20
2.46488e+20
2.4644e+20
2.48867e+20
2.4371e+20
2.47138e+20
2.478e+20
2.41863e+20
2.32055e+20
2.44923e+20
2.4407e+20
2.47862e+20
2.56687e+20
2.50123e+20
2.45252e+20
2.49875e+20
2.52595e+20
2.4988e+20
2.48712e+20
2.51647e+20
2.47683e+20
2.5099e+20
2.37865e+20
2.3599e+20
2.31495e+20
2.33553e+20
2.3939e+20
2.42537e+20
2.55525e+20
2.51072e+20
2.4935e+20
2.4836e+20
2.53128e+20
2.45965e+20
2.36205e+20
2.44285e+20
2.44137e+20
2.56623e+20
2.43708e+20
2.47012e+20
2.44897e+20
2.51078e+20
2.4979e+20
2.41667e+20
2.4722e+20
2.4457e+20
2.5166e+20
2.43545e+20
2.4045e+20
2.38945e+20
2.45298e+20
2.46505e+20
2.49505e+20
2.42433e+20
2.50985e+20
2.48965e+20
2.405e+20
2.39327e+20
2.4815e+20
2.59185e+20
2.50465e+20
2.49242e+20
2.51898e+20
2.41025e+20
2.39717e+20
2.43112e+20
2.44718e+20
2.43695e+20
2.42077e+20
2.50943e+20
2.4655e+20
2.42885e+20
2.38302e+20
2.46543e+20
2.45058e+20
2.3854e+20
2.37588e+20
2.49577e+20
2.51167e+20
2.3976e+20
2.39635e+20
2.46737e+20
2.4009e+20
2.51425e+20
2.59875e+20
2.5982e+20
2.5441e+20
2.4495e+20
2.4625e+20
2.39337e+20
2.42718e+20
2.35892e+20
2.39443e+20
2.39905e+20
2.37255e+20
2.37327e+20
2.40795e+20
2.4474e+20
2.35788e+20
2.48777e+20
2.53638e+20
2.51795e+20
2.43365e+20
2.54017e+20
2.38023e+20
2.39332e+20
2.45563e+20
2.42282e+20
2.48953e+20
2.48865e+20
2.4886e+20
2.51495e+20
2.42755e+20
2.40113e+20
2.5061e+20
2.43845e+20
2.5101e+20
2.40155e+20
2.44815e+20
2.4869e+20
2.47802e+20
2.41985e+20
2.5653e+20
2.60935e+20
2.46285e+20
2.44645e+20
2.43867e+20
2.41478e+20
2.46117e+20
2.4163e+20
2.3874e+20
2.40773e+20
2.37465e+20
2.41923e+20
2.32475e+20
2.28435e+20
2.30215e+20
2.17782e+20
2.26925e+20
2.35542e+20
2.40358e+20
2.40912e+20
2.36783e+20
2.48305e+20
2.47398e+20
2.54725e+20
2.47143e+20
2.37075e+20
2.43708e+20
2.53182e+20
2.505e+20
2.53137e+20
2.52015e+20
2.38372e+20
2.41173e+20
2.41787e+20
2.41398e+20
2.45315e+20
2.4867e+20
2.38467e+20
2.4764e+20
2.54078e+20
2.42662e+20
2.5004e+20
2.43262e+20
2.45423e+20
2.48807e+20
2.4863e+20
2.4305e+20
2.38965e+20
2.38632e+20
2.35788e+20
2.43652e+20
2.41483e+20
2.57825e+20
2.51763e+20
2.55547e+20
2.49418e+20
2.51205e+20
2.44288e+20
2.43005e+20
2.38058e+20
2.43555e+20
2.42203e+20
2.45245e+20
2.50613e+20
2.4768e+20
2.38517e+20
2.419e+20
2.43837e+20
2.48785e+20
2.46752e+20
2.38685e+20
2.40807e+20
2.45825e+20
2.46525e+20
2.53515e+20
2.62902e+20
2.56238e+20
2.43605e+20
2.44598e+20
2.446e+20
2.47778e+20
2.4142e+20
2.4391e+20
2.47585e+20
2.48168e+20
2.4806e+20
2.41783e+20
2.42892e+20
2.41163e+20
2.3689e+20
2.29762e+20
2.37523e+20
2.33802e+20
2.30145e+20
2.34827e+20
2.38918e+20
2.42915e+20
2.38158e+20
2.3669e+20
2.30533e+20
2.3623e+20
2.40003e+20
2.47377e+20
2.35638e+20
2.40152e+20
2.47955e+20
2.43295e+20
2.3909e+20
2.52322e+20
2.61068e+20
2.45405e+20
2.51703e+20
2.52242e+20
2.4939e+20
2.54455e+20
2.40032e+20
2.46018e+20
2.4454e+20
2.54333e+20
2.54037e+20
2.53168e+20
2.5269e+20
2.5415e+20
2.46482e+20
2.47053e+20
2.4373e+20
2.5032e+20
2.48397e+20
2.44445e+20
2.4216e+20
2.41175e+20
2.35297e+20
2.36185e+20
2.49962e+20
2.3779e+20
2.35117e+20
2.48133e+20
2.46295e+20
2.43955e+20
2.49355e+20
2.4912e+20
2.49878e+20
2.547e+20
2.47753e+20
2.54847e+20
2.38498e+20
2.4036e+20
2.36645e+20
2.4616e+20
2.3147e+20
2.28947e+20
2.42383e+20
2.28625e+20
2.3666e+20
2.38292e+20
2.34335e+20
2.4094e+20
2.4178e+20
2.44577e+20
2.49083e+20
2.46882e+20
2.38008e+20
2.36105e+20
2.53125e+20
2.49533e+20
2.43658e+20
2.3126e+20
2.52525e+20
2.50088e+20
2.5039e+20
2.5613e+20
2.46353e+20
2.41953e+20
2.40678e+20
2.50485e+20
2.4762e+20
2.51415e+20
2.60073e+20
2.40667e+20
2.39675e+20
2.36163e+20
2.40088e+20
2.39997e+20
2.36852e+20
2.33728e+20
2.38312e+20
2.39302e+20
2.4411e+20
2.40208e+20
2.37805e+20
2.3222e+20
2.34062e+20
2.376e+20
2.40913e+20
2.33542e+20
2.24855e+20
2.32215e+20
2.25013e+20
2.39575e+20
2.37815e+20
2.32305e+20
2.39632e+20
2.38148e+20
2.48717e+20
2.41433e+20
2.3925e+20
2.5107e+20
2.45227e+20
2.41055e+20
2.46608e+20
2.4927e+20
2.47867e+20
2.53458e+20
2.5464e+20
2.49068e+20
2.45855e+20
2.5416e+20
2.50667e+20
2.46838e+20
2.5435e+20
2.56647e+20
2.54798e+20
2.59195e+20
2.6158e+20
2.50245e+20
2.45773e+20
2.3902e+20
2.53263e+20
2.52872e+20
2.50025e+20
2.53253e+20
2.53143e+20
2.4561e+20
2.48515e+20
2.52845e+20
2.50877e+20
2.41362e+20
2.4284e+20
2.45413e+20
2.39293e+20
2.39803e+20
2.36667e+20
2.52715e+20
2.50023e+20
2.51435e+20
2.45127e+20
2.43135e+20
2.47695e+20
2.50843e+20
2.5076e+20
2.47775e+20
2.5494e+20
2.5137e+20
2.42605e+20
2.44085e+20
2.38245e+20
2.37008e+20
2.37947e+20
2.33567e+20
2.36253e+20
2.414e+20
2.48672e+20
2.46918e+20
2.4828e+20
)
;

boundaryField
{
    sides
    {
        type            symmetry;
    }
    empty
    {
        type            empty;
    }
}


// ************************************************************************* //
