/*--------------------------------*- C++ -*----------------------------------*\
  =========                 |
  \\      /  F ield         | OpenFOAM: The Open Source CFD Toolbox
   \\    /   O peration     | Website:  https://openfoam.org
    \\  /    A nd           | Version:  7
     \\/     M anipulation  |
\*---------------------------------------------------------------------------*/
FoamFile
{
    version     2.0;
    format      ascii;
    class       volScalarField;
    location    "0.001";
    object      internalT;
}
// * * * * * * * * * * * * * * * * * * * * * * * * * * * * * * * * * * * * * //

dimensions      [1 2 -2 0 0 0 0];

internalField   nonuniform List<scalar> 
1000
(
319.541
306.243
338.244
312.164
334.449
280.298
232.081
209.356
218.147
207.771
273.846
331.112
279.244
299.945
333.779
254.64
291.706
242.709
233.546
282.41
305.522
271.298
320.757
282.469
233.549
225.085
223.465
273.682
266.407
314.355
269.471
265.78
310.516
268.169
268.029
252.354
247.506
246.548
250.094
292.577
307.143
330.345
300.705
260.679
221.969
328.935
293.876
313.67
245.54
238.85
219.02
263.93
358.967
294.826
305.162
315.625
312.833
306.712
331.689
287.325
333.206
265.328
213.573
207.384
267.183
279.346
288.555
341.34
342.625
297.314
292.122
299.202
348.973
252.627
300.707
371.813
384.561
349.797
350.476
384.848
412.487
369.911
392.724
291.008
303.435
309.831
408.675
307.339
326.288
330.516
302.667
291.998
272.821
273.238
221.404
232.458
243.216
266.953
292.95
280.149
274.827
309.555
216.452
282.59
317.931
363.362
393.854
449.79
412.102
336.882
390.863
398.163
351.478
294.462
374.409
364.576
386.87
447.814
369.033
297.1
355.155
304.733
377.322
326.924
339.452
317.267
333.344
341.42
342.512
331.355
382.703
339.422
304.334
434.699
395.401
316.454
370.742
372
342.552
236.776
341.852
377.367
454.822
422.538
331.31
304.135
363.016
350.409
318.814
239.871
241.302
378.968
325.085
317.648
285.198
279.258
227.847
228.591
271.239
254.469
309.578
337.108
274.551
316.05
281.317
212.106
266.313
296.332
275.4
228.103
218.175
191.636
171.205
157.409
212.146
284.976
281.003
322.387
270.591
226.129
223.45
155.083
215.913
237.256
183.72
177.387
172.526
189.666
240.072
223.435
228.642
229.726
277.861
268.688
296.082
306.29
274.545
292
222.774
208.883
288.688
287.869
276.475
275.647
267.583
302.711
302.535
366.871
320.201
295.775
367.278
327.656
321.19
296.258
325.047
306.885
261.457
259.373
259.113
291.25
351.69
328.556
298.456
297.588
281.354
253.297
278.606
352.596
374.911
301.573
353.6
364.447
341.17
451.106
348.55
320.646
314.469
318.416
347.361
341.811
324.766
341.983
359.18
353.094
307.748
225.264
226.322
344.349
441.209
299.655
321.162
274.062
199.537
185.831
219.262
244.877
305.899
289.192
287.458
310.962
352.8
316.714
311.805
342.682
361.355
395.203
381.383
327.196
297.388
313.402
286.896
330.872
321.601
279.035
251.754
246.836
240.159
258.888
242.249
246.469
275.862
242.34
283.722
305.312
315.167
301.55
264.755
364.989
300.63
262.682
287.186
361.098
388.126
298.551
297.532
304.489
304.414
232.204
225.954
287.67
288.807
311.967
278.377
293.397
254.949
330.31
291.224
295.915
342.54
285.914
274.703
373.408
302.153
234.524
252.362
359.62
334.761
356.31
375.646
316.847
340.35
309.742
346.468
286.282
310.972
334.39
286.051
275.106
251.756
188.576
175.697
235.727
288.806
201.854
220.624
229.677
262.186
274.354
260.009
264.277
292.103
348.211
294.265
263.077
199.092
252.64
268.144
267.341
298.714
298.955
381.762
372.252
380.343
395.885
351.917
351.756
358.686
401.561
449.604
332.434
314.103
247.637
292.192
290.765
291.27
282.98
416.475
302.609
244.028
270.544
351.321
319.456
330.224
256.376
233.661
233.68
229.511
273.227
282.08
337.759
318.895
272.013
325.791
370.592
290.174
286.919
289.998
263.234
308.492
406.867
369.184
321.208
292.588
267.522
279.044
257.887
268.796
262.834
332.826
278.37
348.042
253.913
249.441
210.819
208.062
188.29
245.703
271.945
327.959
334.906
244.509
352.449
393.182
271.413
244.404
274.597
292.399
266.867
256.531
282.261
314.278
317.38
322.908
401.102
278.554
269.935
322.918
298.252
278.727
359.735
397.7
321.085
327.551
235.403
280.42
272.421
343.61
307.474
286.82
277.857
277.443
246.241
274.827
271.148
248.766
307.779
330.927
360.135
294.613
315.866
318.849
356.533
452.924
388.713
381.246
335.578
282.842
268.492
308.944
358.522
291.343
322.01
315.363
336.025
381.882
366.9
352.713
345.862
277.045
387.24
297.43
226.392
321.806
337.881
280.237
293.985
249.978
219.397
261.208
217.729
258.981
209.231
289.017
339.498
308.233
308.682
336.01
296.578
234.435
339.464
376.97
358.687
333.858
316.254
361.44
277.065
301.137
349.235
333.175
225.089
289.015
324.388
310.279
369.765
334.759
349.032
334.359
289.22
334.315
383.654
342.922
379.117
339.373
332.26
300.807
312.212
245.242
253.757
250.913
314.128
292.586
265.926
247.083
287.134
249.111
337.032
296.591
266.445
279.252
241.155
198.095
248.729
256.516
281.78
334.472
317.394
280.696
255.892
405.532
386.371
336.622
311.23
325.365
347.585
403.593
347.929
339.327
346.155
276.935
227.866
244.335
217.843
269.832
252.136
270.571
251.503
239.804
267.791
276.398
292.797
255.345
238.607
226.103
191.325
231.355
252.986
258.574
302.844
236.613
229.832
229.06
259.71
303.566
291.926
307.197
309.406
331.844
281.337
318.829
364.764
231.982
253.082
266.351
231.184
250.261
241.178
243.273
220.224
238.263
265.428
185.153
202.057
257.418
263.564
341.68
328.021
253.04
354.562
333.656
356.104
420.855
363.71
386.971
289.721
264.907
314.68
311.754
327.574
342.062
321.915
293.889
308.214
277.886
330.569
264.904
338.042
324.478
269.938
255.912
284.836
356.43
339.8
361.606
423.317
359.248
344.593
372.958
332.158
433.21
297.938
250.616
258.806
320.857
279.149
344.397
344.919
382.505
357.677
453.948
331.402
244.054
259.999
276.037
313.748
345.545
318.274
319.533
282.005
253.392
240.806
262.108
233.002
260.081
283.463
263.566
261.236
263.168
255.589
319.38
325.301
325.894
268.414
284.648
312.528
291.229
353.81
351.28
303.953
368.406
339.927
437.044
420.003
452.824
377.559
340.721
341.325
357.644
309.909
302.075
239.663
291.007
223.736
198.772
206.565
217.915
208.694
319.27
290.809
308.611
310.531
326.577
299.503
230.121
232.231
210.22
262.144
272.246
290.469
292.543
266.938
307.542
329.312
341.241
397.067
284.741
296.694
347.617
428.422
460.024
446.626
425.719
324.088
346.733
210.197
215.055
266.088
236.872
230.477
269.498
255.531
268.923
267.75
285.556
262.981
281.205
266.32
299.237
404.521
269.595
280.379
259.004
280.292
235.082
255.012
237.629
252.043
327.476
267.742
302.442
278.272
271.039
294.479
303.663
260.743
281.039
305.987
288.576
327.1
272.492
273.371
376.769
339.632
325.59
332.485
293.622
331.825
319.53
249.65
209.806
198.656
183.948
278.747
260.275
308.462
299.125
356.3
346.244
398.579
296.984
289.477
260.454
320.592
353.835
464.1
502.514
435.648
358.38
394.946
354.571
332.047
303.9
352.225
318.701
285.682
304.084
255.835
278.834
284.985
294.553
270.977
233.94
225.716
170.09
244.56
254.455
301.147
214.251
197.834
239.191
340.243
280.391
329.933
321.39
249.75
317.705
306.717
301.104
311.11
395.628
377.532
459.223
415.384
339.765
255.225
301.413
242.343
254.386
268.557
349.216
314.001
364.562
334.999
312.946
329.529
277.082
362.628
354.674
326.464
393.818
397.438
380.209
417.992
441.853
454.627
335.658
319.424
303.353
329.128
323.255
420.92
377.24
358.51
317.745
321.105
309.327
285.28
336.689
322.983
356.348
339.419
321.331
260.058
348.328
336.57
257.172
282.634
332.562
322.266
292.513
386.887
321.2
286.084
297.554
327.383
376.608
299.577
296.554
233.813
278.36
320.572
277.262
257.037
236.667
289.061
233.86
210.74
288.389
387.704
370.351
297.93
315.542
293.979
248.414
240.338
225.433
235.062
331.161
276.152
277.211
240.221
264.884
307.502
375.826
287.211
320.522
356.336
396.021
379.003
373.77
401.317
368.639
262.642
300.521
398.999
349.977
396.417
348.047
351.093
312.89
303.684
222.514
270.777
298.711
269.02
294.453
356.024
352.123
339.453
373.969
309.721
327.846
305.113
294.411
322.979
221.773
258.803
287.791
276.95
220.209
211.657
226.268
181.767
153.056
193.818
245.52
266.873
257.255
234.087
193.258
185.363
226.424
244.957
248.24
226.379
238.487
236.014
299.165
305.295
280.85
300.404
308.196
295.362
251.797
258.572
252.88
208.638
242.169
258.932
236.803
172.696
171.984
204.438
269.853
252.261
254.448
229.681
257.812
232.029
238.321
238.106
197.042
205.791
204.129
180.512
214.282
284.024
353.597
439.328
295.773
286.035
491.685
329.519
300.711
304.543
374.302
343.575
424.612
392.36
342.983
305.047
299.972
310.739
262.527
319.197
201.895
280.542
255.161
276.686
356.219
413.064
)
;

boundaryField
{
    sides
    {
        type            calculated;
        value           nonuniform List<scalar> 2(413.064 319.541);
    }
    empty
    {
        type            empty;
    }
}


// ************************************************************************* //
