/*--------------------------------*- C++ -*----------------------------------*\
  =========                 |
  \\      /  F ield         | OpenFOAM: The Open Source CFD Toolbox
   \\    /   O peration     | Website:  https://openfoam.org
    \\  /    A nd           | Version:  7
     \\/     M anipulation  |
\*---------------------------------------------------------------------------*/
FoamFile
{
    version     2.0;
    format      ascii;
    class       volScalarField;
    location    "0.001";
    object      internalEMean;
}
// * * * * * * * * * * * * * * * * * * * * * * * * * * * * * * * * * * * * * //

dimensions      [1 -1 -2 0 0 0 0];

internalField   nonuniform List<scalar> 
1000
(
5.21282
5.26209
5.20155
5.24865
5.16112
5.1819
5.19623
5.16427
5.24157
5.26751
5.33631
5.2992
5.15372
5.19468
5.20143
5.21685
5.34134
5.27727
5.35142
5.28563
5.3501
5.29813
5.31627
5.25652
5.22008
5.21452
5.31892
5.11873
5.23519
5.33006
5.25741
5.29314
5.27622
5.37315
5.3437
5.25728
5.27785
5.16951
5.25726
5.2591
5.24926
5.32743
5.23931
5.29582
5.21097
5.15741
5.16815
5.18748
5.34586
5.18475
5.23039
5.23843
5.24348
5.24418
5.15104
5.23666
5.14648
5.21952
5.34723
5.2958
5.2731
5.21292
5.21589
5.22109
5.14872
5.22282
5.08399
5.17773
5.06654
5.24807
5.22212
5.18823
5.12687
5.11573
5.22001
5.23089
5.26137
5.27266
5.20152
5.26489
5.22275
5.21989
5.29375
5.13678
5.26939
5.25308
5.20692
5.18378
5.22024
5.24411
5.29278
5.26895
5.15101
5.16834
5.28552
5.25314
5.16131
5.23499
5.1994
5.13464
5.12775
5.28273
5.17496
5.23934
5.24319
5.21917
5.02503
5.0872
5.17422
5.20465
5.18862
5.22376
5.21525
5.19982
5.32172
5.21418
5.25192
5.24326
5.2584
5.25389
5.18931
5.05709
5.20295
5.19167
5.23068
5.20149
5.20436
5.14767
5.20649
5.18599
5.19021
5.14212
5.18234
5.1917
5.13361
5.15109
5.15249
5.17564
5.20563
5.22699
5.2005
5.32436
5.24347
5.08861
5.21199
5.11992
5.2503
5.26872
5.23289
5.16399
5.18004
5.04109
5.11884
5.23333
5.34393
5.28621
5.28495
5.2949
5.22768
5.18614
5.13695
5.14963
5.20615
5.22586
5.29642
5.24646
5.23929
5.21726
5.32974
5.34514
5.24748
5.2994
5.33063
5.2068
5.32117
5.3186
5.22436
5.29894
5.32961
5.30645
5.27641
5.2533
5.16226
5.23604
5.32086
5.32577
5.21409
5.20866
5.29981
5.30459
5.29538
5.34302
5.36412
5.30322
5.1952
5.33219
5.19368
5.22774
5.48009
5.38099
5.24689
5.30357
5.35262
5.25493
5.28022
5.33567
5.20208
5.21465
5.16071
5.26081
5.23662
5.18065
5.27977
5.32067
5.20377
5.28205
5.29117
5.21904
5.32018
5.34208
5.32381
5.31768
5.19261
5.21692
5.23537
5.25328
5.2668
5.26654
5.20576
5.27051
5.34739
5.28877
5.25082
5.14514
5.33947
5.26858
5.19871
5.38396
5.27228
5.32499
5.37232
5.28825
5.26485
5.14723
5.21437
5.39811
5.304
5.31519
5.25914
5.27059
5.22594
5.2861
5.26912
5.25948
5.34074
5.32518
5.26399
5.28329
5.22588
5.32657
5.37745
5.38423
5.37436
5.26821
5.41019
5.31776
5.27258
5.36047
5.34919
5.37898
5.3011
5.38992
5.37893
5.36481
5.38715
5.29132
5.40797
5.36034
5.45816
5.33886
5.37863
5.32541
5.13708
5.26789
5.2911
5.21615
5.30034
5.19443
5.2622
5.20074
5.20537
5.16937
5.275
5.29893
5.27993
5.32482
5.22248
5.16816
5.19572
5.33055
5.31398
5.28368
5.19271
5.24719
5.28802
5.211
5.17405
5.05466
5.04127
5.11541
5.14274
5.19082
5.18372
5.04869
5.11112
5.07303
5.11625
5.22542
5.22429
5.29715
5.20056
5.21895
5.1758
5.19787
5.24465
5.26159
5.29448
5.2946
5.21243
5.13499
5.3436
5.25078
5.13592
5.17993
5.02963
5.30197
5.16334
5.28241
5.2833
5.29357
5.19359
5.19408
5.24193
5.28828
5.27924
5.36761
5.2493
5.23622
5.27887
5.20071
5.35056
5.31265
5.34489
5.20016
5.29333
5.19942
5.27364
5.28156
5.12206
5.16206
5.09731
5.10429
5.16979
5.19062
5.2399
5.20522
5.27097
5.35783
5.20318
5.216
5.23022
5.20241
5.29312
5.33302
5.32759
5.29943
5.17572
5.30352
5.22492
5.2264
5.27619
5.26417
5.29275
5.23317
5.29398
5.30585
5.26355
5.2321
5.34903
5.34105
5.22965
5.10522
5.23079
5.21525
5.29581
5.37741
5.35675
5.35365
5.31129
5.38619
5.3233
5.24544
5.29064
5.25096
5.31177
5.32242
5.20426
5.34987
5.36365
5.15847
5.16395
5.19263
5.2144
5.3424
5.20948
5.24828
5.35786
5.35969
5.30051
5.26623
5.26256
5.24846
5.26243
5.28883
5.21408
5.32778
5.37303
5.35452
5.36238
5.37227
5.43581
5.25816
5.32396
5.13022
5.33477
5.26316
5.29581
5.27084
5.21815
5.28325
5.20193
5.20752
5.19082
5.20053
5.26546
5.18237
5.16921
5.14975
5.10347
5.14221
5.09828
5.07572
5.02249
5.03264
5.03227
5.01247
5.00209
5.06726
4.9544
4.93036
4.85015
4.78923
4.68979
4.59572
4.68568
4.81539
4.73558
4.56949
4.48343
4.32808
4.30683
4.3362
4.24297
4.11271
4.06333
4.02323
4.02441
4.02017
3.8573
3.76523
3.76704
3.7523
3.7276
3.60765
3.59581
3.49731
3.41426
3.44388
3.41145
3.27227
3.07992
3.00399
2.88271
2.7403
2.66537
2.65438
2.59803
2.5172
2.41363
2.25255
2.05803
2.01376
1.94097
1.88065
1.89471
1.85237
1.8447
1.84376
1.79402
1.79915
1.69738
1.69115
1.6375
1.63818
1.63563
1.63699
1.58109
1.59181
1.53753
1.5407
1.51412
1.47868
1.45591
1.45131
1.44003
1.46116
1.40611
1.38401
1.35887
1.36957
1.32683
1.27983
1.32897
1.26469
1.21518
1.15143
1.15524
1.18114
1.11994
1.09131
1.09719
1.06706
1.01271
0.98425
0.988066
0.979795
0.925781
0.91541
0.884215
0.87847
0.856503
0.819796
0.794938
0.839788
0.809642
0.737556
0.731986
0.697349
0.7176
0.669015
0.640374
0.629146
0.62807
0.627626
0.569618
0.554228
0.553069
0.511721
0.510934
0.528029
0.53177
0.509785
0.507155
0.50936
0.524921
0.528573
0.527973
0.504579
0.475005
0.491356
0.52841
0.546702
0.490126
0.510124
0.493857
0.501683
0.524515
0.535335
0.512365
0.508336
0.498568
0.509814
0.501112
0.523057
0.507657
0.506734
0.497329
0.482537
0.493816
0.516892
0.496288
0.466251
0.515288
0.519496
0.549898
0.579798
0.548104
0.521884
0.505927
0.540692
0.537086
0.528487
0.507396
0.511982
0.536985
0.536416
0.530544
0.506295
0.492937
0.506327
0.519731
0.511438
0.480443
0.495848
0.497208
0.490824
0.499712
0.475285
0.477574
0.509717
0.504216
0.512606
0.516508
0.516042
0.517746
0.51047
0.481442
0.490041
0.482467
0.505734
0.524043
0.512001
0.536591
0.510208
0.496508
0.497166
0.497916
0.487866
0.479166
0.509362
0.496909
0.504964
0.456943
0.471894
0.47091
0.506136
0.507488
0.503308
0.514784
0.498387
0.515782
0.522415
0.495162
0.501943
0.526692
0.506675
0.530909
0.510928
0.528853
0.522038
0.502065
0.488073
0.505524
0.53216
0.515337
0.520931
0.521146
0.528891
0.497865
0.504831
0.513581
0.515361
0.507516
0.52261
0.491573
0.483633
0.500342
0.512271
0.515548
0.506279
0.481289
0.520224
0.527667
0.492688
0.502171
0.497698
0.49206
0.520516
0.514243
0.543047
0.533402
0.509825
0.503052
0.47129
0.464676
0.462942
0.487634
0.507969
0.490773
0.471144
0.485403
0.50225
0.491485
0.510256
0.509204
0.509951
0.50862
0.520552
0.501979
0.483961
0.514361
0.50145
0.520835
0.530613
0.51498
0.542741
0.494534
0.514238
0.545899
0.512723
0.535733
0.508084
0.519959
0.540247
0.517902
0.501284
0.510964
0.526314
0.504331
0.478208
0.474504
0.491904
0.498137
0.489262
0.50647
0.518303
0.528199
0.519141
0.508437
0.499229
0.492347
0.460999
0.480681
0.499936
0.51328
0.503864
0.49804
0.510644
0.514019
0.53032
0.5061
0.472098
0.5056
0.545732
0.535768
0.530769
0.528827
0.481521
0.491435
0.488999
0.473791
0.488744
0.498881
0.476433
0.511039
0.548164
0.50504
0.525367
0.496928
0.503108
0.516946
0.530779
0.4989
0.475506
0.498152
0.50755
0.537146
0.528651
0.52591
0.52054
0.51015
0.525561
0.51608
0.536761
0.527085
0.54753
0.511037
0.525531
0.518355
0.513102
0.511183
0.500821
0.492294
0.512544
0.545721
0.53835
0.504016
0.490204
0.50324
0.498338
0.501124
0.534252
0.526123
0.493128
0.486438
0.477378
0.510883
0.489855
0.490599
0.503024
0.522045
0.526519
0.482155
0.490626
0.504477
0.496692
0.487314
0.521923
0.508807
0.467342
0.475943
0.504149
0.517555
0.505175
0.4995
0.496256
0.479892
0.490365
0.512028
0.499016
0.48749
0.520477
0.521943
0.505789
0.541486
0.54941
0.526674
0.523976
0.522992
0.514305
0.524322
0.494505
0.508295
0.518689
0.55026
0.541697
0.572357
0.560807
0.538314
0.512805
0.522136
0.514458
0.51479
0.513553
0.506363
0.513157
0.486259
0.487013
0.470654
0.505291
0.477808
0.477287
0.516756
0.516215
0.516921
0.504222
0.501504
0.485289
0.492782
0.484252
0.487574
0.482714
0.512429
0.487478
0.517182
0.490282
0.489181
0.520763
0.46639
0.483552
0.497005
0.470506
0.489831
0.472262
0.499637
0.514183
0.503658
0.488859
0.490138
0.528293
0.516108
0.483433
0.441851
0.512839
0.513737
0.529575
0.541086
0.50738
0.500548
0.512485
0.530211
0.539998
0.517248
0.549604
0.501444
0.494974
0.512842
0.513618
0.493497
0.491489
0.486621
0.475704
0.472712
0.484202
0.497847
0.501252
0.466325
0.47426
0.471319
0.472518
0.468018
0.429799
0.458894
0.439167
0.474051
0.482848
0.470023
0.509659
0.504537
0.537942
0.506651
0.51526
0.532562
0.527419
0.506466
0.514983
0.499608
0.495522
0.502417
0.504882
0.496068
0.499945
0.515871
0.50469
0.476641
0.507874
0.524977
0.512735
0.523092
0.542391
0.519757
0.504454
0.507879
0.524132
0.50926
0.498602
0.528858
0.521153
0.514821
0.521279
0.526188
0.521567
0.50752
0.501007
0.509125
0.504627
0.49214
0.492932
0.512866
0.511308
0.524393
0.52838
0.513147
0.491954
0.524636
0.501777
0.504215
0.509275
0.512556
0.509925
0.52314
0.485454
0.497156
0.515702
0.493353
0.496202
0.496238
0.483425
0.499188
0.495615
)
;

boundaryField
{
    sides
    {
        type            symmetry;
    }
    empty
    {
        type            empty;
    }
}


// ************************************************************************* //
