/*--------------------------------*- C++ -*----------------------------------*\
  =========                 |
  \\      /  F ield         | OpenFOAM: The Open Source CFD Toolbox
   \\    /   O peration     | Website:  https://openfoam.org
    \\  /    A nd           | Version:  7
     \\/     M anipulation  |
\*---------------------------------------------------------------------------*/
FoamFile
{
    version     2.0;
    format      ascii;
    class       volScalarField;
    location    "0.001";
    object      internalT;
}
// * * * * * * * * * * * * * * * * * * * * * * * * * * * * * * * * * * * * * //

dimensions      [1 2 -2 0 0 0 0];

internalField   nonuniform List<scalar> 
500
(
273.894
287.904
295.653
308.139
312.632
319.945
328.714
329.705
334.975
332.049
329.029
345.955
355.822
349.198
345.355
346.652
352.339
345.548
345.924
347.428
346.487
345.838
347.843
344.163
348.909
352.989
355.66
351.682
347.915
353.93
357.437
352.423
349.612
353.139
354.54
349.454
346.169
343.893
346.432
348.937
345.369
344.589
344.719
342.448
344.057
354.115
346.281
348.481
351.25
352.338
354.851
353.284
337.807
346.713
342.567
351.401
346.788
340.119
342.201
341.28
344.214
343.295
345.042
352.947
342.318
351.524
346.584
340.623
348.853
349.535
350.388
355.568
350.018
357.051
359.653
352.942
341.578
341.614
350.558
343.009
350.043
351.4
352.555
352.541
344.415
340.309
345.639
341.664
343.492
353.759
346.491
343.947
332.534
337.255
345.26
346.271
352.808
342.076
345.414
349.189
345.442
345.179
337.754
340.174
341.988
347.085
341.075
345.35
348.038
344.255
342.827
344.731
358.804
349.866
343.576
346.951
338.314
340.55
348.346
345.877
345.6
352.145
353.177
344.943
345.752
351.325
342.33
338.349
347.551
345.472
352.028
351.651
358.043
351.835
343.749
343.729
343.429
344.588
347.044
350.212
350.562
352.638
352.934
355.448
350.112
355.516
345.489
347.42
352.46
345.25
348.876
351.387
349.977
358.005
351.928
346.879
347.682
352.776
349.095
348.208
353.7
357.717
346.215
344.252
352.765
346.58
358.414
348.415
349.819
353.63
342.394
349.004
361.355
350.672
350.416
347.406
348.454
350.841
351.002
345.158
349.02
344.914
345.473
345.383
348.428
349.404
344.802
336.998
340.015
347.043
343.796
344.982
342.288
345.597
361.316
357.328
354.887
356.615
347.189
350.742
354.335
353.51
359.794
356.124
348.197
345.437
341.972
344.496
348.373
346.493
352.111
344.975
346.692
351.364
349.522
350.401
352.903
346.642
347.767
354.945
350.545
359.578
348.212
342.987
344.895
341.291
342.012
348.582
351.424
352.865
351.276
349.172
347.794
348.425
346.616
352.431
348.454
339.813
343.082
349.686
350.653
345.108
343.315
346.455
350.025
346.866
346.797
340.97
342.181
352.449
358.412
354.899
350.185
346.913
336.654
338.715
340.436
342.795
342.386
342.952
345.799
338.542
345.437
342.908
336.85
346.493
345.857
344.288
345.946
351.313
352.557
341.61
337.02
348.35
350.95
351.325
351.74
351.674
356.307
353.007
347.899
347.139
349.122
339.325
343.42
345.909
349.418
344.768
352.69
346.078
344.763
349.306
348.471
348.94
349.169
343.89
341.02
343.427
348.165
342.5
350.286
358.475
356.837
347.134
347.983
345.409
338.126
343.9
345.492
356.438
352.398
351.179
347.683
352.433
360.064
343.517
342.29
343.507
336.494
352.026
349.245
343.562
348.754
344.591
348.556
349.732
344.873
347.515
350.645
341.777
339.845
350.019
345.109
349.592
346.902
347.978
351.29
354.309
350.394
353.369
351.036
343.314
343.084
349.614
346.905
347.659
336.936
338.989
346.275
340.33
339.671
346.618
349.21
344.463
348.594
350.34
350.848
350.231
348.918
357.844
353.556
346.557
342.624
343.621
344.103
348.632
347.966
348.208
343.195
344.243
347.993
350.348
348.395
346.993
349.255
346.779
344.593
346.459
347.878
346.595
346.02
339.661
344.905
339.651
345.013
343.654
347.835
339.975
347.967
348.727
346.108
349.921
354.456
343.171
340.304
344.805
348.223
348.5
347.758
355.292
352.13
351.497
355.807
352.532
354.643
349.721
344.397
344.996
346.216
351.409
359.34
349.248
346.739
346.72
344.666
348.535
349.386
351.65
353.829
346.898
354.217
357.165
352.563
348.024
348.636
352.326
352.059
348.456
349.672
350.179
348.791
347.759
348.796
353.756
352.412
345.296
346.138
348.626
350.391
354.993
349.303
355.692
354.774
345.587
348.86
354.12
352.182
352.649
355.29
351.531
342.11
345.083
343.958
346.294
352.072
347.116
339.176
345.663
345.379
344.682
340.67
342.765
355.644
348.073
338.092
337.615
345.421
349.841
352.281
350.932
351.371
343.392
344.176
340.416
357.344
356.386
353.488
354.441
350.961
355.589
352.04
348.635
348.589
348.296
346.073
348.837
348.506
343.135
339.805
340.901
339.405
332.194
325.495
323.407
321.118
315.764
310.997
301.711
291.773
279.651
)
;

boundaryField
{
    sides
    {
        type            calculated;
        value           nonuniform List<scalar> 2(279.651 273.894);
    }
    empty
    {
        type            empty;
    }
}


// ************************************************************************* //
