/*--------------------------------*- C++ -*----------------------------------*\
  =========                 |
  \\      /  F ield         | OpenFOAM: The Open Source CFD Toolbox
   \\    /   O peration     | Website:  https://openfoam.org
    \\  /    A nd           | Version:  7
     \\/     M anipulation  |
\*---------------------------------------------------------------------------*/
FoamFile
{
    version     2.0;
    format      ascii;
    class       volScalarField;
    location    "0.001";
    object      internalEMean;
}
// * * * * * * * * * * * * * * * * * * * * * * * * * * * * * * * * * * * * * //

dimensions      [1 -1 -2 0 0 0 0];

internalField   nonuniform List<scalar> 
1000
(
0.173814
0.159707
0.165475
0.191783
0.254195
0.264153
0.267181
0.241343
0.214736
0.218276
0.205732
0.271784
0.432979
0.369562
0.327366
0.287449
0.254638
0.257015
0.230033
0.231929
0.226962
0.315588
0.218865
0.22504
0.238746
0.24381
0.239477
0.225635
0.225638
0.237365
0.212019
0.205106
0.200704
0.198583
0.22103
0.220329
0.226167
0.233061
0.250459
0.249788
0.241773
0.265927
0.273563
0.276197
0.265781
0.267822
0.270535
0.310561
0.331287
0.304925
0.290119
0.266097
0.278535
0.349527
0.248983
0.233316
0.22511
0.254531
0.271885
0.282938
0.32356
0.326433
0.299862
0.26513
0.262676
0.294238
0.40348
0.449947
0.350178
0.357125
0.361341
0.335065
0.290731
0.275001
0.281162
0.302811
0.368241
0.40221
0.353513
0.334038
0.336386
0.40351
0.415296
0.408907
0.423569
0.269831
0.274724
0.25969
0.256385
0.255309
0.271066
0.238856
0.238172
0.20633
0.207649
0.21353
0.238817
0.340463
0.26913
0.217035
0.229783
0.375356
0.310755
0.347555
0.36258
0.390096
0.368337
0.353045
0.374551
0.374608
0.371175
0.405793
0.435162
0.484581
0.596057
0.374792
0.317748
0.379802
0.472409
0.290944
0.299499
0.312332
0.328027
0.390581
0.462613
0.397733
0.357467
0.300508
0.250456
0.254207
0.258659
0.333247
0.481288
0.44333
0.335705
0.335393
0.310931
0.287192
0.290079
0.275458
0.265734
0.266863
0.232492
0.204361
0.369607
0.213666
0.314379
0.285678
0.219307
0.221404
0.218924
0.20484
0.211371
0.203705
0.202949
0.390197
0.263311
0.202901
0.190003
0.233381
0.194342
0.185105
0.194572
0.23793
0.255109
0.249562
0.187733
0.176881
0.189529
0.197184
0.213829
0.236027
0.32712
0.319397
0.246904
0.242672
0.229508
0.200462
0.216572
0.285143
0.180454
0.168608
0.172562
0.177135
0.164345
0.16339
0.167927
0.159438
0.165405
0.171315
0.249334
0.283301
0.284095
0.295422
0.300865
0.299485
0.200766
0.183691
0.223375
0.23946
0.268425
0.256835
0.260469
0.265542
0.426497
0.23164
0.213592
0.230574
0.25114
0.254298
0.206142
0.185072
0.214412
0.225084
0.224772
0.25718
0.283068
0.289049
0.370876
0.354318
0.299317
0.268163
0.338475
0.38098
0.411016
0.33601
0.287636
0.332204
0.390245
0.389378
0.35645
0.349282
0.290685
0.241138
0.24287
0.297603
0.363937
0.222261
0.21535
0.193253
0.364356
0.25183
0.373379
0.257377
0.215321
0.260845
0.278039
0.642552
0.380524
0.595402
0.570918
0.370594
0.32071
0.292118
0.343734
0.332389
0.332572
0.404038
0.369047
0.322238
0.303806
0.314615
0.346709
0.346874
0.348586
0.368548
0.403654
0.346251
0.355458
0.361074
0.360637
0.370919
0.36565
0.333081
0.26512
0.246397
0.222582
0.234182
0.222811
0.2229
0.202063
0.187166
0.172971
0.183468
0.223439
0.230715
0.251429
0.231637
0.196555
0.228357
0.238354
0.230677
0.236309
0.219758
0.22862
0.216678
0.226451
0.294455
0.291648
0.262949
0.239017
0.245407
0.256063
0.253868
0.307006
0.298401
0.294391
0.332834
0.293793
0.313124
0.349287
0.354098
0.419535
0.485272
0.342166
0.26587
0.257218
0.252515
0.264754
0.262427
0.282489
0.256981
0.218416
0.223745
0.36335
0.34098
0.228709
0.244753
0.313507
0.305431
0.322077
0.255163
0.269072
0.287479
0.295989
0.304059
0.287423
0.310535
0.341223
0.325764
0.289736
0.303334
0.329112
0.335231
0.304759
0.319481
0.345661
0.354176
0.358339
0.263872
0.215268
0.215081
0.214741
0.220645
0.226202
0.223075
0.202704
0.201285
0.227842
0.284206
0.28046
0.301243
0.306814
0.329832
0.370858
0.423628
0.392297
0.357892
0.349313
0.345474
0.347304
0.333669
0.320568
0.315035
0.324761
0.301157
0.30611
0.294287
0.254645
0.235399
0.250739
0.264091
0.261794
0.254918
0.269378
0.279914
0.324601
0.309384
0.316391
0.36744
0.405738
0.480476
0.318382
0.304067
0.27933
0.238494
0.219359
0.216333
0.228456
0.229385
0.206764
0.209977
0.23501
0.243971
0.228451
0.259497
0.336563
0.298279
0.283128
0.34949
0.338112
0.38676
0.309468
0.301188
0.291065
0.300313
0.4127
0.278806
0.274012
0.301302
0.285754
0.242714
0.236462
0.23836
0.308553
0.313996
0.319811
0.31335
0.468598
0.386626
0.319962
0.344686
0.358754
0.370026
0.34355
0.512038
0.441612
0.463766
0.387133
0.277386
0.286319
0.393966
0.301224
0.266394
0.25653
0.258165
0.228992
0.201865
0.291098
0.293459
0.302773
0.354584
0.361613
0.321961
0.268177
0.277408
0.26591
0.240898
0.240332
0.244938
0.254019
0.28743
0.355075
0.436049
0.363709
0.33208
0.322529
0.339012
0.310588
0.297459
0.305016
0.301109
0.236814
0.245533
0.238126
0.232704
0.212449
0.318352
0.38997
0.192849
0.211951
0.225837
0.236218
0.232625
0.240332
0.238296
0.287397
0.298934
0.292568
0.277951
0.270712
0.267261
0.503762
0.250199
0.257301
0.263363
0.254478
0.217185
0.215635
0.278133
0.338561
0.325267
0.325381
0.351034
0.358683
0.340722
0.387657
0.326947
0.278448
0.362542
0.389317
0.492453
0.334684
0.201408
0.201996
0.293782
0.216889
0.217267
0.277985
0.285404
0.287224
0.270585
0.256174
0.269148
0.259246
0.286589
0.343005
0.318591
0.320589
0.281428
0.295182
0.288313
0.266204
0.273969
0.27973
0.261912
0.232039
0.22711
0.228299
0.24065
0.235585
0.243179
0.301067
0.303122
0.256959
0.255263
0.324808
0.221645
0.555317
0.253822
0.282857
0.308486
0.288867
0.245605
0.240258
0.245596
0.260253
0.247536
0.224173
0.216991
0.242554
0.267397
0.270714
0.238423
0.209625
0.212118
0.21941
0.231962
0.308979
0.279683
0.243533
0.254874
0.273258
0.293072
0.346202
0.355205
0.354116
0.290051
0.279982
0.294635
0.291703
0.248105
0.280975
0.306428
0.281798
0.280761
0.286808
0.310859
0.253287
0.263447
0.271743
0.348795
0.394677
0.417937
0.306614
0.295746
0.301833
0.309631
0.322311
0.29233
0.299051
0.334818
0.349152
0.377717
0.428086
0.399923
0.332268
0.328152
0.338967
0.30859
0.324597
0.355573
0.335609
0.321296
0.327811
0.325164
0.333836
0.317343
0.293802
0.276587
0.292705
0.290708
0.248984
0.22031
0.254109
0.281438
0.241774
0.373842
0.300241
0.261087
0.255064
0.364971
0.344071
0.335527
0.244153
0.249588
0.238007
0.253053
0.340781
0.395149
0.498464
0.473172
0.547922
0.555087
0.376624
0.505021
0.29604
0.244621
0.215529
0.259056
0.265519
0.262573
0.243995
0.250675
0.246877
0.250766
0.26837
0.341149
0.272405
0.186321
0.18868
0.165051
0.151605
0.156024
0.161024
0.240736
0.231492
0.242164
0.252729
0.273515
0.288804
0.294288
0.311997
0.290065
0.271444
0.293654
0.32845
0.330242
0.343353
0.320506
0.29538
0.304529
0.293937
0.270575
0.310353
0.405396
0.35659
0.296068
0.3052
0.287941
0.300345
0.304517
0.308113
0.31556
0.382289
0.397605
0.365778
0.324997
0.420472
0.281443
0.30504
0.338892
0.379054
0.44101
0.426242
0.439198
0.458778
0.692026
0.439154
0.453927
0.465025
0.472018
0.559394
0.522937
0.426879
0.419231
0.417072
0.452143
0.414582
0.371191
0.349949
0.354797
0.512949
0.411419
0.39202
0.372466
0.3593
0.35258
0.344531
0.393135
0.38034
0.385823
0.3275
0.264145
0.181971
0.189575
0.200272
0.324865
0.273355
0.277748
0.271933
0.266883
0.376166
0.277404
0.270075
0.301802
0.306019
0.307456
0.304472
0.294516
0.364131
0.357402
0.334263
0.299374
0.275731
0.26844
0.349639
0.273325
0.274564
0.302722
0.321069
0.317665
0.350194
0.428902
0.372842
0.352175
0.323623
0.33532
0.362832
0.390484
0.413109
0.493162
0.537527
0.439454
0.377022
0.337201
0.33583
0.329928
0.322473
0.229077
0.252103
0.261347
0.340359
0.316314
0.413627
0.238652
0.315817
0.315227
0.238997
0.255348
0.280486
0.272543
0.267863
0.240306
0.244452
0.263218
0.262071
0.253248
0.267211
0.261019
0.259158
0.281826
0.289768
0.284825
0.319665
0.477345
0.239415
0.240982
0.246185
0.255061
0.183509
0.174463
0.180768
0.166504
0.16207
0.148525
0.150408
0.169358
0.531054
0.215907
0.215637
0.241006
0.233229
0.233511
0.269368
0.248701
0.233597
0.350608
0.275591
0.258134
0.242076
0.272194
0.329532
0.364052
0.423012
0.427573
0.348904
0.3471
0.318545
0.317397
0.313306
0.323836
0.27924
0.256133
0.246734
0.260604
0.30802
0.316953
0.299112
0.280509
0.253001
0.252087
0.264695
0.389343
0.463184
0.49704
0.488045
0.395423
0.245636
0.254248
0.30683
0.403877
0.462461
0.693757
0.539485
0.448643
0.366008
0.377923
0.452696
0.377645
0.363144
0.298311
0.275186
0.282361
0.281836
0.269368
0.321729
0.378709
0.393287
0.344265
0.423971
0.340099
0.358207
0.330969
0.336251
0.336908
0.419475
0.555739
0.41394
0.54413
0.485703
0.502436
0.350362
0.371824
0.280293
0.251181
0.248526
0.333759
0.322143
0.324071
0.342028
0.441374
0.208221
0.205542
0.194427
0.207495
0.223618
0.22885
0.245413
0.291618
0.263329
0.30127
0.249852
0.256495
0.292618
0.344236
0.330097
0.31072
0.311703
0.286772
0.285207
0.224048
0.230095
0.237721
0.236033
0.233742
0.240468
0.236529
0.269882
0.274702
0.282825
0.299936
0.279202
0.283069
0.270345
0.313131
0.26581
0.21883
0.20995
0.212907
0.216769
0.209309
0.181028
0.184559
0.189693
0.200196
0.205706
0.232191
0.238816
0.232491
0.219627
0.208024
0.199692
0.195301
0.18978
0.193819
0.186789
0.219032
0.223701
0.205656
0.201477
0.203975
0.211361
0.193336
0.189714
0.18505
0.21343
0.17895
0.217051
0.248252
0.331991
0.47988
0.318484
0.25268
0.226864
0.339334
0.373293
0.234819
0.253315
0.291216
0.287601
0.286575
0.262886
0.266829
0.27053
0.257978
0.171888
0.155322
0.155042
0.174208
0.185291
0.167684
0.114603
0.0939067
0.0926786
0.419719
0.274531
0.0681637
0.066362
0.0791445
)
;

boundaryField
{
    sides
    {
        type            calculated;
        value           nonuniform List<scalar> 2(0.0791445 0.173814);
    }
    empty
    {
        type            empty;
    }
}


// ************************************************************************* //
