/*--------------------------------*- C++ -*----------------------------------*\
  =========                 |
  \\      /  F ield         | OpenFOAM: The Open Source CFD Toolbox
   \\    /   O peration     | Website:  https://openfoam.org
    \\  /    A nd           | Version:  7
     \\/     M anipulation  |
\*---------------------------------------------------------------------------*/
FoamFile
{
    version     2.0;
    format      ascii;
    class       volScalarField;
    location    "0.001";
    object      internalE;
}
// * * * * * * * * * * * * * * * * * * * * * * * * * * * * * * * * * * * * * //

dimensions      [1 -1 -2 0 0 0 0];

internalField   nonuniform List<scalar> 
1000
(
1.9708
2.46139
2.48723
2.37417
2.90447
2.44056
1.68003
2.87152
1.91862
3.36819
4.45968
2.98656
2.72841
3.08687
2.64923
1.71126
1.98759
1.31879
2.46575
2.05987
2.09888
5.01359
1.45991
1.55361
1.63608
2.19077
2.61359
1.29998
5.75002
3.02239
2.30377
2.0857
2.13135
2.32835
1.94065
3.00105
1.64602
3.76237
2.07914
2.1216
2.11614
1.2091
1.12032
1.93915
2.0081
1.67578
2.3009
3.06708
1.97047
1.88539
0.762855
2.91172
2.25621
2.18868
2.05796
2.28198
3.39835
2.82955
1.05199
1.46168
2.79982
2.50341
2.183
2.75687
2.96811
2.0864
1.84473
2.38998
2.16477
2.20618
1.64385
1.25281
2.81669
1.6993
1.57904
1.59123
4.41533
2.13128
1.08583
2.18664
2.31822
2.29733
1.53627
1.19776
1.70645
2.35519
3.03496
1.89604
3.71081
3.46872
2.66636
2.22991
3.09894
4.16521
1.81828
2.65991
2.87283
3.23208
2.04906
2.40095
0.762778
2.57002
2.28026
3.63842
1.8014
2.73042
1.37706
3.42475
1.66915
2.94301
2.38259
2.09006
4.64636
2.95852
2.02958
1.56587
1.84867
2.2373
2.09782
1.71243
3.34957
2.57585
3.16214
2.26879
1.45105
2.42539
3.28478
2.226
3.08393
1.9078
1.26969
1.45581
2.545
2.58246
2.563
3.52961
3.74894
2.47463
1.63903
1.45707
2.04122
1.82631
3.36761
3.07672
1.76818
3.73724
3.28728
2.98737
0.926644
3.79506
2.17993
1.6754
2.04193
1.61919
2.62836
3.13771
1.15294
1.81008
2.54123
2.09197
2.42679
1.45265
1.69765
2.35273
2.37096
1.75189
1.9185
2.70243
2.54298
1.88062
2.22295
2.57684
1.78256
3.71189
2.04221
2.4077
1.04951
1.90271
1.01697
1.7285
2.42472
2.59172
1.83153
1.22214
2.33267
1.96367
2.20508
1.11122
1.02932
3.17428
1.48936
3.30244
1.19262
3.63986
2.81294
2.09102
1.82891
1.37672
2.65304
2.5305
3.4731
2.25317
1.64165
2.43751
2.76212
2.15053
3.14378
1.80554
1.62226
2.54497
2.12737
2.33722
2.22726
2.92295
2.78821
2.11067
1.81115
1.29861
0.767842
1.97719
1.59422
2.2164
1.72892
2.58107
2.65085
3.6516
2.75611
1.24955
1.16336
2.31925
2.91077
3.53251
2.28059
2.30377
1.78571
2.39479
2.17775
2.21812
2.80754
1.9506
3.13976
1.40562
3.52255
1.71982
3.29144
2.85492
1.25745
3.26483
2.92303
1.78062
1.42896
3.49175
2.30747
2.64176
4.94532
1.15231
2.08296
2.76329
2.18244
2.39768
1.17746
2.38146
2.48509
1.84633
2.41705
1.90661
2.90538
2.07334
2.80104
1.21154
2.54015
2.27062
2.78101
2.98914
1.3113
2.37142
2.27607
0.511201
2.40192
1.82313
2.39344
1.61252
2.70761
1.06538
2.68924
3.48225
1.97914
2.24461
2.30851
2.22069
3.07049
2.81782
2.17658
1.53358
2.45462
1.10574
2.84688
1.69808
2.46226
1.99858
4.24235
2.55067
1.57802
1.08259
2.33221
3.4872
2.39938
1.99094
2.18165
2.32227
1.32989
3.22402
3.69611
1.94956
1.82215
2.71357
2.32292
3.22209
2.6744
2.60582
3.7007
2.12633
2.2085
3.1949
1.76886
2.27187
2.23801
2.53066
1.40507
3.12779
3.39235
2.36413
3.18927
3.17601
1.96032
2.77812
2.41386
3.4677
1.70236
2.02885
3.11683
1.75238
1.27629
2.82831
1.14416
2.41887
2.24353
1.72945
2.22522
1.6168
1.15568
1.81938
1.13473
1.18287
1.10262
1.39905
3.58149
3.14323
2.26743
2.52842
2.36892
1.28331
1.86043
1.65479
2.61481
1.35722
2.71883
3.30764
3.5383
3.42983
1.50112
2.06467
2.69862
1.32248
2.33624
3.22887
2.0761
1.96406
2.80011
2.75106
0.935281
2.60582
1.53027
1.51078
2.55601
1.89664
3.22649
2.4088
4.0343
1.83383
1.35212
2.93991
1.91382
1.64679
2.41177
2.61002
1.89296
3.81489
2.35703
2.52131
3.47724
3.74609
0.881985
2.63809
1.28222
2.14153
2.87652
2.6905
3.32547
3.78157
1.57781
1.14601
1.68506
2.10386
2.06089
1.84907
3.686
3.57496
1.57155
3.16312
2.06819
2.32979
3.41727
2.91963
2.70745
2.27354
1.03665
2.20308
2.94554
1.96987
2.88891
2.07882
1.74471
2.47856
1.91883
1.41572
3.2493
3.06356
0.966882
3.39631
2.18496
1.68564
3.32006
1.88892
1.78012
1.31444
1.3937
2.85347
2.39883
2.07398
1.87052
2.94879
1.14575
1.43659
1.47251
2.20089
2.75393
1.97262
4.2324
1.50024
3.21434
1.85527
3.20724
1.20888
2.22584
1.62943
2.85204
2.41904
1.12896
1.42266
2.10162
1.38729
3.57296
0.830354
1.52909
1.38205
0.86625
0.889634
1.58076
2.29951
1.9377
1.17061
2.08732
1.71609
0.761887
0.980341
1.7693
1.90243
0.358266
1.71837
0.637934
1.95061
1.41258
0.202015
1.85812
0.914295
0.993811
0.813638
0.949616
1.66478
1.5971
1.76767
1.38698
1.08782
1.32852
1.104
0.999333
1.13262
1.88374
2.15577
2.13474
1.23376
0.501815
0.563281
1.8126
1.66288
0.974069
0.862552
1.23763
1.45263
0.220462
0.248141
1.03656
0.828481
1.05565
0.736455
0.530467
0.631771
0.169022
0.780814
0.781262
1.22787
0.110663
1.4831
1.75851
0.774255
1.97955
1.73011
1.25092
1.7656
0.880971
2.04543
0.847293
0.54505
1.75996
2.35257
0.893937
1.48142
0.668904
1.24636
2.19884
1.16234
0.395102
0.673003
0.280489
1.55736
1.18779
0.549293
1.95974
0.268105
0.252834
0.554194
0.184411
0.299953
1.46292
1.33239
0.14782
0.604243
0
1.08545
0.368144
0.788351
0.179612
0.59069
0.766791
1.15027
0.906549
0.962684
0.432955
0.676706
0.83217
0.291759
0.0455949
0.325249
0.607446
0.44742
0.805134
0.81787
0.73486
1.36292
0.184667
1.90082
1.43901
0.69467
0.99764
0
0.383514
1.00299
0.651781
0.918644
0.459419
0.368224
0.992471
0.204518
0.788151
0.961816
1.40598
0.307871
1.31746
1.25356
1.50089
1.6331
1.21656
0.579128
0.751169
1.6395
0.921831
0.113556
0.082055
1.43532
0.335415
0.391749
0.507011
1.28557
0.42375
0.254629
1.3741
0.580128
1.91601
0.196294
1.34033
0.34264
1.31878
0.233233
0.915669
1.05898
0.847189
1.1354
0.816387
0.434701
0.830611
0.311653
1.92351
0.330745
0.767982
0.338473
0.235604
0.00155525
0.730616
0.626707
0.279821
0.759481
0.213896
0.363926
0.817567
1.50229
0.725271
0.490933
0.638002
0.861767
0.428861
0.798991
0.788859
0.996561
1.13376
0.3264
0.812075
0.431541
1.23803
1.19998
1.10205
1.42769
0.075856
0.637411
0.552735
0.470069
0.71603
1.51001
1.46701
0.354795
0.0728533
0.956537
0.68843
0.494774
0.19446
1.35083
0.569908
0.73174
0.0538939
1.59615
1.21894
0.524073
0.124071
0.290934
0.185552
0.563043
0.568541
0.0988816
1.16716
0.309501
0.180324
0.349797
0.808555
0.576125
0.44084
0.16399
0
1.40941
1.10977
0.797041
0.23387
0.571293
0.19155
0.794975
0.282665
1.54909
0.218678
0.867543
0.87666
1.02191
0.827714
0.234171
0.18934
0.737347
1.40511
0.676623
0.849016
0.143527
1.49504
0.42662
0.330587
0.763907
0.0943131
0.557522
0.473166
0.892909
0.60937
0.414135
0.656492
0.674166
0.60839
2.25319
0.69174
0.123297
0.789661
0.566634
0.838291
0.597405
0.168104
0.29586
0.658161
0.27114
0.51058
0.433267
0.383209
0.17663
0.724913
0.5179
0.0486451
0.357228
0.709169
0.522077
1.4607
1.1961
0.159757
0.467406
0.528131
0.205784
0.571043
0.619339
1.18148
0.118919
0.852939
0.623689
0.961747
0.772821
0.36638
1.14717
0.196965
1.40367
0.453126
1.02384
0.584174
1.00412
0.35636
0.75598
0.310964
0.625273
0.463277
0.48941
0.634579
0.907169
0.232975
0.731128
0.150155
0.052152
0.470913
1.0879
0.528692
0.353062
0.90875
2.27828
0.296048
0.87698
0.728153
0.0727268
0.23733
0.599609
0.264569
0.727457
0.0124232
1.89856
1.02067
1.18942
0.556215
0.545136
0.901626
0.384144
1.35803
0.87306
0.547538
0.289775
0.765992
0.87653
1.20151
0.732429
0.67129
0.268432
0.854792
0.288727
0.217252
0.410888
1.10094
1.44848
0.579791
0.207718
1.08556
0.520103
0.901329
0.897633
0.489854
0.564484
0.626835
0.512662
0.404848
1.00174
0.852742
0.507493
0.522659
0.765883
0
0.094055
0.129534
0.240323
1.07598
0.54241
0.305188
0.692604
0.785557
0.753125
1.19841
1.04698
0.579375
0.324905
0.74246
0.247487
0.999061
1.47341
0.569577
0.469141
0.670873
0.833065
1.54694
1.31415
0.716582
1.23868
0.0468939
0.613755
0.899724
1.19802
0.180549
0.559662
0.546771
0.55743
0.259493
0.78654
0.449113
0.108207
1.0667
0.610035
0.578212
1.18871
0.307943
0.783441
1.31558
0.53699
0.568815
0.152901
0.984315
1.15201
0.234928
0.369661
0.363804
0.797073
1.02024
0.521319
0.735615
0.623543
0.744112
0.257629
1.62008
0.41471
0.327222
0.349492
0.472854
0.955981
0.935298
0.530653
1.68661
0.852634
0.671945
0.714232
0.64788
0.119615
0.206347
0.0937912
1.04563
0.404021
0.11615
0.497731
1.13189
0.79837
0.870685
2.24389
1.40275
1.37513
0.434047
0.0990551
0.582327
0.574355
0.1075
1.29701
0.0375036
0.0615101
0.538968
1.00593
0.740471
0.575929
0.379209
0.350212
0.825126
0.992709
0.433927
0.0572798
0.813177
0.495707
0.111145
0.0728613
1.25719
0.582485
0.356804
0.45768
0.961825
0.667468
1.01014
1.98314
0.898038
0.0988497
0.408456
0.491054
0.33049
0.801283
0.137626
0.921446
1.05368
0.00590674
0.598505
1.49234
0.625216
0.34668
0.358664
0.234049
0.815391
0.387107
1.06864
1.15392
1.0017
0.531069
0.907542
0.891382
0.723675
0.0963445
1.08728
0.761835
0.630078
1.03459
0.280708
0.92088
0.366544
0.187142
)
;

boundaryField
{
    sides
    {
        type            symmetry;
    }
    empty
    {
        type            empty;
    }
}


// ************************************************************************* //
