/*--------------------------------*- C++ -*----------------------------------*\
  =========                 |
  \\      /  F ield         | OpenFOAM: The Open Source CFD Toolbox
   \\    /   O peration     | Website:  https://openfoam.org
    \\  /    A nd           | Version:  7
     \\/     M anipulation  |
\*---------------------------------------------------------------------------*/
FoamFile
{
    version     2.0;
    format      ascii;
    class       volScalarField;
    location    "0.001";
    object      internalE;
}
// * * * * * * * * * * * * * * * * * * * * * * * * * * * * * * * * * * * * * //

dimensions      [1 -1 -2 0 0 0 0];

internalField   nonuniform List<scalar> 
1000
(
5.3893
5.4701
4.94649
5.67668
5.21041
5.05444
5.34071
4.9953
4.54703
5.73553
5.23399
5.56022
4.62313
5.45519
5.30772
5.25281
5.04452
5.17375
5.60734
4.59756
5.26132
4.91165
5.00855
5.13706
5.33676
5.19467
5.24461
5.41241
5.61636
5.05904
5.72401
5.3801
5.34841
5.27446
5.80308
5.17819
5.17427
4.34272
5.18422
5.15139
4.86397
5.42499
4.66592
5.40122
5.09505
5.46569
5.08588
5.11024
5.32167
5.23751
5.08176
5.64795
4.98432
5.49238
4.97485
5.36936
5.37379
4.7199
4.9599
5.07165
5.03368
5.09143
4.97658
4.92723
5.71071
4.82252
5.21377
5.12415
5.20466
5.34823
4.9487
6.47279
5.29396
5.3291
4.88927
4.75127
4.80716
5.6578
5.22388
4.51636
5.70689
5.66132
5.18122
4.79609
5.04078
5.39383
5.28392
5.36667
5.33377
5.70095
4.60661
5.31957
5.33538
4.88823
5.15946
5.13547
5.05074
4.38581
4.93422
5.2996
5.00973
5.16375
5.01555
5.07041
5.63313
5.13358
4.85419
4.94631
5.03119
5.16255
4.95923
5.04717
5.5789
4.77784
5.43874
4.96983
4.90599
4.95669
5.09884
4.59979
6.25778
5.07996
5.15698
4.89408
5.3243
4.68632
5.84812
5.26241
5.53703
5.02746
4.88061
4.56754
5.09984
4.73147
5.67817
4.91907
5.27206
5.24456
5.47888
5.52895
5.75374
5.56029
4.84599
5.56009
5.39056
5.69067
4.87302
5.34128
5.69272
5.22258
4.32633
4.79208
5.14137
4.34088
6.05678
4.97737
4.69263
5.25682
5.26524
5.18361
5.49081
5.3589
4.6943
4.89032
6.12355
5.66462
4.8286
5.14286
4.27891
4.81982
4.95775
5.16401
5.55555
5.30463
4.37459
6.1292
5.16124
5.39396
6.15651
5.47251
5.82977
5.23873
5.5846
4.8438
5.63875
5.11609
5.59223
5.24236
4.74107
4.94958
4.68153
5.32286
5.05896
4.93625
5.51979
4.92785
4.78756
5.20551
5.59981
5.43794
4.92563
5.31506
5.6479
5.27826
5.44898
4.99433
4.99245
5.88875
5.64347
4.90201
4.42744
5.27506
5.36869
5.4415
5.80392
5.45721
4.96386
6.05231
5.36918
5.61534
5.73894
5.35193
5.33182
5.68304
5.23514
5.38746
6.05291
5.6826
5.01323
4.79074
5.01019
5.39065
4.93887
4.68006
4.68294
5.89914
5.10057
5.76639
5.38833
4.77543
5.25921
5.14917
5.24113
5.94382
4.92605
5.7757
5.89037
4.84631
5.3687
5.57398
5.12021
5.66598
5.22255
4.96681
5.53507
5.44678
5.76354
5.24709
4.85224
5.45902
5.63539
4.68293
5.17246
5.34314
5.18355
4.31051
5.52845
6.0241
5.08446
5.97128
5.05885
5.06245
5.84045
5.36147
5.60692
6.46593
4.71952
4.82933
4.70756
5.35569
5.70655
5.46486
4.76164
5.23793
5.10485
5.78174
4.87451
5.28007
5.22922
5.04486
5.37147
5.343
5.32631
5.2626
4.87824
5.54272
5.93363
5.05452
5.12712
5.24648
5.68742
5.34237
4.95151
5.52277
5.79829
4.92557
4.72064
5.15484
5.2638
5.03499
5.36882
5.41432
5.40422
5.5472
4.5579
5.12412
5.26563
5.75915
5.39867
5.38927
5.56558
4.78424
5.32757
4.88222
5.3283
4.56058
5.10125
5.36644
4.80889
5.32683
4.81083
5.10345
5.44108
5.15034
5.07356
5.07177
4.8446
5.09817
4.9456
5.45202
5.76413
4.87584
5.90984
5.46532
5.25285
5.24743
5.33971
4.61097
5.09317
5.03027
4.78538
5.83666
4.67836
5.21595
5.24819
5.13402
5.32381
4.53393
5.41323
5.14441
5.72111
5.02256
5.28066
4.57849
4.95211
5.19846
4.79755
5.49336
4.74252
4.69106
5.92324
5.79253
5.1906
5.38011
5.28268
4.68715
5.83974
5.72995
5.70938
5.38124
5.67635
5.63398
5.1419
5.02545
5.69812
5.53432
5.06322
4.94117
5.86442
5.18436
5.21627
5.14904
5.71293
4.49724
4.98371
5.63465
5.18679
5.48557
5.58897
5.57302
6.16949
5.35696
4.89942
5.14179
5.79384
4.98368
5.3182
5.86802
4.71129
5.48982
4.32489
5.74628
4.84294
4.9073
5.27384
4.9891
5.73404
5.66562
4.94824
5.06724
5.55504
5.66449
4.67554
4.85385
4.98145
5.08839
5.12661
5.08647
4.71232
5.30717
4.85061
5.11463
4.71648
5.45155
5.09479
4.50961
5.11076
4.95063
5.09808
4.34979
4.49824
5.11122
4.04554
4.78276
4.45698
4.35258
4.56824
4.047
4.73546
4.21717
4.53716
4.29291
4.02228
4.34597
4.01148
4.07731
3.50855
4.04224
4.02601
4.17624
3.60906
4.39742
3.25958
3.39886
2.64502
3.06645
2.96904
3.24533
2.93176
3.33419
3.21065
2.85611
2.60874
2.80444
2.97546
2.80289
2.7263
2.2927
3.202
2.4059
2.30833
2.26877
2.69525
2.01944
2.19825
2.23887
2.07969
2.65092
2.56313
2.27055
2.22837
2.02548
2.56013
2.24083
2.02549
2.30925
1.93126
2.21475
1.6592
2.16765
2.05638
1.99101
1.99758
2.09414
2.39112
1.90458
2.05804
2.24025
1.71751
1.75917
2.17491
1.94023
1.74326
1.67659
1.9408
2.04453
1.9083
1.72957
2.09972
2.28892
1.84588
1.60727
2.21612
2.1778
1.99383
2.17082
2.11799
1.98167
1.97736
1.81043
2.18363
1.70942
1.79023
2.10372
2.07406
2.01628
2.00684
2.01826
2.13965
1.69116
1.96722
1.75277
2.19079
2.19531
2.00233
2.07579
2.01783
2.24976
1.90025
2.2223
1.86138
2.01215
2.15159
2.16304
2.24842
1.98091
1.84659
2.06964
2.17395
1.91258
1.85385
1.75676
1.84225
1.67737
1.56265
1.83752
1.34154
0.954815
0.977927
0.810153
0.678293
0.455454
0.606115
0.431561
0.354446
0.473723
0.540378
0.613352
0.465552
0.545357
0.564119
0.521543
0.57276
0.610147
0.490048
0.343404
0.538309
0.562828
0.5715
0.53301
0.455842
0.442452
0.461477
0.665624
0.572717
0.575979
0.426041
0.622767
0.52865
0.535685
0.573214
0.461279
0.464351
0.570048
0.529353
0.608481
0.49981
0.37981
0.508579
0.529694
0.626762
0.541998
0.496488
0.508303
0.435424
0.564457
0.476737
0.411572
0.508721
0.566127
0.384683
0.559936
0.447777
0.435484
0.554431
0.525898
0.466927
0.394743
0.711529
0.425616
0.500954
0.582276
0.429056
0.528374
0.561722
0.583883
0.432265
0.601002
0.509384
0.585697
0.41189
0.457956
0.526761
0.479895
0.471576
0.498228
0.520829
0.52163
0.525877
0.547645
0.469599
0.544162
0.507606
0.455155
0.531961
0.467436
0.53155
0.602415
0.542312
0.571389
0.345159
0.317045
0.563495
0.659198
0.522089
0.410391
0.495704
0.485498
0.545515
0.419069
0.705356
0.509771
0.605866
0.60624
0.557198
0.5678
0.422806
0.417419
0.526835
0.527561
0.531106
0.499789
0.504339
0.640251
0.434777
0.644848
0.547023
0.374498
0.437203
0.510884
0.437078
0.397901
0.436461
0.613327
0.459253
0.350969
0.461495
0.45655
0.480524
0.587547
0.472909
0.566864
0.488149
0.433893
0.517478
0.621672
0.608075
0.43621
0.535854
0.465374
0.527897
0.432802
0.55172
0.484978
0.492962
0.539448
0.473842
0.626247
0.556685
0.586297
0.405981
0.449946
0.447077
0.345101
0.524293
0.597093
0.57704
0.385896
0.537908
0.607044
0.519461
0.50947
0.517993
0.463575
0.500905
0.451387
0.534654
0.544633
0.530625
0.630898
0.42269
0.41276
0.510095
0.557205
0.622502
0.555101
0.398005
0.415252
0.406277
0.473185
0.661424
0.695437
0.484896
0.538773
0.581719
0.587527
0.545451
0.460505
0.448344
0.507816
0.460571
0.49811
0.555479
0.602834
0.432383
0.471148
0.462619
0.386412
0.507042
0.447906
0.436037
0.469577
0.496825
0.462681
0.529105
0.551533
0.458071
0.499495
0.519308
0.487536
0.414852
0.542732
0.64742
0.467234
0.469296
0.528354
0.585837
0.568015
0.412579
0.514396
0.38113
0.624466
0.607329
0.49699
0.523321
0.550762
0.4793
0.417304
0.488573
0.523545
0.463662
0.496487
0.591412
0.62172
0.557946
0.42527
0.512179
0.494296
0.425028
0.363403
0.418476
0.510867
0.709174
0.334181
0.512409
0.385084
0.470509
0.463275
0.624151
0.483012
0.384829
0.627013
0.523099
0.605803
0.466415
0.543954
0.551733
0.655132
0.570956
0.53871
0.53157
0.618624
0.473733
0.536684
0.565693
0.509213
0.475264
0.374018
0.489884
0.517861
0.542393
0.50998
0.508381
0.599426
0.411163
0.578593
0.398753
0.562499
0.484247
0.503241
0.41535
0.334057
0.464757
0.431933
0.576562
0.53359
0.546822
0.484794
0.564294
0.502387
0.551101
0.504701
0.594214
0.440662
0.585766
0.517177
0.462352
0.549223
0.515372
0.587299
0.517752
0.534767
0.647732
0.516167
0.618243
0.540911
0.510707
0.47056
0.566805
0.385014
0.642613
0.398928
0.548113
0.437792
0.489128
0.415198
0.539744
0.615305
0.532532
0.47904
0.462717
0.502603
0.567523
0.495592
0.530451
0.59431
0.395353
0.346121
0.404276
0.401539
0.489148
0.51922
0.439746
0.446657
0.498065
0.363646
0.596809
0.557875
0.438487
0.617456
0.4957
0.525875
0.486013
0.54026
0.394277
0.459338
0.413467
0.494048
0.320889
0.50327
0.57531
0.495386
0.453249
0.481925
0.583709
0.401596
0.45359
0.443157
0.53536
0.503739
0.599419
0.454529
0.481337
0.429124
0.489308
0.475296
0.44302
0.465597
0.444934
0.613814
0.55422
0.537581
0.627841
0.484902
0.621449
0.529761
0.569299
0.380789
0.562776
0.511989
0.336146
0.543053
0.499426
0.590172
0.54065
0.486284
0.566397
0.495944
0.458075
0.54169
0.479802
0.564303
0.463544
0.537329
0.44809
0.568804
0.4363
0.492759
0.489964
0.620393
0.523809
0.57464
0.463377
0.578226
0.59193
0.575464
0.423672
0.575075
0.475232
0.490888
0.567564
0.557456
0.610989
0.52499
0.545868
0.574687
0.62928
0.519176
0.438878
0.442846
0.479409
0.678678
0.523
0.542143
0.580824
0.486844
0.434811
0.506846
0.566806
0.612728
)
;

boundaryField
{
    sides
    {
        type            symmetry;
    }
    empty
    {
        type            empty;
    }
}


// ************************************************************************* //
