/*--------------------------------*- C++ -*----------------------------------*\
  =========                 |
  \\      /  F ield         | OpenFOAM: The Open Source CFD Toolbox
   \\    /   O peration     | Website:  https://openfoam.org
    \\  /    A nd           | Version:  7
     \\/     M anipulation  |
\*---------------------------------------------------------------------------*/
FoamFile
{
    version     2.0;
    format      ascii;
    class       volScalarField;
    location    "0.001";
    object      linearKE;
}
// * * * * * * * * * * * * * * * * * * * * * * * * * * * * * * * * * * * * * //

dimensions      [1 -1 -2 0 0 0 0];

internalField   nonuniform List<scalar> 
1000
(
2.84517
2.89545
3.22431
2.88289
4.48665
3.66282
3.16729
3.42492
2.63639
5.19752
4.34809
3.65014
4.43866
2.61795
3.72526
3.66472
2.42198
1.85404
3.54026
2.4526
3.57227
5.57613
2.86322
3.30912
5.27822
3.42979
4.32736
2.88015
2.89918
5.21271
4.52517
4.84294
2.1618
3.52678
2.22704
4.60519
4.08251
4.33974
1.65047
3.81238
3.38362
2.01016
1.6539
3.29965
3.08923
4.9257
4.73229
4.0582
2.69617
2.5268
1.89268
4.17475
3.05209
3.04219
3.19725
2.70578
3.25372
4.35405
1.54646
2.12484
2.45198
4.25445
2.40658
4.20837
4.17269
2.15088
3.15267
1.39191
3.53144
2.71009
3.07552
2.05362
3.0299
2.7285
1.98269
3.32622
4.84886
2.34222
2.61871
2.24668
4.04423
3.41306
1.8911
1.91892
4.65113
2.73222
4.33911
4.39453
4.2083
2.9958
4.82834
2.74766
3.34848
4.43675
5.33407
4.15388
4.64087
2.25642
1.29975
3.1904
2.14764
4.50344
2.74328
4.47763
4.1455
4.29452
2.77298
4.42005
2.16966
3.03675
3.85171
3.4
5.92087
4.08349
4.59962
1.63198
4.29046
3.25852
3.24658
4.1374
3.12032
5.13627
3.53232
2.9493
3.13901
2.75949
3.3976
3.17211
3.76866
3.11477
2.50396
3.10364
2.71711
3.89571
4.77874
4.37103
4.64259
3.3778
2.05215
1.63532
3.09294
2.93139
3.02348
2.87834
4.21635
4.92565
4.43658
2.50587
2.12556
2.98069
5.41971
2.94905
2.2881
2.3428
4.11488
3.62449
2.44979
2.67644
3.2753
3.46189
3.45448
2.78798
4.55375
3.7949
3.55761
4.05485
3.70399
3.9379
2.90744
2.23273
3.16082
3.80475
4.35701
2.89535
3.97678
3.84872
3.17586
3.47351
3.7297
3.32947
2.75651
3.84372
2.23724
2.51624
3.71745
6.17265
5.49157
0.911945
2.92317
4.2734
2.74017
3.38938
2.81082
4.80658
4.11354
5.02049
4.97037
3.36861
5.26114
4.84899
6.59833
3.96488
1.34823
4.47556
3.5684
3.8647
5.39529
2.06793
2.14874
2.98566
3.55347
2.60872
2.92731
4.65181
4.45914
3.79373
2.28146
2.52066
2.76354
2.25443
2.05404
2.60063
4.07462
3.68578
2.37963
6.51505
2.8844
2.22289
2.6642
1.83757
4.26258
5.71957
4.04583
2.9029
2.00151
2.4796
3.70221
2.80597
2.37111
2.39104
2.75857
1.41046
6.63927
1.33131
4.46127
5.72234
3.57834
2.8715
3.67272
3.61009
3.51334
3.99404
2.77029
3.09895
2.83248
2.52816
3.91655
3.73068
3.40663
2.90559
3.64173
1.42363
3.34912
2.77033
3.31264
3.32695
3.20604
2.14758
4.05061
2.06624
3.35385
4.03654
3.41726
3.32247
3.02745
3.36919
2.9327
1.02401
3.0508
0.872117
3.29258
1.89563
4.99739
2.89089
5.15653
5.68039
3.22939
2.49288
3.72059
2.36792
5.09548
4.33803
3.11522
1.57376
3.88138
2.44405
5.63017
3.28697
4.42887
4.03702
4.64347
3.22405
2.23266
2.3314
2.83152
4.44001
2.70569
3.87623
4.62019
4.01937
1.53815
4.39785
3.64493
2.09935
3.31953
3.03294
3.05
3.33565
2.67741
2.29498
5.93867
5.74387
2.76663
3.44996
3.0067
3.92728
4.05789
4.09571
1.5063
5.33089
4.30619
2.46444
5.27385
4.52068
3.91353
3.48419
2.56651
6.08925
4.08128
2.30718
4.36539
3.03037
2.42293
4.54505
3.5783
4.26092
2.07704
3.48557
2.15211
2.84873
1.39025
2.49967
1.36535
1.58474
3.10784
2.81879
4.97934
2.951
2.10649
3.11682
3.86942
3.23877
4.08172
2.77549
5.00432
3.03658
3.71207
4.68039
6.80269
4.56791
2.12994
3.21322
2.98193
2.60246
2.1063
5.40209
3.70138
3.19973
3.86136
3.22449
1.8244
3.56624
4.10685
4.31929
2.13507
3.69246
5.00106
4.17863
4.44237
2.21599
2.66953
3.30755
4.57831
3.28046
3.03172
2.95896
2.09789
4.42213
5.9082
4.4317
2.36763
3.88334
2.68304
2.61437
2.52253
2.56806
3.62275
4.59669
3.37469
4.98636
1.84589
1.97774
3.36763
2.46378
1.60031
2.39307
4.33464
4.04831
3.02459
4.89676
2.8074
3.20068
4.35592
5.517
3.16307
2.29278
1.72947
3.01258
4.69074
2.82092
3.88847
4.10655
4.0514
2.74803
3.06671
3.03884
4.20963
5.8144
0.980628
3.61295
2.46547
2.69354
3.95126
3.50362
4.28252
4.63668
1.05062
3.56435
3.8452
3.2623
1.99261
4.32223
1.4501
2.15941
2.88976
3.34611
4.50703
2.85849
4.26936
2.57545
4.2588
2.95014
3.05725
4.33922
3.06735
1.40626
2.67354
2.61031
2.31169
2.40029
3.40301
2.10787
3.53102
3.52702
1.36174
1.01134
1.12724
0.815814
3.27858
3.15467
2.23986
1.37687
2.47871
2.49966
1.39753
2.87722
2.6973
1.63162
0.777132
2.29272
1.71377
3.72417
2.96767
0.751115
1.8539
1.4968
1.64043
1.50465
1.94533
1.68464
2.74234
1.60557
3.32703
2.14939
3.09247
2.49975
2.54248
1.99836
2.5685
2.55193
2.52631
1.84085
1.59558
2.41373
1.78766
2.72644
2.4943
2.09074
2.81162
1.20845
0.750123
0.765298
2.66704
1.10534
2.04761
1.35241
1.27554
2.98782
1.34622
1.29981
2.43569
1.76842
0.362034
2.47121
2.24732
1.62898
3.02715
3.8729
1.60979
2.22469
1.50962
1.476
0.110864
0.907771
2.4071
3.44293
1.57507
2.01812
1.43333
1.77192
2.47225
2.10226
0.822343
2.38389
1.07343
1.50902
2.03036
0.695046
0.887734
0.138737
0.149793
0.395057
0.30566
0.837478
1.43942
3.14498
0.660574
0.900289
0
1.48021
0.745106
1.03905
0.355863
1.51631
1.21721
1.46823
1.23224
1.16248
0.981817
0.639692
1.22616
0.61758
0.922311
0.588081
1.6775
0.755381
1.66431
1.54065
0.605145
0.684353
0.279785
1.73937
1.01783
0.879872
0.616211
0
0.959834
2.25252
0.831471
1.19734
0.778151
0.542949
2.00792
0.827169
1.31629
0.581617
1.40908
0.436555
2.16198
1.55684
1.93208
3.01698
2.09187
0.938737
1.45852
1.05959
1.29728
0.409437
0.364048
1.74692
0.59701
1.40246
1.09555
0.792015
0.642294
0.616443
1.4177
0.230196
2.69846
0.726328
1.80918
0.49224
0.871861
0.835387
1.42376
1.07755
1.32035
0.701386
1.4833
0.443657
1.09879
0.403143
1.12532
0.599006
1.65668
0.941262
1.17381
0.041501
2.15968
0.952236
1.00299
1.35385
0.527824
0.989064
0.771738
2.19221
1.56209
1.13862
1.38818
1.17191
0.64687
0.672711
0.949208
0.743992
1.10018
0.168804
1.12932
0.880251
0.980349
1.81921
1.72004
1.5413
0.171089
0.750824
0.279989
0.579474
1.3371
1.3669
2.01563
1.75209
1.23928
1.82541
0.578793
0.595237
0.819513
2.40173
1.20292
1.2249
0.402545
0.775362
2.39665
0.540474
0.61965
0.772383
0.0690315
1.07256
1.31515
0.18923
0.27235
0.626241
0.248419
0.826423
1.19694
0.872697
0.35876
0.213263
0
1.19226
1.8706
1.97036
0.290015
1.26534
0.380953
1.44672
1.31415
1.08637
0.733397
1.14044
1.87229
0.313537
1.28478
1.06797
0.167338
0.749854
0.685216
0.708568
1.7836
0.186653
1.44835
1.26966
0.587016
1.16736
1.10909
0.444459
0.476702
1.13642
1.23161
0.731662
1.38421
0.759769
0.515902
2.06518
0.764961
0.240745
1.37263
0.788398
2.30381
0.679291
0.442137
0.290698
0.988331
0.253181
0.599177
0.757256
0.831203
0.544627
0.96779
0.708316
0.401885
1.66662
1.36968
1.0101
2.57063
1.45951
0.989006
1.62546
0.677923
0.707754
0.545209
0.858888
1.33378
1.66218
2.74536
0.847894
1.52126
1.14678
0.544265
0.819799
0.040041
1.10223
0.541019
1.038
1.11559
1.76183
1.21579
0.835043
0.88533
0.385445
1.34427
2.29053
0.413199
1.25068
0.595924
1.20612
0.12445
0.173414
0.644629
1.94834
1.2632
0.759067
0.710977
1.70518
0.325699
1.02145
0.448017
0.449804
0.132353
0.784563
0.328208
1.17433
0.762532
0.988573
1.57086
0.525905
0.234222
2.04323
2.02914
1.24396
2.26811
1.20851
0.499337
0.80185
0.560501
0.632532
0.927058
1.5052
0.595651
0.244693
0.903356
1.56568
0.626552
0.353076
1.84039
1.0039
1.127
0.66955
1.57048
0.630537
0.595188
1.14302
0.695891
1.01256
1.12928
0.341771
1.87224
2.49096
1.08298
1.01174
1.06217
0.67855
0
0.280434
0.126619
0.361266
1.6299
1.10394
0.540249
0.512252
0.920436
0.904453
1.09871
2.37324
0.726326
0.321479
0.667775
0.704044
2.02345
1.18094
0.944958
1.34219
1.41178
1.03169
1.50052
1.5111
0.606625
0.333487
0.204279
0.278445
0.259885
0.656746
0.981957
1.51142
1.56724
0.748499
0.309445
1.83096
1.11129
0.358969
1.21926
0.791239
0.345643
2.62256
0.144572
1.03799
2.00369
0.993359
0.431846
0.275755
1.23335
0.440675
0.87843
0.480605
0.636052
1.71808
0.650879
1.02232
1.2932
0.541873
1.28012
1.20763
1.08017
1.36071
0.657267
0.564202
0.809049
0.898752
0.551943
0.517218
2.62804
0.708435
1.4688
1.14679
0.787423
0.279222
0.642706
0.70304
1.91675
0.893022
0.444438
1.17636
2.50685
1.73573
0.846392
2.64824
1.38636
2.42107
1.43508
0.807277
1.35953
1.2407
0.107729
1.75262
0.2195
0.646042
0.469533
1.2199
1.89196
0.42752
1.18057
0.374525
0.347366
2.3225
1.0532
0.0322125
1.09198
0.934856
0.258173
0.0763292
0.949205
0.775972
0.606458
1.23819
0.884786
0.301469
2.5587
1.76436
1.3915
0.235041
1.6224
0.676216
1.27008
0.865668
0.807737
1.46938
1.96416
0.0757676
1.78937
2.32386
0.337815
0.577968
0.982297
0.718423
0.966277
0.564313
0.849781
0.880046
2.56088
0.786646
0.7132
1.47722
2.56329
0.153159
0.943935
0.52632
0.46051
0.748838
0.226286
1.2914
0.613054
0.441295
)
;

boundaryField
{
    sides
    {
        type            symmetry;
    }
    empty
    {
        type            empty;
    }
}


// ************************************************************************* //
