/*--------------------------------*- C++ -*----------------------------------*\
  =========                 |
  \\      /  F ield         | OpenFOAM: The Open Source CFD Toolbox
   \\    /   O peration     | Website:  https://openfoam.org
    \\  /    A nd           | Version:  7
     \\/     M anipulation  |
\*---------------------------------------------------------------------------*/
FoamFile
{
    version     2.0;
    format      ascii;
    class       volScalarField;
    location    "0.001";
    object      linearKEMean;
}
// * * * * * * * * * * * * * * * * * * * * * * * * * * * * * * * * * * * * * //

dimensions      [1 -1 -2 0 0 0 0];

internalField   nonuniform List<scalar> 
500
(
2.57146
2.94735
3.2595
3.51776
3.83416
4.0616
4.2802
4.51412
4.62372
4.83023
5.0022
5.15048
5.31771
5.39756
5.47019
5.48436
5.58179
5.56621
5.67717
5.69826
5.73226
5.74774
5.70856
5.67336
5.67892
5.6686
5.767
5.67982
5.562
5.62833
5.64075
5.67311
5.5974
5.69743
5.68306
5.60703
5.57935
5.69242
5.67272
5.54295
5.59511
5.57654
5.68268
5.68083
5.62174
5.55089
5.58396
5.75668
5.68622
5.63383
5.67092
5.63596
5.69868
5.67174
5.67258
5.59888
5.61453
5.689
5.65267
5.60719
5.61573
5.66698
5.61697
5.5844
5.61891
5.57313
5.66058
5.65122
5.51205
5.60839
5.6758
5.54798
5.64464
5.60458
5.73144
5.68702
5.68094
5.60677
5.65117
5.63223
5.67617
5.61175
5.68599
5.79646
5.72086
5.68672
5.69033
5.72468
5.63863
5.68459
5.59156
5.63596
5.65109
5.56062
5.55805
5.56133
5.60942
5.60748
5.61562
5.62884
5.56058
5.61943
5.51637
5.53359
5.5976
5.62557
5.58844
5.65599
5.59689
5.56896
5.66112
5.66296
5.72705
5.72053
5.77561
5.62816
5.66901
5.66842
5.63515
5.67104
5.70023
5.62445
5.58479
5.70207
5.68295
5.65077
5.67341
5.64236
5.59023
5.54305
5.58221
5.57533
5.61913
5.65621
5.70374
5.65541
5.72944
5.64216
5.68106
5.65441
5.61013
5.73408
5.68855
5.65311
5.69117
5.76521
5.71075
5.66684
5.77011
5.79621
5.67443
5.68475
5.68966
5.68616
5.61476
5.67085
5.6206
5.69974
5.66293
5.70525
5.72841
5.72376
5.80042
5.77759
5.74389
5.70559
5.64661
5.67308
5.63936
5.6964
5.61597
5.62874
5.79912
5.64205
5.64391
5.60794
5.53436
5.526
5.59779
5.5959
5.59064
5.57845
5.5301
5.56505
5.65763
5.67773
5.58507
5.68746
5.62579
5.65929
5.62096
5.68656
5.67906
5.6812
5.65702
5.69933
5.65921
5.73659
5.7136
5.66117
5.71682
5.73153
5.59244
5.62231
5.58925
5.69863
5.5895
5.71954
5.72532
5.58476
5.71393
5.7352
5.7418
5.72847
5.75094
5.59981
5.6664
5.65861
5.65709
5.74631
5.66312
5.63052
5.70144
5.61287
5.67093
5.72147
5.71379
5.71206
5.7271
5.72027
5.66051
5.67161
5.73992
5.71409
5.54964
5.56318
5.55766
5.54247
5.54216
5.53211
5.5554
5.54108
5.55406
5.51137
5.47677
5.41258
5.46313
5.41205
5.42488
5.4128
5.29863
5.38742
5.43005
5.39434
5.43093
5.36466
5.39823
5.4307
5.40747
5.51587
5.47064
5.44711
5.48741
5.43321
5.43194
5.46225
5.45912
5.52856
5.58937
5.55119
5.58836
5.54709
5.71478
5.61417
5.7036
5.73079
5.66824
5.63722
5.71066
5.76991
5.62955
5.69254
5.69937
5.67488
5.68764
5.74442
5.68386
5.67052
5.61656
5.6795
5.65252
5.6884
5.75313
5.65217
5.59618
5.67051
5.76204
5.69356
5.6241
5.48973
5.6341
5.66953
5.67097
5.62773
5.57812
5.6666
5.63013
5.64566
5.64533
5.63976
5.71222
5.67349
5.69248
5.65718
5.7177
5.66979
5.66026
5.66773
5.65754
5.60461
5.58345
5.68538
5.60045
5.59397
5.61309
5.62952
5.5882
5.62781
5.60611
5.557
5.6216
5.63901
5.59435
5.6034
5.62856
5.73101
5.65844
5.66553
5.67451
5.58619
5.61892
5.61148
5.58635
5.57703
5.64238
5.56242
5.61795
5.63313
5.66922
5.58935
5.55759
5.63664
5.58912
5.63806
5.72915
5.63403
5.69268
5.68131
5.6889
5.68842
5.7368
5.76777
5.68688
5.64873
5.68766
5.69071
5.66723
5.67904
5.72096
5.71102
5.64753
5.61603
5.66154
5.54726
5.66539
5.57528
5.48068
5.56035
5.54879
5.61232
5.62189
5.64359
5.54502
5.59095
5.67606
5.52298
5.58656
5.59814
5.65516
5.60865
5.63768
5.73123
5.56752
5.66268
5.61307
5.58124
5.62759
5.53653
5.57472
5.60771
5.60316
5.66772
5.62062
5.60676
5.61658
5.79007
5.70033
5.72873
5.60834
5.56237
5.70574
5.67003
5.61131
5.60606
5.65531
5.58234
5.66339
5.68227
5.72059
5.61936
5.69875
5.70067
5.74496
5.73651
5.61326
5.69697
5.67398
5.76725
5.85128
5.84993
5.80136
5.77506
5.71758
5.78035
5.79348
5.68434
5.69009
5.67688
5.77439
5.74721
5.69714
5.80177
5.76451
5.81041
5.82565
5.79305
5.74812
5.69801
5.67103
5.62205
5.64012
5.63566
5.6169
5.5676
5.61631
5.54975
5.57939
5.48964
5.54291
5.55382
5.56789
5.55961
5.5717
5.56676
5.52165
5.50934
5.59312
5.52292
5.63235
5.65949
5.7094
5.62028
5.6555
5.59651
5.67326
5.72691
5.73858
5.65501
5.70299
5.68803
5.75715
5.64464
5.55078
5.59488
5.59818
5.50165
5.38906
5.35113
5.14095
4.97286
4.87576
4.73597
4.55366
4.42139
4.26853
3.93231
3.67259
3.40491
3.0425
2.62438
)
;

boundaryField
{
    sides
    {
        type            calculated;
        value           nonuniform List<scalar> 2(2.62438 2.57146);
    }
    empty
    {
        type            empty;
    }
}


// ************************************************************************* //
