/*--------------------------------*- C++ -*----------------------------------*\
  =========                 |
  \\      /  F ield         | OpenFOAM: The Open Source CFD Toolbox
   \\    /   O peration     | Website:  https://openfoam.org
    \\  /    A nd           | Version:  7
     \\/     M anipulation  |
\*---------------------------------------------------------------------------*/
FoamFile
{
    version     2.0;
    format      ascii;
    class       volScalarField;
    location    "0.001";
    object      linearKEMean;
}
// * * * * * * * * * * * * * * * * * * * * * * * * * * * * * * * * * * * * * //

dimensions      [1 -1 -2 0 0 0 0];

internalField   nonuniform List<scalar> 
1000
(
7.8756
7.92916
7.82747
7.83189
7.83868
7.81727
7.83514
7.82474
7.86495
7.82525
7.7618
7.86922
7.81652
7.88933
7.90894
7.91584
7.97369
7.8547
7.93375
7.96191
7.98742
8.01571
7.96462
7.92693
7.85506
7.85473
7.92551
7.87388
7.88934
7.93088
7.9727
8.04574
7.92239
7.98202
7.92494
7.93841
7.92636
7.8796
7.95267
7.87887
7.76671
7.87731
7.82073
7.95925
7.80987
7.78004
7.85044
7.81371
7.89016
7.72003
7.82674
7.78324
7.80569
7.74124
7.81252
7.81235
7.73139
7.81193
7.81243
7.89571
7.93208
7.87889
7.75759
7.80697
7.86696
7.84541
7.81205
7.81392
7.71902
7.8358
7.82436
7.79171
7.79412
7.83364
7.89987
7.83788
7.80814
7.86306
7.73053
7.80666
7.86226
7.8015
7.88418
7.83013
7.82903
7.76236
7.85251
7.79363
7.7796
7.79161
7.8141
7.79956
7.71523
7.75271
7.90398
7.86055
7.81548
7.80869
7.8632
7.84713
7.83481
7.85842
7.78734
7.81084
7.78583
7.80342
7.70328
7.65312
7.77797
7.78293
7.77779
7.81537
7.86008
7.87926
7.88969
7.80461
7.85458
7.72088
7.78777
7.91402
7.83929
7.72316
7.81256
7.79904
7.79335
7.79827
7.78389
7.81566
7.70365
7.87399
7.78574
7.82001
7.85279
7.81144
7.74705
7.78769
7.81028
7.88051
7.91102
7.79201
7.70773
7.76598
7.767
7.76127
7.82073
7.82353
7.90908
7.95774
7.84029
7.82508
7.82951
7.76747
7.73433
7.84677
7.84968
7.83268
7.93138
7.88042
7.8361
7.83317
7.77969
7.86888
7.90869
7.83978
7.89083
7.90159
7.90493
7.83781
7.95174
7.92122
7.81327
7.85352
7.8831
7.8218
7.89194
7.91076
7.85005
7.91
7.88931
7.92853
7.91202
7.90943
7.79026
7.83188
7.94166
7.97886
8.00221
7.95129
7.98221
8.01304
7.99712
8.07207
8.07926
8.07269
7.92277
8.00028
7.95058
7.91123
8.09089
8.007
7.86264
8.00646
7.99172
7.96007
8.00781
7.93585
7.87042
7.88364
8.01778
7.94936
7.86074
7.9173
7.89551
7.91514
7.93948
7.91223
7.90827
7.94722
7.92128
7.98995
8.04787
7.9658
7.88383
7.88778
7.88323
7.91316
7.98742
8.01761
7.92205
7.94888
7.96214
7.95717
7.93513
7.94328
7.94376
7.99991
7.86623
8.02008
7.94277
7.96667
8.0702
8.03535
7.91141
7.93432
7.93212
8.03548
7.97429
7.9678
7.96813
7.96908
7.91398
7.90266
7.9256
7.90453
7.97865
7.96426
7.93294
7.92974
7.93135
7.98904
7.99761
7.91041
8.00811
8.01029
7.95623
7.99157
7.93827
7.97365
8.0292
8.04604
7.98946
8.0193
8.04743
8.04368
7.96824
7.90301
8.02567
7.98793
8.03504
8.02054
7.99692
8.0271
7.88338
7.98953
7.91868
7.91147
7.94341
7.83697
7.94777
7.96563
7.92305
7.9196
7.99169
7.87236
7.91434
7.94854
7.87492
7.8954
7.8529
7.90373
7.93269
7.89876
7.91065
7.90544
7.78807
7.859
7.75042
7.78039
7.78902
7.86573
7.81428
7.93628
7.79415
7.78496
7.79482
7.79224
7.75749
7.84905
7.8152
7.95606
7.85245
7.87462
7.82135
7.83305
7.90324
7.84183
7.84905
7.88634
7.77699
7.75414
7.79725
7.77081
7.7016
7.84187
7.75069
7.79256
7.74921
7.78732
7.91525
7.88245
7.77592
7.82011
7.8503
7.95793
7.94794
7.92838
7.87435
7.83442
7.86638
7.90806
7.94869
7.95518
8.00085
7.89402
7.85419
7.74771
7.89482
7.8257
7.83078
7.84884
7.79899
7.80151
7.88335
7.84525
7.84195
7.91503
7.9397
7.94662
7.87682
7.83561
7.87745
7.84171
7.95923
7.90833
7.88758
7.92159
7.9162
7.94941
7.92449
7.90456
7.89058
7.92358
7.91369
7.89222
7.82272
7.90448
7.8587
7.85031
7.89691
7.91819
7.89469
7.83573
7.84992
7.83095
7.9167
7.98403
7.94189
7.90602
7.92467
7.98418
8.09286
7.93686
7.9313
7.85175
8.0469
8.00048
7.90253
7.85612
8.01405
7.94167
8.00165
7.93662
7.89502
7.95939
7.91511
7.95219
7.99139
7.949
7.92709
7.91612
7.92014
7.95575
7.95449
7.96547
7.91601
7.99792
8.05099
7.92579
7.99085
7.92984
8.01225
7.86728
7.91417
7.90261
7.94654
7.84244
7.8456
7.87546
7.75107
7.82627
7.81017
7.85606
7.83156
7.8046
7.86244
7.79022
7.79113
7.68451
7.6562
7.65012
7.68111
7.63926
7.5562
7.53802
7.54015
7.44573
7.37
7.52049
7.37276
7.27724
7.21862
7.24133
7.11601
7.02531
7.00519
6.96185
6.93783
6.89521
6.79695
6.64431
6.55177
6.51899
6.44874
6.44271
6.29113
6.29615
6.19355
6.13899
6.03896
5.982
5.91706
5.80173
5.71851
5.58811
5.56085
5.49264
5.43025
5.27825
5.25229
5.19004
4.97083
4.8396
4.8109
4.65315
4.56506
4.54236
4.40579
4.24141
4.10627
3.93214
3.76674
3.69894
3.63367
3.55281
3.58155
3.46708
3.40839
3.41857
3.37757
3.34848
3.21919
3.19865
3.16272
3.16362
3.09755
3.06825
3.0239
3.0192
2.94946
2.91901
2.85292
2.84387
2.78254
2.77815
2.75439
2.74275
2.68961
2.60362
2.62183
2.6349
2.54009
2.45983
2.45207
2.35995
2.32377
2.24454
2.22673
2.19398
2.14626
2.13387
2.10367
2.05166
1.97051
1.95355
1.8803
1.87025
1.80875
1.76714
1.72836
1.65633
1.61288
1.56732
1.49729
1.477
1.44322
1.35037
1.32815
1.2634
1.2215
1.16357
1.09581
1.05335
1.01328
0.988568
0.918604
0.893798
0.83802
0.786075
0.794755
0.775705
0.784987
0.787447
0.777012
0.773357
0.762473
0.760577
0.78674
0.780512
0.794776
0.791019
0.802224
0.804204
0.750844
0.7627
0.783245
0.786381
0.786175
0.782077
0.766028
0.769718
0.777132
0.803156
0.782167
0.759095
0.75264
0.793437
0.755268
0.73914
0.75081
0.763015
0.774235
0.745549
0.78287
0.787225
0.810323
0.80045
0.790647
0.798098
0.781276
0.792048
0.774288
0.774113
0.772053
0.776413
0.803046
0.785842
0.782057
0.769223
0.743993
0.75851
0.766904
0.766376
0.758956
0.757137
0.761769
0.756957
0.754291
0.741971
0.736184
0.768031
0.777366
0.793445
0.793712
0.759358
0.757718
0.773229
0.749203
0.739685
0.722314
0.725341
0.727148
0.76183
0.790729
0.766331
0.751039
0.736341
0.753286
0.72245
0.723916
0.75063
0.758504
0.766245
0.735604
0.741946
0.755667
0.771206
0.771475
0.750317
0.767488
0.755213
0.761175
0.737779
0.734268
0.7308
0.749916
0.751839
0.755716
0.749101
0.77532
0.76346
0.744154
0.731816
0.767215
0.772371
0.770124
0.760843
0.759861
0.770541
0.738647
0.750045
0.76552
0.749894
0.725121
0.742938
0.744129
0.741388
0.728592
0.750504
0.760605
0.734437
0.736534
0.777125
0.770229
0.742182
0.76626
0.755511
0.747338
0.778613
0.779291
0.767442
0.747336
0.755259
0.765748
0.732529
0.746785
0.723739
0.733401
0.739797
0.740905
0.710191
0.734361
0.744387
0.72604
0.741945
0.760574
0.771755
0.745626
0.769107
0.751967
0.735391
0.750739
0.740905
0.775168
0.757221
0.756258
0.763056
0.752273
0.741381
0.77673
0.753755
0.754662
0.74614
0.753912
0.742134
0.749527
0.748228
0.771698
0.761441
0.741829
0.7513
0.751481
0.782746
0.770626
0.75194
0.745849
0.752373
0.757254
0.77593
0.739082
0.735686
0.735379
0.713024
0.745772
0.782527
0.775308
0.746992
0.723805
0.760679
0.761529
0.766585
0.729899
0.734954
0.742135
0.773611
0.789767
0.767732
0.772037
0.73395
0.748507
0.728837
0.739606
0.749219
0.743996
0.733063
0.772749
0.769806
0.758152
0.793011
0.770113
0.777108
0.780152
0.753741
0.75884
0.739536
0.764922
0.756095
0.754648
0.757251
0.812043
0.790811
0.803294
0.784039
0.804356
0.798098
0.793439
0.77031
0.800145
0.795736
0.795493
0.780894
0.789967
0.766116
0.784111
0.786218
0.786326
0.799895
0.783342
0.770699
0.775883
0.782369
0.773977
0.796061
0.797642
0.767465
0.757867
0.750694
0.772561
0.740249
0.742199
0.755619
0.759565
0.761999
0.75929
0.762827
0.76611
0.760395
0.740229
0.755287
0.765828
0.751136
0.738795
0.75639
0.754742
0.759143
0.756595
0.747104
0.765711
0.758402
0.769952
0.752706
0.747595
0.785261
0.759753
0.755738
0.792278
0.797725
0.746126
0.759278
0.765859
0.790119
0.776826
0.774757
0.781758
0.77283
0.788957
0.77611
0.772878
0.792405
0.785421
0.765954
0.76558
0.769263
0.761221
0.759187
0.74988
0.739648
0.739451
0.748163
0.731058
0.765319
0.753004
0.741548
0.74862
0.739195
0.751502
0.758494
0.748257
0.777308
0.767256
0.764346
0.776213
0.745101
0.730908
0.742865
0.775711
0.752161
0.753812
0.76489
0.729669
0.738757
0.751752
0.741079
0.744816
0.753595
0.760617
0.753058
0.767814
0.748767
0.734346
0.767974
0.779535
0.770126
0.731748
0.770146
0.748282
0.743348
0.778424
0.760841
0.751928
0.739981
0.758383
0.760876
0.749525
0.769601
0.750692
0.734039
0.726208
0.746259
0.760612
0.751629
0.729821
0.744244
0.753295
0.74835
0.746927
0.729306
0.707087
0.729569
0.725023
0.744931
0.72641
0.718465
0.738694
0.706882
0.746098
0.721575
0.725513
0.737157
0.766412
0.794433
0.767424
0.753905
0.803368
0.783989
0.76724
0.78627
0.771223
0.764127
0.771167
0.806112
0.783961
0.753897
0.770501
0.764582
0.773656
0.793922
0.786618
0.764983
0.780074
0.777859
0.781635
0.771949
0.761007
0.806497
0.807484
0.795944
0.809621
0.816779
0.774116
0.745448
0.777707
0.782884
0.77231
0.785992
0.786222
0.774924
0.768799
0.762374
0.785939
0.772975
0.774983
0.77431
0.749895
0.760965
0.760792
0.76772
0.769175
0.788188
0.783457
0.758521
0.74783
0.722267
0.7427
0.719187
0.734003
0.721301
0.725976
0.749525
0.7444
0.752348
)
;

boundaryField
{
    sides
    {
        type            symmetry;
    }
    empty
    {
        type            empty;
    }
}


// ************************************************************************* //
