/*--------------------------------*- C++ -*----------------------------------*\
  =========                 |
  \\      /  F ield         | OpenFOAM: The Open Source CFD Toolbox
   \\    /   O peration     | Website:  https://openfoam.org
    \\  /    A nd           | Version:  7
     \\/     M anipulation  |
\*---------------------------------------------------------------------------*/
FoamFile
{
    version     2.0;
    format      ascii;
    class       volVectorField;
    location    "0.001";
    object      momentum;
}
// * * * * * * * * * * * * * * * * * * * * * * * * * * * * * * * * * * * * * //

dimensions      [1 -2 -1 0 0 0 0];

internalField   nonuniform List<vector> 
1000
(
(-0.000212123 -6.92865e-05 0.000175101)
(0 0 0)
(-0.000962098 0.00050498 -6.31556e-05)
(0 0 0)
(-0.000874481 0.000227706 -0.000247167)
(-0.000260929 9.36141e-05 -0.000622053)
(-0.00221425 -9.26738e-05 0.000567763)
(-0.000478782 0.000411891 -2.49864e-05)
(-0.000353757 -0.000762994 -0.00122689)
(0 0 0)
(-0.000621921 -0.000367877 -9.73562e-05)
(-9.74965e-05 -6.23008e-05 -0.000270275)
(-0.000727311 -0.000298638 -0.000535154)
(0.000124196 -0.000345058 0.000190852)
(0 0 0)
(-0.00150909 0.00049659 -0.000275741)
(0 0 0)
(0.000295183 -0.000437445 -0.000172582)
(-0.000199887 0.000214224 -0.000126548)
(7.79659e-05 0.000920014 -0.000162452)
(-0.000336659 -0.000413651 -0.000539496)
(-0.000315025 0.000423315 0.00109498)
(-0.00035328 -9.01863e-05 -5.98566e-05)
(-0.000777638 -0.000133376 -0.000228306)
(-0.000449456 -0.000719503 0.00013519)
(-0.000312093 0.00020599 7.99841e-05)
(0 0 0)
(-0.00146501 0.000756695 -0.000789556)
(-0.000614499 2.17401e-05 -0.000669552)
(-0.000458105 0.00108191 3.75719e-06)
(0.000321774 0.00046803 2.57384e-05)
(0 0 0)
(0.000159319 -0.000630092 0.000454517)
(-0.00119339 -0.000238553 0.000129687)
(-0.000261862 -0.000162593 0.000724068)
(-0.000373102 0.000553171 0.000271557)
(-0.00109342 0.000896327 0.000564161)
(-1.64579e-05 -0.000328747 0.000865269)
(-0.00151243 -0.000471779 0.000584788)
(0.000262639 0.000370219 -0.000699858)
(-0.000423019 -5.21515e-06 -0.000532785)
(0.000781985 0.000317419 0.000973742)
(-0.00102903 -0.000850644 -0.0013056)
(-0.000342427 -0.00194793 -6.45665e-05)
(-0.000448441 0.000169256 0.000404179)
(-9.35521e-05 1.41253e-05 0.0002742)
(-0.000676448 -0.000234067 -8.73697e-05)
(-0.000979304 6.59159e-05 -0.000417798)
(-0.000740523 0.000563181 -0.000572394)
(0.000143705 0.000477425 0.000473275)
(0 0 0)
(0.000271044 -0.000245657 0.000754571)
(0.000262566 0.000970203 -0.000879785)
(0 0 0)
(0.000211108 -0.000952001 0.000479813)
(0.00115553 -7.32855e-05 0.000890314)
(-3.50407e-05 -0.000514748 0.000237104)
(-0.000406235 0.000333279 0.000570457)
(0.000104117 0.000707412 0.000642187)
(-0.00027933 -3.52874e-05 -0.000700787)
(0.00153734 -0.000458137 0.000128681)
(0 0 0)
(-0.000157761 -0.000905348 0.000579932)
(-0.000474132 -0.000266025 0.000208238)
(-0.000149678 -0.000469642 0.000143324)
(0.000711285 0.00105535 -0.000478311)
(0.000115316 -0.000461428 -0.00024965)
(0.000162636 0.000208052 0.000998063)
(-0.00102812 0.000166067 0.000665436)
(-0.000136067 -0.000295186 0.000141045)
(0.000303041 -0.000392582 0.000181702)
(-0.000347792 3.42116e-05 0.000477492)
(0.000179398 -9.38428e-05 -0.00020792)
(-0.000380062 -0.00103841 0.000387025)
(-0.000634616 0.000252593 -0.00042921)
(-0.000196816 0.000277493 0.000588671)
(0.000546787 1.47942e-05 0.000295982)
(-6.76405e-05 -0.00062431 9.20188e-06)
(0.000405166 0.000684415 0.000422711)
(-0.000200915 -0.000275946 -0.000195573)
(0.000499849 -0.000319667 0.00111547)
(-0.00014809 5.53231e-05 0.000469922)
(-0.000437238 0.000423101 -0.000105187)
(-0.000240695 2.91546e-05 0.000789923)
(1.11732e-05 -4.74338e-06 -3.99262e-05)
(-0.000360085 0.000445701 0.000531079)
(0 0 0)
(-0.000278136 -2.19288e-06 0.00010604)
(-0.001347 -7.13404e-05 0.00123687)
(0.000804418 -0.000575258 1.4001e-05)
(0.000430411 7.42012e-05 -0.000461839)
(0.000422424 0.000122034 6.92189e-05)
(0.000417909 0.000313908 0.00035947)
(-0.000148898 0.000359095 -0.000399127)
(5.95814e-05 0.000430157 8.85961e-06)
(0.000399846 -0.000457684 -3.96264e-05)
(-0.000886746 -0.00190064 9.93468e-05)
(0.000239836 0.000401412 0.00118423)
(0.00170522 -0.000145593 0.000216505)
(-0.000448541 0.000992452 0.00078419)
(-0.000382118 0.000671151 -0.000455558)
(1.13355e-05 0.000154677 -0.000431622)
(0.000164127 0.000673419 -0.000606199)
(0.000433874 0.000999728 0.00100121)
(-0.000161286 -0.000625715 0.00104779)
(-0.000195537 0.000330796 0.000253016)
(-0.000217518 0.00177039 0.00108403)
(-0.000234035 0.000409865 -0.000576312)
(0.000191014 -0.000341201 0.000192162)
(-0.000329127 -0.000847694 -7.71815e-05)
(-0.000482899 -0.000538647 0.000276025)
(0.000422991 -3.26214e-05 0.000139533)
(0.000757723 -0.000381689 -3.72939e-05)
(-0.0011654 -0.000847957 0.000435487)
(0.000578119 8.33657e-05 -0.000590706)
(0 0 0)
(0.000718194 0.000849649 0.000128789)
(0.00031327 -1.12421e-05 -4.45662e-05)
(-0.00012186 -0.000845482 0.000826093)
(-0.000517686 -0.000426138 -0.000484641)
(-0.000487696 -2.84674e-05 -0.000143888)
(0.000321653 -0.000314688 0.000108666)
(0.0002045 0.000742024 0.000406404)
(0.000173409 0.000210821 0.000131148)
(0.000351095 -8.78045e-05 -8.99711e-05)
(0.000199669 7.56191e-05 -9.4358e-05)
(-0.000586931 -0.000491296 0.000536883)
(0 0 0)
(0.000370013 0.000195638 0.000355667)
(-0.000216707 -0.000418386 -0.000813767)
(0 0 0)
(-0.000174165 -9.60946e-05 0.000957852)
(-0.000356862 0.000712229 -0.000517277)
(0.000465651 -0.000438537 0.000308866)
(-3.23982e-05 -7.96906e-07 0.000605646)
(-0.000200192 5.20224e-05 0.000312414)
(5.69533e-05 -0.000861811 -0.000226818)
(0.000246925 0.00121902 -0.00028147)
(-0.000181812 0.000777528 -0.000492798)
(-0.000205921 -0.00121216 -0.000378411)
(-0.000123801 7.85677e-05 -4.6991e-05)
(7.2241e-05 -0.000374575 -0.000676006)
(0.00165794 0.000413558 -0.000738469)
(0.000234604 0.000621492 0.000701093)
(0.00022184 -0.000480517 0.00065818)
(0.00064959 5.04739e-05 0.000483387)
(-0.000818226 -0.00114638 7.02942e-05)
(-7.0567e-05 0.0001102 0.000358981)
(-0.000262357 0.000302076 0.000605268)
(0.000517344 -0.000539005 -0.000752558)
(8.71436e-05 -0.000137555 -0.000413361)
(-0.00093394 0.00039111 0.00130644)
(0.00162437 9.59473e-05 -0.000456263)
(4.03491e-05 0.000400995 0.000112541)
(-8.29524e-05 -0.000187382 -0.000257003)
(-0.00033301 -0.000394175 -0.000159609)
(0.000286962 -0.000669669 -0.000516729)
(0.000187751 -0.00082315 3.96637e-05)
(-0.00109047 -0.000674651 0.000314347)
(0.000785653 0.000464345 -0.000991396)
(0 0 0)
(0.000455335 -1.73686e-05 3.70978e-05)
(0.000482431 0.000661416 0.000178363)
(0.00092566 0.000610658 -0.00041086)
(-0.000254315 -0.000179109 0.000404815)
(-0.000596739 -0.000232441 -0.000277827)
(-0.000500032 0.000482634 7.37149e-05)
(-0.000499136 -0.000543065 0.00133937)
(-0.00125536 -0.00032114 -0.000960129)
(0.000103839 -0.000231925 -0.000768455)
(0.000110328 -0.000608 0.000916212)
(-0.000720026 0.000371415 7.89359e-06)
(0.000125393 -0.000606854 0.00015351)
(-0.000428377 0.000658611 -0.000593489)
(0.000508788 0.000380056 -2.85221e-05)
(-0.000771073 0.00013208 -0.000950143)
(-2.85976e-05 0.000325794 -0.000307255)
(-0.000763058 -0.000318766 0.000749516)
(0.000226662 -0.000692463 0.000368033)
(-0.000350143 0.000110367 0.000136153)
(0.000175519 -0.000297436 -0.000329233)
(0.000306093 -0.000688389 0.000115218)
(0.000158289 0.000422227 0.000596907)
(-0.000484235 -0.000849916 -0.000323148)
(-0.00114311 0.00114894 0.000831996)
(9.87459e-05 0.000398085 -0.000346131)
(0.000507631 -0.000122352 -0.000220742)
(0.00081862 -0.000698317 0.000576241)
(-0.000432275 0.000765086 -0.000260677)
(0.000121781 -0.000861165 0.000531205)
(-0.000578769 0.00132713 -0.000167979)
(-0.00105588 0.000492909 -0.000139072)
(-6.91109e-05 -0.000585545 -0.000192377)
(6.38059e-05 0.000715466 -0.000194575)
(-0.000285606 -0.000328239 -0.000395043)
(0.000922438 -0.000446709 5.40526e-05)
(-0.000130012 0.000617778 -0.000343899)
(0.000222011 -0.000273356 0.000364568)
(0.000461117 0.000411855 0.000342463)
(-0.000767186 0.000662225 0.000373756)
(0.000360378 3.79053e-05 0.000439808)
(-0.000186201 0.000981837 0.0010697)
(-0.000519663 0.000146277 -0.00078806)
(0.00119831 -0.000770388 -8.03543e-05)
(0.001543 -0.000322088 -0.000930967)
(0.000907163 -3.36367e-05 6.06075e-05)
(-0.000199145 -0.000852016 -0.000867232)
(0.000836257 0.000246834 -0.000283527)
(-0.000153498 -0.0014039 -0.00114291)
(-0.00023002 0.000866963 0.000246978)
(-0.000285265 -6.80403e-05 0.000236989)
(0.000233985 -0.000133639 -0.000234642)
(0.000134243 -0.000170924 -0.000671267)
(-0.000346707 -0.000417518 0.000163816)
(0.00070466 0.00019815 0.000191741)
(0.0004584 -3.04032e-06 0.000445823)
(4.09328e-05 -0.00089067 -0.000325279)
(-0.000595528 0.000313136 -0.000290513)
(0.000198768 0.000280715 -9.28461e-05)
(-0.000111246 0.00224993 -0.000352138)
(0.000220441 0.000687981 -0.000777448)
(0.00123948 -0.000597604 0.000305105)
(0.000118888 0.000279498 -0.00104678)
(-0.000808247 0.000154892 -0.000608177)
(-0.000143075 0.000831886 -0.000136523)
(0.000237332 -0.00042841 -0.00126572)
(0.000128206 -0.000209691 -0.00138199)
(0.000318935 0.000364216 -0.000166703)
(0 0 0)
(0.000462589 0.000147356 -0.000587806)
(-0.000148225 -0.000336065 5.01174e-05)
(0.00024961 -0.000973964 0.000343918)
(-2.37363e-05 -0.0006719 -5.42386e-06)
(0.000201044 -0.000270664 -0.000757234)
(3.37196e-05 0.000729762 -0.000242519)
(-0.0002021 0.000948368 -0.000127057)
(0.00109041 -0.000496129 -0.000453476)
(0.000161322 0.000715172 0.000105278)
(0 0 0)
(-0.000238813 5.68909e-05 -0.000454149)
(-0.000334626 -0.0015026 0.000427633)
(0.00111942 0.000525722 0.000738511)
(0.000377512 0.000506675 -0.0015652)
(-0.000980591 -0.000861747 -0.00139484)
(0 0 0)
(0.000129959 0.000426573 -0.00018708)
(0.000121527 -0.000659126 -0.00060889)
(-7.09238e-05 0.000185973 -0.000598183)
(-0.000386343 0.000193165 -0.000317001)
(0.000327366 0.000106723 0.000518331)
(-0.000271811 0.000202839 -0.000974504)
(-0.000448167 -0.000563194 0.00170539)
(0.00034128 -0.00031028 -0.000302907)
(0.000221702 -0.000917468 -0.000110863)
(-0.000808682 -0.000462473 -0.000352953)
(0.00103513 0.000232115 0.000404347)
(-0.000288947 0.000733759 0.00060299)
(-0.000395033 0.00102486 6.9543e-05)
(0.000341464 -0.000621605 -0.00105383)
(-0.000293163 -0.000294889 1.58613e-06)
(7.58466e-05 -0.000477999 -9.64036e-05)
(0.000500154 -0.000829186 -0.000158218)
(-0.000782565 -0.000908003 -0.000457824)
(0.00112699 -0.00142675 -0.00045052)
(0.00028771 -0.000631507 0.000185955)
(-6.56513e-05 0.00023029 0.000554639)
(-0.000170227 -0.000641314 4.74301e-05)
(-0.0012899 -0.000493636 -0.000633119)
(-0.000130233 -0.000927161 0.000565497)
(0.000560962 -0.000642613 -0.000165058)
(0.000483296 0.000748326 0.000102227)
(0.000187093 0.000458449 -0.000658507)
(0.000835022 -0.000765013 -0.000211949)
(0.000283228 -0.000224322 -1.43794e-05)
(0.000469055 0.000696813 -0.000667719)
(-0.0011635 -0.000435736 -0.000742715)
(0.000499844 -0.000326351 -0.000162838)
(0.00111507 0.000439378 -0.000274907)
(-0.000239864 0.000454355 -0.000208969)
(0.000274446 -0.000781995 0.000379034)
(0.000147697 -0.00102492 0.000460921)
(0.000470896 0.000648479 -0.00047622)
(5.77798e-05 0.00100063 0.000193613)
(-0.000525553 0.000431695 0.000215618)
(-0.000688684 -0.000701328 8.84314e-05)
(-7.46924e-05 -0.000193674 0.000213141)
(-0.000128107 0.000278515 -0.000641325)
(0.000112549 0.000716839 -0.000264601)
(5.29587e-05 -0.000744081 0.000125958)
(-0.000177056 3.35966e-05 0.000519656)
(0.000836375 -2.42631e-05 0.000160005)
(-0.000762655 -0.000727448 0.000702073)
(-0.000466977 3.09933e-08 -0.000394015)
(-0.000302328 -8.86436e-05 -0.000257873)
(0.000175981 -0.000376002 -0.000410941)
(-0.000340885 -0.000806832 -0.000577111)
(0 0 0)
(-0.00092875 -4.5978e-05 0.00046373)
(-0.000125803 0.000508553 -0.000171164)
(0.000297987 -0.00132112 0.000496384)
(-0.000355294 0.000222011 -0.000127261)
(-0.000101235 -0.000246365 0.000314874)
(0.000898696 -0.0010182 0.000184005)
(7.25875e-05 0.000304924 -0.000192678)
(-0.000690007 0.000636513 -0.0011006)
(0.000652214 -0.000286274 -0.000323141)
(0.000434448 2.0045e-05 0.000242877)
(-0.000107322 0.000964014 -0.00052545)
(0.000343051 0.000658342 0.000526035)
(0.000243442 8.26846e-05 -0.000559347)
(0 0 0)
(-0.000457226 -0.000627163 0.000472166)
(-0.000267399 -0.000445529 0.00015566)
(0.000834921 0.00046254 -0.00109694)
(-0.000624244 0.00080548 -0.000287661)
(0.000679915 8.28695e-05 4.00229e-05)
(-0.000598038 -1.0643e-05 0.000263295)
(0.000214756 0.000351585 -9.94456e-05)
(0.000746798 -0.00134514 0.000573642)
(0.00114583 -0.000744652 0.000179083)
(0.00174508 0.000317896 -0.000964187)
(-0.000121933 0.00024442 -0.000870436)
(0.000538265 0.000191163 -0.000410078)
(0.00153134 0.000636037 0.000415294)
(-0.000502153 -0.00127588 0.000725524)
(-0.0011524 -0.000454517 -0.000644208)
(1.39294e-06 0.000589911 -0.000216988)
(-0.000246058 0.000599452 -0.000351918)
(-0.000660841 2.42548e-05 -2.77376e-05)
(-0.000255106 1.06477e-05 -0.000437792)
(0.000381408 -0.00112641 0.000913985)
(-0.000335537 0.000232104 0.000452106)
(-0.000391996 0.000253571 0.0010349)
(-2.09228e-05 -0.000949006 0.000239038)
(0.000752383 -0.000498856 -0.00164815)
(0.00010399 -5.03703e-05 0.000324898)
(3.66384e-05 0.000149834 0.000220134)
(-0.000740783 0.000468017 -0.000110077)
(0.000351991 0.000102564 -0.000255179)
(0.000206489 -7.51086e-05 3.28001e-05)
(0.000437219 4.94937e-05 -0.000556476)
(-0.000284003 0.000445254 0.000310511)
(-0.000492519 -0.000201395 -0.000553882)
(7.03116e-05 -0.00156088 0.000162868)
(-0.000464646 0.000707929 6.36527e-05)
(-0.000562679 4.67391e-05 0.000839887)
(-0.000100282 8.17583e-05 0.000371915)
(0.00075954 9.7212e-05 0.000356192)
(0.000897557 0.00114128 -0.00121201)
(-0.0013597 7.59667e-05 -0.000691925)
(0.000351414 0.000720929 -0.000437184)
(0.00138532 -0.000419691 -0.00161514)
(0 0 0)
(0 0 0)
(0.000628199 0.000146991 -0.000115092)
(-0.00156215 -0.00089832 -5.45083e-06)
(-0.000115389 9.96031e-06 -9.16698e-05)
(-0.00078527 0.000117882 -2.7273e-05)
(-0.000156455 0.00059003 -0.000225068)
(0.00054792 9.53502e-05 -0.000625202)
(-0.000968453 0.000130016 0.000143556)
(0.000640945 -0.000222444 -0.000482176)
(0.000497162 -0.000555428 0.000824021)
(-0.00135848 -6.56987e-05 0.000996855)
(-0.00025495 8.84246e-05 0.00026114)
(-0.00131829 0.00018051 0.000789656)
(7.17305e-06 0.000386402 0.000779704)
(-0.000481983 -0.000583575 0.000450444)
(0.000787826 0.000521429 0.000103355)
(0.0007195 -7.04947e-05 -0.000963676)
(6.78026e-05 0.000470036 0.000303585)
(0.000340675 -0.00134256 0.0019675)
(-0.00113518 0.000419718 -0.000118223)
(-0.000234621 0.000176132 -0.000582062)
(0.000448205 -0.000314635 5.0976e-05)
(0.000169062 -0.000805093 0.000552394)
(-0.000309968 -0.00193201 -0.000968322)
(0.000719621 -5.33223e-05 0.000309773)
(0.000962881 -0.000477182 -0.00022703)
(-0.000456613 0.000215181 -0.00012112)
(-0.00116026 0.000636836 0.00150042)
(0 0 0)
(-0.000329382 0.000170347 0.00110587)
(-0.000240308 0.000315939 0.000243668)
(0.000445503 0.00090949 0.00024445)
(0 0 0)
(0.000876777 -0.00125402 0.00032791)
(0.000244137 -0.000822584 -0.000102434)
(-0.000503751 0.000371201 0.000751033)
(-0.000118906 6.39441e-05 0.000193769)
(5.10948e-06 -0.00031505 0.000369185)
(-0.000422608 0.000803681 0.00029287)
(0.000250925 -0.000305469 0.000491362)
(-0.000682046 0.000501019 0.000211113)
(0.0012132 0.000345166 0.000225379)
(0.000495301 -0.000177468 -0.000375992)
(0.000465213 -0.000119309 -5.38574e-05)
(5.00633e-05 -0.000443837 0.000503993)
(-0.00219398 -0.00130884 0.000676661)
(-0.000420309 5.35513e-05 7.54199e-05)
(0.000252409 0.000522563 0.00110371)
(-4.83023e-05 -6.97059e-06 1.58535e-05)
(-0.00107188 0.000827235 0.000473216)
(-0.000631554 0.00126849 -0.00115447)
(0.000457034 0.000293406 -0.000538051)
(-9.98256e-05 -0.000153451 0.000584685)
(0.000974125 0.000729129 0.000172023)
(-0.000373769 -0.000511536 0.000906325)
(-0.000133655 0.000183564 -0.000300184)
(-0.00110601 0.0010322 0.000679032)
(0.000406022 -0.000132462 2.7995e-05)
(-8.613e-05 -0.000295035 0.000341311)
(-0.000327749 0.000209014 -0.000230813)
(0.000403424 0.00012752 8.87545e-06)
(-0.00140869 -0.000623309 0.000320979)
(-0.000208485 -0.000239492 0.00074245)
(-0.00010609 -0.000602164 -8.06506e-05)
(0.00115526 0.000852619 9.04755e-07)
(0.000146663 9.26832e-05 -0.000924543)
(-0.00111541 0.000570775 -5.4497e-05)
(-0.000107687 -3.00611e-05 -0.000183169)
(0.000378425 0.000106632 0.000265858)
(-0.000194486 -2.12083e-05 -0.000909582)
(-0.00168043 -0.00128215 0.000183794)
(-0.00100469 0.00169278 0.000392874)
(-0.00013254 -1.13928e-05 0.000910306)
(-0.00152377 0.000557873 -0.00058008)
(0.000625443 -0.000244385 0.000143604)
(-9.17087e-05 0.000698566 -0.00100058)
(-0.00041117 -0.000579888 -0.000125272)
(0.000151396 0.000397593 -0.000323347)
(0.00036312 0.000249943 -8.54074e-05)
(-0.000416617 0.000447066 -0.000357838)
(0.000640703 0.000847908 -0.000219938)
(5.85715e-05 9.96596e-05 0.000421076)
(0.000839339 0.0010502 -0.000310344)
(-0.000310263 -0.000615673 0.000183681)
(0.000966678 -0.00153375 0.000381338)
(-7.81516e-06 4.47142e-05 0.00080223)
(0.000398896 0.000184848 -0.000628007)
(0 0 0)
(0.000115239 0.000134558 0.000229042)
(0.00022212 -0.000345154 0.000974097)
(0.000322095 0.000495494 -9.57789e-06)
(0 0 0)
(-0.000214831 9.83707e-05 0.00012467)
(-0.000197185 -0.000359782 0.000310204)
(8.29355e-05 0.000447939 -8.0138e-05)
(-0.000957589 9.7366e-05 -0.000187801)
(2.71243e-05 -0.000838545 0.000489828)
(-7.10668e-05 0.000180813 -0.000440607)
(0.00104567 -0.000166622 -6.63959e-05)
(0.000986794 0.000121586 0.000312645)
(6.64875e-05 0.000621405 4.09426e-05)
(0.000186203 -0.000825662 0.000589006)
(-0.000741194 0.000662124 0.0004259)
(0.000492286 -0.000325775 -0.000812856)
(-0.000128685 -0.000361007 0.00105557)
(0.000209087 0.000365745 -0.000277519)
(-2.43739e-05 -0.000110187 -0.000301638)
(-0.000801258 0.000700167 -0.000638802)
(-0.000490173 -0.000274783 -0.000272444)
(-0.000472109 -0.0013272 -0.000403057)
(-0.000182215 -0.000498932 0.000479152)
(0.000647022 -0.000659902 -0.000672169)
(0.000253798 -9.01722e-05 0.000418994)
(-0.000317728 -0.000576257 -0.000341284)
(0.00136047 -0.000394515 7.85227e-05)
(0.00205257 -0.000844766 0.000477389)
(-6.29561e-06 -0.000819689 0.000732119)
(-0.00048151 7.33009e-05 0.0010706)
(0.00012298 -0.000602463 0.000318931)
(0.00129081 0.000228877 0.000263581)
(-0.000552605 -0.00172613 0.000324747)
(0.000312402 4.63925e-05 0.000127709)
(-0.000639883 0.000368763 -5.2615e-05)
(0.00071101 -0.000986214 -0.000314149)
(3.17687e-05 0.000233677 0.000186418)
(-0.000168821 -0.000244687 0.00033651)
(-0.000937816 0.000678271 0.000441306)
(-8.17892e-05 0.000336194 0.000382976)
(0.000840722 0.000961864 0.000341186)
(-0.00157547 -0.000723866 0.00109615)
(0.000174772 0.000386758 0.00104976)
(-0.000264141 0.000427974 0.000841969)
(0.000590672 0.000553757 -0.000564601)
(-0.000654163 2.23454e-05 -0.000676825)
(-0.000319634 8.86759e-05 0.000570613)
(0 0 0)
(-0.000718656 0.000156206 0.000254064)
(0.000156518 -4.48392e-05 0.000357287)
(0.000571212 -6.25839e-05 4.74342e-05)
(-0.000224886 0.000178145 0.00054491)
(8.09785e-06 -0.000706074 0.000296224)
(-0.00037169 0.000400492 0.00019589)
(0.000110634 0.000192897 0.000796308)
(0.000982542 0.000370455 0.000876717)
(2.33951e-05 -0.000307591 0.000759683)
(-0.000414469 -0.000852819 0.000275015)
(0.000631359 -0.000221981 0.000589811)
(-0.000536987 8.36297e-05 0.000304112)
(0.00026542 -0.00041537 -3.19162e-05)
(0.000727173 -0.000609869 -0.00132691)
(-0.000100239 0.000259262 0.000151834)
(-0.000739978 -0.000196882 -0.00134729)
(0.000890028 -0.00108179 -0.000217434)
(-1.07225e-05 -3.90907e-05 8.47825e-05)
(1.52962e-05 -0.000361976 0.000124012)
(-0.000664746 0.000161534 -0.000408244)
(-0.00128254 0.000735327 0.000453761)
(0.00066153 0.000143111 0.00141626)
(0.00112859 0.000276248 -0.000482558)
(2.50671e-05 3.49604e-05 -0.00071008)
(-0.000566995 -0.000435846 0.000331826)
(0.00026512 -0.000584424 0.000769426)
(0.000164171 -0.000103899 0.000445634)
(-0.00041305 0.00190186 -0.00102928)
(-0.000480598 0.000754138 -0.00107873)
(0.000133237 0.000282205 0.000370479)
(0.000330876 0.000160031 -0.00025735)
(0.000570979 0.000855067 -0.000475235)
(-0.000286291 -0.000409367 0.00100039)
(-0.000334606 0.00125764 -0.000806375)
(0 0 0)
(0.000433335 -0.000572509 0.000164308)
(0.000245828 -0.000381859 0.000433137)
(0.000914543 0.00114353 -0.00151305)
(0.000101761 0.000474731 -8.23631e-05)
(-0.000191907 1.54409e-05 0.000242466)
(0.0001604 -0.000636353 0.00125021)
(-0.000231372 -0.000280577 -7.09668e-05)
(-0.000616964 0.000699506 0.000591523)
(0.000549037 4.30742e-05 0.000323644)
(0.000402906 0.00077122 -0.000266557)
(0.000146519 -0.000109303 -0.000523263)
(0.000226432 -0.000822683 -0.000154418)
(0 0 0)
(0.000586507 -7.98693e-05 0.000319106)
(0 0 0)
(-0.000133069 -0.000402294 4.28499e-05)
(0.000754163 4.34727e-05 -0.000204905)
(-0.000587878 0.000561272 0.00141647)
(-0.00146217 -0.000496843 -0.000244355)
(0.0013838 0.000533282 0.000532431)
(-0.000776975 0.000648334 -0.000302562)
(-0.000105318 -0.000391125 -0.000349858)
(0.000294631 0.00050285 8.70567e-05)
(0.000384309 0.00104532 -0.000105899)
(0.00144443 -0.00295215 8.19452e-05)
(0.000582906 -0.0003218 -0.000504951)
(0.00028082 -0.000626184 -0.00150871)
(-0.00121574 -0.000785425 0.000174306)
(0.00104065 -0.000799092 0.00134756)
(-0.000511868 -0.000150396 -0.000382369)
(-0.000621424 0.000260439 0.00036331)
(-0.0011195 -0.00102856 9.73852e-05)
(0 0 0)
(0.000766546 0.000489405 0.000721398)
(8.57989e-05 0.00113722 0.00019967)
(9.89321e-05 4.81813e-05 0.000375884)
(-1.43184e-05 -0.000139121 -0.000474038)
(-0.000650152 4.87701e-05 0.00015726)
(0.000128421 -0.000722663 -0.000217118)
(-0.000243077 0.000211621 -0.000176608)
(-0.000486152 -0.000876556 -0.00123827)
(-0.000903474 -0.000697172 -0.00125706)
(0.000253001 -4.12327e-05 0.000220703)
(0.000552953 -3.83154e-05 -4.85314e-05)
(-0.000433799 0.000236068 0.000961608)
(-0.00107481 0.000197081 -0.000357832)
(0.000463983 0.000175457 -0.000185673)
(0.000368168 -0.000313061 -0.000831225)
(0.000293001 -0.000126349 -0.000133419)
(-0.000392126 -0.000119298 -0.000407622)
(0.000149115 0.000306168 -0.000527267)
(0.00041375 0.000129176 2.56674e-05)
(-0.0002746 7.40567e-05 3.12493e-05)
(0.000158405 -0.000373817 0.000324655)
(-5.29064e-05 6.43794e-06 0.000645892)
(0.000125513 -0.000505212 -0.000350158)
(-6.36522e-05 -0.000187849 0.000121937)
(0.00051727 0.000483561 -0.000522503)
(-0.000435212 8.7125e-05 -0.000178032)
(-0.000192288 0.000215587 -0.000414284)
(0.000788829 0.000462565 -0.00151492)
(0 0 0)
(0.000625221 -0.00012448 0.000588493)
(0.000269106 -0.000346529 -0.00127631)
(0.000483828 -0.000101388 5.73454e-05)
(0.000503331 0.000666388 1.92348e-05)
(0.000463341 0.000941277 -0.000780588)
(0.000637034 -0.00100685 0.00109328)
(8.31988e-06 0.000517742 6.77323e-05)
(0.000519438 0.000470548 -0.000527443)
(-0.000225091 0.000600901 -0.000473081)
(-0.000149111 -8.67607e-05 -0.000715857)
(0 0 0)
(-0.000926304 -0.00104221 0.000562284)
(-0.000242653 0.000113362 3.25382e-05)
(0 0 0)
(-0.000574182 0.000580542 -0.00022602)
(-0.00024196 -0.000134513 -0.000135658)
(-0.000420031 0.000310633 0.00018755)
(0.000256909 0.000465067 4.18421e-05)
(-0.000788695 0.000657025 0.000522013)
(0.000944799 -0.00075121 -0.000909968)
(0.000180606 0.000874146 0.000251191)
(-0.000537804 0.00136633 0.000192312)
(-0.000501908 -0.0027369 -0.000224776)
(0.000414784 0.000654921 0.000113701)
(-2.50722e-05 7.0435e-05 0.000340831)
(0.000183864 -5.34403e-05 -0.000640968)
(0.00026124 0.000103484 0.000113856)
(0.0003395 0.000204308 -0.000245769)
(0.000372922 0.000585038 8.87288e-05)
(0.000134291 -0.00063036 0.00026938)
(0.0002423 -0.000748574 -0.000833331)
(-0.000232778 0.00023899 -0.000362416)
(-0.00129669 -0.000371589 -0.000233186)
(-0.000974716 0.000730326 -0.000655646)
(-0.000208623 0.000383928 -1.94401e-05)
(0.000396396 -0.000430496 -1.15604e-05)
(0.000344681 2.33314e-05 -0.000684414)
(0.00049856 0.00113216 -0.000578614)
(-0.000540634 0.00154654 -0.000700613)
(0.000690262 0.000409505 -0.000178209)
(0 0 0)
(0.000779254 0.00111064 0.00122435)
(0.00108881 0.000389277 -0.000230392)
(2.36208e-05 0.000846232 -0.000618718)
(-0.000616798 -0.000468759 0.000414343)
(4.80375e-05 0.000224214 0.000308882)
(-0.000233074 -0.000635806 0.000302687)
(-1.38236e-05 -0.000261151 0.000582153)
(0 0 0)
(0.000485372 -0.000137643 -0.000288643)
(-0.000537473 -5.8974e-05 -0.000921228)
(0.000624946 -0.000337788 0.000294715)
(0.00128937 0.00070436 0.000686069)
(-1.45597e-05 0.000228225 -0.000153252)
(-0.00072735 0.000234678 -0.000354563)
(0.00100428 -0.000100042 -0.000481706)
(0.000525093 -0.000214348 -0.00115722)
(0.00110509 0.000508344 -0.000122991)
(0.000263679 0.000859989 0.000551224)
(1.98821e-05 0.000958479 0.00171561)
(0.000500431 -0.000103199 -0.000215532)
(-0.00037793 0.000845372 0.000658281)
(9.52689e-05 0.000699449 0.00024354)
(-0.000629356 -8.20089e-05 -0.000212712)
(-0.000319069 0.000116866 0.000435242)
(0.000357039 -0.000282881 6.51123e-05)
(0.000256562 0.000135892 -0.000253288)
(0.00142255 0.000176042 4.59932e-05)
(-0.000648607 0.000812427 0.000405658)
(0 0 0)
(-6.52466e-05 0.000273547 -0.000297387)
(0.000978202 -5.53245e-05 -0.000159927)
(0.000391541 0.000243767 0.00019901)
(-0.000446512 0.000306136 -0.000274745)
(-0.00066024 -0.000312292 -0.000316071)
(0.000948627 3.63241e-05 -0.000708789)
(0.000426377 -0.000248867 0.000103947)
(0.000352723 -0.000470756 -0.000550933)
(0.000292303 1.17706e-05 -0.000351113)
(-0.000195625 -9.11839e-05 -0.000305791)
(0.000384876 -0.000622001 0.00055546)
(-0.000628335 -0.000111332 -0.000596651)
(0.000396402 -0.000116027 -0.00104013)
(-0.000160667 -0.000352345 -7.39734e-05)
(-0.000559874 -8.10504e-05 0.00022919)
(0.000756067 -0.000193055 3.23319e-05)
(0.000336749 -3.18524e-05 -0.000233293)
(-4.91446e-05 -0.00141155 0.000361067)
(9.5433e-05 0.000111888 0.000188884)
(-6.53903e-05 0.000209501 -0.000247321)
(-0.00096641 -0.000259483 0.000971943)
(0.000138425 -0.000273344 -0.000109085)
(0.000699152 0.000535092 0.000578239)
(0.000362684 0.000207006 -0.000643136)
(0.000289502 0.000614785 -1.32493e-05)
(0.000573919 -7.42557e-05 -0.000185683)
(0.000696903 -0.000505175 0.000189964)
(-0.000210627 -0.00021689 0.000186347)
(0.000455114 0.000967208 0.000112474)
(-0.000232448 -0.000187943 0.00133845)
(0.000505173 -0.000370675 0.000219196)
(0.000208072 -0.000490697 -0.00071841)
(-0.000258696 -0.000262421 5.3044e-05)
(-7.44842e-05 -9.73166e-05 8.03793e-05)
(-0.000342524 0.000349762 0.000764898)
(0.000208367 0.000554152 -0.000188312)
(0.00018285 0.000257731 -7.85852e-05)
(0.00112008 0.000260022 0.000635841)
(1.02463e-05 -9.00193e-05 -0.000691288)
(0.000702902 1.52668e-05 -0.00101291)
(0.000403622 2.11199e-05 -4.69052e-05)
(0.000305597 0.000751238 0.000401604)
(-0.000630839 6.97292e-05 0.000100097)
(-0.00082363 -0.00026178 0.00184478)
(-0.000570023 0.000635578 0.000284823)
(0.000361297 0.000281745 0.00057564)
(-0.000570376 -0.000814448 0.000492251)
(-0.00134517 0.000629501 0.000287218)
(-0.000374756 0.000205385 -0.000979825)
(-0.000440186 0.000735521 0.000174873)
(0.000454504 -0.000679848 0.000300247)
(0.00015645 0.00136621 0.000846686)
(0.000718001 -7.99624e-05 0.000236293)
(-0.00100196 -0.000674607 -9.11866e-05)
(0 0 0)
(-0.000564067 -7.33865e-05 0.00149324)
(0.000637724 -0.000261454 0.0012561)
(-0.000334851 -9.90738e-05 0.000163563)
(0.00131076 -0.000153064 0.000222454)
(4.81542e-05 -0.000102412 -0.000432619)
(-0.000645884 8.30408e-05 -0.000225664)
(0.000599115 0.000336358 -2.58961e-05)
(-0.000695064 0.000660116 0.000193883)
(0.000299884 -0.000284393 0.00122147)
(0.00112716 -0.000312158 -0.00108325)
(0.000328407 0.000811252 0.000132206)
(0.000305535 0.000457582 0.000191283)
(-9.40655e-06 -0.000226555 -0.000321361)
(3.82116e-05 -0.000521306 0.000396622)
(0.000503791 0.000206756 -0.000782529)
(-0.000164774 0.000683228 -0.000650945)
(-0.000887704 8.33993e-06 -0.000771017)
(0.000525034 0.000732062 0.000663896)
(0.000112804 -0.000558504 0.000701083)
(0.000531238 -7.0361e-05 -0.000778987)
(0.000770918 0.000171345 -0.00063398)
(-4.43519e-05 1.95501e-05 -4.41023e-06)
(-0.00130877 0.00211898 0.000129243)
(-0.000376678 0.000333702 -0.000634292)
(-0.00123318 7.77569e-05 -0.000468402)
(0 0 0)
(0.000195166 0.000936663 0.00198466)
(0.000300191 -0.000548048 0.000177588)
(-0.000212003 -8.56026e-06 -0.00031136)
(0.000190544 -5.00519e-05 0.000425394)
(0 0 0)
(-0.000468084 0.000391523 7.88421e-05)
(-0.000111736 0.000543177 0.000345573)
(0.000193271 0.000220705 0.000771963)
(-0.00169865 -0.000374758 0.0001295)
(9.20069e-05 0.000606063 0.000427472)
(-0.000645435 -1.81306e-05 0.000247059)
(0.000189268 -0.000444503 0.000491004)
(0.000312674 0.000395553 0.000929989)
(0.000403816 -0.00052675 0.000391435)
(0.000294172 0.000596894 -0.000656893)
(0.000579779 -7.44762e-05 -0.000613881)
(-0.000526444 2.92203e-05 0.000283832)
(0.000609288 0.000386962 1.49872e-05)
(0.000505735 0.000191209 -0.000119333)
(-0.000330011 -0.000513715 -0.000348349)
(-0.00113075 -0.0003858 0.00161203)
(3.03522e-05 -0.000104086 -0.000831316)
(-0.000509562 0.000138354 -0.000817009)
(0.000733599 0.000168716 0.00189842)
(-0.000705528 0.000775891 -6.64274e-05)
(-0.000122846 -0.000158747 0.000352498)
(0.00125413 -0.000136642 2.37089e-05)
(0.000772232 -0.0002172 8.48677e-05)
(-1.90081e-05 -0.000167654 0.00110292)
(-0.000636039 8.22873e-05 0.000623321)
(-4.43258e-05 -0.000116587 -3.59602e-06)
(-0.000120204 0.000200729 -2.138e-05)
(0.000257583 -0.000183129 0.000589337)
(-0.000638105 -7.90685e-05 0.000278487)
(0.000605736 0.000462713 -0.000838457)
(0.000933077 0.00079123 0.000854691)
(-0.000409239 -0.000210503 0.000496685)
(-0.000245304 0.000531946 -0.000284319)
(0.000389495 0.00054789 0.000138423)
(-0.000932014 0.000572948 -0.000958055)
(0.000762089 0.000625169 -0.000479672)
(-0.000134892 0.000485278 0.000834026)
(-0.000259044 -1.619e-05 -0.00128175)
(0.000183744 0.000216829 0.000290132)
(0.00122745 -9.05364e-05 -0.000135835)
(0.000122389 -0.000882557 -0.000777869)
(0.000936873 -0.000306556 -0.000190047)
(0.00113115 -0.000379398 -0.000168964)