/*--------------------------------*- C++ -*----------------------------------*\
  =========                 |
  \\      /  F ield         | OpenFOAM: The Open Source CFD Toolbox
   \\    /   O peration     | Website:  https://openfoam.org
    \\  /    A nd           | Version:  7
     \\/     M anipulation  |
\*---------------------------------------------------------------------------*/
FoamFile
{
    version     2.0;
    format      ascii;
    class       volVectorField;
    location    "0.001";
    object      momentumMean;
}
// * * * * * * * * * * * * * * * * * * * * * * * * * * * * * * * * * * * * * //

dimensions      [1 -2 -1 0 0 0 0];

internalField   nonuniform List<vector> 
1000
(
(-0.000421676 -4.9456e-05 -4.95369e-05)
(-0.000383107 -1.45154e-05 -2.56423e-05)
(-0.000376539 -1.23456e-05 -4.61744e-05)
(-0.000340647 -0.000112367 -9.91164e-05)
(-0.000326354 1.0015e-05 -0.000172813)
(-0.000327433 8.47687e-05 -0.000173641)
(-0.000319624 0.000118615 -0.000134326)
(-0.000341621 8.2223e-05 -7.33923e-05)
(-0.000350474 0.000139129 -6.49108e-05)
(-0.000325464 0.000124816 -9.60002e-05)
(-0.000316007 -2.80198e-05 -0.00013029)
(-0.000294655 -0.00010373 -0.000167948)
(-0.000316023 -0.000363833 -0.000374997)
(-0.00030777 -0.000125471 -0.000198803)
(-0.000282178 -8.43445e-05 -0.000223697)
(-0.000289717 -0.000172556 -0.000716679)
(-0.000293892 -0.000111092 -0.000200051)
(-0.000269809 -5.45399e-05 -0.000207712)
(-0.000258258 0.000262263 -0.000200515)
(-0.000246622 -0.000115919 -0.000171067)
(-0.000235896 -0.000168046 -0.000156799)
(-0.000227937 -5.70213e-05 4.97913e-06)
(-0.00024559 1.33094e-05 2.1846e-05)
(-0.000246093 3.42578e-05 1.95002e-05)
(-0.000253227 -1.16148e-05 6.73857e-05)
(-0.0002702 -3.31338e-05 0.000115097)
(-0.000255572 -2.11385e-05 0.000103571)
(-0.000245404 7.72781e-06 8.92025e-05)
(-0.000245303 -2.10857e-05 5.37907e-05)
(-0.000239204 -6.17753e-05 -8.10964e-05)
(-0.000198809 2.21985e-05 -0.000100926)
(-0.000158487 -7.20136e-05 0.00011633)
(-0.000133033 -2.5777e-05 7.86991e-05)
(-0.000132666 6.09981e-05 -4.75521e-05)
(-0.00014268 0.000149882 -3.8665e-06)
(-0.000136856 0.000174756 3.70583e-05)
(-0.000144261 0.000265707 3.26749e-05)
(-0.000156075 0.000270893 0.000121554)
(-0.000160484 0.000210458 0.000257503)
(-0.000175462 0.000170612 0.000346093)
(-0.000150057 9.23357e-05 0.000391307)
(-0.000147655 1.65383e-05 0.000183241)
(-0.00017863 -1.64488e-05 -0.000125)
(-0.000215366 -2.47771e-06 7.02468e-05)
(-0.00020916 3.7299e-05 0.000149995)
(-0.000208836 0.000181351 0.000212751)
(-0.000154019 0.000238742 0.000260228)
(-0.000153459 0.000176839 0.000272782)
(-0.000165471 -8.77705e-06 0.000665676)
(-0.000170323 2.36123e-05 0.000390801)
(-0.000145825 -1.82189e-05 0.000243554)
(-0.000154561 -0.000100362 0.00016868)
(-0.000143842 -0.000104448 4.77953e-05)
(-9.98712e-05 -0.000105973 -2.5462e-05)
(-6.1679e-05 -0.000125289 1.67447e-05)
(-7.28245e-05 -7.58621e-05 8.21401e-05)
(-5.19191e-05 5.98832e-05 0.000122247)
(-3.44442e-05 8.89838e-05 8.72606e-05)
(-3.85721e-05 8.66719e-05 5.07861e-05)
(-3.20062e-05 6.06992e-05 3.99013e-05)
(-4.67728e-05 -8.17693e-05 0.000166359)
(-5.86649e-05 -4.3945e-05 0.000201396)
(-5.63235e-05 6.41805e-05 8.50167e-05)
(-4.45806e-05 0.000233414 3.30958e-05)
(-1.32384e-05 0.000133032 -9.07884e-05)
(-6.22199e-05 -1.32812e-05 -0.000184986)
(-6.93522e-05 -2.0757e-06 -0.000428029)
(-3.92253e-05 -6.03278e-05 -0.000268678)
(-4.47919e-05 -9.99855e-05 4.97499e-05)
(-7.14203e-05 -0.000167862 0.000121187)
(-6.65006e-05 -0.000196668 0.000138176)
(-7.48957e-05 -0.000132255 0.000125887)
(-7.39421e-05 -0.000200611 0.000203694)
(-6.33238e-05 -0.00020622 0.000226663)
(-2.45282e-05 -0.000324335 0.000252343)
(-1.99207e-05 -0.000370169 0.000232519)
(-2.0381e-05 -0.000522058 0.000437237)
(-2.72858e-05 -0.000440975 0.000299917)
(-2.373e-05 -0.000298595 0.000138863)
(-2.41736e-05 -0.000236181 0.000152282)
(1.24564e-06 -0.00021296 0.000174355)
(-1.38893e-05 -0.000240614 0.000130906)
(-4.61419e-05 -0.000233339 0.000126298)
(-5.31433e-05 -0.000135516 0.000117995)
(-1.75567e-05 -5.763e-05 0.000338638)
(1.30168e-05 0.000138573 0.000512374)
(1.09906e-05 0.000181285 0.000555241)
(1.19178e-06 0.000183048 0.000256722)
(-2.17931e-05 0.000147894 0.000175279)
(-2.65461e-05 0.00016016 0.000248425)
(-4.33174e-05 0.00021342 0.000336051)
(-2.68453e-05 0.0001792 0.000306255)
(-1.67359e-05 0.000168872 0.000336989)
(-8.22362e-06 9.49472e-05 0.000243728)
(5.99323e-06 4.83076e-05 0.0002881)
(1.44494e-05 -0.000150684 0.000476857)
(-2.03295e-05 0.000137947 0.000310395)
(-5.54796e-05 -0.000150944 0.00037839)
(-9.29701e-05 -0.000450827 0.000160273)
(-8.24177e-05 5.29312e-05 0.000278023)
(-4.76347e-05 0.000273554 0.00018491)
(-1.9664e-05 0.000535999 -1.30143e-05)
(-2.29443e-05 0.000425946 0.000372067)
(-1.41474e-05 0.000417321 0.000311831)
(-4.60095e-06 0.00034803 0.000219986)
(-1.31475e-06 0.000369543 0.000235707)
(5.88113e-06 0.000178446 0.000286543)
(-2.93038e-05 0.000150079 0.000177183)
(-2.88542e-05 9.84812e-05 -4.86339e-05)
(-1.63707e-05 -0.000573667 0.00015218)
(-2.51629e-05 3.84366e-05 0.00035827)
(-3.31045e-05 2.17735e-05 0.000134388)
(-4.16598e-05 5.11355e-05 2.94226e-05)
(-7.11618e-05 1.90538e-05 0.000318325)
(-7.70726e-05 -0.000101205 -0.000244674)
(-6.84142e-05 3.13447e-05 -2.78954e-05)
(-7.08003e-05 5.84835e-05 2.17579e-05)
(-5.82566e-05 8.70565e-05 4.14381e-05)
(-1.98984e-05 0.000115725 2.3822e-05)
(-3.86097e-06 -3.07095e-05 0.000145759)
(2.01704e-06 -5.97358e-05 0.000131252)
(1.68159e-05 -8.61088e-05 0.000110422)
(3.70544e-05 -0.000130181 0.00012763)
(5.07849e-06 -0.000180234 0.000113161)
(-1.87023e-05 -0.000215512 0.000205029)
(-2.61479e-05 -0.00016968 0.00019082)
(-1.59672e-06 -0.000151716 0.000142639)
(2.77022e-05 -0.00014446 5.95485e-05)
(8.26343e-05 -0.000125025 7.32589e-05)
(8.2957e-05 -0.000125413 2.87226e-05)
(9.54978e-05 -0.000140118 -4.79265e-05)
(0.000119149 -0.000259067 -2.7588e-05)
(0.000113157 0.000149209 2.90728e-05)
(0.000113103 5.77357e-05 7.4672e-05)
(0.000105685 -0.000164294 0.000168839)
(0.000105186 -0.00017387 0.000159096)
(0.000111654 -0.000258552 -3.57359e-05)
(0.000107202 -0.00027235 -5.76593e-05)
(0.000114291 -0.000138694 -0.000253356)
(0.000116311 -0.000200715 -0.000230898)
(0.000158958 -0.000107523 -3.04411e-05)
(0.000173781 -0.000111548 -2.44223e-05)
(0.000164614 -0.000123824 5.01157e-05)
(0.000154717 -0.000112455 3.96423e-05)
(0.000119196 -7.00025e-05 -7.97003e-05)
(0.000122543 -5.30099e-05 2.83452e-05)
(9.39674e-05 -1.77616e-05 0.000262229)
(6.5769e-05 0.000226854 0.000214348)
(4.3547e-05 0.000230185 6.29334e-05)
(1.80207e-05 0.000219392 3.52512e-05)
(2.97908e-05 7.42829e-05 -1.61139e-06)
(1.54165e-05 1.46357e-05 8.36123e-05)
(-2.12377e-05 5.37021e-05 8.8664e-05)
(-3.6704e-05 3.62175e-05 3.06671e-05)
(-4.68694e-05 -6.48931e-07 -2.7361e-05)
(-3.37795e-05 8.89171e-05 -0.000292515)
(-4.37092e-05 -0.000262556 -4.59381e-05)
(-1.4717e-05 1.37864e-05 -4.83777e-05)
(-1.17e-05 0.000149212 7.81578e-06)
(2.66573e-05 0.00011766 -0.000427187)
(5.10456e-05 0.000135044 5.93468e-05)
(7.03904e-05 0.000102071 4.15035e-05)
(9.26174e-05 0.00010708 5.41413e-05)
(9.27264e-05 0.000125529 3.13089e-05)
(0.000100485 9.23403e-05 2.77876e-06)
(0.000140207 8.74045e-05 -1.47373e-05)
(0.000170818 4.96505e-05 5.21897e-06)
(0.000168666 1.26193e-05 -7.90753e-06)
(0.000132076 -0.000123564 -0.000237618)
(0.000124727 -0.000152023 -0.000294244)
(8.90922e-05 -0.000289159 -0.000349379)
(0.000102442 -0.000587231 -0.000377132)
(8.9509e-05 -0.000499253 -4.72235e-05)
(5.16577e-05 -0.000441971 3.01676e-05)
(6.0749e-05 -0.000428739 7.79604e-05)
(9.53561e-05 -0.00033483 8.843e-05)
(0.000122583 -0.000278361 -5.74086e-05)
(0.000168565 -0.00027867 -0.000210827)
(0.000146736 -0.000289579 -0.00021629)
(0.000148933 -0.000342475 -0.000210469)
(0.000156594 -0.000272906 1.13257e-05)
(0.000129822 -0.000253396 3.38968e-05)
(0.0001563 -0.000211376 2.20915e-05)
(0.000160261 -0.000144906 0.000122297)
(0.000165184 -7.23175e-05 0.000167113)
(0.000138218 -4.93487e-05 0.000221735)
(0.000160437 -4.30887e-05 0.000296766)
(0.000145426 -3.62617e-05 0.000296608)
(0.000109419 3.55809e-05 0.000258963)
(8.91045e-05 3.84407e-05 0.000166058)
(8.06756e-05 4.02171e-05 8.11221e-05)
(8.70506e-05 0.000101417 0.000109005)
(7.6811e-05 0.000237781 0.000153584)
(7.39061e-05 0.000280573 0.000190317)
(6.56953e-05 0.000301012 0.000167186)
(5.67147e-05 0.000316896 9.3307e-05)
(3.26763e-05 0.000112863 -5.18074e-05)
(1.89093e-05 -1.66012e-05 -9.78517e-05)
(-2.12202e-06 -1.53306e-05 -1.69329e-05)
(-4.57399e-05 3.70055e-05 1.00925e-06)
(-2.75193e-06 0.000112635 -0.000213849)
(-6.43767e-06 0.000134438 -0.000297328)
(-2.10858e-05 0.000160442 -0.000298063)
(-3.80565e-05 0.000175303 -0.000306816)
(-6.7526e-05 -0.000188354 -0.000112519)
(-4.48993e-05 -6.5348e-05 -0.000129013)
(-3.48212e-05 0.000281213 -0.000211491)
(-5.15254e-05 0.000209467 -0.000307216)
(-8.30366e-05 4.63922e-05 -0.000331114)
(-8.47286e-05 -0.00019063 -0.000461722)
(-2.31557e-05 1.59186e-05 -0.000345415)
(1.21658e-06 -7.34414e-06 -0.00028587)
(4.33726e-05 5.34832e-05 -0.000306826)
(6.75358e-05 0.000281502 -0.000252375)
(7.67898e-05 0.000267262 -0.000226093)
(9.11828e-05 0.000242993 -0.00011987)
(0.000105759 0.000216981 -0.000196415)
(0.00013361 0.00024079 -0.000361716)
(0.000136724 0.000322552 -0.00033316)
(0.000143716 0.000258367 -0.000281107)
(0.000114017 0.000114481 -0.000245798)
(0.000104992 2.34316e-05 -0.000269085)
(0.00010898 -2.79248e-05 -0.000343749)
(0.000124348 0.000117991 -0.000456283)
(8.38303e-05 0.000191854 -0.000642439)
(5.43449e-05 0.000237551 -0.000577927)
(4.97746e-05 2.08096e-05 -0.00037728)
(2.24455e-05 9.50601e-05 -0.000254199)
(6.5193e-05 8.63846e-05 -0.000199513)
(0.000101051 7.8734e-05 -0.000204244)
(0.000101876 8.11852e-05 -0.000207584)
(9.77334e-05 9.29904e-05 -0.000190855)
(6.15301e-05 0.000141684 -0.000137703)
(8.11928e-05 9.48413e-05 -7.93755e-05)
(5.28611e-05 0.000182915 8.58568e-05)
(4.51297e-05 0.000382981 0.00012134)
(4.68196e-05 0.000528499 2.99528e-05)
(1.64899e-07 0.000231675 -0.000100412)
(2.41755e-05 0.000155478 -5.20173e-05)
(6.69998e-05 0.000143512 -7.93002e-05)
(5.13305e-05 -0.000395255 0.000480315)
(6.13192e-05 -6.03509e-05 -0.000170687)
(2.74049e-05 -0.000190753 -0.000683615)
(1.96433e-07 8.42823e-06 -0.000265508)
(1.46933e-05 -2.31677e-05 -0.000185867)
(5.14322e-05 -0.000673679 -0.000217701)
(4.30476e-05 -0.00012072 -0.000171788)
(2.57321e-05 1.32775e-06 -0.000384247)
(4.35632e-05 1.80706e-05 -0.000357264)
(-2.05144e-05 -0.000138933 -0.000493735)
(-4.53311e-05 -8.53538e-05 -0.000183537)
(-5.21325e-06 -6.12156e-06 -0.000400847)
(2.52477e-05 2.94759e-05 -0.000350582)
(4.44402e-05 2.01671e-06 -0.000226388)
(6.18423e-05 -0.000115811 -0.00025505)
(9.54063e-05 -0.000119707 -0.000287526)
(0.000106269 -0.000161786 -0.000126803)
(8.99002e-05 3.12102e-05 8.82448e-05)
(4.74685e-05 1.8401e-05 0.000162855)
(4.29873e-05 -0.000202015 8.17625e-05)
(5.86767e-05 -0.000186938 -2.21001e-05)
(6.22966e-05 -0.000205435 -1.22783e-06)
(7.15635e-05 -0.000332328 -0.000155063)
(7.25187e-05 -0.000373006 -0.000143771)
(8.96636e-05 -0.000390384 -0.000122627)
(9.61087e-05 -0.000432556 -6.02168e-05)
(8.87381e-05 -0.000504987 -5.74027e-05)
(7.3996e-05 -0.000463944 -1.9689e-05)
(4.36982e-05 -0.000441592 -5.49268e-06)
(7.04848e-05 -0.000445827 -2.01305e-05)
(6.79732e-05 -0.000417386 -5.12295e-05)
(5.6548e-05 -0.000383033 -7.86133e-05)
(7.72369e-05 -0.000345019 -8.96255e-05)
(8.0787e-05 -0.000338035 -6.75079e-05)
(5.83029e-05 -0.000218263 -2.90561e-05)
(3.93061e-05 -0.000259512 1.46034e-05)
(2.89842e-05 -0.000349818 2.11954e-05)
(2.23418e-05 -0.000352836 2.23015e-05)
(1.4356e-05 -0.000348212 2.6116e-05)
(-1.20702e-05 -0.000342713 -2.41821e-05)
(-1.97834e-05 -0.000150771 -9.32589e-05)
(-7.65994e-06 -0.000105128 -7.19075e-05)
(2.05201e-06 -9.62263e-05 -5.97568e-05)
(2.41376e-05 -9.96253e-05 -5.184e-05)
(-1.19753e-06 -5.34706e-05 -7.11446e-05)
(-3.60474e-06 -7.65751e-05 -6.56847e-05)
(-1.58429e-05 -5.93425e-05 -0.000133174)
(9.7549e-06 -9.12985e-05 -0.000136)
(1.68279e-05 -0.000104033 -9.79234e-05)
(1.71085e-05 -0.000282157 -0.00010295)
(4.5858e-05 -0.000259519 -0.000157781)
(1.54799e-07 -0.000130892 -0.000156867)
(7.48668e-06 -0.000117803 -0.000196871)
(7.12287e-06 -0.000178067 -0.000155275)
(8.93254e-06 -0.000191546 -0.000143366)
(2.40347e-05 -0.000125175 -0.000112913)
(1.03561e-05 -7.72231e-05 -7.67901e-05)
(8.595e-05 -0.000184185 0.000199628)
(9.59266e-05 -0.000213553 0.000292787)
(0.000106319 -8.09888e-05 0.000179347)
(0.000142084 4.82896e-06 6.74302e-05)
(0.000127652 -1.25364e-05 6.06639e-05)
(0.000107779 6.92835e-06 8.39772e-05)
(9.26726e-05 2.47074e-05 6.42376e-05)
(7.58809e-05 6.32984e-06 -0.000229436)
(0.000115756 1.01133e-05 -0.000284966)
(0.000139415 -3.54722e-05 -0.000351327)
(0.000146705 6.00742e-05 -0.000276489)
(0.000132957 -1.66288e-05 -0.000234701)
(0.000131868 2.1361e-05 -0.000227319)
(0.000129516 0.000100365 -0.000235514)
(0.000124528 8.20094e-05 -0.000225414)
(0.000129408 -0.000141554 -0.000240319)
(0.000139174 -0.000338953 -0.000203197)
(0.000145437 5.23819e-05 -0.000206648)
(0.000153827 1.60501e-05 -0.000229255)
(0.000139495 1.66396e-05 -0.000223035)
(0.000119668 3.01052e-05 -0.000185413)
(0.000116386 2.59102e-05 -0.000360922)
(8.47459e-05 5.69917e-05 -0.000401134)
(9.22233e-06 -5.37655e-06 -0.000363747)
(-3.98848e-05 2.63068e-06 -0.000311056)
(-7.02584e-05 0.000200776 -0.000134096)
(-7.84407e-05 0.000335651 -0.000126318)
(-0.000103237 0.000456261 -3.2046e-06)
(-0.000109232 0.000278998 -3.18812e-05)
(-5.8711e-05 0.000742168 -0.000369936)
(-4.06041e-05 5.81688e-05 -0.000140471)
(-4.95934e-05 -0.000190838 -0.000229472)
(-4.17619e-05 0.000130969 -1.18897e-05)
(-3.58284e-05 3.76814e-05 6.72272e-06)
(-3.8017e-05 -5.69539e-05 6.60476e-05)
(-3.65405e-05 -0.000191703 7.68002e-05)
(-2.33216e-05 -0.000352601 0.000145379)
(-2.17744e-05 -0.000344739 9.1649e-05)
(-3.17922e-05 -0.000390921 6.80891e-05)
(-4.877e-05 -0.000302826 2.15084e-05)
(-4.24406e-05 -0.00027682 1.1653e-05)
(-3.69344e-05 -0.000294105 -1.97893e-05)
(-1.54469e-05 -0.000247217 -8.82621e-05)
(7.3818e-06 -0.000116513 -5.18418e-05)
(3.82309e-06 -0.000158542 -2.10911e-05)
(3.4802e-05 -0.000241452 0.000102474)
(4.67218e-05 -0.000440578 5.78684e-05)
(7.49534e-05 -0.000382837 -3.74518e-05)
(8.83751e-05 -0.000394261 7.33998e-05)
(9.96683e-05 -0.00022221 2.41824e-06)
(0.000115927 -0.000190518 -9.85848e-05)
(8.58253e-05 0.000194582 1.97745e-05)
(4.04057e-05 0.000109387 3.26806e-05)
(5.11373e-06 -9.46331e-05 1.71792e-05)
(-3.65695e-05 -7.73088e-05 2.75691e-06)
(-1.94074e-05 1.597e-05 -0.000136338)
(2.32485e-05 8.51258e-05 -0.000221001)
(5.79816e-05 0.000128872 -0.000244575)
(4.77959e-05 0.00011569 -0.000272582)
(2.91908e-05 3.03413e-05 -0.000191397)
(7.82936e-06 1.59065e-05 -0.000160521)
(3.15194e-05 6.19829e-06 -2.09545e-05)
(3.98503e-05 8.91357e-05 1.23619e-05)
(4.28836e-05 0.000115415 2.65451e-05)
(7.06131e-05 0.000122918 -2.16995e-05)
(7.37966e-05 8.07788e-05 1.87523e-05)
(6.9068e-05 5.18859e-05 7.34004e-05)
(8.45676e-05 2.72149e-05 0.00012624)
(5.10346e-05 -0.000212372 7.64756e-05)
(4.38598e-05 -1.36969e-05 0.000231864)
(3.73997e-05 1.93107e-05 0.000264845)
(2.64277e-05 -2.43253e-05 0.000263701)
(2.36737e-05 -3.24747e-05 0.000282679)
(2.93767e-05 -1.02909e-05 0.000272722)
(2.87687e-05 -0.00037835 0.000255251)
(-3.5247e-07 -0.000400749 0.000166704)
(6.22971e-06 -0.000422779 4.07542e-05)
(5.90923e-05 -0.000599113 -0.00026484)
(4.11529e-05 -0.000200217 -3.20233e-05)
(-4.53846e-05 -0.000250734 -3.15605e-05)
(-8.33406e-05 1.14013e-05 3.04148e-06)
(-7.03294e-05 8.23305e-05 0.000115406)
(-9.55289e-05 -0.000188567 0.000227631)
(-0.000107907 -0.000170744 0.000261567)
(-7.62236e-05 7.09442e-06 0.000279987)
(-8.13105e-05 8.9689e-05 0.000225086)
(-6.65257e-05 6.73756e-05 0.000209172)
(-4.37819e-05 2.07845e-05 0.000196855)
(-3.37152e-05 -3.60974e-05 0.00011048)
(-4.02517e-05 -9.29553e-05 8.11215e-05)
(-5.3615e-05 -0.000124062 -1.192e-05)
(-8.61679e-05 -0.000172585 -1.55349e-05)
(-8.70104e-05 -0.000156495 6.02413e-05)
(-8.17243e-05 -0.000163691 0.00013186)
(-6.72219e-05 0.000183141 -5.8942e-05)
(-7.02457e-05 8.06241e-05 0.000360811)
(-8.4433e-05 0.000134922 0.000427423)
(-0.000108315 0.000153461 0.000351836)
(-0.000100578 0.000153533 0.00023613)
(-0.000105763 9.15139e-05 0.000279101)
(-9.47173e-05 0.000113053 0.000246889)
(-0.000129132 9.50244e-05 0.000263324)
(-0.00012011 8.61927e-05 0.000281363)
(-0.000129145 3.83305e-05 0.000260697)
(-0.000126193 2.76075e-05 0.000265076)
(-0.000164154 1.88135e-05 0.000393816)
(-0.000208857 6.75321e-05 0.00040794)
(-0.000232806 9.59801e-05 0.000328512)
(-0.000214017 4.48812e-05 0.000277962)
(-0.000212898 0.000202309 0.000439707)
(-0.000213614 0.000114379 0.000343732)
(-0.000230456 0.000126709 0.000155457)
(-0.000238256 0.000166144 0.000107116)
(-0.000246012 0.000237946 0.00025889)
(-0.000245397 0.000290132 0.00018877)
(-0.000269268 0.000166909 0.000262684)
(-0.000269733 0.000156073 0.000231785)
(-0.000270733 0.000165528 0.000147565)
(-0.000289126 0.000156059 0.000176906)
(-0.000254996 0.000274351 4.33584e-05)
(-0.000263826 0.000133414 -6.14666e-05)
(-0.00025112 8.55928e-05 -6.70284e-05)
(-0.000239489 -0.000187175 -0.000144268)
(-0.00023643 -0.000217546 -7.81519e-05)
(-0.000207449 7.86674e-05 5.60482e-06)
(-0.000210546 6.82325e-05 -4.49728e-05)
(-0.000208884 5.36212e-05 -0.000122175)
(-0.000217471 0.000140458 3.17773e-05)
(-0.000221138 0.000216813 8.30648e-05)
(-0.000202906 0.000305703 0.000113277)
(-0.000191677 0.000290065 8.24828e-05)
(-0.000181593 0.000293102 -0.000503815)
(-0.000178001 0.000241052 6.66744e-05)
(-0.000137381 0.000125998 1.04695e-05)
(-0.000112963 0.000235298 0.000111502)
(-9.30171e-05 0.000169035 0.000108172)
(-7.23519e-05 0.000160682 0.000145592)
(-5.45786e-05 8.74869e-05 0.000130974)
(-1.48227e-05 1.41027e-06 3.34279e-05)
(-4.62778e-05 0.000178865 -3.54116e-07)
(-1.46232e-05 0.000117236 0.00013768)
(-4.02609e-05 4.93557e-05 0.000101588)
(-3.82631e-05 -5.76149e-06 7.43543e-05)
(-1.97607e-05 -1.74711e-06 0.000110091)
(3.2691e-05 -3.06648e-05 -0.000427122)
(-5.64925e-07 0.000115297 -0.000150201)
(-1.75776e-05 5.82191e-05 -5.73255e-05)
(-1.42879e-05 5.22621e-05 -4.89971e-05)
(5.63427e-07 4.49724e-05 -3.25072e-05)
(9.66812e-06 2.6236e-07 4.59094e-06)
(6.75459e-05 -7.93295e-05 8.00656e-05)
(9.14648e-05 6.26869e-06 9.32455e-05)
(8.83622e-05 -1.40933e-05 0.000107532)
(9.66853e-05 -3.48806e-05 0.000120294)
(0.000112138 -0.00010412 0.000114951)
(0.000107962 -4.86987e-05 0.000112752)
(0.000124322 -3.50686e-05 0.000155563)
(0.000160475 -0.000116816 0.00016084)
(0.000158982 -0.000117701 0.000132418)
(0.000144682 -0.000126751 8.45987e-05)
(0.00011445 -0.000170656 2.42892e-06)
(0.000104373 -0.000158085 -2.67438e-05)
(9.20536e-05 -0.000170419 -1.3539e-05)
(7.72011e-05 -0.000161902 2.90023e-05)
(5.62314e-05 -0.000193216 3.28563e-05)
(3.6033e-05 -0.000333979 0.000322992)
(3.3926e-05 -0.000507663 0.000328216)
(5.50671e-05 -0.000228373 0.00028596)
(5.77372e-05 -0.000222988 0.000195265)
(4.78988e-05 -0.000241698 0.000164879)
(7.52136e-05 -0.000255562 0.000170139)
(7.48501e-05 -0.000148262 0.000151127)
(5.73056e-05 -0.000127164 0.000138126)
(6.17767e-05 -0.000190357 0.000201168)
(3.2839e-05 -0.000658676 0.000580162)
(6.93707e-06 -8.55683e-05 6.26929e-05)
(1.13514e-05 -3.10494e-05 -3.24957e-05)
(1.24879e-05 -4.43131e-05 -5.2873e-05)
(-1.59309e-06 -5.12344e-05 -2.29826e-05)
(-1.1092e-05 -6.22331e-05 2.10057e-05)
(2.35853e-05 0.000181955 0.000353853)
(4.7593e-05 -4.19198e-05 0.000619412)
(4.82063e-05 -1.80122e-05 9.85102e-05)
(9.16175e-05 2.49892e-06 0.000114732)
(0.000110001 6.51595e-05 0.000137354)
(9.80306e-05 4.84962e-05 0.000217053)
(6.54596e-05 4.25165e-06 0.000263801)
(1.59575e-05 1.44926e-05 0.00022206)
(1.16147e-05 7.7028e-06 0.00024275)
(7.02647e-07 -1.38752e-05 0.000323997)
(5.84188e-05 -6.78762e-05 0.000360975)
(9.80237e-05 -0.000101093 0.000277023)
(0.000132057 -0.000109779 0.000334937)
(0.00016586 -0.000112991 0.000334608)
(0.000165212 -0.000142588 0.00038177)
(0.00016726 -0.00105473 0.00117017)
(0.000154012 -0.000285215 0.000433377)
(0.00015414 -0.000143352 0.000362443)
(0.000178898 -0.000132586 0.000350401)
(0.000181254 -0.000150336 0.000218294)
(0.000162097 -0.000147524 0.000169422)
(0.000139958 -0.000135153 0.000182987)
(0.000144012 -8.37499e-05 0.000204113)
(0.000173778 -0.000141888 4.76302e-05)
(0.000159886 -0.000134474 2.95153e-05)
(0.00014321 -8.85672e-05 0.000252172)
(0.000141999 -1.45e-05 0.000447767)
(0.000153581 9.32911e-06 0.000380782)
(0.000143768 5.11823e-05 0.000361778)
(0.000157901 4.12593e-05 0.000423499)
(0.000204122 8.56615e-05 0.00030967)
(0.000213785 0.000127723 0.000144356)
(0.000184768 0.000276212 0.000182218)
(0.000173984 0.000175706 -0.000140479)
(0.000158462 8.3572e-05 -0.000110693)
(0.000116247 0.000110503 4.48261e-05)
(8.44706e-05 0.000163942 7.37619e-05)
(3.08898e-05 0.000126142 0.0001102)
(-4.00141e-06 -2.18704e-05 0.000439544)
(-4.25924e-05 0.000123249 8.69799e-05)
(-6.04233e-05 0.000188234 4.33202e-05)
(-4.98665e-05 8.13551e-05 4.4127e-05)
(-5.9538e-05 5.94241e-05 5.2179e-05)
(-4.70577e-05 6.84294e-05 9.24551e-06)
(-7.74864e-05 0.000203127 -0.00029636)
(-0.00010444 0.00025693 -9.34947e-05)
(-7.02282e-05 0.000222881 -8.72421e-05)
(-2.03325e-05 0.000204475 -8.25106e-05)
(7.82089e-06 0.00029986 -9.91654e-05)
(2.26701e-06 0.00017069 -0.000359946)
(-3.24584e-05 8.00499e-05 -0.000296869)
(-5.41998e-05 5.61568e-05 -0.000379504)
(-6.92482e-05 -3.10076e-05 -0.00033216)
(-7.04168e-05 0.000154932 -0.000291402)
(-6.3211e-05 0.000229795 -5.75859e-05)
(-7.64327e-05 0.000216014 -3.54437e-05)
(-5.53495e-05 -5.03392e-05 1.49692e-05)
(-6.10163e-05 -5.17174e-05 4.1321e-05)
(-5.79962e-05 2.04608e-05 5.97016e-05)
(-2.07734e-05 8.1458e-05 1.80566e-06)
(-1.63859e-05 7.2489e-05 2.85827e-06)
(-3.07992e-06 0.00010379 -1.14052e-05)
(3.0309e-05 0.000149976 -2.78795e-05)
(3.97268e-05 0.000118101 1.06751e-05)
(5.08824e-05 0.000192501 -1.70116e-06)
(2.81993e-05 0.000213982 -8.81908e-05)
(-1.95318e-05 0.000221207 -0.000120208)
(-1.6702e-05 7.61367e-05 -6.05783e-05)
(-7.30519e-06 -0.000127606 -1.5771e-05)
(2.6038e-05 -0.000361893 0.000131946)
(4.93566e-05 -0.000225326 -9.06416e-05)
(1.15911e-05 -0.000952677 -5.2084e-07)
(-1.25836e-05 -0.000164467 -8.81657e-05)
(-2.51137e-05 -0.000176287 -2.56168e-05)
(-2.18396e-05 -0.000437765 5.86325e-05)
(-2.47854e-05 -0.000324157 8.38232e-05)
(-2.30687e-05 -3.41874e-05 3.9212e-05)
(-2.5107e-05 -5.40022e-05 2.83419e-05)
(-1.44212e-05 -3.58834e-05 7.78309e-05)
(2.28691e-07 -0.000109043 6.70831e-05)
(5.58383e-06 0.000440468 0.000676682)
(8.47918e-06 -0.000136351 1.19744e-06)
(1.61169e-05 -0.000141913 -2.02064e-05)
(7.01376e-05 -2.18753e-05 4.63872e-05)
(5.92314e-05 1.98911e-05 -2.11131e-05)
(5.71276e-05 8.06626e-05 -9.06135e-05)
(5.38773e-05 5.97983e-05 -4.94486e-05)
(5.04647e-05 2.09941e-05 2.37378e-05)
(6.7101e-05 6.52357e-05 6.49591e-05)
(8.65244e-05 6.71447e-05 2.74961e-05)
(8.60162e-05 4.47608e-05 -2.84691e-05)
(9.04497e-05 0.000404871 -0.000288162)
(7.45414e-05 -0.000172454 0.000309994)
(5.34918e-05 9.46736e-06 -0.000158184)
(6.41344e-05 -4.4231e-05 -0.000314603)
(5.88611e-05 -0.000152734 -0.000498941)
(7.51042e-05 0.000145128 -0.000234972)
(-2.84347e-06 0.000167029 -0.000431836)
(-9.23715e-06 3.78316e-05 -0.000485586)
(2.11555e-05 -8.04121e-05 -0.000309325)
(3.61611e-05 -4.07972e-05 -0.000155476)
(1.6305e-05 -9.00406e-05 -0.000414316)
(3.85965e-05 -9.8894e-05 -0.000227893)
(7.86088e-05 -6.37689e-05 -0.000123566)
(8.55387e-05 -3.84154e-05 -5.73543e-05)
(6.15099e-05 0.000261742 -0.000217797)
(7.61579e-05 0.000324954 -0.000245796)
(7.32202e-05 0.00014626 -0.000128751)
(5.31082e-05 0.000135126 -6.88524e-05)
(5.74659e-05 7.46966e-05 -0.000158751)
(3.33666e-05 -0.000119092 -0.000387507)
(2.94308e-05 0.000103368 -0.000138855)
(4.47999e-05 9.07444e-05 -9.25248e-05)
(2.4294e-05 5.04713e-05 -8.06545e-05)
(-1.1963e-05 -0.00015666 0.000186208)
(-2.12039e-05 -0.000230882 0.000250194)
(-2.11841e-05 0.000101552 0.000211254)
(-3.31404e-05 0.000177079 -2.15258e-05)
(-4.79118e-05 2.78716e-05 -7.04581e-05)
(-1.09434e-05 -5.72635e-06 -8.5309e-05)
(7.94291e-06 -1.06913e-05 -5.71489e-05)
(1.71252e-05 -1.02715e-05 3.44957e-05)
(4.94862e-05 -2.99196e-05 7.59103e-06)
(5.90477e-05 -3.14171e-05 3.74682e-05)
(3.55369e-05 -6.68338e-05 -6.64068e-05)
(9.842e-06 -0.000203468 -0.000201376)
(6.00506e-06 -8.7039e-05 -0.000172457)
(1.35977e-06 9.11417e-05 -3.13929e-05)
(1.08728e-06 7.01879e-05 -6.19965e-05)
(-3.00404e-05 7.29059e-05 6.44542e-05)
(-5.58971e-05 7.84626e-05 8.57701e-05)
(-5.56779e-05 0.000151403 1.47991e-05)
(-7.15703e-05 -4.08584e-05 -0.000144122)
(-6.47794e-05 -8.34013e-05 -0.000168264)
(-5.79234e-05 -2.29537e-05 -0.000203508)
(-7.18384e-05 -1.81429e-05 -0.000210927)
(-3.66059e-05 -3.82116e-06 -0.000204655)
(5.42491e-07 -1.25325e-05 -0.000283963)
(-1.13467e-05 3.30189e-05 -0.000319937)
(-4.60816e-05 2.63368e-06 -0.00038856)
(-4.1247e-05 -8.86897e-05 -0.000330599)
(-3.81481e-05 -5.44214e-05 -0.000298357)
(-1.03712e-05 -6.46869e-05 -0.000234465)
(1.24275e-05 -0.000175459 -0.000155924)
(1.98594e-05 -0.00017825 -0.00013503)
(-8.05246e-06 -0.000140091 -8.75961e-05)
(-4.37488e-06 -0.000142563 -5.76485e-05)
(-1.96989e-05 -2.43759e-05 -8.29098e-05)
(5.7135e-06 0.0002912 -0.000369306)
(4.97204e-05 0.000272042 -0.000109967)
(8.49792e-05 0.000968339 -8.34619e-06)
(6.91904e-05 0.000615049 -0.000118156)
(9.89448e-05 0.000424354 -6.41462e-05)
(9.42969e-05 0.000355079 -3.86448e-05)
(9.67196e-05 0.000115725 -7.68169e-05)
(9.38474e-05 -2.66231e-05 -2.59868e-05)
(0.000134527 -2.78381e-05 -1.08767e-05)
(0.000161702 0.000158298 6.03282e-05)
(0.00019151 0.00018634 7.60685e-05)
(0.000195498 0.000131604 6.86438e-05)
(0.000224257 0.000174327 7.07526e-05)
(0.00025096 0.000181165 9.44272e-05)
(0.000240357 0.000234065 -7.00037e-05)
(0.000254035 0.000444826 -0.000156647)
(0.000250537 0.00051731 2.24122e-05)
(0.00023798 0.000474228 -0.000295725)
(0.000239404 0.000407162 -0.000328687)
(0.000222281 0.000125041 -5.93456e-05)
(0.000207241 0.000543876 7.54243e-05)
(0.000143252 7.15028e-05 -0.000126691)
(0.000114365 -6.48937e-07 -2.79124e-05)
(0.000129035 5.46163e-05 5.35893e-05)
(0.000125638 8.28605e-05 4.75396e-05)
(0.000122698 8.01512e-05 5.19646e-05)
(0.000138431 9.29509e-05 2.03495e-05)
(0.000134936 7.48386e-05 -0.000137851)
(0.000152657 4.97441e-05 -0.000178153)
(0.000150128 3.47349e-05 -0.000179175)
(0.000143625 5.71047e-05 -0.000164379)
(0.000152974 8.30806e-05 -0.000185564)
(0.000167663 4.30632e-05 -0.000368063)
(0.000179115 2.81121e-05 -0.000265864)
(0.000184807 -6.63994e-06 -0.000206572)
(0.000193649 6.69795e-06 -0.000280909)
(0.00017538 -2.21183e-05 -0.000219585)
(0.000171824 -5.06969e-05 -0.000141805)
(0.000193962 -5.83167e-05 -0.000108019)
(0.000206086 -5.6169e-05 -8.27601e-05)
(0.000233468 -0.000446117 2.57618e-05)
(0.000240186 -0.00030191 -2.2235e-05)
(0.000222873 -0.00015947 -0.000138787)
(0.00019119 -0.000170191 -2.23612e-05)
(0.000162112 -0.000159604 -2.0596e-05)
(0.000120605 -0.000147503 -3.16995e-05)
(0.000138841 -0.000124278 -8.29733e-06)
(0.000160483 -0.00011206 -1.34226e-05)
(0.000145506 -4.96521e-05 2.66649e-05)
(0.000132367 3.11524e-05 -1.42562e-05)
(0.00013023 5.30339e-05 -1.028e-05)
(0.000107835 7.80466e-05 -6.46832e-05)
(0.000132238 0.00012465 -3.49826e-05)
(0.00012343 0.000106417 1.0753e-05)
(0.000110933 0.000112597 -8.93606e-05)
(0.000136505 9.0675e-05 -0.00010589)
(9.68226e-05 0.000321633 -0.000100138)
(0.000101487 0.000252198 -0.00014491)
(0.000131628 0.000215299 -5.61911e-05)
(0.000152212 0.000210598 -0.000103069)
(0.000148029 0.000513068 0.000449494)
(0.000120827 0.000322204 -3.30833e-06)
(6.95164e-05 4.78099e-05 0.000336759)
(6.16695e-05 8.55724e-05 0.000328023)
(7.31651e-05 6.05975e-05 0.000197956)
(7.88716e-05 0.000134034 0.000106552)
(7.12802e-05 9.15494e-05 0.00011161)
(8.79407e-05 6.34689e-05 9.4905e-05)
(6.82877e-05 5.1785e-05 3.73685e-05)
(2.76396e-05 2.51644e-05 3.57477e-05)
(1.48412e-05 6.16089e-05 0.000167183)
(2.16657e-05 2.80284e-05 0.000199029)
(3.75189e-05 3.07515e-05 0.000297095)
(3.6308e-05 3.72676e-05 0.000343893)
(4.97643e-05 0.000129881 0.000231537)
(5.0668e-05 0.000182071 0.000216499)
(5.96997e-05 6.11609e-05 0.000174159)
(4.79581e-05 -3.13464e-05 0.000119107)
(2.78195e-05 -1.36442e-05 -1.62898e-05)
(7.0203e-06 -5.42425e-05 0.000148263)
(6.50851e-06 -0.000101037 0.000131526)
(1.65287e-06 -1.16234e-05 0.000210233)
(-4.11383e-06 0.000950815 0.00111461)
(-1.4601e-06 3.89918e-05 0.000114894)
(1.56351e-05 9.16487e-05 0.000165582)
(4.71597e-05 0.000110294 0.000154212)
(5.94427e-05 -6.70074e-05 -5.7576e-07)
(4.46484e-05 -0.000139735 6.67858e-05)
(2.5471e-05 -6.09035e-05 0.000407848)
(2.31023e-05 0.000103243 0.000186834)
(1.82198e-05 0.000129821 0.000136682)
(4.21591e-05 0.000141234 0.000101945)
(7.50151e-05 0.000275199 0.000203136)
(4.95879e-05 0.000238203 0.000225184)
(6.52812e-05 0.000176262 0.000135545)
(3.45944e-05 0.000179282 0.000117762)
(9.87064e-06 0.000189742 0.000176732)
(2.11138e-05 0.000540738 0.000561266)
(2.78542e-05 0.0001908 7.22989e-05)
(6.44065e-05 0.000151689 6.19828e-06)
(5.76433e-05 0.000101364 7.7517e-06)
(3.23067e-05 3.35145e-05 -4.84836e-05)
(1.08091e-05 4.12846e-05 -9.72124e-06)
(7.89648e-06 7.35783e-05 8.88752e-05)
(4.27625e-05 0.000113184 5.89601e-05)
(5.82548e-05 -4.86167e-05 6.69957e-05)
(2.35497e-05 9.69205e-05 -4.17579e-05)
(1.65468e-05 0.000428956 -6.32751e-05)
(-7.65754e-06 0.000235844 -0.000199803)
(-6.11204e-05 4.34197e-05 -0.000145836)
(-8.96929e-05 5.02696e-05 -8.5292e-05)
(-8.34368e-05 5.97032e-05 -4.6666e-05)
(-2.70753e-05 -1.45412e-05 5.64264e-05)
(-3.66318e-05 -2.47738e-05 0.000241961)
(-1.70974e-05 -2.24744e-05 0.000230132)
(2.82482e-06 0.00013798 4.76221e-05)
(1.29881e-05 0.00016182 1.04246e-05)
(1.80827e-05 0.000534025 0.000619007)
(-1.5409e-05 0.000141255 4.97814e-05)
(-2.08625e-05 0.000137499 9.39217e-05)
(-3.1687e-05 0.000173673 0.000109866)
(-4.02928e-05 0.000184253 0.000139236)
(-3.56047e-05 9.47558e-05 0.000142022)
(-4.10183e-05 -0.000269225 0.000276026)
(-6.90088e-05 -0.000399202 0.000289877)
(-7.44551e-05 -0.000158817 0.000827492)