/*--------------------------------*- C++ -*----------------------------------*\
  =========                 |
  \\      /  F ield         | OpenFOAM: The Open Source CFD Toolbox
   \\    /   O peration     | Website:  https://openfoam.org
    \\  /    A nd           | Version:  7
     \\/     M anipulation  |
\*---------------------------------------------------------------------------*/
FoamFile
{
    version     2.0;
    format      ascii;
    class       volScalarField;
    location    "0.001";
    object      overallT;
}
// * * * * * * * * * * * * * * * * * * * * * * * * * * * * * * * * * * * * * //

dimensions      [1 2 -2 0 0 0 0];

internalField   nonuniform List<scalar> 
1000
(
171.028
268.602
253.53
270.437
199.133
205.309
283.833
274.533
256.704
178.441
238.572
245.878
180.78
261.461
262.362
230.18
262.733
287.913
280.254
287.724
291.743
239.921
197.171
292.291
285.725
278.914
197.033
281.823
267.363
231.703
227.127
161.997
238.033
271.57
255.567
252.981
177.64
240.987
246.952
195.924
274.385
273.133
202.492
285.594
281.802
262.445
245.973
194.643
222.58
239.858
150.78
259.754
200.267
263.508
283.172
200.635
199.634
154.107
199.608
273.937
253.798
194.641
239.894
238.777
271.11
290.477
224.615
292.399
300.668
223.47
301.829
308.453
304.696
300.047
267.894
259.641
204.913
213.941
274.913
291.51
321.54
335.534
247.692
236.436
225.57
295.343
281.757
308.786
328.147
318.028
290.978
280.179
267.117
193.884
291.998
205.337
319.324
345.487
316.586
244.048
310.98
286.679
300.875
297.282
305.24
328.92
314.377
301.135
244.826
262.111
290.841
332.356
358.495
292.101
330.875
356.813
334.164
340.876
261.025
229.776
332.907
223.98
308.836
310.482
300.83
224.571
226.033
221.369
301.876
301.524
158.116
286.833
299.711
299.487
170.688
276.84
211.391
208.452
269.555
289.803
338.679
332.318
317.609
310.65
210.651
287.645
283.466
287.306
280.084
260.012
188.199
265.229
270.54
260.584
175.431
190.304
217.281
255.006
173.114
205.196
236.008
168.69
246.38
251.38
258.14
182.818
174.534
256.422
258.103
249.884
218.778
171.987
239.411
250.368
188.918
229.57
184.618
245.778
239.179
211.211
172.592
175.578
139.217
229.097
215.847
207.333
153.279
208.174
160.199
222.049
230.592
228.151
146.332
181.561
232.809
237.401
176.162
244.842
247.402
244.372
255.498
257.248
202.967
254.064
272.017
204.792
248.175
185.293
150.144
167.733
235.683
250.983
268.505
269.745
196.425
192.269
197.392
202.273
297.85
227.594
279.007
269.302
271.427
277.96
289.838
299.456
298.942
242.861
338.592
241.342
295.137
297.953
308.888
231.71
301.473
287.966
261.741
298.371
297.362
299.885
276.038
310.899
291.522
220.671
333.367
236.777
324.177
369.016
234.737
264.584
290.86
225.096
270.784
251.587
257.641
270.65
294.739
292.385
298.513
336.221
339.117
338.2
331.111
317.652
226.008
308.547
307.003
302.507
301.53
298.572
290.747
282.759
274.872
266.786
252.839
246.663
251.885
253.865
250.288
256.112
267.802
122.921
276.443
278.764
278.985
277.093
252.684
250.04
246.968
191.1
268.131
275.392
286.245
286.298
203.642
288.927
283.054
213.292
215.8
281.15
151.474
276.723
272.301
275.67
208.425
266.93
256.731
271.626
266.869
267.984
281.619
276.411
290.41
319.688
298.433
291.836
289.445
207.819
295.025
281.108
272.257
272.441
270.309
241.746
200.802
291.167
193.42
268.084
189.842
267.565
192.809
238.71
247.046
192.013
273.461
211.295
308.822
311.087
309.061
230.809
310.352
172.631
269.501
260.087
205.837
267.436
270.865
279.811
282.758
294.987
289.302
278.435
276.034
266.54
186.413
247.054
202.092
276.953
278.869
306.924
291.126
273.846
268.549
204.832
278.873
193.59
216.223
223.392
268.622
280.525
293.373
288.655
285.927
231.453
281.292
298.951
213.534
284.786
293.385
252.112
252.442
257.247
265.601
267.302
266.562
282.82
284.794
276.929
202.634
201.456
201.781
200.112
255.473
257.332
199.035
262.346
196.318
283.193
204.412
202.555
209.975
287.432
269.007
268.704
204.134
279.67
205.487
271.28
280.666
221.65
180.209
198.042
294.132
237.942
317.945
235.232
274.665
236.304
300.898
286.706
286.522
225.352
286.71
255.705
268.614
294.543
308.597
313.936
242.177
293.696
275.007
278.199
277.513
270.515
285.328
267.438
305.304
236.345
221.902
275.614
271.889
229.32
262.543
287.965
288.609
199.912
279.416
190.035
324.816
325.247
236.35
350.071
337.853
307.979
281.159
283.655
281.243
293.42
297.261
215.601
167.535
288.489
228.378
226.246
271.369
290.418
295.406
293.125
302.52
168.935
165.044
266.434
298.534
309.989
286.391
198.683
287.447
302.087
284.859
308.867
310.436
280.545
199.159
195.536
260.007
190.772
251.103
261.268
270.791
283.048
285.475
282.803
279.19
281.481
279.901
201.605
270.132
150.354
278.323
302.029
312.337
235.336
318.736
300.508
300.224
228.632
255.797
298.012
310.523
293.849
252.975
269.749
285.953
197.765
285.476
239.454
200.728
280.506
294.446
217.696
287.594
235.771
284.968
280.135
282.126
271.827
284.999
297.919
187.605
287.079
275.773
278.819
145.91
221.941
303.345
309.334
305.532
170.665
304.898
222.463
305.151
282.146
207.332
278.615
284.179
273.626
244.98
265.846
268.119
268.491
282.333
160.304
247.273
255.57
264.132
193.601
195.379
261.711
263.097
262.15
272.236
261.235
260.246
194.374
200.528
283.81
286.418
204.302
250.217
251.302
274.364
280.765
192.919
268.184
205.82
269.712
264.677
276.72
219.59
281.881
292.623
288.013
272.591
272.009
281.142
204.114
160.542
236.092
190.332
245.652
243.955
254.592
264.265
232.913
239.759
277.239
290.456
288.365
277.522
268.767
202.08
267.377
269.943
265.738
210.815
264.504
172.238
215.694
226.743
274.496
280.491
208.626
266.533
260.816
244.36
189.462
236.717
244.3
256.012
258.765
282.681
219.962
305.557
309.948
296.15
165.713
280.231
314.273
298.039
214.922
285.48
322.348
244.679
315.306
206.754
278.353
284.264
282.21
223.28
291.133
272.475
300.027
264.24
266.948
313.163
274.949
266.28
305.348
292.798
285.806
287.228
290.401
301.233
287.401
293.618
291.536
200.362
188.688
248.45
171.105
141.702
269.182
269.418
179.431
264.23
269.894
196.273
256.369
252.195
147.191
247.651
186.145
253.299
259.729
274.465
198.006
260.952
256.673
244.418
245.991
186.703
257.763
262.296
263.628
305.956
345.46
251.098
258.618
262.167
261.826
270.316
270.795
271.649
243.334
235.242
260.063
255.886
257.629
216.089
196.134
264.669
201.736
209.655
196.828
290.523
161.278
239.761
248.012
307.325
316.477
327.329
291.861
286.907
245.449
269.573
262.033
260.474
254.383
265.645
274.591
280.821
280.445
262.185
292.468
293.265
285.856
272.767
209.195
287.252
249.814
230.024
228.189
261.717
252.129
250.345
256.113
266.565
180.801
248.467
244.077
256.183
260.291
218.319
193.681
200.874
279.595
279.43
273.677
289.699
230.786
280.112
245.752
267.815
288.412
285.234
280.041
264.766
271.687
202.619
204.336
207.822
266.089
274.607
246.894
215.42
281.371
286.808
274.912
270.912
280.764
238.93
310.625
233.515
328.604
234.751
301.813
291.06
222.556
230.005
324.441
223.187
318.044
328.769
306.507
266.46
290.418
304.461
294.538
291.083
278.102
166.743
274.246
217.078
293.729
300.488
177.963
316.682
325.449
230.997
227.66
228.116
295.742
290.286
287.782
306.453
308.171
288.015
290.368
274.252
251.292
280.958
287.639
284.213
196.411
191.573
266.272
142
264.618
337.92
192.272
263.878
217.028
242.569
251.887
205.433
200.28
206.823
296.086
286.766
219.449
223.466
259.591
326.394
258.996
261.495
305.892
268.915
211.905
291.118
310.429
298.67
246.495
206.553
279.836
207.08
215.38
221.858
291.59
219.22
168.848
265.883
258.618
262.056
264.731
221.181
299.699
237.522
290.781
276.967
276.03
281.331
232.485
306.666
343.861
288.423
256.939
250.793
254.59
256
252.133
214.359
275.312
274.915
271.748
281.031
282.252
268.969
272.95
284.547
229.615
268.986
326.484
310.482
220.185
216.85
289.028
306.123
275.262
289.662
306.326
240.246
330.547
320.894
266.371
312.92
315.549
216.164
262.08
271.276
274.878
300.8
306.705
212.482
292.06
289.919
292.968
214.547
212.232
296.914
263.161
161.972
231.895
164.912
255.187
242.802
196.629
257.055
256.311
194.362
281.658
276.307
203.44
278.405
286.456
288.124
287.469
288.638
204.075
266.391
207.172
200.721
256.333
191.546
241.647
257.123
278.431
263.286
244.488
262.82
184.764
234.193
224.641
288.585
278.923
270.292
180.638
243.138
175.212
233.688
179.362
140.459
241.954
246.873
253.988
248.817
177.493
252.657
293.607
211.027
221.629
226.261
222.229
233.969
234.073
234.127
241.064
177.178
177.307
162.474
196.403
239.253
204.467
208.127
203.988
204.829
203.628
212.451
173.067
180.18
264.842
260.435
187.684
182.908
252.245
246.768
257.551
227.034
204.055
139.727
212.925
229.895
237.832
224.561
214.335
215.441
386.818
207.879
225.646
232.731
236.738
)
;

boundaryField
{
    sides
    {
        type            calculated;
        value           nonuniform List<scalar> 2(236.738 171.028);
    }
    empty
    {
        type            empty;
    }
}


// ************************************************************************* //
