/*--------------------------------*- C++ -*----------------------------------*\
  =========                 |
  \\      /  F ield         | OpenFOAM: The Open Source CFD Toolbox
   \\    /   O peration     | Website:  https://openfoam.org
    \\  /    A nd           | Version:  7
     \\/     M anipulation  |
\*---------------------------------------------------------------------------*/
FoamFile
{
    version     2.0;
    format      ascii;
    class       volScalarField;
    location    "0.001";
    object      overallT;
}
// * * * * * * * * * * * * * * * * * * * * * * * * * * * * * * * * * * * * * //

dimensions      [1 2 -2 0 0 0 0];

internalField   nonuniform List<scalar> 
1000
(
225.893
235.803
247.466
257.725
255.252
262.721
267.247
269.768
273.047
272.134
273.066
274.564
272.344
275.727
285.677
281.357
275.758
283.997
279.816
281.767
292.515
296.813
290.807
289.083
290.78
289.801
296.038
301.096
307.154
311.283
307.956
300.178
297.235
297.259
296.262
298.372
298.089
291.327
290.311
291.364
290.124
296.314
296.563
306.738
302.557
299.974
292.101
301.228
305.364
301.936
305.342
310.543
307.607
305.372
301.336
295.702
299.78
297.959
298.801
301.497
292.16
297.922
305.489
302.219
299.569
304.081
300.94
297.629
300.119
298.704
299.915
295.854
289.117
293.842
296.596
299.317
303.779
306.001
309.583
303.292
304.43
298.941
295.665
295.134
302.348
293.941
297.991
293.318
297.739
295.894
293.851
300.32
299.96
304.15
291.502
292.47
298.006
299.089
294.12
296.932
302.919
304.064
313.808
313.564
307.2
307.799
303.521
301.323
291.448
295.55
295.692
299.807
300.962
302.481
299.65
300.906
300.635
304.644
299.166
299.82
296.873
294.353
294.716
293.508
294.596
297.854
300.888
301.046
298.752
296.491
302.363
296.397
298.914
299.143
293.297
293.506
300.899
305.568
304.402
307.255
305.372
302.241
304.712
301.04
302.959
306.036
302.145
303.024
293.296
296.615
296.81
298.653
300.251
298.496
295.205
287.456
290.357
302.848
303.801
300.405
301.095
299.218
294.953
300.66
295.109
300.858
313.188
306.468
305.159
306.141
299.278
303.647
302.856
303.583
300.916
307.558
310.713
303.536
297.011
301.607
305.749
303.011
305.213
301.45
299.205
296.442
298.183
296.135
299.377
296.104
299.228
291.489
293.171
297.236
301.433
306.462
307.286
300.225
302.728
302.784
299.811
298.965
300.751
303.917
300.103
304.993
295.226
292.971
290.211
291.932
299.083
303.187
304.422
300.267
304.592
299.493
301.994
304.809
306.69
305.834
296.153
290.469
287.346
287.788
297.385
293.437
289.118
290.299
289.948
287.061
295.956
293.153
295.595
299.367
296.233
298.215
294.194
297.772
296.334
290.781
290.834
293.327
300.443
298.231
294.719
293.426
290.634
291.824
293.748
298.859
296.466
302.39
305.692
305.386
303.185
297.206
302.625
308.402
300.658
295.983
292.992
294.963
292.481
292.523
294.821
293.905
293.55
297.373
299.362
293.506
288.747
295.734
295.46
299.101
300.291
301.198
306.347
295.052
293.922
291.272
297.845
296.237
295.109
292.716
295.037
296.781
290.347
292.022
302.328
305.954
306.153
308.867
296.638
293.227
297.253
293.827
297.393
294.294
287.266
289.111
284.636
290.185
293.134
300.378
296.102
298.161
298.923
301.507
301.497
301.315
306.642
302.61
305.37
301.536
301.688
303.736
296.277
295.65
298.076
304.423
304.319
308.198
305.997
300.209
306.318
305.114
307.861
307.808
312.666
299.49
296.73
291.035
289.91
295.427
298.078
296.451
297.42
297.305
295.03
298.458
300.576
296.944
293.583
288.466
294.387
291.246
300.144
300.874
305.314
301.814
300.252
305.888
302.906
299.788
295.531
299.442
290.888
290.958
291.533
294.826
299.207
305.768
307.713
303.938
300.687
300.34
297.765
295.952
301.125
299.096
297.167
302.573
298.783
303.612
302.588
300.196
290.696
289.188
289.493
296.205
304.741
295.957
297.753
294.679
295.715
294.892
294.332
292.695
287.164
296.561
298.192
291.996
296.77
298.509
306.124
305.356
299.618
294.654
290.89
287.892
290.444
295.433
300.714
300.609
296.837
292.456
289.904
283.402
290.917
299.261
300.12
304.352
307.149
305.435
303.961
306.141
298.972
300.727
305.571
298.057
294.64
297.092
297.448
301.392
308.309
305.215
303.846
306.901
303.843
299.939
304.107
309.692
310.627
302.726
301.181
300.746
310.278
302.497
300.055
306.471
302.893
297.823
296.982
299.745
301.156
301.686
302.83
303.235
307.449
306.807
302.871
299.434
301.268
293.456
301.387
299.901
310.591
305.784
297.785
299.841
298.57
304.958
311.313
303.317
309.058
305.737
304.783
301.115
291.763
298.493
298.2
298.68
300.53
296.942
300.07
304.207
306.739
303.288
295.811
293.816
292.478
295.7
291.308
288.047
293.647
293.666
289.418
286.027
280.497
276.709
276.036
275.995
277.263
274.857
268.704
265.919
264.503
263.559
258.587
259.794
261.204
266.473
271.606
272.05
276.037
278.427
288.518
292.54
297.912
304.88
309.891
305.021
313.696
318.983
328.584
328.439
325.682
335.497
333.638
333.188
334.819
348.888
331.916
338.916
341.906
340.453
316.261
321.039
323.92
331.019
338.435
329.17
336.321
328.741
310.883
305.427
308.589
311.508
312.304
304.292
307.828
314.746
310.108
308.384
299.319
305.362
297.833
303.262
291.885
298.771
300.889
297.463
294.88
297.278
296.917
305.155
302.709
299.052
300.685
309.182
289.505
289.356
291.578
289.106
293.711
302.894
296.039
294.536
300.598
311.563
303.824
309.135
317.347
317.739
322.704
320.406
329.076
324.677
318.749
315.301
314.936
317.97
308.593
305.742
308.348
311.901
305.094
303.582
308.679
307.613
296.824
281.873
292.988
300.207
308.015
320.583
308.036
314.538
326.926
318.902
301.678
302.887
292.651
286.991
293.639
301.817
307.791
301.756
301.117
304.629
296.504
295.595
295.406
287.255
290.05
300.038
297.757
293.743
293.216
288.678
292.43
296.869
291.162
293.684
285.495
288.986
295.771
300.244
306.643
303.748
305.144
299.24
295.735
309.934
315.898
301.521
303.729
302.891
301.753
300.391
308.78
298.944
286.173
298.028
300.799
293.326
290.995
290.814
303.75
310.606
315.43
304.668
305.405
297.293
306.606
297.666
302.161
300.279
287.699
291.915
289.084
288.37
290.867
278.942
289.128
294.202
300.864
295.418
300.644
301.459
309.655
309.238
311.174
314.791
294.006
289.196
292.625
294.636
296.065
295.235
292.532
301.153
290.54
284.595
289.213
301.616
302.057
294.17
286.479
274.818
287.001
292.392
298.815
307.57
302.614
302.938
301.199
294.654
295.772
293.428
298.08
298.023
299.002
291.46
297.348
290.767
290.709
298.75
296.098
293.495
301.389
305.045
306.829
319.099
322.827
321.921
307.151
296.121
302.491
298.087
306.008
310.945
306.695
305.055
305.035
308.14
298.13
283.611
289.782
289.858
294.943
289.357
291.446
297.821
292.387
294.083
287.32
301.11
297.362
286.8
293.574
286.171
284.544
295.926
293.471
301.08
298.872
298.76
306.233
312.425
313.898
310.963
303.403
311.003
298.111
302.253
302.272
299.427
301.626
307.439
300.632
295.308
288.672
288.133
300.825
306.066
297.33
315.335
302.167
303.234
308.55
315.21
317.427
310.279
299.18
299.906
300.466
298.189
296.233
295.056
293.959
295.832
309.512
316.299
297.541
296.126
303.638
307.195
302.202
299.47
291.843
289.83
302.751
303.717
307.832
300.643
305.526
312.228
302.669
299.933
293.208
290.651
296.215
302.953
312.613
305.253
326.85
309.153
308.639
303.04
298.535
301.113
303.212
315
305.477
308.629
312.997
300.96
301.897
300.079
299.642
289.305
280.394
292.048
281.654
276.697
283.978
289.512
299.879
289.283
287.674
278.537
288.642
305.989
314.261
302.972
304.045
302.093
294.322
291.154
286.105
298.986
296.576
292.074
297.85
293.857
295.268
299.716
297.655
301.721
307.03
316.726
298.629
312.23
306.579
299.817
300.527
299.164
303.373
306.042
302.483
300.661
296.397
299.762
301.623
307.22
300.921
296.258
293.787
307.211
301.576
303.492
291.559
296.74
301.871
302.148
297.352
304.296
294.596
293.773
279.36
284.332
289.527
300.645
290.048
290.272
295.697
295.211
311.055
302.141
301.127
301.19
298.237
276.342
273.177
269.462
279.78
282.824
288.87
295.36
293.63
282.324
280.77
287.425
288.091
282.605
285.305
297.169
301.281
295.078
282.691
284.191
289.848
293.475
279.02
282.31
279.497
278.699
288.212
292.556
276.324
283.063
288.978
292.949
294.166
303.132
299.006
301.157
306.98
312.934
309.886
306.572
302.212
307.722
315.949
309.092
306.886
304.787
298.076
294.561
297.278
297.357
296.517
290.356
296.672
281.209
275.995
280.822
283.48
272.228
275.85
283.749
290.168
298.478
290.242
304.093
316.792
312.367
313.437
314.523
317.719
319.125
305.329
313.468
319.114
314.921
296.029
301.668
297.391
305.8
301.462
297.219
301.468
313.066
316.047
309.594
309.303
290.504
282.793
275.329
281.064
284.175
274.567
290.745
285.049
280.335
281.142
281.303
272.606
268.551
272.587
258.494
267.893
265.169
265.055
262.117
264.535
249.072
237.675
234.033
)
;

boundaryField
{
    sides
    {
        type            calculated;
        value           nonuniform List<scalar> 2(234.033 225.893);
    }
    empty
    {
        type            empty;
    }
}


// ************************************************************************* //
