/*--------------------------------*- C++ -*----------------------------------*\
  =========                 |
  \\      /  F ield         | OpenFOAM: The Open Source CFD Toolbox
   \\    /   O peration     | Website:  https://openfoam.org
    \\  /    A nd           | Version:  7
     \\/     M anipulation  |
\*---------------------------------------------------------------------------*/
FoamFile
{
    version     2.0;
    format      ascii;
    class       volScalarField;
    location    "0.001";
    object      p;
}
// * * * * * * * * * * * * * * * * * * * * * * * * * * * * * * * * * * * * * //

dimensions      [1 -1 -2 0 0 0 0];

internalField   nonuniform List<scalar> 
1000
(
5.24497
5.28457
5.21825
5.22042
5.22546
5.21116
5.22027
5.21541
5.24327
5.21656
5.17411
5.24599
5.21089
5.25745
5.27187
5.27672
5.31436
5.23532
5.28906
5.3079
5.32479
5.34365
5.30915
5.28441
5.23446
5.23377
5.28319
5.24744
5.25774
5.28636
5.31495
5.36354
5.28129
5.32
5.2818
5.29191
5.28243
5.25262
5.30152
5.2525
5.1773
5.25117
5.21337
5.30548
5.20599
5.1858
5.23137
5.20676
5.25928
5.14595
5.2178
5.18832
5.20369
5.16059
5.20373
5.20238
5.15061
5.20206
5.20395
5.26166
5.2869
5.25088
5.17046
5.20274
5.2435
5.22944
5.20732
5.20881
5.14518
5.22265
5.21458
5.19419
5.19517
5.22201
5.26601
5.22479
5.20361
5.23989
5.15256
5.20388
5.23901
5.1948
5.25375
5.21922
5.21649
5.17437
5.23403
5.19214
5.18112
5.19366
5.20777
5.19324
5.13816
5.16724
5.26706
5.23598
5.20691
5.20435
5.24183
5.23107
5.22221
5.23875
5.19085
5.20648
5.18794
5.19863
5.13465
5.10116
5.18232
5.18789
5.185
5.20999
5.23958
5.25173
5.25893
5.20288
5.23443
5.14658
5.19103
5.27525
5.22446
5.14789
5.20803
5.19861
5.19433
5.19807
5.1877
5.20967
5.13497
5.24753
5.19
5.21264
5.23223
5.20682
5.16364
5.19031
5.20569
5.2527
5.27331
5.19382
5.13789
5.17644
5.17791
5.17383
5.20957
5.21375
5.27234
5.30356
5.22643
5.21601
5.21736
5.17552
5.1558
5.23077
5.23276
5.22003
5.28586
5.25145
5.22211
5.22115
5.18369
5.24403
5.27173
5.2242
5.25519
5.265
5.26571
5.21963
5.29358
5.27799
5.20818
5.23528
5.25179
5.21369
5.25979
5.27308
5.23312
5.27294
5.25919
5.28465
5.27416
5.27151
5.19243
5.2201
5.29306
5.31882
5.33424
5.30079
5.32092
5.34198
5.33126
5.38088
5.38447
5.37935
5.28042
5.33246
5.29814
5.27321
5.39342
5.33725
5.24121
5.33676
5.32648
5.29963
5.33628
5.29039
5.2466
5.2542
5.34286
5.29812
5.23932
5.27779
5.26292
5.27672
5.29265
5.27475
5.27209
5.29768
5.27989
5.32578
5.36464
5.31041
5.25583
5.25809
5.25447
5.27352
5.32417
5.34321
5.2801
5.29795
5.30762
5.30392
5.28998
5.29528
5.29536
5.33285
5.24354
5.34555
5.29404
5.30983
5.37738
5.35253
5.27331
5.28936
5.28746
5.35449
5.31509
5.31135
5.31197
5.31242
5.27489
5.26615
5.28339
5.26953
5.31861
5.30927
5.28784
5.28392
5.28361
5.32374
5.32992
5.27153
5.33822
5.33937
5.30331
5.32714
5.29166
5.31514
5.3524
5.36283
5.32554
5.34532
5.36176
5.35846
5.30778
5.26702
5.34734
5.3215
5.35016
5.33938
5.32637
5.34994
5.25316
5.32528
5.27884
5.27203
5.29499
5.22448
5.29823
5.31033
5.28136
5.27804
5.3256
5.247
5.27591
5.29863
5.24937
5.26348
5.23323
5.26874
5.28744
5.26523
5.27337
5.26884
5.19045
5.2392
5.1658
5.18632
5.19188
5.24356
5.20899
5.29
5.19244
5.18141
5.18749
5.1906
5.17087
5.23252
5.2099
5.30227
5.23345
5.2468
5.21193
5.22051
5.26708
5.22641
5.2309
5.25735
5.18179
5.16787
5.19486
5.1771
5.12789
5.21978
5.1604
5.18874
5.16152
5.18963
5.27481
5.25204
5.18236
5.21024
5.23111
5.30487
5.29763
5.28346
5.2483
5.21965
5.24276
5.27133
5.29831
5.30325
5.33352
5.26212
5.23536
5.16462
5.26308
5.21567
5.2204
5.23252
5.19915
5.20028
5.25471
5.22955
5.22728
5.27646
5.29279
5.29584
5.25102
5.2234
5.24944
5.22528
5.30084
5.26757
5.25413
5.27549
5.27268
5.29615
5.28278
5.26859
5.25999
5.28175
5.27569
5.26128
5.21454
5.2688
5.23733
5.23248
5.2637
5.2778
5.26288
5.2234
5.23199
5.22045
5.27745
5.32259
5.2927
5.26768
5.28073
5.32089
5.39259
5.29096
5.28703
5.23277
5.36438
5.33235
5.26776
5.23708
5.34159
5.29251
5.33359
5.29098
5.26189
5.30359
5.27595
5.30021
5.32659
5.29716
5.28226
5.27665
5.27983
5.30299
5.30277
5.31006
5.27658
5.33091
5.36698
5.28334
5.32661
5.28584
5.34
5.24442
5.27509
5.268
5.29716
5.22718
5.22884
5.24891
5.16497
5.21525
5.20423
5.23496
5.21956
5.20203
5.23967
5.1921
5.19149
5.11971
5.10144
5.09694
5.11771
5.08835
5.03368
5.02118
5.02199
4.9576
4.90653
5.00288
4.90371
4.8407
4.80107
4.8153
4.73047
4.66576
4.65031
4.62187
4.60438
4.57295
4.5025
4.39823
4.33195
4.3064
4.25617
4.24934
4.14151
4.13953
4.06669
4.02358
3.94884
3.90409
3.85345
3.76777
3.70318
3.60512
3.57531
3.51817
3.46451
3.34902
3.32265
3.26603
3.09635
2.9887
2.95454
2.82523
2.74399
2.70871
2.58881
2.45149
2.31914
2.16245
2.02431
1.98323
1.94499
1.89269
1.92884
1.86239
1.82974
1.8552
1.83307
1.82406
1.73005
1.72883
1.71433
1.73103
1.69755
1.6807
1.65259
1.66091
1.61587
1.60896
1.57407
1.57561
1.53773
1.54916
1.54002
1.55079
1.51753
1.46681
1.48779
1.51024
1.44658
1.39929
1.40911
1.34983
1.33055
1.28064
1.27865
1.26611
1.24103
1.24104
1.23323
1.20514
1.15463
1.15403
1.11304
1.11822
1.08154
1.06585
1.04851
1.00757
0.988361
0.966634
0.928183
0.927147
0.9109
0.854562
0.846957
0.808368
0.78678
0.753694
0.714167
0.690178
0.667107
0.653186
0.608041
0.593238
0.557984
0.523751
0.529514
0.517095
0.5232
0.524582
0.517693
0.515546
0.507836
0.506741
0.524034
0.51976
0.529757
0.527016
0.5347
0.535666
0.500256
0.508317
0.521996
0.523807
0.523552
0.520174
0.509672
0.512332
0.516989
0.534434
0.520099
0.505905
0.501435
0.527833
0.503137
0.49221
0.500236
0.508036
0.514464
0.496737
0.521762
0.524578
0.540053
0.533366
0.526852
0.531532
0.519139
0.526762
0.514082
0.513754
0.514112
0.517392
0.535104
0.523264
0.521246
0.512695
0.49586
0.505513
0.511231
0.510871
0.505908
0.504486
0.50757
0.504299
0.502745
0.49453
0.490764
0.511837
0.518164
0.528287
0.525701
0.505588
0.502978
0.514439
0.498739
0.492162
0.480768
0.482208
0.484652
0.507482
0.526459
0.5097
0.50049
0.489824
0.501725
0.481002
0.482084
0.499674
0.505299
0.510707
0.490245
0.493725
0.503623
0.512743
0.512887
0.499429
0.5108
0.502895
0.507141
0.491471
0.489359
0.48695
0.499711
0.500927
0.50353
0.49882
0.516156
0.508055
0.495943
0.487686
0.51108
0.514754
0.512777
0.506797
0.506275
0.512675
0.492328
0.499684
0.510268
0.499562
0.482871
0.495104
0.495892
0.493963
0.485495
0.499991
0.50663
0.48946
0.490764
0.517865
0.513421
0.494602
0.510622
0.503404
0.497532
0.518337
0.518679
0.510502
0.497475
0.503001
0.510112
0.487941
0.497781
0.481359
0.488303
0.49296
0.493593
0.4726
0.488611
0.495951
0.483492
0.494309
0.506219
0.513745
0.49573
0.51092
0.499917
0.489056
0.497931
0.49239
0.51611
0.504664
0.503877
0.508279
0.500377
0.493444
0.517038
0.501831
0.502344
0.497051
0.502124
0.493992
0.49862
0.497992
0.513549
0.506455
0.493887
0.500039
0.499821
0.519572
0.512944
0.500097
0.493699
0.499836
0.503418
0.517085
0.491938
0.490249
0.490157
0.475285
0.496599
0.521308
0.51682
0.497898
0.482073
0.506782
0.507592
0.510479
0.485732
0.488402
0.494318
0.514551
0.52538
0.510961
0.514028
0.489021
0.498949
0.485245
0.493032
0.499358
0.495716
0.488089
0.514833
0.512732
0.504793
0.527168
0.512
0.517092
0.518207
0.50173
0.505605
0.492743
0.508744
0.502753
0.502565
0.504631
0.541145
0.526454
0.535254
0.522395
0.536019
0.531365
0.528513
0.513404
0.533225
0.53046
0.530118
0.519182
0.525482
0.5102
0.5218
0.523558
0.523332
0.532582
0.521158
0.512915
0.515741
0.520601
0.514731
0.527564
0.53033
0.510089
0.503987
0.498701
0.514131
0.492924
0.494541
0.503709
0.506134
0.507565
0.506099
0.508285
0.510708
0.506506
0.492372
0.502966
0.51032
0.50054
0.491761
0.503639
0.500982
0.50432
0.504123
0.496983
0.509834
0.504891
0.513088
0.501534
0.498231
0.523275
0.506356
0.503224
0.528006
0.531718
0.497086
0.505937
0.510055
0.525655
0.517477
0.516177
0.520917
0.514857
0.525447
0.517297
0.5151
0.528072
0.523476
0.51034
0.510256
0.512521
0.507463
0.505572
0.499497
0.492495
0.492451
0.498409
0.486925
0.509686
0.5017
0.493279
0.497473
0.492206
0.500685
0.505231
0.498245
0.517266
0.511102
0.508212
0.516439
0.49579
0.486161
0.49487
0.516824
0.501283
0.502487
0.50971
0.486333
0.492414
0.500764
0.49382
0.496376
0.50215
0.506547
0.50195
0.511498
0.499055
0.489395
0.511859
0.519611
0.512856
0.48645
0.511275
0.498337
0.495473
0.518898
0.507205
0.500983
0.492426
0.504072
0.505884
0.498852
0.511981
0.500155
0.48898
0.482882
0.496524
0.505848
0.497135
0.485264
0.496084
0.501885
0.498615
0.497869
0.48606
0.471199
0.485623
0.48255
0.495024
0.483098
0.477973
0.49232
0.471165
0.496901
0.48086
0.48349
0.491075
0.510419
0.528709
0.510934
0.502089
0.534747
0.522487
0.511444
0.523651
0.514103
0.509049
0.512694
0.536692
0.521441
0.501533
0.51214
0.507319
0.514972
0.528797
0.524201
0.509874
0.519731
0.518357
0.520977
0.514488
0.507088
0.537613
0.537793
0.530133
0.539294
0.544021
0.515086
0.496243
0.518321
0.52186
0.514654
0.523764
0.52371
0.514652
0.511124
0.507058
0.522872
0.515121
0.516397
0.516112
0.499423
0.506594
0.505739
0.511148
0.512549
0.525323
0.521638
0.505526
0.498234
0.481139
0.495038
0.479389
0.4889
0.480435
0.481858
0.498764
0.495878
0.501544
)
;

boundaryField
{
    sides
    {
        type            symmetry;
    }
    empty
    {
        type            empty;
    }
}


// ************************************************************************* //
