/*--------------------------------*- C++ -*----------------------------------*\
  =========                 |
  \\      /  F ield         | OpenFOAM: The Open Source CFD Toolbox
   \\    /   O peration     | Website:  https://openfoam.org
    \\  /    A nd           | Version:  7
     \\/     M anipulation  |
\*---------------------------------------------------------------------------*/
FoamFile
{
    version     2.0;
    format      ascii;
    class       volScalarField;
    location    "0.001";
    object      rhoMMean;
}
// * * * * * * * * * * * * * * * * * * * * * * * * * * * * * * * * * * * * * //

dimensions      [1 -3 0 0 0 0 0];

internalField   nonuniform List<scalar> 
1000
(
1.99004e-05
2.00262e-05
1.98756e-05
1.97884e-05
1.97171e-05
2.00159e-05
1.97681e-05
1.95338e-05
1.96618e-05
1.95761e-05
1.96852e-05
1.99983e-05
1.95914e-05
1.97186e-05
1.93806e-05
1.92173e-05
1.94301e-05
1.93594e-05
1.96628e-05
1.96911e-05
1.94017e-05
1.96449e-05
1.9665e-05
1.9427e-05
1.93246e-05
1.91995e-05
1.95341e-05
1.90154e-05
1.93601e-05
1.95579e-05
1.97898e-05
2.01978e-05
1.9929e-05
2.00232e-05
2.01196e-05
2.00766e-05
1.98091e-05
1.98357e-05
1.98836e-05
2.00479e-05
1.98177e-05
1.96388e-05
1.97208e-05
1.9917e-05
1.98214e-05
1.97282e-05
1.95975e-05
1.94939e-05
1.98136e-05
1.9372e-05
1.95814e-05
1.94351e-05
1.92627e-05
1.92932e-05
1.91324e-05
1.92748e-05
1.93798e-05
1.95848e-05
1.9629e-05
1.96152e-05
1.9417e-05
1.92838e-05
1.9106e-05
1.93503e-05
1.93021e-05
1.90896e-05
1.89839e-05
1.91568e-05
1.91586e-05
1.96397e-05
1.95875e-05
1.97083e-05
1.96788e-05
1.98603e-05
2.01172e-05
2.01067e-05
2.00479e-05
1.98721e-05
1.9522e-05
1.93156e-05
1.92138e-05
1.91383e-05
1.93693e-05
1.89829e-05
1.90523e-05
1.9301e-05
1.94544e-05
1.95136e-05
1.96338e-05
1.96184e-05
1.96367e-05
1.99283e-05
1.9697e-05
1.9634e-05
1.96601e-05
1.985e-05
1.97048e-05
1.97932e-05
1.98345e-05
1.95648e-05
1.96759e-05
1.98372e-05
1.95954e-05
1.9542e-05
1.96989e-05
1.94802e-05
1.92365e-05
1.91535e-05
1.94129e-05
1.96572e-05
1.97645e-05
1.97034e-05
1.97685e-05
1.96496e-05
1.99007e-05
1.98663e-05
1.98612e-05
1.98045e-05
1.97044e-05
1.99693e-05
1.97871e-05
1.94546e-05
1.96044e-05
1.96452e-05
1.98238e-05
1.96296e-05
1.94823e-05
1.94227e-05
1.94509e-05
1.96539e-05
1.96827e-05
1.96396e-05
1.98281e-05
1.97816e-05
1.97177e-05
1.96451e-05
1.97427e-05
1.97765e-05
1.95701e-05
1.96836e-05
1.96064e-05
1.9708e-05
1.97781e-05
1.97959e-05
1.97954e-05
1.95155e-05
1.98357e-05
1.97535e-05
1.95966e-05
1.92735e-05
1.95244e-05
1.93083e-05
1.96447e-05
1.96853e-05
1.99395e-05
1.96459e-05
1.99246e-05
1.97144e-05
1.93958e-05
1.92307e-05
1.92452e-05
1.9397e-05
1.96044e-05
1.93277e-05
1.95031e-05
1.93124e-05
1.94728e-05
1.9352e-05
1.97394e-05
1.97034e-05
1.96868e-05
1.9671e-05
1.99687e-05
1.97805e-05
1.99873e-05
1.97398e-05
1.95484e-05
1.97124e-05
1.98539e-05
1.97659e-05
1.96632e-05
1.97535e-05
1.96115e-05
1.98454e-05
2.02193e-05
2.00201e-05
1.98316e-05
1.99677e-05
2.01931e-05
2.04483e-05
2.01385e-05
2.01555e-05
2.026e-05
2.02642e-05
1.98068e-05
2.00552e-05
1.96871e-05
1.96599e-05
2.02172e-05
1.99467e-05
1.97394e-05
1.96268e-05
1.96708e-05
1.94716e-05
1.98301e-05
1.99032e-05
1.96021e-05
1.96952e-05
2.00303e-05
2.00614e-05
1.99042e-05
1.99845e-05
1.99162e-05
1.9992e-05
1.98092e-05
1.99652e-05
1.98048e-05
1.97404e-05
1.9606e-05
1.96791e-05
1.96566e-05
1.93737e-05
1.91974e-05
1.92272e-05
1.94309e-05
1.94915e-05
1.96443e-05
1.96723e-05
1.94644e-05
1.94521e-05
1.9606e-05
1.97931e-05
1.95977e-05
1.95442e-05
1.98517e-05
1.97624e-05
1.94541e-05
1.9723e-05
1.93569e-05
1.95203e-05
1.97436e-05
1.94064e-05
1.93008e-05
1.9282e-05
1.94877e-05
1.98004e-05
1.96419e-05
1.95423e-05
1.94231e-05
1.96444e-05
1.94629e-05
1.97375e-05
1.97256e-05
1.99003e-05
1.99766e-05
1.9762e-05
1.94975e-05
1.96146e-05
1.9591e-05
1.98263e-05
1.9885e-05
2.00382e-05
2.00776e-05
1.95029e-05
1.96172e-05
1.95759e-05
1.93917e-05
1.95194e-05
1.98762e-05
1.9767e-05
1.96915e-05
1.97584e-05
1.98068e-05
2.00091e-05
1.99551e-05
1.95941e-05
1.97978e-05
1.99601e-05
2.02449e-05
2.00647e-05
2.00363e-05
1.98926e-05
1.94099e-05
1.97223e-05
1.97411e-05
1.99142e-05
2.00026e-05
1.97072e-05
1.98461e-05
1.96224e-05
1.96744e-05
1.96791e-05
1.97405e-05
1.98967e-05
1.98837e-05
1.98742e-05
1.97928e-05
1.97705e-05
1.98555e-05
1.98577e-05
1.99535e-05
1.97683e-05
1.95424e-05
1.96828e-05
1.94374e-05
1.94998e-05
1.94246e-05
1.93518e-05
1.9161e-05
1.93556e-05
1.9201e-05
1.95751e-05
1.94718e-05
1.94641e-05
1.93265e-05
1.92774e-05
1.92439e-05
1.9668e-05
1.94169e-05
1.95781e-05
1.94054e-05
1.94068e-05
1.91118e-05
1.92173e-05
1.93802e-05
1.91867e-05
1.91037e-05
1.91149e-05
1.92254e-05
1.93117e-05
1.96298e-05
1.94218e-05
1.90379e-05
1.93885e-05
1.8959e-05
1.96186e-05
1.95689e-05
1.98389e-05
2.01106e-05
1.99954e-05
1.98833e-05
1.99205e-05
1.98183e-05
1.97234e-05
1.99541e-05
1.98336e-05
1.97289e-05
1.98971e-05
1.95993e-05
1.94391e-05
1.95956e-05
1.95616e-05
1.95078e-05
1.94387e-05
1.9596e-05
1.93863e-05
1.97775e-05
1.94591e-05
1.93856e-05
1.93585e-05
1.92519e-05
1.93328e-05
1.95809e-05
1.93131e-05
1.95588e-05
1.94557e-05
1.95345e-05
1.95996e-05
1.94184e-05
1.94182e-05
1.92628e-05
1.92456e-05
1.97731e-05
1.98605e-05
1.99631e-05
1.98274e-05
1.98818e-05
1.99001e-05
1.99333e-05
1.98816e-05
1.97494e-05
1.96423e-05
1.93751e-05
1.94905e-05
1.94265e-05
1.93713e-05
1.94784e-05
1.92299e-05
1.94336e-05
1.96549e-05
1.96877e-05
1.9351e-05
1.93543e-05
1.94508e-05
1.9517e-05
1.95086e-05
1.97283e-05
1.97119e-05
1.98674e-05
2.00703e-05
2.01619e-05
1.99572e-05
1.9872e-05
1.97678e-05
1.99314e-05
1.98522e-05
1.96474e-05
1.96245e-05
1.97782e-05
1.92654e-05
1.95266e-05
1.94221e-05
1.93295e-05
1.97821e-05
1.96498e-05
1.97205e-05
1.95788e-05
1.94555e-05
1.96756e-05
1.94622e-05
1.94005e-05
1.94333e-05
1.94693e-05
1.95692e-05
1.9652e-05
1.96036e-05
1.97461e-05
1.96544e-05
1.96612e-05
1.98939e-05
1.98643e-05
1.95401e-05
1.95444e-05
1.95103e-05
1.98276e-05
1.9504e-05
1.95416e-05
1.94939e-05
1.96479e-05
1.98909e-05
1.96942e-05
1.95412e-05
1.95232e-05
1.96994e-05
1.98647e-05
1.95591e-05
1.98801e-05
1.93535e-05
1.94561e-05
1.94573e-05
1.9263e-05
1.92693e-05
1.92442e-05
1.92419e-05
1.93335e-05
1.91513e-05
1.88629e-05
1.90397e-05
1.86884e-05
1.84967e-05
1.85122e-05
1.83025e-05
1.7952e-05
1.78051e-05
1.77719e-05
1.78454e-05
1.79141e-05
1.76432e-05
1.74821e-05
1.7121e-05
1.72185e-05
1.70475e-05
1.68724e-05
1.68232e-05
1.6292e-05
1.61883e-05
1.62535e-05
1.60696e-05
1.55604e-05
1.54581e-05
1.53395e-05
1.52836e-05
1.50722e-05
1.47366e-05
1.46089e-05
1.44669e-05
1.43185e-05
1.41804e-05
1.41363e-05
1.37269e-05
1.31095e-05
1.27954e-05
1.27175e-05
1.22436e-05
1.19532e-05
1.18881e-05
1.15469e-05
1.1285e-05
1.0738e-05
1.03263e-05
9.86155e-06
9.72908e-06
9.64125e-06
9.46664e-06
9.5715e-06
9.50838e-06
9.41241e-06
9.61417e-06
9.54796e-06
9.5407e-06
9.17724e-06
9.22601e-06
9.21089e-06
9.38655e-06
9.47054e-06
9.38893e-06
9.18009e-06
9.28291e-06
9.15707e-06
9.25646e-06
9.21148e-06
9.23566e-06
9.12679e-06
9.32639e-06
9.29895e-06
9.54267e-06
9.29704e-06
9.22048e-06
9.33488e-06
9.55302e-06
9.23461e-06
9.12597e-06
9.48757e-06
9.27129e-06
9.13632e-06
8.83872e-06
8.82233e-06
8.88766e-06
8.75188e-06
8.82157e-06
8.96904e-06
8.85674e-06
8.54891e-06
8.41656e-06
8.26811e-06
8.35715e-06
8.00317e-06
8.06851e-06
7.98951e-06
7.73516e-06
7.6496e-06
7.53277e-06
7.4332e-06
7.66494e-06
7.53329e-06
7.03952e-06
7.1059e-06
6.93606e-06
6.93908e-06
6.78836e-06
6.61771e-06
6.51918e-06
6.50134e-06
6.42897e-06
6.17875e-06
5.96874e-06
6.00053e-06
5.75513e-06
5.77687e-06
5.84778e-06
5.88324e-06
5.92189e-06
5.71985e-06
5.70288e-06
5.68352e-06
5.79012e-06
5.84488e-06
5.88841e-06
5.86173e-06
5.78576e-06
6.01896e-06
6.1666e-06
5.71532e-06
5.74525e-06
5.85272e-06
5.81459e-06
5.78129e-06
5.76984e-06
5.72066e-06
5.66765e-06
5.70485e-06
5.9223e-06
5.77826e-06
5.77367e-06
5.72915e-06
5.7295e-06
5.59674e-06
5.29519e-06
5.35552e-06
5.75286e-06
5.62127e-06
5.39307e-06
5.75188e-06
5.77507e-06
5.82442e-06
5.92026e-06
5.91457e-06
5.79721e-06
5.68695e-06
5.85075e-06
5.64696e-06
5.74502e-06
5.76385e-06
5.80855e-06
5.87952e-06
5.73083e-06
5.72973e-06
5.78617e-06
5.66626e-06
5.74595e-06
5.76135e-06
5.6233e-06
5.39528e-06
5.69445e-06
5.67463e-06
5.7628e-06
5.96798e-06
5.81535e-06
5.70212e-06
5.80959e-06
5.87283e-06
5.80971e-06
5.78257e-06
5.8508e-06
5.75862e-06
5.83552e-06
5.53036e-06
5.48677e-06
5.38226e-06
5.4301e-06
5.56582e-06
5.639e-06
5.94096e-06
5.83744e-06
5.79739e-06
5.77437e-06
5.88521e-06
5.71869e-06
5.49177e-06
5.67963e-06
5.6762e-06
5.96647e-06
5.6662e-06
5.74304e-06
5.69387e-06
5.83755e-06
5.80762e-06
5.61877e-06
5.74787e-06
5.68625e-06
5.8511e-06
5.66242e-06
5.59046e-06
5.55547e-06
5.70317e-06
5.73124e-06
5.80099e-06
5.63656e-06
5.8354e-06
5.78844e-06
5.59162e-06
5.56436e-06
5.76949e-06
6.02605e-06
5.82331e-06
5.79489e-06
5.85662e-06
5.60383e-06
5.57343e-06
5.65237e-06
5.68968e-06
5.66591e-06
5.6283e-06
5.83441e-06
5.73229e-06
5.64708e-06
5.54053e-06
5.73211e-06
5.69759e-06
5.54606e-06
5.52391e-06
5.80268e-06
5.83964e-06
5.57442e-06
5.57151e-06
5.73665e-06
5.58209e-06
5.84563e-06
6.04209e-06
6.04081e-06
5.91503e-06
5.69509e-06
5.72531e-06
5.5646e-06
5.64318e-06
5.4845e-06
5.56704e-06
5.57779e-06
5.51618e-06
5.51786e-06
5.59848e-06
5.6902e-06
5.48206e-06
5.78408e-06
5.89707e-06
5.85423e-06
5.65824e-06
5.90591e-06
5.53402e-06
5.56448e-06
5.70933e-06
5.63307e-06
5.78815e-06
5.78611e-06
5.786e-06
5.84726e-06
5.64405e-06
5.58262e-06
5.82668e-06
5.6694e-06
5.83598e-06
5.5836e-06
5.69195e-06
5.78204e-06
5.76141e-06
5.62615e-06
5.96432e-06
6.06674e-06
5.72613e-06
5.688e-06
5.66992e-06
5.61435e-06
5.72223e-06
5.6179e-06
5.5507e-06
5.59796e-06
5.52106e-06
5.6247e-06
5.40504e-06
5.31111e-06
5.3525e-06
5.06344e-06
5.27601e-06
5.47636e-06
5.58831e-06
5.60122e-06
5.50519e-06
5.77309e-06
5.75199e-06
5.92236e-06
5.74606e-06
5.51199e-06
5.6662e-06
5.88649e-06
5.82413e-06
5.88545e-06
5.85935e-06
5.54216e-06
5.60726e-06
5.62156e-06
5.61249e-06
5.70357e-06
5.78158e-06
5.54437e-06
5.75763e-06
5.9073e-06
5.6419e-06
5.81343e-06
5.65585e-06
5.70607e-06
5.78477e-06
5.78065e-06
5.65091e-06
5.55594e-06
5.54821e-06
5.48206e-06
5.66492e-06
5.61447e-06
5.99443e-06
5.85348e-06
5.94148e-06
5.79896e-06
5.84052e-06
5.67968e-06
5.64987e-06
5.53484e-06
5.66265e-06
5.63121e-06
5.70195e-06
5.82674e-06
5.75856e-06
5.54553e-06
5.62418e-06
5.66922e-06
5.78425e-06
5.737e-06
5.54943e-06
5.59877e-06
5.71543e-06
5.73171e-06
5.89422e-06
6.11248e-06
5.95752e-06
5.66382e-06
5.68689e-06
5.68695e-06
5.76083e-06
5.61301e-06
5.67091e-06
5.75635e-06
5.76989e-06
5.76739e-06
5.62144e-06
5.64725e-06
5.60703e-06
5.50769e-06
5.34198e-06
5.5224e-06
5.43591e-06
5.35087e-06
5.45974e-06
5.55483e-06
5.64777e-06
5.53716e-06
5.50304e-06
5.35988e-06
5.49235e-06
5.58006e-06
5.75153e-06
5.47857e-06
5.58355e-06
5.76495e-06
5.65661e-06
5.55884e-06
5.8665e-06
6.06982e-06
5.70567e-06
5.85208e-06
5.86464e-06
5.79832e-06
5.91608e-06
5.58076e-06
5.71991e-06
5.68555e-06
5.91323e-06
5.90637e-06
5.88614e-06
5.87504e-06
5.90899e-06
5.73072e-06
5.74397e-06
5.66672e-06
5.81994e-06
5.77524e-06
5.68335e-06
5.63022e-06
5.60732e-06
5.47067e-06
5.4913e-06
5.81163e-06
5.52862e-06
5.46648e-06
5.76908e-06
5.72636e-06
5.67195e-06
5.7975e-06
5.79204e-06
5.80965e-06
5.92177e-06
5.76025e-06
5.9252e-06
5.54507e-06
5.58837e-06
5.502e-06
5.72322e-06
5.38168e-06
5.32303e-06
5.63539e-06
5.31553e-06
5.50235e-06
5.5403e-06
5.44829e-06
5.60185e-06
5.62139e-06
5.68643e-06
5.79117e-06
5.74002e-06
5.53367e-06
5.48944e-06
5.88516e-06
5.80163e-06
5.66504e-06
5.37679e-06
5.87121e-06
5.81453e-06
5.82157e-06
5.95502e-06
5.7277e-06
5.6254e-06
5.59575e-06
5.82378e-06
5.75717e-06
5.8454e-06
6.04669e-06
5.59552e-06
5.57244e-06
5.49078e-06
5.58203e-06
5.57994e-06
5.50682e-06
5.43416e-06
5.54077e-06
5.56378e-06
5.67556e-06
5.58482e-06
5.52897e-06
5.39912e-06
5.44195e-06
5.5242e-06
5.60122e-06
5.42986e-06
5.22788e-06
5.399e-06
5.23154e-06
5.57012e-06
5.5292e-06
5.40109e-06
5.57146e-06
5.53693e-06
5.78268e-06
5.61331e-06
5.56256e-06
5.83738e-06
5.70154e-06
5.60453e-06
5.73362e-06
5.79553e-06
5.76292e-06
5.89289e-06
5.92038e-06
5.79082e-06
5.71613e-06
5.90922e-06
5.82802e-06
5.73897e-06
5.91364e-06
5.96705e-06
5.92404e-06
6.02628e-06
6.08174e-06
5.8182e-06
5.71421e-06
5.55721e-06
5.88835e-06
5.87929e-06
5.81308e-06
5.88812e-06
5.88556e-06
5.71043e-06
5.77797e-06
5.87865e-06
5.8329e-06
5.61168e-06
5.64603e-06
5.70584e-06
5.56355e-06
5.57541e-06
5.50252e-06
5.87562e-06
5.81302e-06
5.84586e-06
5.69921e-06
5.65289e-06
5.75891e-06
5.83209e-06
5.83017e-06
5.76077e-06
5.92735e-06
5.84435e-06
5.64057e-06
5.67498e-06
5.5392e-06
5.51042e-06
5.53228e-06
5.43044e-06
5.49287e-06
5.61255e-06
5.78164e-06
5.74083e-06
5.77251e-06
)
;

boundaryField
{
    sides
    {
        type            symmetry;
    }
    empty
    {
        type            empty;
    }
}


// ************************************************************************* //
