/*--------------------------------*- C++ -*----------------------------------*\
  =========                 |
  \\      /  F ield         | OpenFOAM: The Open Source CFD Toolbox
   \\    /   O peration     | Website:  https://openfoam.org
    \\  /    A nd           | Version:  7
     \\/     M anipulation  |
\*---------------------------------------------------------------------------*/
FoamFile
{
    version     2.0;
    format      ascii;
    class       volScalarField;
    location    "0.001";
    object      rhoMMean;
}
// * * * * * * * * * * * * * * * * * * * * * * * * * * * * * * * * * * * * * //

dimensions      [1 -3 0 0 0 0 0];

internalField   nonuniform List<scalar> 
1000
(
8.24596e-06
9.92019e-06
1.0942e-05
1.13004e-05
1.18107e-05
1.28053e-05
1.34908e-05
1.36352e-05
1.40385e-05
1.43407e-05
1.49851e-05
1.53433e-05
1.61347e-05
1.6284e-05
1.59585e-05
1.65995e-05
1.75753e-05
1.7037e-05
1.80838e-05
1.79991e-05
1.77165e-05
1.76259e-05
1.82855e-05
1.86452e-05
1.89357e-05
1.84907e-05
1.84705e-05
1.84678e-05
1.82966e-05
1.83552e-05
1.87296e-05
1.87347e-05
1.86072e-05
1.93292e-05
1.91559e-05
1.93504e-05
1.96787e-05
2.00721e-05
1.96868e-05
1.99874e-05
2.01348e-05
2.00102e-05
1.96063e-05
1.97388e-05
1.96153e-05
1.93824e-05
2.01059e-05
1.94204e-05
1.91797e-05
1.93789e-05
1.96776e-05
1.92593e-05
1.93168e-05
1.89611e-05
1.94639e-05
1.96651e-05
2.01431e-05
1.96891e-05
1.97644e-05
1.9619e-05
2.00076e-05
1.98589e-05
1.96279e-05
1.96939e-05
1.92824e-05
1.91143e-05
1.96575e-05
1.99326e-05
1.95064e-05
1.941e-05
1.94101e-05
1.97213e-05
2.00475e-05
2.01476e-05
1.95977e-05
1.95506e-05
1.94299e-05
1.93061e-05
1.93146e-05
1.95435e-05
2.03836e-05
1.97888e-05
2.02351e-05
2.05382e-05
1.93171e-05
1.99678e-05
1.97127e-05
2.00334e-05
1.99039e-05
2.02849e-05
1.97759e-05
1.98584e-05
1.94868e-05
1.97067e-05
2.04746e-05
2.05315e-05
1.97282e-05
1.99382e-05
2.01359e-05
1.98467e-05
1.92467e-05
1.9043e-05
1.90874e-05
1.91199e-05
1.92248e-05
1.88804e-05
1.93195e-05
1.90626e-05
1.96517e-05
1.9431e-05
1.92562e-05
1.92595e-05
1.94882e-05
1.90538e-05
1.95963e-05
1.90621e-05
1.92166e-05
1.91816e-05
1.91221e-05
1.95148e-05
1.94923e-05
1.98204e-05
2.00172e-05
1.98477e-05
1.97225e-05
1.94691e-05
1.94332e-05
1.94701e-05
1.98048e-05
1.93439e-05
1.95142e-05
1.96921e-05
1.94547e-05
1.98349e-05
2.00523e-05
2.01258e-05
1.97735e-05
1.9457e-05
1.96404e-05
1.94604e-05
1.94607e-05
1.9791e-05
1.92613e-05
1.92211e-05
1.93535e-05
1.94584e-05
1.96573e-05
1.93094e-05
1.98789e-05
2.01128e-05
2.00527e-05
1.99948e-05
2.00734e-05
2.01494e-05
2.09133e-05
2.10304e-05
2.0385e-05
1.99333e-05
1.99177e-05
2.00507e-05
1.94227e-05
2.00457e-05
1.99311e-05
1.98706e-05
2.07138e-05
1.99604e-05
1.87206e-05
1.94183e-05
1.93519e-05
1.95857e-05
2.02839e-05
2.02646e-05
1.99657e-05
1.99219e-05
1.96485e-05
1.93638e-05
1.9058e-05
1.96066e-05
2.03341e-05
1.94609e-05
1.92633e-05
1.96392e-05
1.95956e-05
1.96726e-05
1.95441e-05
1.95133e-05
2.00049e-05
2.01079e-05
2.03539e-05
2.03537e-05
1.98005e-05
2.05745e-05
2.01851e-05
1.96793e-05
1.95167e-05
1.918e-05
1.94635e-05
1.96511e-05
1.92089e-05
1.93398e-05
1.95864e-05
1.91638e-05
1.92395e-05
1.88805e-05
1.87151e-05
1.90914e-05
1.97503e-05
1.96612e-05
2e-05
1.97767e-05
1.9178e-05
1.89435e-05
1.86529e-05
1.83918e-05
1.84851e-05
1.94035e-05
1.92961e-05
1.86564e-05
1.88288e-05
1.88101e-05
1.93888e-05
1.96919e-05
1.94001e-05
1.97806e-05
1.99439e-05
1.95327e-05
2.01347e-05
1.97777e-05
1.94826e-05
1.9927e-05
1.94804e-05
1.96192e-05
1.99457e-05
1.94106e-05
1.97288e-05
1.96324e-05
1.95659e-05
1.97219e-05
1.93629e-05
2e-05
1.9814e-05
1.91501e-05
1.9341e-05
1.97173e-05
1.97547e-05
2.01637e-05
1.99795e-05
2.02199e-05
2.02201e-05
1.97355e-05
1.97545e-05
1.98039e-05
1.91868e-05
1.93403e-05
1.97195e-05
1.98092e-05
1.93275e-05
1.94048e-05
1.98885e-05
2.01264e-05
1.99734e-05
1.98028e-05
1.99972e-05
1.95412e-05
2.02151e-05
1.98023e-05
2.00916e-05
1.97022e-05
1.95187e-05
2.07614e-05
2.00571e-05
1.93731e-05
2.02712e-05
2.01464e-05
1.97055e-05
1.92286e-05
1.96301e-05
2.02713e-05
1.97735e-05
2.0307e-05
2.02718e-05
2.0244e-05
1.98378e-05
1.96668e-05
1.94573e-05
1.9508e-05
1.97096e-05
1.95678e-05
1.91888e-05
1.92058e-05
1.90978e-05
1.86915e-05
1.93867e-05
1.92816e-05
1.92562e-05
1.93678e-05
1.91809e-05
1.95481e-05
1.9651e-05
1.97486e-05
1.99949e-05
1.98911e-05
1.97251e-05
1.91795e-05
1.93695e-05
1.90154e-05
1.89584e-05
1.91642e-05
1.94312e-05
1.93013e-05
1.88666e-05
1.90886e-05
1.90945e-05
1.92777e-05
1.93066e-05
1.90021e-05
1.9267e-05
1.90516e-05
1.91649e-05
1.88896e-05
1.94897e-05
1.92784e-05
1.91354e-05
1.93563e-05
1.91088e-05
1.9151e-05
1.98901e-05
1.92266e-05
1.87448e-05
2.04484e-05
2.01815e-05
2.01666e-05
2.02734e-05
1.99421e-05
1.96549e-05
1.97011e-05
1.98718e-05
1.99919e-05
2.02001e-05
1.98731e-05
1.94462e-05
1.96878e-05
1.99314e-05
2.08057e-05
2.02167e-05
2.05857e-05
1.94228e-05
1.91851e-05
1.95519e-05
1.94451e-05
2.01516e-05
1.951e-05
1.90235e-05
1.98424e-05
2.06683e-05
2.00406e-05
2.06346e-05
2.02918e-05
2.04058e-05
1.99745e-05
1.97391e-05
1.90114e-05
1.92976e-05
1.92572e-05
1.93025e-05
1.9737e-05
1.97681e-05
1.92882e-05
1.95799e-05
2.0076e-05
2.00498e-05
1.97538e-05
1.96351e-05
1.9678e-05
1.93348e-05
1.96152e-05
2.00045e-05
2.01088e-05
2.0048e-05
1.97188e-05
1.97196e-05
2.02154e-05
1.96865e-05
1.97425e-05
1.94751e-05
1.94408e-05
1.97652e-05
1.96579e-05
1.97173e-05
1.98219e-05
1.97787e-05
1.97346e-05
1.96625e-05
1.95205e-05
1.93541e-05
1.90803e-05
1.98664e-05
1.98592e-05
1.98699e-05
1.94892e-05
1.97976e-05
1.9688e-05
1.95971e-05
1.96781e-05
1.95401e-05
1.99101e-05
2.04621e-05
2.05597e-05
2.01487e-05
1.89228e-05
1.96922e-05
1.89954e-05
1.93354e-05
1.95516e-05
1.9852e-05
1.91049e-05
1.92036e-05
1.96275e-05
1.91293e-05
1.97854e-05
1.99248e-05
1.98904e-05
1.99376e-05
1.96805e-05
1.92638e-05
1.92704e-05
1.93649e-05
1.90848e-05
1.94671e-05
1.99871e-05
2.00231e-05
1.88317e-05
1.9135e-05
1.93771e-05
1.89347e-05
1.94091e-05
1.95047e-05
1.98111e-05
1.98707e-05
1.98792e-05
1.93382e-05
2.00387e-05
2.0001e-05
2.00253e-05
1.9622e-05
1.94494e-05
1.96814e-05
1.9446e-05
1.96497e-05
1.95687e-05
1.97311e-05
2.00443e-05
2.02723e-05
2.08172e-05
2.00902e-05
2.01657e-05
1.95571e-05
2.00889e-05
2.04577e-05
2.00139e-05
1.99597e-05
1.97785e-05
1.9208e-05
1.97395e-05
1.94985e-05
1.95161e-05
1.94986e-05
1.94161e-05
1.99455e-05
1.92953e-05
1.95035e-05
1.90517e-05
1.88867e-05
1.91381e-05
1.87457e-05
1.82596e-05
1.81882e-05
1.81033e-05
1.88334e-05
1.86825e-05
1.79685e-05
1.75596e-05
1.75426e-05
1.72785e-05
1.70474e-05
1.69325e-05
1.66367e-05
1.64541e-05
1.65308e-05
1.5828e-05
1.55322e-05
1.51251e-05
1.49353e-05
1.49136e-05
1.44622e-05
1.43614e-05
1.43074e-05
1.35546e-05
1.32854e-05
1.28244e-05
1.21191e-05
1.14918e-05
1.10134e-05
1.05507e-05
1.0843e-05
9.94984e-06
9.71978e-06
9.39219e-06
9.2821e-06
8.93939e-06
8.67213e-06
8.42975e-06
8.02357e-06
8.06833e-06
7.56904e-06
7.72597e-06
7.53579e-06
7.22296e-06
7.16879e-06
7.30317e-06
7.2826e-06
7.4307e-06
7.34607e-06
6.92408e-06
6.72994e-06
6.62753e-06
6.49128e-06
6.86991e-06
6.68624e-06
6.29005e-06
6.37062e-06
6.38968e-06
6.4435e-06
6.52918e-06
6.57661e-06
6.66147e-06
6.48291e-06
6.15916e-06
5.91503e-06
6.35295e-06
6.07092e-06
6.12684e-06
6.14765e-06
6.3998e-06
6.35178e-06
5.89271e-06
5.8826e-06
5.7052e-06
5.92515e-06
5.98711e-06
5.80762e-06
5.70439e-06
5.88899e-06
5.62929e-06
5.75077e-06
5.67288e-06
5.69753e-06
5.85854e-06
5.75833e-06
5.87655e-06
6.28889e-06
6.42293e-06
5.9606e-06
6.24797e-06
5.81424e-06
5.93026e-06
6.39247e-06
6.25832e-06
5.76426e-06
5.6494e-06
5.73636e-06
5.56233e-06
5.67056e-06
5.45492e-06
5.29949e-06
5.62987e-06
5.63499e-06
5.3482e-06
5.32216e-06
5.52304e-06
5.53769e-06
5.62662e-06
5.49677e-06
5.28205e-06
5.27589e-06
5.28775e-06
5.65998e-06
5.74938e-06
5.63534e-06
5.73101e-06
5.4491e-06
5.6952e-06
5.6773e-06
5.71346e-06
5.49979e-06
5.37772e-06
5.73078e-06
5.64312e-06
5.42818e-06
5.67742e-06
5.62685e-06
5.76809e-06
6.17764e-06
6.01117e-06
5.83587e-06
5.9692e-06
5.62243e-06
5.61394e-06
5.24904e-06
5.53117e-06
5.57244e-06
5.77867e-06
5.76391e-06
5.92294e-06
5.58767e-06
5.25903e-06
5.78704e-06
5.947e-06
6.11463e-06
5.70218e-06
5.49967e-06
5.84412e-06
6.10777e-06
6.04884e-06
6.19101e-06
6.16671e-06
5.96851e-06
6.12649e-06
5.64219e-06
5.61569e-06
5.90399e-06
5.8218e-06
5.81645e-06
5.91085e-06
5.43713e-06
5.70822e-06
5.53117e-06
5.20672e-06
5.60732e-06
5.68056e-06
5.7674e-06
5.68858e-06
5.81238e-06
5.82366e-06
5.52746e-06
5.79227e-06
6.0307e-06
5.9835e-06
5.89155e-06
5.47991e-06
5.62313e-06
5.673e-06
5.69555e-06
5.5693e-06
5.27961e-06
5.61836e-06
5.51432e-06
5.37761e-06
5.66579e-06
5.56035e-06
5.68962e-06
5.57349e-06
5.63696e-06
5.96583e-06
5.81401e-06
5.74566e-06
5.48305e-06
5.79774e-06
5.77786e-06
5.60953e-06
5.52048e-06
5.20998e-06
5.45329e-06
5.6136e-06
5.71694e-06
5.70183e-06
5.52385e-06
5.55919e-06
5.80401e-06
5.81959e-06
6.0028e-06
5.98548e-06
6.12498e-06
5.84203e-06
5.6458e-06
5.39528e-06
5.66358e-06
5.84738e-06
6.08987e-06
6.13323e-06
6.17032e-06
5.86632e-06
5.72589e-06
5.6179e-06
5.52525e-06
5.77332e-06
5.89411e-06
5.88562e-06
5.69637e-06
5.66114e-06
5.88318e-06
6.02791e-06
5.78797e-06
5.80425e-06
5.66579e-06
5.63603e-06
5.98536e-06
5.83098e-06
5.93294e-06
6.01036e-06
5.7324e-06
5.44271e-06
5.45887e-06
5.39528e-06
5.51304e-06
5.33808e-06
5.4698e-06
5.7903e-06
5.76402e-06
5.49072e-06
5.05095e-06
5.26485e-06
5.52118e-06
5.64336e-06
5.29902e-06
5.21614e-06
5.54896e-06
5.79262e-06
5.8447e-06
5.77658e-06
5.73147e-06
5.63999e-06
6.1366e-06
6.12091e-06
6.18915e-06
5.79681e-06
6.1702e-06
6.02245e-06
6.03186e-06
6.1158e-06
5.81262e-06
5.87818e-06
5.67172e-06
5.63813e-06
5.81482e-06
5.70532e-06
5.751e-06
5.78809e-06
5.4162e-06
5.37156e-06
5.67335e-06
5.88202e-06
5.62604e-06
5.58081e-06
5.65475e-06
5.91236e-06
5.80425e-06
5.95188e-06
5.96142e-06
5.67439e-06
5.65068e-06
5.34192e-06
5.95479e-06
5.95618e-06
5.86877e-06
5.61673e-06
5.69311e-06
5.43852e-06
5.59755e-06
5.43097e-06
5.70729e-06
5.48293e-06
5.65998e-06
5.39667e-06
5.59128e-06
5.64057e-06
5.673e-06
5.97397e-06
5.78681e-06
5.65707e-06
5.4069e-06
5.36366e-06
5.23334e-06
5.25462e-06
5.78983e-06
5.61976e-06
5.65882e-06
5.87621e-06
5.83052e-06
5.74077e-06
5.42701e-06
5.5807e-06
5.54059e-06
5.68137e-06
5.37854e-06
5.62766e-06
5.58895e-06
5.25055e-06
5.65428e-06
5.54059e-06
5.72241e-06
5.86807e-06
6.02524e-06
5.72427e-06
5.73054e-06
5.78181e-06
5.34727e-06
5.16789e-06
5.82389e-06
5.65521e-06
5.62325e-06
5.62836e-06
5.48654e-06
5.20707e-06
5.57849e-06
5.65021e-06
5.31042e-06
5.73322e-06
5.6644e-06
5.58174e-06
5.63731e-06
5.63347e-06
5.82959e-06
5.73891e-06
5.88132e-06
6.13161e-06
5.9105e-06
5.70485e-06
5.55338e-06
5.45154e-06
5.59779e-06
5.7882e-06
5.64603e-06
5.36099e-06
5.4498e-06
5.61836e-06
5.77297e-06
5.96839e-06
6.03186e-06
5.82168e-06
6.03791e-06
5.76449e-06
5.58918e-06
5.67753e-06
5.61499e-06
5.71357e-06
5.40841e-06
5.51664e-06
5.60662e-06
5.42271e-06
5.37982e-06
5.6179e-06
5.8919e-06
5.6222e-06
5.62022e-06
5.74798e-06
6.09871e-06
5.91922e-06
5.73554e-06
5.82064e-06
5.78518e-06
5.73577e-06
5.7996e-06
6.04988e-06
5.73601e-06
5.76612e-06
5.83587e-06
5.78146e-06
6.00885e-06
5.93293e-06
5.91201e-06
5.83017e-06
5.91503e-06
5.58767e-06
5.67195e-06
5.63173e-06
5.72392e-06
5.6372e-06
5.54687e-06
5.70962e-06
5.80645e-06
5.88051e-06
5.96386e-06
5.66754e-06
5.50165e-06
5.71043e-06
5.54129e-06
5.65661e-06
5.37912e-06
5.56291e-06
5.37877e-06
5.63696e-06
5.5936e-06
5.77367e-06
5.77053e-06
5.93177e-06
5.82378e-06
5.74054e-06
5.48909e-06
5.65731e-06
5.62976e-06
5.85435e-06
5.47026e-06
5.69718e-06
5.74356e-06
5.98443e-06
6.16846e-06
6.07209e-06
5.98862e-06
6.06279e-06
5.80099e-06
5.75635e-06
5.66835e-06
5.50223e-06
5.35761e-06
5.64533e-06
5.61034e-06
5.7982e-06
5.77344e-06
5.7796e-06
5.99943e-06
6.02082e-06
6.12324e-06
6.15195e-06
5.99083e-06
5.69102e-06
5.60685e-06
5.90666e-06
5.58372e-06
5.36901e-06
5.6401e-06
5.67916e-06
5.56384e-06
5.64405e-06
5.5349e-06
5.69009e-06
5.56814e-06
5.52885e-06
5.64126e-06
5.60174e-06
5.40191e-06
5.73089e-06
5.73101e-06
5.5857e-06
5.54838e-06
5.8826e-06
5.71299e-06
5.65847e-06
5.70044e-06
5.52083e-06
5.76612e-06
5.6687e-06
5.53687e-06
5.39109e-06
5.59139e-06
5.64673e-06
5.46398e-06
5.19033e-06
5.12965e-06
5.17987e-06
5.31913e-06
5.1479e-06
5.67742e-06
5.56559e-06
5.20195e-06
5.37249e-06
5.98106e-06
5.575e-06
5.66068e-06
5.71601e-06
5.8218e-06
5.65614e-06
5.50153e-06
5.20079e-06
5.33378e-06
5.28752e-06
5.0907e-06
5.27229e-06
5.33134e-06
5.21079e-06
5.27705e-06
5.23055e-06
5.02863e-06
4.57711e-06
4.86739e-06
5.00282e-06
4.84146e-06
4.88889e-06
4.74312e-06
4.59885e-06
4.62233e-06
4.10258e-06
4.12525e-06
3.9153e-06
3.7286e-06
3.42961e-06
3.30243e-06
2.98507e-06
2.82522e-06
2.48333e-06
)
;

boundaryField
{
    sides
    {
        type            calculated;
        value           nonuniform List<scalar> 2(2.48333e-06 8.24596e-06);
    }
    empty
    {
        type            empty;
    }
}


// ************************************************************************* //
