/*--------------------------------*- C++ -*----------------------------------*\
  =========                 |
  \\      /  F ield         | OpenFOAM: The Open Source CFD Toolbox
   \\    /   O peration     | Website:  https://openfoam.org
    \\  /    A nd           | Version:  7
     \\/     M anipulation  |
\*---------------------------------------------------------------------------*/
FoamFile
{
    version     2.0;
    format      ascii;
    class       volScalarField;
    location    "0.001";
    object      rhoNMean;
}
// * * * * * * * * * * * * * * * * * * * * * * * * * * * * * * * * * * * * * //

dimensions      [0 -3 0 0 0 0 0];

internalField   nonuniform List<scalar> 
1000
(
3.9025e+19
4.7625e+19
4.9875e+19
7.1175e+19
5.825e+19
5.095e+19
4.8e+19
5.6325e+19
5.0725e+19
5.335e+19
4.965e+19
5.23e+19
4.36e+19
4.11e+19
4.73e+19
4.11e+19
6.525e+19
8.085e+19
6.6575e+19
8.0825e+19
7.5425e+19
6.55e+19
7.515e+19
6.5175e+19
5.425e+19
7.16e+19
8.335e+19
7.65e+19
6.655e+19
5.7425e+19
7.055e+19
7.3275e+19
7.5375e+19
7.225e+19
8.945e+19
8.42e+19
8.965e+19
8.445e+19
7.555e+19
8.8725e+19
6.7225e+19
7.4875e+19
8.6175e+19
8.12e+19
7.545e+19
7.3525e+19
7.1275e+19
8.8725e+19
6.2375e+19
4.9575e+19
5.57e+19
5.9125e+19
5.725e+19
5.4675e+19
4.9475e+19
6.5225e+19
5.785e+19
5.175e+19
4.2725e+19
5.5075e+19
6.605e+19
7.1475e+19
6.3325e+19
8.2975e+19
6.4475e+19
7.83e+19
8.0825e+19
1.024e+20
7.9375e+19
7.43e+19
8.38e+19
7.9575e+19
8.0425e+19
1.021e+20
8.1275e+19
8.19e+19
7.825e+19
7.91e+19
7.365e+19
7.0925e+19
8.4025e+19
6.7675e+19
7.8875e+19
8.41e+19
8.475e+19
7.4325e+19
6.475e+19
7.3275e+19
7.93e+19
6.4025e+19
6.85e+19
5.655e+19
7.6875e+19
7.44e+19
7.82e+19
6.25e+19
4.61e+19
6.4075e+19
7.2625e+19
5.96e+19
6.035e+19
6.605e+19
6.2525e+19
6.1125e+19
5.9925e+19
6.2e+19
7.32e+19
6.5325e+19
6.2975e+19
7.0025e+19
6.5825e+19
6.6525e+19
5.2675e+19
7.2925e+19
9.895e+19
8.07e+19
6.6875e+19
6.605e+19
6.74e+19
6.565e+19
6.5075e+19
7.315e+19
8.3275e+19
7.505e+19
6.975e+19
8.9675e+19
8.4725e+19
5.3325e+19
6.7075e+19
7.0375e+19
7.28e+19
6.3325e+19
6.3075e+19
5.925e+19
6.2425e+19
8.8525e+19
7.2325e+19
7.525e+19
6.795e+19
7.4725e+19
8.1925e+19
7.4925e+19
6.805e+19
6.7025e+19
5.755e+19
5.355e+19
6.7925e+19
7.2975e+19
7.9975e+19
7.555e+19
7.205e+19
7.4275e+19
6.675e+19
5.615e+19
5.9125e+19
6.5675e+19
5.2775e+19
5.375e+19
6.5225e+19
8.4725e+19
8.23e+19
8.6025e+19
5.9975e+19
5.1525e+19
4.9475e+19
7.87e+19
7.335e+19
5.5125e+19
7.0375e+19
7.7875e+19
8.98e+19
8.755e+19
7.9825e+19
8.6275e+19
8.0525e+19
6.9075e+19
7.42e+19
5.99e+19
7.42e+19
6.3225e+19
9.51e+19
7.565e+19
6.77e+19
8.0275e+19
7.8575e+19
8.58e+19
9.8175e+19
7.0375e+19
6.37e+19
7.5375e+19
7.195e+19
9.185e+19
1.018e+20
8.8575e+19
7.4875e+19
8.05e+19
8.7425e+19
7.38e+19
9.7425e+19
9.5975e+19
8.4175e+19
8.4475e+19
9.69e+19
8.3e+19
8.1225e+19
6.5725e+19
8.6325e+19
7.9375e+19
7.3425e+19
8.8825e+19
7.64e+19
8.785e+19
8.12e+19
8.8075e+19
9.84e+19
8.45e+19
1.0175e+20
1.00575e+20
9.3625e+19
9.3625e+19
9.6175e+19
7.585e+19
7.9275e+19
7.78e+19
8.9325e+19
9.6975e+19
8.885e+19
8.64e+19
8.2325e+19
7.5725e+19
8.035e+19
8.115e+19
8.3575e+19
6.3875e+19
7.195e+19
7.0575e+19
6.77e+19
6.295e+19
6.98e+19
7.79e+19
7.01e+19
6.6575e+19
6.67e+19
6.7775e+19
4.1725e+19
5.42e+19
5.2275e+19
6.365e+19
5.97e+19
4.495e+19
7.6075e+19
8.3875e+19
8.1825e+19
6.7125e+19
6.925e+19
8.195e+19
7.9275e+19
8.5375e+19
7.6375e+19
6.835e+19
5.6825e+19
4.57e+19
4.755e+19
6.565e+19
5.7925e+19
5.79e+19
6.5325e+19
8.9825e+19
8.605e+19
7.9875e+19
8.8125e+19
8.4475e+19
7.36e+19
7.3775e+19
6.915e+19
6.22e+19
8.4125e+19
6.555e+19
5.935e+19
7.1125e+19
6.5625e+19
6.47e+19
7.145e+19
7.6025e+19
8.2125e+19
8.87e+19
8.755e+19
8.43e+19
6.25e+19
7.775e+19
6.525e+19
6.5e+19
6.5275e+19
5.6825e+19
5.4525e+19
6.18e+19
8.8e+19
8.5625e+19
7.4825e+19
7.855e+19
7.545e+19
5.9575e+19
7.1825e+19
5.91e+19
5.8875e+19
8.0175e+19
7.3725e+19
8.6475e+19
7.36e+19
8.3675e+19
9.7625e+19
5.9625e+19
7.385e+19
8.265e+19
6.555e+19
6.7625e+19
5.4575e+19
5.8225e+19
6.06e+19
7.815e+19
7.0275e+19
7.0725e+19
7.7925e+19
7.54e+19
5.9175e+19
6.48e+19
8.0475e+19
8.365e+19
8.3575e+19
9.6125e+19
9.4e+19
8.3675e+19
9.49e+19
8.27e+19
8.6275e+19
7.08e+19
6.715e+19
7.385e+19
8.02e+19
9.71e+19
9.4175e+19
8.8775e+19
8.725e+19
7.0075e+19
9.145e+19
7.38e+19
7.8175e+19
7.8975e+19
8.7575e+19
1.0025e+20
8.6025e+19
8.23e+19
6.72e+19
7.66e+19
6.1825e+19
4.945e+19
5.275e+19
6.7675e+19
5.2325e+19
5.355e+19
5.23e+19
6.3825e+19
6.8725e+19
6.3025e+19
5.68e+19
6.7075e+19
6.6375e+19
8e+19
8.5625e+19
8.1625e+19
8.2425e+19
7.485e+19
9.765e+19
8.8925e+19
8.5775e+19
7.825e+19
6.2575e+19
1.0055e+20
8.6075e+19
7.415e+19
6.5575e+19
8.0475e+19
6.145e+19
8.1525e+19
5.27e+19
8.2825e+19
8.3625e+19
6.8425e+19
6.9925e+19
7.6925e+19
8.3425e+19
8.27e+19
9.585e+19
9.8325e+19
8.5075e+19
6.85e+19
6.7725e+19
9.28e+19
8.93e+19
8.19e+19
6.5125e+19
6.9675e+19
7.9675e+19
8.9325e+19
7.9325e+19
7.96e+19
7e+19
6.0125e+19
7.64e+19
9.415e+19
9.8975e+19
9.3175e+19
8.7475e+19
8.8775e+19
7.3525e+19
8.1625e+19
8.3e+19
7.845e+19
9.36e+19
9.815e+19
8.88e+19
8.0975e+19
9.3725e+19
6.79e+19
6.9925e+19
7.225e+19
7.5075e+19
7.0775e+19
7.7725e+19
1.0105e+20
7.12e+19
7.8475e+19
7.8275e+19
7.655e+19
9.275e+19
7.73e+19
5.5175e+19
7.2575e+19
9.495e+19
6e+19
6.2725e+19
6.9425e+19
7.0525e+19
6.1475e+19
7.055e+19
7.6275e+19
6.725e+19
8.1975e+19
7.1475e+19
6.12e+19
6.39e+19
4.9125e+19
6.265e+19
6.7425e+19
6.1025e+19
7.1675e+19
7.39e+19
7.4775e+19
7.4775e+19
6.9025e+19
5.915e+19
7.255e+19
8.735e+19
7.97e+19
8.0125e+19
8.1725e+19
5.9925e+19
6.49e+19
6.7325e+19
5.535e+19
6.15e+19
5.0025e+19
6.055e+19
8.5525e+19
9.22e+19
7.9125e+19
8.8125e+19
7.13e+19
7.19e+19
7.075e+19
6.625e+19
6.92e+19
7.0125e+19
6.255e+19
5.7575e+19
6.6325e+19
6.53e+19
8.1775e+19
8.815e+19
8.03e+19
8.485e+19
8.6125e+19
9.1925e+19
7.645e+19
6.8825e+19
6.7875e+19
7.585e+19
8.4875e+19
7.3725e+19
7.3675e+19
7.175e+19
8.7675e+19
7.8425e+19
7.7e+19
7.54e+19
7.8925e+19
8.1275e+19
7.0575e+19
7.07e+19
6.645e+19
6.74e+19
8.1825e+19
6.73e+19
5.5775e+19
7.045e+19
8.0375e+19
9.2975e+19
6.975e+19
7.72e+19
7.39e+19
6.99e+19
6.9275e+19
7.9875e+19
8.68e+19
7.45e+19
7.5825e+19
6.545e+19
7.62e+19
8.4225e+19
9.0725e+19
7.9e+19
6.17e+19
8.275e+19
7.0175e+19
7.155e+19
7.42e+19
6.805e+19
5.65e+19
7.5375e+19
7.5775e+19
6.9025e+19
7.8575e+19
6.47e+19
6.8575e+19
9.115e+19
7.045e+19
8.02e+19
7.9075e+19
6.4e+19
7.465e+19
8.2175e+19
8.5175e+19
8.3725e+19
7.21e+19
6.9125e+19
6.4025e+19
8.29e+19
8.4425e+19
8.03e+19
9.15e+19
8.9325e+19
1.133e+20
1.043e+20
8.965e+19
5.7575e+19
5.7325e+19
6.5825e+19
7.165e+19
6.88e+19
7.5275e+19
6.9825e+19
8.9825e+19
9.0375e+19
7.4425e+19
5.61e+19
6.9875e+19
6.11e+19
9.0175e+19
8.0975e+19
8.3925e+19
9.945e+19
1.08575e+20
9.5425e+19
7.82e+19
7.2075e+19
7.0175e+19
8.8425e+19
9.965e+19
1.03675e+20
8.2e+19
1.00825e+20
9.01e+19
9.845e+19
9.305e+19
8.6425e+19
8.9875e+19
1.10775e+20
1.09175e+20
8.445e+19
6.27e+19
7.235e+19
7.58e+19
7.675e+19
7.7625e+19
8.6e+19
5.8e+19
7.285e+19
8.6525e+19
8.0725e+19
6.73e+19
8.28e+19
7.2375e+19
7.5425e+19
6.81e+19
8.7675e+19
8.7925e+19
9.28e+19
8.0825e+19
9.685e+19
1.00975e+20
9.075e+19
9.06e+19
6.775e+19
7.685e+19
8.12e+19
6.3675e+19
7.03e+19
7.1925e+19
6.795e+19
6.91e+19
7.005e+19
1.0055e+20
1.01375e+20
8.975e+19
7.2725e+19
7.81e+19
7.4825e+19
7.82e+19
7.215e+19
8.7025e+19
1.0105e+20
8.2925e+19
8.7775e+19
7.245e+19
6.53e+19
7.095e+19
7.255e+19
6.355e+19
6.79e+19
7.8325e+19
7.1825e+19
6.83e+19
8.8175e+19
6.765e+19
6.625e+19
6.9025e+19
7.2175e+19
7.09e+19
6.6575e+19
6.8575e+19
8.0475e+19
5.78e+19
5.8825e+19
4.7375e+19
6.5625e+19
5.0575e+19
6.2225e+19
6.15e+19
5.77e+19
5.765e+19
4.6325e+19
7.5175e+19
6.77e+19
5.165e+19
7.7025e+19
9.055e+19
8.2725e+19
1.033e+20
9.4825e+19
7.9675e+19
7.3975e+19
8.6e+19
8.3925e+19
7.87e+19
7.5375e+19
7.745e+19
8.8325e+19
8.5425e+19
7.9725e+19
9.4275e+19
8.275e+19
9.2825e+19
7.765e+19
8.2525e+19
6.715e+19
6.6775e+19
8.47e+19
8.4525e+19
7.9025e+19
9.99e+19
8.195e+19
8.435e+19
8.04e+19
7.03e+19
8.115e+19
9.4075e+19
9.1925e+19
8.035e+19
7.8825e+19
8.49e+19
9.465e+19
1.09225e+20
1.11725e+20
1.11575e+20
1.04075e+20
9.065e+19
7.68e+19
7.19e+19
8.5175e+19
8.79e+19
8.5075e+19
9.13e+19
6.2e+19
7.55e+19
7.7775e+19
7.825e+19
8.1975e+19
8.8375e+19
7.455e+19
8.0625e+19
7.3975e+19
6.7975e+19
6.2375e+19
6.285e+19
7.005e+19
8.6025e+19
9.34e+19
9.5975e+19
8.9625e+19
8.6575e+19
7.8475e+19
7.6725e+19
8.0875e+19
8.3675e+19
7.095e+19
8.7325e+19
7.245e+19
7.9275e+19
7.7475e+19
8.2975e+19
8.64e+19
9.4525e+19
7.495e+19
7.195e+19
9.0625e+19
9.9325e+19
1.1095e+20
1.00675e+20
1.02975e+20
9.5525e+19
9.9525e+19
9.6025e+19
9.7425e+19
9.4475e+19
9.2575e+19
9.8825e+19
7.075e+19
8.0225e+19
6.25e+19
6.595e+19
7.4625e+19
7.5275e+19
6.0375e+19
5.6975e+19
6.68e+19
7.0575e+19
6.2725e+19
6.555e+19
5.6275e+19
5.8875e+19
7.2475e+19
7.5775e+19
7.785e+19
8.525e+19
8.6775e+19
7.4e+19
7.6775e+19
9.1225e+19
9.9625e+19
9.68e+19
7.05e+19
5.95e+19
5.645e+19
5.79e+19
5.9825e+19
7.5275e+19
7.4125e+19
7.3925e+19
9.12e+19
8.065e+19
8.0025e+19
8.5325e+19
6.33e+19
5.6e+19
5.5975e+19
7.3675e+19
7.4975e+19
6.57e+19
6.635e+19
5.4825e+19
7.4e+19
6.6925e+19
6.42e+19
6.5e+19
7.8575e+19
7.9625e+19
9.2475e+19
9.975e+19
8.9325e+19
7.9475e+19
9.3575e+19
9.7375e+19
7.5e+19
8.3625e+19
8.49e+19
8.96e+19
9.66e+19
9.3975e+19
9.4275e+19
7.555e+19
6.375e+19
8.6325e+19
6.14e+19
7.76e+19
9.0275e+19
8.3525e+19
9.0425e+19
9.98e+19
8.8725e+19
8.345e+19
9.2725e+19
7.3225e+19
8.43e+19
6.13e+19
5.5875e+19
6.1325e+19
5.23e+19
6.635e+19
8.2775e+19
6.665e+19
5.3425e+19
6.3525e+19
8.6325e+19
8.2875e+19
8.69e+19
8.8125e+19
7.485e+19
7.17e+19
7.6975e+19
8.935e+19
8.685e+19
9.0825e+19
8.0075e+19
6.6925e+19
7.9375e+19
1.0135e+20
1.05525e+20
9.4975e+19
7.6125e+19
7.1025e+19
8.0425e+19
9.3025e+19
8.815e+19
1.0115e+20
9.6025e+19
1.027e+20
7.5425e+19
7.885e+19
7.83e+19
7.395e+19
7.59e+19
7.655e+19
6.6175e+19
6.915e+19
8.9e+19
9.15e+19
9.35e+19
1.0855e+20
8.96e+19
8.67e+19
9.505e+19
9.0125e+19
9.1675e+19
1.1185e+20
6.405e+19
5.78e+19
6.7875e+19
7.8975e+19
7.0725e+19
6.8975e+19
8.2075e+19
9.8975e+19
8.885e+19
9.645e+19
7.9375e+19
7.3075e+19
9.505e+19
7.655e+19
8.25e+19
6.6725e+19
8.3325e+19
7.735e+19
6.95e+19
8.6875e+19
8.03e+19
7.2525e+19
5.375e+19
6.17e+19
6.435e+19
6.735e+19
7.625e+19
8.1025e+19
7.845e+19
8.3425e+19
6.96e+19
6.91e+19
6.8325e+19
7.9875e+19
7.73e+19
6.615e+19
7.4425e+19
5.3975e+19
6.04e+19
5.56e+19
5.9575e+19
7.12e+19
6.635e+19
7.1925e+19
8.885e+19
9.4475e+19
1.0125e+20
7.9225e+19
8.075e+19
8.055e+19
6.575e+19
6.7975e+19
7.65e+19
8.4975e+19
7.0675e+19
7.8825e+19
6.93e+19
7.135e+19
8.55e+19
8.815e+19
7.71e+19
6.105e+19
6.0925e+19
6.2225e+19
6.0525e+19
5.25e+19
5.1475e+19
6.6625e+19
6.2175e+19
7.1725e+19
6.3e+19
5.915e+19
5.815e+19
5.9925e+19
8.3975e+19
7.535e+19
6.515e+19
7.3175e+19
8.4875e+19
9.5275e+19
8.8925e+19
7.33e+19
6.7475e+19
6.3475e+19
6.58e+19
7.38e+19
5.6125e+19
4.19e+19
4.7275e+19
4.98e+19
4.445e+19
4.4975e+19
5.115e+19
5.525e+19
5.7525e+19
4.04e+19
5.36e+19
4.5325e+19
3.9375e+19
4.58e+19
3.6975e+19
4.3225e+19
3.545e+19
4.3325e+19
3.265e+19
3.1725e+19
)
;

boundaryField
{
    sides
    {
        type            calculated;
        value           nonuniform List<scalar> 2(3.1725e+19 3.9025e+19);
    }
    empty
    {
        type            empty;
    }
}


// ************************************************************************* //
