/*--------------------------------*- C++ -*----------------------------------*\
  =========                 |
  \\      /  F ield         | OpenFOAM: The Open Source CFD Toolbox
   \\    /   O peration     | Website:  https://openfoam.org
    \\  /    A nd           | Version:  7
     \\/     M anipulation  |
\*---------------------------------------------------------------------------*/
FoamFile
{
    version     2.0;
    format      ascii;
    class       volScalarField;
    location    "0.001";
    object      rhoN;
}
// * * * * * * * * * * * * * * * * * * * * * * * * * * * * * * * * * * * * * //

dimensions      [0 -3 0 0 0 0 0];

internalField   nonuniform List<scalar> 
500
(
2.9125e+20
2.8375e+20
3.625e+20
3.8125e+20
3.5875e+20
4.375e+20
4.6875e+20
4.8125e+20
5.1125e+20
4.975e+20
5.225e+20
5.625e+20
5.8875e+20
6.1375e+20
6.5875e+20
6.1375e+20
6.7625e+20
7.5125e+20
7.1125e+20
7.6875e+20
7.2375e+20
7.7375e+20
7.6125e+20
8.1e+20
7.925e+20
8.025e+20
8.0625e+20
7.65e+20
8.2e+20
7.2125e+20
7.575e+20
7.5125e+20
8.0875e+20
8.225e+20
7.8e+20
7.525e+20
7.225e+20
8.35e+20
8.1375e+20
7.4625e+20
7.6e+20
7.9625e+20
7.8875e+20
8.2125e+20
7.7125e+20
8.1875e+20
7.8625e+20
7.825e+20
7.7e+20
7.3875e+20
7.9375e+20
7.7e+20
7.7375e+20
8.2375e+20
7.8e+20
7.8125e+20
7.7375e+20
8.575e+20
8.25e+20
7.75e+20
7.9e+20
7.625e+20
8.225e+20
7.325e+20
7.675e+20
7.1e+20
8.075e+20
8.0625e+20
7.85e+20
7.9625e+20
8.1e+20
7.275e+20
7.425e+20
7.7125e+20
8.3125e+20
7.9375e+20
7.4e+20
7.9625e+20
8.3625e+20
7.8625e+20
7.925e+20
7.6875e+20
7.3e+20
7.7e+20
7.4625e+20
7.7625e+20
7.8875e+20
8.5e+20
8.15e+20
7.7625e+20
8.1125e+20
7.575e+20
8.4125e+20
7.6125e+20
7.5625e+20
7.7875e+20
8.1625e+20
7.6625e+20
8.4e+20
8.05e+20
7.7375e+20
8.025e+20
6.95e+20
8.1125e+20
8.125e+20
8.225e+20
7.7125e+20
7.775e+20
7.6375e+20
7.8625e+20
7.4875e+20
8.5875e+20
8.1875e+20
7.85e+20
8.3125e+20
7.575e+20
7.9e+20
7.775e+20
7.55e+20
7.8625e+20
7.625e+20
7.9625e+20
7.425e+20
7.6375e+20
7.6125e+20
8.3875e+20
8.225e+20
8.1625e+20
7.5e+20
7.8375e+20
8.0375e+20
7.7375e+20
7.8375e+20
7.7625e+20
7.4875e+20
7.6e+20
8.1625e+20
8.45e+20
7.8375e+20
7.65e+20
7.2625e+20
7.4875e+20
7.8375e+20
8.1375e+20
7.2625e+20
8.0125e+20
7.5875e+20
7.625e+20
8.0375e+20
8.1e+20
7.85e+20
7.9375e+20
7.925e+20
7.9625e+20
7.45e+20
7.15e+20
8.1625e+20
7.9e+20
8.875e+20
8.0125e+20
7.65e+20
7.65e+20
8.1875e+20
7.925e+20
7.7125e+20
8.425e+20
7.7125e+20
7.925e+20
7.875e+20
7.5375e+20
7.7125e+20
7.7875e+20
7.8e+20
7.7375e+20
7.5e+20
7.7875e+20
7.85e+20
7.9e+20
7.7e+20
7.625e+20
7.8625e+20
8.125e+20
7.7875e+20
8.275e+20
7.4625e+20
7.95e+20
7.6875e+20
8.1375e+20
8.2125e+20
8.05e+20
7.275e+20
8.2375e+20
7.975e+20
7.9875e+20
7.9e+20
7.2125e+20
7.7625e+20
7.5125e+20
7.575e+20
8.0125e+20
7.6125e+20
7.525e+20
7.6875e+20
7.8375e+20
8.125e+20
7.65e+20
7.3875e+20
8.4875e+20
8.2875e+20
7.9875e+20
8.2125e+20
7.975e+20
8.0375e+20
8.0125e+20
7.6125e+20
7.6625e+20
7.4625e+20
7.9e+20
7.8625e+20
8.0125e+20
7.7125e+20
7.75e+20
8.3375e+20
8.1625e+20
7.4375e+20
7.3375e+20
8.125e+20
8.1875e+20
7.4375e+20
7.5125e+20
7.25e+20
7.5875e+20
7.9375e+20
7.45e+20
7.225e+20
7.425e+20
7.825e+20
7.6625e+20
8.5e+20
7.825e+20
8.3625e+20
7.1875e+20
8.1875e+20
7.9375e+20
7.8e+20
7.3e+20
7.8125e+20
8e+20
7.175e+20
7.8875e+20
7.5125e+20
7.6375e+20
8.0125e+20
7.6e+20
8.075e+20
7.8125e+20
7.55e+20
7.975e+20
7.65e+20
8.125e+20
7.95e+20
7.725e+20
7.9875e+20
7.9625e+20
7.725e+20
8e+20
7.575e+20
7.1e+20
6.6e+20
7.9125e+20
7.925e+20
7.3875e+20
7.5625e+20
7.875e+20
8.0625e+20
7.8e+20
7.875e+20
7.45e+20
7.725e+20
7.9e+20
7.7125e+20
7.875e+20
7.9375e+20
8.2875e+20
7.7625e+20
7.675e+20
8.075e+20
7.875e+20
7.425e+20
7.5375e+20
7.9875e+20
8.0125e+20
7.8625e+20
7.4625e+20
8.1875e+20
7.9125e+20
7.7625e+20
7.8875e+20
8.275e+20
7.925e+20
8.15e+20
7.8e+20
7.9e+20
7.825e+20
7.7375e+20
7.5625e+20
7.8625e+20
7.4e+20
7.975e+20
7.875e+20
7.475e+20
7.8375e+20
7.8875e+20
8.1625e+20
7.5375e+20
7.5625e+20
7.825e+20
7.7625e+20
8.55e+20
7.8125e+20
7.6375e+20
8.175e+20
7.9375e+20
7.6e+20
8.325e+20
7.7125e+20
7.5125e+20
7.725e+20
8.25e+20
7.6875e+20
8.4e+20
7.2e+20
8.1125e+20
7.1625e+20
7.5875e+20
7.8e+20
7.575e+20
7.6875e+20
6.9875e+20
8.2625e+20
7.8625e+20
7.7375e+20
8.3875e+20
7.775e+20
7.5125e+20
7.3625e+20
7.7125e+20
8.4875e+20
7.95e+20
8.1875e+20
7.725e+20
8.2e+20
7.975e+20
7.7875e+20
7.775e+20
8.175e+20
7.8125e+20
7.35e+20
8.1e+20
7.6625e+20
7.7625e+20
8.2375e+20
7.8125e+20
7.5375e+20
7.4625e+20
7.55e+20
7.45e+20
8.625e+20
8.05e+20
7.5375e+20
7.5625e+20
7.85e+20
8.0125e+20
7.825e+20
8.4e+20
7.55e+20
7.5875e+20
8.2625e+20
7.675e+20
8.1125e+20
7.5375e+20
8.2e+20
7.9625e+20
7.7875e+20
8.0625e+20
7.875e+20
7.325e+20
7.65e+20
8.05e+20
7.95e+20
7.575e+20
7.9375e+20
7.975e+20
7.775e+20
7.6625e+20
7.9e+20
7.7125e+20
7.8625e+20
7.8125e+20
7.9e+20
7.5e+20
7.8625e+20
7.9875e+20
7.7125e+20
7.325e+20
7.6e+20
8.4625e+20
7.6875e+20
8.4e+20
7.4625e+20
7.5125e+20
7.275e+20
7.8125e+20
7.9125e+20
8.1125e+20
7.8e+20
8e+20
8e+20
7.6875e+20
7.35e+20
7.825e+20
7.975e+20
7.5375e+20
8.15e+20
7.8e+20
7.7125e+20
8.3375e+20
7.625e+20
7.475e+20
8.3625e+20
8.2625e+20
8.1875e+20
7.875e+20
8.075e+20
7.7875e+20
8.25e+20
8.3e+20
7.9625e+20
7.675e+20
7.85e+20
8.1e+20
7.9e+20
8.0375e+20
8.0375e+20
8.2625e+20
7.9875e+20
7.7375e+20
7.8625e+20
7.625e+20
7.6375e+20
7.65e+20
7.975e+20
7.95e+20
7.0125e+20
7.8e+20
7.575e+20
7.75e+20
7.35e+20
7.475e+20
8.0875e+20
8.525e+20
8.175e+20
8.15e+20
8e+20
7.9875e+20
7.925e+20
7.4125e+20
7.575e+20
7.7375e+20
8.2625e+20
7.3e+20
7.3875e+20
7.975e+20
7.4875e+20
7.675e+20
7.7375e+20
7.75e+20
7.2375e+20
7.575e+20
7.5625e+20
6.8625e+20
7.25e+20
7.175e+20
6.975e+20
6.7875e+20
6.5375e+20
6.0875e+20
6.15e+20
5.15e+20
5.6875e+20
5.5e+20
5.075e+20
4.8875e+20
4.9e+20
4.175e+20
4.125e+20
4.05e+20
3.675e+20
3.3875e+20
2.7125e+20
)
;

boundaryField
{
    sides
    {
        type            zeroGradient;
    }
    empty
    {
        type            empty;
    }
}


// ************************************************************************* //
