/*--------------------------------*- C++ -*----------------------------------*\
  =========                 |
  \\      /  F ield         | OpenFOAM: The Open Source CFD Toolbox
   \\    /   O peration     | Website:  https://openfoam.org
    \\  /    A nd           | Version:  7
     \\/     M anipulation  |
\*---------------------------------------------------------------------------*/
FoamFile
{
    version     2.0;
    format      ascii;
    class       volScalarField;
    location    "0.001";
    object      translationalT;
}
// * * * * * * * * * * * * * * * * * * * * * * * * * * * * * * * * * * * * * //

dimensions      [1 2 -2 0 0 0 0];

internalField   nonuniform List<scalar> 
500
(
262.19
285.942
299.656
307.959
318.909
317.868
327.863
331.435
339.65
337.815
335.393
347.394
356.506
345.125
343.253
349.238
353.844
347.248
347.557
349.526
345.879
346.406
344.774
339.938
349.105
351.217
354.989
353.163
345.27
353.157
357.746
354.864
349.773
352.34
349.174
351.568
344.919
340.861
345.855
347.295
344.274
341.004
343.47
345.678
347.748
350.211
348.65
344.694
347.773
354.002
352.564
349.913
341.743
345.342
346.486
350.614
343.398
338.492
342.031
345.254
346.056
345.216
347.436
347.175
351.498
345.592
341.166
341.848
346.412
351.252
349.316
352.098
346.69
356.059
358.315
351.89
341.931
342.274
348.493
344.518
348.544
350.721
351.133
354.855
344.505
344.347
346.919
344.553
346.515
351.737
343.098
345.866
337.77
341.767
350.39
347.854
346.023
342.913
340.208
345.707
345.324
350.181
345.798
340.501
343.888
344.3
341.714
346.145
346.022
341.004
347.398
349.341
352.728
348.739
347.026
344.199
339.57
342.138
346.098
349.151
343.58
350.995
353.159
348.977
347.071
351.939
345.318
341.859
349.499
345.77
357.724
351.447
355.447
354.757
347.758
343.336
341.725
338.458
346.299
350.133
354.409
349.025
355.136
356.441
349.548
347.773
350.38
350.751
351.489
349.033
350.046
354.795
355.135
355.711
351.21
347.492
345.895
346.927
348.428
344.759
346.8
353.422
349.379
345.408
350.331
350.021
355.11
347.075
346.137
347.601
343.226
349.734
357.542
351.272
348.198
345.661
345.118
347.756
353.38
350.188
342.23
345.656
343.745
341.465
347.219
350.048
344.506
338.946
346.607
346.124
344.569
345.252
344.523
347.361
358.937
357.059
353.72
353.239
347.454
350.97
352.104
348.54
351.966
355.774
344.984
345.153
342.372
346.786
349.567
348.722
349.031
346.247
346.465
346.116
347.49
351.417
352.689
348.721
347.324
356.25
349.423
354.577
351.735
345.437
348.053
346.924
335.522
346.703
354.196
354.481
353.024
346.928
352.07
352.783
351.068
346.354
344.212
341.336
344.105
350.045
347.484
346.705
343.729
350.319
350.51
350.034
344.483
340.306
344.005
352.292
365.898
356.953
351.214
348.069
340.261
337.215
338.754
341.083
337.876
344.188
342.172
340.295
340.177
340.652
336.958
348.179
344.835
348.956
343.78
348.853
349.608
342.167
341.021
345.605
351.767
350.032
346.106
350.115
354.89
353.455
349.403
351.064
350.213
342.849
344.152
346.324
345.43
347.057
352.41
350.391
347.044
348.925
352.346
345.325
345.964
343.678
344.226
347.251
344.932
341.691
354.172
359.599
355.628
347.109
346.926
345.203
340.795
344.265
345.299
351.014
353.005
349.268
344.384
352.927
357.171
346.623
342.532
339.557
342.241
348.867
348.383
345.59
345.723
344.689
351.753
349.1
345.655
348.553
347.413
343.645
340.512
345.754
344.494
350.03
344.583
350.005
354.192
356.15
350.308
352.138
349.893
345.528
346.094
345.888
344.051
344.779
335.183
337.932
349.684
345.35
342.027
346.574
350.75
348.71
352.293
352.821
350.491
350.424
347.453
355.289
350.509
348.174
345.648
346.14
344.647
349.063
347.122
342.184
346.489
348.382
350.626
348.18
349.912
349.162
348.24
345.15
345.676
342.256
346.541
346.378
346.596
340.517
345.061
338.001
347.026
342.065
347.3
341.009
346.489
348.205
349.499
344.642
345.519
348.616
340.749
343.538
351.151
345.2
347.987
349.823
346.016
350.53
352.608
351.998
349.82
347.763
342.136
346.437
346.992
348.396
357.894
350.181
347.595
347.73
345.423
347.215
351.999
354.027
353.664
348.858
352.131
355.929
356.468
346.427
344.486
351.505
350.126
348.283
349.33
351.793
350.98
343.502
347.756
354.864
351.572
345.949
343.319
347.001
352.634
353.136
351.062
354.2
349.001
347.466
347.067
352.331
354.945
350.019
347.277
348.854
344.597
344.464
350.462
343.223
347.76
350.404
340.871
343.03
346.065
343.581
344.46
343.712
353.068
346.029
346.183
341.734
346.207
346.961
354.66
350.315
351.711
349.371
345.979
343.027
353.497
355.928
351.819
355.468
351.624
349.674
351.96
350.116
351.572
353.755
348.185
348.473
350.778
341.907
338.72
340.038
339.296
334.156
327.576
323.875
329.154
320.309
313.288
304.965
290.19
264.41
)
;

boundaryField
{
    sides
    {
        type            calculated;
        value           nonuniform List<scalar> 2(264.41 262.19);
    }
    empty
    {
        type            empty;
    }
}


// ************************************************************************* //
