/*--------------------------------*- C++ -*----------------------------------*\
  =========                 |
  \\      /  F ield         | OpenFOAM: The Open Source CFD Toolbox
   \\    /   O peration     | Website:  https://openfoam.org
    \\  /    A nd           | Version:  7
     \\/     M anipulation  |
\*---------------------------------------------------------------------------*/
FoamFile
{
    version     2.0;
    format      ascii;
    class       volScalarField;
    location    "0.001";
    object      translationalT;
}
// * * * * * * * * * * * * * * * * * * * * * * * * * * * * * * * * * * * * * //

dimensions      [1 2 -2 0 0 0 0];

internalField   nonuniform List<scalar> 
1000
(
887.67
888.754
884.25
888.515
892.587
876.856
889.399
899.228
898.15
897.486
885.249
883.494
895.81
897.983
916.15
924.783
921.182
910.795
905.945
907.865
924.339
916.131
909.285
916.136
912.283
918.108
910.901
929.421
914.662
910.341
904.541
894.369
892.53
894.843
884.162
887.751
898.128
891.861
897.997
882.402
879.874
900.558
890.355
897.16
884.58
885.315
899.052
899.577
893.989
894.667
897.454
899.101
909.835
900.875
916.038
909.039
895.114
894.593
892.901
903.439
917.04
917.082
911.443
905.551
914.923
922.629
923.843
915.768
904.496
895.622
896.622
887.644
889.141
885.566
881.623
875.182
874.189
888.072
888.929
907.377
918.344
914.187
913.534
926.002
922.147
902.916
906.123
896.147
888.771
891.619
893.209
877.684
878.571
886.377
902.303
888.397
889.974
885.564
890.086
900.5
893.9
889.44
892.183
897.315
886.996
898.805
898.989
896.997
899.089
888.871
883.553
890.564
892.673
900.159
890.019
882.058
887.633
875.235
887.28
889.714
889.258
891.202
894.724
891.251
882.497
891.869
896.815
903.379
889.135
899.239
888.08
893.913
888.743
886.506
882.002
889.831
888.056
894.549
907.526
888.694
882.582
884.621
881.738
880.249
886.354
899.786
895.21
904.257
898.245
911.48
899.999
902.774
883.932
894.938
883.863
894.891
893.502
897.15
906.793
914.408
907.163
910.542
905.667
910.352
907.517
918.188
910.748
908.412
903.204
902.188
891.007
896.361
885.783
887.722
886.305
899.684
901.609
900.913
892.158
900.469
903.378
898.794
891.719
885.905
881.678
894.787
905.91
894.09
887.467
879.86
891.604
899.141
895.1
894.068
897.888
895.51
906.384
903.367
898.488
901.188
894.268
915.793
911.986
916.671
906.324
895.228
901.455
898.496
898.372
889.469
886.541
889.462
889.997
888.948
899.859
889.812
896.564
903.855
906.996
911.481
919.182
923.176
922.082
921.045
910.762
911.224
912.818
914.777
913.628
917.299
911.758
902.511
909.117
912.514
898.393
908.844
907.785
912.829
921.13
916.143
917.307
928.933
920.192
923.889
913.811
910.78
911.374
915.372
921.099
910.797
912.798
898.608
902.092
891.828
896.698
904.845
913.419
907.292
908.328
904.366
902.745
886.029
895.476
922.065
910.499
916.519
919.062
917.103
906.952
913.739
910.865
911.153
911.722
901.948
895.834
905.334
909.685
897.925
890.064
896.248
895.328
905.788
911.521
909.397
900.612
891.629
891.554
892.87
899.136
911.462
904.095
903.309
908.616
888.176
893.654
897.931
893.244
896.653
887.683
893.611
892.475
897.051
908.825
901.565
899.364
904.905
895.685
902.625
912.591
912.406
913.689
910.167
898.123
896.568
904.009
906.854
904.981
896.025
903.686
912.139
908.312
910.561
918.473
914.935
915.337
917.431
922.209
926.328
907.767
901.282
891.307
897.773
907.173
906.73
916.72
890.763
888.343
881.022
883.39
884.642
877.824
880.901
888.99
905.863
894.169
897.191
895.953
883.531
900.923
913.3
910.645
913.078
920.821
911.724
899.807
897.25
896.268
902.729
906.974
910.352
909.555
905.942
903.826
911.971
900.126
913.411
912.539
910.034
910.751
905.971
917.831
914.423
902.898
893.284
886.427
896.122
893.195
896.341
892.593
892.509
897.017
905.638
917.075
909.156
904.047
916.058
905.58
916.431
912.234
904.383
900.322
909.116
910.454
903.941
910.709
918.896
903.558
900.036
895.203
892.894
900.813
892.904
896.065
891.541
906.467
904.648
903.008
898.796
909.606
925.239
919.947
917.506
916.832
902.956
904.3
905.198
916.288
917.003
904.192
913.137
916.593
919.058
917.321
913.895
904.305
915.872
915.418
905.354
912.454
894.878
905.392
903.942
909.027
909.392
899.792
902.636
901.188
906.858
885.36
883.059
889.994
902.261
900.435
889.385
888.362
894.052
879.515
890.952
883.092
882.258
894.789
889.365
880.958
878.873
874.854
871.854
876.062
884.971
883.735
881.424
873.474
886.098
887.487
882.566
881.288
872.292
865.658
872.949
867.419
865.202
847.338
850.789
849.596
850.709
856.159
861.229
842.683
843.288
854.711
850.617
846.075
830.286
827.498
823.932
824.261
819.051
814.921
795.424
791.623
801.339
795.489
786.679
782.45
777.165
773.159
767.399
755.102
731.638
727.403
705.293
691.355
686.546
679.445
673.367
678.713
659.679
654.725
649.904
646.603
643.914
634.915
631.115
626.847
621.11
603.695
602.896
606.301
602.601
594.317
585.424
575.524
574.58
567.456
559.436
557.777
547.332
549.745
535.784
536.789
532.446
527.584
516.414
500.217
490.354
490.489
487.984
488.131
479.791
477.583
473.816
463.091
458.282
454.884
461.798
453.393
450.648
455.147
444.912
441.998
438.709
435.157
432.192
420.559
407.389
407.245
408.855
401.432
392.524
381.875
373.938
363.464
356.564
345.591
342.188
331.438
334.746
313.185
306.506
308.713
297.817
299.516
298.347
304.83
304.469
300.937
294.76
301.963
297.286
304.383
306.784
299.198
292.562
294.796
297.985
300.385
303.404
305.003
303.637
300.064
304.451
305.215
303.93
303.15
295.111
294.777
310.277
302.776
313.068
314.588
297.426
308.241
310.213
305.515
305.93
312.286
303.427
300.01
308.801
307.45
303.23
306.611
301.185
300.41
300
306.525
307.519
306.392
298.426
294.735
296.306
298.856
305.977
315.811
298.378
301.25
294.73
283.72
286.409
289.871
296.726
297.159
306.256
306.187
291.038
294.171
296.909
303.731
302.107
300.843
299.086
293.272
303.102
298.454
294.077
290.758
285.696
287.126
283.283
295.651
296.303
299.82
288.286
291.4
289.543
297.898
295.828
297.436
299.366
299.305
297.866
291.918
292.324
294.815
295.211
295.102
294.371
292.343
298.057
297.906
295.61
298.719
295.185
298.346
287.697
296.571
294.549
291.145
308.125
297.51
297.738
302.05
296.954
288.95
285.804
291.359
294.605
295.123
293.776
299.481
297.236
299.223
300.578
296.112
298.831
308.671
295.548
300.188
298.641
289.122
284.624
283.259
297.466
300.079
295.327
297.087
295.598
295.416
297.659
301.37
288.464
293.942
293.549
297.04
287.828
289.115
295.561
295.076
291.364
304.247
296.008
293.733
294.397
300.312
293.755
293.302
292.765
298.59
297.693
298.862
298.119
289.906
299.816
297.111
287.745
291.481
298.112
289.995
281.161
290.493
296.084
296.898
311.685
301.907
299.813
299.56
300.723
307.097
309.622
306.536
310.885
308.424
316.139
317.008
320.606
311.479
299.383
294.924
295.653
297.212
290.304
284.706
298.427
293.822
294.402
303.817
292.4
295.465
297.179
299.692
290.719
295.861
294.873
288.772
296.494
301.156
292.328
301.34
305.412
304.889
305.211
301.708
292.323
301.344
298.698
308.827
308.874
298.791
302.716
304.043
302.911
303.413
303.402
309.1
315.092
315.056
312.409
317.147
317.264
313.126
300.098
307.336
309.86
312.474
311.036
304.719
312.659
316.294
308.548
303.915
305.908
294.119
290.688
299.813
303.324
298.479
295.345
300.579
295.769
293.71
294.715
295.438
296.402
303.219
303.137
306.768
309.731
310.428
306.747
316.184
315.053
303.355
305.364
298.755
306.753
308.534
312.288
312.637
304.739
300.454
308.321
300.532
305.706
301.487
304.892
303.13
295.036
293.423
291.176
292.918
305.329
294.595
311.512
306.725
304.988
299.277
294.978
294.734
302.727
298.368
299.93
299.189
304.613
293.667
294.837
296.005
294.609
295.786
306.842
298.645
295.376
305.631
303.916
290.424
289.493
297.304
293.507
289.721
299.87
290.687
297.149
293.552
301.134
292.998
302.928
304.139
313.714
317.933
304.627
308.146
301.406
304.417
305.265
298.434
300.856
300.02
291.92
300.124
303.742
300.262
292.928
301.646
304.903
304.708
293.289
288.654
286.648
293.473
298.245
299.944
296.382
291.513
295.945
287.426
285.171
301.047
295.539
296.194
299.583
305.323
304.049
300.756
301.547
303.811
295.887
300.245
296.084
293.935
300.548
294.199
297.655
299.651
307.927
307.117
303.328
300.452
292.905
301.492
296.858
310.475
307.933
306.56
304.001
308.532
308.641
307.347
307.597
298.763
297.499
293.021
305.313
303.273
295.506
291.896
293.177
302.217
301.165
295.874
289.877
290.468
287.059
301.578
303.242
307.324
307.5
308.077
307.148
308.474
311.313
303.795
289.26
296.955
301.328
308.882
312.436
309.13
311.552
308.759
310.36
299.716
298.454
297.512
304.999
297.555
296.271
292.06
295.281
299.657
298.494
300.609
301.849
295.691
292.545
302.568
291.846
303.217
294.581
289.153
290.545
290.917
292.626
)
;

boundaryField
{
    sides
    {
        type            symmetry;
    }
    empty
    {
        type            empty;
    }
}


// ************************************************************************* //
