/*--------------------------------*- C++ -*----------------------------------*\
  =========                 |
  \\      /  F ield         | OpenFOAM: The Open Source CFD Toolbox
   \\    /   O peration     | Website:  https://openfoam.org
    \\  /    A nd           | Version:  7
     \\/     M anipulation  |
\*---------------------------------------------------------------------------*/
FoamFile
{
    version     2.0;
    format      ascii;
    class       volVectorField;
    location    "0.001";
    object      UMean;
}
// * * * * * * * * * * * * * * * * * * * * * * * * * * * * * * * * * * * * * //

dimensions      [0 1 -1 0 0 0 0];

internalField   nonuniform List<vector> 
1000
(
(-278.142 -90.045 -94.7429)
(-212.806 -30.6213 -80.5771)
(-188.008 -40.957 -96.1999)
(-126.649 -16.9392 -94.0727)
(-149.927 -36.7659 -137.132)
(-171.884 -42.7279 -103.795)
(-176.722 -35.4137 -82.8295)
(-149.65 -69.1868 -89.8116)
(-158.349 -47.8867 -59.2576)
(-147.221 -34.0996 -71.7746)
(-153.607 -31.1812 -53.4161)
(-132.103 -17.5484 -64.5265)
(-139.997 0.853822 -52.6717)
(-145.005 -8.563 -70.7746)
(-111.909 9.04315 -135.259)
(-132.124 49.1442 15.8153)
(-83.8126 77.8242 49.1939)
(-59.9849 16.9568 72.8763)
(-71.8152 75.8234 53.5658)
(-56.9662 21.1315 32.3882)
(-57.3748 -37.0806 -9.67468)
(-69.8443 -27.4591 -44.4109)
(-53.3327 -75.8117 17.4642)
(-72.3023 -6.81731 58.9657)
(-93.2838 17.9883 75.7629)
(-67.9694 18.9825 80.3697)
(-55.9641 -42.6223 99.9698)
(-59.5242 62.7849 25.3667)
(-65.27 101.907 93.1546)
(-68.0911 23.8979 67.7801)
(-45.5421 84.0774 46.6925)
(-40.3556 -51.6047 59.9466)
(-42.4419 97.2679 23.8791)
(-45.7735 55.5505 -43.4012)
(-36.8726 96.4615 -16.4391)
(-42.5963 84.0318 40.8853)
(-38.5772 50.651 12.3403)
(-42.4855 -12.2258 89.4669)
(-50.1074 -17.3851 92.0793)
(-44.7486 59.2921 84.9799)
(-52.2087 -0.282888 50.434)
(-50.7202 -3.90465 32.1709)
(-52.7522 28.0558 49.9737)
(-56.8505 -15.0821 73.5009)
(-61.686 -46.8459 55.7333)
(-65.8767 -25.138 31.5876)
(-54.5007 -8.1203 -22.0197)
(-46.7188 -28.8395 71.6935)
(-71.7454 -38.2975 -7.40523)
(-89.429 -37.1301 46.7613)
(-79.6814 -37.9145 2.87406)
(-80.9209 -23.7549 21.0247)
(-75.5705 -13.4768 3.11488)
(-69.7034 -10.3049 -6.76016)
(-62.978 -44.2223 -59.5237)
(-40.5913 -42.6844 -46.041)
(-37.1518 -41.8316 15.8474)
(-22.8363 -18.8993 39.4187)
(-29.9997 25.1497 84.6279)
(-29.4984 -17.8563 27.3046)
(-21.5922 -41.3806 35.984)
(-15.9774 21.8968 -15.3674)
(-18.6324 3.3539 -114.753)
(-13.7544 18.7269 -74.9873)
(-7.90826 -65.8966 94.3507)
(-14.4253 51.8603 59.6374)
(-14.7723 61.8433 34.1674)
(-13.4198 -13.4465 26.5766)
(-17.2343 33.4216 76.2851)
(-13.7146 124.784 54.1525)
(-12.244 58.5984 45.4521)
(-11.5739 2.60085 20.2871)
(-8.66027 -69.6732 51.2535)
(-2.65752 -127.515 65.157)
(0.236224 -112.261 109.847)
(-2.21458 -26.3463 71.1839)
(-6.32421 -24.7964 54.0436)
(-6.95181 -22.8483 23.5661)
(-8.86818 -66.8032 3.35489)
(-8.77938 -99.4988 74.7431)
(-10.7996 -113.848 73.2363)
(-19.858 -101.706 26.2297)
(-22.7098 -18.0594 10.8581)
(-24.2168 -34.9746 50.6726)
(-21.2643 9.40358 -3.31841)
(-18.1822 36.5743 -13.8733)
(-22.6549 -71.2392 -21.6019)
(-23.5009 -21.8732 85.593)
(-34.1417 72.3684 158.834)
(-38.458 133.892 123.111)
(-32.152 143.073 124.903)
(-35.5931 78.8825 162.604)
(-30.8066 -8.319 183.777)
(-31.7622 -67.818 93.6505)
(-23.1937 17.7038 169.794)
(-37.6849 33.6136 161.649)
(-53.9262 2.37547 68.3652)
(-38.1717 55.3592 145.826)
(-32.7889 1.0354 67.4953)
(-20.3399 -34.2576 61.4823)
(-10.6053 -5.6174 29.2992)
(4.39946 -34.5071 63.3107)
(-0.607872 -41.2821 25.3697)
(0.771432 40.1454 69.0366)
(-1.73177 44.68 63.1304)
(1.92065 8.47125 52.863)
(0.783376 40.5621 -90.4593)
(-1.97425 37.4004 -62.8773)
(0.218792 -26.0599 -86.2258)
(7.09213 -27.3532 11.2001)
(4.1962 -24.906 83.6688)
(-4.08823 -2.72222 15.7105)
(-3.35135 -39.7988 54.1479)
(0.255541 -25.5205 23.2604)
(5.03398 -22.0105 5.11011)
(10.7245 -75.4788 110.8)
(3.11664 -53.4565 125.264)
(6.3749 14.0571 86.7363)
(22.5235 33.61 66.1218)
(19.2703 -7.42649 71.5744)
(20.1606 44.4847 75.3878)
(20.6138 44.9041 24.243)
(18.3363 64.2054 48.2791)
(17.174 -15.7565 63.8843)
(19.3539 -45.066 56.9272)
(15.5267 11.065 149.213)
(19.1257 -3.68281 45.8019)
(29.0261 -91.7271 -43.7615)
(19.7111 -141.942 -65.7498)
(17.2561 -78.5903 -147.148)
(10.041 -225.833 -181.333)
(8.29626 -73.2138 -141.326)
(7.28566 -70.7672 -105.029)
(6.6391 -92.4891 -67.6962)
(15.6195 -141.092 -21.7561)
(15.2686 -67.4505 14.2972)
(11.6763 -71.7649 54.3381)
(11.7403 -73.1789 14.6771)
(19.2262 -43.346 33.2818)
(20.7472 11.1871 7.55903)
(22.3418 56.9048 -28.0648)
(20.7674 85.2488 39.9715)
(29.6961 25.3907 25.9756)
(35.6601 69.7348 -0.542881)
(40.0209 76.3967 -20.5374)
(45.0026 51.3363 11.2614)
(39.5552 119.256 52.4234)
(33.0831 95.0796 76.4013)
(22.2093 101.063 15.5536)
(21.3783 31.2974 74.2161)
(21.7914 84.244 -17.8518)
(25.6546 19.3087 89.5474)
(18.5524 71.4715 47.7356)
(27.6887 29.9958 54.4889)
(22.9172 -54.9899 -12.6991)
(17.4917 -33.205 -102.31)
(24.0082 16.8407 -20.5834)
(40.4088 13.8736 21.5384)
(37.9895 49.8536 85.3519)
(35.8612 -24.0038 11.3165)
(35.0554 -18.1659 -2.87844)
(34.65 -66.226 -37.9262)
(46.51 -63.8299 -30.3066)
(49.5979 -1.04501 -71.0775)
(65.8378 27.263 -84.3988)
(49.5613 -21.0747 -14.663)
(63.1167 7.14362 -35.7096)
(82.1146 -19.1719 -19.3786)
(61.8758 17.2327 25.6117)
(53.2403 20.0555 9.23244)
(49.1252 15.1704 -13.5399)
(50.7883 13.4443 -26.2723)
(54.9865 26.7964 -29.3089)
(48.6777 -60.1315 -30.0232)
(50.9076 -101.738 -15.6187)
(71.2449 -96.976 -53.0915)
(79.2184 -185.489 -56.8151)
(112.599 -66.7666 -132.231)
(83.375 -80.5715 -103.042)
(93.5841 -89.1503 -139.216)
(64.0035 -57.9049 -91.3506)
(63.6234 -58.6681 2.8486)
(75.6914 -79.8762 -35.3547)
(53.237 -77.7006 -50.6018)
(50.1091 -18.2543 -52.0461)
(45.6608 -6.66103 8.69816)
(40.9219 -45.5918 31.1377)
(51.0596 -103.157 25.4001)
(41.4402 -61.0552 14.8794)
(36.586 1.83459 123.29)
(37.2104 -57.7875 124.848)
(19.6467 -75.7534 72.7981)
(13.8121 -35.9569 7.15271)
(14.1464 7.30648 -57.1908)
(14.7596 13.808 -11.9315)
(16.0336 69.3097 35.9081)
(4.59701 108.987 20.4988)
(0.130785 38.5345 -110.668)
(7.10171 58.1127 -59.0399)
(-3.65767 -24.1651 -54.802)
(3.2537 -57.6569 -73.2472)
(-3.05915 -4.63873 -40.4229)
(-8.36617 29.4906 -18.0767)
(-9.7665 66.5048 -40.0511)
(-9.02681 30.2245 -75.8177)
(-3.04593 -13.8871 -53.9541)
(-2.79315 -39.5565 19.7561)
(-3.93948 16.7829 -28.448)
(-5.51268 43.0284 -8.96566)
(-4.20504 -14.6728 32.7163)
(5.29384 99.5637 33.8109)
(10.2223 24.0168 41.7184)
(10.998 15.8065 -44.0792)
(12.8081 68.8157 -19.7956)
(5.23151 68.2811 -72.3064)
(-4.06653 154.888 -91.8764)
(-2.52038 74.8152 -34.556)
(5.04169 20.4245 -79.629)
(8.53919 38.5839 -126.827)
(6.18895 60.064 -78.9037)
(4.57603 57.0895 -117.157)
(0.242425 22.724 -81.8231)
(1.59168 17.9892 -92.2232)
(-1.23006 48.2858 -18.8519)
(-7.00831 32.4527 -120.806)
(-4.9909 4.25051 -141.367)
(-2.17956 -7.26774 -201.845)
(-7.15875 3.50993 -120.505)
(0.13751 -7.70032 -169.188)
(3.09907 54.1842 -128.537)
(1.33064 22.5733 -21.1713)
(-5.5877 21.9112 -22.7239)
(-12.7773 129.239 27.0347)
(-5.62699 74.3101 80.5518)
(-6.74443 59.788 78.7172)
(-11.4051 73.3613 100.81)
(-9.18279 -29.9205 96.9867)
(-19.6301 -19.3887 59.0034)
(-14.9815 35.9197 84.9162)
(-8.01703 -83.901 -2.1091)
(-3.64303 68.6315 -62.3722)
(-0.445838 97.1365 -86.3963)
(-0.0267214 105.928 -37.0024)
(-11.3865 101.779 -109.741)
(-37.3345 103.13 -92.8304)
(-28.1111 53.6366 -93.7588)
(-21.984 27.79 -113.601)
(-16.1651 72.4757 -95.2748)
(-18.9846 13.0232 2.92967)
(-25.6654 24.7588 7.73833)
(-5.68305 13.7301 50.1229)
(7.83241 -41.1491 -4.66776)
(18.4121 -46.5231 -33.6294)
(36.7275 -13.9726 -50.4323)
(33.6094 -93.4055 -70.5807)
(35.4565 -106.879 -77.8888)
(44.8044 -78.3253 -60.9907)
(36.5163 -34.3728 -44.2756)
(31.8885 7.07332 1.56433)
(39.2326 -109.952 -26.6859)
(52.7237 -82.6466 -71.3621)
(63.0443 -104.263 -19.5422)
(73.7938 -19.3872 -42.2245)
(54.6095 -29.6646 -68.1955)
(53.9551 -108.781 -81.0047)
(59.366 -124.5 -78.3948)
(47.1939 -56.5047 -49.6764)
(33.7674 -75.9391 -50.1872)
(33.0231 -42.5082 18.3506)
(37.5025 -31.2787 -10.8535)
(32.5534 9.6516 3.31041)
(36.3609 -81.6465 -38.8489)
(42.2603 -70.8066 12.341)
(46.0495 -55.0977 -41.3025)
(41.7716 -120.759 -23.694)
(45.9901 -78.1304 86.7523)
(31.6652 -156.137 67.1341)
(41.8084 -184.467 8.89437)
(37.7025 -158.134 12.8283)
(28.7736 -172.198 -30.9983)
(23.6393 -179.881 -20.2233)
(31.4187 -209.521 -65.9189)
(28.987 -241.071 -55.8333)
(32.61 -197.024 -55.6415)
(22.0908 -155.415 -12.2423)
(21.3743 -109.242 -2.71133)
(20.2737 -69.027 4.52201)
(19.4597 -43.0914 16.486)
(31.3151 -43.1615 2.1522)
(31.5034 12.3813 18.1616)
(48.0436 1.54072 -12.3616)
(36.5429 -13.8357 -102.711)
(18.5204 33.0493 -92.7423)
(17.549 6.82009 -75.1137)
(10.2188 87.1559 -82.8256)
(9.29987 -30.1515 -41.8957)
(7.43666 -90.2782 -42.4222)
(26.8934 -106.58 2.27722)
(33.3905 -131.38 1.05259)
(37.9904 -97.6342 8.27559)
(46.3781 -68.3788 -21.4962)
(35.7011 7.50201 -31.2525)
(23.4026 -52.362 -16.6425)
(29.9822 -18.0407 -59.435)
(25.3082 47.2848 -92.9268)
(20.4861 18.8888 -93.8352)
(18.4496 15.2128 -58.6235)
(11.4871 30.309 -13.8915)
(20.9971 10.7706 13.8121)
(15.8354 33.9326 1.61026)
(14.0839 -32.555 -119.707)
(25.9585 -7.8317 -129.511)
(22.4786 -55.7927 -79.1045)
(29.2875 -11.5399 -39.4178)
(33.085 -36.7648 -130.797)
(36.4496 3.78436 -96.2462)
(29.7858 47.6083 -84.039)
(16.4236 38.477 -128.258)
(11.1375 33.6628 -147.823)
(1.4553 -67.2976 -79.9033)
(-9.77649 89.1354 -49.8344)
(-15.0545 75.76 -54.4093)
(-25.7227 24.5078 28.7266)
(-24.8334 -27.55 31.0275)
(-39.2972 -105.995 -67.1363)
(-31.9624 -48.9614 -79.8995)
(-20.5335 -2.3785 -8.48201)
(-12.3866 12.3187 -26.8577)
(-12.4919 18.4922 -54.1049)
(-11.7391 53.6914 -37.6911)
(-13.83 26.4597 -54.5985)
(-13.7248 36.2604 -46.2443)
(-17.7736 -18.0398 -61.0194)
(-17.2936 70.2652 -46.9653)
(-10.1853 78.8389 41.5237)
(-13.7489 -13.5435 29.4433)
(-20.4743 -46.4246 -16.6832)
(-18.6531 -63.022 -17.0693)
(-21.4847 -35.1363 25.9873)
(-20.317 -6.98614 78.2848)
(-20.8915 -115.216 51.1574)
(-25.0539 -133.684 31.1298)
(-26.2781 -50.8258 53.3197)
(-30.4111 -88.1341 -0.199183)
(-20.0741 -45.6953 17.4262)
(-22.0503 9.1579 -3.57031)
(-11.2958 -41.5369 -43.9362)
(-11.8095 -39.0609 -62.1802)
(-12.5687 -63.1277 -41.7588)
(-8.83015 11.7009 -11.2421)
(-14.13 22.8463 -40.4623)
(-16.2373 -110.852 3.16755)
(-11.6022 -75.8436 21.7988)
(-4.23968 -110.477 -43.8754)
(-7.04345 -19.0105 -84.1209)
(-17.3248 33.1162 -140.704)
(-20.8695 48.5416 -49.0712)
(-21.6421 50.519 20.996)
(-5.74932 31.5856 -46.6466)
(21.1794 -43.2814 -52.8259)
(21.9919 -13.5701 -83.0757)
(21.0234 -63.522 -94.1558)
(23.5654 -97.8651 43.8307)
(16.4357 -75.7693 55.047)
(21.6311 -11.1764 -22.4999)
(18.3284 52.5437 -8.61817)
(17.5211 -56.1138 -8.13123)
(12.344 -31.5769 50.2865)
(5.6999 -19.856 47.6111)
(6.79874 10.7066 44.0852)
(14.1314 40.5078 25.609)
(16.6235 -60.5852 92.5829)
(1.73718 14.1487 91.043)
(0.955386 31.0345 12.4658)
(10.6519 -10.0086 41.7387)
(8.91563 -27.0083 48.6412)
(4.57753 -18.5628 -28.8528)
(-2.9465 18.7537 19.5414)
(-0.661164 -17.2448 89.8823)
(-0.603841 -13.8683 59.1597)
(-14.0574 -80.704 92.4)
(-10.8135 -109.926 19.8239)
(-9.66571 -22.7944 79.0787)
(-5.59155 13.6945 18.0912)
(-3.13473 -18.0874 31.7387)
(-3.708 7.21006 17.9446)
(-15.6377 -42.829 19.3885)
(-15.7407 -13.6506 33.5203)
(-20.6175 70.1047 31.6121)
(-13.8446 -32.4447 8.63483)
(-9.81919 -72.7011 39.8651)
(-3.61619 -17.0419 93.9797)
(-7.81983 -66.4216 114.549)
(-9.42536 -94.8599 56.319)
(-9.7108 -22.8709 22.8591)
(-4.48794 26.0884 64.9347)
(0.0792558 7.67565 103.844)
(-5.6109 60.8504 40.8777)
(-12.8351 1.8912 131.061)
(-21.0014 1.57963 85.1888)
(-33.9915 25.0506 58.699)
(-29.8194 39.5289 38.7362)
(-41.801 44.3318 47.572)
(-49.7591 46.8533 17.3846)
(-65.2256 84.6104 31.7043)
(-66.9366 58.5725 -11.6592)
(-79.7992 65.1609 -0.549035)
(-90.6946 4.52654 -11.8897)
(-70.8463 34.4712 -6.6652)
(-56.6299 46.2953 -12.8762)
(-53.1643 -21.4041 -0.562643)
(-56.8818 -37.622 15.5291)
(-65.0011 -31.916 47.1093)
(-71.936 26.682 111.151)
(-83.8377 33.8432 101.598)
(-74.7784 -30.4661 24.7457)
(-67.5249 -21.5618 8.35648)
(-68.9649 -13.5845 -1.79444)
(-49.7167 -24.2033 -33.8918)
(-49.1322 -30.0229 70.5519)
(-49.8676 8.91442 24.117)
(-46.3956 143.266 33.8176)
(-42.1609 126.031 40.394)
(-64.6162 110.284 46.1631)
(-56.3761 136.53 36.8697)
(-50.97 145.812 -38.692)
(-46.3967 115.168 17.8296)
(-47.5318 25.7157 48.7151)
(-38.5553 -4.03501 45.8807)
(-33.5907 15.6669 94.5097)
(-33.931 71.0584 12.2136)
(-14.3106 40.8612 -47.4018)
(-8.9916 28.3822 -136.938)
(-12.5288 93.395 -31.5546)
(-4.75175 106.135 61.4347)
(2.22036 12.9712 6.27703)
(7.01353 76.4698 5.21382)
(14.4313 29.0323 -13.5032)
(15.2156 -29.8666 -69.9147)
(28.7261 0.66587 -55.3826)
(24.7615 14.8588 -25.9598)
(29.4078 -23.3093 -39.5317)
(28.1311 54.1564 -31.7964)
(29.5246 -7.27298 -30.7029)
(21.0693 -74.5287 2.95614)
(21.8576 -50.5276 79.5426)
(27.3246 -2.15313 54.2296)
(27.3104 -34.0352 83.0715)
(22.5539 18.8432 108.157)
(16.2302 -65.2341 131.542)
(18.5428 -72.6059 95.4647)
(21.3986 -67.2257 37.364)
(28.7009 31.8651 4.34958)
(29.2444 63.164 59.9391)
(37.7558 -5.05861 140.327)
(37.8191 47.8026 147.897)
(33.5226 38.3062 114.73)
(25.6448 36.8388 149.187)
(24.2137 12.2367 133.535)
(17.1543 62.842 44.5678)
(20.8204 21.8005 125.38)
(18.1591 31.8553 75.4972)
(13.2316 -40.249 50.945)
(15.449 -19.0821 -4.21801)
(14.0508 -83.4519 -7.00049)
(18.4817 -94.4933 29.3647)
(18.4108 -92.2236 17.978)
(19.5466 -102.705 42.4828)
(23.8942 -3.78249 41.7537)
(28.752 -29.1159 -5.20555)
(24.7396 -107.912 -91.8666)
(31.0564 -94.8792 -99.3269)
(24.5983 -103.5 -25.066)
(23.2554 -102.955 69.9689)
(23.8973 -0.533895 60.8891)
(19.9735 -83.1907 22.6598)
(12.9361 -87.7542 69.3861)
(25.4448 10.841 -14.8221)
(33.1075 -7.31981 47.5957)
(32.2808 -28.4083 -12.5206)
(32.8208 -119.837 86.1464)
(36.669 -45.709 88.9023)
(29.665 -57.8678 183.997)
(24.9574 -6.3231 140.9)
(9.4362 -45.7423 55.8481)
(1.36211 -34.5629 81.6933)
(4.3771 7.36546 77.3495)
(15.8935 33.3564 30.217)
(16.1034 0.842802 78.453)
(6.23942 19.5813 50.9697)
(5.25464 20.9527 83.153)
(10.4785 -10.3829 79.7463)
(8.24896 -61.2829 117.777)
(10.8228 5.8329 155.77)
(17.4974 -40.2319 112.942)
(29.0282 -45.497 134.123)
(19.1782 -76.7281 124.232)
(13.1798 -57.6212 163.079)
(13.06 -79.2402 202.26)
(16.5429 -44.0212 104.165)
(30.1117 -101.952 30.9804)
(26.4165 -73.3367 20.4661)
(31.862 6.72503 77.4876)
(29.4297 43.4955 33.1127)
(23.4401 26.8869 101.331)
(25.3518 -16.542 174.124)
(37.892 43.622 132.225)
(47.0081 -2.37096 85.3419)
(57.065 -9.58953 39.0785)
(53.7278 6.04721 5.61733)
(54.0022 -9.58015 170.734)
(36.1812 33.087 130.629)
(34.8692 -11.5668 45.6095)
(29.0547 -12.2621 43.7552)
(16.4203 -37.9943 26.4545)
(4.56761 -37.3712 20.9274)
(-0.652004 -29.0182 54.9357)
(-0.72478 -19.8877 52.0496)
(-3.63558 62.5175 13.8688)
(-4.07646 80.2797 51.2903)
(-18.1338 128.886 15.7407)
(-17.2212 135.837 -31.2284)
(-12.609 178.208 -105.233)
(-11.0303 79.7007 -72.6088)
(-7.95756 60.7181 -87.358)
(-3.94741 29.016 -80.2139)
(-4.17516 -5.13691 -132.661)
(-0.236019 16.5934 -75.3346)
(-4.55305 11.59 -99.4761)
(-8.40889 10.4546 -144.216)
(-13.8823 -14.327 -80.497)
(-11.9768 -41.0937 -33.7493)
(-5.09119 -83.6431 -37.0715)
(-9.47584 0.703151 -72.746)
(-6.2074 -6.47841 -41.6971)
(-8.52893 55.5647 -72.7811)
(-17.7682 63.1649 -94.6315)
(-31.5233 34.8529 -58.4033)
(-15.9566 -7.25879 52.4454)
(-16.4471 -55.6948 -1.96041)
(-1.11725 -35.3282 -15.2949)
(5.60419 -29.6443 -11.8071)
(-5.63591 -87.367 -0.441048)
(-5.39738 -43.5406 -22.2182)
(2.45829 -11.6753 -7.05703)
(11.8458 28.4777 -24.3317)
(8.92436 24.097 19.3478)
(11.2571 32.9943 -10.3613)
(11.4078 38.1107 37.4795)
(7.47035 -1.41822 58.5342)
(15.073 -25.5235 -48.3043)
(17.3132 -35.1436 -31.6263)
(16.7576 -28.2733 -48.3535)
(19.939 1.13169 -50.5053)
(23.6701 16.7733 -30.7313)
(31.2613 -12.0295 -32.5345)
(24.8614 -10.7478 -24.1606)
(22.1892 -62.3497 -12.2066)
(21.0291 -13.9919 79.852)
(25.2569 82.9585 140.698)
(24.8221 62.7917 127.965)
(22.9503 128.016 164.887)
(26.2187 78.2751 147.463)
(31.2862 157.661 60.1986)
(44.052 118.687 40.2186)
(38.4706 66.2183 5.28374)
(25.172 40.0774 29.183)
(29.9677 63.649 32.9827)
(32.3928 6.50762 -41.5087)
(14.078 59.8371 -54.4959)
(7.04236 5.09013 -81.575)
(3.04352 -30.2472 -44.6485)
(3.49125 -61.6438 -83.1727)
(-0.866761 -73.9006 -113.772)
(-2.53616 -5.77511 -71.3642)
(8.45941 70.0807 -155.591)
(16.8958 -1.69513 -98.3053)
(8.87246 -98.0087 -88.8115)
(7.0796 -58.6154 -124.958)
(6.25914 -81.9054 -55.7392)
(9.24282 -79.9743 8.15574)
(5.5698 6.43463 8.17151)
(3.64433 67.0341 -52.4932)
(4.40464 75.4055 -34.0599)
(4.31449 41.6104 -24.6096)
(-2.53011 41.2534 -42.9695)
(-1.33558 59.4184 -30.3097)
(-10.3068 82.9673 -56.1725)
(-19.7802 17.66 14.531)
(-26.6303 32.0398 73.8164)
(-22.9723 75.2924 -15.4628)
(-22.5608 18.9209 35.9188)
(-21.6504 -22.1387 26.052)
(-21.4849 18.1833 46.6483)
(-19.5385 -44.0828 -46.4771)
(-12.632 2.45014 -50.5343)
(-7.80432 23.6843 -77.6962)
(-9.49626 60.3681 -88.0093)
(-5.28592 53.1744 -80.3991)
(-7.94087 -5.39426 -75.4255)
(-12.7991 -35.1402 -97.4903)
(-14.6084 -60.6218 -25.853)
(-16.1678 -62.9619 -63.7898)
(-13.2504 -85.2264 -36.4854)
(-11.9768 -89.1022 -47.3957)
(-9.1215 -50.1385 9.44728)
(-10.0009 -96.2737 -75.0515)
(-0.565373 -159.778 -35.3185)
(7.92896 -145.085 -79.4872)
(9.52004 -103.311 -12.3094)
(11.463 -88.6293 -41.7793)
(4.71506 -80.0034 7.89048)
(14.0476 -71.9308 15.8372)
(16.9962 -49.1463 -1.17242)
(10.2927 -56.2688 -32.0939)
(9.91332 -0.00406314 -34.7546)
(16.7649 21.9332 -30.0125)
(18.5302 14.293 -6.69345)
(14.0042 97.554 -11.9769)
(16.608 92.77 -5.41173)
(15.7187 110.998 -49.735)
(14.9126 94.1663 3.40128)
(19.6552 89.3024 -70.1816)
(18.3781 100.189 -82.4833)
(27.1789 58.0958 -24.2245)
(36.1608 92.9212 11.9547)
(41.38 -29.4061 -43.5901)
(42.3898 31.017 114.802)
(49.3928 -57.8834 54.7047)
(41.8669 6.91028 52.677)
(45.7542 -19.8743 -43.1311)
(34.2275 -44.7048 -44.7133)
(36.1165 -61.3164 -29.7168)
(39.0712 -107.076 -77.5297)
(49.8891 -0.6488 -14.4193)
(45.9112 38.1575 -6.84709)
(48.8875 13.1984 67.0734)
(57.7737 -10.6665 -76.1192)
(56.1789 11.0182 -77.56)
(44.1143 125.558 23.2852)
(44.6103 146.578 -2.18257)
(50.0811 73.4574 -10.0724)
(45.8991 119.076 -2.96796)
(63.4605 83.36 -27.7095)
(69.4594 52.6593 -45.9724)
(62.3962 135.077 14.5877)
(52.7819 138.239 -0.733437)
(69.9033 111.393 -77.6589)
(59.4153 24.2606 -38.0766)
(49.2685 45.7127 -23.3718)
(46.238 75.8064 27.6812)
(47.5683 92.2975 15.7209)
(40.891 34.4246 -10.9064)
(58.3558 12.6186 -75.4709)
(52.0808 8.41972 -49.9756)
(40.3564 61.6065 -70.8529)
(41.0112 43.3653 -117.904)
(46.0827 6.54811 -176.749)
(36.4478 6.60743 -161.776)
(27.2427 80.1845 -160.675)
(17.6351 65.3035 -45.1258)
(29.6922 12.6594 -35.3651)
(22.9407 21.0616 -59.368)
(32.3517 19.6676 -19.9451)
(28.1969 -30.851 32.4575)
(38.7924 -47.9819 3.96577)
(31.3429 -61.2042 32.2175)
(26.7496 -59.6629 -12.173)
(24.7787 -38.6311 -21.0635)
(17.0494 -50.3335 -71.7847)
(41.8812 -49.196 -6.97922)
(31.9713 21.8785 -49.2913)
(28.6431 14.5194 -87.1807)
(38.4911 26.2602 -74.7355)
(21.8516 9.84411 -69.937)
(20.0669 30.4242 -33.1288)
(27.3654 76.6979 -6.1048)
(23.0955 61.4934 31.9835)
(22.7918 100.651 47.2101)
(28.4836 102.64 80.8803)
(19.3924 64.5816 9.74158)
(17.4758 53.2033 28.6303)
(16.9718 90.6798 27.6114)
(26.4249 63.1905 -9.82829)
(18.2997 59.2873 25.5658)
(12.7689 35.8642 33.0353)
(6.20583 16.5862 -36.5262)
(6.96716 -15.5234 -37.0591)
(9.7431 -33.8592 6.20648)
(7.44497 -46.8994 30.2387)
(0.80464 -10.0824 111.476)
(-4.41007 -49.5153 29.2522)
(-7.98134 -5.29731 60.9376)
(-11.2217 25.3458 48.6247)
(-21.1893 11.0587 44.3664)
(-15.9019 4.99561 -43.1457)
(-7.27276 1.18681 -22.0332)
(4.76147 74.0688 -8.56097)
(14.0318 150.888 -73.3762)
(11.7013 88.936 -71.0956)
(18.5317 49.8739 56.5231)
(27.2451 74.4302 82.0878)
(21.9537 21.8623 53.239)
(26.5198 42.9395 55.11)
(23.6455 25.3527 24.9683)
(15.9472 22.4593 92.5581)
(24.3072 102.93 43.0705)
(26.987 30.741 -19.6869)
(31.1357 55.8933 30.2596)
(29.9103 70.6603 -28.4242)
(29.304 83.0487 -21.785)
(17.8041 29.4429 7.71126)
(17.8996 8.96744 33.1958)
(16.682 -1.77351 22.8473)
(11.4423 -18.1257 16.3798)
(15.7391 -12.1904 -17.0028)
(20.6992 -19.7833 -45.0815)
(22.9225 -3.56327 4.38729)
(23.2601 -16.707 -52.9048)
(15.3637 42.2381 12.1082)
(3.77389 80.7821 16.0968)
(7.08833 41.8359 81.7844)
(20.0123 -1.69843 136.266)
(22.2934 82.9237 143.731)
(19.2656 13.5925 76.8922)
(22.1211 -54.0109 72.4865)
(26.686 -74.9996 152.988)
(28.75 -66.7771 123.026)
(31.0677 -3.35461 134.264)
(31.9424 5.58033 105.782)
(33.7593 49.3109 50.8233)
(38.7887 -1.73417 72.5507)
(21.7603 -17.0639 88.2665)
(17.984 -28.5248 25.9488)
(14.9499 33.6453 10.5777)
(11.9372 -61.2628 72.8547)
(18.5332 19.033 36.3185)
(12.1247 -51.4354 -1.53841)
(15.1167 -22.3322 -25.1588)
(13.862 43.4345 -25.881)
(4.61611 10.2065 -20.459)
(11.512 91.9102 39.7063)
(7.99502 17.3757 23.6897)
(9.3322 13.5953 41.7872)
(9.78484 34.7127 69.2865)
(4.56647 50.0427 53.2523)
(-0.0511695 40.2513 72.5303)
(-11.1129 10.9552 -4.01374)
(-18.0743 0.458347 15.9133)
(-23.4129 7.19202 -8.1011)
(-33.9699 4.21363 -20.3576)
(-34.4153 5.46323 -22.946)
(-38.6331 -24.0301 59.1512)
(-27.6221 -22.6729 36.4163)
(-14.6142 26.4852 26.7144)
(-13.5708 26.5151 56.8139)
(-5.69286 40.5127 22.4499)
(-6.17454 52.0724 34.8842)
(-10.3365 73.242 88.9299)
(-12.7962 107.275 131.44)
(-23.0493 112.908 100.86)
(-27.911 33.7478 56.4889)
(-30.1704 70.4994 63.4222)
(-33.4718 44.5631 104.68)
(-30.7155 55.5377 44.4176)
(-26.1348 59.4396 -27.6621)
(-44.5035 26.8774 -12.3524)
(-34.3679 -25.8686 2.32108)
(-42.1356 3.20355 8.79861)
(-49.5595 -52.7327 8.25273)
(-45.7103 -9.87317 78.4663)
(-36.3713 -11.2988 103.599)
(-42.1329 -16.153 119.76)
(-32.2302 -14.3051 76.6282)
(-21.6201 -19.8624 47.3049)
(-10.3464 50.5262 142.953)
(-3.72121 48.5505 93.1217)
(15.9393 82.0924 109.108)
(28.5122 0.903017 59.9797)
(27.6065 26.9918 60.9295)
(19.7169 117.283 74.6513)
(16.443 48.2881 134.251)
(10.2415 129.869 112.485)
(6.33259 -5.63387 29.1934)
(9.67244 53.0816 34.4556)
(14.6109 84.5131 -101.485)
(22.1203 28.3796 -15.7725)
(12.5478 15.8879 -93.5931)
(4.30273 44.8181 -40.8634)
(-0.759602 59.5063 10.1736)
(16.0404 54.2154 -45.5686)
(24.4485 3.33534 18.1833)
(32.1171 59.1989 85.5025)
(41.7837 68.6849 61.778)
(45.2595 53.2935 7.45003)
(31.3586 -14.3404 78.4311)
(31.2019 -39.6589 48.0877)
(29.6883 41.4753 87.2265)
(22.7747 -28.4566 98.0208)
(23.9483 -54.6859 150.137)
(20.7321 -16.6226 85.2787)
(16.55 -45.1972 63.3884)
(18.3833 -53.7429 75.5657)
(29.7199 -78.6615 23.4595)
(27.713 -15.6865 3.88463)
(26.6264 -36.1069 24.7852)
(27.1507 -86.6631 -5.98655)
(33.6995 -62.5978 -10.8114)
(25.0338 -122.671 52.1957)
(29.1612 -84.1876 21.0393)
(15.5276 12.9023 14.3715)
(1.266 9.98298 -43.0916)
(-0.780594 -89.0797 -4.15522)
(4.72193 -32.3435 -28.268)
(4.89808 -100.484 34.5526)
(1.48646 -89.1909 -50.8095)
(-3.37595 -86.6223 66.1006)
(-4.93218 -106.541 78.9029)
(-5.05822 -34.5773 -25.8157)
(-4.50685 34.7481 -42.8686)
(0.229008 -23.8448 -40.8525)
(-0.355094 -37.3563 -21.9829)
(-2.3423 2.4544 51.7814)
(-3.31832 31.8691 110.584)
(-0.0676375 57.3683 33.3155)
(-6.27178 31.4352 47.4383)
(-3.62468 -59.3698 29.6087)
(-4.17883 -61.9073 92.8867)
(-5.07903 -75.4601 56.9007)
(-9.06661 -118.105 17.338)
(-15.0797 -110.163 -13.4054)
(-6.13443 -15.9656 30.624)
(-9.47617 12.328 109.431)
(-3.21085 -15.072 107.296)
(-7.86699 -73.7354 60.9316)
(-7.6234 -110.496 43.4896)
(-4.62203 -185.797 -30.1351)
(-9.63304 -146.36 -20.0452)
(-8.40019 -162.256 -29.0881)
(-12.8624 -117.37 -14.0595)
(-5.30451 15.0584 -40.118)
(-0.612016 -22.2626 -33.7683)
(-5.6366 -23.7161 29.6441)
(-36.0637 -62.1709 -29.5831)
(-40.1711 -59.0647 7.53065)
(-30.4408 -53.2623 47.9708)
(-43.2755 -117.054 26.8225)
(-32.6518 -155.84 -22.6356)
(-17.7013 -130.083 10.2908)
(-14.9911 -102.528 -5.3914)
(-17.7588 -49.0317 -20.7051)
(-8.37824 -48.7882 35.1059)
(-2.96638 24.8146 102.302)
(6.97311 9.18069 92.2874)
(12.6117 -30.4746 96.0639)
(18.7106 6.64443 76.9191)
(27.97 -3.79222 101.398)
(16.5638 48.9882 133.062)
(24.1558 -32.096 109.926)
(20.3442 10.0993 53.0946)
(24.4421 -38.502 31.9975)
(26.3526 -72.0822 60.8204)
(31.4598 -76.1131 101.452)
(42.3028 -98.6562 69.5409)
(38.9619 -11.4423 53.2682)
(30.921 -48.174 -1.47036)
(33.9721 -99.8464 -45.1998)
(43.8397 -81.2777 20.8636)
(52.9634 -113.579 -4.28286)
(62.3347 -38.724 40.9761)
(58.0181 -87.3287 55.5398)
(56.6375 -39.9903 30.5717)
(60.4104 -72.3519 111.787)
(51.8667 -30.9991 -13.6216)
(58.5212 15.8617 -2.56261)
(53.32 20.3162 -15.7819)
(75.3734 -23.2195 17.4166)
(68.1705 -24.2916 38.1041)
(68.1864 -35.6463 -41.5238)
(80.6517 -11.4852 -67.5965)
(60.9928 -41.2097 -6.87802)
(53.9235 -68.0311 -61.8726)
(54.2439 -63.7879 -55.1481)
(39.0575 -26.0629 -76.8181)
(32.5982 -42.6865 -39.155)
(39.0764 -58.1961 88.7075)
(38.6154 18.2237 59.8488)
(20.9182 -60.9313 -14.708)
(24.7789 -75.6142 24.7049)
(28.7538 36.6018 110.924)
(31.585 7.16984 98.9448)
(33.6531 -60.3293 88.8838)
(35.3431 -50.739 23.5273)
(27.3327 -71.515 36.3645)
(49.8702 -48.5375 43.4083)
(58.3305 -72.6138 9.60433)
(52.6618 -35.0687 -59.7828)
(48.8374 -66.1578 -11.0126)
(51.8716 -101.665 -4.1869)
(66.9808 -95.9863 10.2795)
(50.6048 -29.685 -11.9994)
(42.767 -65.9393 -50.824)
(43.2449 0.702807 24.9198)
(32.4881 -7.52536 -14.6764)
(25.1362 -0.803736 -9.62074)
(13.9678 -5.81514 -28.926)
(6.04447 22.6956 -48.3789)
(10.4078 32.3283 -15.4669)
(2.85794 34.6923 -91.3017)
(4.14948 17.9119 -143.01)
(3.278 -42.7618 -178.835)
(6.93808 -99.9591 -173.666)
(7.89797 -80.4518 -151.06)
(0.776512 -115.985 -29.4299)
(2.82031 -79.9568 -59.4944)
(5.11106 -77.5382 -50.1589)
(5.32594 -79.9697 -58.8995)
(0.467754 -90.9602 -3.43088)
(11.5381 -75.1126 -65.0696)
(12.9273 -6.55504 -80.8252)
(9.76271 85.1983 105.53)
(1.82491 136.011 143.66)
(5.71337 85.2227 107.571)
(-2.19871 -16.2837 107.015)
(-7.69618 67.2565 -6.30943)
(-11.2213 39.7688 0.607278)
(-10.1213 16.3484 -79.1889)
(-4.78125 38.045 -75.5588)
(-4.96466 4.19427 -41.2557)
(-11.4254 -23.3296 -75.9771)
(-10.3162 13.0693 -54.0509)
(-16.7419 9.6956 47.8249)
(-11.8599 4.52798 104.512)
(-12.0525 27.5515 69.5156)
(6.5802 56.3918 61.3309)
(-2.2032 -5.09266 -21.3905)
(-7.47448 51.3054 8.64472)
(-14.4033 17.1525 -13.7516)
(-7.95646 -10.9591 -1.45358)
(-10.4548 22.1969 54.9574)
(-0.844057 -65.5112 81.9961)
(0.168453 7.27746 42.266)
(-0.159294 -22.8559 3.73302)
(2.75912 -18.061 6.9459)
(-6.37425 -11.0632 105.3)
(-7.4073 -68.9812 90.7325)
(-3.42564 -72.4216 -5.00775)
(-10.4248 -14.4335 35.6429)
(-14.7449 -26.9259 65.4955)
(-20.9584 38.059 21.3539)
(-21.2813 32.1759 60.3371)
(-20.3401 85.8559 88.2743)
(-10.9854 104.607 1.49748)
(-18.1711 122.54 -11.4804)
(-25.3432 185.753 32.606)
(-31.0473 142.694 -10.0468)
(-29.435 74.4515 -75.1137)
(-18.2718 134.598 -128.159)
(-19.9494 16.1809 -89.3214)
(-26.0948 103.584 -36.2678)
(-2.38173 41.7326 -39.7591)
(-0.386371 24.3937 -83.3795)
(4.89236 15.5993 -86.6294)
(11.7324 90.6005 -57.554)
(12.4378 103.309 -30.6047)
(13.1249 133.375 -45.2944)
(6.01515 136.859 -44.012)
(6.71492 166.246 80.6412)
(12.0486 136.71 98.6347)
(25.1523 -7.54131 -53.665)
(32.5524 -43.9109 17.1048)
(30.0504 -63.3431 -25.9434)
(35.5915 -90.5121 -88.5401)
(34.0223 -5.53015 -138.366)
(47.8858 -13.2398 -165.41)
(68.8715 45.2168 -89.6557)
(75.9302 46.795 -71.2209)
(81.4451 -6.28075 -16.3421)
(82.9963 -8.83364 -26.8054)
(65.6039 -15.6195 -71.792)
(77.3171 10.4849 -22.7824)
(111.487 27.5768 -29.8906)
(100.906 27.9503 43.34)
(95.0801 35.0133 30.4846)
(108.749 77.9115 53.2434)
(98.4542 56.9058 21.3529)
(88.1742 24.5425 79.8703)
(98.6628 88.2587 38.1435)
(99.8821 64.7242 55.0449)
(150.602 52.7178 26.4445)
(111.227 21.5436 -22.2738)
(141.485 -65.2389 -2.24937)
(173.639 4.76824 -21.1774)
(149.686 80.2271 -1.4563)
(187.231 -17.2605 -42.61)
(167.677 22.1771 -14.7681)
(222.558 -0.68863 -27.8787)
(184.094 64.0938 -44.8974)
(233.614 65.5815 -36.1608)
(241.661 71.2549 -3.83415)
)
;

boundaryField
{
    sides
    {
        type            calculated;
        value           nonuniform List<vector> 2((241.661 71.2549 -3.83415) (-278.142 -90.045 -94.7429));
    }
    empty
    {
        type            empty;
    }
}


// ************************************************************************* //
