/*--------------------------------*- C++ -*----------------------------------*\
  =========                 |
  \\      /  F ield         | OpenFOAM: The Open Source CFD Toolbox
   \\    /   O peration     | Website:  https://openfoam.org
    \\  /    A nd           | Version:  7
     \\/     M anipulation  |
\*---------------------------------------------------------------------------*/
FoamFile
{
    version     2.0;
    format      ascii;
    class       volVectorField;
    location    "0.001";
    object      UMean;
}
// * * * * * * * * * * * * * * * * * * * * * * * * * * * * * * * * * * * * * //

dimensions      [0 1 -1 0 0 0 0];

internalField   nonuniform List<vector> 
1000
(
(-288.983 -1.23293 -6.80962)
(-227.889 -10.5108 -4.25889)
(-195.391 -11.6775 -1.81862)
(-179.632 -11.3437 1.62251)
(-163.319 -4.00367 6.82992)
(-142.476 -12.7265 0.338408)
(-127.185 -9.68233 -1.95192)
(-118.161 -6.29831 4.98533)
(-107.121 -3.09222 2.75346)
(-97.2218 1.91636 3.08849)
(-86.8769 0.382003 -14.1019)
(-79.827 -2.85878 2.04945)
(-70.3338 -5.01926 -2.9577)
(-64.739 -3.54423 4.07148)
(-62.3124 -6.07654 21.2562)
(-55.5176 -13.3692 1.62535)
(-48.1867 -6.90289 0.496744)
(-44.944 -5.69369 0.967468)
(-38.9436 -10.8305 1.78227)
(-35.8812 4.8388 14.7539)
(-33.5128 10.2511 11.2496)
(-30.6252 5.03504 14.6561)
(-27.3095 10.753 11.0131)
(-23.3491 4.46156 2.39617)
(-21.0565 -2.29739 0.496545)
(-19.0262 -5.24959 -3.70544)
(-17.1137 -7.41918 -6.28481)
(-14.1749 -9.8589 -6.65445)
(-13.12 5.56926 -9.75733)
(-11.5301 6.40934 4.82166)
(-9.63021 2.08287 20.3461)
(-8.2516 3.05054 7.88991)
(-6.17438 16.9522 8.28803)
(-4.58775 2.57472 7.33703)
(-4.17195 -6.57065 10.7535)
(-3.2124 -8.20361 2.40804)
(-2.4532 3.23428 7.05701)
(-2.14584 7.30223 4.01992)
(-1.94447 3.65123 -5.67522)
(-1.8948 10.272 -6.34141)
(-0.829339 15.5921 -10.5464)
(-0.263457 -0.861785 -9.65336)
(0.348336 -11.5964 -13.0605)
(0.849248 -6.11847 -15.8305)
(1.05035 -1.99072 -10.3931)
(0.286345 -3.93288 0.0275681)
(-0.221564 -5.71686 -4.25055)
(-1.2982 -2.92492 -7.33428)
(-1.07782 8.41879 -8.55963)
(-1.83892 16.7616 -12.8372)
(-2.31669 -1.75897 -9.70043)
(-1.60271 -16.4599 -5.09869)
(-1.5815 -19.5271 -0.800955)
(-1.65336 -14.2607 -1.63861)
(-1.50385 -12.1767 -0.450473)
(-0.272803 -15.2568 2.54977)
(0.631804 -8.41209 8.94597)
(2.19856 -2.4658 13.7516)
(1.67415 -0.493451 -3.3796)
(2.07916 -0.370498 0.330701)
(1.815 2.89934 -1.41604)
(0.476926 11.5186 -3.31484)
(-0.0164369 19.9175 6.76504)
(0.661935 12.8393 -4.64135)
(-0.36677 10.2961 9.54373)
(-0.317792 9.87928 6.78896)
(0.786461 -0.416098 0.189426)
(0.933465 -5.76762 3.00639)
(-0.0913908 -13.0879 6.22644)
(-0.114948 -15.3556 9.16806)
(0.185792 -11.8267 2.51095)
(-0.193313 -7.85311 5.14655)
(-0.310903 -0.109397 9.38517)
(-0.308363 7.19147 10.0602)
(-1.87826 3.54104 24.2768)
(0.165526 4.58 5.93919)
(0.661954 -2.22768 6.05342)
(0.559204 -18.3306 10.8765)
(0.569183 -21.5036 15.6266)
(1.4764 0.290819 8.24736)
(1.54757 12.5586 -2.80924)
(0.38172 15.3096 -15.5916)
(-0.168105 1.77308 -22.9392)
(-0.018677 0.0507794 -20.4587)
(-0.744269 -8.03408 -30.272)
(-1.8488 -10.2463 -15.7476)
(-1.46065 -10.8053 -10.3846)
(-1.02179 -4.6183 5.77412)
(-1.28612 5.65243 -20.8859)
(-1.64687 10.5011 -22.4115)
(-2.04435 4.54819 -7.93352)
(-2.34696 -1.7413 2.56327)
(-1.31418 -5.34123 -12.1068)
(-0.480695 -8.14462 -16.4363)
(0.977386 -13.066 -14.6062)
(2.353 -3.54127 -16.0537)
(2.84788 -3.57163 -5.15724)
(2.9334 -6.40347 3.70839)
(2.40942 -12.9284 -0.266108)
(2.24171 -20.3822 1.98352)
(1.7602 -18.3419 -13.805)
(1.23652 -7.82838 -9.16853)
(1.65651 -6.83087 -13.868)
(1.47613 -2.70753 -8.99251)
(-0.424345 -9.0169 1.0925)
(-0.268239 5.28128 -2.42749)
(-0.186593 9.31076 -2.99636)
(-0.683986 0.932414 3.85669)
(-0.480431 -5.40639 11.4853)
(-0.380083 -11.9137 15.1556)
(-0.334255 -22.5316 14.6694)
(-0.541595 -14.9593 4.97537)
(0.0623833 -3.01287 5.26945)
(0.359037 -6.5687 6.16069)
(0.871815 4.43391 -3.93755)
(1.70411 6.29198 -6.05871)
(1.45416 -8.69379 17.2352)
(1.20367 -20.8627 7.70901)
(2.42829 -3.21987 -4.68705)
(2.84239 -0.738391 0.765583)
(2.97923 -6.9329 -14.3912)
(3.14294 -0.709073 -8.88101)
(3.18586 -2.87716 0.0764501)
(3.2545 -5.60112 8.53078)
(3.49424 2.74214 7.76369)
(2.75586 9.09493 6.32486)
(3.74366 4.43532 -6.1984)
(4.0025 3.90594 -9.1597)
(3.43398 -5.68759 -8.89565)
(2.14951 -0.24013 -22.5614)
(2.17353 9.88123 -21.8716)
(1.53564 16.9342 -27.2618)
(1.14748 18.784 -13.8527)
(0.976369 15.2104 -20.0316)
(1.69133 4.52603 -1.99015)
(2.34585 6.09109 -5.91733)
(2.86568 12.0711 -6.83428)
(3.2649 -1.53186 14.733)
(3.6948 0.670174 9.13925)
(2.96862 6.26256 4.18225)
(3.5631 -1.13788 -0.900712)
(3.36991 -18.4371 -4.76628)
(3.75205 -8.92521 -5.81342)
(4.20144 -3.52791 -0.279001)
(4.39235 -10.9273 3.21584)
(3.67817 -3.91228 -10.8874)
(3.98163 -10.184 -23.727)
(3.66199 -6.87351 -9.97391)
(3.42551 -15.5682 -2.94154)
(3.31947 -8.09384 -8.86575)
(3.44349 -5.59204 -6.29292)
(3.5513 5.67007 -9.6682)
(3.92137 12.0542 -10.9047)
(3.68588 13.3997 -13.2491)
(3.40437 13.4119 -0.930352)
(1.86867 -0.286713 8.37202)
(1.50627 5.93161 6.54318)
(0.928637 6.55971 8.4928)
(0.831983 -1.25549 5.93031)
(0.166215 -11.7082 4.20479)
(0.00904382 -7.32758 0.00224793)
(0.612902 4.93509 -2.34794)
(-0.36894 -9.20532 -8.40877)
(-0.31202 -7.90318 -17.1913)
(-1.7641 -7.93764 -8.76883)
(-2.88202 -8.41937 -6.93065)
(-2.87304 -5.79201 -9.47765)
(-2.4087 2.07644 -14.2527)
(-2.33232 -5.45755 -3.19192)
(-1.5238 -1.78387 3.28824)
(-2.10234 -5.42841 -4.62325)
(-2.46877 -14.3539 -12.7137)
(-3.29936 -9.46882 -4.29096)
(-2.94167 5.33657 12.0415)
(-2.79318 7.87549 10.714)
(-2.80294 6.15504 13.083)
(-3.46056 -2.06228 20.4868)
(-3.63702 -5.19312 18.0278)
(-3.87994 0.881962 11.2636)
(-5.47505 -10.8249 9.14604)
(-5.96345 -9.15834 18.7472)
(-5.33557 -12.7622 5.51679)
(-5.06402 -17.8785 -4.5472)
(-3.94467 -4.03575 -2.28851)
(-3.60198 -7.31452 2.31333)
(-2.74271 4.47238 -12.3044)
(-2.94408 16.4836 -20.4882)
(-3.14187 14.0742 -14.4165)
(-2.45198 -5.67155 -16.6116)
(-1.83835 -3.88874 -8.66818)
(-1.85679 1.36112 7.53528)
(-1.43936 5.18075 2.78784)
(0.585046 11.091 1.38385)
(0.422007 11.0493 -5.15238)
(0.502439 6.31392 -4.84207)
(-0.35835 -1.1424 0.667814)
(-0.832344 12.0224 -6.44058)
(-1.25315 8.87751 -5.05421)
(-1.1399 1.4372 -3.47474)
(-0.666734 0.37608 -7.78953)
(-0.76382 7.79895 -7.5076)
(-0.869321 13.4567 -14.5405)
(-0.311266 16.2446 -4.36081)
(-0.89159 12.6829 -4.52952)
(-0.0703299 -1.11935 -0.540655)
(0.145219 6.66234 -7.275)
(0.415464 6.37649 8.18495)
(0.820853 -13.4703 14.7105)
(0.448645 -8.19917 11.5843)
(-0.124242 3.71761 4.74235)
(-0.381021 -0.687411 16.3462)
(0.0230173 -10.0604 18.4094)
(1.16737 -18.8668 15.9438)
(1.85675 -17.7033 8.52223)
(2.89737 -15.9427 7.04674)
(3.08762 -7.11456 11.5893)
(3.80038 3.96092 -4.75932)
(4.23162 -3.65186 -8.93821)
(2.44632 -17.2783 8.14477)
(2.45223 -12.4856 7.21015)
(3.31116 5.31729 -7.85679)
(3.53622 8.22228 5.18131)
(4.21249 -1.35998 10.2707)
(4.64658 10.1214 3.4095)
(3.82108 14.6168 -6.67224)
(3.93943 10.1366 -3.40485)
(3.68124 6.9856 -0.299095)
(3.81254 -3.60693 1.73805)
(3.85019 17.3103 4.3951)
(3.8382 14.1163 15.8711)
(4.53173 4.04154 8.71015)
(4.81389 -9.00619 6.26728)
(4.69567 -15.1507 14.8801)
(5.81682 -15.8996 5.10964)
(5.71291 -16.9294 -1.99007)
(5.42533 -12.418 -11.7099)
(5.08714 -9.37285 -14.2374)
(4.95934 -13.5246 -7.13531)
(5.31389 -12.5718 3.30586)
(4.51819 -5.13247 -7.62756)
(4.73865 -2.20595 -7.2635)
(5.53662 8.42234 -4.49668)
(5.34258 8.91661 1.17908)
(5.93015 13.1197 -6.17649)
(5.68492 12.7677 -21.0752)
(5.66511 11.9311 -31.6062)
(5.79514 7.72702 -28.3761)
(5.36691 -9.05826 -16.864)
(4.69537 -9.85704 -12.3456)
(4.24639 -7.19641 -4.82821)
(4.45417 5.00424 -4.92285)
(3.5727 3.34019 0.977532)
(1.48308 3.49523 4.35568)
(1.36491 3.47713 9.02851)
(1.85175 21.5965 10.9493)
(2.52859 14.3942 14.2291)
(1.10473 17.6261 18.6407)
(1.02721 14.6914 10.7489)
(1.51683 11.5422 4.53611)
(1.98008 -5.209 14.3235)
(3.09963 -2.40217 12.1482)
(3.74215 -4.63459 -1.3129)
(3.54277 5.00394 5.86759)
(3.33831 4.01682 -1.06218)
(3.46238 11.8086 -11.3505)
(3.28075 14.3611 -8.31402)
(3.51387 17.7509 -7.01842)
(2.16483 13.2582 2.11768)
(2.21877 -1.22122 2.76593)
(2.17001 -2.66375 1.84762)
(2.36017 6.29538 -4.7497)
(2.20516 5.75959 2.89765)
(2.50489 6.70024 4.61432)
(2.95074 -9.9415 1.98429)
(1.6331 -0.480903 -3.94757)
(1.88986 -2.35026 10.2349)
(1.84902 1.32696 -2.20335)
(2.08894 12.4049 4.43686)
(2.60245 1.39401 6.4615)
(1.63495 4.64294 -1.6366)
(1.26436 -3.71732 1.95801)
(1.52777 9.79299 -3.34465)
(1.52224 -3.43631 -5.95658)
(1.03348 -10.704 -1.50926)
(0.18611 -8.73192 -6.22732)
(0.486302 -10.7216 4.52942)
(0.504545 -1.79758 9.49603)
(0.162475 -3.5714 -1.60693)
(-0.370668 -3.531 -4.09561)
(0.509929 -1.38307 -4.16748)
(0.504955 13.4202 -2.59115)
(0.170426 -4.30536 -4.59297)
(1.56675 -6.89843 -6.18104)
(2.76767 -7.41635 -19.3914)
(2.03997 -2.45956 -20.619)
(1.68594 -6.7895 -12.4615)
(1.96577 -14.5703 -18.4429)
(2.49007 -18.8298 -31.1499)
(2.40794 -3.20314 -17.9235)
(1.29149 -18.5299 1.75645)
(1.69711 -15.3536 2.18556)
(1.36266 0.0218631 -4.33012)
(2.55209 -8.00094 7.68191)
(2.00242 -9.12466 15.6034)
(2.45917 -20.6075 18.9752)
(1.83864 -19.2227 14.4956)
(2.30103 -25.6611 3.15197)
(3.06753 1.11255 -6.32654)
(3.94571 14.1523 -2.80398)
(3.60519 23.4934 20.4629)
(4.10546 29.925 7.44513)
(3.91767 14.3106 5.11169)
(4.48735 11.2271 -1.61301)
(5.44158 0.46836 8.64428)
(5.90285 6.18436 0.662106)
(6.60922 -3.57621 8.95662)
(6.11263 -14.699 18.806)
(5.91041 -21.7605 18.5975)
(6.35949 0.898191 14.8834)
(6.87182 7.54727 -0.354183)
(7.07904 -0.325715 7.42745)
(7.3153 2.01215 9.43698)
(8.3239 4.75327 -8.58915)
(8.36514 5.28764 -11.9019)
(8.49803 17.9195 -13.8732)
(9.10853 31.5341 -9.74489)
(9.73674 23.6054 5.34481)
(10.2593 14.3717 9.45273)
(10.8218 10.9035 6.76832)
(10.3266 4.60713 3.32065)
(9.13671 -5.22385 -15.2647)
(8.67252 6.50002 -23.2818)
(9.77623 6.61196 -19.2603)
(10.2666 10.256 -3.16555)
(11.256 -13.6313 -3.1827)
(10.5207 -15.6914 -13.8221)
(11.0304 -9.12652 -4.71855)
(10.0709 -1.85784 1.98703)
(9.09162 -5.20606 -1.1349)
(10.2579 -5.62381 -6.60134)
(10.2108 -11.7094 -5.52101)
(8.87572 -23.9431 -3.03594)
(8.76982 -7.59917 5.34531)
(8.82824 0.103961 -0.326535)
(9.97746 3.94111 3.30654)
(10.4276 10.8056 -3.56006)
(11.4882 1.13302 14.9056)
(11.555 -12.0071 21.7066)
(10.4327 -13.6196 19.221)
(9.7908 -5.85635 12.6917)
(9.57528 5.00862 6.45519)
(8.90607 18.819 7.86159)
(8.30837 16.4878 -0.320557)
(8.45312 7.18838 -12.3479)
(7.97441 -5.2361 -15.8582)
(7.12571 3.65948 -26.0027)
(6.52396 -0.154101 -19.2348)
(6.56943 -12.759 -10.5122)
(6.22981 -10.1888 -2.66471)
(5.52488 -5.81763 -16.9987)
(4.09035 -6.03277 -13.3396)
(4.21987 -0.866048 -9.08117)
(4.26437 -5.00902 -0.66327)
(3.62923 -12.2306 -6.56808)
(3.16391 -6.26275 1.86137)
(2.95771 -3.73262 16.2585)
(3.1058 -18.8978 6.09842)
(3.63821 -18.6066 10.8528)
(3.70302 -8.80742 -0.0418014)
(3.43227 8.90977 1.64096)
(4.24234 6.82563 4.13901)
(4.68259 17.007 12.2406)
(5.37497 14.8729 0.0828602)
(5.40433 18.336 -6.45821)
(5.97703 6.83574 -5.2337)
(5.18712 -2.22157 -7.24481)
(5.25011 -2.33846 0.830409)
(4.32382 -7.82513 5.46868)
(3.47162 4.33479 13.7275)
(4.00941 5.51557 12.7629)
(4.37198 17.4377 13.7479)
(4.48196 15.0824 12.0387)
(4.12432 16.3704 6.91762)
(4.40722 10.1014 2.72809)
(4.87301 15.267 6.27229)
(5.24377 19.3823 1.68685)
(5.44022 -3.61502 -4.66699)
(4.43723 1.40161 -11.5383)
(3.79617 -0.383384 -11.9823)
(2.95184 -1.2217 -6.14582)
(2.71155 -2.12608 -11.297)
(2.44099 -3.50753 -15.4464)
(2.87283 -8.58155 -12.9378)
(3.45107 -6.84116 16.3401)
(2.37447 -14.4449 19.8182)
(1.62429 -9.45248 15.6177)
(1.65124 -14.141 13.2803)
(2.56157 -10.5205 -0.00932658)
(1.81039 -0.605726 -10.9443)
(0.659166 2.16232 -9.77347)
(0.216524 9.1774 -10.0184)
(-0.400337 17.1765 0.414948)
(0.100683 26.289 11.0442)
(-0.852276 9.91438 10.0943)
(0.606692 5.04278 9.93077)
(0.266993 5.3479 17.1451)
(-0.174691 6.90786 10.5117)
(-0.51853 -3.80921 -1.58878)
(-1.45916 -3.93081 0.975409)
(-1.45449 0.0909494 -4.28559)
(-1.12276 -9.53033 -15.1425)
(-0.728955 -3.22217 1.3856)
(-0.22947 3.85196 0.106483)
(0.316825 1.3504 -10.3079)
(0.715905 7.58736 -1.59085)
(1.16078 7.32661 -19.4126)
(1.70971 -4.54649 -20.4042)
(1.95523 -12.3445 -7.85608)
(2.29979 -8.74795 6.12254)
(2.68289 -6.59283 2.21673)
(1.85166 -11.0201 -5.29597)
(2.11779 -5.38173 -5.79596)
(2.16543 -4.13438 3.33022)
(1.6638 -12.658 -1.89928)
(1.71611 -3.65952 -6.9123)
(2.38255 4.73413 -1.93088)
(2.25563 10.0073 -2.27314)
(1.74938 -3.20684 -4.39603)
(2.41847 -12.7935 -4.92749)
(2.98032 -13.0466 5.10787)
(2.96154 -10.9494 -8.64371)
(3.96836 -4.84229 -18.7709)
(5.40446 2.70958 -18.9183)
(5.1972 0.432644 -21.0189)
(5.58189 6.98037 -16.6896)
(5.21457 -0.326995 -8.43104)
(4.98236 5.54054 -1.8139)
(3.9979 0.643908 1.96352)
(4.34936 -9.33499 -1.66084)
(3.98232 16.4368 8.01612)
(3.75379 12.5502 7.83706)
(4.48157 13.5168 17.818)
(5.03051 -3.1872 10.4133)
(4.74758 6.84985 -8.40043)
(4.12329 6.83613 -14.6316)
(3.58991 5.59227 -13.4379)
(2.83572 5.33538 -5.26587)
(2.62967 11.045 0.243427)
(2.7584 5.48066 -0.0888734)
(3.3667 -10.0868 -9.2322)
(3.46574 -3.86562 -7.6421)
(3.43457 0.599852 -8.85428)
(3.78181 1.58652 -9.19876)
(3.06653 11.0014 -0.494779)
(2.57862 5.91716 5.34737)
(2.66763 -2.70158 3.99616)
(2.46392 5.72516 -11.7731)
(3.60569 -9.90671 -14.5824)
(3.8943 -13.8723 -15.0859)
(3.47127 -11.4707 -7.70542)
(3.76812 -12.7697 -9.31629)
(3.30857 -7.52741 -6.95858)
(2.58662 -7.02533 -9.4399)
(2.70827 -10.6347 -4.21122)
(3.42905 -2.46119 -18.559)
(5.03894 2.49057 -15.5456)
(6.23699 -13.9304 -1.61553)
(6.76565 -19.1038 3.38804)
(6.61515 -23.2441 28.2288)
(7.48714 -21.7275 27.2382)
(8.50558 -25.7904 30.9312)
(9.94367 -18.0034 6.48716)
(12.3027 -8.92273 4.96195)
(14.5076 -1.76233 32.8946)
(15.7423 -3.44112 32.5115)
(17.2724 -0.769038 25.7098)
(19.6607 5.63517 24.1988)
(22.4915 18.6578 11.7968)
(25.0166 25.7225 10.3492)
(28.0259 12.7209 6.0254)
(31.8448 22.276 3.53608)
(34.3929 15.9038 5.08808)
(36.4721 11.2956 -2.88833)
(41.0725 -7.58039 -0.301508)
(46.2714 -15.4028 7.78228)
(50.2691 -8.47921 5.9212)
(55.2181 -11.5819 8.10872)
(60.8702 2.16025 -3.32363)
(64.9919 -0.220852 -9.50291)
(72.0108 4.83407 -10.5617)
(75.5782 -4.71129 -9.58219)
(82.625 1.05466 -17.5586)
(89.5071 3.57191 -19.7327)
(95.4626 1.89104 -12.7773)
(102.914 -5.73196 -18.0088)
(109.728 -0.242253 -18.563)
(113.803 -6.04836 -13.8577)
(124.487 -0.730119 -9.88878)
(133.423 0.0948065 -4.00174)
(144.599 -6.78921 -17.4806)
(153.123 -7.88616 -13.4842)
(153.93 3.02318 -10.8084)
(155.187 3.3203 -3.23974)
(156.281 -5.6647 2.49063)
(148.063 4.5455 2.36019)
(155.146 4.20765 11.5176)
(152.447 -1.99554 14.0293)
(151.819 -0.949156 19.3832)
(145.873 -3.32934 15.0684)
(142.987 -9.81166 9.4153)
(143.578 -10.3022 16.2108)
(141.572 -9.56701 12.6476)
(142.288 -3.82566 9.81995)
(135.982 -7.98645 11.697)
(137.749 0.646584 0.914354)
(129.037 -8.59937 11.9782)
(127.3 -3.05808 14.5052)
(129.218 -11.5753 10.258)
(126.112 -3.40741 3.53714)
(118.691 -5.8473 11.7635)
(113.598 1.00728 5.55065)
(107.032 8.30794 18.1918)
(104.286 4.20242 -9.11462)
(106.17 16.0219 0.69447)
(103.37 -5.50435 -7.34961)
(99.6831 -9.47823 -21.3409)
(98.5497 2.24755 -8.03397)
(89.0328 -7.32001 3.34581)
(84.8967 2.36638 1.14171)
(85.6145 -11.2157 1.98653)
(80.3595 -0.21403 -3.71691)
(76.572 5.00693 -19.3548)
(71.9027 14.3077 4.69636)
(64.7243 12.4741 0.40599)
(59.9171 6.81723 -12.6571)
(54.4644 -24.9026 -21.1258)
(49.9136 -28.7551 -1.90956)
(48.3363 -11.2786 -0.969257)
(46.9938 -11.5917 19.3449)
(39.2198 -17.9286 5.09841)
(37.7672 -18.1345 20.168)
(29.5708 -6.68604 15.2821)
(25.9751 15.8917 23.5647)
(22.3531 9.51942 13.2573)
(18.2863 -2.12878 30.6338)
(17.1839 14.6318 16.3638)
(15.8797 8.32743 10.9592)
(17.0302 -0.178641 43.3755)
(16.4945 4.65338 31.6049)
(14.4537 -3.45174 35.4972)
(11.8266 4.34876 26.3218)
(11.5332 5.08662 11.8207)
(9.38947 29.5586 19.4643)
(10.6397 21.0166 30.6062)
(9.4661 40.9762 16.4741)
(8.92803 29.7166 16.6916)
(9.89637 17.5575 17.2335)
(7.41199 4.87644 24.8422)
(6.23231 -3.65031 19.6998)
(5.72592 17.2638 21.2948)
(4.62153 15.9777 17.2385)
(3.59065 18.0364 1.33712)
(2.50894 25.7762 -2.10716)
(1.43733 10.2636 -2.84948)
(0.894623 5.311 5.18015)
(0.146225 -11.5266 -2.08158)
(-2.8103 -19.7409 -3.61882)
(-4.79161 -2.72033 -14.6487)
(-4.92994 -7.84194 -23.4358)
(-4.44271 -12.5904 -13.4143)
(-4.61071 -3.58298 -11.3931)
(-4.16152 9.239 -3.03646)
(-2.43494 -3.42608 -13.5058)
(-0.241425 -3.66046 -3.32744)
(0.265692 -17.8979 -6.15715)
(-0.0948947 -29.1895 -6.3858)
(-0.900771 -19.3601 3.23033)
(0.500347 -9.35544 0.894355)
(1.12064 6.05131 -16.8291)
(2.14476 -21.7077 -1.16117)
(4.24044 8.68889 4.55239)
(3.41841 9.58202 0.973528)
(3.5256 8.95635 19.5052)
(6.05554 2.56795 1.41018)
(5.78989 -0.567839 9.29082)
(4.82191 -8.74363 -2.47182)
(5.32223 -8.93882 9.3312)
(5.07553 -15.7882 11.7008)
(6.01628 -15.7983 -8.54077)
(4.9285 -10.2909 -9.28296)
(5.03232 12.521 -26.9178)
(4.11832 14.9478 -18.0544)
(3.87269 6.48279 -7.2375)
(5.54555 1.79012 -11.6432)
(6.27551 -1.87062 -18.6368)
(6.67715 22.0904 -9.26962)
(8.30538 7.48164 -24.2947)
(9.45471 18.4618 -4.56689)
(8.76208 -2.15115 -30.1684)
(8.16132 5.74362 -26.9494)
(8.49295 -0.272442 -26.0897)
(8.92727 -0.149445 -39.8177)
(7.2461 -23.6311 -28.4401)
(5.51216 -3.5954 -27.282)
(5.62357 5.15086 -24.4952)
(5.68952 32.3695 -18.6937)
(4.60398 30.6119 -38.4704)
(1.70883 -2.65304 -42.6552)
(-2.52157 -12.6045 -41.1061)
(-2.52611 -0.941255 -16.5611)
(-1.72203 -24.7813 -6.37137)
(-1.90366 -0.979719 10.5395)
(-2.24205 -12.1459 12.6094)
(-2.06689 -6.64149 19.9327)
(-1.7848 8.13405 -3.89231)
(-4.00001 6.7516 8.32932)
(-2.34873 14.7243 13.9757)
(0.147903 14.3115 13.1989)
(-0.231309 6.0505 23.3236)
(-0.35652 13.8959 5.78752)
(-2.06275 -1.93985 0.0283618)
(-2.72095 2.99804 -27.0737)
(-3.73172 19.6215 -12.6176)
(-2.38763 19.3449 -6.45508)
(-1.43764 19.4573 -8.73245)
(-1.00002 16.7818 -5.45973)
(-0.0853577 9.07962 -21.1773)
(2.0378 8.13625 -20.2973)
(0.129817 19.0778 -12.0102)
(0.782906 -9.36383 9.13136)
(0.40722 -16.9903 4.41658)
(-0.257338 -11.3363 16.3144)
(-1.01472 -3.28354 20.6041)
(-2.98232 4.5018 29.5009)
(-4.05019 -8.33946 21.4528)
(-2.00821 -8.73163 2.84605)
(0.828102 24.4268 9.43614)
(1.56385 20.1493 -4.56162)
(3.35789 12.8466 7.41472)
(6.32899 14.096 -18.5153)
(7.17984 8.59855 -8.63837)
(6.58885 11.1727 -19.576)
(7.36307 8.41508 0.624023)
(9.9934 -2.86781 -9.64599)
(11.5073 -5.39193 -18.4387)
(9.58667 -19.7351 3.32854)
(4.52024 -12.6173 24.6179)
(2.80317 -8.39405 27.3153)
(2.96937 9.13572 2.1835)
(3.41289 0.282778 15.3587)
(3.04916 -17.7693 9.50848)
(2.23674 -12.0644 4.8)
(-1.80778 3.56156 2.19577)
(-2.77223 -3.84956 7.77604)
(-0.65264 -12.002 -7.19887)
(0.368552 -3.59202 -21.7512)
(-0.627974 -4.37148 -13.8446)
(-0.00492187 -1.41681 -15.067)
(0.496434 2.25656 -2.41308)
(0.80629 -10.9542 -1.89047)
(-0.137151 -9.24009 11.7309)
(-2.06268 -25.2056 12.5129)
(-0.548285 -27.5038 24.7163)
(-2.16161 -30.5467 25.7502)
(-0.752742 -39.3252 15.114)
(-0.768988 -31.2086 6.25115)
(-1.59311 -18.1343 17.1055)
(-2.51133 -14.4869 24.4616)
(-1.6984 -17.6493 13.8911)
(-3.51199 -7.63559 27.2846)
(-4.68904 -17.5037 45.367)
(-4.75541 -2.48147 39.2886)
(-3.17131 -22.3371 -0.346503)
(-3.72987 -39.39 14.6542)
(-2.59205 -23.1289 12.8877)
(-1.2035 -25.1349 13.8294)
(-0.589487 -23.2868 17.8152)
(-0.267267 -9.65396 21.1743)
(1.6172 -13.5493 15.0697)
(1.50917 -9.32396 -4.49909)
(1.88662 8.54372 -8.00589)
(1.14234 14.4928 19.7082)
(0.0109029 -9.27014 53.7306)
(0.13129 -0.197569 41.4975)
(-0.621592 24.5178 61.7903)
(0.578618 -2.0126 51.7177)
(0.772709 5.89304 27.8623)
(0.00715237 31.7147 -5.83355)
(-3.14612 13.4802 -3.52663)
(-3.54135 5.22285 7.00951)
(-1.86642 5.51476 -4.09715)
(-2.43935 -17.3998 4.47364)
(-2.89339 -18.8265 28.6747)
(-2.12176 -18.752 4.25148)
(-1.51251 -12.0592 -7.62282)
(0.0263714 -16.11 6.78561)
(1.21771 -24.4279 -7.85617)
(-2.11509 -29.2762 -3.7019)
(-2.14089 -29.7713 2.16272)
(-2.61778 -15.2731 10.3727)
(-2.85923 -21.6229 6.64103)
(-3.4071 -14.7323 3.82729)
(-4.221 -0.409643 3.91226)
(-4.18511 14.0923 -5.97758)
(-4.54663 6.95098 -13.527)
(-3.83241 -15.9783 -3.17427)
(-3.83959 -0.662666 -3.05228)
(-4.40601 8.60625 -4.81403)
(-4.43368 11.7653 -23.1436)
(-4.03706 -1.43368 -4.90249)
(-3.78791 -14.5803 -11.1706)
(-3.55058 -0.713606 -21.2388)
(-1.94613 -0.601683 3.65947)
(-1.95428 18.491 -4.68945)
(-2.93343 -27.4231 1.50729)
(-4.95745 -7.85294 1.88007)
(-6.04022 1.46059 16.5732)
(-3.13129 -5.55027 18.087)
(-1.22253 -3.76197 2.90591)
(-2.88779 27.5963 -3.15452)
(-2.00614 16.2111 7.34402)
(1.57872 21.9256 -13.9741)
(0.763777 7.66515 -8.37171)
(-0.56318 23.3088 -22.877)
(-2.70249 12.8478 -16.9961)
(-1.04557 25.7966 -22.0264)
(-2.68964 12.1443 -42.2907)
(-4.32972 -18.1529 -24.0338)
(-4.13076 -17.3934 -9.11306)
(-2.76856 -2.2286 -22.7849)
(-3.28373 6.25461 3.03567)
(-3.45819 -11.3439 -11.3048)
(-4.16498 0.151848 -11.2831)
(-5.55624 -15.244 -5.16279)
(-6.95022 -10.0323 5.44495)
(-6.31545 -11.1818 18.3414)
(-5.80542 -9.30108 -1.10933)
(-7.01632 4.47684 6.98901)
(-6.54335 -11.3589 6.80725)
(-6.33092 8.37629 -7.78488)
(-7.54176 15.6739 17.9672)
(-6.46873 14.5912 37.936)
(-7.5753 32.2136 27.9704)
(-7.85459 -5.49179 41.5529)
(-7.90252 -19.6483 33.6263)
(-9.1666 -11.8795 34.1165)
(-9.63564 -22.7099 12.2848)
(-9.98996 -25.1856 15.7213)
(-10.7492 0.486112 12.6083)
(-11.164 24.8257 -8.39309)
(-10.5675 27.1535 -9.03847)
(-8.14754 14.9882 -13.6429)
(-7.18289 13.2971 -9.95558)
(-7.28055 -0.925111 -16.0189)
(-5.58844 -7.55706 -31.8828)
(-5.45493 -11.094 -5.7005)
(-6.16301 -2.11571 -1.89981)
(-7.44927 -0.700499 0.630009)
(-9.23586 -7.20972 -15.4077)
(-9.18781 5.64998 20.811)
(-8.38903 0.875247 30.8939)
(-9.26271 -5.34188 15.2023)
(-7.70745 -17.2471 18.6473)
(-9.40221 -27.6267 9.14813)
(-9.25043 -3.53446 13.8506)
(-8.07957 -19.6468 -9.32026)
(-5.35662 -20.8434 -10.1011)
(-5.66701 -12.2324 -3.34875)
(-5.20744 -1.71941 -10.8747)
(-6.92833 13.0465 -25.3866)
(-8.02495 27.5627 -36.9511)
(-8.06956 19.3062 -28.42)
(-7.22959 26.5525 -23.7064)
(-8.9043 32.7297 -11.1696)
(-8.33059 20.2712 -11.6382)
(-9.26603 7.45507 -29.3514)
(-9.29276 4.4845 -36.6802)
(-10.166 8.6773 -44.4128)
(-9.78104 12.8957 -16.5007)
(-11.1678 -10.8669 -5.60929)
(-12.243 -7.04732 -10.0535)
(-11.5633 14.3245 -10.5508)
(-10.672 32.7346 -19.1536)
(-6.82146 29.7675 -30.6151)
(-4.58107 8.90337 -20.4571)
(-4.02222 16.7326 -15.0533)
(-1.6756 18.222 -15.2086)
(-0.991141 12.5486 6.70666)
(-2.67248 16.4556 -9.78526)
(-1.91408 8.69724 -5.90878)
(-2.00005 8.7763 -8.3549)
(-1.51031 12.5059 -9.0433)
(-2.26231 34.8788 -9.69345)
(-1.73917 31.2693 -19.5807)
(-2.68277 30.2977 -19.6338)
(-3.81192 17.1512 -7.01574)
(-5.3777 5.07988 -13.6249)
(-4.56355 11.1105 -1.19244)
(-3.6554 -11.3092 7.83681)
(-3.96133 -13.9341 -1.86914)
(-3.87079 -8.7798 -16.7089)
(-1.90735 -15.8173 -4.35786)
(-2.86261 -7.16638 -6.90385)
(-3.99823 -8.73662 10.9796)
(-5.1539 -21.1539 9.32137)
(-4.0332 -22.0332 0.568627)
(-2.72194 -19.6277 -2.10007)
(-4.31524 -39.4524 -4.01632)
(-2.42095 -28.0943 3.97575)
(1.51996 2.07704 -5.5365)
(5.11188 8.05992 -3.78381)
(4.6941 18.9822 -8.19262)
(2.68467 -0.918997 14.2897)
(4.94016 -18.9416 15.8557)
(5.21612 -14.5118 7.52589)
(7.50475 -14.3596 7.19914)
(7.96482 -17.0387 -14.6696)
(8.46337 -7.78765 -6.45074)
(9.92766 -4.7856 -13.1134)
(8.67119 17.0378 -20.0386)
(7.60504 11.0793 -7.89312)
(5.85027 2.49281 -7.45883)
(3.01006 -3.6959 6.2869)
(3.93115 1.82551 17.6526)
(4.69747 12.8217 5.33999)
(4.61753 13.624 2.49671)
(3.33748 31.9084 2.58637)
(3.77128 30.2029 -14.627)
(1.73428 19.3002 -10.8317)
(0.807073 23.0121 12.2113)
(1.63364 25.1957 4.07826)
(-0.328484 21.6205 -9.42116)
(-1.04051 28.6224 -11.4926)
(-0.429583 17.6147 -22.8439)
(0.204385 0.49662 -25.0221)
(-1.62428 -18.3633 -13.8485)
(-1.31933 -15.5757 15.9026)
(-0.177715 -27.5783 20.3982)
(0.0370368 1.4828 0.41724)
(-0.889021 5.19318 10.5859)
(-0.915648 18.1503 0.843241)
(-1.26671 -28.6314 -0.512089)
(-1.39156 -4.76347 14.8024)
(-0.990546 12.9042 -8.33308)
(-0.527195 8.54033 -18.3432)
(-0.62267 1.27694 -20.3964)
(1.15032 -10.4286 2.08526)
(0.656729 10.1316 -22.5053)
(1.36516 -15.3221 -30.3142)
(3.27958 7.73759 -19.4466)
(2.95148 25.3983 -29.2105)
(4.47236 13.638 -13.4168)
(4.73129 19.3388 -3.1074)
(5.46894 3.18445 0.566145)
(6.03214 -11.1965 -4.95554)
(5.79079 -2.14773 0.652586)
(3.6751 -0.380139 -17.3178)
(2.73849 1.5288 -11.6464)
(2.6658 1.36355 -14.2872)
(3.01416 4.28681 -3.37262)
(4.28546 16.5848 12.1602)
(6.52985 -1.63581 -11.8999)
(5.14671 -1.75173 -4.10831)
(6.20264 5.75852 -4.45503)
(6.22684 15.0715 -22.279)
(6.34595 41.3478 -12.5145)
(6.21123 22.0361 -17.628)
(5.09637 15.868 2.00889)
(3.45972 16.3096 -7.91351)
(2.80939 4.42641 17.8091)
(2.93196 17.924 -3.77792)
(3.77843 7.31809 16.7439)
(3.51458 12.2031 -2.99892)
(3.36226 3.9889 -19.1046)
(3.18383 8.81229 -0.109576)
(2.65545 5.48124 19.5286)
(2.78026 2.91465 28.9789)
(3.44663 7.24057 14.7808)
(4.88185 3.45217 -7.84026)
(3.27107 17.1756 8.72688)
(2.332 32.1501 -2.3529)
(0.16646 11.4998 -7.7942)
(2.56608 23.614 -2.4611)
(5.84004 8.149 -10.9212)
(7.25687 3.14515 -5.21292)
(6.98759 -3.90188 -20.5148)
(6.01639 -19.3399 5.50344)
(5.57266 7.25274 30.1602)
(5.70285 -21.2513 18.4886)
(5.12678 -12.3447 19.5787)
(6.30852 -1.91646 13.1223)
(5.02386 -8.45161 26.1329)
(3.55752 -4.397 17.0291)
(2.80453 -12.3193 13.7804)
(3.90317 -13.863 -16.4237)
(5.41174 -0.335178 -5.12079)
(5.03482 -23.1532 -18.015)
(4.35425 -19.523 -22.6268)
(4.75167 -16.3744 -15.5709)
(5.44982 -16.7309 -7.44125)
(4.69243 -10.1906 5.83178)
(3.1904 -4.41082 3.96263)
(0.710901 2.31716 -9.64665)
(-1.78002 -0.524499 -7.83796)
(-1.37382 -4.08785 -28.3772)
(-2.98665 0.642786 -10.6305)
(-4.68624 24.3046 -8.67092)
(-5.54923 24.9052 -17.0665)
(-8.36794 10.6394 -22.0171)
(-9.39316 6.66465 -12.1131)
(-9.11394 -8.87214 -0.729129)
(-8.38346 -23.0302 1.4873)
(-8.51684 6.75356 -21.4124)
(-6.84336 -5.92423 -24.3858)
(-6.08921 -4.83679 -1.77297)
(-4.70521 -17.2172 1.41751)
(-2.86769 -26.3257 -8.02057)
(-5.82543 -4.19533 -21.1741)
(-6.21486 -1.79295 -34.937)
(-6.99129 0.249746 -33.2579)
(-7.51366 1.54918 -27.364)
(-9.25873 5.65984 -28.222)
(-9.49538 -5.48814 -10.3468)
(-10.0163 -20.6906 2.03618)
(-11.6499 -14.1084 -7.99831)
(-13.2983 -13.1856 -1.90508)
(-12.7127 5.12707 6.18104)
(-11.6377 7.86286 20.4596)
(-10.6916 14.4912 12.4292)
(-8.21507 5.21423 20.7501)
(-6.61442 6.93351 23.7677)
(-5.07337 7.31267 32.2211)
(-3.49256 -2.82543 19.486)
(-3.50163 4.63149 18.1691)
(-2.70409 17.3316 18.7427)
(-1.54284 13.5282 16.2241)
(-1.17578 17.8253 -4.51932)
(-2.43929 22.9084 -25.2745)
(-1.23267 29.7131 -21.8837)
(-0.18507 -1.78772 -26.384)
(0.692642 -9.05472 -39.5623)
(0.832708 -16.6232 -24.0101)
(0.586102 12.1573 -19.377)
(-0.336559 24.8395 -14.211)
(-0.961035 25.9497 -9.37013)
(-0.548631 10.2062 -0.729864)
(-1.87286 5.32152 9.22538)
(-3.39915 -7.74192 -22.8169)
(-3.4197 3.30226 -20.0944)
(-4.10264 28.9294 -23.6106)
(-3.84049 6.5206 -9.74767)
(-3.37364 -0.794036 -11.0136)
(-2.09036 -0.239984 3.98156)
(-3.88761 6.03941 3.75224)
(-3.67686 2.29452 -10.7707)
(-1.62548 -8.10775 -22.0802)
(-1.94584 -19.6424 -22.323)
(-2.60944 -11.5894 -23.8199)
(-3.1142 -3.36858 -11.61)
(-1.00165 -4.37144 3.55218)
(1.38207 8.59589 12.594)
(3.85511 1.56502 -37.1321)
(3.7301 15.1555 -15.2263)
(4.23296 16.6409 4.94662)
(4.85747 -17.286 11.8939)
(5.13165 -19.0442 21.0088)
(6.19721 2.91033 16.6221)
(9.17876 2.08252 7.23325)
(10.148 -2.76481 0.174058)
(12.5614 -9.00492 22.5194)
(13.7417 13.0151 8.94578)
(18.6135 -14.0658 6.58346)
(22.6109 -17.4953 25.8867)
(24.2566 9.00977 27.62)
(25.2699 22.6692 33.9036)
(28.0262 11.2215 42.7934)
(31.2196 -14.7398 21.852)
(31.6544 2.28082 -15.9135)
(34.6785 4.85474 -12.623)
(39.7224 6.21795 -1.04189)
(44.3549 -0.12895 -3.37566)
(49.8044 5.6301 -4.08333)
(54.5988 -14.9503 3.58055)
(62.7463 -21.3543 -4.58213)
(62.4687 -8.32512 9.65808)
(63.7007 -9.75343 9.99688)
(68.9048 -31.4367 0.274631)
(73.9856 -30.7196 -8.10199)
(83.2126 -25.4872 -24.5472)
(91.9756 -25.137 -30.4082)
(95.0012 -16.9613 -47.5885)
(113.865 -38.6211 -40.4223)
(119.866 -36.7579 -36.04)
(134.918 -42.1694 -30.6751)
(149.957 -37.7496 -26.5058)
(171.161 -22.5859 -15.8998)
(186.968 -34.3084 -21.8513)
(218.212 -19.6127 -20.7582)
(240.458 -28.2757 -13.9556)
(286.045 -16.7815 -11.7934)
)
;

boundaryField
{
    sides
    {
        type            calculated;
        value           nonuniform List<vector> 2((286.045 -16.7815 -11.7934) (-288.983 -1.23293 -6.80962));
    }
    empty
    {
        type            empty;
    }
}


// ************************************************************************* //
