/*--------------------------------*- C++ -*----------------------------------*\
  =========                 |
  \\      /  F ield         | OpenFOAM: The Open Source CFD Toolbox
   \\    /   O peration     | Website:  https://openfoam.org
    \\  /    A nd           | Version:  7
     \\/     M anipulation  |
\*---------------------------------------------------------------------------*/
FoamFile
{
    version     2.0;
    format      ascii;
    class       volScalarField;
    location    "0.005";
    object      mag(U);
}
// * * * * * * * * * * * * * * * * * * * * * * * * * * * * * * * * * * * * * //

dimensions      [0 1 -1 0 0 0 0];

internalField   nonuniform List<scalar> 
1000
(
585.013
255.246
205.438
204.364
204.224
204.41
204.61
204.733
204.74
204.71
204.641
204.609
204.623
204.667
204.808
204.918
204.954
204.961
204.947
204.938
204.955
205.041
205.18
205.302
205.363
205.384
205.404
205.452
205.538
205.636
205.775
205.937
206.06
206.153
206.232
206.306
206.402
206.568
206.825
207.133
207.425
207.677
207.915
208.192
208.557
209.034
209.633
210.385
211.349
212.457
213.199
213.449
213.495
213.482
213.395
213.214
212.828
212.174
211.258
210.08
208.707
207.21
205.652
204.072
202.492
200.921
199.357
197.798
196.24
194.681
193.116
191.546
189.97
188.387
186.797
185.201
183.6
181.994
180.383
178.769
177.152
175.532
173.91
172.287
170.663
169.037
167.411
165.784
164.157
162.529
160.901
159.274
157.646
156.018
154.39
152.763
151.135
149.507
147.88
146.253
144.626
142.999
141.372
139.745
138.118
136.492
134.866
133.239
131.613
129.987
128.361
126.736
125.11
123.484
121.859
120.233
118.607
116.982
115.356
113.73
112.104
110.478
108.852
107.226
105.599
103.972
102.345
100.718
99.0901
97.4621
95.8336
94.2047
92.5754
90.9456
89.3153
87.6845
86.0531
84.4211
82.7885
81.1552
79.5212
77.8866
76.2511
74.6149
72.9778
71.3399
69.701
68.0612
66.4205
64.7786
63.1357
61.4917
59.8464
58.1999
56.552
54.9028
53.2521
51.5998
49.9459
48.2904
46.633
44.9737
43.3125
41.6492
39.9838
38.3162
36.6466
34.9753
33.303
31.6305
29.9587
28.2874
26.6135
24.9274
23.2066
21.4067
19.4459
17.1773
14.3394
10.53
5.8613
2.45709
0.990834
0.405648
0.167699
0.0697856
0.02916
0.0122085
0.00511151
0.00213653
0.000890243
0.000369333
0.00015241
6.2513e-05
2.54703e-05
1.03044e-05
4.1381e-06
1.64922e-06
6.5221e-07
2.55917e-07
9.96328e-08
3.84857e-08
1.47488e-08
5.60735e-09
2.11327e-09
7.90838e-10
2.92215e-10
1.06858e-10
3.87947e-11
1.45341e-11
5.43033e-12
1.87582e-12
5.96805e-13
1.79942e-13
1.74647e-14
6.32796e-14
2.88386e-14
1.48826e-13
2.89055e-13
2.47683e-13
1.41395e-13
1.41041e-13
8.75115e-14
7.15516e-14
3.86707e-14
3.39801e-14
3.43558e-15
2.68286e-14
7.08721e-14
9.56406e-14
1.96366e-13
1.31028e-13
1.09433e-13
1.43844e-16
1.14938e-13
2.07504e-13
2.45856e-13
1.7945e-13
2.35328e-13
2.81551e-13
3.46279e-13
4.09887e-13
3.53114e-13
2.74277e-13
4.01268e-13
3.80896e-13
2.82089e-13
2.35775e-13
1.44957e-13
6.60565e-14
7.92115e-14
1.3864e-13
2.30113e-13
2.58805e-13
3.67453e-13
4.68556e-13
5.29634e-13
6.64736e-13
7.43249e-13
7.56055e-13
8.77151e-13
9.07226e-13
9.00081e-13
1.01972e-12
1.1273e-12
1.246e-12
1.33075e-12
1.15092e-12
9.40834e-13
8.47838e-13
9.10648e-13
9.40425e-13
1.01724e-12
1.10707e-12
1.05722e-12
9.63218e-13
8.75623e-13
8.06173e-13
6.77924e-13
5.59811e-13
4.79239e-13
5.34019e-13
6.46298e-13
7.94704e-13
8.98752e-13
9.21458e-13
9.86978e-13
1.13155e-12
1.81033e-12
3.56316e-12
8.60203e-12
2.43316e-11
6.80893e-11
1.8732e-10
5.0774e-10
1.35992e-09
3.61095e-09
9.51367e-09
2.48899e-08
6.45872e-08
1.66298e-07
4.24816e-07
1.07674e-06
2.70781e-06
6.75732e-06
1.67363e-05
4.11514e-05
0.000100487
0.000243812
0.000588185
0.00141212
0.0033776
0.00805982
0.0192188
0.04588
0.10988
0.264619
0.642582
1.57988
3.92101
8.28489
12.6281
15.8756
18.372
20.4537
22.3149
24.0643
25.7619
27.4394
29.1118
30.7846
32.4591
34.1345
35.8099
37.4844
39.1577
40.8293
42.4993
44.1676
45.8343
47.4995
49.1633
50.8258
52.4871
54.1471
55.8061
57.464
59.1209
60.7769
62.4321
64.0864
65.74
67.3929
69.0451
70.6967
72.3477
73.9981
75.648
77.2975
78.9464
80.595
82.2431
83.8908
85.5382
87.1852
88.8318
90.4782
92.1243
93.7701
95.4156
97.0609
98.7059
100.351
101.995
103.64
105.284
106.928
108.572
110.216
111.859
113.503
115.146
116.79
118.433
120.076
121.719
123.362
125.005
126.648
128.291
129.933
131.576
133.219
134.861
136.504
138.147
139.789
141.432
143.075
144.717
146.36
148.003
149.646
151.288
152.931
154.574
156.217
157.86
159.503
161.146
162.789
164.432
166.076
167.719
169.362
171.006
172.65
174.293
175.937
177.581
179.225
180.869
182.513
184.157
185.801
187.445
189.09
190.734
192.379
194.023
195.668
197.313
198.958
200.603
202.248
203.893
205.538
207.184
208.829
210.475
212.12
213.766
215.412
217.057
218.703
220.349
221.995
223.641
225.287
226.933
228.578
230.224
231.87
233.516
235.162
236.808
238.454
240.099
241.745
243.39
245.035
246.68
248.325
249.97
251.615
253.259
254.903
256.547
258.19
259.833
261.476
263.118
264.76
266.402
268.043
269.683
271.323
272.961
274.599
276.236
277.87
279.502
281.129
282.749
284.354
285.934
287.463
288.902
290.191
291.262
292.071
292.624
292.979
293.213
293.388
293.532
293.64
293.699
293.722
293.726
293.722
293.709
293.701
293.697
293.694
293.689
293.676
293.633
293.557
293.495
293.461
293.446
293.438
293.434
293.428
293.413
293.376
293.327
293.295
293.277
293.267
293.261
293.255
293.243
293.209
293.15
293.105
293.088
293.086
293.104
293.168
293.232
293.267
293.285
293.297
293.311
293.337
293.374
293.401
293.412
293.413
293.402
293.385
293.378
293.38
293.394
293.41
293.416
293.414
293.391
293.353
293.333
293.326
293.326
293.33
293.331
293.326
293.298
293.26
293.239
293.231
293.229
293.228
293.226
293.214
293.197
293.188
293.189
293.211
293.268
293.314
293.339
293.345
293.341
293.325
293.319
293.323
293.347
293.372
293.385
293.386
293.368
293.344
293.335
293.337
293.352
293.369
293.374
293.37
293.334
293.299
293.286
293.287
293.298
293.315
293.322
293.318
293.277
293.241
293.225
293.224
293.23
293.247
293.262
293.263
293.248
293.242
293.251
293.283
293.32
293.35
293.364
293.357
293.321
293.305
293.309
293.326
293.348
293.374
293.385
293.367
293.326
293.315
293.323
293.334
293.346
293.369
293.371
293.328
293.283
293.273
293.284
293.291
293.307
293.34
293.336
293.276
293.235
293.228
293.232
293.241
293.278
293.331
293.35
293.377
293.523
294.065
292.604
289.829
294.706
297.521
296.899
292.78
290.725
290.634
290.792
291.172
292.426
294.948
296.038
296.043
295.503
293.822
291.539
290.978
290.917
291.283
292.965
295.102
295.519
295.563
295.143
293.421
291.554
291.227
291.33
291.766
293.267
294.775
295.059
295.015
294.662
293.321
291.887
291.622
291.635
291.999
293.385
294.518
294.717
294.737
294.403
293.141
292.085
291.95
292.013
292.358
293.488
294.365
294.527
294.461
294.174
293.203
292.372
292.263
292.294
292.563
293.51
294.173
294.296
294.292
294.022
293.104
292.504
292.44
292.472
292.714
293.505
294.046
294.125
294.059
293.828
293.121
292.643
292.585
292.608
292.795
293.432
293.867
293.94
293.921
293.719
293.081
292.718
292.671
292.688
292.867
293.425
293.81
293.864
293.824
293.664
293.178
292.868
292.821
292.848
292.977
293.404
293.731
293.779
293.767
293.644
293.223
292.953
292.91
292.913
293.02
293.39
293.673
293.708
293.688
293.589
293.269
293.001
292.95
292.972
293.054
293.326
293.568
293.601
293.597
293.558
293.436
293.186
292.573
289.281
264.705
133.565
14.3567
1.16348
0.0912283
0.00714194
0.000558713
4.36949e-05
3.41622e-06
2.67012e-07
2.08641e-08
1.63026e-09
1.27665e-10
1.04285e-11
1.08935e-12
1.79152e-13
1.02745e-13
4.43358e-14
2.64464e-15
3.48184e-14
5.23066e-14
5.08478e-14
2.03511e-13
3.50307e-13
3.753e-13
2.48528e-13
1.77345e-13
1.21621e-13
1.34987e-13
4.01635e-14
1.12043e-12
4.7357e-12
1.43889e-11
4.10333e-11
1.13924e-10
3.12181e-10
8.40944e-10
2.25388e-09
5.99223e-09
1.58009e-08
4.12926e-08
1.0697e-07
2.74665e-07
6.98966e-07
1.76263e-06
4.4043e-06
1.09035e-05
2.67432e-05
6.4985e-05
0.000156455
0.000373243
0.000882526
0.00206901
0.00481234
0.0111143
0.0255192
0.0583488
0.13315
0.304139
0.698159
1.61942
3.74588
7.35197
10.9445
13.7985
16.1144
18.1229
19.9658
21.7231
23.4386
25.1343
26.8207
28.5021
30.1797
31.8541
33.5254
35.1936
36.8589
38.5215
40.1814
41.839
43.4943
45.1475
46.7988
48.4483
50.0961
51.7423
53.387
55.0302
56.6721
58.3127
59.9521
61.5903
63.2275
64.8636
66.4987
68.1328
69.7661
71.3985
73.03
74.6608
76.2909
77.9203
79.549
81.1771
82.8047
84.4316
86.0581
87.6841
89.3097
90.9348
92.5596
94.1841
95.8082
97.4322
99.0558
100.679
102.303
103.926
105.549
107.172
108.795
110.418
112.041
113.664
115.287
116.91
118.534
120.157
121.781
123.404
125.028
126.652
128.276
129.9
131.524
133.149
134.773
136.398
138.022
139.647
141.271
142.896
144.52
146.145
147.768
149.392
151.014
152.636
154.256
155.874
157.491
159.104
160.714
162.32
163.922
165.517
167.106
168.687
170.261
171.827
173.386
174.938
176.486
178.033
179.58
181.13
182.68
184.217
185.713
187.116
188.36
189.372
190.125
190.584
190.845
190.962
190.978
190.947
190.762
190.177
189.287
188.495
187.835
187.254
186.759
186.375
186.094
185.874
185.672
185.453
185.197
184.933
184.721
184.58
184.474
184.4
184.355
184.305
184.214
184.055
183.891
183.772
183.728
183.718
183.713
183.694
183.636
183.496
183.353
183.302
183.286
183.295
183.325
183.338
183.325
183.211
183.03
182.911
182.88
183.179
183.859
227.802
522.465
)
;

boundaryField
{
    sides
    {
        type            calculated;
        value           nonuniform List<scalar> 2(522.465 585.013);
    }
    null
    {
        type            empty;
    }
}


// ************************************************************************* //
