/*--------------------------------*- C++ -*----------------------------------*\
  =========                 |
  \\      /  F ield         | OpenFOAM: The Open Source CFD Toolbox
   \\    /   O peration     | Website:  https://openfoam.org
    \\  /    A nd           | Version:  7
     \\/     M anipulation  |
\*---------------------------------------------------------------------------*/
FoamFile
{
    version     2.0;
    format      ascii;
    class       vectorField;
    location    "0.00144/lagrangian/dsmc";
    object      U;
}
// * * * * * * * * * * * * * * * * * * * * * * * * * * * * * * * * * * * * * //


26540
(
(158.779 9.70766 291.818)
(-76.237 192.602 1169.28)
(227.99 56.8078 -50.9973)
(583.409 -831.129 386.121)
(-428.595 158.844 295.31)
(-295.233 1042.35 167.643)
(294.132 232.55 1047.09)
(913.095 272.405 266.304)
(-767.96 -100.25 330.873)
(-32.747 -269.292 -323.831)
(-215.619 -312.77 717.086)
(-198.092 226.687 -458.449)
(-580.868 269.554 -214.238)
(-249.944 739.831 -20.2965)
(1178.24 962.05 -111.834)
(162.495 -250.341 1651.3)
(-866.676 712.991 -365.773)
(327.5 458.314 -308.239)
(-275.033 319.812 909.492)
(-581.28 -781.029 -173.279)
(338.338 583.161 113.713)
(55.3455 -968.461 232.91)
(-358.318 275.008 669.565)
(467.654 -32.209 777.182)
(-18.7845 15.1768 -91.5908)
(-1287.95 -1029.51 -548.135)
(-486.867 -88.9385 153.973)
(-418.511 -1004.95 206.203)
(617.48 324.459 -268.439)
(837.232 -298.972 800.045)
(-156.363 0.68328 150.717)
(-278.392 -611.749 7.80387)
(325.099 474.275 585.556)
(-223.591 -73.5621 682.461)
(-859.085 662.111 211.793)
(169.173 674.943 -235.865)
(143.472 -118.384 443.573)
(-303.898 -442.581 389.103)
(966.825 -325.198 31.7892)
(642.823 164.744 -186.119)
(-114.177 -124.091 -28.8041)
(-191.776 -467.464 460.182)
(333.404 301.8 -297.081)
(-1067.84 51.9059 98.6227)
(48.4142 -157.601 178.451)
(309.489 -388.128 996.762)
(313.186 124.695 503.262)
(-119.532 326.969 169.318)
(678.864 -576.936 255.472)
(37.9467 -61.9499 195.106)
(542.198 -197.133 -577.239)
(332.725 -483.386 327.746)
(-25.6335 293.57 71.2525)
(198.689 -558.213 -40.6982)
(825.535 353.59 -493.439)
(-395.758 616.669 -40.884)
(-617.663 78.1018 -49.1767)
(-464.917 4.51043 -376.514)
(-129.921 35.7923 -396.255)
(59.1615 56.5998 -55.1001)
(-213.054 180.08 -34.5923)
(-79.0733 27.4344 289.044)
(-421.765 73.8375 677.342)
(-237.73 965.069 128.146)
(-483.848 601.825 -500.399)
(136.224 238.314 -229.76)
(711.25 -699.387 235.059)
(-542.323 1221.33 -242.191)
(-463.203 -311.421 -986.048)
(-893.223 208.006 279.483)
(-233.336 -36.037 669.453)
(-687.113 -375.617 63.5435)
(200.405 -1119.99 -99.0839)
(82.7244 422.412 -594.179)
(104.143 -849.192 -1018.85)
(617.776 23.1532 -528.722)
(-188.592 -919.078 -499.794)
(-85.7891 -701.294 -182.291)
(343.684 -629.95 294.505)
(362.158 354.728 -147.811)
(-2.37436 412.586 104.588)
(-775.801 -721.821 564.724)
(38.9747 -279.622 -399.917)
(-549.119 647.146 235.103)
(-213.896 -463.951 48.6558)
(-251.319 171.95 -964.591)
(399.147 -53.9974 -747.979)
(92.1102 -336.043 -792.978)
(114.768 -79.3462 -333.483)
(500.408 -212.828 516.906)
(226.56 -33.2958 -36.1959)
(422.438 -941.543 -90.7627)
(-440.564 -202.758 -433.901)
(-239.799 -6.30871 362.793)
(-106.966 499.162 -178.846)
(-272.991 -48.6754 -85.3418)
(164.971 -445.949 -480.35)
(40.5491 -331.066 -520.692)
(336.16 -749.959 -888.543)
(-223.786 436.44 -146.413)
(416.875 528.196 -850.092)
(-115.424 120.3 -85.3551)
(-192.096 -213.501 -117.779)
(82.1719 415.635 233.922)
(-317.256 309.963 151.76)
(254.452 181.007 119.101)
(-588.609 236.318 -97.1236)
(-503.91 -245.193 -18.3198)
(-432.494 567.154 -316.455)
(211.312 414.244 348.398)
(-1188.77 -155.549 -776.698)
(-830.195 136.797 -109.881)
(-306.264 615.474 425.901)
(-323.512 412.301 -327.57)
(243.222 -180.885 -950.61)
(916.478 367.572 -680.833)
(-140.104 114.345 83.2676)
(-922.875 92.8236 370.628)
(77.6127 43.7915 -14.0483)
(217.076 -314.419 31.6518)
(111.691 165.281 754.419)
(33.313 -278.547 172.576)
(-594.293 108.468 -24.7462)
(15.6365 -376.582 695.683)
(-316.299 -519.334 -333.423)
(376.46 186.199 1001.32)
(-331.039 160.265 -412.116)
(8.88526 100.152 145.003)
(319.209 478.385 142.661)
(-1032.9 -307.17 -483.071)
(-312.175 277.396 411.203)
(-860.106 597.359 -858.872)
(217.135 518.553 117.879)
(506.989 -1155.74 -84.8046)
(454.055 -334.927 -188.747)
(87.1096 836.855 -918.281)
(-54.704 -715.315 -166.975)
(-17.0643 501.998 9.32612)
(19.5699 638.085 108.227)
(258.989 846.443 -560.179)
(-884.236 151.781 -488.195)
(322.481 -60.1832 527.023)
(-698.325 -308.28 -570.207)
(-429.92 23.7867 -252.94)
(-210.621 -37.9594 154.958)
(171.578 220.866 -569.503)
(1148.2 -442.255 -99.1332)
(-353.629 -34.5053 -36.3908)
(-118.059 -210.568 -571.159)
(-472.175 -529.508 -326.775)
(-528.494 -68.5633 323.271)
(1205.84 964.151 915.182)
(-222.697 -745.523 -472.119)
(-1211.71 975.924 -87.0873)
(-1082.42 1106.95 474.946)
(-380.902 283.79 247.936)
(-191.62 -144.83 84.1591)
(-13.9966 -753.044 1367.11)
(-409.853 -1136.93 -179.508)
(-277.242 1236 -146.148)
(511.722 -853.196 187.221)
(-402.307 360.991 -85.1046)
(911.124 -269.004 344.363)
(3.80143 -546.689 -803.838)
(-642.077 -730.93 -171.797)
(-56.3753 -636.621 433.81)
(152.984 -313.607 -502.327)
(-285.892 1216.71 -75.354)
(-626.093 137.572 -323.632)
(-625.068 -202.672 153.714)
(138.528 -152.778 124.978)
(-552.242 380.325 -446.98)
(146.44 -149.646 610.619)
(-341.927 -65.6055 396.003)
(-264.188 1515.04 16.2511)
(-937.89 -61.5834 765.278)
(-1012.16 1.2619 -113.132)
(181.955 163.478 66.5766)
(-1048.14 522.222 33.8383)
(-107.105 264.988 635.277)
(23.2873 264.828 -1447.09)
(4.00426 124.995 -546.196)
(396.324 -869.331 -764.534)
(-0.462559 -275.79 193.224)
(-966.859 -439.081 664.473)
(264.353 12.218 908.466)
(301.441 -436.152 733.364)
(2.30695 -517.811 139.594)
(1185.28 884.089 412.377)
(-160.303 1655.02 259.822)
(-9.35639 946.28 -755.861)
(631.199 317.301 -723.692)
(-1054.42 -243.568 979.841)
(621.244 -146.065 228.196)
(553.856 -304.129 -432.864)
(379.071 -764.149 -44.1993)
(-111.898 758.141 -494.263)
(-156.856 -170.505 19.004)
(62.5271 210.242 152.826)
(-522.149 -579.329 219.29)
(-158.784 -219.792 396.154)
(306.802 -204.558 -343.262)
(-37.3881 849.293 883.308)
(-647.294 728.127 69.6252)
(1644.03 -378.962 -302.808)
(17.2246 208.703 873.66)
(188.761 -310.035 103.787)
(-440.641 -254.466 -393.704)
(-607.514 171.869 53.2896)
(82.6817 528.923 -787.897)
(457.399 298.149 34.6117)
(-423.665 421.314 533.234)
(1199.33 739.884 -492.718)
(-893.305 138.797 336.849)
(338.891 -369.361 -117.35)
(-74.8832 -671.671 -299.543)
(548.597 -299.672 -54.0913)
(-1377.43 -901.81 -395.508)
(-796.15 553.786 -926.58)
(492.926 454.41 719.85)
(-126.128 157.41 69.7246)
(206.993 -1003.56 221.484)
(-407.024 -359.293 376.877)
(-14.3321 697.306 782.207)
(740.44 499.894 103.867)
(-191.852 96.8767 224.915)
(-235.952 -459.862 -417.061)
(90.58 -263.62 -836.068)
(1208.43 -797.105 -1005.13)
(251.002 66.9697 -20.9411)
(-264.724 -56.1333 -436.346)
(-663.044 229.251 311.234)
(-893.434 38.4625 -209.155)
(-362.034 -80.2477 503.409)
(308.455 -208.071 195.341)
(-187.176 -995.483 955.974)
(-460.731 -0.38108 559.651)
(283.769 226.451 114.394)
(976.677 -535.483 -980.84)
(437.582 -23.7642 -160.256)
(256.574 -241.249 303.626)
(-789.402 285.908 139.231)
(685.899 120.016 1085.83)
(190.413 -584.513 -281.257)
(-126.397 540.112 -1034.34)
(769.073 -19.6053 396.291)
(-702.299 -122.643 898.436)
(198.79 -325.689 194.816)
(261.2 1.01427 27.5776)
(-280.008 69.3642 369.991)
(216.093 598.608 1203.73)
(1086.9 -324.951 62.2023)
(415.172 244.492 129.06)
(-289.867 -768.216 980.868)
(407.224 -762.893 636.574)
(-697.828 -366.9 -232.869)
(892.094 -32.6754 531.4)
(390.831 -800.031 461.871)
(-840.778 517.11 -211.154)
(1012.53 112.841 -118.506)
(512.115 -710.364 -48.8621)
(-565.741 409.88 152.211)
(26.0842 438.854 -3.50473)
(-364.373 182.087 -7.3271)
(440.5 -122.771 291.754)
(-205.706 152.76 2.92857)
(-452.252 216.465 -345.722)
(365.737 436.286 -710.545)
(240.989 -527.415 -276.641)
(485.963 100.401 -406.203)
(-1695.62 -362.139 -257.113)
(367.731 -606.731 932.599)
(-125.727 228.674 -1026.26)
(176.267 -597.892 -1000.03)
(-267.433 -645.867 385.246)
(-189.866 104.809 195.009)
(-1032.42 -231.978 -105.02)
(331.537 344.504 88.5595)
(550.629 133.143 -152.376)
(-379.102 -1065.17 716.711)
(10.8117 -80.9778 -217.507)
(-509.931 302.85 231.768)
(-577.176 -522.118 824.231)
(780.947 -361.88 -305.814)
(-373.817 238.875 -474.419)
(236.022 -722.69 -432.599)
(-438.712 301.059 -983.822)
(-609.261 -457.289 -213.125)
(642.695 -140.113 296.32)
(-694.717 253.019 382.171)
(-274.922 635.165 455.417)
(-378.277 -355.862 425.056)
(-150.681 1170.66 14.9435)
(330.1 360.173 56.8098)
(160.41 157.233 -94.6706)
(-815.705 -1083.8 -738.821)
(461.006 -216.744 283.821)
(-1486.28 51.2169 -139.712)
(112.908 -160.407 118.131)
(-886.486 187.556 -701.394)
(651.712 504.682 219.048)
(98.2525 610.811 393.797)
(-9.97269 -191.449 1026.41)
(-226.03 684.865 -42.8474)
(-652.393 645.313 415.797)
(729.781 308.274 617.58)
(658.187 -103.916 1092.09)
(-209.954 -85.6882 144.325)
(-597.598 245.67 -771.433)
(100.661 -376.603 -498.788)
(735.625 538.542 -789.288)
(-298.067 582.911 -429.59)
(-331.176 1078.75 458.637)
(1155.64 131.232 29.1828)
(-140.582 148.772 131.306)
(9.69524 804.211 317.163)
(692.121 488.468 -554.938)
(710.023 656.297 -314.519)
(1103.56 -508.446 321.572)
(197.197 174.751 -227.167)
(-377.428 217.955 -43.6228)
(-36.0285 -21.996 1211.46)
(86.1847 -896.477 80.4568)
(367.404 161.926 -237.017)
(305.16 -437.185 205.128)
(961.014 341.442 -315.592)
(-359.022 336.702 -412.321)
(528.692 -574.977 166.642)
(528.911 -159.8 744.719)
(53.9657 -440.072 156.791)
(734.63 -22.4683 635.314)
(-412.206 -386.147 402.645)
(360.957 -43.257 864.144)
(-587.353 208.063 809.637)
(526.194 379.092 -779.082)
(277.504 232.885 931.534)
(353.072 -230.043 46.7248)
(-596.63 229.221 -273.369)
(1073.62 -235.391 837.617)
(662.061 -126.981 913.148)
(690.173 286.901 -2.54359)
(203.151 241.434 -368.176)
(-539.574 -70.6058 85.3408)
(62.0727 -203.645 703.162)
(569.211 -281.666 -151.971)
(-619.637 450.784 309.662)
(162.339 101.355 -318.179)
(-200.957 282.637 -311.016)
(-32.8162 571.172 1090.22)
(86.0888 87.9817 748.067)
(444.397 33.6274 674.143)
(349.06 503.179 -625.137)
(1296.06 99.2179 -249.386)
(36.7027 242.504 59.9608)
(251.357 275.063 -89.0171)
(-734.639 4.55018 363.282)
(608.244 -269.801 823.982)
(-821.712 -507.17 804.49)
(362.45 429.436 902.168)
(-98.7502 -215.315 -357.762)
(-508.131 578.298 1395.76)
(-222.326 178.26 -636.062)
(140.495 -453.532 200.3)
(-856.518 -228.831 330.644)
(553.567 -850.6 666.38)
(-977.566 -1026.17 -256.103)
(-64.9331 -237.712 662.245)
(-184.764 730.104 -485.912)
(29.8065 -88.5432 -149.026)
(-372.57 -168.206 -37.1639)
(96.8228 249.154 28.5003)
(-260.102 -35.885 736.302)
(-823.743 -77.6362 -132.975)
(1231.46 -353.117 36.9266)
(254.126 695.397 -361.886)
(-471.232 719.926 819.298)
(-1322.28 -247.31 1048.36)
(602.801 362.327 1022.89)
(-39.2855 726.883 -59.4569)
(-476.61 796.37 51.4901)
(306.181 -674.847 586.869)
(88.7659 -163.671 45.3289)
(204.851 -388.178 654.702)
(-91.1534 -18.5677 -65.8317)
(181.087 -261.119 -31.9867)
(-117.29 368.5 1235.44)
(-268.084 530.489 451.389)
(251.567 -256.656 44.1013)
(424.101 207.027 348.989)
(-907.595 -102.333 -785.663)
(238.618 629.425 -597.081)
(77.5384 -627.292 -410.539)
(631.207 -616.562 169.614)
(-940.468 -459.742 119.254)
(-390.838 -326.562 305.909)
(-140.066 306.849 -1161.09)
(521.587 -714.237 -372.977)
(670.42 -614.136 -196.718)
(790.883 235.263 -935.689)
(756.032 158.473 4.6864)
(-464.282 -319.018 402.646)
(-549.781 295.833 71.1862)
(695.85 427.62 773.082)
(58.4129 -443.559 -1282.73)
(851.574 -596.29 -196.504)
(-29.6121 373.479 60.4053)
(626.454 -901.367 -398.24)
(-198.777 -155.375 -152.161)
(719.023 180.468 -1.30074)
(-305.852 379.939 -654.438)
(286.054 -253.145 -38.0396)
(-438.165 -728.267 271.672)
(333.615 178.691 -173.78)
(283.259 591.534 174.12)
(81.9037 -953.591 -88.7751)
(-688.555 -295.038 251.433)
(-724.239 -662.783 -618.061)
(-282.441 307.222 -674.631)
(627.405 697.47 111.147)
(387.145 -2.81034 -406.073)
(-771.544 -1287.3 -798.106)
(-139.803 745.306 527.287)
(-689.33 -157.694 270.831)
(-776.553 -358.994 856.34)
(872.925 -762.494 486.688)
(286.542 -862.24 -523.462)
(936.469 -307.073 436.897)
(122.771 -15.4762 224.924)
(-374.376 -398.027 -1171.9)
(643.354 131.827 -848.169)
(-920.582 -418.621 -194.912)
(451.476 382.335 469.409)
(455.941 -449.316 -369.544)
(-634.879 431.196 937.997)
(-805.119 157.386 -307.247)
(-425.689 461.115 -342.78)
(-459.001 563.737 742.8)
(-414.218 453.518 -5.76185)
(-148.545 -217.475 15.4011)
(132.387 726.319 -184.619)
(604.966 520.797 -582.917)
(-482.463 58.3432 149.058)
(941.113 416.475 -329.154)
(273.507 -704.676 91.2312)
(-3.85185 163.009 66.5279)
(490.442 515.071 -339.418)
(-481.661 -1072.88 -552.377)
(87.2894 -255.92 -1074.6)
(-1027.18 -559.533 -345.668)
(-352.752 293.976 418.228)
(487.77 223.171 -647.7)
(492.369 985.415 796.457)
(-444.7 -930.216 746.75)
(715.694 47.461 -251.072)
(92.5028 107.744 394.746)
(-61.0544 1058.83 -196.188)
(33.7993 373.856 527.417)
(-605.993 207.657 363.925)
(161.349 523.431 -205.522)
(1112.14 883.845 -119.769)
(-613.392 -78.3201 424.864)
(739.809 153.982 350.135)
(192.609 -983.141 388.075)
(66.7245 230.805 -24.5353)
(134.152 114.18 -554.856)
(560.168 379.619 -133.514)
(-1040.33 -1195.99 -158.485)
(-369.782 455.672 -186.572)
(-572.862 -104.052 210.863)
(48.4764 -163.828 -132.736)
(538.604 -246.609 1034.76)
(529.523 478.901 69.736)
(314.131 -393.317 -480.729)
(314.192 -775.74 374.984)
(57.2199 686.404 4.11621)
(47.2812 -293.465 636.878)
(-157.895 -125.073 -92.2409)
(-1356.82 293.363 -71.5084)
(-660.184 -609.008 268.683)
(-117.98 -273.157 -154.659)
(61.5398 -482.592 -648.677)
(-152.367 487.287 -10.5663)
(-104.769 -645.46 1094.5)
(-332.36 118.709 800.078)
(410.984 740.384 293.004)
(-418.359 924.699 244.124)
(-4.82343 644.148 -45.8929)
(-453.573 100.032 -1094.59)
(39.1481 -424.78 441.102)
(584.77 344.937 1509.75)
(-113.008 618.48 458.437)
(-1590.25 -988.468 -566.212)
(-390.801 281.181 -49.7627)
(-537.9 -1074.74 -187.448)
(373.074 370.483 874.503)
(956.401 168.094 -538.197)
(-43.5313 449.016 836.721)
(-598.79 -171.689 119.746)
(315.932 -946.092 347.663)
(-66.3155 -798.949 3.72301)
(-255.288 -44.0448 -765.077)
(-6.0397 -120.495 547.834)
(226.73 667.02 -258.859)
(123.687 567.515 -614.213)
(-726.138 59.8083 -420.202)
(143.283 -434.747 -500.236)
(235.507 -256.394 267.603)
(-514.604 71.4796 -405.078)
(102.436 102.544 381.448)
(41.7065 -416.884 -836.05)
(-336.165 -303.059 -201.203)
(-11.5827 124.343 -507.971)
(-195.649 704.507 -339.318)
(-176.739 185.461 -580.554)
(-505.362 391.115 432.978)
(-1135.24 426.96 -659.622)
(170.004 374.745 347.673)
(1086.92 -106.574 -108.377)
(-478.612 -294.001 122.163)
(-809.383 507.314 1095.59)
(638.744 -1252.29 -244.794)
(175.774 102.739 125.548)
(337.171 770.094 -654.615)
(-333.129 -388.931 377.218)
(-378.097 259.256 -748.154)
(-32.1617 830.092 469.75)
(-538.427 -746.445 -272.481)
(-55.0355 -450.058 254.423)
(-78.7534 -424.207 664.165)
(-697.93 -14.5439 -516.435)
(-700.924 10.2391 -183.156)
(221.545 301.703 -107.068)
(161.233 -378.669 5.98582)
(213.786 264.232 607.272)
(176.42 335.377 207.373)
(854.633 -344.186 -377.36)
(-23.0056 -160.948 -95.2822)
(-104.267 217.196 803.289)
(-103.217 -297.711 -55.8659)
(24.5823 264.484 -409.234)
(465.639 848.412 -603.938)
(-211.932 389.322 -496.822)
(906.012 77.4334 -336.298)
(-121.865 681.8 234.261)
(414.531 -1139.26 -299.876)
(-134.275 -308.642 649.182)
(-297.873 -693.134 330.229)
(1046.19 -173.393 865.442)
(351.381 94.8343 1217.25)
(-194.85 89.6329 30.2378)
(-491.157 97.2635 -676.079)
(-161.188 -734.623 164.526)
(134.267 237.395 -398.986)
(92.1905 266.625 -113.304)
(95.3378 -403.758 648.317)
(217.446 571.101 -118.296)
(-403.767 474.138 513.559)
(1179.59 -360.449 -669.154)
(592.994 -546.711 -784.935)
(-429.07 -338.373 -491.458)
(843.138 447.935 -205.865)
(444.821 -749.271 -238.121)
(-677.267 -156.607 -989.767)
(124.438 -251.538 1191.83)
(64.7856 -720.914 -381.709)
(1043.41 -83.0086 270.102)
(-428.541 -600.177 450.233)
(227.904 -340.312 66.3433)
(600.506 -315.97 432.717)
(234.88 -736.564 -232.532)
(-888.084 -649.408 -952.425)
(633.83 -903.177 364.027)
(9.30751 -540.273 794.926)
(759.769 -100.148 581.243)
(458.95 1460.33 282.199)
(223.982 81.2559 107.555)
(211.795 -750.102 613.275)
(-202.059 299.305 79.0998)
(287.918 677.586 39.7485)
(-670.779 -215.865 -346.914)
(197.016 -247.904 -166.231)
(204.635 -210.085 -578.456)
(-18.8383 372.354 168.875)
(-432.044 58.8553 -31.0283)
(-940.778 802.452 134.012)
(-763.124 333.864 276.897)
(274.959 1167.97 29.0894)
(266.101 -393.371 136.235)
(-252.172 1031.79 -14.5084)
(471.006 363.767 -649.853)
(833.854 197.263 529.558)
(-1335.14 1090.56 -311.65)
(105.229 300.923 194.68)
(233.902 -485.477 -86.4739)
(4.57843 1044.23 -567.557)
(-983.883 -1342.92 -6.73699)
(281.385 94.2267 43.0312)
(551.168 -344.969 123.36)
(-191.557 558.101 204.907)
(-1163.79 -369.761 -60.5612)
(632.272 -902.972 -151.933)
(31.9547 63.2068 -540.537)
(-179.728 342.9 -35.4036)
(473.247 -322.691 643.909)
(-286.155 -574.549 937.442)
(89.5752 623.275 83.945)
(565.028 313.069 -224.689)
(221.937 74.5826 -582.464)
(279.896 111.482 -143.739)
(500.639 307.041 -199.694)
(205.016 -44.9196 -910.942)
(-32.0768 -225.862 254.845)
(-669.34 -375.67 -47.5579)
(-505.924 296.511 -39.0297)
(-153.089 574.157 570.112)
(-470.288 536.37 -237.398)
(-532.175 457.997 -280.001)
(316.1 391.848 56.6133)
(749.515 -284.511 711.226)
(-558.896 -643.384 41.9469)
(770.709 -154.009 630.418)
(470.833 -250.654 -48.7335)
(559.457 505.591 -479.763)
(-870.202 217.908 201.509)
(1014.08 -360.708 465.53)
(-417.744 631.467 -333.262)
(365.775 -218.982 896.337)
(1009.43 -408.025 670.046)
(468.694 1025.56 801.511)
(522.408 -438.241 456.263)
(-410.543 -573.22 843.629)
(860.826 711.33 -403.019)
(664.943 -832.066 -950.694)
(-272.984 902.907 283.922)
(336.676 1009.85 641.081)
(203.956 21.4011 373.636)
(-141.455 165.711 271.282)
(-369.17 -586.675 -644.416)
(-597.645 307.298 629.676)
(-544.076 326.448 -198.8)
(-238.998 64.892 520.38)
(-0.502829 -73.2918 517.297)
(-507.392 -352.755 190.516)
(-996.987 1215.46 -805.321)
(6.31295 -95.7911 -614.803)
(-1114.14 -1642.01 322.387)
(-258.248 821.756 120.854)
(120.29 196.772 891.56)
(-173.783 -48.9529 -683.134)
(-279.887 727.36 -1257.42)
(-782.846 214.209 200.65)
(-23.8102 -270.939 806.946)
(-438.307 466.739 -513.924)
(133.189 527.728 -596.846)
(336.523 197.583 -65.8414)
(79.491 298.407 292.115)
(-501.083 419.363 590.737)
(-47.1425 -546.964 1000.68)
(-597.617 106.693 1047.29)
(132.397 -337.569 540.107)
(338.22 203.824 -24.6123)
(-887.897 -776.068 240.901)
(186.26 -254.302 12.4099)
(113.24 826.058 674.272)
(-259.128 913.942 334.453)
(-378.627 43.3067 -176.592)
(-442.801 -337.772 933.953)
(285.647 -381.496 -555.527)
(-291.025 -603.216 -73.7676)
(830.642 321.366 -36.0417)
(642.837 -168.102 168.816)
(-27.7877 375.169 -463.432)
(125.441 -240.61 -541.152)
(6.71634 -118.948 -928.956)
(-1084.71 -380.597 -388.787)
(-394.733 1126.12 -459.374)
(-40.584 -788.025 -160.199)
(119.496 -365.594 -742.562)
(-307.45 -1094.48 202.226)
(-685.463 210 558.135)
(587.483 -130.634 -138.773)
(-977.101 -91.9637 -273.224)
(-135.881 -73.492 -270.431)
(1295.98 577.132 -298.214)
(-459.887 152.466 500.968)
(-535.391 -1237.29 -3.27637)
(101.063 995.943 -355.042)
(-769.184 -416.812 205.478)
(458.781 893.458 -348.463)
(-329.474 -593.398 696.347)
(194.568 -1120.5 416.429)
(-29.2662 -252.244 481.44)
(484.302 541.481 335.059)
(-49.7035 -354.754 752.836)
(-498.795 529.563 -252.58)
(186.111 284.103 206.272)
(626.242 -844.964 95.3164)
(98.5712 -166.639 138.384)
(531.397 524.156 148.334)
(214.634 499.996 -495.237)
(-443.747 -423.291 -848.263)
(-383.484 246.434 1007.53)
(532.202 -516.157 -101.275)
(925.602 191.785 941.622)
(-239.505 930.586 105.169)
(-472.435 -180.409 -124.125)
(307.711 -405.329 113.31)
(-423.445 878.224 -503.852)
(-1247.21 -369.536 701.658)
(240.376 -578.529 280.336)
(-94.4383 140.979 127.867)
(-608.423 502.81 -10.6983)
(-704.447 412.272 -151.609)
(-878.557 64.0468 -164.992)
(254.873 -116.261 86.662)
(-478.229 949.945 -50.4209)
(-508.894 50.833 221.868)
(265.616 510.183 285.839)
(347.991 118.222 -376.403)
(-562.151 -801.186 510.292)
(-722.301 586.123 468.926)
(63.8725 483.864 15.8377)
(-140.735 -146.634 -383.184)
(-1015.59 188.78 54.313)
(194.972 -95.4039 774.199)
(-428.019 464.958 -1090.6)
(-590.172 705.498 -162.603)
(28.5887 -492.751 -732.137)
(308.785 -198.368 117.308)
(-1092.1 -242.234 207.747)
(901.959 556.317 172.534)
(-35.899 302.147 732.122)
(-59.7835 361.444 -577.407)
(-905.656 -173.688 -765.851)
(-172.439 -204.91 -444.579)
(-925.138 -733.866 77.8038)
(609.654 -417.57 59.6737)
(-210.882 343.007 505.182)
(679.693 -1112.15 -5.13719)
(243.741 466.792 -231.694)
(428.957 1297.45 -55.1371)
(330.983 -222.379 139.729)
(-75.9608 471.951 65.16)
(543.414 255.087 686.971)
(-190.592 933.693 370.645)
(303.241 13.8959 -1106.5)
(-336.038 -626.917 -356.457)
(-312.789 -344.76 -367.91)
(29.4163 -386.402 -735.65)
(490.889 309.21 -189.791)
(415.229 656.665 856.554)
(-421.994 -557.679 560.018)
(-484.883 362.315 -419.948)
(35.3968 -433.81 6.46526)
(-912.704 659.253 500.344)
(79.7763 -497.683 33.0803)
(-117.978 574.271 635.362)
(731.07 -375.59 219.153)
(-497.653 265.207 451.403)
(881.558 -61.9367 344.139)
(-389.563 -478.07 1259.89)
(172.094 320.161 -558.541)
(227.078 417.963 -320.181)
(-51.3477 131.644 -260.739)
(290.709 -289.558 -143.922)
(-823.56 123.743 261.319)
(-478.236 82.1034 162.979)
(622.718 697.9 426.669)
(575.473 516.382 -654.997)
(118.867 244.251 275.879)
(-395.43 -1232.51 219.952)
(24.6954 -517.176 -41.0906)
(-230.868 -278.127 -45.4694)
(-514.669 -896.713 114.227)
(238.219 -653.102 -575.976)
(-282.886 -25.5648 406.251)
(477.691 281.631 -66.2864)
(-1378.03 768.502 976.016)
(678.14 311.123 741.939)
(213.334 1141.79 64.5033)
(-641.196 152.742 -477.801)
(214.765 -492.018 -416.82)
(-542.658 26.0012 375.615)
(325.765 167.553 415.969)
(904.243 822.307 49.1081)
(380.18 43.898 -472.993)
(-867.216 235.632 -367.182)
(203.428 301.242 -372.739)
(405.282 -73.0219 101.635)
(-767.196 35.095 -496.452)
(-619.749 263.663 -370.239)
(-454.948 411.496 -926.946)
(371.5 200.77 -252.025)
(310.129 6.78365 137.092)
(747.383 513.37 -540.468)
(113.642 -169.566 -703.381)
(-738.288 -252.263 -83.1895)
(-131.347 883.356 328.511)
(-429.577 -521.754 580.543)
(420.726 -158.183 654.082)
(-555.152 492.436 702.342)
(-323.425 -887.345 -947.902)
(-257.053 569.752 -362.007)
(586.705 111.735 -555.131)
(301.169 -532.622 -92.5134)
(304.972 -417.797 657.902)
(104.663 485.64 330.38)
(-137.6 294.212 -191.641)
(503.281 693.25 -599.254)
(263.32 375.75 664.552)
(612.906 -495.391 -9.8298)
(465.865 42.3236 -71.1296)
(70.574 -191.251 -518.118)
(-350.657 -9.23051 -227.162)
(892.345 241.188 54.2289)
(-87.5582 87.0188 139.951)
(533.1 -586.365 144.067)
(159.544 542.599 770.004)
(-96.7847 182.847 20.5615)
(-236.891 544.818 -809.325)
(-28.3903 663.702 313.713)
(-320.25 -446.654 80.6126)
(624.312 28.855 -43.6444)
(-44.4612 71.4146 -432.039)
(-809.201 -534.367 50.4038)
(641.062 600.503 275.72)
(-12.1178 226.848 -440.349)
(-102.792 -365.515 169.797)
(-184.485 -13.9441 -132.742)
(1031.01 -709.931 857.981)
(526.471 -623.919 -761.275)
(-607.514 -142.718 -396.166)
(143.102 385.695 82.6073)
(260.409 -606.802 -584.062)
(319.282 -53.9664 -439.279)
(386.636 -226.248 768.752)
(338.53 873.094 -526.538)
(-824.896 523.621 251.84)
(502.543 1205.3 214.847)
(-282.397 -61.9637 -500.232)
(-162.655 -138.493 180.169)
(-572.894 32.236 86.9124)
(-797.054 348.61 395.004)
(549.42 -142.754 765.623)
(-104.114 419.119 159.489)
(-288.237 -1093.32 554.347)
(-1019.66 -511.098 -1141.12)
(209.407 -439.707 602.972)
(-66.64 333.04 -1262.34)
(-696.715 -566.811 -212.308)
(509.487 -625.5 -800.038)
(-291.995 999.105 -226.006)
(291.572 -48.0922 178.249)
(1326.18 62.2101 509.816)
(-767.549 -89.1433 84.36)
(1236.09 446.354 -252.78)
(255.277 506.374 -305.328)
(202.243 211.93 476.326)
(-705.104 433.718 -200.35)
(718.629 -377.436 -1337.29)
(-384.469 37.2575 -826.463)
(-260.881 434.207 61.7804)
(410.153 136.568 73.8777)
(-555.339 -99.3099 -1229.49)
(-237.275 190.459 334.95)
(73.2154 262.211 395.091)
(-149.354 -622.595 -1180.85)
(-13.863 103.37 -563.827)
(-191.977 1482.02 -459.407)
(-123.936 -226.289 -771.011)
(186.477 -7.70135 -27.0832)
(638.386 196.489 -171.638)
(-681.428 518.817 -865.642)
(-382.935 -20.1626 -1312.99)
(446.989 833.431 -45.1707)
(7.48717 213.349 374.913)
(226.586 -342.688 557.082)
(-249.814 -180.545 531.59)
(465.614 -241.931 20.3803)
(1078.89 -822.31 609.386)
(-449.831 125.885 0.530117)
(1551.98 449.918 -76.0612)
(306.565 -246.621 1251.92)
(120.298 83.3833 761.21)
(100.341 31.3549 148.876)
(156.981 -232.223 266.562)
(1028.27 757.223 537.025)
(138.084 -2.40454 -128.441)
(78.694 557.417 722.127)
(972 -61.9658 -103.869)
(-527.842 -524.42 -50.1923)
(226.73 -1039.97 218.295)
(354.384 140.948 -202.023)
(646.048 -664.812 -345.46)
(584.399 44.8448 -110.349)
(5.35042 -693.322 -858.426)
(-744.126 200.748 485.282)
(-55.2718 -689.002 99.025)
(675.742 -517.336 -21.519)
(584.108 161.827 -221.745)
(226.472 -549.937 269.542)
(-255.652 179.46 271.247)
(-31.7316 -921.85 -836.22)
(57.2137 -419.892 -233.284)
(391.13 179.103 124.126)
(613.751 432.762 -293.096)
(637.523 396.848 -203.363)
(482.815 -642.832 -167.603)
(-31.0589 -87.9269 -353.526)
(-285.009 375.723 -331.846)
(-393.511 -247.325 -967.74)
(250.701 474.571 185.458)
(570.307 1054.88 113.836)
(84.6288 986.583 -225.908)
(38.2299 -87.2233 -40.683)
(266.97 -891.008 -533.145)
(204.534 443.68 -1232.72)
(-221.397 405.504 -280.024)
(-454.089 613.21 -476.648)
(295.801 503.322 -254.272)
(120.936 531.741 693.066)
(193.157 58.3435 93.1542)
(-613.926 95.706 409.435)
(-81.9406 1035.3 540.657)
(201.175 -192.681 299.954)
(-113.684 -625.132 -135.415)
(412.088 -787.822 369.978)
(330.798 373.76 -394.359)
(473.19 322.778 819.972)
(151.426 -311.766 -854.498)
(-577.604 -411.589 -342.399)
(191.918 174.747 144.548)
(-507.406 592.651 481.158)
(506.962 -49.304 303.204)
(-697.811 -115.51 194.964)
(-469.914 686.111 159.086)
(385.082 -72.8078 291.21)
(190.339 -524.298 1046.78)
(-264.58 790.238 761.828)
(332.291 -25.617 593.867)
(-208.088 302.87 658.672)
(-324.291 356.57 -313.772)
(501.617 -455.041 635.356)
(963.635 -466.851 -261.955)
(18.7156 -840.935 -94.5725)
(-632.671 370.963 573.537)
(58.5858 -239.86 -120.455)
(373.403 -405.588 -823.556)
(276.506 189.964 289.941)
(-749.534 -229.272 431.939)
(-679.183 -530.123 -198.244)
(-259.14 -179.339 -364.406)
(196.384 -917.159 -605.503)
(-459.619 436.736 -290.566)
(-304.372 318.987 78.5855)
(835.721 606.59 1497.55)
(-5.27983 694.995 -166.365)
(-405.852 -657.653 -137.54)
(-84.9819 330.742 910.269)
(781.533 423.387 1001.4)
(935.678 -345.564 878.365)
(244.194 192.121 4.14392)
(-310.073 527.945 536.577)
(-972.833 256.96 -37.4802)
(-485.331 -214.033 344.753)
(-612.861 -104.884 -375.309)
(-852.711 -124.437 779.41)
(-635.994 -790.143 -12.4627)
(-355.928 -553.394 5.54526)
(338.211 -760.079 -708.041)
(461.834 -517.299 552.623)
(-16.6908 121.816 619.934)
(204.833 880.919 556.524)
(117.462 -110.867 478.319)
(-591.172 -250.902 -412.571)
(555.428 85.4193 -119.83)
(1136.21 64.2723 114.601)
(128.886 -529.243 77.4605)
(246.642 -326.879 355.836)
(40.3229 139.458 -646.137)
(-461.846 -1196.4 -261.457)
(189.362 -371.39 -365.151)
(15.917 -308.12 536.484)
(210.568 453.081 -211.737)
(1110.35 -229.166 498.344)
(-212.991 296.149 255.852)
(-666.862 205.545 -821.676)
(-761.029 133.422 -222.423)
(-661.573 -321.833 -712.821)
(1258.54 628.752 800.535)
(-283.628 57.3784 4.68257)
(-26.2108 -231.201 -308.861)
(378.44 -192.52 -169.908)
(-9.0355 272.888 -343.626)
(-652.288 497.929 122.313)
(-389.364 -117.972 -751.157)
(-598.753 -469.715 503.944)
(548.144 704.34 -75.2806)
(-176.357 -262.625 -595.751)
(-96.9276 -624.741 -255.09)
(-1807.12 -354.63 -415.965)
(-291.592 239.588 -258.164)
(-387.243 -182.606 665.099)
(-101.987 212.234 -101.582)
(-1341 -376.197 140.697)
(1210.22 -191.406 436.169)
(402.729 -118.453 347.424)
(-319.094 -384.152 926.638)
(66.2878 -419.298 -1039.71)
(132.33 -364.756 510.63)
(-806.696 1245.22 -246.019)
(75.2936 -56.7212 130.419)
(-494.91 69.8879 545.63)
(-461.217 -48.0132 671.798)
(692.794 650.898 -247.283)
(-53.5482 -68.7534 -497.735)
(-172.645 126.553 -223.271)
(-512.12 -642.373 765.013)
(-678.145 -967.56 715.854)
(-568.454 63.127 -39.8237)
(-577.268 578.448 757.674)
(-309.832 337.531 379.875)
(153.06 193.024 -20.7579)
(-1254.03 645.081 -39.973)
(-181.581 288.365 -419.604)
(-312.416 776.984 542.717)
(-460.149 -4.19905 353.695)
(-1093.58 51.8106 -17.2369)
(179.941 95.6732 -35.6379)
(-372.335 -462.486 147.597)
(-637.713 -731.446 206.534)
(-569.574 673.533 -346.351)
(266.735 -949.641 -155.975)
(559.587 783.966 406.673)
(316.2 11.6019 224.17)
(365.771 400.121 181.61)
(603.175 53.2674 -660.972)
(776.932 1125.59 619.365)
(-171.166 258.805 366.866)
(217.349 -281.337 219.338)
(644.811 33.2141 -90.3947)
(62.386 -506.07 231.982)
(524.768 480.796 -222.163)
(-49.4686 -271.112 456.275)
(953.357 -588.04 927.301)
(-1115.1 273.37 -307.26)
(472.675 552.306 -107.305)
(-275.51 204.805 -650.384)
(285.724 625.089 372.939)
(-818.857 -248.078 -227.719)
(258.231 41.1092 -118.186)
(-551.42 385.242 -347.456)
(-488.737 -745.392 350.886)
(499.13 304.691 309.942)
(926.8 -90.6506 188.746)
(575.965 592.096 -153.355)
(-105.09 -33.4102 -352.26)
(-917.253 1033.58 234.714)
(-258.256 -404.108 157.031)
(374.397 490.565 476.534)
(487.162 236.651 -647.613)
(327.757 424.779 371.974)
(-472.512 349.891 978.803)
(874.96 272.284 404.155)
(-345.295 127.412 -191.626)
(32.6716 424.762 -419.954)
(-88.161 -242.19 210.425)
(-182.295 -433.058 455.62)
(343.083 -21.7291 -313.687)
(17.2372 334.948 -574.731)
(-103.247 568.172 -649.797)
(659.806 -477.135 -498.862)
(1248.14 -130.607 -749.068)
(241.522 53.6729 -40.3546)
(-460.918 598.23 62.3523)
(-313.876 -150.951 291.789)
(539.598 385.157 107.118)
(191.097 -108.318 -129.34)
(-145.916 -780.761 77.129)
(510.342 667.695 -16.5482)
(-480.759 -124.457 -377.148)
(-890.354 132.568 98.272)
(388.194 429.025 195.272)