/*--------------------------------*- C++ -*----------------------------------*\
  =========                 |
  \\      /  F ield         | OpenFOAM: The Open Source CFD Toolbox
   \\    /   O peration     | Website:  https://openfoam.org
    \\  /    A nd           | Version:  7
     \\/     M anipulation  |
\*---------------------------------------------------------------------------*/
FoamFile
{
    version     2.0;
    format      ascii;
    class       volScalarField;
    location    "0.01";
    object      iDof;
}
// * * * * * * * * * * * * * * * * * * * * * * * * * * * * * * * * * * * * * //

dimensions      [0 -3 0 0 0 0 0];

internalField   nonuniform List<scalar> 
250
(
1.443e+20
1.521e+20
1.701e+20
1.635e+20
1.611e+20
1.575e+20
1.554e+20
1.596e+20
1.551e+20
1.749e+20
1.485e+20
1.533e+20
1.476e+20
1.446e+20
1.542e+20
1.737e+20
1.584e+20
1.542e+20
1.515e+20
1.593e+20
1.611e+20
1.476e+20
1.623e+20
1.539e+20
1.47e+20
1.614e+20
1.518e+20
1.638e+20
1.518e+20
1.551e+20
1.632e+20
1.53e+20
1.449e+20
1.509e+20
1.566e+20
1.725e+20
1.56e+20
1.602e+20
1.665e+20
1.554e+20
1.599e+20
1.524e+20
1.557e+20
1.416e+20
1.545e+20
1.611e+20
1.494e+20
1.656e+20
1.539e+20
1.632e+20
1.527e+20
1.602e+20
1.503e+20
1.545e+20
1.569e+20
1.509e+20
1.569e+20
1.656e+20
1.599e+20
1.533e+20
1.512e+20
1.464e+20
1.761e+20
1.608e+20
1.575e+20
1.611e+20
1.512e+20
1.503e+20
1.563e+20
1.527e+20
1.593e+20
1.677e+20
1.548e+20
1.524e+20
1.479e+20
1.47e+20
1.497e+20
1.548e+20
1.587e+20
1.62e+20
1.476e+20
1.485e+20
1.479e+20
1.467e+20
1.503e+20
1.464e+20
1.563e+20
1.434e+20
1.62e+20
1.395e+20
1.455e+20
1.488e+20
1.416e+20
1.554e+20
1.452e+20
1.497e+20
1.419e+20
1.5e+20
1.554e+20
1.476e+20
1.485e+20
1.446e+20
1.464e+20
1.401e+20
1.455e+20
1.476e+20
1.632e+20
1.524e+20
1.5e+20
1.443e+20
1.461e+20
1.503e+20
1.614e+20
1.491e+20
1.533e+20
1.521e+20
1.503e+20
1.425e+20
1.422e+20
1.59e+20
1.488e+20
1.467e+20
1.443e+20
1.569e+20
1.542e+20
1.569e+20
1.473e+20
1.677e+20
1.662e+20
1.551e+20
1.527e+20
1.5e+20
1.56e+20
1.611e+20
1.452e+20
1.464e+20
1.524e+20
1.479e+20
1.446e+20
1.488e+20
1.524e+20
1.509e+20
1.458e+20
1.56e+20
1.47e+20
1.425e+20
1.572e+20
1.53e+20
1.509e+20
1.434e+20
1.443e+20
1.551e+20
1.47e+20
1.56e+20
1.623e+20
1.461e+20
1.419e+20
1.452e+20
1.485e+20
1.527e+20
1.518e+20
1.545e+20
1.422e+20
1.458e+20
1.365e+20
1.419e+20
1.512e+20
1.44e+20
1.476e+20
1.467e+20
1.542e+20
1.59e+20
1.596e+20
1.527e+20
1.638e+20
1.404e+20
1.491e+20
1.479e+20
1.515e+20
1.479e+20
1.458e+20
1.416e+20
1.488e+20
1.587e+20
1.467e+20
1.548e+20
1.407e+20
1.485e+20
1.401e+20
1.605e+20
1.563e+20
1.497e+20
1.464e+20
1.509e+20
1.434e+20
1.485e+20
1.533e+20
1.572e+20
1.452e+20
1.536e+20
1.521e+20
1.473e+20
1.47e+20
1.527e+20
1.536e+20
1.53e+20
1.512e+20
1.434e+20
1.491e+20
1.476e+20
1.557e+20
1.449e+20
1.521e+20
1.5e+20
1.59e+20
1.554e+20
1.509e+20
1.485e+20
1.47e+20
1.488e+20
1.476e+20
1.44e+20
1.449e+20
1.512e+20
1.485e+20
1.521e+20
1.608e+20
1.431e+20
1.356e+20
1.641e+20
1.404e+20
1.563e+20
1.5e+20
1.533e+20
1.404e+20
1.506e+20
1.632e+20
1.398e+20
1.425e+20
1.563e+20
1.551e+20
1.461e+20
1.494e+20
1.479e+20
1.449e+20
1.383e+20
1.524e+20
1.551e+20
1.647e+20
1.461e+20
)
;

boundaryField
{
    sides
    {
        type            symmetry;
    }
    empty
    {
        type            empty;
    }
    procBoundary3to2
    {
        type            processor;
        value           uniform 1.401e+20;
    }
}


// ************************************************************************* //
