/*--------------------------------*- C++ -*----------------------------------*\
  =========                 |
  \\      /  F ield         | OpenFOAM: The Open Source CFD Toolbox
   \\    /   O peration     | Website:  https://openfoam.org
    \\  /    A nd           | Version:  7
     \\/     M anipulation  |
\*---------------------------------------------------------------------------*/
FoamFile
{
    version     2.0;
    format      ascii;
    class       volScalarField;
    location    "0.00036";
    object      dsmcSigmaTcRMax;
}
// * * * * * * * * * * * * * * * * * * * * * * * * * * * * * * * * * * * * * //

dimensions      [0 3 -1 0 0 0 0];

internalField   nonuniform List<scalar> 
125
(
1.00535e-15
9.79018e-16
9.6361e-16
9.36039e-16
9.51074e-16
9.51402e-16
9.69628e-16
9.75825e-16
9.83975e-16
9.44744e-16
9.42009e-16
9.56648e-16
9.5136e-16
9.47168e-16
9.63132e-16
9.61158e-16
9.8506e-16
9.50436e-16
9.75936e-16
9.63147e-16
9.60102e-16
9.67866e-16
9.64187e-16
9.34308e-16
9.67368e-16
9.51796e-16
9.40823e-16
9.69338e-16
9.91419e-16
9.44152e-16
9.45124e-16
9.4948e-16
9.3869e-16
9.65267e-16
9.54128e-16
9.55775e-16
9.54592e-16
9.61536e-16
1.00759e-15
9.58718e-16
9.79539e-16
1.02113e-15
9.78111e-16
9.88815e-16
9.41928e-16
9.4833e-16
9.88041e-16
9.45097e-16
9.71811e-16
9.51287e-16
9.65621e-16
9.6489e-16
1.00294e-15
9.54547e-16
9.71115e-16
9.50249e-16
9.54177e-16
1.00624e-15
9.62107e-16
9.76474e-16
9.69294e-16
9.78246e-16
9.65483e-16
9.65407e-16
9.43301e-16
9.7415e-16
9.5796e-16
9.50961e-16
9.67686e-16
9.72936e-16
9.60511e-16
9.55226e-16
9.68492e-16
9.7217e-16
1.01089e-15
9.60548e-16
9.91168e-16
9.58827e-16
9.55557e-16
9.66544e-16
9.56678e-16
9.96699e-16
9.67437e-16
9.9887e-16
9.7152e-16
9.5244e-16
9.52099e-16
9.7766e-16
9.7649e-16
9.56984e-16
9.50583e-16
9.51579e-16
9.47096e-16
9.43119e-16
9.86479e-16
1.01825e-15
9.46384e-16
9.615e-16
9.46855e-16
9.55755e-16
9.50357e-16
9.66042e-16
9.79886e-16
9.53525e-16
9.63146e-16
9.49394e-16
9.56652e-16
9.40651e-16
9.62448e-16
9.84867e-16
9.78812e-16
9.48627e-16
9.60904e-16
9.41747e-16
9.96778e-16
9.45248e-16
9.69143e-16
9.52672e-16
9.51505e-16
9.81438e-16
9.48883e-16
9.39265e-16
9.10134e-16
9.62919e-16
9.27624e-16
)
;

boundaryField
{
    sides
    {
        type            symmetry;
    }
    empty
    {
        type            empty;
    }
    procBoundary1to0
    {
        type            processor;
        value           uniform 9.75134e-16;
    }
    procBoundary1to2
    {
        type            processor;
        value           uniform 8.73293e-16;
    }
}


// ************************************************************************* //
