/*--------------------------------*- C++ -*----------------------------------*\
  =========                 |
  \\      /  F ield         | OpenFOAM: The Open Source CFD Toolbox
   \\    /   O peration     | Website:  https://openfoam.org
    \\  /    A nd           | Version:  7
     \\/     M anipulation  |
\*---------------------------------------------------------------------------*/
FoamFile
{
    version     2.0;
    format      ascii;
    class       volScalarField;
    location    "0.00036";
    object      dsmcRhoN;
}
// * * * * * * * * * * * * * * * * * * * * * * * * * * * * * * * * * * * * * //

dimensions      [0 -3 0 0 0 0 0];

internalField   nonuniform List<scalar> 
125
(
243
252
258
254
276
274
258
231
252
224
247
260
254
261
214
278
266
261
248
223
260
256
229
242
251
261
256
246
233
269
265
244
249
244
256
288
244
276
255
290
252
265
236
249
269
265
280
251
261
232
249
225
235
235
240
269
264
274
257
231
274
245
288
253
242
286
251
267
252
251
257
249
256
247
243
260
268
267
235
240
253
276
252
251
268
270
243
224
240
260
256
254
279
247
217
239
247
230
259
249
267
265
248
239
272
253
264
242
277
224
242
207
233
223
198
187
171
173
152
158
144
143
128
139
122
)
;

boundaryField
{
    sides
    {
        type            symmetry;
    }
    empty
    {
        type            empty;
    }
    procBoundary1to0
    {
        type            processor;
        value           uniform 279;
    }
    procBoundary1to2
    {
        type            processor;
        value           uniform 138;
    }
}


// ************************************************************************* //
