/*--------------------------------*- C++ -*----------------------------------*\
  =========                 |
  \\      /  F ield         | OpenFOAM: The Open Source CFD Toolbox
   \\    /   O peration     | Website:  https://openfoam.org
    \\  /    A nd           | Version:  7
     \\/     M anipulation  |
\*---------------------------------------------------------------------------*/
FoamFile
{
    version     2.0;
    format      ascii;
    class       volVectorField;
    location    "0.00036";
    object      momentum;
}
// * * * * * * * * * * * * * * * * * * * * * * * * * * * * * * * * * * * * * //

dimensions      [1 -2 -1 0 0 0 0];

internalField   nonuniform List<vector> 
125
(
(-0.125048 0.0759385 0.11907)
(-0.0371234 0.196315 0.125843)
(-0.0618672 0.151923 -0.0870053)
(-0.0181645 -0.0914859 0.39527)
(-0.0653196 -0.122448 0.0263118)
(0.0377124 0.259174 -0.0846744)
(0.0209202 -0.1915 0.195796)
(0.0386902 -0.163598 -0.0683024)
(0.170052 0.183267 -0.00920247)
(0.0438447 0.142874 0.191947)
(0.0966966 -0.00365598 0.312597)
(-0.0654506 0.049828 -0.0996569)
(0.000767224 0.0203976 0.158631)
(0.104192 -0.131775 0.0133401)
(-0.0742363 -0.191858 -0.0374263)
(0.0487794 -0.0290579 -0.154386)
(0.105708 -0.239502 -0.187644)
(-0.0404967 0.056434 -0.115204)
(-0.317325 0.0222725 0.115622)
(-0.232358 -0.0359332 -0.0814654)
(0.087434 0.0564175 -0.0154928)
(-0.143044 0.21238 0.112041)
(-0.0351451 0.0796226 0.125099)
(0.0152047 0.0563831 -0.0758031)
(-0.0300096 -0.059467 0.16983)
(0.193381 0.0604997 0.0178446)
(0.0972139 -0.0376218 -0.0422569)
(0.178406 -0.0660109 0.136218)
(-0.0425265 -0.205686 0.035945)
(-0.123962 0.0451635 -0.190835)
(-0.0207437 -0.307588 0.0463325)
(-0.0263675 0.105832 0.139517)
(0.163286 -0.214257 0.0554605)
(0.119973 -0.0505725 0.183258)
(0.032002 -0.332334 -0.0881808)
(-0.0577781 0.145116 0.0814025)
(-0.15945 0.154338 -0.0602741)
(0.263194 0.202997 0.100789)
(0.021594 0.0409609 -0.0961297)
(-0.165595 0.166986 -0.140689)
(0.173723 -0.0898935 -0.039694)
(-0.0039029 -0.10361 -0.211107)
(0.152299 -0.00155135 -0.0682405)
(-0.259243 0.187838 -0.184968)
(0.0397163 0.00920179 -0.088738)
(-0.0379188 -0.279132 -0.0229269)
(0.0301644 -0.0425151 0.0543949)
(-0.160731 0.0217449 0.26782)
(-0.0617631 -0.0465642 -0.242709)
(-0.0964054 -0.175337 0.159256)
(0.300427 0.00700807 -0.211758)
(-0.0238382 0.187401 -0.064724)
(0.284479 -0.133635 0.0328099)
(-0.0647582 -0.253371 -0.213225)
(0.0901523 -0.0120502 0.0289409)
(0.0448148 -0.166217 0.188803)
(-0.0649815 0.0680216 -0.00481999)
(-0.0182009 0.189266 0.191257)
(-0.0648188 0.224552 0.127978)
(0.116575 0.271366 -0.341932)
(-0.216046 0.0939862 0.0203151)
(0.00612181 0.107787 0.136846)
(0.352649 0.111703 -0.110819)
(-0.00688259 0.0416219 -0.0144003)
(-0.0180575 -0.286428 0.0388104)
(0.076909 0.0973997 -0.189403)
(-0.0875475 0.292082 -0.108582)
(-0.0468983 -0.080199 -0.0549622)
(-0.0497387 0.0891472 -0.239584)
(-0.119769 0.193523 0.225075)
(-0.0270057 -0.180763 -0.112414)
(0.265068 -0.105412 0.202326)
(-0.101536 0.00483992 -0.0181827)
(0.116581 -0.275226 0.203268)
(0.0445064 -0.0226233 -0.0685214)
(0.0504456 0.0792837 0.0619171)
(0.0860168 -0.192864 0.127001)
(0.0538678 -0.0256579 -0.16487)
(-0.0107288 0.155667 0.0140552)
(-0.285327 0.003978 -0.0525007)
(-0.0643298 0.171876 -0.0425258)
(0.0433142 0.0179559 -0.0442847)
(-0.0222033 0.177298 0.189342)
(-0.0517451 0.145098 -0.135052)
(0.0133248 0.041455 0.0838707)
(0.108083 -0.0206215 0.230538)
(0.0873651 0.104014 -0.0627521)
(-0.0363954 -0.222327 -0.0282025)
(0.121756 0.120528 -0.172253)
(0.177087 0.220642 0.241333)
(0.0590717 0.144034 0.0216451)
(0.140372 0.116294 0.123484)
(-0.130956 0.113611 -0.0448797)
(-0.169459 0.00192785 -0.141776)
(-0.153308 0.0360764 -0.150924)
(0.115617 -0.232195 -0.142838)
(-0.02137 0.106271 0.00505521)
(0.124746 -0.131564 0.0113776)
(0.0324142 -0.116928 0.0204073)
(0.107187 0.0709243 0.0761322)
(-0.0617317 0.0394613 0.216224)
(0.0329762 -0.0744496 -0.190158)
(0.00549024 0.0319554 0.0578924)
(0.183457 0.0698984 0.0491583)
(-0.121601 -0.0226906 0.0349364)
(0.0253003 -0.0895888 -0.3036)
(-0.00910137 -0.0142851 0.0399271)
(0.0411669 0.150696 -0.135174)
(0.246452 -0.0476453 0.0121232)
(0.108765 0.0524183 -0.0327683)
(0.0843376 0.0427657 -0.010956)
(0.312396 -0.120195 0.0736322)
(0.418948 -0.0478175 -0.00142482)
(0.602347 -0.119426 0.0489481)
(0.568767 -0.0282992 0.126783)
(0.502015 -0.0460861 0.0623073)
(0.485216 -0.246888 0.00836581)
(0.747135 0.12178 -0.0276149)
(0.728612 -0.106739 -0.135611)
(0.731396 0.0103134 0.0296569)
(0.65914 -0.00737469 -0.0783799)
(0.714768 0.115002 -0.0848409)
(0.771152 0.0213587 -0.00841849)
(1.05792 -0.0361196 -0.0260222)
(0.919004 0.0647115 -0.0633893)
)
;

boundaryField
{
    sides
    {
        type            symmetry;
    }
    empty
    {
        type            empty;
    }
    procBoundary1to0
    {
        type            processor;
        value           uniform (0.0987323 -0.107036 0.05631);
    }
    procBoundary1to2
    {
        type            processor;
        value           uniform (0.948624 -0.13934 0.0634366);
    }
}


// ************************************************************************* //
