/*--------------------------------*- C++ -*----------------------------------*\
  =========                 |
  \\      /  F ield         | OpenFOAM: The Open Source CFD Toolbox
   \\    /   O peration     | Website:  https://openfoam.org
    \\  /    A nd           | Version:  7
     \\/     M anipulation  |
\*---------------------------------------------------------------------------*/
FoamFile
{
    version     2.0;
    format      ascii;
    class       scalarField;
    location    "0.008/lagrangian/dsmc";
    object      Ei;
}
// * * * * * * * * * * * * * * * * * * * * * * * * * * * * * * * * * * * * * //


10852
(
1.44788e-20
4.53355e-23
5.9131e-21
2.95478e-22
1.47599e-20
2.29457e-21
9.69113e-21
3.48057e-22
8.4458e-22
2.10859e-21
2.72773e-21
9.91807e-21
7.82361e-21
3.09134e-22
2.74762e-22
3.08825e-21
2.20439e-21
4.5359e-21
9.34965e-21
4.10599e-21
6.32295e-21
4.64172e-21
4.02655e-22
9.2258e-21
1.53758e-21
1.25623e-20
1.06083e-20
1.1563e-20
3.20682e-21
6.88001e-22
1.44806e-20
1.61701e-20
4.12433e-21
1.34163e-20
1.14554e-21
1.02398e-20
6.26613e-21
2.46307e-21
1.14178e-20
6.83767e-21
1.04903e-21
3.91199e-21
9.21848e-22
6.17777e-21
4.17268e-21
1.0908e-21
1.20667e-21
2.163e-22
2.5579e-21
1.4559e-21
5.1169e-22
4.03067e-21
1.69554e-22
1.02763e-20
9.40428e-22
1.74836e-21
7.49018e-21
9.22305e-21
2.75242e-21
3.28226e-22
2.89481e-22
1.04583e-21
8.20051e-21
1.04912e-21
9.94616e-21
3.89433e-21
9.92637e-21
5.19823e-22
4.03047e-21
5.64273e-21
3.63396e-21
3.45878e-21
1.81667e-21
9.27467e-21
1.95012e-21
2.38016e-21
1.48722e-20
3.73346e-21
2.12274e-21
3.9044e-21
1.23672e-21
1.26993e-21
1.21964e-21
4.83805e-21
1.09804e-20
2.36758e-20
2.5311e-21
5.99897e-21
4.84176e-21
8.48018e-21
8.64998e-21
2.45775e-20
1.77032e-21
1.58621e-22
5.82688e-21
1.68374e-21
1.58952e-21
5.58576e-22
1.14757e-21
5.71602e-22
2.13627e-21
5.7079e-21
1.37401e-21
8.03528e-21
2.03495e-20
5.68974e-21
8.02092e-21
1.03435e-20
2.02804e-21
6.9021e-22
6.98102e-22
6.42323e-22
9.93001e-21
1.19844e-20
2.42998e-21
1.08718e-21
5.18859e-22
2.62614e-20
1.38937e-22
8.30987e-22
3.06416e-20
1.20177e-20
1.92005e-21
3.45491e-21
8.94771e-22
5.31608e-21
5.7677e-21
8.91099e-21
8.71457e-21
4.31758e-21
4.16499e-21
1.19394e-21
3.69156e-21
7.75974e-22
7.82923e-22
1.05372e-22
6.47965e-21
1.77325e-21
1.87679e-21
2.80841e-21
1.35613e-21
8.56954e-22
4.86744e-22
1.10354e-20
1.1672e-21
1.50188e-21
2.19263e-21
8.56723e-21
7.66385e-21
5.24555e-21
1.5401e-20
2.57883e-21
3.04583e-21
6.19913e-21
4.56985e-21
3.20212e-21
1.76715e-21
1.3522e-21
4.12153e-21
4.03565e-21
2.20075e-21
2.56368e-21
1.20544e-21
6.3485e-21
8.66143e-21
7.57064e-21
1.74086e-20
2.42644e-23
5.1215e-21
7.34663e-22
8.17089e-22
3.90181e-21
7.98889e-21
6.19843e-21
7.58097e-21
2.45873e-20
6.71018e-21
2.74914e-21
3.8417e-21
1.08153e-20
1.39382e-21
4.2523e-21
7.30441e-21
5.01811e-21
4.48094e-21
1.62885e-21
1.69452e-20
4.82198e-21
1.11664e-20
5.76691e-21
7.91433e-22
4.93289e-22
1.21812e-20
4.24121e-21
8.83108e-21
4.73288e-23
6.05028e-22
1.07146e-21
2.5198e-20
3.09411e-21
4.65767e-21
2.99699e-22
6.00567e-21
5.58562e-21
1.21504e-21
1.19775e-20
6.14126e-21
5.25661e-21
9.32733e-21
6.52964e-21
3.15252e-21
2.80048e-21
3.53308e-21
2.4947e-21
2.29201e-22
4.69369e-21
2.86926e-21
2.6922e-21
6.77276e-21
7.34516e-21
2.96853e-21
2.13131e-21
3.15604e-21
2.25955e-21
9.34427e-22
8.12942e-21
5.8943e-22
6.06896e-21
2.32751e-21
1.43136e-20
3.67018e-21
2.38423e-21
1.07672e-20
1.22542e-21
3.24576e-21
6.81285e-21
1.08237e-20
1.29028e-20
5.38906e-23
6.9498e-21
7.17518e-21
1.02755e-20
1.83833e-20
2.95332e-22
2.72252e-22
5.66104e-21
2.00603e-20
3.14827e-22
1.36043e-20
1.02396e-21
7.84593e-21
1.83762e-20
5.13647e-22
6.25852e-21
9.02675e-21
9.3729e-21
4.73051e-21
1.94013e-21
3.60953e-21
9.35228e-21
6.30881e-21
5.81657e-21
1.13178e-20
2.87017e-21
1.07139e-20
6.60729e-22
9.06424e-21
3.66655e-21
1.09164e-21
6.52025e-21
8.9111e-21
1.94479e-21
8.76818e-21
4.31573e-21
2.57788e-21
8.41714e-21
6.6301e-21
6.47666e-21
1.82895e-20
1.01157e-20
9.85845e-21
2.68183e-21
5.29904e-21
4.67738e-21
1.25907e-20
4.07181e-21
3.49699e-21
7.29322e-22
2.22171e-21
3.16059e-21
1.00464e-20
2.83659e-21
3.09388e-21
9.78763e-21
3.07675e-20
3.91039e-21
1.4728e-21
1.8817e-21
2.24803e-21
2.71261e-23
3.4807e-21
4.98681e-21
1.15301e-20
1.18952e-20
1.41522e-21
1.03191e-21
8.63647e-21
3.16937e-21
1.72009e-21
5.1136e-21
1.55885e-21
9.48018e-21
4.41713e-21
6.41604e-21
5.50095e-21
1.06796e-21
1.82809e-20
1.99246e-21
5.62908e-21
9.32123e-21
1.15364e-20
3.07715e-21
1.73747e-20
1.90078e-21
6.00075e-21
2.05086e-20
2.34715e-20
6.29036e-21
3.57369e-21
8.55112e-21
6.01512e-22
2.8925e-21
2.43964e-21
8.63865e-22
2.47661e-21
9.68852e-21
2.68467e-21
4.74441e-21
1.54094e-20
6.26254e-21
2.22363e-20
5.94001e-21
9.86697e-21
2.60299e-21
6.30479e-22
1.0182e-20
5.1207e-21
1.38135e-20
4.58504e-21
1.55056e-21
3.37995e-20
7.75076e-21
7.08985e-21
4.34526e-21
1.11279e-22
1.26557e-21
8.54304e-22
4.18151e-21
8.47252e-22
1.14987e-21
1.09381e-22
1.47318e-20
2.73352e-21
2.97939e-21
4.45674e-21
6.70986e-21
3.66769e-21
1.98639e-21
2.46979e-21
3.62001e-21
1.99334e-20
9.84316e-21
6.63571e-21
2.25931e-21
1.13501e-20
1.40189e-21
1.1735e-21
1.00202e-21
4.81684e-22
5.46138e-21
1.60965e-22
1.0789e-21
2.23178e-21
2.76466e-21
1.2201e-20
7.71411e-22
9.26562e-21
2.32262e-22
3.35763e-21
3.96901e-21
4.3885e-21
6.48646e-21
6.79466e-22
4.72528e-21
9.25938e-21
8.18717e-22
5.47761e-21
2.89148e-21
5.08465e-21
9.33348e-21
1.67505e-20
8.92508e-21
7.99936e-21
5.8501e-21
7.28284e-21
1.85214e-21
3.30892e-21
5.0711e-21
9.95036e-21
2.46877e-21
1.50962e-20
2.49731e-21
1.58003e-21
6.70702e-21
4.27556e-22
3.02295e-22
9.72275e-21
1.69294e-21
4.84929e-22
9.40445e-21
6.89914e-21
7.29447e-21
4.83529e-21
3.70947e-21
2.43712e-21
4.49626e-21
7.94948e-21
3.58435e-21
3.23464e-21
8.49573e-21
8.75424e-22
2.44119e-20
1.71478e-20
3.68234e-21
7.48746e-21
5.2875e-21
1.27308e-22
5.26761e-21
5.49306e-21
2.4906e-20
2.03276e-21
4.01291e-21
1.73422e-20
4.37166e-22
3.73702e-20
1.08656e-21
7.0497e-21
3.75431e-21
2.37953e-21
5.86506e-21
1.13137e-20
1.68166e-20
1.31829e-20
3.20174e-21
2.24355e-21
5.47154e-22
1.13572e-21
2.57993e-20
2.62418e-21
2.11492e-21
4.55405e-21
9.18934e-21
1.56523e-21
1.24698e-21
2.52064e-21
1.51318e-20
1.78183e-22
7.94616e-21
1.8606e-21
8.20407e-21
8.17716e-21
4.54727e-21
1.18504e-20
1.9962e-21
1.82164e-21
1.12703e-22
5.98848e-21
1.91782e-21
6.76643e-22
1.17609e-20
5.55785e-21
6.13172e-21
4.13317e-21
1.86398e-21
9.24485e-21
4.22383e-21
7.60091e-21
1.37037e-21
1.53133e-21
4.62157e-22
6.05094e-21
3.0485e-21
1.46596e-20
6.97092e-21
3.49203e-21
8.35138e-21
8.62818e-22
3.32314e-21
7.52299e-21
1.10543e-21
1.19558e-21
1.55501e-21
2.78815e-20
3.25079e-21
8.22965e-21
1.33881e-21
1.17635e-20
4.61617e-21
9.18547e-22
7.41412e-21
5.71539e-21
1.86542e-21
6.89571e-21
5.42271e-21
9.90122e-21
5.68208e-21
1.9529e-20
8.02666e-21
3.19494e-21
4.98304e-21
1.58381e-20
4.35771e-21
6.33808e-21
1.2482e-20
5.05922e-22
1.52268e-21
7.03658e-21
1.82338e-22
1.16433e-20
1.90988e-21
2.81787e-21
3.14934e-22
1.26023e-20
9.58339e-21
6.20355e-21
3.97145e-21
1.10379e-20
3.97178e-21
9.72575e-21
2.1142e-21
1.36424e-21
2.69906e-21
1.2995e-20
2.19384e-21
4.99625e-21
3.04087e-21
6.75527e-21
8.89912e-21
7.54092e-21
1.16597e-20
8.9939e-21
2.48338e-21
1.20441e-21
7.10845e-21
9.84915e-21
6.45546e-21
2.99067e-21
6.5357e-21
1.03941e-22
7.28406e-21
2.51497e-21
1.14259e-21
2.49488e-21
8.55955e-21
8.10821e-22
4.65582e-21
1.69327e-20
5.42769e-21
1.8324e-21
6.65189e-21
2.28753e-21
6.66465e-22
1.29447e-21
2.46389e-21
2.0163e-21
4.09951e-21
3.42957e-21
9.8813e-21
1.353e-20
4.13163e-22
1.33424e-20
8.02386e-21
5.95039e-21
4.4346e-21
2.14927e-21
7.76519e-21
3.67149e-21
2.62151e-22
9.82417e-21
3.64466e-22
3.33742e-21
6.01478e-21
5.02427e-21
1.93978e-21
3.3887e-21
3.94698e-21
6.68286e-22
2.78233e-22
1.11497e-20
2.19063e-21
1.17151e-20
6.06075e-21
7.88303e-22
5.00895e-21
6.29806e-21
1.18936e-21
1.93518e-21
1.36404e-21
8.01055e-22
2.16716e-21
7.31912e-21
1.09369e-21
1.68299e-20
5.21104e-21
1.59263e-21
9.44762e-21
6.67494e-23
3.25751e-21
1.02231e-20
1.46597e-21
1.27858e-21
3.81629e-22
6.22473e-21
5.39615e-21
3.85303e-21
3.46049e-21
9.69432e-21
6.99077e-22
2.86064e-21
9.20873e-21
8.31176e-21
5.40293e-21
2.62745e-21
4.43615e-21
4.93252e-21
7.60129e-22
6.18946e-22
6.26849e-21
5.06953e-21
4.24685e-21
7.91392e-21
1.69016e-20
3.30431e-21
3.84867e-21
3.66036e-21
3.45273e-21
5.4969e-21
9.92672e-21
1.55692e-20
4.77531e-22
4.82781e-21
5.62967e-21
1.91579e-21
1.19785e-21
2.57585e-22
2.16852e-21
9.35989e-21
6.84719e-21
1.57682e-20
6.66034e-21
3.0848e-21
2.30877e-21
4.54586e-21
1.09945e-22
5.5589e-21
4.27024e-22
9.77516e-23
6.06975e-21
5.35787e-22
2.84712e-21
3.31712e-21
1.66662e-21
1.31697e-20
7.08904e-21
6.50281e-21
4.34753e-22
2.04144e-20
3.72785e-21
6.59153e-22
6.39598e-21
1.63592e-21
5.94681e-21
1.77172e-21
1.44248e-21
1.0549e-20
1.93059e-21
3.62571e-21
1.29044e-20
4.54952e-21
9.03304e-22
6.82238e-23
1.55208e-21
1.63292e-20
1.07639e-21
8.84558e-21
1.89698e-20
7.85446e-21
3.1242e-21
1.01727e-20
4.53701e-21
6.65513e-22
1.28917e-21
5.31529e-21
6.4701e-21
9.46234e-21
1.05384e-20
1.94398e-21
1.529e-21
3.98575e-22
1.8379e-21
1.1989e-20
4.91136e-21
4.49391e-21
3.78616e-21
2.5258e-21
5.42543e-21
3.33338e-21
4.40509e-21
4.65099e-20
4.9255e-21
7.28089e-21
1.75904e-20
6.4379e-22
2.42393e-21
1.13563e-21
4.63326e-22
1.63982e-20
4.49964e-21
4.95956e-22
5.1497e-21
4.89742e-21
2.3806e-20
2.49095e-21
8.0674e-21
3.23665e-21
5.40696e-21
2.69077e-21
3.25618e-21
2.51692e-21
1.69221e-21
8.11513e-22
6.01981e-21
1.21888e-21
9.76353e-21
5.26299e-22
2.06281e-21
3.74279e-21
3.66994e-21
3.44765e-21
4.1311e-21
1.98645e-20
1.12179e-20
3.95053e-21
4.38479e-21
4.74653e-21
8.70214e-21
4.52468e-21
3.3997e-21
1.53012e-20
6.22083e-21
8.38165e-22
6.88372e-22
3.2856e-20
1.6132e-20
3.07125e-21
1.03676e-21
6.14299e-21
1.66212e-21
4.55797e-21
1.63763e-21
1.57593e-20
1.32735e-21
5.58798e-21
9.41068e-24
8.76067e-21
4.06439e-21
2.53942e-21
5.19779e-21
3.23298e-21
4.82743e-21
9.39454e-22
1.38053e-21
1.16375e-21
5.54829e-23
1.15615e-21
2.00832e-20
4.08088e-21
1.76231e-20
9.97954e-21
3.67291e-21
4.54232e-22
5.23859e-21
8.4716e-21
1.55556e-21
3.22721e-21
3.24569e-22
5.6941e-21
1.28628e-20
1.80298e-23
1.06707e-20
2.55487e-21
3.78129e-21
8.50786e-21
2.51541e-21
3.57681e-22
1.57823e-21
6.58944e-23
1.19511e-20
5.47698e-22
7.72517e-21
2.61753e-22
2.19861e-20
7.33794e-22
6.63454e-21
1.17656e-20
5.71316e-21
5.77089e-21
1.23311e-21
4.12437e-21
6.99848e-21
4.49914e-23
8.95439e-21
2.23849e-21
6.47827e-21
4.69315e-21
6.9536e-21
8.4266e-22
6.42469e-21
3.31257e-21
3.74193e-21
1.12129e-21
1.87242e-21
9.07691e-21
2.13484e-21
4.9099e-21
1.4491e-22
7.17787e-21
5.35202e-21
9.03893e-21
2.22468e-21
2.40757e-21
5.17634e-21
3.257e-21
2.90178e-22
5.30671e-21
2.64811e-21
7.76787e-21
1.74144e-21
9.56053e-22
8.82973e-21
1.42704e-21
8.14521e-22
8.72431e-22
2.0531e-21
2.00501e-22
1.31088e-21
1.50262e-21
9.19793e-21
3.326e-21
1.13719e-20
6.32021e-22
9.05708e-21
1.83259e-23
2.9011e-22
2.35147e-21
2.90135e-21
1.30584e-21
2.29356e-21
4.01873e-21
2.18484e-21
1.79158e-21
6.28564e-21
8.62452e-21
5.94948e-21
4.38765e-21
6.84425e-21
1.78802e-21
1.12675e-20
3.05947e-21
4.66119e-22
1.10009e-20
1.85222e-21
5.44342e-21
1.64505e-20
2.47923e-20
7.65122e-21
3.54834e-21
8.96115e-22
9.42703e-21
1.48503e-20
3.82617e-21
9.28929e-22
4.61886e-22
4.34153e-22
4.00375e-22
2.3771e-20
6.95366e-23
2.41404e-20
1.00535e-20
1.33226e-21
6.13063e-21
2.8737e-21
4.55426e-21
3.68775e-21
1.23045e-20
2.3263e-21
4.27584e-21
5.93952e-22
9.18213e-21
1.42739e-21
6.26186e-21
5.12227e-21
1.69646e-21
6.88009e-22
3.82523e-22
1.01289e-20
1.93145e-20
1.91679e-21
6.75358e-21
4.10523e-22
4.83279e-23
3.38949e-21
8.80043e-21
1.88765e-22
3.40899e-21
8.64647e-21
1.14387e-20
1.95915e-21
8.33708e-22
1.16164e-20
3.02322e-21
2.30335e-20
2.68449e-21
2.44131e-21
9.83404e-22
4.64989e-21
7.8013e-21
1.2956e-21
7.07832e-21
8.00667e-21
4.42736e-21
3.22744e-21
4.1841e-21
3.86568e-21
3.16807e-21
4.91151e-21
3.45231e-21
2.55236e-21
3.99509e-21
1.39271e-20
9.51823e-22
1.18681e-20
8.75768e-21
1.04446e-21
4.91316e-21
1.46614e-20
1.66155e-20
1.46724e-21
6.54844e-21
1.68848e-20
7.15202e-22
1.05807e-22
7.28593e-21
2.49278e-21
2.46798e-22
8.69622e-21
1.12566e-20
1.91081e-21
5.96635e-21
2.51898e-21
3.70753e-21
2.49779e-21
5.67516e-21
1.50616e-21
6.87679e-21
9.13557e-21
6.94178e-21
5.52187e-21
4.01675e-21
1.68097e-20
3.20341e-21
5.77099e-21
1.9867e-21
1.88063e-21
1.17697e-20
2.03365e-21
8.35069e-22
1.28653e-21
1.29932e-22
1.3309e-20
4.28278e-21
9.78506e-21
1.41162e-21
2.21775e-21
6.26381e-21
6.58762e-21
1.03491e-21
8.75291e-23
3.59422e-21
3.51228e-20
2.70227e-20
1.03711e-20
5.88458e-21
3.78968e-21
3.03339e-21
3.47189e-21
1.92708e-21
9.34784e-22
6.4952e-22
1.88582e-21
3.26435e-21
2.12923e-21
5.37589e-21
2.79512e-21
1.63758e-21
8.57443e-21
1.00595e-21
8.40112e-21
1.1753e-20
5.86097e-21
4.92036e-21
9.97379e-21
4.05542e-22
2.80599e-21
1.08456e-20
9.1147e-23
7.33428e-21
4.02566e-21
1.38781e-20
2.34298e-21
4.35404e-21
1.23249e-20
3.14271e-21
5.97318e-21
3.48403e-21
1.7976e-21
3.51939e-21
7.47768e-21
3.52058e-21
4.80249e-21
4.32175e-21
6.15072e-22
5.84873e-21
1.63266e-21
4.64866e-21
1.11142e-20
6.44387e-22
7.43872e-23
1.13781e-20
3.54924e-21
7.12279e-21
1.44063e-21
1.4289e-21
1.26135e-21
2.99409e-21
5.34582e-21
2.24344e-22
1.19062e-20
4.51751e-21
9.74881e-21
1.02537e-20
2.05466e-20
1.01723e-20
6.75719e-21
9.44662e-21
2.48038e-20
4.18795e-21
3.58081e-21
3.25921e-22
1.30883e-21
1.60762e-22
1.85068e-21
7.63942e-22
8.82106e-21
4.71868e-21
3.89511e-22
3.33436e-21
1.52144e-21
7.39972e-21
2.63079e-22
6.27889e-21
3.55702e-21
3.93543e-21
1.01558e-20
2.83392e-21
6.87317e-21
1.30936e-20
1.67035e-20
7.33959e-22
1.18031e-22
8.83694e-21
5.17738e-21
1.70516e-20
7.95114e-21
2.86788e-22
6.57496e-22
2.42566e-20
1.31784e-21
8.70093e-21
3.51187e-22
3.50153e-21
1.108e-20
6.15295e-21
4.79984e-21
1.59511e-21
1.62488e-21
2.69761e-21
1.53233e-20
3.93141e-21
1.12043e-20
5.17394e-21
2.65909e-21
1.15341e-20
5.25913e-21
3.6202e-21
9.38711e-21
1.08583e-20
2.54683e-21
3.96877e-21
4.32153e-22
1.76205e-22
4.24381e-21
3.51519e-21
6.18224e-21
5.70734e-21
8.51157e-21
1.67237e-22
9.03135e-22
9.97787e-22
1.92764e-20
7.40931e-22
2.79713e-21
5.6573e-22
2.09492e-21
7.04787e-22
7.14752e-21
5.74978e-21
1.89243e-20
1.29318e-20
6.45367e-22
1.07561e-21
1.94851e-20
2.25427e-21
1.50641e-20
1.16642e-20
3.94032e-21
4.64546e-21
9.61415e-21
2.13281e-22
2.67761e-21
2.7191e-21
2.52124e-21
6.52232e-21
4.48501e-21
3.7259e-21
3.57362e-21
3.43375e-21
3.4926e-21
1.76259e-21
3.09533e-21
4.59951e-21
6.82605e-21
1.0727e-20
5.84155e-21
5.17317e-21
3.743e-22
4.81242e-22
3.474e-22
2.01604e-20
6.1525e-21
7.14151e-21
1.83865e-20
1.27359e-21
6.08522e-21
1.46315e-21
6.00535e-21
6.05964e-21
2.26513e-21
1.25385e-21
2.0627e-21
1.41371e-21
6.19046e-22
5.73215e-22
3.19598e-21
4.40189e-22
5.28907e-22
2.83231e-21
1.36096e-20
6.86119e-21
6.26772e-22
3.49326e-22
6.14513e-21
1.0612e-20
1.81076e-21
1.76184e-21
7.93251e-21
5.21419e-21
1.56296e-21
1.25189e-20
3.56832e-21
1.36325e-21
3.12455e-21
5.61984e-21
3.9619e-21
6.38546e-21
1.35515e-21
5.83006e-21
2.37311e-21
6.55601e-21
2.51611e-20
1.76785e-22
6.39935e-21
3.94679e-21
1.878e-21
2.95158e-21
1.96498e-21
4.90905e-21
4.17843e-22
2.29299e-22
9.06133e-22
1.40596e-20
5.38454e-21
1.25963e-22
1.07587e-21
2.54097e-20
5.93233e-21
7.99371e-21
3.02821e-22
9.17133e-21
2.59139e-21
1.28971e-21
3.66534e-21
1.96576e-20
1.82088e-20
7.18824e-21
8.03385e-21
8.94953e-21
2.81586e-21
1.85391e-21
1.75977e-22
1.34814e-20
1.44557e-20
5.33907e-21
2.18719e-21
7.89807e-23
1.15391e-21
2.63711e-23
1.06296e-21
1.07576e-20
8.39782e-21
1.3545e-20
3.0545e-21
1.51393e-22
2.63431e-21
2.15688e-21
6.10783e-21
6.97429e-21
8.25008e-21
1.5461e-20
8.73198e-21
5.47384e-21
3.68973e-21
4.61323e-21
5.4297e-21
1.27369e-20
5.35254e-21
1.26632e-21
9.77271e-22
1.54943e-21
2.25946e-21
2.3894e-22
8.08913e-21
9.40332e-21
8.97055e-21
1.68081e-21
7.37755e-21
1.97204e-21
2.16514e-22
4.26397e-21
1.70233e-21
2.97751e-21
1.16683e-20
6.5397e-21
2.0607e-20
8.78079e-21
1.15451e-21
4.77736e-21
1.60237e-21
8.68699e-21
1.65385e-20
2.89259e-21
2.83316e-21
1.22767e-20
5.3771e-21
1.76263e-21
1.64224e-21
1.34391e-20
3.77424e-21
4.05172e-22
4.57654e-21
4.67953e-22
3.9242e-21
6.13287e-21
6.37023e-21
8.26368e-21
4.18548e-21
3.02896e-21
1.03135e-21
3.23891e-21
9.24078e-21
2.23022e-21
2.60509e-22
6.97015e-21
9.77052e-22
4.36134e-21
1.1316e-21
4.9731e-21
1.26369e-20
9.48807e-22
6.46374e-21
1.05993e-21
1.46204e-20
5.40703e-21
1.74261e-21
6.72945e-21
9.63037e-21
4.92154e-22
4.4407e-21
1.59136e-21
1.74986e-21
2.66912e-21
2.68237e-22
6.77472e-22
1.28473e-21
2.16321e-22
3.9281e-21
4.4199e-21
2.31582e-21
9.89658e-22
1.03749e-20
9.99783e-22
4.90799e-21
3.35004e-21
7.42452e-21
5.82048e-21
1.45799e-20
4.89726e-21
6.1028e-21
3.11883e-21
3.73087e-21
1.145e-20
2.00333e-21
1.01087e-20
1.45526e-22
5.78392e-21
4.22723e-21
6.95275e-21
4.91797e-21
1.77131e-20
4.70005e-21
5.15797e-21
3.90993e-21
7.35139e-21
2.15049e-20
1.88871e-21
5.09908e-23
4.03318e-23
1.19872e-21
3.63671e-21
2.2231e-21
1.5041e-20
8.68569e-21
8.81975e-21
8.21618e-21
1.96348e-22
1.83704e-21
4.83007e-21
1.6637e-20
1.0886e-21
6.69853e-21
1.11948e-20
2.67382e-20
1.5725e-20
6.05308e-21
8.77425e-21
6.366e-21
1.19444e-21
1.0551e-21
9.57267e-21
4.00996e-21
2.16383e-21
6.7403e-21
4.05846e-22
6.53486e-22
1.75393e-20
1.9855e-21
5.13352e-22
7.33971e-21
6.37909e-21
2.15358e-21
1.10104e-20
4.40823e-21
4.87035e-21
8.37318e-21
6.01682e-22
1.18327e-21
3.93986e-22
3.04645e-21
5.25727e-22
1.36217e-21
1.19206e-20
6.49951e-21
9.37167e-21
3.67304e-21
4.55206e-22
1.4174e-20
8.90369e-22
1.70666e-21
1.49571e-20
2.53367e-22
1.18321e-20
1.89364e-21
2.63916e-21
1.3233e-20
5.89574e-21
3.40041e-21
6.2027e-22
9.42305e-23
2.02517e-21
5.89559e-22
2.9922e-21
1.24662e-21
4.9721e-21
8.14448e-21
3.25991e-21
2.27901e-20
6.85382e-21
3.12976e-21
1.95105e-20
5.7437e-21
1.48295e-20
2.75318e-21
5.12655e-21
1.39306e-20
4.37058e-21
3.74422e-22
1.57059e-20
1.40439e-20
5.69851e-21
9.50211e-23
2.11303e-21
1.20725e-20
1.82072e-20
2.12223e-21
8.74955e-22
7.28428e-21
9.43508e-22
1.23e-21
3.10425e-22
2.08258e-22
1.57693e-21
4.38423e-21
2.55335e-21
8.4779e-21
1.41557e-21
1.20296e-20
1.09255e-20
5.582e-21
6.18447e-21
6.29449e-21
1.05846e-21
2.73439e-21
3.6002e-21
5.00127e-21
4.57618e-21
3.93296e-22
2.12393e-23
3.34995e-21
6.30312e-22
1.54722e-21
1.01635e-21
3.08226e-21
4.90504e-21
8.501e-22
1.18441e-21
2.62218e-21
2.476e-21
4.88982e-21
3.65847e-21
1.8636e-21
6.86085e-21
1.68139e-20
1.43873e-21
2.90139e-21
3.16878e-21
5.83358e-21
5.12925e-22
4.74308e-21
1.74978e-21
6.17343e-22
1.20495e-21
7.60106e-22
6.01879e-21
3.00568e-21
3.3915e-21
1.98004e-20
4.87596e-21
6.75766e-22
6.16786e-21
5.07806e-21
2.93416e-21
2.86576e-21
7.95312e-21
7.0477e-21
2.91686e-21
6.79052e-21
5.4108e-21
3.39465e-21
3.48154e-22
7.62314e-21
3.62462e-21
5.80957e-22
1.30366e-21
1.1135e-21
1.51996e-21
1.28877e-20
3.93655e-21
2.78414e-21
3.87581e-21
3.88162e-22
9.35412e-21
1.74433e-21
1.63936e-21
4.18888e-21
1.64314e-20
1.5657e-22
1.7087e-21
3.51913e-21
5.49413e-21
3.40114e-20
3.93612e-21
1.94369e-21
3.92623e-21
3.22137e-22
5.41483e-21
2.63756e-21
2.55709e-22
4.58788e-21
1.82154e-22
7.16848e-21
1.46317e-21
5.90865e-22
3.27877e-22
9.1301e-21
1.13507e-22
5.96489e-21
7.09423e-21
6.11834e-21
2.91278e-23
8.82115e-21
1.23551e-21
4.24598e-21
7.52362e-21
1.12965e-21
2.06348e-22
8.24496e-22
7.06025e-21
3.16955e-21
1.29881e-21
7.57441e-21
3.14893e-20
4.60086e-21
2.87493e-21
3.46862e-22
7.55769e-21
1.45368e-20
7.94598e-21
3.04886e-21
1.26271e-20
2.68171e-21
6.25931e-22
7.96978e-22
2.23527e-21
2.38639e-21
8.8791e-22
1.04773e-20
2.11656e-21
8.9648e-22
2.98133e-21
4.07641e-22
7.19187e-21
1.00757e-22
9.80372e-22
6.49985e-21
3.86986e-21
3.80341e-21
4.18046e-22
2.82592e-21
2.4313e-22
1.51727e-21
1.85962e-23
1.57895e-20
4.455e-21
1.77256e-21
1.51294e-20
4.52283e-21
5.17027e-21
3.22951e-21
2.55268e-21
1.486e-21
1.18309e-20
2.77937e-21
1.16074e-21
7.90685e-22
3.32799e-21
8.94948e-21
3.26087e-21
1.69188e-21
2.03176e-21
6.50231e-22
6.35964e-22
2.59288e-21
3.11676e-21
6.6869e-21
4.71514e-21
2.8302e-20
8.56701e-21
1.88647e-21
1.83426e-21
2.92616e-22
3.2736e-21
4.03136e-21
1.02137e-20
9.76715e-22
6.76237e-21
7.66399e-21
2.76539e-21
1.59024e-21
8.17136e-21
1.74435e-22
7.7131e-21
3.70528e-21
3.23234e-20
2.27874e-20
4.94235e-21
2.90873e-21
6.62884e-21
1.31159e-20
7.52795e-22
3.88616e-21
3.99908e-21
1.25099e-21
2.41178e-21
2.60502e-21
1.01687e-21
9.80476e-22
2.2998e-21
1.40088e-21
1.75972e-21
3.72782e-21
2.56027e-20
2.03536e-21
2.94022e-22
3.73411e-21
6.61284e-21
3.17769e-22
2.58101e-21
1.31671e-21
1.81766e-22
6.75525e-21
2.56233e-21
1.24721e-20
5.95107e-21
3.455e-21
1.36574e-21
1.15294e-21
6.45028e-23
7.45804e-21
4.87559e-21
3.51435e-21
2.63216e-21
1.55688e-20
6.62867e-21
1.94351e-21
5.05535e-21
1.33503e-21
2.9181e-21
3.09047e-22
4.71923e-21
2.9005e-20
7.13638e-21
5.22526e-21
3.00674e-21
4.82951e-21
1.25781e-20
1.21528e-21
1.67423e-21
1.84734e-20
8.4106e-22
3.06789e-21
6.50734e-21
1.09517e-21
3.61549e-21
1.06311e-20
2.71826e-21
8.56151e-21
2.25943e-22
1.77198e-21
1.45142e-20
3.04195e-21
2.32239e-21
1.06637e-20
9.90304e-21
4.23902e-21
2.24115e-21
3.15092e-20
8.71968e-21
1.45162e-21
1.57508e-21
5.02593e-21
2.72163e-21
2.65252e-21
2.34416e-22
2.70946e-21
5.66788e-21
6.75074e-21
4.53785e-21
8.30327e-22
1.92789e-20
1.14575e-20
3.2172e-21
1.16638e-20
6.76684e-21
3.55469e-21
2.52076e-21
8.50799e-22
3.328e-21
7.94357e-22
3.86252e-21
1.19362e-21
6.7362e-21
5.22714e-21
7.39813e-21
8.36104e-22
7.97761e-21
3.14901e-21
5.20575e-21
5.7637e-21
6.77564e-21
1.57979e-20
1.84187e-21
8.29721e-21
4.39369e-21
8.52084e-21
2.122e-21
1.10714e-20
1.94033e-21
1.48544e-20
1.59755e-20
7.28377e-21
4.9796e-21
7.44114e-22
3.38411e-21
1.17327e-20
3.32764e-22
6.23536e-21
8.25999e-21
6.29481e-21
9.48306e-21
1.15248e-21
7.37256e-21
4.7299e-21
9.83731e-22
5.79557e-21
1.37365e-20
1.70877e-20
9.11336e-21
4.96011e-22
1.76848e-20
8.55279e-22
1.09819e-20
2.45665e-21
2.45818e-20
9.94075e-21
1.63155e-22
7.21179e-21
1.10787e-21
2.06937e-21
3.22557e-22
7.28994e-21
3.84527e-21
2.73839e-20
1.63154e-21
3.36568e-21
1.05167e-23
1.29175e-20
5.64137e-21
4.90034e-21
3.65104e-21
1.18677e-20
2.73294e-21
6.06742e-21
8.76705e-21
3.5935e-21
2.63224e-21
1.6153e-20
1.41594e-20
5.71669e-21
2.13765e-21
2.99662e-22
8.32205e-21
1.20729e-21
2.72724e-21
3.06074e-21
8.35956e-22
8.45716e-21
6.92001e-21
1.33972e-20
4.84298e-21
3.50152e-21
4.01841e-21
5.6956e-21
1.64769e-20
2.98631e-21
6.32648e-22
1.4358e-21
3.20439e-21
5.07274e-22
2.79714e-21
9.02116e-21
1.69248e-22
9.99186e-21
1.87619e-21
2.55889e-21
1.00386e-21
1.17604e-20
3.05983e-21
6.60926e-21
3.68192e-22
1.40432e-20
4.66842e-21
2.04631e-21
8.80478e-22
3.96873e-21
1.7573e-20
4.39637e-21
1.46201e-21
4.1197e-21
4.64972e-21
7.97249e-23
7.18468e-21
4.08704e-21
2.90937e-21
1.52034e-20
5.321e-21
2.03378e-21
3.55765e-21
6.61997e-21
5.84019e-21
2.10325e-20
7.98117e-22
3.17488e-22
1.25114e-20
3.03506e-21
8.60394e-21
2.76153e-21
2.01012e-21
5.57291e-22
3.66662e-22
9.80148e-22
4.29782e-21
3.19627e-21
8.2238e-21
9.97937e-22
3.43485e-21
6.15802e-21
2.67759e-21
3.01293e-21
2.89967e-21
2.22952e-21
7.45563e-21
2.95437e-21
4.54225e-20
9.31461e-21
1.66319e-21
4.69181e-21
6.71692e-21
3.08869e-21
3.91878e-22
2.99751e-21
5.3402e-22
1.34796e-21
8.66202e-21
7.73015e-23
3.02216e-21
1.56635e-22
4.94555e-21
1.51258e-21
2.21924e-21
8.14016e-22
7.32522e-21
1.05694e-22
9.67184e-21
1.64727e-21
1.05518e-20
7.73711e-21
6.71194e-21
8.20728e-21
1.15328e-20
3.40746e-21
2.80109e-21
7.2135e-21
5.24654e-21
5.08249e-22
4.28347e-21
2.51469e-21
1.30575e-20
5.81816e-21
9.4828e-22
9.66077e-21
6.59649e-22
3.43352e-21
1.42862e-22
5.94493e-21
1.23346e-21
2.11251e-21
4.54441e-21
7.18222e-21
1.96445e-21
5.42906e-21
1.53301e-20
3.56898e-21
1.94908e-22
7.70896e-22
8.90466e-21
3.50178e-21
1.30203e-21
1.08603e-20
9.70641e-21
1.30517e-22
4.33228e-21
1.60188e-21
9.90418e-21
1.59901e-21
2.58096e-21
2.20239e-22
1.14768e-20
2.85842e-21
2.53755e-21
9.87809e-22
2.52729e-21
2.86812e-21
1.09024e-21
1.60913e-21
2.18576e-21
1.60231e-20
2.34587e-21
6.58428e-21
9.49656e-24
5.17777e-21
8.14504e-21
2.83262e-21
1.03021e-21
9.95032e-21
1.45273e-20
1.89238e-20
8.29476e-21
2.02043e-21
4.87565e-21
1.72559e-22
1.63967e-21
1.53074e-21
2.99154e-21
8.64524e-21
7.07956e-21
1.42082e-20
7.77549e-22
7.20751e-21
8.38721e-21
1.49733e-20
5.9741e-21
1.02128e-20
1.03388e-21
7.55394e-22
2.63213e-21
1.00797e-21
6.91484e-21
2.9254e-21
1.42929e-21
2.50306e-21
2.88045e-21
5.56451e-21
4.52334e-21
4.46493e-21
1.17006e-21
4.00142e-22
3.83739e-21
7.46711e-23
1.54388e-20
7.57163e-21
9.43413e-21
9.91329e-22
1.93056e-21
7.50017e-21
1.57768e-20
7.85547e-22
8.93746e-21
2.57122e-21
3.08463e-21
9.09567e-21
1.45564e-20
3.9537e-22
4.33525e-21
7.2132e-22
1.42023e-20
2.4152e-21
1.52635e-20
5.38052e-21
8.56024e-21
6.0133e-22
1.38162e-21
2.93317e-21
9.0337e-21
9.19772e-21
5.69296e-21
1.02898e-21
1.97243e-21
2.5132e-21
6.7796e-21
1.68262e-21
3.1922e-22
7.30355e-21
2.7166e-20
2.18402e-21
8.52802e-21
1.4797e-21
4.44643e-21
9.86874e-21
1.27275e-20
2.76632e-21
4.4929e-21
7.39665e-21
1.24064e-20
1.46298e-21
7.3222e-22
3.08392e-21
9.7179e-21
5.55374e-21
6.20946e-21
3.04805e-22
6.6972e-22
1.19608e-21
9.25701e-21
3.15738e-21
7.05508e-21
9.18795e-21
4.80957e-21
5.96611e-21
1.16292e-21
1.16183e-20
1.45296e-21
4.28458e-21
9.26443e-21
1.07255e-20
7.81055e-21
2.04391e-21
1.87388e-22
1.03e-21
4.94378e-22
2.03504e-20
6.81339e-21
3.17701e-21
1.0497e-20
1.6121e-20
3.13029e-21
1.02889e-21
3.51764e-21
1.04051e-21
2.62194e-22
7.72651e-22
2.12824e-21
1.19839e-20
3.20161e-21
1.26882e-21
6.97018e-21
5.42116e-21
3.97483e-21
3.62765e-21
3.24615e-21
1.03295e-21
2.68469e-22
8.32882e-21
9.86397e-21
3.15396e-21
1.41562e-22
1.9361e-20
4.54207e-21
4.19931e-21
1.02217e-20
5.85272e-21
4.4111e-21
1.13259e-21
3.58542e-21
7.82274e-21
5.9186e-21
1.37015e-20
2.28104e-21
3.07827e-21
6.9804e-21
1.47159e-21
4.97103e-21
7.47439e-21
2.1733e-21
8.48395e-22
1.28357e-20
5.09932e-21
2.15434e-21
6.63019e-21
4.58849e-21
8.75624e-23
4.72783e-21
4.89493e-22
1.25223e-21
5.22751e-21
1.5967e-21
5.84077e-22
3.80739e-21
2.22173e-22
3.34556e-21
7.23687e-23
8.961e-21
2.01675e-21
9.65745e-22
4.21562e-21
1.83119e-21
1.61041e-21
4.22051e-21
7.64631e-21
5.75927e-21
7.74252e-21
3.93882e-21
1.04626e-20
6.74759e-21
1.20279e-21
1.96905e-23
2.56776e-21
1.28929e-20
6.60743e-23
4.24891e-20
3.06875e-21
5.94601e-21
1.18641e-22
5.09509e-21
1.65275e-20
9.28972e-21
1.50275e-21
5.41896e-21
4.43459e-21
3.78857e-22
3.62811e-21
1.17525e-22
1.44703e-21
1.77069e-20
3.06973e-22
1.16121e-21
6.53986e-21
2.34146e-22
1.41289e-20
6.39838e-22
4.30727e-21
7.9576e-21
3.36125e-22
2.11635e-21
2.09269e-21
6.1403e-21
5.3433e-21
9.25654e-21
9.61256e-21
2.12504e-21
9.25291e-21
1.12912e-20
2.04085e-21
7.03382e-21
5.74775e-21
6.22101e-21
7.69754e-22
4.23313e-22
4.25495e-21
4.60607e-21
5.76183e-23
2.98772e-21
6.80795e-21
2.44682e-21
5.30365e-21
9.51154e-22
1.06213e-20
3.12473e-21
8.76584e-21
6.80439e-22
5.99955e-21
3.03255e-21
1.41032e-20
8.57923e-22
2.52124e-21
4.21741e-21
5.52023e-22
1.52264e-21
1.02734e-21
1.29591e-21
1.15662e-21
2.12768e-21
8.61802e-21
6.40652e-21
6.97236e-21
7.02993e-21
2.18617e-22
1.5495e-21
2.49035e-21
2.21766e-20
1.89845e-21
2.19846e-22
2.09949e-21
7.35179e-21
3.6169e-21
1.98378e-21
1.1407e-22
6.79338e-22
3.63003e-21
1.35444e-20
5.18865e-21
3.58774e-21
1.33193e-20
3.13671e-21
9.17115e-21
2.39021e-21
2.76936e-20
1.05138e-20
8.67968e-21
3.17938e-21
2.6468e-21
1.74378e-21
1.99463e-21
2.96935e-21
9.77656e-22
1.1323e-21
8.09423e-21
1.45698e-21
1.47081e-21
4.4163e-21
5.37692e-21
1.00453e-21
1.50343e-21
3.81309e-21
6.39661e-21
3.13835e-21
6.27357e-21
7.45567e-22
6.13964e-21
9.59447e-21
5.19268e-21
4.56051e-22
1.23174e-20
1.55515e-20
4.24822e-21
4.74438e-21
5.70732e-21
1.80136e-20
1.03252e-20
4.33569e-21
1.60905e-21
3.596e-21
9.40337e-21
2.07622e-21
2.51033e-20
2.60926e-21
2.6685e-21
9.50902e-22
7.40365e-21
1.44213e-21
1.30476e-21
1.3465e-21
2.92791e-21
2.21668e-21
1.42566e-21
3.28682e-21
5.37162e-22
9.46678e-22
2.65081e-21
6.63482e-22
6.45881e-23
4.23626e-21
7.92988e-21
2.2715e-21
5.44521e-21
1.13353e-21
1.23094e-20
4.15242e-23
5.61705e-21
2.93309e-21
1.58482e-20
6.55195e-21
1.06804e-20
1.94008e-21
2.60978e-21
1.43798e-21
2.79905e-21
1.72656e-20
3.57968e-21
6.94307e-21
5.46563e-21
1.40474e-21
1.45573e-21
2.0137e-20
1.28214e-20
2.69803e-21
5.42217e-21
4.28484e-22
6.57576e-22
5.89035e-21
5.35473e-21
1.352e-21
3.19495e-21
1.61368e-21
1.41258e-21
5.76782e-21
8.83004e-21
9.47277e-21
3.48261e-21
3.99722e-21
3.05659e-21
6.25612e-22
1.87271e-21
7.20676e-21
9.70631e-21
2.37347e-21
1.06511e-21
5.22759e-21
3.85379e-21
1.47543e-20
1.24862e-20
5.19195e-22
1.89342e-21
9.81264e-22
3.85702e-21
6.2685e-22
7.88129e-22
3.98661e-22
1.31982e-21
3.96501e-21
5.26625e-21
6.20633e-21
3.56034e-21
1.32972e-20
6.14851e-22
2.54616e-21
1.46706e-21
1.02044e-21
1.74043e-21
1.51533e-20
1.16923e-21
1.17788e-21
7.05355e-22
1.01753e-20
7.39754e-21
1.75984e-21
3.74727e-22
8.41632e-21
4.05287e-21
5.11961e-21
8.86702e-21
7.801e-21
2.95837e-21
1.18786e-20
1.11316e-21
1.81438e-21
3.26071e-22
1.06176e-20
6.15931e-21
2.16824e-20
9.52854e-21
5.58708e-22
1.02696e-20
6.12837e-22
2.57788e-21
1.26646e-20
3.41964e-21
2.47345e-21
1.06614e-20
1.13088e-21
3.75227e-21
8.31178e-21
7.02992e-21
3.32358e-21
4.63259e-21
7.75876e-21
5.7998e-22
4.56714e-21
2.20236e-20
1.11423e-20
2.27898e-21
5.1593e-22
2.67789e-21
7.97677e-22
7.37054e-21
6.5952e-21
6.49518e-21
6.93348e-21
6.76711e-21
1.09194e-20
3.42354e-21
9.2822e-21
4.42049e-23
7.14287e-21
7.49035e-22
7.49384e-22
3.06484e-21
5.29768e-22
5.5714e-21
3.60771e-21
2.78429e-21
8.87709e-21
6.43805e-21
1.90746e-21
4.75808e-21
1.27723e-21
3.86971e-21
9.79889e-21
6.55061e-21
3.1031e-21
2.0288e-21
5.95717e-21
4.90386e-22
1.05617e-21
4.1164e-21
3.98973e-21
6.71923e-22
5.1708e-21
6.29157e-21
6.69139e-21
8.4975e-22
3.563e-21
2.41851e-21
6.30921e-23
3.68474e-21
6.85952e-21
4.58746e-21
7.42391e-22
2.88363e-21
4.68083e-21
2.0567e-21
1.77396e-21
5.60784e-21
2.46297e-21
2.7755e-21
5.33671e-21
2.17961e-21
4.50855e-21
3.21218e-21
1.37324e-21
9.9214e-22
5.60639e-22
3.89842e-21
9.15391e-21
4.89312e-21
2.50242e-21
1.86719e-21
9.43033e-21
1.76427e-21
9.49651e-21
7.86756e-21
6.05782e-21