/*--------------------------------*- C++ -*----------------------------------*\
  =========                 |
  \\      /  F ield         | OpenFOAM: The Open Source CFD Toolbox
   \\    /   O peration     | Website:  https://openfoam.org
    \\  /    A nd           | Version:  7
     \\/     M anipulation  |
\*---------------------------------------------------------------------------*/
FoamFile
{
    version     2.0;
    format      ascii;
    class       volScalarField;
    location    "0.006";
    object      dsmcSigmaTcRMax;
}
// * * * * * * * * * * * * * * * * * * * * * * * * * * * * * * * * * * * * * //

dimensions      [0 3 -1 0 0 0 0];

internalField   nonuniform List<scalar> 
546
(
6.036739118e-16
6.690923585e-16
5.837058234e-16
6.197883827e-16
5.736613026e-16
6.089535106e-16
5.823146937e-16
6.852089164e-16
6.052240023e-16
6.278512914e-16
5.987405057e-16
5.588679891e-16
6.124127744e-16
6.543175546e-16
6.354268439e-16
6.063778698e-16
5.962582555e-16
6.172601161e-16
6.095496283e-16
6.651673103e-16
6.120710426e-16
6.068720304e-16
5.783218585e-16
5.868602263e-16
6.131322238e-16
6.136369026e-16
6.063539786e-16
5.754485301e-16
5.814279728e-16
6.096112844e-16
6.348907438e-16
5.913525116e-16
6.299116565e-16
6.462329146e-16
6.722769226e-16
6.51101218e-16
6.093571743e-16
6.315093822e-16
6.243951526e-16
6.799591974e-16
6.02146771e-16
5.771894145e-16
6.025747488e-16
6.050032553e-16
6.086466539e-16
6.762975854e-16
5.768653023e-16
6.313572617e-16
5.799033049e-16
5.993326201e-16
6.31391006e-16
6.173524465e-16
6.202677397e-16
6.609886708e-16
6.092883041e-16
6.134758574e-16
6.296234683e-16
5.866308928e-16
6.112422791e-16
6.078086016e-16
6.175701944e-16
6.047149849e-16
6.293634209e-16
6.076566758e-16
5.549181281e-16
6.12410085e-16
5.971708331e-16
6.102376395e-16
5.993683283e-16
5.829805965e-16
6.295941337e-16
6.132160849e-16
6.385128395e-16
5.926666682e-16
6.238574597e-16
5.845256354e-16
6.384876848e-16
6.073475174e-16
5.993386573e-16
6.228392629e-16
6.029882853e-16
5.99559998e-16
6.311989043e-16
6.103374435e-16
6.332508535e-16
5.829748374e-16
6.254177351e-16
6.426969143e-16
5.777804294e-16
5.892438542e-16
6.209346679e-16
6.411688157e-16
6.584303784e-16
6.384154821e-16
5.93634993e-16
6.171968983e-16
6.098989538e-16
6.624945018e-16
6.143666775e-16
6.697543369e-16
6.094597997e-16
5.738094113e-16
6.111483416e-16
6.090357863e-16
6.294030298e-16
6.666723796e-16
5.918848787e-16
5.735457852e-16
6.051039522e-16
5.813262842e-16
5.814741128e-16
6.419226302e-16
6.497012402e-16
6.470514442e-16
6.036177341e-16
5.80618805e-16
6.333895641e-16
5.904161728e-16
6.3979535e-16
6.579070927e-16
6.189377526e-16
6.233173155e-16
5.865429273e-16
6.084924019e-16
5.855461466e-16
6.263568639e-16
6.058688897e-16
6.151876979e-16
6.073086685e-16
6.031733635e-16
6.369516964e-16
6.039390532e-16
6.079888106e-16
5.873750679e-16
6.340097808e-16
6.316710227e-16
6.014836279e-16
6.205382584e-16
6.239786462e-16
6.175693596e-16
6.036163615e-16
6.049104274e-16
6.015032374e-16
5.818799255e-16
6.559649611e-16
6.364158667e-16
5.84276265e-16
6.217491859e-16
6.443060267e-16
6.398398487e-16
6.023257982e-16
6.228071342e-16
6.228674554e-16
6.681613514e-16
5.915533621e-16
6.320507722e-16
5.910449461e-16
6.719825709e-16
6.209047375e-16
6.178487339e-16
5.701738153e-16
5.847870585e-16
5.599700799e-16
6.157109111e-16
6.494530889e-16
6.084490172e-16
5.783535557e-16
6.421160327e-16
5.890699167e-16
5.711033806e-16
6.20239979e-16
6.125879232e-16
6.589446364e-16
6.584084385e-16
6.472590565e-16
6.361832086e-16
6.146918875e-16
6.188741535e-16
6.07741606e-16
6.039508782e-16
6.094356766e-16
5.766564518e-16
6.071649251e-16
6.184994638e-16
5.960085338e-16
5.655744571e-16
5.848211616e-16
5.950626531e-16
5.745216106e-16
5.973362284e-16
5.879806796e-16
6.249010381e-16
6.366004601e-16
5.946584399e-16
6.571230161e-16
5.995309833e-16
5.813476717e-16
5.911540177e-16
6.773051528e-16
6.17790272e-16
6.363987511e-16
6.138510948e-16
5.951406521e-16
5.935024481e-16
6.130309262e-16
5.877172668e-16
5.93380848e-16
6.306013617e-16
6.156341802e-16
6.101652639e-16
6.060477721e-16
6.015998966e-16
5.966623047e-16
6.771652078e-16
6.08483814e-16
5.747242047e-16
6.329240491e-16
6.106373194e-16
6.025620486e-16
6.105745577e-16
6.388082541e-16
6.190240684e-16
5.883170387e-16
5.802009017e-16
6.311063233e-16
5.728932395e-16
6.017855541e-16
6.021782172e-16
6.133893178e-16
6.52287451e-16
6.061726234e-16
6.108478988e-16
5.940383648e-16
6.011783617e-16
6.122552806e-16
6.270790256e-16
6.214669562e-16
6.467115605e-16
5.959482961e-16
5.933615472e-16
5.839156713e-16
6.149519108e-16
5.883943542e-16
6.046933742e-16
5.811029606e-16
5.801488052e-16
5.841538369e-16
6.076386651e-16
6.004175064e-16
6.201523442e-16
6.772594214e-16
6.133296033e-16
6.253497139e-16
5.924023066e-16
6.310424471e-16
6.416889989e-16
5.871789939e-16
6.436291302e-16
6.577727482e-16
6.590422932e-16
6.240093755e-16
5.98628327e-16
6.019174402e-16
6.040839021e-16
6.268489513e-16
6.329789999e-16
6.033546205e-16
5.689391119e-16
6.209096568e-16
6.247634423e-16
6.289926864e-16
5.879367654e-16
5.87364306e-16
6.280246652e-16
5.950051604e-16
5.979881017e-16
6.587097367e-16
6.038522446e-16
6.316295071e-16
6.470007084e-16
5.95480485e-16
5.682722611e-16
6.126232075e-16
5.955129485e-16
5.942010495e-16
6.200688667e-16
5.712380252e-16
5.976898986e-16
6.186975929e-16
6.435136713e-16
5.855521001e-16
6.297375018e-16
6.315643833e-16
6.102534959e-16
6.455472317e-16
6.075451044e-16
7.090661882e-16
6.945480233e-16
6.323186333e-16
5.735672621e-16
6.067901593e-16
5.985224713e-16
6.170443019e-16
6.006619939e-16
6.574729543e-16
5.909991703e-16
5.916833859e-16
6.074562382e-16
6.119280028e-16
6.296857942e-16
6.15006981e-16
7.379224157e-16
6.413983755e-16
6.413983465e-16
6.131078941e-16
6.823249826e-16
6.53571803e-16
6.07696133e-16
6.108452765e-16
6.068955299e-16
5.862065615e-16
6.212905752e-16
6.027098278e-16
5.798085012e-16
5.926031752e-16
6.269442941e-16
6.380302507e-16
5.745250161e-16
5.986023792e-16
6.352448139e-16
6.700887164e-16
6.932409583e-16
6.909921973e-16
6.082567569e-16
6.838630155e-16
6.076783286e-16
6.84191269e-16
6.24567722e-16
6.257285322e-16
6.634397313e-16
6.061978477e-16
5.538861674e-16
6.285637298e-16
6.738809893e-16
6.16592582e-16
6.139960092e-16
6.666887802e-16
6.468014665e-16
6.686114024e-16
7.061908935e-16
6.850023143e-16
6.79927522e-16
6.835144989e-16
7.899107091e-16
6.880342745e-16
6.651740926e-16
6.42248658e-16
6.57866739e-16
6.739954547e-16
6.359502931e-16
6.261182237e-16
6.518428673e-16
6.31955969e-16
6.5825718e-16
6.509011732e-16
6.07680018e-16
5.98465171e-16
6.60857031e-16
6.707275065e-16
6.460161777e-16
6.512753445e-16
6.213171962e-16
6.950441004e-16
6.30644119e-16
6.243208532e-16
6.360793392e-16
6.436934225e-16
6.149533527e-16
6.697537746e-16
6.189983748e-16
6.759450621e-16
6.303189459e-16
6.220767907e-16
6.257704877e-16
6.335446218e-16
6.238582458e-16
6.02831587e-16
6.092209063e-16
6.638589642e-16
6.161973258e-16
6.308562012e-16
6.664624735e-16
6.155634982e-16
6.22523306e-16
6.212773771e-16
6.456981583e-16
5.942953971e-16
6.017125555e-16
6.188908008e-16
6.221489526e-16
6.378940596e-16
6.336931664e-16
6.478003881e-16
6.451227259e-16
6.039546722e-16
6.222089706e-16
6.627112269e-16
6.233883881e-16
5.674193714e-16
6.538808476e-16
6.78567696e-16
6.266878787e-16
6.108450134e-16
6.990289992e-16
5.702842612e-16
6.0455293e-16
6.08314291e-16
6.311086205e-16
6.189761835e-16
6.485457814e-16
6.643261979e-16
6.130187223e-16
5.958354489e-16
6.407862404e-16
6.08099985e-16
6.249386134e-16
6.105598265e-16
6.335585395e-16
6.090007669e-16
6.717537654e-16
6.092885995e-16
6.276580247e-16
6.404808723e-16
6.432192024e-16
6.209649368e-16
6.143334177e-16
6.214404506e-16
5.822112916e-16
5.927951768e-16
6.189196451e-16
6.312440662e-16
6.048222611e-16
6.334852939e-16
6.18829923e-16
6.218178024e-16
6.905562225e-16
6.377300608e-16
6.084157049e-16
6.129833503e-16
5.759410707e-16
6.206372812e-16
6.179282067e-16
6.644734309e-16
6.689539536e-16
6.14520162e-16
6.991047665e-16
6.073776279e-16
6.271563509e-16
6.422869509e-16
5.889007118e-16
6.361354622e-16
6.199068205e-16
5.997847846e-16
6.391422678e-16
6.331429209e-16
5.865331768e-16
6.462709279e-16
5.889645592e-16
5.901587121e-16
6.278904995e-16
6.156888966e-16
6.452875946e-16
6.470876255e-16
7.1755473e-16
6.82769226e-16
6.302179332e-16
5.838029581e-16
6.157443309e-16
6.028472848e-16
6.982376253e-16
6.684016656e-16
6.29758154e-16
6.17624351e-16
6.040911777e-16
5.806983774e-16
6.175761935e-16
6.617960033e-16
5.965932454e-16
5.944196715e-16
6.018611698e-16
6.158821326e-16
5.969803631e-16
6.045892354e-16
6.248639577e-16
6.202494083e-16
6.251607314e-16
6.073819018e-16
6.846683941e-16
5.818718931e-16
6.298688272e-16
6.474446567e-16
6.514344547e-16
6.563594542e-16
6.065000893e-16
6.82880172e-16
6.677198761e-16
6.557701862e-16
6.18111794e-16
5.758237692e-16
6.46653916e-16
6.589777988e-16
7.063985603e-16
6.519189584e-16
6.061549001e-16
5.824713023e-16
6.303129142e-16
5.91623329e-16
6.839699766e-16
5.967942832e-16
6.224501463e-16
6.263418169e-16
6.692594908e-16
6.940663991e-16
6.673114128e-16
6.038414798e-16
6.629325224e-16
5.863492542e-16
6.865704085e-16
6.989769054e-16
6.19216674e-16
6.44806302e-16
6.699215785e-16
6.533393908e-16
6.758153944e-16
7.342253121e-16
6.864812867e-16
7.199771722e-16
6.648187636e-16
7.088626168e-16
7.377249016e-16
7.245184275e-16
6.293823516e-16
6.958704388e-16
7.007564064e-16
7.238735721e-16
6.495535293e-16
)
;

boundaryField
{
    flow
    {
        type            zeroGradient;
    }
    obstacle
    {
        type            zeroGradient;
    }
    frontAndBack
    {
        type            empty;
    }
    procBoundary2to0
    {
        type            processor;
        value           nonuniform List<scalar> 
31
(
6.345791422e-16
6.360463615e-16
5.937103104e-16
5.961604739e-16
6.545732699e-16
5.905819822e-16
6.278571628e-16
5.824795446e-16
6.532417654e-16
6.766122769e-16
6.100675899e-16
6.22824112e-16
5.994122741e-16
5.951192074e-16
6.243281546e-16
6.003520728e-16
6.310876626e-16
6.719741401e-16
6.502460015e-16
6.610574829e-16
5.8568248e-16
6.115685743e-16
6.45030868e-16
6.317614249e-16
6.028362364e-16
6.446571489e-16
6.28913956e-16
6.590384399e-16
6.139526871e-16
6.331837168e-16
6.331837168e-16
)
;
    }
    procBoundary2to3
    {
        type            processor;
        value           nonuniform List<scalar> 
19
(
6.710975112e-16
6.179010028e-16
6.670172882e-16
6.570561995e-16
6.173417622e-16
6.376765019e-16
6.439020107e-16
6.287953635e-16
6.488339001e-16
6.562617938e-16
7.136289562e-16
6.343941277e-16
6.600359185e-16
6.1974844e-16
5.78061189e-16
6.608851726e-16
7.468569037e-16
6.791470087e-16
6.656365195e-16
)
;
    }
}


// ************************************************************************* //
