/*--------------------------------*- C++ -*----------------------------------*\
  =========                 |
  \\      /  F ield         | OpenFOAM: The Open Source CFD Toolbox
   \\    /   O peration     | Website:  https://openfoam.org
    \\  /    A nd           | Version:  7
     \\/     M anipulation  |
\*---------------------------------------------------------------------------*/
FoamFile
{
    version     2.0;
    format      ascii;
    class       volScalarField;
    location    "0.006";
    object      iDof;
}
// * * * * * * * * * * * * * * * * * * * * * * * * * * * * * * * * * * * * * //

dimensions      [0 -3 0 0 0 0 0];

internalField   nonuniform List<scalar> 
546
(
1.874519654e+20
2.915919462e+20
2.082799616e+20
2.707639501e+20
6.248398848e+19
2.082799616e+20
1.041399808e+20
6.248398848e+19
1.666239693e+20
1.457959731e+20
1.666239693e+20
2.291079578e+20
2.291079578e+20
2.291079578e+20
1.666239693e+20
1.666239693e+20
2.082799616e+20
1.666239693e+20
2.082799616e+20
2.082799616e+20
8.331198464e+19
2.291079578e+20
2.082799616e+20
1.666239693e+20
1.666239693e+20
1.666239693e+20
1.666239693e+20
2.082799616e+20
1.457959731e+20
1.24967977e+20
2.707639501e+20
1.666239693e+20
2.082799616e+20
1.874519654e+20
1.24967977e+20
1.24967977e+20
1.874519654e+20
1.457959731e+20
1.666239693e+20
1.666239693e+20
1.874519654e+20
2.291079578e+20
1.874519654e+20
8.331198464e+19
1.874519654e+20
1.24967977e+20
2.707639501e+20
1.666239693e+20
2.291079578e+20
1.457959731e+20
8.331198464e+19
1.24967977e+20
1.874519654e+20
1.666239693e+20
2.082799616e+20
1.666239693e+20
2.291079578e+20
1.666239693e+20
2.082799616e+20
1.666239693e+20
1.24967977e+20
2.082799616e+20
1.666239693e+20
2.291079578e+20
1.041399808e+20
2.707639501e+20
2.291079578e+20
2.082799616e+20
2.082799616e+20
2.291079578e+20
2.082799616e+20
2.082799616e+20
2.291079578e+20
4.165599232e+19
2.082799616e+20
2.291079578e+20
1.24967977e+20
1.666239693e+20
1.666239693e+20
1.874519654e+20
3.124199424e+20
1.666239693e+20
1.457959731e+20
2.082799616e+20
2.499359539e+20
1.457959731e+20
1.041399808e+20
4.165599232e+20
1.24967977e+20
6.248398848e+19
6.248398848e+19
2.082799616e+20
2.082799616e+20
8.331198464e+19
1.666239693e+20
1.457959731e+20
1.666239693e+20
1.24967977e+20
2.499359539e+20
1.666239693e+20
2.082799616e+20
3.540759347e+20
1.457959731e+20
1.666239693e+20
2.499359539e+20
2.915919462e+20
1.457959731e+20
8.331198464e+19
8.331198464e+19
1.666239693e+20
2.707639501e+20
1.041399808e+20
2.707639501e+20
1.874519654e+20
4.165599232e+19
1.874519654e+20
1.457959731e+20
2.082799616e+20
2.707639501e+20
1.666239693e+20
1.24967977e+20
1.041399808e+20
2.082799616e+20
2.291079578e+20
2.082799616e+20
2.082799616e+20
1.666239693e+20
1.874519654e+20
2.082799616e+20
2.499359539e+20
1.874519654e+20
1.874519654e+20
8.331198464e+19
1.874519654e+20
1.666239693e+20
1.874519654e+20
1.874519654e+20
1.874519654e+20
1.666239693e+20
1.24967977e+20
2.707639501e+20
1.457959731e+20
2.499359539e+20
1.457959731e+20
1.457959731e+20
1.874519654e+20
1.666239693e+20
3.124199424e+20
1.874519654e+20
1.24967977e+20
6.248398848e+19
1.874519654e+20
1.874519654e+20
2.499359539e+20
1.874519654e+20
2.291079578e+20
1.24967977e+20
2.082799616e+20
1.24967977e+20
1.457959731e+20
1.457959731e+20
1.874519654e+20
2.291079578e+20
8.331198464e+19
1.457959731e+20
2.291079578e+20
2.082799616e+20
8.331198464e+19
2.499359539e+20
2.707639501e+20
2.499359539e+20
2.499359539e+20
2.082799616e+20
1.874519654e+20
1.457959731e+20
3.749039309e+20
1.874519654e+20
1.666239693e+20
1.874519654e+20
1.874519654e+20
2.082799616e+20
2.915919462e+20
2.291079578e+20
2.082799616e+20
3.540759347e+20
2.499359539e+20
1.874519654e+20
2.707639501e+20
1.24967977e+20
1.666239693e+20
1.041399808e+20
2.499359539e+20
1.041399808e+20
1.666239693e+20
8.331198464e+19
2.082799616e+20
1.457959731e+20
1.874519654e+20
1.457959731e+20
1.041399808e+20
1.874519654e+20
1.457959731e+20
2.082799616e+20
2.082799616e+20
2.707639501e+20
1.666239693e+20
2.707639501e+20
2.915919462e+20
1.874519654e+20
2.291079578e+20
1.041399808e+20
2.082799616e+20
1.666239693e+20
1.874519654e+20
1.874519654e+20
2.291079578e+20
2.291079578e+20
2.291079578e+20
1.874519654e+20
1.24967977e+20
2.291079578e+20
1.874519654e+20
2.499359539e+20
1.666239693e+20
1.874519654e+20
2.082799616e+20
1.457959731e+20
1.041399808e+20
2.291079578e+20
1.874519654e+20
2.707639501e+20
1.666239693e+20
8.331198464e+19
2.707639501e+20
1.874519654e+20
2.291079578e+20
1.666239693e+20
1.666239693e+20
1.666239693e+20
1.041399808e+20
1.666239693e+20
1.041399808e+20
1.457959731e+20
1.874519654e+20
1.041399808e+20
1.874519654e+20
8.331198464e+19
1.666239693e+20
1.874519654e+20
2.082799616e+20
1.457959731e+20
2.291079578e+20
1.457959731e+20
1.874519654e+20
1.041399808e+20
2.291079578e+20
2.499359539e+20
1.666239693e+20
1.666239693e+20
1.041399808e+20
1.874519654e+20
1.24967977e+20
2.082799616e+20
2.082799616e+20
1.666239693e+20
2.499359539e+20
2.707639501e+20
2.291079578e+20
1.874519654e+20
1.457959731e+20
1.24967977e+20
2.291079578e+20
1.874519654e+20
2.082799616e+20
1.457959731e+20
6.248398848e+19
1.666239693e+20
2.499359539e+20
2.082799616e+20
1.666239693e+20
2.291079578e+20
2.082799616e+20
1.874519654e+20
1.666239693e+20
2.915919462e+20
2.291079578e+20
1.874519654e+20
2.707639501e+20
1.666239693e+20
2.707639501e+20
2.499359539e+20
1.874519654e+20
1.666239693e+20
2.291079578e+20
1.874519654e+20
1.24967977e+20
3.124199424e+20
1.457959731e+20
1.666239693e+20
1.874519654e+20
1.457959731e+20
1.666239693e+20
2.291079578e+20
3.124199424e+20
2.082799616e+20
1.874519654e+20
2.082799616e+20
2.499359539e+20
1.666239693e+20
2.499359539e+20
2.291079578e+20
1.457959731e+20
1.457959731e+20
1.666239693e+20
1.457959731e+20
3.332479385e+20
2.291079578e+20
1.24967977e+20
1.666239693e+20
2.915919462e+20
2.291079578e+20
3.332479385e+20
2.082799616e+20
8.331198464e+19
2.499359539e+20
2.082799616e+20
1.666239693e+20
3.124199424e+20
2.707639501e+20
1.24967977e+20
1.666239693e+20
2.291079578e+20
2.707639501e+20
2.082799616e+20
2.082799616e+20
1.874519654e+20
3.124199424e+20
1.24967977e+20
2.915919462e+20
1.874519654e+20
1.457959731e+20
2.082799616e+20
2.499359539e+20
1.041399808e+20
1.874519654e+20
1.457959731e+20
1.457959731e+20
1.666239693e+20
1.041399808e+20
2.915919462e+20
1.666239693e+20
2.291079578e+20
2.291079578e+20
4.165599232e+19
2.082799616e+20
8.331198464e+19
1.874519654e+20
1.874519654e+20
1.457959731e+20
1.457959731e+20
1.933997406e+20
8.656319476e+19
1.08974506e+20
1.975609287e+20
2.210978576e+20
1.781653177e+20
1.463130028e+20
1.683646482e+20
1.695303565e+20
2.560684792e+20
2.793551809e+20
2.164079869e+20
2.615388162e+20
2.853657859e+20
1.547684992e+20
1.781653177e+20
8.360743071e+19
3.367292964e+20
1.695303565e+20
2.774075191e+20
1.289331595e+20
1.29844793e+20
2.615388162e+20
2.442153655e-289
1.326587145e+20
1.55894653e+20
2.299204329e+20
1.683646482e+20
1.907216511e+20
1.707123195e+20
2.148886007e+20
1.298447921e+20
8.717960539e+19
8.780485781e+19
2.21097856e+20
2.004359809e+20
2.299204329e+20
4.209116176e+19
1.059564728e+20
2.56068481e+20
6.446658021e+19
8.656319476e+19
1.743592096e+20
6.585364244e+19
2.874272128e+20
1.55894653e+20
1.254111452e+20
1.68364647e+20
1.695303565e+20
1.493732806e+20
1.074443004e+20
1.298447921e+20
8.717960539e+19
2.853657879e+20
3.095370006e+20
1.781653177e+20
1.881167178e+20
1.473190672e+20
1.271477674e+20
1.066951997e+20
1.074443004e+20
2.380487872e+20
1.525643094e+20
1.097560715e+20
1.768782861e+20
1.336239892e+20
2.299204345e+20
8.418232409e+19
1.271477674e+20
1.280342405e+20
2.793551809e+20
1.731263895e+20
1.743592108e+20
1.097560715e+20
1.547684992e+20
1.781653177e+20
2.508222905e+20
1.683646482e+20
2.119129471e+20
1.493732806e+20
2.578663208e+20
1.082039934e+20
1.525643084e+20
1.975609287e+20
1.768782861e+20
1.781653177e+20
1.881167178e+20
2.315013897e+20
1.695303554e+20
3.200855968e+20
2.148885992e+20
1.29844793e+20
1.74359212e+20
1.975609301e+20
1.768782861e+20
1.336239882e+20
1.672148603e+20
1.262734861e+20
1.907216524e+20
2.347294409e+20
1.289331613e+20
1.082039942e+20
8.717960478e+19
2.195121415e+20
1.989880704e+20
8.908265883e+19
1.881167191e+20
2.525469723e+20
3.178694185e+20
1.920513607e+20
3.223329011e+20
1.298447921e+20
1.525643094e+20
2.634145734e+20
1.989880718e+20
2.449773118e+20
1.672148603e+20
2.315013897e+20
8.476517769e+19
1.920513594e+20
2.363774608e+20
3.029711816e+20
1.961541108e+20
2.19512143e+20
1.547685003e+20
8.908265883e+19
1.463130028e+20
1.683646482e+20
2.119129471e+20
1.707123206e+20
1.719108806e+20
8.656319536e+19
1.961541135e+20
1.756097156e+20
1.768782848e+20
1.558946518e+20
1.672148603e+20
1.68364647e+20
2.331042386e+20
3.20085599e+20
1.933997406e+20
1.731263895e+20
1.961541108e+20
1.975609273e+20
2.432076416e+20
1.781653189e+20
1.672148603e+20
2.104558102e+20
2.542955365e+20
1.280342396e+20
1.933997393e+20
1.514855908e+20
1.307694081e+20
2.195121445e+20
2.432076433e+20
2.449773118e+20
1.672148614e+20
2.104558102e+20
1.48339062e+20
1.920513607e+20
1.719108806e+20
8.656319476e+19
2.179490119e+20
1.975609287e+20
3.095370006e+20
1.55894653e+20
2.508222905e+20
2.104558102e+20
2.119129457e+20
2.560684792e+20
1.289331604e+20
1.731263907e+20
2.833337195e+20
1.317072858e+20
1.768782848e+20
2.004359824e+20
1.881167178e+20
1.68364647e+20
1.271477674e+20
1.920513607e+20
1.719108806e+20
1.082039934e+20
3.051286167e+20
2.414633573e+20
1.768782861e+20
2.004359824e+20
)
;

boundaryField
{
    flow
    {
        type            zeroGradient;
    }
    obstacle
    {
        type            calculated;
        value           nonuniform 0();
    }
    frontAndBack
    {
        type            empty;
    }
    procBoundary2to0
    {
        type            processor;
        value           nonuniform List<scalar> 
31
(
2.915919462e+20
1.874519654e+20
2.291079578e+20
1.666239693e+20
2.082799616e+20
2.082799616e+20
2.082799616e+20
1.874519654e+20
2.291079578e+20
1.666239693e+20
1.874519654e+20
1.666239693e+20
2.499359539e+20
1.457959731e+20
1.457959731e+20
2.082799616e+20
2.707639501e+20
2.082799616e+20
1.666239693e+20
1.874519654e+20
2.363774608e+20
1.731263895e+20
8.717960539e+19
1.756097156e+20
1.768782861e+20
6.681199412e+19
2.299204329e+20
2.525469706e+20
2.119129457e+20
1.707123206e+20
1.707123206e+20
)
;
    }
    procBoundary2to3
    {
        type            processor;
        value           nonuniform List<scalar> 
19
(
2.243390205e+19
2.467729225e+20
1.570373155e+20
1.121695102e+20
1.346034123e+20
2.467729243e+20
1.570373155e+20
1.794712164e+20
1.346034132e+20
6.730170614e+19
2.467729225e+20
2.243390221e+20
1.570373143e+20
1.121695102e+20
2.019051213e+20
1.346034123e+20
2.019051184e+20
1.12169511e+20
2.467729225e+20
)
;
    }
}


// ************************************************************************* //
