/*--------------------------------*- C++ -*----------------------------------*\
  =========                 |
  \\      /  F ield         | OpenFOAM: The Open Source CFD Toolbox
   \\    /   O peration     | Website:  https://openfoam.org
    \\  /    A nd           | Version:  7
     \\/     M anipulation  |
\*---------------------------------------------------------------------------*/
FoamFile
{
    version     2.0;
    format      ascii;
    class       volScalarField;
    location    "0.006";
    object      iDofMean;
}
// * * * * * * * * * * * * * * * * * * * * * * * * * * * * * * * * * * * * * //

dimensions      [0 -3 0 0 0 0 0];

internalField   nonuniform List<scalar> 
546
(
1.752051037e+20
1.759271409e+20
1.756216636e+20
1.705674032e+20
1.750523651e+20
1.692205261e+20
1.699009073e+20
1.674640318e+20
1.689081062e+20
1.638399605e+20
1.593133426e+20
1.592508586e+20
1.62708306e+20
1.57126403e+20
1.630484966e+20
1.494339298e+20
1.533079371e+20
1.61007353e+20
1.578623256e+20
1.524262186e+20
1.754966956e+20
1.786000671e+20
1.839320341e+20
1.765172675e+20
1.736777173e+20
1.736985453e+20
1.744900092e+20
1.814812732e+20
1.697967674e+20
1.635483685e+20
1.649369016e+20
1.647563923e+20
1.64534227e+20
1.588412414e+20
1.617016195e+20
1.539466623e+20
1.542660249e+20
1.57251371e+20
1.563071685e+20
1.530232878e+20
1.797386642e+20
1.84306938e+20
1.740040226e+20
1.711644724e+20
1.706854285e+20
1.753161863e+20
1.776628072e+20
1.710395045e+20
1.742678439e+20
1.652562642e+20
1.657977921e+20
1.653326335e+20
1.665961986e+20
1.605630224e+20
1.609518117e+20
1.537730956e+20
1.575290776e+20
1.597507305e+20
1.564807351e+20
1.507669215e+20
1.846818419e+20
1.807453507e+20
1.654298308e+20
1.680055597e+20
1.690955582e+20
1.750176517e+20
1.747399451e+20
1.640968391e+20
1.631665219e+20
1.671932678e+20
1.656450535e+20
1.61111493e+20
1.648188763e+20
1.628610446e+20
1.597715585e+20
1.636455658e+20
1.577443002e+20
1.596327052e+20
1.557795259e+20
1.579942362e+20
1.819880878e+20
1.771768207e+20
1.745108372e+20
1.75218989e+20
1.713727524e+20
1.702202699e+20
1.798080908e+20
1.725391202e+20
1.720600763e+20
1.620070968e+20
1.671724398e+20
1.590078653e+20
1.580636629e+20
1.648883029e+20
1.598687559e+20
1.551824567e+20
1.568764671e+20
1.606463344e+20
1.597090745e+20
1.603963984e+20
1.771629353e+20
1.82356049e+20
1.818006358e+20
1.793221043e+20
1.780029978e+20
1.706090592e+20
1.735110933e+20
1.690747302e+20
1.71921223e+20
1.645689403e+20
1.691372141e+20
1.686095716e+20
1.612503463e+20
1.640760111e+20
1.610004103e+20
1.609726396e+20
1.554601633e+20
1.602714304e+20
1.582164015e+20
1.64596711e+20
1.767949741e+20
1.888752118e+20
1.877088441e+20
1.829184049e+20
1.754342116e+20
1.801482814e+20
1.762534462e+20
1.731153614e+20
1.725182922e+20
1.742470159e+20
1.668739052e+20
1.674640318e+20
1.606185637e+20
1.610212383e+20
1.649785576e+20
1.650757549e+20
1.623125741e+20
1.585982481e+20
1.600006665e+20
1.567514991e+20
1.821547117e+20
1.818422918e+20
1.792804483e+20
1.763853568e+20
1.744900092e+20
1.761631915e+20
1.80946688e+20
1.758924276e+20
1.702619259e+20
1.739276533e+20
1.722475282e+20
1.673390638e+20
1.631248659e+20
1.743233852e+20
1.723308402e+20
1.68352693e+20
1.619446128e+20
1.62520854e+20
1.577720709e+20
1.604519397e+20
1.779196859e+20
1.770101967e+20
1.78870831e+20
1.760590515e+20
1.817659225e+20
1.793498749e+20
1.756980329e+20
1.680958143e+20
1.689775328e+20
1.710395045e+20
1.798983455e+20
1.766700061e+20
1.732750427e+20
1.691094435e+20
1.755800076e+20
1.71629631e+20
1.64346775e+20
1.622570327e+20
1.597090745e+20
1.706229445e+20
1.777461192e+20
1.886530465e+20
1.901665476e+20
1.779127432e+20
1.780724245e+20
1.831544556e+20
1.791971363e+20
1.737888e+20
1.711783578e+20
1.720878469e+20
1.750523651e+20
1.667072813e+20
1.703174673e+20
1.671724398e+20
1.767116621e+20
1.669294466e+20
1.64534227e+20
1.611253783e+20
1.634095152e+20
1.658602761e+20
1.797872628e+20
1.895000517e+20
1.845638166e+20
1.844666193e+20
1.79058283e+20
1.762742742e+20
1.744969518e+20
1.725946615e+20
1.728654255e+20
1.704285499e+20
1.630484966e+20
1.707617978e+20
1.721572736e+20
1.684151769e+20
1.714699497e+20
1.675542864e+20
1.705257472e+20
1.71900395e+20
1.668253066e+20
1.66505944e+20
1.746358051e+20
1.837237541e+20
1.905414515e+20
1.822171957e+20
1.769268847e+20
1.854385925e+20
1.803079628e+20
1.701647286e+20
1.739554239e+20
1.760243382e+20
1.757119183e+20
1.752467597e+20
1.691580421e+20
1.724905215e+20
1.639510431e+20
1.706298872e+20
1.716018604e+20
1.679014197e+20
1.604797104e+20
1.686651129e+20
1.802385361e+20
1.870770615e+20
1.834807608e+20
1.814118465e+20
1.79224907e+20
1.818978331e+20
1.818631198e+20
1.815298719e+20
1.731014761e+20
1.805578987e+20
1.759201982e+20
1.750870784e+20
1.737193733e+20
1.778294312e+20
1.7001199e+20
1.686998262e+20
1.674570891e+20
1.672140958e+20
1.658880467e+20
1.686165142e+20
1.89951325e+20
1.88146232e+20
1.923951432e+20
1.873408828e+20
1.840084034e+20
1.787180924e+20
1.760243382e+20
1.752537023e+20
1.779891125e+20
1.846748993e+20
1.78725035e+20
1.665337146e+20
1.752537023e+20
1.783223605e+20
1.708173392e+20
1.721711589e+20
1.735041507e+20
1.703244099e+20
1.689497622e+20
1.719906496e+20
1.828836916e+20
1.923118312e+20
1.928741871e+20
1.869382082e+20
1.938183896e+20
1.824740744e+20
1.818492345e+20
1.831058569e+20
1.775308966e+20
1.850428605e+20
1.87896296e+20
1.784265004e+20
1.782668191e+20
1.847165553e+20
1.735735773e+20
1.709770205e+20
1.724627509e+20
1.757049756e+20
1.718517963e+20
1.751495624e+20
1.856954711e+20
1.934643137e+20
1.875491627e+20
1.741012199e+20
1.901943183e+20
1.836126715e+20
1.830225449e+20
1.84306938e+20
1.803287907e+20
1.815368145e+20
1.857579551e+20
1.803704467e+20
1.832585955e+20
1.778919152e+20
1.833002515e+20
1.768158021e+20
1.787805764e+20
1.797039509e+20
1.757813449e+20
1.741081626e+20
1.892640011e+20
1.97296665e+20
1.940336122e+20
1.807314653e+20
1.871395455e+20
1.889446385e+20
1.852650258e+20
1.82397705e+20
1.782459911e+20
1.808564333e+20
1.862925403e+20
1.863272536e+20
1.865216483e+20
1.742192452e+20
1.746080345e+20
1.78787519e+20
1.693454941e+20
1.742053599e+20
1.827587236e+20
1.78704207e+20
1.932838044e+20
1.987546247e+20
1.921104939e+20
1.880559773e+20
1.872575708e+20
1.813840759e+20
1.826198703e+20
1.908677568e+20
1.872992268e+20
1.895139371e+20
1.908816421e+20
1.855982738e+20
1.830642009e+20
1.793707029e+20
1.816478972e+20
1.796692375e+20
1.728654255e+20
1.744136398e+20
1.793082189e+20
1.802246508e+20
1.452360423e+20
1.450799144e+20
1.421754055e+20
1.494658182e+20
1.438757459e+20
1.452121574e+20
1.538864425e+20
1.538572277e+20
1.461634224e+20
1.537335567e+20
1.492902739e+20
1.509157165e+20
1.440933578e+20
1.413146006e+20
1.418858641e+20
1.42918279e+20
1.513573187e+20
1.545447166e+20
1.462764426e+20
1.513293582e+20
1.568830033e+20
1.529643798e+20
1.483796884e+20
1.506145984e+20
1.481429345e+20
1.468156453e+20
1.551126848e+20
1.505320259e+20
1.48967737e+20
1.564649538e+20
1.57248315e+20
1.598533663e+20
1.511767007e+20
1.569658175e+20
1.524101221e+20
1.4488552e+20
1.562762215e+20
1.583539657e+20
1.537357783e+20
1.543452769e+20
1.513460415e+20
1.493287246e+20
1.489463548e+20
1.535780112e+20
1.514667712e+20
1.551300268e+20
1.520610136e+20
1.487361353e+20
1.464812918e+20
1.557607666e+20
1.547842591e+20
1.536280299e+20
1.492296895e+20
1.509438677e+20
1.548348297e+20
1.568894093e+20
1.518241259e+20
1.469332315e+20
1.491725862e+20
1.559599299e+20
1.599129337e+20
1.599182898e+20
1.496147328e+20
1.538048415e+20
1.555128631e+20
1.526357134e+20
1.56749998e+20
1.565440468e+20
1.569568551e+20
1.573611946e+20
1.60328385e+20
1.621977862e+20
1.598873963e+20
1.575584992e+20
1.574364133e+20
1.583073083e+20
1.589864957e+20
1.595816257e+20
1.547247064e+20
1.588691534e+20
1.544404373e+20
1.605747263e+20
1.644788543e+20
1.611658154e+20
1.606644432e+20
1.628876417e+20
1.621914472e+20
1.568386839e+20
1.615624287e+20
1.666579007e+20
1.630574691e+20
1.592402115e+20
1.603450903e+20
1.642975231e+20
1.62226868e+20
1.651592495e+20
1.580389448e+20
1.609986948e+20
1.667472343e+20
1.667717112e+20
1.594616687e+20
1.646071296e+20
1.571049128e+20
1.625999602e+20
1.673342274e+20
1.649810842e+20
1.614180796e+20
1.612301962e+20
1.717625062e+20
1.643319477e+20
1.616678573e+20
1.563331297e+20
1.570903839e+20
1.605804508e+20
1.677764243e+20
1.691605456e+20
1.622262836e+20
1.640783637e+20
1.612728143e+20
1.590327516e+20
1.571193819e+20
1.563187025e+20
1.620886802e+20
1.64407278e+20
1.661329302e+20
1.716771307e+20
1.631041617e+20
1.665196522e+20
1.679410106e+20
1.669353105e+20
1.630646332e+20
1.665403743e+20
1.679224511e+20
1.6490484e+20
1.669731009e+20
1.701701478e+20
1.676259302e+20
1.618264866e+20
1.719320354e+20
1.612520118e+20
1.635803658e+20
1.654294788e+20
1.70290828e+20
1.744828842e+20
1.716530055e+20
1.740972108e+20
1.678976543e+20
1.712128168e+20
1.703638819e+20
1.70434912e+20
1.662449833e+20
1.656891684e+20
1.73414765e+20
1.796341049e+20
1.749842144e+20
1.783286359e+20
1.737710774e+20
1.699921731e+20
1.712185963e+20
1.735433e+20
1.77834643e+20
1.767836845e+20
1.81769476e+20
1.824438591e+20
1.802610833e+20
1.757378152e+20
1.727608198e+20
1.795047757e+20
1.783318075e+20
1.79027432e+20
1.740884184e+20
1.806862431e+20
1.780716102e+20
1.771975189e+20
1.781901321e+20
1.795238282e+20
1.82661333e+20
1.836226932e+20
1.779150454e+20
1.781383066e+20
1.827770808e+20
1.804698339e+20
1.78449386e+20
1.844999562e+20
1.743135509e+20
1.789076731e+20
)
;

boundaryField
{
    flow
    {
        type            calculated;
        value           nonuniform List<scalar> 
48
(
1.752051037e+20
1.754966956e+20
1.797386642e+20
1.846818419e+20
1.819880878e+20
1.771629353e+20
1.767949741e+20
1.821547117e+20
1.779196859e+20
1.777461192e+20
1.797872628e+20
1.746358051e+20
1.802385361e+20
1.89951325e+20
1.828836916e+20
1.856954711e+20
1.892640011e+20
1.932838044e+20
1.932838044e+20
1.987546247e+20
1.921104939e+20
1.880559773e+20
1.872575708e+20
1.813840759e+20
1.826198703e+20
1.908677568e+20
1.872992268e+20
1.895139371e+20
1.908816421e+20
1.855982738e+20
1.830642009e+20
1.793707029e+20
1.816478972e+20
1.796692375e+20
1.728654255e+20
1.744136398e+20
1.793082189e+20
1.802246508e+20
1.82661333e+20
1.836226932e+20
1.779150454e+20
1.781383066e+20
1.827770808e+20
1.804698339e+20
1.78449386e+20
1.844999562e+20
1.743135509e+20
1.789076731e+20
)
;
    }
    obstacle
    {
        type            calculated;
        value           nonuniform 0();
    }
    frontAndBack
    {
        type            empty;
    }
    procBoundary2to0
    {
        type            processor;
        value           nonuniform List<scalar> 
31
(
1.822727371e+20
1.768019167e+20
1.761423635e+20
1.700050473e+20
1.759965675e+20
1.699564487e+20
1.698592513e+20
1.688386795e+20
1.676445411e+20
1.638607885e+20
1.562307992e+20
1.551616287e+20
1.60611621e+20
1.581678028e+20
1.571333457e+20
1.51669468e+20
1.567029004e+20
1.539188916e+20
1.566195885e+20
1.541202289e+20
1.456085158e+20
1.435217769e+20
1.432578866e+20
1.562194762e+20
1.475533402e+20
1.447147793e+20
1.516847802e+20
1.518438661e+20
1.493350528e+20
1.499707737e+20
1.499707737e+20
)
;
    }
    procBoundary2to3
    {
        type            processor;
        value           nonuniform List<scalar> 
19
(
1.410942879e+20
1.439284376e+20
1.487891174e+20
1.3924723e+20
1.477721128e+20
1.554445084e+20
1.56446556e+20
1.526701814e+20
1.582337902e+20
1.582861349e+20
1.620325965e+20
1.660258323e+20
1.735262323e+20
1.717389981e+20
1.733318077e+20
1.821931965e+20
1.820361592e+20
1.78940282e+20
1.844515426e+20
)
;
    }
}


// ************************************************************************* //
