/*--------------------------------*- C++ -*----------------------------------*\
  =========                 |
  \\      /  F ield         | OpenFOAM: The Open Source CFD Toolbox
   \\    /   O peration     | Website:  https://openfoam.org
    \\  /    A nd           | Version:  7
     \\/     M anipulation  |
\*---------------------------------------------------------------------------*/
FoamFile
{
    version     2.0;
    format      ascii;
    class       volScalarField;
    location    "0.006";
    object      internalE;
}
// * * * * * * * * * * * * * * * * * * * * * * * * * * * * * * * * * * * * * //

dimensions      [1 -1 -2 0 0 0 0];

internalField   nonuniform List<scalar> 
546
(
0.7266867941
0.3466063217
0.877667635
0.5840560042
0.2629139921
0.2038451684
0.2750781313
0.0574267917
0.4002124608
0.3991091068
0.3557135341
0.3850794992
0.4282662703
0.5923200071
0.3960064135
0.3113646206
0.542664013
0.4251645234
0.5090560185
0.4018389252
0.1097579831
0.7135563727
0.4985991072
0.5435055235
0.1955026602
0.5268316188
0.4099160574
0.5211689473
0.3885051078
0.3510286863
0.5397195667
0.4267407752
0.5068345489
0.8181880348
0.1224966076
0.2088668412
0.4130532926
0.4116853533
0.2272315366
0.1651338459
0.3332764313
0.6333890255
0.3518487553
0.09695141227
0.5560664877
0.1727360709
0.6818328924
0.3984950566
0.5131080882
0.3506919017
0.2705825859
0.2942445202
0.4485291556
0.2781290658
0.5198538192
0.4063279179
0.2841955731
0.7940494165
0.9174499798
0.3220198544
0.1543281771
0.4753582408
0.286343296
0.4078687714
0.2330015043
0.6473431697
0.6480829756
0.5537561013
0.3603468835
0.3364090625
0.6573407406
0.3930567869
0.4479042222
0.02840666961
0.4376329864
0.8001039472
0.6843959244
0.4951199554
0.2640329208
0.6837779401
0.5877164834
0.4280871785
0.2613950181
0.2807583666
0.4141708697
0.3529365894
0.09345039655
1.033301313
0.5094816851
0.1147945167
0.02561440037
0.4801453144
0.689655112
0.1560359915
0.2459737023
0.245733329
0.3758961426
0.06827846923
0.7040641187
0.5423108639
0.3943480054
0.8387749948
0.4764877048
0.3124171862
0.4844466492
0.7463640286
0.499150853
0.2164797593
0.1714080163
0.2974075472
0.4763583403
0.1254234279
1.08440016
0.2667476345
0.4485820065
0.4677154472
0.4862763159
0.4108869133
0.4910163055
0.4747270702
0.2529422376
0.1405381716
0.3176707307
0.4002444552
0.5508171122
0.5833856044
0.5845812738
0.4234334712
0.7984900236
0.4206778222
0.3929811303
0.5226658384
0.08028893188
0.3521153973
0.2858995322
0.4267877394
0.6474626196
0.4430440307
0.3165964503
0.3389524976
0.4513360596
0.1833312954
0.7355251782
0.1159423572
0.2835219833
0.3884846439
0.3257702832
0.61972835
0.3087084853
0.1436176904
0.1445115452
0.5910577855
0.5439911364
0.6334678236
0.7173959071
0.4757481641
0.2720391505
0.3370707828
0.4165344616
0.4940259206
0.4429126248
0.3246952033
0.5971554644
0.1472511071
0.5476559003
0.3764535107
0.4809272291
0.0892468852
0.5295783698
0.4153658806
0.3040625761
0.462513075
0.4614974634
0.2535595391
0.3385984728
0.9175452874
0.4816218058
0.4275940819
0.624730093
0.4314276428
0.4326929478
0.7432937172
0.5550724598
0.364245195
1.021356362
0.6913192949
0.3567427628
0.7768566926
0.406473989
0.4049807246
0.2120091728
0.7344540781
0.2914671657
0.3354069789
0.2455635438
0.3699132872
0.5909073412
0.3444128798
0.3698003998
0.07477695633
0.3869722793
0.338292029
0.2809684932
0.5212649502
0.4595499304
0.2815831978
0.5249440566
0.432037206
0.3420559658
0.6042691972
0.1169923413
0.4617629388
0.3609149846
0.3843617186
0.5010878582
0.4047165475
0.4680090827
0.4207481814
0.4183729096
0.2964821939
0.4013179809
0.2482545193
0.8642809106
0.3939253665
0.1873585499
0.5213169061
0.2583421995
0.08731150219
0.3078621722
0.2834426093
0.6618209336
0.7239967961
0.2108500417
0.490466202
0.2326066383
0.6653643222
0.2183034756
0.4322091033
0.3577490032
0.2883501919
0.3265390349
0.1405268919
0.1710299058
0.4146598735
0.3287330677
0.5987223127
0.05226606833
0.3104383532
0.3339327403
0.4357931426
0.3173343891
0.7103724486
0.302624246
0.5565718278
0.2682884233
0.3177471786
0.4725039137
0.497861642
0.3933764753
0.3055630313
0.4828426302
0.4360711574
0.3984288664
0.6165726344
0.3441682294
0.5211515289
0.3317432196
0.5012911373
0.5009803692
0.3550961283
0.5040898753
0.4600219451
0.5996534242
0.7264126781
0.452060748
0.09832702987
0.4530326094
0.5526168551
0.5934387084
0.2816336345
0.7603298468
0.4280214587
0.6991990401
0.3737286289
0.6773633606
0.3876610579
0.5404371576
0.7833294449
0.4668369827
0.5019016097
0.8189782633
0.4534931014
0.4242397944
0.4129140183
0.4262172396
0.1836496039
0.6664557396
0.2808124012
0.2796237036
0.3094965325
0.5358210651
0.2713810895
0.4060315845
0.7061629871
0.4883599103
0.2537118745
0.5932059174
0.6510376077
0.4570312899
0.5967986612
0.4252714205
0.2773237624
0.3351536217
0.3273056607
0.2610221834
0.6144716373
0.3921109648
0.5230071917
0.1738965252
0.5123431074
0.4696383333
0.7661016827
0.4767889016
0.493790293
0.4816814688
0.3100235593
0.2552314784
0.5181079468
0.7220673302
0.2180614939
0.2493583758
0.8075554946
0.7242064039
0.5013086068
0.6292875605
0.3300675074
0.6129667305
0.2419357402
0.7743815178
0.4884890728
0.1710900909
0.3237210521
0.5296663566
0.3459955504
0.4467997909
0.3318109073
0.2705320819
0.2173591685
0.2120487242
0.630172558
0.2852522372
0.4335801517
0.4586140508
0.03864195374
0.5710657438
0.3057023123
0.3676099864
0.5544848741
0.2263366679
0.1826561444
0.4700652699
0.05271479787
0.2601313183
0.4366168143
0.611178964
0.2856455142
0.1448548841
0.5135775266
0.503213908
0.6850348796
1.003120231
0.7180647438
1.225440158
0.6320402394
0.4095245022
0.4850014189
0.05366358442
0.8903381631
0.5899239462
0.6146506053
0.1960766864
0.2019322411
0.6887095111
0
0.5416728052
0.3649780706
0.4208204716
0.4771584272
0.7125275347
0.5676429602
0.3798533862
0.492786282
0.3863655775
0.3813589415
0.4340295019
0.382353966
0.4065765246
0.08231107756
0.1882673084
0.5733813206
0.3037139039
0.1022772838
0.3798604097
0.1181607164
0.8892644928
0.3083356846
0.2760074699
0.3790389419
0.4426645659
0.5865443844
0.3429835306
0.2670898261
0.07057851183
0.7806129093
0.9527961751
0.7910419008
0.3471755505
0.2450564029
0.2460819732
0.1759345527
0.2698979115
0.7227421998
0.654048478
0.1447749092
0.4966342188
0.1537703909
0.4857248983
0.1253628352
0.1316768647
0.4166170074
0.4591110844
0.3192201039
0.5817666501
0.235387001
0.4838551091
0.5157931431
0.3966067641
0.3745425098
0.669162842
0.5457271608
0.7943720167
0.2503238422
0.324292446
0.5048213481
0.3498828057
0.5869260529
0.2799142644
0.2655217647
0.3842657552
0.6500241278
0.3800196504
0.2384267804
0.6730071055
0.3400339013
0.3669939583
0.2238632777
0.2013014882
0.3077739199
0.5122619666
0.6841602912
0.2448108626
0.2721189654
0.03290647551
0.3661892951
0.5752538954
0.194616617
0.4089981682
0.6242460112
0.696801918
0.5087974726
0.7511648984
0.06912203506
0.2119599745
0.4316212879
0.2963326888
0.5366509331
0.4025319581
0.4860740184
0.3203174042
0.3692683852
0.5227317917
0.7294646075
0.7600669287
0.5406876922
0.3798698418
0.0740699065
0.2710775113
0.4942712997
0.3706324296
0.4674822595
0.2937648795
0.2706037672
0.3435859143
0.3275343078
0.322842804
0.640173601
0.3454113924
0.5679630757
0.4038081053
0.736301945
0.6478691315
0.3271497337
0.6434389415
0.5580181352
0.6482405338
0.3877764624
0.125085186
0.3371917178
1.103754265
0.4205603711
0.4141512261
0.3421765691
0.4267831044
0.4624638834
0.5046494636
0.6390347608
0.3174671368
0.3315654334
0.185124104
0.4514991814
0.3039189944
0.02493916107
0.3956710274
0.4618576786
0.4529881678
0.3688027112
0.5685190239
0.5245206948
0.5666354307
0.6958007186
0.2556882434
0.2131630689
0.5972903737
0.1640094587
0.372712768
0.5354434711
0.3657378726
0.3539780637
0.3397263051
0.2938700183
0.4538951213
0.322027739
0.5476607777
0.647033935
0.4779021711
0.2811984658
)
;

boundaryField
{
    flow
    {
        type            zeroGradient;
    }
    obstacle
    {
        type            calculated;
        value           nonuniform 0();
    }
    frontAndBack
    {
        type            empty;
    }
    procBoundary2to0
    {
        type            processor;
        value           nonuniform List<scalar> 
31
(
0.8321009084
0.3741366277
0.7305739384
0.4831195077
0.4192813265
0.4602574573
0.3064451429
0.3204612259
0.6406577324
0.3038070809
0.3692259175
0.2389217135
0.4424574982
0.3586182041
0.3179367543
0.2332119611
0.6784597671
0.2572813584
0.2934755547
0.568863151
0.6857387333
0.4469158423
0.09062159613
0.7220678794
0.5346913114
0.09898287859
0.607175217
0.6558746791
0.8224275348
0.363176096
0.363176096
)
;
    }
    procBoundary2to3
    {
        type            processor;
        value           nonuniform List<scalar> 
19
(
0.03643206192
0.5221026016
0.4421893543
0.133256843
0.2879874803
0.4114124178
0.3547405387
0.3752282487
0.2945657307
0.03561191088
0.7169182908
0.4344231223
0.6149885552
0.2978947177
0.4528571913
0.258083902
0.5981311122
0.1226272339
0.7645599226
)
;
    }
}


// ************************************************************************* //
