/*--------------------------------*- C++ -*----------------------------------*\
  =========                 |
  \\      /  F ield         | OpenFOAM: The Open Source CFD Toolbox
   \\    /   O peration     | Website:  https://openfoam.org
    \\  /    A nd           | Version:  7
     \\/     M anipulation  |
\*---------------------------------------------------------------------------*/
FoamFile
{
    version     2.0;
    format      ascii;
    class       volScalarField;
    location    "0.006";
    object      internalE;
}
// * * * * * * * * * * * * * * * * * * * * * * * * * * * * * * * * * * * * * //

dimensions      [1 -1 -2 0 0 0 0];

internalField   nonuniform List<scalar> 
546
(
0.5336501452
0.07191333196
0.419666684
0.1891522807
0.2328551133
0.433709655
0.3332363696
0.4428830122
0.6891731853
0.5564592301
0.1964394874
0.5301904721
0.4207875362
0.2182367453
0.6877448678
0.26970666
0.3129627872
0.5559305987
0.5435137093
0.4797570964
0.2202686893
0.3793305784
0.4487490635
0.3170377776
0.0970390252
0.4979164449
0.4925905275
0.5066003526
0.6557612969
0.4980632775
0.09132857024
0.3427800311
0.4932558042
0.5255737099
0.4611217812
0.3396934401
0.5344811836
0.3510611804
0.3325901167
0.4558596553
0.345762807
0.4233014196
0.4293335404
0.834637519
0.6027789537
0.2608635021
0.4261421069
0.5916938631
0.2965377779
0.1748653673
0.6713090455
0.3556522269
0.5364472313
0.4745853204
0.5392101888
0.6040642804
0.1743442228
0.5944282289
0.3278762601
0.5150326917
0.1190861353
0.4642293049
0.4014136094
0.367119319
0.4015267147
0.5258104048
0.5560225295
0.6706732348
0.38919037
0.05386123388
0.6011525269
0.3971671543
0.5759431734
0.5339917993
0.5142704897
0.3976557146
0.2989328951
0.6710900063
0.3112989429
0.1931347684
0.2924377414
0.9740786654
0.2874790791
0.730703722
0.3599697354
0.6395771301
0.3559931406
0.08726208178
0.3445636645
0.2213335603
0.5666163484
0.3557920381
0.2183680859
0.5865932667
0.2559654
0.5836655205
0.1676078247
0.2612993381
0.6249087101
0.259511012
0.2207233329
0.2558352836
0.436303285
0.2000775273
0.3819712178
0.2871605861
0.216128906
0.4058993967
0.2248824457
0.6336787081
0.1020787858
0.4614958561
0.3799220711
0.2631236521
0.1161236048
0.2414330558
0.8741930694
0.3754453014
0.3275170695
0.2301093576
0.1423537774
0.2917150363
0.7298974001
0.4062350809
0.2373882999
0.4131838007
0.51226967
0.4662322834
0.1804824646
0.9086168628
0.3080026535
0.5878710981
0.2892544072
0.6122756354
0.1921039838
0.8318212588
0.5175518415
0.2931513087
0.3599521277
0.1116415591
0.2755900833
0.3694014719
0.3055183642
0.2397399654
0.3350098364
0.6318669431
0.4710038224
0.3699250926
0.9097905816
0.2889003319
0.1852594117
0.5084059683
0.2948845741
0.3214462253
0.279375062
0.07643026226
0.1518034922
0.2140131094
0.539031825
0.3613139148
0.4141931281
0.3470168253
1.059356496
0.4667480758
0.5446359516
0.4263572838
0.4732721385
0.5245273147
0.1736373683
0.3456909355
0.5532114058
0.5059404561
0.5051693347
0.03931055642
0.2390163116
0.1628702307
0.2796840528
0.7428863273
0.1556971345
0.6128088255
0.1699191719
0.4305394981
0.4234049825
0.2409468743
0.42893973
0.4624544848
0.02767451965
0.4159891714
0.3125412661
0.6269533833
0.4440083043
0.6399167843
0.1609458532
0.8033141801
0.5354045519
0.1749534603
0.5159227665
0.5785347587
0.05826224224
0.4219382924
0.4636379468
0.2611944304
0.392305689
0.3544640083
0.2961120643
0.854671374
0.9826135758
0.702526027
0.5197732787
0.390519614
0.4281850348
0.8377307074
0.3334620751
0.1340086244
0.210811505
0.3131412239
0.8278128123
0.1996374788
0.522145526
0.1953922165
0.4443907479
0.2487929626
0.5881296487
0.5607577204
0.425878798
0.263782556
0.7928156899
0.21266857
0.6535029589
0.7527217775
0.1534701919
0.3828061318
0.5888774652
0.2450587543
0.2197718752
0.7055172952
0.548898381
0.2623008951
0.5345062298
0.3606435447
0.4759921023
0.5004628206
0.5356892558
0.4872148457
0.170994375
0.6495327641
0.8347805713
0.3882572418
0.1048927309
0.4314341063
0.2957180822
0.3887354779
0.4568691537
0.3216415461
0.5535035634
0.8293909268
0.4753277222
0.4357420057
0.2880184895
0.2435668466
0.2864743627
0.3418613318
0.3510688033
0.4341475402
0.3009159417
0.1104159438
0.7726549361
0.1568506605
0.1963839446
0.4143704914
0.6497857185
0.6136690876
0.2715856674
0.05738367015
0.5618948743
0.2518150747
0.2964775997
0.5084189678
0.6576580416
0.1168959133
0.3390246071
0.3729758787
0.5056374336
0.3309661318
0.09360582016
0.2709084988
0.3268098132
0.1874809201
0.2633220739
0.3314025727
0.5157802496
0.4711830039
0.6134934034
0.3193494091
0.7420607607
0.6053833879
0.3024333512
0.4784026522
0.5885645493
0.2572572191
0.2535002812
0.4256489841
0.2919344139
0.9148706314
0.3227751046
0.3926192712
0.4492924035
0.3386058005
0.4325514156
0.4883735271
0.4117295454
0.3664909135
0.1883464894
0.3802188638
0.2217462139
0.479457179
0.2605805248
0.6821879207
0.3360734595
0.1918689585
0.1651346097
0.3920901217
0.372352434
0.2796328029
0.3430023979
0.4712743416
0.4003952526
0.3663280561
0.4240925112
0.3353769434
0.5335892201
0.238156017
0.5147720977
0.3868566049
0.3724542005
0.2161635944
0.4727271958
0.368402186
0.8445071704
0.5485842329
0.2892665463
0.3465601915
0.2537905324
0.7427802415
0.6671909963
0.2209093276
0.9427953232
0.3606769348
0.489586927
0.5220252853
0.4380783503
0.1348038322
0.6529454183
0.2752785916
0.6985328919
0.4970999417
0.3275141054
0.4004525649
0.5132711919
0.5757711272
0.3226660497
0.5413538493
0.7093341112
0.5515647426
0.1748669087
0.244548934
0.250076017
0.5570235205
0.9082290024
0.1104281847
0.1088670904
0.194672624
0.5392285158
0.6774468996
0.2716452968
0.2276401906
0.3460337076
0.5173478633
0.5438561115
0.5069735573
0.2979781663
0.3454688026
0.5796237254
0.3874677005
0.3032816158
0.3488011972
0.394113791
0.2989074034
0.7067103627
0.1891442436
0.3354939166
0.4081173511
0.4502255918
0.1207080154
0.4819993723
0.3138336819
0.4588436345
0.3289798245
0.1593776347
0.3694553152
0.2786605623
0.7720730629
0.7967404998
0.4605322215
0.2802087365
0.1716959713
0.5663514555
1.173642858
0.3910161624
0.458282925
0.4979495925
0.4983566008
0.3752411162
0.4141168015
0.2211314357
0.2484119123
0.4772767229
0.318532707
0.258951238
0.5002824318
0.5345502116
0.5060302655
0.4274824334
0.3460087099
0.20679404
0.3062102782
0.2475692166
0.6625167932
0.3111939847
0.5155340821
0.2274785228
0.5452982307
0.401632135
0.6068569105
0.4876029559
0.4143824337
0.317423894
0.2359426954
0.2581288617
0.8067295896
0.4926697718
0.3707860897
0.4674396812
0.6155485802
0.6616831029
0.1243941993
0.2412996575
0.8170295758
0.6042062682
0.1318997624
0.3086359992
0.4196103889
0.4840946674
0.6975423279
0.4470283953
0.5481058509
0.1304887079
0.2090144078
0.5159401564
0.5754364779
0.3950949255
0.6639395578
0.1582417778
0.1646869884
1.033273433
0.3888777386
0.7676311639
0.6270205692
0.4962842933
0.4671702692
0.4412814462
0.4388934808
0.4950387057
0.1243841331
0.1271054316
0.4795059869
0.5510852036
0.6614687673
0.2115058674
0.3620030551
0.2854645103
0.2671487375
0.5428055498
0.8838443884
0.5750661821
0.56751879
0.2294157206
0.5062629117
0.6456624604
0.4183967075
0.6648073253
0.4115674978
0.41610568
0.5476663122
0.3937217058
0.6079032239
0.1428672898
0.2137505322
0.3993172499
0.399188717
0.5286450124
0.2559608498
0.2442195771
0.3502841797
0.6168137179
0.8503546617
0.4853050142
0.426857991
0.5117927034
0.2652717194
0.4782908426
0.502220455
0.7236744735
0.351560918
0.2293145158
0.3218491162
0.7900726747
0.3896964959
0.190112794
0.6577388258
0.3559086836
0.3748984212
0.25818126
0.5610761983
0.72359689
0.3457876311
0.1951477694
0.9175956146
0.3288109065
0.1620198295
0.272174699
0.3367390182
0.3774263195
0.3187451184
0.4454008111
0.3658508427
0.1995154638
0.649887713
0.4325648441
0.2340117687
0.2614945716
0.3110294472
0.4178772864
0.5442103518
0.1628836601
0.2382750823
)
;

boundaryField
{
    flow
    {
        type            zeroGradient;
    }
    obstacle
    {
        type            calculated;
        value           nonuniform 0();
    }
    frontAndBack
    {
        type            empty;
    }
    procBoundary2to0
    {
        type            processor;
        value           nonuniform List<scalar> 
31
(
0.3152868578
0.3717445939
0.4320644988
0.4140150885
0.4335928467
0.2535180099
0.4872125407
0.2714421084
0.5185834013
0.2851459746
0.4468772375
0.1844212253
0.4254283308
0.05827672685
0.4818636357
0.8705055839
0.2491723914
0.1773566661
0.3483968636
0.3593200696
0.394193772
0.2678700614
0.3530093069
0.6636470185
0.07067677681
0.06436140476
0.2507823287
0.3076425773
0.6278598619
0.5093757947
0.5093757947
)
;
    }
    procBoundary2to3
    {
        type            processor;
        value           nonuniform List<scalar> 
19
(
0.441269352
0.5130913143
0.378720589
0.6144482046
0.3293760773
0.2017505613
0.4573528202
0.4103209023
0.4327083141
0.143934305
0.2323803868
0.4804180029
0.4110444307
0.2594641388
0.4314138314
0.3314327724
0.4204734916
0.2682928577
0.3384108818
)
;
    }
}


// ************************************************************************* //
