/*--------------------------------*- C++ -*----------------------------------*\
  =========                 |
  \\      /  F ield         | OpenFOAM: The Open Source CFD Toolbox
   \\    /   O peration     | Website:  https://openfoam.org
    \\  /    A nd           | Version:  7
     \\/     M anipulation  |
\*---------------------------------------------------------------------------*/
FoamFile
{
    version     2.0;
    format      ascii;
    class       volScalarField;
    location    "0.006";
    object      linearKE;
}
// * * * * * * * * * * * * * * * * * * * * * * * * * * * * * * * * * * * * * //

dimensions      [1 -1 -2 0 0 0 0];

internalField   nonuniform List<scalar> 
546
(
0.559840752
1.201326288
1.20793251
0.8028904994
0.1498267711
0.8994449786
0.2147048246
0.1737869589
0.6629033945
0.625099552
0.447131552
0.6289417396
0.5919198133
0.6085158798
0.7246878139
0.7205288312
0.8911495098
0.5065015716
0.5196569861
0.586315691
0.2923340185
0.5411897528
0.8474107285
0.5902793164
0.5389325306
0.8122354589
0.4137720862
0.8623473889
0.5911794754
0.3116687184
0.624362592
0.6564504641
0.6241066138
0.4680268413
0.4062235523
0.407470709
0.8601754807
0.5137494385
0.8620552066
0.5762720709
0.4928622975
0.9825219957
0.8140795419
0.2561761735
0.5777806315
0.4739378419
1.146840328
0.7415166058
0.5906086595
0.2921561447
0.1980023613
0.2109592357
0.6726587442
0.5063964338
0.495506408
0.5791605459
0.6255205983
0.6897101995
0.7740412979
0.709687827
0.3963550379
0.5320344345
0.2926797908
0.6403978822
0.2967742049
1.073866895
0.7650556168
0.7071078254
0.5015078233
0.8848863142
0.891464941
0.5716437176
0.6528009651
0.1091067676
0.7162314719
0.6442486714
0.7090516525
0.4534574085
0.4068235878
0.3797054449
0.6315640854
0.3097157837
0.404058128
0.60366634
1.159319642
0.3826661143
0.4176401317
1.325394455
0.3546478508
0.1354583526
0.1675822475
0.6630272824
0.970972804
0.3131471477
0.6206843183
0.4438583467
0.4581366419
0.2806757971
0.6294254469
1.212443271
0.8801966271
0.8242581235
0.6042657286
0.4215752414
0.7133829148
0.6168231049
0.5266593756
0.3476396551
0.4028124674
0.3633567052
0.6049175082
0.3529188584
0.7184404814
0.5225134892
0.1392155894
0.8576832905
0.6114238244
0.9721849305
0.6009442418
0.4037263818
0.3994890731
0.6163560594
0.4894801506
0.8038142202
0.8280518048
0.4831840349
0.490917489
0.4548867903
0.6903351879
0.566077225
0.5734448335
0.6367277158
0.1671460121
0.6749110477
0.4104298644
0.8845779935
0.5357802857
0.7572246912
0.990136862
0.4962277665
0.8962256724
0.6477480947
0.5716559396
0.4422740378
0.5625421079
0.3493457433
0.6034036085
1.250394753
0.6041139045
0.560479611
0.3057485072
0.554631921
0.4354813249
0.9756187627
0.5667943204
0.7065582485
0.4093723892
0.9218858945
0.3992192062
0.4623151512
0.5282753542
0.6165172211
0.7838438579
0.333007328
0.3276608132
0.8717131314
0.612995475
0.3178267206
0.88630776
0.9300237219
0.771884112
0.7705222355
0.6115298807
0.3602626167
0.3951522325
0.9633775909
0.5699185332
1.137005584
0.8191629727
0.5260583488
0.8740870008
0.7711903547
0.5025993266
0.5136716471
1.755934615
1.126807075
0.7753096624
0.7673968355
0.307876531
0.7240156074
0.2664661532
0.9421150957
0.4226826868
0.7381971536
0.302024238
0.5691356058
0.4760698292
0.5795448366
1.044388476
0.180720014
0.481258893
0.5043773948
0.5708669323
0.5826149217
0.9335359803
0.2778283523
0.9210195006
0.9119379447
0.7774669411
0.7855097139
0.409708001
0.6819195277
0.8485535057
0.5680123815
0.9041557345
0.9023106351
0.6202835394
0.8419315163
0.8188706307
0.3541981433
0.8013252286
0.5904363166
0.66527929
0.5003657769
0.6717180868
0.4199724612
0.4130960715
0.2558379435
0.7583542441
0.6502256145
1.031632287
0.5400518795
0.27763423
0.9700975831
0.8159659722
0.7703409108
0.3778762803
0.2607152386
0.4262024909
0.4023916072
0.3825361907
0.2803226958
0.3934123448
0.4753470794
0.3423397541
0.5427954143
0.2436052827
0.6396957997
0.7385463914
0.6630251211
0.3459317759
0.6586825282
0.6035981169
0.6407129595
0.5075306322
0.5941986641
0.7116419665
0.7142686264
0.6700270868
0.462164429
0.8191427792
0.4299293673
0.5737548316
0.8681987928
0.2865488561
0.9120964017
0.9331179027
0.7930293177
0.3058787016
0.6439533793
0.4564229976
0.9514205709
0.5804925471
0.7004459456
0.3504738037
0.1867934775
0.2988807617
0.7801741791
0.8043089544
0.7429936105
0.635394876
0.5969368295
0.4532811541
0.7102140571
0.9266506334
0.8555262935
0.6805308824
1.378754438
0.6508231605
0.929697746
1.032762615
0.6200758394
0.4522632422
0.6014447026
0.7345375098
0.6467602797
1.546836017
0.6208855496
0.3325125475
0.5142064501
0.7012567156
0.5382541279
0.4799465236
1.219656003
0.5144256364
0.5238296114
0.39027953
0.7529896048
0.8230753211
0.9046258126
0.5278644511
0.3548907297
0.2854382955
0.7426243565
0.4210549861
1.094175649
0.5175359802
0.6547706654
0.327369634
0.9681628254
0.5931856989
1.37714075
0.4317470858
0.2241317114
0.6772432535
0.5787270005
0.7658896052
1.229117476
0.8005780502
0.3303914299
0.6642409014
1.005221231
0.9326829808
0.4306234003
0.7130305588
0.4772762608
1.520680958
0.2909902171
0.8101567669
0.6727664914
0.4211747804
0.4455212926
1.060773741
0.4100151925
0.5506747735
0.5471328186
0.6671442187
0.4654444573
0.405684152
0.6749912558
0.530069773
0.5440628676
1.019768814
0.1958844135
0.6022644775
0.366851191
0.7135908153
0.5039177714
0.3046435012
0.4269394085
0.647014155
0.5081827482
0.666282805
0.7160578713
1.57626202
0.7720351898
0.2092247159
0.4476234253
0.9047727532
0.9826732427
0.8733037451
1.473864754
0.8771137494
1.036631154
0.6271717044
0.6282901609
0.3032243824
1.383012738
0.439681542
0.8928462736
0.4034561784
0.6446511059
0.9701383628
0
0.297681264
0.5912700899
1.108841828
0.2870043377
0.6318238721
0.4747009599
1.022933368
0.4895380692
0.4169757361
0.6042693014
0.7184314931
0.7001354099
0.6151468102
0.0769165773
0.4092609699
0.9067789426
0.2582820262
0.2719475423
1.078546933
0.1906417102
1.039307401
0.2577396284
0.5720287125
1.041226994
0.5499118646
0.5121070033
0.4834246887
0.4343131303
0.2969080485
0.9377267856
1.377664292
0.6514189339
0.6436504165
0.3088720039
0.3145285263
0.4376203117
0.6402969631
0.8103505321
0.3370922823
0.4010806316
0.3716755398
0.3341489712
0.7990366634
0.1691054993
0.3991233534
0.5914341058
0.9897541912
0.7473795044
0.840973805
0.1927116303
0.4029426599
0.4634897578
0.6206654051
0.6386776927
1.342473942
0.5822892451
0.7591323714
0.3583632489
0.410578332
0.5555954619
0.4369567488
0.6505722983
0.5685235842
0.8314992735
0.6315776847
1.222537346
0.57386955
0.2418865776
0.6391849303
0.5899346358
0.5026259855
0.5031652533
0.448372556
0.3893133079
0.7655587736
0.3603755821
0.2587086329
0.3110336749
0.5672838803
0.8269027039
0.8761655454
0.3204807609
0.8113767788
0.7329343268
1.232931216
0.51219911
1.407060281
0.2972717011
0.3193200616
1.097977945
0.5778655967
0.8071648305
0.6588981116
0.9786419089
0.1537164762
0.7961966237
0.9634519974
1.086867653
0.8345250894
0.6350191148
0.3020799625
0.2246493817
0.6517453414
0.3455239525
0.9115465695
0.7775176466
0.5775645823
0.1873951609
0.6534975512
0.7721337852
0.6012631804
0.4639286626
0.4569930789
0.7755560621
1.040886092
1.168587249
0.8407645995
0.6577906946
0.7695224927
0.693661346
0.8360145529
0.3760593093
0.5696582313
0.4658344538
0.7283343098
0.2552572231
0.4280130072
0.38444912
0.3997981602
1.130171798
0.7792468766
1.292681277
0.8353842257
0.8600797303
0.3382767649
0.5856087832
0.5702774514
0.2242549681
0.5347192447
1.089934697
1.122559356
0.501921505
1.091828045
0.7856369457
0.6745072114
0.6390799723
0.4026148683
0.4344815061
1.09501517
0.4101293557
0.4482272565
0.5729535783
0.5438937857
0.4079651321
0.2940804575
0.483581616
0.610242508
0.1930014938
0.9959989701
0.7298278615
0.6775681834
0.789953942
)
;

boundaryField
{
    flow
    {
        type            zeroGradient;
    }
    obstacle
    {
        type            calculated;
        value           nonuniform 0();
    }
    frontAndBack
    {
        type            empty;
    }
    procBoundary2to0
    {
        type            processor;
        value           nonuniform List<scalar> 
31
(
1.17972074
0.5550377119
0.6221980639
0.4054168571
0.6059001211
0.7527860657
0.7153728687
0.7244770306
0.7726673192
0.499433698
0.9863102144
0.4797290359
0.9861294044
0.5649628705
0.7341981117
0.5942149506
1.022683254
0.9190976533
0.376939114
0.4972549584
0.8865088717
0.4446012792
0.3467432386
0.3290856481
0.4815800237
0.4971914485
0.799471917
1.023987582
0.6656457741
0.4838310993
0.4838310993
)
;
    }
    procBoundary2to3
    {
        type            processor;
        value           nonuniform List<scalar> 
19
(
0.2066346058
1.616556791
0.4923496968
0.6080929304
0.7462781271
1.060279659
0.4686946038
0.438985337
0.4408735043
0.2299466175
1.013543507
0.7602601669
0.4391479876
0.4303146535
0.7069393824
0.5020817496
0.6670755479
0.2927947414
0.8090469247
)
;
    }
}


// ************************************************************************* //
