/*--------------------------------*- C++ -*----------------------------------*\
  =========                 |
  \\      /  F ield         | OpenFOAM: The Open Source CFD Toolbox
   \\    /   O peration     | Website:  https://openfoam.org
    \\  /    A nd           | Version:  7
     \\/     M anipulation  |
\*---------------------------------------------------------------------------*/
FoamFile
{
    version     2.0;
    format      ascii;
    class       volScalarField;
    location    "0.006";
    object      linearKEMean;
}
// * * * * * * * * * * * * * * * * * * * * * * * * * * * * * * * * * * * * * //

dimensions      [1 -1 -2 0 0 0 0];

internalField   nonuniform List<scalar> 
546
(
0.5857584649
0.5956301548
0.6019448891
0.5946204925
0.5935612053
0.5737423205
0.607961007
0.6113699984
0.6291992926
0.6310609277
0.6269551904
0.6329164428
0.6368618763
0.6468495986
0.6761124771
0.6647427824
0.6749809921
0.6979368418
0.7055997374
0.701226143
0.5854828046
0.5897819589
0.6132705667
0.6001881122
0.6029804128
0.6067918021
0.6125670498
0.6343180989
0.6128030179
0.6121121277
0.6268801093
0.6393307995
0.6508228535
0.6540123681
0.6623719871
0.6636039161
0.675804868
0.6823776177
0.6852943751
0.6906046107
0.5799078398
0.5945133835
0.5828701153
0.5722447395
0.5809237614
0.605717371
0.6286575374
0.6064439062
0.626212636
0.6156130781
0.6216011714
0.6316255393
0.6506989494
0.6456558835
0.6424533534
0.6533681922
0.6662225031
0.6959679568
0.7020136106
0.6858571965
0.582501444
0.5865655238
0.5681163849
0.5721382936
0.5754222439
0.5990902712
0.6179833133
0.604836198
0.6096253064
0.6304819377
0.6244071154
0.6297274852
0.6469226389
0.6690253349
0.6538100183
0.6782913209
0.686678225
0.7019241914
0.6892807907
0.7149551156
0.587609635
0.5873319194
0.5933803844
0.6018009231
0.5906223953
0.5945287235
0.6329658544
0.6448783453
0.6414824554
0.606768243
0.6311964289
0.6200344567
0.6263534596
0.6670521744
0.6680749286
0.64829292
0.65414312
0.6857062723
0.6952072906
0.6947542568
0.5681954003
0.5931304472
0.5917414708
0.6120465095
0.6020794009
0.5988040379
0.6182575613
0.613900532
0.6149962763
0.6258547969
0.6399598689
0.646606908
0.644076728
0.6457677003
0.6551310703
0.6549165779
0.6647639632
0.678239953
0.6799162026
0.6943259719
0.5673365864
0.5935709921
0.5931178173
0.5957461644
0.5967182922
0.6324656312
0.6330247183
0.618886813
0.622754278
0.6229748391
0.6084450062
0.646952782
0.649395264
0.6467229294
0.6592849283
0.6837241207
0.6691962462
0.6794171277
0.6767210166
0.694286511
0.5740930274
0.5942342474
0.5785374937
0.5803609809
0.5972904078
0.613224175
0.6143812593
0.619120043
0.6173450537
0.6225097827
0.6354191442
0.635262391
0.6387096832
0.659303418
0.6620320791
0.7001760305
0.6871934189
0.679121905
0.6796963167
0.6756893844
0.565200866
0.5696361596
0.5920137547
0.5783235582
0.6044777582
0.6067743386
0.5977232132
0.6137012175
0.6088959725
0.6281458409
0.6508312212
0.6578089654
0.6585880437
0.6530932036
0.6643372303
0.6793142008
0.6684698234
0.6540514633
0.6770283479
0.7005089589
0.5668033148
0.5880470495
0.6183167045
0.5904541562
0.6124029538
0.6335966847
0.6251074947
0.6204480203
0.6128618469
0.6333545248
0.6431192965
0.6340559109
0.6476229435
0.6668303339
0.6697510425
0.6521279603
0.6524569911
0.6624613985
0.6627074101
0.6699048033
0.5860094259
0.6060219303
0.5931009742
0.6075020833
0.611390921
0.6055245486
0.5900918145
0.6004143644
0.6097129922
0.6216545486
0.6171453006
0.6377473018
0.6619987828
0.6417756655
0.6489350486
0.6497444752
0.6630131986
0.6823719933
0.6638239517
0.6839811944
0.5537967833
0.5823112346
0.6095136004
0.5939861457
0.5904063809
0.6167276457
0.619305885
0.6151114141
0.6108099548
0.6289321564
0.6532805469
0.6365193561
0.6425713184
0.6550819886
0.6245152271
0.6406680436
0.6453157053
0.6697189603
0.6512443039
0.6753361692
0.5607038253
0.5896805977
0.6006112062
0.5956367295
0.5898335624
0.6157214737
0.6255268652
0.6337867276
0.6204363362
0.6630345106
0.6553756994
0.6532175135
0.668263715
0.6628281132
0.6565813284
0.6574039874
0.6725005588
0.6790717953
0.6815455162
0.7000366712
0.5802892304
0.5962729293
0.6108907709
0.6038814154
0.6108942209
0.59477353
0.5983723631
0.5925275701
0.615272595
0.6436036503
0.6341911057
0.6253492881
0.6555975329
0.6616510765
0.6622712649
0.6775644487
0.6927538631
0.6820695851
0.6817916636
0.6829672288
0.57536794
0.5996799563
0.6094130989
0.6142255722
0.6215473195
0.6102178378
0.603320505
0.6178365517
0.6227105428
0.6649466926
0.6678381244
0.6571508307
0.6534556713
0.6710983237
0.6586568361
0.6496581776
0.6677888149
0.6727345239
0.6737966134
0.6885786116
0.571121552
0.5999918161
0.6038653361
0.58404
0.6320486046
0.6258102187
0.6133855934
0.6352662459
0.6330623321
0.6436222693
0.6498363236
0.6586123604
0.6636745075
0.6546447728
0.6798889646
0.6440382686
0.6598121617
0.6754430148
0.675453898
0.6872462179
0.5865845689
0.6101223815
0.60298769
0.5887624059
0.6061994473
0.6267898507
0.6259324491
0.62694023
0.6291909202
0.6200014985
0.6407340997
0.6542541986
0.6653699773
0.6382286457
0.6259319822
0.6595688836
0.6427162294
0.6492384289
0.6941554441
0.6985354202
0.5817945431
0.6055410831
0.5957851009
0.588527104
0.6000271983
0.6074612453
0.5937379797
0.6174455493
0.6202493948
0.6299335921
0.644941647
0.62549418
0.6236218578
0.6193217837
0.6136164524
0.623709943
0.6128727202
0.6283751226
0.6280791125
0.6434564165
0.7047376858
0.7103550357
0.7040295259
0.7446620037
0.7278416241
0.7507746004
0.6882704744
0.6876469845
0.6804834125
0.7298621692
0.7175550485
0.7217077183
0.70410274
0.7161190638
0.7313988763
0.7465670724
0.6942859367
0.7158699844
0.7050584362
0.700952942
0.7301560624
0.7186903584
0.7119683679
0.7354273301
0.731847988
0.7319425435
0.6993811228
0.7002739752
0.7057390054
0.7242917042
0.7232578601
0.70844757
0.7055986079
0.7422263886
0.7461422542
0.7399472323
0.719705009
0.7028428642
0.7038002945
0.7037489614
0.7040697728
0.6941032669
0.7326640333
0.7540711042
0.7368821986
0.7363956604
0.6779729015
0.6744625001
0.665357467
0.7012949363
0.7065256027
0.7182871556
0.7095421375
0.7097609147
0.7305252251
0.7421244787
0.6855634813
0.6771749208
0.6795045525
0.7049500014
0.725205833
0.7480966912
0.6917936629
0.7085827071
0.7427765148
0.7515667749
0.6869370574
0.7071801435
0.7108698884
0.7159979078
0.7190308551
0.746083606
0.7311190747
0.7413835852
0.7456274367
0.7288368695
0.7003408676
0.6933371569
0.6880580921
0.7139684656
0.7141219895
0.7447301169
0.7505680944
0.7537452887
0.7640190848
0.7489492255
0.6917292653
0.6975125459
0.7207151035
0.7279366953
0.7302126777
0.7438299688
0.7338096105
0.7498605996
0.7485871371
0.7714540598
0.6660163438
0.6898690989
0.6940739079
0.7119697245
0.6979386262
0.7375181631
0.7281542138
0.7398142772
0.7432175148
0.7576691021
0.6839612342
0.6774618522
0.6995909086
0.7091191457
0.7150266456
0.688209257
0.7207944178
0.7162868983
0.7518939338
0.7661161926
0.6863901076
0.6940389344
0.6978174183
0.7067332443
0.6920023833
0.6976561038
0.7204854542
0.7406505384
0.7413282471
0.7649309161
0.702760474
0.7091245334
0.7192587601
0.7179695195
0.7231878895
0.7196054578
0.7229810288
0.7197323905
0.7231604723
0.7444241821
0.6772056735
0.6719906122
0.6906541255
0.6813841383
0.7090420225
0.7135655812
0.7143987664
0.7537023767
0.7366301005
0.7511807952
0.6694555613
0.6943478822
0.695647194
0.7093288831
0.7063893072
0.6982145186
0.7257579504
0.7479092099
0.7399654008
0.756145611
0.6884597387
0.6570901245
0.6705043107
0.6897230403
0.6916167518
0.6860570534
0.713513628
0.7163959068
0.7367940729
0.7330047172
0.6689188292
0.7029120067
0.6839016501
0.6941096443
0.6782732121
0.705225735
0.6950389942
0.6920518413
0.6927171748
0.6959943181
0.6454309208
0.6389465238
0.636910911
0.646331982
0.6525603797
0.6537327081
0.6578768446
0.6619512007
0.6508540588
0.6613150048
)
;

boundaryField
{
    flow
    {
        type            calculated;
        value           nonuniform List<scalar> 
48
(
0.5857584649
0.5854828046
0.5799078398
0.582501444
0.587609635
0.5681954003
0.5673365864
0.5740930274
0.565200866
0.5668033148
0.5860094259
0.5537967833
0.5607038253
0.5802892304
0.57536794
0.571121552
0.5865845689
0.5817945431
0.5817945431
0.6055410831
0.5957851009
0.588527104
0.6000271983
0.6074612453
0.5937379797
0.6174455493
0.6202493948
0.6299335921
0.644941647
0.62549418
0.6236218578
0.6193217837
0.6136164524
0.623709943
0.6128727202
0.6283751226
0.6280791125
0.6434564165
0.6454309208
0.6389465238
0.636910911
0.646331982
0.6525603797
0.6537327081
0.6578768446
0.6619512007
0.6508540588
0.6613150048
)
;
    }
    obstacle
    {
        type            calculated;
        value           nonuniform 0();
    }
    frontAndBack
    {
        type            empty;
    }
    procBoundary2to0
    {
        type            processor;
        value           nonuniform List<scalar> 
31
(
0.597912654
0.5960636375
0.5984614404
0.59071546
0.5986409326
0.606870224
0.6223044399
0.6310589952
0.6296920154
0.6397571624
0.6494823315
0.6280134684
0.6531930725
0.6513475269
0.6748997071
0.6480956648
0.6816070431
0.6904102727
0.7033523358
0.7000333693
0.6970849218
0.7002936943
0.7023782297
0.7537878941
0.7484999234
0.7364701934
0.6862733906
0.6916218269
0.7156567121
0.7185476193
0.7185476193
)
;
    }
    procBoundary2to3
    {
        type            processor;
        value           nonuniform List<scalar> 
19
(
0.7607004322
0.7615534804
0.7478820688
0.7290726498
0.7352950281
0.7485891551
0.7785398935
0.7385587103
0.7636124488
0.7576799208
0.7384252245
0.7477392643
0.7601620042
0.7518481261
0.7393659465
0.7737200038
0.7349917881
0.7079235773
0.6669184686
)
;
    }
}


// ************************************************************************* //
