/*--------------------------------*- C++ -*----------------------------------*\
  =========                 |
  \\      /  F ield         | OpenFOAM: The Open Source CFD Toolbox
   \\    /   O peration     | Website:  https://openfoam.org
    \\  /    A nd           | Version:  7
     \\/     M anipulation  |
\*---------------------------------------------------------------------------*/
FoamFile
{
    version     2.0;
    format      ascii;
    class       volScalarField;
    location    "0.006";
    object      p;
}
// * * * * * * * * * * * * * * * * * * * * * * * * * * * * * * * * * * * * * //

dimensions      [1 -1 -2 0 0 0 0];

internalField   nonuniform List<scalar> 
546
(
0.3130533251
0.4173328832
0.4101509178
0.4102802339
0.4125449684
0.4137404747
0.415256598
0.419060158
0.4238062079
0.4195870741
0.4226859463
0.4203655657
0.4166613585
0.4144305678
0.4121683784
0.4062157637
0.4039266928
0.4059935123
0.4100332293
0.4075320395
0.310622432
0.4236312746
0.4140370544
0.4158820586
0.4203998551
0.4229217092
0.4207812019
0.4125533462
0.4129689914
0.4157727687
0.4218187863
0.4169291631
0.4149358
0.4148210708
0.4134332899
0.4173814218
0.4180591635
0.4179464176
0.4164225436
0.4089415687
0.3085953514
0.4181670448
0.4122721833
0.4137511953
0.4101421588
0.4108486098
0.4091618696
0.410775433
0.4099030994
0.4143256552
0.4114201459
0.4091513882
0.4093068407
0.4158378873
0.4145249798
0.4107959465
0.4123258955
0.4121771489
0.4125504699
0.4218836355
0.3117404008
0.42141269
0.4102580171
0.4061987505
0.4073840096
0.4075785741
0.4160422615
0.4155020969
0.416238551
0.4121108161
0.4092324877
0.410026011
0.408419879
0.4055243902
0.4087733656
0.4102473842
0.4128515303
0.4165670568
0.4211241814
0.4205172969
0.3126678701
0.4180779566
0.4111651139
0.4133678103
0.4179255608
0.4149735363
0.409514481
0.4092496926
0.4087447148
0.408767414
0.4089059697
0.4111749143
0.4146990205
0.4167977506
0.4164236526
0.4214512531
0.4255927824
0.4271681668
0.4226000831
0.4229194593
0.3084633737
0.4255071708
0.4169865812
0.416249157
0.4184979612
0.421615566
0.41846781
0.4170732044
0.4172125457
0.4206368247
0.4230281032
0.412810809
0.4136505027
0.4172326559
0.421009636
0.419815723
0.4193374592
0.4145965269
0.4110836973
0.4128309381
0.3108273461
0.4169700249
0.4136565925
0.4144260316
0.4126276015
0.4119622885
0.4176503128
0.4239624886
0.4208409226
0.4198083943
0.4172738848
0.4236245557
0.421245209
0.416093846
0.4083162308
0.4080197037
0.4091736965
0.4095138082
0.4107561983
0.4124955113
0.3111829099
0.424383133
0.4188950361
0.4177510622
0.4208960828
0.4231878067
0.4221831821
0.4196508051
0.4207154245
0.422736991
0.4231908591
0.4166723458
0.4155671686
0.4182766885
0.4198527911
0.4181061963
0.42064015
0.4132794813
0.4112419472
0.4133720149
0.3079954198
0.4168667722
0.4108362241
0.4116517217
0.4131196314
0.4087657749
0.4131039613
0.4094500691
0.4091088809
0.4084478894
0.4031542788
0.4102359523
0.4147047899
0.4135835772
0.4117660821
0.4121652707
0.4133803195
0.4177784495
0.4160223947
0.4204667494
0.3117727882
0.4204436781
0.4121304201
0.4097133961
0.4127602855
0.4173300874
0.4130436737
0.410506028
0.4098580246
0.4124472605
0.4133933816
0.4057373113
0.4072073039
0.4100775728
0.4151787173
0.4156301637
0.41636264
0.422320699
0.4251819533
0.4213653049
0.3088478222
0.4219024322
0.4145164146
0.4130407888
0.4112104077
0.4111536906
0.415289939
0.4150147381
0.4132892737
0.4117401687
0.4142420853
0.4156151074
0.4172120033
0.4188322519
0.4223895377
0.4224063264
0.4173264309
0.4159359334
0.4157253501
0.4171969301
0.3103985473
0.4170747043
0.4129418014
0.4105956098
0.4136469121
0.4142298419
0.4099489306
0.4050965418
0.4088976248
0.4149438362
0.4163089314
0.4127069402
0.4136828502
0.4169164202
0.4128113674
0.411470232
0.4157819755
0.4150045882
0.4142020537
0.4122083555
0.3091242912
0.4166253821
0.4087571846
0.4140845943
0.4114833083
0.4096115939
0.4156071001
0.4180066793
0.4190416497
0.4185146175
0.4164645211
0.419499098
0.4141884248
0.4105648946
0.4150150908
0.4136062376
0.4132641648
0.4125008558
0.4123467767
0.4113507173
0.3124662478
0.4271034991
0.4175581592
0.4178676235
0.4167897288
0.4163810338
0.4147955297
0.4135614567
0.4084839537
0.4060341881
0.408749968
0.4086236724
0.4130941957
0.4125339896
0.4075909896
0.4100565127
0.4129042702
0.4103232897
0.410348254
0.4100461578
0.3102672235
0.4216338493
0.414460712
0.414293463
0.4162631535
0.4099485254
0.4100275346
0.4117756567
0.4126134698
0.4178491006
0.4148114092
0.4152596009
0.4151010459
0.4120356496
0.4115444351
0.4111121964
0.4108023626
0.4111504992
0.4114209264
0.408963423
0.3096116202
0.4191873355
0.4062394835
0.4117724947
0.4115915464
0.4146646401
0.4182034503
0.4158883083
0.411992986
0.4036785946
0.4074290352
0.4075368894
0.4057498876
0.4078922621
0.4077603947
0.4081742318
0.410158092
0.4011829724
0.3982093539
0.4011146422
0.3102282221
0.419258597
0.4122589638
0.4087263785
0.4080402769
0.4059232905
0.4037848223
0.4076218237
0.4112094251
0.4152670937
0.4124884075
0.4109011236
0.4075798499
0.4074413725
0.4056988196
0.40518036
0.4093706669
0.4176633864
0.4223470179
0.4168924599
0.3030570291
0.4108169345
0.4064362644
0.4049367119
0.4072440826
0.4059839896
0.4071765386
0.4047647172
0.4070210854
0.4020967919
0.4065263584
0.4058700722
0.4122599139
0.4113471593
0.4142713377
0.4166757215
0.4139600276
0.4092590759
0.4070277899
0.4093162386
0.4235574271
0.4303482
0.434995246
0.4387855465
0.4416233226
0.4464069525
0.4099654123
0.4137182191
0.4108897719
0.4134543189
0.4140043306
0.4251224133
0.4285120698
0.4321205437
0.4432378117
0.440605638
0.4105527252
0.4182025802
0.4200421798
0.4222000697
0.4215727553
0.4244984283
0.4238397813
0.4298064691
0.4248007393
0.4281549529
0.4166164172
0.4168907553
0.415055388
0.4200930154
0.4208313226
0.4208314665
0.4193765836
0.4154849391
0.4242331119
0.4225116715
0.4238157423
0.4230045636
0.4218864039
0.4151225532
0.4116852687
0.4039372093
0.413664665
0.4128736969
0.4154043616
0.4261976098
0.4180815561
0.4205046101
0.4197987652
0.4209214562
0.4208342963
0.4288506636
0.4250131903
0.4219020848
0.4180759477
0.4128861057
0.412876999
0.4191628279
0.4248099717
0.4225005545
0.4164600356
0.4167420962
0.4262345805
0.4257803432
0.4253171152
0.4240653773
0.4150752247
0.4108737654
0.4135572923
0.4129893897
0.4167508859
0.4156155628
0.4182130262
0.4186663954
0.4221634246
0.4264460419
0.4090880135
0.4118267715
0.4130631938
0.4183034821
0.4160545445
0.4204044792
0.4189569412
0.4222740344
0.4258605265
0.4218285312
0.4245058543
0.4222337399
0.4208913995
0.4214071812
0.4192414694
0.4188906588
0.4185957567
0.4200532051
0.4158720388
0.4148385171
0.4228245576
0.42207787
0.4259450095
0.4268265935
0.4177331381
0.4174862585
0.4168925035
0.4118534546
0.4139722806
0.4135252185
0.4176278871
0.4117018493
0.4095360584
0.4080107881
0.4159663701
0.4155345145
0.4145985935
0.414974452
0.4141455894
0.4190224391
0.408527487
0.4111333034
0.4131264967
0.4115397995
0.4048221361
0.4093196948
0.4117309186
0.4182158594
0.4228893864
0.4202073579
0.4143845483
0.417796595
0.4165557264
0.4166004298
0.4164199638
0.4179747763
0.4199877973
0.4138798412
0.4136786776
0.4158642122
0.4086964199
0.406095717
0.40982458
0.4139016062
0.4182225386
0.4158862342
0.4135470055
0.4103038618
0.4048047574
0.403392285
0.4101251917
0.4101229777
0.4098506491
0.4076159071
0.4041527143
0.4065231189
0.4055444622
0.4129473754
0.4142688761
0.4160164369
0.4047897958
0.4087009685
0.415675697
0.4172158351
0.4175900456
0.414857644
0.4151138789
0.4141163021
0.4125781597
0.4169354399
0.4144828161
0.4117854282
0.4117594568
0.4138924269
0.4133938481
0.4152478339
0.4203786358
0.4216197594
0.4187094584
0.4185994443
0.4100366068
0.4098529798
0.4029351649
0.4004739947
0.4028418164
0.405655853
0.4070864783
0.403779189
0.4054223056
0.4039342568
)
;

boundaryField
{
    flow
    {
        type            calculated;
        value           nonuniform List<scalar> 
48
(
0.3130533251
0.310622432
0.3085953514
0.3117404008
0.3126678701
0.3084633737
0.3108273461
0.3111829099
0.3079954198
0.3117727882
0.3088478222
0.3103985473
0.3091242912
0.3124662478
0.3102672235
0.3096116202
0.3102282221
0.3030570291
0.3030570291
0.4108169345
0.4064362644
0.4049367119
0.4072440826
0.4059839896
0.4071765386
0.4047647172
0.4070210854
0.4020967919
0.4065263584
0.4058700722
0.4122599139
0.4113471593
0.4142713377
0.4166757215
0.4139600276
0.4092590759
0.4070277899
0.4093162386
0.4100366068
0.4098529798
0.4029351649
0.4004739947
0.4028418164
0.405655853
0.4070864783
0.403779189
0.4054223056
0.4039342568
)
;
    }
    obstacle
    {
        type            calculated;
        value           nonuniform 0();
    }
    frontAndBack
    {
        type            empty;
    }
    procBoundary2to0
    {
        type            processor;
        value           nonuniform List<scalar> 
31
(
0.3118741979
0.4221281067
0.4178144411
0.4141094884
0.4133684897
0.4159467439
0.4164458249
0.4158252943
0.4154247358
0.4131385071
0.4119256014
0.4089632347
0.4079354316
0.4134191414
0.4157588596
0.4191180713
0.4249420056
0.419112008
0.4156920742
0.4119087212
0.435100586
0.4365658654
0.4395268278
0.4490065065
0.4432157797
0.4537336051
0.4176945873
0.4153343066
0.4211916998
0.4222674779
0.4222674779
)
;
    }
    procBoundary2to3
    {
        type            processor;
        value           nonuniform List<scalar> 
19
(
0.4539740047
0.4591261622
0.4309681923
0.4264516848
0.4337597633
0.4251874464
0.418531095
0.4385394396
0.4143725844
0.4135525911
0.4131081892
0.4249094657
0.4167596609
0.4155522663
0.4033806558
0.4131770567
0.4130549849
0.4207326068
0.4059666434
)
;
    }
}


// ************************************************************************* //
