/*--------------------------------*- C++ -*----------------------------------*\
  =========                 |
  \\      /  F ield         | OpenFOAM: The Open Source CFD Toolbox
   \\    /   O peration     | Website:  https://openfoam.org
    \\  /    A nd           | Version:  7
     \\/     M anipulation  |
\*---------------------------------------------------------------------------*/
FoamFile
{
    version     2.0;
    format      ascii;
    class       volScalarField;
    location    "0.006";
    object      rhoM;
}
// * * * * * * * * * * * * * * * * * * * * * * * * * * * * * * * * * * * * * //

dimensions      [1 -3 0 0 0 0 0];

internalField   nonuniform List<scalar> 
546
(
3.942947953e-06
1.937003643e-06
4.01188862e-06
4.911449774e-06
5.671463354e-06
3.942947953e-06
5.187212443e-06
6.01783293e-06
4.565080198e-06
5.326760018e-06
4.427198864e-06
6.364202506e-06
5.948892263e-06
2.628076555e-06
5.395700685e-06
6.224654932e-06
4.496139531e-06
4.01188862e-06
6.295261839e-06
5.809344689e-06
3.043386799e-06
5.53358202e-06
5.464641352e-06
4.565080198e-06
2.00594431e-06
5.948892263e-06
5.879951596e-06
4.565080198e-06
4.911449774e-06
6.708905843e-06
3.458697042e-06
5.049331109e-06
4.980390442e-06
3.942947953e-06
4.218710622e-06
6.01783293e-06
8.161658575e-06
3.596578377e-06
5.948892263e-06
5.53358202e-06
4.496139531e-06
4.980390442e-06
4.911449774e-06
7.608466997e-06
7.124216086e-06
3.942947953e-06
6.155714265e-06
3.874007286e-06
5.948892263e-06
5.53358202e-06
7.055275419e-06
3.52763771e-06
4.427198864e-06
4.634020865e-06
7.401644995e-06
7.53952633e-06
2.974446132e-06
6.433143174e-06
3.942947953e-06
7.53952633e-06
3.52763771e-06
3.043386799e-06
4.565080198e-06
4.496139531e-06
6.01783293e-06
4.980390442e-06
4.01188862e-06
5.948892263e-06
4.080829287e-06
2.00594431e-06
4.358258196e-06
6.224654932e-06
6.986334752e-06
4.080829287e-06
6.917394084e-06
5.464641352e-06
3.389756375e-06
5.948892263e-06
4.01188862e-06
3.043386799e-06
2.421254554e-06
7.954836573e-06
4.358258196e-06
7.401644995e-06
3.043386799e-06
7.055275419e-06
6.433143174e-06
1.937003643e-06
3.942947953e-06
2.421254554e-06
4.980390442e-06
3.942947953e-06
5.464641352e-06
4.496139531e-06
5.049331109e-06
4.842509107e-06
2.421254554e-06
3.942947953e-06
4.842509107e-06
3.043386799e-06
4.01188862e-06
3.458697042e-06
4.080829287e-06
3.596578377e-06
5.464641352e-06
4.01188862e-06
3.043386799e-06
3.596578377e-06
2.490195221e-06
5.602522687e-06
2.974446132e-06
4.149769955e-06
4.01188862e-06
3.52763771e-06
2.00594431e-06
3.043386799e-06
7.53952633e-06
3.942947953e-06
4.565080198e-06
5.395700685e-06
3.458697042e-06
6.01783293e-06
5.395700685e-06
4.496139531e-06
5.395700685e-06
5.326760018e-06
4.565080198e-06
4.911449774e-06
4.01188862e-06
8.02377724e-06
3.458697042e-06
5.53358202e-06
5.395700685e-06
5.948892263e-06
4.496139531e-06
7.470585662e-06
4.842509107e-06
3.52763771e-06
6.77951275e-06
1.037442489e-06
3.458697042e-06
4.218710622e-06
6.01783293e-06
3.458697042e-06
3.043386799e-06
4.080829287e-06
5.948892263e-06
3.942947953e-06
6.986334752e-06
2.974446132e-06
3.874007286e-06
6.571024508e-06
6.986334752e-06
5.118271776e-06
4.496139531e-06
1.937003643e-06
3.52763771e-06
5.464641352e-06
6.364202506e-06
3.52763771e-06
4.496139531e-06
3.942947953e-06
7.53952633e-06
4.427198864e-06
4.911449774e-06
5.602522687e-06
5.464641352e-06
5.53358202e-06
3.942947953e-06
5.464641352e-06
4.149769955e-06
4.427198864e-06
4.842509107e-06
1.452752732e-06
2.421254554e-06
5.049331109e-06
3.52763771e-06
8.02377724e-06
2.974446132e-06
5.53358202e-06
3.112327466e-06
3.942947953e-06
5.187212443e-06
5.049331109e-06
4.080829287e-06
5.464641352e-06
1.452752732e-06
4.565080198e-06
3.942947953e-06
6.502083841e-06
4.358258196e-06
4.496139531e-06
3.52763771e-06
6.639965176e-06
4.980390442e-06
4.565080198e-06
5.049331109e-06
4.080829287e-06
3.043386799e-06
3.043386799e-06
3.942947953e-06
5.464641352e-06
5.464641352e-06
2.905505464e-06
4.634020865e-06
7.954836573e-06
7.332704328e-06
6.639965176e-06
6.01783293e-06
5.049331109e-06
3.52763771e-06
6.01783293e-06
5.464641352e-06
2.490195221e-06
2.974446132e-06
4.358258196e-06
7.470585662e-06
3.665519044e-06
5.464641352e-06
4.01188862e-06
4.01188862e-06
4.565080198e-06
4.565080198e-06
4.565080198e-06
5.464641352e-06
6.086773598e-06
4.980390442e-06
2.974446132e-06
8.508028151e-06
7.746348332e-06
4.080829287e-06
4.358258196e-06
5.53358202e-06
3.942947953e-06
3.942947953e-06
5.948892263e-06
7.608466997e-06
2.559135888e-06
5.602522687e-06
5.879951596e-06
4.01188862e-06
5.464641352e-06
5.948892263e-06
5.948892263e-06
2.974446132e-06
7.470585662e-06
5.118271776e-06
4.980390442e-06
2.421254554e-06
6.848453417e-06
3.942947953e-06
4.634020865e-06
5.464641352e-06
4.565080198e-06
9.130160396e-06
7.332704328e-06
5.464641352e-06
5.395700685e-06
2.00594431e-06
4.911449774e-06
4.496139531e-06
3.043386799e-06
5.049331109e-06
5.049331109e-06
4.427198864e-06
2.421254554e-06
5.671463354e-06
2.490195221e-06
4.911449774e-06
4.496139531e-06
3.596578377e-06
7.401644995e-06
3.942947953e-06
9.685018214e-07
5.879951596e-06
2.905505464e-06
3.942947953e-06
4.01188862e-06
6.502083841e-06
3.458697042e-06
4.496139531e-06
4.496139531e-06
5.049331109e-06
2.905505464e-06
3.389756375e-06
5.53358202e-06
5.464641352e-06
2.559135888e-06
4.358258196e-06
5.464641352e-06
4.496139531e-06
5.53358202e-06
5.395700685e-06
2.905505464e-06
9.54547064e-06
3.596578377e-06
5.395700685e-06
5.948892263e-06
6.364202506e-06
2.628076555e-06
4.980390442e-06
4.911449774e-06
2.974446132e-06
6.571024508e-06
3.874007286e-06
4.149769955e-06
6.086773598e-06
2.559135888e-06
4.01188862e-06
4.980390442e-06
6.433143174e-06
5.049331109e-06
2.905505464e-06
3.52763771e-06
4.149769955e-06
4.427198864e-06
2.00594431e-06
6.848453417e-06
5.464641352e-06
4.080829287e-06
2.905505464e-06
4.565080198e-06
6.502083841e-06
3.043386799e-06
4.01188862e-06
2.974446132e-06
4.496139531e-06
4.427198864e-06
4.565080198e-06
6.364202506e-06
5.602522687e-06
4.080829287e-06
5.187212443e-06
3.112327466e-06
4.911449774e-06
2.974446132e-06
4.01188862e-06
4.427198864e-06
5.948892263e-06
4.565080198e-06
3.52763771e-06
4.01188862e-06
4.358258196e-06
5.53358202e-06
3.458697042e-06
3.874007286e-06
7.401644995e-06
3.52763771e-06
3.458697042e-06
6.155714265e-06
6.01783293e-06
2.00594431e-06
4.980390442e-06
4.427198864e-06
5.395700685e-06
4.980390442e-06
5.671463354e-06
3.52763771e-06
7.193156754e-06
5.811010928e-06
3.63956823e-06
6.755824535e-06
7.81739516e-06
4.738608631e-06
2.643445985e-06
4.216059536e-06
4.026115799e-06
4.053799817e-06
7.741179905e-06
2.551295614e-06
1.998463987e-06
2.587373891e-06
7.238522635e-06
7.290437293e-06
2.643445966e-06
2.736396573e-06
2.984994295e-06
3.984138943e-06
5.207548727e-06
7.157754165e-06
4.638800192e-06
5.749527436e-06
4.777006477e-06
4.228242898e-06
3.817917805e-06
5.9905861e-06
4.581269135e-06
3.564490058e-06
5.700246325e-06
3.472928749e-06
3.568440103e-06
5.103116739e-06
8.830858128e-06
2.114121464e-06
3.744734387e-06
5.177929508e-06
6.594327035e-06
3.984138917e-06
3.166615147e-06
4.180958123e-06
4.0680561e-06
5.677896352e-06
5.790469349e-06
6.342364303e-06
4.846022808e-06
2.218603618e-06
6.177543995e-06
8.107599579e-06
3.659312746e-06
5.031959041e-06
5.709160344e-06
5.174747783e-06
7.310663759e-06
3.134852936e-06
3.671551023e-06
2.218603618e-06
4.442898838e-06
3.425168311e-06
4.081867159e-06
5.173223451e-06
5.067288093e-06
5.174747818e-06
5.862610513e-06
4.373559937e-06
2.570262594e-06
4.807568425e-06
2.013057913e-06
5.521729093e-06
4.997119172e-06
4.465194137e-06
3.568440103e-06
5.246378826e-06
5.21159681e-06
5.977315654e-06
5.286891933e-06
6.434663154e-06
3.887745502e-06
3.494829185e-06
3.026328797e-06
6.732253755e-06
6.779520464e-06
4.0968196e-06
4.704865321e-06
4.155584379e-06
5.800944489e-06
2.218603618e-06
5.414835214e-06
8.457587589e-06
8.796718228e-06
2.551295597e-06
3.211080338e-06
3.808564188e-06
4.704865386e-06
5.686681616e-06
6.46136379e-06
4.289775436e-06
4.233671244e-06
2.026899908e-06
5.067262391e-06
4.1103259e-06
3.068824128e-06
7.833752772e-06
2.605798387e-06
3.645218621e-06
8.885259539e-06
4.73385249e-06
5.900803441e-06
7.409307255e-06
5.559959955e-06
3.614193218e-06
4.781056477e-06
4.168450643e-06
4.704865354e-06
2.041462944e-06
3.084315113e-06
6.952456108e-06
5.067237323e-06
4.962758428e-06
4.644707911e-06
4.535826328e-06
4.139184227e-06
4.025188556e-06
7.454945954e-06
7.946120064e-06
6.314997008e-06
5.916870199e-06
4.512083987e-06
5.521729093e-06
5.137405576e-06
5.739988391e-06
7.136880207e-06
3.522040011e-06
4.77700651e-06
6.780071608e-06
3.598367607e-06
5.843154258e-06
2.637396384e-06
3.703811779e-06
4.504421542e-06
5.102591229e-06
4.567672097e-06
5.174747783e-06
3.184670963e-06
3.134852892e-06
5.506442104e-06
5.472793184e-06
4.998052174e-06
5.032419334e-06
5.559959993e-06
3.755457638e-06
4.210312325e-06
4.743230257e-06
5.139455687e-06
7.80080308e-06
4.258786933e-06
4.216059536e-06
7.358708014e-06
3.494829185e-06
2.956185592e-06
8.787416705e-06
4.70992835e-06
4.168450643e-06
2.171208057e-06
8.966851529e-06
6.975416309e-06
3.698266581e-06
3.540147611e-06
5.941377979e-06
5.559959955e-06
4.180958094e-06
3.63956823e-06
6.181044964e-06
5.428020218e-06
3.280169953e-06
4.331970293e-06
6.434663154e-06
4.442898838e-06
8.387926716e-06
5.77038951e-06
2.551295632e-06
4.49654397e-06
3.090522461e-06
5.211596774e-06
5.759340096e-06
2.643445985e-06
3.106757727e-06
)
;

boundaryField
{
    flow
    {
        type            zeroGradient;
    }
    obstacle
    {
        type            calculated;
        value           nonuniform 0();
    }
    frontAndBack
    {
        type            empty;
    }
    procBoundary2to0
    {
        type            processor;
        value           nonuniform List<scalar> 
31
(
2.974446132e-06
5.118271776e-06
5.53358202e-06
4.358258196e-06
5.602522687e-06
3.043386799e-06
4.496139531e-06
4.980390442e-06
4.980390442e-06
4.01188862e-06
5.464641352e-06
2.974446132e-06
4.842509107e-06
2.697017223e-06
6.639965176e-06
5.395700685e-06
2.143825645e-06
3.52763771e-06
5.53358202e-06
4.565080198e-06
3.63956823e-06
2.227487409e-06
6.297200846e-06
4.738608664e-06
2.716629376e-06
1.035585909e-06
2.568211236e-06
2.725192268e-06
6.475211968e-06
5.669356168e-06
5.669356168e-06
)
;
    }
    procBoundary2to3
    {
        type            processor;
        value           nonuniform List<scalar> 
19
(
4.768550219e-06
4.321218212e-06
4.39547446e-06
5.960239096e-06
4.246961997e-06
2.607941132e-06
4.84280647e-06
6.407571103e-06
5.065575119e-06
3.352297983e-06
3.725373774e-06
4.543986892e-06
4.246961997e-06
3.873886206e-06
6.704596062e-06
3.79962999e-06
3.79962999e-06
2.682197348e-06
6.481827318e-06
)
;
    }
}


// ************************************************************************* //
