/*--------------------------------*- C++ -*----------------------------------*\
  =========                 |
  \\      /  F ield         | OpenFOAM: The Open Source CFD Toolbox
   \\    /   O peration     | Website:  https://openfoam.org
    \\  /    A nd           | Version:  7
     \\/     M anipulation  |
\*---------------------------------------------------------------------------*/
FoamFile
{
    version     2.0;
    format      ascii;
    class       volVectorField;
    location    "0.225/particle";
    object      momentum;
}
// * * * * * * * * * * * * * * * * * * * * * * * * * * * * * * * * * * * * * //

dimensions      [1 -2 -1 0 0 0 0];

internalField   nonuniform List<vector> 
800
(
(-0.000100287852648645 1.96722333905974e-05 1.09715681042993e-05)
(4.00345301113433e-05 -4.0524649520499e-06 -2.18482057823442e-06)
(1.53981002311366e-05 -3.94583555971853e-05 -1.2918511534043e-05)
(-3.02060705341779e-05 2.44874574611266e-05 -1.49700345540646e-05)
(3.46950789607107e-05 3.80314975436276e-05 4.35509216366614e-05)
(-1.96551047439581e-05 -3.20279709557236e-05 -6.8348446393145e-06)
(-4.1541694086842e-05 5.71344133851771e-06 -7.71999365057277e-06)
(5.05038651249318e-05 3.21455096708558e-05 -3.82168870967109e-05)
(3.2536190544106e-05 -1.07053053113298e-05 -3.69199429600024e-05)
(5.05678279353159e-05 1.71421970782498e-05 5.91401898512536e-05)
(1.62968486551064e-05 -2.6983228858519e-05 1.10808348469561e-05)
(3.36586944062106e-05 3.31605987567852e-05 -6.98049379134346e-05)
(-2.260310152321e-05 -2.60066803441651e-05 1.43172565809835e-06)
(5.25340955360237e-05 -1.38744536376212e-05 -1.87643285210616e-05)
(-3.61590127430111e-07 -4.88225133209455e-05 -1.00120927265358e-05)
(-1.08489299129772e-05 -7.43351633362533e-06 -2.68233787671115e-05)
(2.08324582068705e-05 2.90094286912904e-05 1.22597537095954e-05)
(1.8345635808318e-05 9.95782744472497e-06 -2.55946800915245e-06)
(2.4597053096172e-06 -1.09349513608401e-05 -5.63388271557277e-06)
(3.89760899737194e-05 -1.75217267073772e-05 -2.58295584933714e-05)
(2.31561830581052e-05 -1.08655853933074e-06 1.5672266279159e-05)
(-3.68597672346909e-05 1.52616045005215e-05 4.22762092904164e-05)
(1.90029448042593e-05 -1.83605730469819e-05 7.62223748895085e-06)
(1.95369825472441e-05 -2.93460310456199e-05 2.49233328498773e-05)
(1.64789187636916e-05 -2.25029158068459e-05 -2.94521488871358e-05)
(2.95395810732776e-05 -2.26602905125369e-05 5.67244652471252e-05)
(9.71835542928568e-05 2.92495136587143e-05 -1.80996403956529e-06)
(6.22946079252772e-05 -1.36029344371096e-05 -8.43634900265079e-06)
(-9.33569295005744e-06 9.82125443467311e-06 3.37520080219784e-05)
(2.33600632610782e-05 2.04219329680287e-05 -2.93551653193584e-05)
(3.04165898951064e-05 2.82493810851295e-05 4.72395875661589e-05)
(4.84370093727096e-05 3.06971544400135e-06 -2.18880645775927e-05)
(4.45825527619717e-05 1.79542282272176e-05 -1.84001021013071e-05)
(9.47363209290162e-06 6.10599250463423e-05 -3.36829406800726e-05)
(3.53179533022242e-05 -2.27833621520441e-05 -1.57611533883349e-06)
(2.24304171743837e-05 1.61081464147588e-05 -5.21176356890464e-05)
(5.64345997099245e-05 -1.5605728775914e-05 5.58662909228594e-05)
(4.22660515038411e-05 -2.22908643184325e-05 -4.78138974269156e-05)
(6.11281863942775e-05 -2.15223287018787e-06 -3.96473898691518e-05)
(1.25401875028093e-05 2.47941393470447e-05 2.26757967176973e-05)
(5.26617355240221e-05 -3.70770151842124e-07 6.85544521193582e-05)
(4.02776272409946e-06 2.15332647816256e-05 -2.60937602465161e-05)
(0.00010828092368087 -2.82616824317323e-05 -2.20734042415005e-06)
(5.07255737345089e-05 -3.25978642737953e-05 -2.71421038356703e-06)
(6.58126797734518e-05 -1.09264138541801e-05 2.02836886565866e-05)
(4.06728720775689e-05 9.97991864330601e-06 4.52346614366772e-05)
(5.40978703570461e-05 3.57299841187086e-05 -4.38342584610304e-05)
(8.26135670029017e-05 -2.72194708690843e-05 -2.46523950696727e-05)
(7.12120326083285e-05 -1.00623473340549e-05 4.1829507724389e-06)
(9.68834332267656e-05 1.21355725600828e-05 3.09429045180941e-05)
(8.71558677075636e-05 3.49550115132395e-05 5.50397388122117e-05)
(0.000115926295582556 5.92790814417376e-06 -4.70810735828624e-05)
(0.000130121074562041 -1.53474188103572e-05 -6.44549981566135e-05)
(7.76456447952828e-05 1.10621792119725e-05 -1.20349589900157e-05)
(9.2175472219732e-05 3.12944853000585e-05 -5.43616448312343e-06)
(6.34852654960701e-05 -2.79609448547291e-05 -2.70718126227257e-06)
(6.15186818667235e-05 3.02093939420399e-05 -9.65468093351051e-06)
(0.000140919020550292 3.16013677075468e-05 2.20472323927132e-06)
(0.000108524630691438 -1.73191319683759e-05 4.82623121009232e-05)
(6.08073484005667e-05 4.21464608877358e-06 -1.69503861796831e-05)
(8.89211829108077e-05 -7.61664521115601e-06 1.03298821785245e-05)
(0.000137942929414122 -2.9543552845746e-05 -8.82213474964698e-06)
(0.000164783917904405 4.02358313430486e-06 3.39512267716831e-06)
(0.000153223209508552 -6.17026219572456e-05 -3.5057816621173e-05)
(8.47401860441947e-05 2.84610746304889e-05 8.08113285647204e-05)
(0.000141582015901567 2.62435644128516e-05 -1.35993917474113e-05)
(0.000126646826511143 -5.44928757590507e-07 -6.13330949288721e-05)
(6.72688042247812e-05 2.73888128869898e-05 2.74998232385373e-06)
(0.000118526352220013 -2.46067665195068e-05 -3.30663372741063e-05)
(0.000144811961314997 5.80183210189194e-05 7.47481329996256e-07)
(0.000140032487955464 1.86728110256226e-05 8.94582220586746e-06)
(0.000159547686691138 -7.80624742727915e-06 1.86092067410108e-05)
(0.000130424307369555 -1.21046584529187e-05 -4.8084056277672e-06)
(0.000176806601772524 2.58907088202225e-05 -6.701127553776e-05)
(0.000137027216186563 -1.93748000801321e-05 -3.42524711544423e-05)
(0.000153824641462762 2.70518580906539e-05 -4.78198423060444e-05)
(0.000155859391119084 -3.75513904885605e-05 1.40304415339591e-05)
(0.000175842810085254 3.91238580217816e-05 -1.42101018463418e-05)
(0.000210250601588343 3.96457956522849e-05 1.73943446657741e-05)
(0.000120931133642762 1.68500509221907e-05 3.87683593027901e-05)
(0.000137251398058126 -1.79401729432511e-05 1.71710252456429e-05)
(0.000173236085598658 3.78017118805776e-05 -7.01689282607755e-05)
(0.000171869140761175 6.16901753448564e-06 4.22594006246184e-05)
(9.26897565018144e-05 9.01413886014089e-06 3.25602151625563e-05)
(0.000145051263945844 -1.43406741038908e-05 3.26354553178975e-07)
(0.000178170704927971 2.34414346005059e-05 -3.68664229568229e-05)
(0.000182088704284805 2.93237036323492e-05 -6.06012761139693e-06)
(0.000234696050292544 -5.32325647427429e-05 -5.22649389757753e-06)
(0.000204556219104922 2.97954155109884e-05 -2.00780493340496e-05)
(0.000196354937060791 -1.43002090960493e-05 -8.76398800119916e-06)
(0.000210322169611657 -1.89746132618837e-05 2.34674184019676e-05)
(0.000209653313637705 3.26229473073086e-05 1.59934393962484e-05)
(0.000138009657685207 -1.6174774957723e-05 3.48752427464151e-05)
(0.000202181679985678 3.85805507411739e-05 -1.54320693850665e-05)
(0.000190205802587355 -1.22484657035709e-05 2.01248276062875e-05)
(0.000158459349308898 1.39541056673947e-05 -3.03265417449979e-05)
(0.000183330899703019 -2.02664154215003e-05 -1.3534459292866e-05)
(0.000242807742025727 5.69575457162761e-05 2.14149272175832e-05)
(0.00023854732529454 1.92698059426463e-05 -3.94688607985688e-06)
(0.000189295700404675 -1.90674764496519e-05 5.23270139622647e-06)
(0.000166031373592757 -7.57816949263753e-06 -8.89455869852796e-06)
(0.000217675813426341 -4.07144791366189e-05 3.78108211704766e-05)
(0.000212858756648543 -3.49721250444211e-05 4.25631036891587e-05)
(0.000203213376484063 -3.10444223903703e-05 7.35842452427593e-06)
(0.000267023367791131 -5.09658626611553e-05 -2.0777007707637e-05)
(0.000223825021730961 -4.17034207049813e-06 1.56730578590143e-05)
(0.000229431072549168 -3.98136758088595e-05 -8.66642323482553e-06)
(0.000200993104224214 2.63673724114448e-05 -1.28219675401552e-05)
(0.000230595197601222 -1.69805918645485e-06 1.19212609172409e-05)
(0.000202768370862045 -3.75158896736154e-06 1.42079141261555e-05)
(0.000192605139963819 -3.0279748113691e-05 -9.62348303062032e-06)
(0.000241217982516421 1.64200577874255e-05 -2.50281991656195e-06)
(0.000283600247706842 1.16667832894898e-05 -7.4125578705762e-06)
(0.000214317269958222 1.18115015168111e-05 -2.06405098508329e-05)
(0.000245188450987221 -8.66343834481766e-06 3.37175085987797e-06)
(0.000279848476628741 2.12388436813455e-05 -5.57368845737842e-05)
(0.000206734308241458 1.35503883424639e-05 9.26733247303748e-06)
(0.000253216388061403 4.25718686638372e-06 2.1345242478637e-05)
(0.000244074072429268 1.50504635844822e-05 1.53411742153589e-05)
(0.00024877578704225 7.05141405314249e-06 5.62727452058906e-05)
(0.000247266621616743 -1.28489138632573e-05 8.29859566438391e-06)
(0.000253637547240808 -2.11232658924222e-05 2.97023606702485e-05)
(0.000269475187878864 -1.03366777357043e-05 2.56742672426271e-05)
(0.000258865737167386 -1.61259888347485e-05 1.28231537033598e-05)
(0.00027799475237903 1.7271366152675e-05 1.80833642813514e-05)
(0.000247552584669887 1.36407862252023e-05 2.63662411412163e-05)
(0.000265751669564024 -4.41293193630957e-05 3.44230764191304e-05)
(0.000343939092713453 -1.47498433837206e-05 2.79917062652945e-05)
(0.000280478166532317 6.61483536058084e-06 -8.13855886443648e-06)
(0.00025323526275556 -4.68749068687506e-05 1.43553598858392e-05)
(0.000271340571540014 -2.47317322628876e-05 2.70325045116215e-05)
(0.000249533205388801 3.4747797687654e-05 -3.23032584487948e-05)
(0.000297824922025396 -1.17447077233539e-05 -7.72634129057633e-06)
(0.000259813259405625 -1.79629942554385e-05 -8.9669583751361e-06)
(0.000304411931759397 2.53831829391533e-05 -2.87036741206649e-05)
(0.00027091884740203 1.96352163882626e-05 -3.10411022982613e-05)
(0.000289085016750038 -2.29281338073995e-05 5.87785202581445e-06)
(0.000287789740334076 -1.39611470774545e-05 3.02844157038909e-06)
(0.000258722060783242 -1.21261857445983e-05 -2.38625146553284e-05)
(0.000289735839466823 7.4144364242097e-06 -5.08624018009496e-06)
(0.000311987889757949 2.9690692379925e-07 -2.06918603691769e-05)
(0.000251049842313554 3.70550906420555e-06 -2.29759421273333e-05)
(0.000312354935617968 -1.65177690450896e-05 3.23764226276229e-06)
(0.000303491252571064 2.26274039263517e-05 1.42292176760158e-05)
(0.000303449168318367 4.28149580003964e-05 1.24585612187594e-05)
(0.00028090064263735 7.78284117714913e-07 7.89079386920183e-06)
(0.000332014490453025 3.5894398899889e-05 -1.30175460644512e-06)
(0.000300505793632384 1.45719006855982e-05 -1.29009620454141e-05)
(0.000290897868511287 -1.78648484802198e-05 -2.98714999838771e-05)
(0.000305074734600446 7.72366397322331e-06 -2.24438130147095e-05)
(0.000297490244385879 -3.47103611018155e-05 -3.67107571434373e-05)
(0.000293757777719235 -5.34594441808834e-05 1.29198553969333e-05)
(0.000305170010240265 -4.97234464954657e-05 -1.01063334485367e-05)
(0.000314117020391387 1.14675341338738e-05 -1.74631447565025e-05)
(0.00030333878585132 -6.81813536299044e-06 2.94241458423964e-05)
(0.000301002337477044 -5.73187432642506e-05 -6.33218883341796e-07)
(0.000304585579703953 8.86410501663367e-06 3.35550261307305e-05)
(0.000341710931587433 -3.79144915975045e-07 -6.58761049971981e-06)
(0.000303587307166527 -1.07032559262618e-05 -6.36686862852877e-06)
(0.000316551910392715 -8.95871078414231e-06 -1.06607689562785e-05)
(0.000352499901964408 -1.02736276376938e-05 3.73224446480286e-05)
(0.000324553493169622 3.72880694497022e-05 -4.33746473905723e-06)
(0.000274409510426874 1.06633916798146e-05 4.84115755353456e-06)
(0.000303623478113556 3.68489311706706e-06 1.13902688675993e-05)
(0.00032954291140524 -9.95069688204711e-06 9.00613414586939e-06)
(0.000337240152588146 6.30360494938235e-06 1.816210400632e-05)
(0.000299513738075898 -3.3499202773358e-05 1.63019650976142e-05)
(0.000333085811858794 6.27083662962863e-06 1.43299107041511e-05)
(0.000350047378755046 -8.99281298048078e-06 2.12804363687533e-05)
(0.00031053214204768 -2.2510012437772e-05 -2.48771233207073e-05)
(0.000345497207446086 -2.62113516482219e-05 7.49258806460006e-06)
(0.000296886508626131 -3.48881834397731e-05 9.09662973799104e-06)
(0.000336773414292529 -9.99055172614096e-06 8.66775533953347e-06)
(0.000375637944975533 1.96208371353197e-05 -1.64406629532557e-05)
(0.000309367897677299 3.79761613365401e-05 8.85615942623351e-06)
(0.000310032013582075 1.26287956798565e-05 -2.23337469817322e-06)
(0.000380755234176479 -2.93030986355506e-05 -3.14445353458597e-05)
(0.00037708601202275 -2.08031679577876e-06 6.45540134317585e-05)
(0.000364030944844077 1.28446960783983e-05 -2.81384875272712e-06)
(0.000400012635699024 -1.42377059744569e-05 4.70661400199419e-05)
(0.000383048658612052 -5.8730430109453e-06 -2.72571975191113e-05)
(0.000332664580539984 -3.58724968510293e-07 -1.06954827808746e-06)
(0.000361946356931253 -5.13154186126132e-06 -5.02882419090842e-05)
(0.000330950418539513 -2.50073388031973e-05 -1.6023648500063e-05)
(0.000380002222083298 -1.66732373746554e-05 -4.10351851331494e-05)
(0.000396893695792744 -8.69988767044363e-06 1.61276236560102e-05)
(0.000356388864783706 -4.34664081189418e-05 6.14931727368785e-06)
(0.000333967342831975 -2.64595407458869e-05 -4.79505859711019e-06)
(0.000390106742909784 9.59009620315129e-06 -3.71998387128507e-05)
(0.000346868427659615 2.24831614583312e-05 -8.79563876101868e-06)
(0.000346142003733019 1.81679753277073e-05 1.8782695753451e-05)
(0.000344256660521357 1.45228746207992e-05 -6.70197002941286e-05)
(0.000339952541666116 3.46800935061334e-05 -1.66889952359357e-05)
(0.000368510872937549 1.72122091388913e-05 -4.34314028835448e-06)
(0.000355078728925122 8.60331621492373e-06 2.00395403939167e-05)
(0.00036053908593198 9.58784678874777e-06 -2.48699703736581e-06)
(0.000340187724692489 -1.59463299553602e-05 -5.63563574322872e-06)
(0.000332767400648086 1.13104579357145e-05 -4.82645155821434e-05)
(0.000357579424086225 1.88632067719496e-05 -3.49455116042638e-05)
(0.000297945351654019 -1.21380490435946e-05 2.31267533468624e-05)
(0.000380928327583005 1.03636010424816e-05 6.6710807940015e-07)
(0.000344035583546111 -5.44916313281084e-06 6.61606181435835e-06)
(0.000383915921994329 2.60545984658695e-05 3.54524682052779e-05)
(0.000372887518812041 8.4763166478068e-06 1.32067823342316e-06)
(0.000355359078515262 -8.07089139095311e-06 -9.82084582776217e-06)
(0.000388610823292822 3.2060423556859e-05 1.37620132832602e-05)
(0.000424225153191981 1.86028650545944e-05 2.72303055192e-05)
(0.000350642650758803 1.78009584564519e-06 4.87560694021109e-06)
(0.000393405669859129 5.04378286270061e-05 1.30731304227279e-05)
(0.000396670114201026 1.8764300601691e-05 -2.56207958436491e-05)
(0.000320513485960099 -1.1779932296126e-05 -5.87193983079345e-06)
(0.000411455016013303 -2.00663439762689e-05 8.64899948533545e-06)
(0.000357301894598644 -1.56866538628729e-05 2.30841157393813e-05)
(0.000404002669215828 -2.37720768039952e-05 -2.09749456078274e-05)
(0.00037386841438492 -4.48683141083746e-05 -2.03954755051015e-05)
(0.000394743119448823 -1.58405567346519e-05 -1.0840693419244e-05)
(0.000367963125295226 2.85096879295604e-05 -1.86701730338618e-05)
(0.000394804454944887 2.49201455856347e-05 -2.25122502919787e-05)
(0.000416040493340907 -4.03344130339975e-05 -1.10471114775584e-06)
(0.000413347040779611 8.80530204369201e-06 -2.01386567014983e-05)
(0.000384622466255724 7.25152382401228e-06 3.8340547273077e-05)
(0.000376665823771827 -1.44041387798685e-05 -1.45964611960739e-05)
(0.000370895242948254 2.06508891572384e-05 -5.48730388248153e-06)
(0.000347117664557694 7.35200002278329e-07 3.02760759598911e-06)
(0.000344125720673753 1.56171786428963e-05 -3.08572451932518e-05)
(0.000405799801598814 -3.50289300635119e-06 -4.6494943908358e-06)
(0.000372902733563643 1.37279009492918e-05 -1.64822888276206e-05)
(0.000359245301926877 4.93509248417792e-06 2.08986361521847e-05)
(0.000366070306543557 -3.78140175129067e-05 -3.38337370014395e-05)
(0.000425148701795496 -1.38531028021877e-05 -3.46018341131123e-05)
(0.00038159245715437 -5.76546945784371e-06 -5.05848751652955e-06)
(0.00041892613925018 2.91793157396682e-05 5.40564134797195e-07)
(0.00038973550700988 4.98637669172394e-06 2.72756045453595e-05)
(0.000381153916503823 -3.35198209470302e-06 -2.60334420741579e-05)
(0.000402750736083218 1.00993487150002e-05 -2.14272984086034e-06)
(0.000410951599413028 1.03112719098024e-05 1.89271708567315e-05)
(0.00038984625736567 2.03789110388661e-05 -2.22658766062659e-06)
(0.000386493911059834 9.55110048636624e-06 -1.02713813656046e-05)
(0.000377937594066339 -4.40130485139709e-05 1.03627806790054e-05)
(0.000352398332389556 -1.59196651672358e-05 3.33051434972406e-05)
(0.000376607241200699 -1.25218176803175e-05 6.97140928622466e-06)
(0.000411915278457736 -1.56735007857527e-05 -8.49388011724712e-06)
(0.000411499743226199 3.02439523327167e-05 2.09770190595967e-05)
(0.000349397896683528 5.1040235443365e-06 8.02711502715829e-06)
(0.000360508326868711 -6.33463091883601e-06 -2.25766275496331e-05)
(0.000378841939274009 1.09489688751194e-06 8.14506409589923e-06)
(0.000380700813439185 -6.70237899739968e-06 -2.8226668109975e-06)
(0.000404183451075858 3.85949084250372e-05 -6.46718512755192e-06)
(0.000359486088454441 1.24223857379839e-05 -1.81181981882373e-05)
(0.000409243124386695 2.02608208542958e-06 1.71743671464427e-05)
(0.000397012530077114 -2.6608840125095e-05 3.32473086899594e-05)
(0.000406153003640187 9.45115168420454e-06 -1.35347759725639e-05)
(0.000425250632593414 -1.68635855296654e-05 2.14882308545618e-05)
(0.000372317732087935 -5.51589682580883e-06 -2.64031829205864e-05)
(0.000394317728141921 2.47143733008885e-05 2.13834077000531e-05)
(0.000405423619017879 -4.19675503487369e-05 -3.42549417937098e-06)
(0.000386537562080328 -8.45188654873525e-06 -1.65067521975298e-05)
(0.00042180818497798 2.26427537088618e-05 5.41907952004982e-07)
(0.000438180412190671 1.76557185962031e-05 2.03469493393057e-05)
(0.000401500742960495 1.29692133818458e-05 -2.98335176033515e-05)
(0.000367688967128258 -1.46470183227677e-05 -9.92429472744616e-06)
(0.000434625297048753 2.40922601775272e-05 -1.54698055782337e-05)
(0.000395762470398396 -3.01190927349836e-06 -4.62446341248263e-06)
(0.000451426322028568 7.65707388405998e-06 -2.94732695223713e-05)
(0.000340087527756704 2.59360876719911e-05 3.45949932765069e-06)
(0.000382893595784476 1.73160224470515e-05 1.74417011329315e-05)
(0.000402824945895775 3.87964668655176e-06 -1.4982550640992e-05)
(0.000371418253122348 2.14006387532024e-05 -1.10337067404343e-05)
(0.00039131555208434 1.65561507910049e-05 7.25682588923642e-06)
(0.000403325013910968 -1.36555872923587e-05 2.25595776910123e-05)
(0.000391153649502781 2.11745346236048e-05 3.08935986701801e-05)
(0.000432007474082483 1.69608114088332e-05 -1.97804187975568e-05)
(0.000407436390780194 1.47966735090651e-05 1.97078775663e-05)
(0.000408998971356738 2.34287866755937e-05 -1.4403230826529e-05)
(0.00033617450237682 1.01521045724905e-06 5.25154760460408e-06)
(0.00038899223573686 1.41605326080839e-05 -2.36099588597475e-06)
(0.000395069151401363 -3.83371451142045e-06 -2.24822907451613e-05)
(0.000436813988870755 1.80268823114523e-05 9.70214114924757e-06)
(0.000337780254266319 -1.11247916590924e-05 1.10061662421857e-05)
(0.000398206068730719 -1.49685355645557e-05 3.97724764977911e-06)
(0.000381726395188564 -1.19080753781944e-06 -3.69046882378228e-05)
(0.000406367515693378 -3.58694182847821e-06 1.23832645893769e-06)
(0.000421686586231983 -1.10405680330159e-05 -9.69450926986873e-06)
(0.000398415481341192 1.28077758873779e-05 1.03837845531584e-05)
(0.000443741687236016 -2.45691041327601e-05 6.59109275038363e-06)
(0.000424409353111807 4.02544786768801e-05 3.3784588942299e-05)
(0.000428611477830362 1.64590353345328e-05 1.10015533326514e-05)
(0.000429414828517576 -2.46366781445286e-05 -1.79165575007134e-05)
(0.000455182005991953 1.86924867117576e-05 2.34445382596831e-05)
(0.000451571681263477 2.42754245707286e-06 2.1992641271738e-05)
(0.000383472035494255 -6.411986239036e-07 3.27369854024498e-05)
(0.000408397443863529 1.55304348196707e-05 1.70878523868385e-05)
(0.000450423312963292 4.07646185306356e-06 8.93892847483762e-06)
(0.000416121387662812 1.18696178353076e-05 8.63203502448882e-07)
(0.00041796939859897 1.70089741108532e-05 -1.19585437365928e-05)
(0.000427515321571029 -3.14528580571634e-06 -5.00352379086106e-06)
(0.000403169884905805 2.38272719883586e-05 -1.20813149991374e-05)
(0.000420546509326385 3.39247018334558e-06 1.09646526272212e-06)
(0.000402698470929458 -1.53192573608092e-05 -2.41587341734191e-05)
(0.000428709222279092 -1.75987907769104e-05 4.45164336660806e-06)
(0.000437269415053806 5.06975592630742e-07 1.24820944896732e-05)
(0.000439967899811737 -3.23647283018609e-06 -1.22592347936146e-05)
(0.000428346283939049 4.13754491830959e-06 1.15867684901447e-05)
(0.000403965805591078 1.70547970059062e-06 2.91965392350255e-05)
(0.000393956280538815 -8.1284492404288e-06 -1.01950350680057e-05)
(0.00038521411253142 -3.62556752292053e-06 -2.39573867148283e-07)
(0.000382003381616221 -2.32666370522081e-05 1.81129249724639e-05)
(0.000429522815742088 -4.88507274013283e-06 -2.66187995433176e-05)
(0.000375030110249285 -2.89995880499152e-06 -3.54647398265824e-06)
(0.000438758622545288 -1.65433713980277e-05 -2.91425931108277e-06)
(0.000405373120541283 -5.86614009993389e-07 1.43898551241892e-05)
(0.000390646574088255 -1.02679979612991e-05 8.30104180448831e-06)
(0.000382279013973913 -7.58934944207908e-06 -5.3200528247575e-06)
(0.000362387576684009 -5.78670069827742e-06 1.2371910722991e-05)
(0.000407767374775064 -1.02479697337799e-06 1.6517243872963e-05)
(0.000326764368168065 1.91393814335318e-05 -3.55282107173691e-06)
(0.000367171412644751 2.20682754748029e-08 1.2442289674819e-05)
(0.000373564693379132 -3.00360003872886e-05 1.25197121636946e-05)
(0.000419565717516902 4.33537397453702e-06 2.396318206394e-05)
(0.000417064140934965 2.50909070302629e-06 7.26977322395207e-06)
(0.00037573774997398 -1.05839247974935e-05 9.88401590975005e-06)
(0.000400075150486131 -8.86685635218955e-06 3.64198782327185e-05)
(0.000400667676862907 -6.09890779172283e-06 -2.22363848584216e-06)
(0.00043710028695694 2.16359889620381e-06 3.71852248038183e-06)
(0.000414946624479465 1.05608298041369e-05 9.05988709316113e-06)
(0.000417858485021809 -2.63428263699691e-05 -9.12057133374764e-06)
(0.000402242966630253 -1.72046996088255e-06 2.22700984787553e-05)
(0.000395643729658281 2.32912342122613e-07 -5.05582308754754e-06)
(0.000383063526945604 1.0762284767555e-05 -1.12137787629392e-05)
(0.000397842172553472 9.30078069504744e-06 -3.4396033572153e-06)
(0.00039662574629637 1.31610651685389e-05 -1.2630898639078e-05)
(0.000392788910988157 2.69527413695433e-07 2.15456575442185e-05)
(0.000394069248463085 -1.78678730781689e-06 6.009747865865e-05)
(0.000424179560382847 5.4853807136529e-06 -1.21603581356633e-05)
(0.000413757147185189 -9.61141416257308e-07 2.86767125530227e-05)
(0.00040886132021433 3.66440250523026e-05 -1.05475713207055e-05)
(0.000385239395778362 -6.22640881832721e-06 -1.23696915799658e-05)
(0.000422255068212078 1.00037815535423e-06 1.41348598460522e-06)
(0.00036404866327412 -1.3173737130545e-05 -2.25824052772854e-05)
(0.000413746513134448 -6.05449010251393e-06 1.70032428161401e-05)
(0.000390152011874436 8.40789265360259e-06 -1.41475973396284e-06)
(0.00035109017786812 1.39512052250816e-05 -7.60331401935325e-06)
(0.000362001228498726 1.12491303668772e-05 2.59399720041902e-05)
(0.000371852443855355 1.44818253524224e-05 -2.51575489985825e-05)
(0.000350817004826214 -2.1339908512255e-06 1.85378932933113e-05)
(0.000385815723684567 -1.30144779499547e-05 -2.12429480694693e-05)
(0.000378039907086318 -1.07701761456494e-06 -3.11971180954112e-06)
(0.000401443261459863 -2.72342481068142e-05 -1.30106554050805e-05)
(0.000383005792563472 -2.39007103139237e-05 1.35717531747741e-05)
(0.000428016760125158 -2.49643756551664e-05 8.57876683773206e-06)
(0.00044795738286697 -8.92756035684299e-06 8.25835443215409e-06)
(0.000383080973771898 -4.1674256311528e-06 -2.73368327441956e-05)
(0.000377588318083748 1.27950407071212e-05 -2.74144533073811e-05)
(0.000366349124101133 3.30447076270098e-05 1.43136339574193e-05)
(0.000393783922484775 -2.18552995339086e-05 -1.11818234716131e-05)
(0.000444277621005628 -3.16012361969177e-05 1.10869647234334e-05)
(0.000415972793276446 -5.51747087521181e-06 3.40732790804859e-05)
(0.000467230683136658 -1.57276952523985e-05 -5.6790942999703e-06)
(0.000429677476360355 -1.78786137742896e-05 -2.21189878158692e-06)
(0.000412332967731423 4.244769232721e-07 -3.54091521392425e-05)
(0.00042019558608038 -2.90522447420694e-05 1.67326856934681e-05)
(0.000364515925108176 -2.96878159607862e-06 -2.3950366475789e-05)
(0.000392662610545175 -1.22056689978439e-05 2.59808705544842e-06)
(0.000383822081042363 4.0308429812123e-05 2.90043861650633e-05)
(0.000407519301175499 4.46880058741484e-06 2.69528993181172e-05)
(0.000361511578869869 -3.90814968147862e-06 -1.89757991905448e-05)
(0.000404953304181291 3.00761226231621e-06 1.20033162456269e-06)
(0.000373010295884327 -2.65334273921473e-06 2.1148339841566e-05)
(0.000383484796513917 -6.54989405693937e-06 -2.44954116298698e-05)
(0.000385801509084939 -9.65095929198936e-07 -2.17414185444841e-06)
(0.000401587756452968 1.05635165433709e-05 8.5406354100964e-06)
(0.000382476272964559 4.62999265211115e-06 -2.68626391626477e-05)
(0.000414506604644153 1.51902819496244e-05 -2.59348321170443e-06)
(0.000407283930415622 1.63563447969883e-06 -2.78344756816629e-05)
(0.000396385293137944 1.64170329292978e-05 -8.2188350203954e-06)
(0.000360889107497649 -3.56532060263245e-05 -2.40650583750684e-05)
(0.000401225417079245 1.37004218620843e-06 -9.17763061231596e-06)
(0.000340378873029376 1.3080421468999e-07 3.08215235088913e-06)
(0.000396259739951677 2.59716537654488e-05 -1.90068106811274e-05)
(0.000408385362412296 -1.69351979934152e-05 -1.71564525004822e-05)
(0.000381855434885538 -1.08410257044297e-05 4.17989833100392e-06)
(0.00038126146441782 3.1637034793779e-05 -1.73767043372598e-05)
(0.000334333132680974 2.100806730476e-05 -1.70407857509478e-05)
(0.000401465987830137 1.79224175384171e-06 4.64237691761385e-07)
(0.000459397993575561 -3.93952455769954e-06 1.3327100578869e-05)
(0.000382067690033556 1.07504882269566e-05 7.79976230840066e-06)
(0.000438948939725511 -1.22761479579795e-05 4.04334953798555e-06)
(0.00038589158384463 1.62379713885328e-06 -1.72494436073076e-05)
(0.000416960954197998 2.15667215233712e-05 9.26578486294204e-06)
(0.000368808548821996 3.54837072448149e-06 1.42928164640283e-05)
(0.000423731928020512 1.35616413887134e-05 -2.53661645707283e-06)
(0.000409278735875512 2.83372646129395e-05 1.41460989197802e-05)
(0.000422114533708827 -7.44491900691776e-06 1.69308699222833e-05)
(0.000378033047117859 9.3758628977618e-07 5.13128077252865e-06)
(0.000387761996255516 4.04168961948831e-06 6.92890157112511e-06)
(0.000391741790544382 -1.44699126347179e-05 -9.79592815182652e-06)
(0.000384051945859528 8.21085180026482e-06 -3.98123414320563e-06)
(0.00041308378260961 8.69487774022995e-06 8.77836731057893e-06)
(0.000450909727520224 -7.8531551387686e-06 3.73492168368417e-06)
(0.000393547106415352 -1.80220189139608e-05 -8.08334129330156e-06)
(0.000415036590103094 5.01251714157959e-07 4.06561797916532e-05)
(0.000406155025022841 1.15408747214146e-05 2.0701921555727e-06)
(0.000406636860948144 -2.75464943823191e-05 6.85154812080612e-06)
(0.000412950399803365 -1.19224426237971e-05 5.84353538339596e-06)
(0.000397299498290697 -2.63070746616777e-05 -9.84036866056502e-06)
(0.000411854199497348 1.97744740179346e-05 -5.94898923990257e-06)
(0.000362720811468501 -1.3973978420449e-05 -6.79738360790355e-06)
(0.000413568050869139 -2.19297515962155e-05 -2.72535508900653e-06)
(0.000409743268928127 -2.73815931133856e-06 -4.02702908969443e-06)
(0.000415248726609448 7.8158343169741e-06 -1.30442311676763e-05)
(0.000387249802518685 3.96822192653838e-05 1.28161853663847e-05)
(0.000394123934153282 -1.58279716716677e-05 7.12169300263104e-06)
(0.00039375845404641 1.85111356135476e-06 8.09124487703531e-06)
(0.000378585376050083 -1.80553727660597e-06 8.99545871116687e-07)
(0.000402070662904711 -4.88368785315698e-06 2.65851074483353e-06)
(0.000384414524536563 -5.55677941005712e-06 -8.82737850260707e-06)
(0.000390636492861583 1.3810243302245e-06 -1.51105957025836e-05)
(0.000404930909060312 3.8658850539699e-06 -2.12175521576268e-06)
(0.000384774938119247 -1.22194000997946e-05 9.0514098659141e-06)
(0.000409671312062957 3.31915994521487e-05 -1.69817623208925e-05)
(0.000369656472740724 -1.23228498303338e-05 -1.78626281834368e-05)
(0.000400366152953994 3.68313641702861e-06 -8.51551994449119e-06)
(0.000410440338582096 -1.06771567441641e-05 -2.3205021551035e-06)
(0.00042170034726595 -1.66708553073636e-05 3.65018114930694e-05)
(0.000397874211054977 2.00406829523018e-05 1.65024875899869e-05)
(0.000399066650876799 1.70707702931036e-05 2.99066289443872e-06)
(0.000381994643101802 -2.52667694808977e-05 1.23759460656412e-05)
(0.000419795793876418 6.98990097724718e-06 2.47912161166264e-05)
(0.000392835659030796 1.54171108060664e-05 -1.72047198205995e-05)
(0.000398989838292068 4.29329970554891e-06 -7.09541892327739e-06)
(0.000370926153293845 1.05145880815749e-05 -2.4543926088613e-05)
(0.000373683851410734 9.76394284721897e-06 -5.12641113851985e-06)
(0.000410706657424647 -3.04761713373858e-05 -2.49616601074655e-05)
(0.000420998968806564 5.26282532442497e-06 3.15889005358505e-05)
(0.000348202382154324 6.59453603395488e-06 1.43323930352019e-05)
(0.000438486040406197 -1.75894324551976e-06 7.07872190949725e-06)
(0.000414872692782805 -2.74052544821638e-05 -9.12268590149419e-06)
(0.000433698815484583 2.19567845875856e-05 5.03555447681542e-06)
(0.000393765352035616 2.87822021738737e-05 -2.15070039156584e-05)
(0.000379584970618114 1.23691964838028e-05 1.66163704197461e-05)
(0.000381885253903591 -2.37550786139692e-05 8.29435057286803e-06)
(0.000344224657767269 -1.11681126139177e-06 -1.20851656879793e-05)
(0.000381043690301667 2.4655186200729e-06 -2.61000039593916e-06)
(0.000400857993423239 7.59094697779441e-06 1.89830158700895e-05)
(0.000400894937723907 -1.88934072678512e-05 -5.85931832265151e-06)