/*--------------------------------*- C++ -*----------------------------------*\
  =========                 |
  \\      /  F ield         | OpenFOAM: The Open Source CFD Toolbox
   \\    /   O peration     | Website:  https://openfoam.org
    \\  /    A nd           | Version:  7
     \\/     M anipulation  |
\*---------------------------------------------------------------------------*/
FoamFile
{
    version     2.0;
    format      ascii;
    class       Cloud<dsmcParcel>;
    location    "0.006/lagrangian/dsmc";
    object      positions;
}
// * * * * * * * * * * * * * * * * * * * * * * * * * * * * * * * * * * * * * //

94898
(
(0.453328 0.273336 0.273336 0) 1 1 2
(0.347099 0.326451 0 0.326451) 1 0 2
(0.718683 0.140659 0.140659 0) 1 0 1
(0.169817 0.415091 0.415091 0) 14 13 1
(0.848533 0.0757335 0 0.0757335) 6 5 2
(0.229952 0.385024 0.385024 0) 20 20 2
(0.47884 0.26058 0.26058 0) 13 13 2
(0.149363 0.425319 0.425319 0) 33 33 2
(0.0747991 0.4626 0.4626 0) 5 5 2
(0.0011856 0.499407 0 0.499407) 0 1000 1
(0.059396 0.470302 0 0.470302) 9 9 1
(0.111432 0.444284 0.444284 0) 2 2 2
(0.902335 0.0488323 0.0488323 0) 1 1 2
(0.490849 0.254575 0 0.254575) 8 8 1
(0.677152 0.161424 0.161424 0) 3 2 1
(0.765232 0.117384 0 0.117384) 17 16 2
(0.043942 0.478029 0.478029 0) 19 18 1
(0.31067 0.344665 0 0.344665) 18 18 1
(0.648034 0.175983 0 0.175983) 17 17 1
(0.426043 0.286978 0.286978 0) 10 9 1
(0.983014 0.00849316 0.00849316 0) 5 4 1
(0.0551926 0.472404 0 0.472404) 3 2 2
(0.815111 0.0924446 0 0.0924446) 40 39 2
(0.403761 0.298119 0.298119 0) 15 14 1
(0.359126 0.320437 0 0.320437) 6 5 2
(0.318339 0.340831 0.340831 0) 12 12 2
(0.930798 0.0346012 0.0346012 0) 20 19 1
(0.219503 0.390249 0 0.390249) 0 1000 1
(0.649882 0.175059 0 0.175059) 12 12 1
(0.295027 0.352487 0.352487 0) 1 0 1
(0.411374 0.294313 0.294313 0) 34 33 1
(0.468743 0.265628 0 0.265628) 16 16 1
(0.138712 0.430644 0 0.430644) 8 7 2
(0.0697456 0.465127 0.465127 0) 23 23 2
(0.8106 0.0947001 0 0.0947001) 14 13 2
(0.33304 0.33348 0 0.33348) 26 25 2
(0.489259 0.255371 0.255371 0) 7 7 2
(0.492066 0.253967 0 0.253967) 68 67 2
(0.132772 0.433614 0.433614 0) 13 12 1
(0.200783 0.399608 0 0.399608) 9 9 1
(0.497533 0.251233 0 0.251233) 40 39 2
(0.162659 0.418671 0 0.418671) 0 1000 1
(0.321473 0.339263 0.339263 0) 13 12 1
(0.461184 0.269408 0 0.269408) 14 13 2
(0.496171 0.251915 0 0.251915) 42 42 1
(0.42386 0.28807 0 0.28807) 12 12 1
(0.495314 0.252343 0 0.252343) 9 8 2
(0.451575 0.274213 0.274213 0) 36 36 2
(0.271148 0.364426 0.364426 0) 23 22 1
(0.479191 0.260404 0.260404 0) 9 9 2
(0.571413 0.214294 0 0.214294) 26 25 2
(0.283391 0.358304 0 0.358304) 5 4 2
(0.568933 0.215533 0 0.215533) 22 22 1
(0.678897 0.160551 0 0.160551) 53 53 1
(0.835996 0.0820018 0 0.0820018) 6 6 1
(0.598641 0.200679 0 0.200679) 12 12 1
(0.763385 0.118308 0.118308 0) 20 19 1
(0.166852 0.416574 0.416574 0) 2 2 2
(0.358509 0.320746 0.320746 0) 7 7 2
(0.985469 0.00726527 0.00726527 0) 14 13 1
(0.105777 0.447111 0 0.447111) 10 10 1
(0.748429 0.125786 0 0.125786) 14 13 2
(0.225105 0.387447 0 0.387447) 27 26 2
(0.126599 0.4367 0.4367 0) 1 1 2
(0.312459 0.34377 0.34377 0) 34 33 1
(0.350531 0.324734 0 0.324734) 25 24 2
(0.313857 0.343072 0 0.343072) 10 9 2
(0.759747 0.120127 0.120127 0) 5 4 1
(0.567244 0.216378 0 0.216378) 7 7 1
(0.0187273 0.490636 0 0.490636) 7 6 2
(0.30729 0.346355 0.346355 0) 18 18 2
(0.17785 0.411075 0.411075 0) 5 4 1
(0.220021 0.389989 0.389989 0) 14 13 1
(0.69029 0.154855 0 0.154855) 9 8 2
(0.99219 0.00390483 0.00390483 0) 10 9 1
(0.782806 0.108597 0.108597 0) 1 0 1
(0.224096 0.387952 0 0.387952) 10 10 1
(0.00625443 0.496873 0.496873 0) 18 18 2
(0.210824 0.394588 0.394588 0) 7 6 1
(0.706321 0.14684 0.14684 0) 25 24 1
(0.356024 0.321988 0.321988 0) 3 2 1
(0.372519 0.31374 0 0.31374) 3 2 2
(0.621713 0.189143 0.189143 0) 4 3 1
(0.243459 0.378271 0.378271 0) 6 5 1
(0.487009 0.256496 0.256496 0) 35 35 2
(0.769489 0.115255 0 0.115255) 3 2 2
(0.200762 0.399619 0.399619 0) 3 2 1
(0.529962 0.235019 0 0.235019) 12 11 2
(0.57655 0.211725 0 0.211725) 1 1 1
(0.564035 0.217982 0.217982 0) 22 21 1
(0.525813 0.237094 0 0.237094) 21 21 1
(0.411511 0.294244 0.294244 0) 6 5 1
(0.824928 0.0875361 0.0875361 0) 4 4 2
(0.840767 0.0796166 0 0.0796166) 12 12 1
(0.981199 0.00940043 0.00940043 0) 20 20 2
(0.582221 0.208889 0 0.208889) 11 10 2
(0.904813 0.0475936 0.0475936 0) 3 2 1
(0.0147146 0.492643 0.492643 0) 2 1 1
(0.0467099 0.476645 0.476645 0) 18 18 2
(0.569004 0.215498 0.215498 0) 10 9 1
(0.673385 0.163308 0.163308 0) 2 2 2
(0.589057 0.205471 0 0.205471) 23 23 1
(0.600478 0.199761 0.199761 0) 19 18 1
(0.487844 0.256078 0 0.256078) 19 19 1
(0.843009 0.0784956 0 0.0784956) 11 10 2
(0.122504 0.438748 0 0.438748) 10 10 1
(0.936361 0.0318195 0.0318195 0) 50 49 1
(0.6033 0.19835 0.19835 0) 16 16 2
(0.343189 0.328406 0 0.328406) 8 7 2
(0.784449 0.107776 0.107776 0) 14 13 1
(0.264564 0.367718 0.367718 0) 12 11 1
(0.32248 0.33876 0.33876 0) 14 14 2
(0.0696334 0.465183 0 0.465183) 11 11 1
(0.761343 0.119329 0.119329 0) 26 26 2
(0.102395 0.448803 0.448803 0) 12 12 2
(0.626136 0.186932 0 0.186932) 22 22 1
(0.246826 0.376587 0 0.376587) 1 1 1
(0.449637 0.275181 0.275181 0) 24 23 1
(0.389846 0.305077 0 0.305077) 6 6 1
(0.346691 0.326654 0.326654 0) 22 21 1
(0.734631 0.132684 0.132684 0) 13 12 1
(0.91963 0.0401852 0 0.0401852) 2 2 1
(0.623538 0.188231 0 0.188231) 6 5 2
(0.85592 0.07204 0.07204 0) 9 8 1
(0.815865 0.0920673 0 0.0920673) 44 44 1
(0.0323985 0.483801 0 0.483801) 9 9 1
(0.852394 0.0738029 0.0738029 0) 6 5 1
(0.927164 0.0364181 0 0.0364181) 4 3 2
(0.891044 0.0544779 0.0544779 0) 1 0 1
(0.117616 0.441192 0.441192 0) 14 14 2
(0.925693 0.0371537 0 0.0371537) 27 27 1
(0.138877 0.430561 0 0.430561) 0 0 1
(0.816067 0.0919666 0 0.0919666) 22 22 1
(0.38795 0.306025 0 0.306025) 18 18 1
(0.158502 0.420749 0.420749 0) 23 23 2
(0.313082 0.343459 0 0.343459) 2 1 2
(0.0771527 0.461424 0 0.461424) 2 2 1
(0.278408 0.360796 0.360796 0) 15 14 1
(0.104736 0.447632 0.447632 0) 29 29 2
(0.506369 0.246815 0.246815 0) 10 9 1
(0.471742 0.264129 0 0.264129) 43 43 1
(0.557637 0.221182 0 0.221182) 22 22 1
(0.65069 0.174655 0 0.174655) 2 1 2
(0.385877 0.307062 0 0.307062) 2 2 1
(0.543567 0.228217 0.228217 0) 2 2 2
(0.262821 0.368589 0 0.368589) 5 5 1
(0.290673 0.354664 0.354664 0) 44 43 1
(0.641717 0.179142 0 0.179142) 10 9 2
(0.696483 0.151759 0 0.151759) 15 15 1
(0.15149 0.424255 0.424255 0) 23 23 2
(0.325948 0.337026 0.337026 0) 0 1000 2
(0.850987 0.0745065 0.0745065 0) 17 17 2
(0.880782 0.059609 0.059609 0) 29 28 1
(0.732602 0.133699 0.133699 0) 31 31 2
(0.907434 0.0462832 0 0.0462832) 43 42 2
(0.988968 0.00551578 0 0.00551578) 15 15 1
(0.443091 0.278454 0.278454 0) 23 22 1
(0.183925 0.408038 0 0.408038) 39 38 2
(0.626549 0.186725 0 0.186725) 10 9 2
(0.413457 0.293271 0.293271 0) 10 10 2
(0.917922 0.0410392 0 0.0410392) 9 8 2
(0.0024075 0.498796 0 0.498796) 18 18 1
(0.751359 0.12432 0.12432 0) 47 47 2
(0.306076 0.346962 0 0.346962) 21 20 2
(0.855657 0.0721715 0.0721715 0) 17 17 2
(0.953112 0.0234438 0 0.0234438) 4 4 1
(0.816408 0.0917958 0.0917958 0) 15 14 1
(0.870159 0.0649205 0 0.0649205) 1 0 2
(0.99498 0.00251021 0.00251021 0) 35 34 1
(0.845923 0.0770387 0.0770387 0) 25 24 1
(0.561109 0.219445 0.219445 0) 31 30 1
(0.806371 0.0968145 0 0.0968145) 40 40 1
(0.241987 0.379007 0.379007 0) 29 29 2
(0.995138 0.00243084 0.00243084 0) 3 3 2
(0.129747 0.435127 0 0.435127) 3 3 1
(0.80955 0.0952248 0 0.0952248) 7 6 2
(0.603875 0.198062 0.198062 0) 9 9 2
(0.587438 0.206281 0.206281 0) 10 10 2
(0.618908 0.190546 0 0.190546) 13 12 2
(0.0890243 0.455488 0.455488 0) 14 13 1
(0.186288 0.406856 0.406856 0) 28 28 2
(0.210913 0.394544 0.394544 0) 22 22 2
(0.287081 0.35646 0.35646 0) 12 11 1
(0.915865 0.0420675 0.0420675 0) 16 16 2
(0.130926 0.434537 0 0.434537) 7 7 1
(0.774691 0.112655 0.112655 0) 4 4 2
(0.731037 0.134481 0 0.134481) 3 2 2
(0.120363 0.439818 0 0.439818) 19 18 2
(0.86764 0.0661802 0 0.0661802) 45 44 2
(0.445625 0.277187 0 0.277187) 18 18 1
(0.732375 0.133813 0 0.133813) 24 24 1
(0.139909 0.430045 0.430045 0) 26 25 1
(0.946447 0.0267765 0.0267765 0) 49 49 2
(0.099617 0.450191 0.450191 0) 1 0 1
(0.768366 0.115817 0.115817 0) 7 6 1
(0.941353 0.0293233 0 0.0293233) 58 57 2
(0.143995 0.428003 0 0.428003) 18 18 1
(0.595906 0.202047 0 0.202047) 9 8 2
(0.0207366 0.489632 0 0.489632) 1 1 1
(0.618247 0.190876 0 0.190876) 7 7 1
(0.845793 0.0771035 0.0771035 0) 0 1000 2
(0.972361 0.0138197 0.0138197 0) 8 8 2
(0.248483 0.375758 0.375758 0) 2 2 2
(0.271776 0.364112 0.364112 0) 3 3 2
(0.479333 0.260333 0 0.260333) 16 16 1
(0.871286 0.064357 0.064357 0) 4 4 2
(0.836171 0.0819144 0.0819144 0) 12 12 2
(0.702088 0.148956 0.148956 0) 2 2 2
(0.262939 0.368531 0 0.368531) 2 1 2
(0.496904 0.251548 0 0.251548) 29 28 2
(0.298561 0.35072 0 0.35072) 48 47 2
(0.479329 0.260335 0 0.260335) 2 1 2
(0.900465 0.0497673 0 0.0497673) 27 26 2
(0.73336 0.13332 0.13332 0) 2 1 1
(0.566917 0.216541 0.216541 0) 1 0 1
(0.360533 0.319734 0.319734 0) 1 0 1
(0.338505 0.330747 0.330747 0) 17 17 2
(0.964727 0.0176367 0 0.0176367) 35 35 1
(0.454159 0.272921 0.272921 0) 29 28 1
(0.5186 0.2407 0.2407 0) 26 26 2
(0.907631 0.0461846 0.0461846 0) 2 2 2
(0.268342 0.365829 0 0.365829) 26 26 1
(0.200219 0.39989 0.39989 0) 13 13 2
(0.130979 0.434511 0 0.434511) 8 8 1
(0.743477 0.128261 0.128261 0) 10 10 2
(0.513998 0.243001 0.243001 0) 17 16 1
(0.270658 0.364671 0 0.364671) 31 30 2
(0.798064 0.100968 0.100968 0) 40 39 1
(0.836297 0.0818515 0.0818515 0) 36 35 1
(0.954467 0.0227664 0 0.0227664) 6 6 1
(0.973208 0.0133962 0.0133962 0) 7 7 2
(0.888856 0.0555718 0 0.0555718) 46 45 2
(0.573962 0.213019 0.213019 0) 14 14 2
(0.724065 0.137968 0 0.137968) 1 0 2
(0.950648 0.0246762 0.0246762 0) 31 30 1
(0.393201 0.303399 0.303399 0) 34 33 1
(0.472297 0.263851 0 0.263851) 13 13 1
(0.445136 0.277432 0 0.277432) 34 33 2
(0.71716 0.14142 0.14142 0) 3 2 1
(0.391461 0.304269 0.304269 0) 3 3 2
(0.540614 0.229693 0 0.229693) 15 15 1
(0.203048 0.398476 0.398476 0) 8 8 2
(0.824005 0.0879973 0 0.0879973) 31 30 2
(0.885196 0.057402 0 0.057402) 29 28 2
(0.5198 0.2401 0 0.2401) 18 18 1
(0.477718 0.261141 0.261141 0) 3 3 2
(0.00355689 0.498222 0.498222 0) 27 26 1
(0.62749 0.186255 0 0.186255) 14 13 2
(0.644033 0.177984 0.177984 0) 16 15 1
(0.893401 0.0532994 0 0.0532994) 23 23 1
(0.592898 0.203551 0.203551 0) 16 16 2
(0.996643 0.00167828 0.00167828 0) 18 18 2
(0.829301 0.0853493 0 0.0853493) 21 21 1
(0.544335 0.227833 0.227833 0) 5 4 1
(0.102808 0.448596 0 0.448596) 5 4 2
(0.192622 0.403689 0.403689 0) 16 15 1
(0.779979 0.11001 0 0.11001) 40 40 1
(0.114743 0.442628 0.442628 0) 36 35 1
(0.285814 0.357093 0 0.357093) 50 49 2
(0.517239 0.241381 0.241381 0) 6 6 2
(0.566566 0.216717 0 0.216717) 13 13 1
(0.296196 0.351902 0 0.351902) 14 14 1
(0.305147 0.347426 0 0.347426) 13 13 1
(0.948233 0.0258834 0 0.0258834) 8 8 1
(0.960379 0.0198107 0 0.0198107) 25 24 2
(0.787492 0.106254 0.106254 0) 17 17 2
(0.976376 0.011812 0.011812 0) 9 9 2
(0.325098 0.337451 0 0.337451) 11 10 2
(0.663993 0.168003 0 0.168003) 13 13 1
(0.030178 0.484911 0.484911 0) 4 4 2
(0.680985 0.159507 0.159507 0) 5 4 1
(0.325471 0.337265 0 0.337265) 5 5 1
(0.820083 0.0899587 0.0899587 0) 10 10 2
(0.30456 0.34772 0.34772 0) 23 23 2
(0.28708 0.35646 0.35646 0) 9 9 2
(0.501194 0.249403 0.249403 0) 27 26 1
(0.651019 0.17449 0.17449 0) 15 14 1
(0.0640818 0.467959 0 0.467959) 0 0 1
(0.768376 0.115812 0 0.115812) 7 6 2
(0.416902 0.291549 0 0.291549) 10 9 2
(0.197572 0.401214 0.401214 0) 41 41 2
(0.300494 0.349753 0.349753 0) 5 5 2
(0.875219 0.0623905 0 0.0623905) 6 5 2
(0.938579 0.0307104 0.0307104 0) 20 20 2
(0.794983 0.102508 0.102508 0) 8 7 1
(0.144624 0.427688 0 0.427688) 28 28 1
(0.964916 0.0175418 0.0175418 0) 39 38 1
(0.0474808 0.47626 0.47626 0) 35 34 1
(0.605752 0.197124 0.197124 0) 21 21 2
(0.418611 0.290694 0 0.290694) 16 15 2
(0.747926 0.126037 0 0.126037) 5 5 1
(0.769205 0.115397 0 0.115397) 13 12 2
(0.223034 0.388483 0 0.388483) 35 35 1
(0.662931 0.168535 0.168535 0) 24 23 1
(0.444318 0.277841 0.277841 0) 14 13 1
(0.00364564 0.498177 0.498177 0) 29 28 1
(0.78105 0.109475 0 0.109475) 19 19 1
(0.163655 0.418172 0.418172 0) 38 37 1
(0.817241 0.0913797 0 0.0913797) 33 32 2
(0.74014 0.12993 0.12993 0) 7 6 1
(0.936118 0.0319412 0.0319412 0) 18 18 2
(0.687559 0.156221 0 0.156221) 29 28 2
(0.223344 0.388328 0 0.388328) 40 40 1
(0.494 0.253 0.253 0) 2 1 1
(0.0958686 0.452066 0.452066 0) 8 7 1
(0.854998 0.0725011 0.0725011 0) 13 12 1
(0.25632 0.37184 0 0.37184) 6 5 2
(0.716736 0.141632 0 0.141632) 11 11 1
(0.699379 0.150311 0.150311 0) 10 9 1
(0.926059 0.0369706 0.0369706 0) 10 10 2
(0.395862 0.302069 0 0.302069) 31 31 1
(0.851541 0.0742294 0 0.0742294) 30 30 1
(0.0860388 0.456981 0 0.456981) 11 10 2
(0.574348 0.212826 0 0.212826) 5 4 2
(0.251399 0.3743 0.3743 0) 5 4 1
(0.731135 0.134433 0 0.134433) 9 9 1
(0.290018 0.354991 0.354991 0) 10 9 1
(0.455611 0.272194 0 0.272194) 60 59 2
(0.416765 0.291617 0.291617 0) 0 1000 2
(0.11337 0.443315 0.443315 0) 44 44 2
(0.25353 0.373235 0 0.373235) 26 25 2
(0.733906 0.133047 0.133047 0) 22 21 1
(0.277391 0.361305 0 0.361305) 14 13 2
(0.88647 0.0567648 0 0.0567648) 7 7 1
(0.34437 0.327815 0 0.327815) 9 8 2
(0.342452 0.328774 0.328774 0) 9 9 2
(0.726826 0.136587 0.136587 0) 9 8 1
(0.871049 0.0644757 0 0.0644757) 73 73 1
(0.852928 0.0735358 0 0.0735358) 14 13 2
(0.989162 0.0054192 0.0054192 0) 12 11 1
(0.629712 0.185144 0 0.185144) 20 20 1
(0.864957 0.0675213 0.0675213 0) 22 21 1
(0.716758 0.141621 0.141621 0) 5 5 2
(0.254124 0.372938 0 0.372938) 26 25 2
(0.189669 0.405166 0 0.405166) 22 21 2
(0.0670109 0.466495 0 0.466495) 42 42 1
(0.177471 0.411265 0.411265 0) 6 6 2
(0.244996 0.377502 0.377502 0) 43 43 2
(0.49651 0.251745 0 0.251745) 44 44 1
(0.847304 0.076348 0.076348 0) 25 24 1
(0.707883 0.146058 0.146058 0) 36 35 1
(0.0897139 0.455143 0 0.455143) 7 7 1
(0.652874 0.173563 0 0.173563) 6 6 1
(0.0815043 0.459248 0 0.459248) 22 22 1
(0.250221 0.37489 0 0.37489) 4 4 1
(0.603534 0.198233 0.198233 0) 16 16 2
(0.641051 0.179474 0.179474 0) 2 2 2
(0.279686 0.360157 0 0.360157) 38 37 2
(0.880882 0.0595589 0 0.0595589) 23 23 1
(0.966655 0.0166727 0 0.0166727) 24 23 2
(0.631966 0.184017 0.184017 0) 22 22 2
(0.723974 0.138013 0 0.138013) 2 2 1
(0.385459 0.30727 0 0.30727) 5 4 2
(0.686175 0.156913 0.156913 0) 7 6 1
(0.0669051 0.466547 0 0.466547) 18 18 1
(0.24297 0.378515 0.378515 0) 33 33 2
(0.617115 0.191443 0 0.191443) 10 9 2
(0.0875409 0.45623 0 0.45623) 3 2 2
(0.870286 0.064857 0.064857 0) 12 12 2
(0.0683622 0.465819 0.465819 0) 9 9 2
(0.487042 0.256479 0.256479 0) 5 5 2
(0.41302 0.29349 0.29349 0) 22 22 2
(0.0794784 0.460261 0 0.460261) 12 12 1
(0.567771 0.216115 0.216115 0) 10 10 2
(0.689044 0.155478 0 0.155478) 0 1000 1
(0.684508 0.157746 0 0.157746) 2 2 1
(0.610332 0.194834 0.194834 0) 16 16 2
(0.209596 0.395202 0.395202 0) 6 6 2
(0.676949 0.161526 0 0.161526) 41 40 2
(0.95506 0.02247 0 0.02247) 37 37 1
(0.324807 0.337596 0.337596 0) 6 5 1
(0.891042 0.054479 0.054479 0) 11 10 1
(0.746413 0.126793 0 0.126793) 24 23 2
(0.857533 0.0712335 0 0.0712335) 15 15 1
(0.510393 0.244803 0.244803 0) 2 1 1
(0.93615 0.0319252 0.0319252 0) 20 20 2
(0.402607 0.298697 0 0.298697) 8 7 2
(0.87915 0.0604252 0.0604252 0) 12 12 2
(0.873202 0.0633992 0.0633992 0) 27 26 1
(0.295135 0.352433 0.352433 0) 6 5 1
(0.888429 0.0557855 0 0.0557855) 20 19 2
(0.536695 0.231653 0 0.231653) 36 36 1
(0.885534 0.0572331 0.0572331 0) 42 41 1
(0.556899 0.221551 0.221551 0) 2 2 2
(0.726006 0.136997 0.136997 0) 16 15 1
(0.597625 0.201187 0 0.201187) 10 10 1
(0.91482 0.0425899 0.0425899 0) 30 29 1
(0.411561 0.29422 0 0.29422) 14 14 1
(0.788876 0.105562 0 0.105562) 6 5 2
(0.967383 0.0163083 0 0.0163083) 66 65 2
(0.00361941 0.49819 0 0.49819) 4 3 2
(0.650551 0.174724 0.174724 0) 53 52 1
(0.244535 0.377732 0.377732 0) 31 30 1
(0.680606 0.159697 0.159697 0) 25 25 2
(0.143549 0.428225 0.428225 0) 34 33 1
(0.882957 0.0585216 0 0.0585216) 46 46 1
(0.546529 0.226735 0 0.226735) 21 20 2
(0.0447799 0.47761 0.47761 0) 24 23 1
(0.781139 0.10943 0 0.10943) 6 6 1
(0.511731 0.244134 0 0.244134) 27 27 1
(0.581625 0.209187 0 0.209187) 9 8 2
(0.532682 0.233659 0 0.233659) 1 0 2
(0.52857 0.235715 0.235715 0) 12 12 2
(0.471051 0.264475 0.264475 0) 42 42 2
(0.0761453 0.461927 0.461927 0) 15 15 2
(0.507712 0.246144 0 0.246144) 25 24 2
(0.69293 0.153535 0 0.153535) 19 19 1
(0.363852 0.318074 0 0.318074) 28 27 2
(0.329942 0.335029 0.335029 0) 28 27 1
(0.542403 0.228799 0.228799 0) 9 9 2
(0.541199 0.229401 0.229401 0) 37 36 1
(0.176244 0.411878 0 0.411878) 41 40 2
(0.441944 0.279028 0.279028 0) 21 21 2
(0.964248 0.0178762 0.0178762 0) 9 8 1
(0.802811 0.0985943 0 0.0985943) 24 23 2
(0.073142 0.463429 0.463429 0) 29 29 2
(0.127266 0.436367 0 0.436367) 2 2 1
(0.696047 0.151977 0.151977 0) 35 35 2
(0.911911 0.0440447 0.0440447 0) 26 26 2
(0.485166 0.257417 0.257417 0) 16 16 2
(0.408086 0.295957 0 0.295957) 2 1 2
(0.108569 0.445715 0 0.445715) 38 38 1
(0.561324 0.219338 0 0.219338) 16 16 1
(0.869927 0.0650364 0 0.0650364) 26 26 1
(0.0936626 0.453169 0.453169 0) 9 8 1
(0.685783 0.157108 0.157108 0) 47 47 2
(0.668867 0.165567 0.165567 0) 15 15 2
(0.652327 0.173836 0 0.173836) 6 5 2
(0.776118 0.111941 0 0.111941) 43 43 1
(0.807126 0.096437 0 0.096437) 43 42 2
(0.438018 0.280991 0.280991 0) 35 35 2
(0.795549 0.102226 0.102226 0) 15 14 1
(0.604943 0.197528 0.197528 0) 7 6 1
(0.805825 0.0970874 0 0.0970874) 0 0 1
(0.1837 0.40815 0 0.40815) 24 24 1
(0.164622 0.417689 0 0.417689) 32 31 2
(0.229973 0.385014 0.385014 0) 9 8 1
(0.026829 0.486586 0 0.486586) 66 66 1
(0.0387991 0.4806 0.4806 0) 5 4 1
(0.153227 0.423387 0.423387 0) 11 11 2
(0.877961 0.0610195 0 0.0610195) 22 21 2
(0.217717 0.391142 0 0.391142) 11 11 1
(0.27294 0.36353 0.36353 0) 2 1 1
(0.417586 0.291207 0.291207 0) 38 37 1
(0.144967 0.427517 0.427517 0) 5 4 1
(0.233312 0.383344 0 0.383344) 30 30 1
(0.31678 0.34161 0.34161 0) 6 5 1
(0.362802 0.318599 0.318599 0) 10 10 2
(0.396793 0.301603 0 0.301603) 30 29 2
(0.84012 0.07994 0.07994 0) 17 16 1
(0.326722 0.336639 0 0.336639) 12 11 2
(0.893862 0.053069 0 0.053069) 18 17 2
(0.688139 0.15593 0.15593 0) 37 37 2
(0.9506 0.0247002 0.0247002 0) 44 44 2
(0.220492 0.389754 0 0.389754) 30 30 1
(0.392083 0.303959 0.303959 0) 29 28 1
(0.332088 0.333956 0 0.333956) 53 52 2
(0.607861 0.196069 0.196069 0) 36 35 1
(0.101324 0.449338 0.449338 0) 42 42 2
(0.113003 0.443498 0 0.443498) 12 12 1
(0.914976 0.0425121 0.0425121 0) 7 7 2
(0.672033 0.163983 0 0.163983) 18 18 1
(0.786075 0.106963 0 0.106963) 19 18 2
(0.215092 0.392454 0 0.392454) 5 4 2
(0.587674 0.206163 0 0.206163) 10 9 2
(0.57105 0.214475 0.214475 0) 29 29 2
(0.923806 0.0380969 0.0380969 0) 14 14 2
(0.0323084 0.483846 0.483846 0) 29 28 1
(0.881809 0.0590957 0 0.0590957) 51 50 2
(0.809947 0.0950267 0.0950267 0) 20 20 2
(0.734682 0.132659 0 0.132659) 48 48 1
(0.14169 0.429155 0.429155 0) 27 27 2
(0.319654 0.340173 0.340173 0) 24 24 2
(0.530114 0.234943 0 0.234943) 11 10 2
(0.0267145 0.486643 0.486643 0) 23 23 2
(0.69731 0.151345 0 0.151345) 37 36 2
(0.330202 0.334899 0 0.334899) 65 65 1
(0.33121 0.334395 0.334395 0) 11 11 2
(0.461633 0.269183 0 0.269183) 0 1000 1
(0.746191 0.126904 0.126904 0) 7 7 2
(0.931244 0.0343782 0 0.0343782) 0 0 1
(0.373681 0.31316 0 0.31316) 8 7 2
(0.307758 0.346121 0.346121 0) 22 22 2
(0.131978 0.434011 0.434011 0) 7 6 1
(0.273019 0.36349 0.36349 0) 12 11 1
(0.366225 0.316887 0.316887 0) 26 26 2
(0.87874 0.0606298 0.0606298 0) 23 22 1
(0.359681 0.320159 0 0.320159) 18 17 2
(0.796246 0.101877 0 0.101877) 6 6 1
(0.259337 0.370332 0 0.370332) 63 62 2
(0.981886 0.0090572 0 0.0090572) 7 6 2
(0.241503 0.379249 0.379249 0) 39 38 1
(0.726115 0.136942 0 0.136942) 31 31 1
(0.344297 0.327851 0 0.327851) 33 32 2
(0.415521 0.292239 0.292239 0) 4 3 1
(0.29038 0.35481 0.35481 0) 16 15 1
(0.767423 0.116288 0.116288 0) 12 11 1
(0.643 0.1785 0 0.1785) 25 24 2
(0.365798 0.317101 0 0.317101) 1 1 1
(0.719565 0.140217 0.140217 0) 8 8 2
(0.455299 0.27235 0.27235 0) 18 18 2
(0.0575579 0.471221 0 0.471221) 36 36 1
(0.555099 0.22245 0.22245 0) 29 29 2
(0.727056 0.136472 0 0.136472) 24 24 1
(0.548022 0.225989 0 0.225989) 47 47 1
(0.428894 0.285553 0 0.285553) 1 1 1
(0.25248 0.37376 0.37376 0) 19 18 1
(0.0652173 0.467391 0.467391 0) 12 11 1
(0.100655 0.449673 0.449673 0) 27 27 2
(0.414793 0.292604 0 0.292604) 26 26 1
(0.260811 0.369594 0.369594 0) 48 48 2
(0.770822 0.114589 0 0.114589) 13 12 2
(0.125633 0.437183 0.437183 0) 18 18 2
(0.829764 0.0851178 0 0.0851178) 53 53 1
(0.989837 0.00508173 0.00508173 0) 15 15 2
(0.463705 0.268147 0 0.268147) 9 9 1
(0.48656 0.25672 0 0.25672) 9 9 1
(0.96458 0.0177102 0 0.0177102) 32 31 2
(0.865257 0.0673713 0.0673713 0) 15 14 1
(0.139854 0.430073 0.430073 0) 23 22 1
(0.727958 0.136021 0 0.136021) 6 5 2
(0.531254 0.234373 0 0.234373) 18 18 1
(0.356347 0.321827 0 0.321827) 10 9 2
(0.639252 0.180374 0 0.180374) 7 7 1
(0.849628 0.0751858 0.0751858 0) 15 14 1
(0.615274 0.192363 0.192363 0) 2 2 2
(0.169855 0.415072 0 0.415072) 35 34 2
(0.492278 0.253861 0.253861 0) 66 66 2
(0.376027 0.311987 0 0.311987) 8 7 2
(0.827995 0.0860026 0.0860026 0) 13 12 1
(0.338298 0.330851 0.330851 0) 42 41 1
(0.864007 0.0679966 0 0.0679966) 31 30 2
(0.632126 0.183937 0.183937 0) 29 28 1
(0.493288 0.253356 0 0.253356) 22 21 2
(0.254743 0.372628 0.372628 0) 27 27 2
(0.249223 0.375389 0.375389 0) 12 11 1
(0.426432 0.286784 0.286784 0) 37 37 2
(0.389178 0.305411 0.305411 0) 31 30 1
(0.896652 0.0516739 0 0.0516739) 25 25 1
(0.784159 0.107921 0.107921 0) 14 14 2
(0.651277 0.174362 0 0.174362) 19 18 2
(0.320027 0.339986 0 0.339986) 24 24 1
(0.238443 0.380779 0.380779 0) 26 25 1
(0.555058 0.222471 0 0.222471) 11 10 2
(0.74143 0.129285 0 0.129285) 26 26 1
(0.748985 0.125507 0 0.125507) 53 53 1
(0.863913 0.0680433 0 0.0680433) 6 6 1
(0.539056 0.230472 0.230472 0) 10 9 1
(0.0432053 0.478397 0.478397 0) 26 25 1
(0.712711 0.143644 0.143644 0) 18 18 2
(0.850744 0.0746278 0 0.0746278) 6 6 1
(0.646464 0.176768 0.176768 0) 33 32 1
(0.21513 0.392435 0 0.392435) 2 1 2
(0.788436 0.105782 0.105782 0) 15 15 2
(0.700784 0.149608 0 0.149608) 1 0 2
(0.0739314 0.463034 0 0.463034) 24 23 2
(0.928717 0.0356414 0 0.0356414) 18 18 1
(0.973783 0.0131084 0.0131084 0) 39 38 1
(0.585372 0.207314 0 0.207314) 18 17 2
(0.119674 0.440163 0.440163 0) 31 30 1
(0.527186 0.236407 0.236407 0) 25 24 1
(0.7807 0.10965 0.10965 0) 18 18 2
(0.493463 0.253268 0.253268 0) 6 5 1
(0.212862 0.393569 0.393569 0) 11 11 2
(0.594151 0.202925 0 0.202925) 32 32 1
(0.97677 0.0116152 0.0116152 0) 37 36 1
(0.309194 0.345403 0 0.345403) 37 36 2
(0.354315 0.322842 0.322842 0) 13 12 1
(0.787062 0.106469 0.106469 0) 10 10 2
(0.771151 0.114425 0.114425 0) 10 10 2
(0.639344 0.180328 0.180328 0) 2 2 2
(0.296796 0.351602 0 0.351602) 13 12 2
(0.98666 0.00667012 0.00667012 0) 28 28 2
(0.748031 0.125984 0 0.125984) 50 49 2
(0.673457 0.163271 0.163271 0) 39 39 2
(0.0451903 0.477405 0.477405 0) 10 9 1
(0.849486 0.0752568 0.0752568 0) 2 2 2
(0.613003 0.193498 0.193498 0) 12 12 2
(0.84691 0.0765449 0.0765449 0) 15 15 2
(0.62868 0.18566 0.18566 0) 32 32 2
(0.0627384 0.468631 0.468631 0) 43 43 2
(0.540521 0.22974 0 0.22974) 44 43 2
(0.617418 0.191291 0 0.191291) 31 30 2
(0.726044 0.136978 0.136978 0) 11 10 1
(0.840084 0.079958 0 0.079958) 25 25 1
(0.124372 0.437814 0 0.437814) 16 15 2
(0.825583 0.0872087 0.0872087 0) 30 30 2
(0.103599 0.448201 0 0.448201) 37 36 2
(0.864179 0.0679105 0 0.0679105) 17 17 1
(0.464474 0.267763 0 0.267763) 8 7 2
(0.560614 0.219693 0 0.219693) 26 25 2
(0.604389 0.197805 0.197805 0) 20 20 2
(0.165393 0.417303 0.417303 0) 21 21 2
(0.187009 0.406495 0 0.406495) 23 22 2
(0.73994 0.13003 0.13003 0) 45 45 2
(0.241462 0.379269 0.379269 0) 26 26 2
(0.25269 0.373655 0 0.373655) 23 22 2
(0.263808 0.368096 0.368096 0) 41 41 2
(0.646597 0.176701 0 0.176701) 55 54 2
(0.29016 0.35492 0 0.35492) 76 76 1
(0.0858899 0.457055 0 0.457055) 58 57 2
(0.907672 0.046164 0 0.046164) 31 31 1
(0.560815 0.219592 0 0.219592) 3 3 1
(0.797721 0.10114 0.10114 0) 1 0 1
(0.973408 0.013296 0 0.013296) 12 12 1
(0.521661 0.23917 0.23917 0) 10 10 2
(0.401577 0.299211 0.299211 0) 48 47 1
(0.359706 0.320147 0.320147 0) 16 16 2
(0.65225 0.173875 0 0.173875) 19 18 2
(0.50704 0.24648 0 0.24648) 4 4 1
(0.2685 0.36575 0 0.36575) 52 52 1
(0.813378 0.0933111 0.0933111 0) 30 29 1
(0.822863 0.0885685 0.0885685 0) 40 39 1
(0.159088 0.420456 0.420456 0) 19 19 2
(0.983458 0.00827083 0.00827083 0) 47 46 1
(0.286184 0.356908 0.356908 0) 20 20 2
(0.543953 0.228024 0 0.228024) 44 43 2
(0.188379 0.405811 0 0.405811) 0 0 1
(0.356895 0.321553 0 0.321553) 14 14 1
(0.973036 0.013482 0 0.013482) 0 1000 1
(0.941599 0.0292003 0 0.0292003) 9 9 1
(0.849538 0.0752309 0 0.0752309) 5 5 1
(0.531107 0.234446 0 0.234446) 28 27 2
(0.553211 0.223394 0.223394 0) 23 22 1
(0.964519 0.0177404 0.0177404 0) 7 7 2
(0.11419 0.442905 0.442905 0) 23 22 1
(0.415875 0.292062 0.292062 0) 12 12 2
(0.364888 0.317556 0 0.317556) 15 15 1
(0.304383 0.347808 0.347808 0) 20 19 1
(0.168153 0.415923 0.415923 0) 29 28 1
(0.833005 0.0834976 0 0.0834976) 0 1000 1
(0.701043 0.149479 0.149479 0) 23 22 1
(0.904403 0.0477984 0.0477984 0) 2 2 2
(0.0709797 0.46451 0.46451 0) 25 25 2
(0.711435 0.144282 0.144282 0) 50 49 1
(0.0392315 0.480384 0.480384 0) 38 38 2
(0.289779 0.35511 0.35511 0) 4 3 1
(0.113088 0.443456 0.443456 0) 8 7 1
(0.53528 0.23236 0.23236 0) 33 32 1
(0.60781 0.196095 0 0.196095) 7 6 2
(0.281661 0.35917 0 0.35917) 10 9 2
(0.562806 0.218597 0.218597 0) 40 40 2
(0.760649 0.119675 0.119675 0) 5 4 1
(0.713772 0.143114 0.143114 0) 29 29 2
(0.0899099 0.455045 0.455045 0) 17 16 1
(0.499821 0.25009 0.25009 0) 0 1000 2
(0.196546 0.401727 0 0.401727) 21 21 1
(0.759642 0.120179 0 0.120179) 5 4 2
(0.63391 0.183045 0.183045 0) 5 4 1
(0.927228 0.0363861 0.0363861 0) 20 19 1
(0.592147 0.203926 0 0.203926) 7 6 2
(0.668152 0.165924 0 0.165924) 41 40 2
(0.830258 0.0848708 0.0848708 0) 31 31 2
(0.368532 0.315734 0 0.315734) 22 21 2
(0.411186 0.294407 0.294407 0) 37 36 1
(0.867526 0.0662372 0.0662372 0) 77 77 2
(0.470482 0.264759 0.264759 0) 54 54 2
(0.0713105 0.464345 0 0.464345) 2 1 2
(0.788903 0.105548 0 0.105548) 10 9 2
(0.329983 0.335008 0.335008 0) 14 14 2
(0.855011 0.0724945 0.0724945 0) 9 9 2
(0.576537 0.211732 0.211732 0) 30 29 1
(0.491401 0.2543 0.2543 0) 25 25 2
(0.473417 0.263291 0.263291 0) 1 1 2
(0.933117 0.0334417 0 0.0334417) 17 17 1
(0.0120995 0.49395 0.49395 0) 52 51 1
(0.160933 0.419533 0 0.419533) 16 16 1
(0.852008 0.0739958 0 0.0739958) 7 6 2
(0.508416 0.245792 0.245792 0) 36 35 1
(0.518937 0.240531 0 0.240531) 11 10 2
(0.184329 0.407835 0 0.407835) 0 0 1
(0.606349 0.196825 0.196825 0) 36 35 1
(0.514267 0.242867 0 0.242867) 12 12 1
(0.630051 0.184974 0 0.184974) 2 1 2
(0.789913 0.105044 0.105044 0) 0 0 2
(0.644655 0.177673 0 0.177673) 1 1 1
(0.355423 0.322288 0.322288 0) 10 9 1
(0.467237 0.266381 0.266381 0) 51 50 1
(0.537709 0.231145 0.231145 0) 34 33 1
(0.445524 0.277238 0 0.277238) 0 0 1
(0.955203 0.0223984 0 0.0223984) 18 17 2
(0.541997 0.229001 0 0.229001) 17 17 1
(0.946513 0.0267434 0.0267434 0) 12 11 1
(0.63443 0.182785 0 0.182785) 28 27 2
(0.719179 0.140411 0 0.140411) 26 25 2
(0.333419 0.333291 0.333291 0) 40 39 1
(0.976133 0.0119335 0.0119335 0) 16 15 1
(0.206528 0.396736 0 0.396736) 24 24 1
(0.102313 0.448843 0.448843 0) 23 22 1
(0.430554 0.284723 0.284723 0) 22 21 1
(0.313836 0.343082 0 0.343082) 15 15 1
(0.449183 0.275408 0.275408 0) 32 31 1
(0.548197 0.225901 0 0.225901) 37 37 1
(0.4398 0.2801 0.2801 0) 42 42 2
(0.431684 0.284158 0 0.284158) 13 12 2
(0.416662 0.291669 0 0.291669) 45 45 1
(0.380671 0.309664 0 0.309664) 23 22 2
(0.876736 0.0616319 0.0616319 0) 13 13 2
(0.284524 0.357738 0 0.357738) 23 22 2
(0.214224 0.392888 0 0.392888) 17 17 1
(0.841533 0.0792334 0.0792334 0) 27 26 1
(0.0373485 0.481326 0.481326 0) 5 4 1
(0.590807 0.204596 0.204596 0) 35 34 1
(0.706156 0.146922 0 0.146922) 40 40 1
(0.0324617 0.483769 0 0.483769) 28 27 2
(0.153489 0.423256 0.423256 0) 18 18 2
(0.547371 0.226314 0.226314 0) 41 41 2
(0.306685 0.346657 0 0.346657) 14 14 1
(0.600305 0.199847 0 0.199847) 39 38 2
(0.622198 0.188901 0.188901 0) 11 11 2
(0.426031 0.286984 0 0.286984) 37 36 2
(0.00647752 0.496761 0.496761 0) 24 23 1
(0.355329 0.322335 0.322335 0) 0 1000 2
(0.915176 0.042412 0 0.042412) 19 18 2
(0.341373 0.329314 0 0.329314) 11 10 2
(0.917278 0.0413611 0.0413611 0) 16 15 1
(0.399961 0.30002 0 0.30002) 15 15 1
(0.0124262 0.493787 0.493787 0) 34 34 2
(0.697142 0.151429 0 0.151429) 23 23 1
(0.389489 0.305256 0 0.305256) 45 44 2
(0.152627 0.423686 0 0.423686) 50 50 1
(0.4684 0.2658 0.2658 0) 24 24 2
(0.47053 0.264735 0 0.264735) 51 51 1
(0.437852 0.281074 0.281074 0) 31 31 2
(0.499727 0.250136 0 0.250136) 0 1000 1
(0.184953 0.407524 0 0.407524) 25 24 2
(0.621505 0.189247 0 0.189247) 0 1000 1
(0.19929 0.400355 0 0.400355) 28 28 1
(0.234708 0.382646 0 0.382646) 9 8 2
(0.379978 0.310011 0 0.310011) 3 2 2
(0.71525 0.142375 0.142375 0) 3 3 2
(0.158718 0.420641 0 0.420641) 36 36 1
(0.65873 0.170635 0.170635 0) 44 43 1
(0.28424 0.35788 0.35788 0) 9 9 2
(0.919566 0.0402168 0 0.0402168) 5 5 1
(0.222343 0.388829 0.388829 0) 13 12 1
(0.77183 0.114085 0.114085 0) 22 22 2
(0.659201 0.1704 0 0.1704) 4 3 2
(0.260702 0.369649 0 0.369649) 5 5 1
(0.496838 0.251581 0 0.251581) 20 19 2
(0.438767 0.280617 0.280617 0) 32 31 1
(0.580456 0.209772 0.209772 0) 9 8 1
(0.772172 0.113914 0.113914 0) 9 8 1
(0.655715 0.172142 0.172142 0) 62 61 1
(0.872379 0.0638107 0 0.0638107) 37 37 1
(0.203698 0.398151 0 0.398151) 3 3 1
(0.365859 0.317071 0 0.317071) 12 12 1
(0.764881 0.11756 0.11756 0) 1 1 2
(0.894743 0.0526283 0.0526283 0) 45 44 1
(0.185633 0.407184 0 0.407184) 20 19 2
(0.630222 0.184889 0.184889 0) 35 34 1
(0.986202 0.00689895 0.00689895 0) 32 31 1
(0.383658 0.308171 0.308171 0) 20 20 2
(0.0314954 0.484252 0.484252 0) 25 24 1
(0.00327792 0.498361 0 0.498361) 28 27 2
(0.125871 0.437064 0 0.437064) 35 35 1
(0.917537 0.0412316 0 0.0412316) 57 57 1
(0.862807 0.0685965 0 0.0685965) 21 20 2
(0.214386 0.392807 0.392807 0) 15 14 1
(0.489617 0.255191 0 0.255191) 35 35 1
(0.18835 0.405825 0 0.405825) 7 7 1
(0.9075 0.04625 0.04625 0) 15 14 1