/*--------------------------------*- C++ -*----------------------------------*\
  =========                 |
  \\      /  F ield         | OpenFOAM: The Open Source CFD Toolbox
   \\    /   O peration     | Website:  https://openfoam.org
    \\  /    A nd           | Version:  7
     \\/     M anipulation  |
\*---------------------------------------------------------------------------*/
FoamFile
{
    version     2.0;
    format      ascii;
    class       volScalarField;
    location    "0.0036";
    object      iDof;
}
// * * * * * * * * * * * * * * * * * * * * * * * * * * * * * * * * * * * * * //

dimensions      [0 -3 0 0 0 0 0];

internalField   nonuniform List<scalar> 
125
(
8.64286e+22
8.14286e+22
9.71429e+22
8.85714e+22
1.02143e+23
8.42857e+22
9.28571e+22
1.02143e+23
9.92857e+22
8.28571e+22
7.71429e+22
9.78571e+22
9.07143e+22
9.57143e+22
9.21429e+22
8.07143e+22
9.64286e+22
9.5e+22
7.85714e+22
9.35714e+22
1.02857e+23
8.42857e+22
7.92857e+22
8.57143e+22
7.92857e+22
8.21429e+22
9.64286e+22
9.57143e+22
7.92857e+22
1.01429e+23
9.35714e+22
9.57143e+22
9.78571e+22
8.35714e+22
9.28571e+22
9.5e+22
8.5e+22
9.64286e+22
8.71429e+22
8.5e+22
8.71429e+22
9.5e+22
9.35714e+22
7.07143e+22
1.05e+23
8.28571e+22
9.64286e+22
9.35714e+22
9.28571e+22
9.28571e+22
8.35714e+22
8.5e+22
9.5e+22
9.42857e+22
9e+22
9.5e+22
1.1e+23
8.28571e+22
1.00714e+23
8.64286e+22
1.05714e+23
8.28571e+22
7.85714e+22
8.85714e+22
8.64286e+22
9.07143e+22
1.03571e+23
8.78571e+22
8.85714e+22
1.09286e+23
1.05714e+23
9.42857e+22
1e+23
9.92857e+22
9.21429e+22
8e+22
1.00714e+23
8.5e+22
8.78571e+22
8.5e+22
8.78571e+22
9.85714e+22
9.21429e+22
1.11429e+23
8.64286e+22
1.05e+23
9.78571e+22
8.92857e+22
9.28571e+22
1.10714e+23
8.35714e+22
9.57143e+22
9.35714e+22
9.64286e+22
1.04286e+23
9.92857e+22
1.13571e+23
1.09286e+23
1.01429e+23
1.04286e+23
1.14286e+23
1.12857e+23
1.02143e+23
1.17857e+23
1.15e+23
9.85714e+22
1.29286e+23
1.1e+23
1.08571e+23
1.37143e+23
1.3e+23
1.17857e+23
1.17857e+23
1.29286e+23
1.2e+23
1.33571e+23
1.45714e+23
1.23571e+23
1.25714e+23
1.17857e+23
1.07143e+23
1.25714e+23
1.30714e+23
1.37857e+23
1.35e+23
)
;

boundaryField
{
    sides
    {
        type            symmetry;
    }
    empty
    {
        type            empty;
    }
    procBoundary2to1
    {
        type            processor;
        value           uniform 9.21429e+22;
    }
    procBoundary2to3
    {
        type            processor;
        value           uniform 1.24286e+23;
    }
}


// ************************************************************************* //
