/*--------------------------------*- C++ -*----------------------------------*\
  =========                 |
  \\      /  F ield         | OpenFOAM: The Open Source CFD Toolbox
   \\    /   O peration     | Website:  https://openfoam.org
    \\  /    A nd           | Version:  7
     \\/     M anipulation  |
\*---------------------------------------------------------------------------*/
FoamFile
{
    version     2.0;
    format      ascii;
    class       volScalarField;
    location    "0.0036";
    object      internalE;
}
// * * * * * * * * * * * * * * * * * * * * * * * * * * * * * * * * * * * * * //

dimensions      [1 -1 -2 0 0 0 0];

internalField   nonuniform List<scalar> 
125
(
409.976
334.461
521.951
483.229
537.783
401.113
450.343
490.442
422.63
375.433
378.879
479.318
399.709
382.661
517.456
292.233
457.058
437.734
371.083
407.336
425.627
404.058
386.545
349.676
363.668
413.987
467.805
461.698
458.054
448.573
395.93
392.453
411.742
381.408
455.112
475.283
342.755
410.617
400.511
447.875
402.738
386.771
458.59
336.182
471.141
332.646
446.557
409.16
465.869
406.96
355.662
482.123
437.667
426.595
400.357
487.6
525.772
468.281
479.885
422.39
527.153
355.948
398.971
495.111
433.083
494.648
475.545
418.415
404.893
473.279
498.743
472.372
447.202
374.344
432.775
352.331
555.835
411.426
422.579
429.846
459.484
429.122
419.996
596.997
367.256
458.599
393.437
405.461
504.778
496.497
426.342
430.202
433.231
395.499
404.32
448.422
480.204
439.771
378.315
445.032
431.778
418.995
446.324
426.301
438.467
373.393
410.219
372.801
370.929
478.964
407.902
401.8
405.323
431.155
410.766
427.692
508.194
388.595
380.762
334.694
381.082
427.133
437.518
433.265
464.892
)
;

boundaryField
{
    sides
    {
        type            symmetry;
    }
    empty
    {
        type            empty;
    }
    procBoundary2to1
    {
        type            processor;
        value           uniform 471.487;
    }
    procBoundary2to3
    {
        type            processor;
        value           uniform 464.112;
    }
}


// ************************************************************************* //
