/*--------------------------------*- C++ -*----------------------------------*\
  =========                 |
  \\      /  F ield         | OpenFOAM: The Open Source CFD Toolbox
   \\    /   O peration     | Website:  https://openfoam.org
    \\  /    A nd           | Version:  7
     \\/     M anipulation  |
\*---------------------------------------------------------------------------*/
FoamFile
{
    version     2.0;
    format      ascii;
    class       volScalarField;
    location    "0.0036";
    object      linearKE;
}
// * * * * * * * * * * * * * * * * * * * * * * * * * * * * * * * * * * * * * //

dimensions      [1 -1 -2 0 0 0 0];

internalField   nonuniform List<scalar> 
125
(
892.016
769.313
773.833
803.882
845.463
752.763
814.595
943.596
874.824
718.142
646.285
761.03
745.392
876.327
896.217
762.478
810.336
768.212
680.784
809.126
896.184
752.098
655.644
765.003
712.957
704.802
854.026
848.695
687.142
945.714
881.111
976.839
862.321
783.311
887.867
913.558
666.131
781.084
832.732
799.833
783.943
885.525
848.79
594.151
914.472
709.477
834.366
815.78
771.487
807.294
775.401
785.493
774.595
913.308
761.737
816.005
867.524
734.381
877.78
773.934
942.138
717.485
686.538
725.959
739.851
831.375
902.171
719.272
748.888
942.325
964.882
781.977
926.377
846.699
847.072
693.761
916.713
754.697
805.288
650.21
792.645
791.552
858.191
1079.24
824.741
926.065
899.755
804.638
800.4
948.093
744.032
731.459
783.856
759.126
858.258
794.845
792.726
866.944
828.148
817.959
836.964
812.745
718.351
901.122
975.729
773.56
875.258
790.157
719.815
994.27
846.261
823.167
822.692
838.877
808.062
997.042
1071.16
821.724
814.857
808.251
716.206
798.009
824.574
805.433
940.845
)
;

boundaryField
{
    sides
    {
        type            symmetry;
    }
    empty
    {
        type            empty;
    }
    procBoundary2to1
    {
        type            processor;
        value           uniform 755.235;
    }
    procBoundary2to3
    {
        type            processor;
        value           uniform 863.227;
    }
}


// ************************************************************************* //
