/*--------------------------------*- C++ -*----------------------------------*\
  =========                 |
  \\      /  F ield         | OpenFOAM: The Open Source CFD Toolbox
   \\    /   O peration     | Website:  https://openfoam.org
    \\  /    A nd           | Version:  7
     \\/     M anipulation  |
\*---------------------------------------------------------------------------*/
FoamFile
{
    version     2.0;
    format      ascii;
    class       volScalarField;
    location    "0.075/particle";
    object      dsmcRhoN;
}
// * * * * * * * * * * * * * * * * * * * * * * * * * * * * * * * * * * * * * //

dimensions      [0 -3 0 0 0 0 0];

internalField   nonuniform List<scalar> 
800
(
989
1042
1086
1063
1082
1034
1095
1049
1090
1094
1045
1082
1098
1123
1066
1075
1129
1084
1100
1086
1033
1108
1060
1147
1112
1096
1053
1052
1010
1058
1103
1064
1096
1109
1103
1106
1123
1155
1104
1020
1081
1076
1086
1084
1061
1084
1070
1079
1066
1077
1164
1118
1104
1118
1049
1067
1101
1095
1075
1149
1090
1069
1070
1089
1078
1064
1093
1055
1091
1100
1080
1069
1140
1052
1069
1123
1042
1103
1114
1128
1105
1121
1093
1049
1055
1042
1020
1072
972
1128
1064
1096
1106
1130
1093
1070
1058
993
1072
1115
1104
1054
1041
1002
1067
1036
1125
1085
1083
1064
1040
1105
1042
1071
1068
1127
1052
1065
1036
1032
1087
1072
1086
1033
1057
1045
1080
1070
1066
1094
1127
1032
1117
1071
1019
1059
1088
1071
1050
1048
1071
1065
1021
1084
1054
1095
1127
1065
1090
1070
1070
1083
1105
1046
1033
1097
1075
1062
1063
1119
1113
1062
1095
1083
1109
1091
1100
1120
1106
1050
1040
1106
1039
1118
1074
1100
1084
1066
1036
1054
1085
989
1075
1080
1074
1061
1066
1082
1072
1057
1080
1009
1056
1119
1074
1083
1090
1096
1035
1122
1039
1103
1055
1082
1096
1040
1019
1120
1123
1048
1042
1051
976
1020
1055
1057
960
959
1035
985
989
979
907
929
965
938
976
931
970
891
897
849
900
846
847
834
843
881
840
837
850
816
821
773
775
779
745
760
768
718
698
754
701
725
708
723
681
656
647
710
688
682
677
648
671
597
664
619
579
576
580
597
584
577
596
579
576
576
591
594
547
555
545
534
523
490
512
479
531
483
521
489
524
487
521
504
448
484
451
510
441
418
432
443
446
502
500
464
440
450
437
478
463
435
488
451
442
472
520
452
462
418
467
454
430
438
477
410
484
446
470
441
435
462
445
474
434
469
470
469
482
480
496
498
479
430
444
495
482
449
456
438
435
477
470
468
475
450
454
498
458
437
438
430
402
380
398
350
373
385
365
332
364
310
302
324
241
326
298
296
273
275
295
277
331
276
272
285
289
294
290
313
262
282
288
297
299
317
295
302
283
275
299
296
252
294
296
285
255
306
299
284
295
280
293
298
256
264
267
292
289
271
296
250
284
285
312
288
301
277
248
170
128
131
125
146
151
130
141
140
144
134
141
125
149
130
106
137
128
162
120
135
130
135
123
135
120
130
126
142
122
126
132
138
115
145
137
136
127
140
118
131
138
147
117
136
124
117
151
132
120
141
137
147
132
124
135
142
148
139
123
138
154
137
134
116
122
124
138
137
141
150
120
145
139
120
135
118
119
149
140
143
137
131
140
145
139
139
133
137
153
127
118
134
135
137
139
133
136
133
127
122
124
133
120
137
120
146
149
132
144
135
139
131
131
135
148
121
118
150
132
131
131
130
115
132
121
143
138
141
132
112
126
140
128
156
132
138
129
123
145
121
128
137
130
144
138
123
125
139
124
143
128
142
126
125
150
139
132
131
137
135
150
137
114
134
151
116
138
137
119
139
134
125
128
147
106
122
122
149
120
141
140
139
126
136
138
153
126
123
141
128
126
111
141
146
115
140
123
136
127
128
146
151
146
144
153
137
151
130
132
160
155
140
155
156
122
117
128
138
153
143
137
143
126
133
122
127
133
124
131
137
145
125
148
147
129
141
138
134
150
127
128
106
127
134
144
155
132
133
123
140
147
146
150
147
156
131
126
142
149
128
140
150
132
140
156
133
139
121
137
136
137
124
137
136
137
132
138
159
132
139
135
112
133
128
134
130
123
106
152
138
135
140
129
126
149
130
130
127
156
125
129
136
144
123
124
136
125
130
122
113
148
131
151
131
135
142
145
131
129
134
131
145
156
123
118
123
131
115
109
128
138
136
130
143
173
143
126
121
136
131
137
127
120
127
135
154
143
133
121
133
143
136
128
159
142
137
139
113
141
138
157
139
129
131
132
125
127
117
)
;

boundaryField
{
    partSide
    {
        type            symmetry;
    }
    partBound
    {
        type            zeroGradient;
    }
    nullDims
    {
        type            empty;
    }
}


// ************************************************************************* //
