/*--------------------------------*- C++ -*----------------------------------*\
  =========                 |
  \\      /  F ield         | OpenFOAM: The Open Source CFD Toolbox
   \\    /   O peration     | Website:  https://openfoam.org
    \\  /    A nd           | Version:  7
     \\/     M anipulation  |
\*---------------------------------------------------------------------------*/
FoamFile
{
    version     2.0;
    format      ascii;
    class       volScalarField;
    location    "0.075/particle";
    object      internalE;
}
// * * * * * * * * * * * * * * * * * * * * * * * * * * * * * * * * * * * * * //

dimensions      [1 -1 -2 0 0 0 0];

internalField   nonuniform List<scalar> 
800
(
0.000984845653866871
0.000989743610333668
0.0010255618315301
0.00103541579436027
0.000984605400873022
0.00102843362489786
0.00104877937782482
0.000992971519452697
0.00098800426801695
0.00105331554795712
0.00102700249741205
0.000977967312130296
0.00103395917531822
0.00104979206396348
0.000993305760366004
0.00102302038191852
0.0010632899479429
0.00100412799167278
0.00106806722971698
0.00102584463348447
0.000986871959847534
0.00112588051227832
0.000966951014829003
0.00108056799114451
0.00108077574328651
0.00106402683138266
0.000993795437264829
0.000991070025914681
0.000909613729362671
0.000952810761829104
0.00109388000770931
0.000987862674446391
0.00105233419438076
0.00104290233894572
0.00104547288720989
0.00100058869548599
0.00104163173922353
0.00106900175075324
0.00109954831507397
0.000959778296854167
0.000979408980977936
0.00100604510864342
0.00113314844374666
0.00103103784964952
0.000993395729874502
0.000962596759434907
0.000970373166549004
0.00104386522486395
0.000944977950540374
0.00102069175654386
0.00107592583794419
0.00100289255936816
0.00103942302894035
0.00102635520135484
0.00102000036224578
0.000935595768686571
0.00107374170313657
0.00103151745427633
0.000996494727585457
0.00107239940046919
0.00108680838036361
0.00102230651089422
0.000970154747763328
0.000956642519658575
0.000990864319687157
0.00102284040484579
0.00102678934569805
0.00102474693319282
0.00103943126892187
0.00103881378719518
0.000989224796627378
0.000962403177537759
0.0010775129849522
0.000985123712006514
0.00110535630014667
0.00106400350227514
0.00101026524715866
0.000992760336031175
0.001085331979561
0.00109005446385651
0.00104241389784705
0.00106889019044554
0.00106040732838071
0.00100112051936483
0.000982096897127213
0.000985319366961298
0.000984524385707323
0.00101118661428085
0.000950905530248963
0.00106326767432895
0.00103255957960858
0.00102171754113273
0.00104411662985298
0.00103484974900892
0.00106151914734265
0.000976600456969534
0.00100879782138437
0.000914941735819865
0.000993724327544613
0.0010374789970308
0.00100829001989893
0.000960268662658705
0.00100921240216905
0.000946777881156855
0.000944596226361284
0.000968178994118415
0.00104348561343809
0.00102291912838043
0.00102446366108425
0.00100156900477047
0.000885069764192444
0.00104967870953084
0.000965727028565494
0.00107131177109686
0.00103326861594676
0.00101124623985382
0.000986955500212346
0.00105060392900338
0.000891366965376947
0.000931562325466384
0.00101612863147298
0.000993509443256742
0.00104316987796401
0.000983548411226586
0.00100562963052127
0.000998935062055887
0.0010442982282192
0.0010224920697281
0.00101653740355924
0.000988491718498939
0.00104591211503724
0.00100330591053868
0.00109932943474846
0.00100388883801263
0.000948558284037045
0.00101589469984342
0.00101753207358514
0.00102280264760438
0.000994416251865886
0.000980469311610471
0.00098543757024838
0.000973778880312354
0.000967974195671225
0.00104534258051225
0.000987073380687726
0.00100052750662084
0.00104787616844783
0.00102140140672368
0.00106392139945123
0.000988030845812577
0.00104660083008688
0.00101833841141959
0.00104726099741254
0.00103736619960664
0.000949603312036664
0.00104370060947832
0.00100829235543951
0.000937313350334402
0.00100123261281844
0.00106636495497087
0.00105027931561856
0.00100553299277028
0.00104969803330762
0.00108637608964083
0.00108629131120437
0.0010519630450914
0.00102961073577243
0.00100313193248431
0.00100708817001046
0.00097594089594126
0.000972682526627905
0.00102909631299551
0.00100569321772412
0.00108227282169427
0.00105485497025581
0.00106927977587686
0.000986758775132677
0.000976282666217031
0.000985588095566035
0.00101331898263398
0.00102774897046952
0.000937329348833335
0.0010556841819501
0.00102476798908275
0.000962154122959986
0.000984956274962512
0.000971355850087487
0.0010609221619258
0.000999438240837248
0.00102157773986313
0.00100495666013152
0.000944295881907334
0.00104146562181747
0.00105532915871556
0.00099376916161514
0.00101123894224742
0.00102428095570596
0.00109632434469562
0.000917534750131
0.00103416614596438
0.00100603641848322
0.00109312832339733
0.000996959247064066
0.00102935207414789
0.00100583845559768
0.000966270954895609
0.000970601244298715
0.00103657639019396
0.00106187810302057
0.000939123944829401
0.00092479260947071
0.000921176792404074
0.000882717625726543
0.000983804833051748
0.000975992365019643
0.000947589591718843
0.000861464105480374
0.000838006625117457
0.00090938013714782
0.000931296372610837
0.000944543795923551
0.000879514277898236
0.000827178164154602
0.000791052390969107
0.000837751061617264
0.000825251640070317
0.000804067764536918
0.000824966460220728
0.000866273878148564
0.000762807864577681
0.000813026456872909
0.000716199133004927
0.000790538739246116
0.000722095510872885
0.00069433832302983
0.000725738303656628
0.000672471809479559
0.000744872349086406
0.000719309809625609
0.000679600522050246
0.000718288593825581
0.000658268821412958
0.000677665166785057
0.000647687025143545
0.000665273530293762
0.00063339102287284
0.000661300145156645
0.000589605221555583
0.000631830945633221
0.00059203337196215
0.000550897653852806
0.000627846729398026
0.00059734847274509
0.00058588749881766
0.000546667227101561
0.000523782950786323
0.000540819538154524
0.000469722336465327
0.00052668243541658
0.000590471256204056
0.000520524626189245
0.000534089255151451
0.000545631412833236
0.000512093357037598
0.000476412096839015
0.000457335915362568
0.000476101325622744
0.000480399780750041
0.00042049377795637
0.00042861412708345
0.000421954286112978
0.000423318223883199
0.000425507942879364
0.000420232149902931
0.000479751894868352
0.000412972841707109
0.00040168631785571
0.000447972534545898
0.000448854874313672
0.000454972305508605
0.000414658618570788
0.000384453271040765
0.000384953878203484
0.000387146833544271
0.00038268371169952
0.00034751008654798
0.000370459435897629
0.000325119192485797
0.000333375290578415
0.000337395613741727
0.000352129329032957
0.000327962941279004
0.000359229404717195
0.000344855282684391
0.000365767510401683
0.000353192126745189
0.000294174439795348
0.000329865067223661
0.000293576448203564
0.000346340820197363
0.00028431038736962
0.000290695699012427
0.000289835928695572
0.000322481718557197
0.000313078501184492
0.000347113878795876
0.000323643944203515
0.000324440833743573
0.000298250448538544
0.000272825248250687
0.000302995882010647
0.000314766150772172
0.000308748771493075
0.000297043720698873
0.000315021259818878
0.00030624264425901
0.000310219831596599
0.00031392314232189
0.000376079949423071
0.000297914950126177
0.000281313629497471
0.000298434177642966
0.000321138730936064
0.000303099107400417
0.000291574896605584
0.000297812747147267
0.00032268154979053
0.000287976986310002
0.000294835725641812
0.000295182532154855
0.000313004606075439
0.000286965246511696
0.000287502621362279
0.000311095170271236
0.000325890145871648
0.000334614362572823
0.000293683615375767
0.000306449809394409
0.000298574432471059
0.000334078493324191
0.000318982151636104
0.000321447453818463
0.000319990718114956
0.000348388235157662
0.000323324481276581
0.000285320597610806
0.000296164260901428
0.000338854262704247
0.000319101450862061
0.000309427949308492
0.000297229045460494
0.000276733715870719
0.000307537688995115
0.000328110350133256
0.000310021843929916
0.000312347351851104
0.000299080861796516
0.000298730789506139
0.000308280988466017
0.0003528804303806
0.000315447154050551
0.000302274878141622
0.000292458570564448
0.000314537441557965
0.000313058511599686
0.000266910163909272
0.000335144155233406
0.000316903243574478
0.00030889775028271
0.000290104896353059
0.00029803612300509
0.000313130866307272
0.000326088996202205
0.000303344519773443
0.000301689017688823
0.000320215769064142
0.000242190169495253
0.000332920105353402
0.000324231095234971
0.00032071610339125
0.000257926507416253
0.000283387989726513
0.000300828310131286
0.000298836094248815
0.000349689108972619
0.000306968551969089
0.000305710299496343
0.000329345378036973
0.000307744712050956
0.000312079933390425
0.00029330451784482
0.000340059463734794
0.000271547870692924
0.000316589443074432
0.000309915368899148
0.000335075653949034
0.000304208885721826
0.000342502936829323
0.000271580333670107
0.000336067803796663
0.000268610622182406
0.000291481120888012
0.000357142660938108
0.000343196660106607
0.000267786250123311
0.000319908797531142
0.000314303750116582
0.000302937446643073
0.000261799155177566
0.000339628497588411
0.000326802228689464
0.000301381652997184
0.000311406049151132
0.000315191699885844
0.000294304376783325
0.000332246593126691
0.000253979902762798
0.000250028951981003
0.000282165859528612
0.000348277092922566
0.000304467580512843
0.000278274597258114
0.000323592400022767
0.000259604637784848
0.000329481963426912
0.000321398356260395
0.000341285525936196
0.000312974064337801
0.000339490507901091
0.000285268123508104
0.000262770392470147
0.000131267395487081
0.000100240466499474
9.24232909031171e-05
8.37647065133377e-05
0.000107531963109113
0.000104204909836678
8.55308797595628e-05
0.000122216767967093
0.000104908330110821
0.000105432721979773
0.00011482992767003
8.64386023821434e-05
7.93160136318603e-05
0.000105863603798009
8.61684277770035e-05
9.21956680702535e-05
0.000116855014432523
9.96226628394045e-05
0.000105553467117331
9.26046922734273e-05
9.25672958361004e-05
9.36446640369203e-05
0.00010093865578186
0.000101483709054673
0.00011135826040559
9.74515335005166e-05
9.14053878733269e-05
8.12952214348049e-05
0.000112704469384071
8.45909100757919e-05
0.000103367813608552
8.76227325788035e-05
0.000116258893012318
7.67607370451977e-05
0.000106068132957963
0.000100423382929043
9.24836321191539e-05
9.86159352040968e-05
0.000108050468005568
9.95290501388291e-05
8.55071131526529e-05
9.89256092428701e-05
0.000104755792354918
8.75004469705827e-05
9.92601405001604e-05
8.46154312034778e-05
9.15759622532714e-05
0.000105326199225903
0.000108059466753639
7.74047051797703e-05
0.000115896271601437
0.000109815864179071
0.000109953218709868
0.000105703859013871
8.68154197364333e-05
9.99641210374623e-05
0.000100760848801327
9.75463609175619e-05
0.000100335265944094
9.47225352251388e-05
0.000110236049711011
0.000110801892942048
9.36922610059394e-05
9.59527576230263e-05
6.98697227881469e-05
0.000102696785877032
8.8425115356303e-05
9.53143845042552e-05
9.50604771868543e-05
0.000105547774858957
0.000121398108012245
9.62223572636298e-05
9.87479080980052e-05
0.000111785378093213
8.42801046240444e-05
0.000112574270021109
9.2124589949648e-05
8.14470933438023e-05
0.000104681047924711
0.000112995616833996
0.000108731748529019
0.000107852510936742
0.000107808934660185
0.000111899909514943
0.000108406559626737
0.000104480303162173
9.54860516714148e-05
0.000105549299972175
0.000101975328547897
0.000112260479138481
9.55814342025074e-05
9.29481148543365e-05
9.2203119380936e-05
0.000103838953978932
0.000109553360336412
0.000109869901073379
9.89890883578715e-05
0.00011611746243775
9.4556235125716e-05
0.000101767508354642
7.52422328845531e-05
9.19418533588462e-05
8.80861445000203e-05
7.96764808202562e-05
9.86633134261729e-05
7.63252540995188e-05
9.20719866701865e-05
0.000100864263960334
9.74236694823742e-05
0.000109851927370068
9.31370209839857e-05
8.7773976882446e-05
9.46350762437197e-05
9.98547227544305e-05
0.000104506452986552
0.0001308068916335
9.05764221200134e-05
9.56593047063538e-05
9.85739569030057e-05
8.84226978231965e-05
9.17206573537778e-05
0.000106799235716671
9.66217419631148e-05
8.55456873978412e-05
9.79432673430074e-05
9.1271574735115e-05
0.000115745211294784
0.000118053261804428
0.000128190432814839
9.90250962094462e-05
7.97399045828048e-05
0.00010095934494245
0.000104276257728472
0.000105041661357437
0.000109377126839276
9.4283614546201e-05
9.85860325406484e-05
9.12396078911094e-05
7.31335250129026e-05
0.000107636819101885
8.49062406132065e-05
0.000100579551687615
0.000102018051132203
9.33299942428012e-05
9.42151992749926e-05
0.000102600408317953
9.02978459406753e-05
9.03931788543049e-05
0.000112940229057908
8.64314904482839e-05
9.8263433098993e-05
8.27507210349034e-05
0.000116161149665755
9.16767457097813e-05
8.66170468943093e-05
0.000114345477809839
0.000112705550041711
8.50709878874851e-05
0.000105572054100612
9.92621142360531e-05
8.58554867150014e-05
0.000119865747835168
9.7612474140606e-05
7.82071204125203e-05
0.00011388158509672
0.000106238171793369
7.31776780750581e-05
0.000119590160857713
0.00010425900307626
8.37838102541802e-05
0.000106219672984597
8.63516722413842e-05
9.23864248117506e-05
9.48822361502533e-05
0.000101629194885274
8.38075050702608e-05
8.30605775749598e-05
8.72360147970024e-05
0.000111116134692747
8.23608776728512e-05
0.000102129849266662
0.00011201146706823
0.000101546593671932
9.21988620441781e-05
0.000105649928580157
8.98832869533549e-05
0.000117028667130508
9.75514381026171e-05
9.35616877514162e-05
9.98719306535743e-05
0.000101561712128121
9.02684353382087e-05
7.86083947057078e-05
9.33377888143606e-05
0.000113333484762853
8.24777853006809e-05
0.0001245118264212
9.14482450220095e-05
9.2211004923299e-05
0.000111644192578831
0.000101912367329422
0.000101799361320163
0.000101039825968668
0.000102714753289395
0.000100192099686672
0.000129215140788216
9.40622882372958e-05
0.000108354251316154
9.45927874804534e-05
9.47586787787458e-05
0.000119941216867437
0.000110772446629462
0.000108712782697165
0.000124555766833441
0.000128504962831264
9.63820190188224e-05
8.1471124262791e-05
0.000101834245806064
0.00011090216932432
0.000105421764707064
0.000103494501391351
0.000105576120420944
9.42291472641656e-05
8.25688905543936e-05
9.65362766473726e-05
9.7034341020556e-05
9.02355707569372e-05
9.56088789829369e-05
8.93811180590372e-05
0.000106733732726658
9.62461544282868e-05
0.000108527299449944
9.93066982482776e-05
9.96111672840315e-05
0.00010742770355388
9.98593829921419e-05
0.000112963706213639
0.000107213987369505
8.70914439896871e-05
0.000117989270518005
9.98264970456057e-05
9.08351023383103e-05
7.19782619614788e-05
9.75734737890905e-05
9.531113477253e-05
0.000115298037141683
0.000101905707346589
9.76019983232863e-05
9.70955304482553e-05
0.000101138683616478
9.37857123859831e-05
0.000114970717205303
0.000116357127104438
0.000114581697311114
0.000111004256263908
0.000112777078840915
9.04717276274285e-05
0.000101281568100045
9.429506708493e-05
0.000104348243376339
7.69025307951167e-05
9.21802399730652e-05
0.000112956857904033
8.20872004060378e-05
0.000101318369013093
0.000108398031364869
9.30752698584666e-05
7.4298657566627e-05
9.2994445847651e-05
0.000116231020074252
0.000105437640347778
8.46354635864436e-05
9.60134231604641e-05
0.000112215042224289
9.11712815299011e-05
0.00010211766605457
9.14061361994613e-05
0.00010322994842358
0.000124804697420225
0.000105316064498731
9.64287780070834e-05
0.000105210698629102
9.20132831422883e-05
9.7621522757984e-05
0.00010557290806592
9.35039861367077e-05
8.78266286788192e-05
9.57797500532047e-05
7.16793145422944e-05
0.000114627877242951
9.67097903867797e-05
0.000101585093384733
9.43919525203696e-05
9.2995010414121e-05
0.000101066705555306
0.000128699414692431
9.45040496377717e-05
9.54969618967996e-05
0.000111071989969592
0.000121359776080099
0.000100995557209637
0.00010873070660041
0.000105606860286493
0.000120298194091225
8.25848087744091e-05
8.72213766969437e-05
0.000101212867039732
9.15937002055276e-05
0.000103806882820362
9.32257385291821e-05
8.15697365944576e-05
0.000100625620415578
9.8946846128949e-05
0.00010836692273071
9.82191821831443e-05
0.000117392187901614
0.00012811314695944
0.000114787956086891
9.5779613765853e-05
9.67021275819487e-05
0.000109133223942454
0.000101797481929813
9.59749812900564e-05
0.000119156161979161
8.58192620151229e-05
8.13215263528619e-05
9.57193487916554e-05
8.23169015989845e-05
8.43025783378721e-05
8.84657947285811e-05
9.84745583575254e-05
9.87217438729695e-05
0.000101199529126751
0.000100083824200102
0.000108615818270895
0.000130978445483883
9.43743791032936e-05
9.57069882805344e-05
9.36240879143669e-05
0.000106142141652583
9.20857045398681e-05
9.92263977674711e-05
8.75521020120989e-05
8.02626367326623e-05
9.49882455369636e-05
0.000112987233053975
0.000112291016867832
0.000112314151717565
9.67544580991756e-05
8.71971062505085e-05
0.000103401228367865
9.42267291887936e-05
9.68918777945978e-05
9.93303236513324e-05
0.000127200233429504
8.53970525387252e-05
0.000110150349494199
0.000102345965668947
8.96210228667142e-05
0.000102545826250399
9.88119203981044e-05
0.000105259088046028
0.000107807472642172
9.34336537061374e-05
9.67833761703155e-05
9.8404330847621e-05
8.84563197451075e-05
0.000106551108326971
9.29096062103903e-05
)
;

boundaryField
{
    partSide
    {
        type            symmetry;
    }
    partBound
    {
        type            zeroGradient;
    }
    nullDims
    {
        type            empty;
    }
}


// ************************************************************************* //
