/*--------------------------------*- C++ -*----------------------------------*\
  =========                 |
  \\      /  F ield         | OpenFOAM: The Open Source CFD Toolbox
   \\    /   O peration     | Website:  https://openfoam.org
    \\  /    A nd           | Version:  7
     \\/     M anipulation  |
\*---------------------------------------------------------------------------*/
FoamFile
{
    version     2.0;
    format      ascii;
    class       volScalarField;
    location    "0.00108";
    object      internalE;
}
// * * * * * * * * * * * * * * * * * * * * * * * * * * * * * * * * * * * * * //

dimensions      [1 -1 -2 0 0 0 0];

internalField   nonuniform List<scalar> 
125
(
1079.16
1232.45
1197.24
1134.78
1092.94
1278.42
894.925
1328.23
1143.01
1228.34
1038.03
1024.96
1053.61
1193.97
1050.62
1100.71
971.523
1166.58
1172.78
1097.37
976.554
1154.33
929.566
1316.78
1025.84
1388.94
1127.99
1110.32
980.144
1141.51
1115.76
1143.18
1201.98
1242.36
1041.51
1048.29
1136.37
1185.9
1169.65
1140.94
1267.54
1113.68
1213.05
1229.34
1002.81
1039.83
1176.35
1131.31
1068.5
964.169
988.068
1170.05
1094.05
973.849
1429.37
967.271
991.474
1320.27
939.723
1198.74
1258.12
1063.88
841.979
1094.11
1099.68
898.428
1235.73
1195.77
1116.21
1108.84
1035.34
1261.63
1088.75
1098.99
1032.82
1329.76
1275.95
974.365
1239.29
1062.55
1046.32
931.961
975.933
907.005
937.289
762.105
824.88
827.822
965.63
808.946
782.25
849.048
707.839
774.556
673.885
758.875
910.272
655.9
753.53
764.034
594.498
549.622
515.893
690.365
622.069
519.452
480.541
569.37
694.329
419.779
479.154
564.235
435.059
536.231
526.446
440.949
475.252
416.207
468.134
432.049
378.02
453.403
471.196
444.308
476.022
)
;

boundaryField
{
    sides
    {
        type            symmetry;
    }
    empty
    {
        type            empty;
    }
    procBoundary1to0
    {
        type            processor;
        value           uniform 1110.27;
    }
    procBoundary1to2
    {
        type            processor;
        value           uniform 506.794;
    }
}


// ************************************************************************* //
