/*--------------------------------*- C++ -*----------------------------------*\
  =========                 |
  \\      /  F ield         | OpenFOAM: The Open Source CFD Toolbox
   \\    /   O peration     | Website:  https://openfoam.org
    \\  /    A nd           | Version:  7
     \\/     M anipulation  |
\*---------------------------------------------------------------------------*/
FoamFile
{
    version     2.0;
    format      ascii;
    class       volScalarField;
    location    "0.00108";
    object      linearKE;
}
// * * * * * * * * * * * * * * * * * * * * * * * * * * * * * * * * * * * * * //

dimensions      [1 -1 -2 0 0 0 0];

internalField   nonuniform List<scalar> 
125
(
1581.08
1589.87
1572.48
1606.36
1552.9
1882.38
1496.78
1712.41
1775.93
2002.31
1437.22
1662.47
1681.57
1456.55
1571.6
1810.37
1525.97
1829.96
1914.44
1836.37
1623.79
1659.51
1424.84
1819.67
1645.05
1671.69
1860.21
1854.27
1562.92
1587.68
1609.71
1627.02
1598.12
1926.02
1693.41
1543.43
1816.32
1805.68
1800.27
1748.73
1788.83
1585.18
1621.51
1611.02
1691.87
1630.41
1820.04
1896
1689.64
1368.66
1579.85
1888.09
1759.61
1455.47
1914.34
1548.15
1745.99
1621.63
1463.75
1809.42
1625.87
1793.36
1525.5
1589.77
1479.64
1595.6
1920.92
1784.77
1818.4
1890.83
1630.98
1657.03
1548.43
1563.63
1530.62
1761.19
1701.07
1587.26
1767.01
1641.52
1362.76
1537
1502.34
1448.99
1556.96
1174.94
1336.52
1406.43
1394.61
1356.37
1306.25
1276.42
1065.01
1206.66
1078.58
1265.94
1403
1203.15
1133.86
1023.57
981.857
971.345
936.864
1074.05
986.377
970.292
971.531
1134.57
1060.7
831.502
936.558
887.254
984.596
909.745
856.697
714.159
871.265
827.735
765.737
792.97
648.819
732.081
714.477
843.063
854.668
)
;

boundaryField
{
    sides
    {
        type            symmetry;
    }
    empty
    {
        type            empty;
    }
    procBoundary1to0
    {
        type            processor;
        value           uniform 1644.88;
    }
    procBoundary1to2
    {
        type            processor;
        value           uniform 772.246;
    }
}


// ************************************************************************* //
