/*--------------------------------*- C++ -*----------------------------------*\
  =========                 |
  \\      /  F ield         | OpenFOAM: The Open Source CFD Toolbox
   \\    /   O peration     | Website:  https://openfoam.org
    \\  /    A nd           | Version:  7
     \\/     M anipulation  |
\*---------------------------------------------------------------------------*/
FoamFile
{
    version     2.0;
    format      ascii;
    class       volVectorField;
    location    "0.00108";
    object      momentum;
}
// * * * * * * * * * * * * * * * * * * * * * * * * * * * * * * * * * * * * * //

dimensions      [1 -2 -1 0 0 0 0];

internalField   nonuniform List<vector> 
125
(
(0.0500564 0.123221 -0.199812)
(-0.0324643 -0.134918 0.145834)
(0.202649 -0.107757 -0.0477639)
(-0.0434876 -0.0351436 -0.160307)
(-0.188121 0.0612305 0.230314)
(0.0357486 0.117934 -0.0563277)
(-0.0234364 0.0878846 0.0837928)
(-0.138982 0.00578357 0.125909)
(-0.143944 -0.0511164 -0.0356218)
(0.0491095 -0.078 0.113914)
(-0.314127 0.0449423 -0.0417397)
(0.0285225 -0.205957 0.173296)
(-0.000232641 0.129751 -0.0668752)
(0.117319 0.0256769 -0.0328642)
(-0.0515277 0.101046 0.150531)
(0.0351921 0.0674458 0.271882)
(0.258506 0.0302954 -0.0924662)
(-0.0150999 0.0285407 -0.0137773)
(-0.0745179 0.175453 -0.0132057)
(-0.0046016 -0.176025 -0.103969)
(-0.0496464 0.0912444 0.205654)
(-0.0404468 0.0979498 -0.036404)
(0.0959686 -0.051069 -0.00272883)
(-0.0957678 -0.0926292 0.0793449)
(-0.0364845 -0.131497 -0.114218)
(0.140637 -0.0379059 -0.120982)
(0.20216 -0.0862047 0.188394)
(-0.0682133 0.135192 0.0373264)
(-0.0229952 0.0156211 -0.00535137)
(0.0299146 0.0813093 -0.176517)
(-0.017264 -0.422998 0.26945)
(-0.0176268 0.151723 0.172284)
(0.1993 0.00963162 0.0254673)
(0.0227705 -0.0742278 -0.126493)
(-0.162935 -0.191755 -0.186081)
(0.055126 0.0826889 -0.0549143)
(-0.00510076 -0.10475 0.176625)
(-0.117548 0.048741 0.00736999)
(0.259234 0.335503 -0.336281)
(-0.0031895 -0.0141493 -0.067927)
(0.0128622 0.0381364 -0.265271)
(-0.0607768 0.0557256 -0.0432474)
(-0.139916 -0.0773542 0.0163483)
(-0.00489101 0.0357407 0.243196)
(-0.134885 -0.085571 0.0483797)
(-0.125835 0.101517 0.00968506)
(-0.0420126 -0.0422564 -0.248941)
(-0.149134 -0.245284 0.0450793)
(0.058234 -0.255372 0.0918759)
(0.0293492 -0.163018 -0.018739)
(-0.018282 0.168592 -0.199278)
(-0.0626185 0.023328 -0.143325)
(-0.131224 -0.189874 -0.00216406)
(0.0149022 -0.0690029 0.0955296)
(0.20448 0.243031 -0.0389393)
(0.162734 -0.102659 0.0918566)
(0.260589 0.191919 -0.0100467)
(-0.0510671 0.083198 0.118212)
(-0.127335 0.0234882 -0.0553808)
(-0.124505 -0.0359701 0.184807)
(0.0295598 0.0801767 -0.0116215)
(0.169686 0.153803 0.00775215)
(0.19461 0.105669 -0.0232813)
(-0.205645 -0.0451967 0.0320865)
(-0.082307 0.0938143 -0.246438)
(0.0371074 0.0530977 0.275231)
(-0.0705011 0.144923 -0.110652)
(-0.00935249 0.0222848 0.0579032)
(0.254658 0.219478 -0.0278411)
(0.160457 -0.133683 -0.0428493)
(-0.240077 -0.314429 -0.000159462)
(0.00528693 0.0635894 -0.0603283)
(0.184427 -0.161121 0.166714)
(0.22489 -0.0852768 -0.00992378)
(-0.189936 -0.107457 0.111557)
(-0.0401683 0.163848 -0.167679)
(0.190645 -0.00305501 -0.341763)
(-0.074684 -0.0892053 0.256649)
(0.374234 0.0256071 0.00375635)
(0.155574 0.00839444 0.180644)
(0.0535128 -0.101451 -0.0316942)
(0.38571 0.103245 -0.079192)
(0.266382 0.291877 -0.0334714)
(0.240057 0.237289 0.115433)
(0.14218 -0.0952613 0.0224913)
(0.516485 -0.00454988 -0.0676109)
(0.037764 0.0043617 0.0187506)
(0.252714 -0.0402083 0.0241831)
(0.606122 -0.0469196 -0.128697)
(0.554931 0.0335838 0.0545556)
(0.495425 -0.0282618 -0.0685496)
(0.575437 -0.0137336 -0.227942)
(0.642653 -0.00342891 0.162228)
(0.608191 0.130466 -0.164022)
(0.622755 0.0492595 0.09712)
(0.685655 0.0399609 0.143702)
(0.580798 0.0164061 0.00726438)
(0.612376 0.271072 0.109489)
(0.572192 -0.257439 -0.0352246)
(0.729057 0.216902 0.117256)
(0.566812 0.183029 -0.0699399)
(0.570556 0.0199461 -0.215174)
(0.557818 -0.0607491 -0.170519)
(0.741457 0.0673515 0.157251)
(0.715469 0.0792584 -0.0313981)
(0.641039 0.00796221 0.0114621)
(0.773913 0.0639398 0.0613704)
(0.849668 -0.0326671 0.10537)
(0.956891 -0.0549813 -0.15504)
(0.687672 0.0577849 -0.067854)
(0.9311 0.131325 0.00521802)
(0.796121 0.109126 -0.0252861)
(0.952137 -0.0907059 0.0797774)
(0.903332 -0.00971331 0.0763674)
(0.803316 0.0557439 -0.0493586)
(0.716712 -0.0683743 0.0562582)
(0.886966 0.0396385 0.0269028)
(0.914092 -0.0120394 0.0178116)
(0.735698 -0.0705703 -0.00940218)
(0.938549 0.0427508 -0.0309524)
(0.707413 0.0502483 -0.00523321)
(0.732896 -0.134837 -0.214172)
(0.720588 -0.0546817 -0.0186206)
(0.896647 -0.0891852 -0.0242991)
(0.886628 -0.00361465 0.0506771)
)
;

boundaryField
{
    sides
    {
        type            symmetry;
    }
    empty
    {
        type            empty;
    }
    procBoundary1to0
    {
        type            processor;
        value           uniform (-0.0115824 -0.156568 0.401188);
    }
    procBoundary1to2
    {
        type            processor;
        value           uniform (0.825709 -0.0588145 0.0860479);
    }
}


// ************************************************************************* //
