/*--------------------------------*- C++ -*----------------------------------*\
  =========                 |
  \\      /  F ield         | OpenFOAM: The Open Source CFD Toolbox
   \\    /   O peration     | Website:  https://openfoam.org
    \\  /    A nd           | Version:  7
     \\/     M anipulation  |
\*---------------------------------------------------------------------------*/
FoamFile
{
    version     2.0;
    format      ascii;
    class       volScalarField;
    location    "0.0006";
    object      linearKE;
}
// * * * * * * * * * * * * * * * * * * * * * * * * * * * * * * * * * * * * * //

dimensions      [1 -1 -2 0 0 0 0];

internalField   nonuniform List<scalar> 
1000
(
0.205613
0.460138
0.431226
0.415494
0.528649
0.468418
0.371848
0.436574
0.402704
0.478239
0.298119
0.561902
0.429634
0.648335
0.509971
0.523747
0.621592
0.725669
0.562272
0.759272
0.569841
0.704658
0.765291
0.650046
0.638366
0.883541
0.970002
0.648852
0.766975
0.907759
0.705251
0.509526
0.890384
0.516603
0.673842
0.652212
0.930148
0.741705
0.743351
0.51006
0.847315
0.745438
0.687212
0.534208
0.688877
0.598788
0.722667
1.0307
0.764713
0.714651
0.843197
0.870668
0.582701
0.844251
0.812132
0.857983
0.836518
0.797427
0.847188
0.74028
0.979684
0.928219
0.680772
0.603043
0.758048
0.613802
1.05628
0.837432
0.883557
0.74569
0.58469
0.647083
0.571562
0.918803
0.88771
0.745077
0.654698
0.783438
0.654233
0.841506
0.900931
0.528827
0.53248
0.848473
0.797734
0.731472
0.85471
0.738519
0.679344
0.875541
1.04677
0.560787
0.952434
0.641054
0.918708
1.01073
0.721424
0.710552
0.9866
0.712446
0.423044
0.733044
0.812102
0.972598
0.587171
0.370199
0.543402
0.759528
1.00461
0.566977
0.961891
0.75656
0.810978
0.48359
0.574858
0.857422
0.670434
0.900811
0.860257
0.908907
0.609682
0.821101
0.686445
0.859726
0.903454
0.711668
1.07684
0.721442
0.772894
0.635173
0.663375
0.694843
0.429565
0.773754
0.653362
0.709812
0.725331
0.83786
0.74597
0.692298
0.985026
0.917366
1.07946
0.509211
0.691531
0.649622
0.60536
0.866366
0.513123
0.642833
0.658764
0.671552
0.747692
0.552177
1.00638
1.09151
0.911863
0.889809
0.825772
0.665307
0.68238
0.887105
0.696957
0.617904
0.67336
0.741547
0.881902
0.723641
0.681635
0.800676
1.13042
0.469262
0.893267
0.610558
0.655852
1.10932
0.71274
0.574165
0.912624
0.820905
1.01546
0.678821
0.760659
0.915194
0.727071
0.628814
0.792776
0.942561
0.688753
0.694976
0.897504
0.958923
0.705023
0.561007
0.584344
0.715463
0.736234
0.558527
0.932539
0.70213
0.709583
0.73821
0.713882
0.794619
0.689317
0.532115
0.77747
0.753241
0.932245
0.762895
0.858786
0.72704
0.855156
0.593361
0.805688
0.656658
0.87524
0.813943
0.806331
0.950476
0.83198
0.654826
0.691251
0.563942
0.771833
0.703851
0.654048
0.832221
0.868975
0.711063
0.679647
0.598337
0.835086
0.855299
0.737421
0.708298
0.659904
0.72402
0.886348
0.537041
0.844772
0.971316
0.746485
0.745007
0.690488
0.942629
0.766126
0.678232
1.11248
0.807048
0.869238
0.912953
0.855102
0.827118
0.683905
0.699849
0.757571
0.872422
0.68521
0.729629
0.71196
0.911691
0.752797
0.845987
0.815136
0.921345
0.696382
0.717006
0.929911
0.986993
0.727492
0.646671
0.637143
0.802579
0.900266
0.535161
0.842264
0.620596
0.717705
0.757495
0.678546
1.08052
0.907096
0.782759
0.740767
0.673521
0.6404
1.04149
0.915385
0.626105
0.772788
0.620633
0.782335
0.811822
0.656889
0.726378
0.780877
0.764984
0.852301
0.753527
0.661444
0.742115
0.647275
0.652061
0.669214
0.708128
0.795517
0.549067
0.90105
0.8692
0.835051
0.741521
0.752916
0.588368
0.574804
0.520143
0.59728
0.880349
1.02444
0.771383
0.496776
0.768635
0.962863
0.811915
0.613515
0.786291
0.693861
0.719131
0.716197
0.961113
1.16227
0.984056
0.973852
0.939286
0.521586
0.587581
0.709207
0.826251
0.751756
0.799604
0.638838
0.857809
0.850411
0.744836
0.686207
0.783408
0.624187
0.90287
0.877704
0.765942
0.37899
0.814181
0.597056
0.74785
1.11329
0.7741
0.533777
0.714002
0.64306
0.884954
0.866394
0.920902
0.864878
0.837843
0.679984
0.82036
1.00265
0.804705
0.765466
0.613744
0.691839
0.629083
0.842906
0.719354
0.934792
0.530933
0.702388
0.48682
0.460579
0.857464
0.733843
0.668571
0.887146
0.583251
0.777297
0.694173
0.963433
0.770365
0.807497
0.715339
0.707246
0.718816
0.761986
0.527413
0.854376
0.571616
0.816648
0.798098
0.651332
0.688106
0.523512
0.847969
0.857132
0.957682
0.578392
1.10371
0.520691
0.60213
0.891308
0.601825
0.885734
0.830145
0.92399
0.579125
0.491325
0.574979
0.570446
0.918826
0.91544
0.669275
0.614801
0.849992
0.706331
0.758343
1.01604
0.688315
0.892583
1.04695
0.759055
0.625227
0.606943
0.868215
0.800977
0.987161
0.783698
0.845152
0.91174
0.65149
0.697474
0.687662
0.630966
0.815591
0.639343
0.812951
0.672351
0.659236
0.669192
0.840794
0.72805
0.57881
0.713338
0.727501
0.683175
0.773381
0.837634
0.753282
0.672492
0.726741
0.351855
0.800992
0.619562
1.04069
0.719432
0.926817
0.795676
0.702208
0.8861
0.829665
0.856039
0.987592
0.951247
1.28351
1.07547
1.14185
1.216
1.40293
1.1858
1.37397
1.26077
1.61676
1.73542
1.93533
1.30156
1.75997
1.77771
1.07847
1.30546
1.51173
1.54448
1.38688
1.59132
1.56237
1.49242
1.62687
1.76005
1.60079
1.53873
1.22443
1.31843
1.61691
1.7285
1.21867
1.35806
1.3914
1.81584
1.34409
1.79251
1.42483
1.94269
1.83099
1.67677
1.75189
2.01982
1.76934
2.26717
2.29694
1.78082
1.86854
2.7807
2.44697
2.1937
2.65961
2.3074
2.56991
2.4272
2.34294
2.62415
2.16615
2.79261
2.89709
2.94154
2.74621
2.96138
2.54388
2.61618
2.66641
3.08045
2.34941
2.50786
2.78921
2.94817
2.50982
2.08248
2.80793
2.21265
2.91178
2.79498
2.40432
2.45369
2.72603
2.70556
2.53328
2.49935
2.56649
2.75345
2.14837
2.5673
2.41077
2.89802
2.775
2.71996
2.61906
2.66693
2.33826
2.42836
2.62952
2.63676
2.28776
2.77853
2.08774
2.37295
2.23251
2.60904
2.27941
2.52043
2.2616
2.81104
2.31743
2.91644
2.87233
3.20213
2.37068
2.47769
2.62321
2.62481
2.75165
2.95356
2.48116
2.34924
2.71113
2.66508
2.8732
2.25391
2.66514
2.41616
2.61252
1.84265
2.44538
2.30975
2.4657
2.88604
2.65614
2.61046
2.28549
2.86563
2.4354
2.95295
2.88593
2.49772
2.87831
2.51056
2.64307
2.0797
2.46394
2.50719
2.43975
3.42174
2.30885
3.04898
2.20338
3.03473
2.71103
2.56519
2.58137
2.38688
2.58533
2.60163
2.60011
2.98718
2.15813
2.25811
2.58129
2.72571
2.7651
2.59702
2.08208
3.17369
2.55382
2.74131
2.61688
2.40972
2.53801
2.54147
2.73443
2.21456
2.36733
2.99424
2.69082
2.64276
2.61796
2.01204
2.91251
2.83907
2.7759
2.73462
2.74322
2.45177
2.37939
2.2534
2.386
2.64137
2.55742
2.50401
2.60004
2.5374
2.51108
2.44119
2.79392
2.73693
2.77581
2.41449
2.46297
3.04681
2.6262
2.36895
2.51858
2.54788
2.63576
2.36624
2.81215
2.65098
2.70465
3.01498
2.67473
2.66938
2.3433
2.58915
3.14843
2.74312
2.71846
2.39668
2.64953
2.59143
2.58953
2.8031
2.47179
3.17473
2.92509
2.88786
2.95031
2.75244
2.67469
2.9951
2.90384
2.72797
1.9975
2.66021
2.81855
2.48231
2.53616
2.98112
2.61906
2.86411
2.5719
2.78793
2.72545
2.70623
2.21604
2.47257
2.29462
2.3979
2.73296
3.05647
2.89223
2.60563
2.75213
2.27503
2.37658
2.75258
2.95392
3.00798
2.28747
2.40897
2.38975
3.03275
2.73403
3.06024
2.7475
2.54233
2.64211
2.28102
2.79807
2.51808
2.78601
2.44571
2.64662
2.5936
2.67129
2.48962
2.35006
2.31044
2.59594
2.69694
2.62743
2.68509
2.40738
2.40001
2.88057
2.39717
2.054
2.27127
2.43591
2.69232
2.69334
2.56451
2.60573
2.79394
2.9356
3.301
2.46342
3.04037
2.73859
2.46111
2.73141
2.22335
2.47952
2.71474
2.70422
3.13514
2.08962
2.22723
2.66573
2.70052
2.64666
2.38898
2.43373
2.54351
3.1646
2.57949
2.50947
2.84882
2.79885
2.28105
2.32794
3.33314
2.7894
2.55341
2.67278
2.83184
2.22171
2.56025
2.59025
2.60032
3.02495
2.98909
2.44914
2.46661
2.86274
2.49443
2.30958
2.51946
2.95264
2.85265
2.70979
2.24454
3.03296
2.59815
2.09194
2.55284
2.91087
2.90485
2.61407
2.51175
3.05738
2.81996
3.25548
2.63597
2.85702
2.20453
2.77329
2.68424
2.8439
2.61855
2.12081
2.81092
2.60117
2.62225
2.84882
2.67866
2.55266
2.25363
2.50518
2.59107
2.69423
2.95003
2.81356
2.63534
2.60604
2.33056
2.19359
2.83332
3.15081
2.98905
2.51637
2.96556
2.7073
2.67011
3.24624
2.59232
2.90876
3.05372
2.38729
2.39702
2.39538
2.50999
2.70782
2.08955
2.6386
2.70203
1.85806
2.79413
2.3382
2.82293
2.93944
2.82296
2.52608
2.44392
2.31861
2.73142
2.54799
2.63494
2.57919
3.1082
2.32302
2.44975
2.18013
2.00473
2.3879
3.14371
2.21103
2.83467
2.50423
2.71135
2.81837
2.78791
2.37552
2.59272
2.88155
2.765
2.58784
2.44032
2.80253
3.06946
2.54818
2.46135
2.53794
3.01459
2.54452
2.25524
2.56989
2.6857
2.65998
2.62742
2.59563
2.44928
2.16851
2.60258
2.58462
2.97424
2.44473
3.10614
2.62175
2.46793
2.42053
2.44434
2.33734
2.86241
2.53317
1.95238
2.53892
2.9297
3.2156
2.41186
2.3152
2.75841
2.72731
3.14383
2.6134
2.636
2.8584
2.39097
2.66803
2.43881
2.46782
2.22465
3.16505
2.27295
2.71217
2.77128
3.05671
2.6572
2.61257
2.84161
2.65214
2.38097
2.95825
2.86948
3.08075
2.6927
2.85511
2.62663
2.49947
2.19904
2.82509
2.77157
2.68348
2.74108
2.56998
2.69078
2.19971
2.99338
2.7305
2.73881
2.63094
2.54656
2.65776
2.93655
2.38882
2.30617
2.29618
2.02307
1.77772
2.22921
1.75819
1.62585
1.84647
1.74575
1.82407
1.5369
1.61899
1.42467
1.20455
1.20642
1.52242
1.35446
1.16825
1.17808
1.11175
0.571134
0.863225
)
;

boundaryField
{
    sides
    {
        type            zeroGradient;
    }
    empty
    {
        type            empty;
    }
}


// ************************************************************************* //
