/*--------------------------------*- C++ -*----------------------------------*\
  =========                 |
  \\      /  F ield         | OpenFOAM: The Open Source CFD Toolbox
   \\    /   O peration     | Website:  https://openfoam.org
    \\  /    A nd           | Version:  7
     \\/     M anipulation  |
\*---------------------------------------------------------------------------*/
FoamFile
{
    version     2.0;
    format      ascii;
    class       volScalarField;
    location    "0.0006";
    object      rhoNMean;
}
// * * * * * * * * * * * * * * * * * * * * * * * * * * * * * * * * * * * * * //

dimensions      [0 -3 0 0 0 0 0];

internalField   nonuniform List<scalar> 
1000
(
5.83375e+19
6.9575e+19
7.81667e+19
8.49542e+19
8.49542e+19
9.27875e+19
9.69125e+19
1.00458e+20
1.03313e+20
1.05254e+20
1.0825e+20
1.14629e+20
1.07104e+20
1.17275e+20
1.15804e+20
1.17908e+20
1.2635e+20
1.27146e+20
1.20046e+20
1.28025e+20
1.20925e+20
1.18233e+20
1.18817e+20
1.24025e+20
1.21346e+20
1.22983e+20
1.19788e+20
1.30725e+20
1.20108e+20
1.21738e+20
1.19783e+20
1.16737e+20
1.26538e+20
1.20375e+20
1.21638e+20
1.25304e+20
1.17779e+20
1.22187e+20
1.12608e+20
1.16571e+20
1.21817e+20
1.27704e+20
1.21767e+20
1.20858e+20
1.19867e+20
1.20021e+20
1.24375e+20
1.29942e+20
1.18025e+20
1.14479e+20
1.18888e+20
1.194e+20
1.17954e+20
1.17125e+20
1.24542e+20
1.2705e+20
1.23083e+20
1.27533e+20
1.29354e+20
1.17358e+20
1.08329e+20
1.09179e+20
1.29308e+20
1.4e+20
1.22887e+20
1.2955e+20
1.26892e+20
1.26238e+20
1.22858e+20
1.22896e+20
1.22879e+20
1.16846e+20
1.21729e+20
1.22438e+20
1.30263e+20
1.36054e+20
1.17275e+20
1.15396e+20
1.20508e+20
1.21517e+20
1.26746e+20
1.29275e+20
1.29321e+20
1.21879e+20
1.14754e+20
1.18358e+20
1.25413e+20
1.20071e+20
1.25729e+20
1.26342e+20
1.27917e+20
1.26313e+20
1.2e+20
1.19871e+20
1.23471e+20
1.23821e+20
1.14146e+20
1.14746e+20
1.20075e+20
1.1425e+20
1.21092e+20
1.184e+20
1.27017e+20
1.22596e+20
1.21775e+20
1.29296e+20
1.20396e+20
1.26037e+20
1.26433e+20
1.22646e+20
1.16588e+20
1.17117e+20
1.28742e+20
1.23558e+20
1.24429e+20
1.17142e+20
1.19875e+20
1.20862e+20
1.1925e+20
1.28712e+20
1.28842e+20
1.23621e+20
1.17688e+20
1.15233e+20
1.18883e+20
1.32992e+20
1.24e+20
1.2065e+20
1.19704e+20
1.18996e+20
1.19025e+20
1.19654e+20
1.13346e+20
1.28042e+20
1.2685e+20
1.20346e+20
1.22583e+20
1.21796e+20
1.20146e+20
1.16404e+20
1.13954e+20
1.15163e+20
1.21296e+20
1.14171e+20
1.24458e+20
1.22958e+20
1.28321e+20
1.29742e+20
1.16192e+20
1.16842e+20
1.24863e+20
1.24192e+20
1.19821e+20
1.21529e+20
1.21421e+20
1.25729e+20
1.29888e+20
1.23725e+20
1.19596e+20
1.29467e+20
1.27221e+20
1.24479e+20
1.22783e+20
1.25225e+20
1.25154e+20
1.19192e+20
1.19371e+20
1.19692e+20
1.29825e+20
1.30529e+20
1.29067e+20
1.31525e+20
1.22438e+20
1.17946e+20
1.16538e+20
1.27208e+20
1.25117e+20
1.1825e+20
1.28704e+20
1.26842e+20
1.24083e+20
1.2155e+20
1.11858e+20
1.18754e+20
1.16529e+20
1.06683e+20
1.15271e+20
1.16221e+20
1.16829e+20
1.19596e+20
1.26846e+20
1.13146e+20
1.19367e+20
1.21858e+20
1.31183e+20
1.25183e+20
1.20262e+20
1.21433e+20
1.214e+20
1.15321e+20
1.20375e+20
1.16983e+20
1.19363e+20
1.2065e+20
1.11413e+20
1.11625e+20
1.14113e+20
1.21908e+20
1.26308e+20
1.22108e+20
1.26292e+20
1.31942e+20
1.31296e+20
1.32154e+20
1.37204e+20
1.34733e+20
1.42158e+20
1.31208e+20
1.23767e+20
1.21217e+20
1.22183e+20
1.28271e+20
1.23525e+20
1.13167e+20
1.12383e+20
1.15983e+20
1.17729e+20
1.14575e+20
1.10896e+20
1.18767e+20
1.24908e+20
1.27079e+20
1.22304e+20
1.21696e+20
1.14975e+20
1.21296e+20
1.20125e+20
1.21129e+20
1.24337e+20
1.23304e+20
1.17929e+20
1.29788e+20
1.32021e+20
1.26708e+20
1.32287e+20
1.27288e+20
1.23921e+20
1.22204e+20
1.17662e+20
1.23892e+20
1.28338e+20
1.31446e+20
1.21546e+20
1.24754e+20
1.16746e+20
1.28233e+20
1.17704e+20
1.2625e+20
1.21079e+20
1.299e+20
1.37704e+20
1.30654e+20
1.28e+20
1.20092e+20
1.13242e+20
1.19079e+20
1.26192e+20
1.27183e+20
1.31954e+20
1.21529e+20
1.26621e+20
1.23271e+20
1.21075e+20
1.21004e+20
1.15475e+20
1.18875e+20
1.25417e+20
1.29258e+20
1.26937e+20
1.29354e+20
1.15417e+20
1.24771e+20
1.23229e+20
1.2115e+20
1.18417e+20
1.21267e+20
1.19346e+20
1.22796e+20
1.17487e+20
1.22558e+20
1.25883e+20
1.24071e+20
1.2775e+20
1.18942e+20
1.23896e+20
1.21442e+20
1.26921e+20
1.24358e+20
1.24825e+20
1.2155e+20
1.16671e+20
1.19662e+20
1.15596e+20
1.121e+20
1.18725e+20
1.25329e+20
1.31317e+20
1.25204e+20
1.18787e+20
1.17454e+20
1.17854e+20
1.18758e+20
1.18617e+20
1.24179e+20
1.29904e+20
1.24233e+20
1.20321e+20
1.25171e+20
1.25517e+20
1.23267e+20
1.23042e+20
1.33721e+20
1.25113e+20
1.12117e+20
1.27225e+20
1.1965e+20
1.19146e+20
1.24242e+20
1.19704e+20
1.15817e+20
1.20942e+20
1.21375e+20
1.22692e+20
1.19854e+20
1.1825e+20
1.18321e+20
1.32733e+20
1.24383e+20
1.23654e+20
1.24196e+20
1.29921e+20
1.31804e+20
1.21454e+20
1.30496e+20
1.38271e+20
1.35958e+20
1.275e+20
1.22783e+20
1.23446e+20
1.1355e+20
1.11112e+20
1.15137e+20
1.17208e+20
1.25104e+20
1.28925e+20
1.30183e+20
1.31404e+20
1.23492e+20
1.30083e+20
1.20487e+20
1.14163e+20
1.26987e+20
1.17492e+20
1.18929e+20
1.15992e+20
1.28083e+20
1.26562e+20
1.35587e+20
1.35338e+20
1.31633e+20
1.24317e+20
1.23162e+20
1.16317e+20
1.09317e+20
1.27017e+20
1.20292e+20
1.19263e+20
1.16242e+20
1.12008e+20
1.19167e+20
1.19688e+20
1.23692e+20
1.22871e+20
1.23517e+20
1.19925e+20
1.14679e+20
1.187e+20
1.19858e+20
1.20575e+20
1.16221e+20
1.24108e+20
1.23646e+20
1.23167e+20
1.255e+20
1.1755e+20
1.17458e+20
1.27871e+20
1.20533e+20
1.14467e+20
1.14071e+20
1.16775e+20
1.14983e+20
1.17129e+20
1.24363e+20
1.17808e+20
1.17471e+20
1.27017e+20
1.18338e+20
1.27892e+20
1.28121e+20
1.30867e+20
1.26679e+20
1.20454e+20
1.21963e+20
1.18325e+20
1.15025e+20
1.21708e+20
1.20804e+20
1.20867e+20
1.21312e+20
1.23446e+20
1.24767e+20
1.29025e+20
1.30946e+20
1.36317e+20
1.36058e+20
1.28629e+20
1.28925e+20
1.35004e+20
1.34854e+20
1.27133e+20
1.22696e+20
1.14583e+20
1.23704e+20
1.27946e+20
1.19387e+20
1.13804e+20
1.19621e+20
1.13804e+20
1.09625e+20
1.042e+20
1.06067e+20
1.2055e+20
1.17813e+20
1.21317e+20
1.29012e+20
1.19621e+20
1.2775e+20
1.166e+20
1.23092e+20
1.17883e+20
1.17779e+20
1.13108e+20
1.22117e+20
1.21379e+20
1.14746e+20
1.2075e+20
1.25079e+20
1.1965e+20
1.21908e+20
1.19212e+20
1.18983e+20
1.22779e+20
1.26408e+20
1.24083e+20
1.23575e+20
1.14258e+20
1.23496e+20
1.25796e+20
1.25017e+20
1.27271e+20
1.34863e+20
1.31583e+20
1.36212e+20
1.2205e+20
1.32992e+20
1.34254e+20
1.32408e+20
1.23733e+20
1.32871e+20
1.40583e+20
1.38404e+20
1.4705e+20
1.6035e+20
1.50008e+20
1.43221e+20
1.49875e+20
1.52087e+20
1.67538e+20
1.77404e+20
1.72746e+20
1.70825e+20
1.85942e+20
2.03008e+20
1.97146e+20
2.06104e+20
2.17121e+20
2.25942e+20
2.38617e+20
2.56525e+20
2.85067e+20
2.86671e+20
2.99346e+20
3.19175e+20
3.34762e+20
3.50371e+20
3.71392e+20
3.60817e+20
3.71192e+20
3.71762e+20
3.75537e+20
3.73846e+20
3.99271e+20
3.76404e+20
3.83433e+20
3.89375e+20
4.0355e+20
4.04692e+20
4.15404e+20
4.16225e+20
4.12733e+20
4.07896e+20
4.02129e+20
4.15988e+20
4.33129e+20
4.42e+20
4.35758e+20
4.25733e+20
4.36825e+20
4.44675e+20
4.30604e+20
4.31987e+20
4.22912e+20
4.19321e+20
4.08779e+20
4.2225e+20
4.30917e+20
4.24379e+20
4.09775e+20
4.12404e+20
4.37183e+20
4.63467e+20
4.54008e+20
4.43354e+20
4.20475e+20
4.18121e+20
4.11496e+20
4.18217e+20
4.35237e+20
4.13996e+20
4.20537e+20
4.24646e+20
4.33608e+20
4.10962e+20
4.15867e+20
4.29042e+20
4.01667e+20
3.97308e+20
3.976e+20
4.02083e+20
4.21071e+20
4.04704e+20
4.05054e+20
4.20567e+20
4.08592e+20
3.9755e+20
4.08429e+20
4.12096e+20
4.17058e+20
4.08675e+20
4.10692e+20
4.17154e+20
4.2605e+20
4.22963e+20
4.10571e+20
4.35571e+20
4.40108e+20
4.42108e+20
4.32342e+20
4.42283e+20
4.24467e+20
4.25863e+20
4.19771e+20
4.22817e+20
4.04242e+20
4.11908e+20
4.21292e+20
4.19637e+20
4.29408e+20
4.22154e+20
4.30138e+20
4.25879e+20
4.23758e+20
4.23217e+20
4.199e+20
4.16687e+20
4.15096e+20
4.27558e+20
4.23113e+20
4.25321e+20
4.27108e+20
4.20846e+20
4.27617e+20
4.06254e+20
4.03346e+20
4.30925e+20
4.33458e+20
4.20546e+20
4.30396e+20
4.48033e+20
4.12858e+20
4.19687e+20
4.11371e+20
4.06088e+20
4.29967e+20
4.33529e+20
4.35333e+20
4.33654e+20
4.29287e+20
4.36042e+20
4.34962e+20
4.46533e+20
4.36162e+20
4.29863e+20
4.36896e+20
4.50146e+20
4.15912e+20
4.11438e+20
4.29379e+20
4.22775e+20
4.22004e+20
4.17763e+20
4.21358e+20
4.23533e+20
4.20046e+20
4.13533e+20
4.04075e+20
3.90554e+20
4.01117e+20
4.15679e+20
4.20317e+20
4.31158e+20
4.20142e+20
4.13067e+20
4.03954e+20
4.1325e+20
4.36508e+20
4.32092e+20
4.39379e+20
4.37542e+20
4.40779e+20
4.21629e+20
4.09433e+20
4.19071e+20
4.16437e+20
4.06308e+20
4.14842e+20
4.25062e+20
4.33171e+20
4.26629e+20
4.18308e+20
4.13104e+20
4.12121e+20
3.98696e+20
4.09788e+20
4.04371e+20
4.16779e+20
4.07121e+20
4.22996e+20
4.11479e+20
3.89537e+20
4.03996e+20
4.22821e+20
4.07925e+20
4.08742e+20
4.19079e+20
4.24196e+20
4.15958e+20
4.12254e+20
4.21392e+20
4.41717e+20
4.25958e+20
4.45446e+20
4.41692e+20
4.27329e+20
4.34225e+20
4.37117e+20
4.45125e+20
4.44842e+20
4.48388e+20
4.41808e+20
4.34312e+20
4.10792e+20
4.07592e+20
4.14238e+20
4.05746e+20
4.11512e+20
4.1565e+20
4.17208e+20
4.19408e+20
4.2075e+20
4.22362e+20
4.32863e+20
4.28354e+20
4.27842e+20
4.44408e+20
4.38063e+20
4.2285e+20
4.22913e+20
4.18758e+20
4.17296e+20
4.28537e+20
4.13067e+20
4.18742e+20
4.32767e+20
4.43817e+20
4.29554e+20
4.20075e+20
4.30713e+20
4.12196e+20
4.12283e+20
4.18746e+20
4.19825e+20
4.20317e+20
4.12538e+20
4.18358e+20
4.21387e+20
4.42263e+20
4.28746e+20
4.37913e+20
4.23537e+20
4.163e+20
4.13283e+20
4.46513e+20
4.39271e+20
4.21933e+20
4.21512e+20
4.15908e+20
4.29929e+20
4.34492e+20
4.32612e+20
4.29317e+20
4.29704e+20
4.12796e+20
4.13821e+20
3.96758e+20
3.94933e+20
4.12788e+20
4.17767e+20
4.06988e+20
4.25667e+20
4.32408e+20
4.25683e+20
4.29337e+20
4.24871e+20
4.30992e+20
4.07904e+20
4.10608e+20
4.25538e+20
4.17321e+20
4.15342e+20
4.18287e+20
4.31029e+20
4.13825e+20
4.08992e+20
4.27025e+20
4.27754e+20
4.27767e+20
4.05596e+20
4.228e+20
4.23371e+20
4.31954e+20
4.29063e+20
4.30196e+20
4.33796e+20
4.41908e+20
4.28812e+20
4.24725e+20
4.13125e+20
4.14967e+20
4.16796e+20
4.17088e+20
4.39371e+20
4.17946e+20
4.22779e+20
4.17021e+20
4.19925e+20
4.16942e+20
4.25504e+20
4.19967e+20
4.26904e+20
4.22942e+20
4.18829e+20
4.07517e+20
4.28571e+20
4.09738e+20
4.19933e+20
4.16538e+20
4.13092e+20
4.01346e+20
3.93933e+20
4.217e+20
4.34675e+20
4.56675e+20
4.49404e+20
4.54208e+20
4.37321e+20
4.30925e+20
4.35196e+20
4.33933e+20
4.32296e+20
4.28258e+20
4.22217e+20
4.3705e+20
4.18667e+20
4.12433e+20
4.10283e+20
4.23687e+20
4.21092e+20
4.28158e+20
4.25529e+20
4.24908e+20
4.28575e+20
4.19942e+20
4.15096e+20
4.04642e+20
4.28042e+20
4.10992e+20
4.08896e+20
4.15917e+20
4.22079e+20
4.37488e+20
4.40729e+20
4.24613e+20
4.19192e+20
4.13838e+20
4.3115e+20
4.27508e+20
4.29292e+20
4.3165e+20
4.28442e+20
4.40517e+20
4.23921e+20
4.19242e+20
4.11771e+20
4.27004e+20
4.27429e+20
4.22483e+20
4.36175e+20
4.29242e+20
4.37663e+20
4.18008e+20
4.17442e+20
4.24508e+20
4.25429e+20
4.33583e+20
4.28046e+20
4.35312e+20
4.19729e+20
4.24958e+20
4.28163e+20
4.33217e+20
4.14283e+20
4.32737e+20
4.15858e+20
4.21237e+20
4.20629e+20
4.26967e+20
4.13746e+20
4.05962e+20
4.18288e+20
4.14004e+20
4.11829e+20
4.12304e+20
4.13875e+20
4.21863e+20
4.19475e+20
4.22863e+20
4.11379e+20
4.1225e+20
4.16796e+20
4.1755e+20
4.34729e+20
4.37125e+20
4.23325e+20
4.35204e+20
4.22171e+20
4.17038e+20
4.28737e+20
4.14133e+20
4.19321e+20
4.03917e+20
4.06762e+20
4.05304e+20
4.23346e+20
4.31408e+20
4.3175e+20
4.32138e+20
4.17162e+20
4.28971e+20
4.26575e+20
4.16325e+20
4.14671e+20
3.91392e+20
4.04775e+20
3.99362e+20
4.18112e+20
4.208e+20
4.24108e+20
4.30313e+20
4.30604e+20
4.32146e+20
4.18846e+20
4.36492e+20
4.3e+20
4.35433e+20
4.38642e+20
4.39183e+20
4.34233e+20
4.38217e+20
4.29671e+20
4.28708e+20
4.19712e+20
4.11767e+20
4.15838e+20
4.16925e+20
4.09638e+20
4.33858e+20
4.12233e+20
4.2515e+20
4.28804e+20
4.25637e+20
4.16892e+20
4.09263e+20
4.15933e+20
4.18292e+20
4.14475e+20
4.08137e+20
4.10221e+20
4.13387e+20
4.194e+20
4.48646e+20
4.42854e+20
4.29083e+20
4.30004e+20
4.36475e+20
4.30325e+20
4.28379e+20
4.31129e+20
4.41688e+20
4.2695e+20
4.22442e+20
4.17746e+20
4.24521e+20
4.31196e+20
4.31404e+20
4.25821e+20
4.13558e+20
4.15229e+20
4.06471e+20
4.09933e+20
4.16383e+20
4.20517e+20
4.15542e+20
4.19296e+20
4.17963e+20
4.13525e+20
4.18408e+20
4.22096e+20
4.32417e+20
4.3835e+20
4.32242e+20
4.36012e+20
4.35271e+20
4.34179e+20
4.292e+20
4.22192e+20
4.11862e+20
4.12387e+20
4.29996e+20
4.25171e+20
4.18775e+20
4.19013e+20
4.01942e+20
3.96363e+20
3.71162e+20
3.82125e+20
3.79283e+20
3.64863e+20
3.48367e+20
3.56221e+20
3.45725e+20
3.52779e+20
3.31071e+20
3.1735e+20
2.81783e+20
2.67542e+20
2.47233e+20
2.24121e+20
1.93033e+20
)
;

boundaryField
{
    sides
    {
        type            calculated;
        value           nonuniform List<scalar> 2(1.93033e+20 5.83375e+19);
    }
    empty
    {
        type            empty;
    }
}


// ************************************************************************* //
