/*--------------------------------*- C++ -*----------------------------------*\
  =========                 |
  \\      /  F ield         | OpenFOAM: The Open Source CFD Toolbox
   \\    /   O peration     | Website:  https://openfoam.org
    \\  /    A nd           | Version:  7
     \\/     M anipulation  |
\*---------------------------------------------------------------------------*/
FoamFile
{
    version     2.0;
    format      ascii;
    class       volScalarField;
    location    "0.0175";
    object      internalE;
}
// * * * * * * * * * * * * * * * * * * * * * * * * * * * * * * * * * * * * * //

dimensions      [1 -1 -2 0 0 0 0];

internalField   nonuniform List<scalar> 
250
(
0.215031
0.212358
0.223764
0.240235
0.205974
0.210509
0.18896
0.215599
0.207798
0.205533
0.204619
0.205525
0.233988
0.203315
0.196914
0.207248
0.215099
0.211476
0.202732
0.225536
0.203833
0.196144
0.209436
0.214814
0.220351
0.200432
0.23059
0.217617
0.20322
0.211301
0.199958
0.224116
0.199851
0.202805
0.206816
0.220216
0.210385
0.203384
0.210168
0.226912
0.222036
0.236021
0.223057
0.218421
0.206483
0.212033
0.23788
0.200944
0.199543
0.201197
0.182413
0.210103
0.230288
0.212636
0.218624
0.203821
0.215138
0.210576
0.214896
0.206894
0.190902
0.221026
0.213636
0.201886
0.226164
0.228724
0.191307
0.197432
0.205826
0.226508
0.218595
0.211753
0.22421
0.216806
0.201204
0.212961
0.221569
0.230463
0.208879
0.202563
0.196542
0.202512
0.188521
0.212339
0.205129
0.222338
0.204128
0.243698
0.200751
0.222073
0.19976
0.203004
0.211203
0.203109
0.203278
0.218546
0.216963
0.193436
0.201392
0.21274
0.212236
0.20316
0.223092
0.213977
0.211485
0.221786
0.207852
0.220236
0.216255
0.213514
0.19088
0.23051
0.222386
0.206472
0.212377
0.206063
0.201531
0.19556
0.217863
0.217532
0.209504
0.206429
0.203262
0.217773
0.203942
0.209646
0.230788
0.213401
0.209919
0.217725
0.211946
0.209546
0.217067
0.201828
0.214914
0.192066
0.200736
0.210754
0.207925
0.244052
0.213833
0.199617
0.231992
0.229023
0.210008
0.213768
0.199204
0.220102
0.222931
0.208285
0.218374
0.192713
0.237003
0.217852
0.216855
0.218095
0.22628
0.204223
0.224994
0.213769
0.21988
0.214362
0.201698
0.191219
0.206164
0.204771
0.20282
0.216141
0.225723
0.221249
0.211844
0.213656
0.209722
0.22417
0.205018
0.198966
0.211745
0.209242
0.204253
0.201348
0.20597
0.208371
0.196928
0.217917
0.216542
0.199502
0.21483
0.242259
0.213463
0.230934
0.203306
0.219113
0.231712
0.207823
0.217521
0.218847
0.212109
0.213369
0.230681
0.203622
0.224241
0.202565
0.20497
0.203888
0.221953
0.217624
0.211983
0.217567
0.220067
0.212605
0.219471
0.207539
0.211272
0.224128
0.231088
0.20749
0.2005
0.21012
0.207767
0.212573
0.21025
0.214939
0.215852
0.224832
0.206924
0.229525
0.197976
0.223195
0.226341
0.212566
0.208249
0.20287
0.227571
0.201468
0.217344
0.224638
0.222495
0.191938
0.218577
0.217601
0.206459
0.207238
0.211878
0.222099
0.210318
0.215611
0.217535
0.208752
0.215659
0.21637
)
;

boundaryField
{
    sides
    {
        type            symmetry;
    }
    empty
    {
        type            empty;
    }
    procBoundary3to2
    {
        type            processor;
        value           uniform 0.208838;
    }
}


// ************************************************************************* //
