/*--------------------------------*- C++ -*----------------------------------*\
  =========                 |
  \\      /  F ield         | OpenFOAM: The Open Source CFD Toolbox
   \\    /   O peration     | Website:  https://openfoam.org
    \\  /    A nd           | Version:  7
     \\/     M anipulation  |
\*---------------------------------------------------------------------------*/
FoamFile
{
    version     2.0;
    format      ascii;
    class       volScalarField;
    location    "0.0175";
    object      linearKE;
}
// * * * * * * * * * * * * * * * * * * * * * * * * * * * * * * * * * * * * * //

dimensions      [1 -1 -2 0 0 0 0];

internalField   nonuniform List<scalar> 
250
(
0.317995
0.301312
0.343799
0.336183
0.30082
0.316929
0.289052
0.296825
0.323222
0.299071
0.323164
0.30272
0.327452
0.308284
0.299894
0.320645
0.29942
0.319684
0.300214
0.313902
0.292243
0.292601
0.31177
0.296153
0.322528
0.303045
0.345427
0.309984
0.298092
0.364268
0.304359
0.347374
0.304183
0.319188
0.311933
0.325755
0.313958
0.308133
0.308498
0.312693
0.339484
0.342658
0.333503
0.339554
0.298099
0.330024
0.348686
0.305909
0.294573
0.288308
0.314737
0.333986
0.33078
0.322512
0.326418
0.328908
0.323037
0.319031
0.351152
0.312235
0.303087
0.307882
0.324348
0.306705
0.326344
0.319362
0.290559
0.298821
0.304334
0.363145
0.326104
0.315859
0.339624
0.309235
0.310902
0.304719
0.339235
0.327268
0.321367
0.31831
0.340234
0.304347
0.321625
0.306616
0.294764
0.353592
0.309156
0.335702
0.316417
0.30382
0.307463
0.307135
0.31448
0.300194
0.328531
0.313356
0.330939
0.322742
0.332136
0.330105
0.317247
0.287539
0.316138
0.324179
0.29968
0.332712
0.303238
0.308767
0.334938
0.311762
0.311779
0.32949
0.334835
0.313229
0.318802
0.326825
0.339935
0.303793
0.33515
0.31019
0.29591
0.309636
0.305507
0.345033
0.295455
0.357098
0.334361
0.349916
0.293128
0.31214
0.320568
0.315785
0.314509
0.302402
0.320233
0.312488
0.288909
0.315173
0.329624
0.325773
0.305889
0.31567
0.338846
0.31957
0.29758
0.336443
0.316268
0.332675
0.322077
0.318342
0.337841
0.283111
0.323923
0.310312
0.308144
0.338398
0.319795
0.302858
0.326834
0.322842
0.324393
0.341876
0.301197
0.299158
0.299388
0.306812
0.319856
0.294758
0.296953
0.314291
0.334465
0.319835
0.318881
0.321032
0.302552
0.307734
0.317886
0.322013
0.298061
0.312753
0.310576
0.306234
0.304803
0.322032
0.306487
0.301264
0.315114
0.340241
0.325512
0.321466
0.329006
0.322558
0.306669
0.312177
0.322279
0.329053
0.316793
0.312934
0.319051
0.301179
0.330733
0.305739
0.324388
0.314848
0.295666
0.295132
0.305886
0.315017
0.332066
0.314373
0.330491
0.296818
0.312892
0.343538
0.342647
0.300351
0.316275
0.301102
0.301799
0.314356
0.314659
0.311228
0.324548
0.313705
0.299708
0.350201
0.303974
0.303312
0.321986
0.305926
0.331204
0.317882
0.329041
0.303497
0.31348
0.331568
0.342596
0.282356
0.31371
0.326455
0.31574
0.319192
0.315077
0.306345
0.309634
0.324106
0.300373
0.319342
0.311702
0.307499
)
;

boundaryField
{
    sides
    {
        type            symmetry;
    }
    empty
    {
        type            empty;
    }
    procBoundary3to2
    {
        type            processor;
        value           uniform 0.310836;
    }
}


// ************************************************************************* //
