/*--------------------------------*- C++ -*----------------------------------*\
  =========                 |
  \\      /  F ield         | OpenFOAM: The Open Source CFD Toolbox
   \\    /   O peration     | Website:  https://openfoam.org
    \\  /    A nd           | Version:  7
     \\/     M anipulation  |
\*---------------------------------------------------------------------------*/
FoamFile
{
    version     2.0;
    format      ascii;
    class       volVectorField;
    location    "0.0175";
    object      momentum;
}
// * * * * * * * * * * * * * * * * * * * * * * * * * * * * * * * * * * * * * //

dimensions      [1 -2 -1 0 0 0 0];

internalField   nonuniform List<vector> 
250
(
(-0.00013244 -2.69354e-05 -5.47283e-06)
(-0.000111422 9.63068e-07 7.12404e-05)
(-0.000103712 6.22474e-06 4.69077e-05)
(-0.000126145 3.02299e-05 5.22261e-07)
(-0.000187487 -3.8308e-06 -3.3445e-05)
(-0.00013514 -2.94136e-05 4.41928e-05)
(-0.000120399 3.56752e-05 2.32573e-05)
(-4.24362e-05 5.54543e-05 2.94808e-05)
(-0.000121553 -3.80668e-05 4.33009e-05)
(-0.000108111 -3.57293e-05 -2.35448e-05)
(-5.72876e-05 -5.73935e-06 -6.25464e-05)
(-6.62852e-05 1.52736e-05 3.68744e-05)
(-0.000103818 5.30935e-05 1.19189e-05)
(-7.22695e-05 -5.32028e-05 -3.07736e-05)
(-6.66493e-05 -5.21694e-05 3.54694e-05)
(-7.66677e-05 1.12351e-05 2.48772e-05)
(-7.11764e-05 7.41633e-05 -3.79866e-05)
(-0.000134837 2.37387e-05 -1.38996e-05)
(-0.000111536 4.69462e-06 -4.00963e-05)
(-5.81602e-05 5.81901e-05 -1.55611e-05)
(-0.000100015 -8.49217e-05 -1.84484e-05)
(-7.65982e-05 3.61368e-05 1.83047e-05)
(-0.000126198 2.91538e-05 -1.23328e-05)
(-6.0377e-05 4.32209e-07 -4.28364e-05)
(-0.000190902 -4.55672e-05 4.00596e-05)
(-0.000144298 3.97255e-05 6.89776e-06)
(-0.000104105 2.2029e-05 -2.70817e-06)
(-0.000127616 -2.77639e-05 -5.55864e-05)
(-0.000136375 -8.24815e-06 -9.89012e-05)
(-0.000143872 -5.63292e-05 1.92598e-05)
(-0.00013639 -2.69685e-05 -3.34591e-05)
(-5.93393e-05 -7.96305e-06 -4.47433e-05)
(-9.78394e-05 -2.8354e-05 -2.27975e-05)
(-0.000118477 4.3328e-05 -6.33248e-05)
(-9.23471e-05 -2.30522e-05 -7.84325e-06)
(-8.63268e-05 -3.16378e-06 7.29239e-05)
(-2.75999e-05 5.46707e-05 -3.17068e-05)
(-0.000120445 5.41857e-05 -7.86944e-06)
(-8.11168e-05 -1.66222e-05 -5.81954e-05)
(-2.76053e-05 6.91068e-06 -3.81356e-05)
(-0.000127267 -2.46491e-05 -4.39185e-05)
(-0.000116343 -2.32115e-05 6.45232e-06)
(-0.000115755 8.59244e-05 3.67673e-05)
(-0.000106856 -6.23649e-05 4.3809e-06)
(-8.47945e-05 2.20197e-05 -4.46555e-05)
(-0.000118116 1.29345e-05 -2.4896e-05)
(-0.00011401 -3.79024e-05 4.23572e-06)
(-0.00010985 -1.77844e-05 9.41138e-05)
(-0.000126573 -5.30666e-06 5.91151e-05)
(-9.37933e-05 1.03429e-06 -1.66522e-05)
(-4.7973e-05 2.20103e-05 -1.58986e-05)
(-6.81986e-05 5.47222e-06 -2.26977e-05)
(-2.71266e-05 -3.65466e-05 8.53889e-05)
(-6.86928e-05 1.45678e-05 5.44008e-05)
(-0.000103505 -2.92227e-05 2.93549e-05)
(-2.77225e-05 -2.26277e-05 -9.88318e-06)
(-0.000128644 -2.83068e-05 4.64807e-05)
(-4.25018e-05 1.27453e-06 -7.87563e-05)
(-5.73832e-05 6.56651e-06 6.96265e-06)
(-1.62036e-05 1.97803e-05 -5.57914e-05)
(-0.000143146 -6.61939e-06 5.1842e-05)
(-2.19422e-05 -1.12964e-06 -7.19621e-07)
(-8.93723e-05 1.97731e-06 1.7196e-05)
(-0.000155109 5.46562e-05 4.69744e-05)
(-0.000144522 1.11167e-05 5.87683e-05)
(-5.23266e-05 -4.23348e-05 -1.84162e-05)
(-9.26989e-05 -6.38714e-06 -4.88021e-06)
(-0.00012039 -2.51224e-05 -1.44115e-05)
(-5.86458e-05 -3.37104e-06 5.10908e-05)
(-0.000133342 -4.73855e-05 -1.28579e-05)
(-0.000124213 3.76828e-05 6.09122e-05)
(-6.36806e-05 1.56969e-05 -9.52388e-05)
(-3.17754e-05 3.15088e-05 -4.03538e-05)
(-2.24726e-05 1.47737e-05 -1.95956e-06)
(-0.000100787 -5.23359e-06 -6.88593e-05)
(-2.72774e-05 -0.000111058 -4.63688e-05)
(2.56241e-06 1.92335e-05 -3.85291e-05)
(-0.000120264 -5.03848e-05 2.80029e-06)
(-5.23891e-05 -1.02501e-05 7.44476e-06)
(-5.5657e-05 -3.09174e-05 3.68243e-05)
(-9.87299e-05 -8.20489e-05 -4.12e-05)
(-3.13127e-05 -5.91391e-05 6.19439e-05)
(-0.000126961 -1.20825e-05 -2.59399e-05)
(-8.51032e-05 -4.11252e-06 -1.09039e-05)
(-3.04728e-05 4.24878e-05 3.29341e-05)
(-7.48681e-05 -1.41409e-05 8.2074e-06)
(-8.9776e-05 -4.9457e-06 -4.87246e-05)
(-8.27279e-05 1.14908e-05 4.91214e-05)
(-0.000102566 -4.18714e-05 -1.05223e-05)
(-6.32227e-05 -3.8217e-05 3.78936e-05)
(-4.13166e-05 -2.72113e-06 -3.20983e-05)
(-8.14422e-05 3.01418e-05 5.6974e-06)
(-5.99482e-05 4.98528e-05 -2.6286e-05)
(-9.05488e-05 1.13616e-05 2.17367e-05)
(-0.000158868 4.64619e-05 -1.1706e-05)
(-9.12859e-05 5.49439e-05 -2.4325e-05)
(-0.000112362 9.52916e-05 -1.32531e-05)
(-0.000102933 -2.0244e-06 -2.3574e-05)
(-2.78489e-05 6.42552e-05 -8.97553e-07)
(-0.000134247 5.55607e-05 -8.53502e-07)
(-8.18295e-05 -7.66434e-05 3.59852e-07)
(-9.85269e-06 1.69986e-05 -1.02372e-05)
(-0.000100696 7.5251e-05 3.69815e-05)
(-3.90943e-05 4.80261e-05 -6.0555e-05)
(-4.10112e-05 2.66725e-05 -7.52084e-06)
(-9.99528e-05 -1.19272e-06 -2.35898e-05)
(-4.09976e-05 -5.16987e-05 -1.87357e-05)
(-4.20077e-05 -5.28845e-05 1.46036e-05)
(-6.95301e-05 -7.11596e-06 -1.72218e-05)
(-0.000118964 -2.19504e-05 -2.96744e-05)
(-0.000106065 -2.09312e-05 2.29955e-05)
(-7.50558e-05 1.39195e-05 -7.10696e-07)
(-2.00921e-05 -2.73628e-05 2.50103e-05)
(-1.03671e-05 -4.31187e-05 -4.3089e-05)
(-0.000101883 -4.04125e-05 -4.63303e-05)
(-9.78697e-05 3.92202e-07 -1.30739e-05)
(-8.58705e-05 0.000122615 -6.89239e-05)
(-4.89521e-05 -3.08794e-06 2.9078e-05)
(-1.10355e-05 4.7961e-05 7.99541e-07)
(-5.90995e-05 7.43947e-05 -5.69401e-05)
(-2.19185e-05 -3.88572e-05 5.41511e-05)
(3.29225e-05 2.76367e-05 4.86205e-05)
(-3.89583e-05 1.59989e-05 -4.3181e-05)
(-4.25185e-05 -6.42735e-05 1.51332e-05)
(-7.00858e-05 -2.82428e-05 2.36309e-05)
(-8.16137e-05 3.59902e-05 7.57353e-06)
(-7.14449e-05 5.24815e-05 5.73606e-05)
(-3.19299e-05 1.16103e-06 -3.45022e-05)
(-7.04693e-05 2.6471e-05 5.15181e-05)
(-1.94945e-05 -1.47374e-05 -5.05048e-06)
(-5.79127e-05 6.38918e-06 1.57127e-05)
(-5.92669e-05 1.5724e-05 -3.92027e-05)
(-1.3588e-05 -1.26673e-05 -4.19661e-05)
(-1.14887e-05 2.963e-05 -1.08312e-07)
(-8.88062e-05 -2.44589e-05 -9.73736e-06)
(-2.20754e-05 5.76524e-05 -3.32533e-05)
(-2.60536e-05 9.58198e-05 3.34699e-06)
(-0.000124912 4.03208e-07 5.22867e-05)
(2.56561e-06 -1.04918e-05 -4.51673e-06)
(-2.6821e-05 -6.09185e-05 4.3021e-05)
(-5.98638e-05 -4.52396e-05 -2.89797e-05)
(-4.52589e-05 2.24632e-05 2.69652e-06)
(-0.000119375 -1.11234e-05 -4.4126e-05)
(-3.83711e-05 1.57653e-05 4.39225e-06)
(-6.84402e-05 -1.00026e-05 1.20325e-05)
(-1.77411e-05 -4.98005e-05 -4.55993e-05)
(-3.88485e-05 1.10058e-05 4.85405e-05)
(-7.31837e-05 2.33737e-06 -2.7477e-05)
(-6.44374e-05 -3.55313e-05 -5.48209e-05)
(-5.0554e-05 -5.09061e-05 4.82381e-05)
(-5.7564e-05 -1.24784e-05 3.77164e-05)
(-4.98494e-05 -7.48338e-05 2.80289e-06)
(-3.00244e-05 -3.13123e-05 -1.48264e-05)
(-2.00868e-05 -5.7431e-06 -3.92637e-05)
(-1.55354e-05 2.15914e-05 2.54152e-05)
(-2.12716e-07 -3.39637e-08 -5.94912e-05)
(-3.60942e-05 6.2778e-05 -3.75958e-06)
(-8.91546e-06 -3.346e-05 -2.42363e-05)
(-1.38033e-05 -1.52393e-05 3.69386e-06)
(-4.17787e-05 -1.80608e-05 -2.84643e-05)
(-9.38957e-05 -3.9075e-05 5.19365e-05)
(-3.10003e-05 -6.74498e-06 3.47698e-05)
(-3.78317e-05 -4.18908e-05 2.00043e-05)
(-1.39278e-05 -2.34415e-05 1.04679e-05)
(-7.34407e-05 -1.05081e-05 -3.00536e-05)
(-5.08782e-05 2.45486e-05 2.33641e-05)
(-6.58263e-05 -1.73085e-06 4.98117e-05)
(-5.68832e-05 7.73043e-06 3.77339e-06)
(-2.79066e-05 -3.12475e-05 -2.01599e-05)
(3.9834e-05 -2.36608e-05 5.02277e-05)
(-0.000136576 -4.86893e-05 -1.8311e-06)
(-3.22063e-05 -3.36232e-05 2.10439e-05)
(-4.74794e-06 -4.30593e-05 -1.38417e-05)
(2.50815e-06 2.22417e-05 4.26845e-05)
(-4.21142e-05 -1.32099e-06 -3.22704e-05)
(-0.000134131 1.37139e-05 1.26255e-05)
(-4.643e-05 -1.44444e-05 5.16071e-05)
(2.42956e-05 2.43223e-05 4.90846e-05)
(3.06265e-05 -1.22144e-05 7.05665e-05)
(-1.94084e-05 -0.000118216 3.09197e-05)
(7.72321e-06 -5.49157e-05 -2.00164e-06)
(-7.6009e-05 9.95009e-05 1.32828e-05)
(-7.1194e-05 9.69099e-06 -2.36733e-06)
(-8.96298e-05 -5.85072e-05 -1.07427e-05)
(-5.12307e-05 -2.38309e-05 1.55722e-05)
(-2.36867e-05 -1.27849e-06 -7.15305e-06)
(2.23356e-05 8.05304e-06 4.22942e-05)
(-3.33368e-05 3.2061e-05 2.06419e-05)
(-2.40693e-05 1.40291e-05 -1.37986e-05)
(-1.03202e-05 3.80557e-05 8.1569e-05)
(-4.61547e-05 2.04474e-05 1.03022e-05)
(-0.000130422 -2.20062e-05 3.63272e-05)
(1.7355e-05 -5.85274e-07 -9.69116e-06)
(3.35902e-05 5.96759e-06 2.15851e-06)
(3.33679e-05 9.23095e-06 -4.49283e-05)
(2.75251e-05 2.92298e-05 2.08231e-05)
(2.24752e-05 -2.70465e-05 -4.77028e-05)
(1.56916e-05 7.60714e-06 4.58921e-05)
(3.51932e-05 2.04879e-05 -3.60978e-05)
(2.50498e-05 2.59506e-06 5.47078e-05)
(-8.91734e-05 -9.1921e-05 -2.58408e-05)
(-1.78682e-07 1.08601e-05 -2.89057e-05)
(-4.11607e-05 4.14923e-05 6.38313e-05)
(3.05874e-05 1.85211e-05 -2.60773e-05)
(-1.99183e-05 -7.29389e-05 -2.88825e-05)
(-8.68416e-05 5.80966e-06 -8.94267e-06)
(8.33427e-05 -4.97659e-05 -3.08627e-05)
(4.621e-06 -1.54728e-05 6.26847e-06)
(7.48766e-05 1.92167e-05 -6.85561e-06)
(-7.43869e-06 -8.38038e-08 7.23247e-06)
(-4.56785e-05 4.40835e-05 -1.89813e-05)
(-7.16984e-05 -4.46097e-05 3.45763e-05)
(-4.27075e-05 5.03879e-05 -3.33771e-05)
(-7.13874e-06 5.96579e-05 -3.34331e-05)
(-2.31794e-05 6.90202e-05 1.44751e-05)
(-1.85031e-05 5.90854e-06 -2.80536e-05)
(3.57432e-05 -5.40012e-05 -2.59543e-05)
(-5.00024e-05 -1.61571e-05 2.24679e-05)
(3.21438e-05 -2.94255e-05 2.29854e-05)
(2.8374e-05 0.00010592 1.43217e-05)
(-2.4426e-05 2.21334e-05 5.27877e-05)
(-6.8155e-05 -2.31507e-05 -2.10692e-05)
(-4.43894e-05 -3.6105e-05 8.01163e-06)
(4.46769e-05 -6.40347e-05 1.93835e-05)
(-6.33583e-05 -1.76061e-05 2.49798e-05)
(-1.94708e-05 1.95183e-05 -2.40503e-05)
(-3.72694e-05 4.22374e-05 -1.6386e-05)
(-1.41582e-05 2.66648e-05 -3.92187e-06)
(1.34258e-05 7.31864e-05 -4.19548e-05)
(1.84004e-06 6.63208e-05 -1.30482e-05)
(3.14795e-05 -8.98773e-06 4.12381e-05)
(-4.40205e-07 8.78462e-05 2.15253e-05)
(4.55553e-05 -3.90656e-05 -3.77501e-05)
(-1.02553e-05 -5.69619e-05 1.76627e-05)
(-6.92972e-05 1.20904e-05 8.92031e-06)
(-2.38462e-05 -1.0112e-05 -6.60727e-05)
(2.441e-05 8.37549e-06 -1.25521e-05)
(-4.54762e-05 9.58309e-06 -3.57106e-05)
(-8.47062e-05 7.62285e-06 -1.22425e-05)
(-3.41484e-05 2.45628e-05 -0.000108175)
(1.57362e-05 6.69822e-05 -3.00368e-05)
(-1.9949e-05 4.28514e-06 3.21481e-05)
(-6.89287e-06 -3.65179e-05 -0.000107315)
(4.56714e-05 7.15045e-05 -3.69504e-05)
(5.76591e-07 -5.47056e-06 -6.27068e-05)
(1.6485e-05 -4.52465e-05 -4.54303e-05)
(9.34603e-05 -1.51573e-05 -1.59914e-07)
(2.48093e-05 -5.3601e-05 -5.16508e-07)
(1.68989e-05 -5.68963e-05 -3.70994e-05)
(-1.30155e-05 1.75566e-05 -3.19307e-05)
)
;

boundaryField
{
    sides
    {
        type            symmetry;
    }
    empty
    {
        type            empty;
    }
    procBoundary3to2
    {
        type            processor;
        value           uniform (-0.000128705 -2.48693e-05 -3.87493e-05);
    }
}


// ************************************************************************* //
