/*--------------------------------*- C++ -*----------------------------------*\
  =========                 |
  \\      /  F ield         | OpenFOAM: The Open Source CFD Toolbox
   \\    /   O peration     | Website:  https://openfoam.org
    \\  /    A nd           | Version:  7
     \\/     M anipulation  |
\*---------------------------------------------------------------------------*/
FoamFile
{
    version     2.0;
    format      ascii;
    class       volScalarField;
    location    "0.0175";
    object      rhoM;
}
// * * * * * * * * * * * * * * * * * * * * * * * * * * * * * * * * * * * * * //

dimensions      [1 -3 0 0 0 0 0];

internalField   nonuniform List<scalar> 
250
(
5.25218e-06
5.0778e-06
5.62185e-06
5.61488e-06
5.1057e-06
5.2731e-06
5.06385e-06
5.2173e-06
5.22428e-06
4.93133e-06
5.03595e-06
4.95923e-06
5.48235e-06
5.26613e-06
5.02898e-06
5.34285e-06
5.1057e-06
5.11965e-06
5.14755e-06
5.31495e-06
5.0499e-06
4.90343e-06
5.20335e-06
4.95225e-06
5.4126e-06
4.95225e-06
5.50328e-06
5.3289e-06
5.00805e-06
5.62185e-06
5.02898e-06
5.59395e-06
5.01502e-06
5.00805e-06
5.2173e-06
5.34285e-06
4.94527e-06
5.20335e-06
5.23125e-06
5.25915e-06
5.23822e-06
5.60093e-06
5.42655e-06
5.34983e-06
4.95922e-06
5.22428e-06
5.60092e-06
5.19638e-06
5.09872e-06
4.7151e-06
4.9941e-06
5.3847e-06
5.37772e-06
5.06385e-06
5.33587e-06
5.2452e-06
5.32192e-06
5.1894e-06
5.39865e-06
4.95225e-06
4.9941e-06
5.29403e-06
5.05687e-06
5.15453e-06
5.32192e-06
5.30798e-06
4.7988e-06
5.0499e-06
5.11965e-06
5.68463e-06
5.39865e-06
5.1336e-06
5.48932e-06
5.17545e-06
5.1615e-06
5.07083e-06
5.42655e-06
5.57303e-06
5.2731e-06
5.12663e-06
5.03595e-06
5.22428e-06
4.83367e-06
4.97318e-06
4.86855e-06
5.54513e-06
5.18242e-06
5.48933e-06
5.11267e-06
5.14755e-06
5.11267e-06
4.86158e-06
5.03595e-06
5.12663e-06
5.12663e-06
5.11268e-06
5.30797e-06
4.89645e-06
5.30798e-06
5.44748e-06
5.14057e-06
4.84065e-06
5.26613e-06
5.23125e-06
5.05687e-06
5.09175e-06
4.86855e-06
5.19638e-06
5.37075e-06
5.11268e-06
4.91738e-06
5.31495e-06
5.31495e-06
5.14755e-06
5.0778e-06
5.03595e-06
5.34285e-06
4.7709e-06
5.1894e-06
5.14755e-06
5.05687e-06
4.98713e-06
5.00108e-06
5.44748e-06
4.84762e-06
5.3289e-06
5.37773e-06
5.0778e-06
4.80577e-06
5.11268e-06
5.11268e-06
4.8267e-06
4.97317e-06
4.86158e-06
5.02898e-06
4.8825e-06
4.7988e-06
5.04293e-06
5.11965e-06
5.37773e-06
5.07082e-06
4.89645e-06
5.4126e-06
5.3568e-06
4.8267e-06
5.301e-06
5.1336e-06
5.23125e-06
5.1615e-06
5.04293e-06
5.16848e-06
4.55468e-06
5.30797e-06
5.03595e-06
4.95923e-06
5.23125e-06
5.03595e-06
4.86157e-06
5.30798e-06
4.98015e-06
5.14755e-06
5.25915e-06
4.9662e-06
4.8546e-06
5.00108e-06
4.95922e-06
4.89645e-06
4.7988e-06
5.09873e-06
5.15452e-06
5.09873e-06
5.0499e-06
5.1615e-06
5.12662e-06
4.88948e-06
4.93132e-06
5.03595e-06
4.98712e-06
4.91738e-06
4.94527e-06
4.92435e-06
4.87552e-06
4.7988e-06
5.2173e-06
4.92435e-06
4.79182e-06
4.98015e-06
5.1894e-06
5.18243e-06
5.19637e-06
5.03595e-06
5.0778e-06
4.95923e-06
5.1336e-06
5.1894e-06
5.11267e-06
4.8825e-06
5.00107e-06
5.28705e-06
4.9383e-06
5.34983e-06
4.89645e-06
4.80578e-06
5.00805e-06
5.09873e-06
5.02897e-06
4.98713e-06
5.25915e-06
5.19638e-06
5.11267e-06
5.1336e-06
5.06385e-06
4.91738e-06
5.28705e-06
5.32193e-06
4.81275e-06
4.89645e-06
4.9941e-06
4.78485e-06
4.91738e-06
5.09175e-06
4.98712e-06
5.14755e-06
5.19638e-06
4.8267e-06
5.28705e-06
5.05688e-06
4.9104e-06
5.22428e-06
5.12662e-06
5.03595e-06
5.02898e-06
5.29403e-06
4.8825e-06
5.11268e-06
5.19638e-06
5.47538e-06
4.5477e-06
4.9941e-06
4.95923e-06
4.92435e-06
4.84762e-06
4.93133e-06
4.98015e-06
4.8546e-06
5.23822e-06
4.87553e-06
5.00805e-06
4.86855e-06
4.90342e-06
)
;

boundaryField
{
    sides
    {
        type            symmetry;
    }
    empty
    {
        type            empty;
    }
    procBoundary3to2
    {
        type            processor;
        value           uniform 5.23125e-06;
    }
}


// ************************************************************************* //
