/*--------------------------------*- C++ -*----------------------------------*\
  =========                 |
  \\      /  F ield         | OpenFOAM: The Open Source CFD Toolbox
   \\    /   O peration     | Website:  https://openfoam.org
    \\  /    A nd           | Version:  7
     \\/     M anipulation  |
\*---------------------------------------------------------------------------*/
FoamFile
{
    version     2.0;
    format      ascii;
    class       volScalarField;
    location    "0.009";
    object      dsmcRhoNMean;
}
// * * * * * * * * * * * * * * * * * * * * * * * * * * * * * * * * * * * * * //

dimensions      [0 -3 0 0 0 0 0];

internalField   nonuniform List<scalar> 
2400
(
7.324666667
9.461111111
9.490666667
9.431111111
9.488
9.449777778
9.439777778
9.443111111
9.424666667
9.464888889
9.473111111
9.453555556
9.483555556
9.461555556
9.485555556
9.464
9.476
9.695777778
10.27622222
12.89311111
7.43
9.562666667
9.629777778
9.613333333
9.655333333
9.650666667
9.622888889
9.615111111
9.641555556
9.591777778
9.59
9.566
9.544222222
9.533111111
9.513555556
9.628666667
9.707777778
9.88
10.57644444
12.38111111
7.433111111
9.524888889
9.570888889
9.562
9.566666667
9.568888889
9.581555556
9.555111111
9.525777778
9.552
9.559333333
9.551333333
9.579777778
9.600666667
9.633777778
9.682444444
9.712222222
9.928444444
10.384
11.47022222
7.498888889
9.584444444
9.658888889
9.647555556
9.622888889
9.596444444
9.578444444
9.614666667
9.622444444
9.617777778
9.571555556
9.558666667
9.586
9.532666667
9.533111111
9.604666667
9.724888889
9.916444444
10.24
10.91177778
7.440888889
9.583555556
9.604666667
9.596666667
9.610666667
9.606888889
9.595555556
9.588666667
9.601555556
9.590888889
9.615777778
9.702888889
9.721111111
9.724666667
9.665555556
9.694222222
9.730666667
9.866444444
10.12066667
10.47844444
7.453333333
9.576222222
9.671111111
9.582666667
9.582666667
9.619333333
9.593333333
9.573333333
9.551333333
9.596666667
9.610888889
9.656666667
9.669333333
9.710888889
9.756444444
9.780222222
9.786222222
9.852888889
10.02577778
10.26288889
7.456222222
9.535111111
9.657777778
9.652666667
9.672222222
9.608222222
9.681333333
9.778222222
9.765111111
9.683777778
9.666222222
9.579555556
9.631333333
9.596222222
9.607555556
9.606
9.672666667
9.755111111
9.835777778
10.05088889
7.426
9.592888889
9.577333333
9.552888889
9.601777778
9.575111111
9.549555556
9.507555556
9.548444444
9.641555556
9.642666667
9.652222222
9.663555556
9.611777778
9.687333333
9.725333333
9.675333333
9.684222222
9.750444444
9.88
7.470222222
9.628444444
9.631777778
9.616
9.609777778
9.704222222
9.727333333
9.696888889
9.707777778
9.656
9.640444444
9.630666667
9.63
9.576444444
9.570222222
9.536
9.627333333
9.723555556
9.779777778
9.893555556
7.456666667
9.593555556
9.664888889
9.698666667
9.638888889
9.549333333
9.539555556
9.540666667
9.518888889
9.509777778
9.493777778
9.575555556
9.571777778
9.597777778
9.596888889
9.628222222
9.649333333
9.638444444
9.700444444
9.750666667
7.445555556
9.518888889
9.524
9.541111111
9.553777778
9.617555556
9.563777778
9.559777778
9.507555556
9.543333333
9.567333333
9.533111111
9.568666667
9.601111111
9.671777778
9.590666667
9.661777778
9.718888889
9.715111111
9.792444444
7.448444444
9.609555556
9.647777778
9.639777778
9.645111111
9.606444444
9.574888889
9.624
9.635777778
9.65
9.635555556
9.644222222
9.664888889
9.679333333
9.671777778
9.678888889
9.618888889
9.613555556
9.607333333
9.685555556
7.408666667
9.550222222
9.582222222
9.506222222
9.569333333
9.576444444
9.636888889
9.709333333
9.734222222
9.706888889
9.697111111
9.649333333
9.641555556
9.623777778
9.562222222
9.592888889
9.636666667
9.615555556
9.662
9.672222222
7.481777778
9.575333333
9.639333333
9.691111111
9.672888889
9.638666667
9.601333333
9.536222222
9.532
9.575555556
9.567777778
9.562222222
9.533555556
9.530444444
9.551333333
9.586
9.582666667
9.594888889
9.676222222
9.657555556
7.419555556
9.58
9.578444444
9.534888889
9.548888889
9.519111111
9.540444444
9.546
9.507333333
9.466888889
9.480444444
9.586444444
9.606444444
9.634222222
9.669555556
9.651555556
9.674444444
9.627555556
9.618666667
9.664444444
7.421111111
9.576
9.612666667
9.623555556
9.563777778
9.629777778
9.698
9.698
9.698666667
9.688
9.710444444
9.656444444
9.646
9.676666667
9.605333333
9.592666667
9.558444444
9.597555556
9.657555556
9.581555556
7.405333333
9.489777778
9.541333333
9.514
9.577555556
9.596222222
9.576888889
9.589777778
9.687555556
9.628
9.532222222
9.519555556
9.522222222
9.549555556
9.525777778
9.604222222
9.64
9.622444444
9.627333333
9.634444444
7.506888889
9.536888889
9.581333333
9.627555556
9.586
9.566666667
9.516666667
9.477333333
9.378222222
9.478666667
9.499777778
9.599555556
9.581111111
9.585555556
9.617777778
9.585555556
9.544666667
9.619111111
9.611555556
9.670888889
7.399111111
9.569555556
9.595777778
9.606444444
9.548666667
9.543111111
9.501111111
9.564666667
9.541555556
9.564
9.577555556
9.566888889
9.534666667
9.556888889
9.559555556
9.587333333
9.606666667
9.533777778
9.494
9.469111111
7.504888889
9.668
9.739333333
9.674
9.675555556
9.699555556
9.694888889
9.728222222
9.693555556
9.721333333
9.660888889
9.640666667
9.611555556
9.575333333
9.612888889
9.568444444
9.546
9.538
9.580222222
9.549777778
7.421333333
9.459111111
9.520666667
9.549333333
9.566444444
9.600222222
9.555111111
9.592666667
9.612444444
9.567777778
9.643555556
9.640222222
9.619111111
9.666444444
9.638
9.583333333
9.635111111
9.627111111
9.620444444
9.610222222
7.431333333
9.566222222
9.603777778
9.587333333
9.569333333
9.585111111
9.594444444
9.581111111
9.564222222
9.550666667
9.540222222
9.548888889
9.595111111
9.605555556
9.670666667
9.665111111
9.738444444
9.697555556
9.646222222
9.628444444
7.460222222
9.542222222
9.615333333
9.590444444
9.583555556
9.574888889
9.602
9.65
9.71
9.676666667
9.724666667
9.742
9.672888889
9.620222222
9.628444444
9.539555556
9.536
9.566666667
9.614444444
9.638666667
7.453333333
9.593333333
9.622666667
9.652222222
9.738666667
9.772222222
9.742666667
9.658666667
9.615555556
9.637333333
9.658222222
9.621111111
9.604888889
9.631555556
9.601555556
9.632222222
9.624222222
9.634888889
9.609111111
9.505111111
7.446888889
9.602444444
9.670444444
9.612444444
9.563111111
9.608666667
9.531555556
9.593111111
9.552444444
9.594444444
9.597111111
9.617111111
9.595111111
9.626444444
9.639555556
9.609111111
9.553333333
9.570888889
9.605333333
9.696
7.424222222
9.517333333
9.526666667
9.513333333
9.518666667
9.519777778
9.587555556
9.540888889
9.584444444
9.532666667
9.500444444
9.500888889
9.478222222
9.486888889
9.539333333
9.542
9.585333333
9.614222222
9.610222222
9.592888889
7.443777778
9.511777778
9.583777778
9.548222222
9.591111111
9.564666667
9.497111111
9.481555556
9.489111111
9.49
9.496666667
9.506888889
9.602444444
9.6
9.569555556
9.609111111
9.628222222
9.636444444
9.591555556
9.629111111
7.441111111
9.573555556
9.614888889
9.600222222
9.602666667
9.642666667
9.607555556
9.622444444
9.646666667
9.694
9.695111111
9.618666667
9.578222222
9.632
9.683111111
9.702
9.692666667
9.656
9.653111111
9.651555556
7.450888889
9.608444444
9.717333333
9.697777778
9.681777778
9.682666667
9.713555556
9.756
9.690666667
9.657333333
9.615333333
9.702444444
9.708444444
9.614888889
9.508
9.462
9.478444444
9.486888889
9.515555556
9.504888889
7.442
9.590222222
9.666444444
9.648444444
9.656888889
9.702666667
9.69
9.682444444
9.712666667
9.721111111
9.722444444
9.648222222
9.577555556
9.597777778
9.620222222
9.661555556
9.712
9.618222222
9.572222222
9.588444444
7.474666667
9.558666667
9.616666667
9.562444444
9.591555556
9.524888889
9.551111111
9.551555556
9.52
9.554444444
9.526666667
9.580444444
9.651111111
9.624444444
9.652444444
9.674666667
9.673555556
9.718
9.744888889
9.79
7.416666667
9.485555556
9.517111111
9.491333333
9.552444444
9.590666667
9.544
9.504666667
9.537111111
9.560444444
9.593555556
9.572222222
9.635777778
9.662444444
9.630888889
9.622
9.604444444
9.654444444
9.661555556
9.642
7.479555556
9.658666667
9.727111111
9.656
9.628888889
9.658666667
9.672444444
9.689777778
9.655555556
9.635111111
9.657333333
9.653555556
9.608222222
9.648
9.679333333
9.716666667
9.680444444
9.629111111
9.611777778
9.640222222
7.447555556
9.501555556
9.602222222
9.593555556
9.593555556
9.6
9.551111111
9.489555556
9.510666667
9.580444444
9.588666667
9.556888889
9.556666667
9.584666667
9.544222222
9.517777778
9.583333333
9.599777778
9.523777778
9.487111111
7.444666667
9.590222222
9.601777778
9.626444444
9.565333333
9.581777778
9.664888889
9.692222222
9.704888889
9.683555556
9.638
9.617777778
9.568666667
9.587777778
9.579111111
9.555777778
9.577555556
9.594222222
9.601111111
9.629333333
7.474888889
9.634888889
9.662
9.663777778
9.67
9.619111111
9.584222222
9.586222222
9.552888889
9.496666667
9.574
9.579777778
9.662444444
9.668222222
9.621333333
9.618222222
9.591555556
9.576444444
9.603555556
9.567555556
7.469777778
9.570444444
9.586888889
9.573111111
9.588666667
9.566
9.609111111
9.655111111
9.689333333
9.73
9.697777778
9.690222222
9.605555556
9.562
9.569555556
9.596666667
9.628
9.619555556
9.651555556
9.666888889
7.450444444
9.561333333
9.582888889
9.674666667
9.667777778
9.723777778
9.701555556
9.650666667
9.612
9.539333333
9.620222222
9.618888889
9.627111111
9.642222222
9.634888889
9.623777778
9.620666667
9.574222222
9.512222222
9.5
7.451555556
9.568222222
9.602
9.548888889
9.518888889
9.469555556
9.459777778
9.516222222
9.515111111
9.558222222
9.503333333
9.514888889
9.518222222
9.526888889
9.528444444
9.469333333
9.533555556
9.638666667
9.657555556
9.647555556
7.296666667
9.405333333
9.457111111
9.454888889
9.469555556
9.516666667
9.531111111
9.494
9.514
9.494
9.548
9.546
9.560444444
9.537111111
9.553111111
9.563555556
9.527111111
9.434222222
9.417111111
9.414444444
23.12911111
26.52733333
28.15644444
28.47933333
28.16066667
28.448
28.45511111
28.48244444
28.32355556
28.24377778
27.44733333
27.21866667
27.35511111
26.57644444
26.31977778
26.20511111
26.16177778
25.56244444
25.114
24.99244444
24.23311111
24.07
24.14333333
23.59333333
23.46355556
23.65488889
22.85822222
22.53044444
22.36577778
22.048
21.85711111
21.60111111
21.23066667
20.63133333
20.14666667
19.62355556
18.53066667
17.46111111
15.77377778
12.82866667
15.78577778
18.578
20.766
22.37377778
23.23755556
24.26288889
24.43377778
24.46155556
24.706
24.87333333
24.45444444
24.23333333
24.32866667
24.21711111
24.01844444
23.55755556
23.35088889
23.04
22.54822222
22.52177778
22.46777778
22.06244444
22.14622222
21.64555556
21.694
21.31
20.66466667
20.67822222
20.38444444
20.42555556
20.00533333
19.79111111
19.64577778
19.13
18.49644444
18.072
17.392
16.09022222
14.46288889
12.19066667
13.23644444
15.22622222
16.91555556
18.60844444
20.04288889
21.06755556
21.782
22.34822222
22.64044444
23.10955556
22.90866667
23.06977778
23.02333333
22.75555556
22.77022222
22.65933333
22.34955556
21.64177778
21.71844444
21.43266667
21.41111111
20.96155556
21.09488889
20.69644444
20.636
20.09311111
19.78
19.66111111
19.40755556
19.29844444
19.00111111
18.57022222
18.38711111
17.95755556
17.82755556
17.30244444
16.32688889
15.43155556
14.248
12.35488889
12.00488889
12.97
14.426
15.73133333
16.91422222
18.15844444
19.36466667
20.23355556
20.50133333
21.10244444
21.55466667
21.76022222
21.87577778
21.92733333
21.91733333
21.75777778
21.60866667
21.30555556
21.28577778
20.95644444
20.79511111
20.55111111
20.39133333
20.10555556
20.022
19.61044444
19.63133333
19.304
19.128
18.62444444
18.37488889
18.30511111
18.13577778
17.59
17.16511111
16.71355556
15.92355556
15.308
14.13088889
12.48444444
11.122
11.794
12.65088889
13.62577778
14.79488889
16.01111111
17.10066667
18.20844444
19.048
19.61222222
20.14111111
20.67133333
20.98355556
21.35155556
21.33733333
21.41
21.42977778
21.18155556
20.79644444
20.75355556
20.67888889
20.47955556
20.17622222
19.95511111
19.88711111
19.55577778
19.17177778
19.06933333
18.86911111
18.54288889
18.27733333
18.078
17.72733333
17.07777778
16.59555556
16.23911111
15.81377778
15.02933333
14.00888889
12.78911111
10.56488889
11.02866667
11.60066667
12.39866667
13.12955556
13.94688889
15.12311111
16.10733333
17.02333333
17.90822222
18.49244444
19.24911111
19.88377778
20.23933333
20.70444444
20.76177778
21.05555556
21.13044444
20.89711111
20.93088889
20.85266667
20.47244444
20.33466667
20.02688889
19.95533333
19.76955556
19.37777778
18.67111111
18.53911111
18.55422222
18.26955556
17.93977778
17.41488889
17.20911111
16.89377778
16.36644444
15.67111111
15.17844444
14.28888889
13.37755556
10.30711111
10.62177778
10.91711111
11.50777778
11.98644444
12.61488889
13.4
14.25111111
15.34755556
16.07377778
16.82577778
17.62333333
18.32177778
18.99377778
19.55844444
19.88511111
20.18666667
20.374
20.76088889
20.544
20.39622222
20.04888889
19.886
19.79222222
19.66422222
19.48244444
19.22222222
18.98466667
18.66444444
18.40533333
18.31511111
18.01022222
17.50755556
17.13466667
16.80511111
16.44622222
15.89644444
15.43511111
14.70866667
13.696
10.05
10.23644444
10.47088889
10.82755556
11.196
11.59088889
12.21377778
12.97777778
13.77977778
14.61044444
15.44088889
16.22977778
16.91155556
17.64422222
18.33044444
18.78466667
19.29711111
19.53533333
19.74466667
19.92822222
19.99644444
20.054
20.00311111
19.876
19.51288889
19.53266667
19.51111111
19.32955556
18.946
18.59288889
18.33377778
18.26688889
17.79422222
17.40044444
16.942
16.49022222
16.07066667
15.36777778
14.69177778
14.04088889
9.989111111
10.03755556
10.09444444
10.37155556
10.78933333
11.18
11.56755556
11.94955556
12.51911111
13.06666667
13.79444444
14.58066667
15.38688889
16.09777778
16.80155556
17.62777778
18.20888889
18.60244444
19.10755556
19.47044444
19.65911111
19.826
19.88488889
19.83733333
19.66133333
19.45622222
19.25244444
19.30288889
19.28177778
18.99244444
18.62355556
18.46466667
18.00666667
17.544
17.24444444
16.83977778
16.21288889
15.78466667
15.19311111
14.44155556
9.816
9.991555556
10.08022222
10.21755556
10.36044444
10.53822222
10.79088889
11.15488889
11.57555556
12.06533333
12.62688889
13.33466667
14.074
14.67666667
15.27777778
16.08555556
16.73733333
17.54022222
17.98377778
18.34444444
18.82133333
19.09711111
19.26133333
19.51755556
19.63177778
19.46088889
19.36266667
19.14733333
19.08311111
19.00977778
18.55933333
18.32155556
18.174
17.84111111
17.50688889
17.20511111
16.62333333
16.14155556
15.57644444
14.84177778
9.796444444
9.854666667
9.889333333
9.943333333
9.965777778
10.17511111
10.31244444
10.65
10.97088889
11.32933333
11.79911111
12.19733333
12.82666667
13.46088889
14.02088889
14.84266667
15.58511111
16.16755556
16.80644444
17.352
17.72555556
18.24044444
18.56111111
19.00355556
19.30777778
19.36822222
19.26488889
18.87355556
18.85577778
18.75577778
18.62311111
18.54222222
18.39044444
18.09955556
17.84555556
17.40422222
16.93022222
16.40688889
15.95266667
15.33688889
9.717111111
9.647111111
9.668222222
9.738
9.776444444
9.839111111
9.947111111
10.11333333
10.26533333
10.56888889
10.96733333
11.47822222
11.874
12.40222222
13.00511111
13.53377778
14.06577778
14.74266667
15.354
16.12977778
16.69022222
17.27911111
17.654
18.04444444
18.50066667
18.85333333
18.92311111
18.98733333
18.88755556
18.98
18.84911111
18.55933333
18.35577778
18.07733333
17.68133333
17.52555556
17.24822222
16.82888889
16.51
15.89755556
9.632666667
9.618666667
9.584888889
9.610888889
9.693777778
9.823333333
9.932888889
9.999111111
10.19666667
10.34577778
10.59288889
10.76755556
11.07133333
11.49888889
11.87022222
12.35533333
12.91488889
13.47222222
14.25266667
14.86488889
15.58577778
16.15844444
16.77288889
17.31088889
17.57466667
18.00244444
18.51333333
18.81311111
18.92466667
18.96222222
18.81422222
18.844
18.604
18.23088889
17.98311111
17.68155556
17.43933333
17.09111111
16.63222222
16.122
9.632666667
9.610222222
9.637777778
9.665333333
9.658
9.595111111
9.617333333
9.687111111
9.765555556
9.767555556
9.858666667
10.13111111
10.41866667
10.71133333
10.996
11.42888889
11.97377778
12.57911111
13.02244444
13.74422222
14.37488889
15.06733333
15.68911111
16.25911111
16.81711111
17.25577778
17.57244444
17.96422222
18.10755556
18.39466667
18.70177778
18.38888889
18.36288889
18.40066667
18.05888889
17.79222222
17.56555556
17.33133333
17.11066667
16.62177778
9.706444444
9.621555556
9.567555556
9.462222222
9.488666667
9.467555556
9.478888889
9.500444444
9.527333333
9.614222222
9.831777778
9.856222222
10.00377778
10.25622222
10.46955556
10.80555556
11.08533333
11.50533333
11.93666667
12.40933333
12.98555556
13.594
14.15622222
14.82977778
15.47044444
16.00955556
16.53688889
16.92711111
17.44888889
17.87288889
18.00266667
18.36444444
18.25444444
18.18866667
18.25488889
17.98666667
17.826
17.47355556
17.05888889
16.59155556
9.525111111
9.491111111
9.496444444
9.454222222
9.413111111
9.412
9.364
9.367777778
9.442222222
9.487555556
9.503333333
9.542444444
9.630888889
9.777333333
9.938888889
10.14777778
10.43955556
10.724
11.19133333
11.54288889
11.99733333
12.57666667
13.23688889
13.76355556
14.39177778
15.05955556
15.65888889
16.19977778
16.60511111
17.08088889
17.45555556
17.68066667
18.00577778
18.19577778
18.08177778
17.94822222
17.75466667
17.47777778
17.20266667
17.13777778
9.623555556
9.608666667
9.494222222
9.482
9.445555556
9.405777778
9.382
9.346
9.301333333
9.281555556
9.284888889
9.293555556
9.358444444
9.508
9.719333333
9.846888889
10.00844444
10.27088889
10.47333333
10.88355556
11.254
11.66933333
12.14844444
12.68422222
13.36133333
13.89066667
14.36733333
14.97422222
15.58755556
16.078
16.74533333
17.11088889
17.46777778
17.78244444
17.882
18.02355556
17.87177778
17.71177778
17.56955556
17.17777778
9.616444444
9.500444444
9.451777778
9.409111111
9.329111111
9.278222222
9.244666667
9.164666667
9.127333333
9.117111111
9.133777778
9.237777778
9.281111111
9.316222222
9.318888889
9.413555556
9.566888889
9.718444444
9.967777778
10.24577778
10.47622222
10.87711111
11.18688889
11.65755556
12.17288889
12.74777778
13.49377778
13.98333333
14.69288889
15.22622222
15.67777778
16.21133333
16.63444444
17.04666667
17.52866667
17.60555556
17.74622222
17.70711111
17.48555556
17.426
9.522
9.464444444
9.400888889
9.331111111
9.275111111
9.232
9.255333333
9.220444444
9.107333333
9.185333333
9.165111111
9.154666667
9.137555556
9.162
9.184888889
9.286222222
9.354888889
9.443777778
9.488222222
9.755111111
9.983333333
10.26488889
10.59933333
11.04155556
11.46288889
11.87266667
12.43822222
13.07733333
13.602
14.07355556
14.77266667
15.40022222
15.92666667
16.33266667
16.57688889
16.96222222
17.21044444
17.34911111
17.29533333
17.24466667
9.541111111
9.5
9.420444444
9.366222222
9.307333333
9.260222222
9.194666667
9.198444444
9.226
9.115777778
9.035555556
9.056
8.976444444
8.997555556
9.038888889
9.079333333
9.138444444
9.294444444
9.435333333
9.491111111
9.594444444
9.765111111
9.951111111
10.18755556
10.54066667
10.93466667
11.33
11.772
12.27555556
12.91022222
13.49155556
14.11288889
14.71466667
15.23533333
15.73666667
16.21622222
16.49955556
16.82155556
16.96933333
16.93044444
9.581333333
9.505111111
9.464
9.430444444
9.349777778
9.274222222
9.225111111
9.144444444
9.072666667
9.045777778
9.082666667
9.049777778
9.076
9.071555556
9.04
9.051333333
9.082444444
9.058444444
9.080222222
9.118
9.183777778
9.347555556
9.536222222
9.709777778
10
10.30155556
10.62822222
11.08533333
11.59844444
12.00466667
12.52422222
13.12844444
13.72977778
14.28977778
14.85044444
15.25822222
15.74622222
16.108
16.40466667
16.51177778
9.594666667
9.556666667
9.504
9.462
9.394
9.310444444
9.274666667
9.197777778
9.134888889
9.126444444
9.043333333
9.017777778
9.008
8.976888889
8.968666667
8.964
8.920666667
8.912444444
8.930444444
8.967777778
9.146222222
9.198
9.267555556
9.304222222
9.521555556
9.796888889
10.04288889
10.27333333
10.67355556
11.18777778
11.63933333
12.07133333
12.62622222
13.232
13.82022222
14.42288889
14.87955556
15.23133333
15.61888889
16.05622222
9.590222222
9.525777778
9.378888889
9.278666667
9.277111111
9.264222222
9.253777778
9.173333333
9.172444444
9.125555556
9.130222222
9.048666667
8.953111111
8.868666667
8.810444444
8.751555556
8.749555556
8.746666667
8.792
8.784
8.758
8.818888889
8.971111111
9.118666667
9.208222222
9.383333333
9.536222222
9.759555556
10.11377778
10.448
10.90177778
11.32866667
11.70355556
12.23911111
12.76244444
13.33266667
13.834
14.48355556
14.91533333
15.24355556
9.520444444
9.522444444
9.487111111
9.409777778
9.384444444
9.303333333
9.262666667
9.258222222
9.113555556
9.016
8.911555556
8.853555556
8.866666667
8.833555556
8.782666667
8.738444444
8.761333333
8.695333333
8.665555556
8.690444444
8.786888889
8.872444444
8.848
8.921777778
8.928222222
9.020666667
9.210666667
9.382888889
9.520444444
9.73
10.02577778
10.46933333
10.82511111
11.30044444
11.90977778
12.51866667
13.04488889
13.47177778
14.00444444
14.59133333
9.642222222
9.496666667
9.430444444
9.408444444
9.349777778
9.274666667
9.167333333
9.052666667
9.045111111
8.989555556
8.953111111
8.894888889
8.864888889
8.785555556
8.736666667
8.716
8.785333333
8.734222222
8.732666667
8.716888889
8.679111111
8.650888889
8.698222222
8.636
8.683777778
8.728444444
8.858444444
8.996666667
9.110444444
9.227777778
9.481111111
9.746222222
10.114
10.53933333
10.92622222
11.496
12.07111111
12.68177778
13.21688889
13.61888889
9.553111111
9.516888889
9.456
9.340222222
9.233777778
9.097555556
9.074222222
9.031555556
8.978444444
8.956888889
8.961777778
8.828
8.770222222
8.770222222
8.756222222
8.661777778
8.64
8.642888889
8.615111111
8.523333333
8.467555556
8.490666667
8.434
8.533777778
8.600444444
8.552888889
8.578888889
8.603111111
8.751333333
8.879777778
9.083333333
9.330666667
9.700444444
9.916444444
10.25977778
10.63644444
11.08955556
11.68044444
12.16933333
12.82222222
9.562666667
9.500666667
9.401777778
9.388
9.358222222
9.344444444
9.245555556
9.159111111
9.055555556
8.922444444
8.932222222
8.935111111
8.875777778
8.845555556
8.829555556
8.819111111
8.747555556
8.621333333
8.565111111
8.520222222
8.518666667
8.499111111
8.469777778
8.453333333
8.424444444
8.476
8.516888889
8.562222222
8.647111111
8.758444444
8.827777778
8.926666667
9.131777778
9.447777778
9.805111111
10.036
10.39577778
10.956
11.45622222
11.94955556
9.634666667
9.605333333
9.543333333
9.413777778
9.322888889
9.244444444
9.273777778
9.180666667
9.118444444
9.034888889
8.937111111
8.888888889
8.843777778
8.711111111
8.648
8.580666667
8.515777778
8.484444444
8.506666667
8.403333333
8.379777778
8.401555556
8.283111111
8.276444444
8.296222222
8.284
8.321333333
8.338
8.364666667
8.471777778
8.524222222
8.628444444
8.688
8.868888889
9.141555556
9.453555556
9.75
10.08777778
10.54688889
11.104
9.465111111
9.389111111
9.387777778
9.372444444
9.307111111
9.223777778
9.180888889
9.139333333
9.140666667
9.106888889
9.115777778
8.948888889
8.860666667
8.833333333
8.752666667
8.729777778
8.678222222
8.602444444
8.528444444
8.540888889
8.437333333
8.345777778
8.338666667
8.346
8.261333333
8.261777778
8.244222222
8.19
8.189777778
8.265555556
8.428444444
8.465777778
8.585111111
8.688222222
8.752222222
8.992444444
9.286666667
9.549333333
9.896444444
10.34711111
9.544666667
9.474444444
9.420888889
9.359777778
9.349555556
9.347555556
9.244888889
9.192
9.102222222
9.006222222
8.917555556
8.898666667
8.843333333
8.807555556
8.738888889
8.634
8.618444444
8.495333333
8.442222222
8.391777778
8.325555556
8.317333333
8.232222222
8.274666667
8.238666667
8.274666667
8.282666667
8.410444444
8.401555556
8.354888889
8.326
8.415111111
8.399777778
8.420222222
8.609777778
8.672666667
8.892888889
9.151777778
9.359333333
9.667555556
9.774888889
9.679111111
9.593111111
9.509333333
9.364222222
9.267333333
9.184666667
9.143111111
9.117555556
9.034444444
8.909333333
8.839555556
8.759111111
8.661333333
8.538222222
8.502888889
8.421555556
8.412222222
8.332
8.269777778
8.283333333
8.251333333
8.253555556
8.203333333
8.151111111
8.135555556
8.122222222
8.072
8.102222222
8.149333333
8.176
8.160222222
8.243333333
8.334
8.36
8.432
8.590222222
8.744666667
8.924888889
9.140666667
9.623111111
9.578222222
9.563777778
9.528666667
9.405333333
9.317333333
9.264888889
9.139333333
8.955777778
8.886888889
8.843111111
8.774444444
8.706444444
8.653555556
8.656666667
8.577555556
8.536444444
8.435111111
8.420444444
8.352888889
8.296444444
8.261111111
8.178888889
8.181333333
8.083333333
8.056
7.986444444
7.983111111
7.991333333
7.981111111
7.916222222
7.933777778
7.961555556
8.030666667
8.016222222
8.057777778
8.104222222
8.258
8.457555556
8.693555556
9.602888889
9.458
9.391333333
9.277333333
9.222888889
9.226888889
9.145777778
9.105555556
9.088
9.082666667
9.052444444
8.947777778
8.861333333
8.747111111
8.637555556
8.567555556
8.504
8.496444444
8.445111111
8.408
8.338666667
8.260666667
8.242666667
8.203555556
8.205111111
8.109333333
8.059333333
7.924888889
7.887111111
7.817777778
7.872666667
7.836
7.781333333
7.793777778
7.839777778
7.875777778
7.912222222
7.998
8.106222222
8.249111111
9.441111111
9.385111111
9.326222222
9.266222222
9.212
9.153333333
9.055333333
9.038666667
9.007777778
8.900222222
8.868
8.811555556
8.808666667
8.786666667
8.803333333
8.716
8.673777778
8.547555556
8.423555556
8.392
8.362
8.321777778
8.243111111
8.153111111
8.078444444
8.016
7.957111111
7.959555556
7.905777778
7.819111111
7.758666667
7.760888889
7.702
7.676222222
7.604666667
7.658
7.699555556
7.720444444
7.817555556
7.937333333
9.633555556
9.579333333
9.490444444
9.434888889
9.304
9.234222222
9.225333333
9.095777778
9.059333333
9.012
8.966444444
8.892222222
8.815111111
8.732666667
8.696444444
8.637111111
8.639555556
8.595777778
8.603111111
8.434666667
8.328888889
8.204
8.16
8.054666667
8.028222222
7.955777778
7.864666667
7.804444444
7.711333333
7.704222222
7.711333333
7.681555556
7.606666667
7.705555556
7.718888889
7.755777778
7.754888889
7.776444444
7.786666667
7.839555556
9.517111111
9.445555556
9.409555556
9.378222222
9.400888889
9.299333333
9.184444444
9.134444444
9.034888889
8.958666667
8.905777778
8.894444444
8.812888889
8.725555556
8.612666667
8.573555556
8.455555556
8.425111111
8.371555556
8.311555556
8.344444444
8.284
8.187111111
8.181111111
8.096888889
8.002444444
7.935777778
7.914888889
7.825111111
7.794666667
7.697111111
7.682666667
7.685333333
7.62
7.604666667
7.575333333
7.639111111
7.657777778
7.689555556
7.694888889
9.611333333
9.539555556
9.461777778
9.363777778
9.292
9.219111111
9.170888889
9.140888889
9.078888889
9.020222222
8.909333333
8.826444444
8.740222222
8.671333333
8.666444444
8.575777778
8.510666667
8.390444444
8.355777778
8.308888889
8.218888889
8.180666667
8.095777778
7.998222222
7.953555556
7.941333333
7.890222222
7.852888889
7.761333333
7.727111111
7.738666667
7.670888889
7.624222222
7.568666667
7.485555556
7.480888889
7.443333333
7.416
7.473555556
7.493777778
9.516222222
9.484222222
9.451777778
9.433333333
9.365111111
9.257777778
9.191333333
9.096222222
8.992888889
8.988444444
8.919333333
8.866222222
8.849555556
8.751333333
8.727111111
8.623111111
8.603333333
8.504666667
8.385555556
8.293777778
8.200222222
8.116666667
8.165555556
8.127555556
8.131111111
8.002
7.902222222
7.836666667
7.791777778
7.756888889
7.686
7.638666667
7.566888889
7.572444444
7.558444444
7.505333333
7.515555556
7.448444444
7.434444444
7.403777778
9.609333333
9.494666667
9.412666667
9.386888889
9.273111111
9.227555556
9.209555556
9.176222222
9.091555556
8.999111111
8.932
8.856222222
8.820222222
8.735777778
8.645555556
8.572444444
8.497111111
8.464666667
8.403333333
8.363111111
8.266
8.23
8.118222222
7.972888889
7.898888889
7.902222222
7.868666667
7.886
7.77
7.742444444
7.631555556
7.584
7.554444444
7.490444444
7.487777778
7.422222222
7.401777778
7.325333333
7.297111111
7.325333333
9.384444444
9.386666667
9.244666667
9.16
9.12
9.072666667
8.995555556
8.922444444
8.890222222
8.835111111
8.806
8.721555556
8.630666667
8.537555556
8.478888889
8.442
8.386222222
8.305555556
8.211111111
8.154666667
8.149111111
8.094444444
8.052888889
7.986222222
7.915555556
7.815777778
7.714888889
7.680444444
7.633111111
7.572666667
7.567777778
7.494666667
7.430888889
7.344222222
7.279777778
7.203777778
7.144666667
7.131777778
7.129333333
7.148
)
;

boundaryField
{
    flow
    {
        type            calculated;
        value           nonuniform List<scalar> 
160
(
7.324666667
7.43
7.433111111
7.498888889
7.440888889
7.453333333
7.456222222
7.426
7.470222222
7.456666667
7.445555556
7.448444444
7.408666667
7.481777778
7.419555556
7.421111111
7.405333333
7.506888889
7.399111111
7.504888889
7.421333333
7.431333333
7.460222222
7.453333333
7.446888889
7.424222222
7.443777778
7.441111111
7.450888889
7.442
7.474666667
7.416666667
7.479555556
7.447555556
7.444666667
7.474888889
7.469777778
7.450444444
7.451555556
7.296666667
12.82866667
12.19066667
12.35488889
12.48444444
12.78911111
13.37755556
13.696
14.04088889
14.44155556
14.84177778
15.33688889
15.89755556
16.122
16.62177778
16.59155556
17.13777778
17.17777778
17.426
17.24466667
16.93044444
16.51177778
16.05622222
15.24355556
14.59133333
13.61888889
12.82222222
11.94955556
11.104
10.34711111
9.667555556
9.140666667
8.693555556
8.249111111
7.937333333
7.839555556
7.694888889
7.493777778
7.403777778
7.325333333
7.148
7.324666667
9.461111111
9.490666667
9.431111111
9.488
9.449777778
9.439777778
9.443111111
9.424666667
9.464888889
9.473111111
9.453555556
9.483555556
9.461555556
9.485555556
9.464
9.476
9.695777778
10.27622222
12.89311111
7.296666667
9.405333333
9.457111111
9.454888889
9.469555556
9.516666667
9.531111111
9.494
9.514
9.494
9.548
9.546
9.560444444
9.537111111
9.553111111
9.563555556
9.527111111
9.434222222
9.417111111
9.414444444
9.384444444
9.386666667
9.244666667
9.16
9.12
9.072666667
8.995555556
8.922444444
8.890222222
8.835111111
8.806
8.721555556
8.630666667
8.537555556
8.478888889
8.442
8.386222222
8.305555556
8.211111111
8.154666667
8.149111111
8.094444444
8.052888889
7.986222222
7.915555556
7.815777778
7.714888889
7.680444444
7.633111111
7.572666667
7.567777778
7.494666667
7.430888889
7.344222222
7.279777778
7.203777778
7.144666667
7.131777778
7.129333333
7.148
)
;
    }
    obstacle
    {
        type            calculated;