/*--------------------------------*- C++ -*----------------------------------*\
  =========                 |
  \\      /  F ield         | OpenFOAM: The Open Source CFD Toolbox
   \\    /   O peration     | Website:  https://openfoam.org
    \\  /    A nd           | Version:  7
     \\/     M anipulation  |
\*---------------------------------------------------------------------------*/
FoamFile
{
    version     2.0;
    format      ascii;
    class       volScalarField;
    location    "0.009";
    object      dsmcRhoNMean;
}
// * * * * * * * * * * * * * * * * * * * * * * * * * * * * * * * * * * * * * //

dimensions      [0 -3 0 0 0 0 0];

internalField   nonuniform List<scalar> 
2400
(
9.000444444
9.014222222
9.142666667
8.877111111
8.742
8.892222222
8.992
8.826444444
8.998222222
8.695333333
8.577333333
8.430666667
8.607333333
8.508
8.225111111
8.136666667
8.350222222
8.403555556
8.091111111
7.481555556
9.082
9.084666667
8.958888889
8.982888889
8.767777778
8.750222222
8.756666667
8.789777778
8.597555556
8.637333333
8.445777778
8.362666667
8.583777778
8.518666667
8.452666667
8.127333333
8.012888889
7.823111111
7.665777778
7.280888889
9.038888889
9.301777778
8.975555556
8.993555556
8.567111111
8.773555556
8.569555556
8.744444444
8.725333333
8.649333333
8.378666667
8.233777778
8.358888889
8.195777778
8.076666667
7.828222222
7.688444444
7.642222222
7.256888889
7.158666667
9.247111111
9.138
8.779333333
8.895777778
8.319555556
8.393555556
8.702444444
8.512666667
8.502444444
8.275555556
8.264666667
8.197333333
8.368222222
8.037777778
7.822666667
7.81
7.551555556
7.586666667
7.415777778
7.147777778
8.927333333
8.887555556
8.819333333
8.448666667
8.669777778
8.736888889
8.818222222
8.688
8.529777778
8.245333333
8.272
8.022444444
8.232666667
8.443555556
8.021777778
7.545777778
7.516
7.428
7.286
6.977777778
8.752666667
8.910444444
8.698
8.690888889
8.759111111
8.424
8.672888889
8.614
8.384
8.416222222
8.338666667
8.158222222
8.155555556
8.150222222
7.810666667
7.961333333
7.473111111
7.393111111
7.104666667
7.034222222
8.862666667
8.942222222
8.922
9.126222222
8.627777778
8.461111111
8.401777778
8.372666667
8.701111111
8.278888889
8.373333333
8.276888889
8.213555556
8.011555556
7.869555556
7.451333333
7.660444444
7.316
7.130666667
6.991111111
8.973333333
8.891555556
8.688444444
8.698222222
8.654888889
8.665333333
8.280888889
8.302
8.549555556
8.286
8.177777778
8.401333333
8.301111111
7.972444444
7.768888889
7.864666667
7.772888889
7.394
7.390222222
7.067111111
8.788666667
8.878888889
8.7
8.653111111
8.588222222
8.644444444
8.302444444
8.141111111
8.220888889
8.362444444
8.181333333
8.298666667
8.229555556
7.914
7.780444444
7.608666667
7.424444444
7.427555556
6.966888889
6.976888889
8.754666667
8.765777778
8.388666667
8.407111111
8.491555556
8.424888889
8.408666667
8.342666667
8.367555556
8.319333333
8.306666667
8.504666667
7.994666667
7.822444444
7.717777778
7.536222222
7.350222222
7.230888889
7.212888889
7.134
8.814666667
8.789111111
8.603777778
8.498666667
8.566222222
8.554
8.399555556
8.558222222
8.302666667
8.222
8.098222222
8.011555556
7.972666667
7.721555556
7.818666667
7.525333333
7.582444444
7.519555556
7.196666667
6.994444444
8.712444444
8.534444444
8.624666667
8.980888889
8.379333333
8.414222222
8.654
8.404222222
8.484222222
8.269333333
8.115333333
8.033555556
7.879111111
7.735333333
7.589333333
7.600888889
7.281333333
7.179333333
7.315555556
7.087111111
8.727111111
8.547333333
8.755111111
8.594222222
8.364666667
8.632444444
8.236
8.285555556
8.404222222
8.078666667
8.163111111
8.097555556
7.580444444
7.619555556
7.65
7.472
7.500222222
7.174888889
7.193111111
7.287555556
8.664
8.684222222
8.425555556
8.767333333
8.441777778
8.677777778
8.386888889
8.374888889
8.036444444
8.283555556
8.078444444
8.117333333
7.767555556
7.602
7.787111111
7.675555556
7.586
7.287333333
7.258888889
7.458444444
8.740222222
8.597333333
8.623333333
8.598
8.524888889
8.626666667
8.383555556
8.381777778
8.036666667
8.046222222
8.132888889
7.882222222
7.605777778
7.585111111
7.658444444
7.610666667
7.610888889
7.501555556
7.481111111
7.126888889
8.86
8.932
8.327111111
8.474
8.665555556
8.353111111
8.312222222
8.447333333
8.502888889
8.076
7.855777778
7.924888889
7.916222222
7.792888889
7.533333333
7.497111111
7.652444444
7.545333333
7.449111111
7.353777778
8.847555556
8.581777778
8.448
8.486
8.508222222
8.317111111
8.243555556
8.457333333
8.313333333
8.002444444
7.787111111
8.105111111
7.853555556
8.027333333
7.783111111
7.756666667
7.813333333
7.601111111
7.348222222
7.288222222
8.620888889
8.718
8.577111111
8.664444444
8.479111111
8.502666667
8.258888889
8.400888889
8.334222222
7.992222222
8.104222222
8.055555556
7.874888889
8.023777778
8.086888889
7.722444444
7.715555556
7.540444444
7.397333333
7.388
8.883333333
8.878222222
8.441777778
8.727333333
8.739555556
8.616444444
8.335777778
8.498
8.477777778
8.225111111
8.085555556
8.057777778
8.007777778
7.858666667
7.904222222
7.651777778
7.572222222
7.473333333
7.424
7.440444444
8.762444444
8.936
8.648888889
8.771333333
8.62
8.827555556
8.659333333
8.414888889
8.300444444
8.318444444
8.264444444
7.966
7.842888889
7.728666667
7.823333333
7.563333333
7.679111111
7.636444444
7.366666667
7.498
8.823555556
8.879777778
8.695555556
8.807111111
8.638888889
8.479333333
8.566888889
8.536666667
8.446444444
8.207555556
8.062666667
8.082444444
8.167555556
7.843111111
8.007333333
7.781111111
7.783555556
7.778444444
7.385111111
7.537777778
9.060222222
8.795777778
8.704888889
8.626444444
8.824888889
8.307555556
8.330666667
8.466444444
8.367555556
8.369777778
7.903777778
7.931111111
8.015333333
8.087111111
7.848666667
7.678444444
7.848888889
7.819333333
7.798222222
7.691777778
8.741333333
8.806888889
8.758222222
8.657777778
8.586222222
8.435555556
8.463111111
8.345555556
8.442888889
8.418666667
8.103111111
8.107111111
8.089555556
7.969333333
8.102666667
7.672888889
7.768444444
8.067333333
7.754
7.552
8.622666667
8.826666667
9.032666667
8.769333333
8.665777778
8.657777778
8.731555556
8.852666667
8.463555556
8.395555556
8.400444444
8.416444444
8.207777778
8.153333333
8.298666667
7.769333333
7.775333333
7.92
7.749555556
7.592222222
8.864444444
9.062222222
8.780444444
8.585777778
8.646
8.733333333
8.635333333
8.409777778
8.540888889
8.433333333
8.203111111
8.363333333
8.366222222
8.173555556
7.940222222
7.598666667
7.780222222
8.036222222
7.900444444
7.549777778
8.990444444
9.006
8.513333333
8.561333333
8.519555556
8.76
8.584444444
8.066222222
8.112222222
8.316444444
8.304222222
8.259777778
8.343555556
8.088222222
7.985111111
8.086222222
7.668444444
8.003555556
7.874
7.838444444
8.902444444
8.893555556
8.597777778
8.778666667
8.611333333
8.602444444
8.924
8.701111111
8.476222222
8.260666667
8.347111111
8.136444444
7.884
8.094666667
7.872222222
7.84
7.884222222
8.009333333
8.004
7.870222222
8.704666667
8.747777778
8.806222222
8.873555556
8.837555556
8.645777778
8.635555556
8.586
8.666222222
8.259333333
8.468444444
8.409111111
7.886666667
8.201777778
8.096
8.098888889
7.865555556
7.968444444
7.95
7.991555556
8.938444444
9.113777778
9.108888889
8.887555556
8.627111111
8.852888889
8.676666667
8.562222222
8.622444444
8.711555556
8.366
8.399333333
7.985777778
8.156666667
8.308666667
8.247777778
8.285333333
8.125555556
8.107333333
7.879777778
8.930444444
8.966222222
8.782444444
8.69
8.690222222
8.672222222
8.689333333
8.586
8.626888889
8.72
8.789777778
8.475555556
8.193333333
8.632666667
8.434444444
8.365111111
8.051555556
8.033333333
8.022666667
8.048888889
8.864888889
8.808
8.995111111
8.797333333
8.961333333
9.005777778
8.735111111
8.209333333
8.495111111
8.640888889
8.751555556
8.785111111
8.643333333
8.704666667
8.708
8.473333333
8.086
8.227555556
8.094888889
8.293111111
8.772888889
9.173111111
9.366222222
8.952222222
9.022222222
9.195555556
8.782888889
8.656666667
8.648
8.597111111
8.577777778
8.312
8.401333333
8.425111111
8.574222222
8.336888889
8.19
8.198444444
8.126222222
8.185555556
8.923777778
9.442444444
9.169333333
9.185111111
8.936888889
8.812
8.847333333
8.586444444
8.708666667
8.620222222
8.319555556
8.506444444
8.528444444
8.377333333
8.452888889
8.419555556
8.369333333
8.564666667
8.512666667
8.331111111
8.665111111
9.035777778
9.223777778
9.055333333
8.828666667
9.188
9.035333333
8.651555556
8.770666667
8.958888889
8.712222222
8.654444444
8.386666667
8.511333333
8.263111111
8.373555556
8.466222222
8.405333333
8.260666667
8.390222222
8.968
9.175333333
8.867777778
9.011555556
8.908
8.966444444
9.018444444
9.099111111
8.556222222
8.918888889
8.704666667
8.583111111
8.718444444
8.710444444
8.327555556
8.312
8.424888889
8.407777778
8.420888889
8.435777778
9.309333333
9.147333333
9.151777778
9.068888889
9.137111111
9.032222222
8.815111111
8.778666667
8.863555556
9.086444444
8.953111111
8.434222222
8.904222222
9.002
8.390666667
8.531555556
8.610888889
8.509333333
8.465555556
8.583555556
9.067777778
9.188222222
9.237777778
9.143555556
9.471777778
9.096
9.001111111
8.918666667
8.989777778
9.197333333
9.183555556
8.688
8.961555556
9.078888889
8.764
8.526
8.518888889
8.698222222
8.671555556
8.712
9.236888889
9.441333333
9.026444444
8.673111111
9.254222222
9.151333333
9.033333333
9.116666667
9.039111111
9.136444444
9.088888889
8.805111111
9.030222222
8.845111111
8.975555556
8.989555556
8.817777778
8.869777778
8.688444444
8.577333333
9.174888889
9.603777778
9.435777778
8.949555556
9.017777778
9.247777778
9.139777778
8.916444444
9.048444444
9.130888889
9.138444444
8.959555556
9.056666667
8.800444444
8.803111111
8.797777778
8.555333333
8.617111111
8.958
8.968444444
9.311333333
9.505777778
9.278
9.303777778
9.191111111
8.977111111
8.976
9.230444444
9.198222222
9.349333333
9.25
9.039777778
8.948222222
8.993555556
9.157555556
8.774666667
8.621777778
8.564444444
8.883777778
8.863333333
6.651111111
6.540444444
6.348222222
6.135777778
5.888666667
5.782
5.562666667
5.434666667
5.452444444
5.612666667
5.391555556
5.487777778
5.447555556
5.626222222
5.351111111
5.344666667
5.322
5.434888889
5.212
4.945333333
4.959333333
5.019333333
5
5.113333333
5.047777778
4.920888889
5.006444444
4.891111111
5.050666667
5.047777778
4.894444444
4.963111111
4.928444444
5.020222222
5.135111111
5.046444444
5.172888889
5.413555556
5.359555556
5.673777778
6.605555556
6.332444444
6.268888889
6.342666667
6.010666667
5.773555556
5.636222222
5.500666667
5.572222222
5.516888889
5.474666667
5.581333333
5.67
5.503777778
5.355333333
5.109111111
5.181777778
5.308
5.268444444
4.997555556
5.114444444
5.185777778
5.118888889
4.959777778
4.996
4.964
4.986888889
5.025111111
4.882222222
4.872
4.966888889
5.119777778
5.122666667
5.134222222
5.101333333
5.398444444
5.24
5.306888889
5.525777778
5.927555556
6.713777778
6.409777778
6.417555556
6.258222222
6.309111111
6.215777778
5.815111111
5.813777778
5.687555556
5.568
5.627555556
5.604
5.654444444
5.628222222
5.515333333
5.216
5.378222222
5.298
5.396222222
5.326888889
5.188666667
5.277111111
5.355111111
5.123555556
5.172
5.197777778
5.172666667
5.061777778
5.157333333
5.020888889
5.11
4.979333333
5.136888889
5.126666667
5.205111111
5.531333333
5.340222222
5.366
5.808
5.798444444
7.000222222
6.774
6.442888889
6.274222222
6.230888889
6.191555556
5.912888889
5.899333333
5.932
5.641333333
5.825555556
5.627777778
5.631111111
5.718444444
5.56
5.370888889
5.475777778
5.34
5.255111111
5.393555556
5.243555556
5.254222222
5.141111111
5.212888889
5.247111111
5.189111111
5.218444444
5.105111111
5.335111111
5.213111111
5.159777778
5.115111111
5.205333333
5.233555556
5.507333333
5.462222222
5.470444444
5.616888889
5.944
6.024222222
6.828
6.705777778
6.624222222
6.513111111
6.275555556
6.116444444
5.995777778
6.000444444
5.974444444
5.787111111
5.935555556
5.467555556
5.498888889
5.581555556
5.499111111
5.506888889
5.559555556
5.412444444
5.284222222
5.387555556
5.255111111
5.402222222
5.332888889
5.131777778
5.202444444
5.132444444
5.127777778
5.037777778
5.302444444
5.143333333
5.256666667
5.133111111
5.385111111
5.358666667
5.527777778
5.547111111
5.618666667
5.727777778
5.888222222
6.284666667
6.951555556
6.942666667
6.689333333
6.502444444
6.277555556
6.039777778
6.201333333
6.078222222
5.829333333
5.675777778
5.854222222
5.669555556
5.537333333
5.678666667
5.627777778
5.518444444
5.424222222
5.395555556
5.517555556
5.455333333
5.357777778
5.262444444
5.423111111
5.335333333
5.361555556
5.379333333
5.258
5.131111111
5.157333333
5.223333333
5.177777778
5.317555556
5.373111111
5.235333333
5.591333333
5.519777778
5.793333333
5.975777778
5.992666667
6.098888889
6.918888889
6.634222222
6.348888889
6.261333333
6.324666667
6.207777778
6.205333333
6.051555556
5.874
5.638
5.810222222
5.768888889
5.711555556
5.788666667
5.652222222
5.634444444
5.557777778
5.391777778
5.680888889
5.561555556
5.623111111
5.428222222
5.274222222
5.496444444
5.482444444
5.516222222
5.487555556
5.383777778
5.134888889
5.333555556
5.180222222
5.215555556
5.296
5.380666667
5.552222222
5.678444444
5.605555556
5.733555556
6.014666667
6.413333333
7.081333333
6.850444444
6.712888889
6.309111111
6.272
6.23
6.032666667
6.153555556
6.012666667
5.785111111
5.776666667
5.888444444
5.879777778
5.730666667
5.655333333
5.760222222
5.722
5.357333333
5.676222222
5.597111111
5.649333333
5.473777778
5.302888889
5.454222222
5.565555556
5.303555556
5.417777778
5.141555556
5.365555556
5.304
5.295111111
5.417333333
5.377777778
5.518888889
5.692
5.614444444
5.592
5.866666667
6.023111111
6.314222222
6.999777778
6.97
6.613333333
6.397111111
6.282666667
6.284444444
6.014444444
6.043111111
6.266222222
6.077333333
5.893333333
5.829777778
5.913777778
5.814
5.829777778
5.718
5.712222222
5.517777778
5.617333333
5.735111111
5.426888889
5.759111111
5.317111111
5.344666667
5.465777778
5.386222222
5.226222222
5.340888889
5.296444444
5.433111111
5.362
5.568
5.661555556
5.789555556
5.610222222
5.528444444
5.789555556
6.163333333
6.183777778
6.626666667
7.156666667
6.777333333
6.588222222
6.53
6.366222222
6.341333333
6.217111111
6.171777778
6.054666667
6.021777778
6.072888889
5.942444444
5.770222222
5.981555556
5.749777778
5.623333333
5.467333333
5.523333333
5.769555556
5.701555556
5.737777778
5.654888889
5.450444444
5.467333333
5.448222222
5.433777778
5.507777778
5.306666667
5.387777778
5.359111111
5.544
5.666
5.702222222
5.708444444
5.599111111
5.852888889
5.835555556
6.170666667
6.278666667
6.390888889
7.058888889
6.674
6.544888889
6.697555556
6.647111111
6.490444444
6.353555556
6.115111111
6.085777778
5.876444444
6.057777778
5.981333333
6.077111111
5.984666667
5.839111111
5.536
5.553555556
5.704
5.587111111
5.699777778
5.507333333
5.648666667
5.414222222
5.316444444
5.487777778
5.428444444
5.523777778
5.364666667
5.290666667
5.189555556
5.359333333
5.425111111
5.619111111
5.618222222
5.683333333
5.775555556
5.942222222
6.072222222
6.326222222
6.751333333
6.877777778
6.828
6.950888889
6.601555556
6.594
6.671333333
6.474444444
6.338222222
6.384444444
6.049777778
6.137333333
6.104666667
5.950222222
5.882
6.107777778
5.838444444
5.779111111
5.736
5.621777778
5.513111111
5.487555556
5.754666667
5.551111111
5.406444444
5.594
5.540444444
5.442222222
5.433777778
5.347111111
5.624444444
5.467777778
5.500222222
5.722444444
5.768444444
5.817333333
5.886
6.152
6.043111111
6.223555556
6.513555556
6.896888889
6.924444444
6.920222222
6.744444444
6.785777778
6.687777778
6.506888889
6.494666667
6.338888889
6.143111111
6.166444444
6.105555556
5.993555556
5.991111111
5.922888889
5.965777778
5.814444444
5.748666667
5.499333333
5.642222222
5.586888889
5.787333333
5.616888889
5.427111111
5.719111111
5.583555556
5.781555556
5.612666667
5.433555556
5.754444444
5.528666667
5.609555556
5.730666667
5.759555556
5.907333333
5.980444444
5.972666667
6.071333333
6.442
6.655111111
7.318444444
7.087555556
6.830666667
6.789555556
6.835333333
6.626
6.554444444
6.626888889
6.319111111
6.153333333
6.417555556
6.120666667
5.995777778
6.022
6.126888889
6.062888889
5.967333333
5.920444444
6.075333333
5.805777778
5.719333333
5.592444444
5.654
5.630666667
5.762
5.748888889
5.645555556
5.608888889
5.668222222
5.719555556
5.697111111
5.690888889
5.813333333
5.786222222
6.024
5.898
6.043111111
6.151777778
6.438444444
6.732666667
7.024444444
7.045111111
6.898222222
6.876666667
6.818888889
6.641111111
6.719111111
6.796666667
6.378888889
6.240444444
6.373111111
6.334
6.041777778
6.093111111
6.165111111
6.236888889
6.155555556
6.008666667
5.877333333
5.949777778
5.853555556
5.694888889
5.679555556
5.725555556
5.642
5.774666667
5.734888889
5.774444444
5.678888889
5.818222222
5.79
5.775333333
5.680666667
5.787555556
5.873777778
6.030222222
6.051333333
6.097111111
6.455555556
6.599333333
7.166
7.050888889
6.869333333
6.947777778
6.850888889
6.589777778
6.698666667
6.740666667
6.404666667
6.388666667
6.336444444
6.110666667
6.162444444
6.193333333
6.104
6.038222222
6.160444444
6.052444444
6.022222222
6.078444444
5.830444444
5.833555556
5.697777778
5.698888889
5.633111111
5.634666667
5.748222222
5.751777778
5.741555556
5.760222222
5.625555556
5.814444444
5.710444444
5.900888889
5.932222222
5.878222222
6.107111111
6.206666667
6.452222222
6.547777778
7.167777778
7.377111111
7.167333333
6.922444444
6.641111111
6.647333333
6.803111111
6.747777778
6.722222222
6.509111111
6.411111111
6.434888889
6.276222222
6.258
6.064222222
5.993555556
6.137333333
6.104222222
5.841333333
5.921555556
5.966888889
6.022666667
5.824888889
5.686666667
5.726666667
5.685111111
5.688
5.894
6.090666667
5.954444444
5.778888889
5.770666667
5.913777778
5.911333333
6.085333333
6.145111111
5.967555556
6.319555556
6.520444444
6.585111111
7.312444444
7.222666667
7.097333333
7.033777778
6.887555556
6.816444444
6.808444444
6.832666667
6.635777778
6.613777778
6.504
6.412888889
6.258888889
6.194
6.294444444
6.122
6.169111111
6.214888889
6.029111111
6.104444444
6.112444444
6.048666667
5.989555556
5.876222222
5.746888889
5.987555556
6.105777778
6.064666667
6.095777778
6.047333333
5.759555556
5.896888889
5.89
5.944666667
6.010888889
6.125333333
6.129111111
6.244888889
6.380888889
6.707333333
7.491777778
7.393111111
7.332888889
7.218
7.180222222
7.083555556
7.098888889
6.78
6.658444444
6.373333333
6.473333333
6.594222222
6.460666667
6.276888889
6.325777778
6.304
6.359333333
6.227777778
6.040888889
6.203111111
6.177333333
6.207777778
5.993555556
6.233777778
6.134666667
6.107555556
5.962222222
6.153777778
5.992
6.192222222
5.803555556
6.065333333
6.035777778
6.050444444
6.061333333
6.33
6.289777778
6.246444444
6.525555556
6.559555556
7.580888889
7.436888889
7.221555556
7.343333333
7.249111111
7.189333333
6.867111111
7.051333333
6.820222222
6.488444444
6.622
6.606
6.462
6.391111111
6.286666667
6.424444444
6.229777778
5.982
5.996666667
6.147555556
6.174222222
6.218222222
6.183777778
6.168222222
6.078666667
5.881333333
5.998
6.217777778
6.173111111
6.028444444
6.019777778
5.944888889
6.265111111
6.160666667
5.982666667
6.116444444
6.403111111
6.322666667
6.449777778
6.406888889
7.528222222
7.217555556
7.227111111
7.157333333
7.107111111
6.907333333
6.772888889
7.178
6.861111111
6.682222222
6.499555556
6.566888889
6.732444444
6.637333333
6.684444444
6.483111111
6.29
6.374888889
6.050666667
6.154
6.220222222
6.136888889
5.966444444
6.045333333
5.999333333
6.031333333
5.995111111
5.993777778
5.955333333
6.015777778
6.146
6.188222222
6.225333333
6.086
6.368444444
6.321111111
6.497111111
6.700666667
6.523555556
6.540888889
7.653111111
7.281555556
7.256666667
7.291333333
6.978444444
6.962888889
6.901333333
6.990888889
6.705111111
6.674222222
6.482666667
6.593333333
6.393333333
6.446
6.542
6.468888889
6.367555556
6.385555556
6.300888889
6.253333333
6.172888889
6.161555556
6.198666667
6.152888889
6.137333333
6.167777778
6.076444444
6.075777778
5.979111111
6.067777778
6.067333333
6.108
6.08
6.22
6.204
6.182666667
6.341333333
6.595777778
6.421777778
6.838444444
7.757333333
7.646666667
7.399555556
7.474666667
7.302222222
7.247555556
6.967777778
6.896888889
6.815111111
6.707555556
6.686222222
6.614222222
6.499333333
6.628444444
6.580666667
6.477777778
6.488888889
6.509333333
6.304444444
6.384888889
6.377555556
6.092444444
6.251333333
6.180444444
6.239555556
6.215333333
6.061333333
6.224
6.333111111
6.243555556
6.408
6.427555556
6.297111111
6.234444444
6.258888889
6.429111111
6.348222222
6.361111111
6.402222222
6.727333333
7.502222222
7.619777778
7.383555556
7.404222222
7.539333333
7.339333333
7.361333333
7.093555556
6.996
6.777777778
6.882444444
6.688666667
6.616222222
6.761777778
6.680222222
6.587111111
6.538
6.635333333
6.413333333
6.308888889
6.550222222
6.339111111
6.612
6.394
6.206
6.424888889
6.269111111
6.312
6.250444444
6.368
6.367333333
6.187333333
6.218
6.230444444
6.500444444
6.473777778
6.311555556
6.591333333
6.481333333
6.667333333
7.821555556
7.527555556
7.503555556
7.699777778
7.514
7.615777778
7.268
7.384888889
7.22
6.834666667
6.644
7.018666667
6.858222222
6.837111111
6.615111111
6.501555556
6.736888889
6.767333333
6.609333333
6.417555556
6.330666667
6.505777778
6.420222222
6.225777778
6.244888889
6.202666667
6.25
6.41
6.446666667
6.423111111
6.284
6.208666667
6.265333333
6.345777778
6.328222222
6.453777778
6.697333333
6.688888889
6.703555556
6.969777778
7.900666667
7.712444444
7.579111111
7.589333333
7.494888889
7.283777778
7.249777778
7.147111111
7.029333333
7.122222222
6.813777778
7.128888889
7.029777778
7.156666667
6.932444444
6.513777778
6.792888889
6.704444444
6.705333333
6.664
6.406
6.481111111
6.422444444
6.227777778
6.428666667
6.365111111
6.246666667
6.366888889
6.393333333
6.569111111
6.531333333
6.309111111
6.287555556
6.398444444
6.580888889
6.568
6.713777778
6.715111111
6.670888889
6.690888889
7.634666667
7.451777778
7.420222222
7.559555556
7.475555556
7.451333333
7.390222222
7.235333333
7.164
7.236666667
7.169111111
7.200222222
7.023333333
6.808
6.787555556
6.801333333
6.843333333
6.798888889
6.590222222
6.826
6.646222222
6.633111111
6.420888889
6.377777778
6.208444444
6.224
6.343111111
6.400444444
6.551333333
6.428222222
6.304444444
6.354
6.403111111
6.338222222
6.534222222
6.451777778
6.788444444
6.691555556
6.587111111
6.982666667
7.786222222
7.376888889
7.434444444
7.680888889
7.750444444
7.701555556
7.334444444
7.282666667
7.361111111
7.181333333
7.238444444
7.152
6.894888889
6.74
7.184888889
7.228
6.742888889
6.741555556
6.638444444
6.741555556
6.795333333
6.83
6.544222222
6.571777778
6.517111111
6.579777778
6.282
6.340888889
6.398222222
6.545111111
6.550888889
6.725555556
6.314222222
6.437111111
6.396
6.502888889
6.916888889
6.711555556
6.713111111
6.726
7.778666667
7.670666667
7.827333333
7.619555556
7.661333333
7.756444444
7.592222222
7.496
7.286666667
7.580666667
7.216666667
6.883333333
6.937111111
7.114
6.999111111
6.975555556
7.075111111
7.09
7.011111111
6.914444444
6.766444444
6.736666667
6.617111111
6.606
6.525111111
6.505777778
6.537111111
6.577111111
6.375555556
6.528666667
6.586222222
6.505333333
6.412888889
6.488888889
6.377333333
6.602888889
6.819111111
6.693555556
6.889111111
6.704
8.026444444
8.017111111
7.783777778
7.703555556
7.572
7.716888889
7.697111111
7.556
7.611333333
7.530222222
7.312
7.172
7.033333333
6.965777778
7.364888889
7.094666667
6.928444444
6.960666667
6.897777778
6.848888889
6.528666667
6.610888889
6.624444444
6.805333333
6.376444444
6.602222222
6.446444444
6.622444444
6.566888889
6.478888889
6.675555556
6.585777778
6.745111111
6.661777778
6.364
6.658888889
6.976222222
6.912
6.937777778
6.814666667
8.067111111
7.946
8.051333333
7.998666667
7.864888889
7.718444444
7.656888889
7.791333333
7.674222222
7.461111111
7.383777778
7.349111111
7.350222222
7.320444444
7.259555556
7.262666667
7.206888889
7.155777778
6.960444444
6.978888889
6.760666667
6.766888889
6.810222222
6.709777778
6.816
6.736666667
6.724666667
6.730888889
6.792222222
6.681555556
6.570444444
6.731111111
6.676222222
6.581333333
6.511555556
6.707333333
6.914888889
6.992666667
7.038666667
6.791555556
7.987777778
7.974888889
8.142888889
8.134222222
7.887333333
7.937555556
7.640444444
7.717555556
7.807777778
7.623333333
7.395777778
7.419555556
7.366222222
7.349555556
7.177333333
7.237333333
7.184222222
7.070666667
6.945111111
6.998888889
6.810666667
7.017777778
7.043333333
6.539111111
6.959555556
7.003333333
6.881111111
6.735333333
6.769777778
6.616444444
6.656444444
6.721333333
6.781333333
6.626888889
6.647333333
6.630666667
6.768888889
6.808222222
7.058888889
6.808666667
8.149333333
8.065777778
8.314222222
7.906888889
7.899777778
7.612888889
7.668444444
7.629111111
7.729333333
7.731555556
7.469777778
7.316222222
7.474222222
7.549111111
7.169777778
7.284444444
7.053333333
7.159777778
7.162222222
6.907777778
7.167555556
6.988444444
7.035111111
6.791333333
6.870666667
7.001111111
6.805555556
6.94
6.866666667
6.902
6.803777778
6.842888889
7.000666667
6.913111111
6.713111111
6.854444444
6.824888889
6.945111111
6.867111111
6.696888889
8.087333333
8.228888889
7.96
7.801777778
7.745333333
7.598
7.908888889
7.761777778
7.730888889
7.735777778
7.755555556
7.484444444
7.548666667
7.383111111
7.095111111
7.332888889
6.991777778
7.358
7.299555556
7.115555556
7.268444444
7.075333333
7.176222222
6.981555556
6.864888889
6.867333333
6.806666667
6.692888889
6.948222222
7.087333333
6.897777778
6.801333333
6.945111111
6.879333333
6.840444444
6.835777778
6.961555556
6.775111111
7.008444444
6.841777778
8.218222222
8.282666667
8.219111111
8.132
7.988666667
8.064888889
8.076222222
7.91
7.766
7.871777778
7.822222222
7.656444444
7.639111111
7.421555556
7.195111111
7.317333333
7.282666667
7.371777778
7.338888889
7.252
7.116888889
7.061111111
7.196666667
7.263555556
7.022
7.09
6.953333333
6.803555556
6.935555556
7.128222222
7.012444444
6.934444444
6.854888889
7.050444444
7.322666667
7.034
6.783555556
6.733555556
6.677111111
6.778444444
8.317555556
8.266444444
8.407333333
8.087555556
7.903111111
8.016
8.076888889
8.229111111
8.028888889
7.904
7.899111111
7.814
7.823555556
7.656222222
7.634222222
7.535555556
7.430666667
7.300666667
7.138
7.154666667
7.355333333
7.209555556
7.333777778
7.146444444
6.888888889
7.136222222
7.030888889
6.788
7.056666667
7.134444444
7.122
6.872444444
6.936666667
6.986222222
6.849777778
7.083111111
6.900666667
7.076444444
6.878222222
6.853555556
8.330666667
8.496
8.486
8.220222222
8.189777778
7.975333333
8.138666667
8.348888889
8.117333333
8.128888889
8.288222222
7.980222222
7.589333333
7.769777778
7.865777778
7.412666667
7.474444444
7.574
7.3
7.269555556
7.194
7.399111111
7.195333333
7.167777778
7.164222222
7.521333333
7.542888889
7.194
7.201111111
7.254888889
7.195555556
6.732444444
7.018888889
6.842
6.840666667
6.890666667
6.866888889
6.833111111
6.844666667
6.873555556
8.584222222
8.550888889
8.436
8.346666667
8.510888889
8.466444444
8.496888889
8.565333333
8.450666667
8.024888889
8.271777778
8.145333333
7.980888889
7.824888889
8.033555556
7.738444444
7.480666667
7.757111111
7.534888889
7.450444444
7.318666667
7.439111111
7.194222222
7.409111111
7.228888889
7.424666667
7.268888889
7.176222222
7.282
7.305555556
7.148444444
6.813777778
6.802222222
6.980666667
6.852222222
6.928888889
6.881777778
6.911555556
6.825555556
6.705777778
8.787555556
8.92
8.596
8.649111111
8.502
8.540444444
8.48
8.194888889
8.390888889
8.257555556
8.220666667
8.094444444
8.077111111
7.798888889
7.869111111
7.963333333
7.76
7.833111111
7.774666667
7.639333333
7.645777778
7.473111111
7.450888889
7.561777778
7.388
7.290888889
7.262888889
7.141777778
7.186444444
7.217777778
7.192
7.201555556
6.866222222
6.898444444
6.959777778
7.047111111
6.909555556
6.939111111
6.849777778
6.806444444
8.983111111
8.900444444
8.718666667
8.578666667
8.513333333
8.708666667
8.447111111
8.447777778
8.082666667
8.289111111
8.414222222
8.139777778
7.989111111
7.692888889
7.976
7.750444444
7.831777778
7.536666667
7.744444444
7.757111111
7.52
7.535777778
7.522
7.355111111
7.324888889
7.220666667
7.344
7.176888889
7.242888889
7.182222222
6.94
7.054
7.075777778
7.163333333
7.039555556
7.044222222
6.821111111
6.685777778
6.780888889
6.614
)
;

boundaryField
{
    flow
    {
        type            calculated;
        value           nonuniform List<scalar> 
160
(
9.000444444
9.082
9.038888889
9.247111111
8.927333333
8.752666667
8.862666667
8.973333333
8.788666667
8.754666667
8.814666667
8.712444444
8.727111111
8.664
8.740222222
8.86
8.847555556
8.620888889
8.883333333
8.762444444
8.823555556
9.060222222
8.741333333
8.622666667
8.864444444
8.990444444
8.902444444
8.704666667
8.938444444
8.930444444
8.864888889
8.772888889
8.923777778
8.665111111
8.968
9.309333333
9.067777778
9.236888889
9.174888889
9.311333333
5.673777778
5.927555556
5.798444444
6.024222222
6.284666667
6.098888889
6.413333333
6.314222222
6.626666667
6.390888889
6.751333333
6.513555556
6.655111111
6.732666667
6.599333333
6.547777778
6.585111111
6.707333333
6.559555556
6.406888889
6.540888889
6.838444444
6.727333333
6.667333333
6.969777778
6.690888889
6.982666667
6.726
6.704
6.814666667
6.791555556
6.808666667
6.696888889
6.841777778
6.778444444
6.853555556
6.873555556
6.705777778
6.806444444
6.614
9.000444444
9.014222222
9.142666667
8.877111111
8.742
8.892222222
8.992
8.826444444
8.998222222
8.695333333
8.577333333
8.430666667
8.607333333
8.508
8.225111111
8.136666667
8.350222222
8.403555556
8.091111111
7.481555556
9.311333333
9.505777778
9.278
9.303777778
9.191111111
8.977111111
8.976
9.230444444
9.198222222
9.349333333
9.25
9.039777778
8.948222222
8.993555556
9.157555556
8.774666667
8.621777778
8.564444444
8.883777778
8.863333333
8.983111111
8.900444444
8.718666667
8.578666667
8.513333333
8.708666667
8.447111111
8.447777778
8.082666667
8.289111111
8.414222222
8.139777778
7.989111111
7.692888889
7.976
7.750444444
7.831777778
7.536666667
7.744444444
7.757111111
7.52
7.535777778
7.522
7.355111111
7.324888889
7.220666667
7.344
7.176888889
7.242888889
7.182222222
6.94
7.054
7.075777778
7.163333333
7.039555556
7.044222222
6.821111111
6.685777778
6.780888889
6.614
)
;
    }
    obstacle
    {
        type            calculated;
        value           nonuniform List<scalar> 
40
(
6.651111111
6.540444444
6.348222222
6.135777778
5.888666667
5.782
5.562666667
5.434666667