/*--------------------------------*- C++ -*----------------------------------*\
  =========                 |
  \\      /  F ield         | OpenFOAM: The Open Source CFD Toolbox
   \\    /   O peration     | Website:  https://openfoam.org
    \\  /    A nd           | Version:  7
     \\/     M anipulation  |
\*---------------------------------------------------------------------------*/
FoamFile
{
    version     2.0;
    format      ascii;
    class       volVectorField;
    location    "0.009";
    object      fDMean;
}
// * * * * * * * * * * * * * * * * * * * * * * * * * * * * * * * * * * * * * //

dimensions      [1 -1 -2 0 0 0 0];

internalField   uniform (0 0 0);

boundaryField
{
    flow
    {
        type            calculated;
        value           uniform (0 0 0);
    }
    obstacle
    {
        type            calculated;
        value           nonuniform List<vector> 
40
(
(4.320373018 -2.569394659 -0.01015479989)
(3.885651355 -2.704160926 0.0302464583)
(3.603304698 -2.842123207 0.03624631398)
(3.376349601 -2.843336384 -0.02446901202)
(3.074576426 -2.791086241 -0.009559461997)
(2.878411486 -2.827778368 0.008093570926)
(2.804724874 -2.851794947 0.004435763445)
(2.694140002 -2.80801478 0.02664074948)
(2.609284783 -2.779165515 0.0002722032592)
(2.482237077 -2.834943338 -0.01190214457)
(2.381464747 -2.711088322 0.0007337342816)
(2.30657812 -2.724837329 -0.01302615894)
(2.271800002 -2.719154781 0.03278980409)
(2.241203287 -2.708496321 0.0417476676)
(2.124822365 -2.716656106 0.03217309553)
(2.073969844 -2.689889954 -0.04232438931)
(1.984791918 -2.628649541 0.01533543972)
(2.073339358 -2.6560014 0.002346714393)
(1.954632514 -2.629126219 0.004193141183)
(1.950868662 -2.652587612 0.002887173864)
(1.873694467 -2.580615891 -0.02551045796)
(1.865339107 -2.570550964 0.00013146355)
(1.799415995 -2.58238661 0.006539804264)
(1.842141575 -2.585574514 -0.02136996671)
(1.776232915 -2.532200318 -0.0006321176087)
(1.768172883 -2.597560666 -0.007745013536)
(1.690511888 -2.472313624 0.004550794168)
(1.656403318 -2.476959426 -2.889355505e-05)
(1.730093418 -2.515281407 -0.009073881618)
(1.67007929 -2.494663354 0.01047232074)
(1.636468262 -2.420906786 -0.02863931281)
(1.653214516 -2.488224405 -0.009134577168)
(1.652638905 -2.456117598 0.01112811798)
(1.59363502 -2.365754995 0.02429513499)
(1.579523643 -2.302975201 -0.0280548507)
(1.578582105 -2.265182591 0.004168556962)
(1.54563956 -2.138319455 -0.0122107498)
(1.531452513 -2.062396065 0.000979224761)
(1.526261222 -1.888851993 -0.0007069866661)
(1.417159181 -1.546145117 -0.006455063859)
)
;
    }
    frontAndBack
    {
        type            empty;
    }
}


// ************************************************************************* //
