/*--------------------------------*- C++ -*----------------------------------*\
  =========                 |
  \\      /  F ield         | OpenFOAM: The Open Source CFD Toolbox
   \\    /   O peration     | Website:  https://openfoam.org
    \\  /    A nd           | Version:  7
     \\/     M anipulation  |
\*---------------------------------------------------------------------------*/
FoamFile
{
    version     2.0;
    format      ascii;
    class       volScalarField;
    location    "0.009";
    object      iDofMean;
}
// * * * * * * * * * * * * * * * * * * * * * * * * * * * * * * * * * * * * * //

dimensions      [0 -3 0 0 0 0 0];

internalField   nonuniform List<scalar> 
2400
(
1.525581292e+20
1.970559859e+20
1.976715689e+20
1.96431146e+20
1.976160276e+20
1.968199353e+20
1.966116553e+20
1.96681082e+20
1.962969211e+20
1.971346694e+20
1.973059218e+20
1.968986188e+20
1.975234587e+20
1.970652428e+20
1.975651147e+20
1.971161557e+20
1.973660916e+20
2.019436223e+20
2.14033117e+20
2.685376687e+20
1.547520115e+20
1.991711846e+20
2.005689746e+20
2.002264697e+20
2.011012456e+20
2.010040483e+20
2.004254928e+20
2.002634973e+20
2.008142821e+20
1.997775107e+20
1.997404832e+20
1.992406113e+20
1.987870238e+20
1.985556016e+20
1.981482986e+20
2.005458324e+20
2.021935583e+20
2.057806021e+20
2.202861443e+20
2.578737347e+20
1.548168097e+20
1.983843492e+20
1.99342437e+20
1.991572993e+20
1.992544966e+20
1.99300781e+20
1.995646023e+20
1.990138175e+20
1.98402863e+20
1.989490193e+20
1.99101758e+20
1.98935134e+20
1.995275748e+20
1.999626485e+20
2.006522866e+20
2.016659157e+20
2.022861271e+20
2.067896028e+20
2.162779121e+20
2.389017444e+20
1.56186829e+20
1.996247721e+20
2.011753007e+20
2.009392501e+20
2.004254928e+20
1.99874708e+20
1.994998041e+20
2.002542404e+20
2.004162359e+20
2.003190386e+20
1.993563223e+20
1.990878726e+20
1.996571712e+20
1.985463447e+20
1.985556016e+20
2.000459604e+20
2.025499484e+20
2.065396668e+20
2.132786807e+20
2.272704656e+20
1.549788052e+20
1.996062583e+20
2.000459604e+20
1.998793365e+20
2.001709284e+20
2.000922449e+20
1.998561943e+20
1.997127125e+20
1.999811622e+20
1.997589969e+20
2.002773826e+20
2.020917325e+20
2.024712649e+20
2.0254532e+20
2.01314154e+20
2.019112232e+20
2.02670288e+20
2.05498267e+20
2.107932065e+20
2.182450006e+20
1.55237998e+20
1.994535197e+20
2.014298651e+20
1.995877445e+20
1.995877445e+20
2.003514377e+20
1.998099098e+20
1.993933499e+20
1.98935134e+20
1.998793365e+20
2.001755569e+20
2.011290162e+20
2.013928375e+20
2.022583565e+20
2.032071874e+20
2.037024309e+20
2.038273989e+20
2.052159319e+20
2.08816861e+20
2.137554104e+20
1.552981678e+20
1.985972576e+20
2.011521585e+20
2.010457043e+20
2.014530073e+20
2.001200155e+20
2.016427735e+20
2.036607749e+20
2.033876967e+20
2.016936864e+20
2.013280393e+20
1.995229463e+20
2.006013737e+20
1.998700796e+20
2.001061302e+20
2.000737311e+20
2.014622642e+20
2.031794168e+20
2.048595418e+20
2.093398752e+20
1.546686995e+20
1.998006529e+20
1.994766619e+20
1.989675331e+20
1.999857907e+20
1.994303774e+20
1.988981064e+20
1.980233306e+20
1.988749642e+20
2.008142821e+20
2.008374243e+20
2.010364474e+20
2.01272498e+20
2.001940706e+20
2.017677415e+20
2.025592053e+20
2.015178055e+20
2.017029433e+20
2.030822194e+20
2.057806021e+20
1.555897598e+20
2.005412039e+20
2.006106306e+20
2.002820111e+20
2.001524146e+20
2.021195032e+20
2.026008613e+20
2.019667645e+20
2.021935583e+20
2.011151309e+20
2.007911399e+20
2.005874883e+20
2.00573603e+20
1.994581481e+20
1.993285517e+20
1.986157714e+20
2.005180617e+20
2.025221778e+20
2.03693174e+20
2.060629371e+20
1.553074247e+20
1.998145383e+20
2.013002687e+20
2.020037921e+20
2.007587408e+20
1.98893478e+20
1.986898265e+20
1.987129687e+20
1.982593812e+20
1.98069615e+20
1.977363671e+20
1.994396343e+20
1.993609508e+20
1.999024787e+20
1.998839649e+20
2.005365755e+20
2.009762776e+20
2.007494839e+20
2.020408196e+20
2.030868479e+20
1.550760025e+20
1.982593812e+20
1.983658354e+20
1.987222256e+20
1.989860469e+20
2.003144102e+20
1.991943268e+20
1.991110148e+20
1.980233306e+20
1.9876851e+20
1.992683819e+20
1.985556016e+20
1.992961526e+20
1.999719053e+20
2.014437504e+20
1.997543685e+20
2.012354704e+20
2.024249805e+20
2.023462969e+20
2.039569953e+20
1.551361723e+20
2.001477862e+20
2.009438785e+20
2.007772545e+20
2.008883372e+20
2.00082988e+20
1.99425749e+20
2.00448635e+20
2.006939425e+20
2.009901629e+20
2.006893141e+20
2.008698234e+20
2.013002687e+20
2.016011175e+20
2.014437504e+20
2.015918606e+20
2.003421808e+20
2.002310982e+20
2.001015018e+20
2.017307139e+20
1.543076809e+20
1.989119918e+20
1.995784876e+20
1.979955599e+20
1.993100379e+20
1.994581481e+20
2.007170848e+20
2.022259574e+20
2.027443431e+20
2.021750445e+20
2.01971393e+20
2.009762776e+20
2.008142821e+20
2.004440066e+20
1.991619277e+20
1.998006529e+20
2.007124563e+20
2.002727542e+20
2.012400989e+20
2.014530073e+20
1.558304388e+20
1.994350059e+20
2.007679976e+20
2.01846425e+20
2.014668926e+20
2.007541123e+20
1.999765338e+20
1.986203998e+20
1.985324594e+20
1.994396343e+20
1.992776388e+20
1.991619277e+20
1.985648585e+20
1.985000603e+20
1.98935134e+20
1.996571712e+20
1.995877445e+20
1.998423089e+20
2.015363193e+20
2.0114753e+20
1.545344746e+20
1.995322032e+20
1.994998041e+20
1.985926292e+20
1.988842211e+20
1.982640097e+20
1.987083402e+20
1.988240513e+20
1.980187022e+20
1.971763254e+20
1.974586605e+20
1.996664281e+20
2.00082988e+20
2.006615434e+20
2.01397466e+20
2.01022562e+20
2.014992917e+20
2.005226901e+20
2.003375524e+20
2.012910118e+20
1.545668737e+20
1.994488912e+20
2.002125844e+20
2.004393782e+20
1.991943268e+20
2.005689746e+20
2.019899068e+20
2.019899068e+20
2.020037921e+20
2.017816268e+20
2.022490996e+20
2.011243878e+20
2.00906851e+20
2.015455762e+20
2.000598458e+20
1.997960245e+20
1.990832442e+20
1.998978502e+20
2.0114753e+20
1.995646023e+20
1.542382542e+20
1.976530551e+20
1.98726854e+20
1.981575555e+20
1.994812903e+20
1.998700796e+20
1.99467405e+20
1.997358547e+20
2.017723699e+20
2.00531947e+20
1.985370878e+20
1.982732665e+20
1.983288079e+20
1.988981064e+20
1.98402863e+20
2.000367036e+20
2.00781883e+20
2.004162359e+20
2.005180617e+20
2.006661719e+20
1.563534529e+20
1.986342851e+20
1.995599739e+20
2.005226901e+20
1.996571712e+20
1.992544966e+20
1.982130968e+20
1.973938623e+20
1.953295764e+20
1.974216329e+20
1.978613351e+20
1.999395062e+20
1.995553454e+20
1.996479143e+20
2.003190386e+20
1.996479143e+20
1.987962807e+20
2.003468093e+20
2.001894422e+20
2.014252366e+20
1.541086578e+20
1.993146664e+20
1.998608227e+20
2.00082988e+20
1.988795927e+20
1.987638816e+20
1.978891057e+20
1.992128406e+20
1.987314825e+20
1.991989553e+20
1.994812903e+20
1.99259125e+20
1.985880007e+20
1.990508451e+20
1.991063864e+20
1.996849418e+20
2.000876164e+20
1.985694869e+20
1.977409955e+20
1.972226099e+20
1.56311797e+20
2.013650669e+20
2.028507973e+20
2.014900348e+20
2.01522434e+20
2.020223059e+20
2.019251085e+20
2.026193751e+20
2.018973379e+20
2.024758933e+20
2.012169567e+20
2.007957683e+20
2.001894422e+20
1.994350059e+20
2.002172129e+20
1.992915241e+20
1.988240513e+20
1.986574274e+20
1.995368316e+20
1.989027349e+20
1.545715022e+20
1.970143299e+20
1.982964088e+20
1.98893478e+20
1.992498681e+20
1.999533916e+20
1.990138175e+20
1.997960245e+20
2.00207956e+20
1.992776388e+20
2.008559381e+20
2.007865114e+20
2.003468093e+20
2.013326678e+20
2.00740227e+20
1.996016299e+20
2.006800572e+20
2.005134332e+20
2.003745799e+20
2.001616715e+20
1.547797821e+20
1.992452397e+20
2.000274467e+20
1.996849418e+20
1.993100379e+20
1.996386574e+20
1.99833052e+20
1.995553454e+20
1.992035837e+20
1.989212487e+20
1.987037118e+20
1.988842211e+20
1.998469374e+20
2.000644742e+20
2.014206082e+20
2.013048971e+20
2.028322835e+20
2.019806499e+20
2.009114794e+20
2.005412039e+20
1.553814798e+20
1.987453678e+20
2.002681257e+20
1.997497401e+20
1.996062583e+20
1.99425749e+20
1.999904191e+20
2.009901629e+20
2.022398427e+20
2.015455762e+20
2.0254532e+20
2.029063386e+20
2.014668926e+20
2.003699515e+20
2.005412039e+20
1.986898265e+20
1.986157714e+20
1.992544966e+20
2.00249612e+20
2.007541123e+20
1.55237998e+20
1.998099098e+20
2.004208644e+20
2.010364474e+20
2.028369119e+20
2.035358069e+20
2.029202239e+20
2.011706722e+20
2.002727542e+20
2.007263417e+20
2.011614154e+20
2.003884653e+20
2.000505889e+20
2.006060021e+20
1.999811622e+20
2.006198875e+20
2.004532635e+20
2.006754288e+20
2.001385293e+20
1.979724177e+20
1.551037732e+20
1.99999676e+20
2.014159797e+20
2.00207956e+20
1.991804415e+20
2.001292724e+20
1.985232025e+20
1.998052814e+20
1.989582762e+20
1.99833052e+20
1.998885934e+20
2.003051533e+20
1.998469374e+20
2.004995479e+20
2.007726261e+20
2.001385293e+20
1.9897679e+20
1.99342437e+20
2.000598458e+20
2.019482508e+20
1.546316719e+20
1.982269821e+20
1.984213767e+20
1.981436701e+20
1.982547528e+20
1.98277895e+20
1.996895703e+20
1.987175971e+20
1.996247721e+20
1.985463447e+20
1.978752204e+20
1.978844773e+20
1.97412376e+20
1.975928853e+20
1.98685198e+20
1.987407394e+20
1.996432859e+20
2.002449835e+20
2.001616715e+20
1.998006529e+20
1.55038975e+20
1.98111271e+20
1.996108867e+20
1.988703358e+20
1.997636254e+20
1.992128406e+20
1.978057937e+20
1.974818027e+20
1.976391698e+20
1.976576836e+20
1.977965369e+20
1.980094453e+20
1.99999676e+20
1.999487631e+20
1.993146664e+20
2.001385293e+20
2.005365755e+20
2.007078279e+20
1.997728823e+20
2.005550892e+20
1.549834336e+20
1.993979783e+20
2.002588689e+20
1.999533916e+20
2.000043045e+20
2.008374243e+20
2.001061302e+20
2.004162359e+20
2.009207363e+20
2.019065948e+20
2.01929737e+20
2.003375524e+20
1.994951757e+20
2.00615259e+20
2.01679801e+20
2.020732187e+20
2.018788241e+20
2.011151309e+20
2.010549611e+20
2.01022562e+20
1.551870852e+20
2.00124644e+20
2.023925813e+20
2.019852783e+20
2.016520304e+20
2.016705441e+20
2.023138978e+20
2.031979305e+20
2.018371681e+20
2.011429016e+20
2.002681257e+20
2.020824756e+20
2.022074436e+20
2.002588689e+20
1.980325875e+20
1.970744997e+20
1.974170045e+20
1.975928853e+20
1.981899546e+20
1.979677893e+20
1.550019474e+20
1.997451116e+20
2.013326678e+20
2.009577638e+20
2.011336447e+20
2.020871041e+20
2.018232828e+20
2.016659157e+20
2.02295384e+20
2.024712649e+20
2.024990355e+20
2.009531354e+20
1.994812903e+20
1.999024787e+20
2.003699515e+20
2.01230842e+20
2.022814987e+20
2.003282955e+20
1.993702077e+20
1.997080841e+20
1.556823286e+20
1.990878726e+20
2.002958964e+20
1.991665562e+20
1.997728823e+20
1.983843492e+20
1.989305055e+20
1.989397624e+20
1.982825234e+20
1.989999322e+20
1.984213767e+20
1.995414601e+20
2.010133052e+20
2.004578919e+20
2.010410758e+20
2.015039202e+20
2.01480778e+20
2.024064667e+20
2.029665084e+20
2.039060824e+20
1.544743048e+20
1.975651147e+20
1.982223537e+20
1.976854542e+20
1.989582762e+20
1.997543685e+20
1.987823953e+20
1.979631608e+20
1.986389136e+20
1.991249002e+20
1.998145383e+20
1.993702077e+20
2.006939425e+20
2.012493558e+20
2.005921168e+20
2.00406979e+20
2.00041332e+20
2.010827318e+20
2.01230842e+20
2.00823539e+20
1.557841544e+20
2.011706722e+20
2.025962329e+20
2.011151309e+20
2.005504608e+20
2.011706722e+20
2.014576357e+20
2.018186543e+20
2.01105874e+20
2.006800572e+20
2.011429016e+20
2.01064218e+20
2.001200155e+20
2.009485069e+20
2.016011175e+20
2.02378696e+20
2.016242597e+20
2.005550892e+20
2.001940706e+20
2.007865114e+20
1.551176585e+20
1.978983626e+20
1.999950476e+20
1.998145383e+20
1.998145383e+20
1.999487631e+20
1.989305055e+20
1.976484267e+20
1.980881288e+20
1.995414601e+20
1.997127125e+20
1.990508451e+20
1.990462166e+20
1.996294005e+20
1.987870238e+20
1.98236239e+20
1.996016299e+20
1.999441347e+20
1.98361207e+20
1.975975138e+20
1.550574887e+20
1.997451116e+20
1.999857907e+20
2.004995479e+20
1.992267259e+20
1.995692308e+20
2.013002687e+20
2.018695672e+20
2.021333885e+20
2.016890579e+20
2.00740227e+20
2.003190386e+20
1.992961526e+20
1.996941987e+20
1.995136894e+20
1.990277029e+20
1.994812903e+20
1.998284236e+20
1.999719053e+20
2.005597177e+20
1.556869571e+20
2.006754288e+20
2.012400989e+20
2.012771264e+20
2.014067229e+20
2.003468093e+20
1.996201436e+20
1.996617996e+20
1.989675331e+20
1.977965369e+20
1.994072352e+20
1.995275748e+20
2.012493558e+20
2.013696953e+20
2.003930937e+20
2.003282955e+20
1.997728823e+20
1.994581481e+20
2.000228182e+20
1.992730104e+20
1.555805029e+20
1.993331801e+20
1.99675685e+20
1.993887215e+20
1.997127125e+20
1.992406113e+20
2.001385293e+20
2.010966171e+20
2.018093975e+20
2.026564026e+20
2.019852783e+20
2.018279112e+20
2.000644742e+20
1.991572993e+20
1.993146664e+20
1.998793365e+20
2.00531947e+20
2.003560662e+20
2.01022562e+20
2.013419247e+20
1.551778283e+20
1.991434139e+20
1.99592373e+20
2.015039202e+20
2.013604384e+20
2.025268062e+20
2.020639619e+20
2.010040483e+20
2.001986991e+20
1.98685198e+20
2.003699515e+20
2.003421808e+20
2.005134332e+20
2.008281674e+20
2.006754288e+20
2.004440066e+20
2.003792084e+20
1.994118637e+20
1.981205279e+20
1.978659635e+20
1.552009705e+20
1.992868957e+20
1.999904191e+20
1.988842211e+20
1.982593812e+20
1.972318667e+20
1.970282152e+20
1.982038399e+20
1.981806977e+20
1.990786157e+20
1.979353902e+20
1.981760692e+20
1.982454959e+20
1.984260052e+20
1.984584043e+20
1.972272383e+20
1.985648585e+20
2.007541123e+20
2.0114753e+20
2.009392501e+20
1.519749453e+20
1.958942465e+20
1.969726739e+20
1.969263895e+20
1.972318667e+20
1.982130968e+20
1.985139456e+20
1.977409955e+20
1.981575555e+20
1.977409955e+20
1.988657073e+20
1.988240513e+20
1.991249002e+20
1.986389136e+20
1.989721615e+20
1.991896984e+20
1.984306336e+20
1.964959442e+20
1.961395541e+20
1.960840127e+20
4.834413861e+20
5.582831416e+20
5.966715082e+20
6.077216331e+20
6.051406249e+20
6.156374424e+20
6.201763382e+20
6.252242422e+20
6.262277434e+20
6.29007705e+20
6.157507892e+20
6.151296228e+20
6.228119411e+20
6.096183211e+20
6.082896538e+20
6.102475716e+20
6.139094122e+20
6.044799981e+20
5.984996244e+20
6.002767151e+20
5.866424017e+20
5.873392863e+20
5.938632918e+20
5.850364085e+20
5.865705591e+20
5.962236121e+20
5.80927565e+20
5.773916682e+20
5.780114312e+20
5.746511163e+20
5.745686713e+20
5.727583615e+20
5.678553728e+20
5.566898867e+20
5.48447321e+20
5.390008603e+20
5.135914928e+20
4.883703459e+20
4.452460014e+20
3.654850948e+20
3.299520788e+20
3.909848033e+20
4.400584233e+20
4.774349391e+20
4.993485794e+20
5.250682955e+20
5.325317754e+20
5.369608488e+20
5.462443654e+20
5.539456668e+20
5.486086133e+20
5.476624323e+20
5.53906875e+20
5.554992372e+20
5.551023788e+20
5.485930214e+20
5.479494014e+20
5.448312733e+20
5.37353768e+20
5.409354336e+20
5.439066844e+20
5.383523214e+20
5.447395452e+20
5.367379799e+20
5.423330522e+20
5.371204757e+20
5.251797087e+20
5.299244426e+20
5.26806714e+20
5.323643102e+20
5.258900751e+20
5.247658014e+20
5.254644449e+20
5.161798009e+20
5.035237626e+20
4.963842321e+20
4.820324822e+20
4.500279134e+20
4.08243576e+20
3.473086547e+20
2.766662765e+20
3.204446926e+20
3.584625205e+20
3.970863405e+20
4.306988347e+20
4.559187296e+20
4.747365401e+20
4.905706159e+20
5.005753747e+20
5.146651633e+20
5.139307855e+20
5.213666002e+20
5.24187486e+20
5.219736448e+20
5.262540861e+20
5.276758065e+20
5.244522227e+20
5.117672458e+20
5.175790735e+20
5.147768067e+20
5.183265813e+20
5.114892015e+20
5.188794759e+20
5.132031725e+20
5.158838791e+20
5.064486813e+20
5.026964531e+20
5.038587571e+20
5.01560423e+20
5.029876929e+20
4.994915888e+20
4.923936551e+20
4.917989627e+20
4.845440382e+20
4.853147792e+20
4.752468234e+20
4.525121188e+20
4.31605645e+20
4.021779131e+20
3.519872998e+20
2.509244776e+20
2.729611853e+20
3.057056156e+20
3.356915511e+20
3.63467354e+20
3.929632415e+20
4.22050999e+20
4.441511147e+20
4.532800865e+20
4.699654647e+20
4.83555282e+20
4.917712334e+20
4.980603283e+20
5.029756396e+20
5.065425406e+20
5.066809675e+20
5.070666055e+20
5.038165348e+20
5.072680578e+20
5.033387454e+20
5.034142694e+20
5.014738232e+20
5.015738366e+20
4.985510885e+20
5.005343588e+20
4.942830244e+20
4.989181819e+20
4.947070077e+20
4.943357104e+20
4.854208001e+20
4.830297769e+20
4.853641742e+20
4.850765646e+20
4.746263821e+20
4.672812311e+20
4.590717925e+20
4.413334297e+20
4.281499167e+20
3.988722213e+20
3.556782998e+20
2.324704598e+20
2.482115819e+20
2.680887131e+20
2.907610173e+20
3.179252971e+20
3.464932333e+20
3.727073424e+20
3.996974666e+20
4.211471982e+20
4.367772256e+20
4.518437151e+20
4.671628343e+20
4.777465134e+20
4.897682784e+20
4.931378682e+20
4.985821453e+20
5.028688185e+20
5.008842831e+20
4.956066014e+20
4.984656932e+20
5.006007271e+20
4.997277754e+20
4.962826624e+20
4.948205652e+20
4.971622419e+20
4.929051461e+20
4.872388623e+20
4.886931645e+20
4.87645099e+20
4.832951651e+20
4.80465285e+20
4.793422708e+20
4.741519255e+20
4.608052239e+20
4.517763733e+20
4.460402102e+20
4.382908534e+20
4.20355881e+20
3.954285305e+20
3.643581691e+20
2.208258028e+20
2.321046973e+20
2.458331445e+20
2.645756439e+20
2.821391817e+20
3.018218152e+20
3.296067138e+20
3.535755258e+20
3.763822515e+20
3.988280129e+20
4.148576891e+20
4.350212525e+20
4.527071446e+20
4.642557977e+20
4.785108544e+20
4.834867681e+20
4.940873608e+20
4.99675649e+20
4.980056204e+20
5.027249433e+20
5.048075911e+20
4.995542543e+20
5.001799834e+20
4.966004153e+20
4.988677438e+20
4.982934343e+20
4.924742244e+20
4.784878527e+20
4.791167226e+20
4.835905538e+20
4.802608276e+20
4.756772788e+20
4.657949954e+20
4.64348957e+20
4.598947931e+20
4.495376799e+20
4.343367423e+20
4.245263734e+20
4.033320816e+20
3.81122782e+20
2.154377684e+20
2.235414842e+20
2.313477175e+20
2.455649306e+20
2.575750274e+20
2.729962717e+20
2.920516776e+20
3.128291944e+20
3.393311643e+20
3.579737155e+20
3.774678516e+20
3.982794055e+20
4.17144055e+20
4.356848763e+20
4.520250703e+20
4.630715254e+20
4.736981093e+20
4.817878629e+20
4.947592658e+20
4.934325197e+20
4.937578483e+20
4.892189489e+20
4.891439495e+20
4.907814611e+20
4.915901934e+20
4.910567724e+20
4.885208763e+20
4.865233962e+20
4.823557843e+20
4.797099707e+20
4.814583722e+20
4.775451309e+20
4.682735436e+20
4.623402452e+20
4.57481053e+20
4.517289428e+20
4.405820267e+20
4.317050912e+20
4.151811413e+20
3.901951814e+20
2.100636685e+20
2.154319205e+20
2.21891691e+20
2.31049641e+20
2.40589277e+20
2.508360936e+20
2.661980814e+20
2.848779815e+20
3.046679336e+20
3.253843094e+20
3.463993898e+20
3.667856771e+20
3.850365918e+20
4.047283736e+20
4.236441431e+20
4.37445091e+20
4.52823896e+20
4.619557524e+20
4.705413551e+20
4.786425673e+20
4.840799075e+20
4.893436659e+20
4.920245783e+20
4.928588721e+20
4.878069799e+20
4.923226296e+20
4.958628077e+20
4.95361922e+20
4.896321796e+20
4.845983454e+20
4.819490648e+20
4.843506976e+20
4.759409957e+20
4.695116536e+20
4.612075346e+20
4.529374843e+20
4.454107199e+20
4.298218393e+20
4.147044154e+20
4.000209614e+20
2.087909777e+20
2.112461881e+20
2.139143457e+20
2.213190389e+20
2.318504743e+20
2.419441298e+20
2.521137316e+20
2.623072551e+20
2.767948638e+20
2.910033522e+20
3.094632166e+20
3.295165078e+20
3.503234949e+20
3.692555745e+20
3.883092215e+20
4.105042159e+20
4.272877925e+20
4.398955509e+20
4.553581597e+20
4.676475104e+20
4.759136406e+20
4.837801703e+20
4.891166194e+20
4.919000678e+20
4.915179742e+20
4.903958362e+20
4.892889545e+20
4.946785347e+20
4.983098764e+20
4.950122172e+20
4.895666004e+20
4.895948285e+20
4.816232387e+20
4.733851757e+20
4.694408988e+20
4.625387425e+20
4.493525247e+20
4.414818212e+20
4.288555379e+20
4.114358454e+20
2.05172634e+20
2.102780916e+20
2.136129585e+20
2.180328268e+20
2.226341408e+20
2.280555463e+20
2.351863584e+20
2.448633568e+20
2.559330526e+20
2.687029932e+20
2.832703893e+20
3.013574681e+20
3.204320839e+20
3.366577087e+20
3.530924248e+20
3.745899482e+20
3.927564304e+20
4.147769801e+20
4.285770581e+20
4.406028723e+20
4.556324684e+20
4.659943333e+20
4.737787697e+20
4.839706388e+20
4.907791065e+20
4.905134639e+20
4.920901881e+20
4.906920851e+20
4.931756215e+20
4.954639911e+20
4.878783591e+20
4.858002007e+20
4.860988934e+20
4.814020473e+20
4.765853579e+20
4.725733654e+20
4.607283e+20
4.514636573e+20
4.396758775e+20
4.228380598e+20
2.047638864e+20
2.073971852e+20
2.095677757e+20
2.121811878e+20
2.14153204e+20
2.201975317e+20
2.247587088e+20
2.337804325e+20
2.425640022e+20
2.52311784e+20
2.647001037e+20
2.756542458e+20
2.920332181e+20
3.087698388e+20
3.24043832e+20
3.456463615e+20
3.657185122e+20
3.823172708e+20
4.005196585e+20
4.167660174e+20
4.291055481e+20
4.450905531e+20
4.565551254e+20
4.712251437e+20
4.826793635e+20
4.881777922e+20
4.896052184e+20
4.836759298e+20
4.873005177e+20
4.888438226e+20
4.89554917e+20
4.916512316e+20
4.9188812e+20
4.883755864e+20
4.858047858e+20
4.78042357e+20
4.692339626e+20
4.588847734e+20
4.502954961e+20
4.369436436e+20
2.031056724e+20
2.030290581e+20
2.048821452e+20
2.077995714e+20
2.100846465e+20
2.129262234e+20
2.167963058e+20
2.21999949e+20
2.269643212e+20
2.353761818e+20
2.460400833e+20
2.5940266e+20
2.703432275e+20
2.844858319e+20
3.005676794e+20
3.15165807e+20
3.300659984e+20
3.486226461e+20
3.659059957e+20
3.874102869e+20
4.040418955e+20
4.216327736e+20
4.342425481e+20
4.474423695e+20
4.625022124e+20
4.751999712e+20
4.809191557e+20
4.865917369e+20
4.881217688e+20
4.946878697e+20
4.954958864e+20
4.921049283e+20
4.909608843e+20
4.877759699e+20
4.813342166e+20
4.81375028e+20
4.780475741e+20
4.706877042e+20
4.66027325e+20
4.529168707e+20
2.013406266e+20
2.024304287e+20
2.031162047e+20
2.050871425e+20
2.083082332e+20
2.125847793e+20
2.164863327e+20
2.194926293e+20
2.254461138e+20
2.30407348e+20
2.376398317e+20
2.433419104e+20
2.520683817e+20
2.637649054e+20
2.743386901e+20
2.877229621e+20
3.030593706e+20
3.185802092e+20
3.396597778e+20
3.570297684e+20
3.77305168e+20
3.942870439e+20
4.125695e+20
4.292526249e+20
4.393529359e+20
4.537532361e+20
4.705049033e+20
4.821269133e+20
4.890808522e+20
4.942245203e+20
4.945787533e+20
4.996529379e+20
4.976000777e+20
4.919193194e+20
4.895494239e+20
4.856598768e+20
4.833443593e+20
4.780218055e+20
4.694772884e+20
4.593112296e+20
2.01340626e+20
2.022527087e+20
2.042369865e+20
2.06248934e+20
2.075394106e+20
2.07645868e+20
2.096088298e+20
2.126438519e+20
2.159143396e+20
2.175299532e+20
2.211683623e+20
2.28958554e+20
2.372086872e+20
2.456997219e+20
2.541340996e+20
2.661485248e+20
2.809753559e+20
2.974606381e+20
3.103419655e+20
3.301132295e+20
3.479916077e+20
3.676625177e+20
3.859113817e+20
4.031720215e+20
4.204146389e+20
4.349334389e+20
4.465927948e+20
4.603722844e+20
4.679637881e+20
4.79431953e+20
4.916228624e+20
4.875855593e+20
4.911510932e+20
4.965003889e+20
4.916123021e+20
4.886995661e+20
4.86842704e+20
4.847405838e+20
4.829823269e+20
4.735497617e+20
2.028827203e+20
2.02491227e+20
2.027488881e+20
2.019147392e+20
2.039006317e+20
2.048854653e+20
2.065914482e+20
2.085462934e+20
2.106472988e+20
2.141151195e+20
2.205651412e+20
2.227461903e+20
2.277626387e+20
2.352602508e+20
2.419671785e+20
2.516327458e+20
2.60127218e+20
2.720688124e+20
2.844664541e+20
2.980514311e+20
3.143582135e+20
3.317112719e+20
3.482062994e+20
3.677292991e+20
3.867490274e+20
4.035222952e+20
4.202747916e+20
4.33794059e+20
4.509414971e+20
4.658325292e+20
4.732449876e+20
4.869374135e+20
4.882505361e+20
4.907800482e+20
4.96947962e+20
4.940403825e+20
4.940611239e+20
4.887184058e+20
4.815208013e+20
4.726887391e+20
1.990925155e+20
1.997459479e+20
2.012419529e+20
2.017440269e+20
2.022770275e+20
2.036831987e+20
2.040874562e+20
2.056340961e+20
2.087655089e+20
2.112941687e+20
2.131968491e+20
2.156549505e+20
2.192728286e+20
2.242753562e+20
2.297026718e+20
2.363148449e+20
2.449734692e+20
2.53592474e+20
2.667041832e+20
2.772408868e+20
2.904350321e+20
3.068870113e+20
3.255930846e+20
3.412905246e+20
3.597832004e+20
3.795774593e+20
3.979609684e+20
4.151545595e+20
4.291352676e+20
4.451901269e+20
4.588628115e+20
4.688068905e+20
4.815994636e+20
4.909719255e+20
4.922354002e+20
4.92984419e+20
4.92084062e+20
4.888364972e+20
4.855792084e+20
4.882504562e+20
2.011501872e+20
2.022199715e+20
2.011948584e+20
2.023367767e+20
2.029742216e+20
2.035485434e+20
2.044797644e+20
2.051560503e+20
2.056504873e+20
2.067064117e+20
2.082962879e+20
2.100301751e+20
2.13069907e+20
2.180973088e+20
2.246284127e+20
2.293079386e+20
2.348570595e+20
2.428776654e+20
2.495932957e+20
2.614048028e+20
2.724402007e+20
2.847469032e+20
2.988201808e+20
3.145266381e+20
3.340228944e+20
3.501155063e+20
3.651368805e+20
3.837470313e+20
4.028380045e+20
4.190511891e+20
4.401928417e+20
4.536990957e+20
4.672096058e+20
4.798190641e+20
4.867969117e+20
4.950536109e+20
4.953298897e+20
4.953812503e+20
4.959353712e+20
4.893900405e+20
2.010015518e+20
1.999423733e+20
2.002954084e+20
2.007813977e+20
2.004719619e+20
2.007881393e+20
2.014865966e+20
2.01175562e+20
2.018033845e+20
2.030441247e+20
2.049062775e+20
2.087696225e+20
2.113092046e+20
2.13698252e+20
2.153735392e+20
2.192167556e+20
2.244955686e+20
2.298139099e+20
2.375452443e+20
2.460864453e+20
2.536115195e+20
2.65415649e+20
2.751684115e+20
2.890687101e+20
3.043127142e+20
3.21308894e+20
3.429360069e+20
3.583533442e+20
3.797166284e+20
3.968507605e+20
4.121294854e+20
4.298471836e+20
4.449204928e+20
4.599657601e+20
4.771782043e+20
4.835723822e+20
4.918500178e+20
4.952507282e+20
4.935643054e+20
4.96461826e+20
1.990274888e+20
1.991847324e+20
1.992170056e+20
1.99116954e+20
1.993115648e+20
1.997878535e+20
2.017190769e+20
2.023999519e+20
2.013611874e+20
2.045634804e+20
2.056092064e+20
2.068913487e+20
2.080407832e+20
2.101606587e+20
2.122765977e+20
2.162514982e+20
2.195207965e+20
2.233188132e+20
2.261168052e+20
2.343014527e+20
2.416795198e+20
2.504766311e+20
2.607160688e+20
2.737939534e+20
2.865632665e+20
2.992516343e+20
3.161097161e+20
3.351351255e+20
3.515241705e+20
3.668080756e+20
3.883363827e+20
4.083403849e+20
4.259896028e+20
4.407000844e+20
4.512682125e+20
4.659019282e+20
4.770005343e+20
4.852378153e+20
4.881949123e+20
4.912956905e+20
1.994269452e+20
1.999330197e+20
1.996314132e+20
1.9986619e+20
2.000039836e+20
2.003986063e+20
2.003968529e+20
2.019170252e+20
2.039848834e+20
2.030144304e+20
2.027027683e+20
2.04661525e+20
2.043726583e+20
2.063885835e+20
2.089023196e+20
2.11433606e+20
2.144417365e+20
2.197875011e+20
2.248563934e+20
2.279606142e+20
2.322651795e+20
2.382814037e+20
2.447714878e+20
2.526175861e+20
2.635084314e+20
2.756092619e+20
2.879449369e+20
3.016831182e+20
3.172441173e+20
3.364873724e+20
3.546591824e+20
3.742064528e+20
3.935723112e+20
4.110910253e+20
4.283950714e+20
4.45411525e+20
4.57297705e+20
4.704825938e+20
4.789929147e+20
4.82343588e+20
2.002676644e+20
2.000405847e+20
2.005544118e+20
2.01236632e+20
2.009160664e+20
2.007015761e+20
2.010603866e+20
2.007316611e+20
2.005947162e+20
2.014554839e+20
2.037596558e+20
2.045209085e+20
2.066393071e+20
2.080860173e+20
2.089279975e+20
2.107815603e+20
2.131276483e+20
2.14206764e+20
2.16393629e+20
2.189991111e+20
2.223236415e+20
2.280925072e+20
2.345662987e+20
2.407702839e+20
2.499921892e+20
2.59651637e+20
2.701096846e+20
2.840857859e+20
2.997451499e+20
3.128852993e+20
3.292304107e+20
3.481036789e+20
3.672295437e+20
3.855773464e+20
4.042696771e+20
4.190980992e+20
4.364184999e+20
4.50525141e+20
4.630540839e+20
4.704158884e+20
2.005463558e+20
2.011256013e+20
2.014020636e+20
2.019099972e+20
2.018663515e+20
2.014854539e+20
2.021404436e+20
2.019023911e+20
2.019704362e+20
2.032519842e+20
2.028772542e+20
2.037977199e+20
2.050911031e+20
2.059145239e+20
2.072793769e+20
2.087477969e+20
2.093313855e+20
2.10754271e+20
2.12824226e+20
2.153910229e+20
2.214144819e+20
2.244431537e+20
2.279577929e+20
2.307138475e+20
2.380314518e+20
2.469314722e+20
2.552338047e+20
2.632765235e+20
2.758427286e+20
2.91594207e+20
3.059689049e+20
3.200741437e+20
3.377128122e+20
3.570356076e+20
3.762242197e+20
3.961539776e+20
4.123981791e+20
4.260056244e+20
4.408739557e+20
4.574372434e+20
2.004534586e+20
2.00475528e+20
1.987507971e+20
1.979978385e+20
1.993545425e+20
2.004851681e+20
2.016851737e+20
2.013658058e+20
2.028007801e+20
2.03232188e+20
2.04826511e+20
2.044957964e+20
2.038414143e+20
2.034320922e+20
2.036226233e+20
2.038005289e+20
2.053161125e+20
2.068340954e+20
2.095249146e+20
2.109769881e+20
2.120162823e+20
2.151923516e+20
2.206660331e+20
2.261126871e+20
2.301983613e+20
2.365077631e+20
2.42357183e+20
2.501098498e+20
2.613760729e+20
2.723129011e+20
2.865804128e+20
3.003821659e+20
3.13034302e+20
3.302447426e+20
3.474286116e+20
3.662088037e+20
3.83419813e+20
4.05091005e+20
4.210147158e+20
4.342845992e+20
1.989949748e+20
2.004053761e+20
2.010441661e+20
2.007956238e+20
2.016610121e+20
2.013315652e+20
2.018789062e+20
2.0322922e+20
2.014987608e+20
2.00792313e+20
1.999209659e+20
2.000863731e+20
2.018732749e+20
2.026267031e+20
2.029806371e+20
2.034952074e+20
2.055924885e+20
2.056202047e+20
2.065115773e+20
2.087299401e+20
2.127156348e+20
2.164991784e+20
2.176378195e+20
2.212304957e+20
2.231985801e+20
2.273667189e+20
2.34083392e+20
2.404569468e+20
2.460422244e+20
2.535992082e+20
2.635525707e+20
2.775967501e+20
2.895386008e+20
3.049169448e+20
3.242166978e+20
3.438506383e+20
3.615489963e+20
3.767925616e+20
3.953030759e+20
4.15702972e+20
2.015403552e+20
1.998628678e+20
1.998433261e+20
2.007671717e+20
2.009160664e+20
2.007111942e+20
1.998011256e+20
1.987170274e+20
1.999854674e+20
2.002033762e+20
2.008532177e+20
2.010204878e+20
2.018328005e+20
2.01525665e+20
2.019175079e+20
2.029725343e+20
2.061556699e+20
2.065398193e+20
2.081109233e+20
2.09365093e+20
2.101065181e+20
2.110929316e+20
2.139536735e+20
2.141441547e+20
2.170876617e+20
2.200012313e+20
2.251318786e+20
2.3055916e+20
2.354463628e+20
2.405094715e+20
2.492346512e+20
2.584232926e+20
2.705185521e+20
2.843800822e+20
2.974416252e+20
3.157610186e+20
3.345600091e+20
3.546970276e+20
3.730727665e+20
3.879983005e+20
1.996777675e+20
2.002884548e+20
2.003848814e+20
1.993113764e+20
1.984233586e+20
1.968783683e+20
1.977717767e+20
1.982536101e+20
1.985114817e+20
1.994758693e+20
2.010476448e+20
1.995088276e+20
1.996774589e+20
2.01173943e+20
2.023694677e+20
2.017098455e+20
2.027452953e+20
2.043800425e+20
2.053094199e+20
2.047162107e+20
2.049851179e+20
2.071833043e+20
2.074544948e+20
2.116093827e+20
2.150043917e+20
2.155763377e+20
2.180271509e+20
2.204734443e+20
2.261656514e+20
2.314393231e+20
2.387780663e+20
2.474047428e+20
2.594572086e+20
2.675728338e+20
2.792991863e+20
2.921515747e+20
3.073554462e+20
3.266907023e+20
3.43503444e+20
3.653014954e+20
1.998774963e+20
1.999470488e+20
1.992358423e+20