/*--------------------------------*- C++ -*----------------------------------*\
  =========                 |
  \\      /  F ield         | OpenFOAM: The Open Source CFD Toolbox
   \\    /   O peration     | Website:  https://openfoam.org
    \\  /    A nd           | Version:  7
     \\/     M anipulation  |
\*---------------------------------------------------------------------------*/
FoamFile
{
    version     2.0;
    format      ascii;
    class       volScalarField;
    location    "0.009";
    object      internalE;
}
// * * * * * * * * * * * * * * * * * * * * * * * * * * * * * * * * * * * * * //

dimensions      [1 -1 -2 0 0 0 0];

internalField   nonuniform List<scalar> 
2400
(
0.1848677239
0.2526108795
0.4764253184
0.4413385142
0.1968949744
0.5342481393
0.6364488563
0.6746004817
0.2505961525
0.3586620629
0.4958229992
0.5688401597
0.2796587931
0.4116368095
0.5559292942
0.649287264
0.440332444
0.6341479581
0.6380705474
0.4149317491
0.2454430471
0.405848832
0.280232265
0.3199817452
0.5887939541
0.1668919514
0.3246970505
0.1852337835
0.4029249523
0.3718592655
0.5132286487
0.5224808384
0.3973089704
0.1869318012
0.3920873529
0.3809116224
0.2812082999
0.5602862151
0.6565286766
0.2747887395
0.482579498
0.2233619687
0.2997694541
1.049165066
0.5221382827
0.3623915776
0.4124072785
0.3341664009
0.6067291732
0.6755676942
0.1097777473
0.6229817585
0.4654977775
0.2020302476
0.5457292559
0.5146723885
0.2818671695
0.5956854334
0.3830174539
1.008847235
0.3134957616
0.2776885713
0.6720701443
0.442782638
0.3529791386
0.4129748769
0.288151952
0.5247321021
0.4393347413
0.7291889343
0.5369022675
0.7290894304
0.4717742338
0.2592117932
0.2917335336
0.1581944485
0.587807353
0.4433009106
1.051551817
0.1359363283
0.7281436031
0.3012988584
0.4639282573
0.1565631746
0.4241040825
0.4368516791
0.8310092059
0.5495219294
0.0936490789
0.08895933665
0.08983024557
0.3201925283
0.5310444373
0.5709945126
0.9660836943
0.7575000596
0.222756588
0.5390490125
0.5334428546
0.7550242231
0.1825834381
0.4164534792
0.6484801492
0.5803142754
0.2695599252
0.1450000009
0.2728701619
0.5124364978
0.4429985736
0.6639286821
0.447572204
0.3536116041
0.2954273866
0.4813367263
0.2501960429
0.6027712679
0.4769069019
0.3077158509
0.2882257952
0.3107168333
0.4127798931
0.8660373417
0.3632732717
0.2008995257
0.7470006996
0.2113515085
0.3030536176
0.2948944087
0.3868391387
0.5012216092
0.3176578151
0.4424697588
0.6374413112
0.4938297219
0.5233707608
0.8812046386
0.4653022365
0.185620359
0.359363505
0.415655666
0.7100376186
0.5059972855
0.5128648557
0.5199087127
0.206456155
0.06921903441
0.5516433335
0.3697679296
0.3117887611
0.7380313828
0.181272172
0.241387033
0.3873035431
0.2843693612
0.5535317889
0.6750899879
0.3748802349
0.2415251174
0.3366747244
0.2250407139
0.2769931367
0.2419292775
0.6689644258
0.4345656877
0.8225823401
0.2930614587
0.655002517
0.1454281878
0.3257304852
0.1445141755
0.3219062033
0.3996247895
0.5509240599
0.3405068918
0.4782646973
0.2412916279
0.6421492597
0.5558069462
0.6796703793
0.346271814
0.3350352688
0.2563818811
0.4081747303
0.4065103962
0.8152293393
0.5851679586
0.2752875386
0.5374372544
0.25507438
0.2162290749
0.4870397785
0.2051262789
0.09973698033
0.5876945588
0.5719131029
0.4287868898
0.09067738659
0.3623820125
0.2616220123
0.3500901668
0.5438419558
0.4267740156
0.2967819605
0.2947994991
0.248915696
0.2452769164
0.4034454356
0.5291280148
0.6492840419
0.5146934152
0.2117314277
0.4549102359
0.4499043115
0.3664343493
0.4751617494
0.3320131753
0.6403798872
0.5047308757
0.313266395
0.2666984882
0.4250437112
0.3680538681
0.2952541326
0.2460892911
0.3950668628
0.4004915453
0.6224454562
0.3600099908
0.3301756998
0.4313638579
0.2185655587
0.4290874881
0.3921541691
0.676905008
0.5179293664
0.2812324444
0.7469679565
0.4840418788
0.37872407
0.1196310789
0.3963965056
0.3302775874
0.3488039634
0.0563731387
0.4402656455
0.4069849533
0.557142711
0.5954939639
0.3261414168
0.5252436945
0.3154253054
0.2719822957
0.2620053713
0.2625550441
0.4396312918
0.05675560541
0.326551124
0.5622737445
0.5088133756
0.4682848405
0.245599694
0.3007840439
0.3797193446
0.2995921489
0.5284758748
0.6539130922
0.4180656198
0.4946163583
0.1196243074
0.317033401
0.0765916489
0.4081039775
0.5381411146
0.3945823502
0.1737719318
0.4845863015
0.2665131919
0.3308448358
0.4446428205
0.4115780395
0.3320571028
0.4789240715
0.4064652126
0.41221881
0.2324826401
0.3200087554
0.5190834922
0.6917868351
0.5846824316
0.2349517685
0.7508589722
0.4242953924
0.633355351
0.3070576993
0.3183465508
0.344658398
0.3042174326
0.3034088781
0.2740118985
0.3603928187
0.4944038
0.1575046015
0.1781071527
0.5112131457
0.5422744569
0.2624087161
0.562104638
0.9981673651
0.1213842047
0.5364419762
0.2073869927
0.7223040436
0.7163944286
0.6188077582
0.4360508823
0.4948689754
0.50738991
0.2751754008
0.4443150376
0.3394413953
0.2269011672
0.4546145166
0.6472037242
0.242559414
0.4278853192
0.08659545768
0.4520636035
0.5462754188
0.4237621123
0.2970481015
0.2558838646
0.4595136819
0.1673972884
0.6509222964
0.06226131802
0.6902642009
0.1322293172
0.3717867567
0.2800650133
0.2612909786
0.3978482177
0.2755221851
0.2466128479
0.2837813025
0.2377785377
1.001293272
0.503491751
0.2113207928
0.3139660638
0.369391284
0.08661771518
0.2975570707
0.3271462701
0.09670174566
0.6441388706
0.3994923555
0.5214151047
0.09730539907
0.4302153792
0.3968806658
0.277704615
0.3010082271
0.6597602458
0.2235094454
0.4266446193
0.6533268861
0.2327146323
0.2855177292
0.5343068068
0.5921135257
0.2204961901
0.4298850352
0.5119298083
0.3860038186
0.6031324376
0.1572803652
0.1556975587
0.4936435638
0.2127744619
0.6993259329
0.2005974554
0.6210888593
0.07925570417
0.5637462403
0.3895282772
0.6220880256
0.1558199505
0.7803903495
0.1541240591
0.2826055784
0.3065915355
0.1534457416
0.335020842
0.2762236844
0.3335560252
0.5840710738
0.7843639786
0.463754871
0.2477224913
0.3548996076
0.1506426173
0.5244806441
0.6219582426
0.4160072304
0.03723256494
0.5557073353
0.3493295746
0.5333883213
0.3113246621
0.3839316112
0.721601026
0.497057556
0.1715271665
0.2204622951
0.40182509
0.6079831667
0.7826259477
0.6402147609
0.4715789239
0.2079703389
0.4254403497
0.2997076499
0.153311671
0.3292406893
0.5705523922
0.2595950321
0.4500948302
0.8060094251
0.6377488251
0.2834406147
0.547566406
0.4523725344
0.8974150409
0.3195471655
0.7422480987
0.6621145528
0.2626024567
0.36976978
0.3564132286
0.7291449419
0.4280127209
0.2179639692
0.391331842
0.3515936466
0.8517409722
0.1554894034
0.2996527986
0.3313302394
0.2734679235
0.6426603053
0.3867491701
0.2331828106
0.7279990776
0.34165183
0.3371047398
0.3956032253
0.2015734096
0.891536645
0.1716629498
0.2489379251
0.4555338105
0.5272544594
0.4220772981
0.2732081118
0.5815019613
0.5137400274
0.3419536994
0.6307467118
0.2939183502
0.5932562233
0.6877953731
0.3773915326
0.2099288396
0.3461666518
0.2445760079
0.4252063501
0.4069308021
0.2296519386
0.3125504474
0.3451780512
1.003217542
0.3430989161
0.2738267863
0.6346214788
0.426154282
0.2384303691
0.02380975594
0.3415338597
0.2673360609
0.3494850793
0.5496079182
0.3650666456
0.2644569545
0.2939654537
0.4525130535
0.3182333821
0.2188708558
0.7233834237
0.1627255394
0.6014949863
0.2211402681
0.4729990639
0.4406150956
0.509195644
0.2616715652
0.47795637
0.5768704022
0.3476090115
0.1520160673
0.32700148
0.4722258003
0.4451757968
0.4107691331
0.6408733683
0.2932199089
0.0567264658
0.3361134973
0.5182947443
0.902336864
0.4421284388
0.2479160988
0.3286538173
0.6838469849
0.2837195417
0.1695511598
0.2777549312
0.2695049784
0.457129188
0.2949426189
0.4114401352
0.8595530335
0.6609015573
0.2791436339
0.4926841148
0.3924564025
0.5912277768
0.1773841747
0.6408325978
0.5330384265
0.4521958544
0.2752975304
0.6327728518
0.2793319487
0.1395622369
0.3197552676
0.4205279565
0.9804028635
0.4581435812
0.314908961
0.2093563728
0.1723344909
0.6051943888
0.4075879676
0.032077838
0.2892172496
0.5188726441
0.8181353717
0.2655034507
0.167468556
0.2544103523
0.1957380455
0.3695505907
0.3402560035
0.4281422799
1.066839723
0.5920358878
0.3469349197
0.3010855156
0.3154527981
0.2906166419
0.3984072491
0.3484204586
0.6027371211
0.7526661698
0.5566730112
0.2755143627
0.3140543318
0.5041586285
0.7131504332
0.507656263
0.1908720117
0.5560196119
0.5801684045
0.3270853333
0.3143795301
0.04853779019
0.453372595
0.4218540702
0.6393920012
0.5379538614
0.1720780004
0.1755248676
0.4541029065
0.5283956552
0.168691379
0.6081242256
0.4416258863
0.4144544948
0.6043928284
0.2281228732
0.1349954356
0.6599759323
0.3169738639
0.3365804827
0.4227557874
0.8531197546
0.483748623
0.3019055899
0.2462568813
0.4237735055
0.3516298417
0.4618458202
0.4516277597
0.5849385564
0.8356197757
0.6178055574
0.3833984739
0.5694474618
0.4130614194
0.4647640716
0.3682278907
0.1767389162
0.2731893204
0.4197195738
0.3273745747
0.2534794585
0.3654707669
0.0942398512
0.8213312255
0.4387388089
0.7536925399
0.4059286482
0.3244744713
0.3196949443
0.3871528635
0.1946721798
0.6219338698
0.3880434723
0.4386779669
0.2976086834
0.3539672806
0.6521458946
0.5996495115
0.4232757355
0.3163365216
0.7757559417
0.3809102423
0.1335931485
0.5832296082
0.08382164592
0.1399244606
0.4056238794
0.3767550113
0.1477969504
0.3279220638
0.5771855881
0.6480268392
0.3631019898
0.320724973
0.5755932875
0.2009009993
0.2968587828
0.4734054866
0.4449704047
0.4021216927
0.3492729258
0.5961583673
0.03673073552
0.405130649
0.5529092395
0.3829810834
0.2977579573
0.4413934924
0.241581339
0.1645837486
0.7477814356
0.4362669514
0.54690351
0.3821921543
0.219231955
0.4513923917
0.7582107385
0.306299441
0.6015060726
0.3357304365
0.4128301285
0.5787321045
0.5397114273
0.5144603657
0.4044034184
0.3527208576
0.3415407845
0.4054741751
0.1920598983
0.8298920581
0.4258611721
0.2042667888
0.6349087558
0.3233451414
0.2690444405
0.08861134808
0.2344018285
0.3383164492
0.4893233346
0.2498275865
0.3649149923
0.2279642353
0.2173356415
0.6186194222
0.4567546476
0.7306310991
0.4164206095
0.9522225943
0.3993249271
0.5717495403
0.2252939752
0.1674497987
0.3608281409
0.1141444782
0.2117834443
0.6742281257
0.3586414871
0.3212988438
0.5359257477
0.27621372
0.4547484128
0.3136591235
0.4940721474
0.3247246892
0.3766868416
0.4695813112
0.1196646874
0.1819998591
0.688710334
0.2155832767
0.2735531729
0.3981198568
0.4762388819
0.4247021192
0.5299256656
0.2386988675
0.4391297011
0.2086814586
0.5820224345
0.3923454291
0.3467454383
0.3462457963
0.3276289206
0.3101885065
0.5264531416
0.493926856
0.5017259652
0.5517156903
0.5249789212
0.1834230281
0.4794062732
0.5034592789
0.35213703
0.5478008665
0.4841829272
0.5327354726
0.2633205896
0.3186456096
0.08695252595
0.2901231447
0.2270999196
0.5896819856
0.4580503816
0.2392677815
0.2471819346
0.6825134269
0.5959244638
0.3250923831
0.1834663995
0.4731377259
0.316131627
0.322396468
0.3675156021
0.397604564
0.2799312278
0.3467728197
0.1341397842
0.4160546418
0.4676001199
0.4686856332
0.4049330995
0.7568397506
0.3396634725
0.4673846172
0.285085247
0.3858522752
0.1907913152
0.5337668868
0.3592680887
0.3300009696
0.7280266747
0.3433487138
0.4085044426
0.6963085446
0.4339087762
1.962459106
1.946628931
2.447001662
2.891645636
4.286883628
3.916040682
1.726742167
2.118755453
2.472692098
2.985203868
1.540203252
5.000707129
4.541520886
2.313735101
3.193625242
2.901435979
4.880617744
1.95018295
3.724765697
4.073901566
3.230555192
4.384182331
2.638261598
2.21926136
2.585802613
4.086910649
2.5776849
3.223552422
3.03228242
2.553748496
2.723911094
1.326170643
3.703638018
2.517417749
3.424084604
1.760540069
2.696534577
2.464157533
1.93333388
2.527321948
0.6284445712
2.013301286
1.201006031
2.361706059
2.641080669
2.647120588
3.410529688
2.418964706
2.198849457
2.859978821
4.400181328
2.090226573
2.926895191
2.02480997
2.677291859
2.439773814
2.613340048
0.925609042
3.058389719
3.667577815
1.814375033
2.314253386
1.880490802
3.984682557
4.120469628
2.53541712
2.970781489
3.889220552
3.22866337
3.236873566
2.274140489
2.336563379
1.641399049
3.648970406
2.156813905
1.936441596
3.238776619
3.793511838
2.094989604
2.02459312
0.7347460658
1.081125289
0.4407516503
2.438818945
2.479555408
0.6769632276
2.761611373
3.758244405
2.141532509
2.084126982
2.104990498
2.885111078
1.027458269
3.409330093
2.339641166
4.546862567
3.739687776
2.607366078
2.309019943
2.065899344
1.793005291
3.850197196
3.152122666
2.066066166
2.761849275
2.840665125
2.579463227
3.594263806
2.279071963
3.029109575
1.24508595
1.917346906
2.311025536
2.485982562
2.221491136
2.125721952
2.605730543
2.968462014
2.613654914
1.570462535
1.160734568
0.4715746775
0.7409761324
1.46676874
1.427277071
2.260338287
1.545221427
1.084397139
2.026632456
2.534932394
1.02681209
2.230185386
3.494915232
2.236642398
5.027328121
3.666100626
2.646159904
2.789815939
3.988066634
3.229475658
1.365429177
3.684858219
2.278920999
3.09290671
2.642493464
3.459174886
3.1946988
1.67310614
2.923056745
3.407526713
2.028045349
1.489366995
3.184549332
4.11569247
2.903898916
1.512108171
3.393688061
2.287153075
2.418119456
2.207503703
0.5879848872
0.3347691903
0.633411115
0.5888964181
1.069643011
1.25286415
1.946022428
1.400856587
2.916709415
3.348687106
2.284617885
0.7454634561
1.778216983
2.5007206
2.752367275
2.978029216
3.62963475
2.905826463
1.903324292
0.7053294513
2.886430795
2.801539559
2.263497477
2.274941527
3.565915679
3.1253718
3.782682921
1.953301444
3.094113873
2.593452315
1.764335275
3.376506786
2.606821028
3.318002628
3.862084981
3.134122234
3.28966718
1.337799787
2.280950989
2.568890808
0.4862902417
0.5238696718
0.4298450532
0.765848753
0.6610170096
1.397714427
2.08149344
1.38543452
2.47805856
1.714489289
2.021124969
3.084607103
1.005046341
0.9183141041
1.396039347
2.796410815
3.358581135
1.966027682
1.515995418
3.438181031
2.767979043
2.975816559
3.170019934
2.362639917
2.641571519
2.944496724
3.446148345
1.877769019
3.838049206
2.335106824
2.50877832
3.765081456
2.394496912
2.651070512
3.810362854
3.037141439
3.003794704
3.017239642
2.180479404
1.410818804
0.1032844443
0.2274279606
0.5526530237
0.5810283218
1.32760325
0.2444630527
1.08065308
1.283788387
1.334832606
1.969222441
1.292908762
1.89417287
1.000468567
1.346654164
1.777175286
2.707840907
3.585303752
3.153541155
1.510518047
3.581807209
3.012832607
4.014101124
4.342434005
3.184103221
1.068156185
3.362742762
2.629354963
2.608424423
1.271958492
1.590774313
4.506054441
1.140293404
2.051378803
1.331026935
1.41792928
3.48877865
3.922859468
1.486748962
1.028276091
1.119673021
0.371808681
0.4440318941
0.6400663696
0.1052083613
0.3198345768
0.5602925682
0.9728677744
1.652913668
0.2745908488
0.9522788884
1.014385405
1.533619017
1.442887642
1.077096946
0.7617965691
1.340834077
1.483078771
3.722163022
2.7622427
1.200017879
2.924323869
2.29772504
1.981522275
2.212884522
3.141025186
1.292442504
2.545124802
3.217820634
1.978399663
2.531016612
2.304068714
1.475702365
2.043290586
2.185918637
2.398095174
3.414605288
2.219956875
1.293413312
2.139977081
1.433912137
0.4589733693
0.3262289686
0.4276926261
0.442002875
0.3005749863
0.3268296369
0.7731314288
1.156478629
0.6734052485
0.8815292303
1.028245679
0.2481539937
1.750457171
1.291438857
2.831558362
2.275926542
1.751813446
3.512034783
1.747735593
2.233320014
2.594526445
2.820713617
1.910974694
1.31266252
2.294211892
4.181238565
1.628562994
2.387797135
3.327984981
1.541103003
3.332774208
2.493935142
3.266418017
1.401382402
1.638189802
1.994131789
3.317685717
2.62335571
3.03142432
2.713781085
0.3189019195
0.4328637333
0.736120998
1.173510293
0.5063129408
0.2379185823
0.811338224
0.4548859908
0.9816206038
1.119000565
1.335380004
1.011550771
0.6652560046
1.424871929
1.321938271
1.605464197
1.997685565
3.840182291
0.7149042078
2.438512995
2.425417843
0.508428239
2.289166716
2.517642054
1.72804875
3.228113406
3.471990788
3.207943983
3.4574508
4.339633337
1.316050347
2.802186165
3.661560312
2.038425958
1.695161605
5.577926801
3.722582535
2.000035616
1.899959
1.427669575
0.3926456763
0.2545727692
0.6527775366
0.5404337528
0.2388767553
0.161919437
0.2824459603
0.5742340385
0.9381974036
0.6570327949
0.3621614546
0.4610301672
1.181435704
1.289690852
0.6001125625
0.9557032169
1.588975859
1.737996365
1.305110171
1.773613366
2.036901776
2.984148464
1.900435523
1.708966443
1.776377845
2.63509684
3.349507447
1.523782509
2.188405903
1.463210063
1.355851332
3.896574939
2.714803793
2.089514352
3.089920276
2.003068582
1.382725932
3.220898015
2.614112092
2.347808614
0.839815476
0.27216145
0.258980557
0.3885902665
0.4806697424
0.909539756
0.376753485
0.4612275859
0.6055205249
0.902244801
1.490597341
0.5004386174
0.4601182692
0.8926630768
0.7610733846
1.589258938
0.745423992
0.7213184828
1.927141469
1.802579391
1.736030689
2.350921292
2.013686546
1.340744664
2.99467751
1.721674619
1.390243521
1.306094625
2.877371325
2.949627621
0.4438776421
2.347341185
4.648492499
2.6407726
2.599619569
1.880755488
2.768842131
3.699414275
2.533646164
2.974446146
0.3776773372
0.1780490561
0.381553311
0.6231002113
0.1623225368
0.7421868719
0.1142548173
0.3949322722
0.3539846769
0.327452686
0.7517270707
0.8312189835
0.6657236515
0.8100639589
1.082690247
1.243130406
1.640671789
0.8978797782
1.255646645
3.009095366
0.8831691671
1.583836602
0.7868174288
1.376924022
2.626168726
1.72018434
1.204354188
2.101196898
2.499179309
1.807413973
2.390921849
3.03212067
2.0001693
2.353868601
1.753153249
3.468128621
1.854585074
0.8951269623
1.730323829
2.058010731
0.4390438326
0.2580317449
0.6601550573
0.7721119105
0.1707689811
0.6483632724
0.2837911693
0.2032426793
0.5201812582
0.1946062805
0.2455624776
0.3794554541
0.5210826134
0.7159682756
0.9015818974
0.3161616501
0.7332666364
1.12341526
0.9433382954
1.033131781
0.7258382894
0.914796516
1.511460131
1.554541119
1.907521531
3.004355015
2.607621963
3.431346049
2.050144199
2.566563379
2.222590331
1.408139673
2.839265711
1.755996806
2.589704215
1.490426292
1.882987523
1.427789809
2.842903948
2.565578299
0.4830891623
0.8558461343
0.6052766125
0.494435026
0.6316015721
0.4844328237
0.6038128106
0.1647431874
0.3299849651
0.4697371567
0.4738501018
0.420314122
0.6702111336
0.6358670696
0.3989965648
0.8039074422
1.253831962
1.217566863
0.5040314473
0.499298555
1.255193802
1.240632848
2.603475153
1.08719936
1.373718023
0.7734860817
1.978494516
2.020512767
1.141442603
1.455773551
1.886895147
2.031940775
2.506878458
3.435265806
2.161779098
3.197738563
3.024181613
1.206618668
3.932670807
0.9975825357
0.253234827
0.2002766673
0.267223564
0.2580250187
0.1053922782
0.613605357
0.5574402062
0.287622841
0.3638738249
0.1967135449
0.5732576037
0.6371173096
1.29811197
0.3059116365
0.8745907043
0.5579800667
0.6702502426
0.7079339401
2.823240905
1.097262668
0.1481431093
0.5541726556
1.013628692
1.355278605
1.255529093
1.543473017
2.140697169
1.256363348
2.871795713
3.154198069
1.465640437
1.887932859
2.84936093
1.846158447
2.781838339
3.107297776
2.109574117
1.816887407
1.989140514
2.724382287
0.1236798478
0.7802378285
0.4942960382
0.5185197647
0.06777411067
0.2656725392
0.1028904365
0.3376328736
0.4204478241
0.359840254
0.5476439617
0.558597238
0.4927587797
0.8046575926
0.5463225318
0.4636971609
1.272064866
0.5736354578
0.5691781532
1.077430635
1.658355617
0.7206212035
0.4041959439
1.944616043
1.3497098
1.570955423
1.211401105
1.77508088
1.253651659
2.518432427
3.017025305
1.911177481
1.605914587
2.395970651
2.378339586
2.154466559
2.370594449
2.920060439
2.575871768
2.016983315
0.561071007
0.4079370528
0.6957480595
0.4431713288
0.4687271801
0.2945359775
0.7401879976
0.1291269037
0.6320316111
0.03009846405
0.3435142086
0.3249118234
0.6164716242
0.4881644899
1.321833689
0.1556401639
0.8368811921
0.3915003994
0.6744210366
0.6178302211
1.183902993
0.3203336701
0.4257526802
1.489883143
0.6937209791
2.528486406
2.704320511
1.249737271
2.174052238
1.41467692
0.8259288818
0.9985624192
1.013974094
1.478640583
1.446701242
2.94384235
1.276467273
4.165279988
1.475463555
1.161321237
0.3572300165
0.3130405728
0.6321243549
0.3538480406
0.3540559045
0.3498899212
0.4010728841
0.4166229165
0.2307940797
0.431805924
0.7235445955
0.5093591513
0.4664595127
0.5088097464
0.1918113018
0.3331838786
0.8283202063
0.2401354744
0.492480322
0.3639580169
0.7413673203
0.6525176864
1.80087257
0.8906882644
0.9058503017
1.002515276
0.7842830706
0.6801736272
1.016635278
1.914937124
1.573747972
1.412671124
1.866726564
1.962379759
2.306403274
2.943118048
4.552613445
1.96749467
2.146891116
3.204157964
0.2538515392
0.1899126637
0.4412026814
0.8489092975
0.1881664392
0.3380298111
0.5473802963
0.416567302
0.2865062374
0.6168989665
0.2311460917
0.4220597244
0.4808700765
0.6046875979
0.3793759832
0.9097091559
0.9183908907
0.4994896155
0.5243372712
0.8223233713
0.4026939443
0.123223757
0.3125226983
0.5491708045
1.553436371
0.443187315
1.487947264
0.6346014369
1.54079175
0.5325984131
1.719609287
1.753517197
1.571144548
1.776282693
1.643921222
1.250017641
2.07582583
1.367546277
3.478888274
1.318725439
0.6083447804
0.4817813969
0.8714945085
0.658334016
0.4107905717
0.3102316519
0.4013359607
0.4574233212
0.6069878646
0.3652525885
0.2370272411
0.5328544159
0.6073916101
0.3785153362
0.2975937463
0.6548569033
0.4260986248
0.9907088745
0.8620580634
0.4001513183
0.5535164123
0.6506077264
0.2942657902
0.4363784116
0.3700547486
0.4626047801
1.025697923
0.7505378212
1.142902431
0.6255606391
1.019336352
1.423345318
0.9258821941
1.147630631
2.172416246
1.636425084
1.749114879
1.01387324
2.678630214
2.180075536
0.2711290991
0.3617731596
0.2338074126
0.3688637958
0.6811024695
0.6052997457
0.6020285788
0.3716048915
0.5457460271
0.508668538
0.4364694846
0.1898175456
0.6524574134
0.5142467811
0.4506910615
0.3701938332
0.5258040137
0.6948537745
0.5828037148
0.1123845526
0.2066488563
0.1807235611
0.3493940574
0.04739563258
0.275531432
0.3003058717
0.6566650452
1.080342795
0.7297823131
0.7813391677
0.6619218077
1.604789819
0.4182321798
1.126066851
0.9665650542
0.8093912233
2.253690449
2.242611192
4.073232335
2.579679536
0.09347062701
0.1235890923
0.5456451085
0.2250333676
0.4481013622
0.424726809
0.3639361947
0.2753174884
0.6901218942
0.5553388832
0.1663334285
0.6406731992
0.5783964215
0.363493118
0.2823010712
0.6220322581
0.4773523079
0.7696527325
0.6388015836
0.3875665655
0.2450529211
0.2613968946
0.4989455976
0.2864805193
0.340408449
0.6411674067
0.1321559266
0.413574045
0.3823464807
1.12481794
0.6388363192
0.7410678034
1.126615945
0.7143245178
0.5701725133
1.698538872
0.702697094
0.795256626
1.092728795
2.025334185
0.2957847494
0.1853328672
0.5085365054
0.1858321725
0.7682788357
0.1685216427
0.4105831926
0.05071446016
0.4652862472
0.3938771384
0.3852388181
0.3692475672
0.4465709823
0.7218809024
0.3478218035
0.9851497455
0.07516094587
0.6590981512
0.4551896938
0.3507292726
0.3861463023
0.7816437124
0.2973077942
0.8415169933
0.2830469084
0.4976641921
0.250603837
0.2236822709
0.545769923
0.3734705096
0.1420819959
1.310523074
0.7580502881
1.052980859
0.6772297393
1.713094757
1.809364251
0.9195094598
0.7369887957
2.227341639
0.8303972834
0.5842680598
0.3562323583
0.3725610725
0.6016134784
0.3611219166
0.5385894155
0.2517744716
0.3921761462
0.0743565052
0.7058748005
0.6389009235
0.3939864061
0.3148523689
0.713645217
0.2778021435
0.4990054466
0.3446164936
0.2005188711
0.1032108564
0.2267896971
0.0818801366
0.5414951502
0.6022556751
0.5379750898
0.4422536193
0.6089405992
0.6307039675
0.7972709268
1.37088957
0.3232793468
1.451372109
0.2487733131
0.9788149273
0.3322792741
0.7878769199
0.3277129743
1.400417112
1.188687925
2.71777954
0.1485421665
0.1576163856
0.2015680376
0.7345226891
0.7525546394
1.663154071
0.1917042879
0.5741203549
0.2338090547
0.1070313653
0.6159547812
0.1866825726
0.3207745615
0.5007501516
0.3310694155
0.167096936
0.4518301586
0.0920795844
0.6125020959
0.3633896843
0.3180942315
0.4618944969
0.6966733471
0.5538896535
0.4431192854
0.49474961
0.4435480801
0.2973722182
0.133987517
0.5488505532
1.103086699
1.364590035
0.150574923
0.9247790907
0.6898903257
1.402778067
0.7664539446
1.761585584
1.707656557
0.8981746614
0.2895499015
0.3563526464
0.4654441228
0.4854169922
0.1651111084
0.3915342966
0.8269121108
0.577681171
0.5667176859
0.1473648174
0.367474535
0.5815787147
0.1758969621
0.1760042839
0.5644568115
0.3587662103
0.3119488724
0.5643758438
0.5822063613
0.6106260197
0.3282919433
0.3086132891
0.175471046
0.1447091763
0.6176651979
0.51307497
0.9380863542
0.4245419788
0.7447614208
0.1174234362
0.09741657789
0.2606149815
0.8805141061
1.17587025
0.2866401007
0.7148129672
0.7170463482
0.7355083181
0.9089100669
1.269696196
0.3038518111
0.5322942151
0.3931233747
0.5710122689
0.2654022953
0.4100401157
0.3431614888
0.4136283668
0.3846453385
0.4381515386
0.2852627976
0.426741965
0.1937410304
0.6105662287
0.7660220862
0.3357961595
0.407473418
0.3529608377
0.4605599591
0.5784219529
0.3952351181
0.4012582039
0.4621189268
0.2286326025
0.4037638517
0.01679193302
0.2187248326
0.3531836524
0.6413091709
1.045815577
0.1998857009
0.4463662947
1.263116861
0.864339358
0.6256697894
0.2908572661
0.704235395
0.5467285925
0.3996740189
0.5528683809
0.5475013134
0.2609454021
0.4051622878
0.6922095542
0.5884029324
0.137340806
0.5601571487
0.5484954303
0.3190644469
0.4496357031
0.216738861
0.7357974666
0.530938524
0.453641421
0.2013821986
0.3416438473
0.4968845212
0.3512090882
0.5801743192
0.6339640474
0.3723933659
0.628876181
0.2633670345
0.8603987206
0.3260725826
0.2901806307
0.5110394904
0.4873659633
0.2325000462
0.3233238933
0.8140118459
0.7540421374
0.09788704295
0.6838068133
0.4680265011
1.218369266
0.6854010419
0.8368763921
2.048226338
0.4922633748
0.1333167341
0.7161658229
0.3360201516
0.3437343502
0.2828243609
0.1460982714
0.3580999565
0.6461634924
0.3361439519
0.2685102717
0.3468110094
0.2492649655
0.2585879208
0.2779695605
0.3794406606
0.6891174264
0.6301560794
0.8018805082
0.2138613623
0.5760266526
0.5177116816
0.3586809225
0.4070404183
0.2024965014
0.3302699611
0.280228061
0.5399825894
0.507617725
0.4916194348
0.5728987506
0.4348385805
0.4427183581
0.4584958507
0.3547812202
0.5411704992
0.3158562866
0.6128335522
0.7307581175
0.9439346196
0.3721477221
0.4268316526
0.2739168863
0.3999056051
0.4346340003
0.5738019663
0.4677471323
0.2292946688
0.2487152954
0.2798325587
0.4223502883
0.431262103
0.3973835548
0.5602464353
0.4702162336
0.6196112942
0.8856710139
0.7894037568
0.2892549619
0.760867927
0.659601628
0.2555256706
0.3479439335
0.1862536495
0.3448078141
0.3422354945
0.2420117396
0.2938813158
0.08216457209
0.5950357279
0.3093318927
0.6380531776
0.410245157
0.508369681
0.2456171041
0.1083749808
0.6836351678
0.1673064048
0.3672833264
0.4980648776
1.329828327
0.5012136591
0.2546701878
0.4615861395
0.2125752669
0.2111335814
0.7091171652
0.1714281262
0.8627868187
0.6752483926
0.1802083256
0.3364369309
0.1888895883
0.2324646786
0.3820444258
0.5475840344
0.4952586366
0.4123674277
0.2396196335
0.5303875545
0.3476752839
0.2526463436
0.4849087631
0.210290523
0.448517726
0.5005073566
0.8574568424
0.2689018129
0.4164619545
0.3943678727
0.1907101675
0.2444973347
0.3519089514
0.3711355787
0.2467076113
0.4647841583
0.5492093554
0.1657042332
0.3217473791
0.3995983964
0.5609332245
0.5196358808
0.4364623206
0.2007217652
0.3815300979
0.5586924814
0.3352245075
0.6354789827
0.6306759772
0.1472672059
0.5580391325
0.2321754661
0.1924247644
0.3899960136
0.2759120029
0.288092257
0.06339292353
0.4783120402
0.1830443251
0.3113308651
0.2873355283
0.4931851014
0.4071852327
0.2513473846
0.7997643328
0.3334087311
0.5969058031
1.036982645
0.3282888677
0.4055772954
0.2591969935
0.05661910882
0.7986594342
0.3313918283
0.4877964832
0.636366591
0.4789749407
0.4737344837
0.6783420568
0.1903016209
0.4022656738
0.5057265348
0.6794525489
0.197236864
0.1253894259
0.4123780122
0.2760365442
0.562830235
0.3970913692
0.7486009083
0.5747703418
0.3891737047
0.3343022131
0.1046460536
0.497419533
0.2627254582
0.3028502774
0.1872158997
0.323792334
0.3734222185
0.3355909713
0.1971568875
0.4065753229
1.162648527
0.1346579092
0.2080390796
0.4018217096
0.4314484759
0.2599946585
0.1752055008
0.9379074229
0.3124318373
0.2178944747
0.3502350281
0.8483140852
0.1505919999
0.4757880656
0.6447764314
0.4670294726
0.5612473896
0.309178627
0.2186073688
0.1277113914
0.3920885343
0.3477834165
0.4716270628
0.3101505248
0.2258276956
0.4255735047
0.2230776934
0.4399533265
0.6610340973
0.2382858835
0.6189309049
0.4859477259
0.3767672599
0.9936597638
0.1712731877
0.5911420307
0.7165144058
0.365794366
0.6234105929
0.6095973337
0.3131708873
0.5171532546
0.4855546217
0.3826380636
0.4075924241
0.1045750554
0.1493785738
0.388515566
0.3170295751
0.07143964252
0.4237758701
0.396742049
0.2911958756
0.3428524376
0.8330870592
0.4011261745
0.5962772565
0.2046946644
0.3870567399
0.5230485976
0.4224936584
0.507578208
0.477712214
0.387191897
0.02487921501
0.3894643564
0.4463880793
0.1206986776
1.016490339
0.4420809783
0.1587242854
0.2011890304
0.4400856175
0.3146302005
0.4496989979
0.4633348102
0.4379985175
0.2214107102
0.2537058632
0.5140483949
0.1978305996
0.4162366086
0.2657144699
0.4220160569
0.3412969012
0.1299422773
0.2813380576
0.1765646392
0.4155558073
0.6207071753
0.3065684886
0.3886040977
0.4758061794
0.383384788
0.7293547665
0.7517377506
0.8784865888
0.6620142967
0.5481981456
0.5075388147
0.1372278408
0.4693949648
0.570772666
0.3354962242
0.1122173889
0.7320776536
0.2444984641
0.3408315692
0.3705202372
0.1942841344
0.2835439319
0.06976253671
0.2034739429
0.223397222
0.7498978699
0.1939007524
0.5358748615
0.5038329985
0.2302454814
0.4949516232
0.5181501084
0.3689764701
0.3441184516
0.4905643786
0.8663031497
0.6323951381
0.3511904455
0.2472056882
0.4738948255
0.4174420454
0.1583106992
0.5627121233
0.3620529038
0.5296576007
0.07803083655
0.6915689358
0.6100098657
0.2067023547
0.4406907693
0.64569995
0.4574877946
0.2488939318
0.3187698565
0.533523801
0.3912534788
0.1348566642
0.4244250062
0.3379391635
0.5445086437
0.504992738
0.3823380745
0.2415688447
0.2522402826
0.7701813117
0.5035192893
0.5231367344
0.2253742611
0.2632492312
0.5245961745
0.2972425353
0.3598194123
0.8033130409
0.434394301
0.6457878208
0.7542694595
0.6604939589
0.6385599944
0.3878781178
0.2657920785
0.382043129
0.497038583
0.4283355997
0.5889609153
0.3752864133
0.2501815368