/*--------------------------------*- C++ -*----------------------------------*\
  =========                 |
  \\      /  F ield         | OpenFOAM: The Open Source CFD Toolbox
   \\    /   O peration     | Website:  https://openfoam.org
    \\  /    A nd           | Version:  7
     \\/     M anipulation  |
\*---------------------------------------------------------------------------*/
FoamFile
{
    version     2.0;
    format      ascii;
    class       volScalarField;
    location    "0.009";
    object      linearKE;
}
// * * * * * * * * * * * * * * * * * * * * * * * * * * * * * * * * * * * * * //

dimensions      [1 -1 -2 0 0 0 0];

internalField   nonuniform List<scalar> 
2400
(
4.05565307
8.404147989
7.133424692
5.39084877
8.202443582
8.648916694
9.189872856
8.370579993
6.137556787
6.409918833
13.09682814
8.004579946
5.880287614
6.123575854
11.33479287
9.752215863
7.439712559
6.595116426
9.13247532
8.546484733
6.637001925
8.659041982
8.265537173
5.947682047
9.438152147
4.105685424
7.191563729
5.085995731
7.123788362
5.264647518
8.914648111
10.61263416
8.306364517
4.791862918
6.605996233
9.354161537
11.62491043
7.036421905
7.109751187
9.354002327
5.077514102
8.767689716
9.162105757
11.30710851
7.366235321
3.946573208
6.492791058
4.96602854
8.513156903
11.80944823
4.954925007
9.419047163
9.978867961
5.389899409
12.54062628
11.00725867
6.44884821
11.92153224
6.097050427
11.57708655
5.031761328
5.314570668
10.06830617
4.708509149
7.716686667
9.045392288
5.219683623
12.22111843
9.622885137
10.64346546
10.99033657
9.843681735
6.791645083
5.70905586
9.318460829
4.045332475
8.79730428
6.429845076
12.97945716
3.934082213
8.283575244
9.167269561
7.400361386
3.711193132
8.659093438
9.394769788
12.91510572
8.905853
2.570069658
3.878312645
4.146362424
9.809885385
15.41661395
7.000197675
10.01917113
13.68317148
3.899928462
7.624811483
5.739705401
15.22353667
4.804698782
5.568088904
10.49770219
8.158208333
6.925190518
2.815612039
7.665212178
8.196796217
8.24556907
10.16503166
9.128327736
6.124071497
5.379989283
8.875953707
7.078370281
9.366260962
10.54998285
6.052615507
2.289674869
7.49681939
5.254480796
6.613683963
7.431984711
4.360003299
13.0553123
8.588740922
6.845830322
6.853561499
6.991760539
8.862512897
6.105387791
8.905508999
6.988386857
10.44539856
8.631675939
17.30086234
6.029308808
6.471707204
6.171977971
9.285935202
8.707251121
11.54294006
7.704575756
11.91527895
3.830711834
4.507602001
12.95288571
4.457144713
5.417227141
11.27414061
3.400410949
7.648971765
6.300536762
6.120727808
6.303499846
7.223054191
7.835086035
3.424379658
5.796060366
6.95746478
6.102001025
4.330493908
9.141989834
9.939593514
17.59001909
4.397798384
13.49478984
7.439662898
10.8999422
3.661648023
5.369362461
9.949602132
7.373672907
5.9402831
6.2358408
4.527575406
9.439587962
9.234704475
11.81238785
6.308161869
5.669207521
8.140333168
4.569551094
8.335079506
8.344973064
9.009861028
6.236837548
8.283867672
7.658275025
3.728870676
8.434643841
8.193567746
4.353724247
9.726489111
10.18093648
5.680963445
2.84563006
9.530643498
6.834372034
5.34063867
7.670555456
7.913574313
6.181662431
7.128631737
12.33088642
10.49543562
5.606869206
6.18171574
11.2510944
6.907004486
5.261862541
8.803170199
10.62615533
10.3356124
8.353014052
3.651861097
12.83355896
7.623715838
8.927952816
5.655075483
6.685513827
6.385023418
4.837338941
6.816992807
7.333311543
4.597943219
9.475418155
4.202282866
12.44145544
6.360063912
5.351987525
7.348310972
6.953571756
8.110473879
7.321892029
7.769090816
11.01194426
8.064665322
7.414863171
3.053240053
7.907813607
9.712535171
8.33744585
5.148791496
11.16351876
6.7974087
7.813812659
6.246263022
6.952217566
12.28511607
4.867107083
6.470653124
6.669862104
6.233740834
10.63334143
6.314430999
4.971103395
10.34144175
8.394602938
4.291595789
2.676841409
8.169398548
8.282555803
5.221632475
11.44494517
9.562894957
7.601073619
9.727015002
3.354147634
7.648900117
3.915636761
9.007528536
10.67219982
6.954613887
5.077434139
6.766295001
8.822383608
5.465158137
8.721428157
8.570664922
5.474384076
11.11855463
8.625672962
6.902405274
4.391737322
6.602400306
6.308810644
11.7303708
9.926549828
8.619641587
9.699773038
7.049361719
9.983033851
7.274419639
5.702572521
5.042811967
6.222616233
5.556801894
4.022833278
4.992744795
5.67679184
4.72061792
3.963226729
9.361779278
11.64626551
5.934502113
4.580423857
12.6575841
4.446041793
9.433455895
7.703768009
13.31222394
16.142706
11.39626987
11.6509729
8.338745983
10.8453236
5.488348255
12.15921644
10.60270608
6.787381264
9.417930658
8.648608208
6.229893081
8.151963212
5.6870759
7.643846558
8.295681092
10.12020111
8.575595591
7.12702638
10.33672278
7.587555554
12.045871
4.266838814
10.05579505
3.25859144
7.97613466
6.469836166
3.6736717
5.769266838
5.516582433
5.957075841
6.415676953
8.078652397
14.41276808
6.795439238
3.571500018
6.426093632
5.886769918
4.761818132
6.950456216
11.51846652
5.593747783
10.89918531
4.608423026
5.808901703
4.091640687
11.68776884
7.301590262
6.459698729
9.248495256
11.83277602
5.928343255
9.230878749
11.52393446
7.145212526
7.349966948
8.645695549
11.6600845
5.786246623
7.590310946
7.429275206
11.57062488
13.95009273
5.963113905
5.002721358
11.53045223
6.39533581
8.096833425
5.056803625
8.40676278
5.842968963
10.23960348
6.771652069
9.062784274
4.42818569
8.033110765
4.762414581
7.829959118
5.704540018
5.13848315
9.622110132
3.734714324
11.7274283
11.79621847
8.542899858
10.62455607
5.101277028
8.93790698
4.041642384
9.321139104
9.087409107
7.270266714
1.23463104
7.060954957
8.403046572
8.366667202
5.120240053
6.699562984
10.7191106
6.812375798
4.072426459
3.87105362
10.13322458
10.67848552
9.061003406
11.86993199
8.609040051
5.333832509
4.597250468
9.431645838
4.58441276
9.069258832
9.372601148
7.769824274
7.011143783
14.89498417
9.269230484
6.456845274
10.23670235
7.636420771
9.549161767
10.3481315
9.206476648
8.815460098
7.688638561
8.165267313
8.001384608
6.809404527
9.423483705
5.706640403
8.343763444
11.96159398
9.23102282
7.241534842
4.001756045
8.68178374
3.631120658
8.74182887
12.80629144
5.198588602
13.03096877
7.242968823
6.67694854
10.01853345
5.68095377
11.43727306
6.294335914
7.785252699
5.020779778
6.564872204
8.624967623
4.943722392
7.34056454
13.44100225
8.069409872
5.557808968
5.73294854
6.986213098
9.801998943
7.227356901
6.160806141
6.766483441
5.278303567
7.028725086
5.714403846
6.936007406
5.1659636
6.479549635
7.868309278
5.596809657
6.925700886
8.633552019
14.89979473
5.86386261
2.907859032
7.921942885
6.626681021
7.459965635
11.83643263
7.877981743
7.278887442
5.961514748
8.675538646
3.918189321
5.480676707
14.6453123
5.592958153
9.963524565
4.471203214
8.287582902
7.095739631
12.05755914
7.914000706
10.58839694
9.202628961
9.659916715
3.409346063
7.885301658
8.612173425
6.935844748
5.70818719
12.39037154
3.936426287
2.631243511
4.385330073
10.33930823
9.267704694
6.786188003
4.855902735
6.660065627
9.997333
6.762031579
6.460172752
5.960120429
5.830394362
10.27626305
9.316594599
8.474502789
14.70584627
6.184865856
3.94232893
10.21152648
6.504076586
8.712066635
5.159165132
9.411507636
8.944629063
6.381256616
6.732429036
7.539755555
6.797307157
4.188664177
6.632229315
9.730327873
13.19980862
9.550564436
8.15550961
6.290190577
6.695436431
10.31102754
9.064901288
0.3483279841
7.536375412
9.171597666
12.90544256
6.432421518
3.100583249
5.423045705
4.743409787
5.590165212
7.631328702
7.748771799
12.61243421
8.629541232
4.39345374
4.727248616
8.038595161
5.696269685
6.793191
8.370143623
12.23363414
5.812660632
11.42308572
9.265243627
5.712757588
7.771134363
8.866316945
11.22612051
4.075543548
10.79921238
5.409927015
9.650688394
8.184083155
2.174683622
6.003822963
7.076268295
13.94252725
7.738528763
4.587588434
5.497487363
7.990697478
9.440902054
3.868962617
9.754490795
6.820968909
8.096570927
8.246604516
7.546805231
4.999165027
10.5972247
7.676746211
9.769917009
7.209312812
12.58318549
12.22458557
8.887092804
8.218540635
6.922198107
12.56181304
9.035976446
7.369469545
9.618907643
11.65991504
11.05967569
12.73229824
5.591528233
9.412668665
6.924714488
6.717364375
4.677527433
5.387409951
9.901225851
5.20017718
6.698933893
8.661838424
5.583752079
7.09914574
10.35044644
12.35365748
9.699818422
5.809462609
6.377383166
4.580366875
3.553710985
9.66451426
7.350109031
11.56133211
7.311539565
4.93001814
8.453728472
10.71561687
6.500268671
6.630224587
19.37126955
5.240653319
3.822058522
9.586305365
5.171811249
2.819287762
13.43134231
9.424738723
7.776904337
11.29227566
12.20147961
7.43411175
5.429622273
6.197701883
11.17591464
5.035517603
6.872512994
11.16848214
9.617969323
6.26541401
4.548614819
10.53335247
2.810940798
6.095973291
7.393770737
8.730317429
10.53879227
7.129674989
5.846090381
4.196868914
11.67477597
10.46765905
12.31091998
8.349116097
6.684700079
5.467237855
9.093461242
6.374886298
9.506581811
7.995783567
12.52506584
6.481834288
9.250250953
7.378360871
6.320180209
5.939976689
11.00138666
8.016799005
4.636545966
9.384322259
8.500766142
6.015219449
8.157023685
5.905370741
6.313129504
4.183763499
7.823343387
9.594355687
6.310969454
8.578837688
8.825043592
7.281535233
4.472645646
8.611848905
10.50325249
7.417739557
6.299173113
14.74842093
5.525816946
9.132294878
5.515625003
4.603044583
8.568781212
2.315007791
6.90459656
8.228206704
7.376944025
7.181188961
9.594278858
8.509562427
10.25165817
8.677449778
7.238002504
5.825778504
7.012038396
7.94254294
4.842971796
5.880450484
13.73865843
4.572642571
5.882954551
5.240429938
9.578897106
7.173772187
10.11980243
4.242890751
6.916156354
7.231636683
7.868354055
10.53113951
7.2216764
5.888126045
9.623834078
5.829537457
8.490889425
6.077159917
10.1806293
8.901279734
9.413700706
3.924840042
6.232621944
9.838759036
5.25453071
8.735694064
3.938598315
6.749564716
5.641150531
6.532288386
5.539405517
3.799511879
8.96975742
6.091468969
6.804396895
7.675634704
3.581812919
15.25959669
5.053449089
7.659731046
5.729376342
8.494854947
9.745533276
8.343979717
7.118717858
10.50675976
4.651814395
6.641001867
2.842999095
12.00584267
7.389499767
10.13287084
6.500284817
8.200804659
8.582271096
7.955225872
8.508434262
4.616371917
3.815642802
9.206584351
4.416393697
4.39822296
13.64366905
6.655661073
9.241541798
10.17883656
8.969047811
11.35818124
6.726902435
7.772920566
9.257334966
9.77530267
11.30664788
5.978071135
6.812007457
8.210819038
8.62471605
4.488516395
7.077477494
10.92767431
4.989608992
6.983424495
5.860765364
6.38324622
6.006394754
6.634470511
9.714009537
7.579916996
7.169509861
6.123291851
3.607487583
7.679617717
7.064544684
3.792854488
4.230028312
4.876476676
2.721742371
6.20344438
3.757857168
5.855000296
6.73663588
4.692757518
3.56017798
5.732819477
3.837124133
4.207367713
3.347558995
3.574796141
14.59116283
10.1617499
8.784671608
6.805660382
10.30788688
12.82499998
9.447148244
6.103847729
6.665349661
8.386293825
9.130459399
11.46467164
8.911309626
9.207941045
13.13367903
7.81097678
3.640415226
5.148108364
6.206504754
6.663298657
5.508422125
4.822426197
7.775223554
7.010830869
3.926657138
7.997930348
4.300058029
6.93612613
5.654410983
4.96804529
5.963609186
6.364344693
9.739413121
4.739675741
4.580945399
4.792172291
7.04385643
5.1549666
3.736339929
10.39259726
11.63092531
5.915214075
12.21984956
6.874209286
11.782823
10.25057131
13.01879378
11.22237732
9.77533061
12.42521131
6.827640817
5.966601591
7.379214152
8.7319788
14.8268416
13.84008671
6.587561211
5.628031377
7.990356962
3.944065654
7.434079631
6.992577261
5.337064453
6.295826701
5.94408262
5.921158859
4.418856899
7.20704092
2.925289894
4.124999074
5.925504523
6.014255029
7.61794757
2.773435066
5.866235308
7.026295758
4.473399568
5.280439905
8.199553257
9.705126067
8.215028415
9.850051168
10.20471432
9.696691177
11.60563622
11.24231687
12.14469254
12.18006221
9.550519761
8.881581264
9.952887709
14.31374446
12.44304336
15.53297754
11.48145444
11.07171954
11.68381573
10.68796577
11.10928338
5.858664487
10.00255172
5.47675818
7.158201007
6.51156812
8.762435012
6.537978355
4.596391109
5.724260621
8.480046435
5.239886524
4.650145122
9.871650308
6.288621803
7.634999652
7.533648166
6.297962939
5.853599887
7.3082422
6.616402151
7.427590574
8.490307198
4.532428626
7.856962787
13.63980611
15.04891302
12.13641391
12.24256804
12.20882844
12.44421403
12.90023257
6.454284855
6.437444965
12.50052422
12.89761705
10.4894365
15.04349992
14.96801426
11.44687542
6.190457885
9.051642373
9.908273137
8.798157863
9.484019344
12.86563475
10.34513412
9.70407984
8.084854034
9.108319179
8.515503216
7.164010052
7.918728332
14.06727099
9.492842219
8.492087294
6.053893644
10.96344879
3.659090091
6.806279209
6.503647773
7.532381148
8.874759839
9.721750748
10.42564648
11.50331253
12.92752431
11.02394984
11.78066696
8.49534782
11.22521455
18.64280805
13.54414209
11.98818735
8.683889756
10.16618642
16.60885652
10.78344997
10.34703246
8.494754572
14.57987665
10.23423118
14.27560891
10.81258124
12.15049601
8.515808146
16.61549302
9.562508438
7.29505678
9.026987101
7.537094672
8.314602621
10.31574742
7.684407056
9.023240369
10.42756377
10.05265898
10.31931705
8.431298557
12.2931845
4.971934394
4.872759592
5.806882697
11.37627997
8.646227997
17.43661305
4.596143163
9.194207253
8.473514635
13.05260964
17.67734597
10.33518656
14.55015581
10.03229908
12.82895027
5.854331532
15.86532836
20.94896654
14.344467
12.82855378
15.65162892
12.68945452
10.71146815
13.92077911
15.55145031
6.746727582
9.526037817
10.22422181
11.20357508
2.445582613
6.928999744
14.00595498
5.885927499
8.644065989
9.408897953
3.871681262
8.11169709
13.51255188
5.011696176
7.55314874
5.778239621
5.276035086
7.070963357
3.457090199
7.085485648
6.152219775
11.67646453
8.934217887
7.501271772
7.781307184
8.355476352
11.1615205
14.724138
8.030847744
12.23913557
9.595835436
10.87675185
11.93947709
14.78816495
12.28635062
7.059105049
11.39490451
8.898351649
6.841118609
10.63927065
11.47877813
8.018162268
10.15505646
11.14747004
10.38736793
12.61032132
7.927273405
4.859579046
12.96998377
10.13098522
8.235780928
10.4191584
8.387651081
6.577263424
8.670736149
8.965982711
7.171741692
4.345740204
10.96189272
5.745160063
11.25845635
3.847631145
8.647156683
15.17935473
8.473683383
8.499686693
7.409509564
5.658415358
14.15820101
9.679568646
23.37270919
12.49311524
9.397308018
17.69104282
12.26637766
16.33895258
20.03218616
21.63219206
13.24920257
10.4607708
11.53583458
10.95633914
12.86759549
13.54012819
10.21558535
5.280106252
8.305352718
9.278242206
12.45929495
9.179326319
8.768830754
10.91786449
11.97502141
8.852023101
8.00893161
9.076731362
8.176678555
5.960355555
9.198654109
11.05928954
6.442074927
4.769526775
12.9279706
8.197496638
16.68059534
11.08100603
15.7798888
11.55295163
13.31544153
12.58107263
13.26857072
12.45723903
15.74241645
15.82313695
8.264302567
11.89490572
9.049104856
10.27867518
12.75175203
8.369084812
7.608999956
12.9401922
10.54674238
17.8141868
16.00100837
20.93590877
13.20378402
14.08557536
16.31436984
15.37303896
7.782185599
13.17545229
14.10921148
8.434301868
12.43850002
7.83974322
13.14594046
3.593392196
7.933025705
8.692039702
4.001025536
4.43590522
8.264023494
9.65500181
11.37606051
6.528816129
8.218780922
9.578975658
12.00307358
7.861423482
9.384886326
7.990564616
11.87718612
13.41366839
8.428913502
17.7210327
13.67238199
13.3799497
13.8686247
13.24998702
12.46852279
12.74532863
17.13332634
10.21008295
17.87625742
6.43496296
9.276206444
10.54302046
8.546739651
10.69715535
12.99418291
18.06213547
14.90626148
13.68535066
10.83642185
11.84520154
10.77853668
7.449594426
9.40182688
3.46576442
10.73540455
9.691993534
8.328036711
9.075926012
9.051164918
9.792814301
12.96459207
7.924670709
8.495185277
13.80096867
12.21351379
13.46087684
8.901071112
12.85704655
20.63102482
12.96305438
16.73091499
6.678557544
16.88407219
9.296684743
15.53907717
15.74472039
15.94823217
12.4901066
15.07591381
14.2069412
7.461977526
18.50436636
17.98017492
16.76184561
13.55765529
8.951068772
14.06343491
12.5504091
13.89278023
7.657294633
4.586571547
7.271537127
5.857576444
6.908007162
2.955419683
12.27103034
6.60581015
5.549648577
10.69881503
5.640588085
7.716210165
8.931264307
8.150548995
12.47383242
12.43009591
9.34402713
13.4785012
7.384978434
14.17657995
19.70956901
7.986139067
11.25198744
13.6983358
16.99107944
14.10539404
14.11712137
11.92304545
17.21890246
9.626152149
10.61058768
16.77778153
11.82820508
10.93390489
18.37977622
13.03069753
12.24245489
12.67267566
6.613138768
15.57405185
7.484587068
7.277813365
5.416710339
10.91669339
13.45373361
5.278678261
8.109113275
6.03394038
3.882913145
11.39386966
7.08391006
10.01376172
4.197114447
8.039967184
4.806360362
12.81947423
9.108582133
7.448691253
15.94113237
9.452282259
4.473318225
8.285113922
6.146915883
14.07445145
13.69466585
13.11024753
19.47964687
14.65939384
17.10073519
13.48156118
10.77323362
10.84216341
11.65571418
21.33532708
18.13279894
12.16743368
16.00665368
10.96542575
4.446128581
13.13484329
12.70516846
5.134685668
12.30997503
11.0140668
9.097387779
10.13857122
9.179983616
6.484794098
8.869934042
6.577721949
11.70891538
6.059828883
10.88095921
6.35275581
12.59400174
4.625272547
8.085092233
10.81421926
10.26514831
7.410287251
5.677405894
10.48277981
12.30758336
19.56913509
11.95762776
12.05997763
20.43153058
15.51864159
14.35390469
11.86707468
14.75696018
15.08331355
12.93319225
14.3924442
17.0781886
10.06524623
16.43413482
12.83436535
18.05176483
20.44184256
11.11924724
5.597182125
7.605807816
6.286129607
5.637934769
3.12701422
7.725706666
9.184307263
5.342330159
7.334981345
3.849044733
11.43937619
13.74263289
10.77267828
6.621992627
11.32649676
5.619484546
7.477832302
7.610512394
21.09970173
13.65128586
4.351857038
3.458778662
9.127277654
13.2680226
15.52411275
11.04171281
19.76319402
7.675738046
22.70235639
17.76217766
9.001661367
17.15783032
23.39603932
14.1435139
16.18185107
30.36306084
19.31161219
16.49965222
12.58832264
16.38632866
4.016834568
10.66692184
7.434000074
8.241267047
3.02726667
6.280430953
4.906251959
7.006102189
8.577576041
8.121405683
11.74392625
9.777146123
7.231192315
8.696816861
5.486281046
5.206895224
8.513174989
6.71482818
8.457703422
10.70131263
12.92062075
12.36265707
5.388266869
15.07793755
17.88688921
21.72760715
10.78571193
12.41725604
11.63177667
17.96580978
17.33394751
11.76709898
17.20364174
18.79184186
15.94156381
17.44475409
9.201704777
16.78790331
17.66775972
13.6568847
10.02644835
10.37384201
13.16150582
5.587405325
8.721013279
7.098851989
13.81525218
8.223360862
7.915682424
2.891339653
6.449181632
7.149990006
3.417266972
4.576556737
14.38590749
2.604919366
7.755136383
9.351500604
6.27174782
6.821241279
13.40183863
8.683767128
8.493550721
12.58825441
10.72160246
16.98457986
15.04541939
13.63918845
13.87506554
14.47313942
13.25204365
14.58478294
12.39632282
9.982325415
16.7831776
20.03382649
13.53545315
22.35377121
9.007243779
9.680463722
9.36150929
8.516396211
6.481099613
6.309121627
8.474197596
8.214227866
8.565758135
7.74478129
8.124753633
10.82747509
11.27695256
8.923367666
7.224329439
8.505329615
6.552780476
10.02108588
8.23944348
6.788112746
11.7033514
6.267842169
12.06535053
12.398601
17.95302143
14.24467573
9.951570955
14.53580342
17.0574106
8.425874224
15.19496375
10.73760903
13.14970541
10.98841603
16.32523319
13.04248453
17.30006732
16.46075794
28.04223882
15.29322365
13.49678786
17.79868373
2.909017274
8.451536569
12.23805594
9.884114133
5.290800976
5.535543441
9.51886553
6.038019918
5.563342695
9.433363803
6.895080928
9.584445777
4.755087314
9.583690922
5.792324721
9.645480603
12.367521
8.382635989
8.559663213
9.190532652
8.23031063
4.199801335
7.19103544
4.881643642
12.42373487
7.245898065
13.15092938
8.670803315
12.98072496
11.50354536
19.70205372
18.93247357
13.5006776
16.73257565
9.806400329
16.34333675
13.60471238
14.42913458
17.6699919
10.11776795
8.453460138
7.305567111
12.78917145
12.61364589
7.658170089
7.556592093
6.483907395
5.415906747
8.617245734
7.220701019
10.30612899
12.64880587
8.119210592
10.51147007
10.71786681
6.566319283
7.443007589
8.637572144
9.560790933
7.400036964
14.05264617
9.779553987
8.069463758
5.880726825
9.015488778
12.45552552
9.103662937
11.14692921
10.17812247
11.50471638
9.640114401
12.82260562
11.63824734
19.36088553
17.04345335
11.99736875
15.18071993
9.286837385
22.71665061
17.31436186
5.771938912
6.463909884
7.751974069
6.361030384
9.06279098
7.911768
8.350498073
5.309922265
10.18419193
10.0093888
8.446364651
3.55366776
12.20466312
11.62800184
10.77286663
4.713694307
6.733661556
13.45912695
8.202741961
4.331528362
4.936232368
4.110401433
4.665021484
2.901268707
11.3703489
4.811860048
8.270581858
13.03036984
12.84781832
9.517212869
11.46980997
22.94265973
5.769884455
15.74694324
9.405915565
13.38722863
25.63845911
22.66963094
23.09179652
17.5252891
3.165179556
3.628529391
10.43281314
9.086128905
10.28524233
9.579359639
6.712094803
7.393722187
11.29256414
8.927770289
5.828602461
11.1901066
6.791062957
6.830660392
9.489197888
12.6581487
8.53325652
14.76587022
6.96279496
4.822147539
5.172406981
10.11162385
7.238255553
5.006629623
8.805053437
10.3006172
5.077222599
7.925806624
7.211709915
21.29659365
15.83884335
10.26791244
10.88801421
6.660337747
14.41944697
13.17939808
11.74967979
11.04078595
11.26797171
12.91752296
7.686358257
4.143661497
11.28445383
6.324621811
10.03921046
2.437176061
6.324341239
1.641334308
8.717295932
5.972869361
6.365247234
7.403828839
5.257335731
12.81473133
6.643501079
12.50797909
3.081138199
14.0295635
10.14154319
6.89673915
9.300547835
12.07901526
7.632481605
10.02515811
2.367991842
10.89678379
10.15882985
4.036702463
7.393759611
8.466699843
5.935978768
13.74199547
10.88730927
11.43291426
12.39167882
10.87716185
12.07838673
11.22298865
6.815997003
15.48423468
9.735697999
14.3589277
6.056548937
3.256304257
10.21891425
4.3906337
7.922917087
9.246253526
8.277442538
3.065198375
12.76629658
8.423119735
5.294976823
9.343967856
13.50615557
7.023207351
3.527576952
5.634213281
5.663086067
3.591305916
5.623457077
1.778198551
4.024889767
4.500532558
8.138302738
7.141285761
14.02281407
10.62693246
14.68188672
13.48821927
7.444089815
12.8015202
6.096932389
19.76450078
9.380236062
13.62990303
6.055915691
13.25365951
12.75171879
20.35696124
4.234405716
3.229320313
5.395604134
9.700734386
4.894336369
13.69898044
4.114756871
7.771490507
6.814329311
4.875834474
9.089119369
3.671093422
5.637109807
11.84936379
8.916988221
7.602749577
7.879477113
4.298689601
5.471459232
10.76806849
7.039416889
7.774989549
12.21144282
8.797784078
9.395290924
6.796591997
8.235911193
7.178994837
7.739033051
9.341610637
12.48936859
14.15579178
10.56604222
18.032171
12.75112512
10.68904898
14.78001294
10.72952202
18.06320239
8.858126314
3.028709044
9.866937544
9.172516239
9.493016337
5.058014046
12.39136296
12.54501441
9.297542011
8.84913502
2.095683547
4.710312817
11.57537188
6.009280736
4.090702096
12.98129721
6.451415853
3.92935319
9.062710825
15.46839527
10.98090283
4.00169935
6.835849955
8.30441342
5.274226662
4.80689975
9.720883242
15.29799731
9.191274463
9.604104626
1.748680019
4.990738707
7.625219688
8.045776824
13.99716381
5.269634069
14.10002566
9.0611694
8.656027135
16.39143778
15.91860191
6.247632901
10.43916153
5.312375147
10.54346521
4.139269345
12.68573296
7.955881419
6.695493512
7.905742057
6.62687816
9.919207113
6.453446917
3.464361497
10.12649158
10.88322244
5.328410672
4.127996102
9.40653845
8.342995535
9.235568627
9.354768733
7.13375351
8.098220691
5.047340348
10.10914453
1.152902369
4.89509516
8.745119031
16.9472292
13.84009434
7.995669117
11.26049802
10.74386696
11.48630037
3.940435484
7.315649074
9.219159985
8.590372199
7.981919714
8.366219573
8.24071782
3.799065413
7.86972749
13.10873572
10.03094405
5.660053206
12.05702181
7.576229749
10.17340081
6.703256792
8.302912526
13.24765758
10.40504338
9.621707106
9.019267049
7.81863142
7.914179133
4.473202638
9.488936046
10.38295371
11.79248586
10.49968914
2.889693749
10.84873804
7.083995876
6.993635736
11.22461016
13.13090023
6.376542821
6.974305762
10.1534072
13.32931062
5.45310087
9.730870624
11.32740032
22.32767676
9.847788012
12.46695193
14.61953614
9.048697663
5.564683271
7.704235927
7.297289793
7.821115581
5.725880927
3.745761669
7.92612078
6.919358915
8.905212096
5.168973041
9.06939436
10.8589693
7.536017386
7.678012974
8.730402607
10.76485068
10.13867765
10.42292178
6.902036546
7.524707698
6.210735844
10.0377019
7.914739558
3.431578447
4.428049527
5.230397652
8.824870372
12.29559796
9.251939386
8.727364795
7.754793075
7.574343263
6.585840477
5.578093682
8.615693428
5.752378649
9.164977594
13.4335807
9.924123352
10.23071106
9.95583377
7.824806089
7.327662266
12.53037054
9.390987095
6.992601748
6.465999345
6.075195539
6.289650589
7.62162868
7.542049098
10.97697431
10.65842428
12.62345228
10.94979461
12.27400334
7.967220937
9.291191346
13.74259514
10.91557933
3.805107686
11.70210523
5.864275262
3.289519909
6.176917865
6.487816844
6.416610078
4.27876747
9.947715415
6.10748916
8.691421588
5.396035254
10.46491318
3.136871116
5.274714794
10.53721738
5.153180907
4.690287572
8.152392934
16.04172016
7.705082424
6.665379804
8.740668627
5.948681786
6.570552438
8.519536314
4.838414707
10.51497938
16.46253257
5.177690682
6.53729288
5.770387028
7.011912807
6.006788469
11.86285413
8.566752412
8.007898781
3.681650836
11.71861023
10.52167322
7.15986494
8.457786037
6.408041628
13.92320908
10.57367173
14.16655594
7.436009089
4.895147132
7.580969983
10.88577493
4.277107073
8.967276728
5.791088849
7.065111625
7.009912623
10.79018772
6.137226411
7.601695532
10.92540714
7.874916524
12.50698686
8.303683334
6.424356192
6.73772724
8.802222107
7.851844768
13.79474375
6.118563781
3.613664924
7.67432927
6.502732073
4.754729273
9.170199457
4.485074394
8.058616591
3.069030404
10.42301827
5.440268301
6.121009675
5.09794383
8.465753987
7.180879648
1.15932115
4.731825898
8.876921823
12.38107308
13.54504207
6.663131963
9.372243262
7.467862373
3.167305259
9.556373539
5.800628923
8.802220091
9.324900217
6.596291284
7.143079373
6.392850547
7.294985145
3.499176442
10.44141195
8.426095148
4.726506065
1.996928967
11.19606919
5.534633503
9.912202633
8.435728404
10.35048302
7.980637037
9.744696545
7.320777016
2.761420636
5.687294779
7.465678161
8.507171341
6.619935703
3.951747197
9.408694789
9.063811136
6.519931754
11.61299377
11.9837847
3.170870418
5.855611912
5.435314621
11.44773711
4.768018369
6.225661323
9.834239618
6.338377187
6.534577721
7.998562548
9.45683702
6.636785351
9.075215368
4.365805935
4.820686879
9.779535194
8.730660929
6.01869209
1.738118265
6.494223447
7.407657303
9.113417486
7.315709912
4.634460525
6.806381129
5.888619236
10.85519273
8.71876407
6.244456275
7.943327147
9.578406628
7.065280247
13.96358255
8.768669202
7.690445824
12.12647807
7.770559456
9.670446823
8.421937374
7.082896069
6.879069845
10.95401656
10.04826945
9.961251942
5.592747224
5.469881979
8.117555887
6.174688932
3.867428951
4.884524707
8.784553869
7.354690821
7.394977552
8.884696992
7.650029054
5.805451536
5.877528038
7.332872903
6.498760591
7.182886431
11.14878455
7.688913464
6.477925557
2.744959892
6.400303793
7.493519022
4.359032299
14.27999773
5.71057335
5.402397102
8.211926672
7.873176104
7.513996106
8.803098163
8.437076902
6.189301699
7.515180056
5.197372833
7.46243711
7.652122282
6.458874616
4.972020366
14.91405781
6.816333818
3.52362655
8.523836928
6.504697362
4.365677264
9.374163876
8.044289982
9.081656013
6.123843399
7.350863074
10.299505
9.812438298
12.40467028
8.458225637
12.10840039
6.287161612
6.563786219
11.46532577
8.604452282
5.591971714
5.2460641
13.44672079
3.815473054
5.458225472
6.68611379
10.24773231
5.88534081
3.680571321
5.421773916
6.444468521
20.66094986
4.60778812
15.58567769
6.609687333
6.432965562
8.850318478
5.955583539
7.96949197
5.584993847
5.381014326
12.2881985
15.16610236
7.064029388
4.390640692
5.919901382
10.79330416
5.501340184
6.937950568
6.114861686
8.695660255
8.129907586
14.92821386
6.763724691
5.216415329
10.43387756
10.67466934
9.3003443
4.963517624
8.138984571
9.279144136
8.804853938
4.199727098
6.845147783
10.15949515
10.09083343
9.196168076
10.29382543
2.163063243
6.702505854
11.7020894
12.67878263
6.975648765
8.89058386
8.310082975
10.23558362
6.576805116
5.844908852
8.568084319
11.76215079
12.38774033
12.26379917
10.25146933
12.30322532
8.758329878
7.607915816
13.65891136
9.503925866
9.077487398
6.846440887
4.653470034
10.30938234
8.895031268
9.464138728
11.41070505
8.61935547
10.35800777
9.602408727
10.89906822
9.407607463
6.911557848
8.725182645
11.76899616
5.380300248
6.752543557
9.558679142
6.383016833
9.324065455
9.478643523
5.490637162
8.37613597
7.000159481
11.84851735
2.697776245
8.894541594
5.42894545
3.493905091
6.679344475
5.864736548
8.008067213
9.482126531
4.041151084
9.099688035
5.547657208
8.27508403
6.892239817
8.79912796
14.81291951
7.607889665
4.984130422
10.46212825
3.645814484
8.942736071
9.550729711
8.119164966
8.279744116
10.77889515
5.436889954
7.941117374
13.64293036
10.1450666
9.582339376
7.690695858
11.12110085
7.642986771
7.652627238
16.00047226
8.454659088
3.937165691
5.454515463
9.227819084
11.51163467
8.944401231
5.127725561
3.623652664
5.609440526
5.684567882
8.405910419
5.98726192
8.908545367
6.655463774
5.568130309
9.721835656
7.43895029
8.892948276
7.546113425
3.437708862
7.668611735
10.18918806
5.085187005
3.003269612
8.657284074
13.22654929
4.439058133
8.476575843
)
;

boundaryField
{
    flow
    {
        type            zeroGradient;
    }
    obstacle
    {
        type            calculated;
        value           nonuniform List<scalar> 
40
(
6.284678625e-18
5.772696126e-18
3.776019377e-18
8.101666025e-18
7.12065077e-18
3.166898028e-18
7.684659774e-19
2.624274577e-18
0
1.518393635e-18
8.529740884e-19
1.706424444e-18
1.041174514e-18
2.824240854e-18
1.40335788e-18
0
2.657560701e-18
4.807893283e-18
5.832702781e-18
1.557846018e-18
0
7.837968177e-18
0
1.184183225e-18
0
0
0
9.503577298e-19
3.935315404e-18
0
1.242200452e-18
6.276021301e-19
2.304176216e-18
1.860813565e-18
1.112051641e-18
1.333195006e-18
1.446094597e-18
6.25798334e-19
1.96748205e-18
0
)
;
    }
    frontAndBack
    {
        type            empty;