/*--------------------------------*- C++ -*----------------------------------*\
  =========                 |
  \\      /  F ield         | OpenFOAM: The Open Source CFD Toolbox
   \\    /   O peration     | Website:  https://openfoam.org
    \\  /    A nd           | Version:  7
     \\/     M anipulation  |
\*---------------------------------------------------------------------------*/
FoamFile
{
    version     2.0;
    format      ascii;
    class       volScalarField;
    location    "0.009";
    object      linearKE;
}
// * * * * * * * * * * * * * * * * * * * * * * * * * * * * * * * * * * * * * //

dimensions      [1 -1 -2 0 0 0 0];

internalField   nonuniform List<scalar> 
2400
(
0.7292646223
0.5932262987
0.3560445127
0.985567292
0.5046599438
0.6413513712
0.3315463065
0.8176674614
0.3191351337
0.7301643585
0.2166464388
1.061185687
0.9190032047
0.6542237858
0.3568350039
0.3795421575
0.7594661558
0.3699069176
0.3549566594
0.5679588783
0.6227883622
0.5676135883
0.5878070579
0.3538410724
0.6279276537
0.4926136759
0.02685967055
0.1402308581
0.4292953032
0.9668392796
0.6574623933
0.4906322921
0.5287028167
1.046772355
0.440300052
0.3849613496
0.3530344576
0.4388365923
0.9147366836
0.7419800811
0.6129066636
0.6258280304
0.4447638315
0.6556841331
0.4962406172
0.7268086702
0.7440144869
0.5379143294
1.127345969
0.7316030074
0.7089496021
1.096467781
0.7341969352
1.408391946
0.4049746768
0.245551139
0.7180619751
0.4793464262
0.8284190405
0.8965162226
0.37244649
0.5376865963
0.1382341955
0.7318057592
0.8537774353
0.3373048476
1.026032625
0.5474155343
0.3527376209
0.4496872476
0.1904492277
1.048496189
0.8490257812
0.5815760161
0.557867462
0.6518351714
0.3194606579
0.1952700389
0.5514672119
0.3927271012
0.387037601
0.8075862474
0.3960157879
0.357852753
0.804689824
0.6473670337
1.484894532
0.3798267635
0.5681147545
0.3118130688
0.7582627502
0.8844908346
0.9492701172
0.5607888534
0.7720642384
1.181703238
0.4933212243
0.4625584293
1.068967174
0.8512351232
0.7875056375
0.4363241337
0.4616524154
0.6036565976
0.5188295348
0.5273317284
0.4069333464
0.6121892637
0.9416591814
0.9872740749
0.3808897217
0.6013094095
0.2374146199
0.8316859765
0.2611902871
0.2578792582
0.4033731156
0.6471977111
0.3985808575
0.8027053525
0.9557158508
0.826904302
0.3448930881
0.6542539402
0.3546276546
0.5767735652
0.2846546491
0.3022598618
0.6271233509
0.4157941977
0.9100712397
0.2303830085
0.66040309
0.5982042162
0.6645803697
0.7666567587
0.3541479049
0.4829214565
0.5289584057
0.7708818685
0.4530304675
0.6001095627
0.4141722689
0.5831918417
0.101976098
0.5485859197
1.108745841
0.6671936319
0.504723286
0.403975335
0.4365002374
1.032464155
0.2749173326
0.6654647111
0.316673041
1.122489372
0.5330093522
0.5959081476
0.9966939197
1.074662422
0.5721356844
0.6713329492
0.8222011223
0.4361747322
1.022569024
0.8325810454
0.567144552
0.4710289246
0.5783515967
0.1760098993
0.254450792
0.7533390866
0.1599149799
0.6642494743
0.528912842
0.9334496501
0.4473047545
0.5321431965
0.4532027517
0.6111916211
0.5256534985
0.6825188166
0.7242755025
0.2814695067
0.9198874183
0.6740332168
0.9612878473
0.553023606
0.5065102758
0.7974239835
0.6644951682
0.2509605605
0.6431113189
0.6705454806
0.1391396952
0.5841836383
0.8863036696
0.3683853719
0.4604686169
0.5027959618
0.5359199565
0.7563316455
0.8404784443
0.5261312268
0.6608969023
0.7631544639
0.7384836436
0.543779879
0.4105617466
0.5485083131
0.7447914572
1.026956064
0.9043401224
0.6854103834
0.8289609501
0.4315700229
0.2602232264
0.3541327737
0.4266823123
0.2279776709
0.7624479734
0.3738485912
0.7197632883
0.9673030875
0.9253429584
0.6091654615
1.29362883
0.6305030725
0.679984722
0.5423836882
0.4222680524
0.4754287198
0.7587084169
0.8476289436
0.9321002989
1.321073235
0.5128684877
0.5379883016
0.8496191224
0.4011662922
0.4096951924
0.1630323501
0.9796756834
0.2308559223
0.5132122126
0.4517678045
0.3330914733
1.033713793
0.5151134139
0.6548334896
0.6678608033
0.6978908203
0.6382667427
1.175602913
0.2717909334
0.6975136356
0.5662589304
0.6343384513
0.6457714786
0.9048476763
0.1398050646
0.3295095914
0.5821522301
0.7986367392
0.4868249024
0.5730755494
0.3282466424
0.6278342346
0.6863087333
0.6725950137
1.02030754
0.2309524016
0.3910781908
1.594393812
0.6961078822
0.6363286525
0.8268296241
1.210426446
0.7102331664
0.455393871
0.4105607862
0.8992110612
0.6934617812
1.275411909
0.426922263
0.9902494441
0.6298877825
0.4379215099
0.7843872367
0.4112778849
0.3759980103
0.2815772194
0.8137140603
0.5157372633
0.3290385823
0.5235152992
0.4391553848
0.3406413072
0.9889892574
0.3857807601
0.7159929551
0.5815449238
0.8153884309
0.6810628249
0.382951173
0.8589567197
0.1331930608
0.5985029577
0.5819028004
0.7687623364
1.07048296
0.5447347209
0.2728304191
0.5551249034
1.005796602
0.244192408
0.9381761751
0.3796437918
0.4121661875
0.8272663451
0.2789457593
0.4650722245
0.4833816162
0.2920554849
1.105745854
0.35256604
0.1612069702
1.018369551
0.703948529
0.3828276661
0.4010136969
0.5577003035
0.4989486159
0.4048262765
0.4395327858
1.361461215
0.6449453475
1.019442815
0.6937126475
0.6104683571
0.844371611
0.9432705802
1.264826031
0.544709221
0.38827263
0.791801023
1.049567121
0.6603974529
0.4895150138
0.4927862195
0.4072422809
0.1043380281
0.5421215674
0.6566221132
1.360035444
0.3978131403
0.4640744488
0.7508553569
0.6259875167
0.3462142514
0.6507731836
0.8780449051
0.8849962078
0.5790043078
0.4824050451
0.8401288086
0.3144751273
0.2997144494
0.6947836974
0.4788268478
0.6062142735
0.2887698077
0.4408174044
0.8247618924
0.9408218438
0.4978195467
0.3448900702
0.9804776073
0.6170641178
0.6358613475
0.7936069389
0.376750578
0.5718675471
0.7111099528
0.3205347844
0.5672090405
0.7152908338
1.079236271
0.4479947043
1.286748998
0.6802577622
0.7048392755
1.463939986
0.4012774246
0.2815558882
0.6560762182
0.6054267097
0.5703741918
0.5577898111
0.9411490558
1.0984688
0.464036815
0.7681369073
1.174520383
0.5577626331
0.7189520596
0.8354632263
0.9232088363
0.6488301685
0.5398481914
0.9551851798
0.3379954915
0.7479205051
0.5356330452
0.4758261696
0.360474956
0.6840269016
0.3412824705
0.2876654242
0.3509133659
0.3137302743
0.5978922244
0.6867771807
0.6906271452
0.7202620534
0.5856366497
0.8748180169
0.9244183962
0.4845654233
0.2268482456
0.6665074018
0.5538727863
0.02800676158
0.4018598536
0.5251740371
0.9201371166
0.5543369339
0.4248353539
0.8362611929
0.8829400095
0.9884547502
0.6622503596
0.7597426682
0.7940041943
0.5083259508
0.4586396978
0.3119535612
0.4645069774
0.4557389765
0.4867233369
0.33254976
1.308147993
0.4702925534
0.6120091163
0.4209752056
1.112354664
0.4650175313
0.7550400371
0.6304752742
0.5081993174
0.3055411119
0.6329496958
0.8187624645
0.8151419866
0.957977699
0.5807756434
0.3385482059
0.8130300193
0.9645668379
0.9918745913
0.9977518727
0.8623699959
0.3098798951
0.5947206382
0.4040679571
0.4444697313
0.5949720381
0.4137494016
0.7021143286
0.4464676309
0.5856058309
0.6106761823
0.3369725574
0.437838498
1.025892489
0.3992042211
0.4914802657
0.52283143
0.6360366294
0.7462982512
0.1609075057
1.110709782
0.4090703137
1.089519934
0.5208903685
0.8226994615
1.169875706
0.4520278673
0.8136281277
0.5372024906
0.7188427308
0.7161016059
0.1880556879
0.8238344185
0.7400119368
0.4744944678
0.464692342
0.8076674307
0.3625424846
0.1416737257
0.5828397352
0.5108431714
0.05544616938
0.8275623927
1.039510497
0.6898913337
0.9319325628
0.6242414659
0.308175405
0.5354197895
0.8459127982
0.9265387055
0.8552055212
0.4590134805
1.121223073
0.3827182849
0.5945041441
0.8309892283
0.3486256881
0.9091190555
0.9110114227
0.4001393382
0.6334421841
0.7831418489
0.9084143933
0.8020047419
0.8547498755
0.9212794221
0.2597654372
0.3381764359
0.5182678175
0.5541897543
0.2134823242
0.459624578
0.6075772365
1.126687762
1.046992325
0.4560671626
0.6322576335
0.5771938492
0.5101458855
0.7303027335
0.3353865333
0.5284600068
0.8590726991
0.3626353663
0.7988334906
0.6492673339
0.4374156727
0.3593374049
0.5774295386
0.6069603004
1.295210224
0.7738394317
0.6445684802
0.6115278776
0.7921727797
0.8134979028
0.494129588
0.2670344536
0.7468812312
0.5440984099
0.5778289644
0.4154198281
0.4939896827
0.3949771407
1.740337332
0.4683082111
0.3668435848
1.146312738
0.6071636336
0.3085133055
0.2253700475
0.8888059556
0.7261509233
0.4292561629
0.9835719131
0.08767683416
0.7908591636
0.55692864
0.9479369644
1.080589308
0.3926208223
1.061555289
0.9206448176
1.463235749
0.7687634653
0.2897427674
0.5281639579
0.9349645318
0.6075586451
1.101950021
0.3340856629
1.280667107
0.3106707523
0.5084003424
0.5984425861
0.7175232155
0.5630560302
0.991451977
0.3268154654
0.9863238964
1.064703487
0.3856402702
0.3082160696
0.8952889447
0.6079505019
0.4974258407
0.4049247902
0.4488376642
0.680873053
0.4776547122
0.5873532009
0.9694658425
0.435795971
1.449658726
0.9375075166
0.1953328856
0.726293394
0.681890795
0.6173510771
0.458723588
1.07702472
1.130318004
1.19093913
0.8837358156
0.6224614137
1.108728191
0.9387266377
0.8447220703
0.8406948102
0.4729401098
0.7102268568
0.9201611024
0.1122589808
0.2727677086
0.720504559
0.838980378
0.1033005697
0.5552654065
0.3863908902
0.507191316
1.379982485
0.9555060356
0.8311453386
0.4281830719
0.5437662534
0.4040991378
0.6590468036
0.6105599398
0.2435769777
0.729686505
0.6246308898
0.6108002777
0.4278861879
0.4870068748
0.5299247743
0.5715744338
0.8046486711
0.9455431915
0.4236818328
0.1841442637
0.8539013271
1.05526963
0.5146591161
0.393959104
0.6845768518
0.612186535
0.6441503202
0.5776418641
0.4280992539
0.8851870211
0.510266239
0.5338386798
0.6345663246
0.4221164652
0.5289598285
0.2037863494
0.5938500013
0.514798068
0.516892208
0.7152757563
0.1102239283
0.2063960566
0.3827572524
1.435087299
0.8818880846
1.13469275
0.3812627379
0.3755447537
0.4514371106
0.3235565193
0.893857757
0.9804182845
0.5841470337
0.5470179238
0.4983605972
0.6544808559
1.065433025
0.5802431536
1.109718655
0.3395560061
0.5368627768
0.8262280082
0.685419317
0.4901381089
0.776276017
0.62500772
0.3483447414
0.801661635
0.4763009091
0.2122844264
0.2034829108
1.21995165
0.5710112434
0.59434511
0.2870208683
0.4747686994
0.8733321672
0.2765891197
0.719766826
0.8096918366
0.6136567421
0.5624579976
0.5188752533
0.5518957094
0.8979425869
1.086361049
0.5120508478
0.6906823609
0.492610682
0.7369082077
0.7385034353
1.287808629
0.7685937594
0.58267291
0.7743933498
0.7909071671
0.4692764939
0.4949304606
0.2588227488
0.8170765449
0.6584689182
0.6378284691
0.897094115
0.7072604958
0.7241325478
0.7615891541
0.5747298778
0.7375043223
0.4889960669
0.3178137229
0.8022630778
0.4624486372
0.6271291151
0.08875134242
0.6982514874
0.404374074
0.09302963192
1.037998998
1.051195579
0.6438988118
0.5445488406
0.5285192696
0.487461314
0.9283569899
0.9845571035
0.8987506671
1.316264434
0.9526353432
0.588000636
0.8556084749
0.4349167885
0.7778801143
0.1736105854
0.7596432121
0.6414789865
0.3935237303
0.701468707
0.3443687143
0.3246650744
0.9933305671
0.3831069147
0.5743302662
1.194077608
1.072266601
0.8912858852
0.6752023932
0.635715352
0.340360324
0.5322865645
1.063275091
0.8350395874
0.5773176537
0.4724235041
0.3288251012
0.9961101251
0.1864097392
0.3506942753
0.07631259068
0.8296326808
1.072603721
0.4092118491
0.9370526041
0.3884930072
1.052711245
0.5978861426
0.3797011558
0.6290879965
0.3874537723
0.7187551772
0.4204987314
0.4497586528
0.6243239
0.8085235168
1.319287967
0.3825474697
0.9551808234
0.3553177177
1.235229929
0.67407706
0.5060356929
0.568606893
1.610543926
0.3915728435
0.1993491401
0.7044955258
0.6825782674
0.4998409529
0.2082838575
0.803985028
0.6133937628
0.5536326686
0.7426662525
1.183224474
0.4033979658
0.9070378131
1.165299301
0.6833673647
0.9538303671
0.67330009
0.7501398802
0.4602862024
0.7749645772
1.457735075
0.2995984629
1.535758406
0.7143900966
0.6000209575
0.4058874492
0.1608757545
0.6794333662
1.144855208
0
0.5194460661
0.770174837
0.7371852392
1.172454131
0.2233440829
0.4344852409
1.023130431
0.7637136055
0.5206783195
0.3813722989
0.8761964087
0.5945423143
0.8058106859
1.870417827
0.4001869798
0.1174962039
0.3669633036
0.5861389772
1.329901155
0.5406555123
0.8195041981
0.7481421608
0.5408916713
0.6230828902
0.8161078215
0.4337815717
0.8979176674
0.2817213079
0.4831354354
1.44489071
0.1640640624
1.032729238
0.7225593282
0.6757259664
0.428299555
0.7622510901
0.6273059842
0.9015309394
0.6217815676
0.2580989799
0.6800543996
0.5164076203
0.0822030176
0.9433739495
0.8952780693
0.8120544436
0.5065035472
0.398593602
0.2322687881
0.9977900549
0.7204967909
0.5456661251
0.6303526902
0.3596045023
0.3145552914
0.6460653021
0.7480099711
0.5200129566
0.6698857496
0.6427093701
0.7136153947
0.635907459
1.368597302
0.724654057
0.3631491052
0.688132427
0.4571813166
0.9509369206
0.8925131559
0.7040631466
0.7846301974
0.5183016116
0.4761509272
0.5763094652
0.4693493176
0.6176902838
1.388417936
0.7801824464
0.4352164881
0.3084746588
0.246048778
1.133522701
0.7927520194
0.9632213564
0.3995048916
0.7242068627
0.144780692
0.604732569
0.9061176528
0.8241533367
0.4670540841
0.2254912205
0.2018862587
0.3252963421
0.8357510449
0.8922085342
0.7049255375
1.193248445
0.5040159363
0.1536223925
1.537633379
0.6494878223
0.455204642
0.7393793769
0.6079131058
0.8279087249
0.2882360372
0.8490983638
0.4781583371
0.9254455971
0.6734046018
0.5621323119
0.499008912
0.4098257843
0.4752582793
0.8519800033
0.5916924015
0.4152668718
0.7782296098
0.9107004186
0.5821687734
0.8589153067
0.8049031609
0.750987278
0.05922890227
0.2291326126
0.9172306967
0.3028448675
0.4872410006
0.3655611632
1.088660123
0.4414484569
0.5649769472
0.7327571493
0.2208205614
0.1945515193
0.5162823691
0.8723696541
0.5713610924
0.9540486754
0.6116008228
0.5975115814
0.7151103116
1.347902383
0.7866082553
0.1092110766
0.5780340474
1.322382155
0.380620073
0.9062394518
0.4418721558
0.557033394
0.7999359045
0.3751159656
0.3473225852
0.7069232834
0.334072874
1.282323543
0.7333324345
0.4996887991
0
0.9031820286
0.5781828661
0.831400789
0.3420521744
0.7446976579
0.4771679574
0.4117820887
1.518688711
0.9408764938
0.3269774202
0.4689616373
0.5887188921
0.6279256212
0.3294502743
0.3877663005
0.8960012298
0.8399084177
0.4775672231
0.7758123709
0.3990957343
0.2893388971
0.5673344753
0.7197398577
0.4049239793
0.9464434657
0.7735560114
0.4194273645
0.3419133991
0.6447679403
1.095197048
1.908508653
0.9299864824
0.4820463467
0.4008467021
0.5572304052
0.3701252821
0.6790014001
1.013005036
1.609303764
0.4569998193
0.4684593827
0.5698207254
0.7191010066
0.1634338065
1.266827424
0.7498369452
0.7138415166
0.6910946762
0.2329189908
0.0811978462
0.5684154514
0.6460371405
0.5127569745
1.615675616
1.055239137
0.8997983505
0.2207380862
0.6140945215
0.1003270128
1.273881337
0.05521072979
0.726814406
0.3482072964
0.6880202655
0.9631149682
0.4309353684
1.2081674
0.2614352616
1.383817762
0.6130348954
0.5002790506
1.193615212
0.411434147
0.8525165429
0.3624458777
0.7867962627
0.2736230084
0.7591240128
1.227980297
0.8116943712
0.2326790703
0.6412694866
1.071134946
0.8219689174
0.9668971338
0.2133206233
0.3542227992
0.9541233563
0.703325363
0.3478491152
0.8356914771
1.269580109
0.1051336032
0.999396235
0.460044424
0.7987196476
0.6359236203
0.9404348815
0.7987522758
0.2805378682
0.5063306724
0.590357403
0.2954338176
1.039214324
0.3863808833
0.7516821744
0.4208616534
0.4138165575
0.2651729283
1.517394914
0.7947911868
1.145611978
0.4892543946
0.7546504986
1.373098507
0.398716629
0.5277102653
0.4925170225
0.235995536
0.2596276103
0.624457673
1.242115908
0.4935325508
0.4776628377
0.3467109162
1.742576193
0.9556647094
0.6180073245
0.07176493285
0.7859396834
0.7506971268
1.313985053
0.9974628617
0.8905545396
0.2386307741
0.934272436
0.9004688529
0.8865987469
0.7759820644
0.3418913388
0.4391815444
0.3295077531
0.5403765314
0.5688800824
0.5595247788
0.1951683585
0.3124820128
0.6616845574
0.40271743
0.4115792473
0.5248613063
1.254332718
0.2764340886
0.1394940558
0.3618502417
0.9658041008
0.4281546647
0.3403640483
0.2311480274
0.3063877
0.782097483
0.7939357663
1.014568218
0
0.2424986576
0.81519305
0.325843319
1.308563694
0.481130345
0.194554368
1.351409176
0.3344262193
0.2871960066
0.5350572376
0.2427829868
0.8838136345
0.5095643975
0.3427735224
0.3212880703
0.7866191512
0.2992769972
0.7782723258
0.465439396
0.490281217
0.9215531442
1.089053077
0.1307567017
0.4348342396
0.1933243024
1.026319942
0.5185647054
0.736187279
0.680260697
0.7857267338
0.6186223907
0.5510368184
0.7156796502
0.835158855
0.03164782474
0.3615039708
0.8970265959
0.04881862433
0.2820007155
1.488154928
1.18912918
0.176061979
1.330075955
1.058295885
0.3431513774
0.1249767393
1.166521769
0.5116989086
0.6305481511
0.6841691097
0.292328848
0.7585208165
0.5688474975
0.944135549
0.534035796
0.3941280879
0.7411976865
0.8373787865
0.291270928
1.859339773
0.6238202792
0.3844773562
0.7563848692
0.6895720091
0.9633255589
0.4995745095
0.7433163869
1.030096652
0.6121441145
0.8783742513
0.2259782635
0.206709321
0.8595726956
1.275235387
1.027562478
0.442780332
0.4828891544
0.0917763877
0.4228288224
0.6157667494
1.122531999
1.018828185
0.9820162773
0.5600719551
0.5579918305
1.755369742
0.3581595748
1.707517437
0.4586454951
0.5699989936
0.7606907061
0.8966552108
0.5311885062
1.059464215
0.5397459843
0.3686468895
0.8731058828
0.8940911359
0.7328825853
0.3472609855
0.9630141224
0.7401395362
0.7126684896
0.7193959347
0.6932282761
0.1042764037
0.529696587
0.637011924
0.7760524815
0.5845371721
0.847159908
0.5982392216
0.4313309263
1.113788648
0.8577190703
0.7531470417
1.005017237
0.04120359436
1.119980796
0.4698312249
0.5229934174
0.1982212231
0.8125705983
0.6362641687
0.7242734255
0.6898755951
0.4036675901
0.9283928891
1.111446786
0.2490108537
0.2880359349
1.026473537
0.9159440161
0.9577841407
0.2776438659
0.578164184
0.5420094397
0.4646867278
0.6163972167
0.3441997907
0.4635679765
0.6244242664
0.7506932307
0.3081415459
0.1913968044
0.8050149621
0.7935554098
0.8522670623
0.4263321917
0.7312995523
1.373693185
1.064191427
0.1905442717
0.6104921552
0.5350912191
1.012231809
0.8507534995
0.5535144839
1.534948691
1.228860244
1.333154229
0.9207008284
1.42701463
0.09833388521
0.6984030909
0.8635568238
1.167920727
0.9160189565
0.4628507383
0.3934330905
0.6425694623
1.072637127
0.5305815694
0.5436761072
0.4507287392
0.4753886567
0.6601087042
0.3974040983
0.7309130494
0.5280855517
0.3294938765
0.3675641416
0.8359676242
0.5697775611
1.404597658
0.5584137785
0.7405913594
0.8350728771
0.4815605385
1.017753054
0.2430601627
1.199415523
0.4146995671
0.2753405283
0.1479225935
0.8946510203
0.3896851218
0.4985715614
0.8654264289
0.7492199774
0.02969240614
1.028660747
0.4546996894
1.25229422
0.2077075415
0.4771576485
0.3989273912
0.4203184789
0.4775445211
0.6523204686
0.4828330936
0.2442687906
0.4277555681
0.5767478613
0.6859861838
0.3434547108
0.3589494
1.004944452
0.5126125063
0.7979958448
0.2885603779
1.096443647
0.1718001878
0.8883046307
0.8941177422
0.4483824057
1.123144687
0.7528909976
0.8802859739
0.3484381559
0.732188357
0.6605406536
0.1942967653
0.88127323
0.5827386701
0.3930479107
0.8824637037
0.8221442952
0.6342047093
0.1454861131
0.4571251635
0.3983612123
0.6238967588
1.516554054
0.433202672
0.4258246872
0.5938635418
0.5595366572
0.4969939255
0.4519467066
0.3680823173
0.3592647998
0.4899064579
1.097227532
0.4265873306
0.9768689366
0.7789050978
0.4566252499
0.8083024563
0.6132738223
0.3998682697
0.6340197571
1.114553999
0.8278175294
0.6857480267
0.863964354
0.9866035248
0.5956993632
0.6404933089
0.716777981
0.3357870631
0.7605073823
0.5679849614
0.1705643976
0.7304253121
1.193383853
0.7718667046
1.050670667
0.2603244734
0.4125377967
0.5724104151
1.291700011
0.5513797722
0.4979847998
0.1673875654
1.163525436
1.569569617
0.3540062119
0.8663076601
0.5540032235
0.7859946835
0.5333185978
0.6915764459
0.5332747235
0.2276333775
0.1597779262
0.464188301
0.6360232854
0.4861156924
0.7934753277
0.4338685272
0.3397286872
0.5659343989
1.304495859
0.4099590498
0.5980228397
0.1640991253
1.437462184
0.8052806922
0.1985743627
0.336505792
1.336109714
0.8126566147
0.3798050377
0.07536068138
0.6289752567
0.4748980758
0.4767171124
0.1648045236
0.8290889005
0.8497462245
0.4190680435
2.019890684
1.076023455
1.196573391
0.435825667
0.963742653
0.556649788
0.6094757798
0.08464633781
0.8948213781
0.4614208351
0.5647348732
0.3619418658
1.221226132
0.4764692177
0.7901337392
1.058078443
0.6199073924
0.7548703644
0.2470855068
0.8560581497
0.7778080835
0.834474958
0.9825986704
0.2468916204
0.5083362879
0.4852826963
1.267670123
0.2910256024
0.9493977385
0.5955002856
0.7262476401
0.2711513626
0.3583423054
1.266537421
0.7004614027
0.5356409484
0.6882584581
0.808259052
1.230293192
0.3617324725
0.3374491897
0.3474590201
0.6441500224
0.4971649388
0.1583280242
1.502440584
0.2905398733
0.23590912
0.6036770641
0.8438000678
0.5020209241
1.176859867
0.7202456824
0.5610054709
0.4426292958
0.5216146172
0.4855812385
0.6288662003
0.4834947137
0.3657629313
0.2622374077
1.12421515
0.6027332497
0.7904268882
0.3965032848
0.190776448
0.506646261
0.8940445794
0.306973525
0.2901507473
0.6282647883
0.783644625
1.544927171
1.148000039
0.3448710774
0.9523242443
0.4068886389
1.05594189
1.361790656
0.5791915005
0.06813008562
1.20085697
0.728975379
0.4706304607
1.008536022
0.4832361004
0.322865321
0.2239964874
1.016494223
0.5324689874
0.5347801635
0.4234547763
1.295608108
0.3938876098
0.8184262385
1.287203367
0.4988799779
0.9799287793
0.6612282247
0.4414026617
0.6951606256
0.5323258028
0.1490066955
1.744152138
1.254195666
0.4109008411
0.7286214204
1.296440392
0.9128075658
0.2858240992
1.225928845
0.2398955347
1.063945007
0.5166161893
0.5858671117
0.09971109596
0.2853940893
1.311219703
0.1217848104
0.6207855248
0.8733079828
0.4670373273
0.6453856036
0.5557403346
1.051766788
1.500621294
1.140916089
1.227993241
0.3361410072
0.2339944415
0.4008138533
0.5951756758
0.5997681157
0.395613983
0.6023107118
0.06627619769
0.6288063701
0.5083048932
1.186482823
0.9318533505
0.0550079133
0.6419730801
0.2574720092
0.3699729803
0.2730777799
1.245574047
0.6194976287
0.4316292438
0.4904807387
0.5591196819
0.7044055649
0.1434964226
0.7560032399
0.07360207944
0.5621626664
0.4500660703
0.6558416441
0.4775435502
1.134618492
0.519938943
0.195541834
0.3159744821
0.7315029701
0.7881033085
0.0910812101
0.6788551702
0.2884062743
0.6659138162
0.2455774246
0.7890221629
0.784185771
0.6475989714
0.8096250409
0.6791190708
0.7212513459
1.082517838
1.006501633
0.3876084167
0.9376335061
0.7394574906
0.3267659064
0.2023417484
1.920266408
0.2898252128
1.310573439
0.5587128457
0.5370147583
0.2711811244
0.1603052313
0.4268826053
0.2462710519
0.8407701221
0.6631268209
0.8295304769
0.8131606655
0.1139649197
0.539667302
1.135440911
1.019403174
0.09784018305
0.8152405799
0.5879170951
0.1051468648
0.2449668469
0.6345409633
0.3037599328
0.3449448975
0.9410122764
0.4026673725
0.4968552651
0.6458799364
0.06329895427
0.4475118912
0.6369246527
0.5628310184
0.6974924534
0.4749872617
0.470007305
0.7201788489
0.4523800897
0.7506706888
0.5505143131
0.1384532946
0.9571590162
1.431809403
0.2837251212
0.7674638468
0.9437712665
0.6568029028
0.7609429932
0.6144160144
1.065545764
0.7152619823
0.3128313494
0.9629279082
0.7547619922
0.6532299385
1.51513836
0.8723606181
0.4158072954
0.3484202881
1.21288224
0.2292303712
0.7957377338
0.6339557074
0.3998207072
1.104929265
0.4105253641
0.1497263519
1.164852341
1.355597381
0.6215228531
0.385958445
0.4938665599
0.4025610876
0.4784345683
1.004844745
0.5726370828
1.006192725
0.248263531
0.0912101058
0.6595814665
0.7376802797
0.5850444582
0.6800040644
0.9974486446
0.6375790596
0.1674325941
1.454921065
0.6365644726
1.141592355
1.185503804
0.6138483528
1.073907662
0.593109163
0.6413397317
0.3420685406
0.8187960826
0.5608288896
0.8611336464
0.8804108001
0.7224898087
1.29563192
1.130387833
0.1291167695
0.4264391796
0.08486533231
0.812883614
0.1651852753
0.2323384275
0.5088209129
0.7196560479
0.7626655867
0.3880140671
0.2799171222
0.559333527
1.016133197
0.5213605794
0.6110203959
1.152275885
0.355456816
0.8089609822
0.7006795494
0.6621673372
0.4880466939
0.526683988
0.5087661273
0.8439375165
0.5089465329
0.462853643
0.6136433337
0.619021681
0.2937649203
0.1677234855
1.300825434
0.2315548273
0.7173986476
0.1903975905
1.202768641
0.4240951194
0.6440199436
0.3250613539
0.9238943844
0.8998866027
1.307645494
0.5457065605
0.3216323555
0.6026995226
0.4463242032
0.6854606972
1.272019489
0.6016778015
0.7248176666
0.6790003414
0.4279238311
0.4487575392
0.6763716226
0.5665640787
0.6822571646
1.060575052
0.4270092893
0.362651718
0.9072115788
1.256917231
0.184772081
0.4088282971
0.3870136838
0.2362848049
0.9821074666
0.2996541464
0.2069456194
0.7780048633
0.8187209339
0.5957721498
0.6436316516
0.9840416391
0.1999293519
0.8903016385
0.6575376803
0.7668749848
0.1710786421
0.4525504224
0.7645353399
0.4612584222
0.7541284267
0.9045059021
0.9208695169
0.4258135678
0.5434268451
0.8282419296
0.4388392778
0.3894251162
0.9305450423
0.5087892816
0.4575797325
0.2123252011
0.4277089699
0.4527010621
0.765667799
0.5551142049
0.8963591935
1.115438457
1.393572658
1.107994593
1.316718612
1.223341722
0.3641896312
0.4494609017
1.103102455
0.8607549512
0.3629762265
0.8280498379
0.3103529796
0.3932490751
0.9124617674
0.5423860357
1.171859142
0.5299321718
0.7114116175
0.5487471835
0.7597072494
0.1850504287
0.6570082868
0.6128968747
0.9491967592
0.5376651154
0.4199451399
0.465092406
0.8133995064
0.6386827766
0.7260978089
0.8681049636
0.9844312325
0.5258154593
0.8598047239
1.009442201
0.6151485688
0.4252581731
0.8825436091
0.6766920298
0.7936398321
0.4665882581
0.9197846382
0.2512358641
1.161329657
0.4272633963
0.3914042793
0.4535523005
0.633395948
0.7769681063
0.3735390641
0.8023742279
0.3473666718
0.1651771553
1.273158542
0.8782233947
0.9545793027
0.5535756578
0.5384003467
0.3650043843
0.5892930739
0.491093338
0.8337995066
1.846127956
0.5358559812
0.1821364085
0.3053244113
0.5788081347
0.4624914838
0.7785241864
0.8304190679
1.031412369
0.5462392906
1.378957496
0.8468691885
0.5691396117
0.9329602819
0.6647319174
0.2470926213
0.9277813552
0.6068935072
0.5930536841
0.753720013
0.3978323292
0.4193873491
0.7916030684
0.3688975352
0.617724535
0.4034484025
1.318109633
0.7258290488
0.3686663272
0.6785545424
0.3314426607
0.5168109558
0.2852228912
0.8236072317
0.6089185838
0.5894405357
0.2816660187
0.5186869675
0.1340483364
0.4676797342
0.5846418532
0.5069687467
0.8493490298
0.7641376154
0.32847569
0.6294537443
0.8310063692
0.2719903682
0.3870953423
0.6590365094
0.4596162104
0.6437035008
0.7369286597
0.3588925697
0.8985671754
0.9239682615
0.8507267468
0.3336379576
0.6834983516
0.3033448392
0.7900025128
1.03322208
0.3028781415
0.2593005449
0.8577688804
0.8169256751
0.4487936279
1.091851596
1.134893202
0.6918691001
0.6911676303
0.9857589468
0.9762552267
0.2853077532
1.33535823
0.3781390779
0.757887206
1.244532635
0.7130116148
0.496270519
0.603053967
0.6183082759
0.743166746
0.6752285114
0.6854574926
0.4172414045
0.4628441425
0.4703684903
0.7745290416
0.4049569287
0.2193628758
0.7780726678
0.209960878
0.7402364252
0.6945900087
0.5833431427
0.3459819533
0.6471479882
0.4395823258
0.4638591395
0.2659206245
0.8840605698
1.363966082
1.09595071
0.9834436774
1.398184801
0.6569022463
0.7274196806
0.4334601154
0.4563093554
0.5263817478
0.8604731247
0.711236252
0.6041422423
1.454681492
0.3821408643
0.3844242473
0.5617198714
0.6390306886
0.4669688578
0.4984381947
0.9140736125
1.172841414
0.5468279848
0.5425284162
0.4687547416
0.2473978165
0.78443867
0.8066046024
1.200301634
0.5160335487
0.6450690188
0.7815789074
1.867495666
0.3115866661
0.682166746
0.5689934869
0.2008110218
0.6806474212
1.023506843
0.1419646082
0.7146652331
0.7527889255
0.4606875876
0.536056443
0.5629362025
0.9689701768
0.4153679584
1.094888321
0.2844020073
1.199886313
0.3533118058
0.2525797601
0.6148196999
0.6949017876
0.7957888651
0.8362410408
0.2092715945
0.7405040034
0.3874566967
0.8283900638
0.8003959588
0.8801205152
0.3998580119
0.8311409405
0.5644577498
0.2615654805
0.4054597583
0.3194587072
0.6379490022
0.7680217974
0.5780775048
0.6497196265
0.6518537427
0.8012584786
0.552994965
0.488568796
0.4677428984
0.5770433425
0.2063989003
1.227096073
0.4069846083
0.248779286
1.012307525
0.5027726475
1.089574259
0.2904385943
0.4461605963
0.5854264188
0.2771311219
0.4858119792
1.108304422
0.1593890379
0.4142140604
0.5910971584
0.4121266485
0.3657593374
0.5657381458
0.5495201941
0.1107237116
0.3989119379
0.4946718647
0.6730896834
0.5018324494
0.4280028534
0.3941623899
0.7253354988
1.126643983
0.4594214901
0.2511292805
0.3956758589
0.6818324897
0.6984766352
0.8152582477
0.7735742396
0.2572641667
1.073240501
0.6300924143
0.2783919374
1.198887076
0.5606815192
0.4355532766
1.100707444
1.006968432
0.6546198187
0.373888883
0.7947612655
0.2482508437
0.4148348972
0.5012894365
0.6834586589
0.7676659771
0.6852987553
0.8403018493
0.1271545785
0.4558401732
0.4697349074
0.8643564252
0.05621821454
1.393713797
0.4232692451
0.9078773949
1.002628025
0.829157361
0.5116104806
1.139224248
0.5680454918
0.5076000799
0.9554838409
0.8282808915
0.5650211352
0.5189013177
0.7526308557
0.827519538
0.7355414616
0.3089505148
0.4959742278
0.8545883748
0.2643038306
0.4424407008
0.470413302
0.2799462691
0.6527920947
0.8314595303
0.4100525472
1.617568769
0.2905221452
0.9850878496
0.5890226459
0.01980942139
0.6844868484
1.02350226
0.01406974755
0.5702400335
0.7910621059
0.5622888747
0.4543387474
0.4844211232
1.185422861
0.3480842041
0.4928109973
0.3707609901
1.092042741
0.3680382598
0.5821031378
0.914780453
0.5208139537
0.2402651456
0.6847156048
0.642982927
0.5383533425
1.047917545
0.4570174924
0.7152788988
0.5248108283
1.001995748
0.932608769
0.1923612261
0.4961110782
0.7862440259
0.6361601096
0.6252573345
0.01827454099
0.8206780097
0.3244550748
0.5440359891
0.8993850799
0.19456461
0.6333582124
0.5623926642
0.3452613266
1.0991234
0.315297265
1.056038474
0.8469100268
0.488046216
0.5680654135
0.4185531124
0.6280613236
0.6337903061
0.5975405428
0.5515846703
0.902579409
0.7066656501
0.8958227003
0.6840099109
1.134855896
0.4442148153
0.3074604981
0.8581966083
0.5412786333
0.553653735
0.7410992361
0.4227782461
0.5067494216
0.5834155173
0.4836964841
1.116146465
0.8187355104
0.9957548176
0.7665380903