/*--------------------------------*- C++ -*----------------------------------*\
  =========                 |
  \\      /  F ield         | OpenFOAM: The Open Source CFD Toolbox
   \\    /   O peration     | Website:  https://openfoam.org
    \\  /    A nd           | Version:  7
     \\/     M anipulation  |
\*---------------------------------------------------------------------------*/
FoamFile
{
    version     2.0;
    format      ascii;
    class       volScalarField;
    location    "0.009";
    object      overallT;
}
// * * * * * * * * * * * * * * * * * * * * * * * * * * * * * * * * * * * * * //

dimensions      [1 2 -2 0 0 0 0];

internalField   nonuniform List<scalar> 
2400
(
294.9244815
301.9758815
309.1307353
307.3008837
315.6826263
313.2886165
312.1060532
311.0828508
314.6596962
318.0585753
318.6279492
330.5603447
323.6510485
328.6112213
338.9057363
337.6034701
336.1952071
337.1279934
356.3552611
381.645421
305.6381056
308.7310736
308.8051343
310.7978837
312.7860852
320.099801
321.8488877
320.8775918
321.7852579
330.5641658
331.5552403
333.3498898
334.387266
340.453218
352.9693207
358.414346
357.5852623
364.2161055
379.8955026
402.9552716
304.8175751
307.2415959
315.1433869
318.4012735
320.9497406
320.7948362
323.0647461
320.2478536
323.8057305
330.0726183
336.6297904
337.1980796
336.6708895
352.423481
360.799132
368.5115937
365.9171468
383.1494247
394.190346
414.1436997
300.7624731
309.689196
317.1100497
316.0048911
321.3368521
323.5384477
324.4641418
328.2594799
330.8347646
339.3278268
340.4574291
342.8939538
343.6406656
363.4503492
370.3005436
375.6034178
371.7229969
391.6009047
404.0247457
415.3509732
302.5322509
310.8747638
318.5384012
321.270202
321.4904846
316.0876837
321.7046099
327.3549945
332.8698066
337.4329539
336.0705034
350.1956921
352.9530126
356.2745397
368.4825292
374.1710855
383.3368283
398.6038176
405.7990207
429.9020114
305.6005362
311.2817274
311.5142518
313.7676919
317.9248103
320.8358104
323.1717073
330.7356986
334.7214396
336.5027802
340.2827196
356.5275211
355.7401506
359.0369633
364.565331
367.428083
380.9847122
396.6402751
411.5336286
423.400791
311.8429365
313.3338733
313.8897615
312.4410942
323.8281305
328.614357
327.3343174
333.0358437
328.7929328
347.4356624
346.9174383
345.6121561
352.5052585
360.6103435
365.6351097
376.2330301
387.8169319
395.2821767
403.5618963
427.0640952
304.2866364
312.7091913
317.9793339
319.3115449
318.9368512
325.5249804
334.5009272
337.6833792
340.5459109
349.9692344
353.2956948
352.4040976
359.6408976
366.9582949
376.0015413
372.681535
378.4724196
393.2430886
396.2434875
416.2642715
311.4677727
313.2588196
318.0119976
318.9031878
321.9769092
323.2165669
334.7833621
342.4078867
343.8245312
342.1258939
353.2464146
352.5636956
356.4523654
372.5708171
375.5087202
381.3745023
386.1093386
392.6366351
407.4490604
416.3608011
316.9569653
315.168804
315.2783014
326.3561948
326.6484701
330.1089525
333.9379935
337.2262986
337.5988312
337.585239
348.372368
352.3439348
359.5814889
374.5366004
380.5544733
379.8059547
386.9908634
396.6182938
402.803177
410.2647461
310.7095311
318.2100679
318.4035892
326.2891006
321.1296753
326.8042099
323.9426753
332.5877784
338.5426153
345.9143229
348.7332409
362.3676261
363.9389576
376.0722349
378.4464444
379.5807673
385.4680835
391.3468812
403.2995259
410.0719694
308.7210111
317.3658212
315.4130474
316.6814692
319.8107613
326.656508
329.6890708
337.9198894
343.4183221
348.5979984
345.8546415
357.8329984
365.7058901
371.0046025
378.330202
380.8253257
390.3676829
397.1690546
399.634585
412.7966714
306.0378452
311.6280924
314.94866
321.7271622
324.6822524
329.8499425
340.6502572
344.2330518
339.4466197
347.8300029
353.6324984
353.5862901
375.067041
377.1114881
380.2127223
386.2225991
400.4531525
402.2167355
406.2610676
409.4706119
302.956628
316.4224813
318.0290721
317.4403388
326.5995411
329.2172511
329.5436889
340.2638527
345.4822937
344.6983688
354.8906486
363.2617886
372.8052307
373.5321048
378.8151846
389.0630687
391.5173987
395.2402783
402.0532941
401.1984532
306.5139931
321.6308082
317.4632064
320.2094139
328.2542348
325.6873877
334.3409429
336.5845475
343.2214864
344.9356953
354.6822382
361.4049552
369.6469532
365.5878152
369.3518387
380.0701567
386.2090512
387.5953346
397.119799
404.6588194
311.135452
312.2286815
317.758042
327.3519069
324.4729904
328.0963899
330.1210809
337.6513067
341.9700249
345.2176275
350.9092711
357.754475
362.3525553
368.0375167
382.1794383
386.4254794
378.8629634
389.3036313
394.3289109
400.7099771
307.8881704
319.0407656
318.3097082
325.4096874
323.5954573
334.5187433
334.1372203
340.0548293
338.1209623
346.5082269
361.2984833
362.6120619
364.6740027
366.2829235
366.2114812
379.7153357
383.6004297
390.467891
396.706696
406.4234195
306.3929679
315.0089625
318.0411999
331.0765312
336.4003806
333.5661864
338.7659221
343.5254934
342.9837123
348.1687689
348.1128876
359.7128338
364.3081765
364.608354
368.7710607
372.6344385
383.0965337
383.8124322
387.4843424
391.7900834
309.5327606
315.6040605
320.8247136
324.3384915
321.2252455
329.8851581
334.9176758
339.400117
345.6990753
345.1421671
345.1001155
351.0533479
361.4940897
360.1659014
370.3606203
379.9603838
381.0050308
385.7765528
390.1852854
390.06122
306.735343
307.5152705
319.9086691
323.1239006
321.1733135
323.4670369
333.5726486
339.9788195
342.7266387
340.0329582
342.4981438
348.9196823
351.8567818
363.2001426
369.6584852
380.530424
375.6005728
376.5342766
379.8071774
387.0909312
307.1797442
309.8750469
316.4897334
319.4433183
332.2455524
329.9659958
328.363579
334.4831985
337.5282071
341.8051582
345.3490109
353.2447983
358.0903344
363.4594436
374.158501
373.464853
379.5761493
380.5730901
385.7489037
389.9341914
310.4236331
316.7766605
319.4835069
321.2547312
322.4137358
332.0458152
334.2031281
337.7652604
342.8639246
347.7108056
360.8918231
354.5843485
353.6434666
361.9749953
373.9851936
371.5402426
376.6884765
377.5271656
385.0266915
387.5725842
315.5711561
315.8921171
318.1360815
320.5515067
323.8838979
322.2790926
331.9108142
332.9249126
336.9786541
343.016406
349.4720536
351.1780716
352.5795627
361.4109544
365.4564482
376.8998824
372.8930804
372.3100665
386.9468923
390.8373466
313.7875832
318.9358032
313.7839151
323.8224942
324.7248765
326.6030486
328.7954998
325.469385
330.8611774
338.8849803
350.262007
343.4767632
346.9207742
366.8273727
359.7251234
368.9246931
376.6901713
371.3904096
377.5829704
389.4880954
311.4135443
312.3684581
312.3226401
316.3642902
321.7587757
320.5729248
327.2970099
327.1512848
328.8091059
338.4091693
341.9878736
340.5568912
345.9875534
357.2877507
362.3297129
366.94174
368.2570732
374.146869
386.2441851
384.9904873
311.9338439
309.163671
320.6716153
318.8371937
319.924317
326.4676987
329.1738533
335.6976374
331.7674939
340.0902069
338.2138212
346.5739147
345.487943
354.8014175
361.4250944
366.1119017
377.8464823
375.1701715
375.1555804
386.517743
309.6917982
312.818465
319.1802202
320.0793423
327.2671001
325.448639
323.6051227
333.0580261
333.995399
337.5086528
341.8129915
349.708652
357.1933459
355.3380217
360.5687186
367.9577299
366.995196
370.9909126
374.8554965
374.6963227
306.3805597
311.5316102
315.3742616
320.3456759
318.1165061
322.9491475
329.7259949
329.3893474
327.195353
337.6407918
340.0840741
345.7994133
357.3553705
350.1679639
355.3265885
359.5813631
372.7158836
367.5099487
371.4954031
372.5778861
305.4815412
307.9350973
312.1319184
312.5752567
318.9968391
324.8819763
325.9620185
326.6306234
331.7226178
328.5046043
340.7290833
345.2971534
357.5301503
349.5108823
350.9249964
358.7580388
358.4923437
365.2979009
365.7353622
373.7895403
304.1256079
313.2466661
311.9723276
314.9200017
318.555026
316.7918453
321.8939499
325.6075434
332.9092137
333.3229779
338.0085542
342.8146836
344.2564538
340.8966697
347.0283535
353.9717796
362.7021957
359.9677906
368.7250275
361.7973266
305.6861886
309.2038368
315.4612853
314.4141245
315.8759658
316.1317743
322.0643374
334.7214262
329.7789796
332.4469671
333.2082715
340.1242045
340.7425402
339.8793432
340.6577839
352.6178473
354.1190666
350.8065642
363.0941379
362.9981769
306.393498
307.3424248
312.6114162
312.45702
318.9145208
317.5640497
322.6932187
325.4380177
323.9478715
330.293128
336.2786623
343.7166759
343.696566
349.2732648
337.2980463
346.3409417
349.2517448
356.4014381
357.9044377
357.3898032
307.5819281
306.20811
309.7637841
312.8829962
316.6919268
314.1860433
312.4882563
320.3777195
324.5430127
334.8880419
335.8455964
335.9131549
342.8265894
339.0122841
340.6759702
341.6008244
346.5365311
350.169912
348.6675462
355.9424562
303.2124583
307.3881616
309.2631062
312.4689124
310.9842743
316.8949287
314.2496441
325.3652731
321.5174197
322.6853765
329.3815319
326.2972095
339.5321237
340.3159464
340.3506597
342.2437595
334.3022381
346.9701144
345.2633066
345.0245723
301.3080994
308.767626
312.8523011
313.1312845
312.0398818
314.1825296
321.705345
320.7685751
325.218747
328.4437442
332.8678981
336.0047734
337.2982004
332.0447162
342.6840359
344.2714103
348.7190665
353.0776753
352.0662619
352.9242151
298.9785118
308.385904
312.4749945
308.0141618
315.1936947
313.4612482
317.7527924
317.3319075
323.3683189
317.4281208
322.7807964
334.5718896
336.9360129
330.9829356
345.1142882
342.7266449
348.9657922
344.4069951
352.7796119
346.5273209
304.8531362
304.8751959
308.3047215
310.7135852
309.6258806
316.738287
314.2991457
321.5290503
321.4512344
324.0336269
324.0140918
334.6894855
336.2973039
328.6521283
334.5101872
336.4387081
344.7185226
339.6147094
342.8790194
342.0764151
298.3627556
302.4089935
310.7565018
310.0654428
311.2126596
316.1192609
318.6264084
321.1924417
321.9693016
323.2733453
318.9608594
333.2252681
325.7080827
328.7756733
336.1750962
325.9437725
337.7808097
336.7336625
338.6349718
340.0124796
305.1606861
304.4970093
302.2944512
307.5276304
309.1096617
312.2230289
316.553268
317.5178913
323.4982939
316.8009552
318.1973953
321.6294087
326.8959533
330.6507204
328.4011839
333.7272502
338.5080812
336.0273883
333.8310114
339.0708511
303.6713263
302.4602311
303.9156545
303.0060148
305.1076284
312.7155111
306.6308491
308.6907329
310.6271865
310.3118022
314.5957633
313.1502171
314.7566482
318.9729055
316.6489569
322.4060494
324.8430667
324.2443567
321.1157433
323.0203388
461.1082246
469.3448106
494.18855
510.5747902
510.3901664
513.7665252
531.6458639
530.6086387
534.4449998
525.9013905
532.4578578
546.0019379
555.3934249
538.3338627
556.3447431
546.5725629
543.1613603
540.3902382
542.3546736
555.3183348
561.0051471
557.9806755
561.2169414
558.1162581
564.5935509
561.3926213
555.0056726
562.09134
546.1462529
555.9417724
552.53925
543.8103202
537.1664837
528.5250222
535.5075587
524.4883205
521.1948169
515.5017003
492.4231539
460.788956
442.058749
466.5704752
485.6980759
497.1221507
494.9405762
511.1314341
532.273769
540.1519939
541.2199195
540.3918198
541.9680092
532.5263018
551.2290743
536.2162226
552.0612341
551.7328135
547.6248983
546.1730862
550.8237783
560.8413121
560.2843981
558.3725191
555.9211664
574.5973416
575.8976745
560.5369319
563.8508272
565.289939
561.0598875
556.8101769
544.9755297
540.1747794
540.2077382
544.8488764
530.2045134
520.5818932
526.9252855
508.6932076
487.4046956
445.7066589
440.3587846
451.468958
479.531698
497.662735
496.3546306
493.5846227
505.9826605
520.9059734
528.6011161
538.1318736
537.0200897
535.9743623
542.2230959
533.9530413
553.5000206
553.7045561
549.8458012
564.4064763
554.0463872
558.1053145
551.7125333
556.6715215
558.1067666
561.4790186
563.219882
558.4012238
567.7082215
561.3689311
551.577091
543.819576
552.7792818
554.962377
544.2919865
529.0648995
525.6078362
508.2749715
505.893088
503.7913597
469.3500542
442.7679906
435.327153
445.5017996
462.0431865
485.5068623
486.6335543
489.7382114
507.4271162
513.8168689
519.4947172
532.6443625
534.8538945
529.5838781
546.5950386
544.013096
546.4567332
552.4797561
549.4034024
557.6332623
561.661511
545.6958307
556.8243742
563.4164272
561.6222608
565.5872383
567.1066419
580.2391525
564.977919
569.0026195
552.8491399
545.8159211
537.5368754
546.3107416
537.1107916
531.764596
509.3169241
517.8311152
514.690186
496.2970518
469.7598338
438.7657914
434.4662231
441.1157569
455.6406406
466.4776865
484.4157077
491.9648425
496.2000623
499.245585
511.1048834
513.5484357
514.8538096
531.2194345
536.5532927
528.0334614
539.6265224
538.6318063
536.2473486
545.9682053
553.454474
545.4001423
560.0853236
565.4761759
564.3236706
564.6070846
562.68019
567.0920573
560.8173962
572.6209189
553.8829518
539.9781832
535.6819633
536.2589163
524.8810842
525.0086872
511.7598066
503.2465998
496.8138231
479.5509968
461.7288859
434.5588232
434.8369552
438.9483985
456.1946483
464.3859892
465.479049
475.3073039
484.9743683
494.3706448
494.128839
500.5251577
501.9623261
507.8771947
512.566944
527.0407215
529.1420717
532.9919236
527.6279301
540.6607656
542.2087522
548.1742673
551.2868389
544.7392061
548.0899186
551.7061363
548.5758214
552.2687428
553.0688259
559.3256895
549.1750174
540.4474995
535.8405113
516.1691277
522.8158763
529.6727963
509.0819829
497.8908506
483.4239548
474.9169506
457.5074137
433.2877853
427.3706508
440.5986508
441.7818552
465.8295771
470.2265592
484.8028904
482.3386852
476.1269675
499.284048
508.5750894
497.3831116
509.4448413
508.616635
515.1654803
520.3405124
522.2881866
533.4973874
535.2475215
531.9412425
536.9137482
546.1265564
544.4736657
547.6499823
535.9374073
548.2311594
547.9887262
542.586739
548.4255477
561.0535762
528.8884696
538.3710646
528.2589852
529.3369331
511.2142459
510.3163489
494.3403433
493.0969675
478.8750089
462.418119
435.3823054
430.073433
433.2044426
437.8193728
448.6213122
458.6401672
470.3240592
485.6475287
476.8164995
487.2971598
488.3377008
493.3566371
503.8487791
504.76143
508.3415869
517.4537401
509.7232865
515.6859629
526.4398291
529.6751149
544.5298828
539.2412727
537.5431345
537.0514724
533.7109154
544.0742146
542.8273818
535.3397543
542.5069126
544.4521771
518.2553868
524.7556693
535.2314858
526.2968094
506.868254
494.0349927
489.9781739
485.6145734
469.3726325
454.2220911
440.0708579
412.8022175
423.1213981
427.0121004
449.7069803
460.4606826
467.0019054
483.5426994
471.5959341
484.3018694
487.6807978
486.6121296
496.922224
505.7115203
501.5286431
502.5669443
504.5314099
527.9556189
518.6651957
520.385634
523.824832
538.7631114
520.7812647
542.0223769
526.8462233
530.9518409
530.0071403
535.9197489
539.4282353
534.5895862
524.405826
513.858905
499.8173229
513.2901736
511.8614272
508.416514
489.867584
479.0707294
464.6133792
452.6984588
422.6351046
407.3965593
427.7881948
440.4063027
442.9668401
459.5409958
457.6755137
472.68521
479.1925451
482.9824726
489.6812394
492.4434332
486.2592481
493.6198121
494.3592501
508.4406749
509.1174593
519.2098975
514.9136039
504.4263967
517.0227403
515.084959
522.7337833
526.4013451
530.0698465
530.4768815
526.2706362
522.1341398
529.8953246
520.0349536
511.2681743
512.8024322
503.0474889
514.4864645
505.5737749
501.8032894
488.8984904
471.1649531
464.8182794
445.374743
429.0438643
414.2649385
431.4343754
437.4693545
442.6847867
447.8508149
452.5298563
469.2457962
471.6018913
475.0701934
476.7537862
476.5137949
482.2810687
487.9658733
490.0856985
496.6667184
511.8909923
515.5183963
511.5811824
509.9743002
515.0852181
518.3411923
522.3046191
523.6949771
520.9644587
520.8341465
523.8461055
516.4436752
523.2696468
520.3569122
520.1429401
504.1831501
511.8904707
496.4926024
497.7448921
486.0129294
485.9300465
475.1236437
454.2042087
449.7609952
429.4580269
413.5526927
421.8603498
432.4008037
449.3966882
450.0957766
446.7946376
457.4875473
461.2579394
459.9316401
470.1907366
462.5271594
468.1017866
477.7757182
481.0469724
485.8148847
494.9744051
508.3014551
494.6662691
497.5983898
515.1843222
504.1016156
497.6926803
505.9051258
506.0743184
502.7924207
509.1335964
516.3234614
510.3223807
507.4208719
494.831979
498.0963761
490.6211241
485.4725821
486.8592752
480.9283065
477.1489255
465.3912048
450.5729345
452.1624039
436.234161
424.38149
421.082075
429.3898364
434.860874
445.6351053
441.6797251
446.7100769
453.2893493
463.0857596
467.4144138
458.5686245
464.9938633
473.9782717
481.7780015
488.400497
491.0547104
493.6373637
492.7900062
489.8527394
490.52002
493.2382171
494.8811366
497.4245043
508.1137441
505.2770049
493.9853202
492.7941553
499.2545042
496.799735
489.1547852
497.9565645
493.0502646
484.9680543
481.2610787
470.3913154
464.0441317
455.3258287
457.3272707
437.4614672
421.392121
414.4144335
417.6566916
421.087248
433.2099386
434.1267507
438.0028098
444.1574145
448.7833022
451.0715601
462.1978304
457.4962436
466.8411316
476.9863245
467.9977145
475.4164619
474.9752277
488.9900593
489.81177
480.1429517
491.4894521
494.8010083
495.7536888
490.4904817
492.4207431
486.9486695
486.2387931
506.5468935
498.4850384
487.9070887
493.6580439
499.9907707
485.8312623
474.6368117
472.306525
467.8292907
463.2265385
439.9283709
440.4031903
429.0456367
417.475094
417.1112146
407.0378676
420.2825468
427.8886452
429.2822069
437.7076113
441.4097988
448.8797778
450.888096
468.9190779
465.6973532
469.0103426
472.6887817
468.0541814
469.7303415
469.6110163
474.3348225
481.828315
479.9943634
474.4815709
479.7010735
489.3390756
475.6894529
482.1057436
485.5183831
486.6411933
489.1035084
475.4250903
477.2762546
465.6722419
475.3674827
472.2456048
473.0998367
463.3144691
458.5410995
446.663799
439.8884647
434.1014744
422.531873
405.909318
411.4724897
422.8073814
435.7577441
427.7478056
426.4905082
441.342111
441.998473
439.5010888
443.2423169
455.9688745
452.7622162
469.3154467
465.0017323
456.2878293
461.2702297
466.4090019
476.8503868
483.5650128
473.8509698
471.2561843
468.434639
472.8497983
486.6033444
479.0722576
479.3174121
478.0246291
468.6394465
478.6187548
464.8066783
472.8361679
474.6514453
474.4332165
461.3054528
445.600032
452.6796789
453.5698333
442.4946118
430.4421521
419.9723238
410.1907882
411.0259089
413.848596
408.5925966
422.7128629
430.228254
431.1388477
433.2955871
434.4612845
438.5414822
448.3243911
457.4165655
451.7581971
465.1557252
459.7657405
457.8750715
464.7035862
468.1907576
476.5347192
473.0430881
465.2999275
465.2067429
471.5689592
479.4002213
468.0725671
469.6934313
470.7385935
469.1096788
472.2859128
466.6631986
468.648063
465.7989618
465.3738878
453.0556718
450.0643623
447.6312035
439.789082
429.403687
421.5305945
416.7142301
394.2190311
403.3138806
414.6782072
418.1742264
416.6379269
425.3082781
430.9049027
427.7965748
432.8776163
440.0331842
442.5944221
449.0343865
454.6265919
458.3758401
460.3441056
456.4487858
459.1310587
465.1979906
458.2118672
458.8991143
463.7175634
465.5449843
466.3355575
464.7993565
461.3779341
469.7984435
456.2765822
455.1910498
456.4041473
448.9052136
447.0535735
452.6900027
458.463096
446.477183
446.664646
437.7636733
434.3323663
419.7567785
421.8745695
418.0161128
397.9195297
397.3778216
400.6515716
411.0032508
415.7891445
421.7104129
424.950749
421.3219651
421.6043549
430.0611096
443.156043
446.4064335
441.3960881
444.615371
445.7686076
453.8434567
450.9664431
439.6038888
454.8098199
457.6187083
452.9431692
459.5261934
462.5294559
468.7580236
455.0014899
457.2719573
454.4762234
456.0911966
443.5735612
450.2814619
443.9516666
456.633208
444.6223685
445.6945191
440.6919951
434.3077175
426.208542
425.7411528
424.5723188
407.9772667
399.0136818
395.0019322
398.0774306
404.3522007
403.0198291
402.4151867
415.2382057
423.1589369
422.392257
422.5023355
440.5542592
437.6082325
440.0573816
437.2795637
445.1858774
451.1986822
447.2190543
440.7233043
453.7025768
461.6740443
453.6311856
455.3971919
448.8622932
457.2394713
449.9560807
454.2811411
458.1704784
451.8305391
443.4430142
443.5918762
440.9677359
442.750929
437.2568274
431.9078243
435.1029258
431.9695055
420.2495477
412.5147898
412.9809197
406.9653002
406.3640186
396.2248975
393.9104547
397.2410713
405.0626718
405.348068
411.4667828
414.2996744
412.085999
428.6315159
423.7071311
433.9606894
429.4614984
432.4281383
438.2246083
440.4838133
440.372922
445.8952235
439.7320803
452.4427891
442.1407561
441.0440848
456.1901409
458.8463832
452.1380277
459.3949514
446.857446
453.875484
449.7475971
443.2133438
433.7530467
434.1060489
436.6069742
433.835085
436.2457044
422.2280205
415.5224034
414.4939802
406.9744471
409.149162
398.2707535
387.0550704
395.6718291
404.9579086
402.5473866
410.3010881
408.2542871
410.9273693
417.2028917
424.4365715
431.3914323
434.2859132
434.0918841
437.0018671
439.1561992
436.5953915
443.1283941
444.2310672
437.8514466
446.3112873
447.1005034
449.3880065
456.6661804
461.5499541
443.3262332
441.644819
445.4359158
442.6103175
439.2395007
438.7745589
430.6465822
435.5639164
436.5151324
428.4828508
422.8923776
413.1699118
420.5606321
410.9117848
394.610499
398.1179401
386.6075621
376.7315448
386.6391657
399.1569426
402.1737886
404.1885359
411.0655726
404.2444021
412.5073519
423.5103998
427.2855997
427.6675598
428.0779769
433.0310897
430.7215092
425.5641448
432.029232
430.1833888
435.1679119
435.3238748
435.8685717
435.8779095
453.9314314
444.3979033
446.4596933
435.4516975
439.6903113
436.4203323
440.2275919
435.7416623
419.7345391
424.9299724
421.2257378
424.3321303
416.6704586
419.6863036
409.3472774
413.3312226
403.3677094
399.7123867
403.0686688
387.8385688
390.1559488
396.6221723
397.1749792
406.215179
400.7082354
401.9935606
409.0857415
408.172121
412.1585752
414.7584579
424.0555048
423.6841653
419.8664864
419.4331454
423.3690992
425.5086495
426.9184934
427.1299617
442.6105364
429.5276036
446.9204092
427.3488891
433.7907161
439.9126733
427.9803621
436.5135797
425.6091052
431.08415
427.0592612
436.0237239
436.8980856
434.9689991
422.619864
412.9990009
409.1948756
417.5215075
408.1102138
406.8918427
402.5891133
380.5984073
388.5967391
388.7612105
387.3922098
392.7494591
393.2928454
399.2456914
400.467942
406.179399
413.6875119
417.2152117
414.3601326
420.8598717
419.0840596
415.4989978
419.9796037
424.6683699
423.5278
426.4757716
426.1300124
429.7556357
426.6455328
426.65825
431.7616217
429.1995872
425.8645807
436.0146358
434.9523933
430.7612135
426.3267793
424.3681728
420.5358416
423.2028037
420.0211802
418.1434557
401.271169
398.3991685
393.8976764
397.3277075
391.4292293
387.7685839
381.5574966
384.4255348
387.211001
391.995251
392.20798
397.8088624
404.3974127
399.4963429
397.9339611
407.9268639
400.9592116
408.5410428
410.126628
404.8202193
420.5810558
414.7242165
423.1157598
423.741764
425.406333
432.1367542
420.9811159
426.2819627
435.1672053
421.385617
429.5902281
432.1743099
427.1894876
424.6201809
415.5664716
415.397652
421.6771653
424.1797114
415.1979599
396.7806255
400.6004808
400.0074441
389.2101561
393.1550378
383.8061483
378.7241864
387.4782585
382.3805094
388.8628348
383.5264366
393.0682718
388.9528589
388.8670025
395.7556757
400.0191597
403.6175496
401.7090891
402.5787792
408.3089806
415.5567717
411.4778179
411.7087243
415.4898412
411.4514839
410.5770267
410.7747135
410.2334785
413.2323145
420.3345131
420.5457591
430.8444201
424.556016
430.246553
421.0274317
420.068942
423.6869448
418.3564751
415.7749885
407.5908555
401.3795938
390.7957903
392.7506445
385.855803
384.5499953
375.0452768
380.6393134
382.267104
380.2997487
383.2420991
383.9646639
381.7009362
378.4975213
388.8936805
390.7522599
402.9876009
409.0921555
404.3023438
406.146945
413.1333187
400.2944369
408.4288893
409.120446
410.0965556
410.2217488
405.3049372
409.9387291
414.1586182
420.6601921
413.0446473
411.3903401
417.6048222
423.7798842
422.3096925
419.7610764
414.1179253
412.2440766
411.1421299
413.3569584
401.7600906
402.3446943
392.7589198
375.9295892
383.8431813
387.1028794
382.282888
373.4557461
377.8588813
375.7324217
381.6350259
381.6828122
383.3545472
385.923516
391.4521459
399.0854103
384.9992151
405.8117647
408.4457969
406.1484866
396.4898749
410.5686431
407.0147661
404.3835479
401.8400046
407.9791908
410.9020859
411.746942
410.9842011
411.805587
409.4944247
416.0508068
421.2937862
412.5562524
412.2059571
415.8904368
410.4581903
415.5312543
417.3484707
405.0443448
405.1432143
405.4905469
394.8511396
383.3159074
390.0419277
385.3775392
389.1026032
372.9161601
368.0369073
377.5643334
377.6565117
381.2891606
381.541318
384.4346059
389.7911107
389.8285316
388.5825734
398.8413555
399.8425424
401.6321419
396.3765419
402.6670258
400.6591107
401.6152483
396.7386107
404.2495789
404.3659792
400.1348906
405.2844764
405.3346654
399.400508
412.9800602
400.9922558
403.3616995
408.8387862
407.9888227
408.6426798
403.0601023
392.9951127
384.3619748
395.999976
403.794001
401.2674322
391.7134371
381.7215038
382.4941409
380.8130139
363.6622713
375.0995504
373.6413469
367.7417411
377.3018048
380.9756881
382.8386303
377.7231092
381.758123
387.2867207
390.7599239
391.1244426
387.1486318
396.0159902
401.2000316
392.1448378
391.55506
390.8385515
392.8658644
401.7180288
403.3773668
403.1098508
401.2780872
402.6768499
407.0916096
407.132804
401.1881081
399.4507306
405.6020557
408.181839
402.9958125
395.3814226
393.4408395
397.8437605
397.2684364
394.9947456
384.1040842
385.6479955
381.7899861
383.2906792
364.1582329
369.1153962
362.9542468
362.7402436
371.4377859
371.8054612
378.2152659
381.5488402
378.2225963
381.4515262
383.3622473
381.0627662
380.4691476
382.4764562
389.6598336
391.7884235
396.7180483
394.4787538
388.4887145
401.0987371
392.4395007
396.496297
397.5720623
399.8420322
397.944538
391.4905082
390.629464
392.9935709
392.6846682
393.2449057
392.3263901
384.8870311
387.5839859
392.1440687
396.0918723
395.0217096
389.9362858
384.754552
382.0590113
378.4341541
357.94612
361.1977981
357.5776381
369.1602714
371.724705
370.9461721
377.5581505
376.8951133
379.3617274
376.545243
381.3997735
374.3001025
382.506438
380.8130089
392.8188047
392.0689421
397.5757726
393.6169781
394.8604405
395.3347549
384.2774429
389.1986134
391.954797
394.9411601
394.8396801
390.3586613
390.0500231
390.8826882
388.7060191
388.3748232
388.6265893
384.703243
380.3855173
385.8071681
390.1082647
379.4147994
384.4106733
377.0901256
372.3596436
375.6492493
355.2137679
361.9997849
364.6558581
367.051743
364.223713
370.2046594
371.7724597
377.3692998
370.3263968
372.6363976
369.1642431
365.3609351
378.7433085
380.4989099
382.1697689
380.4437091
387.5196546
383.5768199
380.6617555
383.8744223
379.3145612
390.4829246
390.8314356
392.1825297
385.9887446
387.77993
381.9151052
390.1641664
390.9197896
380.0794304
384.8582826
385.9861739
385.9159864
384.1515888
373.4583843
373.8396581
374.0952384
374.9139173
367.2286778
361.764195
358.0457577
361.789903
364.3095009
364.4471564
366.9619721
362.9941306
364.0943162
366.6031993
366.3245252
367.2282148
369.3927082
360.6707839
371.6199836
379.3926744
374.2556756
372.5525978
383.7748983
377.5112589
378.6918358
383.9300075
382.6215595
384.6322432
387.1439432
376.337064
388.0276233
380.3165071
385.743844
385.2312352
380.3926862
369.9512501
376.3584069
375.4668165
381.1145388
373.3246674
368.5850616
369.7758051
372.9408584
368.1107986
374.1047768
360.2998819
349.20373
352.7076946
349.9655998
353.5810711
360.8291374
359.8273192
358.5617991
358.0654004
358.1751753
369.8879423
368.5106604
368.604987
369.5611993
372.2272052
367.5715754
369.4597708
375.4890497
370.3296735
373.0136899
373.372118
369.7819689
378.3272867
379.9452634
374.8196115
379.9433328
371.8272136
367.4469988
378.5218784
376.2746279
375.3455079
365.88319
365.1539864
366.0856863
363.5286264
370.9673289
374.0633797
369.6084154
368.6895833
367.2736121
355.5118651
343.9415915
348.0483261
345.2514257
355.0316258
357.2800382
358.0730709
348.7379028
353.0880826
358.627707
364.2382695
357.4742653
361.6312187
366.1200705
355.1168318
365.5946593
370.6690019
365.3329289
365.9531734
368.1350843
368.9682588
368.9111262
363.1783197
370.3074817
371.2246672
367.4004793
369.7684869
363.2898147
373.6275042
363.4830119
362.823143
361.4270949
373.0931284
369.6180346
365.2085625
369.3159536
362.7700281
361.3205905
364.4028307
360.6931095
356.3179946
337.6991026
336.3747256
339.4968126
344.0689045
346.2521197
342.7175336
336.8875479
340.4020997
344.4632125
350.9189382
342.6733519
344.6314394
350.674049
355.5833209
352.9487852
355.7712442
360.5001252
352.3674725
353.3078641
357.5132154
350.4388638
352.5135203
363.1009697
354.9974642
356.5176004
354.8191288
353.2019965
359.9768001
359.8522089
354.6685244
356.3811127
361.0250635
361.224184
357.599605
357.1084566
355.0281704
357.4932338
353.5183659
352.5996863
355.6810221
334.5933028
340.9942539
338.0714673
342.5999042
333.2674565
339.0116233
337.0828115
338.1137942
335.2844755
337.475159
338.5293424
340.8265327
346.3417267
351.6589953
344.3235712
353.0627543
350.2349729
343.5886424
343.8538546
341.0609919
344.0469324
341.187928
347.9843809
347.6644437
350.1757393
350.5481772
347.4192201
348.9301249
354.4899033
345.6323373
345.4400104
340.7237136
344.6941194
345.3221736
344.183751
350.9171983
348.6574465
350.1374799
348.0775694
336.4065813
318.3640143
317.3737532
328.0479336
326.9309759
319.1358393
320.7404659
324.5442448
322.4534006
327.5774475
329.7323792
323.3546532
328.5548554
336.0275136
337.9593467
332.9481961
332.8734395
333.7122979
335.9060773
331.1866286
329.1682833
329.0166511
329.1077353
333.4344613
336.5528948
333.7755094
328.8602189
329.8869913
335.050413
330.6100068
333.702794
335.2667483
327.6460104
334.8502617
328.7215703
333.315502
332.8197449
330.1741894
326.2491081
328.1693213
330.9024397
)
;

boundaryField
{
    flow
    {
        type            calculated;
        value           nonuniform List<scalar> 
160
(
294.9244815
305.6381056
304.8175751
300.7624731
302.5322509
305.6005362
311.8429365
304.2866364
311.4677727
316.9569653
310.7095311
308.7210111
306.0378452
302.956628
306.5139931
311.135452
307.8881704
306.3929679
309.5327606
306.735343
307.1797442
310.4236331
315.5711561
313.7875832
311.4135443
311.9338439
309.6917982
306.3805597
305.4815412
304.1256079
305.6861886
306.393498
307.5819281
303.2124583
301.3080994
298.9785118
304.8531362
298.3627556
305.1606861
303.6713263
460.788956
445.7066589
442.7679906
438.7657914
434.5588232
433.2877853
435.3823054
440.0708579
422.6351046
429.0438643
429.4580269
436.234161