/*--------------------------------*- C++ -*----------------------------------*\
  =========                 |
  \\      /  F ield         | OpenFOAM: The Open Source CFD Toolbox
   \\    /   O peration     | Website:  https://openfoam.org
    \\  /    A nd           | Version:  7
     \\/     M anipulation  |
\*---------------------------------------------------------------------------*/
FoamFile
{
    version     2.0;
    format      ascii;
    class       volScalarField;
    location    "0.009";
    object      qMean;
}
// * * * * * * * * * * * * * * * * * * * * * * * * * * * * * * * * * * * * * //

dimensions      [1 0 -3 0 0 0 0];

internalField   uniform 0;

boundaryField
{
    flow
    {
        type            calculated;
        value           uniform 0;
    }
    obstacle
    {
        type            calculated;
        value           nonuniform List<scalar> 
40
(
-44.16496499
-31.94694749
-37.76403365
-19.79477713
-14.85248338
-17.57524064
-23.13098233
-19.4395962
-10.71944927
-4.049712868
-5.123360398
-5.271037232
-14.25649541
1.173071124
-5.276759733
-0.2790477124
9.920460057
4.583689806
0.5084293258
-6.673771046
0.8623080151
3.820893026
9.91325591
-0.410594416
-1.441519464
-8.245692407
5.49607197
2.919739194
10.57821813
-3.581337125
11.30956137
5.071642327
-1.84863864
-4.583107915
-18.98804638
1.789451847
-6.84089175
-17.76881212
-24.12262664
-30.24482746
)
;
    }
    frontAndBack
    {
        type            empty;
    }
}


// ************************************************************************* //
