/*--------------------------------*- C++ -*----------------------------------*\
  =========                 |
  \\      /  F ield         | OpenFOAM: The Open Source CFD Toolbox
   \\    /   O peration     | Website:  https://openfoam.org
    \\  /    A nd           | Version:  7
     \\/     M anipulation  |
\*---------------------------------------------------------------------------*/
FoamFile
{
    version     2.0;
    format      ascii;
    class       volScalarField;
    location    "0.009";
    object      rhoMMean;
}
// * * * * * * * * * * * * * * * * * * * * * * * * * * * * * * * * * * * * * //

dimensions      [1 -3 0 0 0 0 0];

internalField   nonuniform List<scalar> 
2400
(
3.659763436e-06
4.726189192e-06
4.743136562e-06
4.713178359e-06
4.741875867e-06
4.721681504e-06
4.717865445e-06
4.718284643e-06
4.709352904e-06
4.729948923e-06
4.734405466e-06
4.725456555e-06
4.739693e-06
4.730617455e-06
4.740875984e-06
4.730177244e-06
4.734808603e-06
4.842186042e-06
5.13235164e-06
6.446033158e-06
3.712333853e-06
4.776056969e-06
4.808433024e-06
4.801051953e-06
4.823474031e-06
4.822118082e-06
4.808727949e-06
4.804900272e-06
4.818625227e-06
4.792206951e-06
4.791192859e-06
4.778529067e-06
4.767661435e-06
4.761453581e-06
4.751018616e-06
4.80815541e-06
4.847169765e-06
4.933908325e-06
5.281641163e-06
6.183894914e-06
3.715586909e-06
4.758820136e-06
4.782505131e-06
4.778399841e-06
4.779188944e-06
4.780295697e-06
4.789064608e-06
4.775201771e-06
4.759296541e-06
4.771872115e-06
4.774274277e-06
4.770997756e-06
4.785583972e-06
4.796679925e-06
4.813602579e-06
4.837736302e-06
4.852646463e-06
4.962285359e-06
5.187576517e-06
5.73038682e-06
3.746520649e-06
4.787414845e-06
4.825318373e-06
4.819768916e-06
4.809233514e-06
4.794865112e-06
4.784156976e-06
4.801789541e-06
4.807486276e-06
4.806589932e-06
4.784834905e-06
4.776310746e-06
4.789562258e-06
4.763766183e-06
4.763797564e-06
4.800286825e-06
4.859959959e-06
4.956459028e-06
5.120556052e-06
5.455486106e-06
3.719414585e-06
4.787689127e-06
4.798402446e-06
4.794313957e-06
4.799561455e-06
4.797961865e-06
4.794909591e-06
4.791297878e-06
4.796221801e-06
4.79125562e-06
4.803951534e-06
4.849551562e-06
4.859877064e-06
4.85902506e-06
4.83036981e-06
4.845599843e-06
4.865285678e-06
4.933364853e-06
5.059949869e-06
5.236712398e-06
3.722943635e-06
4.784383076e-06
4.832554528e-06
4.789633305e-06
4.789296261e-06
4.808722024e-06
4.794507565e-06
4.783719496e-06
4.773663462e-06
4.795156565e-06
4.801553445e-06
4.82424226e-06
4.830697828e-06
4.851679072e-06
4.874214316e-06
4.886203651e-06
4.888649552e-06
4.919676694e-06
5.005650358e-06
5.124424227e-06
3.725460952e-06
4.763387252e-06
4.824198151e-06
4.820987724e-06
4.831836333e-06
4.797718964e-06
4.834900223e-06
4.88423934e-06
4.877354067e-06
4.836758034e-06
4.827628615e-06
4.784878875e-06
4.810427235e-06
4.794451098e-06
4.798912825e-06
4.798680431e-06
4.829814814e-06
4.871285946e-06
4.912371112e-06
5.018775605e-06
3.710534731e-06
4.791733877e-06
4.785059014e-06
4.773022607e-06
4.797692906e-06
4.783400735e-06
4.772342967e-06
4.750380493e-06
4.770242255e-06
4.816602968e-06
4.818213435e-06
4.821783631e-06
4.828298258e-06
4.802566055e-06
4.840578676e-06
4.859255973e-06
4.835594953e-06
4.839730884e-06
4.873514912e-06
4.937355358e-06
3.732822631e-06
4.809258091e-06
4.811668908e-06
4.804396188e-06
4.801383072e-06
4.849278021e-06
4.860684079e-06
4.844072271e-06
4.85083128e-06
4.825083757e-06
4.817658207e-06
4.811605776e-06
4.811405503e-06
4.782024143e-06
4.780068117e-06
4.762638046e-06
4.809194959e-06
4.858073359e-06
4.885023259e-06
4.941361184e-06
3.726717945e-06
4.79505946e-06
4.830812984e-06
4.84681754e-06
4.815388233e-06
4.7705961e-06
4.764497709e-06
4.765633251e-06
4.754397936e-06
4.750613998e-06
4.743203026e-06
4.782451626e-06
4.781541443e-06
4.794744773e-06
4.795065015e-06
4.811157419e-06
4.820920889e-06
4.81727187e-06
4.847050304e-06
4.872810555e-06
3.720556052e-06
4.755424385e-06
4.758251809e-06
4.767242607e-06
4.77418842e-06
4.807217688e-06
4.780854027e-06
4.778350177e-06
4.753475163e-06
4.770187778e-06
4.782085563e-06
4.764915935e-06
4.782608669e-06
4.799407652e-06
4.831467909e-06
4.790780326e-06
4.82561427e-06
4.852014125e-06
4.851195863e-06
4.888552679e-06
3.720622146e-06
4.799559604e-06
4.820351452e-06
4.817166851e-06
4.820209127e-06
4.799845503e-06
4.784028491e-06
4.808637879e-06
4.8144332e-06
4.821688007e-06
4.816776812e-06
4.821264736e-06
4.830092937e-06
4.837118313e-06
4.833030564e-06
4.836749888e-06
4.806959467e-06
4.804790439e-06
4.800597671e-06
4.838522814e-06
3.702891736e-06
4.77151679e-06
4.788973798e-06
4.750745955e-06
4.781659931e-06
4.786895951e-06
4.816150908e-06
4.853223815e-06
4.864969879e-06
4.851641767e-06
4.844409685e-06
4.820905569e-06
4.818334144e-06
4.808928592e-06
4.778875135e-06
4.79508899e-06
4.816916545e-06
4.804946973e-06
4.82766754e-06
4.8325717e-06
3.738249898e-06
4.78288022e-06
4.814561685e-06
4.840998614e-06
4.832005965e-06
4.814667815e-06
4.796650395e-06
4.763113341e-06
4.75939883e-06
4.780505968e-06
4.777337057e-06
4.773053479e-06
4.759983588e-06
4.75859959e-06
4.769726184e-06
4.786375667e-06
4.785358983e-06
4.793100703e-06
4.834692545e-06
4.827460972e-06
3.708869417e-06
4.78644227e-06
4.786102635e-06
4.763632004e-06
4.769905952e-06
4.75384678e-06
4.765096675e-06
4.767511196e-06
4.748495744e-06
4.72730187e-06
4.734249163e-06
4.789256596e-06
4.7996157e-06
4.811826183e-06
4.829916871e-06
4.822349366e-06
4.833586532e-06
4.811110347e-06
4.805442402e-06
4.826231519e-06
3.707431915e-06
4.78484231e-06
4.802736058e-06
4.80874438e-06
4.778908368e-06
4.811788137e-06
4.84585126e-06
4.847260714e-06
4.84781335e-06
4.845237112e-06
4.854022314e-06
4.82735188e-06
4.821145137e-06
4.837251751e-06
4.80074754e-06
4.794537094e-06
4.776938502e-06
4.795893413e-06
4.825300831e-06
4.787808356e-06
3.699684271e-06
4.739887209e-06
4.76747278e-06
4.753547181e-06
4.786284996e-06
4.795860551e-06
4.786176644e-06
4.791759334e-06
4.838495506e-06
4.809517793e-06
4.761069096e-06
4.75688091e-06
4.758156926e-06
4.768788692e-06
4.757151721e-06
4.796563288e-06
4.813566986e-06
4.804667369e-06
4.806483292e-06
4.812163596e-06
3.751650908e-06
4.76502947e-06
4.787179859e-06
4.810742664e-06
4.789393736e-06
4.778162494e-06
4.753704826e-06
4.73432058e-06
4.685544607e-06
4.735242011e-06
4.74690518e-06
4.796678073e-06
4.787194809e-06
4.789776e-06
4.805211118e-06
4.789362356e-06
4.769515913e-06
4.807863726e-06
4.802657606e-06
4.833243565e-06
3.697421841e-06
4.779530801e-06
4.792780461e-06
4.797118516e-06
4.769859622e-06
4.766342051e-06
4.746570358e-06
4.78105467e-06
4.768162556e-06
4.779475583e-06
4.785059384e-06
4.778928872e-06
4.763141389e-06
4.774607248e-06
4.776756512e-06
4.791111815e-06
4.800060355e-06
4.763890596e-06
4.744842653e-06
4.731855656e-06
3.751433093e-06
4.8321357e-06
4.868685871e-06
4.836619181e-06
4.838061867e-06
4.850388616e-06
4.844911547e-06
4.860164675e-06
4.842657264e-06
4.855909516e-06
4.825873231e-06
4.816371684e-06
4.80098771e-06
4.78386071e-06
4.801035892e-06
4.779528949e-06
4.768338484e-06
4.76582797e-06
4.784772745e-06
4.769371228e-06
3.707508886e-06
4.723979758e-06
4.754109815e-06
4.768221477e-06
4.775343216e-06
4.793308752e-06
4.77198454e-06
4.792361633e-06
4.800835989e-06
4.779435918e-06
4.81766339e-06
4.816294343e-06
4.806484912e-06
4.830034248e-06
4.81733241e-06
4.789343333e-06
4.815167456e-06
4.810879805e-06
4.807544224e-06
4.802440902e-06
3.713102082e-06
4.779479286e-06
4.799825739e-06
4.792092304e-06
4.782640421e-06
4.790663828e-06
4.793299125e-06
4.785877276e-06
4.777637536e-06
4.772069055e-06
4.765724431e-06
4.770809841e-06
4.793606638e-06
4.798158805e-06
4.830654089e-06
4.82836213e-06
4.864425389e-06
4.84281713e-06
4.819000687e-06
4.808599324e-06
3.728623568e-06
4.766463131e-06
4.802771142e-06
4.789676905e-06
4.787122281e-06
4.783170563e-06
4.796391064e-06
4.822178252e-06
4.853010444e-06
4.834984369e-06
4.858917819e-06
4.867525984e-06
4.832419609e-06
4.807681735e-06
4.811157789e-06
4.765907162e-06
4.764216021e-06
4.779403426e-06
4.803275226e-06
4.815265301e-06
3.724016045e-06
4.792546586e-06
4.808957381e-06
4.823438207e-06
4.866187576e-06
4.882145802e-06
4.868400343e-06
4.825701007e-06
4.803215796e-06
4.815431601e-06
4.82609859e-06
4.806809968e-06
4.798326216e-06
4.811300854e-06
4.796604805e-06
4.812129253e-06
4.808454408e-06
4.814416398e-06
4.800937676e-06
4.749579772e-06
3.720451033e-06
4.796269243e-06
4.831542288e-06
4.801785839e-06
4.776915638e-06
4.802024666e-06
4.763427288e-06
4.794277392e-06
4.773711274e-06
4.793559567e-06
4.795172626e-06
4.806803303e-06
4.79587402e-06
4.811889824e-06
4.816829437e-06
4.802546292e-06
4.773988517e-06
4.783163898e-06
4.800870101e-06
4.845633445e-06
3.710501129e-06
4.75508475e-06
4.761504124e-06
4.753561391e-06
4.756327904e-06
4.757003842e-06
4.788660961e-06
4.765403819e-06
4.788303414e-06
4.761912445e-06
4.745267035e-06
4.745375016e-06
4.732943248e-06
4.737032848e-06
4.764527979e-06
4.765528232e-06
4.788565338e-06
4.801926682e-06
4.799851797e-06
4.793128011e-06
3.719388758e-06
4.753145155e-06
4.788807868e-06
4.771283655e-06
4.794718344e-06
4.780564425e-06
4.747804625e-06
4.738418095e-06
4.742842887e-06
4.74298225e-06
4.745138179e-06
4.749935098e-06
4.799700956e-06
4.796816695e-06
4.782135226e-06
4.801596443e-06
4.810713134e-06
4.814219828e-06
4.790552004e-06
4.808539154e-06
3.717760379e-06
4.781927409e-06
4.804348376e-06
4.796571943e-06
4.799303003e-06
4.81876496e-06
4.801655131e-06
4.808604647e-06
4.821820334e-06
4.846028437e-06
4.846168169e-06
4.809456281e-06
4.787787481e-06
4.815545276e-06
4.841644051e-06
4.850193527e-06
4.845229567e-06
4.826753654e-06
4.826212635e-06
4.824938471e-06
3.722142914e-06
4.799634353e-06
4.854324876e-06
4.843445626e-06
4.835850813e-06
4.837231108e-06
4.853368732e-06
4.874458698e-06
4.841120435e-06
4.824519134e-06
4.803812912e-06
4.846517432e-06
4.849070574e-06
4.801912473e-06
4.747761488e-06
4.725072302e-06
4.733311302e-06
4.737492453e-06
4.752799086e-06
4.747786944e-06
3.718389987e-06
4.790840866e-06
4.828946518e-06
4.820934728e-06
4.822588054e-06
4.845430072e-06
4.837519089e-06
4.836342169e-06
4.851835236e-06
4.853978807e-06
4.855038119e-06
4.817671166e-06
4.784446578e-06
4.796736392e-06
4.806226321e-06
4.825874342e-06
4.851803485e-06
4.805778704e-06
4.781327701e-06
4.789811453e-06
3.734959537e-06
4.774349767e-06
4.80451986e-06
4.776669404e-06
4.790781807e-06
4.757778366e-06
4.772253638e-06
4.771136008e-06
4.754966632e-06
4.771125501e-06
4.757612806e-06
4.785814885e-06
4.819851441e-06
4.806355918e-06
4.821446958e-06
4.832759615e-06
4.832926285e-06
4.8557814e-06
4.870211823e-06
4.89109175e-06
3.707010866e-06
4.738884365e-06
4.75508438e-06
4.740272805e-06
4.772255859e-06
4.789692595e-06
4.766205651e-06
4.746177959e-06
4.764861319e-06
4.778014245e-06
4.794048331e-06
4.782920997e-06
4.814525121e-06
4.825753262e-06
4.811269103e-06
4.807163812e-06
4.798524637e-06
4.823012946e-06
4.826517788e-06
4.817093953e-06
3.737434227e-06
4.825363963e-06
4.860178144e-06
4.826248089e-06
4.813441232e-06
4.828244151e-06
4.83467093e-06
4.84177772e-06
4.824225089e-06
4.812271948e-06
4.824365932e-06
4.823011464e-06
4.800246789e-06
4.819647095e-06
4.834866251e-06
4.853067513e-06
4.836170315e-06
4.810392892e-06
4.802566055e-06
4.815513016e-06
3.72221396e-06
4.747199225e-06
4.798597535e-06
4.792792079e-06
4.793236363e-06
4.796341771e-06
4.77249876e-06
4.742491264e-06
4.75381739e-06
4.788296749e-06
4.792293688e-06
4.775771579e-06
4.774131953e-06
4.788977871e-06
4.769009608e-06
4.755453174e-06
4.787520235e-06
4.797030807e-06
4.758680403e-06
4.739806165e-06
3.719926445e-06
4.791637513e-06
4.797953349e-06
4.809852244e-06
4.778466675e-06
4.786736315e-06
4.829020526e-06
4.844003215e-06
4.849968538e-06
4.838075197e-06
4.815769755e-06
4.805823924e-06
4.781766061e-06
4.793058214e-06
4.787850243e-06
4.777669426e-06
4.786193075e-06
4.795566136e-06
4.797446673e-06
4.812553404e-06
3.735771875e-06
4.812608621e-06
4.826809612e-06
4.827210898e-06
4.831342385e-06
4.80622447e-06
4.789268213e-06
4.790420557e-06
4.773344331e-06
4.745766305e-06
4.785313902e-06
4.787667512e-06
4.829077734e-06
4.829516325e-06
4.807836788e-06
4.805089298e-06
4.792053379e-06
4.785226054e-06
4.799151282e-06
4.781182044e-06
3.732653369e-06
4.781891585e-06
4.792627769e-06
4.785511583e-06
4.79354994e-06
4.780061082e-06
4.801397281e-06
4.823565582e-06
4.841685059e-06
4.863201027e-06
4.847199063e-06
4.845026332e-06
4.801299436e-06
4.779058607e-06
4.784540489e-06
4.798006113e-06
4.814251718e-06
4.810729334e-06
4.825030392e-06
4.832179809e-06
3.722080893e-06
4.776636913e-06
4.787305012e-06
4.83228469e-06
4.82901002e-06
4.857598805e-06
4.845504821e-06
4.822378525e-06
4.801233573e-06
4.765585069e-06
4.803882338e-06
4.8042478e-06
4.808443901e-06
4.818105453e-06
4.812715862e-06
4.806538649e-06
4.804587806e-06
4.783046891e-06
4.752808852e-06
4.746047622e-06
3.723553478e-06
4.779789022e-06
4.795946779e-06
4.770840481e-06
4.755592907e-06
4.731902357e-06
4.72722874e-06
4.755312701e-06
4.753947357e-06
4.775115034e-06
4.746650662e-06
4.751802166e-06
4.751777079e-06
4.757306773e-06
4.757922171e-06
4.729757166e-06
4.762465452e-06
4.814575895e-06
4.826051519e-06
4.820090639e-06
3.646694655e-06
4.698872349e-06
4.726305088e-06
4.723390557e-06
4.730998469e-06
4.753582265e-06
4.759918234e-06
4.74047641e-06
4.751019357e-06
4.742437389e-06
4.770072993e-06
4.769227052e-06
4.777079716e-06
4.764462995e-06
4.772563373e-06
4.777789627e-06
4.759850288e-06
4.713413345e-06
4.702905853e-06
4.701292794e-06
1.160186593e-05
1.339510704e-05
1.431501343e-05
1.459632848e-05
1.451582481e-05
1.477909273e-05
1.48964176e-05
1.501486347e-05
1.503973171e-05
1.510736657e-05
1.478053822e-05
1.477298228e-05
1.495612302e-05
1.463196445e-05
1.460475489e-05
1.465447694e-05
1.474274043e-05
1.451568764e-05
1.435545117e-05
1.438566654e-05
1.406652591e-05
1.408694114e-05
1.426743842e-05
1.403876449e-05
1.407595903e-05
1.431206587e-05
1.395039145e-05
1.387299133e-05
1.388381333e-05
1.380351361e-05
1.378944839e-05
1.375748727e-05
1.364169896e-05
1.337096758e-05
1.316272978e-05
1.294077025e-05
1.232090427e-05
1.171897497e-05
1.069440556e-05
8.794932746e-06
7.91726985e-06
9.377956761e-06
1.055621481e-05
1.145284852e-05
1.19872287e-05
1.260351184e-05
1.27805126e-05
1.289707242e-05
1.311973374e-05
1.329651789e-05
1.316646369e-05
1.314871555e-05
1.329819589e-05
1.333062054e-05
1.332760623e-05
1.317414333e-05
1.31568537e-05
1.307519485e-05
1.289761209e-05
1.298409257e-05
1.304409168e-05
1.291426895e-05
1.308358941e-05
1.288421725e-05
1.301650785e-05
1.289407146e-05
1.261352024e-05
1.272935933e-05
1.264340404e-05
1.277487115e-05
1.262044939e-05
1.259877222e-05
1.261505054e-05
1.239042569e-05
1.209002344e-05
1.192459842e-05
1.157555737e-05
1.080235291e-05
9.798346131e-06
8.336014165e-06
6.638124564e-06
7.684895002e-06
8.599706589e-06
9.523623181e-06
1.033482027e-05
1.093652168e-05
1.138706013e-05
1.176684737e-05
1.201115739e-05
1.235454613e-05
1.233952796e-05
1.251595998e-05
1.258878178e-05
1.252882834e-05
1.262730378e-05
1.266834225e-05
1.259122984e-05
1.229064522e-05
1.242714007e-05
1.236081703e-05
1.245257727e-05
1.228350918e-05
1.247072725e-05
1.232266038e-05
1.238834338e-05
1.216478558e-05
1.208126946e-05
1.209239894e-05
1.203513727e-05
1.207200338e-05
1.199034574e-05
1.182772809e-05
1.179325579e-05
1.163742858e-05
1.165451011e-05
1.14064648e-05
1.086201336e-05
1.036465399e-05
9.657236419e-06
8.45610878e-06
6.021178368e-06
6.546490987e-06
7.329619775e-06
8.048917828e-06
8.718010319e-06
9.426532929e-06
1.012587439e-05
1.065350905e-05
1.087345405e-05
1.127946859e-05
1.160240692e-05
1.17986607e-05
1.195024315e-05
1.206930747e-05
1.215860648e-05
1.215909202e-05
1.217303326e-05
1.209963378e-05
1.217941562e-05
1.208426435e-05
1.209534235e-05
1.2041462e-05
1.203721541e-05
1.197125646e-05
1.202310034e-05
1.187003154e-05
1.197688074e-05
1.188721741e-05
1.187484249e-05
1.165722743e-05
1.159815335e-05
1.165512605e-05
1.164307861e-05
1.139924156e-05
1.122213453e-05
1.102193005e-05
1.059631907e-05
1.027651122e-05
9.58291211e-06
8.545717522e-06
5.577439828e-06
5.953198564e-06
6.425987514e-06
6.971242733e-06
7.621775713e-06
8.306533066e-06
8.93451607e-06
9.585343981e-06
1.010346613e-05
1.047732365e-05
1.084103747e-05
1.120606885e-05
1.146099911e-05
1.175587543e-05
1.183202202e-05
1.19612706e-05
1.206768476e-05
1.202173578e-05
1.18960338e-05
1.196170848e-05
1.201977776e-05
1.199244853e-05
1.19142137e-05
1.187735373e-05
1.193296688e-05
1.183988693e-05
1.170625255e-05
1.174611374e-05
1.1717727e-05
1.160782559e-05
1.154384629e-05
1.15180228e-05
1.138982836e-05
1.107329506e-05
1.08488914e-05
1.071130883e-05
1.052721009e-05
1.008972467e-05
9.493274785e-06
8.746392874e-06
5.294617212e-06
5.567242672e-06
5.895530085e-06
6.343754501e-06
6.763352093e-06
7.233285005e-06
7.902479872e-06
8.479166133e-06
9.028740288e-06
9.568565017e-06
9.949182197e-06
1.043518872e-05
1.086361088e-05
1.113772225e-05
1.148352905e-05
1.15971479e-05
1.185876924e-05
1.198993015e-05
1.195210899e-05
1.20683151e-05
1.211208512e-05
1.199008338e-05
1.200372276e-05
1.192477246e-05
1.197683073e-05
1.195656219e-05
1.181928216e-05
1.148388256e-05
1.150512819e-05
1.160857775e-05
1.152563486e-05
1.14200565e-05
1.117882663e-05
1.114782732e-05
1.103938674e-05
1.079240276e-05
1.043134242e-05
1.01916878e-05
9.678319621e-06
9.142834055e-06
5.165532542e-06
5.362157134e-06
5.547879508e-06
5.889339842e-06
6.17914793e-06
6.549879171e-06
7.003322415e-06
7.498843108e-06
8.137427423e-06
8.586742663e-06
9.057674118e-06
9.553379469e-06
1.000429684e-05
1.045520927e-05
1.084451285e-05
1.110820781e-05
1.135699884e-05
1.155970662e-05
1.187244176e-05
1.183963448e-05
1.184465493e-05
1.174639526e-05
1.173760009e-05
1.177722495e-05
1.180328804e-05
1.179046041e-05
1.173022695e-05
1.168054875e-05
1.156836542e-05
1.151097326e-05
1.155096411e-05
1.146399115e-05
1.124166644e-05
1.109917974e-05
1.097623892e-05
1.083983421e-05
1.057589291e-05
1.036562888e-05
9.964752104e-06
9.356512553e-06
5.041384194e-06
5.170064813e-06
5.325252338e-06
5.544545001e-06
5.774824514e-06
6.014630174e-06
6.382684073e-06
6.829504924e-06
7.304478244e-06
7.801927903e-06
8.306884001e-06
8.79375521e-06
9.232460289e-06
9.704830324e-06
1.016072058e-05
1.049267757e-05
1.086218012e-05
1.107951163e-05
1.129053138e-05
1.148060996e-05
1.161296535e-05
1.173689251e-05
1.180298254e-05
1.183145254e-05
1.170813849e-05
1.181221614e-05
1.189696379e-05
1.189036118e-05
1.175299623e-05
1.163404106e-05
1.156380356e-05
1.162362482e-05
1.142642708e-05
1.126996383e-05
1.107022836e-05
1.087118557e-05
1.069123839e-05
1.031739955e-05
9.951550447e-06
9.603591612e-06
5.005967204e-06
5.065192201e-06
5.130831908e-06
5.308168855e-06
5.559555568e-06
5.805074529e-06
6.045556031e-06
6.286134955e-06
6.632555322e-06
6.9767537e-06
7.41415813e-06
7.89732522e-06
8.402805992e-06
8.85668574e-06
9.316896924e-06
9.843743145e-06
1.024393859e-05
1.054911376e-05
1.091818732e-05
1.121884451e-05
1.141524696e-05
1.160488486e-05
1.173343658e-05
1.179849032e-05
1.17925435e-05
1.176384001e-05
1.173527959e-05
1.186691349e-05
1.196224238e-05
1.187990197e-05
1.174775618e-05
1.174512179e-05
1.15572801e-05
1.136581863e-05
1.126750103e-05
1.110182952e-05
1.078245724e-05
1.059472768e-05
1.029324994e-05
9.873912274e-06
4.923224417e-06
5.04463446e-06
5.122811477e-06
5.228217115e-06
5.339411696e-06
5.469080357e-06
5.637646536e-06
5.869552517e-06
6.134068732e-06
6.440021575e-06
6.792617344e-06
7.22723444e-06
7.681186398e-06
8.071199002e-06
8.466248783e-06
8.982032094e-06
9.417489368e-06
9.941747087e-06
1.027384302e-05
1.056164843e-05
1.092704278e-05
1.117826173e-05
1.136311726e-05
1.161092098e-05
1.176243784e-05
1.176435009e-05
1.180235242e-05
1.176540664e-05
1.18212763e-05
1.18888145e-05
1.170653231e-05
1.165798889e-05
1.166535254e-05
1.155618036e-05
1.1436373e-05
1.133992274e-05
1.105903319e-05
1.084007481e-05
1.055661594e-05
1.015183869e-05
4.908539837e-06
4.971430349e-06
5.023897716e-06
5.086500235e-06
5.134469047e-06
5.280539607e-06
5.390009522e-06
5.607159794e-06
5.819318933e-06
6.052504486e-06
6.347970624e-06
6.610650798e-06
7.001084461e-06
7.406169848e-06
7.76766428e-06
8.283314349e-06
8.763847355e-06
9.169230178e-06
9.60357605e-06
9.996223129e-06
1.028530929e-05
1.066986705e-05
1.094736106e-05
1.129806338e-05
1.157457853e-05
1.17115289e-05
1.174734353e-05
1.16095195e-05
1.169043998e-05
1.172939343e-05
1.175197048e-05
1.180321147e-05
1.180309988e-05
1.172024033e-05
1.165911468e-05
1.147885545e-05
1.1263497e-05
1.101642173e-05
1.081149488e-05
1.048744237e-05
4.871354689e-06
4.869484389e-06
4.914239786e-06
4.986652445e-06
5.042514729e-06
5.110876807e-06
5.202575136e-06
5.324479947e-06
5.442819084e-06
5.642468712e-06
5.898960382e-06
6.22041713e-06
6.481736735e-06
6.821269203e-06
7.206339919e-06
7.555542466e-06
7.911469434e-06
8.354121212e-06
8.770831698e-06
9.284340151e-06
9.684986503e-06
1.010444314e-05
1.041337763e-05
1.073125198e-05
1.10915582e-05
1.139258968e-05
1.153176488e-05
1.16704317e-05
1.171052256e-05
1.186733802e-05
1.188742966e-05
1.18091376e-05
1.178343033e-05
1.170490993e-05
1.154930697e-05
1.155553191e-05
1.147318391e-05
1.129427552e-05
1.118280348e-05
1.086462464e-05
4.831716453e-06
4.858476531e-06
4.87567565e-06
4.921752034e-06
4.998984438e-06
5.099213416e-06
5.192931493e-06
5.264198762e-06
5.407211765e-06
5.52537072e-06
5.696294916e-06
5.832675478e-06
6.044504118e-06
6.324001935e-06
6.576184164e-06
6.898671398e-06
7.265994185e-06
7.635649056e-06
8.141289893e-06
8.559601941e-06
9.045889358e-06
9.454942255e-06
9.889034446e-06
1.028884256e-05
1.052880751e-05
1.088027076e-05
1.127791257e-05
1.155548407e-05
1.172267024e-05
1.18507946e-05
1.185560692e-05
1.19861501e-05
1.193999506e-05
1.180860616e-05
1.174509623e-05
1.164969969e-05
1.160173658e-05
1.147835083e-05
1.126961761e-05
1.101863721e-05
4.831731811e-06
4.853616971e-06
4.899458068e-06
4.945875613e-06
4.975988087e-06
4.980069947e-06
5.025510842e-06
5.099474935e-06
5.176799744e-06
5.215339819e-06
5.302838373e-06
5.488005913e-06
5.68710919e-06
5.891399616e-06
6.090277629e-06
6.378394968e-06
6.732052668e-06
7.131069239e-06
7.439281761e-06
7.911496892e-06
8.346061757e-06
8.823070888e-06
9.26105527e-06
9.673057034e-06
1.008409729e-05
1.043125291e-05
1.071537586e-05
1.104175301e-05
1.122303022e-05
1.14970709e-05
1.179285724e-05
1.169132654e-05
1.17813013e-05
1.191416336e-05
1.179409939e-05
1.172534253e-05
1.167801724e-05
1.163176453e-05
1.159104273e-05
1.136380727e-05
4.863972504e-06
4.855772361e-06
4.86350368e-06
4.842986619e-06
4.890438103e-06
4.91281841e-06
4.952695516e-06
4.999895628e-06
5.050649352e-06
5.133438596e-06
5.28841745e-06
5.338830841e-06
5.458428499e-06
5.640937486e-06
5.804523747e-06
6.038813352e-06
6.243881369e-06
6.529107613e-06
6.825528347e-06
7.14985961e-06
7.53422376e-06
7.94988947e-06
8.3474667e-06
8.819921996e-06
9.277007313e-06
9.678399493e-06
1.007861968e-05
1.040248968e-05
1.081178832e-05
1.116922817e-05
1.134828535e-05
1.167920217e-05
1.171032205e-05
1.177144026e-05
1.192175777e-05
1.185406231e-05
1.18585259e-05
1.172749939e-05
1.155207926e-05
1.134355799e-05
4.776834207e-06
4.789576152e-06
4.825100566e-06
4.836757327e-06
4.851345774e-06
4.886298332e-06
4.898389354e-06
4.935028793e-06
5.007987355e-06
5.067736819e-06
5.112533776e-06
5.17543898e-06
5.264774968e-06
5.383733341e-06
5.513679035e-06
5.671349797e-06
5.87593599e-06
6.079738575e-06
6.394360185e-06
6.649796323e-06
6.964405587e-06
7.358474289e-06
7.80895406e-06
8.185394329e-06
8.627893914e-06
9.104977749e-06
9.543485013e-06
9.956491676e-06
1.029258946e-05
1.067803879e-05
1.10051986e-05
1.124545837e-05
1.154954637e-05
1.177276553e-05
1.180203862e-05
1.181924776e-05
1.18020194e-05
1.172285939e-05
1.16488872e-05
1.171919872e-05
4.825351552e-06
4.852453347e-06
4.829320912e-06
4.856299207e-06
4.870953882e-06
4.886032838e-06
4.90526613e-06
4.92021672e-06
4.93577452e-06
4.962234544e-06
5.001136939e-06
5.04263492e-06
5.114025758e-06
5.233648485e-06
5.388494597e-06
5.498692743e-06
5.63178854e-06
5.825070643e-06
5.986663075e-06
6.269823605e-06
6.536196546e-06
6.831152822e-06
7.161932178e-06
7.535556087e-06
8.006091736e-06
8.391640072e-06
8.753910783e-06
9.205456013e-06
9.6609141e-06
1.004713044e-05
1.055058706e-05
1.087072001e-05
1.120250895e-05
1.150734853e-05
1.16733511e-05
1.187650868e-05
1.188512983e-05
1.188755372e-05
1.189994543e-05
1.17426345e-05
4.820911812e-06
4.793771518e-06
4.802984295e-06
4.815867322e-06
4.807117704e-06
4.814945026e-06
4.832340453e-06
4.82875217e-06
4.844491666e-06
4.874760223e-06
4.916807737e-06
5.007774913e-06
5.066105978e-06
5.121128872e-06
5.163373909e-06
5.25792338e-06
5.383254754e-06
5.51359808e-06
5.69599327e-06
5.900492348e-06
6.078842502e-06
6.361832158e-06
6.5978981e-06
6.931785454e-06
7.295176456e-06
7.707332639e-06
8.220523586e-06
8.584628544e-06
9.100644908e-06
9.515307563e-06
9.883612093e-06
1.030641135e-05
1.066425908e-05
1.103119129e-05
1.144537098e-05
1.159498316e-05
1.179135893e-05
1.188252352e-05
1.184122623e-05
1.191074174e-05
4.776952032e-06
4.779345287e-06
4.779766326e-06
4.778817091e-06
4.783868748e-06
4.797816815e-06
4.841801556e-06
4.855120213e-06
4.827396395e-06
4.902369646e-06
4.926137748e-06
4.958636008e-06
4.987954835e-06
5.038727978e-06
5.089109045e-06
5.184613214e-06
5.263276183e-06
5.356151364e-06
5.421692725e-06
5.619088874e-06
5.797880007e-06
6.008289805e-06
6.252056765e-06
6.56285842e-06
6.869611587e-06
7.172086797e-06
7.578810301e-06
8.032948178e-06
8.425058341e-06
8.789764501e-06
9.30911428e-06
9.790385472e-06
1.021258701e-05
1.056960939e-05
1.082436153e-05
1.11766496e-05
1.143944206e-05
1.163044661e-05
1.170131427e-05
1.177503799e-05
4.782026786e-06
4.795736755e-06
4.788466059e-06
4.792611041e-06
4.795778829e-06
4.805633697e-06
4.805657279e-06
4.843310899e-06
4.893373798e-06
4.869810692e-06
4.861681822e-06
4.908155709e-06
4.901398166e-06
4.948800075e-06
5.008413108e-06
5.069274168e-06
5.141407997e-06
5.269038938e-06
5.389671118e-06
5.462936974e-06
5.565089678e-06
5.709171461e-06
5.861786988e-06
6.052542132e-06
6.312164286e-06
6.602323098e-06
6.899303516e-06
7.230419829e-06
7.605939199e-06
8.063700598e-06
8.497946949e-06
8.967769963e-06
9.432620373e-06
9.852519408e-06
1.026580916e-05
1.068079173e-05
1.096506248e-05
1.128214165e-05
1.148275854e-05
1.156275237e-05
4.805171134e-06
4.798686565e-06
4.810658383e-06
4.825713805e-06
4.819466334e-06
4.811738581e-06
4.821148563e-06
4.812699525e-06
4.809104315e-06
4.831157132e-06
4.889307213e-06
4.905318582e-06
4.956408821e-06
4.992736595e-06
5.010795097e-06
5.054165491e-06
5.109250223e-06
5.135147072e-06
5.188704822e-06
5.250377325e-06
5.328215213e-06
5.465584823e-06
5.620391193e-06
5.767461987e-06
5.990280505e-06
6.221945747e-06
6.473398992e-06
6.809217714e-06
7.183443486e-06
7.502567767e-06
7.893192865e-06
8.343249373e-06
8.798332716e-06
9.238069911e-06
9.690116155e-06
1.004667967e-05
1.045976453e-05
1.080202239e-05
1.110335666e-05
1.128214329e-05
4.808329822e-06
4.823479755e-06
4.831504166e-06
4.841934605e-06
4.840043064e-06
4.832049e-06
4.850203602e-06
4.84387485e-06
4.847058317e-06
4.874891521e-06
4.865936635e-06
4.88996729e-06
4.918168993e-06
4.938166253e-06
4.969931698e-06
5.00730872e-06
5.021781092e-06
5.054093884e-06
5.10249082e-06
5.163591916e-06
5.310870046e-06
5.384847561e-06
5.470289611e-06
5.534415892e-06
5.708295037e-06
5.922141713e-06
6.117552356e-06
6.310699201e-06
6.612846861e-06
6.98883873e-06
7.330281248e-06
7.670362464e-06
8.09518854e-06
8.553019551e-06
9.014170842e-06
9.497369078e-06
9.888326272e-06
1.021406589e-05
1.05727612e-05
1.096982809e-05
4.808752876e-06
4.807622504e-06
4.765201597e-06
4.747963272e-06
4.781358993e-06
4.808171552e-06
4.835530582e-06
4.828186122e-06
4.861257236e-06
4.873612195e-06
4.912312945e-06
4.903005909e-06
4.88896301e-06
4.880770291e-06
4.884300185e-06
4.886854803e-06
4.922816344e-06
4.958444805e-06
5.024782663e-06
5.059675929e-06
5.08443799e-06
5.160846003e-06
5.291528893e-06
5.423681609e-06
5.52163377e-06
5.675062839e-06
5.814357388e-06
5.998372319e-06
6.269482655e-06
6.52657252e-06
6.868651358e-06
7.202011633e-06
7.506067565e-06
7.919692257e-06
8.328453646e-06
8.777990538e-06
9.190400896e-06
9.710458135e-06
1.008989764e-05
1.041224981e-05
4.774089778e-06
4.809273272e-06
4.825271759e-06
4.817673506e-06
4.838714685e-06
4.829346578e-06
4.843257165e-06
4.873561087e-06
4.832969372e-06
4.815640121e-06
4.793787147e-06
4.798109696e-06
4.840792217e-06
4.857826899e-06
4.86736803e-06
4.882017126e-06
4.930916353e-06
4.933857154e-06
4.95521339e-06
5.004835042e-06
5.100306193e-06
5.191750236e-06
5.219422208e-06
5.305081884e-06
5.34967631e-06
5.449370344e-06
5.612177562e-06
5.765176975e-06
5.898105343e-06
6.082487843e-06
6.319448189e-06
6.653039845e-06
6.938505396e-06
7.307162971e-06
7.771315871e-06
8.2410306e-06
8.668102757e-06
9.034106692e-06
9.477360634e-06
9.96553698e-06
4.834622826e-06
4.793486514e-06
4.791616075e-06
4.812617102e-06
4.818691828e-06
4.81462051e-06
4.792960878e-06
4.76740934e-06
4.797411251e-06
4.805158076e-06
4.821022966e-06
4.824582106e-06
4.843150324e-06
4.837373841e-06
4.84482625e-06
4.868477514e-06
4.945926231e-06
4.953272692e-06
4.989786325e-06
5.023877718e-06
5.041175593e-06
5.065103722e-06
5.132607875e-06
5.136202366e-06
5.207560682e-06
5.277992981e-06
5.398072892e-06
5.530830982e-06
5.647550487e-06
5.768680866e-06
5.977178645e-06
6.196861633e-06
6.48619657e-06
6.817335893e-06
7.13155491e-06
7.572733684e-06
8.024972376e-06
8.505737711e-06
8.948775123e-06
9.30403103e-06
4.790610435e-06
4.806446491e-06
4.8085717e-06
4.782207295e-06
4.761147335e-06
4.723103689e-06
4.744880759e-06
4.7578943e-06
4.764295754e-06
4.786539884e-06
4.822787667e-06
4.784997603e-06
4.789605518e-06
4.824252693e-06
4.853651336e-06
4.838777419e-06
4.86314841e-06
4.903284002e-06
4.925282425e-06
4.910173156e-06
4.91642275e-06
4.966666517e-06
4.974608631e-06
5.075335546e-06
5.153626549e-06
5.167920783e-06
5.226849913e-06
5.286008178e-06
5.420767519e-06
5.546105448e-06
5.724375749e-06
5.931591756e-06
6.223885459e-06
6.416266617e-06
6.696767763e-06
7.002762034e-06
7.364088304e-06
7.831549136e-06
8.234961518e-06
8.759775255e-06
4.793209326e-06
4.794236266e-06
4.778879353e-06
4.805471923e-06