/*--------------------------------*- C++ -*----------------------------------*\
  =========                 |
  \\      /  F ield         | OpenFOAM: The Open Source CFD Toolbox
   \\    /   O peration     | Website:  https://openfoam.org
    \\  /    A nd           | Version:  7
     \\/     M anipulation  |
\*---------------------------------------------------------------------------*/
FoamFile
{
    version     2.0;
    format      ascii;
    class       volScalarField;
    location    "0.009";
    object      rhoN;
}
// * * * * * * * * * * * * * * * * * * * * * * * * * * * * * * * * * * * * * //

dimensions      [0 -3 0 0 0 0 0];

internalField   nonuniform List<scalar> 
2400
(
6.248398848e+19
1.145539789e+20
8.331198464e+19
8.331198464e+19
9.372598272e+19
1.145539789e+20
1.041399808e+20
1.041399808e+20
8.331198464e+19
9.372598272e+19
1.666239693e+20
9.372598272e+19
7.289798656e+19
8.331198464e+19
1.24967977e+20
1.24967977e+20
8.331198464e+19
9.372598272e+19
1.457959731e+20
1.457959731e+20
8.331198464e+19
1.24967977e+20
9.372598272e+19
8.331198464e+19
1.35381975e+20
5.20699904e+19
9.372598272e+19
5.20699904e+19
1.041399808e+20
5.20699904e+19
1.145539789e+20
1.35381975e+20
1.041399808e+20
6.248398848e+19
8.331198464e+19
1.35381975e+20
1.35381975e+20
9.372598272e+19
1.145539789e+20
1.24967977e+20
7.289798656e+19
1.041399808e+20
1.35381975e+20
1.35381975e+20
1.041399808e+20
6.248398848e+19
8.331198464e+19
6.248398848e+19
1.145539789e+20
1.457959731e+20
6.248398848e+19
1.35381975e+20
1.24967977e+20
5.20699904e+19
1.562099712e+20
1.35381975e+20
7.289798656e+19
1.35381975e+20
7.289798656e+19
1.562099712e+20
6.248398848e+19
7.289798656e+19
1.35381975e+20
7.289798656e+19
1.041399808e+20
1.24967977e+20
7.289798656e+19
1.35381975e+20
1.041399808e+20
1.457959731e+20
1.24967977e+20
1.24967977e+20
1.041399808e+20
8.331198464e+19
1.145539789e+20
4.165599232e+19
1.35381975e+20
8.331198464e+19
1.770379674e+20
4.165599232e+19
1.041399808e+20
1.145539789e+20
9.372598272e+19
6.248398848e+19
1.041399808e+20
1.145539789e+20
1.666239693e+20
1.35381975e+20
4.165599232e+19
5.20699904e+19
5.20699904e+19
1.041399808e+20
1.874519654e+20
1.145539789e+20
1.24967977e+20
1.770379674e+20
6.248398848e+19
1.041399808e+20
9.372598272e+19
2.186939597e+20
6.248398848e+19
7.289798656e+19
1.35381975e+20
9.372598272e+19
8.331198464e+19
5.20699904e+19
9.372598272e+19
1.145539789e+20
1.145539789e+20
1.24967977e+20
1.041399808e+20
8.331198464e+19
6.248398848e+19
1.145539789e+20
9.372598272e+19
1.24967977e+20
1.24967977e+20
9.372598272e+19
4.165599232e+19
9.372598272e+19
7.289798656e+19
8.331198464e+19
8.331198464e+19
6.248398848e+19
1.562099712e+20
1.041399808e+20
8.331198464e+19
7.289798656e+19
8.331198464e+19
1.24967977e+20
7.289798656e+19
1.041399808e+20
8.331198464e+19
1.24967977e+20
1.24967977e+20
2.395219558e+20
8.331198464e+19
8.331198464e+19
8.331198464e+19
1.145539789e+20
9.372598272e+19
1.457959731e+20
1.041399808e+20
1.35381975e+20
5.20699904e+19
5.20699904e+19
1.770379674e+20
7.289798656e+19
6.248398848e+19
1.457959731e+20
4.165599232e+19
9.372598272e+19
8.331198464e+19
7.289798656e+19
8.331198464e+19
1.041399808e+20
1.041399808e+20
5.20699904e+19
9.372598272e+19
9.372598272e+19
8.331198464e+19
6.248398848e+19
1.145539789e+20
1.24967977e+20
2.082799616e+20
6.248398848e+19
1.666239693e+20
9.372598272e+19
1.24967977e+20
5.20699904e+19
8.331198464e+19
1.24967977e+20
1.041399808e+20
7.289798656e+19
1.041399808e+20
6.248398848e+19
1.145539789e+20
1.24967977e+20
1.457959731e+20
8.331198464e+19
8.331198464e+19
9.372598272e+19
6.248398848e+19
8.331198464e+19
1.145539789e+20
1.145539789e+20
9.372598272e+19
1.145539789e+20
9.372598272e+19
6.248398848e+19
1.041399808e+20
1.041399808e+20
5.20699904e+19
1.24967977e+20
1.35381975e+20
7.289798656e+19
4.165599232e+19
1.35381975e+20
8.331198464e+19
8.331198464e+19
9.372598272e+19
1.145539789e+20
8.331198464e+19
8.331198464e+19
1.457959731e+20
1.457959731e+20
8.331198464e+19
7.289798656e+19
1.457959731e+20
9.372598272e+19
6.248398848e+19
1.145539789e+20
1.457959731e+20
1.24967977e+20
1.145539789e+20
5.20699904e+19
1.666239693e+20
1.041399808e+20
1.041399808e+20
7.289798656e+19
8.331198464e+19
8.331198464e+19
6.248398848e+19
7.289798656e+19
9.372598272e+19
6.248398848e+19
1.24967977e+20
5.20699904e+19
1.562099712e+20
8.331198464e+19
7.289798656e+19
1.041399808e+20
7.289798656e+19
1.145539789e+20
9.372598272e+19
1.041399808e+20
1.457959731e+20
9.372598272e+19
8.331198464e+19
6.248398848e+19
8.331198464e+19
1.145539789e+20
1.24967977e+20
7.289798656e+19
1.35381975e+20
9.372598272e+19
1.041399808e+20
7.289798656e+19
9.372598272e+19
1.457959731e+20
6.248398848e+19
9.372598272e+19
9.372598272e+19
8.331198464e+19
1.562099712e+20
8.331198464e+19
7.289798656e+19
1.24967977e+20
1.145539789e+20
6.248398848e+19
4.165599232e+19
1.041399808e+20
1.041399808e+20
7.289798656e+19
1.24967977e+20
1.145539789e+20
1.041399808e+20
1.24967977e+20
5.20699904e+19
9.372598272e+19
5.20699904e+19
1.145539789e+20
1.24967977e+20
9.372598272e+19
5.20699904e+19
9.372598272e+19
1.041399808e+20
8.331198464e+19
1.041399808e+20
1.145539789e+20
7.289798656e+19
1.457959731e+20
9.372598272e+19
8.331198464e+19
6.248398848e+19
8.331198464e+19
7.289798656e+19
1.35381975e+20
1.24967977e+20
1.041399808e+20
1.145539789e+20
1.041399808e+20
1.24967977e+20
9.372598272e+19
8.331198464e+19
8.331198464e+19
9.372598272e+19
7.289798656e+19
5.20699904e+19
7.289798656e+19
7.289798656e+19
6.248398848e+19
6.248398848e+19
1.35381975e+20
1.457959731e+20
7.289798656e+19
6.248398848e+19
1.562099712e+20
6.248398848e+19
1.35381975e+20
1.041399808e+20
1.562099712e+20
1.874519654e+20
1.35381975e+20
1.35381975e+20
1.041399808e+20
1.24967977e+20
8.331198464e+19
1.562099712e+20
1.145539789e+20
1.041399808e+20
1.457959731e+20
1.145539789e+20
9.372598272e+19
1.145539789e+20
7.289798656e+19
9.372598272e+19
9.372598272e+19
1.24967977e+20
1.24967977e+20
8.331198464e+19
1.145539789e+20
1.041399808e+20
1.35381975e+20
5.20699904e+19
1.24967977e+20
3.124199424e+19
9.372598272e+19
8.331198464e+19
4.165599232e+19
8.331198464e+19
7.289798656e+19
8.331198464e+19
7.289798656e+19
1.041399808e+20
1.874519654e+20
9.372598272e+19
5.20699904e+19
8.331198464e+19
7.289798656e+19
6.248398848e+19
9.372598272e+19
1.24967977e+20
6.248398848e+19
1.35381975e+20
7.289798656e+19
8.331198464e+19
4.165599232e+19
1.35381975e+20
9.372598272e+19
7.289798656e+19
1.041399808e+20
1.35381975e+20
7.289798656e+19
1.24967977e+20
1.457959731e+20
8.331198464e+19
8.331198464e+19
1.041399808e+20
1.457959731e+20
6.248398848e+19
9.372598272e+19
9.372598272e+19
1.35381975e+20
1.770379674e+20
7.289798656e+19
5.20699904e+19
1.562099712e+20
9.372598272e+19
1.145539789e+20
6.248398848e+19
1.041399808e+20
7.289798656e+19
1.24967977e+20
8.331198464e+19
1.145539789e+20
5.20699904e+19
9.372598272e+19
6.248398848e+19
9.372598272e+19
7.289798656e+19
6.248398848e+19
1.041399808e+20
5.20699904e+19
1.35381975e+20
1.35381975e+20
1.145539789e+20
1.35381975e+20
6.248398848e+19
1.041399808e+20
5.20699904e+19
1.145539789e+20
1.24967977e+20
9.372598272e+19
1.041399808e+19
9.372598272e+19
9.372598272e+19
1.145539789e+20
6.248398848e+19
9.372598272e+19
1.35381975e+20
8.331198464e+19
6.248398848e+19
6.248398848e+19
1.35381975e+20
1.457959731e+20
1.24967977e+20
1.457959731e+20
1.041399808e+20
6.248398848e+19
5.20699904e+19
1.24967977e+20
6.248398848e+19
1.145539789e+20
1.24967977e+20
9.372598272e+19
9.372598272e+19
1.666239693e+20
1.145539789e+20
8.331198464e+19
1.24967977e+20
9.372598272e+19
1.145539789e+20
1.24967977e+20
1.24967977e+20
1.35381975e+20
9.372598272e+19
1.041399808e+20
1.145539789e+20
9.372598272e+19
1.24967977e+20
8.331198464e+19
9.372598272e+19
1.35381975e+20
1.145539789e+20
8.331198464e+19
6.248398848e+19
1.145539789e+20
4.165599232e+19
1.24967977e+20
1.35381975e+20
7.289798656e+19
1.666239693e+20
9.372598272e+19
8.331198464e+19
1.24967977e+20
7.289798656e+19
1.457959731e+20
8.331198464e+19
8.331198464e+19
6.248398848e+19
9.372598272e+19
1.24967977e+20
8.331198464e+19
9.372598272e+19
1.666239693e+20
1.041399808e+20
8.331198464e+19
6.248398848e+19
1.041399808e+20
1.24967977e+20
8.331198464e+19
8.331198464e+19
9.372598272e+19
7.289798656e+19
9.372598272e+19
8.331198464e+19
8.331198464e+19
6.248398848e+19
8.331198464e+19
1.145539789e+20
6.248398848e+19
9.372598272e+19
1.041399808e+20
1.770379674e+20
7.289798656e+19
4.165599232e+19
1.041399808e+20
9.372598272e+19
9.372598272e+19
1.457959731e+20
1.041399808e+20
8.331198464e+19
6.248398848e+19
1.145539789e+20
5.20699904e+19
7.289798656e+19
1.874519654e+20
7.289798656e+19
1.145539789e+20
6.248398848e+19
1.145539789e+20
1.041399808e+20
1.35381975e+20
1.041399808e+20
1.24967977e+20
1.24967977e+20
1.24967977e+20
5.20699904e+19
1.145539789e+20
1.145539789e+20
8.331198464e+19
7.289798656e+19
1.457959731e+20
6.248398848e+19
3.124199424e+19
6.248398848e+19
1.35381975e+20
1.24967977e+20
9.372598272e+19
7.289798656e+19
8.331198464e+19
1.145539789e+20
8.331198464e+19
7.289798656e+19
7.289798656e+19
6.248398848e+19
1.457959731e+20
1.145539789e+20
1.24967977e+20
1.874519654e+20
8.331198464e+19
6.248398848e+19
1.145539789e+20
8.331198464e+19
1.145539789e+20
7.289798656e+19
1.145539789e+20
1.145539789e+20
7.289798656e+19
9.372598272e+19
1.041399808e+20
8.331198464e+19
6.248398848e+19
9.372598272e+19
1.145539789e+20
1.562099712e+20
1.145539789e+20
9.372598272e+19
8.331198464e+19
8.331198464e+19
1.24967977e+20
1.35381975e+20
1.041399808e+19
9.372598272e+19
1.24967977e+20
1.666239693e+20
7.289798656e+19
6.248398848e+19
6.248398848e+19
7.289798656e+19
8.331198464e+19
8.331198464e+19
1.041399808e+20
1.457959731e+20
1.24967977e+20
6.248398848e+19
7.289798656e+19
1.041399808e+20
6.248398848e+19
1.041399808e+20
1.041399808e+20
1.35381975e+20
9.372598272e+19
1.35381975e+20
1.145539789e+20
6.248398848e+19
1.041399808e+20
1.145539789e+20
1.562099712e+20
5.20699904e+19
1.457959731e+20
7.289798656e+19
1.145539789e+20
1.041399808e+20
3.124199424e+19
8.331198464e+19
9.372598272e+19
1.770379674e+20
1.041399808e+20
6.248398848e+19
7.289798656e+19
1.041399808e+20
1.24967977e+20
5.20699904e+19
1.35381975e+20
9.372598272e+19
1.041399808e+20
1.041399808e+20
9.372598272e+19
6.248398848e+19
1.24967977e+20
1.041399808e+20
1.145539789e+20
1.041399808e+20
1.457959731e+20
1.35381975e+20
1.145539789e+20
9.372598272e+19
8.331198464e+19
1.35381975e+20
1.145539789e+20
1.041399808e+20
1.145539789e+20
1.457959731e+20
1.35381975e+20
1.35381975e+20
8.331198464e+19
1.145539789e+20
9.372598272e+19
9.372598272e+19
6.248398848e+19
6.248398848e+19
1.145539789e+20
8.331198464e+19
8.331198464e+19
1.145539789e+20
6.248398848e+19
9.372598272e+19
1.145539789e+20
1.666239693e+20
1.24967977e+20
7.289798656e+19
7.289798656e+19
7.289798656e+19
6.248398848e+19
1.24967977e+20
1.145539789e+20
1.35381975e+20
9.372598272e+19
6.248398848e+19
1.041399808e+20
1.24967977e+20
8.331198464e+19
7.289798656e+19
2.291079578e+20
6.248398848e+19
4.165599232e+19
1.35381975e+20
7.289798656e+19
4.165599232e+19
1.666239693e+20
1.145539789e+20
9.372598272e+19
1.24967977e+20
1.457959731e+20
1.041399808e+20
6.248398848e+19
8.331198464e+19
1.35381975e+20
6.248398848e+19
7.289798656e+19
1.35381975e+20
1.041399808e+20
8.331198464e+19
6.248398848e+19
1.35381975e+20
3.124199424e+19
7.289798656e+19
9.372598272e+19
1.145539789e+20
1.24967977e+20
9.372598272e+19
7.289798656e+19
6.248398848e+19
1.457959731e+20
1.35381975e+20
1.562099712e+20
1.24967977e+20
7.289798656e+19
7.289798656e+19
1.145539789e+20
8.331198464e+19
1.145539789e+20
1.041399808e+20
1.35381975e+20
9.372598272e+19
1.24967977e+20
1.041399808e+20
8.331198464e+19
8.331198464e+19
1.35381975e+20
1.041399808e+20
5.20699904e+19
1.35381975e+20
1.24967977e+20
8.331198464e+19
1.041399808e+20
7.289798656e+19
8.331198464e+19
6.248398848e+19
9.372598272e+19
1.145539789e+20
9.372598272e+19
1.145539789e+20
1.145539789e+20
8.331198464e+19
5.20699904e+19
1.24967977e+20
1.24967977e+20
1.145539789e+20
6.248398848e+19
1.978659635e+20
7.289798656e+19
1.24967977e+20
8.331198464e+19
5.20699904e+19
1.041399808e+20
3.124199424e+19
9.372598272e+19
9.372598272e+19
8.331198464e+19
8.331198464e+19
1.24967977e+20
1.041399808e+20
1.145539789e+20
1.145539789e+20
9.372598272e+19
7.289798656e+19
8.331198464e+19
9.372598272e+19
6.248398848e+19
6.248398848e+19
1.562099712e+20
7.289798656e+19
6.248398848e+19
6.248398848e+19
1.145539789e+20
9.372598272e+19
1.24967977e+20
7.289798656e+19
9.372598272e+19
8.331198464e+19
1.145539789e+20
1.145539789e+20
9.372598272e+19
8.331198464e+19
1.24967977e+20
6.248398848e+19
1.041399808e+20
7.289798656e+19
1.24967977e+20
1.145539789e+20
1.35381975e+20
5.20699904e+19
7.289798656e+19
1.35381975e+20
7.289798656e+19
1.24967977e+20
6.248398848e+19
9.372598272e+19
8.331198464e+19
8.331198464e+19
6.248398848e+19
6.248398848e+19
1.041399808e+20
8.331198464e+19
8.331198464e+19
1.041399808e+20
5.20699904e+19
1.978659635e+20
7.289798656e+19
9.372598272e+19
7.289798656e+19
1.24967977e+20
1.145539789e+20
1.041399808e+20
1.041399808e+20
1.145539789e+20
6.248398848e+19
9.372598272e+19
4.165599232e+19
1.666239693e+20
9.372598272e+19
1.24967977e+20
1.145539789e+20
1.041399808e+20
1.145539789e+20
1.145539789e+20
1.145539789e+20
6.248398848e+19
4.165599232e+19
1.35381975e+20
6.248398848e+19
6.248398848e+19
1.666239693e+20
6.248398848e+19
1.145539789e+20
1.145539789e+20
1.145539789e+20
2.612732196e+20
2.735925526e+20
2.331042403e+20
2.8807704e+20
3.330773308e+20
4.003547766e+20
2.833337169e+20
2.634145718e+20
2.210978569e+20
3.563306353e+20
2.355559722e+20
3.502930276e+20
4.098179274e+20
2.523212443e+20
3.004495542e+20
2.67804515e+20
3.87187193e+20
2.719426928e+20
4.408793124e+20
5.284032045e+20
3.147078882e+20
4.148220967e+20
3.197662347e+20
2.603651719e+20
2.874910162e+20
3.780763555e+20
2.668509989e+20
3.075261136e+20
3.230445622e+20
2.345727525e+20
2.891624311e+20
2.386370417e+20
4.145775739e+20
3.642669792e+20
2.994500594e+20
1.922692354e+20
2.771575907e+20
2.657057879e+20
1.693618388e+20
1.994280255e+20
7.315650151e+19
3.051609241e+20
1.801260039e+20
1.920513601e+20
1.933997405e+20
2.705099844e+20
3.051286184e+20
2.743901791e+20
2.763723212e+20
2.227066471e+20
3.365085319e+20
2.485950518e+20
2.732119516e+20
2.637903918e+20
2.426707937e+20
3.02735539e+20
2.463918501e+20
1.537067394e+20
1.906505135e+20
3.002290932e+20
2.057705423e+20
2.684142979e+20
1.967792212e+20
3.099585378e+20
3.624886723e+20
2.268458133e+20
3.30386951e+20
3.203397014e+20
2.842792145e+20
2.476045723e+20
2.628749375e+20
2.253794285e+20
2.407224625e+20
3.237928704e+20
2.586159604e+20
2.472033029e+20
2.078681932e+20
2.936748185e+20
2.399292716e+20
2.136728845e+20
1.254111454e+20
1.894102287e+20
1.059564728e+20
2.987465601e+20
1.611664505e+20
1.947671886e+20
2.288464637e+20
2.524389648e+20
2.87427214e+20
2.449773118e+20
2.804237764e+20
2.485950518e+20
1.707574697e+20
2.637903918e+20
2.773380502e+20
4.075286099e+20
3.98920138e+20
2.246483115e+20
2.144818278e+20
2.401832748e+20
1.57353944e+20
2.806149478e+20
2.951688318e+20
1.983734642e+20
2.999906256e+20
2.142432681e+20
2.160222372e+20
2.434581731e+20
2.325920848e+20
1.824454743e+20
1.577249623e+20
2.386370417e+20
2.139755222e+20
4.04741088e+20
1.633363961e+20
2.19736269e+20
3.048733498e+20
2.237522425e+20
2.25815785e+20
1.566934488e+20
1.881167181e+20
1.157506954e+20
1.695303566e+20
1.600427999e+20
2.256330304e+20
2.272283867e+20
1.961541118e+20
1.646341075e+20
2.100429641e+20
1.8930065e+20
1.794712169e+20
2.598948267e+20
3.073634455e+20
2.867286869e+20
3.466725625e+20
2.794481896e+20
2.581247953e+20
2.719426928e+20
2.978914273e+20
3.122382572e+20
1.694580936e+20
2.684142977e+20
1.721818186e+20
1.983734643e+20
2.249929692e+20
2.268458133e+20
2.160222372e+20
2.050174089e+20
2.455138671e+20
3.257954898e+20
1.971562032e+20
1.19318521e+20
3.343367531e+20
2.698273918e+20
2.994500594e+20
2.19736269e+20
2.494418319e+20
2.097677277e+20
2.258157852e+20
1.709383071e+20
9.405835905e+19
1.262734858e+20
9.536082561e+19
1.493732801e+20
1.933997406e+20
2.380487862e+20
1.961541118e+20
2.085365361e+20
2.210978571e+20
2.895186414e+20
2.355559722e+20
1.129977507e+20
1.707574696e+20
2.637903916e+20
3.120053062e+20
2.445171661e+20
3.40255412e+20
2.955898835e+20
2.383131418e+20
1.561191285e+20
2.178746918e+20
2.318123483e+20
2.459740267e+20
1.859751228e+20
3.249898444e+20
2.268458133e+20
2.541438087e+20
2.050174093e+20
2.067485198e+20
2.345727525e+20
2.102999497e+20
2.253794281e+20
3.20963283e+20
3.237928704e+20
2.586159609e+20
2.472033022e+20
3.048733487e+20
1.39845152e+20
2.117022986e+20
2.136728851e+20
1.358620742e+20
1.052279048e+20
1.271477674e+20
1.493732799e+20
1.504220203e+20
2.055875878e+20
2.070515622e+20
1.756097144e+20
1.658233926e+20
2.227066472e+20
2.692068257e+20
2.598948271e+20
1.707574699e+20
1.376297697e+20
1.964477856e+20
3.260228881e+20
2.463918501e+20
1.773539301e+20
2.025661706e+20
2.762107658e+20
2.541871403e+20
2.928155975e+20
2.951688316e+20
2.23170147e+20
2.499921878e+20
3.4026872e+20
2.287294276e+20
1.665766447e+20
2.584356497e+20
1.824454745e+20
2.891624313e+20
2.518946558e+20
2.407224637e+20
1.753878048e+20
2.586159586e+20
2.884038531e+20
2.355839534e+20
2.657057884e+20
2.540427574e+20
1.851831654e+20
6.27055727e+19
8.418232386e+19
1.483390621e+20
1.066952001e+20
2.148886007e+20
6.492239625e+19
1.961541118e+20
1.756097146e+20
2.100429641e+20
2.338419794e+20
1.682542658e+20
2.259955015e+20
1.47989807e+20
2.408520967e+20
1.38669025e+20
3.376665627e+20
3.754542478e+20
2.601190975e+20
2.62144456e+20
2.401832748e+20
2.783954398e+20
2.318123483e+20
3.197662347e+20
2.975601965e+20
1.624949221e+20
2.394483583e+20
2.160222372e+20
2.690853492e+20
7.753069518e+19
1.563818363e+20
3.154499272e+20
1.458337486e+20
2.407224629e+20
2.833187636e+20
1.08890932e+20
2.197362709e+20
2.217260738e+20
1.817986973e+20
1.975888131e+20
1.424485913e+20
7.315650148e+19
1.052279049e+20
6.357388374e+19
8.535615997e+19
8.595544016e+19
1.623059905e+20
1.089745066e+20
1.426828931e+20
9.949403563e+19
1.781653177e+20
1.682542658e+20
2.485950518e+20
1.479898072e+20
1.720372122e+20
1.617805292e+20
1.862987931e+20
1.759941786e+20
3.428842649e+20
2.502287991e+20
1.801374561e+20
2.299788412e+20
1.952103983e+20
1.844805199e+20
2.355684889e+20
2.124933603e+20
1.76435633e+20
2.287294272e+20
2.178309959e+20
2.196703012e+20
2.606363908e+20
2.102999483e+20
1.458337461e+20
2.674694009e+20
2.428446524e+20
2.313932265e+20
2.884038506e+20
2.355839492e+20
1.678141806e+20
1.975888113e+20
1.994280242e+20
9.405835905e+19
7.365953338e+19
1.271477674e+20
7.468664002e+19
1.289331604e+20
7.574279557e+19
1.307694078e+20
2.085365361e+20
1.216038213e+20
1.224886559e+20
1.233864617e+20
5.649887541e+19
2.276766262e+20
1.94975507e+20
2.773380502e+20
2.328734915e+20
1.642612334e+20
2.955898835e+20
2.263974847e+20
2.882199295e+20
2.904995884e+20
2.80614948e+20
2.336753255e+20
1.735767816e+20
2.124933599e+20
2.394483569e+20
2.541438081e+20
2.690853501e+20
2.067485196e+20
1.172863759e+20
2.1029995e+20
1.988642026e+20
2.942163435e+20
1.753878045e+20
2.04170494e+20
2.609368195e+20
2.632997126e+20
1.817986973e+20
1.834753248e+20
1.994280261e+20
1.463130031e+20
8.418232392e+19
1.059564729e+20
1.813818401e+20
1.074443003e+20
5.410199687e+19
1.525643092e+20
1.097560717e+20
1.879331784e+20
1.670299853e+20
2.131220701e+20
1.242975258e+20
1.821413011e+20
1.72037212e+20
1.964477854e+20
2.095861422e+20
2.815906854e+20
2.246483118e+20
1.549035421e+20
1.921466191e+20
1.815622439e+20
1.586084486e+20
1.844805192e+20
1.735767813e+20
1.249960936e+20
2.268458137e+20
2.414366196e+20
2.947125263e+20
2.97200997e+20
3.257954912e+20
1.840124563e+20
2.916674947e+20
3.34336754e+20
2.698273915e+20
1.361136639e+20
2.746703363e+20
2.910154692e+20
2.237522429e+20
2.399292709e+20
1.282037299e+20
1.567639317e+20
6.31367429e+19
1.059564728e+20
1.066952e+20
5.372215014e+19
7.574279557e+19
1.198719572e+20
1.207316787e+20
1.768782856e+20
8.908265883e+19
1.346034127e+20
1.242975256e+20
1.70757469e+20
1.03222327e+20
1.38669025e+20
1.397240951e+20
1.877271247e+20
2.246483125e+20
1.429878853e+20
2.762107653e+20
1.936663917e+20
2.562136478e+20
2.336753261e+20
2.231701474e+20
1.62494923e+20
2.268458137e+20
3.049725672e+20
2.178309959e+20
3.101227794e+20
1.433500149e+20
1.971562032e+20
2.386370432e+20
1.738551121e+20
1.753878045e+20
2.313932265e+20
2.746703363e+20
2.078681941e+20
2.657057884e+20
2.681562464e+20
2.13672887e+20
1.46313003e+20
8.418232392e+19
1.059564729e+20
6.401711998e+19
1.289331603e+20
1.190243931e+20
1.08974507e+20
1.097560723e+20
1.216038219e+20
1.224886564e+20
1.906881686e+20
1.016979762e+20
1.024544824e+20
1.720372124e+20
1.386690249e+20
1.862987924e+20
1.290623967e+20
1.418831426e+20
2.263974834e+20
1.80137457e+20
2.662912927e+20
1.464077999e+20
2.582727288e+20
1.363817567e+20
2.499921872e+20
2.520509041e+20
2.160222386e+20
2.434581739e+20
2.325920846e+20
2.085091126e+20
1.051499741e+20
2.78409879e+20
3.477102182e+20
2.698273915e+20
2.450045971e+20
1.922692371e+20
2.49441833e+20
2.657057884e+20
3.246101901e+20
1.709383065e+20
6.27055727e+19
8.418232409e+19
8.476517861e+19
1.1736472e+20
4.297771993e+19
1.514855909e+20
6.538470381e+19
7.682924951e+19
1.437136064e+20
7.794732648e+19
1.458203633e+20
1.355973001e+20
1.024544816e+20
1.605680649e+20
1.61780529e+20
1.513677699e+20
1.994600706e+20
1.182359539e+20
2.025661709e+20
2.642016016e+20
1.452497938e+20
1.708090972e+20
2.21376623e+20
2.479668304e+20
1.874941404e+20
2.394483569e+20
1.90607856e+20
2.690853501e+20
2.455138671e+20
1.824454751e+20
3.023061807e+20
2.253794296e+20
2.54095933e+20
2.833187611e+20
2.04170494e+20
2.609368172e+20
2.217260718e+20
1.118761214e+20
2.399292709e+20
1.851831654e+20
8.360742998e+19
7.365953293e+19
1.377434137e+20
1.707123195e+20
7.521101025e+19
1.082039934e+20
6.538470358e+19
5.487803575e+19
1.547684992e+20
8.908265819e+19
1.458203633e+20
5.649887545e+19
1.024544816e+20
8.028403187e+19
1.61780529e+20
1.047930707e+20
1.290623967e+20
1.891775249e+20
1.429878853e+20
8.406414597e+19
1.210414948e+20
1.342071488e+20
1.967792204e+20
2.107718042e+20
1.874941404e+20
3.150636301e+20
2.160222368e+20
2.818989359e+20
2.067485196e+20
1.954772931e+20
2.23443695e+20
1.988642009e+20
3.34336754e+20
2.698273915e+20
2.586159591e+20
2.472033026e+20
1.940103128e+20
8.390709032e+19
2.822697305e+20
2.136728851e+20
6.270557303e+19
1.367962766e+20
1.165521201e+20
1.173647204e+20
1.181887312e+20
1.190243936e+20
8.717960539e+19
9.878046504e+19
7.738425015e+19
1.336239882e+20
8.973560883e+19
1.355973021e+20
7.968681962e+19
1.605680649e+20
9.244601728e+19
1.047930715e+20
1.290623977e+20
1.891775263e+20
1.191565711e+20
8.406414597e+19
1.573539445e+20
1.830097498e+20
2.459740275e+20
1.735767813e+20
2.249929703e+20
2.394483589e+20
2.541438081e+20
2.947125263e+20
1.679831736e+20
2.21540934e+20
2.497311907e+20
2.386370432e+20
2.674694032e+20
2.968101307e+20
1.76947763e+20
3.158708895e+20
2.771575922e+20
2.657057884e+20
3.24610193e+20
1.709383081e+20
7.315650138e+19
9.47051146e+19
7.416953148e+19
7.468664028e+19
4.297772014e+19
9.738359478e+19
1.198719574e+20
5.487803536e+19
7.73842496e+19
5.567666177e+19
1.458203633e+20
1.807964001e+20
1.479898068e+20
6.881488497e+19
1.50224777e+20
9.314939689e+19
1.290623986e+20
1.300595493e+20
2.859757728e+20
1.561191294e+20
6.05207474e+19
6.100324899e+19
1.598831166e+20
1.983734643e+20
2.749914059e+20
1.764356329e+20
2.922653816e+20
1.537630572e+20
2.97200997e+20
2.736682126e+20
1.577249639e+20
2.518946567e+20
3.477102242e+20
2.428446524e+20
2.858386916e+20
4.394725342e+20
2.494418308e+20
2.657057884e+20
2.117022979e+20
2.421626031e+20
6.270557261e+19
1.473190662e+20
9.53608249e+19
1.066951997e+20
3.223329011e+19
8.656319476e+19
6.538470404e+19
9.878046504e+19
1.105489288e+20
1.002179912e+20
1.233864613e+20
1.355973011e+20
9.1070651e+19
1.376297699e+20
1.040017687e+20
6.986204714e+19
1.290623967e+20
9.458876172e+19
8.340959913e+19
1.80137457e+20
1.573539457e+20
1.586084499e+20
8.609090961e+19
1.859751228e+20
2.374925778e+20
2.772559923e+20
1.524862848e+20
2.050174096e+20
1.679831722e+20
2.345727517e+20
2.760186821e+20
1.590913594e+20
2.94216341e+20
2.833187636e+20
2.994500631e+20
2.746703387e+20
1.940103145e+20
3.076593339e+20
2.68156244e+20
1.994280242e+20
1.254111452e+20
1.157506956e+20
1.48339063e+20
6.40171198e+19
1.181887296e+20
9.73835941e+19
1.852566602e+20
9.878046435e+19
9.949403591e+19
4.454132941e+19
1.009525599e+20
9.039820073e+19
6.830298725e+19
8.028403187e+19
1.733362811e+20
4.657469844e+19
1.173294533e+20
1.182359539e+20
8.340959977e+19
8.406414597e+19
1.573539432e+20
1.09805849e+20
1.106883124e+20
1.735767813e+20
1.499953135e+20
2.394483608e+20
2.287294272e+20
1.665766439e+20
2.325920846e+20
2.215409322e+20
1.708687094e+20
1.988642026e+20
1.872285822e+20
1.753878045e+20
2.177818603e+20
3.296044006e+20
2.078681923e+20
3.076593339e+20
1.693618383e+20
1.709383081e+20
1.149602172e+20
1.157506956e+20
9.536082555e+19
8.535616032e+19
9.669987032e+19
1.190243928e+20
1.089745067e+20
8.78048572e+19
9.94940352e+19
1.336239892e+20
1.570373155e+20
1.129977509e+20
1.024544824e+20
1.032223275e+20
9.24460166e+19
1.397240943e+20
1.055965064e+20
1.064123577e+20
1.310722282e+20
8.406414597e+19
1.573539445e+20
1.708090985e+20
2.336753243e+20
1.735767813e+20
1.374957029e+20
2.016407216e+20
1.779006656e+20
1.153222929e+20
2.196703021e+20
1.694136554e+20
1.971562032e+20
1.723489741e+20
2.54095933e+20
2.158619132e+20
2.450045928e+20
3.021373699e+20
4.434521475e+20
2.37736758e+20
2.681562464e+20
2.848971801e+20
4.180371508e+19
1.052279051e+20
1.48339062e+20
1.387037596e+20
8.595544028e+19
7.574279594e+19
1.198719574e+20
7.682925005e+19
7.738425015e+19
1.002179912e+20
7.851865717e+19
1.355973001e+20
1.024544816e+20
1.261606224e+20
8.089026512e+19
1.280804207e+20
1.642612334e+20
1.182359539e+20
1.310722282e+20
1.200916371e+20
1.089373453e+20
4.880259958e+19
7.379220824e+19
8.678839064e+19
1.874941404e+20
1.134229068e+20
1.779006671e+20
1.153222929e+20
1.679831722e+20
1.433500149e+20
2.760186844e+20
2.121218161e+20
1.872285822e+20
2.293532828e+20
1.497250302e+20
2.609368218e+20
1.940103128e+20
2.51721271e+20
2.822697305e+20
1.566934491e+20
1.254111452e+20
9.470511396e+19
1.589347092e+20
1.493732806e+20
9.669987032e+19
9.73835941e+19
6.538470404e+19
6.585364336e+19
1.105489288e+20
7.794732648e+19
1.233864621e+20
1.468970772e+20
1.024544824e+20
1.261606224e+20
1.271132728e+20
8.150572227e+19
9.386356265e+19
1.182359539e+20
1.310722282e+20
9.607331042e+19
1.694580953e+20
1.098058499e+20
1.106883124e+20
8.678839133e+19
1.124964851e+20
1.512305412e+20
1.651934739e+20
1.665766426e+20
1.679831708e+20
1.563818345e+20
1.445812144e+20
1.590913594e+20
1.738551106e+20
2.293532828e+20
2.313932265e+20
1.922692337e+20
1.801524333e+20
1.53829667e+20
3.104967035e+20
2.848971775e+20
6.270557261e+19
8.418232352e+19
9.536082555e+19
8.535616032e+19
1.289331604e+20
1.082039934e+20
1.08974506e+20
7.682925005e+19
1.326587145e+20
1.224886559e+20
1.121695102e+20
4.519910004e+19
1.479898057e+20
1.605680637e+20
1.271132728e+20
5.821837262e+19
7.039767093e+19
1.891775234e+20
9.532525615e+19
4.803665484e+19
7.262489688e+19
4.880259919e+19
8.609090826e+19
3.719502426e+19
1.249960946e+20
6.301272653e+19
1.01657524e+20
1.537630572e+20
1.55061391e+20
1.303181976e+20
1.577249639e+20
2.518946567e+20
9.361429112e+19
2.023705454e+20
1.63336398e+20
2.06002754e+20
3.464469902e+20
3.356283643e+20
3.246101901e+20
2.421626031e+20
5.225464384e+19
4.209116205e+19
1.165521201e+20
9.60256797e+19
1.181887304e+20
1.190243928e+20
7.628215471e+19
7.682925005e+19
1.437136064e+20
1.224886559e+20
6.730170614e+19
1.129977509e+20
9.1070651e+19
8.028403246e+19
9.24460166e+19
1.630114433e+20
1.173294524e+20
1.891775263e+20
9.532525688e+19
6.004581855e+19
6.05207474e+19
1.342071488e+20
1.106883124e+20
6.19917076e+19
1.249960936e+20
1.26025451e+20
7.624314242e+19
1.153222929e+20
1.162960423e+20
2.606363908e+20
1.840124547e+20
1.590913608e+20
1.604816419e+20
8.094821746e+19
1.769477615e+20
2.472033026e+20
1.801524349e+20
1.678141821e+20
1.693618398e+20
1.709383081e+20
1.045092884e+20
5.261395256e+19
1.271477674e+20
7.468663977e+19
1.181887296e+20
3.246119826e+19
9.807705606e+19
2.19512143e+19
8.843914303e+19
7.794732648e+19
6.730170662e+19
9.039820073e+19
7.968681904e+19
1.605680649e+20
8.089026452e+19
1.630114445e+20
3.519883573e+19
1.773539296e+20
1.310722282e+20
9.607330968e+19
9.683319659e+19
1.586084499e+20
8.609090961e+19
1.487800982e+20
3.749882808e+19
1.386279972e+20
1.270719051e+20
5.12543524e+19
9.045247734e+19
1.172863759e+20
7.886248126e+19
1.988642026e+20
1.471081718e+20
1.349136958e+20
1.76947763e+20
1.510686849e+20
2.078681923e+20
1.398451518e+20
9.879440567e+19
2.564074621e+20
1.254111452e+20
1.999330197e+20
8.476517826e+19
4.267807987e+19
1.181887304e+20
6.492239607e+19
8.717960539e+19
1.207316795e+20
8.84391424e+19
4.45413291e+19
1.458203633e+20
1.129977509e+20
7.968681962e+19
1.146914749e+20
1.733362811e+20
8.150572167e+19
4.693178097e+19
7.094157237e+19
8.340959977e+19
3.602749141e+19
6.052074787e+19
2.44012996e+19
6.149350638e+19
6.19917076e+19
9.999687567e+19
1.008203616e+20
1.779006642e+20
1.537630559e+20
1.938267371e+20
1.694136554e+20
9.200622892e+19
1.723489741e+20
9.361429032e+19
2.293532828e+20
1.225022964e+20
1.648022018e+20
8.314727766e+19
1.817986973e+20
1.975888113e+20
2.848971775e+20
7.315650138e+19
4.209116176e+19
6.35738837e+19
1.173647204e+20
7.521101025e+19
1.839467889e+20
4.358980239e+19
1.317072849e+20
8.84391424e+19
5.567666177e+19
1.233864613e+20
4.519910004e+19
4.553532483e+19
1.490989163e+20
1.155575216e+20
9.314939758e+19
1.173294533e+20
5.911797697e+19
7.149394266e+19
1.080824734e+20
8.472904702e+19
9.760519991e+19
1.352857151e+20
1.239834152e+20
1.249960936e+20
7.561527122e+19
1.270719051e+20
1.025087048e+20
7.753069486e+19
1.172863759e+20
1.70868708e+20
1.856065875e+20
1.337347016e+20
2.428446524e+20
1.633363952e+20
1.373351669e+20
1.801524317e+20
1.817986957e+20
2.822697305e+20
1.28203731e+20
5.225464384e+19
1.262734853e+20
1.165521201e+20
1.173647204e+20
6.446658021e+19
1.406651915e+20
1.634617601e+20
1.207316795e+20
8.843914303e+19