/*--------------------------------*- C++ -*----------------------------------*\
  =========                 |
  \\      /  F ield         | OpenFOAM: The Open Source CFD Toolbox
   \\    /   O peration     | Website:  https://openfoam.org
    \\  /    A nd           | Version:  7
     \\/     M anipulation  |
\*---------------------------------------------------------------------------*/
FoamFile
{
    version     2.0;
    format      ascii;
    class       volScalarField;
    location    "0.009";
    object      rhoNMean;
}
// * * * * * * * * * * * * * * * * * * * * * * * * * * * * * * * * * * * * * //

dimensions      [0 -3 0 0 0 0 0];

internalField   nonuniform List<scalar> 
2400
(
9.373061116e+19
9.387409291e+19
9.521171311e+19
9.244621806e+19
9.103917121e+19
9.260358515e+19
9.364267073e+19
9.191857549e+19
9.370746894e+19
9.055318464e+19
8.932433286e+19
8.779694648e+19
8.96367528e+19
8.860229566e+19
8.565629132e+19
8.473523104e+19
8.695919819e+19
8.751461142e+19
8.426081557e+19
7.791290519e+19
9.457993056e+19
9.460770122e+19
9.329785168e+19
9.354778764e+19
9.130762094e+19
9.112479742e+19
9.119190985e+19
9.15367289e+19
8.953492705e+19
8.994917275e+19
8.795431356e+19
8.708879461e+19
8.939144529e+19
8.871337831e+19
8.802605443e+19
8.463803373e+19
8.34462095e+19
8.146986409e+19
7.983139506e+19
7.582316291e+19
9.413097153e+19
9.686869592e+19
9.347141832e+19
9.365887028e+19
8.921787866e+19
9.136779071e+19
8.92433351e+19
9.106462765e+19
9.086560458e+19
9.007414072e+19
8.725541858e+19
8.574654597e+19
8.704945284e+19
8.535081404e+19
8.411039116e+19
8.152309119e+19
8.006744568e+19
7.958608755e+19
7.557322695e+19
7.455034092e+19
9.629939735e+19
9.516311445e+19
9.142796047e+19
9.264061269e+19
8.663983558e+19
8.741047144e+19
9.062723973e+19
8.865089432e+19
8.854444012e+19
8.618161966e+19
8.60682228e+19
8.536701359e+19
8.714665015e+19
8.370540234e+19
8.146523564e+19
8.1333325e+19
7.864188505e+19
7.90075321e+19
7.722789554e+19
7.443694405e+19
9.296923219e+19
9.255498649e+19
9.18445204e+19
8.798439844e+19
9.028704913e+19
9.098594411e+19
9.183294929e+19
9.047681532e+19
8.88290894e+19
8.58668855e+19
8.614459211e+19
8.354572104e+19
8.573497486e+19
8.793117134e+19
8.353877837e+19
7.858171529e+19
7.827160957e+19
7.735517774e+19
7.587639001e+19
7.266656438e+19
9.115025386e+19
9.279335133e+19
9.05809553e+19
9.05069002e+19
9.121736629e+19
8.772751982e+19
9.031944823e+19
8.970617946e+19
8.73109599e+19
8.764652206e+19
8.683885865e+19
8.495971056e+19
8.493193989e+19
8.487639857e+19
8.134026767e+19
8.290931004e+19
7.782496476e+19
7.699184491e+19
7.398798502e+19
7.325437671e+19
9.229579365e+19
9.312428505e+19
9.291369087e+19
9.50404607e+19
8.984966121e+19
8.811399486e+19
8.749609764e+19
8.719293459e+19
9.06133544e+19
8.621633299e+19
8.719987725e+19
8.619550499e+19
8.553595178e+19
8.343232417e+19
8.195353644e+19
7.759817102e+19
7.977585373e+19
7.618880995e+19
7.425874897e+19
7.280541769e+19
9.34482761e+19
9.259664248e+19
9.048144376e+19
9.058326952e+19
9.013199627e+19
9.024076469e+19
8.623716099e+19
8.645701206e+19
8.903505514e+19
8.629038809e+19
8.516336207e+19
8.74914692e+19
8.644775517e+19
8.302502113e+19
8.090519397e+19
8.190262356e+19
8.094684996e+19
7.70011018e+19
7.696176003e+19
7.359688154e+19
9.152515779e+19
9.246473184e+19
9.060178329e+19
9.011348249e+19
8.943772973e+19
9.002322784e+19
8.64616405e+19
8.478151548e+19
8.56123211e+19
8.708648039e+19
8.520038962e+19
8.642229873e+19
8.570257575e+19
8.24163808e+19
8.10255335e+19
7.923664006e+19
7.731815019e+19
7.735054929e+19
7.255316751e+19
7.265730749e+19
9.117108185e+19
9.128679294e+19
8.735955856e+19
8.755163897e+19
8.843104325e+19
8.773677671e+19
8.756783852e+19
8.688051465e+19
8.713970749e+19
8.663752136e+19
8.650561072e+19
8.856758233e+19
8.325644331e+19
8.146292142e+19
8.037292296e+19
7.848220375e+19
7.654520011e+19
7.5302463e+19
7.511501104e+19
7.42934623e+19
9.179592174e+19
9.152978623e+19
8.959972526e+19
8.850509835e+19
8.920862177e+19
8.908133957e+19
8.747295543e+19
8.912530979e+19
8.646395472e+19
8.562389221e+19
8.433487067e+19
8.343232417e+19
8.302733536e+19
8.041226473e+19
8.142357965e+19
7.836880688e+19
7.896356188e+19
7.830863712e+19
7.494607285e+19
7.284013101e+19
9.073137971e+19
8.887768806e+19
8.98172621e+19
9.352695964e+19
8.726236124e+19
8.762569406e+19
9.012273938e+19
8.752155408e+19
8.835467393e+19
8.611682145e+19
8.451306575e+19
8.366143213e+19
8.205304798e+19
8.055574648e+19
7.903530276e+19
7.915564229e+19
7.582779135e+19
7.476556355e+19
7.618418151e+19
7.38051615e+19
9.088411835e+19
8.901191292e+19
9.11757103e+19
8.950021372e+19
8.71096226e+19
8.989825987e+19
8.576968818e+19
8.628575964e+19
8.752155408e+19
8.413121915e+19
8.501062344e+19
8.432792801e+19
7.894273389e+19
7.935003692e+19
7.966708531e+19
7.781339365e+19
7.810729982e+19
7.471927911e+19
7.49090453e+19
7.589258956e+19
9.022687936e+19
9.043747355e+19
8.774371938e+19
9.13029925e+19
8.791265757e+19
9.037036111e+19
8.734104478e+19
8.721607681e+19
8.369151701e+19
8.626493165e+19
8.412890493e+19
8.453389375e+19
8.089130864e+19
7.91672134e+19
8.109496016e+19
7.993322082e+19
7.900058943e+19
7.589027534e+19
7.559405495e+19
7.767222612e+19
9.102065744e+19
8.953261282e+19
8.980337677e+19
8.953955549e+19
8.877817652e+19
8.98380901e+19
8.730633146e+19
8.728781768e+19
8.369383123e+19
8.379334277e+19
8.469588927e+19
8.208544709e+19
7.920655517e+19
7.899133255e+19
7.975502574e+19
7.925746805e+19
7.925978227e+19
7.812118515e+19
7.790827674e+19
7.42194072e+19
9.226802299e+19
9.301783085e+19
8.671851912e+19
8.824821973e+19
9.024307891e+19
8.698928307e+19
8.656346626e+19
8.797051311e+19
8.854906856e+19
8.410344849e+19
8.181005469e+19
8.252977767e+19
8.243952302e+19
8.115512992e+19
7.845211887e+19
7.807490071e+19
7.969254175e+19
7.857708684e+19
7.757502881e+19
7.658222766e+19
9.213842657e+19
8.93706173e+19
8.797745578e+19
8.83731877e+19
8.860460988e+19
8.661437914e+19
8.584837173e+19
8.807465309e+19
8.657503737e+19
8.333744108e+19
8.109496016e+19
8.440661155e+19
8.178691247e+19
8.359663392e+19
8.105330416e+19
8.077791177e+19
8.136803833e+19
7.915795651e+19
7.652437211e+19
7.589953223e+19
8.977792033e+19
9.078923526e+19
8.932201864e+19
9.023150781e+19
8.830144683e+19
8.854675434e+19
8.600805303e+19
8.748684076e+19
8.679257422e+19
8.323098687e+19
8.439735466e+19
8.389054009e+19
8.200907777e+19
8.355960637e+19
8.421684536e+19
8.042152161e+19
8.034978074e+19
7.852617396e+19
7.703581513e+19
7.693861781e+19
9.251101627e+19
9.245778917e+19
8.791265757e+19
9.088643257e+19
9.101371477e+19
8.97316359e+19
8.680877377e+19
8.849815568e+19
8.82875615e+19
8.565629132e+19
8.420296003e+19
8.39136823e+19
8.33929824e+19
8.184013958e+19
8.231455504e+19
7.968559908e+19
7.885710768e+19
7.782727898e+19
7.731352174e+19
7.748477416e+19
9.125207962e+19
9.305948684e+19
9.006951228e+19
9.134464849e+19
8.976866345e+19
9.19301466e+19
9.01782807e+19
8.763263673e+19
8.64408125e+19
8.662826447e+19
8.606590857e+19
8.29579087e+19
8.167582983e+19
8.048631982e+19
8.147217831e+19
7.876453881e+19
7.997024836e+19
7.952591778e+19
7.671645252e+19
7.80841576e+19
9.188849061e+19
9.247398873e+19
9.055549886e+19
9.17172382e+19
8.99653723e+19
8.830376105e+19
8.921556444e+19
8.890083027e+19
8.796125622e+19
8.547346779e+19
8.396459518e+19
8.417056092e+19
8.505690787e+19
8.167814405e+19
8.338835396e+19
8.103247617e+19
8.105793261e+19
8.100470551e+19
7.690853293e+19
7.84984033e+19
9.435313682e+19
9.159921289e+19
9.065269617e+19
8.983577588e+19
9.190237594e+19
8.65148676e+19
8.675554667e+19
8.816953619e+19
8.713970749e+19
8.71628497e+19
8.23099266e+19
8.259457588e+19
8.347166594e+19
8.421915958e+19
8.173599959e+19
7.99633057e+19
8.173831382e+19
8.143052232e+19
8.121067125e+19
8.010215901e+19
9.103222855e+19
9.171492398e+19
9.12081094e+19
9.016208115e+19
8.941690173e+19
8.784785936e+19
8.813482286e+19
8.691059953e+19
8.792422868e+19
8.76719785e+19
8.438578355e+19
8.442743954e+19
8.424461602e+19
8.299262203e+19
8.438115511e+19
7.990545015e+19
8.090056553e+19
8.401319384e+19
8.075014111e+19
7.86465135e+19
8.979643411e+19
9.192088972e+19
9.406617332e+19
9.132382049e+19
9.024539314e+19
9.016208115e+19
9.093040279e+19
9.219165367e+19
8.81394513e+19
8.743129943e+19
8.748221231e+19
8.764883628e+19
8.547578202e+19
8.490879768e+19
8.642229873e+19
8.090982241e+19
8.09723064e+19
8.247886479e+19
8.070385667e+19
7.906538764e+19
9.231430742e+19
9.437396482e+19
9.143953158e+19
8.941227329e+19
9.00394274e+19
9.094891656e+19
8.992834475e+19
8.757940963e+19
8.894480049e+19
8.782471714e+19
8.542718336e+19
8.709573727e+19
8.712582216e+19
8.511939186e+19
8.268945897e+19
7.913250007e+19
8.102321928e+19
8.368920279e+19
8.227521327e+19
7.862337128e+19
9.362647118e+19
9.378846671e+19
8.865783698e+19
8.915770889e+19
8.87226352e+19
9.122662318e+19
8.939838796e+19
8.400162273e+19
8.448066664e+19
8.660743647e+19
8.648015428e+19
8.601730992e+19
8.688977153e+19
8.423073069e+19
8.315693178e+19
8.420990269e+19
7.985916572e+19
8.334901219e+19
8.199982088e+19
8.162954539e+19
9.271003935e+19
9.261747048e+19
8.953724127e+19
9.142101781e+19
8.96784088e+19
8.958583992e+19
9.293451886e+19
9.06133544e+19
8.827136194e+19
8.60265668e+19
8.692679908e+19
8.473291682e+19
8.210396086e+19
8.429784312e+19
8.19813071e+19
8.164574494e+19
8.210627508e+19
8.340918195e+19
8.335364063e+19
8.196047911e+19
9.065038195e+19
9.109934098e+19
9.170798131e+19
9.240919052e+19
9.203428658e+19
9.003711317e+19
8.993065897e+19
8.941458751e+19
9.025002158e+19
8.601268147e+19
8.819036418e+19
8.757246696e+19
8.213173152e+19
8.541329803e+19
8.431172845e+19
8.434181334e+19
8.191188045e+19
8.298336514e+19
8.279128473e+19
8.322404421e+19
9.308494328e+19
9.491086428e+19
9.48599514e+19
9.255498649e+19
8.984271854e+19
9.219396789e+19
9.035879e+19
8.916696578e+19
8.979411989e+19
9.072212283e+19
8.712350793e+19
8.74706412e+19
8.316387444e+19
8.4943511e+19
8.652643871e+19
8.589234194e+19
8.628344542e+19
8.461951995e+19
8.442975376e+19
8.205999065e+19
9.300163129e+19
9.3374221e+19
9.146035958e+19
9.049764331e+19
9.049995753e+19
9.031250557e+19
9.049070065e+19
8.941458751e+19
8.984040432e+19
9.081006325e+19
9.15367289e+19
8.826441928e+19
8.53253576e+19
8.990057409e+19
8.783628825e+19
8.711425105e+19
8.384888409e+19
8.365911791e+19
8.354803526e+19
8.382111343e+19
9.231893587e+19
9.172649509e+19
9.367506984e+19
9.161541244e+19
9.332330812e+19
9.378615248e+19
9.096743034e+19
8.549198157e+19
8.84680708e+19
8.99862003e+19
9.113868275e+19
9.148813024e+19
9.001165674e+19
9.065038195e+19
9.068509528e+19
8.824127706e+19
8.420758847e+19
8.568174776e+19
8.430015734e+19
8.636444319e+19
9.136084804e+19
9.55287615e+19
9.753982024e+19
9.322842503e+19
9.39574049e+19
9.57624979e+19
9.146498802e+19
9.015051004e+19
9.006025539e+19
8.95302986e+19
8.932896131e+19
8.656115204e+19
8.74914692e+19
8.773909093e+19
8.929193376e+19
8.682034488e+19
8.529064427e+19
8.53785847e+19
8.462646262e+19
8.524435984e+19
9.293220464e+19
9.833359831e+19
9.548941973e+19
9.565372947e+19
9.306874373e+19
9.176815108e+19
9.213611234e+19
8.941921596e+19
9.069203794e+19
8.977097767e+19
8.663983558e+19
8.858609611e+19
8.881520407e+19
8.724153325e+19
8.802836866e+19
8.768123539e+19
8.715822126e+19
8.919242222e+19
8.865089432e+19
8.676017511e+19
9.023845047e+19
9.409857243e+19
9.605640406e+19
9.430222394e+19
9.194171771e+19
9.568381436e+19
9.409394398e+19
9.009728294e+19
9.133770582e+19
9.329785168e+19
9.072906549e+19
9.012736782e+19
8.733873056e+19
8.863700899e+19
8.605202324e+19
8.720219148e+19
8.816722196e+19
8.753312519e+19
8.60265668e+19
8.737575811e+19
9.339273478e+19
9.555190371e+19
9.234902075e+19
9.384632225e+19
9.276789489e+19
9.337653523e+19
9.391806313e+19
9.475812564e+19
8.910448179e+19
9.288129176e+19
9.065038195e+19
8.938450263e+19
9.07938637e+19
9.071055172e+19
8.672314756e+19
8.656115204e+19
8.773677671e+19
8.755858163e+19
8.769512072e+19
8.785017358e+19
9.694737946e+19
9.526031177e+19
9.53065962e+19
9.444339147e+19
9.515385756e+19
9.406154488e+19
9.180055018e+19
9.142101781e+19
9.230505053e+19
9.4626215e+19
9.323768192e+19
8.783397403e+19
9.272855312e+19
9.374681071e+19
8.738038655e+19
8.884760317e+19
8.967378035e+19
8.861618099e+19
8.81602793e+19
8.938913107e+19
9.443182036e+19
9.568612858e+19
9.620220004e+19
9.522097e+19
9.863907559e+19
9.472572653e+19
9.373755383e+19
9.287897754e+19
9.361952851e+19
9.578101167e+19
9.563752992e+19
9.047681532e+19
9.332562235e+19
9.454753145e+19
9.126827917e+19
8.878974763e+19
8.871569253e+19
9.058326952e+19
9.03055629e+19
9.072675127e+19
9.619294315e+19
9.83220272e+19
9.400137511e+19
9.032176246e+19
9.637345245e+19
9.530196776e+19
9.407311599e+19
9.494094916e+19
9.413328575e+19
9.51469149e+19
9.465167144e+19
9.16964102e+19
9.404071688e+19
9.211297013e+19
9.347141832e+19
9.361721429e+19
9.182832084e+19
9.236984874e+19
9.048144376e+19
8.932433286e+19
9.554727527e+19
1.000137233e+20
9.826417166e+19
9.320065437e+19
9.391112046e+19
9.630634002e+19
9.518162823e+19
9.285583532e+19
9.423048307e+19
9.508905935e+19
9.51677429e+19
9.330479435e+19
9.431610927e+19
9.164781154e+19
9.167558221e+19
9.162004088e+19
8.90952249e+19
8.973857856e+19
9.32885948e+19
9.339736322e+19
9.696820745e+19
9.899315152e+19
9.662107418e+19
9.688952391e+19
9.571621346e+19
9.348761787e+19
9.347604676e+19
9.612583072e+19
9.579026856e+19
9.736393938e+19
9.632948224e+19
9.414022842e+19
9.318676904e+19
9.365887028e+19
9.536676597e+19
9.137936182e+19
8.978717722e+19
8.9190108e+19
9.251564472e+19
9.230273631e+19
6.951028855e+19
6.882372657e+19
6.726352355e+19
6.546580371e+19
6.327036694e+19
6.256354914e+19
6.061888548e+19
5.964876636e+19
6.027618909e+19
6.249890872e+19
6.047681478e+19
6.201065459e+19
6.201405353e+19
6.452797236e+19
6.183611337e+19
6.223155934e+19
6.244273458e+19
6.425992694e+19
6.210440476e+19
5.938931774e+19
6.002851231e+19
6.123912875e+19
6.149350667e+19
6.339685297e+19
6.309525055e+19
6.201572457e+19
6.36178429e+19
6.267268297e+19
6.526361608e+19
6.578172929e+19
6.433133883e+19
6.579900852e+19
6.591040454e+19
6.772967348e+19
6.989587852e+19
6.930542963e+19
7.168527108e+19
7.57059497e+19
7.564201532e+19
8.082216425e+19
6.903419071e+19
6.663498616e+19
6.642293557e+19
6.767320887e+19
6.458118742e+19
6.247217692e+19
6.142045356e+19
6.037315648e+19
6.160031959e+19
6.143239134e+19
6.140906809e+19
6.306781133e+19
6.454632356e+19
6.312363897e+19
6.188490432e+19
5.948882715e+19
6.079751493e+19
6.275964407e+19
6.27769774e+19
6.001646291e+19
6.19060004e+19
6.326985914e+19
6.295568556e+19
6.14930187e+19
6.244804851e+19
6.255903429e+19
6.336934673e+19
6.438970372e+19
6.308701356e+19
6.349102506e+19
6.528353032e+19
6.787603468e+19
6.850782969e+19
6.926768961e+19
6.943611681e+19
7.413962761e+19
7.261528883e+19
7.421426815e+19
7.798799042e+19
8.44371929e+19
7.016521342e+19
6.74487486e+19
6.799815509e+19
6.677222719e+19
6.778780292e+19
6.725719793e+19
6.336988636e+19
6.380974103e+19
6.287531723e+19
6.200153055e+19
6.312401523e+19
6.332393956e+19
6.436924174e+19
6.455091066e+19
6.37338247e+19
6.073340654e+19
6.310238679e+19
6.264140811e+19
6.429953364e+19
6.397148088e+19
6.280439723e+19
6.438418517e+19
6.586091212e+19
6.352359152e+19
6.464797981e+19
6.55052293e+19
6.573006033e+19
6.485953528e+19
6.664193955e+19
6.54313182e+19
6.716454643e+19
6.601407647e+19
6.869803015e+19
6.916575482e+19
7.084867416e+19
7.596465933e+19
7.400415625e+19
7.504090831e+19
8.197112996e+19
8.259802341e+19
7.315882391e+19
7.128138278e+19
6.82665782e+19
6.694293946e+19
6.694734963e+19
6.699510381e+19
6.443541491e+19
6.47487652e+19
6.557762437e+19
6.281812158e+19
6.534497154e+19
6.359262306e+19
6.410361901e+19
6.558568268e+19
6.424998158e+19
6.253688236e+19
6.424700083e+19
6.313799912e+19
6.261810198e+19
6.477209179e+19
6.34687806e+19
6.41049258e+19
6.322899003e+19
6.463117675e+19
6.558683936e+19
6.539600724e+19
6.631176727e+19
6.541479077e+19
6.893914527e+19
6.793632352e+19
6.781881305e+19
6.781416582e+19
6.961336983e+19
7.060783226e+19
7.496233155e+19
7.501552073e+19
7.580876019e+19
7.854946792e+19
8.389056421e+19
8.58141957e+19
7.135894173e+19
7.056349458e+19
7.018792224e+19
6.949176933e+19
6.74272676e+19
6.618237164e+19
6.533869249e+19
6.585852104e+19
6.60468432e+19
6.444140564e+19
6.657883616e+19
6.178214799e+19
6.259842349e+19
6.401568373e+19
6.354636468e+19
6.412042215e+19
6.522996091e+19
6.399455291e+19
6.296497999e+19
6.470003676e+19
6.360865077e+19
6.591062208e+19
6.55876077e+19
6.362553349e+19
6.502852347e+19
6.468186301e+19
6.515964872e+19
6.455200928e+19
6.851703376e+19
6.702699205e+19
6.909229597e+19
6.805280275e+19
7.201762257e+19
7.229575257e+19
7.52406085e+19
7.618134358e+19
7.786280554e+19
8.010019541e+19
8.310334529e+19
8.952419056e+19
7.265021204e+19
7.305622673e+19
7.087781656e+19
6.937796102e+19
6.744875637e+19
6.53528076e+19
6.757872392e+19
6.671217928e+19
6.444265533e+19
6.320167197e+19
6.566652423e+19
6.406470264e+19
6.303606866e+19
6.512946548e+19
6.503320483e+19
6.425497128e+19
6.364210232e+19
6.379486553e+19
6.574529998e+19
6.551399119e+19
6.485134341e+19
6.420524225e+19
6.669722376e+19
6.614928468e+19
6.701735016e+19
6.779329139e+19
6.681440725e+19
6.574794406e+19
6.664193955e+19
6.806953773e+19
6.80554005e+19
7.049809613e+19
7.185714136e+19
7.063181698e+19
7.610568579e+19
7.580596092e+19
8.028331587e+19
8.356835504e+19
8.457742025e+19
8.687781152e+19
7.230881503e+19
6.981053046e+19
6.727058735e+19
6.680542129e+19
6.79549385e+19
6.717063478e+19
6.762231382e+19
6.641949652e+19
6.493644058e+19
6.278100381e+19
6.517297829e+19
6.518714687e+19
6.501938495e+19
6.63910716e+19
6.531567872e+19
6.560563753e+19
6.520910234e+19
6.375019861e+19
6.769152397e+19
6.67896313e+19
6.806297786e+19
6.622783898e+19
6.486608388e+19
6.814679537e+19
6.852841405e+19
6.951843974e+19
6.97314134e+19
6.898551064e+19
6.635191754e+19
6.950593431e+19
6.808753012e+19
6.914581979e+19
7.082589797e+19
7.25925632e+19
7.557333158e+19
7.798501294e+19
7.768111404e+19
8.018099469e+19
8.488791772e+19
9.135702992e+19
7.400651035e+19
7.208579165e+19
7.112740296e+19
6.731518716e+19
6.738906509e+19
6.741108806e+19
6.574068734e+19
6.753900845e+19
6.646938573e+19
6.441913493e+19
6.479658727e+19
6.653809781e+19
6.693439845e+19
6.572586115e+19
6.535162995e+19
6.707015299e+19
6.713591268e+19
6.334294144e+19
6.763591763e+19
6.721662379e+19
6.838037545e+19
6.678364626e+19
6.52186466e+19
6.762330984e+19
6.95672707e+19
6.683829868e+19
6.884473378e+19
6.588177454e+19
6.933254147e+19
6.912077084e+19
6.959759955e+19
7.182091036e+19
7.191955002e+19
7.445736966e+19
7.747589679e+19
7.71060665e+19
7.74932614e+19
8.204248831e+19
8.50070975e+19
8.994520446e+19
7.315417905e+19
7.334384967e+19
7.007254736e+19
6.825410496e+19
6.750367244e+19
6.800019869e+19
6.554211152e+19
6.632681361e+19
6.927241522e+19
6.767312649e+19
6.61052316e+19
6.587517767e+19
6.732144862e+19
6.668162339e+19
6.736746675e+19
6.657853123e+19
6.702119055e+19
6.523997162e+19
6.693421777e+19
6.887388833e+19
6.568787453e+19
7.026489848e+19
6.539356157e+19
6.626500275e+19
6.832008734e+19
6.788010849e+19
6.641060086e+19
6.843595031e+19
6.843950301e+19
7.080332354e+19
7.047677076e+19
7.381839202e+19
7.571464428e+19
7.810903369e+19
7.636278951e+19
7.592498473e+19
8.023096388e+19
8.619122855e+19
8.727466434e+19
9.439593234e+19
7.479381371e+19
7.131645875e+19
6.980647894e+19
6.967196562e+19
6.840142921e+19
6.861575923e+19
6.775066157e+19
6.77390084e+19
6.693369123e+19
6.705449692e+19
6.811929743e+19
6.714828562e+19
6.568723644e+19
6.860334276e+19
6.644300653e+19
6.547626332e+19
6.414792253e+19
6.530565836e+19
6.874804552e+19
6.847091396e+19
6.945092055e+19
6.899331952e+19
6.703338805e+19
6.778586587e+19
6.810064948e+19
6.847943007e+19
6.998838149e+19
6.799744085e+19
6.961969248e+19
6.983896947e+19
7.286893269e+19
7.51176375e+19
7.625849874e+19
7.701473371e+19
7.621155277e+19
8.038074796e+19
8.086842563e+19
8.629378166e+19
8.861387739e+19
9.103731031e+19
7.377194506e+19
7.022910368e+19
6.934733417e+19
7.145970297e+19
7.141942022e+19
7.022920096e+19
6.923755812e+19
6.711705728e+19
6.727762123e+19
6.543616195e+19
6.794979684e+19
6.758772117e+19
6.918080748e+19
6.86390244e+19
6.747532039e+19
6.445938255e+19
6.515956353e+19
6.744178813e+19
6.657410023e+19
6.844956444e+19
6.66615859e+19
6.891740437e+19
6.658790228e+19
6.591509389e+19
6.859507902e+19
6.84122165e+19
7.019169539e+19
6.874062839e+19
6.836484382e+19
6.762935149e+19
7.044172076e+19
7.192402635e+19
7.514701477e+19
7.579751237e+19
7.735793162e+19
7.931868933e+19
8.234660017e+19
8.491708383e+19
8.928505289e+19
9.61717923e+19
7.187916574e+19
7.184961347e+19
7.364916702e+19
7.043542901e+19
7.08487716e+19
7.218649103e+19
7.055493912e+19
6.956583768e+19
7.057934957e+19
6.736628651e+19
6.884216786e+19
6.898136059e+19
6.773632642e+19
6.746152556e+19
7.057996573e+19
6.798094684e+19
6.780599371e+19
6.782014215e+19
6.698717584e+19
6.620785439e+19
6.642219376e+19
7.02106738e+19
6.827145785e+19
6.703094463e+19
6.992281475e+19
6.982370156e+19
6.915535455e+19
6.962619027e+19
6.909420666e+19
7.329674501e+19
7.186708649e+19
7.29198192e+19
7.652893871e+19
7.782421589e+19
7.918185608e+19
8.083548068e+19
8.525367536e+19
8.450997906e+19
8.783606747e+19
9.278467966e+19
7.20788946e+19
7.28644783e+19
7.332423408e+19
7.195998491e+19
7.290931422e+19
7.236442633e+19
7.090850046e+19
7.12829094e+19
7.007573714e+19
6.840558391e+19
6.916870532e+19
6.899140408e+19
6.822962528e+19
6.871293699e+19
6.844343556e+19
6.946357524e+19
6.82205588e+19
6.796990872e+19
6.552817033e+19
6.775837035e+19
6.762453824e+19
7.060922727e+19
6.908043855e+19
6.728717702e+19
7.148665477e+19
7.036701072e+19
7.346732727e+19
7.191839881e+19
7.021122296e+19
7.499088217e+19
7.266739585e+19
7.436931951e+19
7.663889966e+19
7.77042926e+19
8.040687766e+19
8.213253361e+19
8.276849488e+19
8.490465315e+19
9.091908019e+19
9.480111857e+19
7.648454144e+19
7.45808617e+19
7.237533422e+19
7.244129857e+19
7.344176077e+19
7.169596606e+19
7.142673453e+19
7.273412907e+19
6.985709593e+19
6.851941126e+19
7.198540636e+19
6.916215674e+19
6.825492268e+19
6.906720571e+19
7.080080899e+19
7.05943049e+19
7.001439472e+19
7.000093914e+19
7.239158883e+19
6.97225358e+19
6.922766559e+19
6.823145672e+19
6.953685702e+19
6.981092776e+19
7.202274912e+19
7.245063209e+19
7.173914937e+19
7.186999133e+19
7.324353458e+19
7.453621585e+19
7.488138575e+19
7.544760477e+19
7.774443986e+19
7.806406246e+19
8.199487039e+19
8.100028217e+19
8.37447055e+19
8.602962894e+19
9.086889891e+19
9.590588739e+19
7.341196902e+19
7.413422835e+19
7.309112955e+19
7.337073281e+19
7.326507509e+19
7.185947481e+19
7.32211819e+19
7.459754378e+19
7.051793335e+19
6.948942292e+19
7.148687571e+19
7.157277594e+19
6.877857942e+19
6.988279003e+19
7.124249604e+19
7.26203048e+19
7.222279627e+19
7.104404353e+19
7.003228872e+19
7.145185537e+19
7.085231198e+19
6.948134606e+19
6.985115771e+19
7.098739317e+19
7.052279657e+19
7.27754977e+19
7.287432505e+19
7.399135262e+19
7.338136754e+19
7.582202267e+19
7.610229442e+19
7.656713722e+19
7.597022616e+19
7.808205095e+19
7.99501414e+19
8.281615901e+19
8.385864881e+19
8.526514288e+19
9.111039717e+19
9.400657286e+19
7.489135556e+19
7.41950267e+19
7.278503356e+19
7.412945423e+19
7.360889635e+19
7.130402764e+19
7.299838958e+19
7.398290874e+19
7.080290342e+19
7.113992663e+19
7.1075587e+19
6.904915849e+19
7.01522279e+19
7.103225348e+19
7.053631066e+19
7.030709478e+19
7.228015788e+19
7.156165426e+19
7.175873558e+19
7.2997035e+19
7.057257109e+19
7.117316841e+19
7.007526683e+19
7.065677073e+19
7.041168836e+19
7.101114138e+19
7.304375485e+19
7.370091128e+19
7.419113197e+19
7.506617713e+19
7.394087889e+19
7.708565721e+19
7.636845838e+19
7.961107283e+19
8.074564944e+19
8.072866301e+19
8.463160979e+19
8.679722421e+19
9.106335139e+19
9.327217124e+19
7.490993499e+19
7.762779428e+19
7.594253544e+19
7.385915922e+19
7.135495369e+19
7.192680124e+19
7.413656776e+19
7.406095854e+19
7.431344657e+19
7.248111555e+19
7.191311934e+19
7.271279718e+19
7.144745545e+19
7.177392502e+19
7.007664852e+19
6.978701013e+19
7.20089954e+19
7.217385266e+19
6.960332453e+19
7.111293063e+19
7.222411616e+19
7.3480448e+19
7.163856898e+19
7.050523544e+19
7.158109626e+19
7.164686919e+19
7.227849901e+19
7.552328826e+19
7.87022698e+19
7.759724546e+19
7.595625215e+19
7.650526705e+19
7.908772997e+19
7.975198338e+19
8.28297023e+19
8.439398751e+19
8.269766645e+19
8.837592059e+19
9.20262048e+19
9.380397845e+19
7.642183602e+19
7.600260827e+19
7.520084116e+19
7.504703244e+19
7.400285827e+19
7.3756651e+19
7.419468698e+19
7.499266512e+19
7.33578125e+19
7.364661367e+19
7.295504998e+19
7.246420213e+19
7.125013466e+19
7.103989906e+19
7.273703945e+19
7.128257597e+19
7.238184341e+19
7.348233164e+19
7.184082068e+19
7.330927269e+19
7.398594125e+19
7.379766432e+19
7.366375514e+19
7.285540996e+19
7.183386671e+19
7.545844016e+19
7.758728078e+19
7.771013999e+19
7.876831447e+19
7.880775669e+19
7.570214035e+19
7.817867379e+19
7.876973924e+19
8.020169501e+19
8.181641026e+19
8.412236758e+19
8.493648314e+19
8.733174345e+19
9.005658935e+19
9.554501763e+19
7.829603643e+19
7.779615945e+19
7.769670423e+19
7.701259565e+19
7.714739531e+19
7.664689989e+19
7.73597915e+19
7.441461647e+19
7.360838955e+19
7.096918537e+19
7.261106348e+19
7.451322801e+19
7.35471399e+19
7.199056447e+19
7.309911968e+19
7.34017242e+19
7.461370922e+19
7.363472409e+19
7.198116064e+19
7.449417684e+19
7.477136664e+19
7.573892329e+19
7.371294936e+19
7.728850585e+19
7.668093688e+19
7.697074435e+19
7.5763093e+19
7.88519737e+19
7.74273206e+19
8.069592322e+19
7.628046521e+19
8.041184445e+19
8.0719294e+19
8.162878211e+19
8.250302807e+19
8.693316143e+19
8.716298322e+19
8.735349714e+19
9.209834123e+19
9.343994402e+19
7.922732978e+19
7.825682383e+19
7.65170555e+19
7.834984162e+19
7.788756715e+19
7.779145823e+19
7.48340046e+19
7.739266455e+19
7.539682607e+19
7.225098535e+19
7.427864968e+19
7.464631371e+19
7.356231781e+19
7.330059599e+19
7.264716191e+19
7.480414067e+19
7.309364154e+19
7.072874765e+19
7.14542238e+19
7.382700108e+19
7.47337087e+19
7.58663523e+19
7.605243625e+19
7.647572568e+19
7.598095875e+19
7.411976919e+19
7.621772866e+19
7.967204334e+19
7.976759898e+19
7.85616001e+19
7.912243537e+19
7.881503924e+19
8.378627649e+19
8.311583084e+19
8.143226796e+19
8.400029336e+19
8.873354212e+19
8.841942718e+19
9.102885175e+19
9.126522888e+19
7.86769142e+19
7.59488246e+19
7.657592021e+19
7.636531143e+19
7.636185809e+19
7.474010507e+19
7.380722258e+19
7.878290867e+19
7.584884836e+19
7.440876531e+19
7.290519687e+19
7.420436803e+19
7.664101229e+19
7.612455497e+19
7.724378276e+19
7.548723624e+19
7.380022613e+19
7.537410691e+19
7.209766928e+19
7.390439404e+19
7.529050075e+19
7.487403336e+19
7.337951848e+19
7.495210786e+19
7.498932368e+19
7.601015036e+19
7.618101775e+19
7.680179835e+19
7.695352127e+19
7.839653039e+19
8.078146763e+19
8.204105713e+19
8.325430886e+19
8.210847525e+19
8.668322988e+19
8.681108496e+19
9.003618279e+19
9.370557471e+19
9.207011343e+19
9.317403914e+19
7.998211908e+19
7.662228319e+19
7.688908045e+19
7.779502712e+19
7.497940809e+19
7.534123837e+19
7.520693905e+19
7.672925007e+19
7.412428507e+19
7.431968265e+19
7.27157545e+19
7.450318323e+19
7.278062753e+19
7.393012421e+19
7.559773007e+19
7.532163675e+19
7.47101801e+19
7.550022411e+19
7.507923091e+19
7.509730373e+19
7.471756984e+19
7.517498155e+19
7.623554905e+19
7.628561717e+19
7.671426978e+19
7.772969888e+19
7.721453715e+19
7.785251383e+19
7.726077382e+19
7.907418632e+19
7.974749422e+19
8.097750331e+19
8.131069857e+19
8.39163195e+19
8.444491779e+19
8.490975737e+19
8.78774339e+19
9.223875445e+19
9.063367413e+19
9.741267692e+19
8.10713381e+19
8.046427144e+19
7.840308072e+19
7.975110525e+19
7.845821577e+19
7.842144538e+19
7.593101464e+19
7.5697543e+19
7.534032276e+19
7.469086039e+19
7.49990272e+19
7.473922351e+19
7.398731471e+19
7.602260699e+19
7.604455248e+19
7.542513608e+19
7.613377802e+19
7.696372362e+19
7.512159827e+19
7.667717594e+19
7.719488576e+19
7.433178166e+19
7.688328185e+19
7.662726097e+19
7.799200702e+19
7.832901866e+19
7.702251676e+19
7.975177233e+19
8.183508418e+19
8.136488928e+19
8.422512928e+19
8.521404664e+19
8.421422754e+19
8.411119411e+19
8.519202909e+19
8.829430554e+19
8.797289929e+19
8.895705488e+19
9.035767788e+19
9.582991481e+19
7.840519058e+19
8.01813253e+19
7.823355036e+19
7.899949684e+19
8.100583896e+19
7.941451814e+19
8.021976689e+19
7.785607907e+19
7.734003058e+19
7.547280817e+19
7.720004281e+19
7.558042899e+19
7.531795757e+19
7.755182666e+19
7.71949918e+19
7.66981784e+19
7.6709996e+19
7.845349605e+19
7.641908093e+19
7.576447949e+19
7.928486952e+19
7.734127591e+19
8.131901348e+19
7.927499568e+19
7.757257568e+19
8.096995265e+19
7.966278919e+19
8.087936808e+19
8.076688349e+19
8.298662683e+19
8.369061762e+19
8.202927398e+19
8.315623746e+19
8.405722863e+19
8.8479931e+19
8.890773596e+19
8.746477626e+19
9.217660105e+19
9.147421066e+19
9.497522327e+19
8.174251997e+19
7.921089017e+19
7.950502803e+19
8.215293274e+19
8.073364729e+19
8.240575687e+19
7.920267149e+19
8.105363986e+19
7.981632602e+19
7.610628432e+19
7.45254226e+19
7.930935477e+19
7.807284531e+19
7.841583577e+19
7.644258395e+19
7.570199679e+19
7.904354844e+19
8.001421123e+19
7.875454972e+19
7.706947588e+19
7.662733624e+19
7.937471633e+19
7.896039524e+19
7.718931912e+19
7.805867222e+19
7.816938705e+19
7.941993937e+19
8.213509904e+19
8.330242437e+19
8.370482558e+19
8.259530607e+19
8.231210237e+19
8.378924766e+19
8.561323325e+19
8.613575049e+19
8.863306562e+19
9.281083904e+19
9.354086819e+19
9.4610541e+19
9.928350083e+19
8.256930456e+19
8.115643667e+19
8.030558805e+19
8.097454409e+19
8.052830929e+19
7.881338429e+19
7.900409517e+19
7.844388326e+19
7.770852646e+19
7.930831154e+19
7.642981162e+19
8.055484051e+19
8.002580366e+19
8.208086497e+19
8.010960986e+19
7.58443095e+19
7.970059397e+19
7.927063845e+19
7.989845281e+19
8.002906696e+19
7.753918217e+19
7.907376821e+19
7.898772631e+19
7.72141158e+19
8.035582203e+19
8.021660051e+19
7.937758336e+19
8.15826917e+19
8.261326263e+19
8.560747053e+19
8.584619138e+19
8.364375598e+19
8.40864366e+19
8.632377872e+19
8.957488903e+19
9.020173764e+19
9.303872252e+19
9.390757242e+19
9.414950044e+19
9.531076884e+19
7.978935751e+19
7.841349596e+19
7.862205743e+19
8.065682949e+19