/*--------------------------------*- C++ -*----------------------------------*\
  =========                 |
  \\      /  F ield         | OpenFOAM: The Open Source CFD Toolbox
   \\    /   O peration     | Website:  https://openfoam.org
    \\  /    A nd           | Version:  7
     \\/     M anipulation  |
\*---------------------------------------------------------------------------*/
FoamFile
{
    version     2.0;
    format      ascii;
    class       labelField;
    location    "0.005/lagrangian/dsmc";
    object      origId;
}
// * * * * * * * * * * * * * * * * * * * * * * * * * * * * * * * * * * * * * //


187406
(
449043
449087
449799
450296
452457
453770
454161
454218
454356
454543
454603
454768
456146
457586
457647
457759
458105
458424
460635
461331
461885
462289
462497
462671
463892
465592
467121
467321
467389
467631
468005
468118
469313
469714
469907
470503
470991
471018
471126
471536
472118
472165
472375
472799
474248
474573
475353
475887
476026
476753
478361
478943
479336
479392
480516
481225
481636
481813
482217
482398
483148
483320
483323
483347
483377
483695
484403
485197
486317
487392
487871
488577
488864
488917
490127
490419
491517
491807
492365
492520
492887
493491
493527
494202
494557
495353
495745
496703
497099
497134
497149
497923
498281
498379
498853
498976
499418
499674
499946
500458
500990
501134
501227
502009
502102
502328
502334
503397
503689
503916
503935
505543
505685
505993
506457
506779
507319
508872
509546
510494
511020
511289
511570
512132
512516
512522
512755
512826
513038
513191
513242
513678
513753
514825
515312
515315
515322
516410
516662
516822
516913
517021
517802
517936
518250
518297
518499
518550
518590
518878
520204
520558
520679
520826
521333
521386
521600
521635
522066
522152
522535
522877
522993
523291
523876
524073
524084
524113
524231
524246
524802
524806
525056
526038
526104
526196
526373
527136
527305
527593
527915
527921
527965
528378
528539
529706
529790
530197
530687
530952
531081
531676
532475
532567
533053
533183
533804
534046
534151
535040
535234
537106
537176
537574
537662
537868
537983
538031
538166
538167
538288
538886
539002
539242
539295
540416
541029
541147
541346
541675
542076
542102
542697
543159
543180
543182
543480
543913
544197
544254
544391
544889
544959
545598
546101
546181
546826
547412
547838
548302
548601
549556
549624
549647
549663
549807
549856
549887
550003
550193
550325
550649
551372
552079
552315
552532
552546
552907
552908
553179
553910
554889
555532
555740
556422
557701
558865
558986
559229
559631
560061
560402
560622
560797
560949
561085
561416
562426
562824
562902
563651
563742
563969
564651
565112
565297
566142
566296
566622
566750
567025
567706
567814
568068
568073
568246
569027
569179
569340
569678
569849
569984
570444
571124
571195
571411
571618
572312
572421
572540
572576
572591
572614
573166
573424
573580
573582
573887
573956
574556
574633
574768
574865
574904
575076
575199
575259
575564
575987
576274
576342
576394
577002
577251
577551
577578
577708
577787
578824
580164
580207
580490
580957
581053
581340
581398
581449
582104
582276
582547
582600
582827
583090
584301
584505
584803
585122
586550
586858
587585
587927
588043
588196
588220
588429
588505
588716
588785
590362
590372
590688
591077
591689
592367
592949
593097
593446
594993
595435
596250
596577
596918
597081
597144
597573
597822
598269
598982
599076
599081
599552
599581
599614
600551
600860
601076
602162
602630
602783
603562
604875
605011
605277
605751
606102
606378
606652
606682
607053
607078
608215
608985
609330
609704
610032
610199
611142
611361
611653
611877
612202
612241
612321
612366
612494
613604
613853
613955
614262
614913
614915
615255
615368
615442
616477
616490
616761
616945
617220
617338
618388
618685
619114
619235
619255
619342
619867
619903
620175
620552
621676
622003
622934
622986
624463
625144
626247
626767
626842
627026
627294
627668
627872
628171
628340
629732
630261
630601
631661
632544
632971
632980
634241
636039
637109
639892
641075
641817
641941
642041
642143
642229
642298
642895
642928
643248
645068
645250
647354
647900
647930
648466
648549
648620
648702
649278
649560
649684
649946
650000
650398
651518
651570
652699
653543
654649
655285
655627
655892
656634
657952
660130
662151
662339
663752
666434
666670
667103
667726
668226
669741
670671
670869
671387
672415
672750
673823
674355
674663
675219
675433
676002
676304
677906
678364
682709
685689
691292
692191
694281
694565
699365
699429
699716
702859
704640
704941
706923
710571
718305
720140
727834
757907
758871
759687
760726
767671
790353
809956
387677
398132
414627
421732
426920
428515
429212
429445
433566
435690
436269
440354
441664
441991
442814
444651
445701
389321
402344
411319
411384
419355
440004
440502
454538
458400
462306
483060
373125
376031
388175
396268
398773
413714
421272
441567
443022
446310
464370
454569
475024
477883
483817
500303
295415
360356
394562
400853
420977
460220
495184
478190
481383
445017
386269
330329
359419
364135
394195
413363
417588
484566
478214
516204
459758
486097
498457
499991
513764
444625
440284
338690
351210
359854
360937
366725
382716
397806
403816
415667
500532
455366
452527
487897
456314
422426
440320
306640
308354
359103
381527
411381
430570
453518
470699
410196
461598
501185
527981
549331
418346
509697
536537
450330
438776
321026
328594
375923
386735
408939
415442
440334
454837
475522
561777
439243
433898
513502
526417
536031
541080
444954
487197
422423
456764
429078
314678
353765
395169
404380
421465
432049
492432
433938
426238
481854
498162
445509
384286
459853
524683
533832
553800
567983
579151
632573
412712
408844
541101
379789
316861
329977
332078
357526
364921
387833
393006
394985
410890
418774
458137
476093
521669
453363
458122
565845
271730
354324
572179
429416
474040
332112
468718
512336
515735
574445
458057
456542
506164
382468
389034
285088
285587
296828
341733
376950
380465
384033
385747
414309
417093
433594
440150
490089
425708
549923
498122
491277
452386
371143
470089
462080
517963
539665
566555
585866
623811
684519
421729
436073
429845
414870
347677
443273
425777
511614
358250
267535
349197
373577
391563
402611
412042
413506
415295
423842
437119
372793
429226
397936
461149
487569
479148
528519
520940
473781
415884
419789
403877
467249
602989
412041
444260
518530
529461
449410
503817
277308
281373
332301
382908
388727
397528
404396
411323
437175
438115
447329
467384
452152
486899
496634
550959
435401
456763
458245
336857
463496
423005
535669
522981
425666
418607
488237
437467
480360
550225
479759
536086
325130
452042
429780
380719
485601
444065
533359
227848
259048
260921
306774
337368
341874
348955
363436
373159
377194
382784
419552
436482
447379
468348
539823
558184
464101
417060
387229
477841
460607
609856
566886
371536
461361
462153
538214
338658
584926
356992
473034
505249
524287
535336
539386
552354
424019
492026
473412
436215
438481
427296
512616
541820
361003
434295
148969
239691
284180
302202
334240
338695
339279
341802
345258
358234
364999
413008
416602
417142
441187
486178
428186
431648
400720
500105
525378
449956
325419
557655
574555
421366
414793
458069
338599
316949
398438
452852
408068
204387
496879
519976
522342
383846
431292
378757
286842
482226
464309
228929
284274
376656
417662
508769
451866
528381
461305
159911
223718
231768
239046
249662
257050
262699
265426
269876
292735
309764
319946
322529
326301
328641
337638
338184
343633
350989
360224
360961
371915
383183
386383
393881
397817
401577
405991
408092
416331
418468
427167
429968
434428
449727
484902
464190
498195
486452
496381
467822
517563
429562
310641
450787
507631
458788
479582
520868
569462
515012
354906
405656
414301
530260
472864
321850
506431
596214
319890
464174
312886
438205
608447
422673
397768
342583
390426
528359
295209
481030
493067
501955
511134
513347
537362
553540
562899
499891
353888
572269
353986
518279
455879
450754
443329
253805
265555
275020
287136
316822
355581
396960
405548
421537
445319
454300
457492
473563
482965
447597
410565
394052
448809
393573
448146
436849
480094
396074
405201
576806
480387
578349
631400
399187
396304
268674
405962
590959
459110
418581
553311
578015
387933
507570
428754
428647
301334
359917
398798
402147
437074
417335
400964
500339
617901
415855
286801
488938
232749
592108
420819
344569
286892
442839
417895
573888
473637
404738
121611
201632
201968
217621
243537
256727
259995
324329
337181
340387
342009
349610
352293
357181
359157
369403
370994
378421
390991
391042
401220
402753
405945
407754
419451
419598
437748
448745
485223
480046
422616
462143
489942
504233
481493
435596
533893
438978
548061
308615
574851
368026
461581
485807
526539
555529
320842
464448
526012
418197
468555
499904
494751
459087
445374
408515
393688
351682
434796
469971
335135
475217
550116
466006
397553
418595
514092
560857
587684
631836
428985
375683
404337
502268
422445
442825
406106
374405
438421
420099
452139
544425
507299
468247
359898
196463
232598
235652
236549
267877
285482
306251
317905
325704
328924
329549
334256
337407
341395
348604
353694
354547
391365
395076
396952
401913
402329
409686
412242
440491
461311
423014
442341
456859
530946
465504
478088
599377
317916
469721
485555
449656
482600
457428
531535
612997
433428
435081
411720
427605
423596
422393
478507
404510
470380
460774
440699
541751
513008
275539
598155
492975
543164
554903
555996
428954
525838
414690
530436
397303
453064
450745
537497
415322
446522
334061
474506
556130
474787
350364
102420
201592
243956
251288
252249
256625
259592
261447
279298
295689
295774
298532
308730
311475
312005
312776
317065
342648
348556
352614
361759
367951
370260
384768
385138
390501
405718
410389
419983
433175
443590
467274
457308
460856
550701
503128
491127
514204
557485
434136
422052
421430
397413
502101
518459
545014
481176
434509
264817
480674
490605
389604
407257
474547
385762
456074
352021
489612
505478
505592
613803
401780
477316
292490
556585
686011
421577
594362
442091
416397
495465
442795
400878
439811
527469
338549
448791
430955
355214
353154
215581
448913
411633
475835
599555
507576
471949
399503
486542
364883
625055
634247
467536
425976
423785
556117
244850
350879
377363
371278
582359
492267
120488
200238
235291
243311
244413
248757
265211
265467
269953
281168
284195
290332
299447
317518
318262
324154
325482
333881
336025
338684
338843
349474
350097
351166
352416
354127
362536
363162
370097
371282
372429
391547
400655
401408
401578
418800
422708
422710
435190
501277
448925
478968
469723
486668
426595
583013
484171
414927
382769
498649
487413
488752
428913
657073
539861
434907
424459
419026
441426
395984
526738
546251
404148
256408
331093
417518
425797
530642
589429
484023
397961
284374
548294
510250
572330
586903
345951
471114
397287
515293
440488
351812
453480
389520
346918
489582
351866
455908
417561
384890
444033
576987
547205
600133
420168
482299
548064
406914
324620
430152
488905
555674
560205
578091
591854
620092
627007
633967
734047
430900
496511
349927
490138
295682
405428
392823
394187
550900
242487
411825
439134
482073
501098
578644
459389
380670
419400
514393
349653
410743
461016
407730
463077
432294
514381
458723
175730
178525
187130
218244
220600
221460
222219
235545
251783
279209
285156
311314
311514
325263
327068
327874
335506
336017
339996
348136
349371
350759
354147
355968
356932
357152
358378
358452
358911
359537
363100
366402
369688
375395
377438
381660
384541
387131
390670
391349
396234
401930
406521
407194
413338
413622
415915
429540
434756
435716
439436
487980
481592
501462
471206
560077
405110
464095
478308
482853
570138
444138
450096
474703
366176
394250
486586
563294
387378
543427
391131
447964
252752
470750
374020
405723
509142
396482
497112
517916
511093
394833
532275
583833
627693
383952
449328
473284
487171
361920
418398
485416
398640
423765
318954
472546
475512
561031
490599
533667
472577
414568
449317
511101
505050
432132
498932
460736
426682
394815
467570
369282
239545
376948
401859
628683
507249
525270
622973
439692
478370
448836
380666
337344
355182
381476
466560
371526
515936
232643
329847
254445
415787
472961
489733
495503
531552
622196
406763
559892
261998
375167
436032
395822
560082
465888
515738
433976
496479
434442
362801
503571
447499
451885
518913
407375
187174
194067
198133
199097
212614
213347
221691
230196
240905
254733
258228
279202
297779
299587
299835
300003
300975
303775
310813
311767
315312
316344
320415
322063
323463
335784
338826
339067
339070
344035
344266
347692
348407
354655
357893
358440
362851
364214
370499
372731
383772
406907
406972
407370
407628
420067
420705
426383
439538
444761
471634
468919
475122
539800
511155
519004
405034
383593
498833
457581
524774
504523
403760
455500
578538
387146
489442
389620
386506
559442
266692
478918
483353
498380
514068
621796
433012
290175
326791
642357
437867
620215
489193
282614
390590
484643
543046
479479
383055
395993
346041
378102
421391
375506
455022
270628
424800
380779
416081
547758
357518
578435
459015
474251
433149
441159
476271
425794
319403
230614
655405
328793
374919
412496
513044
463671
545511
545515
653423
289429
433602
544067
294328
447219
450581
566766
241705
404475
412728
422118
512630
464189
578679
590886
664958
709652
435539
474396
394626
433645
534352
457712
426074
379382
400515
506100
607023
447277
498166
536485
458959
333424
358030
441721
524325
367980
378921
393736
405654
353205
341784
542814
507400
110147
178171
183681
202795
207370
214078
218440
220532
235055
241518
247165
259596
259660
261346
270488
276393
282324
292953
296513
300221
302556
303267
305312
306142
306940
314056
317185
317900
319929
322904
326060
332754
337597
338988
342843
343071
344628
350177
351251
351455
352065
353368
357718
358020
359745
360239
368474
369082
370981
375251
378726
378800
382814
388074
396975
398113
401461
402166
404197
412608
417322
426132
429072
429262
466216
512614
494652
390439
555341
587455
413902
466168
455019
379572
540098
458743
441530
412716
648221
400276
339214
470638
468732
503326
464143
583116
460609
555697
566726
467000
451891
456677
406625
586442
498633
458858
557395
402303
299614
492678
396338
442721
405899
546412
412104
483484
458334
531689
556518
309865
511228
391892
584220
435926
313712
437120
570506
452915
489217
400413
467149
586108
382695
373435
389702
448267
443141
482348
634039
461690
404940
311601
358176
426821
512089
416435
405717
402210
329793
512270
317445
425864
496721
502262
435202
441841
260901
338251
482706
522543
525675
565646
451481
363597
443447
394061
430126
512454
586231
449798
373473
500399
465740
476317
290471
358867
448669
400422
342005
411928
253861
298658
298141
326958
364454
365902
411567
478229
493535
616902
739660
429255
59678
163391
172927
177245
184888
200307
205148
210877
222056
234355
238464
241158
247932
251267
254011
258399
259261
269210
275823
278379
282083
286188
287807
293919
295431
297052
306889
311590
312592
313294
313405
315338
315778
318339
321529
324367
326692
333074
333699
337598
340343
344983
348370
351023
351704
356800
357459
358035
363707
366363
369867
370915
371461
373149
380864
383364
386094
400600
407384
409741
411476
414378
437713
439323
447774
462618
466471
439170
424114
467233
440957
428002
425289
525063
561665
573311
494393
519275
463026
459145
449639
381920
397971
459601
436879
500163
470820
415595
448003
861292
412262
464175
549074
355740
398093
453721
478411
426283
490185
347334
452748
410067
420116
434155
436564
535197
474102
531279
363478
311886
324534
432365
398601
546174
470234
325025
432442
419873
443267
427813
199837
470792
540327
417066
294808
532958
406749
461056
508804
556613
450282
436386
358259
381862
683069
445620
496395
502132
365120
380574
327157
416141
569952
246059
486197
537404
544755
301889
519066
428439
325193
462032
388390
344995
396082
504276
234293
343022
460489
263625
344364
366501
464371
549678
472809
399953
188933
484546
475074
527493
489997
463604
415923
421455
411243
485960
441775
253295
384899
389260
139225
591021
470751
332847
479995
432086
474357
528173
476837
387655
449582
556486
328243
398646
441758
568267
506642
457691
531418
599224
436696
397250
464473
336403
223190
288345
335923
403867
505529
344706
575274
444619
381454
309533
100076
133242
147063
162673
166896
172327
180250
199569
206766
213322
213730
232782
237359
237807
238020
238097
242936
253128
253721
254005
254018
256327
257305
260068
266283
267234
267398
269496
270711
280353
281451
281773
288729
296634
303015
303609
304039
304585
307298
307721
309059
311446
313141
314477
315779
321935
327067
329886
330391
331035
336855
351729
352741
360076
362233
362480
364731
366068
366451
367612
368475
368600
377596
380824
385099
386591
388161
388753
389513
392915
395825
401759
405839
406260
407106
417485
421963
426462
429645
437402
441277
447315
449367
459081
468450
472101
481237
485906
517693
403304
472705
482488
549860
421193
499063
484175
544830
453476
348087
464837
544184
407215
401599
421576
638455
381653
481665
491930
422272
453520
429895
526418
406039
454905
353111
567866
512347
448460
423042
411700
428356
523315
549320
555628
641881
417083
483207
318191
318997
520211
594334
546269
467529
447225
483481
479052
540184
392081
448128
393023
462328
323825
538980
612957
517439
319984
488101
576067
622231
394795
349148
337506
455927
480535
424382
466344
316351
458963
651800
803884
383754
418457
357935
509385
494321
374476
642144
575231
380189
450962
380781
510539
540014
273309
339028
464964
397448
409899
289432
490438
380209
323464
512852
423620
509699
381374
408790
448228
354309
197069
461693
421293
147035
374111
406442
468282
490228
332862
161926
262041
337156
380830
384390
448310
378540
394097
536119
290480
180329
551530
540480
571344
399590
505669
571306
464288
509074
238564
543375
215144
327455
463500
409315
445379
192290
233408
333771
338488
398013
365786
420715
458508
385495
491844
535712
147017
330862
531098
166808
323499
379333
407532
465583
480707
490199
446587
262472
437300
389723
352320
454887
437377
425902
302795
411621
26934
65635
99337
100075
124323
136326
140333
156775
163173
166791
185799
187090
193606
197586
213986
221124
223040
224523
224688
225113
225814
226192
238842
244493
244787
250444
255323
255434
256905
258297
263249
264597
268348
270687
276731
277037
277807
281865
283991
287109
289099
289888
291356
294317
294943
296887
297450
299334
301014
301858
305655
305823
309735
311395
311939
312244
318199
319554
323965
325656
325782
328610
332943
333761
339422
345328
349529
350585
353498
362180
370281
375195
376001
377840
379174
380461
387175
389291
389374
390237
402838
404778
405550
406536
406663
410984
413708
413845
415108
416166
416779
420743
425967
429229
434023
447958
464645
494954
495488
448521
459770
467547
428130
424030
492345
425643
440362
448538
516630
493817
422139
443168
448664
420746
582101
455547
572238
464213
462843
469496
545922
377800
386429
419933
331817
428365
395065
472081
480337
560506
611505
456153
271723
525060
572519
280951
425985
407769
414917
332464
519349
670807
387962
276046
463527
637695
451632
488021
431137
491932
427509
369242
364408
580779
459044
466850
445278
354086
309685
576106
578074
471184
416148
467512
374366
457547
519435
347436
363517
422100
189480
419516
470170
503474
288477
501910
514465
525322
555322
618558
370147
489283
704324
293948
380098
412203
548209
484425
370765
137478
415056
496399
284352
376843
434380
354753
579680
418444
487403
522548
376524
425506
393972
585424
445452
428127
483053
519839
384155
511113
412527
478222
182753
468400
342726
405276
430597
237170
314184
278617
280382
296382
351079
368408
409486
432051
491068
499016
473252
462834
274755
256482
405603
662267
440689
435145
538727
575302
457255
475050
534691
380280
425600
567163
264226
395533
362266
583587
247436
331570
614024
400619
429225
428480
504507
414432
496901
233331
479610
478195
253734
491182
74265
210024
219682
230094
285029
394026
429694
447841
470871
396341
600886
442125
338579
472358
20378
24420
61488
70350
71400
71561
112572
129589
139122
147315
156192
165798
169236
177612
182981
187114
196195
203107
224581
226522
233675
235580
237511
239363
239796
243307
243402
245504
247734
250791
251789
252014
252079
253525
254724
254823
255835
258729
262752
264001
265267
266733
270841
271350
279122
279346
280155
281424
285505
286032
286661
287423
288663
289150
291353
293645
295148
296674
297866
298018
298832
299974
300709
301319
303000
304742
306453
311633
312558
315467
318476
319515
320482
321314
321994
326942
328702
333005
333262
336493
337748
338870
339644
346031
346082
346919
347323
350959
352047
352806
353961
354558
355401
356396
357127
357622
361034
361082
361349
362827
363379
366938
370036
371002
371097
371193
373248
375536
385719
387274
387456
390314
399167
404024
409111
409654
411277
413370
413978
415926
416880
419711
422346
424139
432241
434662
435133
443407
447985
450234
456241
457477
448235
483382
469608
456059
495743
474296
452951
488956
449224
557042
543087
430102
466941
534712
329502
480179
564705
458202
200874
475901
474479
486506
537099
478712
364685
385123
432189
439193
501694
354087
523224
511216
597412
494561
498767
596610
419931
463427
462175
400797
427261
445751
425063
507496
599674
359125
342290
546696
503512
615302
641231
349504
408003
536077
482810
458695
371230
359480
389100
490664
505142
534116
565887
609406
715851
436391
371841
590364
554150
362160
534214
574834
552801
589622
325135
362247
398467
385049
456215
511567
530974
375197
491974
501231
447731
423183
357899
582182
383043
393410
465621
437933
257210
369389
431068
256310
498986
353030
451400
465258
423335
449712
621468
503558
620210
384381
430155
427086
326732
370152
331625
248195
281558
369597
450419
385055
489667
466548
612642
442090
423027
418248
312496
381902
407433
448107
529412
405230
436907
464720
258139
294356
407288
524273
299301
259952
274624
333357
371494
412578
433483
705303
651352
449173
481654
694719
479386
504267
526128
578400
605574
355969
450074
463826
561054
344234
512806
457067
467268
408427
490742
253206
320017
391697
295660
520151
264174
414904
341547
469206
479375
270782
183781
215548
301634
526316
527598
367853
444108
120998
144716
227755
293890
306289
387615
394231
424725
448744
472802
340684
510107
568051
400053
589706
432135
477055
376901
353313
429272
427746
557993
503411
76746
91116
96734
104979
108028
113534
125820
126261
142311
142444
149570
160530
161659
172663
174097
178678
180335
184368
186393
189980
193887
197373
199175
206059
212387
212823
217980
219394
219450
221688
224846
225252
225443
227879
234702
234845
234982
235175
238746
241780
242048
242252
243512
244327
244566
247192
253722
255158
257340
259459
259534
259808
263260
264084
266540
267488
268275
268990
270580
274559
275917
276165
278449
284254
284623
284870
285498
286674
287294
301125
303885
308633
308699
309317
310914
313497
313719
315485
316211
318454
319648
320148
321667
324895
325607
326433
327394
327644
330681
331829
332710
334195
335642
337868
337924
337945
339193
339509
340258
340414
340977
342402
348531
349312
351281
352547
354276
354344
358016
358845
358986
359433
363528
366319
366492
367992
369773
370307
370400
371373
373003
374216
374744
375210
378028
378562
380235
380524
381370
383465
384105
384734
385072
388180
390348
390531
392061
394286
399795
400810
405100
405347
407062
407235
407957
409452
409954
411088
412545
413215
413361
413988
424222
429282
432535
432957
437011
438004
442134
447410
453603
454020
463583
468487
520511
439403
416018
469813
572502
469936
462001
482647
419315
422853
484511
497041
524670
587555
607278
511121
610911
307501
480620
527245
402794
457977
378801
391975
578010
427885
483941
556858
542457
606815
441695
582103
364956
385744
407910
434872
347688
468171
500595
369632
443983
373228
409445
424099
412155
456297
497481
241013
345671
420290
403158
369789
496465
470601
501749
502113
487816
449596
548214
452345
628207
372535
412669
429263
332975
398512
400129
456126
317316
442539
288806
485016
631755
360221
334896
301282
420759
309182
431508
385501
424350
568335
487823
496365
454906
443926
349935
438505
434457
483820
585651
786358
540277
293091
392825
439582
579800
516171
399635
273625
454506
576498
457270
632441
481974
509676
397732
443467
494599
409182
563021
257426
445957
446449
388294
545774
327905
542473
380910
442562
216781
513721
350386
358672
515175
665535
475383
490997
391142
353132
432780
427314
427910
453568
489331
497068
364062
488855
489986
428532
392065
365927
482330
591921
493541
611311
356503
413114
442601
462598
311096
457993
403200
231403
368268
437059
317372
410188
323484
546772
415830
504552
386544
503304
348923
381628
396425
433488
568198
355684
474444
481564
519651
386549
459235
653693
529582
522082
459423
294710
471129
561479
494608
351751
513479
392781
500124
200571
437424
453005
491538
437724
296455
243090
281717
288723
297684
332590
357786
379336
386443
405741
462625
428639
411579
572102
614598
468079
483795
489295
395203
394093
496159
311843
306426
304136
48650
59084
64522
82559
113982
136650
138046
146222
147743
152346
152594
157010
159937
161894
163994
166494
167638
170878
176185
178851
181632
187287
187821
191935
193081
196000
197365
199655
201606
202947
203164
203939
206613
209494
209904
214283
217694
218975
221803
225996
226047
226742
226766
228138
229551
232424
234228
234520
238235
238508
240116
241953
244139
248344
249434
254338
255695
258199
258827
260097
260110
261802
262803
263329
264264
265626
266438
266810
267371
269399
269424
270792
271275
271887
274300
275669
279244
282076
282764
283822
284651
285129
286885
287572
287985
289602
291366
292797
295284
295397
296287
297365
298193
298494
302307
304278
305468
305532
306592
307218
307562
310065
314538
314711
315418
315701
317277
317495
317579
318088
318202
319158
319487
322273
322874
323831
325015
325068
326130
330706
330890
331130
333153
333345
333383
334143
336944
337190
337972
338297
338447
338640
338651
343567
344524
344926
345342
345418
345830
347527
353876
356552
357878
358581
361213
362153
367297
367608
367984
369067
369306
369840
370274
376205
381287
382170
382746
383619
385332
386207
390562
397251
399375
402545
402709
403902
404740
409697
411931
414604
418650
419523
422588
430454
436605
437807
438926
448524
456415
456779
460021
460698
462058
484824
489725
482945
503829
399117
420945
474009
480514
374482
449837
485167
504187
463044
486950
487779
478756
458867
410292
415209
441154
483081
363676
406846
494809
474921
567367
384507
358290
388901
496046
390071
455645
451231
480212
619279
474115
503987
433700
643362
451103
424937
464066
463873
500465
534467
530721
460559
372652
476198
395898
528649
426832
428560
421672
346335
410354
478382
549318
465906
539810
428671
565069
453550
273160
332719
403331
476962
281967
495945
447114
370478
536023
376918
541395
487305
371006
397916
413758
344862
436017
623456
499778
468000
483740
602205
440343
392642
515480
417628
562779
335363
313617
447459
167321
438325
567209
451521
534739
363904
466171
309478
459748
436379
572728
458761
493194
324922
392058
532093
560046
335611
391263
403302
382836
558909
576810
499592
448288
248320
442397
195112
406381
626829
371937
436332
485065
322804
491305
550671
421983
357019
494206
346331
203136
511712
550300
262580
285125
335707
397970
273763
388357
702254
388613
383270
377824
396728
387493
179654
268556
464030
241162
395734
402530
295384
348984
369311
391638
476926
460429
434657
468122
433614
390041
445099
484518
664407
583250
343135
654718
648773
269034
275224
353588
284663
290891
462706
174326
180596
229597
275288
324811
425465
387197
542140
264185
392951
504443
461980
562891
571779
590410
663684
707193
405545
419641
418001
382336
496141
323264
377613
322689
399637
463486
335689
518707
289930
387035
244127
335226
416657
446654
506401
307939
312691
362431
374214
459546
367565
402635
305521
148962
283016
391428
401453
353254
352745
300488
400996
434091
433172
572021
160004
265052
348475
391637
413059
467866
480673
386227
618642
531313
577043
370929
535024
403185
499175
411736
587943
404875
302136
52371
78075
86619
104411
121037
126270
128769
129098
130501
130742
131242
134011
146164
147296
147711
155316
159076
160491
163209
165481
169950
174736
175624
176414
177493
179854
181876
182513
188392
188680
193736
194521
197964
199079
199738
200516
204749
205015
205603
207327
213135
213805
214115
216279
217076
218539
218769
224187
224555
225767
228246
228358
229027
229798
232354
232569
233291
233372
235110
235362
237056
237338
240248
242640
243023
245991
249556
252616
255951
256213
261666
262938
263322
265159
266762
267143
269234
275310
276258
276304
276415
277478
280273
280599
281836
284823
285313
285655
285822
290914
293516
293589
294507
294919
295750
296088
296731
297797
297989
300618
301396
301568
302131
303165
303958
304621
305188
305257
305590
305709
307099
307461
308429
308776
309649
310094
310786
313220
313320
314055
316013
317282
318423
319429
320131
322878
323511
324781
326319
326500
326953
327418
327499
328093
329226
330871
332541
332789
336669
337425
339009
342028
342661
342963
344113
344716
345944
347733
348095
349095
352453
352649
353011
353632
356172
358038
358415
358679
358937
359777
360179
360323
361366
362123
362775
364772
367162
367891
368660
368748
369231
370208
370854
371514
371687
372261
374530
375592
376394
376717
380357
383164
383621
384173
385732
387301
388366
388908
389744
390508
391141
391500
392336
393925
396931
397315
397623
397648
399183
400203
400541
400663
405698
407168
407409
409015
409351
409473
415919
418971
425039
426697
433158
433272
434687
439220
446981
449510
458802
465229
475367
449054
453981
464534
465207
467362
473998
496356
509338
466197
473974
474233
501444
496393
526390
417057
413921
515463
521589
459544
486442
515559
564316
360478
520357
653187
355073
415554
395241
478577
523670
468239
520129
476868
495591
517862
535332
537551
365882
566637
315586
440619
511924
548173
400247
541162
476305
334134
441486
511844
475790
534818
384270
396310
500535
604909
352784
413732
496037
497274
521787
589595
540649
310535
466528
454000
502409
636163
428862
414476
489720
309758
508537
402620
266485
555217
537717
433120
227935
360892
481496
399356
281723
444166
373033
340073
349738
496349
482311
493358
523582
269232
332502
526674