/*--------------------------------*- C++ -*----------------------------------*\
  =========                 |
  \\      /  F ield         | OpenFOAM: The Open Source CFD Toolbox
   \\    /   O peration     | Website:  https://openfoam.org
    \\  /    A nd           | Version:  7
     \\/     M anipulation  |
\*---------------------------------------------------------------------------*/
FoamFile
{
    version     2.0;
    format      ascii;
    class       volScalarField;
    location    "0.007";
    object      mag(U);
}
// * * * * * * * * * * * * * * * * * * * * * * * * * * * * * * * * * * * * * //

dimensions      [0 1 -1 0 0 0 0];

internalField   nonuniform List<scalar> 
1000
(
589.081
263.494
200.06
199.211
198.385
198.03
197.94
198.02
198.337
198.745
199.095
199.317
199.512
199.777
200.174
200.829
201.946
203.218
203.906
204.149
204.239
204.281
204.314
204.359
204.426
204.475
204.493
204.494
204.488
204.487
204.499
204.529
204.562
204.605
204.639
204.658
204.679
204.7
204.716
204.737
204.776
204.843
204.914
204.959
204.984
205.002
205.028
205.083
205.17
205.259
205.344
205.411
205.467
205.531
205.612
205.7
205.805
205.936
206.076
206.208
206.329
206.444
206.574
206.745
206.98
207.274
207.602
207.949
208.326
208.783
209.401
210.283
211.483
212.585
213.079
213.22
213.245
213.238
213.183
213.017
212.74
212.276
211.616
210.775
209.78
208.681
207.522
206.339
205.152
203.975
202.809
201.656
200.512
199.375
198.242
197.11
195.979
194.846
193.712
192.575
191.436
190.293
189.148
188
186.85
185.697
184.542
183.385
182.226
181.065
179.903
178.739
177.575
176.409
175.243
174.076
172.908
171.74
170.571
169.402
168.233
167.063
165.894
164.724
163.554
162.384
161.214
160.044
158.874
157.704
156.534
155.364
154.194
153.024
151.854
150.684
149.514
148.344
147.174
146.005
144.835
143.665
142.496
141.326
140.157
138.987
137.818
136.649
135.479
134.31
133.141
131.972
130.803
129.634
128.465
127.296
126.127
124.958
123.789
122.62
121.452
120.283
119.114
117.945
116.776
115.607
114.438
113.269
112.101
110.932
109.762
108.593
107.424
106.255
105.086
103.916
102.747
101.577
100.407
99.2374
98.0674
96.8972
95.7269
94.5565
93.3859
92.2152
91.0442
89.8731
88.7018
87.5303
86.3586
85.1866
84.0145
82.8421
81.6694
80.4966
79.3234
78.15
76.9763
75.8024
74.6281
73.4536
72.2787
71.1035
69.928
68.7522
67.576
66.3994
65.2224
64.0451
62.8674
61.6892
60.5106
59.3316
58.1521
56.9721
55.7916
54.6107
53.4291
52.2471
51.0644
49.8812
48.6973
47.5128
46.3277
45.1419
43.9553
42.7681
41.58
40.3912
39.2015
38.011
36.8196
35.6273
34.4342
33.2404
32.0462
30.8527
29.6611
28.4715
27.2839
26.1149
24.9992
23.8536
22.2413
20.034
16.9347
12.2728
7.37825
3.25274
1.19784
5.25913
9.8369
14.8235
18.7008
21.1761
23.126
24.4384
25.5424
26.6859
27.8664
29.0556
30.2472
31.4412
32.6366
33.8322
35.0275
36.2222
37.4163
38.6096
39.8023
40.9942
42.1855
43.3762
44.5664
45.7559
46.9449
48.1334
49.3214
50.509
51.6961
52.8827
54.069
55.2548
56.4403
57.6254
58.8101
59.9946
61.1787
62.3625
63.546
64.7292
65.9122
67.0949
68.2774
69.4597
70.6417
71.8236
73.0052
74.1866
75.3679
76.549
77.7299
78.9106
80.0912
81.2716
82.4519
83.6321
84.8121
85.992
87.1717
88.3514
89.5309
90.7103
91.8896
93.0689
94.248
95.427
96.6059
97.7848
98.9636
100.142
101.321
102.499
103.678
104.856
106.035
107.213
108.391
109.569
110.748
111.926
113.104
114.282
115.46
116.638
117.816
118.993
120.171
121.349
122.527
123.705
124.882
126.06
127.238
128.416
129.593
130.771
131.949
133.126
134.304
135.482
136.659
137.837
139.015
140.192
141.37
142.547
143.725
144.903
146.081
147.258
148.436
149.614
150.791
151.969
153.147
154.325
155.502
156.68
157.858
159.036
160.214
161.392
162.57
163.748
164.926
166.104
167.282
168.46
169.638
170.816
171.994
173.172
174.35
175.529
176.707
177.885
179.064
180.242
181.42
182.599
183.777
184.956
186.134
187.313
188.491
189.67
190.849
192.027
193.206
194.385
195.564
196.743
197.921
199.1
200.279
201.458
202.637
203.816
204.995
206.175
207.354
208.533
209.712
210.891
212.07
213.25
214.429
215.608
216.788
217.967
219.146
220.326
221.505
222.685
223.864
225.043
226.223
227.402
228.582
229.761
230.941
232.12
233.3
234.479
235.658
236.838
238.017
239.196
240.376
241.555
242.734
243.913
245.092
246.271
247.45
248.629
249.808
250.987
252.166
253.344
254.523
255.701
256.88
258.058
259.236
260.414
261.592
262.769
263.947
265.124
266.301
267.478
268.655
269.832
271.008
272.184
273.36
274.535
275.71
276.884
278.058
279.23
280.402
281.571
282.739
283.902
285.059
286.204
287.329
288.42
289.454
290.399
291.222
291.898
292.42
292.807
293.09
293.302
293.463
293.581
293.658
293.698
293.715
293.719
293.719
293.711
293.702
293.697
293.691
293.682
293.657
293.601
293.534
293.487
293.461
293.447
293.439
293.431
293.42
293.395
293.354
293.316
293.291
293.276
293.266
293.258
293.246
293.221
293.173
293.132
293.108
293.102
293.105
293.134
293.194
293.242
293.271
293.29
293.308
293.33
293.361
293.387
293.401
293.405
293.404
293.396
293.388
293.387
293.39
293.401
293.408
293.409
293.402
293.376
293.35
293.335
293.33
293.329
293.328
293.325
293.312
293.282
293.256
293.241
293.234
293.23
293.226
293.218
293.207
293.2
293.199
293.206
293.24
293.289
293.32
293.333
293.337
293.335
293.331
293.331
293.339
293.36
293.373
293.377
293.374
293.359
293.348
293.345
293.348
293.359
293.365
293.365
293.353
293.323
293.304
293.298
293.298
293.306
293.311
293.31
293.297
293.263
293.242
293.234
293.234
293.241
293.253
293.258
293.258
293.257
293.257
293.268
293.301
293.331
293.345
293.347
293.34
293.326
293.321
293.323
293.342
293.363
293.371
293.37
293.353
293.333
293.326
293.328
293.342
293.354
293.356
293.349
293.318
293.296
293.29
293.292
293.305
293.317
293.319
293.306
293.269
293.247
293.241
293.244
293.264
293.287
293.295
293.293
293.282
293.277
293.283
293.309
293.337
293.351
293.354
293.338
293.315
293.308
293.312
293.332
293.355
293.366
293.366
293.339
293.313
293.307
293.311
293.327
293.345
293.353
293.346
293.31
293.285
293.282
293.289
293.305
293.321
293.326
293.306
293.262
293.243
293.246
293.261
293.285
293.316
293.33
293.314
293.28
293.274
293.288
293.308
293.331
293.361
293.363
293.323
293.29
293.291
293.309
293.321
293.347
293.379
293.368
293.317
293.294
293.299
293.305
293.313
293.347
293.37
293.347
293.34
293.408
293.582
294.264
293.041
288.886
292.236
295.582
297.225
296.746
293.217
290.912
290.674
290.771
291.135
292.312
294.716
295.856
295.861
295.37
293.918
291.695
291.097
291.05
291.389
292.909
294.918
295.345
295.403
295.023
293.458
291.71
291.398
291.488
291.909
293.326
294.697
294.959
294.909
294.56
293.311
292.057
291.838
291.867
292.244
293.544
294.462
294.615
294.604
294.223
292.998
292.167
292.074
292.149
292.535
293.627
294.27
294.369
294.282
293.947
292.975
292.39
292.332
292.387
292.732
293.652
294.092
294.172
294.136
293.787
292.915
292.559
292.536
292.596
292.923
293.676
293.998
294.021
293.934
293.633
292.963
292.719
292.702
292.754
293.04
293.644
293.859
293.893
293.837
293.527
292.965
292.813
292.784
292.825
293.112
293.648
293.995
294.393
295.087
296.4
298.505
300.996
303.459
305.769
308.042
310.489
312.555
314.064
315.444
316.744
317.988
319.326
320.699
322.138
323.903
326.247
328.106
329.534
330.92
332.25
333.471
334.768
336.184
337.641
339.268
341.392
343.365
344.883
346.335
347.742
349.013
350.318
351.752
353.215
354.74
356.546
358.677
360.333
361.831
363.306
364.713
365.96
367.304
368.807
370.349
371.954
373.808
375.731
377.341
378.893
380.41
381.795
383.003
384.449
386.002
387.579
389.217
391.09
392.916
394.517
396.102
397.664
399.149
400.394
401.588
403.172
404.891
406.634
408.38
410.153
411.885
413.582
415.243
416.768
417.889
419.124
420.758
422.497
424.258
426.017
427.774
429.534
431.283
433.001
434.633
435.998
437.088
438.602
440.295
442.05
443.826
445.576
447.166
447.608
438.207
354.927
191.609
161.915
160.178
160.996
162.245
163.515
164.665
165.8
166.95
168.1
169.244
170.384
171.521
172.655
173.786
174.914
176.041
177.168
178.296
179.427
180.565
181.712
182.868
184.03
185.188
186.322
187.396
188.368
189.19
189.828
190.279
190.539
190.688
190.744
190.749
190.717
190.551
190.014
188.994
188.009
187.291
186.775
186.388
186.075
185.789
185.509
185.235
184.992
184.803
184.669
184.568
184.477
184.381
184.272
184.148
184.028
183.932
183.856
183.791
183.743
183.7
183.642
183.562
183.477
183.401
183.358
183.339
183.326
183.308
183.271
183.206
183.138
183.101
183.085
183.073
183.059
183.05
183.038
183.001
182.946
182.907
182.885
182.885
182.9
182.916
182.916
182.882
182.797
182.742
182.734
182.753
182.824
182.859
182.865
182.82
182.676
182.558
182.505
182.784
183.579
229.151
524.676
)
;

boundaryField
{
    sides
    {
        type            calculated;
        value           nonuniform List<scalar> 2(524.676 589.081);
    }
    null
    {
        type            empty;
    }
}


// ************************************************************************* //
