/*--------------------------------*- C++ -*----------------------------------*\
  =========                 |
  \\      /  F ield         | OpenFOAM: The Open Source CFD Toolbox
   \\    /   O peration     | Website:  https://openfoam.org
    \\  /    A nd           | Version:  7
     \\/     M anipulation  |
\*---------------------------------------------------------------------------*/
FoamFile
{
    version     2.0;
    format      ascii;
    class       volVectorField;
    location    "0.007";
    object      U;
}
// * * * * * * * * * * * * * * * * * * * * * * * * * * * * * * * * * * * * * //

dimensions      [0 1 -1 0 0 0 0];

internalField   nonuniform List<vector> 
1000
(
(-589.081 0 0)
(-263.494 0 0)
(-200.06 0 0)
(-199.211 0 0)
(-198.385 0 0)
(-198.03 0 0)
(-197.94 0 0)
(-198.02 0 0)
(-198.337 0 0)
(-198.745 0 0)
(-199.095 0 0)
(-199.317 0 0)
(-199.512 0 0)
(-199.777 0 0)
(-200.174 0 0)
(-200.829 0 0)
(-201.946 0 0)
(-203.218 0 0)
(-203.906 0 0)
(-204.149 0 0)
(-204.239 0 0)
(-204.281 0 0)
(-204.314 0 0)
(-204.359 0 0)
(-204.426 0 0)
(-204.475 0 0)
(-204.493 0 0)
(-204.494 0 0)
(-204.488 0 0)
(-204.487 0 0)
(-204.499 0 0)
(-204.529 0 0)
(-204.562 0 0)
(-204.605 0 0)
(-204.639 0 0)
(-204.658 0 0)
(-204.679 0 0)
(-204.7 0 0)
(-204.716 0 0)
(-204.737 0 0)
(-204.776 0 0)
(-204.843 0 0)
(-204.914 0 0)
(-204.959 0 0)
(-204.984 0 0)
(-205.002 0 0)
(-205.028 0 0)
(-205.083 0 0)
(-205.17 0 0)
(-205.259 0 0)
(-205.344 0 0)
(-205.411 0 0)
(-205.467 0 0)
(-205.531 0 0)
(-205.612 0 0)
(-205.7 0 0)
(-205.805 0 0)
(-205.936 0 0)
(-206.076 0 0)
(-206.208 0 0)
(-206.329 0 0)
(-206.444 0 0)
(-206.574 0 0)
(-206.745 0 0)
(-206.98 0 0)
(-207.274 0 0)
(-207.602 0 0)
(-207.949 0 0)
(-208.326 0 0)
(-208.783 0 0)
(-209.401 0 0)
(-210.283 0 0)
(-211.483 0 0)
(-212.585 0 0)
(-213.079 0 0)
(-213.22 0 0)
(-213.245 0 0)
(-213.238 0 0)
(-213.183 0 0)
(-213.017 0 0)
(-212.74 0 0)
(-212.276 0 0)
(-211.616 0 0)
(-210.775 0 0)
(-209.78 0 0)
(-208.681 0 0)
(-207.522 0 0)
(-206.339 0 0)
(-205.152 0 0)
(-203.975 0 0)
(-202.809 0 0)
(-201.656 0 0)
(-200.512 0 0)
(-199.375 0 0)
(-198.242 0 0)
(-197.11 0 0)
(-195.979 0 0)
(-194.846 0 0)
(-193.712 0 0)
(-192.575 0 0)
(-191.436 0 0)
(-190.293 0 0)
(-189.148 0 0)
(-188 0 0)
(-186.85 0 0)
(-185.697 0 0)
(-184.542 0 0)
(-183.385 0 0)
(-182.226 0 0)
(-181.065 0 0)
(-179.903 0 0)
(-178.739 0 0)
(-177.575 0 0)
(-176.409 0 0)
(-175.243 0 0)
(-174.076 0 0)
(-172.908 0 0)
(-171.74 0 0)
(-170.571 0 0)
(-169.402 0 0)
(-168.233 0 0)
(-167.063 0 0)
(-165.894 0 0)
(-164.724 0 0)
(-163.554 0 0)
(-162.384 0 0)
(-161.214 0 0)
(-160.044 0 0)
(-158.874 0 0)
(-157.704 0 0)
(-156.534 0 0)
(-155.364 0 0)
(-154.194 0 0)
(-153.024 0 0)
(-151.854 0 0)
(-150.684 0 0)
(-149.514 0 0)
(-148.344 0 0)
(-147.174 0 0)
(-146.005 0 0)
(-144.835 0 0)
(-143.665 0 0)
(-142.496 0 0)
(-141.326 0 0)
(-140.157 0 0)
(-138.987 0 0)
(-137.818 0 0)
(-136.649 0 0)
(-135.479 0 0)
(-134.31 0 0)
(-133.141 0 0)
(-131.972 0 0)
(-130.803 0 0)
(-129.634 0 0)
(-128.465 0 0)
(-127.296 0 0)
(-126.127 0 0)
(-124.958 0 0)
(-123.789 0 0)
(-122.62 0 0)
(-121.452 0 0)
(-120.283 0 0)
(-119.114 0 0)
(-117.945 0 0)
(-116.776 0 0)
(-115.607 0 0)
(-114.438 0 0)
(-113.269 0 0)
(-112.101 0 0)
(-110.932 0 0)
(-109.762 0 0)
(-108.593 0 0)
(-107.424 0 0)
(-106.255 0 0)
(-105.086 0 0)
(-103.916 0 0)
(-102.747 0 0)
(-101.577 0 0)
(-100.407 0 0)
(-99.2374 0 0)
(-98.0674 0 0)
(-96.8972 0 0)
(-95.7269 0 0)
(-94.5565 0 0)
(-93.3859 0 0)
(-92.2152 0 0)
(-91.0442 0 0)
(-89.8731 0 0)
(-88.7018 0 0)
(-87.5303 0 0)
(-86.3586 0 0)
(-85.1866 0 0)
(-84.0145 0 0)
(-82.8421 0 0)
(-81.6694 0 0)
(-80.4966 0 0)
(-79.3234 0 0)
(-78.15 0 0)
(-76.9763 0 0)
(-75.8024 0 0)
(-74.6281 0 0)
(-73.4536 0 0)
(-72.2787 0 0)
(-71.1035 0 0)
(-69.928 0 0)
(-68.7522 0 0)
(-67.576 0 0)
(-66.3994 0 0)
(-65.2224 0 0)
(-64.0451 0 0)
(-62.8674 0 0)
(-61.6892 0 0)
(-60.5106 0 0)
(-59.3316 0 0)
(-58.1521 0 0)
(-56.9721 0 0)
(-55.7916 0 0)
(-54.6107 0 0)
(-53.4291 0 0)
(-52.2471 0 0)
(-51.0644 0 0)
(-49.8812 0 0)
(-48.6973 0 0)
(-47.5128 0 0)
(-46.3277 0 0)
(-45.1419 0 0)
(-43.9553 0 0)
(-42.7681 0 0)
(-41.58 0 0)
(-40.3912 0 0)
(-39.2015 0 0)
(-38.011 0 0)
(-36.8196 0 0)
(-35.6273 0 0)
(-34.4342 0 0)
(-33.2404 0 0)
(-32.0462 0 0)
(-30.8527 0 0)
(-29.6611 0 0)
(-28.4715 0 0)
(-27.2839 0 0)
(-26.1149 0 0)
(-24.9992 0 0)
(-23.8536 0 0)
(-22.2413 0 0)
(-20.034 0 0)
(-16.9347 0 0)
(-12.2728 0 0)
(-7.37825 0 0)
(-3.25274 0 0)
(1.19784 0 0)
(5.25913 0 0)
(9.8369 0 0)
(14.8235 0 0)
(18.7008 0 0)
(21.1761 0 0)
(23.126 0 0)
(24.4384 0 0)
(25.5424 0 0)
(26.6859 0 0)
(27.8664 0 0)
(29.0556 0 0)
(30.2472 0 0)
(31.4412 0 0)
(32.6366 0 0)
(33.8322 0 0)
(35.0275 0 0)
(36.2222 0 0)
(37.4163 0 0)
(38.6096 0 0)
(39.8023 0 0)
(40.9942 0 0)
(42.1855 0 0)
(43.3762 0 0)
(44.5664 0 0)
(45.7559 0 0)
(46.9449 0 0)
(48.1334 0 0)
(49.3214 0 0)
(50.509 0 0)
(51.6961 0 0)
(52.8827 0 0)
(54.069 0 0)
(55.2548 0 0)
(56.4403 0 0)
(57.6254 0 0)
(58.8101 0 0)
(59.9946 0 0)
(61.1787 0 0)
(62.3625 0 0)
(63.546 0 0)
(64.7292 0 0)
(65.9122 0 0)
(67.0949 0 0)
(68.2774 0 0)
(69.4597 0 0)
(70.6417 0 0)
(71.8236 0 0)
(73.0052 0 0)
(74.1866 0 0)
(75.3679 0 0)
(76.549 0 0)
(77.7299 0 0)
(78.9106 0 0)
(80.0912 0 0)
(81.2716 0 0)
(82.4519 0 0)
(83.6321 0 0)
(84.8121 0 0)
(85.992 0 0)
(87.1717 0 0)
(88.3514 0 0)
(89.5309 0 0)
(90.7103 0 0)
(91.8896 0 0)
(93.0689 0 0)
(94.248 0 0)
(95.427 0 0)
(96.6059 0 0)
(97.7848 0 0)
(98.9636 0 0)
(100.142 0 0)
(101.321 0 0)
(102.499 0 0)
(103.678 0 0)
(104.856 0 0)
(106.035 0 0)
(107.213 0 0)
(108.391 0 0)
(109.569 0 0)
(110.748 0 0)
(111.926 0 0)
(113.104 0 0)
(114.282 0 0)
(115.46 0 0)
(116.638 0 0)
(117.816 0 0)
(118.993 0 0)
(120.171 0 0)
(121.349 0 0)
(122.527 0 0)
(123.705 0 0)
(124.882 0 0)
(126.06 0 0)
(127.238 0 0)
(128.416 0 0)
(129.593 0 0)
(130.771 0 0)
(131.949 0 0)
(133.126 0 0)
(134.304 0 0)
(135.482 0 0)
(136.659 0 0)
(137.837 0 0)
(139.015 0 0)
(140.192 0 0)
(141.37 0 0)
(142.547 0 0)
(143.725 0 0)
(144.903 0 0)
(146.081 0 0)
(147.258 0 0)
(148.436 0 0)
(149.614 0 0)
(150.791 0 0)
(151.969 0 0)
(153.147 0 0)
(154.325 0 0)
(155.502 0 0)
(156.68 0 0)
(157.858 0 0)
(159.036 0 0)
(160.214 0 0)
(161.392 0 0)
(162.57 0 0)
(163.748 0 0)
(164.926 0 0)
(166.104 0 0)
(167.282 0 0)
(168.46 0 0)
(169.638 0 0)
(170.816 0 0)
(171.994 0 0)
(173.172 0 0)
(174.35 0 0)
(175.529 0 0)
(176.707 0 0)
(177.885 0 0)
(179.064 0 0)
(180.242 0 0)
(181.42 0 0)
(182.599 0 0)
(183.777 0 0)
(184.956 0 0)
(186.134 0 0)
(187.313 0 0)
(188.491 0 0)
(189.67 0 0)
(190.849 0 0)
(192.027 0 0)
(193.206 0 0)
(194.385 0 0)
(195.564 0 0)
(196.743 0 0)
(197.921 0 0)
(199.1 0 0)
(200.279 0 0)
(201.458 0 0)
(202.637 0 0)
(203.816 0 0)
(204.995 0 0)
(206.175 0 0)
(207.354 0 0)
(208.533 0 0)
(209.712 0 0)
(210.891 0 0)
(212.07 0 0)
(213.25 0 0)
(214.429 0 0)
(215.608 0 0)
(216.788 0 0)
(217.967 0 0)
(219.146 0 0)
(220.326 0 0)
(221.505 0 0)
(222.685 0 0)
(223.864 0 0)
(225.043 0 0)
(226.223 0 0)
(227.402 0 0)
(228.582 0 0)
(229.761 0 0)
(230.941 0 0)
(232.12 0 0)
(233.3 0 0)
(234.479 0 0)
(235.658 0 0)
(236.838 0 0)
(238.017 0 0)
(239.196 0 0)
(240.376 0 0)
(241.555 0 0)
(242.734 0 0)
(243.913 0 0)
(245.092 0 0)
(246.271 0 0)
(247.45 0 0)
(248.629 0 0)
(249.808 0 0)
(250.987 0 0)
(252.166 0 0)
(253.344 0 0)
(254.523 0 0)
(255.701 0 0)
(256.88 0 0)
(258.058 0 0)
(259.236 0 0)
(260.414 0 0)
(261.592 0 0)
(262.769 0 0)
(263.947 0 0)
(265.124 0 0)
(266.301 0 0)
(267.478 0 0)
(268.655 0 0)
(269.832 0 0)
(271.008 0 0)
(272.184 0 0)
(273.36 0 0)
(274.535 0 0)
(275.71 0 0)
(276.884 0 0)
(278.058 0 0)
(279.23 0 0)
(280.402 0 0)
(281.571 0 0)
(282.739 0 0)
(283.902 0 0)
(285.059 0 0)
(286.204 0 0)
(287.329 0 0)
(288.42 0 0)
(289.454 0 0)
(290.399 0 0)
(291.222 0 0)
(291.898 0 0)
(292.42 0 0)
(292.807 0 0)
(293.09 0 0)
(293.302 0 0)
(293.463 0 0)
(293.581 0 0)
(293.658 0 0)
(293.698 0 0)
(293.715 0 0)
(293.719 0 0)
(293.719 0 0)
(293.711 0 0)
(293.702 0 0)
(293.697 0 0)
(293.691 0 0)
(293.682 0 0)
(293.657 0 0)
(293.601 0 0)
(293.534 0 0)
(293.487 0 0)
(293.461 0 0)
(293.447 0 0)
(293.439 0 0)
(293.431 0 0)
(293.42 0 0)
(293.395 0 0)
(293.354 0 0)
(293.316 0 0)
(293.291 0 0)
(293.276 0 0)
(293.266 0 0)
(293.258 0 0)
(293.246 0 0)
(293.221 0 0)
(293.173 0 0)
(293.132 0 0)
(293.108 0 0)
(293.102 0 0)
(293.105 0 0)
(293.134 0 0)
(293.194 0 0)
(293.242 0 0)
(293.271 0 0)
(293.29 0 0)
(293.308 0 0)
(293.33 0 0)
(293.361 0 0)
(293.387 0 0)
(293.401 0 0)
(293.405 0 0)
(293.404 0 0)
(293.396 0 0)
(293.388 0 0)
(293.387 0 0)
(293.39 0 0)
(293.401 0 0)
(293.408 0 0)
(293.409 0 0)
(293.402 0 0)
(293.376 0 0)
(293.35 0 0)
(293.335 0 0)
(293.33 0 0)
(293.329 0 0)
(293.328 0 0)
(293.325 0 0)
(293.312 0 0)
(293.282 0 0)
(293.256 0 0)
(293.241 0 0)
(293.234 0 0)
(293.23 0 0)
(293.226 0 0)
(293.218 0 0)
(293.207 0 0)
(293.2 0 0)
(293.199 0 0)
(293.206 0 0)
(293.24 0 0)
(293.289 0 0)
(293.32 0 0)
(293.333 0 0)
(293.337 0 0)
(293.335 0 0)
(293.331 0 0)
(293.331 0 0)
(293.339 0 0)
(293.36 0 0)
(293.373 0 0)
(293.377 0 0)
(293.374 0 0)
(293.359 0 0)
(293.348 0 0)
(293.345 0 0)
(293.348 0 0)
(293.359 0 0)
(293.365 0 0)
(293.365 0 0)
(293.353 0 0)
(293.323 0 0)
(293.304 0 0)
(293.298 0 0)
(293.298 0 0)
(293.306 0 0)
(293.311 0 0)
(293.31 0 0)
(293.297 0 0)
(293.263 0 0)
(293.242 0 0)
(293.234 0 0)
(293.234 0 0)
(293.241 0 0)
(293.253 0 0)
(293.258 0 0)
(293.258 0 0)
(293.257 0 0)
(293.257 0 0)
(293.268 0 0)
(293.301 0 0)
(293.331 0 0)
(293.345 0 0)
(293.347 0 0)
(293.34 0 0)
(293.326 0 0)
(293.321 0 0)
(293.323 0 0)
(293.342 0 0)
(293.363 0 0)
(293.371 0 0)
(293.37 0 0)
(293.353 0 0)
(293.333 0 0)
(293.326 0 0)
(293.328 0 0)
(293.342 0 0)
(293.354 0 0)
(293.356 0 0)
(293.349 0 0)
(293.318 0 0)
(293.296 0 0)
(293.29 0 0)
(293.292 0 0)
(293.305 0 0)
(293.317 0 0)
(293.319 0 0)
(293.306 0 0)
(293.269 0 0)
(293.247 0 0)
(293.241 0 0)
(293.244 0 0)
(293.264 0 0)
(293.287 0 0)
(293.295 0 0)
(293.293 0 0)
(293.282 0 0)
(293.277 0 0)
(293.283 0 0)
(293.309 0 0)
(293.337 0 0)
(293.351 0 0)
(293.354 0 0)
(293.338 0 0)
(293.315 0 0)
(293.308 0 0)
(293.312 0 0)
(293.332 0 0)
(293.355 0 0)
(293.366 0 0)
(293.366 0 0)
(293.339 0 0)
(293.313 0 0)
(293.307 0 0)
(293.311 0 0)
(293.327 0 0)
(293.345 0 0)
(293.353 0 0)
(293.346 0 0)
(293.31 0 0)
(293.285 0 0)
(293.282 0 0)
(293.289 0 0)
(293.305 0 0)
(293.321 0 0)
(293.326 0 0)
(293.306 0 0)
(293.262 0 0)
(293.243 0 0)
(293.246 0 0)
(293.261 0 0)
(293.285 0 0)
(293.316 0 0)
(293.33 0 0)
(293.314 0 0)
(293.28 0 0)
(293.274 0 0)
(293.288 0 0)
(293.308 0 0)
(293.331 0 0)
(293.361 0 0)
(293.363 0 0)
(293.323 0 0)
(293.29 0 0)
(293.291 0 0)
(293.309 0 0)
(293.321 0 0)
(293.347 0 0)
(293.379 0 0)
(293.368 0 0)
(293.317 0 0)
(293.294 0 0)
(293.299 0 0)
(293.305 0 0)
(293.313 0 0)
(293.347 0 0)
(293.37 0 0)
(293.347 0 0)
(293.34 0 0)
(293.408 0 0)
(293.582 0 0)
(294.264 0 0)
(293.041 0 0)
(288.886 0 0)
(292.236 0 0)
(295.582 0 0)
(297.225 0 0)
(296.746 0 0)
(293.217 0 0)
(290.912 0 0)
(290.674 0 0)
(290.771 0 0)
(291.135 0 0)
(292.312 0 0)
(294.716 0 0)
(295.856 0 0)
(295.861 0 0)
(295.37 0 0)
(293.918 0 0)
(291.695 0 0)
(291.097 0 0)
(291.05 0 0)
(291.389 0 0)
(292.909 0 0)
(294.918 0 0)
(295.345 0 0)
(295.403 0 0)
(295.023 0 0)
(293.458 0 0)
(291.71 0 0)
(291.398 0 0)
(291.488 0 0)
(291.909 0 0)
(293.326 0 0)
(294.697 0 0)
(294.959 0 0)
(294.909 0 0)
(294.56 0 0)
(293.311 0 0)
(292.057 0 0)
(291.838 0 0)
(291.867 0 0)
(292.244 0 0)
(293.544 0 0)
(294.462 0 0)
(294.615 0 0)
(294.604 0 0)
(294.223 0 0)
(292.998 0 0)
(292.167 0 0)
(292.074 0 0)
(292.149 0 0)
(292.535 0 0)
(293.627 0 0)
(294.27 0 0)
(294.369 0 0)
(294.282 0 0)
(293.947 0 0)
(292.975 0 0)
(292.39 0 0)
(292.332 0 0)
(292.387 0 0)
(292.732 0 0)
(293.652 0 0)
(294.092 0 0)
(294.172 0 0)
(294.136 0 0)
(293.787 0 0)
(292.915 0 0)
(292.559 0 0)
(292.536 0 0)
(292.596 0 0)
(292.923 0 0)
(293.676 0 0)
(293.998 0 0)
(294.021 0 0)
(293.934 0 0)
(293.633 0 0)
(292.963 0 0)
(292.719 0 0)
(292.702 0 0)
(292.754 0 0)
(293.04 0 0)
(293.644 0 0)
(293.859 0 0)
(293.893 0 0)
(293.837 0 0)
(293.527 0 0)
(292.965 0 0)
(292.813 0 0)
(292.784 0 0)
(292.825 0 0)
(293.112 0 0)
(293.648 0 0)
(293.995 0 0)
(294.393 0 0)
(295.087 0 0)
(296.4 0 0)
(298.505 0 0)
(300.996 0 0)
(303.459 0 0)
(305.769 0 0)
(308.042 0 0)
(310.489 0 0)
(312.555 0 0)
(314.064 0 0)
(315.444 0 0)
(316.744 0 0)
(317.988 0 0)
(319.326 0 0)
(320.699 0 0)
(322.138 0 0)
(323.903 0 0)
(326.247 0 0)
(328.106 0 0)
(329.534 0 0)
(330.92 0 0)
(332.25 0 0)
(333.471 0 0)
(334.768 0 0)
(336.184 0 0)
(337.641 0 0)
(339.268 0 0)
(341.392 0 0)
(343.365 0 0)
(344.883 0 0)
(346.335 0 0)
(347.742 0 0)
(349.013 0 0)
(350.318 0 0)
(351.752 0 0)
(353.215 0 0)
(354.74 0 0)
(356.546 0 0)
(358.677 0 0)
(360.333 0 0)
(361.831 0 0)
(363.306 0 0)
(364.713 0 0)
(365.96 0 0)
(367.304 0 0)
(368.807 0 0)
(370.349 0 0)
(371.954 0 0)
(373.808 0 0)
(375.731 0 0)
(377.341 0 0)
(378.893 0 0)
(380.41 0 0)
(381.795 0 0)
(383.003 0 0)
(384.449 0 0)
(386.002 0 0)
(387.579 0 0)
(389.217 0 0)
(391.09 0 0)
(392.916 0 0)
(394.517 0 0)
(396.102 0 0)
(397.664 0 0)
(399.149 0 0)
(400.394 0 0)
(401.588 0 0)
(403.172 0 0)
(404.891 0 0)
(406.634 0 0)
(408.38 0 0)
(410.153 0 0)
(411.885 0 0)
(413.582 0 0)
(415.243 0 0)
(416.768 0 0)
(417.889 0 0)
(419.124 0 0)
(420.758 0 0)
(422.497 0 0)
(424.258 0 0)
(426.017 0 0)
(427.774 0 0)
(429.534 0 0)
(431.283 0 0)
(433.001 0 0)
(434.633 0 0)
(435.998 0 0)
(437.088 0 0)
(438.602 0 0)
(440.295 0 0)
(442.05 0 0)
(443.826 0 0)
(445.576 0 0)
(447.166 0 0)
(447.608 0 0)
(438.207 0 0)
(354.927 0 0)
(191.609 0 0)
(161.915 0 0)
(160.178 0 0)
(160.996 0 0)
(162.245 0 0)
(163.515 0 0)
(164.665 0 0)
(165.8 0 0)
(166.95 0 0)
(168.1 0 0)
(169.244 0 0)
(170.384 0 0)
(171.521 0 0)
(172.655 0 0)
(173.786 0 0)
(174.914 0 0)
(176.041 0 0)
(177.168 0 0)
(178.296 0 0)
(179.427 0 0)
(180.565 0 0)
(181.712 0 0)
(182.868 0 0)
(184.03 0 0)
(185.188 0 0)
(186.322 0 0)
(187.396 0 0)
(188.368 0 0)
(189.19 0 0)
(189.828 0 0)
(190.279 0 0)
(190.539 0 0)
(190.688 0 0)
(190.744 0 0)
(190.749 0 0)
(190.717 0 0)
(190.551 0 0)
(190.014 0 0)
(188.994 0 0)
(188.009 0 0)
(187.291 0 0)
(186.775 0 0)
(186.388 0 0)
(186.075 0 0)
(185.789 0 0)
(185.509 0 0)
(185.235 0 0)
(184.992 0 0)
(184.803 0 0)
(184.669 0 0)
(184.568 0 0)
(184.477 0 0)
(184.381 0 0)
(184.272 0 0)
(184.148 0 0)
(184.028 0 0)
(183.932 0 0)
(183.856 0 0)
(183.791 0 0)
(183.743 0 0)
(183.7 0 0)
(183.642 0 0)
(183.562 0 0)
(183.477 0 0)
(183.401 0 0)
(183.358 0 0)
(183.339 0 0)
(183.326 0 0)
(183.308 0 0)
(183.271 0 0)
(183.206 0 0)
(183.138 0 0)
(183.101 0 0)
(183.085 0 0)
(183.073 0 0)
(183.059 0 0)
(183.05 0 0)
(183.038 0 0)
(183.001 0 0)
(182.946 0 0)
(182.907 0 0)
(182.885 0 0)
(182.885 0 0)
(182.9 0 0)
(182.916 0 0)
(182.916 0 0)
(182.882 0 0)
(182.797 0 0)
(182.742 0 0)
(182.734 0 0)
(182.753 0 0)
(182.824 0 0)
(182.859 0 0)
(182.865 0 0)
(182.82 0 0)
(182.676 0 0)
(182.558 0 0)
(182.505 0 0)
(182.784 0 0)
(183.579 0 0)
(229.151 0 0)
(524.676 0 0)
)
;

boundaryField
{
    sides
    {
        type            zeroGradient;
    }
    null
    {
        type            empty;
    }
}


// ************************************************************************* //
