/*--------------------------------*- C++ -*----------------------------------*\
  =========                 |
  \\      /  F ield         | OpenFOAM: The Open Source CFD Toolbox
   \\    /   O peration     | Website:  https://openfoam.org
    \\  /    A nd           | Version:  7
     \\/     M anipulation  |
\*---------------------------------------------------------------------------*/
FoamFile
{
    version     2.0;
    format      ascii;
    class       volScalarField;
    location    "0.0075";
    object      rhoN;
}
// * * * * * * * * * * * * * * * * * * * * * * * * * * * * * * * * * * * * * //

dimensions      [0 -3 0 0 0 0 0];

internalField   nonuniform List<scalar> 
250
(
1.4925e+20
1.467e+20
1.47e+20
1.428e+20
1.446e+20
1.4325e+20
1.4415e+20
1.4595e+20
1.4175e+20
1.4415e+20
1.506e+20
1.5285e+20
1.4445e+20
1.4745e+20
1.5285e+20
1.503e+20
1.593e+20
1.47e+20
1.437e+20
1.47e+20
1.566e+20
1.491e+20
1.5015e+20
1.455e+20
1.422e+20
1.4925e+20
1.4415e+20
1.476e+20
1.455e+20
1.41e+20
1.4535e+20
1.389e+20
1.4805e+20
1.4145e+20
1.4235e+20
1.4505e+20
1.5135e+20
1.4715e+20
1.3935e+20
1.452e+20
1.4145e+20
1.4985e+20
1.4355e+20
1.56e+20
1.4385e+20
1.35e+20
1.368e+20
1.5015e+20
1.407e+20
1.449e+20
1.4745e+20
1.5135e+20
1.452e+20
1.3215e+20
1.4295e+20
1.4295e+20
1.5075e+20
1.4775e+20
1.425e+20
1.3845e+20
1.434e+20
1.494e+20
1.5045e+20
1.5e+20
1.3785e+20
1.473e+20
1.4955e+20
1.446e+20
1.4715e+20
1.443e+20
1.5e+20
1.446e+20
1.3845e+20
1.395e+20
1.398e+20
1.455e+20
1.332e+20
1.407e+20
1.371e+20
1.404e+20
1.341e+20
1.407e+20
1.4145e+20
1.458e+20
1.2885e+20
1.4235e+20
1.44e+20
1.4475e+20
1.365e+20
1.5255e+20
1.3965e+20
1.443e+20
1.29e+20
1.44e+20
1.4865e+20
1.425e+20
1.4595e+20
1.4865e+20
1.359e+20
1.431e+20
1.4235e+20
1.341e+20
1.443e+20
1.4475e+20
1.458e+20
1.3845e+20
1.3725e+20
1.3695e+20
1.3845e+20
1.4595e+20
1.4055e+20
1.317e+20
1.4265e+20
1.392e+20
1.443e+20
1.4775e+20
1.359e+20
1.3545e+20
1.3725e+20
1.3605e+20
1.3665e+20
1.4625e+20
1.3905e+20
1.3575e+20
1.3395e+20
1.3545e+20
1.317e+20
1.356e+20
1.4805e+20
1.3545e+20
1.3755e+20
1.2915e+20
1.3215e+20
1.4385e+20
1.3185e+20
1.425e+20
1.437e+20
1.371e+20
1.311e+20
1.413e+20
1.3065e+20
1.3185e+20
1.32e+20
1.398e+20
1.3845e+20
1.3485e+20
1.377e+20
1.422e+20
1.3695e+20
1.383e+20
1.374e+20
1.386e+20
1.3365e+20
1.2915e+20
1.3335e+20
1.29e+20
1.398e+20
1.35e+20
1.4295e+20
1.359e+20
1.3755e+20
1.3575e+20
1.2885e+20
1.3065e+20
1.2945e+20
1.3905e+20
1.3485e+20
1.3995e+20
1.3485e+20
1.368e+20
1.314e+20
1.3185e+20
1.308e+20
1.4235e+20
1.299e+20
1.38e+20
1.3155e+20
1.341e+20
1.29e+20
1.3305e+20
1.308e+20
1.371e+20
1.326e+20
1.1895e+20
1.323e+20
1.3275e+20
1.2735e+20
1.2825e+20
1.2345e+20
1.293e+20
1.2825e+20
1.302e+20
1.2405e+20
1.3695e+20
1.3665e+20
1.281e+20
1.284e+20
1.272e+20
1.2885e+20
1.3095e+20
1.2675e+20
1.356e+20
1.3275e+20
1.305e+20
1.302e+20
1.245e+20
1.2045e+20
1.35e+20
1.3065e+20
1.2435e+20
1.278e+20
1.278e+20
1.3485e+20
1.362e+20
1.284e+20
1.272e+20
1.2555e+20
1.326e+20
1.2375e+20
1.284e+20
1.344e+20
1.2405e+20
1.2975e+20
1.2555e+20
1.2525e+20
1.3335e+20
1.2915e+20
1.2705e+20
1.2615e+20
1.1985e+20
1.3005e+20
1.281e+20
1.2855e+20
1.1865e+20
1.323e+20
1.2555e+20
1.2555e+20
1.275e+20
1.1835e+20
1.2915e+20
1.1355e+20
1.266e+20
1.3155e+20
1.272e+20
1.254e+20
1.26e+20
1.1475e+20
1.2e+20
1.1505e+20
1.215e+20
)
;

boundaryField
{
    sides
    {
        type            symmetry;
    }
    empty
    {
        type            empty;
    }
    procBoundary2to1
    {
        type            processor;
        value           uniform 1.407e+20;
    }
    procBoundary2to3
    {
        type            processor;
        value           uniform 1.197e+20;
    }
}


// ************************************************************************* //
