/*--------------------------------*- C++ -*----------------------------------*\
  =========                 |
  \\      /  F ield         | OpenFOAM: The Open Source CFD Toolbox
   \\    /   O peration     | Website:  https://openfoam.org
    \\  /    A nd           | Version:  7
     \\/     M anipulation  |
\*---------------------------------------------------------------------------*/
FoamFile
{
    version     2.0;
    format      ascii;
    class       volVectorField;
    location    "0.3";
    object      U;
}
// * * * * * * * * * * * * * * * * * * * * * * * * * * * * * * * * * * * * * //

dimensions      [0 1 -1 0 0 0 0];

internalField   nonuniform List<vector> 
1935
(
(-0.038522 0.0189248 0)
(-0.0531592 -0.000185501 0)
(-0.0327057 -0.0166116 0)
(0.00012904 -0.0212448 0)
(0.0395937 -0.0224192 0)
(0.079308 -0.0214717 0)
(0.11738 -0.0197464 0)
(0.152949 -0.0179626 0)
(0.185926 -0.016391 0)
(0.216689 -0.0151133 0)
(0.245756 -0.0141358 0)
(0.27362 -0.0134295 0)
(0.300709 -0.0129517 0)
(0.327376 -0.0126586 0)
(0.353903 -0.0125106 0)
(0.380501 -0.012473 0)
(0.407323 -0.0125153 0)
(0.434463 -0.0126105 0)
(0.461971 -0.0127339 0)
(0.489847 -0.0128621 0)
(0.518047 -0.0129723 0)
(0.546481 -0.0130416 0)
(0.575013 -0.0130458 0)
(0.603454 -0.0129591 0)
(0.631559 -0.0127532 0)
(0.65902 -0.0123959 0)
(0.685452 -0.0118502 0)
(0.710384 -0.011072 0)
(0.733236 -0.0100051 0)
(0.75328 -0.00857523 0)
(0.769625 -0.00665195 0)
(0.780853 -0.00402862 0)
(0.786245 0.000213947 0)
(0.7806 0.00604413 0)
(0.761128 0.0137725 0)
(0.724891 0.0235204 0)
(0.66855 0.0351842 0)
(0.589053 0.0482387 0)
(0.484763 0.061159 0)
(0.356999 0.0710982 0)
(0.211362 0.0744684 0)
(0.0611065 0.0698373 0)
(-0.0876574 0.0594737 0)
(-0.234316 0.0148253 0)
(-0.0202592 0.044654 0)
(-0.00862144 -0.00108331 0)
(0.0127885 -0.0291461 0)
(0.0441073 -0.0411079 0)
(0.0789464 -0.0447947 0)
(0.114366 -0.0442135 0)
(0.148856 -0.0418874 0)
(0.181798 -0.0391608 0)
(0.213116 -0.0366532 0)
(0.243033 -0.0346119 0)
(0.27188 -0.0330969 0)
(0.299997 -0.0320765 0)
(0.327687 -0.0314809 0)
(0.355204 -0.0312301 0)
(0.382748 -0.0312462 0)
(0.410465 -0.0314578 0)
(0.438453 -0.0318002 0)
(0.466763 -0.0322147 0)
(0.495407 -0.0326468 0)
(0.524358 -0.0330446 0)
(0.553551 -0.0333566 0)
(0.582881 -0.0335301 0)
(0.612202 -0.033509 0)
(0.641323 -0.0332318 0)
(0.670001 -0.0326298 0)
(0.697933 -0.0316244 0)
(0.724751 -0.0301239 0)
(0.750005 -0.0280185 0)
(0.773152 -0.0251719 0)
(0.793538 -0.0214063 0)
(0.810393 -0.0164583 0)
(0.822865 -0.0099552 0)
(0.829633 -0.00110249 0)
(0.831546 0.0106089 0)
(0.826909 0.0257133 0)
(0.813255 0.0446591 0)
(0.787497 0.0677369 0)
(0.745601 0.0946517 0)
(0.682489 0.123741 0)
(0.59273 0.151207 0)
(0.472544 0.170864 0)
(0.325369 0.176273 0)
(0.165019 0.163085 0)
(0.0190086 0.110961 0)
(0.00205067 0.0432157 0)
(0.0174262 -0.0164899 0)
(0.0420722 -0.0497303 0)
(0.0722023 -0.0646496 0)
(0.104383 -0.0691826 0)
(0.136813 -0.0684026 0)
(0.168597 -0.0653727 0)
(0.199394 -0.0617877 0)
(0.229195 -0.0584788 0)
(0.258161 -0.0557921 0)
(0.286518 -0.053819 0)
(0.314496 -0.0525232 0)
(0.342303 -0.0518125 0)
(0.37011 -0.0515765 0)
(0.398047 -0.0517053 0)
(0.426208 -0.0520961 0)
(0.454647 -0.0526553 0)
(0.483387 -0.0532974 0)
(0.512414 -0.0539427 0)
(0.541688 -0.0545144 0)
(0.571132 -0.0549355 0)
(0.600639 -0.0551262 0)
(0.630062 -0.0550003 0)
(0.659213 -0.0544626 0)
(0.687857 -0.0534058 0)
(0.715704 -0.0517066 0)
(0.742403 -0.0492217 0)
(0.76753 -0.0457812 0)
(0.790578 -0.0411792 0)
(0.810949 -0.0351603 0)
(0.827946 -0.0273987 0)
(0.84078 -0.0174779 0)
(0.848445 -0.00491427 0)
(0.850297 0.0111303 0)
(0.845495 0.0315063 0)
(0.832911 0.0570847 0)
(0.81125 0.088592 0)
(0.778944 0.126217 0)
(0.733888 0.168867 0)
(0.673002 0.213004 0)
(0.591931 0.2514 0)
(0.486943 0.273196 0)
(0.360011 0.264978 0)
(0.225678 0.204427 0)
(0.0106866 0.0295244 0)
(0.0314655 -0.0341216 0)
(0.0603502 -0.0717102 0)
(0.0913458 -0.088329 0)
(0.122472 -0.0930959 0)
(0.153117 -0.0919091 0)
(0.183059 -0.0882455 0)
(0.212296 -0.0840124 0)
(0.24094 -0.0801515 0)
(0.269151 -0.0770545 0)
(0.297097 -0.0748201 0)
(0.324931 -0.0733997 0)
(0.352786 -0.0726795 0)
(0.380767 -0.0725242 0)
(0.408952 -0.0727982 0)
(0.43739 -0.0733747 0)
(0.466105 -0.0741374 0)
(0.495095 -0.0749792 0)
(0.524335 -0.0757996 0)
(0.553772 -0.0765002 0)
(0.583328 -0.0769814 0)
(0.612895 -0.0771383 0)
(0.642329 -0.0768565 0)
(0.67145 -0.0760088 0)
(0.700031 -0.074451 0)
(0.727797 -0.0720178 0)
(0.754414 -0.0685177 0)
(0.779481 -0.0637261 0)
(0.802527 -0.0573754 0)
(0.822997 -0.0491424 0)
(0.840253 -0.0386323 0)
(0.853572 -0.0253621 0)
(0.862116 -0.00875932 0)
(0.865077 0.0119672 0)
(0.861647 0.0376865 0)
(0.850989 0.0693013 0)
(0.832302 0.107588 0)
(0.804815 0.152886 0)
(0.767676 0.204503 0)
(0.719583 0.259669 0)
(0.658042 0.311966 0)
(0.578892 0.349704 0)
(0.477548 0.354666 0)
(0.354063 0.300252 0)
(0.0121277 0.0127689 0)
(0.0383112 -0.0565668 0)
(0.0712525 -0.0956786 0)
(0.103706 -0.112227 0)
(0.13462 -0.116362 0)
(0.164307 -0.114488 0)
(0.193116 -0.110248 0)
(0.221345 -0.105582 0)
(0.249232 -0.101428 0)
(0.276956 -0.0981631 0)
(0.304655 -0.0958684 0)
(0.332432 -0.094476 0)
(0.360364 -0.0938533 0)
(0.388507 -0.0938465 0)
(0.4169 -0.0943026 0)
(0.44556 -0.0950779 0)
(0.474488 -0.0960399 0)
(0.503668 -0.0970656 0)
(0.533065 -0.0980374 0)
(0.562623 -0.098839 0)
(0.592264 -0.0993507 0)
(0.62188 -0.0994446 0)
(0.651338 -0.0989801 0)
(0.680463 -0.0977996 0)
(0.709041 -0.0957241 0)
(0.736812 -0.0925488 0)
(0.763458 -0.0880373 0)
(0.788603 -0.0819149 0)
(0.811807 -0.0738593 0)
(0.832555 -0.0634888 0)
(0.850262 -0.0503484 0)
(0.864273 -0.033897 0)
(0.873852 -0.0135041 0)
(0.878241 0.0116066 0)
(0.8767 0.0423009 0)
(0.868517 0.0794458 0)
(0.853061 0.12376 0)
(0.829776 0.175547 0)
(0.798092 0.234225 0)
(0.757139 0.297508 0)
(0.705106 0.360049 0)
(0.638305 0.411406 0)
(0.550282 0.433369 0)
(0.433502 0.398135 0)
(0.012758 -0.00562375 0)
(0.04223 -0.0820788 0)
(0.0777254 -0.121278 0)
(0.111152 -0.136434 0)
(0.141957 -0.139212 0)
(0.17106 -0.13638 0)
(0.199184 -0.131563 0)
(0.226822 -0.126595 0)
(0.254288 -0.122321 0)
(0.281776 -0.119058 0)
(0.309397 -0.116843 0)
(0.33722 -0.115584 0)
(0.365282 -0.11513 0)
(0.393606 -0.115314 0)
(0.422201 -0.115971 0)
(0.451063 -0.116947 0)
(0.48018 -0.118098 0)
(0.509526 -0.11929 0)
(0.539062 -0.120393 0)
(0.568731 -0.121274 0)
(0.59846 -0.121797 0)
(0.628147 -0.121813 0)
(0.657666 -0.121157 0)
(0.686853 -0.119643 0)
(0.715509 -0.117059 0)
(0.743386 -0.113162 0)
(0.770186 -0.107675 0)
(0.795556 -0.100278 0)
(0.819084 -0.0905985 0)
(0.840294 -0.0782054 0)
(0.858648 -0.0625933 0)
(0.873552 -0.0431746 0)
(0.884354 -0.0192776 0)
(0.890375 0.00987558 0)
(0.890958 0.0451297 0)
(0.885469 0.0873086 0)
(0.873346 0.137079 0)
(0.854067 0.194726 0)
(0.827047 0.259781 0)
(0.791368 0.330385 0)
(0.745233 0.402181 0)
(0.685014 0.46641 0)
(0.603658 0.506926 0)
(0.489992 0.497584 0)
(0.0135959 -0.0253591 0)
(0.0449496 -0.10937 0)
(0.0815569 -0.147741 0)
(0.115126 -0.160715 0)
(0.145555 -0.161743 0)
(0.17414 -0.157839 0)
(0.201798 -0.152481 0)
(0.229099 -0.147313 0)
(0.256376 -0.143039 0)
(0.283807 -0.139884 0)
(0.311478 -0.137836 0)
(0.339427 -0.136772 0)
(0.367663 -0.136525 0)
(0.396184 -0.136918 0)
(0.424979 -0.137779 0)
(0.454034 -0.138948 0)
(0.483326 -0.140274 0)
(0.512825 -0.141616 0)
(0.542493 -0.142831 0)
(0.572277 -0.143778 0)
(0.602107 -0.144302 0)
(0.631892 -0.144237 0)
(0.661515 -0.143393 0)
(0.690827 -0.141559 0)
(0.71964 -0.138491 0)
(0.747723 -0.133911 0)
(0.774799 -0.127503 0)
(0.800534 -0.118903 0)
(0.824544 -0.107697 0)
(0.846387 -0.09341 0)
(0.865571 -0.0754948 0)
(0.881556 -0.0533278 0)
(0.893763 -0.026208 0)
(0.901593 0.00664609 0)
(0.904471 0.0460607 0)
(0.901828 0.0928289 0)
(0.893143 0.147592 0)
(0.877889 0.210665 0)
(0.855416 0.281752 0)
(0.82468 0.359464 0)
(0.783742 0.440441 0)
(0.728822 0.517734 0)
(0.652464 0.578045 0)
(0.541244 0.598712 0)
(0.0146088 -0.0462499 0)
(0.047003 -0.137469 0)
(0.0836256 -0.174271 0)
(0.11658 -0.184658 0)
(0.146287 -0.183845 0)
(0.174284 -0.17893 0)
(0.201547 -0.173142 0)
(0.228632 -0.167889 0)
(0.255839 -0.163714 0)
(0.28331 -0.160746 0)
(0.311099 -0.15892 0)
(0.339212 -0.158086 0)
(0.367639 -0.158064 0)
(0.396358 -0.158669 0)
(0.425346 -0.159729 0)
(0.45458 -0.161079 0)
(0.484032 -0.162566 0)
(0.513673 -0.164042 0)
(0.543467 -0.165359 0)
(0.573366 -0.166363 0)
(0.60331 -0.166887 0)
(0.633218 -0.166746 0)
(0.662985 -0.165732 0)
(0.692476 -0.163605 0)
(0.72152 -0.160091 0)
(0.749901 -0.154881 0)
(0.777361 -0.147617 0)
(0.803588 -0.1379 0)
(0.828221 -0.125276 0)
(0.85085 -0.109231 0)
(0.871024 -0.0891853 0)
(0.888255 -0.0644886 0)
(0.90203 -0.034421 0)
(0.911824 0.00179956 0)
(0.917144 0.0449856 0)
(0.917489 0.0959138 0)
(0.912387 0.155225 0)
(0.901337 0.223299 0)
(0.883675 0.300055 0)
(0.858326 0.384605 0)
(0.823327 0.474611 0)
(0.774875 0.565054 0)
(0.705377 0.646031 0)
(0.59961 0.699961 0)
(0.0157211 -0.0682002 0)
(0.0485271 -0.165698 0)
(0.0843506 -0.200247 0)
(0.116114 -0.207896 0)
(0.144813 -0.205364 0)
(0.172122 -0.199629 0)
(0.198979 -0.193584 0)
(0.225873 -0.188379 0)
(0.253042 -0.184399 0)
(0.280577 -0.181683 0)
(0.308493 -0.18012 0)
(0.336769 -0.179537 0)
(0.365373 -0.179746 0)
(0.394271 -0.180563 0)
(0.423428 -0.181812 0)
(0.452817 -0.183331 0)
(0.482408 -0.184966 0)
(0.512173 -0.186565 0)
(0.542082 -0.187976 0)
(0.572094 -0.189036 0)
(0.602157 -0.189567 0)
(0.632205 -0.189367 0)
(0.662146 -0.188209 0)
(0.69186 -0.185827 0)
(0.721193 -0.181921 0)
(0.74995 -0.176144 0)
(0.777886 -0.168105 0)
(0.804712 -0.157367 0)
(0.830088 -0.14344 0)
(0.853632 -0.125779 0)
(0.874929 -0.103779 0)
(0.893539 -0.0767705 0)
(0.909011 -0.0440261 0)
(0.920894 -0.00476839 0)
(0.928773 0.0418018 0)
(0.932233 0.0964514 0)
(0.930878 0.159832 0)
(0.924282 0.232399 0)
(0.911876 0.314284 0)
(0.892726 0.405079 0)
(0.865124 0.503432 0)
(0.825696 0.606273 0)
(0.767517 0.707451 0)
(0.674481 0.796201 0)
(0.0168555 -0.0910886 0)
(0.0495394 -0.193538 0)
(0.0839502 -0.225213 0)
(0.114123 -0.230167 0)
(0.141618 -0.226178 0)
(0.168147 -0.219887 0)
(0.194551 -0.21379 0)
(0.221224 -0.208778 0)
(0.248326 -0.205089 0)
(0.275893 -0.202685 0)
(0.303901 -0.201419 0)
(0.332303 -0.201105 0)
(0.361046 -0.201551 0)
(0.390083 -0.202575 0)
(0.419373 -0.204005 0)
(0.448882 -0.205683 0)
(0.478581 -0.207455 0)
(0.508445 -0.209171 0)
(0.538448 -0.210674 0)
(0.568559 -0.211796 0)
(0.598738 -0.212347 0)
(0.628929 -0.212113 0)
(0.659059 -0.210847 0)
(0.689025 -0.20826 0)
(0.718691 -0.204023 0)
(0.747879 -0.197757 0)
(0.776365 -0.189034 0)
(0.803874 -0.17738 0)
(0.830087 -0.162273 0)
(0.854644 -0.143141 0)
(0.877162 -0.119362 0)
(0.897246 -0.0902586 0)
(0.914504 -0.0551041 0)
(0.928555 -0.0131348 0)
(0.939068 0.03643 0)
(0.945728 0.094342 0)
(0.948245 0.161257 0)
(0.946329 0.237686 0)
(0.939611 0.323923 0)
(0.92749 0.419935 0)
(0.908855 0.525166 0)
(0.881414 0.638215 0)
(0.840331 0.756457 0)
(0.771419 0.876849 0)
(0.0179538 -0.114969 0)
(0.0500332 -0.220802 0)
(0.0825463 -0.249054 0)
(0.110854 -0.251484 0)
(0.137012 -0.246376 0)
(0.16268 -0.239827 0)
(0.188566 -0.233897 0)
(0.214953 -0.229228 0)
(0.241925 -0.225929 0)
(0.269461 -0.2239 0)
(0.2975 -0.22297 0)
(0.325969 -0.222946 0)
(0.354796 -0.223637 0)
(0.383921 -0.224868 0)
(0.413295 -0.226475 0)
(0.442881 -0.228305 0)
(0.472649 -0.230209 0)
(0.502578 -0.23204 0)
(0.532647 -0.233638 0)
(0.562833 -0.234831 0)
(0.59311 -0.235423 0)
(0.623437 -0.235187 0)
(0.653756 -0.233857 0)
(0.683986 -0.231124 0)
(0.714009 -0.226627 0)
(0.743669 -0.219954 0)
(0.772757 -0.210641 0)
(0.801016 -0.198177 0)
(0.828138 -0.182007 0)
(0.853784 -0.161539 0)
(0.877595 -0.13614 0)
(0.899217 -0.105134 0)
(0.918311 -0.0678098 0)
(0.934573 -0.0234266 0)
(0.947753 0.0287654 0)
(0.957652 0.089488 0)
(0.964111 0.159379 0)
(0.967019 0.23896 0)
(0.966281 0.328592 0)
(0.961761 0.428428 0)
(0.953194 0.538337 0)
(0.939943 0.657853 0)
(0.920847 0.786481 0)
(0.890697 0.926038 0)
(0.0189661 -0.139773 0)
(0.0499934 -0.247209 0)
(0.0802112 -0.2716 0)
(0.106464 -0.271798 0)
(0.131196 -0.265967 0)
(0.155931 -0.259476 0)
(0.181223 -0.253939 0)
(0.207248 -0.249767 0)
(0.23401 -0.246961 0)
(0.261439 -0.245377 0)
(0.289436 -0.244826 0)
(0.317902 -0.245117 0)
(0.346748 -0.246067 0)
(0.375902 -0.24751 0)
(0.405306 -0.249294 0)
(0.434919 -0.251274 0)
(0.46471 -0.253309 0)
(0.494662 -0.255256 0)
(0.524758 -0.256957 0)
(0.554987 -0.258238 0)
(0.585333 -0.258897 0)
(0.615771 -0.258697 0)
(0.646264 -0.257356 0)
(0.67675 -0.254543 0)
(0.707136 -0.249869 0)
(0.737285 -0.242885 0)
(0.767008 -0.233087 0)
(0.796059 -0.219924 0)
(0.824139 -0.20281 0)
(0.85092 -0.181136 0)
(0.876061 -0.154265 0)
(0.899241 -0.121537 0)
(0.920174 -0.0822672 0)
(0.938628 -0.0357551 0)
(0.954439 0.0187033 0)
(0.967531 0.0817793 0)
(0.977883 0.154063 0)
(0.985581 0.236026 0)
(0.990814 0.327986 0)
(0.993908 0.430061 0)
(0.995385 0.542104 0)
(0.996065 0.663656 0)
(0.997591 0.794191 0)
(1.00115 0.934615 0)
(0.0198578 -0.165198 0)
(0.049407 -0.272266 0)
(0.0770059 -0.292534 0)
(0.101092 -0.290916 0)
(0.124346 -0.284795 0)
(0.148093 -0.278687 0)
(0.172726 -0.273764 0)
(0.198314 -0.270241 0)
(0.22479 -0.268033 0)
(0.252034 -0.266963 0)
(0.279914 -0.266838 0)
(0.308306 -0.267472 0)
(0.337105 -0.268698 0)
(0.366224 -0.270361 0)
(0.395598 -0.272325 0)
(0.425182 -0.274455 0)
(0.454944 -0.276623 0)
(0.484867 -0.278689 0)
(0.514943 -0.280504 0)
(0.545167 -0.281891 0)
(0.575537 -0.282646 0)
(0.606044 -0.282524 0)
(0.63667 -0.281231 0)
(0.667376 -0.278414 0)
(0.698097 -0.273657 0)
(0.728721 -0.266471 0)
(0.759077 -0.256306 0)
(0.788926 -0.242566 0)
(0.817973 -0.224633 0)
(0.845888 -0.201881 0)
(0.872342 -0.173683 0)
(0.897035 -0.139407 0)
(0.919731 -0.0984106 0)
(0.940266 -0.0500491 0)
(0.958563 0.00631627 0)
(0.974665 0.0712857 0)
(0.988687 0.145372 0)
(1.00089 0.228947 0)
(1.0117 0.322196 0)
(1.02178 0.425043 0)
(1.03214 0.537044 0)
(1.04429 0.65723 0)
(1.06066 0.784003 0)
(1.08401 0.915368 0)
(0.0206156 -0.19101 0)
(0.0482536 -0.295622 0)
(0.0729523 -0.311692 0)
(0.0948135 -0.308769 0)
(0.116568 -0.302813 0)
(0.139291 -0.297406 0)
(0.163215 -0.293316 0)
(0.188306 -0.290592 0)
(0.214429 -0.289085 0)
(0.241419 -0.288601 0)
(0.269113 -0.28895 0)
(0.297364 -0.289961 0)
(0.326049 -0.29148 0)
(0.35507 -0.293375 0)
(0.384354 -0.295522 0)
(0.413849 -0.297806 0)
(0.443522 -0.300108 0)
(0.473359 -0.3023 0)
(0.503354 -0.304237 0)
(0.533513 -0.305749 0)
(0.563843 -0.30663 0)
(0.594352 -0.30663 0)
(0.625041 -0.305446 0)
(0.6559 -0.302708 0)
(0.686891 -0.29797 0)
(0.717934 -0.290701 0)
(0.74888 -0.280298 0)
(0.779495 -0.26611 0)
(0.809475 -0.24748 0)
(0.838477 -0.22377 0)
(0.866166 -0.194372 0)
(0.892261 -0.158696 0)
(0.916564 -0.116165 0)
(0.938979 -0.0662059 0)
(0.959512 -0.00826381 0)
(0.978312 0.0581736 0)
(0.995621 0.133521 0)
(1.01183 0.218021 0)
(1.02754 0.311682 0)
(1.04359 0.414178 0)
(1.06119 0.524712 0)
(1.08198 0.641808 0)
(1.10816 0.763092 0)
(1.1423 0.885188 0)
(0.0212476 -0.216953 0)
(0.0464867 -0.316923 0)
(0.0680386 -0.328941 0)
(0.0876751 -0.325312 0)
(0.107946 -0.319989 0)
(0.129639 -0.315598 0)
(0.152829 -0.312553 0)
(0.177382 -0.310772 0)
(0.203103 -0.310067 0)
(0.229783 -0.310239 0)
(0.25723 -0.311111 0)
(0.285278 -0.31253 0)
(0.313788 -0.314365 0)
(0.34265 -0.316502 0)
(0.371781 -0.31884 0)
(0.401124 -0.321279 0)
(0.430646 -0.323717 0)
(0.46033 -0.326038 0)
(0.490176 -0.328107 0)
(0.520194 -0.329759 0)
(0.550402 -0.330791 0)
(0.58082 -0.330953 0)
(0.611471 -0.329937 0)
(0.64237 -0.327359 0)
(0.67352 -0.322749 0)
(0.704878 -0.315529 0)
(0.736322 -0.305028 0)
(0.767622 -0.290525 0)
(0.798451 -0.271316 0)
(0.828437 -0.246751 0)
(0.857224 -0.21625 0)
(0.884533 -0.179291 0)
(0.9102 -0.13538 0)
(0.934193 -0.0840382 0)
(0.956604 -0.0248068 0)
(0.977669 0.0427255 0)
(0.997742 0.118864 0)
(1.01732 0.20372 0)
(1.03707 0.29712 0)
(1.05792 0.398501 0)
(1.08108 0.506775 0)
(1.10807 0.62015 0)
(1.14068 0.735963 0)
(1.18084 0.850644 0)
(0.0217483 -0.242732 0)
(0.0440068 -0.335794 0)
(0.0622337 -0.344186 0)
(0.0797313 -0.340545 0)
(0.0985893 -0.336326 0)
(0.119288 -0.333253 0)
(0.141748 -0.331451 0)
(0.165746 -0.330749 0)
(0.191029 -0.330939 0)
(0.217353 -0.331834 0)
(0.244502 -0.333275 0)
(0.272291 -0.335134 0)
(0.300566 -0.337303 0)
(0.329207 -0.339694 0)
(0.358123 -0.342226 0)
(0.387251 -0.344822 0)
(0.416554 -0.347395 0)
(0.446014 -0.349847 0)
(0.475633 -0.35205 0)
(0.505422 -0.353851 0)
(0.535406 -0.355051 0)
(0.565616 -0.355405 0)
(0.596089 -0.354605 0)
(0.626871 -0.352264 0)
(0.658008 -0.347893 0)
(0.689515 -0.340863 0)
(0.721306 -0.330416 0)
(0.753153 -0.31574 0)
(0.784692 -0.296062 0)
(0.815497 -0.270719 0)
(0.845169 -0.239179 0)
(0.87342 -0.201009 0)
(0.900115 -0.155827 0)
(0.925287 -0.103269 0)
(0.949108 -0.0429853 0)
(0.971896 0.025329 0)
(0.994103 0.101872 0)
(1.01628 0.186637 0)
(1.03913 0.279294 0)
(1.06357 0.379084 0)
(1.09072 0.484709 0)
(1.12188 0.594228 0)
(1.15842 0.704952 0)
(1.20157 0.813475 0)
(0.0219869 -0.267982 0)
(0.0406484 -0.351863 0)
(0.0555354 -0.357411 0)
(0.0711065 -0.35453 0)
(0.088693 -0.351873 0)
(0.108474 -0.350391 0)
(0.130234 -0.350006 0)
(0.153673 -0.3505 0)
(0.178492 -0.35167 0)
(0.204421 -0.353346 0)
(0.231221 -0.355398 0)
(0.258696 -0.357724 0)
(0.286679 -0.360246 0)
(0.315039 -0.3629 0)
(0.343677 -0.365629 0)
(0.372523 -0.36838 0)
(0.401537 -0.371086 0)
(0.430697 -0.373661 0)
(0.460002 -0.375995 0)
(0.489465 -0.377942 0)
(0.519108 -0.379313 0)
(0.548967 -0.379869 0)
(0.579087 -0.379312 0)
(0.609538 -0.377268 0)
(0.640424 -0.373242 0)
(0.671836 -0.366553 0)
(0.70375 -0.356332 0)
(0.735939 -0.34163 0)
(0.767981 -0.321582 0)
(0.799368 -0.295511 0)
(0.829632 -0.262947 0)
(0.858461 -0.223585 0)
(0.885749 -0.177189 0)
(0.911597 -0.123532 0)
(0.936264 -0.06238 0)
(0.960143 0.00646241 0)
(0.983773 0.0830978 0)
(1.00774 0.167436 0)
(1.03273 0.259027 0)
(1.05958 0.356956 0)
(1.08931 0.459796 0)
(1.12299 0.565572 0)
(1.16159 0.671727 0)
(1.20576 0.775181 0)
(0.0215557 -0.292156 0)
(0.036226 -0.364865 0)
(0.0480694 -0.368754 0)
(0.0620801 -0.367423 0)
(0.078602 -0.366726 0)
(0.0975704 -0.367055 0)
(0.118669 -0.368226 0)
(0.141545 -0.370012 0)
(0.165871 -0.372228 0)
(0.191358 -0.374735 0)
(0.217756 -0.377433 0)
(0.244857 -0.380253 0)
(0.272486 -0.383144 0)
(0.300503 -0.386067 0)
(0.328797 -0.388994 0)
(0.357294 -0.391895 0)
(0.385945 -0.394725 0)
(0.414726 -0.397413 0)
(0.44363 -0.399863 0)
(0.472661 -0.401938 0)
(0.501838 -0.403461 0)
(0.531187 -0.404203 0)
(0.560747 -0.403883 0)
(0.590601 -0.402161 0)
(0.620916 -0.398569 0)
(0.6519 -0.392383 0)
(0.683624 -0.382577 0)
(0.715869 -0.368011 0)
(0.748129 -0.347681 0)
(0.779776 -0.32089 0)
(0.810244 -0.287263 0)
(0.839182 -0.246666 0)
(0.866523 -0.199057 0)
(0.892449 -0.144367 0)
(0.917309 -0.0824811 0)
(0.941581 -0.0133148 0)
(0.96588 0.0631608 0)
(0.990819 0.146821 0)
(1.01703 0.237139 0)
(1.04525 0.333081 0)
(1.07637 0.433138 0)
(1.11127 0.53539 0)
(1.15064 0.637526 0)
(1.19471 0.736886 0)
(0.0197459 -0.314388 0)
(0.0306915 -0.37484 0)
(0.0402434 -0.378585 0)
(0.0531856 -0.379478 0)
(0.0688769 -0.381016 0)
(0.0871273 -0.3833 0)
(0.107582 -0.386119 0)
(0.129872 -0.389263 0)
(0.153657 -0.392576 0)
(0.178641 -0.395954 0)
(0.204568 -0.39933 0)
(0.231224 -0.402666 0)
(0.25843 -0.405941 0)
(0.286033 -0.409141 0)
(0.313914 -0.412264 0)
(0.341987 -0.415307 0)
(0.3702 -0.418248 0)
(0.398522 -0.421031 0)
(0.426934 -0.423571 0)
(0.455431 -0.425743 0)
(0.484017 -0.427375 0)
(0.512697 -0.428247 0)
(0.541477 -0.428102 0)
(0.570424 -0.426667 0)
(0.59977 -0.423562 0)
(0.629889 -0.418041 0)
(0.661007 -0.40887 0)
(0.692922 -0.394617 0)
(0.725017 -0.374078 0)
(0.756496 -0.346528 0)
(0.786664 -0.311728 0)
(0.815125 -0.269786 0)
(0.841869 -0.220908 0)
(0.867185 -0.165211 0)
(0.891521 -0.102689 0)
(0.915443 -0.0333724 0)
(0.939658 0.0427146 0)
(0.964813 0.125493 0)
(0.991439 0.214409 0)
(1.02016 0.30832 0)
(1.05176 0.40565 0)
(1.08699 0.504586 0)
(1.12631 0.603144 0)
(1.16972 0.699083 0)
(0.015866 -0.333561 0)
(0.024417 -0.382381 0)
(0.0329254 -0.387526 0)
(0.0453015 -0.391008 0)
(0.0603364 -0.394868 0)
(0.077897 -0.399152 0)
(0.0976711 -0.403662 0)
(0.119306 -0.408206 0)
(0.142467 -0.412655 0)
(0.166858 -0.416936 0)
(0.192222 -0.421019 0)
(0.218343 -0.424897 0)
(0.245039 -0.428575 0)
(0.272148 -0.432056 0)
(0.299534 -0.435372 0)
(0.327103 -0.438548 0)
(0.354798 -0.441583 0)
(0.382578 -0.444436 0)
(0.410412 -0.44703 0)
(0.438277 -0.449248 0)
(0.466163 -0.450922 0)
(0.49404 -0.451823 0)
(0.521843 -0.451712 0)
(0.549565 -0.450428 0)
(0.577482 -0.447787 0)
(0.606199 -0.443092 0)
(0.636179 -0.43481 0)
(0.667259 -0.421071 0)
(0.69867 -0.400377 0)
(0.729411 -0.371973 0)
(0.758626 -0.335817 0)
(0.785886 -0.29236 0)
(0.81127 -0.24214 0)
(0.835218 -0.185472 0)
(0.858274 -0.122425 0)
(0.881098 -0.0531609 0)
(0.904537 0.0222606 0)
(0.929281 0.103927 0)
(0.955734 0.19133 0)
(0.984382 0.283206 0)
(1.01591 0.377894 0)
(1.05101 0.473711 0)
(1.0899 0.569035 0)
(1.13246 0.661947 0)
(0.00990258 -0.348587 0)
(0.01856 -0.38884 0)
(0.027574 -0.396355 0)
(0.0396901 -0.402256 0)
(0.0540575 -0.408289 0)
(0.0708212 -0.414528 0)
(0.0897876 -0.42074 0)
(0.110639 -0.426713 0)
(0.133047 -0.432331 0)
(0.156716 -0.437551 0)
(0.181393 -0.442375 0)
(0.20686 -0.446826 0)
(0.232938 -0.450931 0)
(0.259453 -0.454704 0)
(0.286246 -0.458208 0)
(0.313216 -0.461508 0)
(0.340303 -0.46462 0)
(0.367457 -0.467514 0)
(0.394628 -0.470117 0)
(0.421777 -0.472323 0)
(0.44888 -0.473958 0)
(0.475874 -0.474757 0)
(0.502579 -0.474462 0)
(0.52882 -0.473071 0)
(0.554861 -0.470768 0)
(0.581582 -0.467037 0)
(0.609779 -0.459918 0)
(0.63935 -0.446901 0)
(0.669356 -0.426081 0)
(0.698568 -0.396692 0)
(0.725966 -0.358969 0)
(0.751117 -0.313855 0)
(0.774262 -0.262302 0)
(0.796032 -0.204829 0)
(0.817065 -0.141502 0)
(0.838125 -0.0726434 0)
(0.860235 0.00166494 0)
(0.884163 0.0817948 0)
(0.910205 0.167398 0)
(0.938722 0.257136 0)
(0.970265 0.349312 0)
(1.00531 0.442376 0)
(1.04381 0.535003 0)
(1.08559 0.625335 0)
(1.13024 0.712213 0)
(0.00290827 -0.358686 0)
(0.0153514 -0.396469 0)
(0.0262549 -0.405734 0)
(0.0379383 -0.413163 0)
(0.051294 -0.421073 0)
(0.0669659 -0.429239 0)
(0.0848933 -0.437197 0)
(0.104768 -0.444646 0)
(0.126248 -0.451474 0)
(0.149031 -0.457669 0)
(0.172858 -0.463267 0)
(0.197516 -0.468327 0)
(0.222838 -0.472896 0)
(0.248631 -0.476973 0)
(0.274708 -0.48067 0)
(0.300963 -0.484094 0)
(0.327337 -0.487287 0)
(0.353769 -0.490216 0)
(0.380189 -0.492813 0)
(0.406538 -0.494986 0)
(0.432793 -0.496561 0)
(0.458871 -0.497194 0)
(0.48446 -0.496535 0)
(0.509148 -0.494733 0)
(0.53309 -0.492519 0)
(0.557372 -0.48973 0)
(0.583084 -0.483893 0)
(0.610213 -0.471675 0)
(0.637706 -0.450685 0)
(0.664185 -0.420166 0)
(0.688559 -0.380719 0)
(0.710477 -0.33383 0)
(0.730422 -0.280884 0)
(0.749178 -0.222633 0)
(0.767545 -0.159014 0)
(0.786453 -0.0906284 0)
(0.806904 -0.0178586 0)
(0.829748 0.0603341 0)
(0.855651 0.143605 0)
(0.884993 0.230462 0)
(0.9179 0.319229 0)
(0.953955 0.408871 0)
(0.99243 0.499364 0)
(1.03369 0.587971 0)
(1.07741 0.673498 0)
(-0.00311579 -0.365304 0)
(0.018182 -0.408294 0)
(0.0314253 -0.415755 0)
(0.0415705 -0.423225 0)
(0.0530969 -0.432973 0)
(0.0672327 -0.443312 0)
(0.0838651 -0.453212 0)
(0.102576 -0.462253 0)
(0.122955 -0.470352 0)
(0.144674 -0.477559 0)
(0.167465 -0.483957 0)
(0.191124 -0.489659 0)
(0.215503 -0.494739 0)
(0.240398 -0.499147 0)
(0.26559 -0.503062 0)
(0.290973 -0.506652 0)
(0.31649 -0.509975 0)
(0.342071 -0.51299 0)
(0.367617 -0.515626 0)
(0.393047 -0.517816 0)
(0.418335 -0.519386 0)
(0.443406 -0.519864 0)
(0.467902 -0.518677 0)
(0.491333 -0.515952 0)
(0.513796 -0.513082 0)
(0.535924 -0.510709 0)
(0.558528 -0.505793 0)
(0.581765 -0.494148 0)
(0.604874 -0.472692 0)
(0.626678 -0.440691 0)
(0.646395 -0.398983 0)
(0.663956 -0.349839 0)
(0.680044 -0.295123 0)
(0.695148 -0.235634 0)
(0.710472 -0.170982 0)
(0.727858 -0.102856 0)
(0.746752 -0.0314054 0)
(0.768322 0.044906 0)
(0.794959 0.125748 0)
(0.827263 0.20948 0)
(0.864007 0.294668 0)
(0.902178 0.380516 0)
(0.942168 0.465947 0)
(0.984477 0.549926 0)
(1.02712 0.633521 0)
(-0.00231811 -0.374557 0)
(0.0320224 -0.42601 0)
(0.045002 -0.425263 0)
(0.0508703 -0.431805 0)
(0.0594116 -0.443835 0)
(0.0717473 -0.456656 0)
(0.0870606 -0.468645 0)
(0.104597 -0.479364 0)
(0.12382 -0.488816 0)
(0.144364 -0.497125 0)
(0.165958 -0.504414 0)
(0.188422 -0.51084 0)
(0.211611 -0.516543 0)
(0.235352 -0.521318 0)
(0.259429 -0.525468 0)
(0.283734 -0.529207 0)
(0.308202 -0.532602 0)
(0.33274 -0.535574 0)
(0.357235 -0.538023 0)
(0.381583 -0.539888 0)
(0.405725 -0.541034 0)
(0.429517 -0.540848 0)
(0.452657 -0.538476 0)
(0.475345 -0.534105 0)
(0.498193 -0.530054 0)
(0.519981 -0.527626 0)
(0.539201 -0.522906 0)
(0.55655 -0.510878 0)
(0.57254 -0.48829 0)
(0.586986 -0.454289 0)
(0.60034 -0.409852 0)
(0.61337 -0.358381 0)
(0.626073 -0.301867 0)
(0.637678 -0.241138 0)
(0.650217 -0.17471 0)
(0.667581 -0.106018 0)
(0.683325 -0.0351966 0)
(0.702702 0.0393244 0)
(0.729945 0.116605 0)
(0.766115 0.19528 0)
(0.809295 0.27562 0)
(0.854407 0.358883 0)
(0.902315 0.441575 0)
(0.946304 0.522524 0)
(0.98745 0.600904 0)
(0.0258806 -0.390662 0)
(0.0641205 -0.448141 0)
(0.0660942 -0.432032 0)
(0.063817 -0.437644 0)
(0.0688139 -0.452486 0)
(0.079677 -0.46772 0)
(0.0939894 -0.481548 0)
(0.11054 -0.493694 0)
(0.128692 -0.50432 0)
(0.148065 -0.513618 0)
(0.168389 -0.52173 0)
(0.189563 -0.528846 0)
(0.2113 -0.53515 0)
(0.233552 -0.54023 0)
(0.256286 -0.544527 0)
(0.279321 -0.548262 0)
(0.302527 -0.551492 0)
(0.325752 -0.554097 0)
(0.348898 -0.555953 0)
(0.371933 -0.557007 0)
(0.39478 -0.557139 0)
(0.417113 -0.555799 0)
(0.43902 -0.552265 0)
(0.462025 -0.546907 0)
(0.488035 -0.541602 0)
(0.511681 -0.538069 0)
(0.526308 -0.532453 0)
(0.535731 -0.519327 0)
(0.542989 -0.495411 0)
(0.548936 -0.460045 0)
(0.556791 -0.413748 0)
(0.567162 -0.362492 0)
(0.578007 -0.308543 0)
(0.58905 -0.253031 0)
(0.651767 -0.220778 0)
(0.687704 -0.154352 0)
(0.71643 -0.0822145 0)
(0.717673 -0.00882092 0)
(0.710538 0.0645784 0)
(0.718363 0.145563 0)
(0.745995 0.236274 0)
(0.789087 0.330195 0)
(0.853653 0.418701 0)
(0.910551 0.500562 0)
(0.961558 0.577653 0)
(0.120939 -0.43326 0)
(0.124139 -0.477326 0)
(0.0909157 -0.426654 0)
(0.0809684 -0.433585 0)
(0.0828036 -0.454092 0)
(0.0921159 -0.472415 0)
(0.10492 -0.488367 0)
(0.120048 -0.502096 0)
(0.136858 -0.513981 0)
(0.154922 -0.524287 0)
(0.17393 -0.53319 0)
(0.19389 -0.54091 0)
(0.214074 -0.547737 0)
(0.23476 -0.553086 0)
(0.25629 -0.557543 0)
(0.278297 -0.561287 0)
(0.30056 -0.564351 0)
(0.322876 -0.566579 0)
(0.345223 -0.567806 0)
(0.367521 -0.567811 0)
(0.390403 -0.566156 0)
(0.413711 -0.56322 0)
(0.435528 -0.560267 0)
(0.459166 -0.559235 0)
(0.486416 -0.559685 0)
(0.508376 -0.550943 0)
(0.518336 -0.538341 0)
(0.519721 -0.52247 0)
(0.518781 -0.498604 0)
(0.51928 -0.467281 0)
(0.581288 -0.447924 0)
(0.620113 -0.400414 0)
(0.659156 -0.348476 0)
(0.691 -0.311363 0)
(0.719156 -0.249409 0)
(0.740845 -0.168655 0)
(0.765811 -0.0821954 0)
(0.78688 -0.00175295 0)
(0.803266 0.0591902 0)
(0.815007 0.105384 0)
(0.824725 0.154376 0)
(0.837907 0.215115 0)
(0.853373 0.305143 0)
(0.861788 0.445939 0)
(0.926112 0.547985 0)
(0.370603 -0.567127 0)
(0.125275 -0.45587 0)
(0.083581 -0.403101 0)
(0.0903247 -0.429178 0)
(0.0960368 -0.460547 0)
(0.1068 -0.483422 0)
(0.118852 -0.500501 0)
(0.132263 -0.514119 0)
(0.147314 -0.525474 0)
(0.163839 -0.535201 0)
(0.18156 -0.543647 0)
(0.200509 -0.551025 0)
(0.219631 -0.557451 0)
(0.239395 -0.563281 0)
(0.260346 -0.568486 0)
(0.281949 -0.573204 0)
(0.303916 -0.577522 0)
(0.326098 -0.581725 0)
(0.348751 -0.586289 0)
(0.372105 -0.592836 0)
(0.401921 -0.609208 0)
(0.438409 -0.620102 0)
(0.474803 -0.623662 0)
(0.508296 -0.626046 0)
(0.535898 -0.618005 0)
(0.558074 -0.59299 0)
(0.576523 -0.561593 0)
(0.594009 -0.534496 0)
(0.613977 -0.513754 0)
(0.632171 -0.511178 0)
(0.654473 -0.479793 0)
(0.677785 -0.428309 0)
(0.70819 -0.372694 0)
(0.737112 -0.321951 0)
(0.759521 -0.262746 0)
(0.779213 -0.186999 0)
(0.803825 -0.10212 0)
(0.831689 -0.0174622 0)
(0.858528 0.0588698 0)
(0.87997 0.125883 0)
(0.89441 0.189554 0)
(0.902807 0.252226 0)
(0.908662 0.311882 0)
(0.910732 0.371255 0)
(0.940473 0.432732 0)
(0.0699982 -0.839775 0)
(0.00714558 -0.304155 0)
(0.0470139 -0.327607 0)
(0.0749711 -0.43197 0)
(0.0977295 -0.482458 0)
(0.122313 -0.51167 0)
(0.145794 -0.534045 0)
(0.167562 -0.552851 0)
(0.188142 -0.568798 0)
(0.208176 -0.582287 0)
(0.228072 -0.593755 0)
(0.248228 -0.603008 0)
(0.269002 -0.610861 0)
(0.290772 -0.618621 0)
(0.313694 -0.625717 0)
(0.337854 -0.631453 0)
(0.363348 -0.636 0)
(0.390013 -0.639701 0)
(0.417875 -0.64306 0)
(0.446321 -0.645722 0)
(0.474019 -0.644343 0)
(0.500156 -0.640289 0)
(0.526312 -0.635276 0)
(0.55121 -0.628352 0)
(0.573604 -0.615857 0)
(0.594275 -0.595101 0)
(0.615094 -0.571363 0)
(0.636853 -0.549857 0)
(0.659434 -0.531545 0)
(0.67894 -0.517776 0)
(0.694428 -0.491814 0)
(0.710173 -0.448316 0)
(0.731114 -0.395894 0)
(0.753102 -0.340803 0)
(0.772578 -0.279664 0)
(0.79234 -0.207608 0)
(0.817101 -0.127714 0)
(0.847101 -0.0455622 0)
(0.879372 0.0336548 0)
(0.909523 0.108704 0)
(0.93465 0.182358 0)
(0.954173 0.256794 0)
(0.968598 0.3324 0)
(0.978555 0.402286 0)
(0.986153 0.456412 0)
(-0.159337 -0.724386 0)
(-0.0655873 -0.396025 0)
(0.0203716 -0.417357 0)
(0.081465 -0.471562 0)
(0.119499 -0.505596 0)
(0.15025 -0.526879 0)
(0.177505 -0.54331 0)
(0.202116 -0.557601 0)
(0.224878 -0.570446 0)
(0.246576 -0.582046 0)
(0.267827 -0.592497 0)
(0.289186 -0.601781 0)
(0.311131 -0.610283 0)
(0.333879 -0.618414 0)
(0.357471 -0.625878 0)
(0.38202 -0.632327 0)
(0.407614 -0.63778 0)
(0.434136 -0.642452 0)
(0.461395 -0.646794 0)
(0.488624 -0.650865 0)
(0.514388 -0.654339 0)
(0.538025 -0.65526 0)
(0.559856 -0.652417 0)
(0.580243 -0.645157 0)
(0.599114 -0.631599 0)
(0.617793 -0.612173 0)
(0.637528 -0.590463 0)
(0.65789 -0.569842 0)
(0.67739 -0.55043 0)
(0.693305 -0.530445 0)
(0.704973 -0.502742 0)
(0.71592 -0.462495 0)
(0.729674 -0.412921 0)
(0.745338 -0.357644 0)
(0.761765 -0.296436 0)
(0.78069 -0.227759 0)
(0.804899 -0.153026 0)
(0.835297 -0.075544 0)
(0.870292 0.00165735 0)
(0.906881 0.0777168 0)
(0.942555 0.154124 0)