/*--------------------------------*- C++ -*----------------------------------*\
  =========                 |
  \\      /  F ield         | OpenFOAM: The Open Source CFD Toolbox
   \\    /   O peration     | Website:  https://openfoam.org
    \\  /    A nd           | Version:  7
     \\/     M anipulation  |
\*---------------------------------------------------------------------------*/
FoamFile
{
    version     2.0;
    format      ascii;
    class       scalarField;
    location    "0.007/lagrangian/dsmc";
    object      Ei;
}
// * * * * * * * * * * * * * * * * * * * * * * * * * * * * * * * * * * * * * //


90690
(
1.59598e-21
2.91592e-21
8.46068e-22
2.3556e-21
1.85669e-21
4.60782e-22
2.03586e-21
7.99086e-21
8.92599e-21
3.57416e-21
1.68873e-21
3.98147e-21
3.0476e-21
2.05762e-21
3.57033e-21
5.97483e-21
1.42975e-21
1.86219e-21
3.15997e-22
5.3957e-21
6.35013e-21
3.13382e-21
6.65807e-22
1.796e-20
1.40495e-21
6.66588e-21
1.10493e-20
2.54319e-21
5.70475e-21
6.92165e-21
3.06344e-21
2.60202e-21
7.519e-23
2.94442e-21
7.77315e-21
5.77817e-21
1.82323e-21
1.30239e-21
3.50185e-21
1.91578e-22
3.58018e-24
7.58801e-22
3.8806e-21
4.28159e-23
1.99473e-22
2.25043e-21
3.76722e-21
4.60568e-21
5.04973e-21
1.5874e-21
6.52131e-22
5.72839e-22
4.22545e-22
1.52205e-21
1.68167e-21
3.35921e-22
2.74349e-21
1.18374e-21
2.2699e-21
6.77986e-21
5.8703e-22
7.99638e-21
2.14939e-21
7.40307e-22
2.37051e-21
7.78697e-22
1.62247e-21
7.6299e-21
2.51328e-21
2.21332e-21
8.06264e-22
1.11318e-22
9.05939e-21
3.69306e-21
4.14197e-21
1.07421e-23
3.17562e-21
3.00949e-21
1.65152e-21
4.54533e-21
2.38029e-21
5.84464e-21
7.91051e-21
8.73271e-22
1.51273e-21
5.9734e-21
9.56896e-22
6.03987e-22
2.65655e-21
5.90998e-22
1.78128e-21
2.79101e-22
1.74616e-21
8.60263e-21
1.21605e-22
4.57979e-21
3.22689e-22
6.21741e-22
2.25643e-22
3.99619e-21
2.09139e-21
9.58749e-23
1.97298e-22
3.95201e-22
5.56826e-21
3.74395e-21
1.15722e-21
4.61028e-21
1.79006e-20
2.6739e-21
3.021e-21
1.29016e-21
2.67971e-22
6.92884e-21
5.09129e-21
1.56966e-21
6.6572e-22
2.8873e-21
3.78107e-21
4.91751e-21
5.51478e-21
5.98358e-22
2.22686e-22
3.36476e-21
9.40427e-22
4.23606e-21
4.57724e-21
6.75928e-21
1.03305e-21
3.11108e-21
4.13178e-21
8.51405e-22
1.53767e-21
2.07229e-21
9.21027e-22
8.32338e-22
7.80116e-23
3.23945e-21
2.32563e-21
2.6508e-21
2.36036e-22
4.63694e-22
1.11548e-21
7.51781e-21
2.59085e-21
6.77839e-22
2.72269e-21
3.27213e-21
1.8799e-21
8.17775e-22
5.92121e-21
2.14754e-22
5.01193e-21
6.58486e-21
3.88313e-21
2.23752e-21
1.99021e-21
2.62851e-21
4.76932e-22
6.08877e-22
2.37818e-21
3.78094e-21
3.33577e-23
4.27101e-21
1.8136e-21
6.30484e-22
2.02377e-21
2.96593e-22
4.6989e-21
1.82031e-21
2.06119e-21
1.08893e-20
5.98672e-21
3.55713e-21
1.25996e-21
5.75332e-22
3.69728e-21
2.54493e-21
1.92778e-21
2.45931e-21
1.87669e-21
6.60356e-22
4.36705e-23
1.02885e-21
2.147e-22
1.91537e-21
8.24637e-22
7.0971e-22
2.62578e-21
9.25966e-21
1.48845e-21
1.21622e-21
7.13142e-22
1.2918e-22
1.38714e-21
5.47454e-21
1.11086e-20
4.25988e-21
1.0589e-21
4.78474e-22
2.34081e-22
4.15258e-21
4.06832e-22
7.94645e-22
5.12009e-21
2.04986e-21
3.13007e-21
3.10183e-22
6.13802e-21
3.53959e-21
2.90135e-21
7.43292e-21
4.2564e-22
3.94548e-22
1.2677e-22
2.01234e-21
8.87275e-22
2.79194e-21
6.73626e-21
1.48787e-21
5.67054e-21
4.23646e-21
2.76993e-21
4.71873e-21
2.13534e-21
7.93685e-21
6.37781e-21
1.49677e-21
1.9407e-21
7.43062e-21
3.47459e-22
3.15514e-21
2.87255e-21
4.89982e-22
1.86035e-21
1.14946e-21
2.14489e-21
1.22315e-20
2.49941e-21
4.53879e-22
5.63279e-22
5.04481e-21
9.19997e-22
7.65405e-21
1.83452e-22
1.44529e-21
4.29838e-21
5.50479e-22
2.44862e-21
5.11396e-21
4.37037e-21
2.78573e-22
3.65339e-21
7.45575e-22
1.72896e-21
9.70543e-22
3.85377e-21
2.90731e-21
1.85357e-21
1.14075e-21
3.0156e-21
2.08147e-24
2.66433e-21
1.42824e-21
5.41099e-21
2.47004e-21
1.79886e-22
2.07051e-21
3.53176e-21
2.91313e-21
1.61453e-22
4.22569e-21
7.8339e-22
7.68714e-21
2.72088e-21
9.15991e-22
7.0706e-21
1.29032e-21
2.4161e-21
2.25686e-22
5.81195e-21
3.2894e-22
2.95647e-22
2.68776e-22
1.78607e-21
1.21468e-21
4.34194e-21
6.6227e-21
3.81378e-21
2.6331e-21
3.02659e-21
2.84108e-21
1.86652e-21
1.13436e-21
1.01872e-21
1.53182e-21
1.7012e-22
1.75792e-21
5.30479e-22
7.45798e-21
2.63834e-21
2.35715e-21
1.13548e-21
8.17924e-21
1.64378e-20
2.0958e-21
4.34025e-22
1.53152e-21
1.90891e-21
2.0128e-23
2.65335e-21
2.26665e-22
2.13468e-21
2.93499e-21
2.68812e-21
2.43835e-21
4.01732e-21
9.34041e-22
5.09802e-22
3.05445e-22
2.88213e-21
2.74579e-21
1.16035e-20
2.32066e-21
1.39721e-22
3.77974e-21
4.85912e-22
3.93579e-22
2.17825e-21
8.18492e-22
7.77758e-21
3.08269e-22
7.39557e-22
1.23339e-21
6.72717e-21
4.68676e-21
1.8119e-22
3.72928e-21
5.93579e-22
5.48878e-21
7.70252e-21
1.98388e-21
1.48053e-20
6.5926e-22
4.33911e-23
2.51698e-21
4.08878e-22
5.36302e-21
6.49081e-21
1.29321e-21
3.06218e-22
1.19046e-21
1.18612e-21
1.92815e-21
2.21322e-22
3.87963e-22
1.63338e-21
4.63997e-21
1.08342e-20
1.48517e-21
2.68346e-21
2.92553e-21
3.51518e-21
4.61571e-21
3.50654e-22
4.06038e-21
1.90955e-21
6.12746e-21
2.58943e-21
1.92277e-21
1.72969e-22
5.38347e-21
2.20799e-22
1.85335e-21
1.18696e-22
1.7572e-21
5.00503e-21
2.60425e-21
3.8718e-22
5.32768e-22
3.11977e-22
7.32452e-21
4.86736e-21
7.71389e-22
6.38192e-21
7.59161e-22
1.17624e-21
1.5217e-21
1.56094e-21
3.80256e-21
3.28176e-21
3.08743e-21
2.64799e-21
1.09117e-21
1.19429e-21
9.81255e-22
2.495e-22
7.80254e-22
1.95424e-21
2.62515e-21
8.50001e-21
2.51316e-21
6.00651e-22
8.71502e-21
4.7959e-22
3.23685e-21
6.88539e-21
1.3182e-21
9.69169e-22
8.89112e-22
1.22002e-20
8.14919e-21
8.62644e-21
1.04874e-20
2.57839e-21
2.74123e-21
4.31211e-21
2.21004e-21
1.12904e-22
3.06558e-21
2.59652e-21
1.61054e-21
2.05019e-21
1.13552e-20
5.43346e-21
2.2963e-21
1.72513e-22
1.00808e-20
7.28544e-21
9.77439e-22
2.75038e-21
1.16493e-21
3.43968e-21
2.35808e-21
2.75932e-21
2.33405e-22
6.13885e-22
9.53808e-21
2.40686e-21
8.56373e-21
8.30294e-21
6.38432e-22
1.11097e-21
9.06069e-22
5.50873e-21
1.25379e-21
4.2484e-22
7.32558e-21
1.11345e-21
1.72811e-21
1.27096e-21
6.57606e-22
3.31721e-21
5.42478e-21
2.25825e-21
1.55756e-21
2.61227e-21
1.03404e-21
3.38577e-22
5.96084e-21
7.61188e-21
3.18331e-22
3.41991e-21
5.84966e-23
3.2078e-21
1.30592e-21
4.76944e-21
1.02062e-21
1.71452e-21
5.3155e-21
2.32846e-21
3.53034e-21
6.63328e-23
1.9168e-21
1.0104e-21
2.19314e-21
3.25552e-21
1.6228e-21
1.23661e-21
9.75808e-22
2.10229e-21
9.91356e-22
1.4928e-21
1.19262e-21
5.59708e-21
7.60423e-22
6.48557e-21
1.17587e-22
1.88309e-21
9.49293e-21
1.25635e-21
3.9542e-21
9.53024e-22
2.92253e-22
1.57586e-21
6.20417e-22
5.50425e-21
5.50325e-22
7.67123e-22
1.10742e-21
8.21416e-21
2.40839e-23
4.60723e-22
1.31763e-21
1.34078e-21
8.39329e-22
5.40895e-21
1.55218e-23
2.15236e-22
1.6802e-21
3.08134e-22
9.31115e-24
2.89583e-22
1.80417e-21
1.44587e-21
9.6918e-22
6.43176e-21
2.22193e-21
3.13453e-21
4.93173e-22
1.09764e-21
1.16956e-21
2.17106e-21
9.02519e-22
3.23096e-22
4.47764e-22
6.91779e-21
5.70722e-21
6.17219e-21
1.12444e-21
2.60006e-21
1.17064e-21
5.48733e-21
3.85489e-21
3.88309e-21
1.7136e-22
4.43783e-21
3.27864e-21
4.55445e-21
2.20138e-22
1.91237e-21
6.6969e-22
5.61666e-21
4.22573e-21
1.09109e-20
3.48647e-21
9.40541e-22
1.88975e-21
1.84092e-21
8.39341e-22
2.29921e-21
1.06477e-21
7.70111e-23
6.75853e-22
5.19348e-22
2.4058e-21
1.4781e-21
3.90956e-21
7.01781e-21
5.16932e-21
2.83259e-21
5.28635e-22
2.34901e-21
1.57183e-22
2.34365e-21
3.38011e-21
5.20285e-23
2.24672e-21
2.2918e-21
2.84898e-21
2.14871e-21
3.31093e-21
6.50848e-22
3.16184e-22
6.49177e-22
7.61929e-22
3.41392e-21
4.132e-22
5.15712e-23
1.1749e-21
2.49803e-21
5.71481e-21
6.98411e-23
6.12958e-21
3.16025e-21
1.03407e-20
3.55279e-22
7.27193e-21
5.4909e-21
4.60304e-21
8.38787e-21
2.2567e-22
2.08216e-22
6.46139e-21
9.74696e-21
7.78204e-21
1.38785e-21
1.1693e-21
1.57413e-21
9.45121e-21
4.97868e-21
9.19963e-22
2.31387e-22
5.88914e-21
1.40977e-21
1.28148e-21
2.02441e-22
1.94959e-21
2.05641e-21
2.97414e-21
8.22751e-21
7.44688e-22
9.28163e-22
1.85981e-21
8.59848e-22
1.17253e-21
5.8957e-22
6.53531e-21
1.30644e-21
6.86122e-22
4.71598e-22
2.82441e-21
1.94439e-21
5.80743e-23
1.63084e-21
1.55155e-21
9.59057e-22
2.86893e-21
1.53178e-21
4.70073e-21
1.10755e-21
6.06383e-22
1.64035e-22
4.04502e-21
3.74059e-21
4.55475e-23
2.38646e-21
2.09735e-21
3.35576e-21
3.99156e-22
7.5011e-22
3.50022e-21
8.16767e-22
5.87702e-21
4.34994e-21
4.55412e-21
5.56613e-22
3.66546e-21
1.87746e-21
4.45983e-22
9.35337e-22
9.2788e-22
1.61108e-20
1.20681e-20
1.3234e-22
4.70677e-21
1.4293e-22
1.41483e-20
2.08735e-21
1.64086e-21
2.41643e-21
1.05582e-22
4.11178e-21
3.13672e-22
1.1435e-22
2.20519e-21
3.57272e-22
6.77459e-22
5.36959e-21
2.90877e-21
4.32627e-21
3.86147e-21
1.12072e-21
3.47419e-21
8.77566e-22
6.74615e-22
6.50471e-22
3.38644e-21
1.78586e-21
9.73777e-22
3.51413e-21
5.06726e-21
1.16316e-21
2.65679e-22
1.77457e-21
2.51514e-21
3.23484e-21
2.67787e-21
2.98061e-21
1.20266e-21
1.45917e-21
2.0586e-21
1.34401e-21
5.08778e-22
1.3008e-21
9.69897e-21
5.94806e-22
5.64343e-21
6.9106e-22
3.1794e-20
9.78005e-22
8.24889e-22
2.5978e-23
2.04398e-22
6.88498e-22
1.32573e-21
3.06915e-22
1.53243e-21
3.97415e-22
3.77906e-22
3.66449e-21
7.05121e-22
2.05267e-21
1.26152e-21
1.75016e-21
3.84266e-21
4.03358e-21
9.95595e-21
4.89922e-21
7.97534e-21
2.88382e-21
8.89806e-22
2.15566e-21
1.74411e-22
1.08561e-20
1.93681e-22
6.20632e-21
2.39176e-21
4.60383e-21
4.42678e-21
4.78042e-21
3.334e-21
1.114e-22
1.0827e-21
5.2909e-22
3.07549e-21
1.16552e-21
9.93538e-23
1.14755e-22
8.54655e-22
2.73589e-22
1.2368e-21
3.79715e-22
2.57969e-22
6.00787e-21
2.25537e-21
7.25551e-21
1.65151e-23
1.57143e-22
3.70789e-21
2.16435e-21
3.31198e-21
8.88264e-22
4.68162e-21
8.25593e-22
7.63912e-22
3.81794e-21
8.33672e-21
8.97419e-23
7.74269e-21
6.6333e-22
1.31605e-20
1.12764e-21
1.55819e-22
1.96521e-22
2.90083e-21
2.95996e-21
2.43648e-22
1.6312e-21
8.2104e-22
2.45418e-21
2.96242e-22
2.86691e-21
5.46833e-21
3.50594e-21
1.95713e-21
1.66893e-21
3.66816e-21
4.47614e-21
9.28893e-22
1.38944e-21
7.76619e-22
3.95071e-24
7.89327e-22
1.93342e-22
7.46194e-22
2.524e-21
1.14775e-21
7.37819e-21
2.69067e-21
1.67054e-21
2.93709e-21
8.96767e-22
2.3085e-21
9.62554e-22
3.16887e-23
1.30132e-20
3.21355e-22
7.11431e-21
1.12614e-21
5.54319e-21
3.63087e-21
1.09805e-21
1.11644e-20
2.43225e-21
3.50545e-21
3.42592e-21
1.01009e-22
1.65698e-21
4.29194e-21
7.88333e-22
3.97869e-21
9.09079e-21
2.53041e-21
1.03109e-21
9.03387e-22
3.45046e-24
7.22938e-21
1.29407e-20
4.2785e-22
2.05948e-21
2.58795e-21
1.97617e-21
4.49327e-22
4.06313e-21
6.19556e-21
3.06443e-21
2.04287e-21
2.27263e-21
3.51879e-21
5.20199e-21
3.59475e-21
1.0084e-20
9.34838e-22
1.20541e-21
8.35866e-22
5.29866e-21
2.38289e-21
2.13383e-21
2.59265e-21
3.00712e-22
1.70322e-21
3.46158e-21
6.36496e-21
1.04865e-21
1.81758e-21
2.79563e-22
2.84784e-21
5.85941e-21
2.69174e-21
3.08384e-21
1.94861e-21
4.24385e-22
8.95611e-21
4.27352e-22
4.43407e-23
8.84769e-22
6.16699e-21
4.29763e-21
6.47698e-21
5.57863e-21
8.91212e-22
9.29312e-21
1.49295e-21
2.27884e-21
2.43799e-21
2.38953e-21
1.91977e-21
2.56272e-21
6.36136e-21
2.30098e-21
9.96941e-21
4.38443e-21
6.75993e-21
1.24029e-21
1.52796e-21
3.82642e-22
2.64249e-21
9.76557e-22
1.28538e-21
2.12119e-21
9.9174e-22
3.69561e-21
4.629e-21
2.59892e-21
3.31283e-21
5.65198e-22
1.26091e-21
1.49927e-20
2.02103e-21
5.39783e-21
6.95485e-21
7.50191e-21
7.42131e-22
2.59333e-22
1.02877e-21
1.05925e-21
5.15392e-21
1.00705e-21
4.43552e-21
1.08126e-21
1.58036e-23
2.89513e-22
1.25624e-21
2.42333e-21
2.4499e-21
2.8631e-22
5.90257e-22
1.34803e-21
4.16617e-22
1.35576e-21
9.02013e-21
1.34148e-21
7.25852e-22
7.69355e-21
2.35534e-21
2.76291e-22
2.00472e-21
7.25404e-21
2.32245e-21
5.07321e-21
2.56415e-21
6.237e-22
1.19361e-21
9.01188e-24
3.95806e-21
6.16087e-21
7.14788e-22
6.54092e-21
3.21443e-21
8.10511e-22
1.87994e-21
3.29131e-21
1.75878e-21
2.24917e-21
2.72254e-22
4.62173e-21
3.18444e-21
9.02183e-21
1.36692e-21
1.88334e-21
3.15991e-21
4.06414e-21
9.62064e-21
9.47171e-21
2.06141e-21
4.7358e-22
3.07392e-21
4.77706e-22
2.68556e-21
8.51382e-22
9.64143e-22
3.25794e-21
5.29824e-21
5.26432e-21
1.12961e-21
1.60197e-21
9.02222e-22
7.20353e-22
4.67917e-21
5.4481e-22
1.08077e-22
8.52756e-22
1.42243e-21
5.70479e-21
1.89962e-22
6.18685e-21
2.92966e-22
8.25514e-22
2.29994e-21
2.45623e-21
4.69369e-22
3.53557e-21
3.4413e-21
4.14693e-22
3.48707e-21
5.1587e-21
5.31575e-21
2.57709e-21
5.68674e-21
4.78428e-22
1.10016e-21
1.77358e-21
6.88542e-23
7.50227e-22
5.77065e-21
4.30734e-21
1.18943e-21
4.26513e-22
6.80097e-21
6.0504e-22
1.10219e-21
5.74317e-21
3.13925e-21
7.72545e-22
8.19733e-21
1.57205e-21
3.03765e-21
2.01798e-22
7.14689e-21
3.35338e-21
3.30854e-21
4.69482e-22
1.28725e-21
4.66291e-22
2.33078e-21
1.08411e-20
6.87276e-22
3.11715e-21
3.5317e-21
1.14844e-20
3.04235e-22
7.57006e-22
3.15001e-22
3.41601e-21
1.727e-21
1.35418e-21
2.85821e-21
1.66878e-21
3.48157e-21
2.30843e-21
1.46e-21
2.86252e-22
7.89995e-21
2.02053e-21
1.05179e-21
1.03032e-21
4.66641e-21
2.45669e-22
3.44224e-21
5.89861e-22
2.66324e-21
3.56085e-21
2.30394e-21
3.75174e-22
1.98467e-22
1.1309e-21
6.3973e-21
7.23405e-22
1.27212e-21
7.07122e-22
1.61147e-21
9.76797e-21
3.69983e-22
1.06658e-20
1.49508e-20
2.83402e-21
1.2276e-21
2.32457e-21
1.37691e-21
1.89513e-22
3.40836e-21
5.74127e-21
5.50714e-21
1.04257e-21
4.16713e-22
5.63229e-22
9.8606e-21
8.61946e-22
4.30145e-21
7.27677e-21
2.52225e-21
6.96859e-21
2.02303e-21
5.72731e-21
3.19479e-21
3.93218e-21
2.33314e-21
8.81317e-22
5.85647e-21
4.10262e-21
8.43921e-21
6.31899e-21
8.92231e-21
5.09078e-21
2.19386e-21
1.17205e-22
2.82327e-21
6.40171e-23
1.47903e-21
1.02772e-20
1.71487e-21
1.0104e-21
1.08754e-21
1.48866e-21
2.98289e-21
2.50877e-21
1.06235e-21
3.92015e-22
4.0838e-22
1.61727e-21
2.58314e-22
1.36954e-22
2.21981e-22
2.9323e-21
1.58442e-21
1.31042e-21
4.47999e-22
4.34226e-21
6.22648e-21
7.83717e-21
1.99632e-21
4.86204e-22
4.27133e-21
8.83484e-21
3.11175e-21
4.99775e-21
7.78927e-22
2.26563e-22
2.96805e-21
6.76393e-22
2.39405e-22
2.39438e-21
6.66148e-21
2.23092e-21
8.00329e-21
3.9248e-21
3.52999e-21
1.10617e-20
2.40725e-21
3.59044e-21
1.88029e-21
1.169e-21
3.39305e-21
2.24419e-21
2.49926e-22
4.95463e-21
1.58032e-21
2.22489e-21
2.9406e-21
3.69087e-21
4.67179e-22
7.11781e-21
6.02365e-21
2.78933e-21
3.53196e-21
1.94265e-21
1.0282e-21
2.38395e-23
3.41795e-21
4.24367e-21
3.75322e-21
4.00324e-21
3.8347e-21
1.14365e-23
1.45153e-21
7.91219e-22
2.54793e-21
3.24733e-21
1.69212e-24
1.49482e-21
1.38472e-23
4.29748e-21
7.95143e-22
4.76687e-21
8.34204e-23
3.52459e-21
1.03821e-21
4.48052e-21
3.45559e-22
8.6591e-22
3.75749e-21
4.75799e-22
9.35569e-23
2.53388e-22
1.28769e-22
4.5842e-22
5.61384e-21
8.23376e-22
1.94107e-21
7.95923e-22
2.87723e-21
6.38701e-21
1.56885e-21
1.94153e-21
1.45658e-21
5.03671e-22
3.22069e-21
6.57556e-21
7.83586e-24
5.32572e-21
3.67101e-22
3.86736e-23
4.51595e-21
3.1751e-21
2.87891e-21
7.30609e-22
9.00067e-21
9.32428e-23
9.50437e-21
7.65695e-22
2.82719e-21
2.14847e-21
1.60274e-20
1.70773e-21
2.54191e-21
4.01022e-21
8.23089e-21
9.82552e-22
8.5706e-21
1.01109e-22
7.59578e-21
2.04654e-21
1.42153e-21
8.55521e-22
1.35127e-21
2.60649e-21
1.93019e-21
1.5844e-21
1.65074e-21
2.71919e-21
7.04952e-21
3.88909e-21
1.6904e-22
2.51591e-21
3.92798e-21
6.61711e-22
9.6362e-21
1.72381e-21
3.23746e-22
8.3034e-22
3.65331e-22
3.68767e-21
2.83047e-21
2.89516e-22
1.76809e-21
8.62472e-21
3.12038e-21
5.51313e-22
2.06814e-21
1.09886e-21
2.02298e-21
5.23063e-21
8.54215e-22
1.07309e-21
1.94765e-21
3.44748e-21
1.57544e-21
8.82804e-22
7.00026e-22
2.45279e-21
6.98639e-22
1.89132e-21
6.03587e-22
4.11256e-22
2.56893e-21
2.87286e-22
2.12058e-21
1.90489e-21
3.20569e-22
1.34424e-21
2.08476e-22
4.49979e-21
4.04079e-22
1.12433e-21
1.58222e-21
1.26771e-20
8.86297e-21
3.98005e-21
4.0383e-21
3.85173e-21
1.81139e-21
1.30781e-21
9.07794e-22
1.09359e-21
3.68223e-21
2.95566e-21
4.46024e-22
4.8691e-21
4.07417e-21
3.52256e-21
8.5371e-22
5.75585e-22
2.77075e-21
1.27889e-20
5.08849e-21
2.92331e-21
2.6144e-20
4.40177e-21
6.95612e-21
4.00431e-21
6.67167e-22
8.13821e-22
9.14463e-22
1.30433e-21
5.40072e-22
1.47395e-20
8.65826e-22
1.06843e-20
2.74456e-21
6.6895e-21
9.74009e-22
3.03731e-21
1.46248e-21
2.72854e-21
4.14998e-22
6.64444e-22
5.12288e-22
2.23334e-21
1.76905e-21
9.92347e-22
3.59641e-22
7.97704e-21
1.68789e-21
6.83572e-21
8.65293e-21
1.46386e-21
6.70304e-21
4.35441e-21
3.51389e-21
7.49029e-21
6.81088e-22
2.16104e-21
3.57636e-21
9.46964e-21
4.77727e-21
6.26039e-21
4.22191e-21
9.24477e-22
1.37467e-22
1.40547e-21
3.30359e-22
4.53747e-21
2.27073e-22
4.76885e-21
9.73316e-22
1.8895e-21
3.52886e-21
7.88369e-21
3.62467e-21
1.54846e-21
2.44031e-21
1.998e-21
1.665e-21
4.74507e-21
6.69393e-22
3.35576e-21
4.24865e-21
8.71994e-21
7.31019e-21
1.03868e-21
3.55651e-21
1.41385e-21
1.17333e-20
7.65757e-21
3.08967e-21
1.62763e-21
2.74353e-21
1.49458e-21
8.17487e-22
2.2989e-21
2.71589e-21
4.97237e-22
1.77692e-21
3.83386e-22
9.93891e-22
4.4026e-22
4.42699e-21
3.99542e-21
1.20384e-20
2.7734e-21
1.52971e-21
3.65687e-22
9.57537e-22
7.40184e-21
6.71407e-21
1.33825e-20
3.81982e-22
2.05541e-21
9.78582e-21
1.377e-22
2.27407e-21
4.25211e-22
7.9835e-21
4.04072e-21
4.94875e-21
2.41912e-21
1.90625e-21
6.1523e-21
6.24255e-22
8.46295e-21
5.49339e-21
1.21034e-21
1.893e-22
2.14055e-22
3.07099e-21
1.42509e-21
2.87299e-21
6.5367e-21
1.11036e-20
8.0855e-21
5.70056e-23
1.30572e-20
2.63179e-21
3.71581e-21
5.41482e-22
1.40949e-23
7.52605e-22
5.41073e-21
1.10218e-21
2.46524e-21
7.12586e-22
4.74599e-21
2.47785e-21
8.42152e-23
1.80784e-21
6.00035e-22
3.08236e-21
3.88921e-21
1.08251e-21
1.20084e-21
4.76464e-21
8.47611e-22
3.24727e-21
2.05699e-21
7.56508e-22
6.03233e-22
7.26627e-21
1.12508e-20
1.7362e-21
6.74617e-21
3.35819e-21
1.81042e-21
2.43821e-21
1.20527e-20
7.05505e-21
5.86835e-21
1.07892e-21
2.25438e-21
3.95338e-21
2.84489e-22
4.22115e-21
7.5209e-22
7.73445e-22
1.40911e-22
4.32962e-22
2.39396e-20
5.56024e-21
7.73072e-21
2.88984e-21
3.28966e-21
4.87852e-22
1.85448e-22
6.21029e-21
4.57704e-23
4.13769e-21
2.0147e-21
5.58369e-21
1.24289e-21
3.70149e-21
4.9604e-21
1.16341e-22
1.04038e-21
4.98604e-21
1.65512e-21
1.10825e-21
5.0522e-22
6.12583e-22
1.00475e-21
2.81909e-21
6.71279e-23
7.95479e-22
2.08265e-21
3.49263e-21
7.22707e-22
7.17965e-22
2.4557e-21
9.1592e-22
3.25002e-21
2.07598e-21
6.26022e-23
2.69556e-21
4.084e-22
1.32991e-21
5.62089e-21
5.35423e-22
3.15962e-21
5.41072e-21
3.26762e-21
4.30928e-22
1.74447e-22
1.04007e-20
4.01419e-21
2.05441e-21
3.59089e-21
4.52371e-21
7.64372e-22
2.63932e-22
5.87386e-22
8.0198e-21
5.63089e-21
4.28206e-21
2.47395e-21
2.51329e-21
4.54372e-21
5.63566e-21
4.4592e-21
2.94715e-21
2.88192e-21
3.62445e-21
1.31509e-21
2.84952e-21
4.49118e-21
1.82401e-21
1.79761e-22
3.96591e-21
3.7628e-21
2.67739e-21
1.34118e-21
2.68694e-21
9.21449e-21
6.44459e-22
1.05747e-21
4.70545e-21
1.52583e-21
3.17522e-22
5.12011e-22
2.62614e-22
4.6921e-21
8.41526e-21
8.24361e-22
3.79202e-21
1.04106e-21
3.91635e-21
3.8546e-21
5.22703e-22
9.53943e-22
2.37561e-21
4.54087e-21
4.23723e-22
1.10859e-21
1.61989e-20
4.74527e-21
4.84272e-21
4.1374e-21
5.1982e-23
1.35156e-21
3.51257e-21
1.87123e-21
7.16872e-21
3.52225e-22
2.73383e-22
1.51746e-20
2.28542e-21
8.25363e-21
2.78674e-21
1.01835e-20
2.30558e-21
1.16603e-20
5.15017e-22
2.70829e-21
1.88668e-21
4.37578e-21
2.17947e-21
3.46953e-21
1.13572e-22
7.34804e-21
3.87373e-21
1.77583e-21
1.34116e-21
2.08395e-21
6.69239e-21
8.24294e-21
2.78823e-21
2.15742e-21
1.40751e-20
2.62986e-21
1.4789e-21
5.56604e-22
2.08014e-21
5.97237e-21
4.54947e-21
3.69283e-21
1.40923e-21
3.19363e-21
4.43179e-21
1.05112e-21
6.98537e-22
2.2718e-23
1.27275e-20
5.23487e-22
1.33786e-21
2.448e-21
1.49037e-21
9.22268e-21
8.18287e-21
5.89005e-21
2.79452e-21
5.84483e-21
1.36285e-22
8.10766e-21
4.2029e-21
2.66122e-21
1.10408e-21
2.76714e-21
1.42154e-21
3.68512e-21
3.84498e-22
1.05862e-20
2.47338e-22
1.18099e-20
1.37119e-21
1.0185e-22
3.83457e-21
4.82733e-21
7.85394e-21
1.32205e-23
8.23627e-23
1.93739e-21
6.66464e-21
4.453e-21
7.49061e-22
6.68554e-22
8.05987e-22
1.74046e-20
2.60618e-21
2.31307e-21
4.38551e-21
8.91855e-22
2.14698e-21
6.03857e-21
2.40738e-21
5.98073e-22
1.84341e-22
1.46332e-21
1.65891e-22
3.16855e-21
1.05501e-21
2.91461e-21
6.83872e-21
3.44641e-21
4.60572e-21
4.50917e-22
3.29315e-22
3.78031e-21
5.67165e-21
1.14085e-20
5.46491e-22
3.16086e-22
3.60347e-21
7.7263e-22
1.32177e-21
2.60911e-21
3.0186e-21
1.97041e-21
2.37683e-21
1.26001e-21
2.23098e-21
2.32721e-21
2.8419e-22
1.08292e-20
1.30523e-21
2.14305e-21
3.89161e-22
2.8074e-21
2.56741e-21
9.19957e-22
2.68263e-21
1.96505e-21
2.87313e-21
1.31954e-20
3.87056e-21
1.75442e-21
4.01893e-22
4.30568e-21
3.58874e-21
4.36831e-21
3.35701e-21
1.29104e-20
1.0059e-21
1.99171e-21
3.46302e-21
4.76099e-21
2.34296e-22
2.80973e-21
6.01479e-21
4.24831e-21
3.12987e-21
1.55097e-21
3.17655e-21
2.31793e-21
1.04966e-21
8.13762e-22
1.78099e-21
8.7454e-21
1.46619e-21
2.34915e-21
8.14789e-21
3.82012e-21
2.36656e-21
9.63484e-21
4.76718e-21
1.6386e-21
3.15982e-21
1.31199e-21
2.40219e-21
2.74947e-23
5.10176e-21
4.61181e-21
3.5062e-21
5.00468e-21
7.60591e-21
1.9869e-20
2.81425e-21
3.19484e-21
2.74348e-21
3.2078e-21
7.87981e-22
1.73626e-20
4.88344e-21
7.32699e-22
7.29667e-22
9.81738e-22
4.81862e-21
4.86215e-22
1.33354e-20
5.54997e-21
4.90417e-21
1.03119e-21
1.79327e-22
3.25635e-22
7.16661e-22
2.7956e-21
2.34999e-21
1.30416e-21
5.42183e-22
9.10871e-23
2.66134e-22
3.21241e-22
2.75702e-21
3.4515e-21
1.04424e-20
1.98769e-21
5.5555e-21
2.76897e-21
4.32119e-21
2.29423e-21
1.02538e-20
4.6348e-21
2.95268e-21
3.4908e-21
2.54695e-21
1.44084e-21
2.43324e-21
3.72028e-21
6.90456e-21
3.95092e-21
1.57199e-21
2.52855e-22
2.15947e-22
9.63122e-21
8.37837e-22
5.34357e-22
2.09151e-22
1.23287e-20
2.68601e-21
1.01287e-23
3.1644e-21
5.11239e-22
1.4082e-20
1.57421e-21
2.63016e-21
1.01899e-20
9.18085e-22
1.6488e-21
2.57058e-21
3.13217e-22
6.63905e-21
6.30147e-22
6.53388e-21
3.73903e-22
3.0436e-21
8.18984e-21
2.91773e-21
5.08009e-21
6.31471e-21
5.46945e-23
2.76212e-21
5.06953e-23
3.52645e-22
5.23379e-21
1.23146e-21
3.92127e-21
8.60037e-22
9.20442e-22
1.39143e-21
1.17875e-21
3.27982e-23
2.89849e-22
5.27013e-21
1.00122e-21
1.3729e-21
2.88942e-21
1.68045e-21
5.86543e-21
4.75077e-21
8.85653e-21
7.22422e-21
7.1478e-22
2.8306e-21
1.00685e-21
3.08699e-21
8.12657e-22
1.60909e-22
6.74435e-21
1.18985e-21
4.01375e-22
3.44459e-21
2.87384e-21
1.45838e-21
1.71031e-21
3.79499e-21
3.56349e-21
4.95689e-22
3.46609e-21
3.33398e-21
2.21371e-21
2.74874e-21
1.96057e-21
9.11427e-21
5.72388e-23
2.08561e-21
3.83012e-21
7.49659e-22
6.8251e-21
1.11002e-21
3.10433e-21
7.15796e-21
3.12497e-21
7.62846e-21
4.78425e-21
6.33211e-21
5.66254e-23
1.55846e-21
6.81345e-21
9.82841e-22
4.77683e-21
1.3248e-21
9.77548e-22
1.04132e-21
1.43206e-21
7.35178e-21
1.1738e-20
2.88861e-21
4.70018e-22
3.46404e-21
7.02613e-21
2.45244e-21
4.83175e-21
6.89887e-22
4.04305e-21
1.77826e-21
2.17396e-21
4.21834e-21
3.76294e-21
9.17392e-21
3.77062e-21
9.49897e-23
4.05173e-22
6.43996e-22
1.22913e-22
1.16092e-21
3.69643e-21
2.83921e-22
5.69052e-21
1.29098e-20
7.19014e-21
1.28721e-22
6.60102e-21
2.09652e-21
1.48295e-21
3.65968e-21
7.23279e-21
3.64914e-21
4.28209e-21
4.79522e-21
1.5102e-21
3.17988e-21
1.38406e-21
2.03473e-21
1.45013e-21
4.22864e-21
4.30275e-21
8.58047e-21
6.70013e-21
1.0365e-20
4.94851e-22
1.1936e-21
1.01955e-21
5.98252e-22
1.8135e-22
3.34632e-21
8.13426e-22
1.01438e-21
1.94529e-21
9.11018e-22
5.84345e-21
4.21403e-21
1.0428e-21
9.80971e-22
7.46448e-22
5.88802e-21
1.99922e-22
1.33431e-21
1.93833e-22
4.35862e-22
1.68037e-20
3.10855e-23
1.20591e-22
5.96262e-21
2.06277e-21
6.38775e-21
5.32435e-21
4.00517e-23
9.30138e-21
1.54678e-21
3.1444e-21
1.18802e-21
1.27597e-21
9.07283e-22
6.56816e-21
4.27605e-21
1.52607e-21
4.22086e-21
5.38605e-21
6.5027e-23
9.55357e-22
3.88064e-22
6.69038e-22
5.69675e-21
1.85411e-21
3.7737e-21
9.32926e-22
5.68254e-21
2.5131e-22
2.98779e-21
1.03954e-21
6.20953e-21
2.86937e-21
3.08356e-21
4.37477e-21
1.69323e-21
4.31329e-22
4.13605e-21
6.35998e-22
1.16545e-20
1.10108e-21
1.33416e-21
9.55265e-23
4.71631e-21
9.30906e-21
1.93164e-21
6.59414e-21
3.20999e-22
7.71753e-23
1.69451e-21
1.57469e-23
1.90582e-21
1.45363e-21
1.22717e-21
8.13382e-21
2.8319e-21
1.25572e-21
4.76295e-21
1.99554e-21
3.68713e-21
5.08782e-21
1.94598e-22
2.27819e-21
2.10483e-21
8.03221e-22
2.03528e-21
7.60511e-21
1.58154e-22
1.00812e-20
4.12352e-22
2.49525e-21
1.16612e-21
2.09935e-21
4.96606e-22
1.01209e-21
5.89222e-21
5.39827e-22
1.10202e-20
1.02177e-21
5.33277e-21
6.42722e-23
4.27969e-21
2.15152e-21
3.51688e-21
1.77895e-21
6.72598e-23
5.83801e-21
2.33553e-21
2.83829e-22
5.96986e-21
3.83881e-21
5.65416e-22
2.26439e-21
5.93696e-21
3.68064e-21
2.79939e-21
7.00174e-21
1.90207e-21
3.73281e-21
1.15194e-21
2.46202e-21
1.33325e-21
1.0347e-20
1.30614e-21
1.70652e-21
5.1001e-22
2.66461e-21
8.84792e-22
5.11167e-22
5.05093e-21
1.70589e-21
5.00855e-21
6.1982e-21
9.91362e-22
3.04903e-22
2.3782e-21
4.91005e-21
1.05137e-21
7.95398e-22
2.53529e-21
1.45715e-21
1.49573e-21
6.11281e-21
4.17024e-21
2.79554e-22
4.95148e-21
2.32095e-22
6.46561e-21
1.83612e-21
2.45803e-22
5.34378e-22
4.78616e-21
6.89643e-22
1.0017e-20
3.71218e-22
2.02277e-21
3.39617e-22
2.92741e-22
7.02633e-22
2.52947e-21
3.58946e-21
4.9045e-22
3.37917e-22
2.44459e-22
3.8958e-21
3.17193e-21
9.66783e-23
3.408e-21
5.7897e-21
4.98594e-21
3.06404e-21
1.77702e-21
1.1512e-21
1.2852e-21
2.772e-21
7.04651e-21
5.03008e-21
2.8317e-22
8.6366e-22
1.49192e-21
3.87325e-21
6.93371e-22
9.46406e-22
6.2388e-22
9.40198e-22
4.81259e-21
5.62283e-22
9.31043e-22
5.71109e-21
1.13175e-20
8.32664e-21
3.52433e-21
1.62361e-21
1.64015e-21
6.97016e-21
4.29597e-22
6.27494e-21
1.45897e-21
5.03628e-21
9.09055e-22
2.2164e-21
7.17808e-21
2.47698e-21
3.88117e-21
1.39191e-21
2.97567e-21
6.91795e-21
8.13122e-21
3.86591e-21
1.23442e-21
2.88164e-21
8.94327e-22
9.92882e-22
8.70908e-22
1.41768e-21
4.38302e-21
1.27844e-21
1.04276e-21
4.24855e-21
5.9939e-23
6.57288e-22
5.01637e-22
9.66345e-21
5.70456e-21
2.48586e-22
4.90626e-22
2.23643e-21
4.25671e-21
3.37675e-22
5.32551e-22
9.57443e-21
2.69016e-22
1.96972e-21
4.97995e-21
2.50205e-22
1.96702e-21
3.5698e-21
1.26829e-21
8.44548e-22
8.11547e-21
9.6035e-23
3.67475e-22
5.16252e-23
6.08643e-22
3.03486e-21
5.18006e-21
4.2199e-21
6.18683e-22
5.41177e-21
9.18469e-22
4.34455e-21
2.688e-21
1.30941e-20
4.07945e-21
1.92123e-21
1.17414e-21
1.16872e-21
4.77133e-22
2.31574e-23
2.95265e-21
6.66556e-23
9.86065e-22
1.11617e-21
6.33149e-22
7.21303e-22
3.66449e-21
4.239e-21
5.24405e-22
3.07428e-21
1.01674e-21
3.69164e-21
3.341e-22
2.66809e-21
2.9687e-22
3.58023e-21
2.56175e-21
4.59125e-21
2.32137e-21
2.24466e-21
3.28956e-21
1.25681e-21
9.13048e-22
2.10029e-21
4.86326e-22
5.0058e-21
4.97358e-21
8.78624e-22
1.09419e-21
8.42701e-22
6.61151e-22
2.30132e-21
3.49079e-22
8.97514e-21
1.29286e-22
1.0925e-21
2.77859e-22
1.08869e-20
1.24684e-21
1.14448e-21
4.71208e-21
1.27504e-21
1.40671e-21
1.20981e-21
1.96549e-21
1.20447e-21
6.35494e-21
1.997e-22
6.53614e-22
3.61654e-21
2.73286e-21
1.90458e-21
6.328e-21
2.80989e-21
1.65718e-21
1.16851e-21
3.84905e-21
3.63037e-22
2.76067e-22
9.47231e-22
1.93094e-21
6.66894e-21
5.94223e-21
8.48771e-23
7.38049e-21
1.00598e-21
5.87021e-21
2.19696e-21
3.4945e-22
1.09318e-21
5.30076e-22
1.29451e-21
3.99162e-22
2.49522e-22
4.57129e-21
8.0956e-21
2.2204e-21
3.7302e-21
2.62708e-22
8.75953e-22
1.33163e-21
8.88197e-21
2.62822e-21
3.69308e-21
8.79532e-22
3.92271e-21
4.82719e-21
1.57247e-22
5.78005e-21
1.13708e-22
2.20268e-21
2.36965e-21
2.10853e-21
7.28431e-22
7.40815e-21
8.02793e-21
4.34067e-21
3.21314e-21
1.63993e-21
1.4483e-21
4.84354e-21
7.21733e-21
1.97246e-21
1.28487e-21
1.96306e-21
7.20693e-22
3.25517e-21
6.19189e-21
3.80497e-21
7.54892e-22
2.61082e-21
1.25019e-21
8.33859e-22
5.29044e-21
6.62275e-21
2.34999e-21
2.6202e-22
1.69087e-21
5.98536e-21
5.02497e-23
2.64616e-21
1.62689e-21
1.87636e-21
2.3297e-21
2.58153e-21
3.6668e-21
1.09109e-21
2.81625e-21
1.09289e-21
3.53723e-21
3.17195e-21
7.28243e-21
3.88138e-22
1.43316e-21
6.245e-21
1.53361e-21
1.1766e-21
7.4431e-22
1.23655e-22
3.6136e-21
1.8191e-21
8.65679e-21
9.94206e-22
1.94808e-23
1.30113e-20
3.20885e-21
6.48014e-21
1.74022e-21
5.9563e-21
7.02842e-22
4.40363e-22
1.85129e-21
1.54956e-21
3.80362e-21
2.85637e-22
1.20947e-20
2.67181e-21
1.9808e-21
3.04382e-21
7.60264e-22
1.6732e-21
1.03955e-21
1.61772e-21
1.21482e-21
4.79001e-22
1.94002e-21
7.21517e-21
7.05475e-22
5.856e-21
3.29194e-21
3.14706e-21
9.15227e-22
4.60213e-24
2.48708e-21
2.9676e-22
1.41176e-21
9.16855e-23
1.04079e-20
3.90049e-21
4.99105e-21
5.52421e-21
3.43324e-21
6.09173e-22
5.6729e-23
2.68332e-21
1.94964e-21
3.1309e-21
1.39474e-22
1.2879e-20
1.13712e-20
4.46339e-22
1.38526e-21
1.22574e-20
1.19466e-20
2.64094e-21
7.19086e-22
1.09266e-20
2.40335e-21
2.09343e-21
2.31969e-21
9.49723e-22
1.29526e-21
4.00992e-21
1.45727e-21
2.04486e-21
5.81958e-21
2.58936e-21
4.69684e-21
1.3368e-21
8.4629e-21
1.36513e-21
3.16703e-21
3.00552e-21
2.95433e-21
6.75153e-22
5.11909e-22
1.86589e-22
1.18072e-21
1.39521e-26
2.78387e-21
2.38495e-21
2.84634e-22
9.70521e-22
5.15219e-21
1.93023e-21
1.0902e-20
1.83432e-20
1.78471e-21
1.37722e-21
3.08671e-21
3.3155e-22
2.3682e-22
5.35766e-21
4.14954e-21
2.84411e-21
3.53081e-21
6.99219e-21
3.85015e-21
4.25752e-22
6.94106e-21
1.07438e-20
9.25701e-22
7.98077e-22
1.98488e-21
5.68977e-21
4.85293e-21
9.76348e-22
5.11136e-21
7.81786e-22
6.87257e-21
7.13379e-22
2.96288e-21
1.54444e-21
2.50641e-21
1.86968e-21
1.63072e-21
3.10783e-21
2.76856e-22
4.92153e-21
2.37317e-21
8.50493e-21
4.07033e-22
1.9772e-21
9.07331e-21
3.60053e-22
1.14516e-21
3.32323e-22
5.19416e-21
9.35085e-22
1.04345e-20
2.27963e-21
7.20841e-21
2.28068e-21
4.55439e-22
2.00765e-21
3.52081e-21
7.52694e-21
1.21944e-20
1.08678e-21
8.14982e-22
7.37652e-22
2.1771e-21
1.77429e-21
2.71277e-21
8.16731e-21
1.60378e-21
1.49498e-21
8.6758e-21
8.52136e-22
3.74946e-22
1.05751e-21
1.86742e-21
2.83963e-21
5.01933e-21
4.05811e-22
4.09209e-21
2.25182e-22
1.02169e-21
2.93485e-21
1.30824e-21
3.09345e-22
8.11503e-21
7.15656e-23
5.22309e-21
2.03215e-21
1.07263e-21
4.86335e-22
2.17356e-21
1.23668e-20
1.3624e-21
2.96989e-21
7.49727e-21
1.88361e-21
5.12787e-21
2.05638e-21
4.35634e-22
4.35192e-22
1.00409e-21
3.68377e-21
4.83101e-22
9.11113e-21
3.69483e-21
4.14461e-21
2.3816e-21
4.71417e-21
1.01776e-23