/*--------------------------------*- C++ -*----------------------------------*\
  =========                 |
  \\      /  F ield         | OpenFOAM: The Open Source CFD Toolbox
   \\    /   O peration     | Website:  https://openfoam.org
    \\  /    A nd           | Version:  7
     \\/     M anipulation  |
\*---------------------------------------------------------------------------*/
FoamFile
{
    version     2.0;
    format      ascii;
    class       Cloud<dsmcParcel>;
    location    "0.007/lagrangian/dsmc";
    object      positions;
}
// * * * * * * * * * * * * * * * * * * * * * * * * * * * * * * * * * * * * * //

2861
(
(0.742037 0.128981 0 0.128981) 284 283 2
(0.525892 0.237054 0 0.237054) 470 469 2
(0.387889 0.306055 0 0.306055) 75 74 2
(0.282657 0.358672 0 0.358672) 40 39 2
(0.744712 0.127644 0 0.127644) 29 28 2
(0.951486 0.0242569 0 0.0242569) 102 101 2
(0.246475 0.376763 0.376763 0) 77 77 2
(0.576758 0.211621 0.211621 0) 102 102 2
(0.392525 0.303738 0 0.303738) 84 84 1
(0.0358331 0.482083 0 0.482083) 491 490 2
(0.143518 0.428241 0.428241 0) 154 153 1
(0.321646 0.339177 0 0.339177) 126 126 1
(0.208215 0.395892 0 0.395892) 99 98 2
(0.512374 0.243813 0.243813 0) 56 56 2
(0.992624 0.0036879 0.0036879 0) 232 231 1
(0.696378 0.151811 0 0.151811) 324 324 1
(0.901484 0.049258 0 0.049258) 59 58 2
(0.182293 0.408853 0.408853 0) 6 6 2
(0.385443 0.307279 0 0.307279) 297 296 2
(0.78212 0.10894 0 0.10894) 128 127 2
(0.0895833 0.455208 0.455208 0) 175 174 1
(0.689909 0.155046 0 0.155046) 45 44 2
(0.87829 0.0608548 0 0.0608548) 8 8 1
(0.204312 0.397844 0 0.397844) 195 194 2
(0.209947 0.395026 0 0.395026) 28 27 2
(0.231011 0.384495 0.384495 0) 113 112 1
(0.835386 0.0823071 0 0.0823071) 99 98 2
(0.960389 0.0198054 0.0198054 0) 267 266 1
(0.275017 0.362491 0 0.362491) 140 140 1
(0.758933 0.120534 0.120534 0) 26 25 1
(0.41049 0.294755 0 0.294755) 284 284 1
(0.414003 0.292999 0.292999 0) 153 152 1
(0.0683641 0.465818 0 0.465818) 300 300 1
(0.435236 0.282382 0 0.282382) 223 222 2
(0.98334 0.00833002 0.00833002 0) 238 238 2
(0.165776 0.417112 0.417112 0) 328 328 2
(0.872516 0.063742 0.063742 0) 250 249 1
(0.687272 0.156364 0 0.156364) 123 122 2
(0.981698 0.00915125 0.00915125 0) 33 33 2
(0.225458 0.387271 0 0.387271) 294 293 2
(0.172441 0.413779 0 0.413779) 304 304 1
(0.808146 0.0959272 0.0959272 0) 15 15 2
(0.41783 0.291085 0.291085 0) 224 224 2
(0.16269 0.418655 0.418655 0) 170 170 2
(0.488741 0.25563 0 0.25563) 87 86 2
(0.0873759 0.456312 0.456312 0) 159 158 1
(0.79162 0.10419 0 0.10419) 124 123 2
(0.408069 0.295965 0.295965 0) 472 472 2
(0.0385636 0.480718 0.480718 0) 136 135 1
(0.185793 0.407103 0 0.407103) 64 63 2
(0.450318 0.274841 0 0.274841) 0 0 1
(0.973866 0.0130668 0 0.0130668) 12 11 2
(0.503052 0.248474 0.248474 0) 211 210 1
(0.843081 0.0784594 0 0.0784594) 97 97 1
(0.731755 0.134122 0 0.134122) 54 54 1
(0.69417 0.152915 0 0.152915) 173 173 1
(0.670011 0.164995 0.164995 0) 162 162 2
(0.0834053 0.458297 0.458297 0) 222 222 2
(0.412577 0.293712 0.293712 0) 306 305 1
(0.987208 0.0063959 0.0063959 0) 140 140 2
(0.0883027 0.455849 0.455849 0) 74 74 2
(0.0354524 0.482274 0 0.482274) 81 81 1
(0.12205 0.438975 0.438975 0) 27 26 1
(0.142029 0.428986 0.428986 0) 75 75 2
(0.0437723 0.478114 0.478114 0) 49 49 2
(0.855338 0.0723312 0.0723312 0) 173 173 2
(0.363818 0.318091 0 0.318091) 98 97 2
(0.608331 0.195835 0 0.195835) 197 197 1
(0.657393 0.171304 0 0.171304) 5 4 2
(0.355933 0.322033 0.322033 0) 88 87 1
(0.229682 0.385159 0.385159 0) 358 358 2
(0.193379 0.40331 0 0.40331) 231 231 1
(0.719308 0.140346 0 0.140346) 62 62 1
(0.504214 0.247893 0 0.247893) 312 312 1
(0.669214 0.165393 0 0.165393) 359 359 1
(0.950002 0.024999 0 0.024999) 408 407 2
(0.767675 0.116163 0.116163 0) 239 238 1
(0.49708 0.25146 0 0.25146) 167 166 2
(0.553914 0.223043 0 0.223043) 309 309 1
(0.771028 0.114486 0 0.114486) 308 308 1
(0.939212 0.030394 0.030394 0) 98 98 2
(0.997855 0.00107252 0 0.00107252) 312 312 1
(0.720784 0.139608 0 0.139608) 108 107 2
(0.226034 0.386983 0.386983 0) 207 206 1
(0.190062 0.404969 0 0.404969) 0 1000 1
(0.800775 0.0996124 0 0.0996124) 273 272 2
(0.0141549 0.492923 0 0.492923) 78 77 2
(0.732051 0.133975 0.133975 0) 86 85 1
(0.870141 0.0649297 0 0.0649297) 94 93 2
(0.711845 0.144077 0 0.144077) 186 185 2
(0.373881 0.313059 0.313059 0) 307 306 1
(0.324091 0.337954 0.337954 0) 184 183 1
(0.575606 0.212197 0.212197 0) 2 2 2
(0.150927 0.424537 0 0.424537) 39 39 1
(0.734538 0.132731 0 0.132731) 18 17 2
(0.984354 0.007823 0.007823 0) 308 307 1
(0.0826708 0.458665 0 0.458665) 308 307 2
(0.152821 0.42359 0 0.42359) 242 241 2
(0.935654 0.032173 0.032173 0) 270 269 1
(0.150412 0.424794 0.424794 0) 285 285 2
(0.125353 0.437324 0.437324 0) 216 216 2
(0.312894 0.343553 0 0.343553) 174 174 1
(0.164849 0.417576 0.417576 0) 7 6 1
(0.742537 0.128731 0.128731 0) 62 62 2
(0.429994 0.285003 0.285003 0) 169 168 1
(0.657104 0.171448 0.171448 0) 96 95 1
(0.699859 0.150071 0.150071 0) 41 41 2
(0.921625 0.0391874 0 0.0391874) 270 270 1
(0.0837959 0.458102 0.458102 0) 299 299 2
(0.543738 0.228131 0.228131 0) 155 154 1
(0.591381 0.20431 0.20431 0) 359 358 1
(0.963811 0.0180945 0.0180945 0) 384 384 2
(0.680145 0.159928 0.159928 0) 21 21 2
(0.567668 0.216166 0 0.216166) 148 147 2
(0.917504 0.0412481 0.0412481 0) 22 21 1
(0.568688 0.215656 0.215656 0) 186 185 1
(0.116163 0.441918 0 0.441918) 93 92 2
(0.0138289 0.493086 0.493086 0) 129 128 1
(0.219416 0.390292 0 0.390292) 347 347 1
(0.971716 0.0141422 0.0141422 0) 316 316 2
(0.648313 0.175843 0 0.175843) 39 39 1
(0.409988 0.295006 0 0.295006) 63 62 2
(0.575147 0.212426 0.212426 0) 298 297 1
(0.127435 0.436283 0.436283 0) 4 3 1
(0.414755 0.292622 0.292622 0) 61 61 2
(0.460692 0.269654 0 0.269654) 203 203 1
(0.67803 0.160985 0.160985 0) 33 32 1
(0.896729 0.0516356 0 0.0516356) 267 267 1
(0.755797 0.122101 0.122101 0) 32 31 1
(0.443125 0.278438 0.278438 0) 223 223 2
(0.942033 0.0289833 0.0289833 0) 90 89 1
(0.215077 0.392461 0.392461 0) 107 106 1
(0.472486 0.263757 0.263757 0) 41 41 2
(0.645929 0.177035 0 0.177035) 190 189 2
(0.992123 0.00393837 0.00393837 0) 59 59 2
(0.143386 0.428307 0.428307 0) 236 236 2
(0.759628 0.120186 0.120186 0) 61 61 2
(0.42791 0.286045 0.286045 0) 281 280 1
(0.634591 0.182704 0.182704 0) 424 424 2
(0.704129 0.147936 0.147936 0) 72 72 2
(0.523441 0.238279 0 0.238279) 534 533 2
(0.187422 0.406289 0 0.406289) 284 284 1
(0.308305 0.345847 0.345847 0) 285 285 2
(0.714776 0.142612 0 0.142612) 5 5 1
(0.589055 0.205473 0.205473 0) 124 124 2
(0.0634448 0.468278 0.468278 0) 440 440 2
(0.217431 0.391285 0 0.391285) 71 71 1
(0.573135 0.213432 0 0.213432) 22 22 1
(0.147748 0.426126 0.426126 0) 469 469 2
(0.674531 0.162735 0.162735 0) 23 22 1
(0.69296 0.15352 0 0.15352) 15 14 2
(0.40564 0.29718 0.29718 0) 298 297 1
(0.319505 0.340247 0.340247 0) 287 287 2
(0.00112687 0.499437 0 0.499437) 94 93 2
(0.836865 0.0815673 0.0815673 0) 3 3 2
(0.00824892 0.495876 0.495876 0) 206 206 2
(0.647084 0.176458 0 0.176458) 103 102 2
(0.277457 0.361272 0 0.361272) 319 319 1
(0.0380285 0.480986 0 0.480986) 159 159 1
(0.640758 0.179621 0 0.179621) 84 83 2
(0.0861444 0.456928 0 0.456928) 131 130 2
(0.320945 0.339527 0.339527 0) 88 87 1
(0.507047 0.246477 0.246477 0) 277 276 1
(0.271723 0.364138 0 0.364138) 198 198 1
(0.803243 0.0983783 0.0983783 0) 267 266 1
(0.581872 0.209064 0.209064 0) 76 76 2
(0.364152 0.317924 0 0.317924) 191 191 1
(0.173795 0.413102 0.413102 0) 130 130 2
(0.631379 0.184311 0.184311 0) 107 107 2
(0.614056 0.192972 0.192972 0) 20 19 1
(0.0661951 0.466902 0.466902 0) 395 395 2
(0.568559 0.215721 0 0.215721) 140 140 1
(0.912422 0.0437891 0 0.0437891) 441 441 1
(0.855687 0.0721566 0 0.0721566) 143 142 2
(0.153532 0.423234 0 0.423234) 188 188 1
(0.943384 0.0283082 0.0283082 0) 40 39 1
(0.299037 0.350481 0.350481 0) 175 175 2
(0.276922 0.361539 0 0.361539) 332 331 2
(0.687142 0.156429 0 0.156429) 150 149 2
(0.223066 0.388467 0 0.388467) 226 225 2
(0.256137 0.371932 0 0.371932) 61 60 2
(0.757142 0.121429 0.121429 0) 356 355 1
(0.041379 0.47931 0 0.47931) 69 68 2
(0.975886 0.0120571 0.0120571 0) 66 66 2
(0.330002 0.334999 0.334999 0) 207 206 1
(0.492148 0.253926 0 0.253926) 414 413 2
(0.266428 0.366786 0 0.366786) 115 114 2
(0.67646 0.16177 0 0.16177) 383 382 2
(0.823088 0.0884559 0.0884559 0) 214 213 1
(0.199786 0.400107 0.400107 0) 124 123 1
(0.689241 0.15538 0 0.15538) 108 108 1
(0.38225 0.308875 0 0.308875) 353 352 2
(0.907617 0.0461916 0.0461916 0) 453 453 2
(0.265963 0.367018 0.367018 0) 206 206 2
(0.0155657 0.492217 0.492217 0) 146 146 2
(0.188676 0.405662 0.405662 0) 369 369 2
(0.896057 0.0519714 0.0519714 0) 0 0 2
(0.653237 0.173381 0 0.173381) 279 279 1
(0.689917 0.155041 0.155041 0) 332 332 2
(0.465432 0.267284 0 0.267284) 112 112 1
(0.118633 0.440683 0 0.440683) 256 255 2
(0.00904732 0.495476 0 0.495476) 119 118 2
(0.294048 0.352976 0.352976 0) 262 261 1
(0.47553 0.262235 0.262235 0) 311 311 2
(0.197494 0.401253 0 0.401253) 46 45 2
(0.417772 0.291114 0.291114 0) 432 431 1
(0.814126 0.0929369 0 0.0929369) 47 47 1
(0.537784 0.231108 0.231108 0) 112 111 1
(0.669404 0.165298 0.165298 0) 550 550 2
(0.88181 0.0590948 0.0590948 0) 213 213 2
(0.268064 0.365968 0 0.365968) 437 436 2
(0.863051 0.0684745 0 0.0684745) 281 281 1
(0.55017 0.224915 0.224915 0) 13 13 2
(0.603401 0.1983 0.1983 0) 634 633 1
(0.423891 0.288055 0.288055 0) 146 146 2
(0.787244 0.106378 0 0.106378) 267 267 1
(0.654347 0.172827 0 0.172827) 13 12 2
(0.0228175 0.488591 0 0.488591) 466 466 1
(0.865423 0.0672884 0.0672884 0) 310 310 2
(0.576918 0.211541 0.211541 0) 38 37 1
(0.313461 0.343269 0 0.343269) 108 107 2
(0.872162 0.0639188 0.0639188 0) 97 97 2
(0.872818 0.0635912 0 0.0635912) 290 290 1
(0.972582 0.0137089 0 0.0137089) 231 231 1
(0.490686 0.254657 0 0.254657) 178 177 2
(0.824858 0.0875711 0 0.0875711) 669 668 2
(0.127495 0.436252 0 0.436252) 248 248 1
(0.543203 0.228399 0 0.228399) 62 62 1
(0.75462 0.12269 0.12269 0) 287 287 2
(0.205609 0.397196 0.397196 0) 188 188 2
(0.523251 0.238374 0.238374 0) 48 47 1
(0.358612 0.320694 0 0.320694) 229 228 2
(0.191228 0.404386 0 0.404386) 521 521 1
(0.400896 0.299552 0.299552 0) 179 178 1
(0.25736 0.37132 0 0.37132) 79 78 2
(0.230493 0.384754 0 0.384754) 49 48 2
(0.558038 0.220981 0.220981 0) 129 128 1
(0.632769 0.183615 0.183615 0) 604 603 1
(0.629791 0.185105 0.185105 0) 323 323 2
(0.745679 0.127161 0.127161 0) 382 382 2
(0.559334 0.220333 0 0.220333) 165 165 1
(0.787378 0.106311 0 0.106311) 114 114 1
(0.106119 0.446941 0.446941 0) 179 178 1
(0.0370749 0.481463 0 0.481463) 107 106 2
(0.43466 0.28267 0.28267 0) 40 40 2
(0.818183 0.0909087 0 0.0909087) 317 317 1
(0.0164087 0.491796 0 0.491796) 79 79 1
(0.117959 0.441021 0.441021 0) 139 139 2
(0.472436 0.263782 0 0.263782) 95 94 2
(0.169261 0.41537 0 0.41537) 261 261 1
(0.132586 0.433707 0 0.433707) 110 110 1
(0.430425 0.284787 0.284787 0) 66 66 2
(0.6827 0.15865 0 0.15865) 229 228 2
(0.853024 0.073488 0.073488 0) 435 434 1
(0.651213 0.174393 0.174393 0) 256 255 1
(0.255597 0.372201 0.372201 0) 83 82 1
(0.837848 0.081076 0.081076 0) 591 590 1
(0.452002 0.273999 0.273999 0) 195 195 2
(0.635254 0.182373 0 0.182373) 508 508 1
(0.393685 0.303157 0.303157 0) 83 82 1
(0.723715 0.138142 0 0.138142) 251 251 1
(0.212367 0.393816 0 0.393816) 184 183 2
(0.453069 0.273465 0.273465 0) 276 276 2
(0.216267 0.391866 0 0.391866) 137 137 1
(0.92692 0.0365402 0 0.0365402) 193 192 2
(0.451585 0.274207 0.274207 0) 494 493 1
(0.864009 0.0679955 0 0.0679955) 141 141 1
(0.127608 0.436196 0 0.436196) 293 293 1
(0.267243 0.366379 0 0.366379) 73 72 2
(0.950065 0.0249674 0.0249674 0) 216 215 1
(0.448864 0.275568 0.275568 0) 234 233 1
(0.302413 0.348793 0.348793 0) 62 62 2
(0.0545371 0.472731 0 0.472731) 218 217 2
(0.375411 0.312295 0.312295 0) 127 127 2
(0.284013 0.357993 0.357993 0) 591 591 2
(0.981045 0.00947767 0.00947767 0) 76 75 1
(0.354061 0.322969 0 0.322969) 308 307 2
(0.345995 0.327002 0.327002 0) 375 374 1
(0.44366 0.27817 0.27817 0) 19 18 1
(0.294977 0.352511 0 0.352511) 156 156 1
(0.520511 0.239744 0.239744 0) 76 76 2
(0.919214 0.0403931 0 0.0403931) 450 449 2
(0.193669 0.403166 0.403166 0) 160 159 1
(0.221661 0.38917 0 0.38917) 134 133 2
(0.359135 0.320432 0.320432 0) 251 250 1
(0.675388 0.162306 0.162306 0) 380 380 2
(0.967322 0.016339 0 0.016339) 32 31 2
(0.806778 0.0966109 0.0966109 0) 77 76 1
(0.0831295 0.458435 0 0.458435) 254 253 2
(0.0200402 0.48998 0.48998 0) 224 224 2
(0.454475 0.272763 0 0.272763) 266 266 1
(0.422077 0.288962 0.288962 0) 155 155 2
(0.412709 0.293645 0.293645 0) 252 252 2
(0.12598 0.43701 0 0.43701) 85 85 1
(0.0432068 0.478397 0.478397 0) 298 297 1
(0.637265 0.181367 0.181367 0) 214 213 1
(0.45535 0.272325 0.272325 0) 307 307 2
(0.452661 0.27367 0.27367 0) 92 92 2
(0.91223 0.0438849 0 0.0438849) 324 324 1
(0.619314 0.190343 0.190343 0) 277 277 2
(0.498296 0.250852 0 0.250852) 111 110 2
(0.775128 0.112436 0.112436 0) 688 688 2
(0.500539 0.24973 0.24973 0) 55 55 2
(0.761825 0.119088 0 0.119088) 327 327 1
(0.276617 0.361692 0 0.361692) 62 62 1
(0.064491 0.467754 0 0.467754) 693 692 2
(0.291014 0.354493 0 0.354493) 52 51 2
(0.321336 0.339332 0.339332 0) 75 75 2
(0.549073 0.225464 0 0.225464) 467 467 1
(0.878951 0.0605243 0 0.0605243) 282 281 2
(0.81438 0.0928102 0 0.0928102) 395 394 2
(0.169678 0.415161 0.415161 0) 23 22 1
(0.411219 0.294391 0.294391 0) 98 97 1
(0.456757 0.271621 0.271621 0) 434 433 1
(0.926418 0.0367912 0.0367912 0) 142 142 2
(0.978067 0.0109663 0.0109663 0) 307 307 2
(0.296399 0.3518 0 0.3518) 2 1 2
(0.881137 0.0594316 0 0.0594316) 309 308 2
(0.75704 0.12148 0.12148 0) 414 413 1
(0.12492 0.43754 0 0.43754) 210 210 1
(0.70672 0.14664 0 0.14664) 338 337 2
(0.943608 0.0281962 0 0.0281962) 23 23 1
(0.853501 0.0732495 0 0.0732495) 181 181 1
(0.537796 0.231102 0.231102 0) 417 416 1
(0.541052 0.229474 0 0.229474) 181 181 1
(0.356787 0.321607 0.321607 0) 145 145 2
(0.90236 0.0488202 0 0.0488202) 21 20 2
(0.183369 0.408315 0 0.408315) 237 237 1
(0.214267 0.392866 0 0.392866) 366 365 2
(0.392158 0.303921 0 0.303921) 293 293 1
(0.991514 0.00424318 0.00424318 0) 339 339 2
(0.277534 0.361233 0 0.361233) 73 72 2
(0.687333 0.156333 0.156333 0) 508 508 2
(0.23056 0.38472 0.38472 0) 187 186 1
(0.861314 0.069343 0 0.069343) 246 246 1
(0.68537 0.157315 0.157315 0) 158 157 1
(0.000652691 0.499674 0.499674 0) 101 100 1
(0.0234234 0.488288 0.488288 0) 131 131 2
(0.245826 0.377087 0.377087 0) 141 140 1
(0.947267 0.0263666 0.0263666 0) 99 98 1
(0.927071 0.0364646 0 0.0364646) 519 518 2
(0.32808 0.33596 0.33596 0) 262 262 2
(0.908042 0.045979 0.045979 0) 98 97 1
(0.200836 0.399582 0.399582 0) 221 221 2
(0.83795 0.0810248 0 0.0810248) 50 49 2
(0.800052 0.0999739 0 0.0999739) 268 267 2
(0.885231 0.0573847 0.0573847 0) 51 50 1
(0.782578 0.108711 0.108711 0) 394 393 1
(0.186 0.407 0 0.407) 452 451 2
(0.312788 0.343606 0.343606 0) 391 390 1
(0.869338 0.0653312 0.0653312 0) 379 378 1
(0.97142 0.01429 0.01429 0) 362 361 1
(0.413749 0.293126 0.293126 0) 130 129 1
(0.956938 0.021531 0.021531 0) 186 186 2
(0.699662 0.150169 0.150169 0) 234 233 1
(0.402092 0.298954 0.298954 0) 110 110 2
(0.44245 0.278775 0 0.278775) 150 150 1
(0.19485 0.402575 0.402575 0) 104 104 2
(0.609126 0.195437 0.195437 0) 449 448 1
(0.842862 0.0785689 0 0.0785689) 554 554 1
(0.0107512 0.494624 0.494624 0) 625 624 1
(0.894403 0.0527984 0 0.0527984) 254 253 2
(0.0988235 0.450588 0.450588 0) 292 292 2
(0.787482 0.106259 0.106259 0) 361 360 1
(0.274985 0.362507 0 0.362507) 96 96 1
(0.625982 0.187009 0 0.187009) 88 87 2
(0.212116 0.393942 0.393942 0) 320 319 1
(0.182187 0.408906 0 0.408906) 272 272 1
(0.770618 0.114691 0.114691 0) 305 304 1
(0.243204 0.378398 0 0.378398) 212 211 2
(0.152486 0.423757 0.423757 0) 124 124 2
(0.892838 0.0535809 0.0535809 0) 500 500 2
(0.0976912 0.451154 0.451154 0) 250 249 1
(0.0948197 0.45259 0.45259 0) 79 79 2
(0.762099 0.11895 0.11895 0) 417 417 2
(0.110804 0.444598 0.444598 0) 243 242 1
(0.281768 0.359116 0.359116 0) 40 40 2
(0.754567 0.122716 0 0.122716) 206 206 1
(0.131304 0.434348 0.434348 0) 60 59 1
(0.399809 0.300095 0 0.300095) 331 331 1
(0.618793 0.190604 0.190604 0) 468 468 2
(0.630277 0.184862 0 0.184862) 278 277 2
(0.137163 0.431419 0 0.431419) 266 265 2
(0.2786 0.3607 0 0.3607) 25 24 2
(0.618386 0.190807 0 0.190807) 365 365 1
(0.382717 0.308641 0.308641 0) 62 62 2
(0.0121249 0.493938 0 0.493938) 216 216 1
(0.610781 0.194609 0 0.194609) 406 406 1
(0.103818 0.448091 0 0.448091) 425 425 1
(0.419389 0.290305 0.290305 0) 281 280 1
(0.689231 0.155384 0.155384 0) 159 158 1
(0.385707 0.307147 0.307147 0) 76 76 2
(0.703454 0.148273 0 0.148273) 618 617 2
(0.677659 0.161171 0 0.161171) 318 317 2
(0.354761 0.32262 0.32262 0) 137 137 2
(0.470832 0.264584 0 0.264584) 149 149 1
(0.564239 0.217881 0.217881 0) 377 377 2
(0.143003 0.428498 0.428498 0) 349 349 2
(0.589962 0.205019 0 0.205019) 269 268 2
(0.998202 0.000899061 0.000899061 0) 656 655 1
(0.186679 0.40666 0.40666 0) 239 239 2
(0.872486 0.0637568 0 0.0637568) 229 229 1
(0.42924 0.28538 0.28538 0) 96 96 2
(0.674678 0.162661 0 0.162661) 354 353 2
(0.553856 0.223072 0 0.223072) 229 228 2
(0.260978 0.369511 0 0.369511) 493 492 2
(0.337006 0.331497 0.331497 0) 142 141 1
(0.12425 0.437875 0.437875 0) 392 391 1
(0.716882 0.141559 0 0.141559) 4 3 2
(0.437742 0.281129 0 0.281129) 474 474 1
(0.741132 0.129434 0.129434 0) 17 17 2
(0.306335 0.346832 0 0.346832) 161 161 1
(0.697083 0.151459 0.151459 0) 334 333 1
(0.977065 0.0114673 0 0.0114673) 105 104 2
(0.163939 0.41803 0 0.41803) 557 557 1
(0.401113 0.299443 0 0.299443) 114 114 1
(0.250373 0.374813 0.374813 0) 55 55 2
(0.468887 0.265557 0 0.265557) 89 89 1
(0.763403 0.118298 0.118298 0) 210 210 2
(0.39743 0.301285 0.301285 0) 231 231 2
(0.645761 0.17712 0.17712 0) 9 8 1
(0.543459 0.22827 0.22827 0) 199 198 1
(0.699041 0.15048 0.15048 0) 530 529 1
(0.834289 0.0828553 0.0828553 0) 290 289 1
(0.908261 0.0458695 0 0.0458695) 4 4 1
(0.525401 0.237299 0 0.237299) 419 419 1
(0.304418 0.347791 0.347791 0) 602 602 2
(0.924296 0.0378519 0.0378519 0) 139 138 1
(0.00401816 0.497991 0 0.497991) 576 576 1
(0.995637 0.00218128 0.00218128 0) 132 132 2
(0.766893 0.116553 0 0.116553) 240 239 2
(0.137407 0.431296 0.431296 0) 649 648 1
(0.0316043 0.484198 0 0.484198) 188 187 2
(0.423683 0.288159 0 0.288159) 201 200 2
(0.602394 0.198803 0 0.198803) 297 296 2
(0.301393 0.349304 0.349304 0) 59 58 1
(0.309502 0.345249 0 0.345249) 657 656 2
(0.170895 0.414553 0.414553 0) 129 128 1
(0.180238 0.409881 0 0.409881) 21 21 1
(0.740574 0.129713 0 0.129713) 32 31 2
(0.509569 0.245215 0.245215 0) 365 364 1
(0.995542 0.00222923 0.00222923 0) 421 420 1
(0.312468 0.343766 0.343766 0) 192 191 1
(0.181587 0.409207 0.409207 0) 11 10 1
(0.740638 0.129681 0 0.129681) 146 145 2
(0.97201 0.0139949 0.0139949 0) 248 247 1
(0.120839 0.43958 0.43958 0) 260 260 2
(0.120423 0.439789 0.439789 0) 304 303 1
(0.486595 0.256703 0.256703 0) 309 308 1
(0.594009 0.202996 0.202996 0) 31 31 2
(0.330157 0.334921 0 0.334921) 47 47 1
(0.413151 0.293424 0 0.293424) 348 348 1
(0.936596 0.0317019 0 0.0317019) 75 75 1
(0.710436 0.144782 0 0.144782) 325 325 1
(0.322253 0.338874 0 0.338874) 271 271 1
(0.144378 0.427811 0.427811 0) 653 653 2
(0.899069 0.0504655 0.0504655 0) 322 322 2
(0.913905 0.0430475 0.0430475 0) 253 253 2
(0.267719 0.366141 0 0.366141) 234 234 1
(0.693127 0.153437 0 0.153437) 348 348 1
(0.353683 0.323158 0.323158 0) 446 445 1
(0.395599 0.3022 0 0.3022) 201 200 2
(0.686776 0.156612 0 0.156612) 317 317 1
(0.00919039 0.495405 0.495405 0) 175 175 2
(0.906083 0.0469586 0.0469586 0) 446 446 2
(0.323532 0.338234 0 0.338234) 577 576 2
(0.362162 0.318919 0.318919 0) 420 420 2
(0.359545 0.320228 0.320228 0) 93 93 2
(0.766262 0.116869 0.116869 0) 335 335 2
(0.177853 0.411073 0 0.411073) 253 252 2
(0.232489 0.383755 0 0.383755) 283 282 2
(0.508272 0.245864 0 0.245864) 65 65 1
(0.287968 0.356016 0.356016 0) 238 238 2
(0.668096 0.165952 0.165952 0) 5 4 1
(0.888451 0.0557743 0 0.0557743) 242 241 2
(0.458221 0.270889 0 0.270889) 82 82 1
(0.52191 0.239045 0 0.239045) 20 20 1
(0.418119 0.290941 0 0.290941) 320 320 1
(0.418947 0.290527 0.290527 0) 468 467 1
(0.806171 0.0969147 0.0969147 0) 404 403 1
(0.694321 0.15284 0.15284 0) 240 240 2
(0.177371 0.411315 0 0.411315) 203 202 2
(0.563725 0.218137 0.218137 0) 166 165 1
(0.451509 0.274246 0.274246 0) 185 184 1
(0.0240595 0.48797 0.48797 0) 59 59 2
(0.677064 0.161468 0.161468 0) 337 337 2
(0.820659 0.0896707 0 0.0896707) 94 94 1
(0.837355 0.0813224 0 0.0813224) 270 270 1
(0.81697 0.091515 0.091515 0) 611 610 1
(0.756864 0.121568 0.121568 0) 255 255 2
(0.643447 0.178276 0 0.178276) 40 39 2
(0.570025 0.214988 0.214988 0) 191 190 1
(0.799524 0.100238 0.100238 0) 250 249 1
(0.622673 0.188663 0.188663 0) 72 71 1
(0.438474 0.280763 0.280763 0) 138 137 1
(0.0970554 0.451472 0 0.451472) 311 310 2
(0.598276 0.200862 0 0.200862) 367 367 1
(0.465424 0.267288 0.267288 0) 423 422 1
(0.457349 0.271325 0 0.271325) 520 519 2
(0.262196 0.368902 0.368902 0) 361 360 1
(0.751491 0.124255 0 0.124255) 186 185 2
(0.219225 0.390388 0.390388 0) 68 67 1
(0.558586 0.220707 0.220707 0) 147 147 2
(0.033126 0.483437 0 0.483437) 313 312 2
(0.41265 0.293675 0.293675 0) 250 249 1
(0.481753 0.259124 0 0.259124) 241 240 2
(0.932395 0.0338027 0.0338027 0) 63 63 2
(0.388404 0.305798 0 0.305798) 278 277 2
(0.765003 0.117499 0.117499 0) 425 425 2
(0.822433 0.0887834 0 0.0887834) 207 207 1
(0.501584 0.249208 0.249208 0) 311 310 1
(0.652085 0.173958 0 0.173958) 140 139 2
(0.473538 0.263231 0.263231 0) 470 469 1
(0.386486 0.306757 0 0.306757) 420 420 1
(0.202248 0.398876 0.398876 0) 440 440 2
(0.920684 0.0396578 0.0396578 0) 9 9 2
(0.746157 0.126921 0 0.126921) 251 250 2
(0.57668 0.21166 0.21166 0) 233 233 2
(0.630254 0.184873 0 0.184873) 95 94 2
(0.862753 0.0686234 0 0.0686234) 439 439 1
(0.976701 0.0116493 0 0.0116493) 234 234 1
(0.882289 0.0588553 0 0.0588553) 195 195 1
(0.206309 0.396845 0.396845 0) 121 121 2
(0.279454 0.360273 0.360273 0) 465 465 2
(0.785661 0.107169 0 0.107169) 233 232 2
(0.00668158 0.496659 0 0.496659) 252 252 1
(0.32047 0.339765 0.339765 0) 477 476 1
(0.43157 0.284215 0.284215 0) 404 404 2
(0.700081 0.149959 0.149959 0) 170 169 1
(0.118375 0.440813 0 0.440813) 276 276 1
(0.681355 0.159322 0.159322 0) 309 309 2
(0.733017 0.133491 0.133491 0) 330 330 2
(0.195633 0.402183 0 0.402183) 7 6 2
(0.388132 0.305934 0.305934 0) 424 424 2
(0.335931 0.332034 0 0.332034) 447 446 2
(0.340995 0.329502 0.329502 0) 238 237 1
(0.645968 0.177016 0 0.177016) 610 609 2
(0.600719 0.199641 0 0.199641) 243 243 1
(0.947954 0.026023 0.026023 0) 139 139 2
(0.615139 0.19243 0 0.19243) 433 432 2
(0.96597 0.0170152 0 0.0170152) 238 238 1
(0.450631 0.274685 0.274685 0) 326 325 1
(0.467018 0.266491 0 0.266491) 101 100 2
(0.409477 0.295262 0.295262 0) 52 51 1
(0.553884 0.223058 0.223058 0) 194 194 2
(0.607655 0.196173 0 0.196173) 366 366 1
(0.89489 0.0525552 0 0.0525552) 345 345 1
(0.108372 0.445814 0 0.445814) 743 743 1
(0.333064 0.333468 0.333468 0) 25 24 1
(0.545435 0.227283 0.227283 0) 230 229 1
(0.675712 0.162144 0.162144 0) 284 284 2
(0.625289 0.187356 0.187356 0) 61 60 1
(0.406402 0.296799 0 0.296799) 348 347 2
(0.644156 0.177922 0.177922 0) 210 210 2
(0.810897 0.0945515 0.0945515 0) 299 298 1
(0.774805 0.112597 0.112597 0) 372 371 1
(0.799214 0.100393 0 0.100393) 219 218 2
(0.732192 0.133904 0.133904 0) 279 279 2
(0.207931 0.396034 0.396034 0) 18 17 1
(0.554696 0.222652 0 0.222652) 94 93 2
(0.50101 0.249495 0 0.249495) 213 212 2
(0.459839 0.270081 0 0.270081) 234 233 2
(0.767423 0.116288 0.116288 0) 194 193 1
(0.25536 0.37232 0 0.37232) 504 504 1
(0.241768 0.379116 0.379116 0) 479 478 1
(0.331121 0.33444 0 0.33444) 275 274 2
(0.775219 0.11239 0 0.11239) 159 159 1
(0.40698 0.29651 0 0.29651) 150 149 2
(0.0361584 0.481921 0 0.481921) 37 36 2
(0.225252 0.387374 0.387374 0) 154 154 2
(0.984992 0.00750405 0 0.00750405) 249 249 1
(0.0462057 0.476897 0 0.476897) 328 328 1
(0.913733 0.0431334 0 0.0431334) 329 329 1
(0.523844 0.238078 0 0.238078) 354 353 2
(0.734518 0.132741 0 0.132741) 116 115 2
(0.300433 0.349784 0.349784 0) 197 196 1
(0.858994 0.0705028 0.0705028 0) 386 385 1
(0.583163 0.208418 0 0.208418) 219 219 1
(0.219404 0.390298 0 0.390298) 556 555 2
(0.961056 0.0194718 0.0194718 0) 679 679 2
(0.714103 0.142949 0.142949 0) 306 306 2
(0.798982 0.100509 0.100509 0) 397 397 2
(0.346247 0.326877 0.326877 0) 379 378 1
(0.962459 0.0187706 0 0.0187706) 224 224 1
(0.379695 0.310153 0.310153 0) 573 573 2
(0.865851 0.0670746 0 0.0670746) 452 452 1
(0.0936834 0.453158 0 0.453158) 53 53 1
(0.506717 0.246641 0.246641 0) 858 857 1
(0.518191 0.240905 0 0.240905) 430 430 1
(0.0393593 0.48032 0.48032 0) 641 641 2
(0.330362 0.334819 0 0.334819) 365 365 1
(0.780016 0.109992 0.109992 0) 53 52 1
(0.717291 0.141355 0.141355 0) 591 590 1
(0.275989 0.362006 0.362006 0) 330 329 1
(0.285777 0.357111 0.357111 0) 416 415 1
(0.54342 0.22829 0.22829 0) 174 173 1
(0.151819 0.424091 0.424091 0) 170 169 1
(0.812048 0.0939761 0 0.0939761) 530 530 1
(0.359225 0.320387 0.320387 0) 309 308 1
(0.469256 0.265372 0.265372 0) 515 515 2
(0.927077 0.0364616 0.0364616 0) 576 575 1
(0.978099 0.0109504 0 0.0109504) 449 449 1
(0.42464 0.28768 0.28768 0) 351 351 2
(0.98745 0.00627515 0.00627515 0) 523 523 2
(0.33619 0.331905 0.331905 0) 334 333 1
(0.599648 0.200176 0.200176 0) 309 308 1
(0.520349 0.239825 0.239825 0) 619 619 2
(0.76153 0.119235 0.119235 0) 337 336 1
(0.503242 0.248379 0 0.248379) 363 362 2
(0.869451 0.0652745 0 0.0652745) 220 220 1
(0.298353 0.350823 0 0.350823) 328 327 2
(0.754104 0.122948 0 0.122948) 485 484 2
(0.341011 0.329494 0.329494 0) 100 99 1
(0.773787 0.113106 0.113106 0) 628 627 1
(0.070112 0.464944 0 0.464944) 390 390 1
(0.558675 0.220663 0.220663 0) 424 423 1
(0.987752 0.00612422 0 0.00612422) 189 189 1
(0.273586 0.363207 0 0.363207) 439 438 2
(0.731603 0.134198 0.134198 0) 308 308 2
(0.308016 0.345992 0 0.345992) 508 507 2
(0.0553287 0.472336 0 0.472336) 455 454 2
(0.594819 0.20259 0.20259 0) 397 397 2
(0.410135 0.294932 0 0.294932) 139 139 1
(0.690785 0.154608 0 0.154608) 143 143 1
(0.31329 0.343355 0 0.343355) 384 384 1
(0.303156 0.348422 0 0.348422) 414 413 2
(0.159643 0.420179 0.420179 0) 170 169 1
(0.123479 0.43826 0.43826 0) 107 106 1
(0.0897221 0.455139 0.455139 0) 152 152 2
(0.556197 0.221902 0.221902 0) 575 575 2
(0.556888 0.221556 0.221556 0) 431 430 1
(0.12497 0.437515 0 0.437515) 53 52 2
(0.390034 0.304983 0 0.304983) 178 178 1
(0.242249 0.378876 0 0.378876) 138 138 1
(0.475978 0.262011 0 0.262011) 469 469 1
(0.799719 0.100141 0 0.100141) 233 233 1
(0.121068 0.439466 0.439466 0) 539 538 1
(0.941856 0.0290719 0 0.0290719) 544 544 1
(0.401958 0.299021 0.299021 0) 526 526 2
(0.306902 0.346549 0 0.346549) 192 192 1
(0.556312 0.221844 0.221844 0) 424 423 1
(0.564216 0.217892 0.217892 0) 518 518 2
(0.157845 0.421078 0 0.421078) 261 261 1
(0.268993 0.365503 0.365503 0) 80 80 2
(0.970583 0.0147086 0.0147086 0) 92 91 1
(0.429098 0.285451 0 0.285451) 207 207 1
(0.902823 0.0485887 0 0.0485887) 111 111 1
(0.326004 0.336998 0 0.336998) 717 717 1
(0.561405 0.219298 0 0.219298) 304 303 2
(0.148641 0.42568 0.42568 0) 172 172 2
(0.918575 0.0407127 0.0407127 0) 139 139 2
(0.508938 0.245531 0 0.245531) 121 120 2
(0.780001 0.11 0.11 0) 262 261 1
(0.48766 0.25617 0.25617 0) 319 319 2
(0.817867 0.0910664 0 0.0910664) 167 167 1
(0.274918 0.362541 0 0.362541) 242 241 2
(0.209681 0.395159 0.395159 0) 244 243 1
(0.405893 0.297053 0.297053 0) 427 426 1
(0.878627 0.0606867 0.0606867 0) 219 219 2
(0.284976 0.357512 0.357512 0) 106 105 1
(0.888403 0.0557986 0 0.0557986) 442 441 2
(0.624995 0.187503 0.187503 0) 491 490 1
(0.906104 0.0469482 0 0.0469482) 463 463 1
(0.502401 0.2488 0 0.2488) 34 33 2
(0.457113 0.271443 0 0.271443) 111 110 2
(0.683625 0.158188 0 0.158188) 473 472 2
(0.409972 0.295014 0.295014 0) 422 422 2
(0.622958 0.188521 0 0.188521) 431 431 1
(0.203969 0.398016 0.398016 0) 373 372 1
(0.91342 0.04329 0 0.04329) 245 245 1
(0.14117 0.429415 0 0.429415) 213 212 2
(0.0632847 0.468358 0.468358 0) 818 817 1
(0.620062 0.189969 0 0.189969) 597 596 2
(0.0424732 0.478763 0.478763 0) 422 422 2
(0.286602 0.356699 0.356699 0) 513 512 1
(0.862713 0.0686437 0.0686437 0) 313 312 1
(0.511653 0.244174 0 0.244174) 749 749 1
(0.514736 0.242632 0.242632 0) 642 641 1
(0.231193 0.384404 0 0.384404) 424 424 1
(0.0543118 0.472844 0 0.472844) 155 154 2
(0.36895 0.315525 0.315525 0) 39 39 2
(0.792381 0.103809 0.103809 0) 68 68 2
(0.131632 0.434184 0.434184 0) 192 192 2
(0.668917 0.165541 0.165541 0) 540 539 1
(0.986732 0.00663419 0.00663419 0) 515 514 1
(0.920244 0.0398778 0 0.0398778) 834 833 2
(0.360933 0.319534 0 0.319534) 568 568 1
(0.862817 0.0685917 0 0.0685917) 58 58 1
(0.517486 0.241257 0.241257 0) 198 197 1
(0.421891 0.289055 0.289055 0) 747 747 2
(0.916057 0.0419715 0.0419715 0) 367 367 2
(0.600729 0.199636 0 0.199636) 325 325 1
(0.18344 0.40828 0.40828 0) 221 221 2
(0.876343 0.0618283 0.0618283 0) 202 201 1
(0.380794 0.309603 0.309603 0) 415 415 2
(0.717863 0.141068 0.141068 0) 68 67 1
(0.401144 0.299428 0.299428 0) 394 394 2
(0.412769 0.293615 0.293615 0) 503 503 2
(0.227991 0.386005 0.386005 0) 329 329 2
(0.66505 0.167475 0.167475 0) 237 236 1
(0.965003 0.0174984 0 0.0174984) 378 378 1
(0.524526 0.237737 0 0.237737) 278 278 1
(0.380342 0.309829 0.309829 0) 520 519 1
(0.460493 0.269754 0 0.269754) 380 380 1
(0.885076 0.0574622 0.0574622 0) 154 154 2
(0.784224 0.107888 0 0.107888) 386 386 1
(0.527195 0.236402 0.236402 0) 257 257 2
(0.622874 0.188563 0.188563 0) 663 663 2
(0.434609 0.282696 0.282696 0) 597 597 2
(0.625756 0.187122 0 0.187122) 444 443 2
(0.696441 0.151779 0.151779 0) 596 595 1
(0.484039 0.257981 0 0.257981) 289 288 2
(0.160422 0.419789 0 0.419789) 400 400 1
(0.399655 0.300173 0.300173 0) 218 218 2
(0.825399 0.0873004 0.0873004 0) 603 603 2
(0.535034 0.232483 0 0.232483) 72 72 1
(0.171446 0.414277 0.414277 0) 306 305 1
(0.78427 0.107865 0 0.107865) 416 416 1
(0.293214 0.353393 0 0.353393) 664 664 1
(0.916811 0.0415945 0.0415945 0) 98 97 1
(0.970106 0.014947 0 0.014947) 184 184 1
(0.882345 0.0588275 0 0.0588275) 354 354 1