/*--------------------------------*- C++ -*----------------------------------*\
  =========                 |
  \\      /  F ield         | OpenFOAM: The Open Source CFD Toolbox
   \\    /   O peration     | Website:  https://openfoam.org
    \\  /    A nd           | Version:  7
     \\/     M anipulation  |
\*---------------------------------------------------------------------------*/
FoamFile
{
    version     2.0;
    format      ascii;
    class       Cloud<dsmcParcel>;
    location    "0.007/lagrangian/dsmc";
    object      positions;
}
// * * * * * * * * * * * * * * * * * * * * * * * * * * * * * * * * * * * * * //

90690
(
(0.319861 0.340069 0 0.340069) 6 6 1
(0.555019 0.22249 0 0.22249) 11 10 2
(0.311329 0.344336 0.344336 0) 2 2 2
(0.405296 0.297352 0 0.297352) 9 8 2
(0.091408 0.454296 0 0.454296) 1 1 1
(0.0168206 0.49159 0 0.49159) 13 13 1
(0.670059 0.164971 0.164971 0) 16 16 2
(0.371458 0.314271 0.314271 0) 11 11 2
(0.706508 0.146746 0.146746 0) 0 1000 2
(0.646225 0.176887 0 0.176887) 13 13 1
(0.316776 0.341612 0.341612 0) 3 2 1
(0.348427 0.325787 0 0.325787) 7 6 2
(0.845531 0.0772347 0 0.0772347) 37 37 1
(0.531876 0.234062 0.234062 0) 11 11 2
(0.449589 0.275205 0 0.275205) 21 21 1
(0.193115 0.403443 0 0.403443) 4 3 2
(0.91256 0.0437198 0 0.0437198) 11 10 2
(0.469725 0.265137 0.265137 0) 4 4 2
(0.282111 0.358944 0 0.358944) 19 19 1
(0.368477 0.315761 0 0.315761) 0 1000 1
(0.899969 0.0500156 0.0500156 0) 8 8 2
(0.666083 0.166959 0 0.166959) 28 28 1
(0.471059 0.26447 0 0.26447) 5 4 2
(0.710355 0.144823 0.144823 0) 5 4 1
(0.18776 0.40612 0.40612 0) 9 8 1
(0.730966 0.134517 0 0.134517) 2 1 2
(0.350748 0.324626 0 0.324626) 8 7 2
(0.774611 0.112694 0.112694 0) 20 20 2
(0.277281 0.36136 0.36136 0) 2 2 2
(0.273805 0.363097 0.363097 0) 13 12 1
(0.100562 0.449719 0 0.449719) 24 24 1
(0.0567573 0.471621 0.471621 0) 29 29 2
(0.508776 0.245612 0.245612 0) 39 38 1
(0.0608276 0.469586 0.469586 0) 3 3 2
(0.118816 0.440592 0.440592 0) 6 5 1
(0.765549 0.117225 0.117225 0) 11 10 1
(0.920507 0.0397466 0.0397466 0) 2 2 2
(0.849673 0.0751634 0 0.0751634) 2 2 1
(0.116399 0.441801 0 0.441801) 12 12 1
(0.922568 0.0387158 0 0.0387158) 13 12 2
(0.464151 0.267924 0 0.267924) 6 5 2
(0.149481 0.42526 0 0.42526) 23 22 2
(0.623737 0.188131 0.188131 0) 15 14 1
(0.672891 0.163555 0.163555 0) 30 29 1
(0.987927 0.00603632 0.00603632 0) 14 13 1
(0.922565 0.0387176 0 0.0387176) 13 12 2
(0.381076 0.309462 0.309462 0) 8 7 1
(0.114826 0.442587 0 0.442587) 10 10 1
(0.982179 0.00891071 0 0.00891071) 11 11 1
(0.462532 0.268734 0.268734 0) 1 1 2
(0.864524 0.0677381 0.0677381 0) 6 5 1
(0.500319 0.24984 0 0.24984) 8 8 1
(0.810164 0.0949178 0 0.0949178) 42 42 1
(0.715975 0.142012 0 0.142012) 11 10 2
(0.626486 0.186757 0 0.186757) 3 2 2
(0.764252 0.117874 0.117874 0) 1 1 2
(0.104022 0.447989 0.447989 0) 19 18 1
(0.0195611 0.490219 0.490219 0) 2 2 2
(0.405432 0.297284 0.297284 0) 4 4 2
(0.132723 0.433639 0 0.433639) 28 28 1
(0.416982 0.291509 0 0.291509) 6 6 1
(0.699354 0.150323 0.150323 0) 4 3 1
(0.226762 0.386619 0.386619 0) 0 1000 2
(0.305374 0.347313 0 0.347313) 25 25 1
(0.859114 0.0704432 0.0704432 0) 9 8 1
(0.160772 0.419614 0 0.419614) 2 2 1
(0.216497 0.391752 0.391752 0) 21 21 2
(0.354078 0.322961 0.322961 0) 1 1 2
(0.376656 0.311672 0.311672 0) 21 21 2
(0.23739 0.381305 0.381305 0) 8 8 2
(0.636152 0.181924 0 0.181924) 3 2 2
(0.45536 0.27232 0.27232 0) 0 1000 2
(0.993156 0.00342215 0.00342215 0) 8 7 1
(0.292723 0.353638 0 0.353638) 3 2 2
(0.871423 0.0642886 0.0642886 0) 8 7 1
(0.344899 0.327551 0.327551 0) 13 13 2
(0.802221 0.0988896 0.0988896 0) 1 1 2
(0.158102 0.420949 0 0.420949) 17 17 1
(0.682828 0.158586 0 0.158586) 0 1000 1
(0.0779048 0.461048 0 0.461048) 24 24 1
(0.310972 0.344514 0 0.344514) 7 7 1
(0.0254999 0.48725 0.48725 0) 12 11 1
(0.1812 0.4094 0 0.4094) 9 8 2
(0.24867 0.375665 0 0.375665) 2 2 1
(0.814159 0.0929203 0.0929203 0) 16 16 2
(0.50823 0.245885 0 0.245885) 9 8 2
(0.866872 0.0665638 0.0665638 0) 27 27 2
(0.481891 0.259055 0 0.259055) 28 28 1
(0.976761 0.0116193 0 0.0116193) 1 1 1
(0.781478 0.109261 0 0.109261) 33 32 2
(0.850126 0.074937 0 0.074937) 20 19 2
(0.583928 0.208036 0 0.208036) 6 5 2
(0.66418 0.16791 0 0.16791) 7 7 1
(0.76117 0.119415 0 0.119415) 12 11 2
(0.812716 0.0936421 0 0.0936421) 0 1000 1
(0.145242 0.427379 0.427379 0) 1 0 1
(0.172362 0.413819 0 0.413819) 24 23 2
(0.175979 0.412011 0 0.412011) 6 6 1
(0.714902 0.142549 0 0.142549) 6 5 2
(0.777423 0.111288 0 0.111288) 27 27 1
(0.725649 0.137175 0.137175 0) 2 1 1
(0.74374 0.12813 0.12813 0) 15 15 2
(0.300673 0.349664 0.349664 0) 33 33 2
(0.546827 0.226586 0.226586 0) 1 1 2
(0.692433 0.153783 0 0.153783) 1 0 2
(0.656789 0.171605 0.171605 0) 1 0 1
(0.151966 0.424017 0 0.424017) 11 11 1
(0.0559762 0.472012 0.472012 0) 4 4 2
(0.033266 0.483367 0.483367 0) 11 11 2
(0.828292 0.0858539 0.0858539 0) 6 5 1
(0.447471 0.276264 0.276264 0) 9 8 1
(0.217791 0.391105 0.391105 0) 8 7 1
(0.178324 0.410838 0 0.410838) 48 47 2
(0.4501 0.27495 0 0.27495) 14 14 1
(0.117863 0.441069 0 0.441069) 25 25 1
(0.538186 0.230907 0 0.230907) 18 18 1
(0.14024 0.42988 0 0.42988) 10 10 1
(0.705768 0.147116 0 0.147116) 22 22 1
(0.737295 0.131352 0.131352 0) 15 14 1
(0.00985074 0.495075 0 0.495075) 32 31 2
(0.437074 0.281463 0 0.281463) 3 2 2
(0.102292 0.448854 0 0.448854) 3 3 1
(0.584162 0.207919 0.207919 0) 14 13 1
(0.29954 0.35023 0.35023 0) 17 16 1
(0.974593 0.0127037 0 0.0127037) 7 6 2
(0.664455 0.167773 0 0.167773) 4 3 2
(0.728998 0.135501 0 0.135501) 23 23 1
(0.196939 0.401531 0 0.401531) 14 13 2
(0.603765 0.198117 0 0.198117) 1 0 2
(0.482073 0.258964 0 0.258964) 4 4 1
(0.915447 0.0422766 0.0422766 0) 28 28 2
(0.145369 0.427316 0 0.427316) 3 3 1
(0.0772184 0.461391 0 0.461391) 1 0 2
(0.182934 0.408533 0.408533 0) 0 0 2
(0.606633 0.196684 0.196684 0) 6 6 2
(0.856757 0.0716217 0.0716217 0) 16 16 2
(0.891594 0.0542031 0 0.0542031) 19 19 1
(0.934693 0.0326534 0 0.0326534) 2 2 1
(0.814908 0.0925462 0 0.0925462) 2 2 1
(0.405269 0.297366 0.297366 0) 25 25 2
(0.816222 0.0918892 0 0.0918892) 18 17 2
(0.298133 0.350933 0.350933 0) 5 4 1
(0.319829 0.340085 0.340085 0) 11 11 2
(0.916363 0.0418186 0.0418186 0) 21 20 1
(0.445902 0.277049 0.277049 0) 3 2 1
(0.0428838 0.478558 0.478558 0) 15 14 1
(0.51176 0.24412 0 0.24412) 40 39 2
(0.744629 0.127686 0 0.127686) 14 13 2
(0.14105 0.429475 0 0.429475) 19 18 2
(0.708965 0.145517 0 0.145517) 16 15 2
(0.653464 0.173268 0.173268 0) 2 2 2
(0.188439 0.40578 0.40578 0) 7 7 2
(0.899971 0.0500147 0 0.0500147) 5 5 1
(0.456948 0.271526 0.271526 0) 27 26 1
(0.349648 0.325176 0 0.325176) 7 6 2
(0.0253807 0.48731 0 0.48731) 0 0 1
(0.0686076 0.465696 0 0.465696) 20 20 1
(0.581721 0.209139 0 0.209139) 26 25 2
(0.717859 0.141071 0 0.141071) 34 34 1
(0.454658 0.272671 0 0.272671) 37 36 2
(0.872457 0.0637715 0.0637715 0) 17 17 2
(0.505444 0.247278 0 0.247278) 13 12 2
(0.23977 0.380115 0.380115 0) 4 3 1
(0.104676 0.447662 0 0.447662) 40 39 2
(0.418279 0.290861 0 0.290861) 0 0 1
(0.88023 0.0598849 0 0.0598849) 22 21 2
(0.0176611 0.491169 0.491169 0) 26 26 2
(0.63758 0.18121 0 0.18121) 11 10 2
(0.850246 0.0748769 0 0.0748769) 7 6 2
(0.423195 0.288402 0.288402 0) 15 15 2
(0.627527 0.186236 0.186236 0) 26 26 2
(0.430454 0.284773 0 0.284773) 13 13 1
(0.0152215 0.492389 0.492389 0) 1 0 1
(0.445495 0.277252 0 0.277252) 17 16 2
(0.485204 0.257398 0 0.257398) 26 26 1
(0.608807 0.195596 0 0.195596) 4 3 2
(0.348796 0.325602 0.325602 0) 26 25 1
(0.924021 0.0379896 0.0379896 0) 1 1 2
(0.830817 0.0845914 0.0845914 0) 16 15 1
(0.947463 0.0262685 0 0.0262685) 16 15 2
(0.848767 0.0756167 0.0756167 0) 6 6 2
(0.341914 0.329043 0.329043 0) 0 0 2
(0.396182 0.301909 0 0.301909) 5 5 1
(0.13624 0.43188 0 0.43188) 21 20 2
(0.249893 0.375053 0 0.375053) 13 12 2
(0.0492487 0.475376 0.475376 0) 25 25 2
(0.854457 0.0727717 0 0.0727717) 7 6 2
(0.516489 0.241756 0 0.241756) 11 10 2
(0.433677 0.283161 0.283161 0) 10 10 2
(0.496612 0.251694 0 0.251694) 38 37 2
(0.888383 0.0558085 0 0.0558085) 35 34 2
(0.341287 0.329356 0.329356 0) 1 1 2
(0.496845 0.251577 0.251577 0) 40 39 1
(0.919087 0.0404567 0.0404567 0) 1 0 1
(0.33254 0.33373 0 0.33373) 23 22 2
(0.373373 0.313313 0 0.313313) 13 12 2
(0.647161 0.176419 0 0.176419) 6 6 1
(0.0838745 0.458063 0.458063 0) 16 16 2
(0.371135 0.314432 0 0.314432) 0 1000 1
(0.694948 0.152526 0 0.152526) 11 11 1
(0.229217 0.385391 0 0.385391) 4 4 1
(0.325692 0.337154 0.337154 0) 3 2 1
(0.440957 0.279521 0 0.279521) 7 6 2
(0.0544671 0.472766 0 0.472766) 10 9 2
(0.350784 0.324608 0.324608 0) 25 24 1
(0.435748 0.282126 0 0.282126) 22 22 1
(0.829792 0.0851041 0 0.0851041) 33 33 1
(0.847704 0.0761482 0.0761482 0) 5 5 2
(0.392421 0.303789 0.303789 0) 12 12 2
(0.737489 0.131256 0 0.131256) 10 9 2
(0.142399 0.428801 0.428801 0) 7 6 1
(0.137155 0.431422 0.431422 0) 5 4 1
(0.0021264 0.498937 0.498937 0) 21 21 2
(0.406059 0.29697 0 0.29697) 14 13 2
(0.0865347 0.456733 0.456733 0) 1 0 1
(0.751157 0.124422 0.124422 0) 13 12 1
(0.448974 0.275513 0 0.275513) 42 41 2
(0.579569 0.210215 0 0.210215) 7 6 2
(0.931923 0.0340384 0 0.0340384) 1 1 1
(0.345293 0.327354 0 0.327354) 8 7 2
(0.733847 0.133077 0.133077 0) 18 17 1
(0.236914 0.381543 0 0.381543) 19 18 2
(0.841148 0.0794262 0.0794262 0) 9 9 2
(0.362336 0.318832 0.318832 0) 16 16 2
(0.249432 0.375284 0 0.375284) 17 17 1
(0.543282 0.228359 0.228359 0) 10 10 2
(0.735565 0.132217 0 0.132217) 15 14 2
(0.255661 0.37217 0 0.37217) 18 17 2
(0.583326 0.208337 0.208337 0) 17 16 1
(0.790522 0.104739 0.104739 0) 1 0 1
(0.0774777 0.461261 0.461261 0) 12 12 2
(0.738495 0.130752 0 0.130752) 17 17 1
(0.907269 0.0463655 0.0463655 0) 2 2 2
(0.191939 0.40403 0 0.40403) 0 1000 1
(0.0398748 0.480063 0.480063 0) 2 1 1
(0.0324482 0.483776 0 0.483776) 18 17 2
(0.102667 0.448666 0 0.448666) 14 14 1
(0.642136 0.178932 0 0.178932) 16 16 1
(0.162969 0.418516 0 0.418516) 33 33 1
(0.990824 0.00458791 0.00458791 0) 21 21 2
(0.505303 0.247349 0.247349 0) 35 34 1
(0.882839 0.0585803 0.0585803 0) 15 14 1
(0.389521 0.30524 0.30524 0) 9 9 2
(0.0302625 0.484869 0 0.484869) 30 30 1
(0.302587 0.348707 0 0.348707) 6 6 1
(0.264091 0.367954 0.367954 0) 9 8 1
(0.0922863 0.453857 0.453857 0) 9 9 2
(0.957774 0.0211132 0.0211132 0) 4 3 1
(0.970399 0.0148006 0.0148006 0) 38 38 2
(0.293112 0.353444 0 0.353444) 3 3 1
(0.145947 0.427026 0.427026 0) 41 40 1
(0.59035 0.204825 0.204825 0) 11 10 1
(0.59711 0.201445 0.201445 0) 39 38 1
(0.483559 0.258221 0 0.258221) 4 4 1
(0.659525 0.170237 0 0.170237) 4 4 1
(0.0321564 0.483922 0 0.483922) 3 2 2
(0.596379 0.20181 0.20181 0) 7 6 1
(0.47443 0.262785 0 0.262785) 8 7 2
(0.886423 0.0567887 0 0.0567887) 2 2 1
(0.682429 0.158786 0.158786 0) 14 13 1
(0.975394 0.0123028 0.0123028 0) 30 30 2
(0.814282 0.092859 0 0.092859) 26 25 2
(0.326509 0.336746 0.336746 0) 37 37 2
(0.175884 0.412058 0 0.412058) 2 1 2
(0.362626 0.318687 0.318687 0) 8 7 1
(0.994019 0.00299038 0 0.00299038) 14 14 1
(0.470831 0.264585 0.264585 0) 26 26 2
(0.0541976 0.472901 0.472901 0) 2 2 2
(0.208947 0.395526 0.395526 0) 23 22 1
(0.111569 0.444216 0.444216 0) 9 8 1
(0.250333 0.374834 0 0.374834) 0 1000 1
(0.00791064 0.496045 0 0.496045) 29 29 1
(0.190517 0.404741 0 0.404741) 18 17 2
(0.486935 0.256532 0.256532 0) 34 34 2
(0.622269 0.188865 0.188865 0) 1 0 1
(0.228177 0.385911 0.385911 0) 19 18 1
(0.535638 0.232181 0.232181 0) 15 15 2
(0.03902 0.48049 0.48049 0) 23 22 1
(0.597387 0.201306 0 0.201306) 6 6 1
(0.372638 0.313681 0 0.313681) 15 15 1
(0.397088 0.301456 0 0.301456) 29 29 1
(0.429457 0.285272 0 0.285272) 23 23 1
(0.316123 0.341939 0.341939 0) 45 44 1
(0.49285 0.253575 0 0.253575) 4 4 1
(0.177969 0.411015 0 0.411015) 20 20 1
(0.115868 0.442066 0.442066 0) 15 15 2
(0.420902 0.289549 0.289549 0) 24 23 1
(0.367139 0.31643 0.31643 0) 16 16 2
(0.450761 0.27462 0.27462 0) 26 25 1
(0.147767 0.426116 0 0.426116) 17 16 2
(0.427178 0.286411 0.286411 0) 3 2 1
(0.412133 0.293933 0.293933 0) 46 45 1
(0.199474 0.400263 0.400263 0) 22 21 1
(0.752162 0.123919 0 0.123919) 14 13 2
(0.623971 0.188014 0 0.188014) 0 0 1
(0.37718 0.31141 0.31141 0) 20 19 1
(0.624535 0.187732 0 0.187732) 51 51 1
(0.364148 0.317926 0.317926 0) 5 4 1
(0.956003 0.0219986 0 0.0219986) 6 6 1
(0.440148 0.279926 0.279926 0) 1 0 1
(0.511718 0.244141 0 0.244141) 1 0 2
(0.416853 0.291574 0 0.291574) 7 7 1
(0.136943 0.431529 0 0.431529) 6 6 1
(0.138401 0.4308 0 0.4308) 6 5 2
(0.999245 0.000377401 0 0.000377401) 27 27 1
(0.52941 0.235295 0 0.235295) 3 2 2
(0.321688 0.339156 0.339156 0) 23 23 2
(0.253484 0.373258 0.373258 0) 10 10 2
(0.550023 0.224988 0 0.224988) 13 12 2
(0.818934 0.090533 0.090533 0) 25 25 2
(0.414413 0.292794 0 0.292794) 27 27 1
(0.53475 0.232625 0 0.232625) 15 15 1
(0.974889 0.0125553 0.0125553 0) 1 1 2
(0.829497 0.0852517 0 0.0852517) 0 0 1
(0.723886 0.138057 0 0.138057) 16 15 2
(0.0452265 0.477387 0.477387 0) 0 0 2
(0.847436 0.0762821 0.0762821 0) 10 10 2
(0.855925 0.0720373 0 0.0720373) 12 12 1
(0.369224 0.315388 0 0.315388) 4 4 1
(0.437831 0.281085 0 0.281085) 8 7 2
(0.597065 0.201468 0.201468 0) 18 18 2
(0.780054 0.109973 0 0.109973) 1 0 2
(0.814818 0.0925911 0 0.0925911) 8 7 2
(0.808033 0.0959837 0.0959837 0) 25 25 2
(0.625196 0.187402 0.187402 0) 47 47 2
(0.0663971 0.466801 0 0.466801) 21 20 2
(0.600272 0.199864 0 0.199864) 9 8 2
(0.00455402 0.497723 0.497723 0) 4 3 1
(0.396709 0.301646 0 0.301646) 12 12 1
(0.138502 0.430749 0.430749 0) 31 31 2
(0.186042 0.406979 0.406979 0) 4 3 1
(0.720178 0.139911 0.139911 0) 18 17 1
(0.556248 0.221876 0.221876 0) 34 34 2
(0.519437 0.240281 0.240281 0) 0 0 2
(0.135253 0.432373 0.432373 0) 1 0 1
(0.594544 0.202728 0.202728 0) 21 20 1
(0.378964 0.310518 0.310518 0) 8 7 1
(0.018365 0.490818 0 0.490818) 38 38 1
(0.852478 0.0737611 0.0737611 0) 9 8 1
(0.304405 0.347797 0 0.347797) 1 1 1
(0.795757 0.102122 0 0.102122) 15 15 1
(0.000968647 0.499516 0.499516 0) 5 4 1
(0.218435 0.390782 0 0.390782) 38 38 1
(0.139771 0.430114 0 0.430114) 14 14 1
(0.0664914 0.466754 0 0.466754) 13 13 1
(0.397715 0.301142 0.301142 0) 32 32 2
(0.161394 0.419303 0.419303 0) 26 26 2
(0.664986 0.167507 0.167507 0) 25 25 2
(0.908244 0.0458779 0.0458779 0) 6 5 1
(0.638236 0.180882 0.180882 0) 27 26 1
(0.0281427 0.485929 0.485929 0) 11 10 1
(0.600188 0.199906 0.199906 0) 23 22 1
(0.434242 0.282879 0.282879 0) 22 21 1
(0.112758 0.443621 0 0.443621) 17 17 1
(0.510949 0.244525 0.244525 0) 27 27 2
(0.973649 0.0131754 0 0.0131754) 36 35 2
(0.609223 0.195388 0.195388 0) 10 9 1
(0.147285 0.426357 0 0.426357) 24 24 1
(0.739766 0.130117 0.130117 0) 39 39 2
(0.405287 0.297356 0.297356 0) 26 26 2
(0.994412 0.00279392 0.00279392 0) 9 9 2
(0.46557 0.267215 0 0.267215) 12 12 1
(0.314379 0.34281 0 0.34281) 37 37 1
(0.256166 0.371917 0 0.371917) 18 17 2
(0.538299 0.23085 0.23085 0) 4 3 1
(0.623573 0.188214 0 0.188214) 24 23 2
(0.169284 0.415358 0 0.415358) 26 25 2
(0.289976 0.355012 0.355012 0) 33 33 2
(0.456719 0.271641 0.271641 0) 1 0 1
(0.412445 0.293777 0 0.293777) 31 30 2
(0.0277158 0.486142 0 0.486142) 9 9 1
(0.94797 0.0260149 0 0.0260149) 3 2 2
(0.9857 0.00715025 0.00715025 0) 17 17 2
(0.533439 0.233281 0 0.233281) 2 2 1
(0.146336 0.426832 0 0.426832) 27 26 2
(0.642155 0.178922 0.178922 0) 14 14 2
(0.696304 0.151848 0 0.151848) 6 5 2
(0.991223 0.0043883 0.0043883 0) 34 33 1
(0.412045 0.293977 0 0.293977) 3 3 1
(0.389994 0.305003 0 0.305003) 37 37 1
(0.742853 0.128574 0 0.128574) 10 9 2
(0.145308 0.427346 0 0.427346) 3 2 2
(0.297049 0.351476 0.351476 0) 11 10 1
(0.752553 0.123723 0 0.123723) 16 15 2
(0.122671 0.438665 0 0.438665) 3 2 2
(0.280273 0.359864 0.359864 0) 12 12 2
(0.750321 0.12484 0 0.12484) 32 31 2
(0.74612 0.12694 0 0.12694) 33 32 2
(0.0912472 0.454376 0 0.454376) 16 15 2
(0.652574 0.173713 0.173713 0) 36 35 1
(0.286827 0.356587 0.356587 0) 23 23 2
(0.076539 0.461731 0 0.461731) 41 41 1
(0.991932 0.00403414 0 0.00403414) 38 37 2
(0.404154 0.297923 0 0.297923) 22 21 2
(0.0961289 0.451936 0 0.451936) 1 1 1
(0.648727 0.175636 0.175636 0) 9 8 1
(0.313497 0.343251 0.343251 0) 3 3 2
(0.962518 0.0187412 0 0.0187412) 31 31 1
(0.332568 0.333716 0.333716 0) 16 16 2
(0.209386 0.395307 0 0.395307) 32 32 1
(0.937887 0.0310567 0.0310567 0) 15 14 1
(0.348347 0.325827 0 0.325827) 4 4 1
(0.619501 0.19025 0 0.19025) 1 1 1
(0.233041 0.383479 0.383479 0) 44 43 1
(0.288729 0.355636 0 0.355636) 13 13 1
(0.272856 0.363572 0 0.363572) 44 44 1
(0.950421 0.0247896 0.0247896 0) 11 11 2
(0.800979 0.0995107 0 0.0995107) 36 36 1
(0.967043 0.0164786 0.0164786 0) 5 4 1
(0.503165 0.248417 0.248417 0) 11 10 1
(0.139236 0.430382 0.430382 0) 20 20 2
(0.771293 0.114354 0.114354 0) 21 21 2
(0.0932809 0.45336 0.45336 0) 35 35 2
(0.467958 0.266021 0.266021 0) 33 32 1
(0.732467 0.133767 0 0.133767) 4 3 2
(0.363641 0.31818 0.31818 0) 14 13 1
(0.970909 0.0145457 0.0145457 0) 19 18 1
(0.766202 0.116899 0.116899 0) 16 15 1
(0.926476 0.0367618 0 0.0367618) 5 5 1
(0.635594 0.182203 0.182203 0) 4 3 1
(0.0713299 0.464335 0.464335 0) 20 20 2
(0.924669 0.0376653 0.0376653 0) 44 43 1
(0.977284 0.0113579 0.0113579 0) 0 0 2
(0.875253 0.0623735 0 0.0623735) 21 21 1
(0.375933 0.312034 0.312034 0) 7 6 1
(0.77727 0.111365 0 0.111365) 30 30 1
(0.826925 0.0865373 0.0865373 0) 17 16 1
(0.688807 0.155596 0 0.155596) 24 23 2
(0.472601 0.2637 0.2637 0) 56 56 2
(0.850587 0.0747063 0 0.0747063) 7 6 2
(0.971236 0.014382 0.014382 0) 24 24 2
(0.182769 0.408615 0.408615 0) 20 20 2
(0.738317 0.130841 0.130841 0) 13 13 2
(0.311253 0.344373 0.344373 0) 34 34 2
(0.104193 0.447903 0 0.447903) 34 34 1
(0.520348 0.239826 0 0.239826) 10 10 1
(0.521321 0.239339 0.239339 0) 12 12 2
(0.129246 0.435377 0 0.435377) 52 51 2
(0.619955 0.190022 0.190022 0) 10 10 2
(0.185295 0.407353 0.407353 0) 10 9 1
(0.0030455 0.498477 0.498477 0) 7 6 1
(0.248659 0.37567 0 0.37567) 24 23 2
(0.710667 0.144667 0.144667 0) 27 26 1
(0.849596 0.0752022 0 0.0752022) 4 4 1
(0.109431 0.445284 0.445284 0) 5 5 2
(0.140144 0.429928 0.429928 0) 24 24 2
(0.780654 0.109673 0.109673 0) 9 8 1
(0.813956 0.0930222 0.0930222 0) 1 0 1
(0.16425 0.417875 0.417875 0) 0 1000 2
(0.753948 0.123026 0 0.123026) 12 12 1
(0.633272 0.183364 0.183364 0) 16 16 2
(0.276319 0.36184 0.36184 0) 10 9 1
(0.800175 0.0999127 0 0.0999127) 9 8 2
(0.500406 0.249797 0.249797 0) 13 13 2
(0.786282 0.106859 0 0.106859) 30 30 1
(0.37338 0.31331 0 0.31331) 19 19 1
(0.00114841 0.499426 0.499426 0) 16 15 1
(0.83446 0.0827702 0.0827702 0) 18 17 1
(0.442248 0.278876 0.278876 0) 16 15 1
(0.621474 0.189263 0.189263 0) 7 6 1
(0.564938 0.217531 0.217531 0) 28 27 1
(0.190282 0.404859 0.404859 0) 19 19 2
(0.828814 0.0855932 0 0.0855932) 1 1 1
(0.0496269 0.475187 0.475187 0) 1 0 1
(0.423023 0.288488 0.288488 0) 34 33 1
(0.248351 0.375825 0 0.375825) 10 9 2
(0.323663 0.338168 0.338168 0) 1 1 2
(0.955445 0.0222773 0.0222773 0) 2 1 1
(0.449931 0.275034 0.275034 0) 4 3 1
(0.289286 0.355357 0.355357 0) 19 19 2
(0.25321 0.373395 0.373395 0) 25 24 1
(0.879391 0.0603046 0.0603046 0) 5 4 1
(0.811129 0.0944354 0 0.0944354) 37 36 2
(0.330173 0.334914 0 0.334914) 11 10 2
(0.336252 0.331874 0.331874 0) 24 23 1
(0.396488 0.301756 0.301756 0) 20 19 1
(0.569534 0.215233 0.215233 0) 12 12 2
(0.697231 0.151385 0.151385 0) 30 29 1
(0.110076 0.444962 0 0.444962) 25 25 1
(0.697356 0.151322 0 0.151322) 6 6 1
(0.255087 0.372457 0.372457 0) 34 34 2
(0.380039 0.30998 0.30998 0) 6 6 2
(0.113106 0.443447 0.443447 0) 32 31 1
(0.121608 0.439196 0.439196 0) 19 19 2
(0.379832 0.310084 0 0.310084) 2 2 1
(0.098542 0.450729 0 0.450729) 43 43 1
(0.596448 0.201776 0.201776 0) 24 24 2
(0.828405 0.0857974 0.0857974 0) 9 8 1
(0.55147 0.224265 0.224265 0) 43 42 1
(0.877426 0.0612868 0.0612868 0) 8 7 1
(0.0543928 0.472804 0 0.472804) 46 45 2
(0.406586 0.296707 0.296707 0) 7 7 2
(0.961295 0.0193523 0 0.0193523) 19 19 1
(0.98431 0.00784518 0.00784518 0) 32 32 2
(0.359612 0.320194 0.320194 0) 44 44 2
(0.807678 0.0961611 0 0.0961611) 3 2 2
(0.453295 0.273353 0.273353 0) 14 14 2
(0.0661677 0.466916 0 0.466916) 0 1000 1
(0.450641 0.27468 0.27468 0) 22 21 1
(0.937042 0.0314788 0 0.0314788) 26 25 2
(0.215409 0.392295 0 0.392295) 25 24 2
(0.2825 0.35875 0 0.35875) 12 11 2
(0.78391 0.108045 0.108045 0) 7 7 2
(0.199302 0.400349 0 0.400349) 46 45 2
(0.133014 0.433493 0.433493 0) 0 1000 2
(0.411665 0.294167 0 0.294167) 34 33 2
(0.848814 0.0755928 0 0.0755928) 38 37 2
(0.0862199 0.45689 0 0.45689) 1 1 1
(0.826431 0.0867844 0.0867844 0) 19 19 2
(0.487483 0.256259 0 0.256259) 3 3 1
(0.968864 0.0155682 0.0155682 0) 3 3 2
(0.563242 0.218379 0.218379 0) 15 14 1
(0.654823 0.172589 0.172589 0) 13 13 2
(0.89335 0.0533251 0 0.0533251) 4 4 1
(0.269125 0.365438 0.365438 0) 7 7 2
(0.553243 0.223378 0 0.223378) 2 1 2
(0.834968 0.082516 0.082516 0) 18 18 2
(0.4025 0.29875 0.29875 0) 28 28 2
(0.0835766 0.458212 0 0.458212) 25 25 1
(0.764199 0.1179 0.1179 0) 24 24 2
(0.407241 0.296379 0.296379 0) 24 24 2
(0.630706 0.184647 0.184647 0) 39 39 2
(0.550759 0.22462 0.22462 0) 12 11 1
(0.383619 0.308191 0 0.308191) 10 9 2
(0.706076 0.146962 0 0.146962) 37 37 1
(0.827089 0.0864554 0 0.0864554) 4 4 1
(0.297504 0.351248 0.351248 0) 27 26 1
(0.710954 0.144523 0 0.144523) 43 43 1
(0.393445 0.303277 0.303277 0) 7 6 1
(0.567367 0.216316 0.216316 0) 16 15 1
(0.818516 0.0907422 0.0907422 0) 26 25 1
(0.131315 0.434343 0.434343 0) 10 9 1
(0.558265 0.220867 0 0.220867) 23 23 1
(0.958831 0.0205846 0 0.0205846) 0 0 1
(0.533018 0.233491 0.233491 0) 29 28 1
(0.412699 0.293651 0.293651 0) 23 22 1
(0.580474 0.209763 0.209763 0) 13 12 1
(0.172115 0.413943 0.413943 0) 57 57 2
(0.752679 0.123661 0 0.123661) 7 7 1
(0.357182 0.321409 0.321409 0) 1 1 2
(0.218331 0.390834 0.390834 0) 44 44 2
(0.478967 0.260517 0.260517 0) 17 16 1
(0.334744 0.332628 0 0.332628) 45 44 2
(0.328553 0.335723 0 0.335723) 19 19 1
(0.565305 0.217347 0 0.217347) 0 1000 1
(0.2466 0.3767 0.3767 0) 16 16 2
(0.376615 0.311692 0.311692 0) 35 34 1
(0.475798 0.262101 0 0.262101) 3 3 1
(0.484071 0.257965 0.257965 0) 32 31 1
(0.838424 0.0807879 0 0.0807879) 35 35 1
(0.16373 0.418135 0.418135 0) 10 10 2
(0.503054 0.248473 0.248473 0) 35 34 1
(0.999231 0.0003843 0 0.0003843) 22 22 1
(0.623997 0.188001 0.188001 0) 21 20 1
(0.284362 0.357819 0 0.357819) 16 16 1
(0.676739 0.161631 0 0.161631) 22 21 2
(0.687538 0.156231 0 0.156231) 13 12 2
(0.796071 0.101964 0 0.101964) 8 8 1
(0.699322 0.150339 0 0.150339) 25 24 2
(0.475507 0.262247 0.262247 0) 26 26 2
(0.762493 0.118754 0.118754 0) 35 35 2
(0.0715667 0.464217 0.464217 0) 5 4 1
(0.830948 0.0845258 0.0845258 0) 10 9 1
(0.27748 0.36126 0 0.36126) 11 11 1
(0.236335 0.381832 0.381832 0) 21 21 2
(0.444284 0.277858 0 0.277858) 33 32 2
(0.658172 0.170914 0 0.170914) 19 19 1
(0.933564 0.0332181 0 0.0332181) 28 28 1
(0.282716 0.358642 0.358642 0) 17 16 1
(0.506419 0.24679 0 0.24679) 9 9 1
(0.706596 0.146702 0.146702 0) 28 27 1
(0.510864 0.244568 0 0.244568) 8 8 1
(0.137761 0.43112 0 0.43112) 11 10 2
(0.928316 0.035842 0.035842 0) 25 25 2
(0.196008 0.401996 0.401996 0) 29 29 2
(0.260692 0.369654 0 0.369654) 16 15 2
(0.811472 0.0942641 0.0942641 0) 0 1000 2
(0.0184889 0.490756 0.490756 0) 28 28 2
(0.387627 0.306187 0 0.306187) 63 62 2
(0.185227 0.407386 0.407386 0) 0 1000 2
(0.637037 0.181482 0.181482 0) 23 23 2
(0.178383 0.410809 0 0.410809) 31 30 2
(0.796511 0.101744 0 0.101744) 43 42 2
(0.0820891 0.458955 0.458955 0) 16 16 2
(0.574435 0.212782 0.212782 0) 31 31 2
(0.515925 0.242038 0.242038 0) 49 48 1
(0.304749 0.347625 0.347625 0) 43 42 1
(0.505776 0.247112 0.247112 0) 20 19 1
(0.198478 0.400761 0.400761 0) 19 19 2
(0.387309 0.306346 0 0.306346) 17 17 1
(0.186633 0.406684 0.406684 0) 31 31 2
(0.462863 0.268568 0 0.268568) 55 54 2
(0.235975 0.382013 0 0.382013) 5 5 1
(0.701779 0.149111 0.149111 0) 19 19 2
(0.925452 0.0372739 0.0372739 0) 27 26 1
(0.301779 0.349111 0.349111 0) 14 14 2
(0.386802 0.306599 0.306599 0) 44 44 2
(0.534716 0.232642 0 0.232642) 15 15 1
(0.874194 0.0629029 0 0.0629029) 5 5 1
(0.207571 0.396215 0.396215 0) 21 21 2
(0.450651 0.274674 0.274674 0) 40 40 2
(0.696337 0.151831 0 0.151831) 0 1000 1
(0.707669 0.146165 0 0.146165) 69 69 1
(0.571695 0.214153 0 0.214153) 20 19 2
(0.136638 0.431681 0.431681 0) 23 22 1
(0.945903 0.0270484 0.0270484 0) 2 2 2
(0.938862 0.030569 0 0.030569) 53 53 1
(0.262918 0.368541 0.368541 0) 11 11 2
(0.981618 0.00919109 0 0.00919109) 44 43 2
(0.581584 0.209208 0 0.209208) 0 1000 1
(0.649696 0.175152 0.175152 0) 6 5 1
(0.173726 0.413137 0 0.413137) 8 7 2
(0.797411 0.101294 0.101294 0) 31 30 1
(0.334979 0.332511 0 0.332511) 11 11 1
(0.348287 0.325856 0 0.325856) 2 1 2
(0.48293 0.258535 0.258535 0) 3 3 2
(0.223412 0.388294 0 0.388294) 11 11 1
(0.702334 0.148833 0 0.148833) 18 17 2
(0.415032 0.292484 0.292484 0) 45 44 1
(0.870576 0.0647121 0.0647121 0) 48 48 2
(0.89036 0.0548198 0 0.0548198) 17 17 1
(0.117626 0.441187 0 0.441187) 29 29 1
(0.63429 0.182855 0.182855 0) 31 31 2
(0.444624 0.277688 0.277688 0) 1 0 1
(0.0312577 0.484371 0.484371 0) 20 19 1
(0.789074 0.105463 0.105463 0) 14 13 1
(0.0280503 0.485975 0 0.485975) 12 11 2
(0.667114 0.166443 0 0.166443) 12 11 2
(0.707583 0.146208 0 0.146208) 41 41 1
(0.215313 0.392343 0 0.392343) 17 16 2
(0.118399 0.440801 0.440801 0) 25 25 2
(0.578851 0.210574 0 0.210574) 15 14 2
(0.225745 0.387128 0 0.387128) 23 23 1
(0.0612351 0.469382 0 0.469382) 21 21 1
(0.258575 0.370712 0.370712 0) 5 4 1
(0.362193 0.318903 0 0.318903) 61 60 2
(0.567825 0.216088 0.216088 0) 9 8 1
(0.00624487 0.496878 0 0.496878) 10 10 1
(0.42815 0.285925 0 0.285925) 20 20 1
(0.477833 0.261083 0.261083 0) 3 3 2
(0.307259 0.346371 0.346371 0) 5 4 1
(0.222042 0.388979 0.388979 0) 5 5 2
(0.443436 0.278282 0 0.278282) 12 11 2
(0.971768 0.0141161 0.0141161 0) 0 0 2
(0.604697 0.197652 0.197652 0) 1 1 2
(0.0527137 0.473643 0 0.473643) 9 9 1
(0.182851 0.408574 0.408574 0) 2 2 2
(0.156268 0.421866 0 0.421866) 37 36 2
(0.60979 0.195105 0.195105 0) 47 47 2
(0.123055 0.438472 0.438472 0) 18 18 2
(0.971656 0.0141719 0 0.0141719) 13 13 1
(0.226187 0.386907 0.386907 0) 5 4 1
(0.625405 0.187297 0 0.187297) 34 33 2
(0.9017 0.0491498 0.0491498 0) 20 20 2
(0.74276 0.12862 0 0.12862) 17 16 2
(0.0285887 0.485706 0 0.485706) 21 20 2
(0.851277 0.0743614 0.0743614 0) 26 25 1
(0.558937 0.220531 0.220531 0) 10 10 2
(0.0458145 0.477093 0.477093 0) 7 6 1
(0.0821544 0.458923 0 0.458923) 47 46 2
(0.276659 0.361671 0 0.361671) 16 16 1
(0.71127 0.144365 0.144365 0) 25 25 2
(0.357934 0.321033 0.321033 0) 14 14 2
(0.341249 0.329376 0 0.329376) 10 10 1
(0.51146 0.24427 0 0.24427) 16 16 1
(0.813891 0.0930545 0 0.0930545) 41 41 1
(0.460926 0.269537 0.269537 0) 21 20 1
(0.189503 0.405249 0 0.405249) 28 27 2
(0.280711 0.359644 0 0.359644) 0 1000 1
(0.389065 0.305468 0 0.305468) 1 0 2
(0.822852 0.088574 0 0.088574) 57 57 1
(0.302145 0.348928 0 0.348928) 12 11 2
(0.498437 0.250781 0.250781 0) 47 46 1
(0.560615 0.219693 0.219693 0) 25 25 2
(0.983824 0.00808793 0 0.00808793) 53 52 2
(0.789304 0.105348 0.105348 0) 23 23 2
(0.771212 0.114394 0.114394 0) 15 14 1
(0.828582 0.0857092 0 0.0857092) 13 12 2
(0.697911 0.151045 0.151045 0) 31 30 1
(0.606006 0.196997 0 0.196997) 2 2 1
(0.0392339 0.480383 0 0.480383) 29 29 1
(0.898954 0.0505232 0.0505232 0) 46 46 2
(0.369581 0.315209 0.315209 0) 19 19 2
(0.502999 0.2485 0 0.2485) 33 33 1
(0.345742 0.327129 0.327129 0) 42 42 2
(0.083464 0.458268 0.458268 0) 43 43 2
(0.695047 0.152477 0 0.152477) 0 0 1
(0.350813 0.324593 0.324593 0) 44 43 1
(0.535391 0.232305 0 0.232305) 24 23 2
(0.257847 0.371077 0.371077 0) 63 63 2
(0.912979 0.0435103 0.0435103 0) 2 2 2
(0.327803 0.336099 0 0.336099) 10 10 1
(0.36142 0.31929 0.31929 0) 22 21 1
(0.68217 0.158915 0 0.158915) 7 7 1
(0.206137 0.396932 0.396932 0) 6 5 1
(0.0485581 0.475721 0.475721 0) 23 23 2
(0.220891 0.389555 0.389555 0) 19 18 1
(0.48926 0.25537 0 0.25537) 21 21 1
(0.606357 0.196822 0.196822 0) 25 24 1
(0.606287 0.196857 0.196857 0) 11 11 2
(0.221302 0.389349 0.389349 0) 27 26 1
(0.189286 0.405357 0.405357 0) 22 22 2
(0.824167 0.0879163 0.0879163 0) 29 29 2
(0.0725277 0.463736 0.463736 0) 16 15 1
(0.198468 0.400766 0.400766 0) 19 18 1
(0.391673 0.304163 0 0.304163) 4 3 2
(0.882115 0.0589424 0.0589424 0) 30 29 1
(0.254801 0.3726 0.3726 0) 23 22 1
(0.87243 0.0637849 0.0637849 0) 7 6 1
(0.641646 0.179177 0.179177 0) 3 2 1
(0.981161 0.00941965 0 0.00941965) 1 0 2
(0.527944 0.236028 0 0.236028) 24 24 1
(0.523649 0.238175 0 0.238175) 9 9 1
(0.633849 0.183076 0.183076 0) 3 2 1
(0.810059 0.0949704 0 0.0949704) 13 13 1
(0.892774 0.0536132 0 0.0536132) 18 17 2
(0.120569 0.439716 0 0.439716) 36 35 2
(0.517413 0.241294 0.241294 0) 9 9 2
(0.570443 0.214778 0.214778 0) 18 18 2
(0.818894 0.0905528 0.0905528 0) 8 8 2
(0.846923 0.0765387 0 0.0765387) 4 4 1
(0.0176893 0.491155 0 0.491155) 42 41 2
(0.376658 0.311671 0.311671 0) 56 55 1
(0.525396 0.237302 0.237302 0) 0 0 2
(0.295097 0.352451 0 0.352451) 15 15 1
(0.133551 0.433224 0.433224 0) 10 9 1
(0.94782 0.02609 0.02609 0) 7 6 1
(0.692723 0.153638 0.153638 0) 3 3 2
(0.428911 0.285545 0.285545 0) 28 28 2
(0.576355 0.211822 0.211822 0) 30 29 1
(0.891194 0.0544031 0.0544031 0) 32 32 2
(0.415414 0.292293 0 0.292293) 43 42 2
(0.951929 0.0240354 0 0.0240354) 24 23 2
(0.0254591 0.48727 0 0.48727) 12 11 2
(0.216748 0.391626 0.391626 0) 27 26 1
(0.110315 0.444842 0 0.444842) 23 22 2
(0.528774 0.235613 0 0.235613) 28 27 2
(0.828542 0.0857289 0 0.0857289) 3 2 2
(0.986614 0.00669299 0.00669299 0) 3 3 2
(0.0500505 0.474975 0 0.474975) 5 5 1
(0.699574 0.150213 0 0.150213) 23 23 1
(0.785321 0.10734 0 0.10734) 21 21 1
(0.84123 0.0793852 0.0793852 0) 53 53 2
(0.0228365 0.488582 0 0.488582) 13 12 2
(0.0195097 0.490245 0 0.490245) 14 13 2
(0.29733 0.351335 0.351335 0) 2 2 2
(0.483404 0.258298 0 0.258298) 2 1 2
(0.204828 0.397586 0.397586 0) 56 56 2
(0.130072 0.434964 0.434964 0) 17 17 2
(0.42092 0.28954 0.28954 0) 18 18 2
(0.929062 0.0354691 0 0.0354691) 17 16 2
(0.73678 0.13161 0.13161 0) 1 1 2
(0.822168 0.0889159 0 0.0889159) 37 36 2
(0.492534 0.253733 0.253733 0) 15 15 2
(0.241108 0.379446 0 0.379446) 6 5 2
(0.510656 0.244672 0.244672 0) 12 12 2
(0.688246 0.155877 0 0.155877) 12 11 2
(0.147414 0.426293 0 0.426293) 42 41 2
(0.554985 0.222508 0.222508 0) 16 15 1
(0.0463731 0.476813 0 0.476813) 20 20 1
(0.255592 0.372204 0.372204 0) 23 23 2