/*--------------------------------*- C++ -*----------------------------------*\
  =========                 |
  \\      /  F ield         | OpenFOAM: The Open Source CFD Toolbox
   \\    /   O peration     | Website:  https://openfoam.org
    \\  /    A nd           | Version:  7
     \\/     M anipulation  |
\*---------------------------------------------------------------------------*/
FoamFile
{
    version     2.0;
    format      ascii;
    class       labelField;
    location    "0.008/lagrangian/dsmc";
    object      origId;
}
// * * * * * * * * * * * * * * * * * * * * * * * * * * * * * * * * * * * * * //


3230
(
17949
5270
25395
29189
7984
25526
31365
7869
11897
34823
5381
10919
4611
12340
10982
29288
12520
29823
17008
19268
31989
12706
34409
27113
8460
12341
22853
11050
13234
13212
25606
7847
27728
42232
13259
13331
41326
12925
42361
13438
40752
39252
32940
23982
33877
12142
7373
7794
17471
39693
36544
40517
25976
33463
40577
43685
13747
38771
13768
32752
7621
39805
28178
35524
8280
21325
29764
34513
41640
37043
34635
30283
13898
46108
38454
44925
39153
40620
45347
41760
18198
13997
14035
21470
41005
13086
14059
46688
14063
14066
31864
13984
23559
8396
20142
46445
40768
7083
49069
6889
36662
37734
34506
14250
38791
43839
14262
14265
4874
6788
14289
49182
39873
31683
41389
20236
30253
14338
15799
14347
21805
44139
9454
44035
36332
6258
10036
13426
38061
29086
30090
9025
37213
44431
49106
18688
10195
37677
16210
45824
36482
19263
49889
35189
40653
28611
33525
10512
21895
5810
44565
10254
9548
37206
22914
13815
1216
14620
34904
14622
47297
49328
6575
26041
46605
47965
50366
14672
18405
11476
10973
40781
50964
24332
48687
33090
19604
44486
40156
44275
39864
16315
25828
14767
38091
46984
7872
49109
14782
29635
25695
42265
22363
50550
26708
46517
42519
14833
45767
14116
35508
14862
40498
14864
12460
45080
48871
51274
29485
32792
43652
40040
14920
16293
14932
20775
14169
28104
14965
49653
28601
11094
46381
14983
14984
12068
14384
8543
45413
28858
40973
14994
34712
44721
15018
15022
41761
24779
5788
15036
6641
9011
29518
15044
41053
41922
51582
37085
37697
15074
7268
47043
45193
49028
14442
15102
15106
51062
43809
33850
44459
49945
15115
13258
15123
47841
5617
48814
15133
52796
15142
50840
10236
32156
15161
44497
52181
15168
33894
28051
41515
51844
49315
42806
50144
50687
45837
8928
14804
42956
50941
43618
15212
15215
14002
42019
18136
34011
12185
40161
7433
15259
46028
13119
14671
36748
46189
7346
39937
15265
23164
47548
14205
6882
28431
52215
15286
15287
51512
15293
37514
48168
15312
40291
44770
41831
15336
33111
54230
49130
15351
45602
52808
15354
16663
24362
13956
15034
11853
15365
15368
48726
49705
15374
39442
10322
15379
29444
15382
41649
8501
47532
49115
46622
40388
45943
15400
52579
15411
32124
15417
15418
8628
49388
15424
24828
12001
44029
15431
15432
40796
30027
44213
40714
40498
49523
30397
22207
37796
15465
22434
14007
9283
982
15474
49358
14340
15481
15482
54917
15488
37537
36325
54253
47746
15490
15491
15492
45810
36442
15497
44296
15503
45204
4803
53484
27980
8529
15353
15516
44733
15521
13840
13274
47119
9741
41962
15537
8992
35969
41634
33749
54741
15544
44717
42509
10499
51654
16793
45056
36841
32841
10361
12766
47063
15578
17259
54078
45030
47062
54831
52856
15593
13613
9333
48812
15604
51705
55350
30759
49367
51335
7525
50663
53984
48452
15622
45065
50847
13077
35047
15631
14849
46074
45554
19753
15652
52684
30840
5020
54767
8229
47070
10107
47777
32213
10159
8336
54986
15674
33176
43572
45181
10818
15688
44089
53261
46060
50376
13874
10417
15706
28685
52012
15711
15712
48995
38680
26737
38764
42846
15718
15720
43391
53214
15727
15730
31568
15732
15738
28764
49700
46770
26960
15741
28704
22191
39750
10885
26282
12003
10050
54583
27976
52490
15746
51720
49092
7970
44527
34983
53861
33765
15757
39050
12618
12244
54004
33112
13688
52930
50771
31471
52091
48222
46287
48197
5235
49126
7010
15793
47130
47531
17405
30297
14157
48555
46151
48359
14918
40864
45997
49762
20491
43322
10632
39398
41842
43671
39220
36189
15828
53987
12521
37541
50584
46789
14091
41167
53590
15846
38230
11786
46253
51346
45561
24856
55865
15854
39426
46031
15859
41193
12690
14798
15871
15873
10604
34023
47719
54492
12472
52315
31768
7719
43620
15888
34914
17885
46450
29624
55957
15702
34083
15894
44415
15896
32721
19291
44874
53504
38811
12730
6838
38751
40270
54063
15771
37793
49381
51843
15911
9645
52399
13516
15921
41248
42873
48106
36777
15935
28813
30330
46661
13174
15946
46256
48878
18548
52947
56493
9180
9776
15955
35288
28461
38916
57035
54973
14452
54673
14353
15967
17985
55043
50689
49195
53991
37622
54420
39034
13072
45537
23431
49588
36942
15984
37970
36792
15444
15987
39642
24964
49466
42518
49963
41610
15995
13388
42609
15641
16010
29898
41073
39779
48463
12380
23008
56719
45080
15510
50149
51001
51453
40838
53875
15146
32851
16036
47204
13235
30331
41615
54577
55518
55973
46228
57146
16038
46626
33287
42426
55885
34533
42253
12362
12651
16044
35714
31376
42685
47645
42964
52118
11497
46501
39059
55941
16058
45189
15750
44538
6209
16069
52474
55010
55421
52452
49424
16077
16080
44837
39144
16088
16089
39737
15892
16091
7750
47368
55724
33323
16096
32868
27071
53671
5077
16099
42725
43718
7190
55622
52444
53716
16103
31121
40801
46130
11550
16104
16105
45315
14596
16106
16107
23447
40439
36662
10059
36375
46594
16115
16117
31859
45271
54353
47222
40207
46045
39033
38627
9524
48048
49970
13155
31433
29332
32824
54225
37629
37374
36935
56372
13500
16149
45100
52221
47906
12820
31698
38641
55903
41740
39837
49645
53800
26760
47349
35516
15584
39291
53403
5557
16167
5117
46274
30778
39339
55035
45281
15463
32277
16173
34690
48570
25308
50625
41946
45678
36101
40264
47743
8026
16182
16183
10289
39045
56873
26069
16186
55612
44257
10267
49460
26767
10224
15407
29020
52496
34790
15917
38694
48707
41307
16197
16198
16200
56093
10751
8659
57834
16208
16209
28528
47526
56920
58155
16213
16214
13431
14723
10235
31437
47843
51077
53096
54566
48049
16217
36954
9572
10623
16219
16221
16223
54446
55381
15801
16227
14188
9570
53641
16232
45848
37772
56325
56854
46246
46887
27607
13380
53366
57210
53040
42195
50414
50266
39852
44860
14001
15569
16241
16243
50118
53816
6579
12991
16252
49374
38576
47583
53413
48813
18495
27715
24508
27627
24964
36111
42618
12024
11806
16261
6430
41833
57161
41862
16266
14642
44867
42878
14560
14297
10871
57170
38577
11706
40008
50822
41585
16273
16278
43239
16280
16281
16284
26375
12809
20958
41017
14241
47394
43058
7843
32696
53107
58337
10521
27432
43378
55564
38253
37784
16294
9983
41447
16298
16299
16300
16301
16304
52336
43923
16308
13124
33548
6890
51503
30222
57850
7570
14451
42673
34629
47268
35639
47995
15823
43035
42193
31829
16320
48510
16238
33608
36955
56941
53985
12190
33282
40549
51963
50084
16329
16331
16333
49380
52092
52178
31043
54362
16336
45295
39961
54011
58282
49379
42402
39314
34551
13558
16340
39154
46171
34503
13005
16344
9755
16346
16347
43563
46718
52187
52705
55625
41275
16350
16352
42979
39364
55678
54448
53326
42767
55339
16363
13219
35628
12233
11104
52569
16364
14022
13794
44691
55784
25877
16473
15577
49593
38577
34417
14114
49918
14675
50378
42132
55585
19152
16378
16381
16384
51259
52406
42600
37579
13959
52801
40009
14415
13488
11847
50645
15275
16389
40280
43631
15305
49799
33286
49104
44401
42344
14110
49550
38923
44578
58090
7545
16398
14122
11439
20647
49251
56353
16402
39557
50011
57164
44130
58160
12937
12779
58218
41921
36255
50887
57836
16407
16408
32603
33116
46404
47308
15749
59071
54379
50741
16416
46227
52197
12028
50870
16421
34927
35066
50239
16431
50227
38746
52619
15230
51478
16435
31239
22718
13485
52499
40368
14998
16439
16445
45291
36951
39335
13389
41069
16339
52077
16448
20570
9862
48005
44747
45242
16450
37616
43531
43061
32043
33266
16451
34341
53243
57229
57472
16454
13826
22035
58951
49800
34064
35999
3449
54438
15887
9349
54969
30461
12949
15693
16337
37454
25967
26707
44855
47374
16467
46252
32577
14839
35845
54562
56112
12990
54864
16477
46719
46955
49303
14988
47679
25298
23456
55586
13945
29296
46751
16480
16483
13244
58075
59297
47038
39013
45501
15965
29591
16488
52409
55706
10577
15834
16489
16490
20978
51499
53049
52869
16498
16499
44012
15976
48130
25138
21841
35653
53654
50244
56629
16508
16510
16511
16512
9905
52087
16514
16516
47680
32394
22234
52123
15289
29811
16520
16522
46439
47729
50470
52880
33452
17913
9939
16772
7023
22946
31682
32872
42445
48157
37396
53671
14504
42936
16526
35786
39219
40355
56259
16177
42781
16236
14743
16532
16533
55146
15991
16536
45935
54200
13549
16045
24016
43676
11775
55935
56824
48669
40078
57023
34087
40464
45219
41925
57941
55677
58814
16544
16547
47698
57377
54907
58689
5982
47684
15682
59226
16551
16552
10468
33629
38606
9350
50704
51277
51921
38884
54885
16555
16556
16559
9669
56815
16562
44449
44147
55260
45689
8220
50746
15178
57742
16564
56101
58899
16571
41564
50214
56310
59118
41084
37841
16574
29813
45412
53490
54030
11299
59072
15723
59762
16576
16578
13804
47873
16581
16584
14538
54089
57182
50642
54443
16588
9789
14757
44110
19835
16592
16594
40254
41604
30148
45463
35792
54968
54416
16116
27556
44194
43543
44060
44679
56348
57312
58678
53044
53399
19731
52264
51634
15129
53058
33502
15838
36518
15961
34256
16602
45616
33777
58041
9699
45443
12689
16603
45033
45906
8670
49181
14880
16607
37043
13609
47778
48114
53679
15212
45456
16612
16613
23532
27983
14815
15075
29651
35706
52564
40693
57876
47236
14473
16614
32385
54980
44644
16617
16618
16619
50588
50311
53942
26600
16620
16623
54641
16305
59134
16628
34299
1248
43360
43650
51050
45927
56411
16375
16630
43327
45719
15108
6816
47223
44521
52818
41522
40936
12800
54979
56190
16643
54052
14221
53722
10732
26341
52839
16646
16647
40796
45860
19392
40378
45664
5130
15568
15798
16650
10547
5747
55451
56818
27748
16013
54039
51962
21423
42298
35970
7728
47914
52298
53355
52027
58343
47067
47385
9382
23999
15412
54834
16660
16661
16662
45208
55657
16666
22129
43982
45529
32438
52577
58740
16367
42761
16669
46181
9916
11719
56682
45343
43560
43812
46720
24931
55290
53782
56133
28629
29950
49965
42333
47224
37172
44586
15445
43591
54729
43336
24450
16500
45587
53933
54171
57741
51186
59504
16687
28311
52088
16690
16691
41746
54945
8497
37861
42657
16693
44129
40174
10129
13843
47747
16700
16701
50902
47371
57419
15815
51502
16704
46491
41900
15359
16706
47734
50762
27495
9968
54462
53753
59956
49270
50381
50334
16713
50408
55423
20041
59585
35689
60211
33000
13414
52006
50860
55341
51861
55425
56023
56602
57932
16728
33762
44365
57357
16731
6629
51247
46973
14494
12381
1976
24247
26051
56485
41673
16736
52030
15039
10443
15694
36463
16741
16742
37083
36961
45881
31077
46723
16743
43082
56625
56783
52850
16744
16745
16746
46555
30307
39128
28887
56358
44663
40551
47166
60515
48068
50259
50419
46587
57935
58351
15910
51049
54675
12441
38692
33630
42327
49736
16265
27673
55816
56587
6626
6898
54841
52711
11450
57825
16753
16755
19471
53959
41651
48270
52581
56155
50438
36743
16759
49646
9569
43843
11358
52433
11815
16760
16761
10767
10562
29743
59643
13441
47437
14703
38974
52062
15632
56849
58842
44506
14164
60140
37639
16764
16767
16768
39886
15467
16771
16772
38515
46787
10669
23088
45262
47596
15235
14877
16773
16775
16776
16777
42711
17069
48171
53751
53342
15600
16780
16784
57031
56797
56928
16786
16787
49804
45160
43075
15339
53021
34459
21132
59876
48632
16789
43865
21760
22111
47243
21210
57094
46860
59764
16791
43793
43819
25356
59182
16793
16795
16796
16800
57992
34251
46023
42753
16255
50404
56727
41675
30279
58412
16808
50720
60733
39155
47517
29988
60198
16810
50816
39083
34483
45159
47230
16812
40163
34279
14500
27005
11237
45614
60478
16818
52333
45640
16820
48290
32688
14010
59031
28890
44260
16823
15811
16789
16470
51371
48607
48133
46275
7736
16827
2400
50884
53693
51266
16678
14064
16829
16831
12787
48400
57893
14552
52160
48572
50702
52958
29668
57483
58835
52637
58816
6
47078
38595
16839
46279
14546
15990
12871
43915
16841
13335
36791
58549
16843
16844
16849
42985
44681
26851
18089
16853
16855
48909
52831
44714
10131
47296
16545
16860
46193
49738
28611
32805
16862
32352
11242
15537
42778
58456
59780
53271
15507
7353
16863
16865
16867
11183
53239
14187
54860
11946
55752
14186
60940
28767
35104
13359
59205
49911
9172
13065
16871
10653
47238
55708
42995
11814
59053
16833
15462
16872
16873
16874
13642
18822
49021
43518
16590
5716
16878
49940
53185
55627
44126
58765
53245
36244
40352
16882
50017
44677
55181
33404
28709
55523
56120
56825
60802
58885
46006
47708
48341
40201
53369
44658
6188
15875
50493
50680
23082
14664
12704
59260
16426
34757
15213
16887
16889
16891
16892
52748
54939
57826
15825
14652
16896
26741
15291
52669
55629
28869
15147
42236
42453
15268
21002
27231
52482
55363
52700
60499
56740
50030
16898
45883
9628
32057
55489
7363
33813
52663
32536
16216
52701
57917
58531
14420
49492
52483
16899
16900
16901
16902
56156
48068
59854
44255
36765
46851
16729
16904
16905
16906
36813
54953
12125
48459
31843
38993
54776
14369
16908
16910
16911
55194
56100
38994
26261
60166
60283
29701
7104
16914
45369
13495
37427
44618
16525
16394
15070
52434
16917
16918
16919
19115
16921
16924
49223
50332
42103
12526
55426
55998
37122
50784
50993
61292
16926
16927
16928
47100
51405
51567
55732
46566
16799
42689
11475
16931
16932
16933
30943
38791
12124
13674
16937
43129
50214
53089
55598
50107
11645
60029
57814
50576
24294
48431
16940
16941
37799
16664
55862
55577
52775
47438
26485
16550
16942
51115
53928
54160
14803
47756
14691
57686
57168
16945
23939
57988
58588
48138
48837
49936
16455
16947
16948
16949
16950
48654
14120
54315
43906
33349
42848
16523
21011
16953
16954
22198
58684
45611
16956
16957
54856
46711
56580
9608
11592
16958
55926
51518
32241
14722
49654
16506
14571
21386
43918
13006
13709
16174
25816
53956
48114
25673
51936
15477
32535
57240
16262
16959
34532
50068
48506
56475
32317
15120
16965
50006
24375
11791
59340
16447
16632
16966
16967
16968
16970
16971
30351
46955
53339
39457
24544
48420
45713
40004
14613
16973
43797
34642
54075
56174
42883
57360
10735
38489
42446
57088
49848
57691
51573
35557
54582
58406
46807
60567
61234
59867
16976
16978
16979
16981
48116
40028
43550
41664
50216
32975
8974
46262
49676
51546
59021
12331
50319
61628
16983
16984
16985
50995
53193
12337
57784
18312
29626
48696
61033
48025
49379
47187
41156
16987
16988
22347
42273
59137
11610
59291
9944
56022
45148
16989
16990
16993
16994
16995
16996
16997
33243
34624
53919
49993
29645
16178
16999
28667
13743
6211
44121
12344
15784
43239
17001
17002
17003
45081
33944
35294
42483
11396
59870
51076
40570
17004
17006
17007
17009
50399
44845
42463
49220
20513
46492
53073
47310
61135
49271
17011
17012
40887
52616
48572
11855
56213
57416
17014
43614
43511
8061
55005
16738
22421
29903
17016
46698
53826
53845
26305
56498
31526
13719
44206
51266
38795
42724
51758
42074
54545
56385
36571
58494
59783
41851
60154
43398
61415
57613
39133
10567
13805
17023
17024
26264
55553
13316
34003
48606
17026
17027
17028
13191
44149
55304
60143
55309
46576
17029
17030
17031
17032
41512
47815
49774
45212
22344
46363
36778
29319
15754
52082
54190
17033
13423
45206
51798
49057
51318
59157
49206
24108
50372
52358
42981
9318
51264
48098
30397
47452
60346
33476
48077
30188
17034
17035
17036
17037
41617
6741
43700
55951
17038
17039
17040
54150
36187
35285
8584
48196
15307
50650
17042
17043
31289
33942
32996
38945
54774
54494
36808
7182
41863
59992
25161
37843
13781
17044
17046
45511
13187
47006
43358
46707
55207
60739
61112
51118
56238
17018
54584
17048
46396
18509
27706
12902
49172
49220
16382
17049
17050
36385
45962
51398
50546
46606
23984
16388
42562
31768
16598
17092
29220
17052
17053
17055
6145
19715
48719
30199
36781
34492
44857
26307
17060
28857
37319
41175
9281
34873
61440
17064
17065
17066
17067
17068
58933
29194
39270
24724
12582
12797
55700
51141
57974
58642
19393
44160
38503
34276
9890
17070
17071
17072
33548
48433
19199
16580
16893
17073
17074
17075
48425
52195
57439
45074
40151
57852
52237
59254
53163
59259
50059
16312
17077
17078
53789
52498
41844
31425
60770
12873
34772
45330
55131
52835
15940
7637
6246
13512
12510
17080
17081
17083
17084
17085
17086
17087
42002
52973
48965
25097
38066
58818
55597
61670
50348
35021
17089
17090
17986
11779
46920
47519
40005
57290
39369
23454
47154
51888
39870
59044
17092
44234
22482
13441
33077
47309
55401
32768
47424
13116
61429
36669
50942
43868
46394
52698
10417
37780
36199
36293
7357
17094
27783
55863
44469
57763
59094
17096
46622
47499
54782
54736
56483
26509
61478
6609
31877
17098
17099
17100
17102
17103
52394
55743
12125
15840
9770
59607
31199
41337
46977
46582
56383
17104
17106
23367
49232
53811
59327
60188
38987
59298
29838
16671
32852
29892
38206
42704
60545
16125
50638
16739
55704
9988
45982
44378
26077
54297
50020
21596
23414
44718
40546
43959
48123
39359
27612
56908
59355
59667
24706
51738
38388
61043
41218
48340
17109
17110
17111
31985
14094
39084
15764
38868
17112
17113
17114
10849
52790
13305
6220
60680
15822
48081
16566
17116
17117
35171
15096
46056
11331
36477
17118
17119
17120
51297
51742
41708
43440
23659
39343
51603
51134
54686
56291
52887
14857
17122
17123
41510
32170
53209
24252
24255
27257
19024
27936
38256
58673
19443
57627
17125
17126
49441
50840
29561
45729
13071
14189
56438
51939
60786
33617
17129
17130
17131
52023
28834
7858
15692
49574
53982
56014
15483
58603
49883
59432
60463
59357
17132
17133
17134
17135
17136
17137
17138
17139
9949
30922
15246
33605
59770
51674
61258
16085
46819
56572
16652
17140
17141
17142
11134
50109
20487
21887
47289
60593
53635
62031
62222
38463
42129
47993
17143
17144
17145
17146
17147
17148
17149
17150
34951
57076
58290
52387
46657
14045
16868
17151
17152
50953
14982
49919
15922
16396
60966
38472
46064
24391
16360
57949
17153
17154
50525
53140
40006
49620
11276
46134
45486
55738
56571
15192
61188
47084
50640
22724
24652
23595
17157
17158
17159
17160
20895
34898
16328
16191
40250
15490
35820
57890
59043
59919
32567
17161
17162
17163
17164
17165
46773
52357
28537
8905
47864
15636
58321
15610
14508
15667
46867
17166
17167
54055
51553
40470
55883
56114
30679
59813
15184
61831
40075
42066
17168
46810
7449
27823
17621
41300
50383
48547
53036
59477
58355
60698
41848
59654
44647
51617
14772
16071
16566
50086
56575
15788
60424
36839
10094
52586
37439
10848
17169
17170
17171
48646
31428
38418
55942
45366
60571
60603
45700
50455
10816
47534
39515
53314
17172
17173
17174
45425
54762
50651
46466
39418
56443
44844
51337
12829
31498
59026
17015
17176
17177
17178
17179
46717
11434
42860
49454
16960
62390
47864
56453
17180
17181
47999
44991
34740
13367
45071
35636
56870
57149
60848
57535
17183
46122
37233
44204
46933
53790
50258
41999
58298
60813
60979
36054
50582
40438
46364
35764
41924
52255
46238
44470
44866
56685
44855
28399
35990
53938
17184
17185
17186
17187
8445
48325
56295
41391
55495
51041
37127
59272
59880
49022
17188
17189
17190
43757
47313
35288
38567
32539
32388
58111
57820
56765
49094
33584
54401
17191
17192
17193
17195
41919
49146
50521
38307
47761
15362
35634
59735
11973
27220
48485
62097
27619
13918
17196
17197
17198
42041
55313
7901
7827
17263
15654
58480
58604
58703
12789
59755
58611
61941
29039
59315
51330
17199
17200
17201
17202
17203
49258
11121
41296
29011
17665
54248
37534
54804
53946
16418
57912
27908
16009
17204
17205
17206
39189
52787
14357
51873
28301
19684
51927
56050
46632
29838
17047
8740
56444
17207
17208
17209
48862
53334
42554
35615
15299
58114
53211
50805
50049
10857
52257
59684
13216
49497
61569
61855
54865
15621
53972
33894
17210
17211
17212
17214
17215
17216
38171
43987
43845
28435
44516
51686
9265
55048
58940
60002
38774
35584
16097
21890
53179
62315
62515
17217
17218
17219
17220
17221
23405
11010
54373
45043
34632
37440
27070
47041
13870
16876
40260
17222
17223
36982
51730
51322
10766
40797
15437
58930
59472
60404
56053
26879
62339
17224
17225
17226
27128
33577
40107
58211
38566
15500
54471
41600
58751
50636
52532
48699
)


// ************************************************************************* //
