/*--------------------------------*- C++ -*----------------------------------*\
  =========                 |
  \\      /  F ield         | OpenFOAM: The Open Source CFD Toolbox
   \\    /   O peration     | Website:  https://openfoam.org
    \\  /    A nd           | Version:  7
     \\/     M anipulation  |
\*---------------------------------------------------------------------------*/
FoamFile
{
    version     2.0;
    format      ascii;
    class       Cloud<dsmcParcel>;
    location    "0.008/lagrangian/dsmc";
    object      positions;
}
// * * * * * * * * * * * * * * * * * * * * * * * * * * * * * * * * * * * * * //

3230
(
(0.05832181854 0.4708390907 0.1567249851 0.3141141056) 104 206 1
(0.001547241 0.4992263795 0.3613391081 0.1378872714) 398 784 1
(0.6520089588 0.04013769812 0.1739955206 0.1338578225) 492 960 1
(0.2989076385 0.3505461807 0.1315963599 0.2189498208) 448 883 1
(0.6135673823 0.1932163089 0.1534689755 0.03974733337) 246 484 2
(0.02949946832 0.1104589305 0.4852502658 0.3747913354) 79 157 2
(0.2015037991 0.08014649569 0.3992481004 0.3191016048) 93 184 2
(0.2170651045 0.3914674478 0.0468575758 0.344609872) 431 846 2
(0.04228451617 0.1336673892 0.3451903528 0.4788577419) 162 261 2
(0.6204938101 0.189753095 0.03254846084 0.1572046341) 256 446 1
(0.3973335141 0.301333243 0.2323685076 0.06896473539) 177 349 2
(0.1686525197 0.2407317943 0.1749419458 0.4156737401) 323 636 1
(0.8825020568 0.05874897161 0.0307384063 0.02801056531) 255 503 1
(0.6780194136 0.1609902932 0.1420726011 0.0189176921) 288 565 2
(0.4847804837 0.1858699058 0.2576097581 0.07173985236) 194 383 2
(0.09789374615 0.1308337395 0.4510531269 0.3202193874) 101 197 1
(0.1050910485 0.3073222658 0.4474544757 0.1401322099) 49 98 2
(0.4799771564 0.238345137 0.2600114218 0.0216662848) 208 408 1
(0.4475287631 0.02199338435 0.2542422341 0.2762356184) 52 45 2
(0.02569103448 0.4871544828 0.310500061 0.1766544218) 293 577 2
(0.1639390824 0.2180825552 0.1999479036 0.4180304588) 251 494 1
(0.2261799438 0.3869100281 0.1578140283 0.2290959998) 17 32 2
(0.7575923335 0.1212038333 0.09996449594 0.02123933732) 482 940 2
(0.3494257414 0.1443031012 0.3252871293 0.1809840281) 192 379 2
(0.3231264184 0.03876848923 0.3384367908 0.2996683016) 274 537 1
(0.216551175 0.3917244125 0.02260396572 0.3691204468) 70 80 1
(0.1096600359 0.4451699821 0.3007834108 0.1443865712) 325 638 2
(0.6508436879 0.02224954918 0.1523286069 0.1745781561) 244 480 1
(0.6243988355 0.1878005822 0.1513668947 0.03643368752) 74 88 1
(0.1780723485 0.267915888 0.1430479378 0.4109638258) 259 452 2
(0.6650173041 0.1674913479 0.1436436329 0.02384771499) 262 458 1
(0.1485648685 0.4257175658 0.04372196512 0.3819956007) 396 779 2
(0.4073011797 0.2963494101 0.09695238649 0.1993970237) 143 282 2
(0.2897979034 0.3551010483 0.1728300577 0.1822709906) 257 448 1
(0.4025251305 0.1159723966 0.2987374348 0.1827650381) 512 994 1
(0.1905647155 0.4047176423 0.3178974245 0.08682021782) 188 312 1
(0.6196070884 0.1901964558 0.1212846646 0.0689117912) 192 320 1
(0.3581689173 0.03534235249 0.3209155413 0.2855731889) 66 131 2
(0.4637488924 0.1114522439 0.1566733099 0.2681255538) 227 389 2
(0.0008533776634 0.4995733112 0.4011957898 0.09837752139) 248 486 2
(0.2661158225 0.3669420888 0.1111280476 0.2558140411) 244 481 1
(0.01312813681 0.4934359316 0.3432919277 0.1501440039) 514 998 2
(0.02521016798 0.235473659 0.251921257 0.487394916) 227 389 2
(0.2458682915 0.2749554778 0.1021103764 0.3770658543) 463 910 1
(0.4091949941 0.295402503 0.1025614163 0.1928410866) 146 230 1
(0.1961621498 0.4019189251 0.2649413188 0.1369776063) 398 725 1
(0.01455903424 0.4927204829 0.3163958832 0.1763245997) 406 799 2
(0.4991108469 0.06345605662 0.1869885199 0.2504445766) 176 289 2
(0.11489593 0.09683908643 0.442552035 0.3457129486) 130 257 2
(0.4171589826 0.2914205087 0.07573526334 0.2156852454) 264 521 1
(0.3800376047 0.02738900712 0.2825921905 0.3099811977) 281 553 1
(0.5082127229 0.1085394059 0.1373542326 0.2458936385) 220 433 1
(0.2321605207 0.2072983694 0.3839197397 0.1766213703) 108 211 1
(0.7080434031 0.1459782985 0.06187309919 0.08410519928) 136 268 2
(0.4315421335 0.2665164488 0.2842289333 0.01771248443) 45 87 1
(0.5714265037 0.09099214687 0.1232946013 0.2142867482) 282 555 1
(0.004334045052 0.4978329775 0.03367845986 0.4641545176) 334 657 2
(0.8378829559 0.08105852205 0.03482065901 0.04623786305) 82 163 1
(0.4224214179 0.288789291 0.2608819672 0.02790732379) 312 556 1
(0.5332591321 0.224578571 0.008791862957 0.2333704339) 10 20 1
(0.03615211799 0.01833738976 0.481923941 0.4635865512) 342 674 2
(0.3436884912 0.3281557544 0.04424265138 0.283913103) 512 997 1
(0.3196728554 0.3220207351 0.01814283721 0.3401635723) 24 1080 1
(0.1804350383 0.4097824809 0.1840570877 0.2257253932) 389 707 1
(0.7007733045 0.1496133478 0.01382977534 0.1357835724) 288 509 1
(0.3080957491 0.3459521255 0.05032858414 0.2956235413) 168 329 2
(0.6778404575 0.01374629556 0.1473334757 0.1610797713) 306 544 2
(0.2800864637 0.02626315007 0.3599567682 0.3336936181) 144 282 1
(0.2260756781 0.386962161 0.3862296996 0.0007324613416) 134 264 2
(0.2114924845 0.3628538464 0.3942537578 0.03139991137) 413 814 2
(0.4958882387 0.2520558806 0.2248414239 0.02721445673) 187 366 2
(0.6049535062 0.1975232469 0.1477799032 0.04974334375) 44 85 2
(0.4164620913 0.2917689544 0.2146944349 0.07707451944) 315 562 1
(0.5977635975 0.007476529703 0.2011182013 0.1936416715) 312 612 1
(0.1280845019 0.3636404828 0.07231726621 0.435957749) 13 26 1
(0.4411654059 0.1144611651 0.1649561319 0.279417297) 139 216 2
(0.2689171533 0.008810216681 0.3567312067 0.3655414233) 7 1063 1
(0.6413821708 0.03064932753 0.1793089146 0.1486595871) 434 852 1
(0.6258076819 0.0689263875 0.1870961591 0.1181697716) 435 854 1
(0.08239995105 0.4588000245 0.1878221498 0.2709778747) 427 838 2
(0.03162657858 0.3769169204 0.4841867107 0.1072697903) 203 401 2
(0.1534237277 0.4232881362 0.3242465227 0.09904161341) 290 571 2
(0.3333951087 0.2309078744 0.3333024457 0.1023945713) 105 208 2
(0.04905889431 0.4754705528 0.2439307582 0.2315397946) 44 88 1
(0.1559982275 0.3457823769 0.4220008863 0.07621850938) 293 578 2
(0.2342966874 0.3828516563 0.1720997732 0.2107518831) 395 777 2
(0.1113455455 0.4443272273 0.0477462642 0.3965809631) 39 78 1
(0.3137872467 0.3431063766 0.06595275188 0.2771536248) 88 174 2
(0.101458086 0.1245680732 0.3247028838 0.449270957) 116 171 2
(0.2787835606 0.1302355239 0.2303726958 0.3606082197) 126 190 2
(0.07835218731 0.4608239063 0.3324723329 0.1283515735) 390 709 1
(0.1259934241 0.3470182825 0.08998500546 0.437003288) 333 655 1
(0.7129596464 0.1435201768 0.1014663608 0.04205381606) 43 83 2
(0.6920834238 0.1539582881 0.09030946884 0.06364881927) 126 190 1
(0.2671784349 0.3664107826 0.03740134615 0.3290094364) 379 688 1
(0.3458807642 0.3270596179 0.2893993814 0.03766023644) 405 797 2
(0.2753417637 0.3623291181 0.188727883 0.1736012351) 308 606 2
(0.4046673149 0.18339314 0.1142732025 0.2976663426) 510 992 1
(0.2955722319 0.03020904134 0.3220048427 0.352213884) 386 702 2
(0.6833284111 0.1583357945 0.1099661208 0.04836967362) 276 541 2
(0.008584779688 0.4957076102 0.2706692035 0.2250384066) 14 28 2
(0.1763800886 0.4118099557 0.2711699954 0.1406399603) 540 1019 1
(0.4083675184 0.2958162408 0.153615547 0.1422006938) 361 711 1
(0.124640355 0.4376798225 0.3594989479 0.07818087461) 8 16 2
(0.3637832182 0.2232516877 0.3181083909 0.09485670319) 105 208 2
(0.4741868209 0.1566709303 0.1062356593 0.2629065896) 494 915 2
(0.4036972173 0.2981513913 0.1268453148 0.1713060766) 404 796 1
(0.143007498 0.07450593913 0.428496251 0.3539903119) 156 308 2
(0.2229025368 0.3499750165 0.03857371508 0.3885487316) 234 461 1
(0.2062873201 0.3960746299 0.39685634 0.0007817100499) 480 939 2
(0.7419083133 0.1103342113 0.1290458433 0.01871163199) 370 729 2
(0.5078427784 0.2460786108 0.1534601576 0.09261845318) 53 47 1
(0.5606618206 0.2183296521 0.00133943761 0.2196690897) 275 483 2
(0.2045879901 0.3977060049 0.1147588877 0.2829471172) 261 512 2
(0.3270519163 0.1846827466 0.1517912952 0.3364740419) 164 323 1
(0.2470877261 0.2483125242 0.1281436127 0.376456137) 14 28 1
(0.1374202611 0.3355965 0.09569336943 0.4312898695) 490 907 2
(0.008205455794 0.4958972721 0.4791061838 0.01679108827) 152 299 2
(0.8838404791 0.03956102517 0.01851873529 0.05807976046) 194 324 2
(0.2151225606 0.3924387197 0.3194848038 0.0729539159) 48 93 2
(0.1143524056 0.4428237972 0.1412757305 0.3015480667) 253 499 1
(0.2697888711 0.1837243997 0.1813811648 0.3651055645) 203 342 2
(0.08258776712 0.4587061164 0.0892300737 0.3694760427) 367 723 1
(0.2159202058 0.3920398971 0.05320923061 0.3388306665) 4 6 2
(0.04629188613 0.06194551204 0.4149085449 0.4768540569) 38 17 2
(0.3712981875 0.272158481 0.04219242528 0.3143509062) 54 107 1
(0.4027778801 0.01504061209 0.29861106 0.2835704479) 241 475 2
(0.03276577407 0.483617113 0.2773385272 0.2062785858) 23 46 2
(0.3538196626 0.3230901687 0.1120978119 0.2109923568) 280 551 2
(0.5068615341 0.246569233 0.06434540385 0.1822238291) 470 924 2
(0.8362465671 0.08187671646 0.07014189632 0.01173482015) 205 346 1
(0.8112515413 0.09437422934 0.05054291316 0.04383131618) 330 649 2
(0.02851529988 0.4370123274 0.04873002265 0.4857423501) 350 631 2
(0.2585562389 0.3630206178 0.00770126275 0.3707218805) 413 813 1
(0.6792842058 0.06761462486 0.09274327222 0.1603578971) 354 697 1
(0.1741654405 0.4129172798 0.04837250394 0.3645447758) 341 669 2
(0.01353945664 0.4932302717 0.07281047261 0.4204197991) 16 32 2
(0.01153949932 0.130193456 0.3640367943 0.4942302503) 342 615 2
(0.2327252268 0.3836373866 0.3714587367 0.01217864986) 456 896 2
(0.01306873581 0.4903168689 0.4934656321 0.003148763205) 167 327 1
(0.210732157 0.3946339215 0.1909024188 0.2037315027) 311 613 1
(0.9407332379 0.01195934865 0.0176740324 0.02963338105) 78 96 2
(0.1055477198 0.4472261401 0.2524029652 0.1948231749) 494 967 1
(0.1446593181 0.4276703409 0.1494957703 0.2781745706) 103 145 1
(0.03650759323 0.05009502777 0.4316511756 0.4817462034) 97 133 2
(0.814452433 0.09277378348 0.07608915277 0.01668463072) 286 564 1
(0.0963239225 0.08234983106 0.3694882077 0.4518380388) 455 837 2
(0.1232925782 0.4269109421 0.4383537109 0.01144276882) 83 165 2
(0.08581790171 0.4570910491 0.3497583404 0.1073327087) 531 997 1
(0.4653820712 0.2673089644 0.1038958332 0.1634131312) 195 385 1
(0.4152338425 0.2322324101 0.2923830787 0.06015066859) 397 782 2
(0.6228403022 0.146015697 0.1885798489 0.04256415191) 178 349 1
(0.3007574911 0.08109793475 0.3496212545 0.2685233197) 118 234 2
(0.4659725679 0.2670137161 0.1280124288 0.1390012872) 487 901 1
(0.5809557216 0.2095221392 0.02334749596 0.1861746433) 16 1072 2
(0.3317955524 0.04202338449 0.3341022238 0.2920788393) 391 770 2
(0.6627558248 0.02271619996 0.1459058876 0.1686220876) 431 790 2
(0.3684191984 0.3157904008 0.1309707709 0.1848196299) 20 41 1
(0.4382502411 0.02641931941 0.2808748795 0.2544555601) 463 908 1
(0.02494703337 0.4875264833 0.4013475223 0.08617896105) 10 1066 2
(0.2410372064 0.3794813968 0.2516713633 0.1278100335) 103 203 2
(0.3629848463 0.3185075768 0.2624457429 0.05606183398) 25 50 2
(0.02251386705 0.4057981741 0.0829448924 0.4887430665) 65 128 1
(0.7250245951 0.1374877024 0.0991415165 0.03834618594) 105 205 2
(0.1518493678 0.2677947902 0.4240753161 0.1562805259) 146 286 1
(0.06926944504 0.35102985 0.1143354275 0.4653652775) 114 167 2
(0.5647309093 0.04236279499 0.1752717504 0.2176345453) 445 818 2
(0.4219358807 0.2508411197 0.03819093997 0.2890320597) 486 899 2
(0.4815550787 0.2592224607 0.2272654722 0.03195698845) 155 247 1
(0.336688283 0.3316558585 0.1538140001 0.1778418584) 488 903 1
(0.5940558817 0.06094622155 0.1420258376 0.2029720592) 225 385 2
(0.2057775957 0.3971112022 0.3638368853 0.03327431684) 346 679 2
(0.6294641693 0.1486263167 0.03664159865 0.1852679154) 467 918 1
(0.3043763114 0.3478118443 0.08527255227 0.262539292) 335 660 1
(0.7140709414 0.07346967678 0.1429645293 0.06949485251) 306 603 2
(0.04325952888 0.4783702356 0.1987676849 0.2796025506) 213 361 1
(0.2817722186 0.3591138907 0.2729709517 0.08614293902) 351 633 1
(0.2525456969 0.04441088283 0.3293162687 0.3737271515) 101 141 2
(0.4995996309 0.2502001846 0.02652571132 0.2236744732) 346 681 2
(0.2879321948 0.3560339026 0.1923562302 0.1636776723) 98 194 1
(0.2710080321 0.364495984 0.08562417147 0.2788718125) 142 278 2
(0.4806959793 0.07737053064 0.1822814797 0.2596520103) 430 788 2
(0.8274829774 0.01962148939 0.08625851131 0.06663702191) 316 620 1
(0.05396727442 0.2722717077 0.4730163628 0.2007446551) 41 79 1
(0.04202257358 0.4789887132 0.3501700483 0.1288186649) 345 621 1
(0.1394354747 0.218068458 0.4302822626 0.2122138047) 196 387 2
(0.3827382708 0.3086308646 0.1882762743 0.1203545903) 371 672 1
(0.7435074771 0.1282462615 0.06861907943 0.05962718204) 233 457 2
(0.1757389304 0.2319476696 0.4121305348 0.1801828652) 452 889 2
(0.2798653514 0.3600673243 0.2218519486 0.1382153757) 230 395 1
(0.4176263665 0.1788493431 0.2911868168 0.1123374737) 440 867 2
(0.2294766101 0.385261695 0.2509922547 0.1342694402) 294 521 1
(0.009913797345 0.4950431013 0.1483111154 0.346731986) 339 665 2
(0.3945845823 0.08337900872 0.2193287001 0.3027077088) 214 363 2
(0.2964391912 0.253746857 0.09803354743 0.3517804044) 344 677 1
(0.1727642372 0.3263821362 0.4136178814 0.08723574522) 423 833 2
(0.09482068431 0.4525896578 0.1561231943 0.2964664636) 88 172 2
(0.1550829275 0.4224585363 0.3854912612 0.0369672751) 82 160 2
(0.6151313932 0.1924343034 0.06730291319 0.1251313902) 393 771 2
(0.159268638 0.420365681 0.08696058035 0.3334051007) 421 770 1
(0.04272790043 0.4786360498 0.1060695457 0.3725665041) 332 653 2
(0.9619185579 0.01904072105 0.01110514846 0.007935572589) 73 144 2
(0.03791472758 0.4810426362 0.3664403894 0.1146022468) 452 831 1
(0.1014412063 0.4492793969 0.01222419297 0.4370552039) 112 221 2
(0.2740920352 0.2977036595 0.06525032291 0.3629539824) 432 850 1
(0.4650400648 0.2674799676 0.1033772223 0.1641027453) 289 569 2
(0.1961851348 0.08966550963 0.312241923 0.4019074326) 479 936 1
(0.5760886946 0.2119556527 0.1608685321 0.05108712058) 373 732 2
(0.01073183704 0.2114774046 0.2831566769 0.4946340815) 394 717 2
(0.8872217682 0.05638911589 0.05207475395 0.004314361943) 273 538 1
(0.04023031657 0.4798848417 0.3825259754 0.09735886628) 47 93 2
(0.0905888469 0.4547055765 0.4220951594 0.03261041711) 214 421 2
(0.09998738816 0.4500063059 0.2053146145 0.2446916914) 419 766 1
(0.4210428131 0.09114970528 0.1983288882 0.2894785934) 223 381 2
(0.6023451323 0.125925069 0.07290236483 0.1988274339) 255 444 2
(0.749991377 0.09586547957 0.02913883191 0.1250043115) 148 292 1
(0.3957203932 0.3021398034 0.07096669711 0.2311731063) 322 634 2
(0.4798088551 0.2021193693 0.2600955725 0.0579762032) 334 655 1
(0.2973894707 0.3513052646 0.2107259132 0.1405793515) 137 271 1
(0.7466682209 0.08687660053 0.03978928904 0.1266658896) 90 177 1
(0.4557728086 0.205331738 0.2721135957 0.06678185772) 223 437 1
(0.04476422995 0.477617885 0.4177840612 0.05983382384) 541 1037 2
(0.848481948 0.06733088137 0.008428144636 0.075759026) 94 127 2
(0.2337994947 0.3831002527 0.1756177097 0.2074825429) 376 738 2
(0.1461660115 0.4269169942 0.2690329807 0.1578840135) 362 654 1
(0.3874940019 0.1442077345 0.306252999 0.1620452645) 198 388 1
(0.2267782773 0.3866108614 0.2815247399 0.1050861215) 215 421 2
(0.1673496747 0.1817215543 0.4163251626 0.2346036084) 434 852 1
(0.0498166588 0.4750916706 0.09963906702 0.3754526036) 241 475 1
(0.01092438602 0.08538478721 0.494537807 0.4091530198) 108 214 2
(0.01271048912 0.3865675326 0.4936447554 0.1070772228) 143 280 1
(0.24288676 0.37855662 0.2373817478 0.1411748722) 162 320 1
(0.3813947736 0.2340023113 0.07530030193 0.3093026132) 262 516 1
(0.2198642511 0.3900678745 0.1025914667 0.2874764078) 303 594 2
(0.4667782514 0.1264080643 0.2666108743 0.14020281) 215 424 2
(0.0349455492 0.08901975671 0.4825272254 0.3935074687) 63 125 2
(0.03067936845 0.4846603158 0.3547693069 0.1298910089) 294 577 2
(0.5459115353 0.2270442323 0.185209341 0.04183489138) 440 864 2
(0.06144335748 0.1799903767 0.4692783213 0.2892879446) 173 342 2
(0.3242603657 0.1653183744 0.3378698171 0.1725514428) 62 120 1
(0.6285731047 0.1857134477 0.1391889674 0.04652448022) 25 51 1
(0.6395536639 0.09649451273 0.1802231681 0.08372865534) 143 280 1
(0.224948589 0.2583308475 0.3875257055 0.129194858) 3 7 2
(0.2610692395 0.3694653803 0.1649295782 0.2045358021) 142 281 1
(0.1488106043 0.4255946979 0.1001319515 0.3254627464) 245 424 1
(0.2409630964 0.3795184518 0.3425822556 0.03693619617) 20 38 2
(0.1207921794 0.4396039103 0.05224289764 0.3873610127) 271 531 2
(0.1651087166 0.09788420811 0.3195614336 0.4174456417) 68 76 2
(0.8251912292 0.08740438541 0.02892331708 0.05848106833) 173 339 2
(0.6302280725 0.1848859637 0.1430502213 0.04183574244) 281 551 2
(0.1015668244 0.4492165878 0.2339319811 0.2152846067) 20 1076 2
(0.1981886496 0.4009056752 0.1524927389 0.2484129363) 515 1000 2
(0.3226450886 0.3386774557 0.1177188032 0.2209586525) 337 663 2
(0.3126896904 0.1935649899 0.1500901649 0.3436551548) 82 104 2
(0.2639182119 0.3680408941 0.09548057565 0.2725603184) 518 2213 1
(0.09524787771 0.4523760611 0.03959003335 0.4127860278) 479 936 2
(0.2807125451 0.3596437274 0.32737187 0.03227185741) 47 35 1
(0.4742679918 0.2628660041 0.1868373076 0.07602869649) 299 1050 2
(0.4557415095 0.1206972287 0.1514320166 0.2721292453) 486 950 1
(0.2864663781 0.356766811 0.1949468255 0.1618199855) 131 256 2
(0.1159240951 0.4420379524 0.1666451781 0.2753927744) 157 251 1
(0.7025579891 0.03699114538 0.1487210055 0.1117298601) 231 456 2
(0.2217963794 0.3891018103 0.04384048891 0.3452613214) 82 104 1
(0.2979494614 0.228298936 0.1227263333 0.3510252693) 95 187 1
(0.2189237631 0.3528548823 0.3905381184 0.03768323609) 222 438 2
(0.2903715269 0.181555384 0.3548142365 0.1732588526) 88 172 1
(0.6541513533 0.01698776671 0.1559365566 0.1729243233) 79 156 1
(0.4644417789 0.0710958108 0.1966832997 0.2677791105) 370 728 1
(0.09496347188 0.4525182641 0.140095676 0.3124225881) 201 338 1
(0.007531541988 0.4503094918 0.04592473724 0.496234229) 474 875 2
(0.1830862705 0.4020858245 0.006371040262 0.4084568647) 323 578 2
(0.3548132233 0.3225933883 0.2497110357 0.07288235266) 464 855 1
(0.3848167757 0.3070466603 0.3075916121 0.0005449518622) 264 518 1
(0.1234626393 0.4382686804 0.4107094898 0.0275591906) 482 891 1
(0.1567343438 0.03021464827 0.4216328281 0.3914181798) 437 858 1
(0.329295055 0.169500717 0.1658517555 0.3353524725) 347 683 1
(0.2399197549 0.217145966 0.3800401226 0.1628941566) 398 781 1
(0.4390607711 0.1328688951 0.1476007194 0.2804696144) 125 246 1
(0.06434363464 0.4678281827 0.3368587437 0.1309694389) 400 785 2
(0.1831702342 0.02571250295 0.3827023799 0.4084148829) 193 380 1
(0.5737241894 0.07612586596 0.2131379053 0.1370120393) 217 425 1
(0.09390004764 0.4530499762 0.2638592919 0.1891906843) 407 802 1
(0.1789788607 0.4105105696 0.3920570649 0.01845350477) 528 1020 2
(0.4012007081 0.09914847145 0.2002511745 0.2993996459) 37 73 1
(0.3473095733 0.3263452133 0.2553605353 0.07098467806) 222 435 2
(0.06714045212 0.4664297739 0.1553802358 0.3110495381) 36 13 1
(0.7276550153 0.1361724924 0.07039002175 0.06578247061) 369 726 2
(0.7109121865 0.1445439067 0.1077666484 0.03677725831) 277 543 2
(0.2323406772 0.3838296614 0.04041825289 0.3434114085) 108 214 1
(0.1264540301 0.1622635277 0.4367729849 0.2745094572) 64 124 1
(0.1945590071 0.4027204964 0.09434207499 0.3083784214) 169 334 1
(0.7528788878 0.1235605561 0.07377867345 0.04978188266) 363 712 2
(0.3305504474 0.3347247763 0.07538445522 0.2593403211) 80 100 1
(0.1800769921 0.4099615039 0.370029791 0.03993171294) 260 513 1
(0.3921608728 0.01213317501 0.3039195636 0.2917863886) 368 725 2
(0.3834623954 0.3082688023 0.1604073942 0.1478614081) 12 22 2
(0.727416612 0.06095247661 0.07533921737 0.136291694) 52 45 2
(0.2556202411 0.3721898794 0.3721152357 7.464375501e-05) 330 591 1
(0.1809590678 0.02866563658 0.4095204661 0.3808548295) 160 313 1
(0.3830625026 0.3084687487 0.06036659802 0.2481021507) 465 914 2
(0.2053542493 0.3973228753 0.0487004643 0.348622411) 197 386 2
(0.7749596424 0.061121551 0.1125201788 0.05139862778) 378 745 2
(0.331480715 0.01227081921 0.3219888233 0.3342596425) 219 431 1
(0.7592582683 0.1203708659 0.06479966212 0.05557120374) 310 610 2
(0.2255500142 0.3872249929 0.1675458027 0.2196791902) 77 153 1
(0.02723126367 0.4863843682 0.2568296257 0.2295547425) 308 607 1
(0.08378344195 0.3829860763 0.07512220268 0.458108279) 125 246 1
(0.2227094245 0.3886452877 0.1652531542 0.2233921336) 369 724 2
(0.3643462767 0.2068432034 0.1109836582 0.3178268616) 367 664 2
(0.03328172323 0.4833591384 0.4342744268 0.0490847116) 92 179 2
(0.1662833014 0.1043905629 0.4168583493 0.3124677864) 164 321 1
(0.6379732306 0.1810133847 0.1083126609 0.07270072378) 512 994 2
(0.1510804697 0.4244597651 0.1780108705 0.2464488946) 302 536 1
(0.4776639033 0.2611680483 0.03582916239 0.2253388859) 115 228 1
(0.1567231864 0.3613447222 0.4216384068 0.06029368457) 231 453 1
(0.3824849994 0.1202337479 0.1885237524 0.3087575003) 536 1031 1
(0.03861697687 0.3461497162 0.4806915116 0.1345417954) 234 459 1
(0.3091818511 0.01361349572 0.3317955787 0.3454090745) 210 413 1
(0.8566256422 0.07168717892 0.04808752962 0.0235996493) 13 24 2
(0.708917387 0.1455413065 0.01909216125 0.1264491453) 288 567 2
(0.2134339368 0.06147604466 0.331806987 0.3932830316) 50 99 1
(0.0005427765077 0.4997286117 0.2133087619 0.2864198499) 465 914 2
(0.2912925034 0.3543537483 0.2685814223 0.08577232598) 75 149 1
(0.003790223287 0.4981048884 0.2142722213 0.2838326671) 160 316 1
(0.5332624371 0.2333687815 0.1565129453 0.07685583614) 45 31 1
(0.332159424 0.333920288 0.06031592235 0.2736043657) 131 259 1
(0.06427350626 0.4678632469 0.403435915 0.06442733191) 54 49 1
(0.07495311609 0.462523442 0.0626028891 0.3999205529) 155 306 1
(0.781167702 0.109416149 0.06664398624 0.04277216276) 378 744 2
(0.3123967746 0.07586312367 0.3438016127 0.267938489) 15 28 1
(0.3063703941 0.02329812659 0.346814803 0.3235166764) 399 786 2
(0.08551594425 0.4420502524 0.4572420279 0.01519177549) 527 1021 2
(0.2530767063 0.3734616468 0.238375201 0.1350864458) 142 280 2
(0.4207170027 0.1020770508 0.1875644479 0.2896414986) 174 285 2
(0.6905347723 0.02480389489 0.1547326138 0.129928719) 107 212 2
(0.795280294 0.09069082358 0.102359853 0.01166902941) 167 330 2
(0.1059528324 0.4470235838 0.05475755879 0.392266025) 487 952 2
(0.1576232155 0.3254779003 0.4211883923 0.09571049197) 3 7 2
(0.1426889224 0.4286555388 0.08391756699 0.3447379718) 252 494 2
(0.3371180534 0.1385073024 0.3314409733 0.1929336709) 217 428 2
(0.1360735423 0.3318726822 0.1000905466 0.4319632288) 316 622 1
(0.007168639626 0.2413605808 0.4964156802 0.2550550994) 147 291 2
(0.7664251407 0.01713936149 0.09964806817 0.1167874297) 73 144 1
(0.3470685602 0.2926957379 0.3264657199 0.03376998199) 253 499 2
(0.3600144151 0.1185064904 0.3199927925 0.2014863021) 65 129 2
(0.1204639198 0.4397680401 0.06571567319 0.3740523669) 129 254 2
(0.6537130858 0.1731434571 0.07120118338 0.1019422737) 215 365 1
(0.1748995825 0.4125502087 0.2369099544 0.1756402544) 18 34 2
(0.5547153416 0.2226423292 0.1294629499 0.09317937934) 197 330 1
(0.01261942362 0.4936902882 0.414380053 0.07931023516) 461 904 2
(0.5428440683 0.2285779658 0.1747709023 0.05380706356) 346 682 1
(0.3797862056 0.3101068972 0.1805469837 0.1295599135) 433 794 1
(0.4047889547 0.2976055227 0.06453804758 0.2330674751) 74 88 1
(0.2638646494 0.3680676753 0.3589686692 0.009099006043) 288 567 2
(0.5589896819 0.220505159 0.1042413316 0.1162638274) 258 506 2
(0.3366327243 0.3316836379 0.3277146271 0.003969010777) 294 579 2
(0.2250981026 0.291867817 0.09558313172 0.3874509487) 40 79 1
(0.8453500052 0.02745592762 0.04986906979 0.07732499742) 371 672 2
(0.1554285529 0.4222857236 0.1437022208 0.2785835028) 71 138 2
(0.8826511787 0.05867441067 0.04385644834 0.01481796233) 235 464 1
(0.03791847054 0.3224712223 0.4810407647 0.1585695424) 141 279 2
(0.6981743246 0.02055711327 0.1509128377 0.1303557244) 460 902 1
(0.7794516902 0.043166667 0.06710748791 0.1102741549) 401 789 1
(0.5065500205 0.1905165475 0.05620844226 0.2467249898) 280 493 2
(0.809688746 0.09515562702 0.004514961284 0.09064066574) 487 901 1
(0.01619164063 0.4919041797 0.2250014984 0.2669026813) 141 276 2
(0.02484833973 0.4875758301 0.03371602497 0.4538598052) 377 740 2
(0.08321136302 0.4583943185 0.2454185913 0.2129757272) 360 2190 1
(0.3170369682 0.1493947664 0.3414815159 0.1920867495) 85 166 1
(0.4879935604 0.2560032198 0.1847727313 0.0712304885) 422 830 2
(0.2691673915 0.2385975508 0.3654163042 0.1268187535) 25 48 1
(0.4337728158 0.2831135921 0.01825490505 0.264858687) 306 603 1
(0.5106953166 0.2446523417 0.1483203551 0.09633198658) 504 939 1
(0.1159851791 0.4420074104 0.03843411452 0.4035732959) 384 757 1
(0.1010274581 0.4494862709 0.2648751298 0.1846111412) 383 754 2
(0.8591244882 0.07043775588 0.01155062013 0.05888713576) 107 212 1
(0.566698513 0.07048920779 0.2166507435 0.1461615357) 5 8 1
(0.6622454661 0.07114368566 0.09773358126 0.1688772669) 348 685 1
(0.234251008 0.1925124919 0.382874496 0.1903620041) 262 514 1
(0.3110366301 0.03617302299 0.344481685 0.308308662) 230 454 2
(0.2410709016 0.3794645492 0.2096356978 0.1698288514) 203 342 1
(0.02943513471 0.3464893381 0.4852824326 0.1387930946) 4 9 2
(0.08381688013 0.4580915599 0.3718428262 0.08624873373) 96 131 1
(0.3492632119 0.325368394 0.08698895917 0.2383794349) 171 335 2
(0.6291570136 0.008396335828 0.1770251574 0.1854214932) 165 267 2
(0.01692691369 0.3639808173 0.4915365432 0.1275557259) 131 256 1
(0.2321576545 0.3839211728 0.3314777545 0.05244341828) 76 148 2
(0.3222555729 0.3388722136 0.3234873347 0.01538487887) 197 389 1
(0.6290504709 0.1767321193 0.008742645268 0.1854747645) 164 323 1
(0.8043343757 0.09783281214 0.04060427289 0.05722853925) 141 276 2
(0.895169364 0.004177463737 0.04823785425 0.05241531798) 467 861 2
(0.001244479878 0.4993777601 0.4916393176 0.007738442445) 193 322 1
(0.1788271964 0.2750407449 0.4105864018 0.1355456569) 495 966 1
(0.4979833099 0.2510083451 0.1116623577 0.1393459873) 113 221 2
(0.02205389518 0.01061612729 0.4889730524 0.4783569251) 327 642 1
(0.4310434149 0.2844782926 0.02982651125 0.2546517813) 290 572 1
(0.4105206104 0.2947396948 0.2659096898 0.02883000503) 224 442 1
(0.0365913065 0.3658906201 0.1158137267 0.4817043468) 161 317 1
(0.3961125769 0.3019437116 0.2809370814 0.02100663014) 192 378 2
(0.5427941274 0.2286029363 0.168125571 0.06047736534) 14 29 1
(0.7343398256 0.08096733484 0.1328300872 0.05186275236) 413 814 2
(0.5318982546 0.2340508727 0.01051324929 0.2235376234) 220 434 1
(0.3848617987 0.218336227 0.08923287361 0.3075691006) 516 963 2
(0.1282581283 0.2406103421 0.1952605938 0.4358709359) 167 271 2
(0.465198006 0.267400997 0.05289448692 0.2145065101) 190 374 2
(0.2602928934 0.3698535533 0.09310705828 0.276746495) 533 2221 1
(0.01800528652 0.06460786188 0.4263894949 0.4909973567) 422 772 2
(0.3264461491 0.3367769255 0.3303872097 0.006389715719) 316 564 1
(0.3751344833 0.2325021959 0.3124327583 0.07993056242) 350 687 1
(0.1137476814 0.4431261593 0.1059706613 0.337155498) 458 898 2
(0.3684765908 0.2041151606 0.3157617046 0.111646544) 434 852 1
(0.5265947536 0.1517139104 0.2367026232 0.08498871279) 279 550 2
(0.4358841795 0.2820579102 0.01543629925 0.266621611) 51 99 2
(0.05108377886 0.4744581106 0.07574563362 0.398712477) 216 426 1
(0.1357933353 0.4321033323 0.3027393627 0.1293639696) 148 290 2
(0.6606010719 0.1696994641 0.1695836911 0.0001157729649) 439 806 1
(0.5811782439 0.209410878 0.1053845081 0.1040263699) 24 49 1
(0.1152264014 0.1298168073 0.312569992 0.4423867993) 224 383 2
(0.06038046462 0.4698097677 0.3397326151 0.1300771526) 10 1066 2
(0.01244314838 0.4937784258 0.0387166736 0.4550617522) 393 771 2
(0.1454205948 0.4272897026 0.1243009404 0.3029887622) 17 1073 2
(0.4261552477 0.2869223761 0.003337492786 0.2835848833) 33 63 2
(0.5308161478 0.2345919261 0.03903160631 0.1955603198) 108 213 2
(0.6367088742 0.1816455629 0.1504260119 0.03121955097) 241 475 1
(0.6147329443 0.003672727181 0.1926335278 0.1889608006) 164 321 1
(0.07127351078 0.4643632446 0.2150830875 0.2492801571) 123 243 1
(0.6255997858 0.03239004529 0.1548100618 0.1872001071) 280 493 2
(0.1890365292 0.4054817354 0.08245260057 0.3230291348) 15 30 2
(0.4770146678 0.2614926661 0.161876718 0.09961594808) 81 102 1
(0.02124526378 0.1791954211 0.310181947 0.4893773681) 134 206 2
(0.2265956758 0.09581936018 0.3867021621 0.2908828019) 166 328 2
(0.6337020899 0.1089281872 0.07422076781 0.183148955) 124 244 1
(0.08846175558 0.3014791571 0.4557691222 0.1542899651) 497 970 1
(0.5948969974 0.2025515013 0.1646270482 0.03792445305) 270 2187 1
(0.7367742899 0.131612855 0.1142763539 0.01733650113) 336 662 1
(0.2679694144 0.3660152928 0.003502515202 0.3625127776) 67 74 1
(0.3262664191 0.3368667905 0.1196147527 0.2172520378) 109 215 2
(0.2378692185 0.3810653907 0.03319957601 0.3478658147) 153 302 1
(0.2845656198 0.295613275 0.3577171901 0.06210391508) 219 432 2
(0.4475133384 0.08557342674 0.2762433308 0.190669904) 460 905 2
(0.4349186312 0.2825406844 0.2276714076 0.05486927677) 50 41 1
(0.6150429015 0.03208009141 0.1924785493 0.1603984578) 368 725 2
(0.690904122 0.04044554539 0.154547939 0.1141023936) 404 793 1
(0.1029770963 0.1382925453 0.3102189066 0.4485114519) 526 1018 1
(0.3984451784 0.3007774108 0.1263965292 0.1743808816) 78 155 1
(0.7085880691 0.06508519222 0.1457059655 0.08062077325) 315 621 2
(0.4328719039 0.1363913608 0.2835640481 0.1471726873) 50 100 2
(0.3559559743 0.3220220129 0.007476031206 0.3145459817) 347 683 2
(0.3351923114 0.04549124285 0.3324038443 0.2869126015) 345 677 1
(0.7051187777 0.09559199686 0.1474406111 0.05184861427) 319 629 2
(0.1549905871 0.4225047065 0.3117930417 0.1107116648) 415 759 1
(0.9419791598 0.02901042012 0.01998676749 0.009023652636) 469 923 1
(0.5825808367 0.08298043779 0.1257291439 0.2087095817) 54 49 2
(0.6815476471 0.1259667157 0.03325946073 0.1592261765) 56 111 1
(0.402189634 0.298905183 0.06562679075 0.2332783923) 229 393 1
(0.1676762975 0.1519274016 0.4161618512 0.2642344497) 456 897 2