/*--------------------------------*- C++ -*----------------------------------*\
  =========                 |
  \\      /  F ield         | OpenFOAM: The Open Source CFD Toolbox
   \\    /   O peration     | Website:  https://openfoam.org
    \\  /    A nd           | Version:  7
     \\/     M anipulation  |
\*---------------------------------------------------------------------------*/
FoamFile
{
    version     2.0;
    format      ascii;
    class       vectorField;
    location    "0.008/lagrangian/dsmc";
    object      U;
}
// * * * * * * * * * * * * * * * * * * * * * * * * * * * * * * * * * * * * * //


9404
(
(843.6004287 209.0120936 -83.28516975)
(-453.6718809 244.6257371 -140.5692542)
(-72.13822582 495.4305418 315.1197808)
(481.0261167 -133.1363085 -453.9492041)
(262.076187 169.7208258 -204.6895617)
(377.9087155 -204.4281882 729.4570407)
(88.24177617 163.631719 -595.5928683)
(-536.3794248 427.4740802 -25.27211226)
(-217.8823444 59.08985168 6.833253737)
(497.3716665 560.2867579 -489.8753202)
(661.0080976 -21.15127677 -246.4898035)
(257.2513693 895.5135615 805.5354446)
(670.4229728 197.7126555 650.8307503)
(-353.7975911 186.0650637 -65.26177721)
(97.99605432 -59.79589624 329.58124)
(743.0355361 -464.9742443 -104.1656102)
(983.9544481 65.42343901 229.9847218)
(15.40181687 462.9505096 -380.9120232)
(-615.3156066 751.0495217 -267.752949)
(365.4265086 477.0349648 -350.2361995)
(669.1876339 488.9997467 471.1032687)
(1097.14638 -12.58206618 -1005.473198)
(169.0555502 608.1826889 -338.9769923)
(161.0488169 1558.214699 12.52551828)
(127.6817862 927.4169223 -358.7723262)
(715.9151551 497.9218574 -215.4263052)
(-242.3422295 724.0623134 82.57603052)
(744.8503481 -126.802799 144.3200293)
(40.44090763 18.5299547 197.25605)
(-265.9051154 421.4523143 -283.2371341)
(155.6951505 284.7409612 294.6166873)
(-67.91249554 752.5786941 7.625370148)
(689.5180502 -658.7952321 -6.155119124)
(1055.016319 548.3011184 -862.562063)
(212.073821 627.8947719 272.8879847)
(570.8817538 1164.136428 -194.6514018)
(-15.95203754 243.6891346 -336.2340801)
(-302.329043 133.6734057 461.3258464)
(-78.25866272 789.6464851 -63.71363619)
(1193.028068 75.20751078 639.0347782)
(-518.860552 54.73658593 -239.5509706)
(-763.0434198 16.89240223 -32.72974915)
(728.5541545 -466.066043 274.7794974)
(279.7487154 116.2591932 -666.7703459)
(938.6935104 328.3725246 -86.45756167)
(908.064811 900.8372995 8.540750504)
(1201.100203 84.04019427 554.842878)
(-296.9913901 -96.51697211 -125.5967598)
(1069.105369 97.99140945 187.3917004)
(-51.45248946 76.00657354 308.7350243)
(1029.900855 162.7116126 -118.4932037)
(933.0880338 416.2872926 -749.4000502)
(-436.7553219 -509.5719569 -251.0551759)
(372.9490826 401.1527959 -357.3362111)
(1039.764827 150.0381421 -185.3424489)
(-19.34009109 91.15462798 -337.7970925)
(1136.21074 -512.3346418 -411.2256585)
(-499.0771294 177.2594708 -306.5090622)
(1010.219592 69.61802322 -205.3960217)
(1041.927488 377.0716221 -510.3347211)
(1336.212683 177.7673978 148.0575819)
(759.2361185 20.42341064 -971.8736325)
(-65.45440317 335.7046216 -796.0369942)
(363.3885692 -205.3341795 -662.0086982)
(110.8289277 192.6609503 -106.8901633)
(-843.4769351 139.5030064 -7.780269922)
(-53.64190554 535.8895508 691.1531952)
(385.7796675 336.6991474 857.8220636)
(867.3041695 717.4960049 -648.3230563)
(249.862378 -399.8656569 -66.7280288)
(1562.058013 1137.707284 1074.974897)
(783.892661 546.8809097 509.4057999)
(-50.47134714 339.9033379 -437.937098)
(221.6660913 -248.7601352 164.0987896)
(464.4118943 -535.232315 -30.68531278)
(57.56031579 555.872427 219.8460386)
(-251.739104 38.79264287 -10.67307363)
(428.2150167 144.138048 -938.0701501)
(970.6835321 349.5571424 328.2716067)
(-296.7032228 -98.21141691 1173.743057)
(628.3214087 976.9942563 45.12703883)
(1223.613602 248.5031926 831.7698566)
(611.8175282 129.6589829 235.7811279)
(-276.2048082 -177.1376397 270.9194837)
(503.1617403 755.6311867 -524.2488814)
(784.359723 666.3868433 -430.1064386)
(458.7798151 99.67053766 -459.8568198)
(735.0763382 -713.3513479 -61.30878123)
(1684.262781 594.4128738 -436.8986473)
(-381.1333008 -248.6249948 -77.28646969)
(569.3027537 -449.648701 869.369301)
(-99.78672873 678.5695052 -548.0758675)
(1404.69114 -59.59117184 265.7858661)
(773.4909897 225.8131651 676.3543306)
(1646.155391 118.9447482 -209.0437474)
(1644.663477 74.00007364 645.3276242)
(1471.317542 636.2522592 -294.5960233)
(61.24448305 -963.4152775 157.2861338)
(809.8758928 -169.7385855 727.790343)
(950.5722986 641.4877936 939.7285632)
(-295.1304194 448.8563815 -56.355363)
(325.5381635 331.5898828 -584.3915543)
(559.6653763 -136.4597575 415.0300605)
(-342.313854 167.0396957 406.0927531)
(-575.6027357 410.4920556 626.9663291)
(327.316527 124.8531984 -17.67935361)
(948.1140452 474.8115336 -683.9728744)
(686.7553694 742.3441954 291.5751722)
(-79.1400371 54.41507382 -795.4429649)
(761.2944396 1264.607405 -232.9003651)
(1109.592129 197.1223706 -298.4660312)
(1361.687976 644.4989694 -269.8828317)
(776.4453111 -253.9841509 1036.237519)
(-86.34763691 115.2284226 -947.1472939)
(1385.174642 -141.7855392 1120.874751)
(1405.658134 -114.071223 -791.1475877)
(-114.4425287 457.9413129 -137.3572731)
(69.10610545 426.9137729 345.8655166)
(-94.0244508 240.5684391 -289.2471265)
(-37.14819155 -72.35276616 -76.95405596)
(537.7971382 -299.6364813 699.1301109)
(-225.8128394 584.894074 77.93001722)
(1062.25369 263.1180343 426.9293585)
(216.1534401 -209.2936116 -1085.659819)
(697.9979268 377.4672892 257.0830517)
(569.1244159 -57.75825962 536.4426417)
(1492.325127 687.1959585 425.2162284)
(812.6864912 272.3278516 1060.790779)
(57.27133318 166.4651294 605.5929794)
(867.2614778 -308.3115986 -535.535803)
(880.9597487 -16.74119705 162.9434357)
(244.6899363 635.1448064 -656.4571554)
(836.2659537 278.5055381 329.4752339)
(391.9860306 -302.882511 338.4470382)
(1497.024414 679.9058194 242.2337525)
(1059.961015 -73.0486126 506.7520777)
(504.5551001 328.1279193 291.8155025)
(1131.587526 -13.90714108 383.1634014)
(540.8162236 836.0482701 44.35624294)
(1060.392989 303.2498566 252.9665243)
(2.577737104 415.0517891 -682.7790496)
(-421.0818968 -444.6891856 359.2376386)
(57.0385036 563.9872785 -54.06896577)
(429.2854328 -102.4036361 -155.9303925)
(1369.456629 627.8965813 -39.85914288)
(459.1853847 511.8520732 -699.5508672)
(375.5474511 192.1176383 569.4613354)
(95.66188382 80.65725801 246.4098624)
(-126.8846433 -297.6823798 -297.4106687)
(470.0665726 104.9178124 392.1090575)
(438.6303676 22.08960669 61.57998204)
(1140.743476 516.2823267 -266.0890973)
(254.5499061 227.340586 37.80610543)
(-194.0982919 -227.2460794 520.8325059)
(930.6919871 501.080529 -674.5247857)
(947.2088963 -650.4938122 203.2517224)
(615.4147732 -33.66068339 -1120.739605)
(268.5719879 395.6414222 -561.5637109)
(216.1235846 325.6704907 292.065447)
(585.6249253 -618.0126991 294.1492196)
(534.5765804 743.8537863 330.3436018)
(808.3210295 668.1592103 46.24040092)
(593.1461678 763.4664505 720.0676425)
(-118.1430024 305.1306154 292.9458097)
(190.8219662 238.0003683 97.13168883)
(-13.32154861 388.3763289 -949.3538299)
(486.0747284 110.7371268 -552.7801394)
(464.4647989 -595.0729826 516.0721907)
(1206.137522 77.49704069 96.86942261)
(1774.016624 181.6206695 32.84117398)
(788.1582361 -345.8414993 522.0246833)
(1096.621094 -168.6785104 -390.0506182)
(921.0922877 1071.574914 276.5890834)
(-12.22323078 -793.2966358 -263.2067613)
(207.4410972 709.4303237 -54.17998924)
(941.0325522 30.1159077 -511.8265553)
(917.9535655 -50.70152799 407.6130506)
(1224.721607 -384.766689 165.6537012)
(973.6228861 -3.396977908 -1355.993775)
(-648.205765 213.0631667 -89.76818195)
(36.98458018 787.620639 -278.0733209)
(-705.7630164 551.3655516 93.48750251)
(1458.460574 661.4010409 -471.7021429)
(851.6089998 805.3750724 433.5506521)
(1.025264304 632.1346459 -971.170874)
(87.34862401 249.6158778 -951.8447728)
(601.0815913 57.32648123 -805.4489082)
(-25.32878715 -137.7827346 338.7806539)
(84.77552877 -230.8683473 593.2990289)
(1292.082688 1495.480917 -155.5733737)
(79.73710505 -29.02052555 -213.4575208)
(252.2207132 115.0655657 -232.4290929)
(839.4225713 218.9347939 -238.5435524)
(119.1450141 192.0458056 329.7421274)
(1800.793098 778.0825745 -32.16925961)
(382.0736334 42.38868705 704.9826769)
(44.01911549 194.9296423 468.4700996)
(490.5430104 -143.0930908 242.7892154)
(1329.417807 -399.9881439 889.8065864)
(875.9652803 1290.071073 524.9518631)
(185.6429217 -160.5133713 205.1415833)
(1225.436465 -555.3375558 36.12471763)
(-16.16461566 -45.57394208 453.6830145)
(772.0132317 234.1862034 -233.2089676)
(238.067853 87.35329541 -134.3698045)
(79.28068054 -421.3113239 -168.3750192)
(1215.640957 310.2225168 -411.5728908)
(1839.842094 1080.134179 -122.4351348)
(1249.539767 -156.2454767 -508.7300543)
(774.0886389 777.9612827 480.0579934)
(42.21570485 -487.7951222 -386.7667217)
(1092.142819 -62.88744837 212.6048722)
(1312.882058 309.0662076 -213.3286122)
(1171.576444 -368.6175591 -988.170296)
(-86.04076947 -44.52698508 -107.3843835)
(816.7707796 723.6482884 -422.1585708)
(722.2667338 -286.1590828 -10.78115116)
(425.186908 216.1125049 57.40059352)
(10.69315775 -246.8176241 -823.8765967)
(17.46981806 515.3230275 567.9631329)
(985.7735762 -282.1780853 -50.80015887)
(-206.3010313 858.5340843 -784.7019431)
(2007.297709 325.810297 81.20686131)
(611.8408832 454.6351951 105.6880929)
(745.5256074 475.4280197 14.21441791)
(653.7926066 730.9682337 -301.1649236)
(1168.257356 128.7083212 -500.8488584)
(606.9986135 54.59373807 937.8505975)
(168.4014892 314.2670384 439.3297354)
(483.7777215 -300.1931494 -59.16669569)
(237.1466862 392.8767424 -404.3035805)
(138.7686709 -212.089639 -455.0788011)
(1051.401275 -185.9953363 -574.1062664)
(70.83374671 614.4277184 -134.0079604)
(1170.483288 697.7164957 561.9497601)
(353.7931533 -389.920895 -702.8315661)
(619.3683501 -2.925928558 98.37211255)
(1490.568183 557.2594101 266.2476537)
(880.358736 346.4845774 91.92887219)
(756.2396445 125.2854479 552.596147)
(224.1729482 786.3492369 115.3707508)
(235.7075705 150.7181257 -413.4601621)
(577.3852554 152.1183267 -199.0725162)
(1158.057978 52.46081907 217.129818)
(-38.5502034 1053.854585 -418.0621724)
(435.1238486 387.473837 119.4100939)
(132.1928007 747.3058846 66.98262198)
(635.2221164 -275.0636285 -608.6824469)
(359.0191093 3.823494654 -95.63607481)
(1408.398014 -115.5944553 -285.0861815)
(102.7965503 348.6967881 -792.8432735)
(-601.6899445 282.0864718 124.9393187)
(-739.5234949 -50.29735078 -377.7517796)
(300.7182633 399.228378 -375.1469989)
(-532.407221 188.5154956 506.9679437)
(368.6267203 972.5224953 916.4945429)
(553.5890318 207.6424978 707.8454357)
(-501.4947355 473.7310952 -195.2805298)
(-391.0584532 807.7517624 -347.8462659)
(-290.6686687 38.92017338 -399.7771644)
(1100.124226 394.1598892 279.1598355)
(-442.859617 835.8310117 -407.1830315)
(219.493255 979.517528 124.4528304)
(446.1296999 459.9818733 484.5755505)
(-132.6775776 739.408036 38.37379065)
(443.7270054 80.97918874 -337.3138462)
(-34.72641136 587.6429638 207.1949645)
(-129.8837067 452.7995828 -16.06582197)
(1390.131377 160.0008899 -57.85260974)
(-2.885569934 845.2952926 -655.4530615)
(165.2447777 -174.2136366 -359.2114305)
(1026.886409 -321.5581312 -270.5032846)
(707.4469754 148.1300758 516.7152789)
(661.9177032 355.8332796 -513.313027)
(954.2960364 -271.6516212 34.40400637)
(763.8573255 239.812703 147.2561659)
(1261.289566 217.1698539 597.0709406)
(1151.082356 312.7364015 -1222.272259)
(877.818642 806.2472014 -335.4055021)
(1260.284297 481.0147635 -21.63450336)
(-689.7374057 453.9275763 -803.4819984)
(1349.062141 116.0967617 -402.2184048)
(667.6972437 -378.4235698 204.062308)
(1249.952642 585.3942796 663.5918522)
(193.0148755 550.1971387 -121.8709827)
(1077.793476 -37.24892167 134.2143721)
(248.935316 42.58067448 266.3248929)
(905.0503604 189.7081108 298.446185)
(177.8593342 954.8715903 10.7380351)
(830.1732914 1133.073793 -94.84688648)
(-88.8042387 -382.2914237 534.8325228)
(973.8888991 261.5120292 102.6190668)
(805.278522 131.4069903 746.4866214)
(1275.398562 833.0845465 -499.8829457)
(306.3538312 814.4996087 421.4396908)
(866.4401436 251.072524 -471.1579165)
(984.8482126 -333.4746269 -735.4124477)
(-507.4820383 690.5623716 -100.3397288)
(-1084.225522 -928.9244726 327.4983868)
(1042.757336 -316.2607666 73.54347658)
(-235.784303 353.173645 177.2859079)
(305.0960052 243.9995044 -432.1785796)
(-253.5183646 1507.265097 523.5834571)
(666.6527048 239.6960901 -343.7677082)
(1777.9602 472.0672837 -840.5313297)
(554.0161683 -729.1043516 237.4485611)
(-4.887805485 379.7348708 53.87623729)
(488.7946114 -611.8835138 460.8261479)
(-412.8038434 75.1185034 -657.0947909)
(35.7765148 199.290493 676.1713245)
(474.2426869 -402.6937143 -1099.975876)
(503.6499937 441.8940416 -460.9720771)
(131.236742 -1052.081776 -124.635512)
(61.71340181 450.4988613 -119.9110089)
(954.9587848 661.2971237 377.6907426)
(914.2944913 665.2933333 -682.4979347)
(536.3259274 670.2039257 -717.7581096)
(476.9067572 173.2978395 148.8024317)
(608.5021967 5.57364089 -172.3463405)
(212.7819282 -493.7578354 659.6269797)
(856.4772462 85.1416955 -594.757797)
(1397.64058 1097.920156 -132.8104437)
(-292.7783421 -38.28570002 -1488.117543)
(1579.208274 -722.3460599 -57.71361188)
(294.8008569 -185.9988946 927.5281935)
(667.9941129 442.8576029 -602.4684753)
(826.0662984 288.6262214 -189.2512755)
(202.0129398 629.9098142 649.7400859)
(19.38318668 -17.58438783 148.1437336)
(1657.858193 12.94678441 -539.4851487)
(818.2080987 729.6713203 425.1499078)
(532.7227528 99.67609583 -353.3153883)
(1250.266573 244.3528798 -819.6574679)
(-500.1056412 475.5504242 -293.4119254)
(554.4252086 271.7270654 -2.392563702)
(1122.192341 -19.60466964 -357.2222307)
(1507.45854 204.6693153 -609.083484)
(1642.67461 729.2143704 -625.7288968)
(-88.49707844 950.9593398 -87.17106615)
(853.496947 -46.84308791 -175.8982048)
(6.775688412 -1216.078178 -229.0390429)
(1528.881667 -216.8499492 -284.7790183)
(-273.0973078 650.6829271 84.17056237)
(932.8735212 693.953191 -262.8926305)
(540.2052079 -232.903891 -93.89369369)
(-254.3369479 -408.381256 646.7636201)
(-210.5498304 180.048721 -325.7643455)
(918.6830588 590.966765 417.141231)
(1192.790137 679.1535859 783.7435294)
(443.5442228 390.2414633 -8.161594978)
(179.5162392 1186.06526 -629.533675)
(26.4358356 520.1205573 -66.9528961)
(-79.59969101 490.8211567 63.60140281)
(-299.2360223 481.3771467 367.2868184)
(443.6019583 422.3842141 -1330.237462)
(773.4826765 249.3009256 -179.2697632)
(556.9369022 -327.6368395 -300.7775032)
(1036.186269 -273.1032563 216.1413229)
(494.2184701 617.4896271 42.0295254)
(1021.223192 535.5625566 492.4338144)
(623.1551949 -438.5615215 199.7969845)
(463.1258724 323.2545258 -4.404179696)
(-644.1332738 471.6567583 -73.3492121)
(49.29472345 -548.9562027 274.4815665)
(1234.159823 1295.332923 -776.5650135)
(-646.8789648 112.4295587 177.5565176)
(652.9950049 504.0359684 -136.2275959)
(451.6530331 534.4440063 -285.3762481)
(988.7978443 -198.0187181 -454.2045987)
(-269.8566473 682.4590808 -384.0511451)
(-21.00519119 717.5033236 696.5456093)
(1839.293193 656.8292051 -219.971647)
(453.3828555 226.2800841 375.0219379)
(1012.347485 737.0146293 -41.99922399)
(-607.0235873 194.7085704 -891.6268482)
(-378.8760547 554.4470034 456.3354372)
(918.5903792 1028.824833 -1250.268982)
(328.2002173 1077.787235 -886.7169656)
(534.4272374 -411.9502687 68.99416906)
(931.2119512 680.8727926 846.5300571)
(266.9647309 590.2325208 560.1375614)
(704.8557094 265.0308226 -96.61138952)
(911.2520082 451.7717483 141.6280202)
(474.2903252 -342.9105007 -338.0404222)
(812.7368916 16.00017797 -480.1296004)
(-266.4674577 244.0378457 225.1250145)
(708.615697 656.1545434 -114.4974648)
(1151.348208 -49.14595562 685.8692901)
(321.8985808 345.7685136 53.41739059)
(1811.77746 617.6684922 -318.8855924)
(1191.48844 754.7340168 835.1859509)
(1116.179228 784.2157173 388.023793)
(207.2028344 464.4314957 239.953238)
(959.9428807 0.04598895577 -75.35875364)
(-47.35708268 783.0788914 762.5065561)
(640.8006966 -235.6524937 383.4194073)
(298.6800915 -895.4339377 -811.1361233)
(716.4452019 -86.56627202 341.1267219)
(596.6623933 345.7866171 -75.04277085)
(1429.287707 347.9242733 -52.81966424)
(-535.7783643 271.5595741 -598.5764963)
(204.2927817 -168.6490836 -520.6648742)
(1699.671441 613.3253173 -613.4822606)
(1303.802656 -31.69354719 88.09871148)
(768.7281275 -17.70856952 -459.1326492)
(-6.832746423 -563.5284517 276.3133502)
(184.9626748 1073.318454 337.2558651)
(393.0849111 -196.9907852 -347.2662327)
(220.9539842 1114.911318 370.3816438)
(333.367331 152.2446256 -280.378532)
(436.8769621 538.9307421 877.494807)
(-351.270691 350.6350545 -1021.389604)
(1694.340921 452.6049441 -97.97975545)
(952.6405046 166.5478116 -232.8469463)
(1191.844009 230.5035553 587.4120545)
(1038.029345 -314.5511711 498.5236423)
(1108.817091 696.7899597 -114.114841)
(1311.189093 111.8538711 409.9196413)
(743.4792757 -271.9506508 -234.4238529)
(-84.10729805 902.8957027 322.52285)
(428.9146311 97.39027432 -662.8259799)
(742.7109406 -264.2771923 160.1557107)
(1520.484477 -100.2770723 -1482.760068)
(31.51225813 -123.3889697 -869.1617612)
(522.579547 -1211.504549 -275.6183671)
(-507.6796184 143.3514 916.486089)
(620.0361492 1063.485564 -207.6078751)
(1456.728712 -83.74508315 -525.5056968)
(75.0347979 769.3122519 1043.965354)
(8.553028524 -578.551672 402.2938385)
(416.4719813 639.1760494 778.8756171)
(857.9598554 182.7274911 -234.7693464)
(175.564732 833.3780791 479.448971)
(239.7110823 -208.0040578 -112.3071191)
(1469.380673 544.2553827 196.0795231)
(260.8495535 718.0038841 -330.2425692)
(1604.434841 -449.607445 -265.6686287)
(482.6905015 1214.252619 746.7106713)
(1683.044623 -109.8657629 125.5976126)
(1037.869926 88.39577063 -1054.210991)
(350.9684433 401.0935884 -25.9213697)
(554.3463745 1071.818108 242.1656435)
(-88.28851735 233.2336009 -309.1185952)
(53.11459191 -850.7209788 -107.4628964)
(218.4707371 52.75338113 -412.1218711)
(-318.3705325 205.2745036 -365.5408851)
(600.2146425 31.27754186 1142.29428)
(736.0426301 459.2852417 -176.3577681)
(1003.561066 -997.1752766 655.6972341)
(590.9214773 -49.75175931 230.6030195)
(1253.437642 1045.60885 31.34045792)
(916.8871736 116.5325758 248.6558238)
(611.160368 -352.5228771 -450.3678842)
(510.0252921 451.156186 -669.2417871)
(597.0062199 718.787287 174.9211752)
(716.3305165 278.3121415 -161.5600597)
(-95.73555181 1183.580688 -230.5064414)
(676.5344104 547.1183127 -347.7610027)
(429.8174105 456.7050694 771.7589905)
(-374.9556927 -219.3406706 13.16569823)
(1342.944757 1094.327578 19.829615)
(467.6642282 232.5961768 -76.81520852)
(932.2308723 397.5581295 -229.6215916)
(2488.249829 -358.9302602 -195.681998)
(892.3822164 329.9779906 381.1342756)
(222.5953578 623.1624092 -487.1761704)
(440.4188206 595.1588472 -366.0996081)
(324.5499592 688.322121 -139.6211558)
(755.4934428 441.7877602 114.56719)
(1112.756958 -63.355796 -141.2460612)
(1119.620423 -489.7283639 -507.0326366)
(63.311614 -300.7751997 177.2320534)
(164.845163 690.3672614 134.6540681)
(1322.176193 489.7709422 -586.0656417)
(238.9075724 1020.632419 -142.3958029)
(409.0299674 -213.1210886 551.4508131)
(217.4041505 1249.563108 -385.2139732)
(1018.769381 -133.8629625 404.5053489)
(1394.695771 39.04592248 949.14614)
(659.2767561 815.2549072 -99.19098535)
(773.5360342 522.5518406 30.90227178)
(-728.1150751 496.1878832 -153.7810675)
(-213.8400513 35.4749274 100.0547971)
(585.8455211 676.8226486 278.3935798)
(202.077665 303.3775237 209.4882128)
(-285.9561583 220.4056652 -221.8442431)
(1258.5472 33.53091529 166.4459402)
(201.5489206 986.1380157 -100.376392)
(1580.423071 -190.5841165 80.09910571)
(-106.6891255 3.843043078 93.15257021)
(285.674354 651.7083128 -96.48591761)
(1028.574903 34.38716804 519.1313852)
(760.7535804 96.12044442 284.6389543)
(676.6388134 -198.2198589 741.6143617)
(1755.915501 651.7941701 -151.545329)
(541.2241677 1544.221596 260.15391)
(1664.172628 -348.8052594 -588.8250409)
(689.5596474 76.61715781 1148.840022)
(-528.6923155 469.2184725 -238.5756798)
(-305.4433599 234.5431423 -272.1576117)
(373.6521176 119.6374464 -162.8424844)
(908.0603563 -20.08717556 -667.2197099)
(1091.782024 345.4989988 201.7585358)
(-296.7367143 408.7586809 886.004927)
(833.5618469 -633.5309588 194.819028)
(761.0288769 826.4482381 -204.2493021)
(480.7768765 61.99893013 33.99811607)
(884.2335416 1273.245557 842.5648384)
(177.6710928 -722.9724639 -811.7170947)
(1631.767607 -285.7481625 -439.1543049)
(-81.37812106 723.5181474 -99.74739562)
(1557.33998 174.9545951 690.1820482)
(485.94911 883.855218 -467.2338232)
(603.8735124 845.7527685 638.4080039)
(-292.1321391 704.464692 -250.6841417)
(744.0973906 -532.340866 -376.6740776)
(1058.87182 920.5275898 -591.9336276)
(1495.152107 1175.903098 -499.1617985)
(396.5767959 -67.54459142 823.0242719)
(875.4263072 398.9377327 142.4600794)
(360.9202279 206.8853662 -770.2190471)
(533.9326211 -669.9758451 -222.9279925)
(615.7328036 800.4534724 -5.934646801)
(1660.172481 513.7076434 554.685351)
(-339.8236461 232.7540745 337.2613053)
(899.9850864 301.4684193 -128.0123503)
(1365.807233 195.38872 -586.6772565)
(1003.509155 202.0886595 657.9804147)
(83.060197 880.6402514 -230.9078102)
(858.2197216 919.3920057 -453.6096427)
(412.2785276 694.3404217 288.0735462)
(-368.2295745 377.5987277 360.1526113)
(778.0704467 1473.385838 -30.07361866)
(1439.854487 -696.8166236 609.4475404)
(993.790816 -187.1403325 -867.7227413)
(1778.879222 885.5413335 -43.08998076)
(1299.09791 66.09657198 994.3633577)
(277.6247348 -117.4422361 32.60550263)
(846.1397371 407.5960234 141.2052264)
(559.3956507 -28.68985691 398.5244388)
(1641.559104 539.9406505 250.626832)
(547.228637 513.788852 602.03017)
(-214.1279054 218.6619942 -202.3157111)
(238.2261525 -61.86109088 205.7692808)
(209.8492989 -365.1680678 732.4387298)
(1798.221364 524.1739936 20.35605083)
(-282.8489498 906.650281 112.5371918)
(1030.02458 -728.1841878 130.7576858)
(-569.2519928 463.2292335 -199.9347659)
(29.10765204 292.440837 585.1225602)
(660.4370502 339.0719686 340.2416198)
(1122.378407 -0.3818383123 -91.48207578)
(267.4260409 -185.6661275 -685.7183119)
(1784.801932 -567.6846113 -217.8392128)
(399.0573505 1059.469022 306.8719655)
(-197.264615 935.0449301 389.1846848)
(-177.2868968 927.2644804 18.15682383)
(782.3968296 516.4609633 -355.681552)
(614.310534 -57.23142286 -143.4276511)
(1232.094811 110.4773807 166.3954319)
(562.899191 484.6897041 264.6434922)
(1516.080477 480.754858 -39.55123785)
(295.5946455 449.441901 -37.9486234)
(1537.468694 295.1752152 391.2252316)
(1052.193491 409.3339862 -376.5145394)
(612.7683977 596.8845952 -799.5104334)
(1131.133133 930.5264594 -517.7269044)
(559.1035532 16.77277054 217.7298212)
(169.1971531 178.0855107 103.9650799)
(-672.4156187 333.6434084 497.9434007)
(367.2103886 400.3197038 -697.7479493)
(1231.992943 710.30665 -44.15214517)
(327.3510861 -64.32272073 -97.02602482)
(1126.033324 555.5836721 146.0226759)
(57.40929799 -151.7656147 118.8461657)
(652.5742926 324.1893803 661.1651168)
(463.4153886 991.8269838 1010.618615)
(1918.305644 667.3468474 380.5640344)
(653.2952687 659.591886 -322.0131444)
(1331.321513 492.9943743 1729.691593)
(2226.626852 641.037558 -415.1359235)
(1252.500421 152.1037741 -453.8811974)
(833.2616907 536.5784135 477.6336405)
(1333.172433 559.6770359 360.8102813)
(1261.639515 -364.5725141 81.399228)
(892.2557062 293.4620606 -567.7600446)
(1020.235722 732.8949926 -8.509024778)
(557.591103 170.5841054 -531.6218251)
(576.629439 520.3619518 -38.89608357)
(688.1986396 258.6441889 -84.11854763)
(749.8148568 563.3630029 -35.86353321)
(751.9209178 315.2833167 841.1095935)
(1511.90314 102.9674688 651.7722354)
(1447.289702 -49.81604789 297.1959493)
(106.2432301 538.5540076 803.5814334)
(1613.260325 94.95865727 -445.2780772)
(788.2814449 20.09908015 -498.6422562)
(691.5988097 -236.8888281 424.1078607)
(733.5884586 385.2770786 -363.2210652)
(383.1228525 219.6423391 -93.44154163)
(320.5744422 -258.06511 316.5607482)
(-10.07986148 284.3943565 -455.8685876)
(-141.1906282 848.448159 897.1917118)
(219.5878028 263.7414893 -200.312352)
(1056.746268 -34.6900819 433.3561138)
(582.9479334 335.9101668 -516.5760268)
(189.2169791 546.1817236 -497.6887953)
(1200.278933 518.8122125 -193.9078523)
(28.24895493 335.7978848 -853.7561084)
(-407.085145 241.1160871 -755.6782802)
(1372.6979 300.6326007 -216.8455743)
(196.6538465 -57.59620289 -413.2702991)
(-594.3307351 1575.05422 -436.3787914)
(-154.6138499 654.34582 -210.9622802)
(190.6941862 43.77360361 431.0576691)
(133.2841906 787.6555628 -81.20331107)
(271.611821 -118.6433322 -480.1641332)
(533.6477546 311.1085984 -50.08167579)
(149.8037372 0.6847475318 -306.9127591)
(942.2847684 221.0560118 362.965716)
(731.2188415 600.0269458 -454.728001)
(1635.368454 575.4264147 785.4440808)
(429.2788983 298.9069066 119.9307772)
(-282.9538107 243.3251458 1047.072136)
(-189.1820455 222.3451496 -754.3846813)
(-75.68127896 -70.21995649 79.32020629)
(761.0129011 179.3398092 -117.767953)
(655.5808607 219.4545275 -311.9241661)
(-60.37396268 793.5845644 90.41113668)
(897.4085584 533.8362161 82.02192817)
(65.47686584 -315.1463984 323.1723638)
(2000.595923 213.1078748 479.2578616)
(40.09052753 676.3921641 798.7409693)
(-593.5130035 340.2293443 -74.7076571)
(-27.88834926 -525.5745273 45.11076857)
(814.5549653 -853.1218953 -119.7904558)
(527.8487582 -42.28812821 197.1356032)
(720.0028197 683.8355338 543.0018706)
(826.1192812 -145.5176754 -214.759546)
(754.466156 275.9776437 793.0547915)
(754.1662859 -12.36766916 -42.77695621)
(284.9710504 -31.50045669 107.0669505)
(415.8884115 32.24959326 1005.510666)
(437.7069295 -205.9077874 452.1251883)
(255.5763367 574.1064707 282.6805687)
(877.1491928 0.2029379112 -282.180995)
(1001.179096 -418.9484682 -237.0982905)
(59.34808429 440.0815193 9.943757089)
(1131.225797 575.8990767 -50.70477531)
(1140.856075 1015.956277 352.5762603)
(336.293508 75.18984307 832.4920113)
(774.114622 393.2851619 -86.45280031)
(524.0072871 56.28769388 -336.4078183)
(929.1018836 -921.3623923 508.9640543)
(1817.7263 486.0257915 -85.92000626)
(1220.572293 -324.0410353 -129.3342898)
(1018.171691 -386.3358199 439.0096455)
(1210.513798 181.3441818 257.4436325)
(1087.580445 206.2379866 -80.64444304)
(165.0336746 149.0349429 315.8968735)
(179.3479616 1180.707233 114.2325564)
(930.9336081 722.7958569 918.7714267)
(0.3558734741 558.0390792 -395.0192754)
(608.5863601 -16.63746416 -31.28690493)
(-90.19466076 -148.6655533 -459.6095739)
(115.8896594 968.0962416 198.0990202)
(1515.25084 -369.2544355 666.1679748)
(1289.581512 944.1798709 18.14384432)
(653.9405896 19.65333847 487.2567615)
(707.9912808 261.7140463 -76.2845408)
(364.7522658 75.74189046 356.007301)
(126.8040834 248.355701 790.037402)
(712.736793 1178.438581 -374.0275718)
(525.290527 -168.4155851 -79.04230858)
(667.6902267 273.0890235 -199.7053197)
(883.9155336 933.6387531 84.18959249)
(872.6300313 -561.2150247 453.7104823)
(1187.036887 204.5773754 253.4673504)
(872.1009977 -664.4655206 375.234868)
(851.4325759 258.7154921 209.1478434)
(-55.38732281 662.6607708 863.0977397)
(474.4515873 335.2799906 230.0729238)
(1150.580621 1024.794726 -230.0933911)
(-198.2662144 100.042215 -304.385292)
(948.2678376 986.9208531 -269.8531167)
(1710.100522 -26.85307291 -343.9710127)
(-373.9781017 337.7149354 696.3935383)
(1548.961525 1000.745785 724.7926136)
(1020.298375 -108.1489463 227.7478165)
(946.9943755 370.3646143 -322.7823509)
(692.0793507 29.23813453 28.91329747)
(545.1247114 833.0404196 879.6020215)
(-319.7074926 303.5737063 395.9646441)
(676.0032462 262.1015273 -16.31332477)
(661.8537985 110.7509337 -233.235934)
(1203.238056 204.7302998 259.8086545)
(673.8057998 -235.4995587 -648.5164088)
(1520.154549 -795.0195094 541.4327938)
(515.3384088 -26.09517605 479.7509404)
(723.2239052 210.2576183 520.542815)
(532.2761205 -321.6953122 259.4592007)
(679.8262999 307.211842 629.2100121)
(284.2585446 104.1213235 377.8327025)
(446.6644955 637.6398627 -464.7581518)
(1493.732331 -371.3016086 775.5438006)
(906.394017 795.8861782 412.8824415)
(927.4184356 580.8599321 -740.7957088)
(1210.495204 -14.1717478 381.4433005)
(1297.193302 321.8196799 -440.4282302)
(693.1122273 1535.498852 281.7353384)
(306.0787836 -228.2907463 -311.9115415)
(749.3217595 500.4528139 -352.4056812)
(1208.872544 -186.6788962 228.4604104)
(-133.0111782 413.6443601 -1109.06214)
(929.3802242 319.6520134 306.1344001)
(941.1665609 335.5330793 -328.7896038)
(823.4417369 539.6461601 309.2610552)
(867.8499443 197.4669749 -289.304353)
(330.8703478 605.3344473 387.9627833)
(754.1254094 569.1808239 -15.53343882)
(761.2091877 462.6133231 808.8011264)
(513.9816398 218.8274864 201.3375223)
(2311.71983 -193.7465443 -1148.421387)
(219.80903 140.3792119 -603.291051)
(1330.708684 -143.4608333 253.6823437)
(-260.0548722 259.3325252 -631.8717091)
(592.3817375 179.3264208 -582.5181896)
(309.487846 -376.8148223 117.0861056)
(526.2999206 222.1279343 -474.8737695)
(-592.0304668 243.7401981 -59.61873473)
(1250.8013 1094.135639 -349.5320896)
(1314.101008 286.5522897 641.3922154)
(394.7656912 482.819685 -629.3513003)
(443.8367799 -924.6109208 -988.5619374)
(1312.833173 626.2489011 -333.9123886)
(431.6821156 -394.8630088 -184.9019574)
(269.5094585 -30.83435001 161.5889385)
(9.377399888 626.4056729 -416.5360895)
(-23.06923811 584.0365151 -279.1399121)
(1066.856662 -551.2929127 -512.1597914)
(48.25646416 -276.9887731 -274.5540059)
(310.6492755 -0.4070372676 -74.06038742)
(1650.803309 130.5765797 -198.5482122)
(148.2204268 468.1744058 582.057537)
(10.05439766 591.7038107 106.7030213)
(421.4515357 561.9701209 833.0994969)
(1078.886852 132.9889293 189.0107242)
(-12.41783784 656.4604724 253.7340412)
(1864.080592 443.3152803 34.97621764)
(-690.4874787 475.3874798 -668.3506456)
(-381.9930284 -72.25316726 -392.7427562)
(2129.259888 226.1153386 246.5560073)
(1190.576353 -101.8193003 95.90538465)
(798.1834224 871.027361 -209.2171948)
(897.4836333 562.6692765 -24.6642444)
(613.9522214 615.7449787 -68.74875084)
(1686.680249 716.712275 -776.3412141)
(728.0375588 -93.69077274 -398.6033311)
(1335.987788 -469.3094057 630.970292)