/*--------------------------------*- C++ -*----------------------------------*\
  =========                 |
  \\      /  F ield         | OpenFOAM: The Open Source CFD Toolbox
   \\    /   O peration     | Website:  https://openfoam.org
    \\  /    A nd           | Version:  7
     \\/     M anipulation  |
\*---------------------------------------------------------------------------*/
FoamFile
{
    version     2.0;
    format      ascii;
    class       vectorField;
    location    "0.008/lagrangian/dsmc";
    object      U;
}
// * * * * * * * * * * * * * * * * * * * * * * * * * * * * * * * * * * * * * //


3230
(
(112.3021936 538.5896719 606.6352909)
(-349.997978 1.791196297 -251.213465)
(223.1304334 -304.0034096 406.255023)
(542.1828179 357.9220932 -413.6252989)
(-1010.430589 326.7822842 346.7690374)
(368.6324195 265.7710235 588.2101366)
(-216.2718345 67.88386628 262.4927416)
(-183.1004384 -179.4201009 -60.90354653)
(177.8607734 -61.46918838 205.49343)
(-538.4340257 523.8758246 2.900626167)
(17.69623935 -388.6385727 -101.7529277)
(411.0860192 148.8708311 -580.5861676)
(89.97625738 16.07728582 242.0749976)
(-67.7694936 646.705526 -11.12669449)
(-495.6447723 -34.36173572 -1024.270786)
(-53.35508388 -91.58261425 111.0632585)
(-456.2911756 -6.586902286 360.9294305)
(163.7198928 300.9492656 -109.2852686)
(-798.156707 64.65583413 -9.171566481)
(206.0263765 233.3791159 48.4031)
(475.1326978 87.04565583 108.454336)
(-785.3179655 578.5725754 -205.5089561)
(106.4230676 469.5997326 -283.1280769)
(54.91365488 -1069.806879 436.4955598)
(186.1368622 -21.32520803 66.56474951)
(311.9550561 -30.03402368 390.0275564)
(64.52888619 -645.1098226 -227.1941354)
(37.9044736 -42.66337232 280.2496044)
(-61.85268486 -347.6469967 433.0999078)
(-126.3188922 520.735337 -28.25788514)
(154.1712488 73.20288872 -16.58611424)
(-306.9465632 -259.0155382 -510.8618233)
(38.5498758 410.890191 -95.00545825)
(538.1069682 -103.0915079 83.06047211)
(-60.33192737 548.7018744 126.6404366)
(43.7991023 515.9022952 -462.0481145)
(36.20236567 -340.7665724 -199.6161075)
(539.1397437 -214.651402 -182.1032552)
(379.377152 25.42851492 -676.2418068)
(-471.9576242 422.858417 36.93304542)
(-246.3968267 -419.1945121 -428.4639588)
(1031.251813 543.8702881 1050.530624)
(90.9610892 -170.9190342 230.6217343)
(590.1059448 265.3315167 351.8103981)
(-17.98451619 599.7337243 -694.4638676)
(143.2641413 599.7351928 142.9421416)
(-198.0996096 903.8456036 -60.32740771)
(-268.4936597 300.9628196 -85.7783928)
(-472.8815382 296.2375956 287.4621759)
(-145.5637386 -204.2483555 -281.0617096)
(-491.0042434 -198.5392931 -451.9902043)
(578.8131931 511.7040933 263.0979259)
(-202.9262746 -457.267877 197.2410793)
(629.2111642 -245.8844546 113.826508)
(-85.609611 -195.4465742 450.1707788)
(69.65962808 204.5254166 320.4327547)
(279.8378251 282.5172143 -116.4267748)
(-46.05804006 224.751791 169.9378354)
(-374.8119233 -217.9080792 -274.7142283)
(136.2085538 251.0599012 -416.1350949)
(83.88850606 467.9417504 -323.3440624)
(-207.7611523 99.20481327 446.802095)
(90.57081155 511.8530226 -261.2619665)
(-7.072267495 210.624488 -30.2080945)
(272.6802097 -72.49583393 -457.1766885)
(299.1514807 43.20587428 -528.642366)
(-338.7141533 453.2653868 -71.56202356)
(327.9123426 109.9765612 631.6727617)
(355.6948561 -126.9540083 -114.3615891)
(610.409289 29.37463539 -413.3816519)
(52.5963742 -62.440421 -279.3385373)
(-179.115084 216.0686263 -844.3811849)
(-121.9986799 131.4061743 197.1464482)
(162.0195973 175.533887 104.9119129)
(263.304702 127.9634865 411.8590384)
(252.8141207 167.5400178 230.2224752)
(-40.91954745 -229.1328284 -550.6770328)
(193.2545022 101.7222111 -338.9032892)
(-138.152979 221.0467869 -539.1320193)
(-105.7472322 266.6132535 -303.6670635)
(-355.1458337 968.4170433 -208.2129166)
(35.18633087 -300.1678858 -636.21847)
(4.304626681 -474.707863 630.7788553)
(-101.1062249 -402.2868323 -190.7653857)
(-10.16728345 160.8250184 -152.436792)
(20.48497491 -57.60060822 -176.7935263)
(-199.4266245 21.74420319 -126.0747186)
(552.9127438 183.9383614 376.4388087)
(648.6527503 -1.06191485 -76.86559644)
(-121.4576357 268.0618423 -493.5761932)
(41.56759755 -203.612589 -77.68986607)
(-412.3222145 -96.10094361 954.1712485)
(-300.9961144 -190.1403779 -503.8962041)
(-235.2013741 -647.7624118 -343.6676437)
(-519.9074843 -74.56816805 -340.27262)
(-131.619613 264.6155217 -217.7303076)
(221.1269539 332.900359 -48.49166854)
(152.3096096 -224.4678434 -282.6885977)
(274.7829108 370.9089921 99.5873461)
(229.1797112 -428.3453923 227.3321746)
(-145.9720954 29.55477062 -373.0175088)
(210.475431 4.030259433 -574.7559725)
(10.55951969 -379.4950838 187.3300095)
(-133.3946384 246.4369713 -314.4831989)
(-940.9965185 306.9458573 -566.0916023)
(-102.7548127 84.04009 125.0745435)
(336.5380498 -347.514503 326.4596502)
(40.22701418 367.7252644 -385.7213087)
(93.7915494 -87.03397728 -58.14117702)
(-277.0808963 413.0444302 -488.9187273)
(-54.53997323 611.8112989 -409.9732031)
(-251.9393247 -198.6543835 -6.397221508)
(-108.3978011 -224.5518381 832.1338252)
(228.6969057 -277.6192308 653.9676335)
(-260.1210853 -348.9821393 -54.17532126)
(-63.88637885 316.5856032 -85.20347717)
(175.5758472 440.2816853 -166.5061985)
(-315.3747301 353.2901622 -26.26722919)
(479.9774628 448.9304591 -86.24759791)
(-201.3914994 303.0780486 189.2667573)
(92.52468753 -106.2310184 -267.4860438)
(-321.2238137 -14.04177141 412.4283398)
(571.2646202 -298.0057642 -126.7388629)
(-191.5949096 727.0924421 733.9083825)
(19.40068888 -219.4213849 37.41374413)
(67.87986401 -212.0641524 -157.9402416)
(-196.0505605 131.7097467 -48.44319923)
(-128.6563467 -149.6565611 189.1613871)
(-570.5680965 -404.5867951 -581.5987268)
(1082.227558 682.219882 52.82289724)
(-397.0877489 374.7325571 -169.2136244)
(-307.7449493 -2.337769835 739.2246087)
(-470.2851001 231.9543072 -121.8389597)
(-123.6575667 -56.62129977 453.1625444)
(-45.56816239 -69.85738604 -170.756481)
(323.2939893 247.728386 431.1927581)
(144.4857138 -79.65596491 235.2516128)
(376.5230071 -152.8071443 -38.06783479)
(-121.0707566 259.0849352 83.79119776)
(29.90642135 536.8109867 -375.3379956)
(-119.3513886 -196.6085684 -443.2959774)
(54.84660141 -203.0268456 -316.4222491)
(261.2430561 99.2728814 -144.0334768)
(-472.4395448 -4.209169626 -238.3131368)
(-258.9750962 -253.6012918 -136.771778)
(296.2783793 202.7659027 483.6984223)
(-158.9158928 -95.02048071 -194.5224614)
(408.3351038 517.3336839 -354.4331586)
(14.17277575 315.0837978 324.9659492)
(117.0337459 -223.0602217 -506.5828917)
(82.88810763 58.19101643 85.86482839)
(263.061591 -232.5585474 -31.44403469)
(-79.5902784 4.45372988 -214.3051518)
(184.3594567 -0.5718712663 239.6600571)
(50.94441296 -51.86211264 -521.7677704)
(-799.3544637 -165.6225437 -0.1280919825)
(63.23827749 109.2884908 320.471862)
(-122.619858 340.639929 -539.5911294)
(186.3771728 149.0911484 617.3741225)
(238.5507848 -117.3071506 -578.3051424)
(631.0152249 -126.6348582 -291.8226328)
(279.5695529 146.5259101 1000.824345)
(142.469378 -181.2130628 -580.4710371)
(-775.9039723 -187.1512801 -407.5670285)
(321.9705845 -204.7923501 -223.634406)
(489.5195799 154.0836858 352.5382961)
(63.72162555 461.5927498 -49.6956805)
(-128.2684082 -375.4904673 -454.2619336)
(-293.0460411 521.30046 -557.1374112)
(-147.5585297 179.3948822 -169.1175811)
(86.05151326 -145.7386363 274.8753661)
(-150.2284267 123.6079169 14.91101153)
(-142.9939904 297.2675958 427.8113709)
(-303.1404144 -86.98567178 -423.2065671)
(-325.4641219 132.052289 378.3121958)
(-413.0061689 101.897861 104.8331167)
(-276.4282236 378.9441157 -192.1593782)
(280.0746501 166.2808946 -49.60501868)
(-163.8493789 458.6148946 -339.3009017)
(66.53735893 -279.2928837 569.0488984)
(-45.90068038 7.091887616 -11.50593662)
(45.18520152 163.4329043 121.6082054)
(-30.78536747 154.6726892 -361.402881)
(6.082381844 -107.7712291 84.47325205)
(-607.5302029 -328.4110375 -499.8589292)
(214.7503076 115.1417324 -169.5746135)
(-219.8243741 183.1120137 -388.7567602)
(-79.95723427 200.1489611 215.4691962)
(207.1537746 39.68671957 78.73412575)
(109.0841893 18.26407965 244.5479608)
(399.0804172 161.365626 208.3297077)
(183.4010004 493.2432419 364.4502381)
(335.1071548 -416.4674383 -347.3813039)
(-222.8640955 -605.1982799 -188.6449773)
(-263.2742987 -7.157123867 224.1497522)
(287.8299939 736.1055193 -116.0876632)
(360.7195076 -32.65327148 -318.4697063)
(-539.0525657 -39.19396255 312.8566766)
(-398.8097637 122.3493463 -31.41455229)
(545.6670177 428.660466 -236.0799606)
(-585.2699426 230.1867912 399.7488313)
(-354.206489 581.5084746 170.0247614)
(-10.92544138 923.7545317 350.5516616)
(-454.9073843 42.16394396 23.99295558)
(40.32763154 753.6536774 79.02920266)
(586.7517804 -171.49316 -21.52180677)
(-280.1663533 450.9961772 576.3245183)
(118.4418612 -322.2586668 -242.7031248)
(-250.0548177 377.763791 893.6926221)
(14.55994521 607.1118804 318.0912526)
(-521.1547545 -41.63178585 460.7673724)
(-188.4574617 533.9080675 -157.9851613)
(83.70519413 690.8450606 -469.2626384)
(-163.5248817 463.5673724 -127.100333)
(186.6443919 -436.3605347 -249.9218346)
(-52.53041292 33.42270936 -219.0592601)
(-412.300398 188.3339542 771.4529965)
(269.9368141 -477.3974803 109.9484887)
(354.8553797 320.0534691 217.6971045)
(-198.792681 -323.5865418 -318.6866311)
(-375.504395 61.92131252 158.5528013)
(-505.735147 134.2600934 218.3739374)
(-308.1114962 27.23593188 880.0860305)
(-577.3389517 -266.5125971 -135.1956328)
(-171.9980033 -197.0197218 -171.7768817)
(-10.11860366 -171.9897296 -276.510071)
(195.7531411 342.3769439 -84.63029214)
(53.26690872 -350.094345 170.4843646)
(-405.8134098 -20.63509569 29.35160929)
(512.4077152 295.3978059 453.0006942)
(257.3595751 387.0824146 199.6581217)
(-3.575948165 89.83497452 275.5977136)
(336.9213159 -280.8573301 -47.64267297)
(-132.0273443 382.0922438 -44.06475302)
(-194.5014876 -313.5983228 56.58954521)
(-1225.325702 108.9231267 -498.3295231)
(504.9403415 -264.2090498 93.40527997)
(203.2268741 1080.419926 670.5922512)
(-778.5885966 232.3216645 224.842297)
(173.1457841 227.3792819 -233.8564981)
(-78.31524102 128.5463782 -13.02117948)
(-114.3801357 -88.07267609 151.4413687)
(-706.8508691 536.04458 327.5542717)
(171.2154123 107.2970239 -694.8712396)
(608.5055823 107.0656359 -65.06968605)
(36.30285565 221.8609114 25.24060979)
(139.7403567 352.5019559 342.894976)
(-482.9098084 751.7262931 464.3709098)
(-262.9851954 172.0101427 88.6434796)
(27.85875186 353.5209956 255.1049002)
(165.4845873 -441.6069478 -665.8589457)
(-269.2163246 383.2027428 -41.99211734)
(-439.4335673 174.0856133 -302.9549287)
(-85.53413517 73.46591672 36.91620669)
(351.3749274 -343.6180446 -305.0328617)
(-569.5728471 126.326928 -544.1427834)
(276.1362723 61.24107105 344.2886029)
(-289.5042483 55.55335609 552.0232212)
(312.2338785 -147.7801616 -338.018803)
(148.1026278 245.8566674 -639.6352016)
(686.6319399 -544.8683448 -780.9663822)
(-517.0155109 73.08344182 -131.9955077)
(-480.8832607 -281.4618431 444.2728699)
(273.1207717 -71.05926627 90.01186518)
(-242.9968481 196.556785 27.02060455)
(167.3473736 -440.7933615 -187.1252857)
(-527.4743467 -67.48960768 -187.2604726)
(60.60048444 78.85924312 338.1992133)
(295.6013669 560.4532161 0.8180677299)
(473.5568314 -15.83597466 -533.3099626)
(-347.6644685 68.10631223 386.0793147)
(204.3632637 249.8660241 41.29136514)
(501.3635738 -4.816699075 -293.5933413)
(132.4408917 52.49901496 94.10888683)
(-415.7199204 -506.7779995 81.25715901)
(2.46473538 124.7433329 -383.1818268)
(30.40271486 -461.4656446 221.221139)
(51.62558751 -190.9564513 -120.6293368)
(-155.0452285 -776.0895999 -110.9762449)
(147.2476743 62.02516116 500.1668767)
(-314.4972027 4.742021256 330.6740034)
(142.9662678 237.1096754 -4.031039831)
(447.7803061 618.1894022 73.39872849)
(74.58167512 142.0357895 1231.313025)
(-745.4244047 88.86400826 131.7125979)
(129.3209151 276.0006585 294.0904137)
(11.84908511 -85.0905223 298.5137523)
(-381.3136681 -241.2627279 131.8288704)
(-2.810965815 -299.6446302 -485.2421984)
(607.4450494 198.7177378 30.34624483)
(-367.5208495 264.0694409 -489.199277)
(75.0497013 214.0187009 239.1414406)
(-0.9576394113 420.2657268 -326.831084)
(137.1116678 392.4094523 -345.3709959)
(-237.6821699 -88.16257787 -376.6644796)
(-257.7562947 -237.2583115 64.188249)
(194.2880629 -316.5437228 94.25977904)
(-94.79458352 246.977129 -549.2340916)
(-343.5167374 844.51148 -467.5630391)
(55.97853044 -80.71015969 289.6109054)
(-305.9676115 -67.03883726 -113.4845682)
(-754.5798331 -239.3992514 308.0074754)
(139.5857872 -342.5705567 -201.8648836)
(-30.34754768 272.2189044 -455.9411079)
(-10.84938662 24.34979744 171.0379063)
(-14.82787977 120.9599286 -525.0280383)
(-195.3356437 783.6002835 -7.028261528)
(-1161.525132 254.2550753 610.7473962)
(-14.02157142 -256.5099539 48.21281067)
(-682.0847996 317.9833101 -176.1938751)
(263.8636363 70.6764109 -198.7279514)
(-371.7910654 -218.1698988 212.0746286)
(44.7253277 -178.0282229 -922.8073752)
(64.1351108 -258.3984856 -323.729765)
(-257.6306435 17.00724611 -164.4884439)
(339.1571498 62.22724957 28.14151061)
(3.401973636 -112.5461876 -359.8567845)
(67.19486307 -292.7926381 -735.7232653)
(615.9768437 -496.3783259 581.1322789)
(455.0096417 252.2815294 -418.4591431)
(86.65121158 -59.70139977 140.2271585)
(-244.1084396 590.5177764 -241.0447588)
(-187.3615428 109.9278501 624.5611516)
(-301.1944716 286.2235979 96.93967759)
(-299.0923367 438.0341544 251.538479)
(-455.629548 432.659575 18.1210864)
(39.64531342 184.5270665 84.27898987)
(672.8285945 -311.8077672 -430.588406)
(257.6708494 -11.76734735 -44.64782203)
(-915.2967388 442.852669 252.8461124)
(433.910843 2.085028399 -561.2411464)
(111.4336449 90.83212181 -254.003229)
(217.3591384 -502.8008411 211.2708784)
(-171.9242775 0.1791437213 72.60045468)
(801.4668943 -124.9759117 -366.041994)
(-532.7840545 130.3311885 -580.3558345)
(-108.4504716 359.0436875 -173.1753795)
(-264.7862943 481.3122451 242.8480613)
(221.308801 312.5823309 368.226994)
(-533.3277665 182.2249711 -595.5819569)
(-40.52215909 39.90275221 -699.9058516)
(330.389738 645.8745414 -243.0290981)
(-526.8489169 -275.4557187 150.2460518)
(199.8060907 42.66012455 593.2494139)
(-369.1533597 211.7311379 -251.9733743)
(250.506333 208.2217162 -101.3628443)
(-312.1068498 436.0533084 45.0736764)
(165.2289413 -340.5934586 -231.4907807)
(300.3008441 -347.2651994 102.2631586)
(-364.683644 -384.6451635 -420.3847961)
(860.436332 410.6607732 9.201858795)
(-232.204806 -397.9728942 -168.5071935)
(701.0873913 -252.7626122 332.3708129)
(-274.7246939 283.138932 -185.4440346)
(667.2691301 191.2325571 -140.1208937)
(43.75748519 315.8705008 290.6354737)
(-58.26481375 194.4764255 430.2084742)
(-348.0505073 563.1132886 -65.99803572)
(-2.440979664 -200.9560889 -228.8847468)
(-717.1241901 153.6005908 -415.2984792)
(180.1857377 -177.3793661 -244.6610395)
(100.3709011 283.2393652 87.84872607)
(-454.7332625 -182.1326997 -95.10703161)
(82.91716926 -61.00737641 249.4484017)
(-256.2264934 305.0526661 -780.0870673)
(255.2677125 -277.8804766 288.0885216)
(231.460627 573.786816 107.1240882)
(-825.358601 608.1628243 -58.84042249)
(415.6360576 -205.5046011 -411.6767224)
(-612.3707284 452.8461338 -39.2536727)
(460.4940242 -568.1846134 -110.4200582)
(-196.6571698 40.69364065 163.3798761)
(-51.03311227 181.9955518 -190.8826077)
(321.6979313 156.7485373 -549.5222664)
(-132.9623669 453.9907578 -28.37401461)
(-721.8499748 297.0771103 -597.195491)
(-579.9106284 -5.592621952 -531.1564882)
(-151.2736962 329.9905223 -12.09320076)
(-127.8493871 -101.6277315 -197.0619406)
(-185.0982465 84.41219329 -224.14758)
(-147.0882925 516.6035701 406.1803896)
(85.76215748 299.6015406 -689.4899976)
(237.681929 -318.2366797 -188.5330404)
(-979.9480152 58.26415726 189.6614716)
(-254.9686168 528.6639357 241.1578205)
(-84.08709439 -451.4937234 -151.9293903)
(-15.76505657 266.4930556 137.2510215)
(-276.4476159 -328.7236382 -359.9255585)
(302.7801645 34.26698729 -610.7206875)
(-295.7238218 -49.02473738 -355.7299492)
(-442.9352835 830.6799545 674.5569553)
(222.8765972 -235.7976161 -204.5383645)
(-279.6191825 159.7953594 729.606615)
(484.4971847 820.7839883 -261.9207228)
(485.5269518 362.1342376 26.09750308)
(94.34725119 -180.01361 -2.26794154)
(-286.659784 103.6036119 231.6907515)
(269.1801409 -117.6766861 5.85629965)
(-107.9913805 19.33075114 -229.9945186)
(218.9839119 -79.18208324 290.9229325)
(-347.6017887 257.5943126 -153.2486318)
(-250.9190691 -304.4023649 -354.8450874)
(305.0461874 262.9885537 -217.6331182)
(374.3035332 -403.1071113 18.69006605)
(-4.663594599 962.8536011 -365.8180196)
(-148.0428207 163.3578633 120.4779705)
(109.76961 29.35316068 11.40468383)
(-72.66477614 563.7668484 10.77789876)
(-41.96519015 683.7770619 659.025591)
(-360.1889122 -286.4172207 244.7733268)
(-251.4452683 -134.098377 -140.9167987)
(-87.84549941 -30.23210363 5.239077798)
(8.334496002 222.2793996 507.8753332)
(664.2860808 10.48695346 -590.2193749)
(-6.664385263 -756.3112877 -320.8601084)
(22.73903389 416.4178894 -71.49473383)
(-385.3343693 -5.034787407 -181.5314287)
(-88.56341352 143.2907446 61.2433515)
(313.5946315 -339.306377 336.2272402)
(-249.7997171 -89.70447041 250.3792024)
(440.5547482 368.8197449 -213.4243161)
(27.79174371 514.3827735 -366.3796514)
(-246.1813909 415.8196859 258.4980701)
(271.1180882 -37.32234233 73.46270379)
(14.41319633 -29.18306331 418.6952783)
(-562.6159507 497.2729702 -248.0924107)
(34.82483412 170.409508 -10.02304188)
(293.0113283 590.8391745 -609.1594809)
(25.37647823 701.9788183 266.3071884)
(-160.128877 197.3891754 644.2307062)
(-114.8089085 -18.35175494 271.878683)
(-47.37839944 -458.5445156 435.0375987)
(-256.5991072 185.6257174 215.3784102)
(-340.846335 -337.9811017 467.133868)
(567.6970305 -326.8189992 -843.8620303)
(-481.0123104 -123.1682945 38.85267138)
(162.0893983 -549.9817022 228.6442718)
(-309.0452339 -78.84987837 25.92309265)
(19.45630063 -481.3164433 -213.0130208)
(-618.8122085 181.393985 -591.2603674)
(256.963566 -38.17257692 -190.1347862)
(-479.1937839 -2.953652686 539.8030292)
(1003.539347 573.3618293 -251.1125294)
(-153.9907961 197.6610357 63.11030192)
(6.395975646 40.21492104 553.5477495)
(-83.54796563 -708.3756949 -221.6513044)
(131.4227494 -198.1836388 -504.8245724)
(329.5461918 48.98794193 112.2150233)
(-43.01434802 -193.9489741 -51.67626295)
(-513.8323987 928.9148272 -386.5967181)
(383.2575523 -6.05445595 273.5555797)
(297.8243186 402.4742879 -57.71320925)
(-160.7931168 -176.5641967 250.22874)
(-718.2197976 492.0283902 -384.4939759)
(309.1487178 194.3905281 -173.9592629)
(-28.42293441 -302.3613865 464.3343561)
(-244.5923193 431.4358207 -183.4797454)
(202.3045715 -207.1817589 -109.6526813)
(-471.333559 -114.8638265 279.5075249)
(59.84936715 749.8525562 -723.097606)
(-520.1235745 -546.9386371 16.93341237)
(-293.2237301 -306.3706387 310.2347588)
(-224.3301649 125.6782208 379.1518531)
(-222.5473906 -251.1544238 -555.5680757)
(-102.733411 582.3963458 -686.5772518)
(-310.186505 -469.6793944 232.2249101)
(-82.05262234 248.796487 -388.1745954)
(-83.17095661 -578.8339622 -35.53810192)
(576.4253477 306.6276812 -70.02443694)
(-206.3875091 359.5792415 -403.6445469)
(430.8581227 147.5410637 -552.9848861)
(-55.81975708 279.3065624 170.4044305)
(257.1998359 482.0577407 120.626063)
(-149.6285331 -460.011982 414.0715004)
(-572.9637962 -181.6848354 8.419361587)
(63.6919848 -426.6150225 -855.4935516)
(567.4614159 -414.8797799 -547.2266152)
(-274.8887309 -194.1184132 508.6903087)
(-140.7178015 29.05883166 508.2538254)
(103.2574773 147.1628348 -236.2642156)
(331.0546118 -37.34714763 243.4084923)
(-133.3124294 58.02536384 245.0324651)
(-359.1860625 453.2110727 -284.0446512)
(-1031.106498 -443.2608454 -801.7582048)
(-123.0849563 52.97122265 9.886240676)
(-173.6532416 -17.99249157 -102.1376432)
(1167.666953 379.1839697 298.4367059)
(928.656365 353.3962091 -489.1728455)
(-407.3869884 -438.4318753 -600.0984655)
(-30.56338056 -392.8413931 -248.2886864)
(-319.9106179 81.65985858 -232.433211)
(-17.83028123 396.4462458 -767.5505701)
(235.8148111 346.3358325 -181.2386005)
(-95.42872549 -226.8787483 -81.04276336)
(-304.0224589 205.1615131 -624.1985709)
(241.5517489 117.3448782 421.7063892)
(-88.17484249 -316.0413263 -180.4497353)
(-37.41924947 -718.2913491 259.1809425)
(-513.2581003 -425.6007129 -412.7064001)
(-137.2124353 -74.00111694 216.4582332)
(-306.8997558 31.97717676 359.3292017)
(-224.9801154 149.1038711 656.20516)
(465.2041941 17.17602885 94.13141083)
(-187.6899457 357.6630125 146.3664663)
(-594.9977603 11.12540691 98.39483379)
(391.2607741 -109.1012082 488.6444935)
(272.6228627 186.0124559 -457.5730946)
(-275.6321356 419.5886894 160.0183401)
(31.59118819 403.275819 -171.0753178)
(-275.7784657 196.6810958 369.8978911)
(-500.6230315 -674.8993505 -526.1351934)
(-395.5869872 129.4752157 735.4514988)
(81.10403109 446.6831266 140.3835713)
(228.8826053 -474.2769407 -299.3976985)
(-68.70625085 564.5505403 -221.2389876)
(204.9683478 -437.4825574 404.4742061)
(615.5594404 -115.1491955 -282.7393219)
(441.0336054 195.7617434 -411.2792248)
(5.080770592 256.8336345 142.3689947)
(790.9495158 102.7896705 -231.5400952)
(118.1161329 637.6117109 -71.92578507)
(-633.7341905 -39.75578359 897.5530016)
(-179.407772 -220.3593862 -155.3983002)
(-325.5321849 455.0572063 -149.0513498)
(-64.77533071 125.0228178 623.3682526)
(573.6736267 180.6976444 -694.4210187)
(-170.5362422 -99.61288186 115.3268805)
(94.11459753 492.8969263 -458.7307017)
(330.0552909 614.3770393 69.53713614)
(-99.90945449 -428.3252326 -217.3263985)
(-214.5043845 -529.5874751 51.6253564)
(-284.2583235 -49.97976393 130.5301014)
(197.5852609 53.58305096 -444.6740429)
(149.8757741 -485.2281017 -562.2590909)
(-580.9323884 951.9065905 226.8890983)
(494.3120663 -426.813659 -236.9477523)
(341.7123534 693.8097591 344.3929933)
(-240.3485285 -324.8640742 -169.2152231)
(-205.9312498 278.2380087 -139.2236771)
(479.5216527 -696.9093586 -603.9734579)
(318.0413651 -60.01896062 70.6681408)
(676.6640262 -41.23416609 -293.2536115)
(384.1004247 574.3796211 -19.43047979)
(106.6862984 294.6046017 -209.3811986)
(-500.8326731 -572.2573468 -527.2344472)
(333.1941635 329.4068234 36.68878228)
(229.6995548 -48.65948234 456.5145116)
(229.7126788 -18.9280299 -76.72085545)
(192.2025375 -259.8859091 219.6053946)
(692.6414196 -328.4809471 -406.5352012)
(-73.7988022 246.1901636 85.90286409)
(-62.53840163 -441.8501804 -122.660294)
(-220.6803965 213.2043593 -299.5477261)
(237.3529589 -130.8584302 88.69144094)
(71.56380259 -9.86558906 -47.16511732)
(-268.7493088 15.02405924 -56.60661781)
(-9.512651903 404.8364539 -83.84622397)
(516.5761233 -703.0670611 -136.4871035)
(910.8163178 92.44036899 476.7403321)
(246.8133699 -193.4664474 122.5052733)
(-77.57312218 100.7703472 -631.4470626)
(286.6931201 -735.3336324 309.1597717)
(203.216313 -250.8986019 -24.77506833)
(-43.50539508 905.7283266 316.0738513)
(-535.4866799 371.1646044 -510.9431749)
(-201.8733649 184.2293268 -823.4646078)
(183.0260743 -419.6371922 -433.4480167)
(-23.4647857 63.79402768 -303.5907115)
(140.4960472 567.2504693 -60.9506699)
(402.3072426 309.7533238 -105.8773783)
(261.9318441 59.95597287 -295.4576162)
(-53.40695343 -65.59930025 -187.9995488)
(23.39834586 -98.56511037 -907.385417)
(142.3038439 -22.83210553 294.2978802)
(-55.80534228 7.843623049 -138.9654653)
(-396.4620289 -652.6408662 -46.18532295)
(345.6322672 461.7263441 -162.3595426)
(-159.133138 -188.4482036 210.6966257)
(-53.08727914 -289.8902363 457.892783)
(-312.9132361 -229.1336564 -294.6103769)
(-40.63000693 -45.23311069 -200.5854913)
(-443.1227348 62.50340286 252.5645681)
(-244.253754 -471.3898348 140.2227371)
(131.6910163 294.1912977 -190.2395988)
(331.5881027 312.2465079 -182.5916305)
(195.6745938 -39.23656471 -687.9628687)
(235.4534019 -756.3436433 -56.70797526)
(648.197707 424.9781499 429.4403807)
(519.6048292 -20.29956025 -324.8694358)
(286.3347914 133.5833549 665.6896673)
(-147.3787721 158.1387951 -554.8344511)
(-135.5537523 245.3117349 -458.6804887)
(198.1304615 874.4779607 687.9310311)
(-336.4111121 783.2787515 572.5339469)
(422.194724 157.8289014 158.8166684)
(-174.38483 -331.3055423 554.3702786)
(-376.2219861 151.6553805 688.0474973)
(-516.7359935 -567.9543978 259.868699)
(563.5236327 27.873735 -181.946505)
(224.019064 -34.30035943 -251.8617156)
(-105.9051114 -328.4989865 363.7731801)
(-133.644687 124.4159335 209.9027396)
(291.6811832 -450.0140219 231.2816304)
(-10.97533863 -554.3292467 -104.4233165)
(118.9684024 -257.3266187 -39.57405347)
(-159.2421525 -2.624455069 238.8130831)
(-0.1416249024 -226.6765238 2.241159329)
(699.6162208 278.6342904 -696.7378649)
(-30.94299966 -30.73125604 -117.8441729)
(-77.24964777 -286.8298771 -408.681505)
(400.4820565 430.906362 116.7127053)
(146.157096 2.299389205 76.51276437)
(-1.912627242 -233.0513521 -444.1941593)
(-850.9680772 -65.504643 208.603009)
(-40.91291756 -47.26832056 144.9224523)
(782.1115343 153.8838821 42.00920152)
(-317.4320813 -203.0901065 -499.0572041)
(-56.91051073 495.2588341 -397.9054798)
(-56.8630432 187.9074106 166.5728371)
(36.58125266 -37.28840037 739.638775)
(-241.1992472 154.5783413 132.2168158)
(15.88277506 920.2213099 -609.2540184)
(-462.9966129 748.4345819 -77.22628173)
(157.254349 -803.0963609 -394.7465284)
(-406.5674879 -522.8270689 -170.8757826)
(-476.5487884 -218.2471343 -121.4943584)
(-132.2144511 -59.95295917 -250.155483)
(226.5503293 43.64998933 155.0378123)
(110.1812603 339.0266179 -154.910039)
(198.9224318 -479.7718063 207.6374543)
(-15.29393124 395.6122497 -462.2796155)
(353.0629048 -409.9728404 -656.8569629)
(-38.85402515 390.3606216 -507.2138788)
(-565.4251321 657.3490812 -155.7303541)
(-78.49725949 181.842478 -428.1469888)
(-586.19564 119.5246359 10.25531532)
(-246.7618282 -321.4099049 850.5882244)
(220.1183233 -12.9949214 -225.2938989)
(227.3269847 418.3138172 167.4040017)
(-673.115832 -290.051488 -6.250618547)
(210.5453679 199.4869523 -210.640849)
(-318.1797404 -246.5617082 44.79039035)
(193.7502798 179.8339345 -26.30294693)
(-351.4171713 -419.6063549 -111.1639775)
(504.8876709 115.6999783 -88.57211015)
(296.9952551 233.847364 76.90682492)
(-57.61675199 217.1186646 78.99510814)
(588.0672854 189.905007 392.6444064)
(-240.978255 98.85323303 -356.5990694)
(-312.2872591 176.9846644 -590.4929417)
(-95.95527822 274.2972444 -220.7056741)
(338.1233157 -276.7691769 31.76121066)
(767.7223069 615.2172888 201.2895259)
(501.318517 -44.51540159 565.0290105)
(-114.7717935 14.37243221 604.1000281)
(194.3100743 36.03437671 679.4439116)
(-42.27974137 -324.1422921 -224.7826963)
(53.17421364 171.8876821 54.71829881)
(4.067102397 145.7686921 -342.3339034)
(-210.5199357 -442.569286 253.3717322)
(-155.6139306 -370.6876113 -360.8101351)
(5.640456849 -206.1656464 -280.218936)
(-146.5588645 730.8709543 -285.7402395)
(-93.19491995 -65.8053491 -206.1273138)
(-897.0596792 152.5720483 67.20798302)
(-109.7616566 177.8918071 -120.3935754)
(-347.5474708 137.4084904 -598.8428183)
(-11.3667798 -143.2159664 -359.475945)
(237.6436872 245.1386107 -301.3976754)
(164.6244424 287.0844406 590.0319047)
(-418.6670316 -366.0379433 -211.4500759)
(246.050139 287.029209 318.4375367)
(244.7281007 99.31071728 9.872597833)
(-45.79173669 5.193803615 75.60707197)
(388.9234583 113.7958425 157.0300508)
(-63.16065549 602.7767246 -190.6877812)
(-50.83373018 -424.8661497 94.69278076)
(305.6858256 -496.0987298 -271.8205932)
(97.07483802 160.9455647 27.22813453)
(-542.3774281 480.1053258 -335.0841246)
(-151.3202941 98.94862955 -66.11261441)
(247.2125353 673.2229037 -91.64675251)
(41.18755161 215.2965556 0.2715478363)
(-312.9925962 -249.8132017 195.3144439)
(-360.4051637 -195.0652551 30.17296287)
(-271.2256065 -235.8248501 115.4652019)
(176.2559601 470.4867631 462.2089524)
(-170.1673002 83.87915575 70.71741683)
(-47.69841213 205.6178597 282.9454507)
(-147.8079641 151.2207185 -103.0746832)
(101.7528576 -104.951161 -143.7332901)
(-976.3800466 -648.4943364 -643.7734465)
(-93.30190793 94.96583368 -218.9324878)
(634.7386576 -329.7322939 -225.5724791)
(-672.4375594 347.7336079 -299.5975829)
(124.2006399 -245.0386514 -252.8658518)
(687.4441065 718.9536708 -254.3302512)
(56.32298978 108.432871 141.3844024)
(-124.5098756 -651.3833123 -19.7373921)
(-169.1713079 -602.6609821 323.1879029)
(0.4112943091 419.5392686 -97.71614571)
(147.8548729 245.5731033 1202.792322)
(400.0260328 -418.4908069 173.8002399)
(370.8719301 -120.1494802 -277.5089461)
(236.6334625 -353.837464 313.9413014)
(-5.826719184 61.05691529 731.7687442)
(137.5077378 -342.4721105 85.02994028)
(-454.0633032 173.1999174 79.1049038)
(-11.63325057 232.6692303 108.9981109)
(-617.2215486 -160.1078108 -175.3474374)
(441.1307616 -295.6103914 506.1247027)
(-590.005218 -73.03457213 152.9173552)
(-34.03091656 -152.4059567 210.5031493)
(213.5935441 317.661314 570.0457418)
(-194.9570447 119.7081986 5.487269732)
(99.14706629 -163.1731307 85.18472002)
(-572.0190752 -419.8702163 -515.4725815)
(-176.7749486 167.4093144 -208.6828034)
(108.7269562 1059.097672 -186.6353525)
(-126.6823702 56.68892114 -174.5558799)
(125.2630747 -330.6713579 -381.8941257)
(-162.0996721 545.9920951 -94.72464969)
(31.06121896 -258.625758 547.6918123)
(196.7211257 -382.8259158 142.542851)
(-16.9388789 -91.07911063 126.2477261)
(32.76186989 -179.0514331 272.395434)
(794.8215359 104.3802633 -433.0071123)
(414.0104052 277.4982344 -147.4985246)
(136.665315 266.6466965 -83.02193492)
(194.2165543 -215.8511758 -100.6800644)
(-167.5207973 599.806011 -64.99746602)
(282.5579859 304.254448 15.19727768)
(-432.1164366 541.5934251 -413.3618166)
(147.7002739 -43.02703811 -617.3770049)
(-305.1684387 142.1858406 311.9199488)
(-168.9952851 -386.2504874 503.4742619)
(-523.1251429 114.5429631 -215.6426326)
(-419.505113 -37.61120402 -26.11448035)
(-426.9852774 39.52056191 188.5400148)
(-28.26095909 -55.89283756 97.37718378)
(11.25510658 277.0348797 -542.7293901)
(537.5280707 183.7669672 -581.2229728)
(-408.1018523 63.09760156 403.9422328)
(269.6757226 -204.4814089 -442.4149224)
(-279.9833568 227.3984721 -531.9667316)
(-544.5158744 69.66962322 18.54148821)
(303.0926042 450.5102728 0.9014976939)
(463.4721508 -81.63565925 -202.651863)
(401.8076334 -624.813015 0.2480218778)