/*--------------------------------*- C++ -*----------------------------------*\
  =========                 |
  \\      /  F ield         | OpenFOAM: The Open Source CFD Toolbox
   \\    /   O peration     | Website:  https://openfoam.org
    \\  /    A nd           | Version:  7
     \\/     M anipulation  |
\*---------------------------------------------------------------------------*/
FoamFile
{
    version     2.0;
    format      ascii;
    class       volScalarField;
    location    "0.004";
    object      internalEMean;
}
// * * * * * * * * * * * * * * * * * * * * * * * * * * * * * * * * * * * * * //

dimensions      [1 -1 -2 0 0 0 0];

internalField   nonuniform List<scalar> 
2400
(
0.3111409427
0.4005592181
0.4053830512
0.4012280856
0.4028392987
0.4046588823
0.4080082466
0.4083936228
0.4045105256
0.4022647522
0.4069520583
0.4073581639
0.4071590555
0.3997218
0.4068197929
0.4077914316
0.4104654343
0.43428399
0.500123851
0.7781978056
0.3220534029
0.4132239163
0.4131444844
0.4110994239
0.4117285273
0.4104750864
0.4106490795
0.4110120614
0.4168636128
0.4189665952
0.4186601419
0.4114977462
0.4127197799
0.4189415254
0.4131086152
0.4222376581
0.4274847124
0.4587061142
0.5408534905
0.7256562232
0.3206693808
0.410921427
0.4134042411
0.4146922538
0.4191607401
0.4166639409
0.4112095297
0.4109686202
0.4051500267
0.4100333827
0.4133763965
0.4105802612
0.4180207116
0.4177678282
0.4250309278
0.4321132635
0.4357195189
0.4664257005
0.5255225194
0.6530418557
0.327855943
0.416999453
0.4194804176
0.420159272
0.4145599245
0.413717
0.4162912013
0.4189941668
0.4203266516
0.4211335807
0.4222576899
0.4213711146
0.4161425279
0.4210009306
0.4201556867
0.4227230743
0.4287200597
0.4493480573
0.4842969172
0.5601680741
0.31871172
0.4111733129
0.4136366177
0.4178963002
0.4217055269
0.4241537598
0.4212141668
0.4204222718
0.4195947739
0.4192730281
0.4131234956
0.4128281741
0.4153019333
0.4211042508
0.4144714803
0.4154055624
0.4273495814
0.441847024
0.4712954203
0.5377871748
0.3276291304
0.4211971467
0.425127294
0.4194489082
0.4125141298
0.4088710005
0.4056016233
0.4029020298
0.4042030491
0.4003631471
0.4031946631
0.4048045135
0.4072891958
0.407838733
0.4114753846
0.4239433707
0.4271878535
0.4344111766
0.4558309172
0.4915053302
0.3186318084
0.4076745656
0.4136713724
0.410004527
0.4148059628
0.4119075796
0.4180192047
0.4235791654
0.4160572141
0.4151132175
0.4119776679
0.4117860268
0.4154277718
0.4146486612
0.4119699529
0.4097024213
0.4175279868
0.4247126803
0.431608884
0.4565848814
0.314902794
0.4065616625
0.4075894656
0.3992637161
0.4069832488
0.4082945588
0.4091267594
0.4043112463
0.4086360895
0.411568652
0.4121264653
0.4160141213
0.4162662714
0.4115441685
0.409695959
0.4187931483
0.4214340885
0.4244752517
0.4362522573
0.4507682119
0.3215259943
0.4139373496
0.4139365243
0.4146686061
0.4075102571
0.4082587935
0.4070294381
0.4086417991
0.4128361663
0.4179455272
0.417810465
0.4161801954
0.4130769828
0.4168240518
0.4232106929
0.4173598019
0.4127730979
0.4231051956
0.429426812
0.4377360117
0.3222750562
0.4148353293
0.4201442841
0.4223691607
0.4244774477
0.4234348851
0.4214407985
0.4212350305
0.4170231547
0.4129185543
0.4157921773
0.4227170583
0.4230978888
0.4215454933
0.4182384097
0.427651837
0.4241405266
0.4226330402
0.4297100481
0.4332342519
0.3205056942
0.4076695765
0.4058806631
0.4109425442
0.4088776578
0.4132905757
0.4106159638
0.4161810646
0.4149004251
0.4152484504
0.4151817625
0.4159754119
0.4160982962
0.4239091175
0.4285407668
0.4164821539
0.4231119879
0.4302680336
0.4328809929
0.4348714827
0.3235518303
0.4182282191
0.4219297548
0.420932924
0.4230508189
0.4240130269
0.4231871797
0.4195782948
0.4173220081
0.4174956431
0.4144771148
0.4146774418
0.416026317
0.4156465615
0.4180400495
0.4226091893
0.4177509094
0.4143488723
0.4236619966
0.4244016543
0.3202580433
0.4159676829
0.4161565487
0.4136075231
0.4110409681
0.4121710902
0.4172935317
0.4210075776
0.4289514362
0.4271162704
0.4268103015
0.4220570971
0.4265417328
0.4213012391
0.4199667744
0.4155748995
0.4149701363
0.4159230159
0.4236483443
0.4412275482
0.322489127
0.4077989472
0.413468387
0.4168397715
0.419533438
0.422069665
0.4217650149
0.4186243725
0.4183258044
0.4188681094
0.4136790163
0.4181321947
0.4192150323
0.415432751
0.4155752998
0.415701262
0.4177794472
0.4180186268
0.4178337266
0.4169120639
0.3228688142
0.4214042839
0.4162813962
0.4138914502
0.4104522372
0.40734296
0.4053988404
0.402658221
0.4020399633
0.3963694286
0.4023869277
0.4073836564
0.4013725178
0.3990416764
0.4057933456
0.410011005
0.4150001439
0.4132728022
0.4162734058
0.416114575
0.3248098486
0.4143975316
0.4181760141
0.4169155467
0.4145633394
0.4158219047
0.4177915094
0.4170775483
0.4196544947
0.4191438082
0.4176507421
0.4132213575
0.4174937216
0.4238896727
0.4190227328
0.4186518873
0.4152045237
0.4150972495
0.4215924124
0.4228042169
0.3150885778
0.4082215073
0.4089597572
0.4090856324
0.4091469151
0.4069148409
0.4130252581
0.4094664471
0.4113525802
0.4139181304
0.408990296
0.4101621388
0.4058895133
0.4093801028
0.4066672554
0.408741045
0.4150540342
0.4114587232
0.4107060098
0.4127618441
0.3250433936
0.4042085933
0.408042583
0.4086196532
0.4058817357
0.4054691919
0.4037758889
0.4039474539
0.3984074983
0.4046601751
0.4090531365
0.4168615298
0.4176298885
0.4167523699
0.4152709927
0.4233260436
0.4173372145
0.4288709782
0.4268994193
0.4270319618
0.3202252591
0.4168037109
0.4208124095
0.418530748
0.4167071634
0.4164845774
0.4112308792
0.4158038896
0.4175159972
0.4182737931
0.4142348618
0.4106656035
0.4089733271
0.4071588341
0.41241452
0.4179872882
0.4188800309
0.4120404734
0.4199008573
0.4148007765
0.322035205
0.4211605636
0.4164610269
0.4206407164
0.4177063403
0.4141096654
0.4196680652
0.4265443323
0.4246247114
0.4265517033
0.4257327988
0.4218356338
0.424193702
0.4183313167
0.4179571474
0.414205875
0.4161723209
0.4177183227
0.4170617411
0.4198083126
0.3237684903
0.4122481897
0.4134211962
0.4130742756
0.4140980955
0.4129443696
0.4068569023
0.4036910684
0.4021759462
0.4012648247
0.4040396463
0.4085145254
0.4086922237
0.4157639262
0.4181262976
0.4122745116
0.4144625739
0.4139841341
0.4131436716
0.4117214079
0.3207420353
0.4126741686
0.4152164499
0.4140847075
0.4088590261
0.413591094
0.4187082648
0.4157288481
0.4129960913
0.4146684915
0.4186341687
0.4171211254
0.4237689415
0.4213503737
0.4245420398
0.426796255
0.435203926
0.430454457
0.4235126049
0.4213715628
0.3235776494
0.4141304308
0.4138085557
0.4144331815
0.4175608502
0.4159666559
0.4129426338
0.4153040584
0.4228723824
0.4213343269
0.4243004424
0.4279423848
0.4195558276
0.4166687602
0.4170973047
0.4138357153
0.4083387181
0.4129421675
0.4191408207
0.4185651546
0.3229228083
0.4145973135
0.4172914873
0.4181574423
0.4189547559
0.4205697296
0.4211961274
0.4205409368
0.4174394506
0.4134541806
0.4154520582
0.4090599074
0.4060878053
0.4112903525
0.4095233189
0.4102050468
0.4122660643
0.4165114733
0.4132366701
0.4133097398
0.3181793405
0.4100930602
0.4123718628
0.4116799869
0.409204776
0.4079053101
0.4033749493
0.4032812312
0.4017352627
0.4058662633
0.4052925419
0.4127211665
0.4152379724
0.4130187914
0.4142286651
0.4145521944
0.4155758477
0.4133303787
0.4175976621
0.4189828385
0.318783594
0.4067756035
0.4087475164
0.4086502853
0.4062649926
0.4151308718
0.4161607712
0.4135330762
0.4145674277
0.4121412968
0.4138559371
0.4115936455
0.4096113894
0.407441716
0.4083816087
0.4050657771
0.401935079
0.4084638122
0.4127099044
0.4147166646
0.3284684775
0.4224483054
0.4244192717
0.4237870534
0.4194841876
0.4144813073
0.4093297925
0.4043596962
0.4038630833
0.4035206944
0.4025688822
0.4018093047
0.4046071191
0.4077856381
0.4115245745
0.4179139549
0.4232365894
0.4192998422
0.4094675825
0.40728447
0.3235861016
0.4195039023
0.4245639748
0.4192340082
0.4197161756
0.4208231573
0.423189872
0.4245406677
0.4257100576
0.4285156708
0.422028141
0.4192300658
0.4207963445
0.4272094793
0.4249534012
0.4177688863
0.4165828231
0.4149104414
0.4163976174
0.420693026
0.3207836175
0.4143870481
0.4175900526
0.4189783465
0.4214104795
0.4205420634
0.4236358332
0.4274915253
0.4247407064
0.4221418416
0.4262942805
0.4324586436
0.4263823629
0.419808245
0.4187687335
0.4141955801
0.4202437254
0.4223822192
0.4214322756
0.4184285566
0.3214742609
0.4126368545
0.4189729037
0.4200945595
0.4186099026
0.417127887
0.4163554336
0.4172715942
0.4195823231
0.4241884302
0.4213800001
0.4173111821
0.4173634344
0.4140123832
0.4149258076
0.4174850844
0.414794247
0.4100121057
0.4075465237
0.4068013589
0.3211796453
0.4088807116
0.4120829118
0.4094318997
0.4135247705
0.4077537599
0.407644354
0.4083631865
0.4060998268
0.4029246315
0.4030936341
0.403415459
0.405133478
0.4115387488
0.4104772488
0.4123990166
0.4137933726
0.4185358898
0.4195774459
0.4196598087
0.3173534818
0.4082330199
0.4118198207
0.4045595894
0.4050581135
0.4152828989
0.4197873779
0.4119801583
0.4117698841
0.4158985386
0.4211181099
0.4164369154
0.4168491943
0.4187789867
0.4257193382
0.4218899427
0.4229842872
0.4238269069
0.4227487101
0.4202193527
0.324266745
0.4177614126
0.4248039492
0.4227090787
0.4227587748
0.4195333877
0.4190740586
0.4259424606
0.4192982963
0.4205059911
0.4200136119
0.4171896479
0.4125302008
0.4115888467
0.4115808979
0.4115116869
0.4114665365
0.4125002047
0.4093487816
0.4141912283
0.3237408376
0.409924834
0.4150474916
0.4146749045
0.4127400694
0.4155285443
0.4140604975
0.4112217431
0.4111439041
0.4122200224
0.4132539671
0.4081836229
0.4093408849
0.4138645822
0.4115565836
0.4104036786
0.4098621443
0.4085092321
0.4104013457
0.4042473605
0.3215446275
0.4098551907
0.409581037
0.4078631346
0.4050154438
0.4039165756
0.4118880836
0.4151827652
0.4185331887
0.4206562634
0.4185708122
0.418875167
0.4150685384
0.408160676
0.4102824584
0.4119952467
0.4157795243
0.4149415406
0.4127201653
0.4179885227
0.3259025906
0.4216556218
0.425542165
0.4202215
0.4232887723
0.4220619727
0.4172152311
0.4101807603
0.4077187395
0.4041132641
0.4112690181
0.4104544811
0.4233353439
0.4251323635
0.4209161837
0.4172206544
0.4141102211
0.4124171236
0.4113123678
0.408812623
0.3219566754
0.4135720222
0.414448162
0.4145515355
0.4137015853
0.4093389526
0.4098674786
0.4137109617
0.4175906103
0.4203836025
0.4221290558
0.4214189553
0.4144217804
0.4138191087
0.4119965571
0.4142847639
0.4164529906
0.4179581177
0.419666018
0.4174392747
0.3174962372
0.4075081533
0.4065032013
0.4173011854
0.4159185718
0.4176363756
0.4186065373
0.4150176998
0.4141449661
0.4077136186
0.4050121881
0.4060553241
0.4090591597
0.410132253
0.4123772053
0.4107571039
0.4108110332
0.4097527249
0.4090336123
0.405461274
0.3228048782
0.4145252177
0.4146527647
0.4111080977
0.4094604533
0.4087822016
0.4072447851
0.4124664848
0.4106150982
0.4173503151
0.4140540925
0.4114676885
0.414021547
0.4126674376
0.4130091746
0.4079619142
0.4110268985
0.4141001865
0.4217667508
0.4200797681
0.3099383669
0.4040664387
0.4086982353
0.4064471816
0.4109098238
0.4099128598
0.4086990204
0.4111501739
0.4095086706
0.4085324251
0.4149009545
0.4162171973
0.4216196752
0.4129101812
0.4122579364
0.4144929397
0.4097760027
0.4059290019
0.4004555316
0.3981684813
1.850567091
2.378174921
2.690845502
2.758837969
2.793534382
2.882208779
2.870836707
3.011926901
3.066154826
3.044808374
2.969276131
2.937856323
2.970551699
2.904740085
2.940471904
2.927214374
2.947665306
2.903312959
2.821921014
2.779216487
2.690583484
2.735115065
2.778577091
2.706838754
2.783157164
2.752456046
2.730464075
2.733637761
2.68126068
2.663498813
2.65955714
2.621814281
2.606931999
2.621633367
2.537466629
2.447421725
2.377551267
2.256717091
2.051075197
1.734750867
1.147929438
1.562818193
1.849251518
2.152697038
2.327291424
2.517151107
2.638997597
2.756075519
2.875604331
2.893693509
2.829234547
2.864139327
2.90188907
2.906762331
2.912630102
2.880276884
2.911466147
2.940866842
2.881363372
2.853644488
2.845475911
2.817819245
2.849412863
2.811435525
2.821279725
2.717752758
2.714413013
2.682863064
2.697699921
2.737992621
2.670859888
2.62092662
2.63946733
2.602685799
2.499429585
2.397826485
2.341041517
2.202428129
2.013237742
1.757022304
0.8524439251
1.129091906
1.358430425
1.710090027
1.914896932
2.113303878
2.280256529
2.397365629
2.496603329
2.619796485
2.688997444
2.756291247
2.769585576
2.789497661
2.815589702
2.881248723
2.882227744
2.771597671
2.861736278
2.818046978
2.824800768
2.766801054
2.794627641
2.837822315
2.826393107
2.699331221
2.640610807
2.710107262
2.75226588
2.688212058
2.669755092
2.574796162
2.695176756
2.585093948
2.540552009
2.486876923
2.326802627
2.207524675
2.037053209
1.786386829
0.7070065996
0.8484683432
1.05209453
1.266049094
1.461103764
1.639575038
1.863419898
2.069998697
2.131358923
2.274426108
2.406207175
2.527418712
2.653759665
2.707573701
2.699412496
2.743804683
2.792861499
2.770755881
2.775731184
2.810151486
2.792686472
2.823940751
2.872997302
2.822304808
2.855448146
2.729797393
2.717239157
2.680201346
2.651086213
2.580306191
2.5780477
2.665865686
2.66188904
2.655891889
2.551091377
2.408785197
2.373883069
2.28012472
2.120543018
1.87728055
0.6341251483
0.7207452005
0.8344244183
0.9588972392
1.13820093
1.296609154
1.46918543
1.702627655
1.830373039
1.933500717
2.092967808
2.259604268
2.369669669
2.478029656
2.556762465
2.593534159
2.652536423
2.693989554
2.712472853
2.726099973
2.747629646
2.762929934
2.751768369
2.725891609
2.750944738
2.672431226
2.680110256
2.654137734
2.644803097
2.596042508
2.657267813
2.716429762
2.634211613
2.545684793
2.476825887
2.471117765
2.358301918
2.249428948
2.188734489
1.947868394
0.5388386153
0.5901097573
0.6839346571
0.7873240359
0.916572913
1.022990479
1.209344744
1.336602787
1.50610394
1.686569239
1.781461138
1.94265745
2.086461041
2.167659555
2.304366482
2.395445062
2.570091719
2.528232605
2.594642442
2.636683121
2.701320563
2.676390269
2.713838685
2.678826694
2.711570365
2.698001289
2.750271303
2.684798064
2.679648631
2.685823897
2.634160751
2.693511898
2.611493694
2.586758843
2.533509647
2.473376111
2.397922484
2.323843321
2.241213789
2.06536949
0.5092814539
0.5578340667
0.5980363813
0.6964211495
0.7577585689
0.8383898379
0.9702855979
1.103388756
1.250152936
1.383117596
1.539267265
1.688291363
1.792251007
1.931348021
2.090914946
2.198501554
2.302306547
2.401616185
2.486615796
2.525691845
2.549076556
2.49228436
2.572365733
2.622283231
2.666531616
2.687877724
2.666137172
2.695074416
2.657677032
2.620477684
2.697989676
2.669575521
2.618334389
2.563054628
2.532345532
2.51745175
2.466347357
2.434074066
2.245568248
2.093585829
0.4744340304
0.510830042
0.5385394145
0.5948125513
0.6544491903
0.7225110539
0.8144401127
0.9084570775
1.020689378
1.14700497
1.264123407
1.397265794
1.543616227
1.67151132
1.780605124
1.93227939
2.04635415
2.152455922
2.266275288
2.366965664
2.465451924
2.479010002
2.517615686
2.584124528
2.538868517
2.552739298
2.618820773
2.635205593
2.640352852
2.598154546
2.617752918
2.67445101
2.620170767
2.591346564
2.548102033
2.507095143
2.504791785
2.400842874
2.326595991
2.210208537
0.4532595243
0.4839789242
0.5116735758
0.5343165659
0.5893396941
0.6333313659
0.717126705
0.7780669679
0.8613670656
0.9040101964
1.037090988
1.130019506
1.281367473
1.404476856
1.54167336
1.684220145
1.803655971
1.939802376
2.067182623
2.178921451
2.279272854
2.36587756
2.440092469
2.468673101
2.461590618
2.535520962
2.542414119
2.606566638
2.617787458
2.63811163
2.606121546
2.660471665
2.594489303
2.542491918
2.585611265
2.501303402
2.428001418
2.430910672
2.352355218
2.232976579
0.4456471061
0.4583046053
0.4881411636
0.5201947299
0.5455042095
0.5699902103
0.6037614169
0.6670604689
0.7369267502
0.7898834743
0.8750142633
0.9812831318
1.095200039
1.183636669
1.290969608
1.420199781
1.579394306
1.740522686
1.828910232
1.897943709
1.999929171
2.107896702
2.186954258
2.241853515
2.3665979
2.394880742
2.492478198
2.519444848
2.530020948
2.553129206
2.491952671
2.480836074
2.558656153
2.593962986
2.536158435
2.539735726
2.475612541
2.394405292
2.361513672
2.294237518
0.4478245531
0.4546352159
0.4619312736
0.4766843642
0.487438381
0.5143074029
0.551033419
0.5950244995
0.649160165
0.7261106858
0.7823227885
0.8369237926
0.9515101757
1.041901788
1.108379893
1.223684791
1.349002938
1.460774514
1.578832504
1.677391947
1.766207655
1.949358587
2.068167792
2.185239548
2.244125823
2.326386866
2.351985608
2.308700432
2.380892102
2.435281493
2.510571131
2.552541867
2.565426596
2.506386968
2.513611611
2.519756883
2.438736454
2.387840112
2.323797225
2.31027201
0.4270758499
0.4252118652
0.4380887544
0.45204987
0.4758321498
0.4899829593
0.5150733431
0.5479404437
0.5594392441
0.5953272275
0.6592836862
0.7292223049
0.7848034402
0.8582647525
0.9656833344
1.047248206
1.139720128
1.253843531
1.368732442
1.513986101
1.624989205
1.726816806
1.85656992
1.957067624
2.084519701
2.165308818
2.228840609
2.26533727
2.269559448
2.387504785
2.458916634
2.431205654
2.473256701
2.504634913
2.457068015
2.490802179
2.469053363
2.390830324
2.339213715
2.290170257
0.4457524157
0.4362898889
0.4429671414
0.4524274128
0.464939792
0.4854717614
0.4974264815
0.5171650027
0.5524535977
0.5602258787
0.5967542637
0.6372384228
0.6990480547
0.7554068307
0.8053887622
0.8728222244
0.9657472445
1.04911196
1.169747694
1.260703711
1.384786529
1.521400268
1.624280919
1.756452873
1.860144115
2.00367977
2.109972742
2.199743056
2.263902518
2.271398634
2.310890961
2.408326973
2.419490268
2.395267324
2.365693035
2.420134679
2.438022668
2.493797935
2.452475947
2.35256493
0.4275538113
0.4278724915
0.4309930309
0.4369317624
0.4505705083
0.4579308207
0.4726121543
0.48668773
0.5100289306
0.5344075792
0.5400806927
0.5657146776
0.6058135648
0.6708227074
0.7102797451
0.7700524685
0.8268407269
0.9132281404
1.016906502
1.119442599
1.193665794
1.308002343
1.408634557
1.540392229
1.642232376
1.771847389
1.893828847
2.001849102
2.078180118
2.150496695
2.237727294
2.242238952
2.291772932
2.356619029
2.388190876
2.401348054
2.428511248
2.403794823
2.408254719
2.363242497
0.4222751761
0.4280833204
0.431757404
0.4338006091
0.4525246053
0.4534916679
0.4646455286
0.4725025211
0.4779171365
0.4984283077
0.5279602026
0.5459874587
0.564022059
0.5835112291
0.6367875695
0.6824895498
0.7304925161
0.7928797923
0.8452906966
0.9127577992
1.031098399
1.103449249
1.205617337
1.325851136
1.447437974
1.539477147
1.64092763
1.746864123
1.878786802
1.993595347
2.041041747
2.167105821
2.197736554
2.237214163
2.301291402
2.337120733
2.352070722
2.324709011
2.31807211
2.257450748
0.4238469723
0.4210775635
0.4236414271
0.4245768685
0.4327182922
0.4468365671
0.4501942633
0.4504852127
0.4645632164
0.4802908866
0.4987321436
0.507323464
0.5203365302
0.5408992336
0.5694535395
0.6073238691
0.6473031038
0.6892756462
0.7546310159
0.7824144993
0.8415141635
0.9509224601
1.051694608
1.149796528
1.243929801
1.355060375
1.468285276
1.559683054
1.670540878
1.774089939
1.88089506
1.950927853
2.097450121
2.196458557
2.212152128
2.211587739
2.267465221
2.286539509
2.294486307
2.346524229
0.4152862834
0.4220704945
0.4319852634
0.4289879899
0.4330686635
0.4332827408
0.4466848103
0.4586514564
0.4583386094
0.4635603543
0.4714705833
0.492885065
0.5100994388
0.5257370226
0.5432620345
0.5696254562
0.5983522447
0.6234106095
0.6785891303
0.7479722786
0.7933599507
0.8378948243
0.9285653253
1.001009036
1.104229155
1.196312933
1.279625206
1.387679776
1.502948232
1.58687687
1.732843714
1.833208608
1.901430346
2.033999744
2.130212316
2.199064926
2.230731773
2.25236752
2.277991726
2.278186955
0.4292240648
0.4239746435
0.426939541
0.4344974245
0.433235337
0.4338611336
0.4347618879
0.4358929854
0.446356398
0.4471092385
0.4546825219
0.4653867286
0.4738847506
0.4804096906
0.4974258874
0.5150917518
0.5560178134
0.5874204376
0.6175117557
0.6474264194
0.6861336754
0.7234664712
0.7735053286
0.8418230091
0.9306703343
1.009871956
1.122547105
1.223250491
1.347941743
1.456023114
1.522747415
1.614893262
1.766335518
1.846738392
1.983778222
2.052291277
2.130164117
2.189200552
2.201371037
2.221717372
0.4283722122
0.4282209114
0.4209961085
0.428770223
0.4262320334
0.4388343466
0.4373617502
0.44204756
0.4285688324
0.4319425254
0.429800266
0.443077041
0.4590142251
0.4755942938
0.4840012668
0.4987932635
0.5130147138
0.5290293337
0.5399071709
0.5710580565
0.6165128765
0.6677410076
0.7116387517
0.7673598917
0.8201562749
0.8866510742
0.9860462806
1.088847212
1.159433123
1.271471532
1.426663293
1.536328056
1.606846776
1.690843526
1.755463417
1.878251879
1.986985739
2.04319558
2.049123167
2.132088776
0.4246823361
0.4228984615
0.4277889724
0.4250611579
0.4190362454
0.4161000005
0.4199115375
0.4227846201
0.4246570314
0.4363689727
0.4414248487
0.4478448458
0.4477370739
0.4531446168
0.463806952
0.4670997697
0.4833624671
0.5090143195
0.5267439147
0.5527714204
0.5760457664
0.6073794509
0.6299330571
0.6599951205
0.7153494612
0.7763750624
0.8401227481
0.9199692282
0.9961689105
1.108937687
1.19722057
1.32146428
1.438857716
1.522771621
1.632609906
1.720776528
1.810200908
1.915233736
1.974476225
1.968654921
0.4105172351
0.4073847677
0.4141424012
0.415841826
0.4181414559
0.4206978678
0.4220415625
0.4225582276
0.4221745869
0.4218301522
0.4277296315
0.4310971863
0.4382710182
0.4420320998
0.4543307081
0.4673703777
0.4734902518
0.4826926144
0.4975243521
0.5063271627
0.5338420872
0.5683783116
0.5959174398
0.6334528793
0.666150219
0.7061389386
0.7578555058
0.8058753752
0.8711022997
0.9439931244
1.050972338
1.142710098
1.236042567
1.346514169
1.425949106
1.553713949
1.628237371
1.704581136
1.830860977
1.916820797
0.4239448447
0.4227138361
0.4222876461
0.4229133979
0.4238553109
0.4270531644
0.4244511521
0.4253268233
0.4296004719
0.4283637856
0.4331291918
0.4357559105
0.4389709444
0.4452384305
0.4501377566
0.4528365745
0.4633555568
0.4691338865
0.4825402634
0.4943509377
0.5086574643
0.5248078286
0.5460318951
0.577806423
0.609520004
0.642907986
0.6856226215
0.7308197766
0.7695111354
0.8390571144
0.9088395224
0.9742408076
1.069198115
1.173969319
1.280276616
1.373591468
1.467403589
1.553351905
1.677741531
1.780688676
0.4211354834
0.420649934
0.40785191
0.4093253784
0.40962919
0.4144683741
0.4172518166
0.4104264252
0.4115820694
0.4152794671
0.4199460932
0.4165654217
0.4160989579
0.4234847029
0.4321332412
0.439827465
0.4407215482
0.451856783
0.4516552787
0.4719521439
0.4796588907
0.491728433
0.5080895261
0.5244120941
0.5462315743
0.5824969794
0.61837091
0.6562766452
0.7060456265
0.7431357997
0.8191833032
0.8849415235
0.9269412295
1.014833788
1.119168248
1.213379339
1.309522351
1.412738531
1.485871899
1.588781547
0.4154190383
0.4215486672
0.4233354195
0.4245900362
0.4252777007
0.4167073866
0.4108939676
0.4155346864
0.4109346568
0.4056560765
0.4046703782
0.4047399612
0.4131840885
0.4192912826
0.411328163
0.4152622005
0.4303025455
0.4403039027
0.4530661433
0.4488979877
0.4616600986
0.4752762638
0.4922648235
0.5081219288
0.5277332222
0.5377534887
0.5631630985
0.5825124543
0.6195587452
0.6559481421
0.7018203042
0.7776600627
0.8461175217
0.8978316058
0.992027275
1.09616862
1.189818855
1.26394253
1.354942779
1.462733613
0.4171157971
0.4103241171
0.4078796911
0.4075874149
0.4078354446
0.4126911292
0.4119766577
0.4072204972
0.4103330512
0.4101117345
0.411980975
0.4164236194
0.4213179962
0.4218142872
0.4270270273
0.4315413021
0.4344611016
0.4419888087
0.4458846291
0.4484063042
0.4525709785
0.4567349012
0.4643144508
0.4763203732
0.4837136469
0.4964394463
0.5135649265
0.5378176952
0.5696271858
0.6070663054
0.6475776367
0.6920793562
0.7469323451
0.8071804536
0.8826660343
0.9467251764
1.05802956
1.162322912
1.251536992
1.308046254
0.4133968687
0.4117427613
0.415654141
0.4109068953
0.4041899433
0.3992617696
0.4067143799
0.4071293339
0.4108874974
0.4225545815
0.4302715066
0.4264980901
0.4187034292
0.4229990328
0.4329037398
0.4248584765
0.4276287844
0.4307646738
0.4354669912
0.4408208889
0.4418078009
0.4463767959
0.4524659943
0.4636417955
0.475552889
0.4825192497
0.4972863259
0.4998627799
0.5118140592
0.5443683721
0.5762580104
0.6103106307
0.6703748295
0.7154667519
0.7718398258
0.8475012839
0.9183176115
1.002326397
1.086956475
1.186484949
0.4054706604
0.4024715175
0.4070598324
0.4113993285
0.4172206471
0.4230091151
0.4235428024
0.4252037005
0.425058309
0.41794687
0.4244566901
0.4294063918
0.4269899367
0.4228941759
0.4284864476
0.435101267
0.4386368088
0.4363165265
0.4355226062
0.4444338832
0.4443656914
0.4526926637
0.4478726775
0.4516571168
0.4540031503
0.4665680985
0.4835859553
0.4972883003
0.5122751848
0.5247730341
0.5489954153
0.5653596725
0.5938139574
0.6334554259
0.6868977058
0.7308779049
0.7956889523
0.882100363
0.9875918961
1.074380527
0.4255360487
0.4241024601
0.427804247
0.4278697971
0.4263186374
0.4251960301
0.424680033
0.4235597206
0.4209033934
0.4171050554
0.4118806171
0.4109865159
0.4123563816
0.4146507038
0.4149495069
0.412169437
0.4092546613
0.4144004375
0.42630108
0.4230329422
0.4235702542
0.4324165432
0.4357119844
0.4415677723
0.45457311
0.4628142193
0.46272075
0.4694592718
0.4873542577
0.497880022
0.5128407646
0.5254776045
0.5571065641
0.5804641199
0.6209527408
0.6795433132
0.7305092949
0.7937195283
0.8577507006
0.9458778623
0.4175048015
0.4143438495
0.4119532823
0.4059398077
0.4090881951
0.401426692
0.408655253
0.4134924605
0.4153671128
0.4177245325
0.4251893442
0.4244124718
0.4240688739
0.4193442037
0.4178106623
0.4213379306
0.4286799109
0.4235296958
0.4272905074
0.4269555011
0.4201321734
0.4231261183
0.4273977292
0.4327868059
0.4359541414
0.4387571696
0.4482179068
0.4507215453
0.4638679249
0.4792997682
0.4952313693
0.5147518627
0.5355144581
0.5647150044
0.5807562217
0.6112489381
0.6479432324
0.6862929618
0.7466798732
0.8271931804
0.4050331642
0.4061919404
0.4117407793
0.4157602649
0.4216415026
0.4255623934
0.4221907631
0.4236287073
0.4232499451
0.416707706
0.4114602344
0.4084504224
0.4099064589
0.412097862
0.4078042677
0.4109951192
0.4199662508
0.4165352116
0.4080970643
0.4131271628
0.4199909209
0.4255016022
0.4173674053
0.4235881813
0.4268876267
0.4421197371
0.4497094651
0.4735400806
0.4765412176
0.489985436
0.4968788856
0.5076803929
0.5117751217
0.525181312
0.5453807753
0.5650582529
0.6045234693
0.6366321804
0.664277418
0.7189506575
0.4228368935
0.4254593083
0.4258921241
0.4242519149
0.4151078894
0.4156692552
0.4099803313
0.4102097482
0.4099522888
0.4158220899
0.4118312939
0.4129225703
0.414192065
0.4063060783
0.4069625874
0.4058008661
0.3990665462
0.3971599456
0.4037380699
0.405287965
0.4104403376
0.418053598
0.4294218542
0.4273204711
0.4334583469
0.4460635566
0.452381441
0.4490043799
0.4624901895
0.4630997961
0.4677779632
0.4821481274
0.4875122481
0.506234818
0.5198416799
0.5263058582
0.5508801032
0.5824392579
0.6134884477
0.6564257911
0.4180676437
0.4145695188
0.4211085506
0.4234890645
0.4199688209
0.4159288588
0.4152263292
0.4159724147
0.4100112889
0.4079074661
0.4093290964
0.4087989596
0.4097537525
0.41011706
0.4087433454
0.411085617
0.4133832626
0.4164894572
0.4179343531
0.4228393326
0.4233533361
0.4283092302
0.433990027
0.4381293985
0.4308094327
0.4320737085
0.4314582207
0.4393423105
0.4475109909
0.4502749023
0.453289271
0.4528951109
0.4713370638
0.4821221586
0.4944933092
0.5162258402
0.5245504009
0.5311671405
0.5724231551
0.5967956617
0.4161875396
0.4123636332
0.4096103004
0.4101029528
0.4059825749
0.4092169017
0.4072111466
0.4037291835
0.4038508483
0.4115446529
0.4123313393
0.4147247489
0.417485915
0.4217064635
0.4233422504
0.4178995244
0.4188414943
0.4177029665
0.4168359129
0.4110550999
0.4165726848
0.4219779498
0.4163415516
0.4177741699
0.4199038507
0.4239256774
0.4294512129
0.4289093506
0.4377800331
0.4367931978
0.450185111
0.4611343962
0.4543566783
0.4645319227
0.4717532063
0.4843273268
0.4978873833
0.5206939649
0.5358826669
0.5706131582
0.4001717711
0.4008281537
0.4006310811
0.4015222832
0.3994776927
0.4024785892
0.4009900643
0.408002454
0.4138903265
0.4123433504
0.4173052288
0.4161694343
0.4147112047
0.4167427464
0.419633328
0.4188180748
0.4170410318
0.4211734184
0.4202453505
0.4228440131
0.4250322066
0.4208941611
0.4244218628
0.4223080915
0.4284645489
0.4196481511
0.4203742215
0.429395434
0.4306247138
0.4287943665
0.4328493323
0.4352929381
0.4417556589
0.4503501719
0.4474949605
0.4594616651
0.4831507557
0.4968341677
0.513012868
0.5270102192
0.4158422266
0.415909066
0.414738791
0.4160130197
0.418736316
0.4224244437
0.4187491087
0.4149549594
0.4177114777
0.4190299717
0.4192328223
0.4205735327
0.4193382928
0.418178593
0.4165921399
0.4233297889
0.4300312482
0.4284629589
0.4360567075
0.4305246307
0.4301207261
0.4253332318
0.4232172112
0.4207802792
0.4270901758
0.4254397539
0.4145373362
0.4200183104
0.420844019
0.4247104917
0.4252598784
0.4315671947
0.4336155373
0.4462035507
0.454753922
0.4715016951
0.4739134338
0.4914440932
0.506594739
0.5181752146
0.4131543552
0.4162844134
0.4219619366
0.4236576546
0.4280576466
0.4226184463
0.4231051181
0.4251007414
0.4150347618
0.415329582
0.4164928438
0.4121157169
0.4141457484
0.4188635346
0.425481053
0.4201921432
0.419914921
0.4177408737
0.4130452162
0.4162928685
0.4227201713
0.4254262176
0.4250947277
0.4262478345
0.4245912404
0.4236655193
0.426382377
0.4255571462
0.429090222
0.4353541713
0.4323370307
0.4427888484
0.4487575609
0.4521577736
0.4549604969
0.4545008101
0.466266182
0.4693814803
0.4787363146
0.4919908343
0.4199126423
0.4187889317
0.4168097066
0.4127885841
0.4108498406
0.4160672842
0.4172554511
0.422723101
0.4249374921
0.4295325639
0.4242678324
0.428980981
0.422449995
0.4148177819
0.4156106587
0.4117315214
0.4036124391
0.405428429
0.4088886813
0.4112929952
0.4059342433
0.4085324847
0.4044021312
0.4046982861
0.4086960389
0.4109225903
0.4098842593
0.4116365312
0.4206333998
0.4205919679
0.4299140692
0.4369064
0.4386061714
0.4380913194
0.4384394086
0.4385639018
0.442659227
0.444061354
0.4604234214
0.4679520854
0.4056154553
0.409225596
0.4140646207
0.4142294952
0.4126643284
0.4035638449
0.4043580843
0.4043627874
0.4043305242
0.4064561703
0.4103126422
0.4071809697
0.4089085651
0.412758026
0.4105325633
0.4092069303
0.4158275097
0.4162294408
0.4128455431
0.4073115142
0.4071333227
0.4119475357
0.4232559452
0.4206798851
0.4244766222
0.4230193218
0.4214331864
0.4245266311
0.4261092101
0.4284837101
0.4254255982
0.4213701863
0.4193631693
0.4253662799
0.4272094431
0.4356706285