/*--------------------------------*- C++ -*----------------------------------*\
  =========                 |
  \\      /  F ield         | OpenFOAM: The Open Source CFD Toolbox
   \\    /   O peration     | Website:  https://openfoam.org
    \\  /    A nd           | Version:  7
     \\/     M anipulation  |
\*---------------------------------------------------------------------------*/
FoamFile
{
    version     2.0;
    format      ascii;
    class       volScalarField;
    location    "0.004";
    object      linearKEMean;
}
// * * * * * * * * * * * * * * * * * * * * * * * * * * * * * * * * * * * * * //

dimensions      [1 -1 -2 0 0 0 0];

internalField   nonuniform List<scalar> 
2400
(
0.5510451235
0.5429549617
0.590734679
0.5646511735
0.5786858152
0.5800317695
0.5756388678
0.5774560671
0.5837523216
0.5910527222
0.5952476311
0.6185954564
0.5965335564
0.606045006
0.6147316345
0.5971582552
0.6087159808
0.6360746071
0.6466977874
0.6437421425
0.5808254947
0.5740269178
0.5651029022
0.5774915999
0.5692262008
0.5848950386
0.609205257
0.6011697359
0.5949162251
0.6236744305
0.6367600392
0.6136402687
0.6564054958
0.6385268372
0.6714903821
0.6593645499
0.6614312916
0.6607850399
0.6815092322
0.6905013058
0.5559197474
0.5633474193
0.5814249808
0.585119989
0.602728179
0.6030514648
0.5957824629
0.602153743
0.5970339395
0.632877892
0.6365243657
0.6202637536
0.6361364658
0.6504572137
0.6581233908
0.6623194224
0.6503155934
0.6482173617
0.6522935429
0.6843815944
0.5585405166
0.5714608694
0.5822310468
0.5968333885
0.5642505249
0.5811603107
0.584239534
0.5910602624
0.608461821
0.6193352211
0.64146803
0.6403107679
0.6515824429
0.6739948738
0.6682446089
0.6933470708
0.6644156311
0.7297926851
0.7075735115
0.7146168877
0.5322408384
0.5476615971
0.5821874447
0.5788278862
0.5967368443
0.5740426894
0.587806817
0.6080098085
0.6156549026
0.606380873
0.6033976223
0.6348863343
0.6713688152
0.6810193293
0.677124433
0.6637802641
0.690305349
0.7311117518
0.7153575705
0.7045461195
0.5403560479
0.5365517089
0.5524534091
0.5694600199
0.5803905221
0.5613079869
0.5816449047
0.6014375335
0.6076955636
0.6203602688
0.640744009
0.6590407911
0.6402954841
0.6893759223
0.6376725122
0.6606086154
0.6566512859
0.6758232215
0.7062758161
0.6912357908
0.5684809023
0.5766953291
0.592377808
0.5905177726
0.5880578431
0.5925587638
0.5966286464
0.6074599483
0.6163349278
0.6362434868
0.6514774441
0.6370591001
0.6400366631
0.646105941
0.6559350156
0.6432226201
0.6695125621
0.6696209486
0.6854487196
0.7033204771
0.5666371638
0.5742496638
0.5861741432
0.5698920751
0.5681277108
0.607235004
0.5905870201
0.6244540762
0.639621639
0.6474414425
0.64590136
0.6632063945
0.675214487
0.6548840449
0.6882692909
0.6576575755
0.6915920239
0.705238052
0.6995898505
0.7091639861
0.5559629557
0.5854747359
0.596312498
0.5651593305
0.5758783343
0.6098505544
0.5979176929
0.5996789596
0.6073667147
0.6454628178
0.6322806689
0.6532237855
0.6457944139
0.6586737898
0.6731478218
0.6843347725
0.6847435187
0.6928886958
0.6892873083
0.7091616117
0.5668173061
0.5796010644
0.5515469889
0.5703728031
0.5762053711
0.6023259631
0.6051259118
0.6189437633
0.6332150217
0.6312125407
0.6507028096
0.6507246366
0.6502024633
0.672821813
0.6795584761
0.6815540979
0.6669142716
0.6790667011
0.6883159609
0.6904028375
0.5667663915
0.5765601296
0.5669246884
0.5845987133
0.5859980386
0.6042750521
0.5782567
0.6171607594
0.6036285512
0.6063449507
0.6140882993
0.6371463422
0.6642307506
0.6564629786
0.6647774702
0.6682236225
0.667555381
0.6868604716
0.6974014758
0.6986190961
0.5501450463
0.5551022058
0.5614813929
0.578159559
0.5765963302
0.5850471052
0.6262069887
0.6106692579
0.6226715136
0.6259616035
0.6188064124
0.6420660476
0.66300182
0.6579519193
0.6476788221
0.6897780072
0.6523227506
0.6764591609
0.6846997765
0.711714797
0.5174373046
0.5619191593
0.5741852597
0.5593959272
0.565139262
0.606672251
0.6276429106
0.6109171784
0.6301278828
0.6325903957
0.6440554782
0.6365435875
0.6500631966
0.6766258959
0.691317426
0.7024234092
0.703306055
0.6881374868
0.7163192365
0.7358359645
0.5184627537
0.5552180882
0.5435130967
0.5763938051
0.5827261269
0.6061811303
0.5994476684
0.6336002556
0.6174271654
0.6333666475
0.6424591894
0.661008839
0.6417980159
0.6483665013
0.6945419365
0.6970875066
0.7053347017
0.6714459301
0.6904410025
0.7220657858
0.5362942912
0.5752922469
0.5874639683
0.5692176697
0.5844000003
0.5957788417
0.6004690708
0.6068266879
0.6016627441
0.6171569008
0.6380578101
0.6385818689
0.6382666672
0.6105763632
0.6275701875
0.6588789986
0.6823049069
0.6804077063
0.7119430041
0.7098409147
0.5461146225
0.5604046822
0.5735023969
0.5872393779
0.5886843846
0.5822918081
0.5878798864
0.6223255757
0.6057597124
0.6211245435
0.6115633783
0.6494548285
0.6469113515
0.6503281622
0.6557806704
0.6600620254
0.6706331473
0.6851377193
0.7139926992
0.7316135092
0.5461978334
0.5509307155
0.5774917817
0.5811791903
0.5689529177
0.573768976
0.5919277604
0.6152335398
0.620501124
0.6205830949
0.6347426954
0.6735120819
0.6512857016
0.6822925623
0.6277563785
0.6599604909
0.6970531086
0.7186697908
0.7174877049
0.7311337088
0.5256603583
0.5628282236
0.5701588156
0.5922192182
0.5974929193
0.5842672649
0.5753969012
0.6184691764
0.6120358109
0.6304891179
0.6251119271
0.6685532796
0.6451508106
0.6664674743
0.667856379
0.6728522257
0.6957892343
0.6936368738
0.6990586952
0.7074583254
0.5300528092
0.5696953758
0.5543550795
0.5781657443
0.5583231726
0.5807461146
0.5986706972
0.626182953
0.6241817478
0.6430977456
0.6234662127
0.6193891279
0.6495539741
0.6686868609
0.6670928577
0.7014387253
0.6805071093
0.6841253564
0.7076947636
0.7353471106
0.519968694
0.5573289277
0.536655588
0.5646483442
0.5678138356
0.5875124536
0.5986390327
0.6145641644
0.6139281248
0.6172982956
0.6111372214
0.6325932464
0.6265863184
0.6442962397
0.6835005779
0.6790121737
0.6977869778
0.6867685916
0.6820690122
0.7120506957
0.5315131513
0.566680907
0.5677842414
0.5863795488
0.5948106923
0.5867016919
0.5966629893
0.6088209518
0.5998758675
0.5936164111
0.6173797928
0.6520580749
0.6782365446
0.661170701
0.712782034
0.7001309739
0.73079165
0.7187208248
0.7162354913
0.7202430224
0.5690902497
0.5714357661
0.5709957812
0.572070274
0.5724686327
0.590839495
0.588331198
0.6082761143
0.6211132291
0.6212873865
0.6498875645
0.6291518738
0.6720246766
0.6716408883
0.6926977277
0.6646698751
0.6831943027
0.6891110207
0.7116676734
0.7245160715
0.56310619
0.5635207561
0.5786422368
0.5782678944
0.5878242262
0.5691528262
0.5894871396
0.5984373024
0.6220932811
0.6126525481
0.6293468076
0.6279880555
0.6449643901
0.6704899873
0.6926849897
0.6932387174
0.675306119
0.6911422272
0.732034639
0.7332434031
0.549492786
0.5539779941
0.5836504776
0.588149228
0.5886973446
0.6001059713
0.5943312888
0.6126643643
0.6000807946
0.6084363384
0.6218135921
0.6442229624
0.657693558
0.6659006173
0.6756576306
0.6899271734
0.6986022705
0.7028833689
0.7115802249
0.7263552469
0.5470972193
0.577121946
0.5513121494
0.5468440493
0.5555704406
0.581919287
0.6223698299
0.5853001623
0.6209452186
0.6021541535
0.6063324914
0.6246416415
0.6359171421
0.6373834175
0.650488955
0.6604368915
0.6777888971
0.7035757766
0.7332599183
0.7106290071
0.5670322084
0.5527554891
0.5480176095
0.5329556723
0.5381210808
0.5651521698
0.6047613455
0.5913523709
0.5966278598
0.6224896436
0.6253980543
0.6181763493
0.645477504
0.6553548819
0.6614543864
0.7005063757
0.7066798329
0.7229756754
0.7206184504
0.7330195054
0.5523396759
0.5466972244
0.560909428
0.5776319979
0.5681390894
0.5867355193
0.6195006666
0.6446617397
0.6341996805
0.6131184698
0.6440528518
0.6122722686
0.6341502864
0.6767944242
0.676747587
0.6691876871
0.6731226515
0.7016587848
0.7209302542
0.733479906
0.5282918643
0.5667910699
0.5556976334
0.5793706477
0.5781324684
0.5966223012
0.6156293888
0.5944423907
0.61310254
0.6393153164
0.6259281464
0.6506704484
0.6509690471
0.657204855
0.6551220467
0.6724806215
0.684505542
0.7014713788
0.7006841301
0.7172239721
0.5349379916
0.5527976706
0.5481039868
0.5692076779
0.577117656
0.6200948926
0.6251096218
0.6151960305
0.6166074043
0.6223107248
0.6071450832
0.6538475415
0.648033135
0.6588704565
0.6742248683
0.7011645659
0.6926655987
0.7052870158
0.7128465806
0.7387454595
0.5482661469
0.5628540391
0.5551942868
0.5714150811
0.5759736614
0.5959799258
0.5998958322
0.6153928418
0.6063685496
0.626103891
0.653419785
0.6430592527
0.6549804189
0.6690959378
0.6883085913
0.7231646666
0.7112134092
0.7000213314
0.6951351856
0.699647001
0.5401732145
0.5377509692
0.5772794193
0.5572708145
0.5739137302
0.5918656639
0.5888596506
0.6016552695
0.5990101743
0.6209333104
0.6521338244
0.6577324653
0.6766326147
0.669652287
0.6821146623
0.6955444222
0.6830456753
0.6761507908
0.6943622874
0.7221123436
0.5485665729
0.5742902112
0.6155960906
0.5781363264
0.6031382524
0.6250326445
0.6213667662
0.6213377087
0.5957933146
0.6250874499
0.6348960481
0.6316335912
0.6519527466
0.6927178376
0.6873788081
0.6728726377
0.663069851
0.6833676691
0.6728066126
0.6830916868
0.558951302
0.569235164
0.5694455756
0.5918711509
0.6024209837
0.5921494688
0.5884103552
0.5906771779
0.5993826061
0.623279912
0.6105482815
0.6441150877
0.6622775396
0.6392834208
0.669064479
0.6568735562
0.6555345316
0.6918509967
0.6773832104
0.7087034837
0.5431766025
0.5609929493
0.5778833763
0.5719796726
0.5834493629
0.6237298391
0.6288832915
0.6188193899
0.6108781321
0.6126194639
0.6524779458
0.6220057933
0.6396491538
0.653013116
0.6235533455
0.6295786095
0.63844621
0.701928359
0.6695763378
0.6824853267
0.5406210838
0.5771137945
0.5726608255
0.5769286302
0.5865625157
0.6101359185
0.6130909333
0.6295192911
0.6169930426
0.6570356819
0.6504032918
0.6488231117
0.6749963703
0.6750109202
0.6638832776
0.6697827789
0.6870920911
0.7131349766
0.7091409058
0.7287911792
0.5642295896
0.5886062836
0.5981405812
0.57516272
0.5975617628
0.5835826094
0.5978958971
0.5988266863
0.6088660341
0.6390969374
0.623130808
0.6261266219
0.6661526744
0.6764933832
0.684614833
0.6916218811
0.7105014095
0.704293265
0.6982340747
0.6927526509
0.5467052458
0.5673708615
0.6022271279
0.6081575878
0.6093779314
0.6016963721
0.5993961447
0.6115160307
0.6118033728
0.6565937729
0.6632100193
0.6610484123
0.6621948636
0.6851122364
0.66323557
0.641291022
0.6630970786
0.6969037945
0.698420795
0.7076322547
0.5405666121
0.5838628655
0.5851014986
0.5690277027
0.6194068917
0.6095673723
0.6028272037
0.6259317097
0.6252914411
0.644508267
0.6376262339
0.6483127895
0.6578142508
0.6440972519
0.6762426307
0.6392461603
0.6528459257
0.6932024554
0.6916039838
0.719832697
0.5576566319
0.5877326827
0.5736669861
0.5724731288
0.6004787319
0.6079928619
0.6236072732
0.6316863475
0.6340106262
0.6103985704
0.640598496
0.6299657422
0.6566316457
0.6169719532
0.6224075941
0.6665931906
0.6481341291
0.676390997
0.7117825491
0.7272487711
0.5641991986
0.5995172674
0.5910151499
0.5800705672
0.5913306635
0.5964731494
0.5891149021
0.6144068783
0.6103583992
0.620553395
0.6300545796
0.6208259743
0.6116390527
0.6076924947
0.6007382412
0.6191878816
0.6088997073
0.6256070433
0.6303849627
0.6459319076
0.6896648733
0.7124367416
0.7460372044
0.7518137002
0.7391369402
0.7351165901
0.7353063623
0.7404383617
0.7762164743
0.7849517851
0.7864807859
0.7895111261
0.8103131745
0.843882893
0.8360203224
0.8629737367
0.8554491982
0.8409986824
0.7946883253
0.7916943722
0.8505638817
0.8906193594
0.8600573722
0.8923169957
0.8927786668
0.8926426272
0.9122272524
0.8979387051
0.9178105792
0.9258944888
0.9487581372
0.9528658275
0.9140639654
0.8991871202
0.9594321869
0.994059919
0.9656895438
1.057501924
1.006697235
1.010714612
0.6873105727
0.7069195734
0.742389268
0.7712853044
0.7735751834
0.8128556215
0.771905583
0.806976646
0.8267776332
0.8329144079
0.8160606817
0.8587101065
0.8636170561
0.8326273282
0.8457932982
0.8558100096
0.8575611702
0.8677452423
0.8921896482
0.9011303715
0.9150261452
0.9138726768
0.8885488799
0.9313669448
0.963309694
0.9440455661
0.9797384481
0.9900516896
0.9749293044
0.9777482069
0.9676329333
1.010534713
1.042439056
1.075700601
1.021165389
1.061765176
1.071070015
1.049925615
1.096343469
1.079585749
0.6969713317
0.713937282
0.7631321197
0.7765200344
0.7948582783
0.8228233347
0.7750968554
0.829918398
0.8602398651
0.8815154119
0.8796105925
0.8829550836
0.8835948841
0.892206188
0.937440861
0.9093665586
0.9244931447
0.9923785612
0.9641630367
0.9607877987
0.9608987604
0.9551557192
0.9976506689
0.9873551612
0.957028617
0.9817647262
1.04200825
1.012813038
1.054963597
1.010702829
1.088085193
1.06887082
1.072459413
1.065503373
1.043313074
1.09923348
1.077143546
1.105777586
1.142383456
1.072511016
0.7317272352
0.7326645313
0.7417931648
0.7498593676
0.7775365909
0.8071714292
0.8295384685
0.8670985061
0.8781496101
0.8975758961
0.9224849615
0.9049496088
0.930865265
0.9398631275
0.9138054517
0.9508627268
0.9478763248
0.9833309781
0.9545095234
0.9555200559
0.9777046018
0.9868247238
1.007005085
1.061183024
1.08026009
1.088558679
1.101378303
1.100573029
1.125223987
1.109873655
1.066671095
1.083353812
1.081910663
1.090388107
1.109361053
1.151844352
1.14953844
1.189466554
1.169562628
1.141317727
0.6950357819
0.73360693
0.7509775735
0.7688968344
0.7732140581
0.8019908104
0.8297664118
0.8447366815
0.8545170988
0.8751375453
0.9101880292
0.8710785255
0.8599145844
0.8517953779
0.8939235764
0.9241125209
0.9305203334
0.9423577464
0.9559986662
0.957012897
0.9856872349
1.060343964
1.055788038
1.016675774
1.063862132
1.067996685
1.087023943
1.079776606
1.075362602
1.056611102
1.08001032
1.0783843
1.11660959
1.131780213
1.151491389
1.151599416
1.172393519
1.144658121
1.159818652
1.203715723
0.7092787157
0.7501301159
0.7707770906
0.7696386273
0.7334096607
0.759711832
0.8117498464
0.8323077654
0.7927943262
0.812538667
0.8358169516
0.8537779312
0.837665079
0.9077986902
0.9127931493
0.898412753
0.9060546628
0.9361547059
0.9670697375
1.006705416
1.02299851
0.9763305306
1.039914849
1.054341959
1.066500214
1.08630572
1.099084576
1.113377512
1.103378534
1.057780785
1.095478114
1.101873222
1.161293418
1.16343538
1.179588712
1.173030438
1.192906045
1.153105521
1.182248465
1.165436104
0.7258787696
0.7148797678
0.7023938088
0.751185057
0.7795957635
0.7960014924
0.7895118448
0.771993182
0.8051348152
0.8323665597
0.8517097828
0.8656699739
0.8376049127
0.8659068915
0.8947308219
0.9013052745
0.927790436
0.9306338979
0.9811015586
0.9739192822
1.041034065
1.02313393
1.033680653
1.042436443
1.125112159
1.119326148
1.117271691
1.15952806
1.146608929
1.118507782
1.106279837
1.135773089
1.181231923
1.167091862
1.207428195
1.187271116
1.192293565
1.207694049
1.234644389
1.247838429
0.747814191
0.7370098497
0.7619312783
0.7200172913
0.7181936818
0.7420739113
0.7769927277
0.8087690188
0.8159560649
0.7725106471
0.8053983157
0.8498927009
0.8750856744
0.8664602937
0.912157451
0.9530354436
0.9539695764
0.9084466284
1.010066602
1.0177914
1.017526707
1.03304531
1.021995562
1.051908066
1.1243652
1.098313456
1.106369615
1.112534436
1.127643816
1.102176943
1.091976736
1.182649231
1.182113163
1.176989998
1.158014606
1.201641757
1.18395688
1.18908701
1.194194349
1.269929619
0.7223112712
0.7252471674
0.714150788
0.735588149
0.7605116438
0.7747724428
0.8065074932
0.7709535866
0.8212558666
0.8288483198
0.8130575188
0.833831079
0.8884082697
0.9191425617
0.9077973323
0.9396844066
0.9570644034
0.9520812068
0.948241263
0.9818025548
0.9899791754
1.035194832
1.043380177
1.035176631
1.055206641
1.070878553
1.082740552
1.085893903
1.086963451
1.109762763
1.075282783
1.137661766
1.198219524
1.239001995
1.207210817
1.187375418
1.240024069
1.266446472
1.293049799
1.306163771
0.7388851066
0.7336019424
0.7468739525
0.7544196278
0.746159018
0.7584544893
0.7872198296
0.7793144694
0.7968237739
0.8435359687
0.8713644518
0.8852368025
0.8714269005
0.9202588043
0.9391864925
0.9269566533
0.9185955255
0.9072122043
0.9193006623
0.9793879742
0.9801277654
1.008406322
0.9929087967
1.036101821
1.084833489
1.109871404
1.091541796
1.054714785
1.069241905
1.080385718
1.155654051
1.191263104
1.232261585
1.214167751
1.197101283
1.229581733
1.219971451
1.275871744
1.260225358
1.280242502
0.7231456468
0.7205902914
0.7266296078
0.7667823643
0.7765544505
0.7592282914
0.8031684385
0.7893263973
0.7931145961
0.7786838158
0.8143404407
0.8237701974
0.8645790042
0.8759185088
0.8771817152
0.9068866844
0.9060299688
0.9236509033
0.9441143838
0.9488658301
0.9474508715
0.9825299326
1.002693692
1.007677247
1.077903579
1.050145318
1.081414722
1.111488769
1.105263304
1.092790537
1.088694669
1.147685273
1.155423577
1.163548123
1.1713942
1.202046389
1.271740949
1.259035509
1.360827481
1.359462295
0.7153971871
0.7337977203
0.7386070308
0.7491594487
0.7697074804
0.776944304
0.8006823298
0.7763616655
0.8077327135
0.7745205319
0.8234314125
0.8477073546
0.8505969885
0.833309749
0.8926123791
0.8800895051
0.8833306149
0.8996084045
0.9200274084
0.9294430421
0.9139260561
0.957152311
0.9743946756
0.9447289019
0.980423545
1.022647911
1.042278715
1.04039347
1.078133259
1.07297516
1.067499955
1.068221634
1.125344045
1.186074953
1.196374676
1.216851241
1.237986359
1.232963834
1.316270039
1.359771753
0.7517945012
0.7432331489
0.7594145759
0.7447190747
0.7722262448
0.7670745109
0.7780962133
0.8027723755
0.8109600767
0.8246453436
0.8120775288
0.8339493191
0.8397714364
0.8579463905
0.870779809
0.8947516655
0.9094855427
0.9054698924
0.8828578059
0.9145495807
0.9109413629
0.9490996249
0.9200458183
0.9675961676
1.000566877
0.9810083696
1.054488496
1.049140846
1.072445087
1.106071912
1.084536396
1.130446833
1.139188058
1.180413211
1.174599261
1.188787795
1.228977853
1.261259592
1.27651554
1.310968119
0.7517675817
0.7232708667
0.7204176487
0.7162403513
0.7473690079
0.7226383222
0.7495863775
0.7666230835
0.7847224064
0.807689171
0.8286965681
0.8186462436
0.8544626573
0.8473843846
0.8559554476
0.8690003099
0.8934606335
0.9036423691
0.936521592
0.9505850542
0.956593176
0.9408629449
0.9599860515
0.9559840098
0.9714352989
0.9890020008
1.047831481
1.050411039
1.082116999
1.145623313
1.154979559
1.114970459
1.154433748
1.141355213
1.203090519
1.155393228
1.154445579
1.186635579
1.241607408
1.345751141
0.7089940823
0.6958444579
0.729240405
0.7553278506
0.7560492834
0.7602589703
0.7836963686
0.8387717722
0.8094646561
0.8404238148
0.8463649881
0.8593107212
0.8487095461
0.8515698173
0.8651836455
0.8734206551
0.8965520687
0.9034995875
0.8946377647
0.9046341304
0.9123879455
0.9269644702
0.9320295495
0.9694267823
1.00386002
1.025808546
1.04726025
1.026345087
1.047292412
1.044673132
1.075774149
1.08696446
1.116943946
1.161234099
1.149581979
1.179488686
1.198123451
1.218353718
1.21089321
1.249433246
0.7121556301
0.7426113263
0.7695867904
0.7824178506
0.766483118
0.7842967988
0.7810926581
0.8052130391
0.7647042843
0.8001197864
0.8001129359
0.8286630298
0.8373358753
0.8397212067
0.8905493734
0.8542898372
0.9088937608
0.914917883
0.9462189291
0.9594425284
0.9013197086
0.9275650164
0.957573014
0.968525408
0.9782600318
0.9850406412
0.9817654156
1.011758423
0.9944947022
1.041014661
1.057711721
1.09273843
1.093473601
1.07314156
1.15386812
1.177319371
1.226639083
1.222040378
1.240172752
1.284819345
0.746641052
0.7543006644
0.7185503647
0.7280603688
0.7500344769
0.7289693395
0.7837494469
0.7953178291
0.8118717797
0.811333926
0.849170591
0.8503962673
0.8571431255
0.8559850691
0.8243842495
0.8323883752
0.8782764437
0.9119609829
0.8820269227
0.9144256159
0.922548796
0.9533354321
0.9257207812
0.9280249702
0.9482834999
0.9708858099
0.9769327638
1.040212826
1.071355663
1.092192268
1.047976546
1.073487588
1.10132368
1.092814824
1.146777617
1.13624079
1.080125625
1.156208858
1.199624513
1.194945896
0.7027432516
0.7468391997
0.7437680644
0.7745675451
0.7646414333
0.803425625
0.7946215883
0.8086914201
0.8368041047
0.8302823356
0.8512675596
0.8671802538
0.8282491749
0.8590177446
0.8520151372
0.8569559325
0.8562207186
0.8954894718
0.9031772134
0.9406662439
0.9097290466
0.915338783
0.9114390282
0.9365509579
0.9517192132
0.9803802013
1.004266447
1.00238118
1.009551393
1.007083273
0.9895885328
1.057629612
1.051297607
1.057989604
1.106810025
1.137130795
1.095154987
1.138761477
1.200068559
1.28147392
0.7432466993
0.736122528
0.7317740441
0.7674941936
0.7941168647
0.8227700497
0.8113214287
0.7890603313
0.8238249203
0.8022050767
0.8243576384
0.8392113537
0.8334811976
0.8215669991
0.8341266309
0.8238722907
0.8338435601
0.8546820008
0.8772486124
0.9345566544
0.912324784
0.9362064807
0.962169877
0.9867833985
0.9671953272
0.9897139507
0.9738386788
0.9700232258
1.02318394
1.044683618
1.046667555
1.093513315
1.113934917
1.10143561
1.14078584
1.119079711
1.172477393
1.204476349
1.207472787
1.235242458
0.7402331137
0.7344287214
0.7390840235
0.7565939964
0.7805653345
0.7974368586
0.7646685777
0.7959561579
0.7948290024
0.8262599552
0.8320003419
0.8098612751
0.8374604756
0.8274500972
0.847216413
0.8422022488
0.8764842027
0.8643122459
0.907651091
0.9061168996
0.9201541037
0.9158661578
0.9101741
0.9273829789
0.9378046092
0.9375449238
0.9550882098
0.9921360032
1.022733181
1.002617167
1.015351073
0.9989367528
1.063836558
1.087007864
1.082506872
1.086022574
1.100900812
1.121260955
1.157530466
1.236859433
0.7277601123
0.6970105716
0.7332238317
0.7377156356
0.7463317529
0.730423877
0.7519582717
0.7948342686
0.7938332494
0.794352887
0.7915548794
0.7911365999
0.823072467
0.8415586861
0.8775744703
0.8831410855
0.8797683613
0.8689594474
0.8984724604
0.8712440542
0.8837525214
0.9404904477
0.9088019742
0.9121012348
0.9697308205
0.9399604273
0.9484014017
0.9944562686
0.9929183453
0.9953866199
1.011250603
1.045768016
1.051932775
1.075057724
1.071554798
1.094512797
1.122150756
1.200252677
1.16703656
1.171487166
0.7317139164
0.7297666154
0.7600335672
0.7556314229
0.756266195
0.7570723803
0.7471722409
0.7871456705
0.7720950574
0.8107825283
0.8308415026
0.8439801415
0.841864681
0.8348263209
0.8199191914
0.8776598252
0.8639775136
0.8650524621
0.8910448195
0.8976019707
0.930605845
0.9508708275
0.9517782374
0.8993838391
0.959178208
0.9669955345
0.9412816919
0.9568297307
0.9681533457
0.981622737
1.006146874
1.048253438
1.031214301
1.040888215
1.070525213
1.076889979
1.071654099
1.072674894
1.091045714
1.173315691
0.7229925053
0.727768254
0.7107905092
0.7701424073
0.7595312252
0.7657421001
0.7423520843
0.7668445234
0.8074178292
0.8008584625
0.8012006344
0.8444308565
0.8267056014
0.8133072101
0.8299185335
0.8547569688
0.8390182709
0.8649617552
0.8477656916
0.8719864136
0.8833619285
0.8878619986
0.8982869639
0.9597834374
0.9379047691
0.9774393616
0.942784989
1.015940658
0.9929241207
0.9875796638
1.014168044
1.035574578
1.054619569
1.047773513
1.091909692
1.075767763
1.101113593
1.110175995
1.123934569
1.213995973
0.7262760276
0.7530626297
0.7294670204
0.7439188062
0.7581540307
0.7630807877
0.7599184023
0.7849473082
0.7896186444
0.778598049
0.7953713462
0.8364844827
0.8213284277
0.8331096535
0.8431611183
0.8629664541
0.8523535103
0.8779313898
0.8736318041
0.8920630753
0.9075734327
0.92991411
0.9255348018
0.9873863999
0.94882015
0.9484550044
0.9467058738
0.9718139613
1.007809621
1.040996294
1.09893214
1.106347754
1.123301984
1.082108643
1.112881561
1.117102294
1.152982202
1.163483412
1.166383653
1.201572479
0.7228028694
0.7208839024
0.7422977358
0.7701714504
0.7629909336
0.7543599186
0.7514064035
0.7765792278
0.7988231536
0.7980564576
0.8083407991
0.861897033
0.849964631
0.850723838
0.8391349839
0.8296274215
0.87041513
0.8899318836
0.8554751028
0.8853272127
0.8807776313
0.9135856688
0.9330861895
0.935185585
0.9318032568
0.9253849906
0.9808785775
1.04589829
1.02445909
1.032082834
1.011192414
1.004230871
1.049750045
1.048291249
1.069381351
1.033928049
1.115120797
1.1132659
1.144773418
1.226800575
0.7572671931
0.7343959667
0.7418268281
0.7340716963
0.7429390967
0.7483090147
0.7782067214
0.8015809062
0.7778055083
0.7761614344
0.7926639351
0.8229787492
0.8198365797
0.850198911
0.8335382964
0.8325044179
0.8720888235
0.8943673232
0.886181789
0.9344038537
0.8990201716
0.9061233654
0.9433287737
0.9404106597
0.9591286971
0.9689629249
0.983936468
0.9933711981
0.9863872025
1.009209921
1.01399375
1.014238803
1.040400078
1.05281242
1.07570603
1.075048506
1.083032066
1.100689789
1.131299357
1.159219306
0.7013865398
0.7117815477
0.7005070057
0.7389484073
0.7486765626
0.7591230452
0.753520096
0.7548865461
0.7614706031
0.7777916098
0.7926675725
0.7848772682
0.8133950208
0.8182926297
0.8385420351
0.8461456592
0.8625767203
0.8624210477
0.8729096463
0.9091728934
0.8828060574
0.880972856
0.8728404055
0.932264928
0.911521856
0.9505860274
0.9484505943
1.004082412
1.025070589
1.02361221
1.0108354
1.034039432
1.040363823
1.024527017
1.075568157
1.05342469
1.087203963
1.067162427
1.097584081
1.132302515
0.7152939081
0.7055438796
0.7289109299
0.7393474331
0.7542397792
0.7904923357
0.7388517143
0.7587641445
0.7931470219
0.788731722
0.8306360566
0.8326753171
0.804483544
0.8180601287
0.8411055217
0.8803818028
0.8485908342
0.8686290291
0.854486446
0.8439014347
0.8878686281
0.92370594
0.9311733542
0.9250206292
0.9046749519
0.9396389178
0.9329043053
0.9585529971
1.003705422
0.9983653485
1.01408723
1.027458375
1.012101515
1.009015998
1.021939272
1.056421241
1.045726857
1.061771729
1.091671835
1.129366733
0.7163694254
0.7339746868
0.7417466394
0.7458299522
0.7610277185
0.7899022821
0.781585382
0.7830786859
0.7953640123
0.7828642412
0.7927468995
0.8116507666
0.8245580902
0.8309659948
0.8494714159
0.8474013546
0.8909087235
0.8960523126
0.9274561002
0.9370909021
0.9051682714
0.9324447586
0.8979967651
0.8965307101
0.9618486777
0.9891581007
0.9729819307
0.9798198069
0.9962245511
1.018172239
1.048602756
1.062417605
1.025082347
1.057122987
1.026292493
1.043023473
1.054951806
1.098283577
1.122767063
1.152482657
0.7307564044
0.7247918935
0.7345140323
0.7641436864
0.7500066479
0.773231028
0.775987433
0.8054314001
0.8325107218
0.8111228917
0.8212123511
0.8365692465
0.8488119043
0.8293707396
0.8606764367
0.8611310316
0.8749557783
0.8736854749
0.8609522629
0.864799916
0.8217159789
0.8693032975
0.8714858508
0.9052595567
0.9254164735
0.8836140515
0.9099240456
0.9741069479
0.9694380358
0.9891483439
0.9782929709
0.9568546234
0.9754144443
1.009625208
0.99896986
1.057835508
1.100438254
1.09651492
1.133642416
1.162589331
0.7166072773
0.7371398735
0.7762739149
0.7742662419
0.767472969
0.7877486863
0.7670366937
0.8015915974
0.7983440591
0.8306701206
0.8193853445
0.8599064807
0.8677092572
0.8811954956
0.8677840616
0.8392677073
0.863168518
0.8651655937
0.8605119173
0.8916494471
0.9046741904
0.9022933924
0.8800856542
0.9020284958
0.9483934046
0.9750876218
0.9820513647
0.9887140766
1.004220037
1.002341886
0.9867114606
1.010957136
0.9770116134
1.032772981
1.033747056
1.063765659
1.077659594
1.104806365
1.129079443
1.168258761
0.6846480431
0.7130925093
0.7395969859
0.7513884625
0.7223702827
0.7626414116
0.7627799775
0.7781973062
0.7741408595
0.8203893771
0.79704043
0.8065160795
0.8126191433
0.8112796675
0.8389813541
0.8179750536
0.8611578711
0.846790889
0.8655662388
0.8922568954
0.8687438728
0.890499308
0.91499814
0.892038123
0.9395761027
0.9606373071
0.9595956251
0.9219884892
0.9298350897
0.8996917881
0.9498874404
0.9439381132
1.005188447
1.017492786
1.051657496
1.046906868
1.091103088
1.08280226
1.122958725
1.122145625
0.7047479229
0.7016990146
0.7132729042
0.7379845569
0.7401706613
0.7112336182
0.7552829073
0.778699582
0.8072338866
0.8339476157
0.8009671497
0.780890806
0.814494211
0.8224336259
0.8395914385
0.854693548
0.8537197886
0.8607912997
0.8956541581
0.8706005517
0.8650736038
0.8633900089
0.8884014857
0.9137742493
0.9037192243
0.9238595057
0.9054671205
0.9414366989
0.9381209228
0.9644310581
0.9732896292
0.973405174
1.010809747
1.029135486
1.017390576
1.017829235
1.032335505
1.060718334
1.057462801
1.049186508
0.7095513367
0.7207801138
0.7266442013
0.743892575
0.7401573177
0.7314893448
0.7652014097
0.7879223751
0.7988702539
0.8140394027
0.8079663259
0.7571379283
0.8300279529
0.8063317994
0.8314261159
0.8285598034
0.8276100914
0.8450552988
0.8566407756
0.8534954159
0.8924719625
0.9036115585
0.9231364011
0.9131492857
0.8997875848
0.8977583197
0.8828747097
0.9157949902
0.9608911367
1.002545495
0.9814168277
0.9656946916
1.025889712
1.025108108
0.9879464999
1.001004855
1.004067479
1.013690146
1.043179367
1.035369323
0.7334625269
0.7365417518
0.7525025583
0.7452318014
0.7648978942
0.7663218208
0.755066346
0.7562338056
0.7749396562
0.7812413359
0.7834921146
0.7660529205
0.792670242
0.80495743
0.7916839641
0.8328182441
0.8335661657
0.8686123622
0.8567430982
0.8780669013
0.8722910158
0.8661430901
0.9046962527
0.8880183339
0.9215076722
0.9373582005
0.9606272163
0.9243664446
0.9141845831
0.9324707609
0.9640247686
0.9481822262
0.9936854477
0.9920267478
1.004363668
1.002345596
0.9614863383
0.9721989625
1.039204897
1.026568361
0.6954355622
0.6903157273
0.7221515261
0.7085136665
0.7565074445
0.7456512931
0.749702887
0.8060865721
0.793316665
0.7838809752
0.7881010244
0.7824533517
0.8210747254
0.8454383633
0.8265963329
0.820081903
0.8397696516
0.8372128477
0.8498414351
0.8226912465
0.8469162938
0.8510678484
0.8842077884
0.8930395529
0.8833900929
0.8889571141
0.879139435
0.9051494826
0.9185940414
0.9627502974
0.9220417568
0.9033210839
0.9160413389
0.9519715998
0.9396041646
0.985952833
0.9838702911
1.024162649
1.022635192
1.005254425
0.6995615916
0.7194036194
0.7211098168
0.7534523171
0.743400021
0.7555115353
0.7755780477
0.7848174312
0.7812303859
0.7978150146
0.820462134
0.8104583051
0.7956638943
0.7787495544
0.8326837727
0.8042993389
0.8204798602
0.8534330439
0.8322549288
0.81854193
0.7992102925
0.8469173167
0.8377687104
0.8576177089
0.8839711115
0.9385136677
0.9229573155
0.9000329106
0.909107831
0.8973952657
0.8833848328
0.8939382649
0.9001288429
0.9018123934
0.9209640288
0.895372695
0.9206424239
0.9116640172
0.9523804656
0.954464646
0.7054498467
0.6751180697
0.6771306308
0.7116785977
0.7137222561
0.7175744036
0.7372619
0.7468722974
0.776835252
0.787351272
0.7676588184
0.7699849178
0.7547668114
0.7602285038
0.7885595295
0.7859885034
0.7731369338
0.7990997881
0.7940038607
0.8078966368
0.7768339523
0.7851742507
0.8128470322
0.8027068551
0.8164024668
0.8197266438
0.8318347083
0.8395791235
0.8409033365
0.8425517451