/*--------------------------------*- C++ -*----------------------------------*\
  =========                 |
  \\      /  F ield         | OpenFOAM: The Open Source CFD Toolbox
   \\    /   O peration     | Website:  https://openfoam.org
    \\  /    A nd           | Version:  7
     \\/     M anipulation  |
\*---------------------------------------------------------------------------*/
FoamFile
{
    version     2.0;
    format      ascii;
    class       volVectorField;
    location    "0.004";
    object      momentumMean;
}
// * * * * * * * * * * * * * * * * * * * * * * * * * * * * * * * * * * * * * //

dimensions      [1 -2 -1 0 0 0 0];

internalField   nonuniform List<vector> 
2400
(
(0.006294955939 -3.469721956e-05 1.3994394e-05)
(0.008327554652 -4.047322376e-05 1.153881493e-05)
(0.008332794814 -3.51489854e-05 9.20899269e-06)
(0.008253764151 -2.430407236e-05 9.029766048e-06)
(0.00832417912 -3.033946911e-05 4.719983549e-06)
(0.008255313832 -3.293508827e-05 -2.656286466e-06)
(0.008256172802 -3.608759609e-05 -7.349917762e-07)
(0.008240919165 -2.746901674e-05 -7.521582767e-06)
(0.008164598038 -3.625912688e-05 -6.799513423e-06)
(0.008165835618 -3.992629902e-05 2.836754212e-06)
(0.008205204932 -3.444209909e-05 -6.663705221e-06)
(0.008182108717 -4.453291949e-05 -1.170970904e-05)
(0.008208400492 -4.021381838e-05 -1.57579562e-05)
(0.008118773438 -4.006291207e-05 -1.198775095e-05)
(0.008167760402 -1.849539195e-05 2.883072947e-07)
(0.008097728875 -1.434421649e-05 -2.620008076e-06)
(0.008075995081 -2.38666774e-05 -1.391292501e-06)
(0.00810573822 -4.693199967e-05 7.570453554e-08)
(0.008074273149 -7.982787163e-05 -6.179943703e-06)
(0.00773165333 6.562361395e-05 1.31161265e-05)
(0.006347758255 -4.144246518e-06 6.211621655e-06)
(0.0082798826 -2.093458919e-06 2.152344543e-05)
(0.008281627762 -1.235870204e-05 1.358129016e-05)
(0.008244626403 -1.89436303e-06 3.232137236e-06)
(0.008277796227 -8.253928255e-06 5.110442555e-06)
(0.008318211836 1.016484834e-05 1.108013398e-06)
(0.008315576638 1.680756834e-05 -4.445252071e-06)
(0.008346136442 2.54127967e-06 -7.017749781e-06)
(0.008423016172 1.137275284e-07 -9.735371266e-07)
(0.008372520472 1.033168314e-05 3.529962854e-06)
(0.008321692881 1.485434298e-05 2.21861102e-05)
(0.008259297926 1.085749853e-05 3.153958058e-05)
(0.008250660479 2.964448236e-05 2.89730319e-05)
(0.008288806686 2.464481548e-05 3.011963797e-05)
(0.008229371765 1.496133886e-05 2.354407256e-05)
(0.008295034095 -3.37139527e-06 2.541479088e-05)
(0.008254734354 -1.214963604e-05 1.788036776e-05)
(0.008221469793 -1.24492057e-06 1.534295039e-05)
(0.00818443242 6.112370684e-05 1.936656992e-05)
(0.008074828866 0.0003626927665 1.748448763e-05)
(0.006353485672 1.032346225e-05 2.394740989e-07)
(0.008331844653 1.50526363e-05 -2.387981091e-05)
(0.008363267601 2.679185564e-06 -1.802809637e-05)
(0.00834310259 -2.291052745e-06 -2.382534301e-06)
(0.008352658073 -6.067676464e-08 7.272595449e-06)
(0.008279864229 -3.794524964e-06 2.602509718e-05)
(0.008225552676 -5.513096575e-06 3.311898418e-05)
(0.008211573818 1.988748015e-05 3.50244174e-05)
(0.008171251998 3.046823767e-05 3.059520089e-05)
(0.008273263173 1.322534303e-05 7.930594105e-06)
(0.008339991584 3.180288257e-06 -1.034284784e-05)
(0.008280035791 8.290838855e-06 -1.753213068e-05)
(0.008332659103 6.924608922e-06 -1.760000621e-05)
(0.008311776693 -9.099661732e-06 -2.767446156e-05)
(0.008422695144 -1.418387146e-05 -1.223455702e-05)
(0.008409587743 -2.677364093e-06 -7.193779901e-06)
(0.008337241855 7.274188952e-06 4.09378882e-07)
(0.008350538436 2.904223072e-05 -7.361924234e-06)
(0.008305008826 0.0001070710233 1.583612544e-05)
(0.008257271166 0.0003764378911 1.369117626e-05)
(0.006366151051 -1.960261701e-05 1.694734681e-05)
(0.008333120627 -1.133568945e-05 2.773837983e-05)
(0.008350892811 2.188446038e-06 3.571637201e-05)
(0.008429055472 -3.04604845e-06 1.502648464e-05)
(0.008392365143 5.692808862e-06 5.677753772e-06)
(0.008366440636 1.950061607e-05 -4.235198527e-06)
(0.008410606248 8.700052608e-06 -1.242772372e-05)
(0.008432730934 -4.284653142e-06 -9.915459855e-06)
(0.008416496599 -2.757491533e-06 -1.141138698e-05)
(0.008409377689 1.234242688e-05 -3.910235032e-06)
(0.008394100684 1.201173772e-05 7.727010605e-06)
(0.008431264104 3.27399948e-06 7.75294617e-06)
(0.008433437704 -6.816714426e-06 -6.384857333e-06)
(0.008398578159 -1.305490004e-07 -1.082372044e-05)
(0.008326653152 -1.680757198e-06 -1.404398711e-05)
(0.008338012345 8.345790027e-06 -6.802191049e-06)
(0.008302081285 2.169539232e-05 1.508612582e-05)
(0.008322616403 4.757181335e-05 -3.972582808e-07)
(0.008358424531 0.0001368029793 1.300857365e-05)
(0.008438357872 0.0003227562441 -3.041374769e-06)
(0.006341739185 4.288639832e-06 1.277405464e-05)
(0.008305244116 2.450442061e-06 1.181388292e-05)
(0.008259737923 -2.136478885e-05 1.169465696e-06)
(0.008241099912 -1.806920707e-05 1.310417452e-05)
(0.008317202111 -2.164229171e-05 1.429869494e-05)
(0.008338438355 -2.823982363e-05 1.038694886e-05)
(0.008332570447 7.178404407e-06 1.492011175e-05)
(0.008350693809 2.8579037e-06 1.799819059e-05)
(0.00836765338 -9.712106228e-07 9.248773038e-06)
(0.008384264411 3.952018733e-06 9.116341016e-06)
(0.00838749241 1.287415819e-05 5.517926843e-06)
(0.008435160122 2.439617579e-05 5.033226848e-06)
(0.008386109034 1.862032537e-05 1.819106675e-05)
(0.008428336488 2.04970404e-05 2.135459742e-05)
(0.008351105252 9.649671553e-06 2.585149965e-05)
(0.008284358841 4.976120378e-06 2.017469609e-05)
(0.008355456674 1.305641702e-05 1.400705492e-05)
(0.008371686259 3.908066629e-05 2.691411999e-05)
(0.008405231668 9.159864703e-05 -2.168301631e-06)
(0.008398712541 0.0002390685829 -2.707496127e-05)
(0.006377594914 3.92876907e-06 -1.287470691e-05)
(0.008367028075 5.915298552e-06 -1.203860378e-07)
(0.008423255453 2.139146858e-05 1.024839255e-06)
(0.008299538325 2.085756962e-05 6.633350426e-06)
(0.008248019364 1.948202084e-05 1.366685082e-06)
(0.008214729844 3.934513213e-06 1.58377859e-05)
(0.008175711321 -1.781764891e-05 2.01954894e-05)
(0.008164190072 -1.311591594e-05 1.865550397e-05)
(0.008163273967 -3.83141109e-06 1.744022457e-05)
(0.008154035254 9.425231998e-07 2.744396504e-05)
(0.008132284003 -3.041630396e-05 1.426006621e-05)
(0.00814545195 -1.388469538e-05 7.779822509e-06)
(0.008205318384 -2.885299231e-06 1.257411518e-05)
(0.008294909359 -4.803000017e-06 9.549567504e-07)
(0.00835062901 1.152361864e-05 9.568770519e-06)
(0.008428654635 1.914785488e-05 2.40234956e-06)
(0.008360983652 2.93933727e-05 7.854955916e-06)
(0.008337291185 5.153721075e-05 2.737550795e-06)
(0.008316659318 9.655653352e-05 -6.107979136e-06)
(0.00826082562 0.0001783109955 -5.897479547e-06)
(0.006346858308 1.408279156e-05 7.666525535e-06)
(0.008259474517 9.781321946e-06 1.333540573e-05)
(0.008329378389 1.159354813e-06 2.089437458e-05)
(0.008358145768 1.298291817e-05 1.972056144e-05)
(0.008421940386 1.055025506e-05 1.971952683e-05)
(0.008354030801 2.518913439e-05 1.437026564e-05)
(0.008382709063 2.205915994e-05 1.848139274e-05)
(0.00851194551 1.67165101e-05 2.10189442e-05)
(0.008418853321 4.696629153e-06 1.490878905e-05)
(0.008328875965 -5.17944628e-07 1.879520154e-05)
(0.008287691909 5.759553851e-06 1.976078976e-05)
(0.008307559225 -1.035492318e-05 2.337842936e-05)
(0.0082963612 -1.30050293e-05 2.143921865e-05)
(0.008212978564 -2.467410375e-05 2.564155227e-05)
(0.008223040689 -2.977322161e-05 1.216039072e-05)
(0.008192301029 -4.9264786e-06 1.188497781e-05)
(0.008251723706 2.333139466e-05 3.144838706e-06)
(0.008258169836 4.128756093e-05 2.789670596e-05)
(0.008286382003 9.091994305e-05 2.191713689e-05)
(0.008367431713 0.0001735972494 4.006708733e-06)
(0.006361294555 4.284534792e-06 1.670013271e-05)
(0.008319864928 1.431664397e-05 1.170031858e-05)
(0.008274429408 2.525556321e-05 1.11983953e-05)
(0.008158470341 -8.805327318e-06 8.405322541e-06)
(0.008213564725 -1.012467291e-05 1.15810065e-05)
(0.008227451076 -5.698519124e-06 1.730269727e-05)
(0.008234180981 -2.502752928e-06 1.212953601e-05)
(0.008198940619 -1.19259719e-06 1.000310004e-05)
(0.008263391676 -5.069060179e-06 3.516443541e-05)
(0.008344266162 -8.523975682e-06 2.996393773e-05)
(0.00834853934 7.408354318e-07 2.457861243e-05)
(0.008386982813 3.882683384e-06 2.033793749e-05)
(0.008384092115 2.27870724e-06 2.325214729e-05)
(0.008328049158 1.823755278e-05 2.393018965e-05)
(0.008350410207 1.509701413e-05 2.24344286e-05)
(0.008390572477 1.75740666e-05 2.664652325e-05)
(0.008348603146 2.635977551e-05 2.58262183e-05)
(0.008319873087 1.977907928e-05 3.987641316e-06)
(0.008336281461 3.647559085e-05 8.529976744e-06)
(0.008317273877 8.446638303e-05 3.984653374e-06)
(0.00636561802 2.183294028e-06 1.16519149e-05)
(0.008422074714 5.924411437e-06 8.581388749e-07)
(0.008398413907 3.418575978e-06 -1.88634418e-06)
(0.008402309863 1.998014112e-05 5.318268989e-06)
(0.008349664961 2.175707628e-05 4.70518144e-06)
(0.008416376362 9.285159006e-06 -2.503415401e-06)
(0.008454923876 -1.414740326e-05 -3.159082214e-06)
(0.008438396213 -3.640515246e-06 -1.135383201e-05)
(0.008442729361 1.808207626e-05 -1.443404081e-05)
(0.008426480345 1.821862107e-06 -1.282806368e-05)
(0.008372835544 -8.250693713e-06 -2.281439347e-05)
(0.008338708484 -8.175447673e-06 -2.254351942e-05)
(0.008294269673 -1.762262282e-06 -7.40725269e-06)
(0.008305575002 -5.191075131e-06 1.138056842e-05)
(0.008277446385 1.402383339e-05 1.878711507e-05)
(0.00821275315 2.037781294e-05 1.024148369e-05)
(0.008207234829 2.540550435e-05 3.800935585e-06)
(0.008357886804 4.482399702e-05 6.698101406e-07)
(0.008357004726 4.112567049e-05 4.765439435e-06)
(0.008377123982 8.254860579e-05 7.91404779e-06)
(0.006390430159 -1.623317263e-06 -9.221818977e-06)
(0.008380671632 3.160362255e-06 -4.429692237e-06)
(0.00840709408 -1.010917351e-05 1.703431751e-06)
(0.008497786723 -6.161870886e-06 -7.201055835e-06)
(0.008477895586 -5.697593501e-06 -4.959899288e-06)
(0.008433556232 6.64129669e-06 3.972861372e-07)
(0.008387136366 1.400842013e-05 7.192839038e-06)
(0.008350946375 1.707404117e-05 1.499854597e-06)
(0.008286206516 9.939066198e-06 -1.348035554e-05)
(0.008274241516 1.210775587e-05 -1.284156556e-05)
(0.008247720801 4.923383205e-06 5.553552094e-06)
(0.008415251466 3.137090218e-05 7.445063599e-07)
(0.008432384761 1.73043444e-05 -4.786678204e-06)
(0.008374138935 1.020915403e-05 -1.29417504e-05)
(0.008341900805 9.123458307e-06 -7.394414776e-06)
(0.008429294934 -4.116905466e-06 -3.420125757e-06)
(0.008377822072 -8.234775639e-06 -7.539393568e-06)
(0.008345238827 1.013783565e-05 -8.178796013e-06)
(0.008410806347 3.703692871e-05 4.341134127e-08)
(0.008365772997 7.974728602e-05 -1.777315512e-06)
(0.006345032959 -1.237960175e-05 7.076209048e-07)
(0.008302981305 -4.798778107e-06 1.50235654e-06)
(0.00825860078 1.985077199e-06 9.418584472e-06)
(0.008292590689 -1.505672057e-05 1.28904983e-05)
(0.008260208339 6.710275567e-06 1.839078584e-06)
(0.008373342706 9.81189458e-06 -1.359678573e-05)
(0.008320275271 8.424428045e-06 -1.467344104e-05)
(0.008409186009 1.97029332e-07 -1.188741082e-05)
(0.008384934403 -6.51756898e-06 -2.608149729e-06)
(0.008421439077 1.607312252e-06 -2.776413515e-06)
(0.008412020042 1.353902869e-05 -1.56298801e-05)
(0.008360905404 4.004048339e-06 -1.730619972e-05)
(0.008340772377 2.163783523e-06 -1.35472723e-05)
(0.008463784037 1.41014612e-05 -1.896801783e-05)
(0.008495366767 1.814844632e-05 -1.917782184e-05)
(0.008349582915 1.997028171e-05 -9.620521001e-06)
(0.008433594364 2.061374486e-05 -1.453891946e-05)
(0.008496944971 1.622041193e-05 -2.403001267e-06)
(0.008461102109 2.832836693e-05 -7.74415069e-06)
(0.008446091106 5.777354065e-05 2.268443105e-06)
(0.006335572461 -1.542740929e-05 -6.735726968e-06)
(0.008381828032 -1.886273632e-05 -4.201677821e-06)
(0.008386490611 -6.925325391e-06 -9.223179287e-06)
(0.008343386676 1.207003562e-05 -1.623479307e-05)
(0.008399965421 5.863703874e-06 -2.233259493e-05)
(0.008371985995 2.937956406e-06 -8.504541449e-06)
(0.008314959088 -1.813103429e-06 -1.329188039e-05)
(0.008280419629 7.820834217e-06 -1.840585748e-05)
(0.008257659865 1.45990547e-05 -2.758052277e-05)
(0.008290177637 6.675942096e-06 -4.034116843e-05)
(0.008326348735 -1.269864044e-05 -2.825609878e-05)
(0.008349763186 -1.965252796e-05 -1.308090161e-05)
(0.008351754892 5.397661591e-06 -2.119583104e-05)
(0.008347400587 -3.530469668e-06 -2.998622577e-05)
(0.00841017357 -1.191784597e-05 -2.526804336e-05)
(0.008427889558 -3.475699906e-06 -2.801571524e-05)
(0.008349670888 4.840986637e-06 -2.001440642e-05)
(0.008333251463 2.097797574e-05 -1.49307828e-05)
(0.008314095646 2.308335202e-05 -6.031837416e-06)
(0.00833495873 2.834064634e-05 -1.77667133e-05)
(0.006342982389 1.787811342e-06 -1.551880996e-05)
(0.00835847715 5.329989924e-06 -1.741436533e-05)
(0.008380322166 9.752296739e-06 -3.134793026e-05)
(0.008263380164 -4.771734666e-07 -1.673998962e-05)
(0.008231722671 -1.824135714e-05 -2.151443261e-05)
(0.008254882466 -2.05492366e-05 -2.678609187e-05)
(0.008330950348 5.506294981e-07 -1.137345012e-05)
(0.008431590674 -1.348770298e-05 -5.310191644e-06)
(0.008531967827 -2.922532879e-06 -6.159194275e-06)
(0.008433794609 -1.26094315e-05 3.690403968e-06)
(0.008473074335 -1.696204359e-05 -1.141004045e-05)
(0.008401801928 6.50716912e-06 -7.877766785e-06)
(0.008394638872 2.619453909e-06 -7.300476731e-06)
(0.00836828547 1.529560094e-05 -1.931487253e-07)
(0.008272642066 9.211650867e-06 -1.912541906e-06)
(0.008268615657 1.075705025e-05 1.477277534e-06)
(0.008264278157 6.466870567e-06 -2.028703532e-06)
(0.00824345274 1.060918577e-05 -4.313540322e-06)
(0.008304694651 2.587204659e-05 -1.392441612e-05)
(0.008355407602 7.879623615e-05 -7.484399299e-06)
(0.006427555459 4.302229452e-06 8.559977421e-06)
(0.008371314835 -7.757984783e-06 1.99240621e-06)
(0.00832803243 -3.156636459e-05 5.876002129e-06)
(0.008391347107 -3.346637443e-05 2.402638335e-05)
(0.00839951389 -1.967059971e-05 1.61246528e-05)
(0.00839481607 -1.765392095e-05 1.282372921e-05)
(0.008374970236 -2.931054563e-05 1.206694785e-05)
(0.008348358074 -3.11109539e-05 1.48882412e-06)
(0.00827513464 -2.052970069e-05 -6.102644091e-06)
(0.008298069892 -4.370972072e-07 9.38549534e-07)
(0.008215765274 1.744635041e-05 2.721885613e-06)
(0.008238912548 2.210591947e-05 -1.068362892e-05)
(0.008201568778 3.08895438e-05 -1.534834723e-05)
(0.008231888296 3.208547469e-05 -1.250423586e-05)
(0.008239420986 2.300567999e-05 -9.680477982e-06)
(0.008290899226 1.324100301e-05 -4.114880349e-06)
(0.008282426843 6.004510712e-06 -4.168932271e-06)
(0.008286031828 1.108754202e-05 -1.325605202e-05)
(0.008253899018 6.50139089e-06 -7.965188467e-06)
(0.008232434371 1.89512175e-05 -7.596936888e-06)
(0.006311749591 -1.364255946e-05 1.457633015e-05)
(0.008331952663 -1.025526193e-05 1.97210399e-05)
(0.00835941114 -8.898046366e-06 3.457229957e-05)
(0.008291758596 1.426299262e-05 1.736267757e-05)
(0.008323105959 1.811250683e-05 2.666391564e-05)
(0.0082676431 2.668569964e-05 3.22303405e-05)
(0.008249027909 2.053399049e-05 1.872766824e-05)
(0.008202995221 1.652373243e-05 2.119576978e-05)
(0.008205757688 1.515436884e-05 2.130122774e-05)
(0.008125669486 1.404987017e-05 2.124365178e-05)
(0.008175470512 1.601037851e-05 2.881753074e-05)
(0.008316383427 -2.010465562e-06 2.165305934e-05)
(0.008261048878 -1.08409197e-05 1.529179862e-05)
(0.008229964192 -2.038449004e-05 1.264209354e-06)
(0.008288847673 4.327805991e-06 -2.287489932e-06)
(0.008271785664 1.432513144e-05 -1.917792738e-05)
(0.00836212437 2.468864639e-05 -2.127132358e-05)
(0.008316454213 1.851732456e-05 -3.177998712e-05)
(0.00831755032 4.10412171e-05 -3.340078966e-05)
(0.008300223342 3.26176713e-05 -1.680182136e-05)
(0.006358669842 -8.831364104e-06 -9.714456404e-06)
(0.008320231327 -4.766124146e-06 -8.035111583e-07)
(0.008329815378 5.206151936e-06 1.232771514e-06)
(0.008325956593 8.747634197e-06 -1.347974095e-05)
(0.008256182447 1.69863419e-05 -2.19783645e-05)
(0.008324833161 1.541605998e-05 -1.453675201e-05)
(0.008356359656 1.742986757e-05 -5.367079198e-06)
(0.008395297037 2.664085933e-05 8.116184304e-06)
(0.008376400673 1.120937734e-05 1.213900737e-05)
(0.008416745598 1.186276964e-05 3.151115998e-06)
(0.008410052613 -5.903841447e-07 -5.393637087e-06)
(0.008360792445 -8.11652916e-07 7.042653623e-06)
(0.008431548707 -3.331857412e-06 1.021958717e-05)
(0.008512456366 4.213606147e-06 7.422865668e-06)
(0.008372597007 -7.438945984e-06 2.259107806e-05)
(0.008363888549 -3.182284984e-06 2.087157339e-05)
(0.008266060883 1.120761441e-05 2.765280421e-05)
(0.008262764691 1.458223722e-05 1.814712284e-05)
(0.008396530378 1.744494755e-05 2.212734843e-05)
(0.008408252633 6.870491246e-06 -4.674871027e-06)
(0.006295427757 3.682052533e-06 -1.321967221e-06)
(0.008286403167 -1.061422517e-07 -2.040025815e-05)
(0.008245707702 -1.185711655e-05 -1.74223686e-05)
(0.008238460667 -2.681355818e-06 -1.682790205e-05)
(0.008305731028 -1.17978882e-05 -1.161686624e-05)
(0.008295972362 -1.798393584e-05 -1.823908491e-05)
(0.008360911237 -1.458760832e-05 -2.317713202e-05)
(0.008322441884 -6.338036199e-06 -3.065429665e-05)
(0.00838961476 5.425125964e-06 -2.378687055e-05)
(0.00839827128 1.648568006e-06 -1.169284508e-05)
(0.008301742502 1.2269097e-05 -8.571491292e-06)
(0.008297413933 6.203619614e-06 -2.903291895e-06)
(0.008235933244 4.021967146e-06 -5.531840934e-06)
(0.008320704098 6.878366091e-06 3.660950492e-06)
(0.008317997686 1.995647979e-05 1.024195364e-05)
(0.008372801976 1.155615063e-05 -8.920872461e-06)
(0.008459509258 -2.116251491e-06 -1.64501467e-05)
(0.008371556244 -7.802256908e-06 2.233431513e-06)
(0.008326377621 2.12479475e-06 -1.781464524e-06)
(0.008325493102 -8.390920522e-06 6.774882366e-06)
(0.006407596585 1.82504666e-05 -1.37344514e-05)
(0.008312936305 7.097872042e-06 -1.857447411e-05)
(0.00833716971 1.080929436e-05 -2.183936067e-05)
(0.008320249155 1.077837867e-05 -8.564159525e-06)
(0.008304770911 4.495650034e-06 -1.03465974e-05)
(0.008248787587 4.927767603e-06 -1.027179154e-05)
(0.008215446047 1.825183752e-06 -5.545534852e-06)
(0.008226518323 -5.033719988e-06 -6.119834559e-06)
(0.008156828122 -1.27926589e-05 -1.071016517e-05)
(0.008215949208 -1.248761667e-05 -1.371346721e-05)
(0.008291423964 -1.213311707e-05 -1.037821635e-05)
(0.008415119473 -6.621631764e-06 -9.337303114e-06)
(0.008439149809 -4.090774399e-07 -5.653667386e-06)
(0.00837071342 -1.028166111e-06 -7.692184572e-07)
(0.008372921065 -3.027119061e-06 -1.76175478e-06)
(0.008396479861 2.726921966e-06 8.073749314e-07)
(0.008332869179 -1.874198326e-06 1.437245817e-05)
(0.008454825123 -3.24843459e-06 1.724061594e-06)
(0.008432393684 -6.034440884e-06 1.634571736e-05)
(0.008444211332 1.931210417e-05 1.678113977e-05)
(0.00631187524 7.899548506e-06 8.142380015e-06)
(0.008330414952 1.70609531e-05 3.401545525e-06)
(0.008329570453 1.328888935e-05 -5.258811197e-06)
(0.008382673374 1.415951516e-05 -1.151799683e-05)
(0.008369500613 -4.845771576e-06 -1.173979571e-05)
(0.008385651714 -1.904221358e-05 -3.499786107e-07)
(0.008379482798 -3.601712129e-06 7.713865447e-06)
(0.008411368652 -1.483220367e-05 1.011913708e-05)
(0.008404949224 -6.401818596e-06 1.38960726e-05)
(0.008434814848 -4.857857446e-06 1.064709692e-05)
(0.008398375597 -1.447533839e-05 3.936094043e-06)
(0.008304805814 -8.136843542e-06 2.947110237e-06)
(0.008259976694 -9.191308624e-06 2.160377758e-06)
(0.008281841128 -1.194083335e-05 -1.281680104e-05)
(0.008337524401 3.764630591e-06 -8.864914405e-06)
(0.008366397744 -4.342907295e-06 5.535349325e-06)
(0.008390041577 8.39664969e-06 4.567054361e-06)
(0.008291141571 2.944316142e-05 6.911302099e-06)
(0.008298094561 2.922558812e-05 5.575623777e-06)
(0.008225561705 1.33593897e-05 4.880763746e-06)
(0.006404284271 7.191798569e-06 1.437542969e-05)
(0.00848010453 8.588552131e-07 1.894742664e-05)
(0.008462511967 -3.136863328e-06 2.684261396e-05)
(0.008447591694 -1.802235558e-05 1.322859742e-05)
(0.008396653038 -3.954472273e-06 1.956002333e-05)
(0.008353789581 1.516669955e-05 6.429381425e-06)
(0.008340090937 1.272715738e-05 -5.475133085e-06)
(0.008416678064 4.600834118e-06 -1.69384041e-05)
(0.008370088208 -5.994069312e-06 -6.885498901e-06)
(0.008368112474 8.007100962e-06 -7.972049381e-06)
(0.008373342204 -2.407663609e-06 7.26448522e-06)
(0.008338615261 -1.991172125e-06 1.276511706e-05)
(0.008360108823 -3.267016945e-06 1.57661982e-05)
(0.008310149038 4.194326102e-06 2.693625019e-05)
(0.008287106296 -4.357368748e-06 1.932661798e-05)
(0.008291403696 9.807645796e-06 -2.285529112e-06)
(0.008266738823 1.763873675e-05 3.328110501e-06)
(0.008355804913 -7.024951184e-06 8.785358761e-07)
(0.008414588781 -2.547481066e-05 1.396372001e-05)
(0.008418403898 -2.142318093e-05 2.022108021e-05)
(0.006349441697 -2.215596123e-05 -8.377888682e-07)
(0.008289971198 -2.161240295e-05 3.032159749e-07)
(0.00829650786 -6.615886523e-06 4.264085183e-06)
(0.008289230542 -1.002374548e-05 5.15398859e-06)
(0.008312606972 3.674195882e-06 6.571383978e-06)
(0.00833142469 -5.50100912e-07 6.125001917e-07)
(0.008273046864 -1.066723304e-05 1.084931539e-05)
(0.008270530552 -2.824241016e-06 1.806863764e-05)
(0.008268026623 9.832999024e-06 1.759964311e-05)
(0.008211070712 2.818172655e-06 1.664512182e-05)
(0.008287072977 5.039730541e-06 2.022610433e-05)
(0.008318792045 1.32140765e-06 1.607852207e-05)
(0.008337596101 7.718938643e-06 4.30814495e-06)
(0.008412896459 2.960701342e-06 1.115610939e-05)
(0.008442651074 -2.874250901e-06 7.930066893e-06)
(0.008338662958 -2.544435281e-05 1.107921523e-05)
(0.008414582225 -3.3498698e-05 1.200771966e-06)
(0.008365112186 -1.367791591e-05 -4.53122686e-06)
(0.008390835826 -1.329550403e-05 -3.03447355e-06)
(0.008366444667 -2.050722533e-05 -1.170026172e-05)
(0.006350999531 6.116157254e-07 4.370259046e-06)
(0.008334856773 -3.170108768e-06 1.671529738e-05)
(0.008308000829 -7.283596826e-07 2.409389105e-05)
(0.008262207561 -4.228974007e-06 1.487432446e-05)
(0.008251293179 -7.554523572e-06 1.395626131e-05)
(0.008337349828 9.957871898e-06 1.834588025e-05)
(0.008320166107 5.424622159e-06 2.066881567e-05)
(0.008342181758 1.508125112e-05 1.402766263e-05)
(0.008320484767 -5.681578989e-07 -1.605707947e-06)
(0.0083174527 -1.150556207e-05 1.177821898e-06)
(0.008324267937 -2.508321538e-05 -3.616618866e-06)
(0.00835189204 -1.555810474e-05 8.49912017e-06)
(0.00837599343 -3.369436324e-05 1.691406655e-05)
(0.008356851164 -2.313757751e-05 1.227693616e-05)
(0.008447453302 -2.723350687e-05 2.3309577e-06)
(0.008456265137 -1.220598116e-05 7.49705741e-06)
(0.008517549048 -1.913822156e-05 7.941509125e-06)
(0.008471612367 -7.708398096e-06 1.096153949e-05)
(0.008355628156 -1.182551142e-05 7.74864156e-06)
(0.008344492904 1.455799607e-06 1.015106142e-05)
(0.006349902033 4.228246623e-06 -9.423499538e-06)
(0.008314072844 -3.585624424e-06 -5.894665111e-06)
(0.008356167871 -4.915778505e-06 -1.303526543e-05)
(0.008308050982 6.58700019e-06 -3.950939522e-06)
(0.008336926242 1.949618027e-06 -3.511018807e-06)
(0.00831757745 -1.298755277e-05 3.968774107e-06)
(0.008326180169 -6.88465032e-06 8.823362098e-06)
(0.008396132175 -1.598334617e-05 2.25158142e-06)
(0.008459879657 -1.24896332e-05 5.276873632e-06)
(0.008413336607 1.741193673e-06 1.240116092e-05)
(0.008468497207 2.610801824e-07 8.673533557e-06)
(0.008442719212 -8.719364834e-06 -1.02744439e-06)
(0.008328535872 -1.394110271e-05 -3.143819528e-06)
(0.00826913112 -1.256060662e-05 -6.909651957e-06)
(0.008252767329 -1.915533591e-05 -6.92076223e-07)
(0.008151019126 -1.223444834e-05 1.089652454e-05)
(0.008120444591 4.215039068e-06 7.050691565e-06)
(0.008171956915 5.671817155e-07 3.746678111e-06)
(0.008231349831 7.058399172e-06 1.014833451e-05)
(0.008208574923 -6.613966193e-06 8.717520801e-06)
(0.006393536059 9.840539462e-06 -8.397265882e-06)
(0.008423641313 1.409003584e-05 -1.148905284e-05)
(0.008361759068 1.094491477e-06 -3.55897522e-06)
(0.008409928874 -2.704070678e-05 -1.373746951e-06)
(0.008462175518 -1.491747963e-05 7.988653604e-07)
(0.008446884882 -8.839899465e-06 -1.190197945e-05)
(0.008418315203 -1.504392555e-05 -7.747447674e-06)
(0.008353595082 -1.668585177e-05 -1.296510742e-06)
(0.008309855438 -1.645970216e-05 -1.43309216e-05)
(0.008306154747 -6.133610361e-06 -4.40306813e-06)
(0.008335781578 8.429259526e-06 -1.279203162e-05)
(0.008285034016 6.539446435e-06 -1.474756602e-05)
(0.00826368932 1.544673691e-05 -1.934618087e-05)
(0.008308657866 2.743792179e-05 -2.331836882e-05)
(0.008277225579 2.991626936e-05 -2.253513282e-05)
(0.008306963139 1.052081862e-05 -1.13447047e-05)
(0.008320395429 -1.477454999e-06 -2.323137973e-06)
(0.008338914374 8.265699666e-06 3.838336054e-07)
(0.008271234583 7.657947431e-06 8.018216077e-06)
(0.008231133919 2.001941548e-05 5.915342951e-06)
(0.006335683921 -1.628067497e-05 -2.358992563e-06)
(0.008284517075 -8.411907874e-06 -8.741335116e-06)
(0.008334959196 -4.964604847e-06 -1.595228807e-05)
(0.008307439656 1.430345545e-05 -1.296625223e-05)
(0.008259081944 -3.386469142e-06 -1.758788028e-05)
(0.00829062946 -5.983918366e-07 -8.450548902e-06)
(0.008241659467 4.171715073e-06 -1.825902975e-05)
(0.008309203943 3.388997411e-06 -1.64883069e-05)
(0.008288032076 6.198637047e-06 5.269444927e-06)
(0.008311511154 6.978066981e-06 -1.136092584e-05)
(0.00829185356 5.697302837e-06 -1.451782095e-05)
(0.008293117948 1.031825603e-05 -3.719665525e-06)
(0.008295264882 8.974908118e-06 -1.176735188e-05)
(0.008302520915 -2.497374486e-06 -8.414710922e-06)
(0.008276744196 2.19166393e-06 -4.320579324e-06)
(0.008249297101 1.73148371e-05 8.153524599e-07)
(0.008252765571 1.482372218e-05 -1.044915006e-05)
(0.008261836049 2.391853242e-05 -7.843899847e-06)
(0.008331089256 1.639556871e-05 -8.638938325e-06)
(0.008364490036 6.27067027e-06 -1.175480483e-05)
(0.006339056533 3.097888281e-06 -4.921463506e-06)
(0.008313264908 2.82557332e-06 -6.910977763e-06)
(0.008248013156 4.917348899e-06 9.319020797e-07)
(0.008221179548 -3.883084673e-06 4.264648858e-07)
(0.008220490681 -7.116815636e-06 -1.167675969e-05)
(0.008274309867 -6.899567637e-06 -4.950374947e-06)
(0.008331681933 5.730914224e-06 1.340808457e-06)
(0.008239420644 7.774057071e-07 2.687448039e-06)
(0.008308616799 -1.463117835e-06 9.146113468e-06)
(0.008290420093 -7.075774149e-07 1.703287271e-05)
(0.00825905138 -7.9000508e-06 1.135182739e-05)
(0.008285723138 5.302367822e-06 1.072187086e-05)
(0.008268584905 4.855066877e-06 6.647441961e-06)
(0.008215185805 2.923649349e-05 1.251603326e-05)
(0.008313300307 1.571095965e-05 -3.019958216e-06)
(0.008278557641 1.579203681e-05 -7.699666201e-06)
(0.008277975607 2.753217287e-05 -6.164606924e-06)
(0.008319709711 -1.245465937e-05 -3.075618697e-06)
(0.008333760861 -1.729286056e-05 -1.7532654e-05)
(0.008337602734 -2.419109051e-05 -3.119119086e-05)
(0.006378542978 8.421744083e-06 1.013816261e-05)
(0.008343750659 4.85244975e-06 1.235135484e-05)
(0.00837172429 1.34296093e-05 7.997955151e-06)
(0.008341403093 1.530463252e-05 1.514483984e-05)
(0.008333447458 8.010165527e-07 1.618723966e-05)
(0.008254010243 1.074619949e-05 1.150852589e-05)
(0.008194497147 -5.95644424e-06 1.316132462e-05)
(0.008192438795 3.751485697e-06 2.327995171e-06)
(0.008150243433 1.039211387e-05 -1.398831834e-05)
(0.008150861583 2.295644283e-05 -1.221615018e-06)
(0.008161910936 1.73673547e-05 5.342138325e-06)
(0.008127255474 2.041489617e-05 4.813679557e-06)
(0.008173856182 6.398472523e-06 -5.08174796e-06)
(0.00826023611 -9.786224717e-06 1.296529453e-06)
(0.008270579745 -6.741748358e-06 1.557767029e-05)
(0.008387538588 -1.297113654e-05 5.619704628e-06)
(0.008376690481 -2.491047317e-05 -8.45769587e-06)
(0.008373934705 -2.125278761e-05 -9.381342959e-06)
(0.00828716778 -3.638333198e-06 1.688944417e-06)
(0.008333798667 -4.097418667e-06 1.085076834e-05)
(0.006379509889 2.835199137e-06 -2.849439376e-06)
(0.008421829173 2.520172069e-05 -9.247169358e-06)
(0.008455589214 1.008840022e-05 -2.073260908e-05)
(0.008367375373 1.57017787e-05 -2.250384542e-06)
(0.008407692445 2.763989826e-05 -7.881354141e-06)
(0.00841489146 3.033188231e-05 1.716222694e-06)
(0.008414690872 4.627202307e-05 -4.408834489e-06)
(0.008384709218 3.121684318e-05 1.237069642e-05)
(0.008396335858 1.105660311e-05 1.322219442e-05)
(0.00847384553 6.321730089e-06 1.85001429e-06)
(0.008491087492 -1.430548051e-05 -4.559235494e-06)
(0.008411744999 -2.844286567e-05 8.548235216e-06)
(0.008453395583 -1.958613483e-05 1.078010279e-05)
(0.008447871207 -4.290357599e-05 1.370217328e-05)
(0.008442304991 -2.636113154e-05 -5.410061156e-06)
(0.00842306454 -2.855658087e-05 1.167824935e-06)
(0.008422710183 -7.635800079e-06 1.580938751e-05)
(0.008351263925 7.419293066e-06 1.788006411e-05)
(0.008345415798 1.398547336e-05 4.623992731e-06)
(0.008391162918 3.09982306e-05 1.340873707e-05)
(0.00633335739 1.918858585e-05 1.448602054e-05)
(0.008297076227 2.08657856e-06 6.541615251e-06)
(0.008306782439 1.160494862e-05 9.268659529e-06)
(0.008320118812 8.654801615e-06 1.116773108e-06)
(0.008353798719 1.578403679e-05 9.442520841e-06)
(0.008403681015 1.030361861e-05 2.592915812e-06)
(0.008463544898 -6.694886034e-06 1.914643801e-06)
(0.008526323673 -6.333966802e-06 3.746656629e-06)
(0.008473171583 -3.947376218e-06 5.312945164e-06)
(0.008415069497 -7.296164882e-06 5.539442106e-06)
(0.008395317664 -1.200750895e-05 4.761815794e-06)
(0.008452182402 -6.46256187e-06 -6.761541579e-07)
(0.008418387692 -4.772629051e-06 -9.428170414e-06)
(0.008349221514 8.201967599e-07 -1.107719098e-05)
(0.008269800781 -6.1081893e-07 -4.994951264e-06)
(0.008206353089 1.289616273e-05 -4.540153487e-07)
(0.008248939744 1.317497912e-05 -4.675479923e-08)
(0.008290531117 8.442018116e-06 -2.390027854e-06)
(0.008303504336 6.557796309e-06 8.422694318e-06)
(0.00827509728 5.994107772e-06 3.787022663e-06)
(0.006333436072 -1.716973753e-05 4.219548879e-06)
(0.008357613563 -5.205499048e-06 4.59724223e-06)
(0.008447455476 2.183878322e-07 2.139801811e-05)
(0.008423292637 -8.922198708e-06 2.01609084e-05)
(0.008421981583 -1.0544027e-05 1.381790276e-05)
(0.008435966363 -2.477118323e-05 2.522922169e-05)
(0.008388199771 -3.081088547e-06 3.347137709e-05)
(0.008369967606 -1.048191299e-05 1.453372623e-05)
(0.008405508421 -6.038627574e-06 4.891693051e-06)
(0.008493643055 3.032370951e-06 1.356045353e-05)
(0.008484124032 2.055965111e-05 6.986796776e-07)