/*--------------------------------*- C++ -*----------------------------------*\
  =========                 |
  \\      /  F ield         | OpenFOAM: The Open Source CFD Toolbox
   \\    /   O peration     | Website:  https://openfoam.org
    \\  /    A nd           | Version:  7
     \\/     M anipulation  |
\*---------------------------------------------------------------------------*/
FoamFile
{
    version     2.0;
    format      ascii;
    class       volVectorField;
    location    "0.004";
    object      momentum;
}
// * * * * * * * * * * * * * * * * * * * * * * * * * * * * * * * * * * * * * //

dimensions      [1 -2 -1 0 0 0 0];

internalField   nonuniform List<vector> 
2400
(
(0.004289069891 0.0002745769102 2.210147105e-05)
(0.01126083864 0.0003626660826 0.0001459791352)
(0.008843739531 0.0006974796856 -0.0008348488563)
(0.006923571131 -0.0009155381156 -9.813809524e-05)
(0.00611488014 0.000180204789 3.034096322e-05)
(0.008792276833 -0.0008218104661 -0.0005199458124)
(0.008212345362 0.0001235438947 1.164030177e-05)
(0.008531452947 -0.0005516823136 0.0004547874599)
(0.01043185616 -0.0002087433463 0.0003374083157)
(0.01149478188 -0.000598467735 -7.863876979e-05)
(0.006175472617 -9.632409196e-05 -1.397615087e-05)
(0.008122521148 -0.0007142579592 0.0003824823808)
(0.0129463478 0.000153886848 4.206533852e-05)
(0.01171054291 -0.0007393336769 0.0003760403257)
(0.004810598177 0.0002241944397 7.509985718e-05)
(0.004179156117 0.0001528363459 -0.0001580008403)
(0.01270304617 0.0003586951752 0.000281839822)
(0.00788174988 -0.0003007256027 -0.000103817585)
(0.007947603395 -0.0001530036606 -5.037832773e-05)
(0.01013160021 -0.0003455350988 9.087070331e-05)
(0.007067136342 0.0007976064953 -0.0003900667475)
(0.009960440545 5.204076052e-06 -0.0001326689154)
(0.009929253415 0.0002750221173 0.0006658472555)
(0.008489782587 -0.0002276039179 0.0001676525681)
(0.006968143085 0.0003140313241 -0.0005622286012)
(0.008218691119 -0.0002938321323 0.0003924279406)
(0.004261390029 3.295921973e-05 0.000185260842)
(0.00657807591 -0.0003556149651 -3.181900785e-05)
(0.007272708104 0.0007181827153 -0.0008529523781)
(0.008988857376 0.0004129916755 0.0004571915025)
(0.005949539762 0.000130828514 0.0001570353469)
(0.0082927537 -0.0001996224668 -0.0002152625215)
(0.01018981755 0.0001724659961 0.0001405876131)
(0.007588196576 -0.0004640888665 -7.228036255e-06)
(0.005146704259 4.564045341e-05 0.0002177372545)
(0.005196175512 -0.0001695584644 -0.000680898149)
(0.006635848495 -0.0004754686388 -0.0008331066596)
(0.003775687826 0.0009048364601 -0.001196315481)
(0.00848662742 0.0002171966561 0.0002381733459)
(0.01202165848 0.0008914031705 0.0007767730878)
(0.00580215 -6.282951122e-05 -0.0006749231599)
(0.007117258984 -0.0001457724714 0.0001862334478)
(0.01074998161 0.0002685280171 -0.0009054329879)
(0.009395790181 0.0006074960141 -0.0002856762402)
(0.006855432307 -0.001140511448 0.0002339084778)
(0.005390762553 0.0005912392446 0.0001643656976)
(0.005459168517 -0.0008175967378 -0.000349928028)
(0.005488588384 -0.0001257478804 0.0004664386188)
(0.006852921192 -0.0004560251575 0.0003449195952)
(0.0139029218 -0.0001032265276 -0.0004804826865)
(0.005463978924 0.0001041820399 -0.0002125459021)
(0.007258530205 -0.0002489556682 7.404658292e-05)
(0.0105291326 8.235123206e-05 -0.0006221638703)
(0.01088247848 -0.00118763037 -0.0002191078838)
(0.01047229633 0.001184175165 0.0003302412111)
(0.006552016004 7.617131072e-07 -3.194306088e-06)
(0.01091132412 7.965958223e-06 -0.0007382847349)
(0.007555284396 0.0004530148771 0.0003538036856)
(0.01446288187 -0.0002039221387 -0.001320265784)
(0.005039519447 0.0009643304707 0.0001995754027)
(0.004800139271 -0.0006357181396 1.194175315e-05)
(0.009720133533 0.0004017377562 0.0004407950772)
(0.009830192289 -0.001196775374 0.0007743166359)
(0.009951107373 0.0006372105877 -0.0002937336362)
(0.005016813001 -0.0002896771527 0.0002624760487)
(0.01223043357 -0.0002706193544 0.0001696858093)
(0.007453456289 0.0003853972502 0.0001102191256)
(0.007039000098 -0.0001313301886 -0.0002969206374)
(0.01279023304 0.0005330771315 -4.439279746e-05)
(0.005509397278 2.917852972e-06 -0.0001595145437)
(0.007755189032 0.0001319282154 -2.440633143e-05)
(0.009363141304 4.959052105e-05 0.0004669997231)
(0.01150745516 0.0002581918806 -0.0001205478069)
(0.009168967405 -9.214950289e-05 0.0003014457084)
(0.005541157701 0.0004615248413 0.0002110344467)
(0.00926556132 -3.680958226e-05 0.0001833435935)
(0.01138318087 9.192072119e-05 -0.0006931797618)
(0.009044666488 -0.0002424110034 0.0002216910228)
(0.004505873486 0.0003061311827 0.0005571504885)
(0.01023099171 -3.964531612e-05 0.0001065307072)
(0.008688332991 0.0001194151535 0.0001734557729)
(0.005965348604 -0.000244756937 -3.394786786e-05)
(0.004014615188 7.515657368e-05 -0.0001000514818)
(0.008097562876 0.00032019157 -0.0001405891762)
(0.00555491391 0.0002173878682 -0.0003399050805)
(0.007979700028 0.0001796882394 0.0004415388936)
(0.005882339546 7.161506991e-05 0.0004106731128)
(0.01150000707 0.0002711791095 -4.660415195e-06)
(0.004491997817 0.0006928287858 -0.0003988602524)
(0.01201480348 -0.0002646321218 -0.0003520646898)
(0.007677137411 -0.0003066919829 0.0001622496025)
(0.00611612073 5.104987118e-05 -1.105859238e-05)
(0.007696180884 4.000957236e-05 0.0008205709221)
(0.006596342434 -0.0007995719968 3.294810673e-05)
(0.006499593899 -0.0002858259791 0.0005312807023)
(0.00830019897 0.0004383095284 0.0002777932783)
(0.007336450882 0.0002926354209 0.0002629398874)
(0.008887703034 -0.0001819576327 0.0005608542765)
(0.01000860474 -0.0001877952498 -5.211562931e-05)
(0.0115775415 0.000949005168 -0.001268303707)
(0.005299779033 6.013811946e-05 -0.0005279915629)
(0.007210992282 0.0002497549647 -1.28914887e-05)
(0.007861598543 0.0003718230455 -0.0003702936584)
(0.00987087501 -0.000512206177 -0.0005139839545)
(0.01095236027 0.0006348815379 -0.001688909089)
(0.0125238534 -0.0006769309274 0.000106676038)
(0.009434259323 -0.0007895695342 0.0006886592297)
(0.009244900584 -0.0006507932401 4.801500601e-05)
(0.006644484679 0.0002532754065 -0.0002636507392)
(0.007754512264 4.648418235e-05 -0.0003020124545)
(0.007335943566 -0.0006750189234 0.0002290632629)
(0.01168325478 -0.0003440598834 -0.0006913899378)
(0.007563273215 0.000309398067 0.0003132086908)
(0.01203591551 0.001278409862 -0.0004836210436)
(0.002248648738 -0.0001476249002 1.8414717e-05)
(0.009143329937 0.0004650413208 -0.0002858338335)
(0.01103876781 -0.0002913720792 0.0004990614651)
(0.007054648286 -3.431717045e-05 -1.560523468e-05)
(0.004535138261 0.0003504083849 -5.385519771e-05)
(0.005474275378 -0.0001758379033 -9.254600899e-05)
(0.008660207251 -0.0001457338662 -0.0004109822037)
(0.009095143698 -4.351107558e-05 -0.0007339880736)
(0.005536629552 0.0006721475194 -0.0004180164576)
(0.008242478925 0.000306887148 0.0005640657891)
(0.007978135836 -0.00100660466 -0.0003967381023)
(0.006012838405 -7.27981744e-05 0.000115629726)
(0.006129612616 0.000443648302 0.0006704493091)
(0.007720644438 -0.0002845470478 1.876841667e-05)
(0.004797358364 4.140143824e-05 -0.0006968011954)
(0.009409487897 0.0002863273036 0.0001111216578)
(0.00871829496 0.0002057647831 -0.0003659500294)
(0.006603739819 -0.0003407113469 0.0003883630534)
(0.007495209983 -5.38328663e-05 0.0006836376888)
(0.006653336339 -0.0006020636766 -0.0002496511718)
(0.009605972904 0.0009342138989 -0.0004736249635)
(0.008215812935 -0.0002579200523 -0.0002244918864)
(0.01139818536 0.0006864035014 0.0008287373289)
(0.006528046987 0.0001298119241 -0.0005140831653)
(0.009247762461 6.005369592e-05 -8.991883339e-05)
(0.01148784967 0.0002117556293 -0.000297344787)
(0.0069887821 -0.0001689848513 0.0003667111435)
(0.009039204685 0.0003593018558 -0.0004680794754)
(0.007078018559 -8.968425701e-06 -0.0005797144766)
(0.00976472333 0.000834162587 0.0003928833568)
(0.01031988457 0.0008552041539 -0.0001103489868)
(0.007072054456 -5.176531099e-05 0.0003806280215)
(0.006926683901 -5.111130272e-06 -0.0005087455532)
(0.00546244283 -0.000222057557 -0.0003362528724)
(0.005226157246 0.0009078282046 0.0001965888764)
(0.01382325264 0.0003846976303 0.0009344725466)
(0.01115108648 0.0004256497655 -0.0001833590641)
(0.01250822135 6.864332879e-05 0.00130182362)
(0.006037574718 0.0005287898617 0.0006107210501)
(0.0104404726 -0.000420949592 0.0004293883927)
(0.004904657527 1.97208814e-05 0.0001329935378)
(0.01339640552 -0.0002162265713 0.0003707336081)
(0.005109439768 6.442780241e-05 0.0004336922256)
(0.007201197147 -0.000433015353 8.271863519e-05)
(0.006493464953 0.0001305704811 -0.0003975068506)
(0.01052155085 0.0009406266657 0.0007946960872)
(0.006204962757 0.0002835150028 -0.0002880550806)
(0.01138209717 0.001120754707 -0.0001586557464)
(0.00721964069 0.0006427827192 -0.0004525665016)
(0.008656189207 0.0002164513666 0.0005469604798)
(0.00863810238 0.0002421960377 -0.0006774214957)
(0.009891123691 -0.0005639203281 0.0002013675384)
(0.005815672866 0.0005592526775 -0.0004864511281)
(0.006286509544 0.0002551361796 1.736940284e-05)
(0.00716198979 0.000217858317 0.0004199927801)
(0.01382091996 0.001033264778 -0.0002622753785)
(0.004338372339 3.259248152e-05 -0.0005143027331)
(0.006959747015 -0.0004478885662 -0.000297394196)
(0.006891433559 -0.001106666773 0.0003236042586)
(0.008190138784 -7.874177625e-05 -7.79941772e-05)
(0.01177504061 0.0004356379897 4.880116646e-05)
(0.008851261306 -0.0004359042827 4.846630598e-05)
(0.006910205821 0.0007221338452 -6.267541414e-05)
(0.007335211147 -0.0001199963487 -0.0001229250952)
(0.009185890151 -0.0008116662362 -6.812265696e-06)
(0.007768606779 -0.0009968598991 -0.0004064997095)
(0.006769678725 -0.0001243148025 0.0002015051863)
(0.005891100283 -3.933846053e-06 -0.0003940019281)
(0.0135247805 -0.0003286684798 -0.0004693472521)
(0.006606025444 -0.0004839260337 -0.0001453685588)
(0.008633954125 -0.0008508552267 0.001120269226)
(0.01278684942 0.0001396900449 -0.0003806935098)
(0.01921771204 0.0005054511191 0.0002358619418)
(0.006235898429 -0.0001890449652 0.0001065837746)
(0.007763110708 0.0003747072587 0.0006103109405)
(0.005027137147 0.0004898026152 -0.0001366329618)
(0.002599599329 -0.0004086074412 -0.0001292717469)
(0.008370403523 -0.0001630019105 -0.0002877305339)
(0.01399760753 -0.001290041385 -0.0006488891477)
(0.007884498646 0.0002269745497 -0.0007080236724)
(0.01144905582 -0.001069925425 -0.0008523707047)
(0.007108567064 0.0007092107559 0.0005873026411)
(0.01084150103 2.938667567e-05 -0.0003670027217)
(0.008234056088 0.0001820195027 -5.998922271e-05)
(0.006073915041 0.0004585160068 -4.780565357e-05)
(0.006988246359 -0.0002259140284 -0.0002568454321)
(0.007605331408 -0.0001548351539 0.000280881089)
(0.008280079044 0.0002119537148 0.0001283626872)
(0.004946581195 -0.0004419633119 0.0001764497004)
(0.005602930869 8.786183784e-05 0.0006684622203)
(0.0058404331 2.150432258e-06 0.0003762736503)
(0.006955369949 -0.0004439792096 5.995287223e-05)
(0.003319589363 1.193651725e-05 0.0003387943026)
(0.003242094658 0.0001438479785 -0.0001695394371)
(0.008389185106 0.0001066027708 -1.230672898e-05)
(0.008638037793 0.0002692291122 -0.0002094989291)
(0.006499674226 -0.00114772135 -0.0003794951738)
(0.01008634017 -0.0003521578451 1.215999992e-05)
(0.009318278092 -5.989470532e-05 -0.0004672685272)
(0.007716222086 8.425694072e-05 -0.000622257301)
(0.01099552593 -0.0004388609897 -1.539420097e-05)
(0.01259174238 0.0006032331355 -0.0004991594462)
(0.01025725703 -0.0005317021309 -5.243924587e-06)
(0.01105999385 0.0003486660424 -0.0004451578542)
(0.00478492284 -0.0003900129553 -0.00100744812)
(0.007858298169 6.167795641e-06 -2.362055777e-05)
(0.006141806817 0.0002344500064 -0.0001876664437)
(0.0088930549 4.157345708e-05 -0.001015413973)
(0.009018336794 0.0003072327095 -0.0001026191537)
(0.008058644167 0.0004505781475 -0.0006389546554)
(0.00901616659 -0.0007308958775 0.0002856854329)
(0.007932680546 -9.417253429e-05 -0.0004480519391)
(0.008497558645 -0.0009111351013 0.0003689710182)
(0.006408428206 -6.32925161e-06 0.0003673546592)
(0.007627776978 0.0001449905947 -0.000394862539)
(0.005337177909 0.0006588422597 0.0004577762225)
(0.01827913168 -0.0001471562066 -0.0004449286337)
(0.009407696486 -0.0007348602048 0.0001266800339)
(0.008261283625 0.0006580484625 -2.813515694e-06)
(0.006154139986 0.0006209440829 -0.001109053581)
(0.01110366171 0.0006636502606 -1.824009204e-05)
(0.007773990756 0.0003915220177 -0.0003917130985)
(0.008557463404 0.0002832961065 -0.0008343251858)
(0.008807132561 0.0006846245118 3.114825748e-05)
(0.006719441984 -0.0002956960181 -2.317593677e-05)
(0.01307738601 0.0002235186125 0.0004847973357)
(0.009685414047 7.958004423e-05 -0.0006684087105)
(0.00706943878 -0.0002242120092 -0.0002639709811)
(0.007874304992 0.0001726213165 3.346600092e-05)
(0.01191481085 -0.0003837322363 0.0004632988646)
(0.01168513313 0.0007234381808 -0.0003502543771)
(0.007156703032 -0.0002075803374 -0.0008527561823)
(0.009467252951 3.121150535e-05 -5.710882302e-05)
(0.01076269254 8.781578282e-05 0.0001700923842)
(0.009030032245 -0.0005678698652 0.0006208434371)
(0.006633677641 0.0001228880245 0.000247115547)
(0.01253962041 0.0002459647956 0.0003435677251)
(0.009308999355 -0.0004750059867 -0.0004218444671)
(0.009228156482 0.0004458904052 0.001007009568)
(0.007677757611 -0.0003402642312 0.0001600086198)
(0.01428232529 0.0001044681597 -0.0003176126359)
(0.006468348535 0.0002539248253 0.0003753495912)
(0.008622580646 -0.0001708093071 -0.0001973056638)
(0.009218679913 -0.0005141520875 0.0003918391423)
(0.007471214436 -3.800296438e-05 0.0003736116947)
(0.00597532299 0.000206952934 0.0001622233488)
(0.005786374874 9.36678067e-05 0.0003385839248)
(0.006472533323 0.0003068271327 0.0003074798353)
(0.007441143459 -0.0002158574427 -0.0001459119945)
(0.008046051203 -0.0001915910368 -0.0009900613598)
(0.003670821648 0.0004408108769 0.0002977567024)
(0.009152450739 0.001286311076 0.0001152071041)
(0.006249070667 -0.0008304205971 -0.0004783072085)
(0.008679584994 -0.0005928102498 -1.117198855e-05)
(0.01483526146 0.001179746075 0.0004902085249)
(0.006917030616 -9.564596395e-06 -0.0003925059462)
(0.005638225753 3.660508409e-05 0.0001037143943)
(0.006476039156 0.0004386983146 0.000233077649)
(0.0123893187 0.0003238576589 -0.0003847866625)
(0.008149335585 -0.0004227076449 -0.0005117825324)
(0.00986193698 0.0001151404313 -0.0003454516253)
(0.007032648395 -0.0004563254081 0.0004719385879)
(0.008867452102 -7.272674554e-05 -0.0004190732764)
(0.008671898539 0.000568269513 0.000200701438)
(0.00730508702 0.0007448467096 1.980688137e-05)
(0.007277282598 9.819741579e-05 -0.0006721006536)
(0.007259613704 -0.0002822437915 0.0007323657369)
(0.008259179056 0.0002999265058 5.034622711e-05)
(0.00592152987 -0.0005034373979 -0.0006265308835)
(0.007277802439 -0.0004116389416 0.0001006828919)
(0.005871354193 0.0002907357754 -6.303458754e-05)
(0.009049395172 -0.0001743652176 -0.0001337971301)
(0.009477456447 0.000384115356 0.000554385485)
(0.006521959795 8.944425755e-06 0.0005898623275)
(0.00364996684 -0.0002988819963 -0.000138557279)
(0.007991817851 -0.0001501911809 -0.0001219368972)
(0.009685362784 0.0006917473645 -0.0007537219014)
(0.004944806618 -0.00055119314 -0.0001891848173)
(0.005564937134 -0.0002427534373 0.0005482126808)
(0.005025251753 0.0002151489226 -2.230185698e-05)
(0.005499582722 0.0002593972228 3.140921411e-06)
(0.007305330877 7.527494283e-05 -0.0001321904983)
(0.008587986355 -0.0005755952308 -0.0003777232697)
(0.009134217799 0.0003516650616 0.0006715394905)
(0.009445080702 0.0001663366658 9.912886226e-05)
(0.007762671336 -0.0001945636474 0.0003004097822)
(0.006343378255 -0.0005706283667 0.0002911771874)
(0.00671373698 0.0006360958573 -0.0004935140528)
(0.01632874207 -0.0001282026711 -0.0002096022348)
(0.008501320169 -6.189402579e-05 -2.633765966e-05)
(0.01385345526 -8.688989886e-07 -0.0008350764117)
(0.007608571207 -9.290424281e-05 -0.0002389864939)
(0.01188316369 0.0005608727244 -0.0002535575582)
(0.01224857201 -0.0002494523039 0.0003455792633)
(0.00764028658 0.000244354748 -0.0002778909252)
(0.00740631349 0.0001695569911 -0.0002967307335)
(0.007486965766 -0.0001144593963 -0.001190989571)
(0.00494302222 -0.0001588375669 -3.615870371e-05)
(0.01498139231 -0.0005933171303 -0.0004334321332)
(0.005682031722 -0.0003655500814 -0.0002467904367)
(0.007378175718 -0.0007891804464 0.000573952497)
(0.00535630505 -0.0005273914545 0.0002510921498)
(0.01403541311 -5.483422399e-05 -0.0004866851788)
(0.006997310192 -5.091214697e-06 -0.000597059546)
(0.0052998896 0.0007135613328 -0.0007142957615)
(0.008932302272 0.0005898767285 -0.0002219496072)
(0.00790958552 8.36869725e-05 -0.0001308207211)
(0.006525735521 2.466056978e-05 0.0005788602165)
(0.006746664064 0.0003273138406 -0.0004432124389)
(0.005732903042 -0.000202855987 0.0006192339159)
(0.003288962522 -0.0002643203952 -5.662164751e-05)
(0.005917589496 -0.0001434760317 -4.675469575e-05)
(0.011312093 0.0008027790372 0.0008244539133)
(0.003679284963 -0.0003502145427 -0.0001511347997)
(0.008931540802 1.323791936e-05 0.0003304519163)
(0.008840579 -0.000348532517 0.0003259108364)
(0.01137478765 -0.0001932165213 -0.0006795140277)
(0.006370535002 6.820669635e-05 -0.000485501588)
(0.006443291433 -0.0009147210833 3.173799276e-05)
(0.009040136828 -0.0003820948391 -7.56799475e-05)
(0.006476364713 0.0001970082767 -0.0001894557241)
(0.003648444164 -0.000260284559 -0.0002036460866)
(0.005120802494 -4.579092176e-05 -0.0001561720377)
(0.00715189897 0.00024772027 -0.0001824744354)
(0.005928050301 0.0003228072088 -7.014293561e-05)
(0.008079042109 0.0005447294562 -0.0003695947711)
(0.007082657664 0.0007275035695 -0.0001061054769)
(0.009028487724 -0.0005164614629 -0.0003600481074)
(0.007601897281 0.001043545957 -8.843356004e-06)
(0.009858687519 5.269483356e-05 0.000148215599)
(0.008515484588 0.0005718395973 0.0005698181385)
(0.007838746635 -0.0008494086549 -0.0001153358543)
(0.004005635732 2.184137365e-06 0.000114628003)
(0.009200281204 -0.0003429271368 0.0003490583517)
(0.009894025565 0.0004214026868 -0.0003040181066)
(0.008628253046 7.285523987e-06 -0.0006155706258)
(0.005715833075 0.0006132589469 -6.138855082e-05)
(0.009734155399 4.379409055e-05 0.0005169163885)
(0.003311684771 -0.0001032316246 -5.059385912e-05)
(0.00938844173 -0.0001189747339 0.0002362096867)
(0.008494984549 -0.0003971537108 -0.0002084666628)
(0.006874289646 9.177370105e-06 9.67573064e-05)
(0.008563471617 8.508423402e-05 0.000110991871)
(0.0108932013 0.001093950681 -0.0003891193818)
(0.01036101833 0.0008342798579 -0.0001465984104)
(0.009629942062 -5.51258154e-05 -0.0001395500083)
(0.005513443921 -0.000406518962 5.793491446e-05)
(0.01074835088 0.0002071581999 0.0004288976296)
(0.008971739184 0.0009392060465 0.0006802060734)
(0.006996445224 0.0005693673424 -0.0005152863576)
(0.01090085716 -0.0004182793213 -8.599025172e-05)
(0.008109848278 -0.0001162864658 0.0005623398835)
(0.01399088095 -0.000166491059 -9.946251497e-05)
(0.003065894852 5.727829926e-05 5.988169817e-06)
(0.00748301357 0.0001109030187 0.0003379757852)
(0.009103095461 0.0001144340423 -0.0008829873734)
(0.00947120772 0.0007501251563 -0.0004002239242)
(0.009532037994 0.0002314758723 -0.0005261948428)
(0.004061987343 -3.75323303e-05 0.0003103168029)
(0.008772391195 -0.0004426364886 0.0001911080838)
(0.005599231106 -1.690593468e-05 -0.0004125192329)
(0.01147900396 -0.0003279867886 0.001140075081)
(0.007428416845 -9.929224157e-05 0.0001389727952)
(0.002664226111 0.0001150301847 0.0003055789722)
(0.01167770707 0.0005376871983 0.0005305913378)
(0.008383894994 2.696574233e-05 -4.829834087e-05)
(0.008001060414 -6.914102669e-05 0.0003977092065)
(0.005792401423 -2.682128715e-05 4.747462968e-05)
(0.009655625002 0.0005159961544 -1.97378876e-05)
(0.008788953256 0.0004572797222 -0.0004200121639)
(0.01652940771 -0.0007560689839 0.00171350197)
(0.009904965341 -6.804582262e-05 0.0003666818995)
(0 0 0)
(0.006246691148 0.0003610271313 -0.0002058685539)
(0.00585445243 -0.0003479955864 -0.0008583172541)
(0.007839143756 8.057529336e-05 0.001074658327)
(0.01059665682 0.0003804171215 -0.0004174318313)
(0.01537415669 -2.886662572e-05 0.001179030716)
(0.008004761286 -0.0002330945982 0.0001840040129)
(0.01668221619 -2.884418637e-05 -9.134228789e-05)
(0.00917927797 0.0004602151992 -0.0002751038499)
(0.0065868904 0.0005503434774 3.088462833e-05)
(0.009520919065 -0.0004483694944 -2.089888285e-05)
(0.006416908682 5.539611932e-05 -6.208082004e-05)
(0.008909264474 -8.683237587e-05 0.0005168994626)
(0.006885165928 -0.0004278030635 -0.0001765238078)
(0.006657260194 7.794542493e-05 -0.0008624598206)
(0.00441106532 5.602583514e-05 -8.101115968e-06)
(0.007488676925 -0.0002950411097 0.0002016568233)
(0.009822921586 -0.0004105052053 0.0007404428279)
(0.01172943206 -0.0007184416499 0.0006713192756)
(0.009299110901 0.0004716510781 0.0003995554813)
(0.005010316177 -0.0001116746055 -1.789737844e-05)
(0.00877164523 -0.0001266022284 0.0002709557146)
(0.006842444829 0.0003482863343 0.0003716949833)
(0.003986098104 -0.0001926600724 -0.0001845928182)
(0.00943917236 2.77956154e-05 -0.0001776355728)
(0.01128630593 -0.0003965840701 -0.0003668065517)
(0.00883879409 0.0007536620554 -0.0006316197127)
(0.008804905322 0.0005324587968 -4.924571859e-05)
(0.01081990347 -6.175528175e-05 -0.0003391453266)
(0.005809267845 0.0003979800974 0.0005494659407)
(0.005617316137 0.0003115681812 0.0005025758581)
(0.007580901641 -8.956976528e-06 0.0002641462712)
(0.003138210938 -0.000115568331 0.0002272481625)
(0.007978887242 -0.0001388146751 0.0001637042469)
(0.007291520071 -4.297632431e-05 0.000314722185)
(0.006632750758 -1.480761041e-05 -0.0004754180468)
(0.01163042136 0.0004278469015 -0.0007478016166)
(0.007050674404 -0.0004063327235 0.0006907182404)
(0.009243313712 -0.0006114888232 0.0005388404069)
(0.01063818298 -0.0006548576417 0.0009275242292)
(0.01414364174 0.001102420542 -0.001782693948)
(0.006802792622 -0.0001713824066 -0.0006719051255)
(0.01154050344 -0.0008806268458 -0.0003851373498)
(0.005982326128 0.0008301615731 0.0002943690246)
(0.007693520312 0.00086894345 0.0002531825329)
(0.007211313295 -0.0003536119596 0.0004188774337)
(0.007830935758 -0.0001756640458 0.000526947516)
(0.005986215486 -0.0003965901704 0.0001662907151)
(0.0120834567 0.0004054168367 -0.0002420947508)
(0.007774675967 5.747042731e-05 -0.0001423735294)
(0.0074611613 -0.0009684554521 0.0001420057318)
(0.0114145597 -0.0001561107442 -0.000948943632)
(0.00600489936 0.0004574732818 0.0003509769342)
(0.007475796868 0.0005147763999 0.0001430049455)
(0.006449237323 -0.000328218947 -0.0004323186036)
(0.006256213268 -0.0001318849731 -3.737951742e-05)
(0.007553789814 -0.0003070859992 -2.986966589e-07)
(0.006397835048 0.0001244779549 0.0003946644496)
(0.005329983439 6.84223147e-05 0.0002467338624)
(0.002760731858 0.0001015884397 -0.0003879348058)
(0.006392577075 -0.0001207637894 0.0002413030692)
(0.007502159123 2.300175805e-05 -0.0009002473798)
(0.005744160898 0.0003155506492 -0.0002660848849)
(0.009277593347 0.0004831485408 0.001361063617)
(0.01136156265 -0.0003373545576 -0.0001609052973)
(0.008120081886 -0.0004353421153 0.0006488336541)
(0.009054864848 -0.0002583386875 0.0007953389996)
(0.007187107699 -0.0002989590376 5.289184358e-05)
(0.008423345052 0.0001009092551 -0.0011165713)
(0.003796302651 0.0002739117576 -0.0006175352465)
(0.004447751717 -0.0001589323235 0.0002358984569)
(0.007072215902 0.0003204810326 0.0003835072267)
(0.009503199095 -0.0007306521356 -0.0003025798254)
(0.007626889075 -0.0001096272441 0.0006335079914)
(0.004968661104 0.0002640151623 0.0003294278867)
(0.009131056928 0.0005922041767 -0.0007287491838)
(0.004511628621 0.0002464228871 -6.141807716e-05)
(0.01021188974 0.00015861697 0.0009815211811)
(0.01084119601 -0.0006660723696 0.0003112327969)
(0.01351801585 -0.0009260574698 -0.0003701723829)
(0.009083892153 -0.0002585382022 7.462469755e-06)
(0.008041687421 0.0002944374958 -0.0001485918999)
(0.002715879516 -0.0002300327563 0.0001080124643)
(0.01047889944 -0.0003787768622 -0.0003266920734)
(0.01124640215 0.0006671046593 0.0006667213735)
(0.01062999009 -0.0002187224208 0.0005957616075)
(0.00899649716 0.0003993273901 7.7800264e-05)
(0.01339095302 -0.0002851655604 -0.000311904182)
(0.007182538888 -4.454905209e-05 -0.00011135629)
(0.007384184679 -0.0002087581089 0.0001127903394)
(0.006179229515 -0.0005415117197 -8.321089565e-06)
(0.007176830198 0.0001055573824 0.0003719826755)
(0.003448910554 0.000221422042 -0.000301691482)
(0.00703412641 -0.0002658221381 -0.001023856724)
(0.005001367792 -5.665287915e-05 -0.0008477730374)
(0.0150905309 0.001278148016 0.0004896537077)
(0.0079960632 0.0005383543634 0.0002612411687)
(0.008943651373 0.0004137964472 -0.0001999385446)
(0.003726309188 0.000247510479 0.0001343985828)
(0.00745808682 0.0002643743488 -0.0007399814239)
(0.007625011543 -0.0003128471247 -6.565236511e-05)
(0.01370155488 9.535028277e-05 -8.229418931e-05)
(0.00863522714 -8.485444365e-05 0.0007677116724)
(0.004871921331 0.0002136956105 0.0001315432681)
(0.01109610397 0.0004534032 0.0004023152514)
(0.005591458744 0.0002293091325 6.444285138e-06)
(0.009811667936 -0.0001447355749 0.0009338805299)
(0.01662876 0.0004079919433 -0.0001574040154)
(0.00630978108 0.0003681656411 -0.0002316045467)
(0.006780671822 0.0005906771317 6.700007786e-05)
(0.007913391903 0.0001362715741 0.000213690819)
(0.01017843475 0.0001105754709 0.0003100045863)
(0.01013376296 8.113903839e-05 -0.0002141997667)
(0.009123639115 0.0003843593002 -0.0006262212661)
(0.006623668282 8.282035033e-05 -6.881556401e-05)
(0.0100376715 -0.0005595749696 0.0008577225291)
(0.005782404207 -0.000251116902 -0.0002191549019)
(0.008834770334 0.0004291404542 -0.0001006488777)
(0.006134400057 -0.0001481426766 5.58704761e-05)
(0.00583985669 -4.453201513e-05 -1.667702134e-05)
(0.007569147417 0.000211932277 -0.0002955670335)
(0.00370950062 0.0001857740714 0.0001005811335)
(0.008105425228 -7.390114182e-05 0.0009379650732)
(0.00973058173 -0.0004589475122 0.0002396094723)
(0.009489284208 -0.0004674976513 -0.0008880048779)
(0.007191833299 -0.0001975682385 0.0005627320676)
(0.005522409756 3.547735172e-05 -1.277092308e-05)
(0.005041806713 -0.0003798182177 -0.0001963168658)
(0.01327564541 0.0001989383243 0.0004968660703)
(0.006193394342 -0.0006548843927 -0.0003110659942)
(0.004579704006 -4.154748182e-05 0.000207462278)
(0.01315871949 0.0001897871081 0.0004086414998)
(0.009460518752 -0.001176847972 -0.0002524223214)
(0.01027931291 -0.0004946799416 -0.0002554271492)
(0.00496049688 0.0003567776695 0.0001740627636)
(0.009565129822 -0.0002408130836 0.0002762739106)
(0.008310355323 -3.80724196e-05 3.434895997e-05)
(0.006713251965 6.935696254e-05 -0.0005906571487)
(0.009250442408 0.0002948048029 -0.0001207219545)
(0.005019569294 0.0001003916474 0.00051744941)
(0.01134567888 -0.0003741756319 -0.0001275830476)
(0.01086973469 -0.0007909142377 0.0006626343488)
(0.005166102615 -0.0001010844121 -0.0002905191336)
(0.006152250163 0.0004007826987 0.0005153130862)
(0.007832074479 0.0002323599789 0.0003922429576)
(0.005850806967 0.0002889631282 0.0003649896127)
(0.01229931431 -0.0008940429966 -8.846500802e-05)
(0.004272812454 -0.0004464358801 -0.0003242490737)
(0.01296961815 0.0003899272604 4.455266697e-05)
(0.008443549485 0.0001421519269 -0.0008571755859)
(0.002261633009 -6.259394286e-06 0.0003334663251)
(0.006672882602 -0.0002511161306 -0.0002557463072)
(0.01213039312 -0.0002495823273 -0.000333287635)
(0.009965241459 -0.0003837060992 0.0006297842441)
(0.006374127336 0.0002601255921 -7.303530814e-06)
(0.003932246033 0.0003222716232 0.0003273412946)
(0.0107754575 0.001002695892 -0.0001258166974)
(0.008320337304 0.0003413719146 -0.0001206726473)
(0.01204540822 0.0006054313747 -0.0009799702043)
(0.009648359019 -0.000128250817 -0.0005032620211)
(0.01190475858 -9.145441968e-05 -0.000493846589)
(0.008383576205 0.0003840179075 4.719379959e-05)
(0.01153427453 0.001000135866 0.0001454809409)
(0.004941332011 -8.894588339e-05 0.0006222519564)
(0.006070229981 0.0006465624214 -4.999763362e-06)
(0.01003117525 -0.000461950919 3.718435265e-05)
(0.01020511148 0.000110003935 2.990792997e-05)
(0.01035393685 0.0001618466384 -0.0001593770677)
(0.004087580083 5.037816136e-05 -0.0004735785571)
(0.0140874203 -0.0007646840704 0.0008563667747)
(0.009211757153 0.0005506964847 -0.0001297283645)
(0.01020297683 -0.0004827772902 0.0002922179003)
(0.01089910529 0.0005940295784 -0.0005909639134)
(0.006632276489 0.0008884421964 0.0004796931233)
(0.008156331193 -0.0005561978954 -0.0008489174514)
(0.007862270787 0.0009943896008 -8.142529511e-05)
(0.009590065365 -0.0001510723782 -0.0002127025264)
(0.008333738243 -0.0007346475355 -0.001057054523)
(0.007061556385 0.0003958252714 -8.634232467e-06)
(0.009160768422 0.0005322624514 -0.0002583489801)
(0.00691896071 -0.0006787346464 -0.0004810149567)
(0.004586646672 -0.0002749883689 0.0002212397092)
(0.0185522679 -0.0004299229873 0.0005157444503)
(0.01140773648 -2.025138746e-05 -0.001437971276)
(0.01226651382 -0.0003526745686 -0.0008000746657)
(0.0085985204 -0.0005650947899 0.0009815892404)
(0.01261106629 0.0006788237367 0.0001713129701)
(0.008948947132 -0.0002170952019 0.0002395754479)
(0.00905828068 0.0002659682512 0.000211079623)
(0.01291904523 -0.0001609020217 0.0005630753949)
(0.009551850503 -0.0001735579157 4.374177735e-05)
(0.007597017867 0.0008691782093 -0.0005291799012)
(0.003525043431 8.322670986e-05 0.0001120557662)
(0.007121207169 -0.000293366877 -1.675708676e-05)
(0.005272093291 -0.0004705506172 7.426765271e-06)
(0.01085030606 0.0002046422409 3.402625872e-05)
(0.006916206552 -0.0003114988965 0.0007435341152)
(0.01062669562 0.0002588745065 -0.0005143132273)
(0.007499452129 0.0006971609083 6.924786863e-05)
(0.01632943729 -0.001231906001 -0.001195200264)
(0.005963994176 0.0007337598482 0.0004996287492)
(0.006736203414 0.0001026972897 -0.0002435545464)
(0.004837874088 0.0002587367719 -0.0002316523743)
(0.005410107988 0.0004518387022 1.350920978e-05)
(0.008799254678 0.000312458062 0.0004405214811)
(0.01064398706 -0.0003062807553 0.0007627132442)
(0.001511848179 -0.0002823008224 -0.0003547420993)
(0.006068144526 0.0006899748538 -0.0002462828288)