/*--------------------------------*- C++ -*----------------------------------*\
  =========                 |
  \\      /  F ield         | OpenFOAM: The Open Source CFD Toolbox
   \\    /   O peration     | Website:  https://openfoam.org
    \\  /    A nd           | Version:  7
     \\/     M anipulation  |
\*---------------------------------------------------------------------------*/
FoamFile
{
    version     2.0;
    format      ascii;
    class       volScalarField;
    location    "0.004";
    object      p;
}
// * * * * * * * * * * * * * * * * * * * * * * * * * * * * * * * * * * * * * //

dimensions      [1 -1 -2 0 0 0 0];

internalField   nonuniform List<scalar> 
2400
(
0.3030070846
0.4151806967
0.4078831089
0.4011637106
0.4070374527
0.4056565926
0.4071458274
0.4062500756
0.4006444064
0.4012956277
0.4111982175
0.4057909381
0.410093767
0.4004308485
0.4087821943
0.4291864232
0.4811374498
0.5903380611
0.9797062351
2.370533724
0.3081428435
0.4163798889
0.4089072938
0.4095412963
0.4149720125
0.4139831801
0.4134283667
0.4161692002
0.4202655659
0.4151044132
0.4123337532
0.409828861
0.4116431938
0.4244638735
0.4237946667
0.4572835394
0.5063324655
0.6732505086
1.146470181
2.021832591
0.3113934547
0.4278062498
0.4218857338
0.4211566638
0.4208887879
0.416949991
0.4108368508
0.4101915198
0.4091349659
0.4157381968
0.4204102979
0.4175314528
0.4172395195
0.418391227
0.4355394664
0.4568754724
0.5243289723
0.6821966604
1.014815345
1.514940086
0.3118945947
0.4193830325
0.4131172352
0.4184425699
0.4127415084
0.4111755169
0.4141782571
0.4175346422
0.4176814859
0.419778803
0.4221531539
0.4219003293
0.4243435556
0.4306127521
0.4364115623
0.465440983
0.5067078829
0.6133759519
0.8137446661
1.163931653
0.3096586015
0.4186265548
0.4076319923
0.4079394238
0.4130279852
0.413097953
0.4114832711
0.4126278514
0.4119613966
0.4140202846
0.4164403246
0.4188347951
0.4212268008
0.4309994735
0.4360314041
0.4668069073
0.5131428355
0.570141622
0.6953121665
0.9423331531
0.3162919219
0.4258371253
0.4223989711
0.4161405094
0.4136776533
0.4109829126
0.4115985483
0.4112251734
0.4100527942
0.4087905414
0.4056772255
0.4034431807
0.4135526522
0.4309248329
0.4326119969
0.4667387076
0.4880389301
0.52597024
0.626706869
0.7660538407
0.3123163853
0.4185662815
0.4158997491
0.4210475549
0.4195027989
0.4158488605
0.4159907475
0.4226126759
0.4180293585
0.4148437887
0.4179754273
0.4204938589
0.4255272419
0.4293123062
0.43284334
0.4446282821
0.4737989098
0.5054170017
0.5477466096
0.6722100656
0.3099501528
0.4222926544
0.4091722895
0.4040169197
0.4115235573
0.4103537613
0.4112153118
0.4098877244
0.4134301679
0.4197071264
0.4183961456
0.4206524795
0.4230866766
0.4261211789
0.4252801687
0.4422485373
0.4617852626
0.4736809334
0.5242865821
0.5991361182
0.3124450876
0.4260663867
0.4143471568
0.4147380746
0.4114916309
0.4168037585
0.4170668441
0.4171752707
0.4190597623
0.4196686863
0.4141367054
0.4166642204
0.4175661426
0.4272433652
0.4362182408
0.4356127356
0.4342826279
0.4693791013
0.499712204
0.5408576522
0.3132452684
0.4247300482
0.4202209679
0.4281153175
0.4253482964
0.4241654069
0.4236508846
0.4235836774
0.4140855272
0.4142464403
0.4122210143
0.4235819258
0.4222483129
0.4243750612
0.4278992863
0.4273203868
0.4302762979
0.4537107144
0.4717008372
0.5109021276
0.312047257
0.4221601402
0.4146747533
0.4208959046
0.4144801838
0.421565707
0.4152510313
0.4163841072
0.4183177971
0.420565824
0.4149403205
0.4107719488
0.4141375069
0.4285269951
0.4277810363
0.4246663382
0.4364997038
0.4495237341
0.4721932871
0.5015744639
0.3094770601
0.4218742256
0.4137440726
0.4117565063
0.4225173824
0.4176713287
0.4131100042
0.4112320519
0.4075033978
0.4052795809
0.4108627305
0.4147494413
0.4164257231
0.4210726308
0.4154333898
0.421196101
0.4245318164
0.4350845375
0.4530094297
0.4900023493
0.3129388092
0.424809697
0.4180625389
0.4120464705
0.4116577239
0.4110205841
0.4163624925
0.4212546098
0.423838293
0.421575406
0.4207134101
0.4139472931
0.4082236092
0.4092632777
0.4092870394
0.4055570292
0.4116832752
0.4197415321
0.4410554953
0.4683421529
0.3159429009
0.4217668647
0.4124855954
0.4232318647
0.4211245985
0.4213996848
0.4171775194
0.416715134
0.4159828745
0.4175590129
0.413225568
0.4230920016
0.4150231561
0.4113477693
0.4174760386
0.419198905
0.4220233463
0.4273711834
0.435446522
0.4381237514
0.3082635755
0.4221000474
0.4191954027
0.4112417567
0.4159795336
0.4166836005
0.4128679809
0.4114267828
0.4069879066
0.4020661219
0.4052222426
0.4181132963
0.4165030348
0.4137122726
0.4213487125
0.4164497496
0.4268345218
0.4189064599
0.433612029
0.4326839122
0.3047338834
0.4136404606
0.4049897039
0.4093615265
0.4058711991
0.407184537
0.4084064191
0.4161973377
0.4136731497
0.4140701565
0.4165672911
0.4120835548
0.4174019619
0.4213109988
0.4184063938
0.415768043
0.4139166223
0.4152875385
0.4400614888
0.434456425
0.3058614508
0.4139409989
0.4020461265
0.4016016535
0.4064777198
0.4073348881
0.4106167369
0.4099484427
0.4214056813
0.4203068462
0.4123429834
0.4151928176
0.4087127576
0.4189599789
0.4221682614
0.4246421409
0.4311845598
0.4254537352
0.428419296
0.4298165782
0.3080199338
0.4143356282
0.4099470541
0.4078300315
0.4083712575
0.4054899913
0.4064655917
0.4094882818
0.4039982501
0.4109021789
0.41897485
0.4287958292
0.4323782638
0.4248133541
0.4255340581
0.4253256519
0.4182345319
0.42852268
0.4325013516
0.4337046337
0.3093096027
0.4204412428
0.4186137342
0.4186798285
0.4153065895
0.4169834261
0.4151724078
0.4140434878
0.4124920655
0.4173159078
0.4131885869
0.4060754984
0.4095898095
0.4144995077
0.4190343071
0.4215857661
0.4224527124
0.4206827692
0.425197416
0.4198768385
0.3139892528
0.4300268479
0.4207686932
0.4202465613
0.4182762318
0.4111747867
0.410460168
0.4148023381
0.41403006
0.4163576783
0.415615648
0.4137829365
0.413960815
0.4116776915
0.4112697079
0.4121810453
0.419138998
0.423728029
0.4333536347
0.4354905718
0.31358434
0.420457213
0.4111884461
0.4139569716
0.4184761248
0.4224575741
0.4183116455
0.4170317008
0.4126557872
0.4070459026
0.4144494709
0.4159152221
0.4191626268
0.4178513251
0.4185556096
0.4146484808
0.4272485661
0.4208993483
0.4230163929
0.413793221
0.3108791165
0.4196817047
0.4134450247
0.4106220106
0.4108143194
0.417522217
0.4175414867
0.4173826621
0.4174376387
0.4188289996
0.4174533671
0.4153500646
0.4130077867
0.4163574495
0.423089115
0.4218203058
0.4278825819
0.4231595761
0.4218464252
0.4168066482
0.3131026574
0.4192799042
0.4124341203
0.4101984614
0.4141388273
0.4114786015
0.414627799
0.4213649545
0.4299101115
0.4241950465
0.4253542256
0.423057149
0.4169311069
0.4142695187
0.4083737418
0.4043193013
0.4028526368
0.4078487094
0.412004519
0.4080469191
0.3119812716
0.4284796996
0.4165652345
0.4217480543
0.4209006355
0.4232740465
0.4214403682
0.4134776508
0.410773298
0.4165269218
0.4206383439
0.4175414282
0.4144996618
0.4165194955
0.4140197274
0.4164374667
0.4205254532
0.4171563722
0.4127278333
0.4099817439
0.3082984936
0.4159495338
0.4108506277
0.4147097101
0.4105176459
0.4119241318
0.4082383251
0.4117494534
0.4099131418
0.4121078376
0.4105536061
0.4073952479
0.4094209829
0.4135590509
0.4137285576
0.4083670563
0.4115645767
0.4111605141
0.41087269
0.4209141071
0.3069986016
0.4165357574
0.4067608646
0.4059391007
0.4057464076
0.4113431369
0.4199222323
0.4131269092
0.4150348766
0.4128293797
0.4092047719
0.4101913023
0.4086187114
0.4063296518
0.4099560931
0.4107794625
0.4114016065
0.4150543981
0.4232725132
0.4183680685
0.3139409017
0.4189886207
0.4143767542
0.4169643535
0.4144134807
0.4075107905
0.4060269596
0.4082740185
0.4074727112
0.4068793432
0.4074165591
0.4084661954
0.4120033036
0.4144069505
0.4179305821
0.4286506389
0.4339101081
0.4332587719
0.4255519955
0.4270934376
0.3128073268
0.4322516363
0.4239619701
0.4156166979
0.4204294508
0.4219940087
0.4172540992
0.4138100999
0.4126695255
0.4203195668
0.4238835227
0.4129656079
0.4182153041
0.4202437878
0.4221469831
0.4194938086
0.4178431411
0.4128463327
0.4073148955
0.412318132
0.3143108028
0.4183737931
0.4105205904
0.4129537738
0.41554687
0.4156663675
0.4232920115
0.4293564461
0.4263932045
0.4206796067
0.4173478435
0.4272982932
0.4244229333
0.4166041554
0.4073920426
0.4055841036
0.4079238635
0.4139355329
0.4127729623
0.4161368879
0.3096497147
0.4271767843
0.4242661605
0.4265077524
0.4249752835
0.4238937813
0.4216856493
0.4200983524
0.4209001769
0.427716818
0.4267914876
0.4167872757
0.4165085138
0.4201251715
0.4192836206
0.4211180283
0.4202885339
0.4129090661
0.4114749934
0.4157846369
0.3059550148
0.4154057801
0.4099686344
0.4118810643
0.4142133374
0.4100387894
0.4155470712
0.4110689834
0.4113744924
0.4093187943
0.4052748682
0.4117998569
0.4143245619
0.4145293782
0.4119313551
0.4117665458
0.4175136339
0.4199679424
0.4163855868
0.4219908165
0.3121593433
0.4214975111
0.4117200779
0.4066717663
0.4088316968
0.4158607215
0.4130528648
0.409035954
0.4093061147
0.4126277791
0.4145000137
0.4044029038
0.4081295026
0.4074387519
0.4141611946
0.4158238952
0.4142365114
0.421917748
0.4265393589
0.4258213591
0.3078513801
0.4159256426
0.4097598191
0.4100476736
0.4095728523
0.4079556259
0.4121225499
0.4125702017
0.4117267256
0.4103779031
0.4162111089
0.4168084596
0.417587184
0.4200097195
0.425336986
0.4252149722
0.4235864795
0.4229065625
0.4193292694
0.4182373241
0.3112466672
0.4198719696
0.4142359778
0.4146558269
0.4175183905
0.4176711592
0.4113860968
0.4014074504
0.4035194399
0.4091800655
0.4137646735
0.4120196574
0.4160433911
0.4200311869
0.41201326
0.4094922327
0.4140510217
0.4144359605
0.412468957
0.411832944
0.3106831772
0.4154859149
0.4070597565
0.412982661
0.4083434167
0.4046906706
0.4143112549
0.4206534346
0.4222268866
0.4198056461
0.4176530491
0.4200411977
0.4123247984
0.4077068412
0.413007368
0.4138434462
0.4123957906
0.4108552754
0.4099926881
0.4113336057
0.3137253122
0.4319908004
0.4236758775
0.4185777399
0.4178667602
0.4169818608
0.4129427275
0.4131121413
0.4092045041
0.4082944385
0.4089237076
0.407837816
0.4143631218
0.4158724407
0.4115060473
0.4125843621
0.4153878742
0.4124577382
0.4115030747
0.4096443742
0.3113533676
0.4219110811
0.4157708593
0.4190291598
0.4228523311
0.4147320495
0.4160085183
0.4158122695
0.4125246015
0.4191914268
0.4171032224
0.4175768443
0.4162373689
0.4106849747
0.4054964158
0.4081164524
0.4070422197
0.4059104853
0.4069125729
0.4060324557
0.3078518682
0.418281702
0.4042565027
0.4124853087
0.4117554367
0.4163494108
0.420275066
0.4157132031
0.4123744667
0.4016490886
0.4058054118
0.403236926
0.400368411
0.4018423208
0.401368682
0.4009490673
0.4044175805
0.4027559042
0.3982772685
0.4019784061
0.3109331684
0.4229937976
0.4131032719
0.4094897302
0.4074867772
0.4031592771
0.4004563284
0.4087099892
0.4100753267
0.4160142879
0.4107986973
0.40787472
0.4096624352
0.4121776098
0.4107821185
0.4069246327
0.4087210437
0.4137767381
0.4202084978
0.4159120099
0.303261359
0.411088963
0.4075149398
0.4061795303
0.4080905243
0.407004011
0.4067198173
0.4063834129
0.407570782
0.402277545
0.4077363712
0.4069502982
0.4092296915
0.4073502859
0.414704656
0.4174595102
0.4171011218
0.4133910258
0.4088722249
0.4083912874
4.603760028
4.89756465
4.873243237
4.680086027
4.477552778
4.398887415
4.310873748
4.273590783
4.138777115
4.084461321
3.923239668
3.822446163
3.824784299
3.760754945
3.634472588
3.609139156
3.607596355
3.588900777
3.452519432
3.365429761
3.266960004
3.266647227
3.323546129
3.240599889
3.287788035
3.275078313
3.132357025
3.151240042
3.088435087
3.082007968
3.043224568
2.983766996
2.984412656
2.981931122
2.893982876
2.830692909
2.684477171
2.60049616
2.329436913
1.879110102
3.057526091
3.543363754
3.801733917
3.971773865
3.942574333
4.066892072
4.001386513
4.002871501
4.016847865
3.969342092
3.832031482
3.817793277
3.807953294
3.771908228
3.691396979
3.595782069
3.576945367
3.555270588
3.534645399
3.476675263
3.403841938
3.376225729
3.410308623
3.337974288
3.333205752
3.244095798
3.193402531
3.177959296
3.086464
3.107112733
3.087368855
3.021210267
2.949562794
2.980271099
2.896562761
2.793836684
2.707011673
2.466544279
2.206597154
1.789001492
2.202971017
2.650109204
2.925486931
3.24115466
3.369888157
3.472127062
3.588419363
3.658840872
3.689514733
3.690697636
3.673019046
3.672716826
3.676088836
3.614494571
3.585937029
3.648410867
3.593450897
3.433089281
3.424163244
3.353334124
3.390978189
3.363285654
3.357702256
3.254496518
3.330232504
3.231403546
3.17295644
3.174348067
3.159411781
3.073820728
3.055029019
2.979799246
3.04774051
2.939410889
2.88651297
2.810090783
2.627021906
2.438502459
2.180992045
1.79455128
1.626473157
1.899631153
2.240531167
2.530883629
2.714246924
2.923390822
3.120377976
3.272574951
3.278446964
3.338592252
3.473898542
3.4320749
3.490487055
3.438707326
3.425879754
3.463207001
3.455145965
3.409898051
3.402966426
3.352252095
3.34828624
3.347474719
3.353271333
3.282497445
3.2838389
3.180272451
3.158681277
3.114810648
3.146803526
3.072002872
3.019837524
3.038658166
3.018306645
2.918565178
2.8463037
2.698494963
2.59420641
2.427586484
2.165324869
1.794709173
1.254158319
1.490529358
1.763263566
1.977243592
2.202112382
2.413048898
2.648701037
2.834740643
2.926382655
2.969614507
3.081931536
3.153081195
3.234864633
3.320715266
3.282379318
3.293534283
3.350923793
3.353269199
3.256550242
3.258077893
3.269897258
3.224136206
3.21656649
3.177734934
3.170929316
3.070655278
3.094487542
3.062257897
3.048113257
3.012080231
3.027370398
3.060308294
2.922548844
2.859928984
2.734090333
2.700787735
2.56099368
2.349855193
2.206689049
1.894251618
0.9334338188
1.146958609
1.35693071
1.598201615
1.778244034
1.898357199
2.253637282
2.338401256
2.514547173
2.676217584
2.739070941
2.91999575
2.986921137
3.032564406
3.141762162
3.0918347
3.266308862
3.16310413
3.130074997
3.177515232
3.219001042
3.098620038
3.144771244
3.078659837
3.118712962
3.067295198
3.133667707
3.028724272
3.021712967
3.000606676
2.963617078
2.997069695
2.937448949
2.869038464
2.811155244
2.704839198
2.546594341
2.446751612
2.248877541
2.00495095
0.7975014197
0.9749907343
1.086722321
1.31411256
1.459465111
1.555762088
1.812245135
1.974516906
2.19025125
2.302804507
2.433470789
2.566687549
2.657449935
2.807060031
2.867813429
2.93375905
3.019068186
3.058649542
3.116876607
3.072083611
3.131925706
3.017369223
3.057570036
3.020635908
3.046332037
3.062012757
3.052207465
3.048212088
3.020508034
2.936115642
2.972243086
2.990245043
2.920921063
2.833450597
2.767806058
2.72034986
2.626920149
2.498835424
2.287328113
2.072149385
0.7033440471
0.787038582
0.9106504946
1.05700903
1.217593437
1.320265167
1.496356381
1.661144539
1.840957427
2.015123166
2.098480073
2.291734605
2.413892161
2.505775938
2.645951926
2.713563801
2.793289043
2.882443106
2.909159929
2.947450783
2.977760904
2.953029083
3.020366703
3.029916197
2.976658935
2.96340871
3.017126528
2.986756324
2.994500566
2.92512762
2.905201486
2.919658161
2.825519504
2.826273055
2.747731013
2.641011843
2.598598389
2.471405605
2.348234276
2.194481497
0.6217194004
0.6991437201
0.7778579934
0.8696641354
1.00682216
1.114673246
1.249428552
1.340819237
1.486285589
1.61889232
1.789866599
1.952226317
2.112107653
2.231312186
2.334023526
2.468990317
2.550749461
2.650944773
2.746586026
2.822200113
2.872050423
2.910012125
2.905806325
2.953235071
2.893222407
2.911961661
2.930320784
2.960825875
2.928069142
2.910214071
2.868167715
2.851436137
2.847692335
2.767248342
2.782410173
2.676486226
2.549437444
2.505888504
2.397297643
2.228227522
0.5683179653
0.6233655403
0.6851763285
0.7557436417
0.8469776891
0.9157112847
1.006187391
1.121908941
1.260195442
1.37834571
1.516445448
1.659862004
1.856473013
1.929346822
2.044489788
2.170155387
2.313463759
2.47918773
2.552900882
2.576253939
2.651746153
2.729406328
2.741481991
2.779218342
2.893603857
2.841909198
2.874023032
2.859357917
2.841733278
2.87759869
2.745697024
2.780803328
2.837245656
2.790471977
2.749524923
2.698531003
2.609994707
2.506369442
2.399633784
2.258180009
0.5248973907
0.5747162434
0.6347280222
0.6798042427
0.7046741306
0.7664625761
0.841778861
0.9859719521
1.069734774
1.147857092
1.304139363
1.361343907
1.57705956
1.730158513
1.790554888
1.932067437
2.086595757
2.158636207
2.27729545
2.386108432
2.43435046
2.586798421
2.644076013
2.700790952
2.79083659
2.812577955
2.822938514
2.720763071
2.762946002
2.788554553
2.801200664
2.843320225
2.826984181
2.754899092
2.698899643
2.724106731
2.583535227
2.471766421
2.399191228
2.339797706
0.4823715558
0.494485648
0.5423918118
0.592142608
0.6266083755
0.6845022405
0.7496189414
0.8445076755
0.8983890154
0.9713565622
1.064982349
1.218431006
1.299129315
1.445684999
1.597414606
1.718551265
1.815701548
1.919360005
2.067450406
2.199798122
2.337080571
2.412386018
2.473175727
2.534688632
2.641884164
2.687227414
2.687307344
2.694970923
2.699616923
2.779290381
2.793341016
2.773992726
2.708576633
2.749520195
2.657946512
2.674856452
2.608767576
2.507047913
2.485104572
2.391122166
0.4867799317
0.4841600493
0.5039929461
0.5360943142
0.5771625468
0.6193542049
0.6832108721
0.7277383022
0.8013433446
0.8394407021
0.9309307518
1.01406536
1.112264356
1.220473451
1.325486022
1.462855815
1.586617151
1.666388872
1.820056517
1.944369297
2.09938586
2.189817279
2.282053322
2.390040434
2.419608314
2.516266037
2.641937592
2.668456803
2.687809246
2.681603966
2.706606217
2.784705426
2.758748402
2.693876739
2.634183713
2.607010981
2.679499031
2.60441997
2.559929633
2.447569633
0.4581939371
0.4608949113
0.481572252
0.5218516747
0.5417096022
0.567853118
0.6011988939
0.6392915803
0.7039953807
0.7479345516
0.8108850395
0.8777838491
0.955879207
1.07250501
1.120016795
1.250922183
1.367727903
1.47660357
1.591642039
1.749446265
1.889703991
2.006929135
2.058303085
2.203911718
2.26353901
2.369076262
2.456386348
2.519111591
2.544977953
2.579299489
2.648909628
2.638195707
2.685938789
2.675696317
2.626472511
2.635382229
2.61829597
2.606519285
2.570210724
2.506224009
0.4524995968
0.46888642
0.487270412
0.487212523
0.5330113821
0.5470439608
0.5675435029
0.5800067362
0.6089028265
0.6521116639
0.7305429174
0.7634521585
0.8140074757
0.887444021
0.9779484097
1.075446979
1.182991733
1.278843358
1.376515336
1.492899284
1.627888219
1.729030034
1.854427305
1.942500974
2.082922941
2.165767646
2.267963467
2.327655279
2.422844845
2.52763264
2.496431486
2.609842674
2.626565507
2.669162742
2.657174724
2.582602083
2.600557145
2.556375936
2.506596214
2.42141224
0.4433856156
0.4408599741
0.4556077328
0.4622065772
0.4861461244
0.5074479519
0.5169430497
0.5268146509
0.5668159508
0.587187071
0.6464077107
0.6796366787
0.7206145624
0.7770444859
0.8244995297
0.924484677
1.001526095
1.093516817
1.198367381
1.260755762
1.384224149
1.509698132
1.639515931
1.723176998
1.868671265
1.992851507
2.093863367
2.169182914
2.24555837
2.367887294
2.379390624
2.434472764
2.551248364
2.673871282
2.62603357
2.616332019
2.595939518
2.543284031
2.54579191
2.548356043
0.446204242
0.4439007135
0.4483346632
0.4475432166
0.4594567775
0.4736052138
0.4916985025
0.510053543
0.5335893581
0.548249448
0.5698862759
0.6140679262
0.6603321189
0.721590154
0.7544924833
0.8106730098
0.8856387177
0.944446818
1.044247148
1.140767511
1.228226876
1.320297
1.442915828
1.527681786
1.64710743
1.765621932
1.86555147
1.991653658
2.113712238
2.177372893
2.310321777
2.347539984
2.384761027
2.49605357
2.56414453
2.586793313
2.577022733
2.572404345
2.536815076
2.483221388
0.4300123728
0.4329229699
0.443793777
0.4586930646
0.4684310487
0.4665718296
0.4854432511
0.4931614032
0.5074194447
0.521350758
0.543162075
0.566300449
0.613688784
0.6362623649
0.6636805667
0.709722861
0.7672137337
0.8350101091
0.8795308105
0.9544056334
1.037267552
1.145303912
1.190235549
1.319442585
1.452588703
1.563805578
1.701035763
1.807435186
1.959296321
2.040161936
2.116080812
2.173943996
2.273490031
2.323640307
2.432478883
2.466085781
2.53392268
2.553905502
2.506691309
2.493812022
0.4319863389
0.4386865381
0.4480074869
0.4517786972
0.4473111514
0.4591353874
0.4665314062
0.4736050382
0.4805408369
0.4877957615
0.49694789
0.5263122038
0.5508722341
0.585311061
0.6219182834
0.6646628342
0.7004286112
0.7403270168
0.7718620258
0.8369192085
0.9069857055
0.9837571078
1.072813592
1.172476787
1.264604193
1.355398626
1.497017559
1.605781512
1.699785562
1.850940629
2.008343654
2.076009946
2.149567768
2.21221841
2.247931393
2.330287265
2.38586586
2.462782638
2.402748801
2.416362397
0.4363125322
0.4371074251
0.4340301179
0.440015989
0.4449468778
0.4493929922
0.449138256
0.4656017584
0.4798968938
0.4935806603
0.49467607
0.5109943428
0.5264463375
0.5443445983
0.5836815344
0.6030954918
0.6272366568
0.6684655216
0.7079300191
0.761258576
0.8079486044
0.860134069
0.9105865016
0.975365624
1.084853483
1.182235103
1.282836214
1.395686085
1.503143948
1.629586087
1.751309989
1.888167888
1.981007945
2.04401738
2.149576768
2.224983628
2.247230966
2.308402253
2.355634003
2.344421175
0.4184124022
0.4135638134
0.4259022797
0.4295860316
0.436216083
0.4389062077
0.4423045343
0.4499216471
0.4441958098
0.4622415498
0.4775841845
0.4728963831
0.4954923448
0.5104836203
0.5348205037
0.5584074259
0.5844230806
0.6106143389
0.6389420003
0.6738014377
0.7136326419
0.7791386133
0.8299673322
0.8821286266
0.9441404331
1.027725464
1.119945847
1.227399946
1.343356638
1.451099418
1.576092936
1.69635139
1.78374315
1.89076445
1.956260561
2.07422911
2.154836015
2.191372773
2.269328508
2.302225457
0.4252231768
0.4193899257
0.4253922452
0.4223890247
0.4257550541
0.4348013421
0.4326217039
0.4343088588
0.4417698715
0.450125834
0.4576226532
0.4718625393
0.4660654975
0.4860360778
0.5048348242
0.5242304292
0.5419268457
0.5591525406
0.5827306014
0.6123792059
0.6623640637
0.6844525072
0.7352376691
0.7876271785
0.8679208064
0.9298165811
0.9895008446
1.086369597
1.15628905
1.246097294
1.367991178
1.443818954
1.586767272
1.727666962
1.788923247
1.888282233
1.980546849
2.056525658
2.128767216
2.237642783
0.4108907484
0.4147322914
0.4091180144
0.4148445277
0.4125906219
0.4271803214
0.4291968398
0.4323500438
0.4363491313
0.4370648361
0.4550075246
0.4450890001
0.45749445
0.465955406
0.4850378645
0.4973960519
0.5193620507
0.540547948
0.5493052826
0.5647837696
0.5894151108
0.6291940177
0.6588993291
0.6989302755
0.7388817022
0.8157332511
0.8670123323
0.9410246223
1.031101758
1.100195434
1.200851948
1.317759115
1.392178242
1.496479331
1.635239498
1.749561626
1.809414524
1.912509718
2.017552678
2.073558096
0.4076662584
0.4181909096
0.4232271654
0.4267672879
0.4260695693
0.4250552632
0.4208589976
0.4321586055
0.4257423994
0.4311446267
0.4300267278
0.432162586
0.452486324
0.4582018407
0.4606788991
0.4781325937
0.4989793815
0.5088847937
0.5183835144
0.5227739522
0.5528112864
0.5876951463
0.6119174701
0.6456119984
0.6758725799
0.7073238098
0.7732511453
0.849598131
0.885956206
0.9622226308
1.033665307
1.137861258
1.237307234
1.323645942
1.466887551
1.594262506
1.738908081
1.796465471
1.887859515
1.969030267
0.4175538546
0.4150163471
0.4154149148
0.4190662025
0.4195621526
0.4218767303
0.4173997841
0.4171262432
0.4228520964
0.4226211309
0.4299597024
0.4316656012
0.4366672019
0.4437576966
0.4525741141
0.4684383964
0.4895486677
0.4987149559
0.4996931665
0.520908227
0.5286247525
0.5360708568
0.5648893187
0.5894177269
0.6276760668
0.6440146929
0.7042153474
0.7571823062
0.7971692751
0.8325111238
0.9113370649
0.9979193603
1.101501061
1.213426488
1.309878098
1.406991233
1.56139005
1.650141294
1.739634204
1.820219721
0.4222777591
0.4210147753
0.4231425774
0.4192809839
0.4184145592
0.4047536039
0.4126859179
0.4145769817
0.4170538604
0.4331385674
0.4476108857
0.4412217321
0.4357192684
0.4388721792
0.4595620577
0.4545020572
0.4574469244
0.4788067718
0.4789999314
0.4891124122
0.5115471445
0.5171077864
0.524485617
0.5480321975
0.5865279305
0.5950182965
0.6254098354
0.6612748412
0.7097199876
0.7571254551
0.7986069815
0.8797448993
0.9752859855
1.054436301
1.155123034
1.231771158
1.353567078
1.449308363
1.55126857
1.685327518
0.4179623783
0.4176793221
0.4186513059
0.4134247114
0.41371683
0.4294331106
0.428504766
0.4258119133
0.4231958607
0.4124894742
0.424652787
0.4321263455
0.4324429307
0.4347105306
0.436730584
0.4466878272
0.4534091335
0.4607414331
0.471580831
0.4737909051
0.4849201515
0.5064019563
0.5009225839
0.5132433373
0.5257733202
0.5649954643
0.5752347966
0.6127119883
0.6588524481
0.7041547585
0.7343638168
0.7723724402
0.8374863643
0.9268564613
1.004522877
1.09409654
1.182440007
1.31249986
1.452629927
1.535029581
0.4152783354
0.4240424689
0.426936251
0.4275414061
0.4211541008
0.4171207924
0.4231778613
0.4238733725
0.4251969396
0.4263839628
0.4212688647
0.4248847878
0.4287532311
0.4243063255
0.4294099192
0.4357026227
0.4338811952
0.4441954266
0.4604953273
0.4552423681
0.4555359144
0.469775919
0.4799439518
0.485030894
0.5074826809
0.5367140684
0.551746772
0.5701284647
0.6043119069
0.6383321143
0.6896861414
0.7093643732
0.7691106973
0.8110336041
0.9082651811
0.9900457099
1.047771884
1.151943122
1.261186296
1.385110653
0.4165556122
0.4115630544
0.4125996004
0.4111862488
0.4181864017
0.4149317735
0.4172514564
0.4170186567
0.4235860406
0.4288632946
0.4346115567
0.4263496231
0.4225332088
0.4238433872
0.4205049548
0.4275585341
0.4360467017
0.4342250885
0.4461205198
0.4573470809
0.4534790067
0.4533885264
0.4642950918
0.4839592248
0.4912780964
0.5047791509
0.5286771683
0.5365320844
0.5610882134
0.5947076484
0.6262089743
0.6662322557
0.7022773757
0.7506259089
0.7707816574
0.8604729286
0.9326468979
0.9968906338
1.108480705
1.213444995
0.40947051
0.4129327189
0.4142371152
0.4203719706
0.4178593267
0.4247978649
0.4220541785
0.4219591392
0.4219249237
0.4187375318
0.412980515
0.4178924224
0.424298141
0.424814602
0.4204405377
0.4225195303
0.4265990313
0.4240381504
0.4189565378
0.4341146472
0.4436556905
0.4566870661
0.4541535038
0.4611725224
0.4753106452
0.4927816932
0.4976942239
0.5376289552
0.5425873327
0.5755035774
0.5833057665
0.6199011779
0.6495892418
0.6787796379
0.7185152122
0.7447618261
0.8274912646
0.8858985505
0.9705043765
1.031397084
0.4328912247
0.4289126568
0.4244277928
0.4243563297
0.4213342032
0.4201001123
0.4177086161
0.4205577539
0.4151233348
0.4166041349
0.4136109701
0.4151855641
0.4125569777
0.4043415079
0.4095287315
0.4054775215
0.4127815358
0.4179428658
0.4237137781
0.4225380282
0.4350728389
0.439163232
0.4490558437
0.4551710407
0.4576899401
0.4730392191
0.49841825
0.4949875185
0.5116647652
0.536408882
0.5497891995
0.563539473
0.5816356597
0.6309992523
0.6615549896
0.6851311937
0.7321221629
0.7932649328
0.8459532017
0.9405820023
0.4261882446
0.4239353316
0.4292144243
0.429347526
0.4185943019
0.4185266305
0.4169907189
0.41109951
0.4112538417
0.411449161
0.4093982183
0.4108125535
0.4156740098
0.4167335837
0.4240817093
0.4249076929
0.415523708
0.4159429303
0.4186016225
0.4258952566
0.4263500874
0.4413113159
0.4461804373
0.456760576
0.4530980622
0.469595682
0.4699458707
0.4854397418
0.4914616649
0.5037545772
0.5138468927
0.5273409725
0.5678118102
0.5831919787
0.6112972356
0.6327053085
0.6709072972
0.7073809542
0.7792812843
0.8449725825
0.4168322622
0.4106450802
0.4076444471
0.4075814902
0.4157888151
0.4145958896
0.4134977541
0.4132071461
0.4128341425
0.4185473532
0.4209670579
0.4191962517
0.4177375971
0.4167880991
0.4181801293
0.4167014717
0.4263627218
0.4250671336
0.4255906434
0.4272292211
0.4321079014
0.434563604
0.4400325105
0.4428249101
0.4523041004
0.4530230833
0.4579872931
0.4628207655
0.4723753525
0.4916566044
0.5119271623
0.5154965313
0.5155191862
0.538952005
0.5679652041
0.5976052599
0.622415934
0.6646153591
0.7072714021
0.7724654731
0.4053647718
0.4080702608
0.412566263
0.4123176975
0.4032180275
0.4067487582
0.4080878237
0.4180977036
0.4250592759
0.4218641429
0.4171961677
0.412688508
0.4130239048
0.4187299892
0.4264851837
0.4265178253
0.426426128
0.4366310946
0.4382683051
0.4362909939
0.4380420134
0.4403794182
0.4377598521
0.4417441649
0.4450484862
0.440090983
0.4440579365
0.456592876
0.4672055369
0.472428777
0.4764649636
0.4865751165
0.4949888697
0.504212871
0.5227431464
0.5516100961
0.5902604479
0.605144448
0.6421330379
0.6827781824
0.4141733605
0.4160586447
0.4121659942
0.4132948782
0.4174555243
0.4233919088
0.4251482257
0.4148129931
0.4140030758
0.4198503201
0.424072087
0.4238915018
0.4263640016
0.4162262541
0.4173317019
0.4198297118
0.4352581354
0.4285876952
0.443221198
0.4384164477
0.4294907347
0.4310360977
0.4308259505
0.4320093554
0.4377758343
0.4426442381
0.4344269074
0.4363016325
0.4413033516
0.4508575998
0.4583220676
0.4623575318
0.4725833058
0.4940104951
0.5082976884
0.5420183233
0.5525557165
0.5759161705
0.6089374474
0.643288165
0.4072441114
0.4104690433
0.4165105486
0.4201089327
0.4234357751
0.4164900221
0.4131895458
0.413858521
0.4047698714
0.4023620781
0.3978654441
0.4018587585
0.4083037297
0.4195101939
0.417818923
0.4169713684
0.419531473
0.4208711754
0.4178706979
0.4184965368
0.4265130268
0.4273582372
0.4257326427
0.4307077931
0.4362692811
0.4372828009
0.4447609142
0.4406785359
0.4436480459
0.4466601722
0.446172622
0.4634117136
0.4675912674
0.4759632787
0.4849824603
0.4995662258
0.5401545179
0.5382814115
0.568346347
0.5911995588
0.412277193
0.4081313584
0.4079819577
0.4091090951
0.4063136496
0.4111409629
0.4120712734
0.4192872232
0.4192023551
0.420382459
0.4155397388
0.419745099
0.4143268979
0.4073028285
0.4151043451
0.4172668033
0.4116551052
0.4075180057
0.4102465054
0.4142587466
0.4102223819
0.4179339242
0.4243506508
0.4264164744
0.4253549835
0.4249922571
0.4305615676
0.433092904
0.4298128848
0.4333063348
0.4441437173
0.4550376485
0.4612355859
0.4706033892
0.4679075756
0.4720204236
0.4893203396
0.517864839
0.5323055528
0.5566904699
0.4014413791
0.4040151854
0.4111655596
0.4121421233
0.4152825136
0.4120312727
0.4135660098
0.4152726902
0.4133821712
0.4183196751
0.4129996132
0.4116122662
0.4173261877
0.4157833384
0.4136268102
0.4120060829
0.4205128073
0.416740602
0.4192055877
0.4145414671
0.4101905479
0.4127552115
0.4262628205
0.4233661749
0.4377840493
0.4294775646
0.4215780991
0.4245626199
0.4332440931
0.4364472365
0.4334121506
0.4381182107
0.4422655879
0.453571163
0.4661348276
0.4750122949
0.4779467023
0.4826383038
0.496169423
0.5206075723
0.4177779251
0.414364312
0.4146581697
0.414097026
0.4106167104
0.4114831464
0.4148814325
0.4174691471
0.4172595786