/*--------------------------------*- C++ -*----------------------------------*\
  =========                 |
  \\      /  F ield         | OpenFOAM: The Open Source CFD Toolbox
   \\    /   O peration     | Website:  https://openfoam.org
    \\  /    A nd           | Version:  7
     \\/     M anipulation  |
\*---------------------------------------------------------------------------*/
FoamFile
{
    version     2.0;
    format      ascii;
    class       volScalarField;
    location    "0.004";
    object      qMean;
}
// * * * * * * * * * * * * * * * * * * * * * * * * * * * * * * * * * * * * * //

dimensions      [1 0 -3 0 0 0 0];

internalField   uniform 0;

boundaryField
{
    flow
    {
        type            calculated;
        value           uniform 0;
    }
    obstacle
    {
        type            calculated;
        value           nonuniform List<scalar> 
40
(
3015.962698
2627.306909
2289.689962
2111.850306
1914.03555
1734.664437
1676.126854
1566.950154
1554.362713
1421.457517
1344.705275
1256.6361
1275.466723
1252.465318
1128.191948
1085.302256
1091.084644
1049.312618
1047.20948
918.5830072
921.0043821
974.3367441
924.033627
925.4088832
937.8085733
924.9674076
811.2258164
821.5019597
820.6649969
884.0317055
830.1424328
788.1271119
781.2501322
772.0932393
742.7990186
793.5252915
690.9873543
739.214074
662.126799
637.6942101
)
;
    }
    frontAndBack
    {
        type            empty;
    }
}


// ************************************************************************* //
