/*--------------------------------*- C++ -*----------------------------------*\
  =========                 |
  \\      /  F ield         | OpenFOAM: The Open Source CFD Toolbox
   \\    /   O peration     | Website:  https://openfoam.org
    \\  /    A nd           | Version:  7
     \\/     M anipulation  |
\*---------------------------------------------------------------------------*/
FoamFile
{
    version     2.0;
    format      ascii;
    class       volScalarField;
    location    "0.004";
    object      rhoMMean;
}
// * * * * * * * * * * * * * * * * * * * * * * * * * * * * * * * * * * * * * //

dimensions      [1 -3 0 0 0 0 0];

internalField   nonuniform List<scalar> 
2400
(
3.677910244e-06
4.770262828e-06
4.801867855e-06
4.75400512e-06
4.785581507e-06
4.746805298e-06
4.743519786e-06
4.732869598e-06
4.691191216e-06
4.693127386e-06
4.725740383e-06
4.708482201e-06
4.722806239e-06
4.674178492e-06
4.707866734e-06
4.686145217e-06
4.712226659e-06
4.806447098e-06
5.108205502e-06
6.379279789e-06
3.704269947e-06
4.730299319e-06
4.757373735e-06
4.747132193e-06
4.780988622e-06
4.800248582e-06
4.80761659e-06
4.824008848e-06
4.863502269e-06
4.836598538e-06
4.803223028e-06
4.766073589e-06
4.758631642e-06
4.781947959e-06
4.752969343e-06
4.819971653e-06
4.832384826e-06
4.939765956e-06
5.31010564e-06
6.163432287e-06
3.727221566e-06
4.793432933e-06
4.824076955e-06
4.812835773e-06
4.817163727e-06
4.774067062e-06
4.742935456e-06
4.732973842e-06
4.709983588e-06
4.766567005e-06
4.806448764e-06
4.775011924e-06
4.809462679e-06
4.797078978e-06
4.870427161e-06
4.878967994e-06
4.884988326e-06
5.013994226e-06
5.270558274e-06
5.73535469e-06
3.73123762e-06
4.778738053e-06
4.810662476e-06
4.8562107e-06
4.829573568e-06
4.81467853e-06
4.839556843e-06
4.858405659e-06
4.846121202e-06
4.843693283e-06
4.832901881e-06
4.856943741e-06
4.858085428e-06
4.84539316e-06
4.811604006e-06
4.848158284e-06
4.856770557e-06
4.950184848e-06
5.130087707e-06
5.480846366e-06
3.708064184e-06
4.757165247e-06
4.756821377e-06
4.750379903e-06
4.790225526e-06
4.80402501e-06
4.796509124e-06
4.803670309e-06
4.811527567e-06
4.823260498e-06
4.829544096e-06
4.853406939e-06
4.830060318e-06
4.859909856e-06
4.817503431e-06
4.797551565e-06
4.864777672e-06
4.923180518e-06
5.030405958e-06
5.248671382e-06
3.740235731e-06
4.803078482e-06
4.854714313e-06
4.783401545e-06
4.752312741e-06
4.736366098e-06
4.709877677e-06
4.700468422e-06
4.705579195e-06
4.69600342e-06
4.686048471e-06
4.689435728e-06
4.723054197e-06
4.784995512e-06
4.818889743e-06
4.884289755e-06
4.868798724e-06
4.883089125e-06
4.950184015e-06
5.030322542e-06
3.729374556e-06
4.74609725e-06
4.812639782e-06
4.830277137e-06
4.863476963e-06
4.816819857e-06
4.846321359e-06
4.910817645e-06
4.852926021e-06
4.802980903e-06
4.785342714e-06
4.796057677e-06
4.794435072e-06
4.753583977e-06
4.75119636e-06
4.745556035e-06
4.79560623e-06
4.825638951e-06
4.87603135e-06
5.025306015e-06
3.72038561e-06
4.773521368e-06
4.769260689e-06
4.704719936e-06
4.74452609e-06
4.746325212e-06
4.754899682e-06
4.733387486e-06
4.770331769e-06
4.822833524e-06
4.819548012e-06
4.84348896e-06
4.841793249e-06
4.811150059e-06
4.832421796e-06
4.863307111e-06
4.85856718e-06
4.84883936e-06
4.887778757e-06
4.93378176e-06
3.732623932e-06
4.8371887e-06
4.846869552e-06
4.846181812e-06
4.809002901e-06
4.853931493e-06
4.862057015e-06
4.856393882e-06
4.860745476e-06
4.853686035e-06
4.824629314e-06
4.813635256e-06
4.79654776e-06
4.803056508e-06
4.794652724e-06
4.753742687e-06
4.75820269e-06
4.866694368e-06
4.883721255e-06
4.91532878e-06
3.737288257e-06
4.799829106e-06
4.842715617e-06
4.896458303e-06
4.886884194e-06
4.864370693e-06
4.84030436e-06
4.835008737e-06
4.800632755e-06
4.78019997e-06
4.768161804e-06
4.858743697e-06
4.867872191e-06
4.837679615e-06
4.825989486e-06
4.880070211e-06
4.851092428e-06
4.846426437e-06
4.900481856e-06
4.902239843e-06
3.713733148e-06
4.754078226e-06
4.756465843e-06
4.781368628e-06
4.761652222e-06
4.827457547e-06
4.789524455e-06
4.840888689e-06
4.827012765e-06
4.84865951e-06
4.847207591e-06
4.815602564e-06
4.813142674e-06
4.884456275e-06
4.900106015e-06
4.812120228e-06
4.867285362e-06
4.912528352e-06
4.911249617e-06
4.929648653e-06
3.717755867e-06
4.813052593e-06
4.835392077e-06
4.805090258e-06
4.847218421e-06
4.820904018e-06
4.789287328e-06
4.770784049e-06
4.746164525e-06
4.766777992e-06
4.779875574e-06
4.795195919e-06
4.798426653e-06
4.806482401e-06
4.837191199e-06
4.861297834e-06
4.81097021e-06
4.807576288e-06
4.800384797e-06
4.839509042e-06
3.702840835e-06
4.779769663e-06
4.81169242e-06
4.752794492e-06
4.741206941e-06
4.757183888e-06
4.802904464e-06
4.854854693e-06
4.916344562e-06
4.863357723e-06
4.883842474e-06
4.845625288e-06
4.839803446e-06
4.81494013e-06
4.76123358e-06
4.763823853e-06
4.768011426e-06
4.767333683e-06
4.814854214e-06
4.86195277e-06
3.762610519e-06
4.788979595e-06
4.794030592e-06
4.832008985e-06
4.828897491e-06
4.823189058e-06
4.813604118e-06
4.798630976e-06
4.763083002e-06
4.778820323e-06
4.730224547e-06
4.744098804e-06
4.721933338e-06
4.736315486e-06
4.75104567e-06
4.775151472e-06
4.772589003e-06
4.778182362e-06
4.773962818e-06
4.763926431e-06
3.69879031e-06
4.783196389e-06
4.821407743e-06
4.778041981e-06
4.796172752e-06
4.763531116e-06
4.750253685e-06
4.721586968e-06
4.718438504e-06
4.669054909e-06
4.703562108e-06
4.788016925e-06
4.754292546e-06
4.739144553e-06
4.774316686e-06
4.758780354e-06
4.81301479e-06
4.779635114e-06
4.790535759e-06
4.782069699e-06
3.714122319e-06
4.757090475e-06
4.785969012e-06
4.792531705e-06
4.755488177e-06
4.79204079e-06
4.80722242e-06
4.832981965e-06
4.829485465e-06
4.840167624e-06
4.836169065e-06
4.811651285e-06
4.852813446e-06
4.897737871e-06
4.818714892e-06
4.814498681e-06
4.763797714e-06
4.772685749e-06
4.854965603e-06
4.849702784e-06
3.671864606e-06
4.726934036e-06
4.729938787e-06
4.730727439e-06
4.769286829e-06
4.770085478e-06
4.80943352e-06
4.794535983e-06
4.84262137e-06
4.83715173e-06
4.785890907e-06
4.783119117e-06
4.745212998e-06
4.78953112e-06
4.794716666e-06
4.829268333e-06
4.871530212e-06
4.81589249e-06
4.798572033e-06
4.802441041e-06
3.757314896e-06
4.773861906e-06
4.810938239e-06
4.798939543e-06
4.781995759e-06
4.746794155e-06
4.721547499e-06
4.718742072e-06
4.680556024e-06
4.726247961e-06
4.77749962e-06
4.849678312e-06
4.873885858e-06
4.838156368e-06
4.827027762e-06
4.841244223e-06
4.804195696e-06
4.881312809e-06
4.868315307e-06
4.874947774e-06
3.69987472e-06
4.780230274e-06
4.811187029e-06
4.837894769e-06
4.826436767e-06
4.843595704e-06
4.840856718e-06
4.861561933e-06
4.85406021e-06
4.867203925e-06
4.83030161e-06
4.780359824e-06
4.751034006e-06
4.764586366e-06
4.800615259e-06
4.822814362e-06
4.839526017e-06
4.778174864e-06
4.783156087e-06
4.739065614e-06
3.752396782e-06
4.862187398e-06
4.865261089e-06
4.860099183e-06
4.82865901e-06
4.801474518e-06
4.796613368e-06
4.843794194e-06
4.812214474e-06
4.81328972e-06
4.817963209e-06
4.798944541e-06
4.803544925e-06
4.776635362e-06
4.766891401e-06
4.763014894e-06
4.756855014e-06
4.806576648e-06
4.84396488e-06
4.84967248e-06
3.716472133e-06
4.749347459e-06
4.785562866e-06
4.788122835e-06
4.799337878e-06
4.816827355e-06
4.77449237e-06
4.771753384e-06
4.770854656e-06
4.735093195e-06
4.7909116e-06
4.802982569e-06
4.813426768e-06
4.845420132e-06
4.864373192e-06
4.808475849e-06
4.857687093e-06
4.82870931e-06
4.844447465e-06
4.828157785e-06
3.706547489e-06
4.75487271e-06
4.769146448e-06
4.742790077e-06
4.738919402e-06
4.789692641e-06
4.787416766e-06
4.801191778e-06
4.780380652e-06
4.783072671e-06
4.791821158e-06
4.806271414e-06
4.831098593e-06
4.824348552e-06
4.877264784e-06
4.87543619e-06
4.919852725e-06
4.888001408e-06
4.819584148e-06
4.804891767e-06
3.719204454e-06
4.767258911e-06
4.806511873e-06
4.772756356e-06
4.796826022e-06
4.783441014e-06
4.783199722e-06
4.834023573e-06
4.874205568e-06
4.846814254e-06
4.870402168e-06
4.859932663e-06
4.789867492e-06
4.750685137e-06
4.744458816e-06
4.688848899e-06
4.668230433e-06
4.708184465e-06
4.749895652e-06
4.736404734e-06
3.737848114e-06
4.824147562e-06
4.824704086e-06
4.855966908e-06
4.885402803e-06
4.889453328e-06
4.871875749e-06
4.820833411e-06
4.797073146e-06
4.801913156e-06
4.820278554e-06
4.785626808e-06
4.769404403e-06
4.794888185e-06
4.776872489e-06
4.799039621e-06
4.805473597e-06
4.802528623e-06
4.760508036e-06
4.74103209e-06
3.705126707e-06
4.742012255e-06
4.792845271e-06
4.785615144e-06
4.750446344e-06
4.768249386e-06
4.734218107e-06
4.777316438e-06
4.765828132e-06
4.779910044e-06
4.768527648e-06
4.780146338e-06
4.778452292e-06
4.786890547e-06
4.775656863e-06
4.753794132e-06
4.755805908e-06
4.766455263e-06
4.799417962e-06
4.819751501e-06
3.70266765e-06
4.755153471e-06
4.743010229e-06
4.717283488e-06
4.721713186e-06
4.756391071e-06
4.79755823e-06
4.749345793e-06
4.784723081e-06
4.767881043e-06
4.747169163e-06
4.762423067e-06
4.754054586e-06
4.731364567e-06
4.777671972e-06
4.767084893e-06
4.761857378e-06
4.78987499e-06
4.805510567e-06
4.808483347e-06
3.730410332e-06
4.773619781e-06
4.815022401e-06
4.802958096e-06
4.799664253e-06
4.755876515e-06
4.719665273e-06
4.715063223e-06
4.689295347e-06
4.692550555e-06
4.702094359e-06
4.688120023e-06
4.715193607e-06
4.766275413e-06
4.775825049e-06
4.836935744e-06
4.835246697e-06
4.835558596e-06
4.78326533e-06
4.809871325e-06
3.732727343e-06
4.831407993e-06
4.874597239e-06
4.826003961e-06
4.844983994e-06
4.844957021e-06
4.842852665e-06
4.823931576e-06
4.833163481e-06
4.883829144e-06
4.888847337e-06
4.838623957e-06
4.856230174e-06
4.857270949e-06
4.86466343e-06
4.846891526e-06
4.851384333e-06
4.810644147e-06
4.800780946e-06
4.830179871e-06
3.71159682e-06
4.7554309e-06
4.781679695e-06
4.79828294e-06
4.816682808e-06
4.839602456e-06
4.880298174e-06
4.920628047e-06
4.886881695e-06
4.84849549e-06
4.835904966e-06
4.872085903e-06
4.854586429e-06
4.803132947e-06
4.748143497e-06
4.719021167e-06
4.7430875e-06
4.780992787e-06
4.787425097e-06
4.77050912e-06
3.706789614e-06
4.794411432e-06
4.871293085e-06
4.86451024e-06
4.863546737e-06
4.868324471e-06
4.84326433e-06
4.824993179e-06
4.84234644e-06
4.895123958e-06
4.889452494e-06
4.838957517e-06
4.828194754e-06
4.839494046e-06
4.832196645e-06
4.866994603e-06
4.839778973e-06
4.765558201e-06
4.746921206e-06
4.779122225e-06
3.73749258e-06
4.769465012e-06
4.793844911e-06
4.775827548e-06
4.792124726e-06
4.746123389e-06
4.776516955e-06
4.777145752e-06
4.760439096e-06
4.739143719e-06
4.725653635e-06
4.772438625e-06
4.784681946e-06
4.805608146e-06
4.816602204e-06
4.821895327e-06
4.85212154e-06
4.88621926e-06
4.891504885e-06
4.906841059e-06
3.723939386e-06
4.796066008e-06
4.817441989e-06
4.751183551e-06
4.775661862e-06
4.823738917e-06
4.804959875e-06
4.776601725e-06
4.791602673e-06
4.809998375e-06
4.828711809e-06
4.792018816e-06
4.824745222e-06
4.842176588e-06
4.866314361e-06
4.843724421e-06
4.846316361e-06
4.89000152e-06
4.892082237e-06
4.89480706e-06
3.756623823e-06
4.802737111e-06
4.8381144e-06
4.818260946e-06
4.837736059e-06
4.830058652e-06
4.851258948e-06
4.867179452e-06
4.834948961e-06
4.823535427e-06
4.861958602e-06
4.840925659e-06
4.822702308e-06
4.850828329e-06
4.884417326e-06
4.913088209e-06
4.888810055e-06
4.870851636e-06
4.860680701e-06
4.851899409e-06
3.731098906e-06
4.746505062e-06
4.817166226e-06
4.835320637e-06
4.83863562e-06
4.82203904e-06
4.770858822e-06
4.732011172e-06
4.75456081e-06
4.791638809e-06
4.800461236e-06
4.779709054e-06
4.794926821e-06
4.816642506e-06
4.765830631e-06
4.749653526e-06
4.780157168e-06
4.781472039e-06
4.741323682e-06
4.720605137e-06
3.729165235e-06
4.76469311e-06
4.769563424e-06
4.789695141e-06
4.739895402e-06
4.75438346e-06
4.811414158e-06
4.82843438e-06
4.849117622e-06
4.850822498e-06
4.819654755e-06
4.812284248e-06
4.775004426e-06
4.750609531e-06
4.752652445e-06
4.778336385e-06
4.80642627e-06
4.799086068e-06
4.786087732e-06
4.824370526e-06
3.745629766e-06
4.843008042e-06
4.87624567e-06
4.827476709e-06
4.808276525e-06
4.796581397e-06
4.774368131e-06
4.797323082e-06
4.743198722e-06
4.715771271e-06
4.768791747e-06
4.770631172e-06
4.838212812e-06
4.854961437e-06
4.825695395e-06
4.795200084e-06
4.800805939e-06
4.790570229e-06
4.790949403e-06
4.757883292e-06
3.735904445e-06
4.792777163e-06
4.822577235e-06
4.832305055e-06
4.870247312e-06
4.823738917e-06
4.824052482e-06
4.83826811e-06
4.865300558e-06
4.890372363e-06
4.874040715e-06
4.85853802e-06
4.803003709e-06
4.763996205e-06
4.737571726e-06
4.749952929e-06
4.755273857e-06
4.758558536e-06
4.767140504e-06
4.771640809e-06
3.722975883e-06
4.773998121e-06
4.764250827e-06
4.836538762e-06
4.839234113e-06
4.873818584e-06
4.877317583e-06
4.836181562e-06
4.800050924e-06
4.719776182e-06
4.746620137e-06
4.739527059e-06
4.748343654e-06
4.774033425e-06
4.75771344e-06
4.752588503e-06
4.760963649e-06
4.764933569e-06
4.746286577e-06
4.739786159e-06
3.721866168e-06
4.7925039e-06
4.81640288e-06
4.782259858e-06
4.748397598e-06
4.726056448e-06
4.714783295e-06
4.763420207e-06
4.769163943e-06
4.83381144e-06
4.796258355e-06
4.811683777e-06
4.804915928e-06
4.829527121e-06
4.839797302e-06
4.79054409e-06
4.809012066e-06
4.838758193e-06
4.867834388e-06
4.859812277e-06
3.634397436e-06
4.690270514e-06
4.704828346e-06
4.685324594e-06
4.704211213e-06
4.712410674e-06
4.734407954e-06
4.751425676e-06
4.74115133e-06
4.732010339e-06
4.77862881e-06
4.778910404e-06
4.805711557e-06
4.763798547e-06
4.797489289e-06
4.793929681e-06
4.794756135e-06
4.765912068e-06
4.734791293e-06
4.706642465e-06
1.165837172e-05
1.362474823e-05
1.441744651e-05
1.441909426e-05
1.433974807e-05
1.449870183e-05
1.445538056e-05
1.493227194e-05
1.496621133e-05
1.508836142e-05
1.462112733e-05
1.451485421e-05
1.487703987e-05
1.462563371e-05
1.447224607e-05
1.450457711e-05
1.464116128e-05
1.459939209e-05
1.436282206e-05
1.388530099e-05
1.356630624e-05
1.373160868e-05
1.403713421e-05
1.37739509e-05
1.405310698e-05
1.406241809e-05
1.369928487e-05
1.364021057e-05
1.361016603e-05
1.355609099e-05
1.335514208e-05
1.33701589e-05
1.322203764e-05
1.334769286e-05
1.324447033e-05
1.293369753e-05
1.2279728e-05
1.17386911e-05
1.074324003e-05
8.866295089e-06
7.90426339e-06
9.389506365e-06
1.0511645e-05
1.149212613e-05
1.183717165e-05
1.243408178e-05
1.265406642e-05
1.285594226e-05
1.305075824e-05
1.318634866e-05
1.297991421e-05
1.305485841e-05
1.319713141e-05
1.335207893e-05
1.316779186e-05
1.294937459e-05
1.296510513e-05
1.304818332e-05
1.272916665e-05
1.284426644e-05
1.272016712e-05
1.257656169e-05
1.290951276e-05
1.266425209e-05
1.280266592e-05
1.268107517e-05
1.248651291e-05
1.238787184e-05
1.23683875e-05
1.257594074e-05
1.241719486e-05
1.234843044e-05
1.219631964e-05
1.226087345e-05
1.188198072e-05
1.173063117e-05
1.128501066e-05
1.056008512e-05
9.727984818e-06
8.350617947e-06
6.608649728e-06
7.633197912e-06
8.557219468e-06
9.607364592e-06
1.033572503e-05
1.080352149e-05
1.127538666e-05
1.159566158e-05
1.186317366e-05
1.215968282e-05
1.229771057e-05
1.243645008e-05
1.252943794e-05
1.244051797e-05
1.247575636e-05
1.265534618e-05
1.267964291e-05
1.217276597e-05
1.223216436e-05
1.200708183e-05
1.210225342e-05
1.201567207e-05
1.208665191e-05
1.202207342e-05
1.230478411e-05
1.190956815e-05
1.174976284e-05
1.178911888e-05
1.17623448e-05
1.168966415e-05
1.174987248e-05
1.151307192e-05
1.169954899e-05
1.129924546e-05
1.137212112e-05
1.124802961e-05
1.058833583e-05
1.004935286e-05
9.415947626e-06
8.401428939e-06
6.03077325e-06
6.538872533e-06
7.277626805e-06
8.020951108e-06
8.705022667e-06
9.379618395e-06
1.009528376e-05
1.063836857e-05
1.083744222e-05
1.120773284e-05
1.161706957e-05
1.169543512e-05
1.186262627e-05
1.194051636e-05
1.192474088e-05
1.204903023e-05
1.206316969e-05
1.203732302e-05
1.210011849e-05
1.193884036e-05
1.196151171e-05
1.200330316e-05
1.200475609e-05
1.184991911e-05
1.186002026e-05
1.155175681e-05
1.166699252e-05
1.152885633e-05
1.154828861e-05
1.139901483e-05
1.124856106e-05
1.148892451e-05
1.145720672e-05
1.13098502e-05
1.10445802e-05
1.070467304e-05
1.051469174e-05
1.010799568e-05
9.360958669e-06
8.392374164e-06
5.643838481e-06
5.986548514e-06
6.425259323e-06
6.89250918e-06
7.6009994e-06
8.226411832e-06
8.927610259e-06
9.56659779e-06
1.004741338e-05
1.026364518e-05
1.071528055e-05
1.108850261e-05
1.143778361e-05
1.171275858e-05
1.174204629e-05
1.183088053e-05
1.195325874e-05
1.195274766e-05
1.180362501e-05
1.189845029e-05
1.186833142e-05
1.180403082e-05
1.178074509e-05
1.170094882e-05
1.170656831e-05
1.146541766e-05
1.144262167e-05
1.155519301e-05
1.143703725e-05
1.123498252e-05
1.139073156e-05
1.142872472e-05
1.118098064e-05
1.098136653e-05
1.063120983e-05
1.068113982e-05
1.035418419e-05
9.807820181e-06
9.376392048e-06
8.520514693e-06
5.203897437e-06
5.477700565e-06
5.809060868e-06
6.297527549e-06
6.686738433e-06
7.07897761e-06
7.856977022e-06
8.299981212e-06
8.897815939e-06
9.485836872e-06
9.804566771e-06
1.042534539e-05
1.075058089e-05
1.101576703e-05
1.141387311e-05
1.146621682e-05
1.196184491e-05
1.181531918e-05
1.176406312e-05
1.19123372e-05
1.198813744e-05
1.170159512e-05
1.186067962e-05
1.161695153e-05
1.175029018e-05
1.159587668e-05
1.172080366e-05
1.129803261e-05
1.126519731e-05
1.123821144e-05
1.109549726e-05
1.116951932e-05
1.109916168e-05
1.099838414e-05
1.093027541e-05
1.060819509e-05
1.028312441e-05
1.000424876e-05
9.533781382e-06
8.925085274e-06
5.178873419e-06
5.42754379e-06
5.598631741e-06
5.891799214e-06
6.111410208e-06
6.413241837e-06
6.943224379e-06
7.428297844e-06
8.044342289e-06
8.506914988e-06
9.034680328e-06
9.446433313e-06
9.871744317e-06
1.039650611e-05
1.074094445e-05
1.100775878e-05
1.130955241e-05
1.156868619e-05
1.17463816e-05
1.162400272e-05
1.17041056e-05
1.144104562e-05
1.149057113e-05
1.150204706e-05
1.162270479e-05
1.171598359e-05
1.169402974e-05
1.165833379e-05
1.143182606e-05
1.132250458e-05
1.135065308e-05
1.134548382e-05
1.111263675e-05
1.087036042e-05
1.082146676e-05
1.079163569e-05
1.053889194e-05
1.024730831e-05
9.728742491e-06
9.18282622e-06
5.032808731e-06
5.141915799e-06
5.260495498e-06
5.486704846e-06
5.764411096e-06
6.043047187e-06
6.368786627e-06
6.805029333e-06
7.275966213e-06
7.757860222e-06
8.117399349e-06
8.636604203e-06
9.063335096e-06
9.513241159e-06
1.001151799e-05
1.032241663e-05
1.064885947e-05
1.096556046e-05
1.114722626e-05
1.136236243e-05
1.152939876e-05
1.157888599e-05
1.171708541e-05
1.172922857e-05
1.153922031e-05
1.151859564e-05
1.16653365e-05
1.15644218e-05
1.156288824e-05
1.139842027e-05
1.143557137e-05
1.135102942e-05
1.111552252e-05
1.103362911e-05
1.085918653e-05
1.066975878e-05
1.059983261e-05
1.022193233e-05
9.985404059e-06
9.614423055e-06
4.968029589e-06
5.058944329e-06
5.164717836e-06
5.32531673e-06
5.531775283e-06
5.766355617e-06
6.071380591e-06
6.232019773e-06
6.507281706e-06
6.817521046e-06
7.28763471e-06
7.806506454e-06
8.288112222e-06
8.715224638e-06
9.150362435e-06
9.628923804e-06
9.957397231e-06
1.033039348e-05
1.072931711e-05
1.110684236e-05
1.131929928e-05
1.144947249e-05
1.156591938e-05
1.163510968e-05
1.156322092e-05
1.156240022e-05
1.157299399e-05
1.174416604e-05
1.17318322e-05
1.164882486e-05
1.152533485e-05
1.158939183e-05
1.135901111e-05
1.110923542e-05
1.111670704e-05
1.080284791e-05
1.054708777e-05
1.050792345e-05
1.013431419e-05
9.750283343e-06
4.963907537e-06
5.060535589e-06
5.148149955e-06
5.272519037e-06
5.408094212e-06
5.479187416e-06
5.578651383e-06
5.814947798e-06
6.124858471e-06
6.426218452e-06
6.723917856e-06
7.163255565e-06
7.625009063e-06
7.894079326e-06
8.292960869e-06
8.763011664e-06
9.2335903e-06
9.7744257e-06
1.011880221e-05
1.030712858e-05
1.062427193e-05
1.096344238e-05
1.105082204e-05
1.128434508e-05
1.155999035e-05
1.152980799e-05
1.162439899e-05
1.164829631e-05
1.1606486e-05
1.169818271e-05
1.134905276e-05
1.128820421e-05
1.143014594e-05
1.140499902e-05
1.123816477e-05
1.111257195e-05
1.081113059e-05
1.060295173e-05
1.044833192e-05
1.005650869e-05
4.970006382e-06
5.055269455e-06
5.118912217e-06
5.125546399e-06
5.095406263e-06
5.240160354e-06
5.352912106e-06
5.617480487e-06
5.79507134e-06
6.04405006e-06
6.326763421e-06
6.508760827e-06
6.968703267e-06
7.423806874e-06
7.696752471e-06
8.158442175e-06
8.57209875e-06
8.918511994e-06
9.348686163e-06
9.743550311e-06
1.00450159e-05
1.052782391e-05
1.089417098e-05
1.121337883e-05
1.145184232e-05
1.153986419e-05
1.151772181e-05
1.129153453e-05
1.137372683e-05
1.14797499e-05
1.156464753e-05
1.165353083e-05
1.155056454e-05
1.136535504e-05
1.125971949e-05
1.127684102e-05
1.096397242e-05
1.072733364e-05
1.051945256e-05
1.03786642e-05
4.814710806e-06
4.772505136e-06
4.822931608e-06
4.886033063e-06
4.957271036e-06
5.051260097e-06
5.156538541e-06
5.287604041e-06
5.388868615e-06
5.530271305e-06
5.776959986e-06
6.105192795e-06
6.402405875e-06
6.717892921e-06
7.201279488e-06
7.562267943e-06
7.8826343e-06
8.289103222e-06
8.671615344e-06
9.190148423e-06
9.617473765e-06
9.909599733e-06
1.027263163e-05
1.056708404e-05
1.094338212e-05
1.116348023e-05
1.130600114e-05
1.141826857e-05
1.143686538e-05
1.166610844e-05
1.177042843e-05
1.159217149e-05
1.148993705e-05
1.152179718e-05
1.135564362e-05
1.13798701e-05
1.121570677e-05
1.090204205e-05
1.081811204e-05
1.071279854e-05
4.887412169e-06
4.89093105e-06
4.896040955e-06
4.905131613e-06
4.984891292e-06
5.07022868e-06
5.16616641e-06
5.222473723e-06
5.393692147e-06
5.449284232e-06
5.605493934e-06
5.78119315e-06
5.989138032e-06
6.223441572e-06
6.457421283e-06
6.799347076e-06
7.181020949e-06
7.562813935e-06
8.074124564e-06
8.502063143e-06
9.00177475e-06
9.366073441e-06
9.769673951e-06
1.019121852e-05
1.040036434e-05
1.077198081e-05
1.118427379e-05
1.138671818e-05
1.153621605e-05
1.150311462e-05
1.157270698e-05
1.184885804e-05
1.175188007e-05
1.160896694e-05
1.144176566e-05
1.139680621e-05
1.150975008e-05
1.141536312e-05
1.116807358e-05
1.082705712e-05
4.760456152e-06
4.771696428e-06
4.857353651e-06
4.923534918e-06
4.969012015e-06
4.988836442e-06
5.060011383e-06
5.133508122e-06
5.195930064e-06
5.249419677e-06
5.309801308e-06
5.454461777e-06
5.64016509e-06
5.930896607e-06
6.073209051e-06
6.381135462e-06
6.699705394e-06
7.077571753e-06
7.432767061e-06
7.918598524e-06
8.330835208e-06
8.742065907e-06
9.073279792e-06
9.527018707e-06
9.866542898e-06
1.026717852e-05
1.06387569e-05
1.096681297e-05
1.11086397e-05
1.127207626e-05
1.14423358e-05
1.14085482e-05
1.153755068e-05
1.161234896e-05
1.14868936e-05
1.151255761e-05
1.14852384e-05
1.154735978e-05
1.141109131e-05
1.12896103e-05
4.839423516e-06
4.871370446e-06
4.923633696e-06
4.891666269e-06
4.977717187e-06
4.980392129e-06
4.996933814e-06
5.016878722e-06
5.031231432e-06
5.111445709e-06
5.290543299e-06
5.384293603e-06
5.458866688e-06
5.597819417e-06
5.816077432e-06
6.041302757e-06
6.240362046e-06
6.500380651e-06
6.79012934e-06
7.085991195e-06
7.452628262e-06
7.842724343e-06
8.240070395e-06
8.686895134e-06
9.163348823e-06
9.516802811e-06
9.883312524e-06
1.019436384e-05
1.065500136e-05
1.107381559e-05
1.112753843e-05
1.15100352e-05
1.160696982e-05
1.162129819e-05
1.165100282e-05
1.161238705e-05
1.149160773e-05
1.139883846e-05
1.135372856e-05
1.110515633e-05
4.850619459e-06
4.838656353e-06
4.840531855e-06
4.861099695e-06
4.85440118e-06
4.905895518e-06
4.88886009e-06
4.91768781e-06
5.053670286e-06
5.107788754e-06
5.206631606e-06
5.232975978e-06
5.29873701e-06
5.382902503e-06
5.510889052e-06
5.653986633e-06
5.838041392e-06
6.075178739e-06
6.357393712e-06
6.517826902e-06
6.870744821e-06
7.285204669e-06
7.698814202e-06
8.014147113e-06
8.463389375e-06
8.907168045e-06
9.324235868e-06
9.668756604e-06
9.955609535e-06
1.034320448e-05
1.059391462e-05
1.088636643e-05
1.137008795e-05
1.172123821e-05
1.167478763e-05
1.158666136e-05
1.164448817e-05
1.15340683e-05
1.147535029e-05
1.15256657e-05
4.80579459e-06
4.822693352e-06
4.808143015e-06
4.795284621e-06
4.812329323e-06
4.823287254e-06
4.924811543e-06
4.957399711e-06
4.962242157e-06
4.989759019e-06
4.997460371e-06
5.076925896e-06
5.176580683e-06
5.343512175e-06
5.441658542e-06
5.524904117e-06
5.640018523e-06
5.76597106e-06
5.966230716e-06
6.307870211e-06
6.546038161e-06
6.790126076e-06
7.161756662e-06
7.501802884e-06
7.840666461e-06
8.209932544e-06
8.552369788e-06
8.986198677e-06
9.484881016e-06
9.815069443e-06
1.028352263e-05
1.051416114e-05
1.074638867e-05
1.118055373e-05
1.14977735e-05
1.167307244e-05
1.167624138e-05
1.171202181e-05
1.174166021e-05
1.15711208e-05
4.858018612e-06
4.815248405e-06
4.857525684e-06
4.890929719e-06
4.918523797e-06
4.914950427e-06
4.92182321e-06
4.916910003e-06
4.933595392e-06
4.941612292e-06
4.968593696e-06
5.036329194e-06
5.067643035e-06
5.089362825e-06
5.106607253e-06
5.177081399e-06
5.331102359e-06
5.519136803e-06
5.646575386e-06
5.782974235e-06
5.942812156e-06
6.203123475e-06
6.387304116e-06
6.713691394e-06
7.150777954e-06
7.561356293e-06
7.998695137e-06
8.410247684e-06
8.957457531e-06
9.314658259e-06
9.617888671e-06
9.877356118e-06
1.028995663e-05
1.061020139e-05
1.111433989e-05
1.131451731e-05
1.155457298e-05
1.163022429e-05
1.160174997e-05
1.15994263e-05
4.827292182e-06
4.850278459e-06
4.8211936e-06
4.868334376e-06
4.831683587e-06
4.864616526e-06
4.859928122e-06
4.894864947e-06
4.845393121e-06
4.907059279e-06
4.902767243e-06
4.976291229e-06
5.001999384e-06
5.058646421e-06
5.125288397e-06
5.231062833e-06
5.24946386e-06
5.316600229e-06
5.341136819e-06
5.479933797e-06
5.664488298e-06
5.877448233e-06
6.1413646e-06
6.461566532e-06
6.678277414e-06
7.008542001e-06
7.431726986e-06
7.850235908e-06
8.15831222e-06
8.626972602e-06
9.260535298e-06
9.609639214e-06
9.875857161e-06
1.019585054e-05
1.038115861e-05
1.076242454e-05
1.105246524e-05
1.130155657e-05
1.129847651e-05
1.143713675e-05
4.864926781e-06
4.86290444e-06
4.867330121e-06
4.858254741e-06
4.845159144e-06
4.880386859e-06
4.903997739e-06
4.927831281e-06
4.940364524e-06
4.963366723e-06
4.94115038e-06
4.952913653e-06
4.932367866e-06
4.961751393e-06
5.019178087e-06
5.017849724e-06
5.097855357e-06
5.224970007e-06
5.3127853e-06
5.455697383e-06
5.548375206e-06
5.663347812e-06
5.736568512e-06
5.893519654e-06
6.225095702e-06
6.454782567e-06
6.74610029e-06
7.045989385e-06
7.415701516e-06
7.849682226e-06
8.310160908e-06
8.800994606e-06
9.275153112e-06
9.555411718e-06
9.979161832e-06
1.027733759e-05
1.049869541e-05
1.086323492e-05
1.107452502e-05
1.105380917e-05
4.805884154e-06
4.816255088e-06
4.820786304e-06
4.830161181e-06
4.816570901e-06
4.799426975e-06
4.786078823e-06
4.778815057e-06
4.767595342e-06
4.777768237e-06
4.845187155e-06
4.835337417e-06
4.904954839e-06
4.951195304e-06
4.96331974e-06
5.03643431e-06
5.052222568e-06
5.092506129e-06
5.168057372e-06
5.174317313e-06
5.303725976e-06
5.450502271e-06
5.615577085e-06
5.760062588e-06
5.908816508e-06
6.163810921e-06
6.381267725e-06
6.671437076e-06
7.035459013e-06
7.380005545e-06
7.791194192e-06
8.22677143e-06
8.586848613e-06
8.959670208e-06
9.320187864e-06
9.734230111e-06
1.009922222e-05
1.030698876e-05
1.070886787e-05
1.095064723e-05
4.79989295e-06
4.789202888e-06
4.792584611e-06
4.781082775e-06
4.79371073e-06
4.786632502e-06
4.798448921e-06
4.785924693e-06
4.805290868e-06
4.846732802e-06
4.847758831e-06
4.876828087e-06
4.878220865e-06
4.868688745e-06
4.885773364e-06
4.924106929e-06
5.000863872e-06
5.065578287e-06
5.114919579e-06
5.198252017e-06
5.29704513e-06
5.365210494e-06
5.432704288e-06
5.53374218e-06
5.750932316e-06
5.940471737e-06
6.109949107e-06
6.315592824e-06
6.515998947e-06
6.777157075e-06
7.113254049e-06
7.395096682e-06
7.864897146e-06
8.333113133e-06
8.754361479e-06
9.120539151e-06
9.482986928e-06
9.829637685e-06
1.016022881e-05
1.059718679e-05
4.743693603e-06
4.757383159e-06
4.684156597e-06
4.671104745e-06
4.701828984e-06
4.744705077e-06
4.775742591e-06
4.757195382e-06
4.779748726e-06
4.785010211e-06
4.831448262e-06
4.821830987e-06
4.812554102e-06
4.868467426e-06
4.906083176e-06
4.911355009e-06
4.918308442e-06
4.946453512e-06
4.977915061e-06
5.00098397e-06
5.056934754e-06
5.112118058e-06
5.247924257e-06
5.366319235e-06
5.41783268e-06
5.597293626e-06
5.763554097e-06
5.949429168e-06
6.256971814e-06
6.455646857e-06
6.753631291e-06
7.063529277e-06
7.322321553e-06
7.675561922e-06
8.129742943e-06
8.52035994e-06
8.825202717e-06
9.291019189e-06
9.672702352e-06
1.002832689e-05
4.742124428e-06
4.796813634e-06
4.83428092e-06
4.817856097e-06
4.846606063e-06
4.826906386e-06
4.811114626e-06
4.859522834e-06
4.766566352e-06
4.761571005e-06
4.724278069e-06
4.721818599e-06
4.780606596e-06
4.782197072e-06
4.765958935e-06
4.805495996e-06
4.890079446e-06
4.884457398e-06
4.915123599e-06
4.947213179e-06
5.048370018e-06
5.143680813e-06
5.179249907e-06
5.256677602e-06
5.307344883e-06
5.370603751e-06
5.519633522e-06
5.690784073e-06
5.747160977e-06
5.967052275e-06
6.187639263e-06
6.491036817e-06
6.820468177e-06
7.124242635e-06
7.516511485e-06
8.015312881e-06
8.551497185e-06
8.891297833e-06
9.263113361e-06
9.650840267e-06
4.825185347e-06
4.770197919e-06
4.772751678e-06
4.805600873e-06
4.80015814e-06
4.792122664e-06
4.770810841e-06
4.732416007e-06
4.783856724e-06
4.787367304e-06
4.785208064e-06
4.826242645e-06
4.84180349e-06
4.861172475e-06
4.891629241e-06
4.91458217e-06
4.99246535e-06
4.991308094e-06
5.029500323e-06
5.03445595e-06
4.997227565e-06
5.030958197e-06
5.089008146e-06
5.095978606e-06
5.154159962e-06
5.20470876e-06
5.330857065e-06
5.43978557e-06
5.589744204e-06
5.684467872e-06
5.909424177e-06
6.111740419e-06
6.428320665e-06
6.777347954e-06
7.136926485e-06
7.461363927e-06
7.908295419e-06
8.317647427e-06
8.725866843e-06
8.989079306e-06
4.819804269e-06
4.799294139e-06
4.811306272e-06
4.772286823e-06
4.770856038e-06
4.695709335e-06
4.742791936e-06
4.754850959e-06
4.775499114e-06
4.851851603e-06
4.908169964e-06
4.858177695e-06
4.826908132e-06
4.847814438e-06
4.916768701e-06
4.846834687e-06
4.825551099e-06
4.882936803e-06
4.897214962e-06
4.899794396e-06
4.924433088e-06
4.946921419e-06
4.923682524e-06
5.010711492e-06
5.113087329e-06
5.122850188e-06
5.185654247e-06
5.216469376e-06
5.298547443e-06
5.425216325e-06
5.573818614e-06
5.8017806e-06
6.111670781e-06
6.280485232e-06
6.591705378e-06
6.911717623e-06
7.211758767e-06
7.588082055e-06
7.942954485e-06
8.486364496e-06
4.74188392e-06
4.736850953e-06
4.742198494e-06
4.756977342e-06