/*--------------------------------*- C++ -*----------------------------------*\
  =========                 |
  \\      /  F ield         | OpenFOAM: The Open Source CFD Toolbox
   \\    /   O peration     | Website:  https://openfoam.org
    \\  /    A nd           | Version:  7
     \\/     M anipulation  |
\*---------------------------------------------------------------------------*/
FoamFile
{
    version     2.0;
    format      ascii;
    class       volScalarField;
    location    "0.004";
    object      rhoNMean;
}
// * * * * * * * * * * * * * * * * * * * * * * * * * * * * * * * * * * * * * //

dimensions      [0 -3 0 0 0 0 0];

internalField   nonuniform List<scalar> 
2400
(
9.124224417e+19
8.872205664e+19
8.958641848e+19
8.419196748e+19
8.337967562e+19
8.800349077e+19
8.817011474e+19
8.937813852e+19
8.582696517e+19
8.492094734e+19
8.62070761e+19
8.283294073e+19
8.227579183e+19
7.855278751e+19
8.016695722e+19
7.75270087e+19
7.900579643e+19
8.345778061e+19
7.923490439e+19
7.237207965e+19
9.378846671e+19
8.84044297e+19
8.613938512e+19
8.693605597e+19
8.390037553e+19
8.586341417e+19
8.435859144e+19
8.498343133e+19
8.24163808e+19
8.385871954e+19
8.490532634e+19
8.156763996e+19
8.192171589e+19
8.020861321e+19
8.124480602e+19
7.887562146e+19
7.939632136e+19
7.436115329e+19
7.230959567e+19
7.017472606e+19
8.919589355e+19
8.828987572e+19
8.699853996e+19
8.641014907e+19
8.538957725e+19
8.449918042e+19
8.239034581e+19
8.432734945e+19
8.285897572e+19
8.442107543e+19
8.168219394e+19
8.193733689e+19
8.207271887e+19
7.977643229e+19
7.742807572e+19
7.306981753e+19
7.301774754e+19
6.826375741e+19
6.543114993e+19
6.645172175e+19
9.015918837e+19
8.861270966e+19
8.556140822e+19
8.884702462e+19
8.214040985e+19
8.280169873e+19
8.077096911e+19
7.959418732e+19
8.29683227e+19
7.931821637e+19
8.099487006e+19
8.177071292e+19
8.588944916e+19
7.955773833e+19
7.489226719e+19
7.673033785e+19
7.193469174e+19
7.48401972e+19
7.0481939e+19
6.843558838e+19
8.886264561e+19
8.815449374e+19
8.604565913e+19
8.277566374e+19
8.586862117e+19
8.46241484e+19
8.423883047e+19
8.51188133e+19
8.238513881e+19
7.97243623e+19
7.870899749e+19
7.875586048e+19
8.183319691e+19
8.335884763e+19
7.64856089e+19
7.406435434e+19
7.306461053e+19
7.507971916e+19
6.952385118e+19
6.445223412e+19
8.769107083e+19
8.438983344e+19
8.40722065e+19
8.265069576e+19
8.524898828e+19
7.930259538e+19
8.043772117e+19
8.003678224e+19
8.043772117e+19
8.113025204e+19
8.18956809e+19
8.112504504e+19
7.713127678e+19
7.91932484e+19
7.32051995e+19
7.521510113e+19
7.305940353e+19
7.070583996e+19
6.719632261e+19
6.574877688e+19
8.779000381e+19
8.797745578e+19
8.737865089e+19
8.625914609e+19
8.205189087e+19
8.290583871e+19
8.421800247e+19
8.142184399e+19
8.222892884e+19
7.770925367e+19
8.230182682e+19
8.043251417e+19
7.724062376e+19
7.626691494e+19
7.541296709e+19
7.167434178e+19
7.349158445e+19
6.926870823e+19
6.789926748e+19
6.772743651e+19
8.927399854e+19
8.626435309e+19
8.466580439e+19
8.497822433e+19
8.265590276e+19
8.553016623e+19
7.962542932e+19
8.164574494e+19
8.277045674e+19
8.118232203e+19
7.924531839e+19
7.912555741e+19
7.790191263e+19
7.241373565e+19
7.477771321e+19
7.32208205e+19
7.277301858e+19
7.112760688e+19
7.110677889e+19
6.862304035e+19
8.659760103e+19
8.820656373e+19
8.652991004e+19
8.520733229e+19
8.308287668e+19
8.692564197e+19
8.052624015e+19
7.690737582e+19
7.814143459e+19
7.96983273e+19
7.91932484e+19
7.992743526e+19
7.824036757e+19
7.205965971e+19
7.471002222e+19
7.492350918e+19
7.115884888e+19
7.0476732e+19
6.591540085e+19
6.630071877e+19
8.509798531e+19
8.763900084e+19
8.170302193e+19
8.338488262e+19
8.231224082e+19
8.169781493e+19
8.152077697e+19
8.152598397e+19
8.260903977e+19
8.067203612e+19
8.35046436e+19
8.102090506e+19
7.601697898e+19
7.445487927e+19
7.364779442e+19
7.315833651e+19
6.998727409e+19
7.044028301e+19
6.827937841e+19
6.775867851e+19
8.799307677e+19
8.505112232e+19
8.176550592e+19
8.448355942e+19
8.452000841e+19
8.231224082e+19
7.960980832e+19
8.159367495e+19
7.781860065e+19
7.624087994e+19
7.734997074e+19
7.474647122e+19
7.632419193e+19
7.198676173e+19
7.294484955e+19
7.0492353e+19
6.944574619e+19
7.216379969e+19
6.99352041e+19
6.77742995e+19
8.611335012e+19
8.286938972e+19
8.531667927e+19
8.545206124e+19
8.054706815e+19
8.215082385e+19
8.598317514e+19
7.945880535e+19
7.687092683e+19
7.5907632e+19
7.75322157e+19
7.64908159e+19
7.599094399e+19
7.26844996e+19
6.896670228e+19
7.302295453e+19
6.45199251e+19
6.924267323e+19
6.974775214e+19
6.820127342e+19
8.233827582e+19
8.309849768e+19
8.575927419e+19
7.986495127e+19
7.927656038e+19
8.282773373e+19
8.130729001e+19
7.740204073e+19
8.006802424e+19
7.707399979e+19
7.888082845e+19
7.477250621e+19
7.217421369e+19
7.064856297e+19
7.145044082e+19
7.220024869e+19
7.081518694e+19
6.707135463e+19
6.972692414e+19
6.921663824e+19
8.423883047e+19
8.365564657e+19
7.877148147e+19
8.153119097e+19
7.941194236e+19
8.487929135e+19
8.084386709e+19
8.377020055e+19
7.850592452e+19
8.020861321e+19
7.799043162e+19
7.798001762e+19
7.32051995e+19
6.849807237e+19
7.286153756e+19
7.435594629e+19
7.084642894e+19
6.649337774e+19
6.78003345e+19
7.136192184e+19
8.216644485e+19
8.24215878e+19
8.410344849e+19
8.100528406e+19
8.141663699e+19
8.333281263e+19
7.990140027e+19
7.931821637e+19
7.626170794e+19
7.688654782e+19
7.939111436e+19
7.379879739e+19
7.217421369e+19
6.990396211e+19
7.116926288e+19
7.120050487e+19
7.285112357e+19
7.120571187e+19
7.204403872e+19
6.805547745e+19
8.603003814e+19
8.62070761e+19
8.102611206e+19
7.993784926e+19
8.45981134e+19
7.952649634e+19
8.182798991e+19
8.177071292e+19
7.909952241e+19
7.751138771e+19
7.557438406e+19
7.715210477e+19
7.274177659e+19
7.258556662e+19
6.860221235e+19
6.914374025e+19
7.424659931e+19
7.453819126e+19
7.302295453e+19
7.185658675e+19
8.465018339e+19
8.256738377e+19
8.417634648e+19
8.18956809e+19
7.949525434e+19
7.601697898e+19
7.779256566e+19
7.832888656e+19
7.70219298e+19
7.299691954e+19
7.455901925e+19
7.877668847e+19
7.48349902e+19
7.685530583e+19
7.129423085e+19
7.216900669e+19
7.349679145e+19
7.526717112e+19
7.100784591e+19
6.984147812e+19
8.240075981e+19
8.450959442e+19
8.235910381e+19
8.236951781e+19
8.211437486e+19
8.067203612e+19
7.629294993e+19
7.901621043e+19
7.81153996e+19
7.562124706e+19
7.549627908e+19
7.686571983e+19
7.477771321e+19
7.607425597e+19
7.479854121e+19
7.48297832e+19
7.464233124e+19
7.248142663e+19
7.006017208e+19
7.019555406e+19
8.258300477e+19
8.544164724e+19
8.163012395e+19
8.528023027e+19
8.336405463e+19
8.056789614e+19
7.844864753e+19
8.066162213e+19
7.682927083e+19
7.827160957e+19
7.667306086e+19
7.53869321e+19
7.469960823e+19
7.597532299e+19
7.479333421e+19
7.515261714e+19
7.26532576e+19
6.825855041e+19
6.976337314e+19
7.012786307e+19
8.419196748e+19
8.507715731e+19
7.855799451e+19
7.991181426e+19
8.094280007e+19
8.158326096e+19
7.894331244e+19
8.199461388e+19
7.860485751e+19
7.688654782e+19
7.371027841e+19
7.426742731e+19
7.424659931e+19
7.125778186e+19
7.235645866e+19
7.034655703e+19
7.354365444e+19
7.338223747e+19
6.848765837e+19
7.10547089e+19
8.395765252e+19
8.453042241e+19
8.370771656e+19
8.571241119e+19
8.181236891e+19
8.183319691e+19
8.328074264e+19
8.015133622e+19
7.778215166e+19
7.293443555e+19
7.197114073e+19
7.606384197e+19
7.799563862e+19
7.183575875e+19
7.380400439e+19
7.053400899e+19
7.488706019e+19
7.242935664e+19
6.837831139e+19
7.078915195e+19
8.814928675e+19
8.557182222e+19
8.384830554e+19
8.233827582e+19
8.304122069e+19
8.051061915e+19
7.70063088e+19
7.803729461e+19
7.877148147e+19
7.460067524e+19
7.398624936e+19
7.432991129e+19
7.722500276e+19
7.689175482e+19
7.572018004e+19
7.091411992e+19
7.204403872e+19
7.049756e+19
7.183055175e+19
7.26428436e+19
8.306725568e+19
8.362440458e+19
8.400972251e+19
8.012009423e+19
8.522295328e+19
8.169781493e+19
7.86204785e+19
7.75322157e+19
7.895372644e+19
7.642312491e+19
7.48454042e+19
7.465274523e+19
7.737079873e+19
7.511616815e+19
7.622005195e+19
7.136192184e+19
7.000289509e+19
7.147647582e+19
7.31843715e+19
7.229918167e+19
8.300477169e+19
8.158846796e+19
8.750882586e+19
8.385351254e+19
8.043772117e+19
8.205709787e+19
8.278607773e+19
8.561347821e+19
8.046896316e+19
7.869858349e+19
7.851633852e+19
7.889644945e+19
7.893810544e+19
7.542338109e+19
7.64804019e+19
7.394980036e+19
7.353324044e+19
7.301254054e+19
7.342910046e+19
7.176286077e+19
8.431172845e+19
8.781083181e+19
8.102090506e+19
7.976601829e+19
7.882875846e+19
8.154681196e+19
8.585820717e+19
8.143746498e+19
8.311411867e+19
7.759469969e+19
7.629815693e+19
7.909952241e+19
7.766759768e+19
7.202321072e+19
7.655850688e+19
7.226793967e+19
7.371548541e+19
7.548065808e+19
7.494954418e+19
7.190344974e+19
8.928441254e+19
8.423362347e+19
7.852154552e+19
7.534527611e+19
7.407476834e+19
7.896934744e+19
8.29787367e+19
7.639708991e+19
7.652205789e+19
7.934945837e+19
7.800084562e+19
7.506409816e+19
7.894331244e+19
7.477250621e+19
7.278343258e+19
7.705837879e+19
7.568893804e+19
7.636584792e+19
7.531403411e+19
7.422577131e+19
8.688398598e+19
8.047937716e+19
7.96931203e+19
7.998471225e+19
7.825078157e+19
7.952128934e+19
8.501467332e+19
8.113025204e+19
8.019299221e+19
7.715731177e+19
8.066682913e+19
7.505889116e+19
7.526196412e+19
7.668347486e+19
7.494954418e+19
7.492350918e+19
7.560041906e+19
7.629815693e+19
7.697506681e+19
7.866734149e+19
8.236431081e+19
8.497822433e+19
8.356712759e+19
8.18696459e+19
8.271838675e+19
8.210916786e+19
8.234868981e+19
7.967229231e+19
8.179674792e+19
7.813622759e+19
7.697506681e+19
8.07813831e+19
7.739683373e+19
7.744890372e+19
7.534006911e+19
7.667826786e+19
7.42934623e+19
7.530882711e+19
7.580349202e+19
7.801125961e+19
8.285376872e+19
8.814928675e+19
8.625393909e+19
8.471787438e+19
8.143746498e+19
8.554578723e+19
8.416072548e+19
8.258300477e+19
8.141142999e+19
8.211437486e+19
7.775611666e+19
7.962022232e+19
7.386648838e+19
7.574621503e+19
7.910993641e+19
8.053144715e+19
7.798522462e+19
7.397583536e+19
7.696465281e+19
7.547545108e+19
8.6764225e+19
8.585300017e+19
8.375457956e+19
8.19113019e+19
8.209875386e+19
8.193733689e+19
8.441586843e+19
8.40617925e+19
7.996388425e+19
8.289542471e+19
8.276524974e+19
7.907348742e+19
7.639188291e+19
8.041168617e+19
8.379623555e+19
8.047417016e+19
7.75322157e+19
7.620443095e+19
7.328851149e+19
7.691778982e+19
8.523336728e+19
8.386913353e+19
8.480118636e+19
8.201544188e+19
8.62383181e+19
8.383789154e+19
8.315056767e+19
7.849551053e+19
7.941194236e+19
8.092197208e+19
8.434817745e+19
8.266110976e+19
8.363481858e+19
8.111463104e+19
8.35358856e+19
8.017216422e+19
7.751138771e+19
7.765718368e+19
7.43142903e+19
7.913597141e+19
8.504591532e+19
8.958641848e+19
9.150780113e+19
8.437941944e+19
8.365043957e+19
8.552495923e+19
8.418155348e+19
8.218206585e+19
7.931821637e+19
8.122397802e+19
8.232786182e+19
8.016175022e+19
8.174467793e+19
8.149994897e+19
8.35306786e+19
8.072410611e+19
7.75634577e+19
7.675116585e+19
7.575142203e+19
7.783942865e+19
8.643097706e+19
9.098710122e+19
8.858667466e+19
8.610293612e+19
8.447835242e+19
8.416593248e+19
8.365043957e+19
8.355671359e+19
8.195816489e+19
8.07813831e+19
7.783422165e+19
8.194775089e+19
8.149994897e+19
7.933383737e+19
8.373895856e+19
7.856320151e+19
7.921407639e+19
8.103131906e+19
7.64699879e+19
7.850071752e+19
8.575927419e+19
8.997173641e+19
8.926358454e+19
8.555620122e+19
8.402534351e+19
8.995090841e+19
8.776396882e+19
8.170822893e+19
8.417634648e+19
8.138539499e+19
8.366606057e+19
8.192692289e+19
8.075534811e+19
8.098966307e+19
7.605342798e+19
7.955773833e+19
7.995867726e+19
8.249969279e+19
7.566811005e+19
8.010447323e+19
8.556140822e+19
9.063302529e+19
8.616542011e+19
8.524898828e+19
8.780041781e+19
8.918547955e+19
8.697771196e+19
8.717037093e+19
8.29787367e+19
8.45772854e+19
8.294228771e+19
8.289542471e+19
8.306725568e+19
8.473349538e+19
8.137498099e+19
7.940152836e+19
7.877148147e+19
8.214561685e+19
7.799043162e+19
7.998471225e+19
9.205974302e+19
9.103396421e+19
9.205453603e+19
8.875329863e+19
8.6774639e+19
8.629559509e+19
8.563951321e+19
8.380144255e+19
8.546768224e+19
8.913340956e+19
8.447835242e+19
7.984412328e+19
8.40305505e+19
8.576968818e+19
8.172384993e+19
8.258300477e+19
8.387434053e+19
8.227579183e+19
7.996909125e+19
7.979726029e+19
8.791497179e+19
9.10808272e+19
9.310634983e+19
9.042474533e+19
9.261168492e+19
8.642056306e+19
8.605607313e+19
8.631642308e+19
8.392120352e+19
8.702978195e+19
8.952914149e+19
8.441586843e+19
8.45876994e+19
8.973221445e+19
8.267152376e+19
7.947963334e+19
8.1369774e+19
8.496260333e+19
8.345257361e+19
8.398889451e+19
9.015918837e+19
9.401757466e+19
8.871684964e+19
8.169260794e+19
9.019563737e+19
8.638411407e+19
8.467101139e+19
8.722244092e+19
8.754527486e+19
8.607169413e+19
8.671215501e+19
8.601441714e+19
8.73369949e+19
8.35358856e+19
8.696209096e+19
8.261424677e+19
8.184361091e+19
8.740468588e+19
8.442628243e+19
8.721202692e+19
9.255440793e+19
9.701680611e+19
9.117976019e+19
8.478556537e+19
8.977907744e+19
8.960724648e+19
8.83836017e+19
8.768065683e+19
8.561868521e+19
8.62226971e+19
9.081006325e+19
8.72901319e+19
8.794100678e+19
8.148953497e+19
8.278087074e+19
8.467101139e+19
7.91515924e+19
8.609772912e+19
8.816490774e+19
8.689439998e+19
9.391864168e+19
9.905274273e+19
9.471010554e+19
9.130472816e+19
8.995090841e+19
8.764941484e+19
8.898240659e+19
8.969576546e+19
8.989883842e+19
9.046640132e+19
9.243985395e+19
9.096627323e+19
8.757130985e+19
8.463456239e+19
8.51552623e+19
8.476473737e+19
8.161450295e+19
8.40565855e+19
8.528023027e+19
8.643097706e+19
6.482188578e+19
6.347347221e+19
6.240306468e+19
6.108833675e+19
5.887947653e+19
5.874935836e+19
5.876450263e+19
5.6743889e+19
5.850249295e+19
5.951835143e+19
5.887777609e+19
5.957241424e+19
6.035138172e+19
6.531679484e+19
6.168460462e+19
6.296317022e+19
6.321124249e+19
6.300793957e+19
5.92744362e+19
5.730172477e+19
6.128330915e+19
6.353488437e+19
6.39962924e+19
6.607076196e+19
6.474797669e+19
6.209904139e+19
6.352959852e+19
6.353617644e+19
6.820762886e+19
6.735495951e+19
6.515355322e+19
7.03846697e+19
6.850560072e+19
6.970990673e+19
7.107174933e+19
7.475153202e+19
7.333589851e+19
7.93621235e+19
7.774414073e+19
8.616002945e+19
6.471215105e+19
6.109532156e+19
6.370632933e+19
6.21659583e+19
6.053411878e+19
6.100000147e+19
5.676482048e+19
5.686462072e+19
5.845274593e+19
5.83714122e+19
5.69596775e+19
6.283804924e+19
6.181420405e+19
6.012127103e+19
5.993390818e+19
5.87830911e+19
5.896978279e+19
6.116937049e+19
6.037663448e+19
5.883889769e+19
6.265713012e+19
6.307125968e+19
6.270492871e+19
6.17685374e+19
6.338551921e+19
6.309464246e+19
6.334534426e+19
6.562479124e+19
6.511932279e+19
6.361482735e+19
6.706596844e+19
6.843580058e+19
7.108668051e+19
7.25633314e+19
7.075868791e+19
7.644075465e+19
7.465932607e+19
7.424379102e+19
8.082793755e+19
8.685802754e+19
6.368273454e+19
6.266847872e+19
6.18944736e+19
6.109367154e+19
6.122176234e+19
6.299636511e+19
5.960360633e+19
6.047559548e+19
6.013861709e+19
6.280884214e+19
6.200169696e+19
6.145382679e+19
5.993017997e+19
6.234628564e+19
6.237217191e+19
5.911493578e+19
6.210247912e+19
6.309661653e+19
6.286104903e+19
6.148091376e+19
6.395832615e+19
6.427912402e+19
6.576115599e+19
6.27666039e+19
6.261054348e+19
6.446831989e+19
6.596937908e+19
6.413200823e+19
6.989392147e+19
6.470950019e+19
6.661908094e+19
6.571136096e+19
6.799072218e+19
7.391246836e+19
7.17727347e+19
7.723729856e+19
7.566402227e+19
7.694979463e+19
8.487145145e+19
8.362444463e+19
6.473827835e+19
6.415219222e+19
6.242955383e+19
6.178185554e+19
6.22747164e+19
6.166004579e+19
5.927123413e+19
6.121096116e+19
6.320082241e+19
6.147816992e+19
6.353281078e+19
6.201316561e+19
6.111979034e+19
6.318926803e+19
5.974323827e+19
5.994745851e+19
6.097611643e+19
6.113981151e+19
5.98165986e+19
6.062826313e+19
6.097465334e+19
6.203420438e+19
6.387330533e+19
6.493011454e+19
6.415424524e+19
6.655404111e+19
6.804700472e+19
6.622702988e+19
7.085659421e+19
6.65078913e+19
6.648764358e+19
6.69708343e+19
7.033107939e+19
7.201018518e+19
7.414111244e+19
7.804757605e+19
7.849102976e+19
8.076756741e+19
8.331191126e+19
8.902324586e+19
6.407986983e+19
6.526234658e+19
6.395002922e+19
6.271543862e+19
5.911048184e+19
6.116771766e+19
6.227348179e+19
6.443230186e+19
6.411837856e+19
6.334890581e+19
6.532191447e+19
5.937466813e+19
5.880318062e+19
5.852132492e+19
5.974323827e+19
6.023272858e+19
6.238406986e+19
5.9898334e+19
5.997150214e+19
6.208137189e+19
6.050259151e+19
6.591401115e+19
6.482645474e+19
6.13345955e+19
6.411049661e+19
6.610665076e+19
6.732269492e+19
6.429858498e+19
6.728372141e+19
6.540670249e+19
6.802546185e+19
6.928428773e+19
7.236384685e+19
7.18955086e+19
7.619642889e+19
7.797204157e+19
7.915620763e+19
8.085846691e+19
8.201347049e+19
9.148048453e+19
6.633727045e+19
6.871908325e+19
6.505727432e+19
6.30408589e+19
6.133457877e+19
6.203334953e+19
6.394624037e+19
6.397681408e+19
5.925422562e+19
6.085459136e+19
6.30224396e+19
5.946506642e+19
5.748834819e+19
6.066032101e+19
6.071392149e+19
5.880055661e+19
5.914577697e+19
6.017618849e+19
6.121668831e+19
6.122872127e+19
6.291736929e+19
6.117405857e+19
6.537989619e+19
6.569261244e+19
6.52354614e+19
6.63271953e+19
6.669368894e+19
6.508662054e+19
6.541006295e+19
6.478117525e+19
6.666508416e+19
7.245285758e+19
7.327992999e+19
7.252285729e+19
7.586975544e+19
7.674975871e+19
7.988374701e+19
8.1543708e+19
8.566180646e+19
8.734235219e+19
6.795193895e+19
6.363131405e+19
6.108390663e+19
6.276878622e+19
6.313427089e+19
6.256895938e+19
6.078053105e+19
6.111218069e+19
5.934819225e+19
5.902839681e+19
6.115481716e+19
6.036904834e+19
5.905931683e+19
6.03162465e+19
6.25570639e+19
6.259057268e+19
6.07238581e+19
5.777599863e+19
6.347470533e+19
6.255573391e+19
6.444854431e+19
6.171698758e+19
6.344285084e+19
6.715561684e+19
6.942908035e+19
6.828058975e+19
6.566440651e+19
6.657299675e+19
6.495780078e+19
6.730934871e+19
6.4982685e+19
7.041781415e+19
7.158149903e+19
7.14502939e+19
7.209260269e+19
7.4202192e+19
7.69043029e+19
7.871184368e+19
8.540776447e+19
9.191495357e+19
6.946209816e+19
6.609890846e+19
6.545461113e+19
6.21872973e+19
6.195775571e+19
6.087015664e+19
6.191386591e+19
6.32633997e+19
6.04370992e+19
5.793713424e+19
5.909089816e+19
6.053289512e+19
6.141007808e+19
6.073487047e+19
6.190416391e+19
6.293988287e+19
6.363362852e+19
5.610295989e+19
6.45232832e+19
6.205134903e+19
6.384333673e+19
6.241242453e+19
6.182557156e+19
6.641171635e+19
7.025405479e+19
6.479598622e+19
6.745612025e+19
6.498411151e+19
6.619183046e+19
6.583675231e+19
6.490382153e+19
7.039792654e+19
7.130065555e+19
7.36156581e+19
7.484209742e+19
7.429145855e+19
7.573331072e+19
7.859996686e+19
8.317783283e+19
9.055456787e+19
6.950390187e+19
6.890849348e+19
6.487714831e+19
6.254472626e+19
6.265614375e+19
6.248780634e+19
6.342316279e+19
6.085974173e+19
6.087929491e+19
6.314846978e+19
6.057714422e+19
5.984360884e+19
6.262245603e+19
6.29885579e+19
6.557311524e+19
6.358028502e+19
6.317017719e+19
6.388879742e+19
6.137754968e+19
6.151093662e+19
6.019393555e+19
6.501726339e+19
6.143816257e+19
6.372127634e+19
6.590419061e+19
6.395161512e+19
6.573429595e+19
6.36322785e+19
6.418895445e+19
6.557611592e+19
6.765743705e+19
7.146516562e+19
7.28519787e+19
7.607783305e+19
7.44065337e+19
7.781410627e+19
7.875432982e+19
8.247367826e+19
8.724957369e+19
9.333943863e+19
7.15313821e+19
6.674606008e+19
6.265206243e+19
6.393176386e+19
6.304294319e+19
6.387822771e+19
6.276386706e+19
6.037681501e+19
6.022705623e+19
6.287008647e+19
6.069492216e+19
6.196231662e+19
6.129623972e+19
6.71805313e+19
6.457932052e+19
6.440698587e+19
6.135157058e+19
6.168960878e+19
6.029918266e+19
6.467535106e+19
6.430934679e+19
6.444383274e+19
6.232981807e+19
6.464495269e+19
6.488547218e+19
6.779539192e+19
6.828208818e+19
6.468939952e+19
6.619829163e+19
6.415564813e+19
6.949098974e+19
7.355323912e+19
7.657649014e+19
7.297481804e+19
7.160939855e+19
7.778663923e+19
7.805450621e+19
8.433361878e+19
8.953595851e+19
9.333943778e+19
7.018321224e+19
6.428372706e+19
6.338316205e+19
6.730866694e+19
6.664769946e+19
6.347787289e+19
6.264944379e+19
6.02615711e+19
6.118330446e+19
5.903953214e+19
6.151936807e+19
6.119958167e+19
6.453493945e+19
6.411253421e+19
6.353930283e+19
6.249742338e+19
6.260112962e+19
6.419621119e+19
6.396920519e+19
6.376265472e+19
5.998816482e+19
6.404731162e+19
6.244665622e+19
6.23512595e+19
6.860410651e+19
6.548912615e+19
6.574064901e+19
6.631031787e+19
6.409204108e+19
6.27612429e+19
6.539014071e+19
6.910531041e+19
7.318631545e+19
7.298156373e+19
7.304539707e+19
7.774543868e+19
8.335514585e+19
8.194925895e+19
9.065092477e+19
9.901601584e+19
6.748164715e+19
6.559381452e+19
6.562414149e+19
6.178185554e+19
6.36177702e+19
6.468434746e+19
6.34558554e+19
6.032193736e+19
6.448871774e+19
6.040917828e+19
6.406561619e+19
6.368553264e+19
6.554810105e+19
6.263301447e+19
6.479887976e+19
6.247995749e+19
6.100544833e+19
6.35104417e+19
6.282530163e+19
6.142086827e+19
6.088387283e+19
6.601771709e+19
6.252044843e+19
6.13345955e+19
6.657291944e+19
6.64910285e+19
6.515611932e+19
6.465736555e+19
6.670224114e+19
6.964855953e+19
6.643506803e+19
6.675871169e+19
6.988306713e+19
7.476242451e+19
7.56247523e+19
7.707249704e+19
8.167834242e+19
7.953693008e+19
8.689673653e+19
9.581092079e+19
6.739803972e+19
6.723536997e+19
6.562943954e+19
6.391042482e+19
6.483726274e+19
6.442465774e+19
6.271482841e+19
6.478900855e+19
6.347166701e+19
6.169530891e+19
6.331408005e+19
6.401887531e+19
6.454063151e+19
6.245524268e+19
6.366063818e+19
6.351042316e+19
6.480105706e+19
6.515392242e+19
6.262273594e+19
6.494555734e+19
6.286290033e+19
6.355928513e+19
6.108764924e+19
6.346091107e+19
6.547920363e+19
6.43927042e+19
6.869507132e+19
6.812984793e+19
6.863404762e+19
7.326489006e+19
6.601446925e+19
6.89926207e+19
7.190246232e+19
7.343352461e+19
7.430444845e+19
7.611114951e+19
8.126953425e+19
8.37532614e+19
8.698847419e+19
9.628100113e+19
7.038177965e+19
6.631462522e+19
6.489304134e+19
6.383573796e+19
6.602989478e+19
6.322359337e+19
6.589143504e+19
6.725852061e+19
6.385858826e+19
6.402816058e+19
6.696519761e+19
6.433526948e+19
6.257122869e+19
6.283945866e+19
6.440020631e+19
6.404020988e+19
6.426134061e+19
6.428488767e+19
6.698982427e+19
6.51256948e+19
6.315339991e+19
6.217451186e+19
6.255734404e+19
6.67774669e+19
6.592918956e+19
6.565926051e+19
6.862518177e+19
6.561197733e+19
7.035910559e+19
7.094522557e+19
7.098280441e+19
7.050398804e+19
7.398203693e+19
7.375057179e+19
7.866008566e+19
7.652315569e+19
8.006389874e+19
8.506081281e+19
8.724957369e+19
9.484227125e+19
6.665079867e+19
6.599368069e+19
6.544401544e+19
6.746337521e+19
6.499305773e+19
6.275290643e+19
6.585329442e+19
6.777986243e+19
6.350483214e+19
6.233559052e+19
6.349355172e+19
6.818284339e+19
6.495044991e+19
6.47662759e+19
6.493754926e+19
6.518711231e+19
6.546983445e+19
6.537857073e+19
6.333171754e+19
6.418898003e+19
6.355283734e+19
6.418151927e+19
6.586569521e+19
6.767634719e+19
6.737289498e+19
6.899263372e+19
7.102684076e+19
6.855910313e+19
6.730956548e+19
7.223537631e+19
6.906381797e+19
7.137236232e+19
7.086601838e+19
7.394619665e+19
7.716283604e+19
8.193416203e+19
8.589806676e+19
8.703962247e+19
8.428574229e+19
9.127393407e+19
6.807735e+19
6.66460937e+19
6.602147867e+19
6.689789065e+19
6.677663267e+19
6.467893753e+19
6.662156469e+19
6.763717858e+19
6.372592955e+19
6.250818817e+19
6.450307686e+19
6.377028026e+19
6.481953537e+19
6.320073727e+19
6.615668063e+19
6.416829078e+19
6.633220643e+19
6.656093027e+19
6.57446386e+19
6.731736769e+19
6.352862855e+19
6.298585458e+19
6.542294144e+19
6.599017274e+19
6.627292882e+19
6.502283198e+19
6.724009856e+19
6.730337149e+19
6.640504015e+19
7.053472384e+19
6.906381855e+19
7.200209896e+19
7.43765543e+19
7.57000747e+19
7.704713875e+19
8.094534739e+19
8.591192388e+19
8.526358904e+19
8.633219707e+19
9.312576574e+19
6.951435271e+19
7.041851363e+19
6.962929565e+19
6.46839648e+19
6.554639543e+19
6.321277297e+19
6.853406728e+19
6.947559375e+19
6.741273677e+19
6.415621736e+19
6.473302436e+19
6.708676471e+19
6.569039895e+19
6.605082042e+19
6.189260811e+19
6.247995749e+19
6.437280359e+19
6.928626796e+19
6.345683145e+19
6.507765864e+19
6.585262627e+19
6.735368826e+19
6.460507832e+19
6.484952532e+19
6.606043546e+19
6.393901258e+19
6.417131153e+19
6.919337574e+19
6.981639072e+19
7.190958022e+19
7.00233109e+19
7.12596714e+19
7.646950172e+19
7.62127474e+19
8.222626505e+19
8.210583099e+19
7.991839171e+19
8.510276712e+19
8.998053334e+19
9.331094806e+19
6.789968421e+19
7.006073922e+19
6.645060239e+19
6.939455787e+19
6.527778423e+19
6.60639482e+19
6.645265374e+19
6.775791074e+19
6.763936208e+19
6.698459177e+19
6.626974712e+19
6.760655437e+19
6.50016762e+19
6.719773468e+19
6.651490894e+19
6.379569319e+19
6.346350129e+19
6.793837914e+19
6.647745101e+19
6.872243933e+19
6.643362442e+19
6.579200455e+19
6.635149391e+19
6.837065431e+19
6.719790045e+19
6.903044191e+19
7.135722771e+19
7.127558322e+19
7.089535956e+19
7.246343255e+19
6.869579305e+19
7.255228993e+19
7.349390527e+19
7.213160744e+19
8.121221683e+19
8.324571143e+19
7.995996464e+19
8.429166524e+19
8.617694872e+19
9.418700774e+19
7.133804025e+19
6.75352695e+19
6.767969702e+19
7.060554886e+19
6.951109011e+19
6.916940281e+19
6.99343897e+19
6.638595984e+19
6.85569177e+19
6.568732602e+19
6.730170662e+19
6.85896348e+19
6.808669545e+19
6.610816616e+19
6.675757973e+19
6.502410038e+19
6.559302989e+19
6.442085902e+19
6.696003513e+19
6.953906246e+19
6.803137268e+19
6.94705005e+19
6.723085053e+19
7.205916091e+19
7.084778584e+19
7.015836858e+19
7.190999049e+19
7.016720843e+19
7.368000368e+19
7.477006523e+19
7.253376714e+19
7.761006882e+19
7.61685993e+19
7.596990209e+19
7.851036063e+19
8.095908162e+19
8.25791046e+19
8.553628709e+19
8.757418468e+19
9.438643577e+19
7.119695224e+19
6.87611746e+19
6.720289289e+19
6.860501339e+19
7.162237062e+19
7.113330578e+19
6.542829384e+19
6.839998376e+19
6.941367238e+19
6.788655369e+19
7.045927785e+19
6.803594533e+19
6.769964469e+19
6.489243652e+19
6.798826783e+19
6.570525583e+19
6.8244676e+19
6.62416932e+19
6.780008895e+19
6.982728239e+19
6.858816303e+19
6.978161707e+19
7.047770822e+19
7.165001564e+19
7.222899268e+19
6.642801577e+19
6.761496068e+19
6.92382233e+19
7.25622695e+19
7.228750298e+19
7.352612003e+19
7.157785533e+19
7.752600652e+19
8.167000574e+19
7.761201113e+19
8.028614e+19
8.4747862e+19
8.526358828e+19
8.641687799e+19
9.344627507e+19
7.071620952e+19
6.640933047e+19
6.784392955e+19
6.751138805e+19
6.917801278e+19
6.702696374e+19
6.731355281e+19
7.301522708e+19
6.94634194e+19
6.850456464e+19
6.765504058e+19
6.685511981e+19
6.969750759e+19
6.923924343e+19
7.070964694e+19
7.088086919e+19
6.839133833e+19
6.980650721e+19
6.561356587e+19
6.802590836e+19
6.772271739e+19
6.927529064e+19
6.748912379e+19
6.972207409e+19
7.352895264e+19
7.085780984e+19
6.818042955e+19
7.000063064e+19
7.097935056e+19
7.022195959e+19
7.361812564e+19
7.787522043e+19
7.824817324e+19
7.737300453e+19
8.040234054e+19
8.179682542e+19
8.42766941e+19
9.075950351e+19
9.041805142e+19
9.499896384e+19
7.266530773e+19
7.067632199e+19
7.111798456e+19
7.051485794e+19
6.949497347e+19
6.778439169e+19
6.886643905e+19
6.964022736e+19
6.739615443e+19
6.925619957e+19
6.727927224e+19
6.665737278e+19
6.718737179e+19
6.880341532e+19
6.6139347e+19
6.953020242e+19
6.925957525e+19
6.615892703e+19
6.861035311e+19
6.853629729e+19
6.950202632e+19
6.961690775e+19
6.764900584e+19
6.528346676e+19
7.132902138e+19
7.125479116e+19
6.814230909e+19
7.088476937e+19
7.021050567e+19
7.164242911e+19
7.183714916e+19
7.749737976e+19
7.7084682e+19
7.887054723e+19
8.307016977e+19
8.026553972e+19
8.333435903e+19
9.030500676e+19
9.082028579e+19
9.956444201e+19
7.223681965e+19
7.403309264e+19
6.815650115e+19
7.268610477e+19
7.064462748e+19
7.030013454e+19
6.64090644e+19
6.745059374e+19
6.880012534e+19
6.851013231e+19
6.634265683e+19
6.905857547e+19
6.718737277e+19
6.665868524e+19
6.783226468e+19
6.726550772e+19
6.730604038e+19
6.826943981e+19
6.790137204e+19
6.862636602e+19
6.959280744e+19
6.687176207e+19
7.123407836e+19
7.109209028e+19
6.843536124e+19
7.31388705e+19
6.928595567e+19
7.465837106e+19
7.200663285e+19
7.276968031e+19
7.594456882e+19
8.249549936e+19
7.931805152e+19
8.205450977e+19
8.211737269e+19
8.390492097e+19
8.237816534e+19
8.574605482e+19
8.904904403e+19
9.395908999e+19
7.165679358e+19
7.30860415e+19
6.770088831e+19
7.159247898e+19
7.341131771e+19
7.177170935e+19
6.955297892e+19
7.144022694e+19
7.021515212e+19
6.838764365e+19
6.941610191e+19
7.172532239e+19
7.185474311e+19
6.882061954e+19
6.983718766e+19
7.154455865e+19
7.0280342e+19
7.111892576e+19
6.914655821e+19
6.841620566e+19
7.394424975e+19
7.200823624e+19
7.421651344e+19
7.581585839e+19
7.009155948e+19
7.22629942e+19
7.30854062e+19
7.581159399e+19
7.454576311e+19
7.402073498e+19
7.744952847e+19
7.722559869e+19
7.89904015e+19
7.952487797e+19
8.153208465e+19
8.279937287e+19
8.323735314e+19
9.048680546e+19
8.802581545e+19
9.30189293e+19
7.234132894e+19
6.946620156e+19
7.012729154e+19
7.478800021e+19
7.436757249e+19
7.379512353e+19
7.187958464e+19
7.307559292e+19
7.043624948e+19
6.850456415e+19
6.734657395e+19
7.440901897e+19
7.280529356e+19
7.339107482e+19
7.164566286e+19
6.837747864e+19
7.134217355e+19
7.47014757e+19
6.876525718e+19
6.879449484e+19
7.016170301e+19
7.23742546e+19
7.569235701e+19
7.434045575e+19
7.248523525e+19
7.294983291e+19
7.402573709e+19
7.583081375e+19
7.811217507e+19
7.754584282e+19
7.59445701e+19
7.695381696e+19
7.916425594e+19
8.02669033e+19
7.917731757e+19
8.024493874e+19
8.934867878e+19
9.009523904e+19
9.040393793e+19
9.809722064e+19
7.346480378e+19
7.381211354e+19
7.227820794e+19
7.415316428e+19
7.367992897e+19
7.349756255e+19
7.150907082e+19
7.069937296e+19
6.816999645e+19
7.061471012e+19
6.87767352e+19
7.413217395e+19
7.120017229e+19
7.363192638e+19
7.288212887e+19
7.084011686e+19
7.479166001e+19
7.114848528e+19
7.271529751e+19
7.269747252e+19
6.869710091e+19
7.343571228e+19
7.401358487e+19
7.278446389e+19
7.866004169e+19
7.598074503e+19
7.260888655e+19
7.438928571e+19
7.591547205e+19
8.175511988e+19
7.982854599e+19
8.017541701e+19
7.984630359e+19
8.050300227e+19
8.349212068e+19
8.53126057e+19
8.483793747e+19
8.818635193e+19
9.391113933e+19
9.604596184e+19
6.97494986e+19
6.967139551e+19
6.832073368e+19
7.419584236e+19