/*--------------------------------*- C++ -*----------------------------------*\
  =========                 |
  \\      /  F ield         | OpenFOAM: The Open Source CFD Toolbox
   \\    /   O peration     | Website:  https://openfoam.org
    \\  /    A nd           | Version:  7
     \\/     M anipulation  |
\*---------------------------------------------------------------------------*/
FoamFile
{
    version     2.0;
    format      ascii;
    class       volScalarField;
    location    "0.0036";
    object      dsmcSigmaTcRMax;
}
// * * * * * * * * * * * * * * * * * * * * * * * * * * * * * * * * * * * * * //

dimensions      [0 3 -1 0 0 0 0];

internalField   nonuniform List<scalar> 
125
(
9.97119e-16
1.00041e-15
1.00944e-15
1.03172e-15
9.99795e-16
1.00075e-15
1.00985e-15
9.86984e-16
9.73111e-16
9.86869e-16
9.9632e-16
1.01267e-15
1.01974e-15
9.86287e-16
9.94509e-16
9.80068e-16
1.00548e-15
1.0299e-15
1.00633e-15
9.92996e-16
9.78275e-16
1.02142e-15
9.88411e-16
9.91956e-16
1.00912e-15
9.98807e-16
9.82257e-16
9.83101e-16
1.01632e-15
9.97142e-16
1.03739e-15
9.87286e-16
1.00993e-15
9.99274e-16
9.75032e-16
9.88167e-16
9.80582e-16
9.88957e-16
9.79285e-16
1.00396e-15
9.62505e-16
1.00705e-15
9.92843e-16
9.95442e-16
1.01901e-15
1.022e-15
1.00783e-15
9.8021e-16
9.99491e-16
9.95162e-16
1.0284e-15
1.00901e-15
9.97972e-16
1.0012e-15
9.84528e-16
1.03904e-15
1.01056e-15
9.82537e-16
9.92761e-16
9.96172e-16
9.8475e-16
1.023e-15
1.0219e-15
1.00533e-15
9.8672e-16
9.74179e-16
1.03504e-15
1.01288e-15
9.85867e-16
1.02077e-15
1.00592e-15
9.89964e-16
1.03293e-15
9.86788e-16
9.90916e-16
9.80931e-16
9.88998e-16
1.01296e-15
9.86769e-16
9.91646e-16
9.81678e-16
1.00496e-15
9.9561e-16
9.77336e-16
9.85981e-16
9.80147e-16
1.00513e-15
9.95058e-16
1.01874e-15
9.96358e-16
9.98382e-16
1.01102e-15
9.7515e-16
9.95981e-16
9.85461e-16
1.00223e-15
9.80505e-16
9.79498e-16
1.00892e-15
1.01512e-15
9.81044e-16
9.9181e-16
9.83262e-16
9.77064e-16
1.0215e-15
1.02978e-15
9.93049e-16
9.89724e-16
9.92888e-16
1.00483e-15
1.00322e-15
9.89117e-16
9.8232e-16
1.01018e-15
9.76868e-16
1.04041e-15
9.72482e-16
1.00638e-15
1.00164e-15
1.00921e-15
9.98081e-16
9.91386e-16
9.71651e-16
9.87673e-16
9.90716e-16
)
;

boundaryField
{
    sides
    {
        type            symmetry;
    }
    empty
    {
        type            empty;
    }
    procBoundary0to1
    {
        type            processor;
        value           uniform 1.00535e-15;
    }
}


// ************************************************************************* //
