/*--------------------------------*- C++ -*----------------------------------*\
  =========                 |
  \\      /  F ield         | OpenFOAM: The Open Source CFD Toolbox
   \\    /   O peration     | Website:  https://openfoam.org
    \\  /    A nd           | Version:  7
     \\/     M anipulation  |
\*---------------------------------------------------------------------------*/
FoamFile
{
    version     2.0;
    format      ascii;
    class       volScalarField;
    location    "0.0036";
    object      rhoN;
}
// * * * * * * * * * * * * * * * * * * * * * * * * * * * * * * * * * * * * * //

dimensions      [0 -3 0 0 0 0 0];

internalField   nonuniform List<scalar> 
125
(
8.89286e+22
9.5e+22
9.39286e+22
9.25e+22
8.42857e+22
8.46429e+22
8.75e+22
8.60714e+22
9.53571e+22
8.78571e+22
9.32143e+22
9.32143e+22
8.21429e+22
9.92857e+22
9.57143e+22
8.14286e+22
8.89286e+22
9.96429e+22
8.64286e+22
8.85714e+22
9.21429e+22
9.39286e+22
8.5e+22
1.00357e+23
9e+22
9e+22
8.67857e+22
9.10714e+22
8.14286e+22
9.64286e+22
8.64286e+22
9.67857e+22
9.64286e+22
8.5e+22
9.32143e+22
8.92857e+22
9.07143e+22
9.57143e+22
9.10714e+22
9.17857e+22
9.46429e+22
8.10714e+22
9.5e+22
8.25e+22
9.57143e+22
8.17857e+22
9.25e+22
8.14286e+22
1.03929e+23
9.35714e+22
8e+22
9.46429e+22
8.32143e+22
9.71429e+22
8.5e+22
9.71429e+22
9.57143e+22
7.64286e+22
9.46429e+22
8.82143e+22
8.46429e+22
9.5e+22
1.01071e+23
9.71429e+22
8.85714e+22
9.78571e+22
8.5e+22
9.5e+22
9.35714e+22
1.01429e+23
8.57143e+22
9.39286e+22
8.39286e+22
8.5e+22
9.35714e+22
8.32143e+22
9.39286e+22
8.67857e+22
9.92857e+22
8.85714e+22
9.89286e+22
9.03571e+22
8.67857e+22
9.35714e+22
8.17857e+22
8.60714e+22
9.42857e+22
9.32143e+22
9.21429e+22
8.03571e+22
8.60714e+22
9.42857e+22
8.96429e+22
8.60714e+22
9.46429e+22
8.5e+22
8.17857e+22
8.10714e+22
9e+22
9.14286e+22
8.67857e+22
8.57143e+22
8.57143e+22
8.5e+22
8.5e+22
8.46429e+22
8.32143e+22
8.32143e+22
7.35714e+22
8.53571e+22
8.5e+22
8.07143e+22
7.28571e+22
7.35714e+22
8.89286e+22
9e+22
6.89286e+22
7.67857e+22
7.67857e+22
7.67857e+22
7.5e+22
8.14286e+22
8.03571e+22
7.67857e+22
7.46429e+22
)
;

boundaryField
{
    sides
    {
        type            symmetry;
    }
    empty
    {
        type            empty;
    }
    procBoundary0to1
    {
        type            processor;
        value           uniform 8.85714e+22;
    }
}


// ************************************************************************* //
