/*--------------------------------*- C++ -*----------------------------------*\
  =========                 |
  \\      /  F ield         | OpenFOAM: The Open Source CFD Toolbox
   \\    /   O peration     | Website:  https://openfoam.org
    \\  /    A nd           | Version:  7
     \\/     M anipulation  |
\*---------------------------------------------------------------------------*/
FoamFile
{
    version     2.0;
    format      ascii;
    class       volVectorField;
    location    "0.015";
    object      momentum;
}
// * * * * * * * * * * * * * * * * * * * * * * * * * * * * * * * * * * * * * //

dimensions      [1 -2 -1 0 0 0 0];

internalField   nonuniform List<vector> 
1000
(
(-2.15926e-05 1.73077e-05 -7.04913e-05)
(3.71227e-05 2.44875e-05 6.2386e-06)
(1.87684e-05 2.34391e-05 3.96637e-05)
(-6.43993e-06 3.8797e-05 -5.32659e-05)
(-3.27159e-05 7.19783e-05 2.05468e-05)
(-1.94782e-05 1.52172e-05 7.8845e-06)
(-8.00509e-05 -4.29683e-05 -1.92047e-05)
(-3.74785e-05 -1.00667e-05 -3.14603e-05)
(-2.57948e-05 -5.62315e-05 1.10658e-05)
(3.95031e-06 -2.58352e-05 -7.58569e-06)
(-1.86458e-05 1.0173e-06 -1.19389e-05)
(1.30355e-05 8.6432e-06 -2.96392e-05)
(-5.24108e-06 -4.97988e-06 1.28293e-05)
(2.33252e-05 -8.59888e-06 4.30747e-05)
(3.7745e-05 -7.13539e-05 -6.38156e-05)
(1.89602e-05 -2.83939e-05 1.65293e-05)
(2.50161e-05 2.36106e-05 -1.8988e-05)
(2.09884e-05 -2.64359e-05 5.12102e-06)
(2.37529e-05 2.19354e-05 1.03783e-05)
(-7.15505e-06 2.17387e-05 -1.63672e-05)
(1.0269e-05 -1.7129e-05 -5.32001e-05)
(8.20334e-06 3.7844e-05 -3.46679e-05)
(1.62029e-05 -2.04479e-05 -3.73248e-05)
(4.17495e-06 -1.91806e-05 8.36705e-06)
(6.78409e-06 -1.19826e-05 6.63263e-06)
(1.15503e-05 1.7177e-05 -4.13784e-06)
(2.86865e-06 -1.62438e-05 7.37796e-05)
(1.69854e-05 -7.91636e-07 3.37621e-05)
(2.07729e-05 1.5782e-05 -2.51711e-06)
(1.15613e-05 -1.34384e-06 -2.55672e-05)
(3.70878e-05 1.27309e-05 -2.88558e-05)
(-2.40541e-05 -6.15567e-06 2.09922e-05)
(3.48888e-05 2.8312e-05 -2.56901e-05)
(-1.60507e-05 -3.79385e-05 -3.13611e-05)
(-3.32076e-05 2.4328e-05 -1.148e-05)
(-7.44612e-06 6.67464e-06 1.82652e-06)
(-4.35027e-05 9.44327e-06 -4.39492e-05)
(4.21342e-05 5.15807e-05 -4.09457e-05)
(-9.25309e-06 1.77972e-05 5.63566e-05)
(-2.03323e-05 -1.14769e-05 3.39578e-05)
(4.65802e-05 3.4548e-06 -1.34491e-05)
(2.63044e-06 4.7477e-06 -3.09997e-05)
(-1.10968e-05 2.36478e-05 3.95148e-06)
(-3.25794e-05 1.69667e-05 3.39863e-05)
(5.07861e-05 1.83708e-05 7.14048e-06)
(-1.55304e-05 1.32992e-05 9.0806e-05)
(3.48146e-05 -3.72817e-06 -2.87864e-05)
(4.18875e-05 -2.25534e-05 2.01773e-05)
(3.90181e-05 2.9671e-05 5.88357e-05)
(-3.7213e-05 -3.6953e-05 -3.73163e-05)
(6.41247e-06 6.73185e-06 -5.97366e-06)
(2.18376e-05 -1.83855e-05 3.92675e-05)
(0.000104452 3.40775e-05 5.1597e-05)
(-6.13421e-06 -5.2215e-05 -1.65962e-05)
(6.30623e-05 1.92452e-05 2.10266e-06)
(9.42698e-05 -3.0896e-05 -6.31695e-06)
(3.94137e-05 6.88009e-06 2.94169e-06)
(3.25427e-05 2.37171e-05 -6.65831e-06)
(-2.83568e-05 9.16441e-06 -1.4249e-05)
(4.1279e-06 -4.85154e-06 -5.01178e-06)
(3.40489e-05 7.8655e-06 -4.71467e-05)
(3.60673e-05 5.35185e-06 -1.73584e-05)
(3.35426e-05 4.02281e-06 4.56708e-05)
(1.71046e-05 -2.52465e-05 -1.46638e-05)
(7.06566e-05 3.69489e-05 -6.00373e-05)
(0.000106656 5.59877e-05 -4.01771e-05)
(-1.06652e-05 1.37757e-05 2.58735e-07)
(1.03114e-05 2.82416e-05 -2.89439e-05)
(5.77552e-07 -2.64452e-05 -1.75035e-05)
(8.30301e-05 5.28135e-05 -7.61743e-08)
(3.36761e-06 -4.5385e-07 -2.76398e-05)
(1.20226e-05 -2.01353e-06 5.24834e-05)
(6.04328e-05 -2.97683e-05 -5.09619e-08)
(6.60066e-05 -1.92268e-05 1.23651e-05)
(2.10868e-05 -4.91738e-05 -1.97725e-05)
(4.29464e-05 -2.11451e-05 -6.04114e-05)
(2.6932e-05 6.53098e-05 -6.99404e-05)
(7.59474e-05 -2.62746e-05 4.56472e-05)
(7.58451e-05 6.9887e-05 -4.5579e-06)
(-3.1033e-06 7.47782e-05 -6.05787e-05)
(-2.78629e-05 -2.64932e-05 -3.57629e-05)
(8.73507e-05 6.40873e-07 4.95751e-05)
(2.69885e-05 1.18338e-05 -2.42804e-05)
(1.83486e-06 5.66866e-05 -5.47557e-05)
(-2.49213e-05 2.66968e-06 -8.60312e-05)
(5.06665e-05 -4.8581e-07 -4.80925e-05)
(4.60044e-05 8.34963e-05 -4.93879e-05)
(1.82834e-05 -3.60419e-05 -2.06569e-05)
(7.23367e-05 -1.16812e-06 2.44959e-05)
(2.1696e-05 -1.34226e-05 -2.6215e-06)
(2.01356e-05 1.64197e-06 1.29404e-05)
(3.65402e-05 -5.41459e-05 -5.78374e-06)
(-1.21749e-05 2.66101e-05 -1.68239e-05)
(-3.8184e-05 1.72822e-05 5.03812e-05)
(2.35896e-05 -4.33527e-05 -5.07593e-05)
(-2.86391e-05 -2.75285e-06 -1.39185e-05)
(-2.74378e-05 -4.05054e-05 4.22439e-05)
(3.52789e-05 -7.64044e-06 2.43292e-05)
(3.11422e-05 4.11354e-05 6.38526e-05)
(4.92145e-05 2.92806e-05 5.35902e-05)
(8.30057e-05 -4.16848e-05 5.64789e-07)
(4.89382e-05 3.18484e-05 2.88983e-05)
(-7.33614e-06 4.58725e-05 3.74805e-05)
(2.9054e-05 -1.55185e-06 9.10599e-07)
(-6.08868e-06 7.98517e-06 5.61369e-06)
(6.98293e-06 -3.47051e-05 -1.69714e-05)
(8.13997e-05 5.13023e-06 2.03191e-05)
(2.21463e-05 -4.50992e-06 -6.19269e-06)
(5.75188e-05 2.3244e-05 -2.14855e-05)
(6.39261e-05 -2.63936e-05 3.4162e-05)
(4.57922e-05 1.57902e-05 -5.10535e-05)
(3.49098e-05 1.99281e-05 -6.81252e-05)
(3.71661e-05 1.21812e-06 6.75587e-05)
(3.5214e-05 -4.04306e-05 5.83994e-05)
(3.66593e-05 1.69163e-05 -1.64628e-05)
(2.14173e-05 8.64169e-05 7.56426e-06)
(5.03179e-05 -1.30943e-05 -1.85792e-06)
(4.87615e-05 2.85492e-05 -0.000108582)
(3.87222e-06 -1.83465e-05 -3.57668e-05)
(4.84835e-05 -4.46711e-05 3.08014e-05)
(5.17044e-05 -4.18008e-05 -2.95397e-06)
(2.31957e-05 -6.87379e-05 1.83624e-05)
(3.26573e-05 1.40905e-05 -3.82068e-05)
(5.3019e-06 7.02857e-06 -2.89069e-05)
(2.15772e-05 1.04086e-05 6.36732e-05)
(-2.46274e-06 -3.60803e-05 -1.73652e-05)
(-1.00372e-05 2.03879e-06 3.45584e-05)
(1.26415e-05 -7.4418e-06 1.05443e-05)
(5.00581e-05 2.31271e-05 2.68848e-05)
(4.11727e-05 -1.2472e-06 8.77326e-06)
(2.03808e-05 1.26196e-05 1.7918e-05)
(3.60866e-05 -2.52152e-05 7.66117e-06)
(1.86494e-05 -5.55823e-06 1.52202e-05)
(1.86736e-05 5.18415e-05 -4.40405e-05)
(5.51604e-05 1.73461e-05 -6.10181e-06)
(-2.26203e-07 -5.0426e-06 4.39813e-05)
(1.55008e-05 3.83862e-06 -4.39594e-05)
(3.14305e-05 3.46178e-05 -5.75728e-05)
(-3.74653e-06 -3.15701e-05 -3.132e-05)
(3.82766e-05 -2.44798e-05 1.40173e-05)
(3.56882e-05 2.70583e-05 -2.44979e-05)
(-1.68942e-05 1.3743e-05 -4.51328e-06)
(2.75965e-05 1.06178e-05 4.76456e-05)
(8.74772e-06 3.86268e-05 2.52017e-05)
(2.50637e-05 6.0599e-05 5.76342e-05)
(2.88187e-06 -4.51625e-06 -3.46503e-05)
(3.8311e-05 1.91538e-06 3.26396e-05)
(1.68424e-05 -1.78621e-05 5.81539e-06)
(-3.09973e-05 -1.61728e-05 -1.91317e-05)
(-5.75843e-05 4.61906e-06 -2.70246e-05)
(-1.6549e-05 1.41957e-05 -4.78204e-05)
(7.47896e-05 -2.08545e-05 2.721e-05)
(7.91311e-06 2.04821e-05 -5.08516e-05)
(6.49481e-05 2.84858e-05 -1.52414e-05)
(-1.26171e-05 -1.07309e-05 1.49127e-05)
(1.26839e-05 -7.9679e-05 -2.56996e-05)
(-5.34631e-05 -3.71805e-05 4.25544e-05)
(-5.6012e-05 4.9084e-05 -8.65827e-06)
(6.20413e-06 3.43365e-05 -5.33604e-06)
(-6.7369e-06 -3.03512e-06 4.42847e-05)
(-7.41832e-05 -8.0718e-06 -2.94702e-05)
(-1.11175e-05 -1.01394e-05 -2.93978e-05)
(-5.08691e-06 -1.06429e-05 1.14899e-06)
(2.81159e-05 -8.8792e-06 4.89449e-06)
(-3.79372e-06 3.24434e-05 -2.86575e-05)
(-4.40919e-05 1.87703e-05 -0.000121068)
(-2.65048e-05 -2.83355e-05 4.21919e-05)
(1.18326e-05 3.26455e-05 1.30034e-05)
(-1.1932e-06 -5.05397e-05 -1.9969e-05)
(-1.26266e-05 4.84934e-06 5.18537e-05)
(7.30839e-06 -4.6885e-06 2.59107e-05)
(8.98778e-06 -5.69525e-05 -2.01522e-05)
(-4.32655e-05 -1.64255e-05 -1.84019e-05)
(-2.71116e-05 4.48954e-05 -3.05243e-05)
(1.91132e-05 -3.62584e-05 -7.56279e-05)
(2.74315e-05 -9.87177e-06 -6.33719e-07)
(-3.53561e-05 -3.65251e-05 2.14279e-05)
(-4.45377e-05 4.4911e-06 -3.30331e-05)
(-7.46717e-05 -2.59652e-05 -1.65545e-05)
(-6.88818e-05 -3.54825e-05 -6.77184e-05)
(-1.96501e-07 7.98829e-06 1.23737e-06)
(1.20938e-05 2.20142e-05 -4.90945e-06)
(-7.33135e-05 9.40331e-05 9.43556e-06)
(-8.59887e-05 2.0999e-05 4.9189e-05)
(-7.89931e-05 5.09903e-05 3.39874e-05)
(-2.09568e-05 -2.47082e-05 1.02646e-05)
(-7.12961e-05 2.81001e-05 -2.08584e-06)
(-6.25214e-05 2.79496e-05 1.09254e-05)
(-8.55699e-05 1.84625e-05 -6.76153e-06)
(-5.80541e-05 -7.37347e-05 1.3395e-05)
(-7.04253e-05 2.65643e-05 -4.89257e-05)
(-6.96133e-05 -2.29153e-05 -2.22366e-05)
(-9.93551e-05 8.25292e-05 2.99847e-05)
(-3.11809e-05 -1.36354e-05 2.24264e-05)
(-5.70586e-05 6.95155e-06 -3.43291e-05)
(-7.1139e-05 4.65247e-05 3.51868e-05)
(-9.56392e-05 -4.90339e-05 -6.5584e-05)
(-0.000116861 5.07103e-06 -2.60141e-05)
(-8.13793e-05 -4.65593e-06 3.42458e-05)
(-7.3594e-05 3.32127e-05 1.51596e-05)
(-7.65426e-05 -5.23026e-05 3.21064e-05)
(-1.83418e-05 6.52728e-05 3.91024e-05)
(-9.47239e-05 4.27399e-05 -4.60682e-05)
(-6.92212e-05 -2.04473e-05 8.94463e-06)
(-0.000150002 -3.04942e-05 2.02235e-06)
(-0.000155835 -7.73403e-06 -1.7612e-05)
(-0.000183479 7.00072e-05 -3.10139e-06)
(-0.000128202 7.35174e-06 5.46638e-05)
(-8.99157e-05 2.97966e-05 -1.76934e-06)
(-0.000193966 5.50286e-05 1.84374e-05)
(-0.000158676 1.02182e-05 6.61799e-05)
(-0.000125324 2.45012e-05 1.64424e-05)
(-0.000143532 3.7914e-05 2.14233e-05)
(-0.000157659 8.09878e-06 -3.91869e-05)
(-0.000218507 2.74173e-06 2.26924e-05)
(-7.70594e-05 -1.45493e-05 -1.34531e-05)
(-0.000105998 9.36451e-06 2.76622e-05)
(-0.000155313 4.81029e-05 4.48433e-05)
(-0.000106713 -2.56283e-06 5.40735e-05)
(-0.000230908 -6.19887e-05 -6.20301e-06)
(-0.000205208 2.20781e-05 3.94011e-05)
(-0.000220696 1.04943e-05 3.17952e-05)
(-0.000217045 3.44864e-05 4.34523e-05)
(-0.000221308 -1.43608e-05 3.99678e-05)
(-0.000230487 1.28475e-05 5.43943e-05)
(-0.000132451 4.84794e-06 5.43853e-05)
(-0.000195114 -1.71801e-05 3.5031e-05)
(-0.000303229 -3.94396e-06 -8.061e-05)
(-0.000186868 -3.47361e-05 -5.60295e-05)
(-0.000186248 -5.08261e-05 -1.07256e-06)
(-0.000258923 4.93406e-05 2.59311e-05)
(-0.000232264 -1.71987e-05 3.05964e-05)
(-0.000162394 5.30163e-06 3.11191e-05)
(-0.000304762 -2.94385e-05 4.0586e-06)
(-0.000192378 9.26745e-05 -1.09733e-05)
(-0.00026531 -5.62162e-05 -3.33506e-05)
(-0.000328412 -7.86522e-06 -4.30657e-05)
(-0.000202181 3.95713e-05 2.73996e-05)
(-0.000247122 -2.08357e-05 1.55472e-05)
(-0.000258122 -6.85167e-06 6.75762e-06)
(-0.000255652 -1.85507e-05 -6.09976e-06)
(-0.000268776 1.31603e-05 -2.51765e-05)
(-0.000250676 2.78524e-06 6.18973e-05)
(-0.000195315 -1.07726e-05 -3.00817e-05)
(-0.000310544 -8.50553e-06 -5.00463e-05)
(-0.00032574 3.47804e-05 -7.66728e-07)
(-0.000329724 1.31338e-05 -3.0215e-05)
(-0.000236133 8.29843e-05 4.37048e-06)
(-0.000374683 7.7424e-06 -2.07661e-05)
(-0.000264871 -5.19626e-06 2.60189e-05)
(-0.00028192 8.7979e-06 1.52322e-05)
(-0.000278199 3.06414e-05 -5.56044e-05)
(-0.000333376 7.49816e-05 1.13608e-05)
(-0.000354068 -4.30257e-06 -6.43305e-06)
(-0.000291411 -2.56371e-06 5.51624e-05)
(-0.000342761 -9.77235e-06 -4.97678e-06)
(-0.000227397 2.42502e-05 6.48049e-05)
(-0.000332837 8.59198e-05 8.76709e-06)
(-0.000333994 3.35554e-05 -5.06409e-05)
(-0.000277117 -2.17926e-06 4.23713e-05)
(-0.000316889 -8.4574e-05 6.64321e-05)
(-0.000304635 1.97045e-05 -1.69653e-05)
(-0.000283706 1.88105e-06 6.765e-05)
(-0.000264559 -3.84403e-05 1.61021e-05)
(-0.000357383 4.35921e-05 -5.07768e-05)
(-0.000313677 2.01585e-05 -4.05384e-05)
(-0.000381829 -2.12938e-05 -1.14007e-05)
(-0.000329023 -3.95284e-05 6.81712e-07)
(-0.000352119 -3.51834e-06 1.16988e-06)
(-0.000252611 2.09489e-05 2.23015e-05)
(-0.000357634 2.61191e-05 1.86423e-05)
(-0.000312904 -3.54465e-05 -2.71986e-05)
(-0.000344486 -6.51832e-06 1.26241e-05)
(-0.000297062 1.76641e-05 8.74349e-06)
(-0.000366332 7.88706e-05 3.54949e-05)
(-0.000426633 1.72372e-06 0.000107429)
(-0.000308261 -9.87272e-06 7.23196e-05)
(-0.000379772 -1.32244e-06 -1.31442e-05)
(-0.00033255 -8.19668e-06 4.053e-05)
(-0.00038532 -9.87699e-06 -1.67221e-05)
(-0.00036382 -4.78948e-06 -1.43807e-05)
(-0.0003803 1.70723e-05 4.9786e-05)
(-0.000395499 8.23311e-06 1.34872e-05)
(-0.000411199 -9.36456e-06 -4.33213e-05)
(-0.000405179 1.77064e-06 -2.58624e-05)
(-0.000378052 2.87342e-05 -2.06869e-06)
(-0.000486888 -1.26669e-05 1.54492e-06)
(-0.000428051 -1.50892e-05 4.69821e-06)
(-0.000385287 -4.58769e-05 2.5343e-05)
(-0.000410888 -2.16945e-05 2.43309e-05)
(-0.000347379 -9.26478e-05 3.09635e-05)
(-0.000321577 3.88001e-05 7.92654e-06)
(-0.00034743 1.68921e-05 -2.58489e-05)
(-0.0003265 7.44289e-06 -3.87242e-05)
(-0.000306654 2.99583e-05 4.66599e-05)
(-0.00036361 -2.19946e-05 1.77636e-05)
(-0.000399542 3.3114e-05 2.07845e-05)
(-0.000399188 -2.03617e-05 1.19489e-05)
(-0.000354043 -3.08549e-06 -2.10288e-05)
(-0.000425922 0.000126972 -2.52107e-05)
(-0.000408798 -1.09696e-05 2.12065e-05)
(-0.000461361 1.18828e-05 -7.56298e-06)
(-0.000374195 4.37476e-05 -7.04141e-05)
(-0.000415813 7.86422e-06 -8.66428e-05)
(-0.000432141 -5.04823e-06 -2.76134e-05)
(-0.000368107 3.76936e-05 2.35363e-05)
(-0.000350129 -5.38793e-05 -2.41547e-05)
(-0.000382716 4.63992e-05 5.2577e-05)
(-0.000420754 -1.74516e-05 2.51077e-05)
(-0.000453791 9.4574e-05 -3.03476e-05)
(-0.000441637 8.69467e-06 -0.000104231)
(-0.000437656 4.76422e-05 -3.13763e-05)
(-0.000434426 -2.68322e-07 3.83814e-05)
(-0.000395454 -3.09823e-05 2.22048e-05)
(-0.000369568 4.21256e-05 2.04231e-05)
(-0.000420865 5.0032e-05 -3.79423e-05)
(-0.000493461 2.23439e-05 3.0511e-05)
(-0.00042127 -8.50836e-05 -3.64572e-06)
(-0.000456892 -1.85513e-05 -2.14274e-05)
(-0.000446501 3.53593e-05 2.69737e-05)
(-0.00042836 2.17607e-05 -5.33379e-05)
(-0.000401022 1.5893e-05 -5.87396e-05)
(-0.000416875 -4.40499e-05 3.90335e-05)
(-0.000464766 -2.07408e-05 2.95258e-06)
(-0.000466116 -7.97738e-06 2.75472e-06)
(-0.000378376 3.30983e-05 3.38213e-05)
(-0.000439919 5.02053e-05 -5.20763e-05)
(-0.000410225 1.64733e-05 -3.49071e-05)
(-0.000441247 -8.70358e-05 -4.67379e-05)
(-0.000381055 -8.74375e-06 3.62758e-05)
(-0.000433657 -4.88008e-05 -3.9656e-05)
(-0.000448995 1.73753e-05 -4.1207e-05)
(-0.000392637 -4.05539e-06 6.98603e-05)
(-0.000408956 -7.75998e-06 -4.19099e-05)
(-0.000494117 3.05412e-05 9.30607e-05)
(-0.000458786 5.62899e-06 5.21926e-05)
(-0.000407 9.48724e-05 3.10562e-05)
(-0.000399105 5.64901e-05 4.0809e-05)
(-0.000415462 -1.22152e-05 -5.67812e-05)
(-0.000394733 1.26532e-05 7.62147e-06)
(-0.000397368 -7.89574e-05 -2.09971e-05)
(-0.000514042 -5.4332e-05 4.9159e-06)
(-0.000512189 5.67883e-05 -8.74857e-05)
(-0.000434145 -9.88987e-05 -2.5901e-05)
(-0.000414983 5.13409e-05 -1.33584e-05)
(-0.00036329 -1.8447e-05 -7.52816e-05)
(-0.000433049 7.65538e-05 -2.93015e-05)
(-0.00046762 8.81365e-06 -6.8988e-05)
(-0.000421344 -6.22849e-05 7.79206e-05)
(-0.000458486 -4.27238e-05 3.62513e-05)
(-0.000451995 0.000113882 -9.73216e-06)
(-0.000394432 2.80222e-05 7.91731e-06)
(-0.000403042 1.69129e-05 -1.96661e-06)
(-0.000390218 -5.0749e-05 -6.33863e-05)
(-0.000473549 -1.72739e-05 -5.35973e-05)
(-0.000412226 -2.99391e-05 9.04303e-06)
(-0.000470971 8.11944e-05 -3.44746e-05)
(-0.000376657 -9.91828e-05 -9.60467e-06)
(-0.000444744 -2.38238e-05 8.35695e-05)
(-0.000454916 3.3539e-05 4.72078e-05)
(-0.000493996 -1.20473e-05 -0.000113584)
(-0.00038912 2.70034e-05 6.73009e-05)
(-0.000471948 -2.53054e-05 -3.72795e-06)
(-0.000437471 -4.31466e-06 -5.07266e-05)
(-0.00045874 -2.56483e-06 -1.38471e-05)
(-0.000486579 -5.81814e-05 -2.17203e-05)
(-0.000407124 -4.80696e-05 2.35437e-07)
(-0.000426663 2.92525e-05 1.54966e-05)
(-0.000423958 -7.06085e-06 -1.98691e-05)
(-0.000471137 -4.23864e-05 4.55261e-05)
(-0.000435508 -5.96938e-05 -1.76907e-05)
(-0.000484273 4.07635e-05 3.04665e-05)
(-0.000402222 -4.09955e-06 3.99686e-05)
(-0.000366759 4.44578e-05 -5.09652e-05)
(-0.000404475 -3.10236e-05 1.60994e-05)
(-0.000461422 -5.43112e-06 -2.83017e-05)
(-0.000464414 3.98295e-05 1.20727e-05)
(-0.000404042 6.04798e-06 3.91389e-05)
(-0.000412948 4.13354e-05 -3.87448e-05)
(-0.000392518 -7.26931e-05 -2.22987e-06)
(-0.000424026 -4.75119e-05 -3.14792e-05)
(-0.000393777 4.40452e-05 9.43977e-05)
(-0.000412767 9.27686e-06 2.81255e-05)
(-0.000381619 -6.85858e-05 4.8558e-05)
(-0.000458497 -1.02723e-05 -2.65994e-05)
(-0.000410556 -0.00010158 6.69724e-07)
(-0.000343857 -4.94336e-06 3.53256e-05)
(-0.000425249 8.15356e-06 -8.03847e-05)
(-0.000406644 -4.9606e-05 -9.81519e-05)
(-0.000387433 -6.41289e-05 -9.13424e-06)
(-0.000472245 2.41514e-05 -1.75963e-05)
(-0.000417799 -3.32591e-05 4.29312e-05)
(-0.000394375 -3.63257e-05 3.28128e-05)
(-0.000392622 -1.91816e-05 6.46303e-06)
(-0.00046157 -4.22509e-05 8.70003e-06)
(-0.000405139 2.28017e-06 -6.82827e-05)
(-0.000454028 -3.49114e-05 -6.19898e-05)
(-0.000447553 -3.19212e-05 8.37874e-05)
(-0.00044315 2.91612e-05 7.61592e-06)
(-0.000454587 -5.2459e-05 -7.11382e-05)
(-0.000491354 -4.47929e-05 -3.00055e-05)
(-0.000419637 1.55637e-05 -1.20986e-05)
(-0.000461799 3.41548e-05 -3.41606e-05)
(-0.000504282 6.9854e-06 9.40057e-06)
(-0.000372085 0.00011728 -1.86051e-05)
(-0.00046834 5.74131e-05 3.22867e-05)
(-0.00037398 -5.18583e-05 -5.75361e-05)
(-0.000486278 8.65119e-05 5.7827e-06)
(-0.000300149 -5.65303e-05 2.61291e-05)
(-0.000455145 2.75855e-05 -1.10674e-05)
(-0.000399612 -2.6379e-05 -2.24946e-05)
(-0.000471747 9.80186e-05 -9.12371e-06)
(-0.000451213 -3.13434e-06 -5.19115e-05)
(-0.000437466 5.11994e-06 1.74677e-05)
(-0.000414343 7.25374e-05 1.85722e-05)
(-0.000434986 -3.42075e-05 5.66155e-07)
(-0.000370488 -6.74095e-06 2.3877e-05)
(-0.00035181 -9.30928e-05 -3.22202e-05)
(-0.000420906 -3.61383e-05 -2.24826e-05)
(-0.000423841 -3.77991e-05 -9.25757e-05)
(-0.000365568 0.000113851 -2.26607e-05)
(-0.000488489 1.5936e-05 -4.69262e-05)
(-0.000377453 -2.92019e-05 9.25345e-06)
(-0.000443938 4.87942e-05 -7.12038e-05)
(-0.000376094 2.32899e-05 -2.6826e-07)
(-0.00034938 1.52923e-05 6.64041e-06)
(-0.000432154 5.97085e-05 -5.1256e-06)
(-0.000410526 6.02325e-05 -2.7404e-05)
(-0.000435098 -5.96469e-05 -4.7424e-06)
(-0.000371912 -4.63762e-05 -6.00177e-06)
(-0.000367308 -9.92496e-06 6.23698e-05)
(-0.000419378 -6.60001e-05 3.94494e-05)
(-0.000420977 -9.42839e-05 8.46208e-05)
(-0.000482238 -1.33125e-05 3.34447e-05)
(-0.000382276 -3.07796e-05 2.13313e-05)
(-0.000352409 5.99688e-05 2.5538e-05)
(-0.000364366 -5.77885e-05 -1.9181e-05)
(-0.000405844 -3.77939e-05 2.41835e-05)
(-0.000496415 -2.62322e-05 -2.38095e-05)
(-0.000401613 1.82411e-05 -9.53406e-06)
(-0.000453068 -1.18384e-05 -7.1891e-06)
(-0.000380568 -6.28947e-05 -1.55787e-05)
(-0.000445804 1.43765e-05 -7.63895e-05)
(-0.000339827 -1.44596e-06 1.86916e-05)
(-0.000357356 -1.45992e-06 6.29095e-05)
(-0.000389975 4.49598e-05 -5.416e-06)
(-0.000381985 8.23787e-05 6.24454e-05)
(-0.000345078 4.00566e-05 -8.18425e-06)
(-0.000390652 2.3052e-05 1.37421e-05)
(-0.000423413 9.22225e-07 -6.81977e-07)
(-0.000501262 3.7097e-05 2.39672e-05)
(-0.000420063 1.15151e-05 -3.10664e-06)
(-0.00039878 3.10138e-05 1.52248e-05)
(-0.00041012 -3.79502e-05 4.79887e-05)
(-0.000366226 8.40844e-05 -1.36473e-05)
(-0.00032249 -3.98465e-06 4.92402e-05)
(-0.000299935 -6.42385e-05 1.03353e-05)
(-0.000364682 -1.52098e-05 -3.49764e-06)
(-0.000366528 4.81874e-05 -8.84409e-05)
(-0.00036807 -2.37001e-05 8.71608e-05)
(-0.000379154 7.46136e-05 -5.77275e-05)
(-0.000404571 -1.13534e-05 7.5861e-06)
(-0.000341914 4.1902e-05 -6.10755e-05)
(-0.000387163 -1.74836e-05 0.000101065)
(-0.000327397 -6.67727e-06 4.49526e-05)
(-0.000417921 -3.70426e-05 -3.87854e-05)
(-0.00036646 -1.47747e-05 -2.11739e-05)
(-0.000349873 -2.33403e-05 -6.17536e-06)
(-0.000371379 -1.4264e-05 4.73082e-05)
(-0.000407674 7.43785e-05 2.32301e-05)
(-0.000347265 -3.28389e-05 -4.67867e-05)
(-0.000333656 -3.18344e-05 -7.88463e-05)
(-0.000336656 -7.43253e-05 6.78266e-05)
(-0.000368029 -4.40788e-05 2.38236e-05)
(-0.000371221 3.53554e-05 -3.20529e-05)
(-0.000354852 1.31816e-06 2.72222e-05)
(-0.000376701 0.000145102 6.09056e-05)
(-0.000294181 -2.20786e-05 -2.84578e-05)
(-0.000432068 -6.46018e-05 -2.60761e-06)
(-0.000410951 5.01101e-05 8.448e-06)
(-0.000303067 -7.62936e-05 3.81203e-05)
(-0.000374288 7.87341e-05 1.58468e-05)
(-0.000345895 5.53642e-05 -3.48355e-05)
(-0.000372254 -2.79616e-05 -1.57473e-05)
(-0.000390025 -3.04572e-05 6.00257e-05)
(-0.000406286 8.88616e-05 -1.30128e-05)
(-0.000392278 -3.99356e-05 0.000103514)
(-0.00039556 1.70354e-05 -6.78423e-05)
(-0.000354579 -4.1426e-05 2.89142e-05)
(-0.000380928 -4.38701e-05 -2.36031e-05)
(-0.00038629 2.78029e-05 9.64561e-06)
(-0.000421168 2.82693e-05 -5.26668e-05)
(-0.000372466 -4.25596e-06 1.71555e-05)
(-0.000374307 -1.83053e-05 -2.33008e-05)
(-0.000339838 3.96815e-05 -5.87384e-06)
(-0.000356261 -4.23786e-05 -2.33021e-05)
(-0.000401978 2.83159e-05 8.59758e-06)
(-0.000310777 -4.56048e-05 -3.67398e-06)
(-0.000249926 5.34675e-05 6.44683e-05)
(-0.000386587 4.67268e-05 2.62944e-05)
(-0.000393701 -1.03507e-05 -5.73966e-05)
(-0.000322404 2.30925e-05 3.06695e-05)
(-0.000446099 3.01145e-05 3.18029e-05)
(-0.000373037 3.41548e-05 3.37586e-06)
(-0.000323156 1.32576e-05 -2.04599e-06)
(-0.000397956 -3.95814e-05 8.45033e-05)
(-0.000411263 -5.4555e-05 1.84537e-05)
(-0.000408942 -2.12765e-05 8.70593e-06)
(-0.000339448 -7.244e-05 -1.75244e-05)
(-0.000306578 5.49952e-05 -1.40266e-05)
(-0.00038288 7.84178e-06 1.44673e-05)
(-0.00040333 3.99607e-06 -1.51267e-05)
(-0.000339352 -1.07689e-06 -5.02667e-05)
(-0.000334066 -8.85228e-06 -3.34889e-05)
(-0.000322987 -1.63851e-05 9.03401e-05)
(-0.000417193 -1.80618e-05 1.53111e-05)
(-0.000327523 8.96636e-05 2.84711e-05)
(-0.000266455 8.46466e-05 -6.4961e-05)
(-0.000371388 3.69373e-05 8.84321e-06)
(-0.000360494 2.20513e-06 1.16704e-05)
(-0.000393971 -6.53253e-05 2.52879e-05)
(-0.000299185 -4.05553e-05 6.62866e-05)
(-0.000386498 3.68732e-05 -3.70227e-05)
(-0.000246946 -4.43062e-05 6.91165e-05)
(-0.000330922 -3.85943e-05 5.83138e-06)
(-0.000288374 -3.10589e-05 0.00010324)
(-0.000351652 5.0913e-05 -6.24142e-05)
(-0.000267734 -2.1807e-05 2.50398e-05)
(-0.000367419 -0.000108004 -5.35026e-05)
(-0.000294086 2.79072e-05 1.44834e-05)
(-0.000288554 -4.53361e-05 -2.30111e-06)
(-0.000278339 -1.11816e-05 -4.56418e-05)
(-0.000295343 1.93833e-05 -3.82176e-05)
(-0.000257058 5.99079e-06 -7.304e-05)
(-0.000315729 7.8861e-05 5.21314e-05)
(-0.000261217 -3.03137e-05 5.51492e-05)
(-0.000342502 -8.34779e-05 -1.88473e-05)
(-0.000288943 3.0816e-06 3.50983e-05)
(-0.000297542 -2.95287e-05 5.06782e-05)
(-0.000341166 -1.67814e-05 5.76513e-05)
(-0.000254018 2.08992e-05 -4.65813e-05)
(-0.000303445 -2.76211e-05 4.91271e-05)
(-0.000261362 -2.37382e-05 -7.19894e-05)
(-0.000268972 -4.37247e-05 9.80513e-06)
(-0.00041334 8.08668e-06 3.78307e-05)
(-0.0003614 -1.69128e-05 -1.58468e-05)
(-0.000293289 -6.36559e-05 5.16721e-05)
(-0.000256105 8.20689e-05 -4.93657e-05)
(-0.000349512 -2.00214e-05 4.24339e-05)
(-0.0003885 -5.95078e-05 7.62873e-05)
(-0.000300402 3.15825e-05 1.9285e-05)
(-0.000299105 -1.98136e-06 4.47565e-07)
(-0.000343467 -3.26823e-05 -1.26015e-05)
(-0.000301173 3.72628e-06 3.74269e-05)
(-0.00025048 1.35037e-05 4.89857e-05)
(-0.000262827 3.25482e-05 -7.85625e-05)
(-0.000373868 -3.76381e-05 -2.23809e-05)
(-0.000262878 8.27858e-06 -1.40078e-05)
(-0.000244514 3.82425e-06 2.33671e-05)
(-0.0002616 5.31818e-06 8.63081e-06)
(-0.00034582 -2.89146e-05 -1.6961e-05)
(-0.000397539 -5.86692e-05 -4.38046e-06)
(-0.000348535 2.8159e-05 4.64057e-05)
(-0.000284349 3.89897e-05 4.18658e-05)
(-0.000337087 -0.000100824 -1.07844e-05)
(-0.000356393 7.93289e-05 6.3922e-05)
(-0.000350336 1.73037e-05 1.49483e-05)
(-0.000316496 6.27795e-08 -3.29191e-05)
(-0.000216891 -1.50812e-05 2.56973e-05)
(-0.000300251 -2.08007e-05 -4.6165e-05)
(-0.000288074 5.11575e-05 8.38836e-05)
(-0.000227189 -5.53275e-05 6.37165e-05)
(-0.000232198 6.59772e-06 1.54472e-05)
(-0.000219775 -4.14367e-05 6.57979e-06)
(-0.000345909 2.14694e-05 2.95637e-05)
(-0.000244505 -6.12128e-05 3.74887e-05)
(-0.000223259 4.23044e-05 -6.64677e-05)
(-0.000311895 -4.08193e-05 -9.19034e-07)
(-0.00027202 2.03162e-07 2.93133e-07)
(-0.000324856 -1.37253e-05 -3.2802e-05)
(-0.00026269 -1.97159e-05 -3.95216e-06)
(-0.000295502 8.86728e-06 -0.00012362)
(-0.000228447 -2.81553e-05 6.1653e-05)
(-0.000268881 2.82822e-05 -2.01664e-06)
(-0.00036111 4.25232e-05 -6.95557e-05)
(-0.000280176 -2.21919e-05 1.22251e-05)
(-0.000332813 -1.01475e-05 -6.88395e-05)
(-0.000296836 -2.00401e-05 1.47474e-05)
(-0.000218979 -8.71108e-06 -3.70921e-05)
(-0.000313952 -1.20259e-05 -4.79141e-05)
(-0.000208969 -2.62116e-05 -4.6478e-05)
(-0.000332368 -1.63214e-05 0.000103429)
(-0.000250029 2.11903e-05 -3.62919e-05)
(-0.000258258 -2.75732e-05 3.23695e-07)
(-0.000341533 7.74417e-05 2.67453e-05)
(-0.000321864 4.59206e-05 -2.61526e-05)
(-0.000173306 -3.3841e-05 2.73815e-05)
(-0.000326769 3.89522e-05 -2.06731e-05)
(-0.000290302 1.73223e-05 2.40104e-05)
(-0.000238034 -1.17102e-05 -2.52145e-05)
(-0.000172209 4.17911e-05 7.40565e-05)
(-0.000212027 -1.28565e-05 3.37035e-05)
(-0.000221828 -4.89745e-05 -2.70727e-06)
(-0.000235237 -1.52919e-05 4.50246e-05)
(-0.000249451 -2.57086e-05 -6.72876e-05)
(-0.000290373 -0.000103344 -1.69504e-05)
(-0.000299444 1.75374e-05 -5.88179e-06)
(-0.000247258 8.852e-05 2.56594e-06)
(-0.00025155 7.53526e-06 1.3492e-05)
(-0.000222609 -4.48193e-05 1.50852e-05)
(-0.000250366 1.79315e-06 5.83806e-06)
(-0.000253963 6.70312e-05 9.06447e-05)
(-0.000260371 -7.1939e-06 -1.75724e-05)
(-0.000306882 -5.966e-05 -5.01869e-05)
(-0.000191103 -5.09998e-05 -1.73914e-05)
(-0.000317409 -4.9064e-05 5.81138e-06)
(-0.000258237 -5.62359e-05 -7.92251e-06)
(-0.000260669 -8.04688e-05 -1.51009e-05)
(-0.00035127 -3.83117e-05 6.96167e-05)
(-0.00028233 -2.47945e-05 -3.19497e-05)
(-0.00025196 -7.29754e-05 -7.52757e-05)
(-0.000234488 -8.06632e-05 -1.48805e-05)
(-0.000223051 3.79254e-06 -6.69137e-06)
(-0.000321493 2.33984e-05 4.45471e-05)
(-0.000246779 -2.60472e-05 -1.04523e-05)
(-0.00022137 6.96421e-05 8.52264e-06)
(-0.000266473 -5.65126e-05 3.05377e-05)
(-0.000212343 -6.1283e-05 -3.84217e-05)
(-0.000260285 -5.19315e-05 -1.11745e-05)
(-0.000319888 1.07221e-05 -2.80351e-05)
(-0.000204372 9.32335e-06 -1.90989e-05)
(-0.000153041 -2.01827e-05 7.52353e-05)
(-0.00020588 -3.89098e-05 1.81936e-06)
(-0.000273389 -3.44961e-05 6.06817e-05)
(-0.000245801 4.4121e-05 -5.18574e-05)
(-0.000254199 -5.80998e-06 1.63986e-05)
(-0.000245782 2.60207e-05 3.25477e-05)
(-0.000317588 -9.99716e-05 1.93548e-05)
(-0.000287794 7.50293e-06 -3.87735e-06)
(-0.000155471 -6.05636e-05 1.34783e-05)
(-0.000279101 -1.02548e-05 1.434e-05)
(-0.000258678 2.3683e-05 4.46046e-05)
(-0.000229328 -4.3813e-05 -3.89686e-05)
(-0.000258976 -1.3056e-05 1.4647e-05)
(-0.000256324 -1.38253e-05 4.53618e-05)
(-0.000311076 -5.73715e-06 5.86816e-05)
(-0.000149319 8.242e-06 -7.04814e-06)
(-0.000260094 -7.20596e-05 7.98337e-05)
(-0.00015995 -2.71437e-05 -2.24388e-05)
(-0.000276206 -1.3826e-05 3.95863e-06)
(-0.000279119 2.05685e-05 -7.95943e-06)
(-0.000230201 -3.36257e-05 2.05311e-05)
(-0.000202313 3.64827e-05 -7.54781e-05)
(-0.000167152 -3.61458e-05 -1.09967e-05)
(-0.000185121 5.9498e-06 -9.49478e-05)
(-0.000193367 -5.13754e-05 4.96565e-05)
(-0.000230698 2.10796e-05 -3.09826e-05)
(-0.000240714 3.03444e-05 -1.90025e-05)
(-0.000220049 1.87239e-05 -7.84764e-05)
(-0.00031078 5.31714e-05 5.72723e-05)
(-0.000237209 -3.96733e-06 3.39893e-05)
(-0.000209086 0.000103045 -1.77286e-05)
(-0.000149464 4.57559e-05 3.27431e-05)
(-0.000241424 -1.92947e-05 -3.39959e-06)
(-0.000283929 2.58965e-05 -3.83131e-05)
(-0.000194767 -1.16267e-05 -3.92439e-05)
(-0.00031305 -8.88468e-05 1.65686e-05)
(-0.000188531 -2.03432e-05 7.63452e-05)
(-0.000271781 -4.0409e-05 1.01861e-05)
(-0.000205852 -8.19897e-05 -1.15137e-05)
(-0.00017714 -3.19602e-05 4.96773e-06)
(-0.000152398 -1.88206e-05 2.55041e-06)
(-0.000258644 -0.000109731 -5.32793e-05)
(-0.000216824 6.61692e-05 -3.77158e-05)
(-0.00024073 -1.96614e-05 -1.83561e-05)
(-0.000116685 -1.37155e-05 -8.33561e-05)
(-0.000256634 2.38367e-05 1.2686e-05)
(-0.000227824 8.45796e-06 -5.73108e-06)
(-0.000205298 7.97753e-05 -1.89982e-05)
(-0.000237159 -1.99707e-05 -5.08219e-06)
(-0.000106784 -8.77645e-06 -3.53722e-05)
(-0.00026047 7.74121e-05 -6.20444e-05)
(-0.000240501 -2.06732e-05 2.30656e-06)
(-0.000156894 -9.80169e-05 -3.21609e-05)
(-0.000241989 2.48201e-05 3.02282e-05)
(-0.000195926 -2.67378e-05 -5.50181e-05)
(-0.000235776 -3.41776e-05 1.79267e-05)
(-0.00015196 -2.57257e-06 -3.27101e-05)
(-0.000227828 -7.10446e-05 1.20875e-05)
(-0.000163263 -7.28178e-05 -4.29703e-05)
(-0.00024035 7.83692e-06 1.82741e-05)
(-0.000183828 9.43643e-05 2.4268e-06)
(-0.000159164 -3.45663e-05 -1.40507e-05)
(-0.000185357 5.51814e-05 -4.46419e-05)
(-0.000160763 1.29225e-05 7.33049e-05)
(-0.000137148 5.73567e-05 3.82675e-05)
(-0.00012865 1.85273e-05 2.74799e-05)
(-0.000105551 -4.83846e-05 -1.71107e-05)
(-0.000154097 -2.23086e-05 -6.59225e-05)
(-0.000148773 1.16992e-05 4.44588e-05)
(-0.000163359 4.33855e-05 -2.03756e-05)
(-0.000211743 -3.98093e-05 -4.30413e-05)
(-0.000207815 5.59105e-05 -6.70393e-05)
(-0.000186788 -1.25475e-05 -7.83913e-05)
(-0.000165975 -0.000117218 -2.34181e-05)
(-0.000155745 -1.85464e-05 1.96943e-05)
(-0.0001949 5.65644e-05 9.63263e-05)
(-0.00017721 1.09608e-05 9.5526e-05)
(-0.000261415 -6.58921e-05 5.63584e-05)
(-0.000179896 1.58817e-05 2.42359e-05)
(-0.000171163 6.97491e-05 8.76431e-05)
(-0.000194695 4.29892e-05 9.79195e-06)
(-0.000181763 1.01302e-05 -4.32477e-05)
(-0.000100549 -3.2684e-05 -2.82134e-05)
(-0.000206359 6.91038e-05 -8.07198e-07)
(-0.000141644 -2.55286e-05 -6.65795e-06)
(-0.000200252 -6.0268e-05 2.27975e-05)
(-0.00014571 -2.78691e-05 3.38449e-05)
(-0.000103566 2.71491e-06 -3.35077e-05)
(-0.000136679 -3.69244e-05 -8.57937e-05)
(-0.000153683 4.23393e-05 -0.000118891)
(-0.00012318 -3.00049e-05 1.51678e-05)
(-7.28356e-05 -8.37706e-05 3.94686e-05)
(-0.000133696 0.000112115 -6.16069e-05)
(-0.000191311 1.00729e-05 -0.000110785)
(-0.000113506 -5.17317e-05 -1.2332e-05)
(-0.000146167 4.46299e-05 -5.05921e-06)
(-0.000190537 -2.89965e-05 -7.28039e-06)
(-0.000285008 8.33699e-05 -7.23369e-07)
(-5.22296e-05 -6.61906e-05 5.40495e-05)
(-0.000185448 -9.16156e-07 -1.83795e-05)
(-0.000186882 1.82438e-05 -3.40621e-06)
(-0.000123292 7.3646e-05 -5.35507e-05)
(-0.000147926 -1.00155e-05 3.77714e-05)
(-0.000187362 -6.00423e-05 0.000101431)
(-0.00019621 5.70889e-05 -3.60876e-05)
(-0.000240973 2.52336e-05 -9.04074e-06)
(-0.000155642 8.42644e-06 3.11332e-05)
(-0.000116516 -2.32011e-05 9.74861e-06)
(-0.000155331 -5.20188e-05 -0.000115666)
(-0.000170355 1.74626e-05 1.57862e-05)