/*--------------------------------*- C++ -*----------------------------------*\
  =========                 |
  \\      /  F ield         | OpenFOAM: The Open Source CFD Toolbox
   \\    /   O peration     | Website:  https://openfoam.org
    \\  /    A nd           | Version:  7
     \\/     M anipulation  |
\*---------------------------------------------------------------------------*/
FoamFile
{
    version     2.0;
    format      ascii;
    class       volScalarField;
    location    "0.00144";
    object      linearKE;
}
// * * * * * * * * * * * * * * * * * * * * * * * * * * * * * * * * * * * * * //

dimensions      [1 -1 -2 0 0 0 0];

internalField   nonuniform List<scalar> 
125
(
1591.55
1748.09
1678.65
1635.84
1574.47
1755.42
1688.63
1768.4
1646.47
1665.76
1917.25
1721.01
1668.41
1803.23
1720.18
1726.24
1549.3
1700.91
1691.75
1601.26
1808.35
1522.67
1798.88
1721.27
1680.8
1718.16
1652.04
1870.55
1797.79
1480.22
1727.51
1680.48
1888.56
1606.59
1704.22
1764.27
1791.43
1781.54
1556.64
1489.18
1617.91
1539.33
1649.68
1572.68
1897.02
1499.03
1532.39
1681.63
1646.06
1796.83
1694.52
1753.64
1534.09
1497.04
1786.44
1770.77
1620.58
2095.24
1885.05
1792.45
1488.16
1461.44
1932.85
1886.89
1725.64
1645.52
1568.41
1674.12
1648.52
1617.21
1696.04
1935.31
1712.72
1764.84
1601.19
1737.73
1612.64
1581.2
1670.15
1681.14
1899.15
1614.96
1807.81
1866.05
1499.13
1635.47
1961.64
1592.75
1776.24
1753.52
1528.11
1567.45
1626.38
1766.97
1688.59
1672.98
1609.37
1677.62
1696.77
1971.96
1785.78
1828.44
1685.36
1884.24
1573.7
1803.94
1451.1
1845.94
1666.53
1677.18
1588.22
1552.59
1611.71
1662.21
1924.39
1985.19
1888.66
1790.56
1863.81
1584.19
1693.92
1877.66
1478.42
1577.95
1562.29
)
;

boundaryField
{
    sides
    {
        type            symmetry;
    }
    empty
    {
        type            empty;
    }
    procBoundary0to1
    {
        type            processor;
        value           uniform 1343.52;
    }
}


// ************************************************************************* //
