/*--------------------------------*- C++ -*----------------------------------*\
  =========                 |
  \\      /  F ield         | OpenFOAM: The Open Source CFD Toolbox
   \\    /   O peration     | Website:  https://openfoam.org
    \\  /    A nd           | Version:  7
     \\/     M anipulation  |
\*---------------------------------------------------------------------------*/
FoamFile
{
    version     2.0;
    format      ascii;
    class       volScalarField;
    location    "0.00144";
    object      linearKE;
}
// * * * * * * * * * * * * * * * * * * * * * * * * * * * * * * * * * * * * * //

dimensions      [1 -1 -2 0 0 0 0];

internalField   nonuniform List<scalar> 
125
(
1568.52
1704.02
1698.68
1674.51
1685.32
1735.97
1714.89
1727.78
1770.06
1616.92
1639.51
1617.12
1709.36
1703.14
1606.87
1777.2
1749.9
1794.64
1734.96
1820.58
1628.41
1782.37
1675.58
1694.36
1787.96
2009.88
1936.9
1709.7
1499.25
1741.14
1799.07
1549.07
1544.99
1664.1
1822.2
1744.19
1643.14
1545.94
1549.82
1708.9
1813.59
1597.25
1522.51
1692.31
1741.72
1703.46
1448.11
1580.88
1634.65
1896.15
1729.69
1611.07
1700.26
1696.25
1552.4
1880.03
1704.49
1495.65
1763.97
1816.78
1711.9
1626.88
1528.97
1876.4
1614.89
1589.96
1928.72
1668.49
1624.73
1649
1837.13
1670.56
1392.03
1865.99
1745.11
1877.58
1399.31
1833.81
1735.71
1730.42
1978.51
1749.42
1688.96
1764.85
1517.23
1704.63
1642.35
1639.77
1478.73
1633.66
1671.34
1742.19
1674.69
1942.27
1263.81
1419.36
1632.16
2044.27
1718.17
1824.44
1658.37
1549.3
1711.13
1752.77
1814.44
1689.88
1401.67
1835.66
1582.86
1587.09
1570.1
1686.92
1707.07
1777.54
1539.18
1615.72
1651.71
1630.71
1642.14
1731.64
2076.22
1697.23
1785.8
1683.89
1608.13
)
;

boundaryField
{
    sides
    {
        type            symmetry;
    }
    empty
    {
        type            empty;
    }
    procBoundary0to1
    {
        type            processor;
        value           uniform 1508.2;
    }
}


// ************************************************************************* //
