/*--------------------------------*- C++ -*----------------------------------*\
  =========                 |
  \\      /  F ield         | OpenFOAM: The Open Source CFD Toolbox
   \\    /   O peration     | Website:  https://openfoam.org
    \\  /    A nd           | Version:  7
     \\/     M anipulation  |
\*---------------------------------------------------------------------------*/
FoamFile
{
    version     2.0;
    format      ascii;
    class       volScalarField;
    location    "0.003";
    object      dsmcSigmaTcRMax;
}
// * * * * * * * * * * * * * * * * * * * * * * * * * * * * * * * * * * * * * //

dimensions      [0 3 -1 0 0 0 0];

internalField   nonuniform List<scalar> 
2400
(
6.029824841e-16
5.671659692e-16
6.208254866e-16
5.800572137e-16
6.231043349e-16
5.901924074e-16
5.932102785e-16
6.134801457e-16
5.766807133e-16
6.178412911e-16
5.630669673e-16
5.889125325e-16
6.142958452e-16
5.93915191e-16
7.190297858e-16
7.840775421e-16
8.764155427e-16
8.241919211e-16
8.114672145e-16
8.569081833e-16
5.682386358e-16
6.256945998e-16
6.265335838e-16
5.785973329e-16
5.94410236e-16
5.777405224e-16
5.794723779e-16
6.111490213e-16
5.740620355e-16
6.476945339e-16
6.143018592e-16
8.787011494e-16
6.906694488e-16
6.808851203e-16
7.132234227e-16
7.82707566e-16
7.754036962e-16
8.114983763e-16
8.500792843e-16
8.817513668e-16
6.053974018e-16
5.961089579e-16
5.7871889e-16
6.022330138e-16
5.55991972e-16
5.605214612e-16
5.712956205e-16
5.739160763e-16
6.039680333e-16
6.157158397e-16
7.529450068e-16
7.694875367e-16
7.257421888e-16
7.378767e-16
7.497339907e-16
7.797682036e-16
7.951591215e-16
8.477200388e-16
8.560640985e-16
8.151599002e-16
6.100896852e-16
5.936309434e-16
5.992930967e-16
5.940057778e-16
5.780195482e-16
6.101118048e-16
6.385005301e-16
6.37602432e-16
6.381004504e-16
7.243122866e-16
5.874345372e-16
6.004086713e-16
6.085424988e-16
7.391757358e-16
8.4812718e-16
7.829765327e-16
8.284715407e-16
7.901009793e-16
8.171621293e-16
8.22840479e-16
5.97804721e-16
5.979780647e-16
5.82788009e-16
5.73023609e-16
5.738371412e-16
5.762520907e-16
5.594093206e-16
6.124966795e-16
6.491675438e-16
6.299362846e-16
5.80810771e-16
5.918704324e-16
7.220006871e-16
7.556737511e-16
7.19518143e-16
8.603675881e-16
7.975893736e-16
7.740373251e-16
8.156812798e-16
8.600716362e-16
5.247737901e-16
6.071633825e-16
5.552375912e-16
6.071885225e-16
5.783288921e-16
5.588732216e-16
6.03594379e-16
6.053094266e-16
6.008288762e-16
5.569374667e-16
6.084215328e-16
5.546175334e-16
7.680459458e-16
5.90584796e-16
7.782499517e-16
6.655997431e-16
7.485798042e-16
9.013387277e-16
8.995552743e-16
8.267377683e-16
6.100009185e-16
6.461627393e-16
5.756826368e-16
6.304691561e-16
6.097245152e-16
5.785701809e-16
6.235070253e-16
5.853673095e-16
5.718763535e-16
6.128779502e-16
8.677410916e-16
7.661629932e-16
7.125562302e-16
7.552596936e-16
7.926438944e-16
8.209964235e-16
7.317832689e-16
8.189082607e-16
7.682340827e-16
8.216295392e-16
5.518409411e-16
5.462057746e-16
5.587694965e-16
6.026466791e-16
5.875879633e-16
6.053099693e-16
6.518120659e-16
5.818623298e-16
6.282754099e-16
5.673358632e-16
6.603733783e-16
7.047277853e-16
7.033219869e-16
7.196244664e-16
6.923109052e-16
6.882303081e-16
7.025319934e-16
7.269350677e-16
8.301292244e-16
8.508119601e-16
5.76909937e-16
6.129264999e-16
5.853703625e-16
6.25457767e-16
6.533784921e-16
5.859971692e-16
5.803174127e-16
5.979541323e-16
5.605918448e-16
5.579722106e-16
5.957809785e-16
5.89209513e-16
6.336252665e-16
7.256962005e-16
6.886750176e-16
8.239671315e-16
7.056046224e-16
7.101239962e-16
7.815326231e-16
7.912188128e-16
5.509473174e-16
6.036874383e-16
5.683909576e-16
6.670866534e-16
5.809350425e-16
6.106489942e-16
6.671985985e-16
5.96104446e-16
7.739416661e-16
5.605332717e-16
5.751728657e-16
8.615052408e-16
5.859636215e-16
6.205783793e-16
7.201186688e-16
7.03094073e-16
7.815112511e-16
7.677173211e-16
7.056844243e-16
8.403522843e-16
6.465604956e-16
5.739095049e-16
5.903945052e-16
6.1694333e-16
5.638099666e-16
5.621324366e-16
6.344519974e-16
6.732044929e-16
5.75174962e-16
5.743156152e-16
5.762959875e-16
6.630687855e-16
5.881374173e-16
7.491031891e-16
7.233547188e-16
5.998861899e-16
8.54387006e-16
8.280481071e-16
7.777023621e-16
7.636596608e-16
5.787050943e-16
5.637721084e-16
5.750630128e-16
6.120515045e-16
6.679360181e-16
6.039951511e-16
6.041162209e-16
6.073281522e-16
5.599762977e-16
6.053944397e-16
5.85881505e-16
7.446450448e-16
6.745546516e-16
7.29176638e-16
6.575344671e-16
6.130059411e-16
6.335877792e-16
6.632868527e-16
7.537949601e-16
7.441482342e-16
5.857429333e-16
5.946153239e-16
5.798516547e-16
5.893910362e-16
5.985437323e-16
5.615262716e-16
5.777454155e-16
5.761165524e-16
5.801499844e-16
5.942516609e-16
5.84151272e-16
5.948672026e-16
7.384328797e-16
6.579807979e-16
7.473823482e-16
6.039882356e-16
7.568370783e-16
7.951926632e-16
7.463213944e-16
7.664388683e-16
6.038586156e-16
5.607923441e-16
5.906015795e-16
6.005337231e-16
5.815829632e-16
5.860262013e-16
6.22066975e-16
5.770836599e-16
5.652935166e-16
5.847464044e-16
6.192537251e-16
7.042453024e-16
6.268556569e-16
5.759741615e-16
6.2690316e-16
6.914518549e-16
5.639544305e-16
7.41382222e-16
8.139223437e-16
7.927117163e-16
5.932446053e-16
6.076242512e-16
6.03001284e-16
5.610870003e-16
5.856242305e-16
6.416670308e-16
5.282910315e-16
6.057236118e-16
5.750597328e-16
5.722200752e-16
5.64003307e-16
5.880570497e-16
6.036177189e-16
5.742365463e-16
6.131003357e-16
5.882086238e-16
6.076305244e-16
7.354336275e-16
5.980990108e-16
7.597049914e-16
5.378168725e-16
5.679387345e-16
6.416822621e-16
5.608163166e-16
6.21822044e-16
6.80018445e-16
6.369327841e-16
5.934188812e-16
5.553977437e-16
6.450385644e-16
5.960545478e-16
6.020606368e-16
6.206306914e-16
6.242963822e-16
6.073660909e-16
5.969715717e-16
5.926317585e-16
6.761015842e-16
6.661288566e-16
7.602463349e-16
5.643834519e-16
5.725043801e-16
5.872081949e-16
6.263240596e-16
5.848442583e-16
5.818426449e-16
5.748488789e-16
5.924945741e-16
6.494077623e-16
6.121259535e-16
5.95473421e-16
5.71639156e-16
5.839901007e-16
7.02693218e-16
8.094137583e-16
7.824564525e-16
6.084867425e-16
5.974051751e-16
7.793851283e-16
7.239416054e-16
5.398695801e-16
5.657016986e-16
5.766083002e-16
5.794707067e-16
5.944996184e-16
5.885528461e-16
5.59812803e-16
5.842084758e-16
6.093918769e-16
5.929313085e-16
5.782669758e-16
7.174660616e-16
5.734717639e-16
5.704678787e-16
5.831681327e-16
5.949271924e-16
5.809346465e-16
5.811913122e-16
8.016563436e-16
6.949309385e-16
6.607934094e-16
5.792883794e-16
5.789166933e-16
5.94568389e-16
5.670783716e-16
5.797157399e-16
5.727912382e-16
5.81654056e-16
5.94999991e-16
5.820678488e-16
5.510049951e-16
6.721002945e-16
5.72720059e-16
5.931116391e-16
6.26128778e-16
7.37262107e-16
5.64735888e-16
7.291446996e-16
7.332047177e-16
6.762695278e-16
6.020349305e-16
6.785493634e-16
6.3458091e-16
6.175581111e-16
6.510836444e-16
5.683974025e-16
5.972041721e-16
5.993932986e-16
5.972825705e-16
6.100631127e-16
5.703103473e-16
6.133790705e-16
6.222957129e-16
5.838754091e-16
5.987826469e-16
5.95536596e-16
7.087921093e-16
6.171396936e-16
7.204081076e-16
6.211685984e-16
5.865471047e-16
6.423521191e-16
5.821966483e-16
6.097729404e-16
6.408556311e-16
6.322339858e-16
5.573230008e-16
5.811633203e-16
6.070105133e-16
5.994479554e-16
5.897465436e-16
5.954088601e-16
6.431417273e-16
5.875894267e-16
5.814641799e-16
5.788256021e-16
7.237047405e-16
6.094769445e-16
6.236631934e-16
5.90050172e-16
5.754545136e-16
6.028910306e-16
6.131301997e-16
5.916888747e-16
5.939651256e-16
5.761992074e-16
5.884824068e-16
5.807598827e-16
6.101236485e-16
6.243650839e-16
5.845032548e-16
5.981629467e-16
6.20445709e-16
7.111685456e-16
7.334566055e-16
5.717412949e-16
5.79453178e-16
5.975266686e-16
7.41110424e-16
5.82848913e-16
5.720608381e-16
6.200531306e-16
6.280665097e-16
5.812634737e-16
5.692294504e-16
5.716745637e-16
6.033046277e-16
6.091637866e-16
6.026593274e-16
5.912670277e-16
6.044257259e-16
5.900323352e-16
5.937228495e-16
7.538402873e-16
6.918119761e-16
5.922531846e-16
8.05372683e-16
6.12588711e-16
5.642419133e-16
5.912224122e-16
6.018442192e-16
5.919706549e-16
6.079150651e-16
5.734604077e-16
5.904575421e-16
5.830494645e-16
5.80257156e-16
5.939468949e-16
5.688566669e-16
5.738693073e-16
6.186330228e-16
5.487833337e-16
5.862475901e-16
5.658838363e-16
5.971872177e-16
5.865207768e-16
6.71604002e-16
5.81356794e-16
5.605866164e-16
7.108731691e-16
5.468934187e-16
6.167732789e-16
5.750108197e-16
6.014782372e-16
5.973831015e-16
6.041067561e-16
5.829831876e-16
5.789417414e-16
5.942473342e-16
5.712949183e-16
5.715648379e-16
6.360964344e-16
5.897527133e-16
5.924735039e-16
5.860056579e-16
5.9888701e-16
6.00268739e-16
6.148368148e-16
6.092722594e-16
5.914137426e-16
5.572903089e-16
5.987556699e-16
5.979316003e-16
5.800947663e-16
5.558259234e-16
5.896781245e-16
5.961518639e-16
5.873027419e-16
5.833673148e-16
6.399093556e-16
6.784236736e-16
5.715746599e-16
5.821649133e-16
5.820797875e-16
6.090998302e-16
6.509323241e-16
5.491033207e-16
6.891834769e-16
6.980338914e-16
6.390246661e-16
5.923971193e-16
6.200194555e-16
5.633576505e-16
6.140332782e-16
6.318374625e-16
5.658427204e-16
5.797535005e-16
5.669772628e-16
5.767495033e-16
5.79232811e-16
6.12576216e-16
5.753611214e-16
5.563612558e-16
5.561229702e-16
5.622140024e-16
6.016406998e-16
6.749288272e-16
5.773630506e-16
6.515204338e-16
6.507393737e-16
5.564657839e-16
6.034579144e-16
5.886812977e-16
5.84013393e-16
5.882399164e-16
5.669388816e-16
5.684254933e-16
6.02281643e-16
5.712417572e-16
6.15198597e-16
6.009381994e-16
5.732115193e-16
5.551499652e-16
5.759661702e-16
5.90406485e-16
5.902689117e-16
6.278256363e-16
5.757765958e-16
5.977803564e-16
6.165628781e-16
5.87761282e-16
5.984397482e-16
5.871636317e-16
6.768846102e-16
5.647611191e-16
5.910697026e-16
5.943015727e-16
5.947371005e-16
6.002874714e-16
6.003891544e-16
5.747721809e-16
6.005417589e-16
5.812941018e-16
6.409852032e-16
6.260292907e-16
5.707852389e-16
7.495532002e-16
6.328084081e-16
5.638486869e-16
6.521730389e-16
5.595949015e-16
5.783609591e-16
5.785699726e-16
5.969337747e-16
5.658951736e-16
5.757782326e-16
6.249208075e-16
6.043004172e-16
5.88478635e-16
6.066085783e-16
5.765947261e-16
5.932328108e-16
5.508784443e-16
5.836505004e-16
6.031343375e-16
5.731787517e-16
6.053461899e-16
5.479851059e-16
5.596848698e-16
6.264829461e-16
5.716660536e-16
5.990124515e-16
6.395350958e-16
6.05287258e-16
5.512791279e-16
6.114346884e-16
5.863995289e-16
6.445564017e-16
5.548909839e-16
5.691024321e-16
5.725089477e-16
5.680697849e-16
5.801452238e-16
6.085786477e-16
5.778859584e-16
5.887289298e-16
5.993416999e-16
5.664559607e-16
5.690940517e-16
5.868276512e-16
5.868335189e-16
5.795602212e-16
5.61623678e-16
5.843187037e-16
5.981115509e-16
5.780784502e-16
5.969017864e-16
5.752235539e-16
5.68266581e-16
5.651085286e-16
6.337986817e-16
5.467909447e-16
6.260066743e-16
5.990845615e-16
5.831407017e-16
5.972135398e-16
5.851064569e-16
6.042182727e-16
5.856927487e-16
5.854101111e-16
6.062652801e-16
5.991648904e-16
6.14728837e-16
5.707222854e-16
5.817186486e-16
5.817186486e-16
5.74213308e-16
5.864515744e-16
6.31828501e-16
5.783116429e-16
5.739317698e-16
6.322575745e-16
5.683883063e-16
6.261576671e-16
5.587597514e-16
5.894573465e-16
5.769850927e-16
5.638453368e-16
5.779860287e-16
5.927205603e-16
5.67195182e-16
5.966845722e-16
5.704496004e-16
6.057917669e-16
5.806720551e-16
6.14127164e-16
6.204145975e-16
5.714328923e-16
5.68292527e-16
6.178103841e-16
6.94971224e-16
5.974362062e-16
6.100097865e-16
5.680452046e-16
5.745321774e-16
5.721326733e-16
5.736415218e-16
6.17922961e-16
6.196901119e-16
6.283317663e-16
5.614097044e-16
6.036533851e-16
6.45748013e-16
5.67009501e-16
5.923112587e-16
5.416451055e-16
6.323130352e-16
5.923206622e-16
5.926751753e-16
5.915233073e-16
5.626783538e-16
5.512256403e-16
5.798034849e-16
5.811820542e-16
5.757214781e-16
5.841267565e-16
5.847550276e-16
5.700870645e-16
6.176283163e-16
5.880095961e-16
6.146895905e-16
5.912965069e-16
6.051705056e-16
5.815841444e-16
5.71769891e-16
6.359834793e-16
6.107245983e-16
5.900577208e-16
6.024694293e-16
6.006618475e-16
5.913269739e-16
5.689855703e-16
5.780696562e-16
5.843544604e-16
6.150734843e-16
5.648144336e-16
5.806931865e-16
5.580836247e-16
5.629157624e-16
5.699118954e-16
6.028561799e-16
5.919021293e-16
5.959855781e-16
6.050900884e-16
5.862901874e-16
5.431840944e-16
6.190211411e-16
5.754186873e-16
5.948769526e-16
5.635757914e-16
5.87859242e-16
5.968381609e-16
5.514871676e-16
6.085790834e-16
6.092942272e-16
5.893700216e-16
6.824441139e-16
5.9979039e-16
5.523194327e-16
5.671072182e-16
6.026019307e-16
5.853136591e-16
5.663977943e-16
6.08166407e-16
6.08166407e-16
5.664274271e-16
6.190760571e-16
6.469324309e-16
5.604582374e-16
5.951638093e-16
5.970556715e-16
5.984160025e-16
5.597487026e-16
5.940535914e-16
5.716489352e-16
5.904570008e-16
6.119197319e-16
6.070683671e-16
5.664077386e-16
5.751708143e-16
6.119207149e-16
6.151947342e-16
5.465263898e-16
6.0025418e-16
5.934695041e-16
5.796726372e-16
5.789142058e-16
6.251621702e-16
5.602178664e-16
5.808280986e-16
5.567007173e-16
5.875988876e-16
5.869784399e-16
5.896429936e-16
5.854144011e-16
5.90671109e-16
5.369693628e-16
5.39617212e-16
5.909392044e-16
5.774109571e-16
5.670452447e-16
5.545979001e-16
5.907392867e-16
5.677946116e-16
5.945911347e-16
5.888971487e-16
6.053683008e-16
5.670866531e-16
6.340187944e-16
5.933181251e-16
5.998160171e-16
6.048420742e-16
5.97935879e-16
6.079016742e-16
6.028693122e-16
6.256922127e-16
6.004123397e-16
5.821489011e-16
6.054369602e-16
6.036087972e-16
8.844840221e-16
9.042468532e-16
8.778676074e-16
8.572413157e-16
9.110323259e-16
8.754196506e-16
8.991612125e-16
8.891918111e-16
8.338729067e-16
8.588194241e-16
8.789717128e-16
8.252722255e-16
8.596613419e-16
8.301301892e-16
8.005039221e-16
8.57072504e-16
8.46345494e-16
8.392273202e-16
8.316451752e-16
8.192802233e-16
8.923538413e-16
8.134599233e-16
8.095961304e-16
8.409498636e-16
8.297199741e-16
8.223045169e-16
8.549920464e-16
8.778333208e-16
8.654323536e-16
8.096714792e-16
8.448419759e-16
8.011349192e-16
8.380653889e-16
8.940892034e-16
8.146792497e-16
7.760237243e-16
8.937252751e-16
8.287571527e-16
8.50935006e-16
7.948547325e-16
8.630397371e-16
8.725725829e-16
8.443219705e-16
8.527250303e-16
8.819298266e-16
8.680629072e-16
8.674047235e-16
8.627755871e-16
8.87052477e-16
8.691425981e-16
8.755479309e-16
8.172770755e-16
8.406873454e-16
8.577134272e-16
8.34573717e-16
8.402366798e-16
8.418540798e-16
8.476009309e-16
8.129336005e-16
8.742861895e-16
8.381627352e-16
8.67466887e-16
8.350136819e-16
7.906221295e-16
8.562198811e-16
8.081060551e-16
8.533221968e-16
8.405559191e-16
8.624014257e-16
8.291089491e-16
8.277146752e-16
8.2754037e-16
8.253409328e-16
8.545976054e-16
8.343899946e-16
8.428302434e-16
8.397708648e-16
7.679353544e-16
7.953062406e-16
7.81500767e-16
8.642007516e-16
8.370614355e-16
8.321213829e-16
8.996550359e-16
8.448277446e-16
8.631754531e-16
8.244153562e-16
8.696201776e-16
8.480608282e-16
8.814723753e-16
9.114710868e-16
8.541896686e-16
8.574556187e-16
9.262431095e-16
8.480875331e-16
8.756903728e-16
8.469966872e-16
8.828787296e-16
8.451247826e-16
8.69208776e-16
8.231818099e-16
8.489291056e-16
8.255977721e-16
8.122694881e-16
8.920357298e-16
8.774150576e-16
8.486972749e-16
8.857972928e-16
9.486437663e-16
8.09266652e-16
8.351955003e-16
8.683390474e-16
8.216374523e-16
8.148734726e-16
7.979940947e-16
8.163529365e-16
8.446121104e-16
8.089022811e-16
8.914469991e-16
7.702960091e-16
8.425936771e-16
8.270591418e-16
8.475782382e-16
8.856046342e-16
8.286597227e-16
9.495325739e-16
8.400916633e-16
8.70866176e-16
8.44972298e-16
8.269750507e-16
8.408433225e-16
8.243433271e-16
8.856386548e-16
8.947883396e-16
8.579947569e-16
8.558108153e-16
8.495557901e-16
8.489217508e-16
8.251744483e-16
8.583801047e-16
8.758818236e-16
8.364532891e-16
8.374232304e-16
8.568141563e-16
8.318485305e-16
8.29364519e-16
8.457569266e-16
8.20273963e-16
8.767354412e-16
8.48800831e-16
8.858271736e-16
8.276597729e-16
8.32752187e-16
8.380617436e-16
7.908868069e-16
8.095626277e-16
8.22558368e-16
8.503968019e-16
8.40863341e-16
7.677061258e-16
8.187664294e-16
8.565231568e-16
8.759141547e-16
8.489826536e-16
8.864856327e-16
8.127554163e-16
8.680035883e-16
9.059748513e-16
8.095967265e-16
8.298646988e-16
8.45962747e-16
8.558723923e-16
8.111985141e-16
8.263787716e-16
8.977283443e-16
8.311999099e-16
8.607369386e-16
8.231576051e-16
8.198240782e-16
8.351623747e-16
8.880924185e-16
8.746883161e-16
8.225896432e-16
7.77212877e-16
8.685934042e-16
8.413036799e-16
8.858880862e-16
8.564422496e-16
8.245224638e-16
8.921457103e-16
8.543609442e-16
8.016701869e-16
8.333006386e-16
8.358398683e-16
7.899570484e-16
8.512619522e-16
8.566087785e-16
7.962092585e-16
8.362386932e-16
7.868462223e-16
8.756983373e-16
8.64419066e-16
8.807028076e-16
8.589874934e-16
8.57288547e-16
8.148226151e-16
8.510773893e-16
8.11796173e-16
8.424178952e-16
8.525899631e-16
8.322564696e-16
8.118560808e-16
8.077560687e-16
8.812693943e-16
8.534847481e-16
8.660758507e-16
8.492035173e-16
8.29734338e-16
8.544501997e-16
8.6805955e-16
8.068774814e-16
8.574831362e-16
8.614374149e-16
8.382944448e-16
9.367900598e-16
8.100864844e-16
8.56122889e-16
8.697355445e-16
8.163486591e-16
8.234091778e-16
8.062625598e-16
8.336708237e-16
7.961997087e-16
8.611082672e-16
8.93490429e-16
8.574166306e-16
8.282260096e-16
7.869419793e-16
7.60355788e-16
8.14437609e-16
7.786367532e-16
8.094083871e-16
8.499104799e-16
8.467039292e-16
8.367202267e-16
8.025481203e-16
8.428756992e-16
8.395742047e-16
8.243841213e-16
8.342502622e-16
8.191701306e-16
8.11235524e-16
8.318977297e-16
8.600773347e-16
8.319683309e-16
7.990219328e-16
8.289733136e-16
8.435681553e-16
8.841951061e-16
8.349132301e-16
8.170243034e-16
8.343324119e-16
8.394940085e-16
8.256642841e-16
8.243969093e-16
8.157657649e-16
8.223426836e-16
8.801807347e-16
8.190047482e-16
8.442604996e-16
8.748676639e-16
8.279293547e-16
8.288377123e-16
8.198761831e-16
7.988150446e-16
8.708815621e-16
8.506004098e-16
8.01073433e-16
7.986325622e-16
7.615699012e-16
7.544948855e-16
8.871867717e-16
7.657671378e-16
8.127769459e-16
8.449726229e-16
8.098544969e-16
8.036869995e-16
8.21163321e-16
8.27400969e-16
8.360257245e-16
8.189346714e-16
8.607899989e-16
8.209731789e-16
8.155606239e-16
8.239117313e-16
8.727530988e-16
8.358392864e-16
8.302619086e-16
8.191813611e-16
8.042840466e-16
7.978812652e-16
8.367770673e-16
8.463133052e-16
8.532941616e-16
8.654191056e-16
8.205540455e-16
8.377137427e-16
8.999271361e-16
7.925122131e-16
8.487084795e-16
9.058266374e-16
8.399572812e-16
8.547362988e-16
8.391750895e-16
8.366271334e-16
8.074272895e-16
7.622311509e-16
7.781520392e-16
8.433743952e-16
7.547138275e-16
7.936767761e-16
8.334307682e-16
8.133440664e-16
8.042714285e-16
8.015017429e-16
8.122586522e-16
8.514231535e-16
8.069981033e-16
8.413775248e-16
7.827490679e-16
8.103240456e-16
8.060055686e-16
8.185230039e-16
8.137443384e-16
8.248138892e-16
8.270506596e-16
8.20245112e-16
8.396434925e-16
8.223639498e-16
8.299050095e-16
8.289985711e-16
8.706863073e-16
7.889882874e-16
8.515842778e-16
7.863066091e-16
7.789331566e-16
8.725834217e-16
8.801072e-16
8.109447752e-16
8.572922002e-16
8.225135992e-16
8.373273992e-16
8.147644733e-16
8.064016568e-16
8.523731109e-16
7.919802687e-16
8.242207391e-16
8.04687598e-16
8.144906418e-16
7.971371142e-16
7.701859996e-16
7.431093313e-16
8.175383403e-16
8.901086802e-16
7.596646185e-16
8.01380107e-16
7.977905041e-16
7.944872847e-16
7.96112963e-16
8.307507868e-16
8.494515194e-16
8.1937967e-16
8.07585602e-16
8.43064935e-16
8.045328781e-16
8.393795946e-16
8.356193009e-16
7.960847711e-16
8.205928524e-16
8.27614327e-16
8.563356492e-16
8.312699681e-16
7.79176167e-16
7.868751868e-16
8.118535245e-16
8.983133515e-16
8.694863794e-16
8.537472231e-16
8.444109623e-16
8.611714764e-16
8.577873641e-16
8.46641271e-16
8.367766905e-16
8.284546098e-16
8.058042152e-16
8.14140568e-16
8.60197629e-16
7.95711543e-16
7.899960557e-16
7.47290001e-16
8.776300757e-16
7.236754802e-16
8.369175259e-16
7.997082588e-16
7.658126581e-16
7.539703106e-16
8.203051647e-16
7.914808689e-16
8.345734703e-16
8.40183833e-16
7.754810948e-16
7.722566719e-16
7.815520531e-16
8.58817991e-16
8.192970553e-16
7.872370536e-16
7.954065598e-16
7.90674701e-16
8.126514268e-16
8.27620853e-16
8.156726252e-16
8.074787159e-16
7.87281387e-16
8.150071652e-16
8.305047415e-16
8.381768018e-16
8.121859277e-16
7.715966701e-16
8.222563323e-16
7.734207672e-16
8.114915422e-16
7.874720588e-16
7.744739805e-16
8.461203215e-16
8.425652654e-16
8.213393328e-16
7.941487872e-16
8.461759781e-16
7.527210035e-16
7.534588736e-16
8.100363302e-16
7.387508913e-16
7.519057566e-16
8.108930109e-16
7.790670153e-16
7.70166341e-16
8.007019764e-16
7.76880817e-16
8.182687184e-16
7.941975644e-16
7.188970427e-16
7.837065104e-16
7.709187426e-16
7.898849511e-16
7.776346851e-16
8.535980387e-16
8.2724574e-16
7.904725426e-16
7.689563969e-16
7.662867621e-16
8.233130007e-16
7.644496077e-16
8.467124067e-16
8.201373489e-16
8.55545932e-16
7.838235045e-16
7.826067166e-16
7.935037071e-16
7.823346276e-16
7.922428471e-16
8.082658234e-16
7.750973007e-16
8.406242676e-16
8.162887003e-16
8.360321103e-16
7.771010744e-16
8.064379889e-16
8.330021793e-16
7.614886506e-16
7.714396461e-16
8.017164067e-16
6.817314715e-16
7.864275568e-16
7.690185166e-16
7.871917505e-16
7.66141316e-16
7.870148727e-16
7.549864848e-16
7.792641255e-16
8.113363992e-16
7.735701214e-16
7.698804236e-16
8.004635372e-16
8.594580583e-16
7.899339105e-16
8.837213655e-16
8.216087279e-16
7.955139728e-16
7.939978341e-16
7.926284981e-16
7.85480079e-16
8.813049028e-16
7.68971574e-16
7.919792612e-16
7.95106377e-16
7.941314254e-16
8.067743478e-16
8.57206854e-16
8.548413635e-16
8.134747273e-16
8.314870043e-16
8.124538425e-16
7.605601613e-16
8.251233526e-16
7.661968911e-16
7.946567627e-16
8.062490056e-16
7.682065702e-16
7.759973797e-16
7.922385797e-16
7.412256836e-16
6.894866185e-16
7.642022763e-16
8.06485234e-16
7.911954147e-16
6.900776612e-16
7.931906238e-16
7.725522148e-16
7.352588448e-16
7.640902649e-16
8.101658516e-16
7.650105801e-16
7.765905098e-16
7.821482846e-16
7.860150877e-16
7.688746942e-16
8.269880234e-16
7.449916131e-16
7.85408478e-16
8.042256667e-16
7.651776587e-16
7.932670027e-16
7.979225852e-16
7.925628615e-16
8.787708364e-16
7.89655677e-16
8.32864393e-16
8.157223535e-16
8.495123894e-16
8.13461816e-16
8.16726851e-16
8.175833659e-16
8.858227635e-16
8.025946564e-16
8.745307554e-16
8.018716452e-16
8.102707384e-16
8.264545851e-16
8.09065509e-16
8.166364868e-16
8.238905604e-16
6.853281237e-16
8.638042679e-16
7.167142225e-16
7.903844317e-16
7.800477228e-16
7.551398328e-16
7.474028213e-16
7.455128038e-16
7.777345507e-16
8.832157689e-16
7.255788472e-16
7.02573341e-16
7.537828384e-16
7.91972726e-16
7.424694496e-16
7.847817862e-16
7.959882634e-16
7.521711579e-16
7.96480965e-16
8.178720155e-16
8.072560449e-16
8.060896901e-16
8.126506213e-16
7.930088103e-16
8.221993926e-16
7.680031931e-16
7.779427824e-16
8.156644311e-16
7.814284742e-16
7.782516969e-16
7.934554908e-16
7.984224404e-16
7.789640409e-16
8.269809365e-16
8.069789488e-16
7.95090485e-16
7.798007096e-16
8.438947756e-16
8.088787909e-16
7.019466589e-16
6.522813267e-16
7.320656127e-16
6.815430487e-16
7.715413488e-16
8.933083305e-16
7.497034134e-16
7.214889934e-16
7.517420918e-16
7.378337227e-16
7.591305317e-16
7.650953636e-16
7.565118797e-16
7.911508016e-16
7.583875202e-16
7.64555651e-16
8.071192157e-16
8.001493221e-16
7.585293218e-16
7.803755499e-16
7.681971472e-16
7.578396733e-16
8.119373326e-16
8.003606587e-16
8.39769547e-16
7.981941688e-16
7.875646523e-16
7.739761816e-16
7.800834871e-16
7.863654496e-16
7.704600896e-16
7.395529378e-16
8.259160038e-16
8.101632355e-16
8.041693815e-16
8.063242574e-16
8.261112665e-16
7.817107151e-16
7.947659669e-16
7.80785618e-16
6.765944899e-16
6.644878475e-16
7.288346501e-16
6.598698005e-16
8.077342368e-16
7.483087586e-16
7.145958231e-16
6.99409233e-16
6.803842762e-16
7.409224397e-16
7.509896009e-16
7.789923684e-16
8.298091115e-16
7.513302129e-16
8.062877483e-16
7.410383567e-16
7.905844937e-16
7.449788136e-16
7.531665003e-16
7.716254673e-16
7.503615193e-16
7.887492714e-16
7.621264936e-16
7.869852301e-16
7.942160965e-16
7.634565759e-16
8.145716323e-16
7.785141508e-16
7.704345888e-16
7.683486805e-16
7.685737407e-16
7.916573656e-16
8.07647653e-16
7.858825307e-16
7.627223955e-16
8.066576699e-16
7.593145719e-16
7.765485451e-16
7.919510349e-16
7.486758098e-16
7.761240518e-16
7.490001352e-16
7.249347051e-16
6.088744739e-16
6.65512188e-16
7.517889139e-16
7.196871235e-16
7.527751906e-16
7.877466986e-16
8.00463173e-16
7.284575278e-16
7.757280301e-16
7.427925104e-16
7.5639291e-16
7.344203971e-16
7.211571101e-16
7.364286832e-16
7.500839064e-16
7.775199188e-16
7.282127766e-16
7.644433076e-16
7.937520315e-16
7.448573274e-16
7.793322427e-16
7.754961232e-16
7.685773236e-16
8.086128946e-16
8.056178662e-16
7.76775225e-16
7.750496462e-16
8.092542181e-16
8.142123191e-16
8.055758757e-16
7.877855291e-16
7.81647258e-16
7.876884868e-16
7.972432121e-16
8.136018773e-16
7.837657326e-16
7.934735455e-16
7.211935471e-16
7.58903649e-16
7.668199181e-16
7.669719371e-16
7.220506963e-16
6.749996465e-16
6.913297109e-16
6.950481525e-16
6.810254615e-16
7.031853133e-16
7.799394369e-16
7.732529442e-16
7.640638417e-16
7.266562081e-16
7.307578956e-16
7.177769199e-16
8.626349122e-16
7.402435941e-16
7.510390455e-16
7.824135091e-16
7.25478046e-16
7.379311286e-16
7.698748677e-16
7.856591858e-16
8.361665932e-16
7.539991578e-16
8.122299379e-16
7.561744462e-16
7.968431397e-16
7.598306133e-16
7.797156057e-16
7.733413067e-16
8.220460194e-16
7.728887857e-16
7.68417782e-16
7.725744434e-16
8.714244837e-16
8.207001048e-16
7.75976969e-16
7.610491436e-16
5.92619305e-16
6.888508489e-16
6.549711515e-16
7.386937224e-16
7.326875404e-16
6.802742819e-16
6.492421362e-16
6.959455103e-16
6.860590379e-16
6.540017703e-16
6.888589198e-16
7.281478852e-16
7.563718294e-16
7.759803304e-16
7.632512121e-16
7.912988352e-16
7.65076897e-16
7.565385353e-16
7.513252674e-16
7.092848416e-16
7.469610911e-16
7.344508361e-16
7.873895743e-16
8.351213987e-16
7.490315475e-16
7.400195603e-16
7.882609572e-16
7.545690377e-16
7.539351332e-16
7.414289906e-16
7.700903239e-16
8.512528827e-16
7.971681288e-16
7.449514162e-16
7.983623327e-16
7.474121601e-16
7.625561938e-16
7.816066377e-16
7.72970583e-16
8.197437999e-16
5.841748935e-16
5.957893613e-16
5.60042823e-16
6.372069617e-16
7.170067682e-16
8.268863551e-16
5.998048387e-16
6.921290197e-16
6.784174003e-16
7.34225563e-16
6.427202605e-16
6.850980862e-16
7.502125812e-16
7.559638873e-16
6.933762851e-16
7.474032077e-16
7.401757295e-16
7.497649924e-16
7.482253646e-16
7.671778879e-16
7.106434058e-16
7.549284089e-16
6.876086877e-16
7.562365768e-16
7.645769962e-16
7.340903758e-16
7.729257804e-16
7.527461304e-16
7.309127745e-16
7.813337659e-16
7.85459064e-16
7.259106263e-16
7.465235332e-16
7.584409795e-16
7.565390115e-16
8.053331575e-16
7.802175849e-16
7.647261181e-16
8.035155402e-16
7.705265703e-16
6.100030933e-16
6.307991006e-16
5.794174047e-16
5.773623967e-16
6.578962985e-16
6.086845185e-16
6.700379479e-16
7.204883188e-16
6.514096404e-16
6.070001072e-16
7.438665951e-16
6.651560987e-16
8.198927468e-16
8.800517729e-16
6.838570908e-16
7.876432962e-16
6.822753658e-16
7.551428026e-16
7.225516777e-16
6.926914112e-16
6.972844263e-16
7.391773425e-16
7.240567364e-16
7.594087989e-16
8.140850437e-16
7.577024116e-16
7.309809439e-16
7.738206304e-16
7.461043426e-16
7.83769593e-16
7.673741237e-16
7.246976516e-16
7.511279837e-16
7.724959247e-16
8.050283976e-16
7.889443063e-16
7.861716065e-16
7.8451081e-16
8.049394326e-16
8.086090523e-16
6.212019654e-16
7.210611956e-16
6.931694643e-16
8.189615481e-16
6.060204779e-16
7.018633537e-16
5.598894986e-16
6.0647046e-16
6.430262115e-16
6.493726346e-16
6.726575367e-16
7.584215969e-16
6.615981249e-16
7.212513181e-16
6.859646757e-16
6.926761523e-16
7.640661221e-16
7.362759295e-16
7.103633627e-16
6.791291498e-16
6.524166957e-16
7.368557566e-16
7.08688903e-16
7.739904591e-16
7.814902786e-16
7.208740501e-16
7.735538363e-16
7.108012625e-16
7.754829478e-16
7.534140348e-16
7.805912412e-16
7.906408675e-16
7.68285168e-16
7.618055122e-16
7.917209508e-16
7.071691855e-16
7.22937989e-16
7.609778952e-16
7.889971323e-16
7.775406164e-16
6.279420772e-16
6.581417791e-16
5.861113623e-16
6.043319236e-16
6.490165409e-16
6.746043169e-16
5.810852417e-16
6.664589215e-16
6.383167625e-16
6.346094369e-16
6.450929533e-16
7.206319061e-16
7.273760844e-16
6.91259798e-16
6.642245608e-16
7.781608874e-16
6.984485227e-16
7.550681783e-16
7.597305562e-16
6.830074355e-16
6.873463949e-16
7.202685553e-16
7.798469192e-16
6.854322753e-16
7.069333836e-16
7.011750101e-16
8.150744936e-16
8.043170892e-16
8.411094211e-16
7.700105988e-16
7.761693914e-16
7.914434637e-16
7.59485794e-16
7.250505523e-16
7.52148152e-16
8.551779011e-16
7.334397095e-16
7.428522119e-16
7.660218465e-16
7.769730639e-16
6.63866351e-16
5.745775186e-16
6.087053001e-16
7.233854356e-16
6.276046162e-16
6.15337404e-16
6.131985083e-16
6.46734264e-16
6.17280494e-16
5.774411574e-16
7.034322303e-16
7.720068804e-16
6.713852244e-16
6.994145615e-16
6.245229633e-16
7.240740295e-16
7.213254995e-16
7.129245181e-16
8.127744908e-16
7.07119389e-16
7.025426633e-16
7.071723239e-16
7.474722308e-16
6.702291078e-16
6.967823349e-16
7.168308647e-16
6.971792499e-16
7.49871902e-16
7.484394683e-16
7.126483029e-16
6.998027201e-16
7.208801648e-16
7.422655134e-16
7.627980981e-16
7.48918593e-16
7.188677482e-16
7.475015346e-16
7.488937518e-16
7.782658667e-16
7.509764249e-16
5.777302084e-16
6.152442322e-16
6.396159978e-16
6.604899714e-16
7.043372085e-16
6.048506459e-16
6.552618029e-16
6.514029734e-16
6.121262275e-16
5.983587939e-16
6.082990428e-16
6.171927657e-16
6.491808203e-16
6.400888957e-16
6.418443895e-16
6.291174696e-16
6.807976358e-16
6.687205244e-16
6.544874076e-16
6.577761246e-16
6.918521474e-16
7.036364821e-16
7.380568296e-16
7.380568296e-16
6.792490055e-16
7.032497462e-16
7.086310347e-16
7.233292703e-16
6.876442556e-16
6.837949193e-16
6.952421404e-16
7.265912202e-16
7.280183495e-16
7.10977947e-16
8.173585356e-16
7.588491409e-16
7.601376752e-16
7.194827384e-16
7.639973627e-16
7.348951064e-16
5.923798667e-16
5.94895435e-16
6.159165568e-16
5.666213342e-16