/*--------------------------------*- C++ -*----------------------------------*\
  =========                 |
  \\      /  F ield         | OpenFOAM: The Open Source CFD Toolbox
   \\    /   O peration     | Website:  https://openfoam.org
    \\  /    A nd           | Version:  7
     \\/     M anipulation  |
\*---------------------------------------------------------------------------*/
FoamFile
{
    version     2.0;
    format      ascii;
    class       volVectorField;
    location    "0.003";
    object      fDMean;
}
// * * * * * * * * * * * * * * * * * * * * * * * * * * * * * * * * * * * * * //

dimensions      [1 -1 -2 0 0 0 0];

internalField   uniform (0 0 0);

boundaryField
{
    flow
    {
        type            calculated;
        value           uniform (0 0 0);
    }
    obstacle
    {
        type            calculated;
        value           nonuniform List<vector> 
40
(
(4.303072206 -2.557475402 -0.04045852996)
(3.990812463 -2.756381138 0.03211618039)
(3.648423269 -2.898410088 -0.003492546643)
(3.285348267 -2.783860163 -0.05032369197)
(3.07989229 -2.720094557 -0.02639239169)
(2.894182868 -2.759991062 0.02384972108)
(2.78391001 -2.819261864 -0.01149697235)
(2.633302156 -2.763541867 -0.0061025124)
(2.654149843 -2.750757974 -0.002843778776)
(2.514061031 -2.815699559 -0.01288140149)
(2.384140254 -2.68158812 0.008687339506)
(2.349463417 -2.709338592 0.009617064835)
(2.303937648 -2.667535079 0.07480193743)
(2.290505277 -2.720441926 -0.002291286347)
(2.174282961 -2.679997484 0.007882051291)
(2.040525852 -2.631377293 -0.03688488237)
(2.066481121 -2.655795026 -0.01731650439)
(2.011969831 -2.503411175 0.03557177069)
(2.021572621 -2.646081292 0.01419508189)
(1.935488273 -2.537522902 0.07717826761)
(1.898895635 -2.477263389 -0.03907402485)
(1.839057261 -2.444313513 -0.002619763835)
(1.868979447 -2.546416458 -0.04969611755)
(1.838064401 -2.488455475 -0.0005458658608)
(1.84244795 -2.483384243 0.01254927274)
(1.800902989 -2.541046014 -0.01513545348)
(1.774285267 -2.462837879 0.03954230429)
(1.653122089 -2.445112952 -0.0383129098)
(1.774068732 -2.347089889 0.02603933102)
(1.772715178 -2.508438039 0.07205245064)
(1.720757631 -2.324022499 -0.05599056129)
(1.685792889 -2.460077884 -0.04489584879)
(1.594067174 -2.279332347 0.07290288428)
(1.673231537 -2.371203346 0.04720599082)
(1.657157631 -2.286368091 -0.02274726374)
(1.662694117 -2.282696654 0.05668183865)
(1.609481725 -2.102746794 -0.01279514298)
(1.525711524 -2.000834622 0.01369008108)
(1.565259265 -1.881986059 -0.02018928071)
(1.467501112 -1.527196514 -0.02632982618)
)
;
    }
    frontAndBack
    {
        type            empty;
    }
}


// ************************************************************************* //
