/*--------------------------------*- C++ -*----------------------------------*\
  =========                 |
  \\      /  F ield         | OpenFOAM: The Open Source CFD Toolbox
   \\    /   O peration     | Website:  https://openfoam.org
    \\  /    A nd           | Version:  7
     \\/     M anipulation  |
\*---------------------------------------------------------------------------*/
FoamFile
{
    version     2.0;
    format      ascii;
    class       volScalarField;
    location    "0.003";
    object      linearKEMean;
}
// * * * * * * * * * * * * * * * * * * * * * * * * * * * * * * * * * * * * * //

dimensions      [1 -1 -2 0 0 0 0];

internalField   nonuniform List<scalar> 
2400
(
0.5296760837
0.5259573415
0.5835261547
0.5617915412
0.5651183025
0.5705710553
0.5584407769
0.5668300537
0.5765425927
0.5972687783
0.6007445363
0.6200691712
0.616086572
0.6154719226
0.6185869355
0.6011944995
0.604661476
0.628938551
0.634011902
0.6578512067
0.5667314634
0.5608352906
0.5594539675
0.5794438412
0.560860427
0.5759800347
0.6182551897
0.5994372985
0.5984242719
0.6254615868
0.655064609
0.6213254402
0.657414832
0.6468545717
0.6798147952
0.6795465719
0.6751739293
0.6641016009
0.6855714108
0.6964553837
0.5411681194
0.5433001042
0.5584893151
0.5719782729
0.5950994343
0.5924262538
0.6140539627
0.6106387305
0.6050056356
0.6504902943
0.6539139074
0.6233479439
0.6511723635
0.65931393
0.6609406944
0.6792506133
0.6479864285
0.6536620507
0.6614841922
0.6981206484
0.5435874581
0.5367713282
0.5568651977
0.5757776433
0.5456656097
0.5673740878
0.5732687158
0.5832473538
0.6170617589
0.6287862842
0.6349456811
0.6476702263
0.6558247737
0.6890678914
0.688589768
0.7107517051
0.6855766847
0.7557075308
0.7298733834
0.7405553206
0.5078430279
0.5124256684
0.5509552512
0.5437924702
0.5784633105
0.5533425322
0.5715119588
0.5945976628
0.6076814623
0.6121661712
0.5998029918
0.6327079449
0.6769492909
0.6919674934
0.6848914545
0.6756273925
0.6999246793
0.7426380243
0.7369544957
0.7336685374
0.5265346363
0.4986215005
0.5273313078
0.5430282771
0.5700663901
0.5316226528
0.5711193454
0.5841048876
0.595345558
0.6047425092
0.6405945258
0.6642188013
0.6460463494
0.7037463199
0.6402662881
0.6738442716
0.6553552317
0.6813148024
0.715049208
0.7015477888
0.5443109991
0.5564229507
0.5593350066
0.5786214054
0.5810371143
0.5758987885
0.589047023
0.59616463
0.5948837607
0.6442009707
0.6586938708
0.6404362297
0.646211183
0.6499613618
0.6650441501
0.6379700804
0.6769385173
0.6826576092
0.7119092073
0.7252248024
0.5558274605
0.5488571084
0.5606879218
0.5576767873
0.5608012573
0.5917642399
0.574069217
0.6020411192
0.6370264549
0.6560150548
0.6505481772
0.6680737294
0.6811986801
0.6684509061
0.6894309359
0.6626072452
0.7001673477
0.7247546393
0.7230223828
0.7313134027
0.5257477378
0.561154896
0.5739786183
0.5572439276
0.5752831673
0.5922095605
0.5877540868
0.5850474267
0.6096224781
0.6514037584
0.6363198795
0.6642724956
0.6442769052
0.6587198705
0.6815746447
0.6930450058
0.7016760203
0.6890423592
0.7043324231
0.7394768768
0.5287051051
0.5511325305
0.5143124498
0.5521043039
0.5622490045
0.5864156068
0.5935971187
0.6134896675
0.6328802297
0.6311497402
0.6523904476
0.6416103324
0.6547177312
0.6799152119
0.680315001
0.7001510979
0.6846445361
0.6937586293
0.703882564
0.7232272629
0.5239515389
0.5252137062
0.5357302196
0.5569050368
0.5633962282
0.5839815081
0.5600526958
0.6140171561
0.597421787
0.5939882855
0.6197156139
0.6404641285
0.6559587236
0.6798388262
0.6781945286
0.6856441123
0.6949669067
0.7111751452
0.7231411697
0.7263039498
0.5062916476
0.5315185338
0.5306563321
0.5591295918
0.553966815
0.5636677691
0.626270086
0.6002671071
0.623061819
0.6351330176
0.6328431875
0.6605447803
0.6689360225
0.6684857385
0.6625118512
0.7083530343
0.6727975058
0.7038289055
0.716117107
0.7416737888
0.496265197
0.5384739417
0.5392546842
0.5393972158
0.5391810778
0.5916586944
0.6335784058
0.6261120086
0.6577438711
0.6385072618
0.6623976757
0.6418919492
0.660651235
0.7019672183
0.7161662088
0.7112533221
0.722567619
0.716787007
0.7365293742
0.7662361422
0.4874500718
0.5439361684
0.5276566866
0.5589396099
0.5618964638
0.5910556393
0.584959034
0.6284595648
0.6290792666
0.6428025376
0.6594041231
0.6731107561
0.6611071386
0.6510842608
0.703516589
0.7079503294
0.7151780963
0.6985644586
0.7235677674
0.7555965802
0.5207184324
0.5512306398
0.5676121688
0.5575424266
0.5571798184
0.5770689561
0.5693445203
0.5971005804
0.5954155956
0.6099440723
0.641448866
0.6624557391
0.6465969604
0.6173670332
0.6242222643
0.672095032
0.6944771904
0.6966468491
0.7487568184
0.7389647486
0.5251424112
0.5433405759
0.5517653301
0.5699995589
0.5598177809
0.5610710898
0.5682777124
0.6062829375
0.5998303397
0.6085026552
0.6029011276
0.639348222
0.6439545437
0.678774413
0.6655174209
0.6744530686
0.6806421526
0.7026791119
0.7575299997
0.7654145159
0.5199180458
0.5231625498
0.5507975041
0.5617796174
0.5403302784
0.5658516304
0.5896386143
0.59125132
0.6071285631
0.6162757344
0.63317773
0.6793756017
0.643827556
0.6971968642
0.6221543854
0.6555042025
0.7136126187
0.7498531875
0.7467761358
0.7685129099
0.5139939543
0.5494064363
0.55730698
0.5785176152
0.5694876552
0.5588263893
0.5477965906
0.5993332832
0.5872683971
0.6180578556
0.6209115327
0.6703979425
0.6451106329
0.6712121371
0.6877083812
0.6810202695
0.7182644957
0.7195522396
0.7238747102
0.737103471
0.5133915561
0.5377691659
0.5252063293
0.5477844792
0.5327974585
0.5515284968
0.5793909145
0.6133933889
0.612296485
0.6396773177
0.6250218037
0.6164583767
0.6486851631
0.6595918429
0.6673287141
0.7189493952
0.706911801
0.7107697368
0.7263561746
0.7616025826
0.4955518278
0.5266501835
0.5104005715
0.5446556253
0.5588899698
0.5771579165
0.5756202069
0.6185185757
0.6016591235
0.615972705
0.6161935297
0.6291677429
0.6361015802
0.6411819809
0.6775129871
0.6965826047
0.7250300715
0.7336410569
0.7042284298
0.7477606309
0.501611345
0.5364121766
0.5539722923
0.5663157662
0.5801650701
0.5674334685
0.5863639372
0.6016928171
0.5938951619
0.5940110747
0.6342750168
0.6484930299
0.6929902269
0.6664618787
0.7222575575
0.7140814244
0.7553986318
0.7585191915
0.7437732957
0.7470065217
0.5410268213
0.5423886777
0.5600106709
0.5490535848
0.5643320094
0.58979189
0.599448469
0.6201596055
0.6259779206
0.6089681332
0.6600459526
0.6406180831
0.6666400081
0.67926105
0.7021604843
0.6941139108
0.6869053708
0.6909524528
0.7332620528
0.7480151324
0.5392053579
0.5454039222
0.5667147473
0.5683606204
0.5756414183
0.5632400798
0.5899618902
0.5958713849
0.6345216336
0.6169948058
0.6424896468
0.6370332588
0.6479777673
0.6832107886
0.7095964441
0.7031134042
0.6946050874
0.7053635046
0.7517443605
0.7358248052
0.5304352731
0.5305084516
0.5599667737
0.5580399512
0.5510944703
0.5778803376
0.5881769414
0.598923781
0.5969874806
0.5994190286
0.6197234827
0.6414928583
0.6548813813
0.6729459341
0.68549522
0.7131624868
0.707772286
0.734105468
0.743426239
0.7482672514
0.5380440718
0.567625173
0.5267246095
0.5374607357
0.5376777421
0.5722173898
0.6164585128
0.5906755452
0.6212663331
0.598489022
0.5950599092
0.6148562142
0.6441574379
0.6615144786
0.6522359387
0.6800564384
0.6884929185
0.7267611321
0.762520785
0.7250414665
0.54228063
0.5333683471
0.5324933267
0.5292978461
0.5141690665
0.5508463137
0.5959670956
0.5815422172
0.5988279954
0.6167437345
0.6180756785
0.6164825202
0.6608236867
0.6676085781
0.6721161278
0.7013410761
0.7224445556
0.7474270597
0.7374830606
0.7626285585
0.5301625193
0.5292698283
0.5356553025
0.5565733398
0.5533666655
0.5763926205
0.6047155328
0.6420174363
0.6240012967
0.5912756021
0.6508878154
0.6085900096
0.6396812316
0.6732444575
0.6880991576
0.6822194063
0.691868649
0.7281916191
0.7341851848
0.7596144725
0.4976706843
0.5449974417
0.5321802853
0.5598781889
0.5569764453
0.5926401728
0.6179230907
0.5947618519
0.6078057016
0.6361526142
0.6344844354
0.6676473517
0.6581379815
0.6495853017
0.6785386234
0.6843340236
0.6973986325
0.7116156361
0.7243828031
0.7603562301
0.5103681332
0.527986864
0.5245800225
0.5428245069
0.5468439076
0.5978861297
0.6013444712
0.6217763413
0.6210325782
0.6184413873
0.6174182915
0.6648153184
0.6669948088
0.6854584027
0.6997287992
0.7222997063
0.7098368388
0.7302905549
0.7466888725
0.7713023618
0.53139008
0.5397740512
0.5352459836
0.5530075994
0.5629205913
0.5831264573
0.5862653881
0.6204784908
0.607792964
0.6205267333
0.6556405076
0.6564612532
0.6641299385
0.6691752101
0.7176424887
0.7621939141
0.7232551435
0.7360352375
0.7210119525
0.7341386095
0.5278834739
0.5101505942
0.5535496699
0.5380280347
0.5694478742
0.5777952048
0.578792736
0.5991568057
0.5934285083
0.6149957629
0.6616765936
0.6551337425
0.6698005638
0.6665696687
0.6947682976
0.7101880491
0.6873916853
0.6896309864
0.7241642429
0.7407663287
0.5377013027
0.5629044403
0.6057027095
0.5727773444
0.6010210961
0.6080800454
0.6175469391
0.6245169053
0.5920952095
0.6332122898
0.6587932212
0.6332259885
0.6656288508
0.7031828516
0.7108944776
0.6934490052
0.6817042286
0.7091044905
0.705901945
0.703027434
0.543116297
0.5425744219
0.5501016211
0.5882995091
0.6012258262
0.5612948585
0.5762268085
0.5944924475
0.5895299869
0.6305457967
0.6143770573
0.645285004
0.6636920369
0.6342887093
0.6717290988
0.6616766629
0.6704299007
0.708929052
0.7037365661
0.716224538
0.5140137596
0.5325949339
0.5670347591
0.5672424165
0.5707616275
0.6019749082
0.622528655
0.6159358935
0.6087764473
0.6187938283
0.6542624541
0.621907165
0.6523620165
0.6644508167
0.6267519645
0.6421984497
0.644788126
0.7104916188
0.6881055178
0.7067529746
0.5266872877
0.5521219706
0.5478375078
0.5516116218
0.5772644376
0.5997852139
0.6078935649
0.6277987065
0.6215553726
0.6610147122
0.650641105
0.6475799484
0.666890382
0.6785260262
0.6766794553
0.6911161116
0.706972623
0.7398723422
0.7329977795
0.7544798744
0.5398254781
0.5768236325
0.5728754331
0.5510152344
0.5725422754
0.5686086566
0.5819585869
0.59878998
0.5942152621
0.6340388947
0.6194207281
0.6282651025
0.663448761
0.6744850551
0.6766597655
0.7159793167
0.7306011225
0.7358930835
0.6984920899
0.7252163471
0.5340176695
0.5578896239
0.5840909993
0.5783026695
0.5930961816
0.5790398066
0.5921613116
0.5968384475
0.6006448498
0.6493016766
0.6686675881
0.6640128511
0.6574132998
0.6821897141
0.6369581238
0.6427821866
0.6769362403
0.7104714793
0.7288550519
0.7299481694
0.5169009496
0.5746557156
0.5709259939
0.5513011954
0.6151256697
0.5969870315
0.5850436353
0.61419854
0.6122918216
0.6383221115
0.624199622
0.6289822455
0.6402730665
0.6408303085
0.6718786662
0.6414219202
0.6633968312
0.7139283724
0.6969201805
0.7376047614
0.5441662198
0.5697826319
0.562469889
0.5570549032
0.5846334988
0.6015982348
0.6116686229
0.6281084217
0.6370479646
0.6319305584
0.640663037
0.6201898217
0.6463987724
0.6249928413
0.6371206762
0.6874790041
0.6667167899
0.6953935839
0.7376088648
0.7605526809
0.5441142912
0.5879359149
0.5769758441
0.5711228285
0.572385407
0.5808615862
0.5679794237
0.6056569868
0.6081859451
0.6221675134
0.635804691
0.6136877977
0.6090529121
0.6174738691
0.6057021913
0.6176792533
0.6099387713
0.6482212113
0.6441351449
0.6526662708
0.6917409053
0.7047183014
0.739818449
0.7636700541
0.7871416591
0.7735542628
0.7514625699
0.7656728536
0.8216325742
0.8237869412
0.8306360342
0.8451453593
0.8718334744
0.9061894318
0.909071042
0.9539137434
0.9178624936
0.9236196734
0.86380512
0.8669120611
0.9441814308
0.9993398163
0.9364505401
0.9602073542
0.9573653111
0.9734258714
0.9938405519
1.00139297
1.005505151
1.015368564
1.058064498
1.049067303
0.9921960651
1.005828773
1.080773166
1.102908595
1.060848407
1.18129674
1.121343438
1.11825851
0.7092681643
0.7288822593
0.7668976688
0.7958258695
0.815210174
0.8804550313
0.8283473277
0.8633401986
0.8875443523
0.9121868859
0.9021628853
0.9269206774
0.9498054786
0.9175425965
0.9258739924
0.9206756476
0.9250850907
0.953588939
0.9905744527
1.006397056
1.016592618
1.022730106
0.9871742707
1.025299556
1.052461937
1.039337007
1.086112723
1.110015234
1.079475801
1.102643131
1.071670129
1.134805484
1.189507931
1.239767494
1.174845969
1.197069207
1.213417599
1.192741822
1.226769199
1.214875032
0.729008456
0.7450189462
0.8127397093
0.8231579405
0.8281731284
0.8587298868
0.8270861223
0.8858388544
0.9115237948
0.9447744012
0.9616011345
0.9600369121
0.9782785211
0.9949352967
1.038753945
0.989054852
1.015552318
1.103984211
1.048621132
1.072475136
1.07739397
1.055671741
1.11474037
1.077468829
1.054483648
1.095609777
1.179311713
1.134188824
1.175195845
1.145144994
1.230911299
1.214936621
1.213620396
1.213914362
1.192196735
1.24733107
1.232586311
1.25410075
1.28548277
1.188153188
0.774503612
0.7649374698
0.7868524504
0.7804135147
0.8027100794
0.8500096109
0.8931441498
0.9474225831
0.9509674819
0.9681727809
0.9865900112
0.9784591027
1.006858873
1.027942215
1.005743063
1.042967917
1.066852147
1.094084144
1.079639617
1.073484834
1.075791754
1.096397996
1.125113514
1.177698349
1.212621767
1.235795269
1.243304224
1.242474372
1.274549494
1.262059877
1.206680941
1.235458202
1.214535333
1.229309165
1.264387503
1.301905585
1.309499102
1.360389603
1.344372893
1.307939634
0.73092144
0.7491296715
0.79125817
0.8095225603
0.8041080707
0.8466350308
0.8771170286
0.9007458048
0.9112261464
0.9405970914
0.9665431164
0.9452574136
0.9514285609
0.9274474593
0.9667277868
1.010590628
1.032091961
1.054672393
1.068974647
1.060722776
1.104324856
1.171080782
1.177947272
1.147780018
1.217383813
1.183829161
1.225181274
1.213346585
1.228342167
1.210086204
1.21061171
1.217960651
1.271129048
1.284883876
1.32582472
1.331294962
1.332730332
1.324393689
1.329958094
1.401747654
0.7279880685
0.7819959028
0.8010747832
0.8058353878
0.7712472405
0.8087491894
0.8500298973
0.8939828301
0.8663003211
0.8618913413
0.883586929
0.9435366612
0.9283429514
0.9914886773
0.998461807
0.998020573
1.015407681
1.03833082
1.064520362
1.123171297
1.140011837
1.078059585
1.171116423
1.18588422
1.202578916
1.230318009
1.250312696
1.245788295
1.231832531
1.203160727
1.224169324
1.236674481
1.309100936
1.341263685
1.36226105
1.354100785
1.382141514
1.328503778
1.373377507
1.351085
0.7582884704
0.7315613365
0.7318899928
0.784525973
0.8172571254
0.8431480788
0.8204161375
0.8074196929
0.8610451456
0.8982154046
0.9283865657
0.9529747973
0.9187014016
0.9451620797
0.9959740053
0.997074845
1.021153792
1.047425042
1.091151721
1.076817913
1.165034646
1.157803796
1.166406616
1.173371666
1.281874386
1.2619506
1.284485988
1.322273966
1.299453175
1.265779642
1.279742219
1.286819919
1.361189226
1.351112741
1.418527618
1.370622761
1.387029948
1.394264264
1.420653689
1.450160718
0.7768649282
0.7630992837
0.7856862465
0.7538538554
0.7512469978
0.7684646269
0.8145096347
0.8542303723
0.8570116393
0.822986477
0.8748887226
0.9243121195
0.9597400523
0.9536403865
0.9978857693
1.045259937
1.056928576
1.011424199
1.114623674
1.135345956
1.134533137
1.180140054
1.175375228
1.19714849
1.278210847
1.244904837
1.251165306
1.260564606
1.278857186
1.245818389
1.260139402
1.371641077
1.350887314
1.352942945
1.329599991
1.380448087
1.379520158
1.378898717
1.371345539
1.482514698
0.7535454085
0.749468244
0.7584902372
0.7778248841
0.813456795
0.7979553207
0.8457787903
0.8106273317
0.8598393689
0.8817412415
0.8926996295
0.9097323656
0.9613252469
1.022304328
0.9897178496
1.039486992
1.068752125
1.054233553
1.039530482
1.077337047
1.110935028
1.16742038
1.186288421
1.19466973
1.19266657
1.189496986
1.220791614
1.22646554
1.233074086
1.270524226
1.231863485
1.306390126
1.363200698
1.389494248
1.397792625
1.365032161
1.443177152
1.49002888
1.530671015
1.540224438
0.7629073918
0.766660333
0.7929325533
0.7980885985
0.7756790896
0.7852453344
0.8400680004
0.822764356
0.8427691492
0.9003145323
0.9525476677
0.9623602927
0.9511294022
0.9842858133
1.020946398
1.021231945
1.017995084
1.021693602
1.024686213
1.091032237
1.096997239
1.126388257
1.098873762
1.162646622
1.213453984
1.243772723
1.220281915
1.191678544
1.200340293
1.257047899
1.341568617
1.367716004
1.408055965
1.376683924
1.404561895
1.427888246
1.422164472
1.514950256
1.479954381
1.498575704
0.7496218657
0.7694454718
0.7604112983
0.7942643888
0.8099646697
0.8019279423
0.8593288403
0.8510792059
0.8580380377
0.8431482076
0.8828312062
0.872825937
0.9268206301
0.9381831359
0.9520863829
0.9724540131
0.9846156661
1.02121714
1.046350884
1.049149667
1.059337368
1.114012763
1.120409493
1.127657941
1.212271073
1.191199586
1.214848673
1.256227577
1.248570587
1.259800902
1.253709723
1.333401142
1.329261109
1.323847038
1.345954754
1.391274466
1.474727928
1.468790098
1.600513014
1.595741705
0.7565998573
0.7812432766
0.7667887424
0.7849938896
0.8167388659
0.8232277324
0.853262836
0.8302570284
0.8574732779
0.8197343394
0.8649788742
0.8884910238
0.9147693922
0.8950543019
0.9621031086
0.9607776633
0.9722540288
0.986071956
1.013811625
1.03211147
1.003687151
1.057364572
1.085172069
1.050353568
1.082387252
1.142270427
1.1756048
1.174321224
1.211193652
1.209627633
1.217636598
1.233277416
1.293475316
1.367156127
1.384642442
1.407619532
1.448127049
1.440422034
1.547081503
1.613374562
0.7880633663
0.7831066441
0.7962158526
0.7821886676
0.8227094419
0.8204907883
0.838893703
0.8701523267
0.8407197701
0.863224591
0.8536772017
0.8999303705
0.8926286893
0.9317342321
0.9296996542
0.9787308507
0.9774135577
0.9742956413
0.9784162954
1.000417315
1.006023165
1.052474231
1.017686017
1.083448459
1.117279581
1.111343363
1.169712968
1.173524749
1.208685809
1.257890019
1.223007116
1.289495685
1.301441329
1.360227315
1.362430714
1.379997855
1.423139148
1.484392191
1.500149013
1.54089117
0.7700976032
0.7492383011
0.7502219205
0.7532111747
0.7830481893
0.7583070925
0.7967110772
0.810179079
0.8187711891
0.8471749395
0.8852831456
0.8684580432
0.9102673992
0.9204666904
0.9251917645
0.9296302452
0.9630962312
0.9924219112
1.041061398
1.039621796
1.071669108
1.051360184
1.060996052
1.052342432
1.082401013
1.108676759
1.166234928
1.19337224
1.208147477
1.321179352
1.308590173
1.274760836
1.290573602
1.292314063
1.374718291
1.331684722
1.330417028
1.378479629
1.452516077
1.592039822
0.7418713953
0.7283333236
0.7610261913
0.794284503
0.7946008002
0.8153572098
0.8433941565
0.9044786033
0.8859821013
0.9038425168
0.9109860139
0.9284209741
0.9300219387
0.9227735043
0.9413516049
0.9437198859
0.9877329952
0.9904653561
0.989372346
0.9873750949
0.9929265277
0.9989505839
1.02229822
1.077958696
1.126904899
1.137837991
1.178967561
1.157380444
1.195763041
1.188899461
1.221790624
1.239151441
1.259812821
1.330367067
1.316736677
1.365334374
1.379120536
1.411121269
1.408213553
1.453599137
0.7372677561
0.7798691954
0.8136922805
0.8187095183
0.8088917032
0.8539426419
0.8346942344
0.8540050917
0.8040504731
0.8452209496
0.8505214026
0.89828205
0.8903709663
0.9040746695
0.9620865604
0.9247536394
0.9940819263
0.9892653111
1.037628521
1.051862258
0.9898427974
1.047819086
1.059476552
1.080541197
1.10996775
1.118185636
1.114325106
1.148098041
1.123541148
1.168398958
1.196070396
1.233964572
1.236194078
1.201226911
1.305300294
1.360712852
1.418631072
1.424511577
1.453949313
1.521568302
0.7696403025
0.7782147658
0.7380286017
0.7579234514
0.7774195689
0.7669165334
0.8121921803
0.853316813
0.8705627474
0.8631861353
0.9066968343
0.8973873375
0.932123124
0.9361935007
0.891843871
0.9007821689
0.9570932896
0.9955460252
0.9534325968
0.9935986221
1.010233391
1.045851998
1.015203302
1.020772054
1.056162555
1.08383136
1.09604134
1.181426099
1.218199119
1.224604433
1.178636931
1.220489923
1.268715817
1.243697768
1.315112303
1.304364179
1.24399592
1.350450545
1.409354783
1.394477993
0.7135657053
0.7693754123
0.7919360427
0.8126717596
0.8112759368
0.8520041678
0.8348731195
0.8686921773
0.9003789026
0.8800922493
0.8985004792
0.9385323299
0.8940033287
0.9351081479
0.9277831093
0.9360103579
0.9381984818
0.9789183647
0.9922234733
1.012127794
1.005101881
1.005527121
1.010413882
1.042941175
1.069072602
1.076280578
1.11363536
1.124958948
1.123796343
1.131314264
1.128180835
1.177524182
1.201279417
1.220115155
1.265752209
1.306390554
1.260242876
1.324447586
1.384837381
1.508705783
0.7691704371
0.7912182146
0.7694367758
0.8165312694
0.8496837384
0.8579473682
0.845493835
0.8414566962
0.8863754835
0.8534317629
0.8816818185
0.8949418247
0.9076000912
0.8903814498
0.9059867774
0.8890337976
0.9040463168
0.921186396
0.9565810748
1.020414977
1.011170132
1.014272204
1.046049746
1.086883372
1.067774097
1.096959168
1.097590111
1.09025354
1.147688404
1.177530267
1.183397453
1.231111331
1.274179345
1.274523969
1.317489266
1.286036635
1.355756528
1.389760203
1.383428342
1.453676004
0.7786421052
0.7795137828
0.7925527206
0.8110466497
0.8261915238
0.8357091928
0.8097788068
0.8358444968
0.8368304503
0.8918893961
0.8928093893
0.8703776443
0.900076413
0.9050203647
0.9156809766
0.9276800716
0.9466998473
0.9378155757
0.984299093
0.9925208789
1.007231638
1.000358971
0.9928025483
1.020306977
1.037768505
1.054856253
1.069284004
1.122686232
1.141482915
1.13743615
1.153234629
1.131088864
1.198367429
1.236332408
1.236154317
1.247077537
1.237094783
1.290198612
1.323850944
1.440909765
0.7526539342
0.7211958354
0.7708645219
0.7856340805
0.785884376
0.7770101305
0.8140842737
0.8362500516
0.8526562955
0.845900627
0.8443140034
0.8459808981
0.8931379656
0.9181710779
0.948931684
0.962029444
0.9627236346
0.9504807152
0.9760605081
0.9594177644
0.9810129071
1.02754792
1.00216059
1.025957526
1.08113751
1.03758383
1.059944703
1.103105543
1.10113487
1.108185705
1.134247426
1.192024219
1.168255972
1.226493969
1.227426989
1.235564093
1.289316681
1.392870906
1.346704291
1.343235577
0.7691129642
0.7589638533
0.7917159938
0.7937529594
0.7971932753
0.7771809025
0.7851176454
0.8475036459
0.819132831
0.8810858045
0.9121337161
0.9084925407
0.9288353131
0.9076664755
0.8939429341
0.9457653906
0.9408842007
0.9365690068
0.9693947425
0.9893524149
1.03565671
1.046613518
1.035998633
1.001200499
1.061903778
1.075590666
1.053278635
1.064058862
1.078074267
1.103334144
1.148965315
1.184770217
1.161452228
1.164267143
1.221350424
1.227693069
1.218837367
1.224613686
1.244626195
1.332092791
0.7432603201
0.7563805642
0.7321327148
0.8039134958
0.8135403146
0.801431489
0.787158095
0.8352736701
0.8711655992
0.8536708408
0.8701158352
0.9210776495
0.9032716381
0.8979364915
0.9003681001
0.9220624761
0.9224361602
0.9362562331
0.9227617567
0.956156203
0.9689196635
0.9651061654
0.9739287917
1.057476569
1.031430554
1.076271616
1.050542296
1.122565436
1.105969102
1.097193067
1.136334452
1.152486854
1.184522879
1.200881371
1.237596637
1.216242643
1.265651578
1.277347073
1.283189908
1.417246888
0.7303923265
0.7613827611
0.7491254604
0.7601937577
0.8048355111
0.8043887122
0.8130946903
0.8364529834
0.8372171882
0.8325142921
0.855158003
0.9007220738
0.8880743876
0.9078283788
0.9109133443
0.9360015199
0.9327818806
0.9544153963
0.9511680035
0.9794829826
0.9824747995
1.011352938
1.014900979
1.068237098
1.069682869
1.07320731
1.046093529
1.055213675
1.136733719
1.181289092
1.253027306
1.257135794
1.285436615
1.23202974
1.262245516
1.272414107
1.307789477
1.343414051
1.353519942
1.393470289
0.7432296837
0.7445346551
0.7804902668
0.8250515879
0.8096490599
0.8029865889
0.7882910149
0.8193900817
0.863232278
0.8681658326
0.8797777196
0.9352255424
0.9336691357
0.9210669659
0.9089382743
0.9044260229
0.9508660402
0.9638569084
0.928667246
0.957624668
0.9700620307
0.9962028959
1.008309394
1.023841236
1.04157314
1.029338127
1.080592235
1.160926739
1.150229511
1.164500332
1.132786141
1.124244077
1.179775263
1.177991081
1.219188759
1.166405643
1.258278439
1.280660634
1.328391003
1.417122563
0.7868306324
0.767824972
0.7783185575
0.7446165344
0.781884984
0.7961893723
0.8222243583
0.8397287082
0.8340921745
0.8228386099
0.8437962499
0.8786644134
0.8897484979
0.9156690209
0.9014961456
0.8990014466
0.9602207864
0.9820990173
0.9619233504
1.00390511
0.9828084559
1.014512845
1.035054651
1.037685777
1.069320521
1.072434674
1.086374976
1.091520436
1.109787403
1.122696025
1.132695545
1.155074198
1.172678779
1.187823316
1.241121013
1.220915435
1.235715364
1.248663127
1.283452022
1.324899405
0.7246022519
0.7332115932
0.7258667066
0.7505028415
0.7876054495
0.7881828083
0.7907808786
0.7947739944
0.8189847023
0.8393378035
0.840126913
0.8585907266
0.8807923643
0.8942228628
0.9009758613
0.9151851251
0.9186010517
0.9255794559
0.9466174548
0.9672673436
0.9659690498
0.9582826521
0.9455488521
1.029172864
1.018600409
1.052964825
1.033759847
1.120851882
1.148779797
1.149033043
1.12012108
1.168951874
1.163129657
1.150470088
1.210105133
1.201655594
1.242362617
1.227568916
1.242921319
1.304511483
0.7485989507
0.7307843232
0.7589197076
0.7881874831
0.8079750657
0.8239829503
0.7780249676
0.8164812559
0.8575688169
0.8716177249
0.8884811995
0.9010327691
0.874530663
0.885455518
0.9171841333
0.9569798627
0.9195840929
0.9396618558
0.9339136052
0.9217348588
0.9720413946
1.005129543
1.028604978
1.012031101
1.005662957
1.019805213
1.029132055
1.070259759
1.124619436
1.11594145
1.147415376
1.145046437
1.138403858
1.134263155
1.156472537
1.17072382
1.183956707
1.200130004
1.228809459
1.295441725
0.7457663508
0.7797459906
0.7790530178
0.7857995765
0.8060392132
0.8414396763
0.8205541215
0.8439930469
0.8435294718
0.8397420574
0.8515280404
0.8730053602
0.8755963855
0.9017677226
0.9231147232
0.9287430749
0.9606480176
0.9546014667
1.028304987
1.048887542
1.025169731
1.026995151
0.9842017496
0.9836047313
1.044174062
1.097380653
1.088878983
1.108117313
1.125161485
1.151450911
1.189914113
1.205318901
1.170651885
1.193077829
1.162934645
1.180955495
1.19716329
1.257848453
1.287107547
1.340767149
0.7698861536
0.7593785506
0.7672940181
0.7979921838
0.8101960718
0.821609098
0.8347183669
0.857006001
0.8825051049
0.8679254302
0.8624510786
0.9049372611
0.9221457586
0.899203326
0.9391461337
0.9528812987
0.948620021
0.9456907103
0.9309907302
0.9372983379
0.8949966115
0.946854002
0.9605274972
0.9894810678
1.021990664
0.9910540807
1.013800424
1.097664108
1.092103149
1.096297325
1.098064217
1.064363781
1.093932139
1.134312067
1.129802863
1.206243493
1.230803191
1.246817324
1.312461038
1.338051408
0.7526946074
0.7715148713
0.8271777031
0.8042307641
0.8019806317
0.8511453701
0.821314705
0.8407979853
0.8701122278
0.8967404081
0.8868495461
0.9308460523
0.9309325925
0.9591721813
0.9373282198
0.9138688468
0.9463064508
0.9401830859
0.9274659409
0.9765296699
0.9994415455
0.9917151422
0.9677346327
0.9996633813
1.052638425
1.08435195
1.105513253
1.111642124
1.131109493
1.124430238
1.120986913
1.14482124
1.100332646
1.170760438
1.170082763
1.209107067
1.224851235
1.268139595
1.284194765
1.339473607
0.7075888297
0.7498212308
0.7701881936
0.7752371505
0.7638476697
0.7990890796
0.8120985995
0.8299704606
0.8323687632
0.9035098229
0.8598339813
0.8639327658
0.8804121248
0.8936544431
0.9117375046
0.8826847978
0.928348584
0.9197860696
0.9192707016
0.9811765814
0.9606503137
0.9880835144
1.008623161
1.011988675
1.029052566
1.060068474
1.057482794
1.036308754
1.029122763
0.9849724023
1.063539636
1.065617304
1.140157962
1.132806047
1.184300994
1.190749918
1.239410311
1.219989892
1.290872868
1.285623555
0.7376483502
0.737443551
0.7507047667
0.7648291086
0.788706134
0.7511885449
0.802032441
0.8175121946
0.8648446765
0.8946130566
0.8619031514
0.8266656254
0.8508970753
0.883621731
0.9014007861
0.919653854
0.9169441719
0.9349192216
0.9792963988
0.9433869234
0.9567542153
0.9349006627
0.9721404485
1.013053297
0.986900238
1.028562033
1.020171741
1.046379191
1.049014333
1.076069167
1.097821102
1.081279999
1.133514993
1.145089613
1.140597477
1.148408538
1.164353756
1.1951247
1.195592964
1.201201091
0.7293943933
0.7535267348
0.7539623259
0.7673983318
0.7740732692
0.7667105676
0.8186361689
0.8511657428
0.8517590122
0.8665243753
0.8686887117
0.8159004483
0.8938705669
0.8624092832
0.9161935855
0.9126722963
0.9109571969
0.9280215624
0.9397102169
0.9247201324
0.9829055394
1.000800147
0.9977614717
1.01438321
0.9861031279
0.9979601933
0.9793125245
1.00650312
1.061588893
1.118632649
1.095900346
1.100832915
1.136043814
1.154358703
1.13499632
1.129161218
1.138459296
1.129476428
1.169233271
1.187708045
0.7489817017
0.7506494851
0.7738026532
0.7868600471
0.8178172229
0.798197517
0.7901299447
0.8120562363
0.8200459692
0.8209115942
0.8439918593
0.8128040571
0.840166395
0.8494854001
0.8553479255
0.8929520711
0.9099812693
0.9544503559
0.9380605292
0.9721171571
0.9718624434
0.9546993359
1.013414113
0.9862498052
1.010621798
1.019627636
1.070160289
1.020650897
1.022578023
1.026764927
1.057433514
1.056207716
1.106021117
1.116183923
1.120638835
1.117059682
1.082058122
1.100069295
1.188908715
1.184504129
0.7220169211
0.7204116786
0.7456468111
0.7427617604
0.793893926
0.7896515079
0.8065300118
0.8574939796
0.8565619444
0.8431309997
0.8366380379
0.8438063477
0.8852018672
0.9230022606
0.8903467693
0.883278283
0.9087596707
0.9188385259
0.9252679468
0.8922030356
0.9204574358
0.9179825078
0.9822741634
0.9886392754
0.9555627926
0.965269999
0.96374162
0.9938115764
1.017024151
1.073193395
1.028599505
0.9723496321
0.9949176393
1.059785985
1.041323448
1.107267426
1.112765779
1.146768602
1.15986192
1.129040787
0.7264374679
0.7436124795
0.7398058177
0.7876289471
0.7700176805
0.7935634578
0.8227626224
0.8222513133
0.836696553
0.8469339618
0.8758954621
0.8661431855
0.8524950154
0.852603276
0.8979852259
0.8741636817
0.8969539713
0.92914138
0.9055710369
0.8926424373
0.8732436999
0.9311007477
0.9287665833
0.9467006799
0.9767555303
1.021884102
0.9956551641
0.9754942854
0.9866752329
0.9703964714
0.9707790057
0.9646848595
0.9896240634
0.975349123
1.026541913
0.9821188278
1.000204681
0.9940406878
1.053055305
1.073294652
0.7370376675
0.6926680606
0.697592997
0.7465349486
0.7377762387
0.7401315215
0.7590812033
0.7734731578
0.8172718488
0.8275603515
0.8210938241
0.8099943401
0.7934436821
0.8236860952
0.8427649671
0.8446101685
0.83403856
0.8614173394
0.8462297453
0.8704961639
0.8350134565
0.8451597363
0.8977915304
0.8885016574
0.8891005417
0.8809818462
0.9003525403
0.8970813522
0.8961452558
0.9059995974
0.8872728243
0.8656555957
0.9029864022
0.9260601002
0.9142401913
0.9500651336
0.9597276583
0.9728057644
0.9947277386
1.026455673
0.7214652451
0.7697197086
0.7317519909
0.7625146846
0.7365007485
0.7691063335
0.7588563217