/*--------------------------------*- C++ -*----------------------------------*\
  =========                 |
  \\      /  F ield         | OpenFOAM: The Open Source CFD Toolbox
   \\    /   O peration     | Website:  https://openfoam.org
    \\  /    A nd           | Version:  7
     \\/     M anipulation  |
\*---------------------------------------------------------------------------*/
FoamFile
{
    version     2.0;
    format      ascii;
    class       volScalarField;
    location    "0.003";
    object      linearKE;
}
// * * * * * * * * * * * * * * * * * * * * * * * * * * * * * * * * * * * * * //

dimensions      [1 -1 -2 0 0 0 0];

internalField   nonuniform List<scalar> 
2400
(
6.641526438
4.125734659
7.216272833
11.39116755
11.16818021
2.957888338
7.706805918
5.228939134
10.10065284
7.829277993
11.08726574
7.655633912
11.15862027
8.231615745
11.04464757
6.821637789
4.138965686
5.122386396
7.020582073
8.545146247
6.907021213
9.497005461
8.356286396
7.550049377
3.754482743
7.704577172
7.835567103
6.74740365
5.90127457
10.09905216
11.60409453
8.19098801
6.241821398
6.033700664
7.607993613
10.2357834
5.297408669
6.226695248
7.048545004
4.848757442
5.514185609
6.938703302
11.23372718
8.010311206
6.515308347
8.965285823
17.13989281
3.945942467
7.787760268
7.867065451
9.149664657
7.477694141
7.762372961
3.697425006
4.257011151
4.641626054
10.71783657
5.901687264
10.98827787
7.399205032
6.199559946
12.11161528
4.893113571
7.248688658
9.037209468
6.34594314
7.449803336
11.1813925
8.999985161
9.181468482
9.174091204
9.173468888
7.433949136
11.3886288
7.198291556
6.448945225
6.688995101
4.000092881
7.78061708
9.98865191
6.546949996
7.600953612
7.918270238
8.585301224
12.00366344
7.34172569
5.454948972
9.77363686
3.854278696
9.781551924
8.258057929
11.27768815
10.80014735
8.300742345
5.736612151
7.245665539
9.344113877
9.899432134
10.77299915
6.584849641
7.738093807
5.321853566
10.94591781
7.797864291
6.844184242
8.22498834
8.81551562
9.924811838
4.539796223
5.944389872
4.573808135
6.5075238
10.74446684
7.047013532
10.47879489
2.748166366
8.154910574
12.44814194
3.756185756
11.03184664
4.598577052
6.128169344
4.874097573
13.72378811
3.150977221
9.328593371
10.98428026
8.187753699
8.804719374
12.08275294
10.03731842
4.414162085
8.484435301
4.303594796
9.167971825
8.162213117
6.115282063
7.756869601
4.688610548
8.63364791
6.455352415
9.143416415
7.777326392
9.09118296
4.860252563
4.195524061
8.517508486
7.071969142
13.89316835
5.856095781
8.111754888
11.08504769
9.773091244
7.146157387
5.989603561
5.420782562
6.231371555
2.775445818
10.396269
8.933814548
5.377996927
8.637481835
7.641041194
5.265825642
7.42511867
8.702860992
4.704156539
6.833923923
9.936082925
5.382976188
6.184610015
10.60494818
10.62211653
6.994660009
6.797837288
6.825914759
6.07387832
7.704140655
8.93878371
9.756060271
4.87155863
5.90008677
8.493163242
12.31686263
8.017582496
9.223133744
5.60918449
7.57694116
7.586675562
8.759613488
9.738206036
1.146617309
8.695119735
12.26726254
5.916676742
11.73984494
9.511172874
12.58332656
7.475131293
9.606484907
5.341200299
11.49265415
4.300495949
5.367988589
7.33011021
7.028851474
10.50979572
6.905650161
5.114382004
4.0362145
5.369207407
7.516379598
8.929022655
8.842069202
5.051222611
12.02215908
8.85953574
10.90878771
8.94060022
10.78513602
5.692785963
7.734633517
7.845394222
13.89022508
9.439415673
12.06412668
3.578567793
8.435481429
10.1427438
8.165776213
10.88554553
9.793691866
7.441309906
7.217947018
3.732621767
7.138555731
8.875383945
4.615882061
10.06856412
10.05165575
4.236558855
9.689069473
6.73766868
5.057601418
7.14337273
6.950582572
13.39546983
8.391806401
4.420789348
9.018343349
7.194295801
8.568425809
4.791538368
7.098335941
2.984407037
12.13428756
8.136252801
9.053516428
8.664402272
8.004015843
5.33110441
6.04543206
9.595558911
9.92368857
5.800393261
7.473022454
6.97666358
4.076167499
9.151403101
5.900126222
12.24502287
6.458233182
7.122215825
4.883464612
11.06532297
8.177379442
7.047966746
7.820307708
3.922914797
5.10160257
7.684107664
6.443431998
8.598240926
5.305049875
8.661830476
9.517315667
6.954966218
7.916179463
5.697597249
8.85036315
10.28978483
9.035722126
10.91432196
5.663964449
6.291088078
6.851497726
7.859962407
5.23728682
10.38242327
2.41442022
4.7467705
7.412660509
9.562830054
2.876087558
6.214529854
8.04124551
10.4414213
10.11320569
10.05202421
8.735573362
10.79104448
9.983872756
7.051442311
12.13108934
8.312220079
11.76042222
10.98976854
3.444788098
6.139982654
11.91236096
7.485177765
3.600058125
11.89572553
8.419092229
5.424998454
12.57796501
12.56823744
9.596680078
8.819157964
2.114056208
11.88216797
6.575811087
9.791882864
6.975365974
11.37334988
11.25583749
7.99729978
6.643378802
7.728775094
5.028796938
7.013963864
6.401267806
10.53290283
4.735487723
8.439720319
4.509666664
7.498041483
9.949412147
10.32320798
7.960677823
7.439052124
4.143327052
6.744213314
5.53477321
7.145653334
7.804880843
4.847158891
8.993212769
6.896276543
9.175858704
5.246332123
7.643515687
14.08468107
5.568188656
4.918698171
3.513826908
7.687418223
5.91637944
5.722016988
7.66741873
8.918807194
5.151944457
8.158481876
6.797268951
7.85304984
6.410245478
11.00263401
10.25637503
4.51407754
9.006581863
6.001934014
10.13742759
8.157944835
8.799520267
5.679479569
11.09005958
8.617561304
9.623631298
9.185052027
4.781237649
9.865735579
9.300415087
10.23584788
9.057012387
6.435284044
3.846954507
4.684303508
2.535745753
11.6082436
6.054259179
3.984847946
9.076949567
7.936864326
5.834181258
9.033083888
4.593711315
4.849781867
7.89113329
9.206867249
6.374431003
6.584155138
11.65946864
6.093177516
7.879297312
6.749812181
6.631054383
6.316071713
4.181856407
8.307812448
13.5212992
5.25340088
11.4297803
5.39035603
4.107165385
5.753203206
7.796487114
6.293737059
7.333075431
16.31508509
7.472485183
8.180197393
7.613984824
6.431475395
10.63589185
6.824619506
4.747033904
8.127640158
10.4054074
5.681225912
12.60080255
7.311098434
8.665332442
9.091383713
6.159407926
13.06856819
8.668553681
9.06648881
5.45421286
7.930514854
10.41913093
2.798628262
11.42995732
5.192476614
7.574412422
9.478413771
3.581647784
7.992350033
4.817596893
9.018326267
4.647118514
4.002340822
10.99981424
8.083595534
8.014201963
8.465057309
10.09969242
7.476454271
9.015358753
8.36692941
3.584318858
5.80779217
12.57558527
5.928632892
2.534301526
12.05330445
7.970606926
7.142229686
8.683715034
5.184434568
3.924474606
7.31596323
4.297897948
3.597769418
9.712229771
3.674051524
7.88144986
6.515744615
4.049334564
9.175802326
8.099342896
9.55675039
10.86556911
12.69571938
7.611885715
5.487077666
6.448325212
9.051012798
8.022289141
8.604772152
11.32719347
3.491075664
6.734522029
11.36737267
5.705641177
6.11519786
8.790676376
9.964482465
5.958041154
7.449457036
6.395419175
10.59844504
6.02886717
8.976847397
10.17082208
10.92283052
6.369068734
11.81130628
4.462524963
9.122612131
5.109299731
8.061302901
7.473526949
8.782328385
9.696411117
2.36489449
12.29819819
7.948178774
4.97369315
8.393718417
9.105746878
9.097203692
8.252155748
6.084345516
12.23160986
3.907782688
8.48527191
7.388439941
5.418576481
5.619312987
5.338752374
4.361406656
10.72590679
6.723154448
8.560190984
12.50035875
11.2861739
3.116481412
13.37842548
9.062539623
7.343661946
9.963565719
6.720984038
12.40908253
6.695662165
5.967305868
6.313699044
9.265921573
5.611596446
9.543930575
7.81414519
10.17446238
6.81622215
8.968758887
12.03107366
1.484314716
6.265486838
7.360690914
8.262746426
4.877979808
6.307677668
4.898360817
9.196483935
11.66356787
5.662074664
8.161621652
4.252519966
7.521029273
7.816717264
10.68350733
4.133500612
5.137162525
3.97257285
9.347293683
7.999093758
8.751596061
6.596101502
6.665244001
7.613112391
7.267029668
7.901995921
7.366685886
6.166908069
5.255720051
7.084186844
7.357825646
9.611122896
11.8349041
8.222274957
9.765863339
9.321520265
6.237645275
6.076245417
4.72299383
4.579729751
10.22381328
9.131247904
12.31469939
8.169712061
11.13928242
9.764506182
8.993536945
3.777957778
8.447175472
7.858364501
10.19018368
9.605209479
7.838406312
3.561526143
8.730639156
7.386936024
4.753287717
9.513572011
3.817721864
8.766655931
10.5108538
2.320400299
6.02240582
9.156062171
8.776447079
9.885568688
7.049717186
5.673800026
7.829395576
9.512553744
4.683858991
13.22006636
10.21757386
5.051684553
11.35164943
3.369122331
5.056634025
4.600973289
8.352633269
7.211399435
5.146215755
9.067779537
14.51205774
13.98931267
5.631240274
9.29385907
6.472773198
6.190592805
6.787220575
9.839429155
6.830013127
8.275164169
14.30804942
5.636830258
7.107095433
11.4131749
4.749794229
9.82588776
7.81138596
11.61878226
6.158011514
9.784051207
3.061654126
5.87712052
8.713633769
5.794936882
6.773008888
11.82519091
8.817885792
6.335333531
7.882639909
6.870075455
5.422708966
8.070964833
6.909544731
9.745214851
4.868482681
7.580727074
8.188857979
8.536171338
4.686955204
6.233415372
7.218726252
6.601868382
7.426079015
6.940309607
6.489134123
8.869430145
6.53634214
6.523732981
6.496781478
5.699923324
8.986549302
12.06917947
12.01973661
9.761862452
5.465414291
8.402837439
9.996769369
5.870266781
5.800613717
11.09037684
5.512207972
5.323106039
5.076758729
10.47207326
7.036160547
10.55633652
8.731926668
6.118938495
5.98628011
6.588862107
7.216412561
7.055587102
10.41356599
7.881004516
4.364751939
10.54027565
12.97423131
9.4551299
11.53474961
8.262719397
5.37385558
5.990214427
8.704755505
10.08111825
7.167204787
5.973075764
8.217599534
4.532349399
5.722818934
9.507919442
9.19899016
6.885196676
8.108250647
6.736710626
6.424124426
9.906387923
6.652625873
6.019878708
10.20268068
8.51690968
5.004919234
5.682036593
5.549598658
4.985163987
9.706166164
6.982852511
5.080946927
9.178474322
5.13665542
6.994797034
6.795728795
5.714906978
11.36497203
8.911708372
6.66116487
6.424609372
10.40314761
5.105666265
8.791556506
5.295286759
11.65103713
7.80129276
4.843602932
12.11351499
9.611274802
9.337002835
7.56378394
8.761992479
10.50039824
7.372526854
10.63363411
9.916260587
6.217224035
6.751608387
1.626279807
5.273908986
10.76011605
8.784067251
10.75727351
6.813525016
6.661829135
12.14329054
8.232608165
4.694577857
6.940362013
8.22215264
7.933084144
7.639078405
5.442648126
7.323318574
3.644429758
7.430497114
6.220952592
7.685737627
10.22575206
12.58435143
6.950004815
9.198008783
7.897841531
8.074645271
7.934041131
5.12354207
6.237123432
7.348178112
5.843082959
10.34181835
10.18558051
4.395665844
6.060653372
6.823126848
5.84889116
6.042000741
4.087284861
7.639180407
7.986588776
6.173858337
4.118493538
4.295243758
8.151967061
6.33702484
3.439972165
10.72770057
5.891199719
3.741554707
4.677167698
5.28135092
2.844295018
3.542225155
2.700296514
7.121768405
3.073303545
3.878934958
3.446492979
4.52207541
7.618587783
6.172527163
4.46708023
11.02112133
6.421438325
12.54120122
12.08019476
12.37397771
13.08777148
7.905795838
9.480336261
11.91094238
7.216607224
6.48222091
7.908566553
5.527227839
4.081812046
10.39596739
5.266462037
7.352632942
9.974416883
8.026651535
5.156780112
5.268091355
9.20299504
9.333712764
6.905176498
6.753931338
6.45231401
3.70352006
5.02417361
5.980189411
5.553077392
6.583491396
4.643018475
4.986637521
5.097345933
5.96366265
4.497157777
4.10660516
9.293341719
11.69099512
9.778806293
10.34010833
8.908011309
17.00681288
13.33249053
14.37249414
11.41417949
13.84733242
12.06338126
8.149744002
11.20606484
12.16997215
7.413740593
9.767249096
9.782590361
11.85561733
11.03589967
6.162170635
9.174764868
5.141347618
6.689611385
6.752948767
9.008735491
5.56793855
7.540536706
5.610373021
4.605340448
5.979955514
9.344748208
3.837162134
5.223683554
3.931489599
4.851511456
4.742392401
5.915729332
4.76473823
3.75102157
2.197403544
12.15389717
8.66423217
6.568815202
10.93597172
8.409825006
14.9696777
16.65088857
10.50707822
14.45812911
11.31248209
13.94502702
10.52296853
14.18750048
11.69863762
7.566342954
11.70196707
12.04371155
11.88631087
11.65386941
11.29888988
10.17154673
4.477710995
12.02258561
7.115538486
6.950469509
9.88029083
5.258580933
10.66332131
7.884703997
11.48088579
7.149384957
8.544931663
4.367698495
7.140990479
4.87568337
5.232758833
7.546720954
8.276073532
5.154773606
6.033184883
10.54296597
10.79612598
8.630835796
10.4009135
13.6732478
15.80394221
15.13699974
11.39597645
6.10411162
11.59728925
10.73496977
11.52319948
7.794750125
18.06413006
9.693972346
9.077436524
11.29200667
5.750311451
11.40316045
10.11129105
9.557197891
18.74073612
8.477018394
8.105830388
4.428425757
6.614377972
11.94123265
8.799537187
5.549859306
4.63185392
7.043638428
3.743686349
8.08845047
9.743953217
7.948211626
3.276569389
6.487778709
4.882989337
8.799076878
10.79845108
5.114835372
9.555035252
6.58786623
8.977706702
6.172763742
9.982210716
7.204458037
10.57544984
9.381185101
8.156497386
8.963808424
10.99274244
10.86969023
15.16156104
15.00906067
6.55970121
7.284522674
6.489345268
14.73710426
16.83057071
13.03992426
16.71026431
12.75599216
8.379941649
6.496435977
14.47017605
17.18907732
8.793551668
5.570746071
10.75262889
13.3552374
14.60592077
9.035444438
15.07878268
8.405938961
7.921907797
7.738140687
4.523061989
8.733015885
9.990641808
5.074096009
11.38495974
5.104158691
10.77563467
4.782694705
8.285010505
11.20024704
9.601609523
5.670803658
10.75257218
16.78920562
14.23728972
20.38825091
12.6071426
13.04920923
8.338628784
14.95297025
13.38961385
10.60348771
9.608863652
18.46668537
14.65526538
9.046866823
12.52598348
13.93373312
11.26749393
10.99900052
15.45067253
12.9370784
7.21958223
12.46128095
9.397519059
10.51311788
14.82850207
6.175729743
6.8075661
8.620699557
9.731355229
6.445104711
10.43893825
10.76337188
8.561007504
8.259660397
8.326489553
5.696290721
11.73307838
7.020266119
14.28036544
5.37717
10.35522702
8.239649593
8.246187383
10.9633317
17.67592255
11.83677912
14.13986545
8.776823018
16.46845855
17.90891001
11.94543631
11.98895893
20.12649001
6.527248213
12.46696351
16.74800151
14.43677872
11.11109439
17.26468231
15.28390657
7.797314427
9.831419623
10.97097613
13.09353903
15.29627981
10.73722734
7.672104381
7.759875909
13.9452437
15.02937849
13.31352114
7.93635936
9.581949169
10.61917206
9.111366262
12.26097698
11.16311516
4.130448203
8.303337786
11.19652985
6.142912168
7.464407551
6.322170243
8.108321079
12.61282469
8.039879459
17.04758934
16.42930482
12.54925801
13.53921219
17.91376784
11.15744755
13.42061203
17.59945766
12.42669473
15.33029793
17.12350388
15.33832552
9.949357914
10.77175529
6.147916529
12.44000392
14.54392203
9.443034023
8.558256468
11.1019684
9.647001901
9.68475805
10.09666686
8.522471805
6.868740031
10.81140251
9.301910595
3.601776557
7.568555691
12.81278554
6.777956044
10.06501921
8.778541711
11.05344099
12.61418388
14.48113098
12.61038954
9.580770577
10.11399497
9.48531783
10.55865063
12.89062311
8.343222223
11.73463653
11.90353485
10.87837531
10.85516864
13.55958717
10.473524
11.47287378
14.51535832
10.98713565
16.36986897
16.97006466
9.750657298
15.28675006
9.148098127
8.269523408
20.19625126
10.87181122
10.74931343
9.283857148
14.80911303
10.71968685
12.09591418
5.658283915
6.710460207
9.328577904
13.40995587
5.524415012
9.010014255
3.126796381
5.268382207
6.822952927
7.612875885
4.382368931
8.517914248
7.149563571
13.77627137
10.77033991
12.99124615
11.35425715
12.82327483
13.43359802
15.45720803
21.79797226
13.68419484
16.60925602
12.55949463
13.32019869
21.98828053
12.3095337
15.44393138
12.32530792
19.1719483
11.56509577
19.41158536
15.24040944
14.71693986
18.6546912
9.524291142
7.423991197
10.16629833
19.36295251
12.46423418
8.467079886
9.530389603
10.21676659
3.051766585
6.182451537
3.631369712
5.690755392
7.909491996
6.214669406
9.898061802
12.31392533
11.31218082
7.074694108
11.03329032
11.00021312
10.76088477
13.76149228
8.230392196
13.29022355
13.91825557
10.69326561
13.07727867
10.28687822
17.2569482
10.14086336
20.79138447
13.14696753
18.32255303
12.47672186
11.64678241
18.38125186
11.81666868
20.27362963
15.86535052
17.37037317
16.12527482
17.59854891
9.879418827
17.20687369
10.47255697
8.463545029
13.66365226
5.480274702
6.21646114
9.972619976
5.648397738
6.88404372
8.129648684
4.015599224
10.28359522
13.52693787
3.439634841
8.20607596
9.680328339
4.622530292
15.39211968
11.10312064
14.78730421
8.796582118
16.02575605
10.43310514
10.34553232
13.1185148
13.9424113
13.58286546
17.76203775
15.12790276
12.77111537
8.397078957
19.14108484
10.4588117
9.330186652
22.90853592
18.93388194
21.05853492
13.7699222
10.02289772
10.75757882
17.99593508
8.941758254
9.324499649
8.046008127
3.810984299
6.348058393
7.228538097
3.746607623
9.632980055
7.949579618
7.684181786
11.82737995
11.70454897
7.647942491
8.25880831
5.39003534
6.176514024
8.341331587
5.925794364
12.5793902
16.4492867
9.570657992
15.15775577
21.47027156
18.20733626
11.92941537
10.90942339
16.24147499
7.136877773
15.79661518
10.20879646
15.30597996
23.99744928
9.316058891
12.96888171
17.71363655
10.44557766
22.1920538
9.621207853
14.59692087
10.78283555
17.05778943
8.1934453
5.908743008
11.15594006
6.543654907
10.74932205
6.838147684
6.277740493
11.38119722
3.926129179
5.438131656
6.582762902
13.13450921
12.70249966
8.229299034
6.839425467
11.4423133
5.328830185
6.686028091
9.745532266
14.0672963
9.681309474
10.58141288
12.64301201
11.04970383
11.86639612
7.593613709
12.9979068
12.77224395
14.34728281
14.54241278
20.27605701
14.35898617
17.71684181
20.26862618
13.8563277
18.60923362
17.05229856
13.93409955
7.829639509
15.10505554
12.85234082
4.087196393
3.321657705
6.845747645
5.422596755
9.771601979
9.777989049
11.8614597
9.900683952
11.58308138
7.541165311
3.446800254
8.15342895
6.01754784
10.10886366
5.009624346
10.10162064
15.78188521
8.481231704
11.72494804
13.36505011
12.55300025
15.39074647
11.31997125
13.30413947
17.81674653
17.23563881
13.62374242
9.140856301
17.38453594
21.10806001
14.62104785
12.89242976
12.67161365
13.87792087
10.60264651
18.88433671
12.76891799
23.55986479
8.834415675
11.44213492
13.8315812
4.379995689
8.408536971
7.846791694
8.628521121
4.364758716
6.75460129
7.871937385
7.579118922
14.54609336
12.26305512
9.614410775
15.56058487
11.10870822
5.967390421
6.489417232
9.955284926
6.732534568
10.45410936
8.801260663
12.02529168
18.81697789
13.1468242
7.729312576
10.99762194
11.67532226
9.930570552
17.55017318
10.69281479
12.48503567
10.87533577
15.37741639
10.87182581
18.77011535
17.74363478
11.0412946
17.69427317
15.55426012
15.70514644
8.064514838
5.869425311
6.498041817
6.12470146
9.445579755
13.8264705
13.05395843
8.497896717
9.491765389
11.58576793
3.406258365
6.501142327
9.498478516
10.7534638
7.485180336
12.35728365
10.99244966
7.06670292
4.850279596
16.96718193
12.8754249
7.405043219
10.81837144
8.522919388
14.35471323
12.33569989
12.76511724
15.5060875
12.72868775
12.60617339
8.89659933
9.779266953
19.79558206
9.630946934
21.11919474
7.551799365
12.667214
25.8182601
23.44341366
13.75470298
7.117515645
2.270627988
7.064475038
7.941001649
6.804282467
7.224533277
9.286641115
7.759076784
5.898530666
1.915186117
10.56114497
11.36195269
5.86970131
6.627984447
10.74961385
9.818074053
4.70315397
9.724713967
8.033691666
12.58744793
5.983106587
9.461108745
9.965240246
7.441118866
9.5737225
9.802659997
7.395646214
11.75855643
8.310709438
14.07003229
9.92270896
17.41499621
17.83145151
9.846869137
23.23052748
20.05753047
14.04416317
13.84629536
15.94331643
18.02305134
10.85716432
12.4661725
8.295628005
9.227747263
11.14662066
6.356232152
8.486780374
6.642916736
6.64606639
6.61119978
7.069752862
10.65025431
12.24935492
4.902688409
9.151551581
2.833544678
5.543828505
9.145443351
12.0230615
3.35671153
8.270269155
8.720035498
7.748725135
7.135914297
2.885646485
15.93539458
7.397814166
11.17699493
8.173523189
10.3895433
12.0555517
16.04993752
13.14686951
12.84939269
13.21069541
22.80192922
17.8792843
18.47450062
12.56771965
10.91104633
10.63237971
10.70748659
6.494813979
7.163020344
6.283949899
9.025698387
11.27774933
5.359135131
6.044868723
2.490740045
8.060601694
5.279812942
5.012635419
3.479484774
5.013844764
5.587554147
14.31365597
9.010342479
1.824134432
7.856416583
9.799868753
8.113509028
12.14347853
7.814706422
7.150794909
8.584725585
12.89591253
5.019429383
11.23135089
9.258599244
11.80417801
12.83415734
18.15284037
19.77323546
14.6931002
12.99790707
14.16741164
19.58225823
15.91588279
13.65424315
9.769435753
11.32423568
5.473213475
8.714030703
8.071017147
8.032034883
7.89308503
7.527262298
8.617864867
6.122554369
8.643719329
14.58381647
1.789131367
7.790898614
7.15922178
7.254863992
8.480525335
8.925617678
12.98237068
14.59027131
8.099774341
9.468088003
8.604962986
9.323950462
7.324694298
7.298560763
6.614413178
10.0725277
11.37031974
6.495715402
14.87923003
14.84817731
5.592131468
21.66533328
20.48730745
11.92753409
17.75985385
17.61149465
19.75219047
17.80316491
5.592478725
10.87811123
7.592984755
9.07159671
6.390304884
10.46398947
6.258127675
4.12477834
6.208672866
8.480349623
5.994117818
3.990821303
8.936295405
11.90119986
6.575514397
9.091044948
9.944493166
11.71554463
3.738228776
8.442254187
6.52218985
10.92363233
7.69853399
9.255850443
8.507447334
9.702268279
10.82512021
5.529622655
14.16784077
14.18050545
4.544453301
8.514670416
11.28182556
11.39044534
15.12582345
14.48123518
14.01363317
11.08089264
14.31547588
11.51730263
7.182812918
10.26769193
10.71161881
10.21625592
15.21691671
10.31475379
6.139402456
5.265609998
12.60381592
3.428151401
7.640021975
5.38911731
4.48120267
5.506133263
4.773112307
10.06373738
6.250028338
7.441992162
5.556548909
9.78139205
7.787229079
11.75160374
15.73325514
9.844093724
3.882433818
10.4982863
9.350863087
8.707071923
12.27210653
8.376348679
11.18373735
10.4271602
8.746636501
13.46878365
11.40047075
7.770665612
10.96969589
15.77354946
9.063844616
27.53959559
5.028915375
4.281207028
9.545592059
5.440827112
3.821260958
5.599420064
8.261894392
3.906357541
6.332628219
7.177052824
11.32104213
3.537130997
8.682204212
6.30429773
9.897982729
10.30833861
10.04049789
8.13317595
10.23658032
10.72180573
6.413557683
3.391209749
6.426184105
5.850856398
4.210460815
7.005326775
5.748871983
5.779091007
6.754350893
7.506886742
5.511918184
9.44389301
5.345500913
7.995185902
7.740147605
14.42417716
20.11845886
12.40984008
10.19574012
9.409407544
3.787623128
8.597993111
11.68508817
10.00760484
7.896693773
7.047154558
8.015774466
7.709656987
8.101118644
11.80215086
4.509109704
9.105902282
11.14657032
8.194922448
6.658707006
9.008978554
11.39194738
13.18266195
6.899465972
6.687068903
7.752375103
7.97829156
5.970347561
7.70597979
5.189717983
8.346836088
7.472514379
11.54883377
4.931470381
11.3699634
12.91152141
12.11893024
5.350225684
8.551298784
13.82384564
13.81425338
17.05857412
12.28622948
14.86628147
21.94393117
11.21716743
9.997805003
6.319034703
4.898626312
9.755442665
6.796411703
9.842805309
8.865792718
9.666996631
4.33378123
11.50687978
6.833908581
7.713802499
7.204700844
10.77875718
3.54431639
4.96372905
6.372026842
7.886398121
5.601973884
8.334681004
7.476363915
11.7581613
10.52017406
6.215005583
6.072694777
8.672063797
10.70892167
7.39034805
3.771250137
8.070135955
11.12822425
12.61596453
3.297101069
16.5519752
8.562203018
11.58387905
15.5649357
12.73884786
14.30797968
4.159873259
6.472192728
2.726916451
9.122700503
6.133120552
12.65720316
11.90214607
8.325819638
10.03875615
6.195787508
5.088807033
10.73087289
8.062412975
9.350178939
8.343870127
8.241637077
11.92940493
7.75185506
7.225289513
0.7634632372
12.36834017
6.959585334
9.277704382
13.60933229
11.91971803
8.882860765
4.196376055
6.758248325
9.63360258
6.62904793
3.411484551
12.5152099
10.39245793
13.05913128
11.03936371
10.9562356
10.15377137
12.60465044
13.23332359
8.436751704
9.032663106
12.21841444
5.093583156
6.313546828
9.341507694
7.729795344
7.602311085
11.36836562
6.854328539
7.382811175
7.079628194
10.69505631
9.051505793
7.272054399
5.275565573
7.782796695
4.940535112
5.776536274
13.52901512
10.13624362
12.34668306
6.269769947
7.304116382
6.880978957
9.339768816
7.869821
9.241443705
7.286551134
8.067915983
5.437332251
13.401104
8.333769855
11.68447963
8.400686507
10.681774
3.840022466
9.696529661
7.16128728
7.404153037
10.59414142
10.20385224
7.970476435
13.69472917
9.209561015
9.873966728
9.631151369
7.702902617
4.842188894
4.366741361
9.365787237
11.7684411
3.475482993
6.618573494
10.20600263
11.49688323
7.565005624
6.536561429
6.085165224
10.95658524
8.524379838
4.536540918
4.354360957
5.783115615
6.17517884
8.699067345
15.9282816
9.375896687
7.590737402
8.452200931
4.426152572
6.028158385
8.002591547
2.418454483
10.99368705
9.704467035
9.493299007
11.51638904
4.517694885
7.462729915
14.36654201
10.46265592
8.74985127
11.34785605
5.756215054
8.840894097
4.466808837
6.020988868
7.925485704
11.8063093
11.79145223
8.200787194
6.273381845
3.12709316
7.635947712
13.5394884
4.911072428
6.161457025
6.340251182
7.686309921
4.933458953
6.900488049
5.987702649
9.352403787
4.28586382
8.878251348
2.744152791
11.85001421
8.694728739
9.541430047
7.5081
6.105557548
14.10489664
12.40068333
12.96099083
11.68070854
9.847285078
14.87206559
3.837937282
11.85866785
6.166063876
5.252060051
5.809185673
11.55682299
14.2554976
12.26481823
6.810495501
5.13092452
7.2706489
5.667103568
5.158417224
13.28738697
8.833477457
3.572729672
10.39271495
8.759017484
8.725776425
8.593353628
3.248385187
8.011139244
11.04347739
5.845880065
7.328604551
6.015509621
8.373191873
2.758845289
9.47546617
5.323380667
10.15656157
14.00405627
5.943851648
8.200488581
7.469638928
10.8348313
7.720431847
9.452016682
8.48413788
15.16858337
6.744152344
10.84678859
7.8500147
8.046487734
4.459798091
6.082244216
7.912554251
4.599020967
9.815224725
7.367262945
5.305282925
13.17859523
12.42332203
7.106076181
5.85969507
5.182983092
8.064447668
11.76551816
10.49373792
9.384435675
6.912686671
7.169602371
11.41116727
6.699001176
13.21986704
4.88431218
6.62031519
5.581230324
2.393984721
2.990426914
8.952555074
3.0683306
9.28966552
9.662604223
8.600038709
4.691042563
5.304471939
9.780759746
7.742229058
10.79962993
5.948290941
9.173257367
8.661223601
6.579689861
9.708952289
8.434479933
6.388790546
5.734924907
6.698874528
8.01971738
12.83185679
6.377475171
6.43460549
5.169112989
1.994919808
12.95394807
11.70016503
5.430406151
10.91126209
7.89844726
7.655619281
9.228031293
9.260395971
7.287811036
12.15194666
13.93587278
8.541465879
5.799496734
5.687335974
7.121838536
14.95856254
4.368199319
9.828683518
5.181721989
6.438742523
4.278225541
8.320472795
8.358784334
11.19555955
4.694659421
10.78827696
8.974112724
9.025805496
8.500480251
8.47046361
3.966281468
9.176742718
4.872537724
7.085461374
9.043718945
5.325547178
7.45804986
8.250731332
9.926710545
11.1523132
5.115215846
5.468663481
7.178632237
6.444928008
5.175331176
2.827050858
11.47815632
10.95234115
7.439144397
3.028264326
7.043423467
12.9026142
9.857754964
10.88819034
6.284194142
5.99498488
2.865840668
8.136110951
5.952650874
12.0494531
9.140870719
7.933485752
8.944297311
8.584697914
7.126308935
4.582049718
12.73041529
12.89007931
7.446345777
6.737422879
10.33586756
5.50698342
6.306918949
3.410945785
6.247666472
6.509511703
7.916928507
11.2462496
6.895210771
8.237883938
3.206487198
5.766786429
5.877320578
8.096402112
8.244389532
7.774597079
7.723525123
5.31062426
12.77596338
8.97639178
3.694705317
3.923579099
6.897255968
4.566794632
9.523495959
7.231241611
9.354955836
9.603675074
9.946798916
5.245633762
7.97024759
5.45362046
2.337099874
8.474594968
6.641255253
6.774724319
10.45220322
10.70768057
8.492758263
7.349922463
1.617941878
10.92747728
3.774867752
7.356355388
6.464181051
4.812570007
5.868950183
10.92123976
8.970303144
8.549309807
5.918597478
2.638721818
10.23561058
6.637103887
13.11708139
11.28760584
6.606368319
5.446648661
10.03410103
11.07673676
3.50458289
11.9694737
12.9201307
9.361571517
8.003821372
9.454266932
9.15506418
4.472567163
7.22727822
3.280560271
7.740704453
4.315816915
8.638395538
9.186764491
5.15479509
4.560572934
8.776754469
6.128540323
4.148066367
3.621449181
6.04790147
5.078435626
7.689049791
14.08795163
7.081950489
10.2425416
9.254063908
4.314803373
7.224815274
9.716473984
3.434505901
13.20286665
7.409973525
4.171295787
9.809795556
10.76942111
5.518029706
6.188175087
10.93305356
5.41906366
11.99817501
5.975117182
7.92657008
4.069405265
11.07955195
10.47570988
4.307206839
1.71816269
10.44250915
6.924957506
9.668671437
7.402834339
6.848271951
12.19185822
3.627325074
5.327281505
11.46672862
8.15029023
9.384736819
4.394982543
7.714760106
12.10965155
7.308911032
3.181501921
8.278817264
7.964717338
4.324180544
10.44660949
7.776479128
12.24503378
11.65929918
5.736712894
4.83057781
5.839057643
8.394659382
6.787722643
4.63123479
9.112756582
7.741654904
6.194744529
4.938132302
7.907394125
4.635198411
6.766090724
6.14138144
5.07887075
6.279667063
5.91326111
12.7710532
10.36560878
9.401384726
5.832553974
5.591220335
6.269043562
11.20732463
4.509414651
5.589114999
6.180444478
9.335658037
9.939012687
7.220942499
10.58271032
7.391572193
6.132485864
8.898167029
8.114167897
6.2432499
9.279273096
8.08420592
9.231633649
11.2745819
9.320039097
8.858639172
7.998325424
7.284708514
7.83460919
5.036969482
7.012340055
7.880721928
8.059690543
10.99893188
8.994771272
9.858971304
4.825873358
2.906479863
9.316100689
6.341314523
6.971463909
7.810782413
8.465769269
12.27106664
13.83687327
14.17517106
8.78102466
5.951936222
7.402849772
8.981711918
12.02307474
)
;

boundaryField
{
    flow
    {
        type            zeroGradient;
    }
    obstacle
    {
        type            calculated;
        value           nonuniform List<scalar> 
40
(
0
2.903628416e-18
1.610641949e-18
2.988467629e-18
5.332850046e-18
7.768264194e-19
0
1.744572732e-18
5.579723831e-18
1.29198215e-18
0
5.939890344e-18
1.504668665e-18
1.151777774e-18
0
2.535677149e-18
5.648068499e-18
1.227912471e-18
0
3.029001918e-18
7.498579868e-19
5.701399176e-19
8.128392026e-19
2.971746543e-18
5.072072683e-18
4.373224862e-18
3.319859396e-18
3.925063303e-18
2.510186904e-18
1.800171511e-18
7.653148983e-19
2.78552328e-18
2.856713283e-18
0
3.358019376e-18
6.175821391e-19
1.308109963e-18
0
0
0
)
;
    }
    frontAndBack
    {
        type            empty;
    }
}

