/*--------------------------------*- C++ -*----------------------------------*\
  =========                 |
  \\      /  F ield         | OpenFOAM: The Open Source CFD Toolbox
   \\    /   O peration     | Website:  https://openfoam.org
    \\  /    A nd           | Version:  7
     \\/     M anipulation  |
\*---------------------------------------------------------------------------*/
FoamFile
{
    version     2.0;
    format      ascii;
    class       volScalarField;
    location    "0.004";
    object      dsmcRhoNMean;
}
// * * * * * * * * * * * * * * * * * * * * * * * * * * * * * * * * * * * * * //

dimensions      [0 -3 0 0 0 0 0];

internalField   nonuniform List<scalar> 
654
(
16.866
17.6045
17.717
17.5645
17.459
17.341
16.929
14.903
15.255
15.545
16.061
16.4105
17.0335
17.187
17.389
17.3325
17.1355
16.977
11.1415
11.594
12.187
12.773
13.169
13.8165
14.698
15.116
15.404
15.756
15.9055
16.336
16.6355
16.8695
16.703
16.7505
9.303
9.477
9.563
9.6795
9.7335
9.9195
10.389
10.6835
11.073
11.464
11.96
12.5585
13.1925
13.8455
14.4675
14.774
15.2925
15.6095
15.7935
16.2015
16.3735
16.1945
8.9845
8.9995
8.9485
9.0155
8.9795
8.978
9.0445
8.987
9.142
9.317
9.524
9.692
9.8625
10.201
10.4745
10.8625
11.3565
11.8045
12.351
12.9475
13.408
13.873
14.2905
14.793
15.2165
15.3765
15.8295
16.0305
9.008
8.991
8.933
8.8475
8.8165
8.8185
8.8875
8.9355
8.956
9.031
9.1265
9.172
9.209
9.3025
9.5925
9.8285
10.027
10.2835
10.5265
10.858
11.301
11.6395
12.2635
12.888
13.4225
13.858
14.275
14.6635
15.018
15.525
8.981
8.8995
8.8145
8.851
8.8575
8.8005
8.748
8.7315
8.7145
8.686
8.7115
8.735
8.897
9.02
9.034
9.2525
9.4565
9.6775
10.0895
10.33
10.72
11.1065
11.413
11.8605
12.4525
12.928
13.2755
13.8555
14.293
14.6815
8.7845
8.714
8.7555
8.696
8.6005
8.6
8.6885
8.605
8.5895
8.5885
8.6955
8.788
8.7735
8.8405
8.8585
8.894
9.0585
9.2585
9.272
9.5435
9.8185
10.2175
10.644
11.0165
11.5185
12.179
12.861
13.2475
13.6785
14.123
8.8895
8.8985
8.861
8.827
8.8185
8.795
8.8615
8.796
8.7955
8.7285
8.6025
8.5965
8.6335
8.5755
8.6005
8.606
8.7445
8.8455
9.0145
9.086
9.3655
9.609
10.0265
10.477
10.9355
11.3315
11.901
12.402
12.885
13.149
9.1135
8.957
8.834
8.809
8.865
8.6745
8.5735
8.608
8.5675
8.5075
8.48
8.453
8.34
8.4155
8.5235
8.4745
8.5125
8.488
8.554
8.689
8.8475
9.1255
9.5235
9.7045
10.0955
10.4975
10.8635
11.3225
11.745
12.4265
8.908
8.945
8.859
8.8385
8.7455
8.781
8.7715
8.681
8.6055
8.595
8.5635
8.597
8.5045
8.464
8.344
8.37
8.385
8.5005
8.616
8.716
8.717
8.8025
8.9785
9.276
9.562
9.786
10.223
10.8425
11.3215
11.7675
8.894
8.7945
8.8015
8.6725
8.66
8.582
8.4045
8.4205
8.464
8.334
8.2835
8.2955
8.1885
8.2075
8.287
8.336
8.363
8.3105
8.3935
8.461
8.5635
8.562
8.701
8.8335
9.127
9.435
9.693
10.081
10.5825
11.043
9.161
8.9895
8.875
8.808
8.7375
8.7525
8.7435
8.606
8.5845
8.594
8.461
8.3745
8.3665
8.415
8.322
8.3045
8.2895
8.236
8.2915
8.3045
8.4365
8.4945
8.566
8.668
8.653
8.903
9.1325
9.3255
9.647
10.0895
8.9095
8.8885
8.8985
8.863
8.7255
8.668
8.71
8.607
8.458
8.465
8.4195
8.404
8.2895
8.2585
8.2145
8.2415
8.2055
8.337
8.356
8.3695
8.381
8.4385
8.3925
8.4445
8.581
8.6025
8.8245
9.003
9.1675
9.4715
9.035
8.9635
8.8555
8.673
8.5905
8.5
8.3745
8.324
8.328
8.2405
8.2225
8.2365
8.301
8.2395
8.2415
8.2565
8.276
8.168
8.187
8.14
8.135
8.11
8.1265
8.273
8.299
8.2995
8.439
8.56
8.6625
8.9695
8.816
8.717
8.685
8.6475
8.6485
8.6055
8.5285
8.482
8.4255
8.422
8.3475
8.33
8.256
8.2205
8.1485
8.1155
7.9955
8.0225
8.0015
7.967
7.9115
7.9225
8.07
8.061
7.989
8.039
8.103
8.122
8.3485
8.502
8.9915
8.897
8.8245
8.744
8.6735
8.5405
8.5535
8.453
8.373
8.298
8.2575
8.249
8.162
8.144
8.121
8.04
8.0515
7.986
7.9925
7.941
8.0465
7.952
7.8045
7.861
7.8635
7.8585
7.8685
7.975
8.0655
8.199
8.8825
8.7925
8.778
8.778
8.7545
8.669
8.5775
8.612
8.5215
8.5005
8.462
8.406
8.31
8.2505
8.159
8.051
7.952
7.988
7.9355
7.809
7.746
7.7095
7.6085
7.578
7.5335
7.5885
7.7355
7.6925
7.761
7.914
9.063
9.008
8.96
8.783
8.7775
8.7755
8.8335
8.6685
8.674
8.5155
8.4
8.2875
8.233
8.1085
8.114
8.013
7.8705
7.7735
7.698
7.6955
7.626
7.5865
7.579
7.654
7.66
7.7035
7.682
7.7515
7.8585
7.8875
8.8495
8.841
8.7595
8.8
8.7405
8.6805
8.5765
8.549
8.468
8.4265
8.442
8.357
8.226
8.203
8.122
8.005
7.9795
7.9415
7.8395
7.7955
7.689
7.7295
7.712
7.696
7.6535
7.721
7.7845
7.692
7.6755
7.638
8.988
8.977
8.833
8.69
8.679
8.584
8.4285
8.301
8.2955
8.276
8.1565
8.1315
8.1095
8.0595
7.994
7.9685
7.938
7.905
7.834
7.772
7.8355
7.8185
7.7705
7.7195
7.595
7.4875
7.4885
7.5015
7.577
7.5545
8.83
8.7595
8.7925
8.7015
8.656
8.533
8.59
8.5375
8.4685
8.296
8.2125
8.177
8.276
8.19
8.2485
8.1075
7.9525
7.9105
7.875
7.8675
7.755
7.7175
7.5725
7.5845
7.6315
7.5875
7.5195
7.4165
7.4105
7.4285
8.9945
8.938
8.898
8.7795
8.7065
8.6585
8.531
8.484
8.4095
8.3825
8.335
8.232
8.1195
7.972
7.9595
7.963
7.934
7.9075
7.7805
7.6865
7.5645
7.524
7.519
7.4295
7.398
7.3055
7.366
7.298
7.2995
7.279
8.739
8.6505
8.605
8.4745
8.382
8.384
8.3555
8.322
8.2255
8.18
8.1285
8.034
7.955
7.883
7.7905
7.7145
7.5995
7.5795
7.5935
7.5315
7.559
7.481
7.4235
7.395
7.343
7.2765
7.155
7.1825
7.1535
7.2035
)
;

boundaryField
{
    flow
    {
        type            calculated;
        value           nonuniform List<scalar> 
55
(
16.866
16.929
16.977
16.7505
16.1945
16.0305
15.525
14.6815
14.123
13.149
12.4265
11.7675
11.043
10.0895
9.4715
8.9695
8.502
8.199
7.914
7.8875
7.638
7.5545
7.4285
7.279
7.2035
8.739
8.6505
8.605
8.4745
8.382
8.384
8.3555
8.322
8.2255
8.18
8.1285
8.034
7.955
7.883
7.7905
7.7145
7.5995
7.5795
7.5935
7.5315
7.559
7.481
7.4235
7.395
7.343
7.2765
7.155
7.1825
7.1535
7.2035
)
;
    }
    obstacle
    {
        type            calculated;
        value           nonuniform 0();
    }
    frontAndBack
    {
        type            empty;
    }
    procBoundary3to1
    {
        type            processor;
        value           nonuniform List<scalar> 
36
(
16.236
17.8935
17.595
17.518
17.202
16.955
16.955
15.709
16.3285
16.549
16.766
17.2795
17.2795
11.934
12.5115
13.133
13.6995
14.4565
14.4565
9.341
9.5125
9.752
10.0435
10.4105
10.867
10.867
9.0365
9.0215
9.0595
8.9905
9.0625
9.22
9.22
9.0025
8.9225
8.9225
)
;
    }
    procBoundary3to2
    {
        type            processor;
        value           nonuniform List<scalar> 
19
(
9.074
8.958
8.918
8.957
9.0715
8.848
9.0565
9.1245
9.026
9.1415
8.894
9.0265
8.9485
9.076
8.8975
9.1545
8.9325
9.0525
8.806
)
;
    }
}


// ************************************************************************* //
