/*--------------------------------*- C++ -*----------------------------------*\
  =========                 |
  \\      /  F ield         | OpenFOAM: The Open Source CFD Toolbox
   \\    /   O peration     | Website:  https://openfoam.org
    \\  /    A nd           | Version:  7
     \\/     M anipulation  |
\*---------------------------------------------------------------------------*/
FoamFile
{
    version     2.0;
    format      ascii;
    class       volScalarField;
    location    "0.004";
    object      dsmcSigmaTcRMax;
}
// * * * * * * * * * * * * * * * * * * * * * * * * * * * * * * * * * * * * * //

dimensions      [0 3 -1 0 0 0 0];

internalField   nonuniform List<scalar> 
654
(
7.80785618e-16
8.673985578e-16
8.066576699e-16
8.622928644e-16
7.765485451e-16
8.544402725e-16
7.486758098e-16
7.750496462e-16
8.092542181e-16
8.142123191e-16
8.100547857e-16
7.999911807e-16
7.81647258e-16
7.876884868e-16
7.972432121e-16
8.136018773e-16
7.837657326e-16
7.934735455e-16
8.361665932e-16
7.539991578e-16
8.122299379e-16
7.561744462e-16
7.968431397e-16
7.598306133e-16
7.797156057e-16
7.822305174e-16
8.220460194e-16
7.728887857e-16
7.68417782e-16
7.767120342e-16
8.714244837e-16
8.207001048e-16
7.787653102e-16
7.610491436e-16
7.513252674e-16
7.099957475e-16
7.469610911e-16
7.344508361e-16
7.873895743e-16
8.351213987e-16
7.490315475e-16
7.400195603e-16
7.882609572e-16
7.545690377e-16
7.539351332e-16
7.512192109e-16
7.700903239e-16
8.512528827e-16
7.971681288e-16
7.449514162e-16
7.983623327e-16
7.645992183e-16
7.625561938e-16
8.136612796e-16
7.72970583e-16
8.197437999e-16
7.502125812e-16
7.559638873e-16
6.999140733e-16
7.474032077e-16
7.401757295e-16
7.497649924e-16
7.482253646e-16
7.671778879e-16
7.106434058e-16
7.549284089e-16
7.696467739e-16
7.562365768e-16
7.645769962e-16
7.340903758e-16
8.306130149e-16
7.527461304e-16
7.309127745e-16
7.813337659e-16
7.85459064e-16
7.613977785e-16
7.465235332e-16
7.944946426e-16
7.569972679e-16
8.053331575e-16
7.850555621e-16
7.647261181e-16
8.035155402e-16
7.705265703e-16
7.438665951e-16
6.651560987e-16
8.198927468e-16
8.800517729e-16
7.990930937e-16
7.876432962e-16
6.822753658e-16
7.551428026e-16
7.225516777e-16
7.022654656e-16
7.165220814e-16
7.636955372e-16
7.240567364e-16
7.594087989e-16
8.140850437e-16
7.577024116e-16
7.309809439e-16
7.738206304e-16
7.742992857e-16
7.83769593e-16
7.673741237e-16
7.246976516e-16
8.070590029e-16
7.724959247e-16
8.050283976e-16
7.889443063e-16
7.861716065e-16
7.8451081e-16
8.049394326e-16
8.086090523e-16
6.726575367e-16
7.584215969e-16
6.615981249e-16
7.212513181e-16
6.859646757e-16
6.926761523e-16
7.640661221e-16
7.372639997e-16
7.411433487e-16
6.791291498e-16
6.69151306e-16
7.368557566e-16
7.08688903e-16
7.739904591e-16
7.814902786e-16
7.710871549e-16
7.735538363e-16
7.290349464e-16
7.754829478e-16
7.778959401e-16
7.805912412e-16
7.906408675e-16
7.68285168e-16
7.618055122e-16
7.917209508e-16
7.453989736e-16
7.22937989e-16
7.609778952e-16
7.952065137e-16
7.775406164e-16
6.450929533e-16
7.206319061e-16
7.273760844e-16
6.91259798e-16
6.926856344e-16
7.781608874e-16
6.984485227e-16
7.777228172e-16
7.597305562e-16
6.830074355e-16
7.570367758e-16
7.215718145e-16
7.798469192e-16
7.507106503e-16
7.357299767e-16
7.052606919e-16
8.150744936e-16
8.043170892e-16
8.411094211e-16
7.700105988e-16
7.761693914e-16
7.914434637e-16
7.59485794e-16
7.250505523e-16
7.552029413e-16
8.551779011e-16
7.334397095e-16
7.452622334e-16
7.660218465e-16
7.769730639e-16
7.034322303e-16
7.720068804e-16
6.713852244e-16
6.994145615e-16
6.245229633e-16
7.240740295e-16
7.213254995e-16
7.2878829e-16
8.127744908e-16
7.07119389e-16
7.25662023e-16
7.205876384e-16
7.474722308e-16
7.602584512e-16
7.526612499e-16
7.278106263e-16
7.477683489e-16
7.49871902e-16
7.484394683e-16
7.126483029e-16
6.998027201e-16
7.208801648e-16
7.86062224e-16
7.627980981e-16
7.673187559e-16
7.461513487e-16
7.475015346e-16
7.488937518e-16
7.782658667e-16
7.509764249e-16
7.56199091e-16
6.171927657e-16
6.491808203e-16
6.400888957e-16
6.418443895e-16
6.291174696e-16
7.576439804e-16
6.687205244e-16
6.544874076e-16
6.970576511e-16
6.918521474e-16
8.186629017e-16
7.380568296e-16
7.380568296e-16
6.792490055e-16
7.574970739e-16
7.086310347e-16
7.233292703e-16
7.593216196e-16
6.837949193e-16
6.962505048e-16
7.265912202e-16
7.280183495e-16
7.10977947e-16
8.173585356e-16
7.721861311e-16
7.601376752e-16
8.251462908e-16
7.639973627e-16
7.348951064e-16
6.392061539e-16
6.740671206e-16
6.579600294e-16
6.302499628e-16
6.855435927e-16
6.408741395e-16
6.913547534e-16
7.088731335e-16
7.210604286e-16
7.556861785e-16
6.493371935e-16
6.869468029e-16
6.329096305e-16
6.888069808e-16
7.609030274e-16
7.495945957e-16
7.133188029e-16
7.128615124e-16
6.564126221e-16
7.396301729e-16
6.929540885e-16
7.761923682e-16
7.056446714e-16
7.829896443e-16
7.762646711e-16
7.645054287e-16
7.414603108e-16
7.165446358e-16
7.808729537e-16
7.494827849e-16
5.725332985e-16
6.312014946e-16
6.418878244e-16
6.270150477e-16
6.031425726e-16
6.303119951e-16
6.658374711e-16
6.230230684e-16
7.071672827e-16
6.776044174e-16
6.01963047e-16
6.960210058e-16
7.20111291e-16
6.442105867e-16
7.396418433e-16
7.553688619e-16
6.965195529e-16
7.276658679e-16
7.419958568e-16
7.372911156e-16
7.195427109e-16
7.0199221e-16
8.251307074e-16
7.231905307e-16
7.364150287e-16
7.754794158e-16
7.736622147e-16
7.823870328e-16
7.621495143e-16
7.664881951e-16
6.365000002e-16
5.799055714e-16
6.105719697e-16
6.774685958e-16
6.195455894e-16
6.00077621e-16
6.161936282e-16
6.633456244e-16
6.518793331e-16
6.227364869e-16
6.185224384e-16
6.951320311e-16
6.960129351e-16
6.306484437e-16
7.73492286e-16
6.947447782e-16
7.226779796e-16
7.234460436e-16
7.387725771e-16
7.668504474e-16
6.868236382e-16
7.253941218e-16
7.079712735e-16
7.288786513e-16
7.219079837e-16
7.033244841e-16
7.078300076e-16
7.403036438e-16
7.848016411e-16
7.681776925e-16
6.058201155e-16
7.058480178e-16
6.367784625e-16
5.865969611e-16
6.12285655e-16
7.052156782e-16
6.824515636e-16
6.34928742e-16
6.870022829e-16
6.051233434e-16
6.906197375e-16
6.474193331e-16
6.245420251e-16
6.867295741e-16
6.790874154e-16
6.339073089e-16
6.99401197e-16
6.886412213e-16
7.297241475e-16
6.915263534e-16
7.164867427e-16
7.224046905e-16
7.008710594e-16
6.893279326e-16
7.038174423e-16
7.013756505e-16
7.467261891e-16
6.988919976e-16
7.683864915e-16
7.021718765e-16
6.226837646e-16
6.857321915e-16
6.343639308e-16
6.590776232e-16
6.285334362e-16
5.765101984e-16
6.650926766e-16
6.441361521e-16
6.901011281e-16
6.645990253e-16
6.48701891e-16
7.026492105e-16
6.404356172e-16
6.245788529e-16
6.408803209e-16
6.810409527e-16
7.573878405e-16
6.091710076e-16
6.864658643e-16
7.435476059e-16
6.917986172e-16
7.285721591e-16
6.811241339e-16
6.616557313e-16
7.4129533e-16
7.535696846e-16
7.352724884e-16
6.998749634e-16
6.995293123e-16
7.069750683e-16
6.503084226e-16
6.391343929e-16
6.311327836e-16
6.507974193e-16
5.894621257e-16
6.028522374e-16
5.961304244e-16
7.304610538e-16
5.905434566e-16
6.620156571e-16
6.523059134e-16
5.859056109e-16
6.245559924e-16
5.961681972e-16
6.007684455e-16
6.803647379e-16
6.631753473e-16
7.349749843e-16
7.261662799e-16
6.924343191e-16
7.014671775e-16
6.88252386e-16
6.669199503e-16
6.943715109e-16
7.225777141e-16
6.817446499e-16
6.951778512e-16
7.688083225e-16
7.437941533e-16
6.774376555e-16
5.607018562e-16
6.843395109e-16
6.058506832e-16
6.498682547e-16
6.274567908e-16
6.123918031e-16
7.206943613e-16
6.656474566e-16
6.74697249e-16
6.014074225e-16
6.706035841e-16
6.698948496e-16
6.99175183e-16
6.793951632e-16
7.476029517e-16
6.606151738e-16
6.256988224e-16
6.595871018e-16
6.982390998e-16
7.293685959e-16
7.415393243e-16
7.660834213e-16
6.831054924e-16
7.238146115e-16
6.813454395e-16
7.624075869e-16
7.580362086e-16
7.250874371e-16
7.174460641e-16
7.203946862e-16
5.911144141e-16
5.660041003e-16
5.843164598e-16
6.249500348e-16
6.066173039e-16
6.039470542e-16
5.836892006e-16
6.724275719e-16
6.536666221e-16
6.05128505e-16
6.05128505e-16
7.869214901e-16
6.785507591e-16
6.816864686e-16
6.121871345e-16
6.833843736e-16
6.420310124e-16
6.002564284e-16
7.678772094e-16
7.243293171e-16
7.020998296e-16
7.347472938e-16
7.238556099e-16
6.358478536e-16
6.779074877e-16
7.222292872e-16
6.768307108e-16
8.01768591e-16
6.863484344e-16
6.998934206e-16
5.980362529e-16
6.296592697e-16
5.786408022e-16
6.428047662e-16
6.072367474e-16
6.428047662e-16
6.194559667e-16
5.682764102e-16
6.426674254e-16
5.971807361e-16
5.909138718e-16
6.138336413e-16
6.318735515e-16
6.46726726e-16
6.986455146e-16
6.590357121e-16
6.165873186e-16
7.090323594e-16
6.331702338e-16
6.347984407e-16
6.994098214e-16
6.941665425e-16
6.77720599e-16
8.408787741e-16
6.414878584e-16
6.739402572e-16
7.141048406e-16
6.687410939e-16
7.68456742e-16
6.911601466e-16
6.08493104e-16
5.555058329e-16
6.789970205e-16
5.959267524e-16
5.8803823e-16
5.850343021e-16
6.223224223e-16
6.112674861e-16
6.877716448e-16
6.155992571e-16
6.496169501e-16
6.098756547e-16
6.507997679e-16
6.693189402e-16
7.041207823e-16
6.099550385e-16
5.889832017e-16
6.536546908e-16
5.827336374e-16
6.281132956e-16
7.050315129e-16
6.396875273e-16
6.279673145e-16
7.693357899e-16
7.677398708e-16
6.44221797e-16
7.51182855e-16
7.312881513e-16
6.993911551e-16
6.872122576e-16
5.831212426e-16
6.001106323e-16
6.493655572e-16
5.681032295e-16
6.273991929e-16
6.179788312e-16
5.690268297e-16
6.072608241e-16
6.297318777e-16
5.963011288e-16
5.921655168e-16
6.929256475e-16
6.129761551e-16
5.741825815e-16
7.112868049e-16
7.5707336e-16
7.833293806e-16
6.150142975e-16
6.409800219e-16
6.364354434e-16
6.885624411e-16
6.489525933e-16
5.735071612e-16
6.84012502e-16
6.958159042e-16
6.988203582e-16
7.37940049e-16
6.986363231e-16
6.354094239e-16
6.777646305e-16
5.793697675e-16
5.897193132e-16
5.969944824e-16
5.665621154e-16
5.866261644e-16
5.790817534e-16
6.194284003e-16
5.944285985e-16
6.121536536e-16
7.113584169e-16
6.319131381e-16
5.663325087e-16
5.75733513e-16
5.788330503e-16
6.927062677e-16
6.344867317e-16
6.060338821e-16
6.404683052e-16
6.321387559e-16
6.196862106e-16
6.25334127e-16
5.725869146e-16
6.793438937e-16
6.616909231e-16
6.527309001e-16
7.406725863e-16
5.960785103e-16
6.516288547e-16
7.090380308e-16
6.714245004e-16
6.403571987e-16
5.770804739e-16
6.498311581e-16
6.004579542e-16
5.53437568e-16
6.022526464e-16
6.000162929e-16
5.888473854e-16
6.062138234e-16
6.630244225e-16
6.302868343e-16
5.63483015e-16
5.734408304e-16
6.059282522e-16
6.623631373e-16
6.15582465e-16
6.053618774e-16
6.086806014e-16
6.581501218e-16
5.921869425e-16
6.626586572e-16
5.866309788e-16
6.240579012e-16
6.179444373e-16
6.26439376e-16
6.4158997e-16
6.92617475e-16
6.903131629e-16
5.929611722e-16
6.272093998e-16
6.293374543e-16
6.20868369e-16
6.202950504e-16
5.983547295e-16
5.870709691e-16
6.031568556e-16
5.892996456e-16
6.741753811e-16
7.757528255e-16
5.774647171e-16
7.00226841e-16
6.09740794e-16
6.164951025e-16
5.942678358e-16
6.186659077e-16
6.888384048e-16
5.752704957e-16
5.847108985e-16
6.271054461e-16
6.271054461e-16
5.97422378e-16
6.603740594e-16
5.904093757e-16
6.464422632e-16
5.95949927e-16
6.423546688e-16
6.221201364e-16
6.30638023e-16
7.099412398e-16
7.23982217e-16
)
;

boundaryField
{
    flow
    {
        type            zeroGradient;
    }
    obstacle
    {
        type            zeroGradient;
    }
    frontAndBack
    {
        type            empty;
    }
    procBoundary3to1
    {
        type            processor;
        value           nonuniform List<scalar> 
36
(
8.088787909e-16
8.041693815e-16
8.063242574e-16
8.261112665e-16
7.817107151e-16
7.947659669e-16
7.947659669e-16
7.873111959e-16
7.722740428e-16
7.916573656e-16
8.07647653e-16
7.858825307e-16
7.858825307e-16
7.754961232e-16
7.685773236e-16
8.086128946e-16
8.056178662e-16
7.76775225e-16
7.76775225e-16
7.510390455e-16
7.878611179e-16
8.096889514e-16
7.379311286e-16
8.347778551e-16
7.856591858e-16
7.856591858e-16
7.563718294e-16
7.759803304e-16
7.632512121e-16
7.912988352e-16
7.65076897e-16
8.06837673e-16
8.06837673e-16
6.427202605e-16
6.908411261e-16
6.908411261e-16
)
;
    }
    procBoundary3to2
    {
        type            processor;
        value           nonuniform List<scalar> 
19
(
6.272182105e-16
6.493726346e-16
6.346094369e-16
5.774411574e-16
5.992580099e-16
6.32679347e-16
5.828872872e-16
6.309868346e-16
6.3154921e-16
5.901481782e-16
6.271424631e-16
6.358831987e-16
5.622023338e-16
6.112834776e-16
6.546591618e-16
6.285241987e-16
6.276323297e-16
6.038326274e-16
5.711765936e-16
)
;
    }
}


// ************************************************************************* //
