/*--------------------------------*- C++ -*----------------------------------*\
  =========                 |
  \\      /  F ield         | OpenFOAM: The Open Source CFD Toolbox
   \\    /   O peration     | Website:  https://openfoam.org
    \\  /    A nd           | Version:  7
     \\/     M anipulation  |
\*---------------------------------------------------------------------------*/
FoamFile
{
    version     2.0;
    format      ascii;
    class       volScalarField;
    location    "0.004";
    object      internalT;
}
// * * * * * * * * * * * * * * * * * * * * * * * * * * * * * * * * * * * * * //

dimensions      [1 2 -2 0 0 0 0];

internalField   nonuniform List<scalar> 
654
(
707.4099999
643.8932481
654.6097989
663.7907259
668.1729336
674.1555186
684.2523657
543.0076067
550.0635596
567.5500218
595.6249886
604.1488147
619.7319772
629.7578146
640.2625202
654.174074
659.2931399
665.4050768
426.5529104
439.5189362
461.1766959
481.8586668
493.4996879
511.4697361
534.8850507
555.2622271
564.9542051
576.126445
587.2988353
606.3770369
624.2786898
627.302066
629.5868787
647.1958986
344.1715055
351.7858266
360.4499402
372.5122923
381.1382298
388.6903429
398.9922595
417.6535351
432.4583692
453.6101535
466.8697988
490.7730642
500.085524
521.4321836
538.6375781
553.346342
568.0919256
581.3934259
599.056819
612.2595245
618.8600874
618.102216
310.3678934
310.1849284
318.2292069
322.4762299
325.5129291
329.350173
334.3706775
339.7974528
349.4247881
362.1552927
368.488429
381.8156393
391.3858475
397.8373517
412.4012547
419.356855
429.9506754
444.4598957
468.9066404
482.1711279
499.2771834
521.0758012
530.9715886
553.9230668
559.2713481
574.1550295
593.5677011
607.9847638
310.4778745
310.6575374
312.6557328
317.8025224
320.0128499
319.4281034
321.8430417
321.6212937
327.5049594
330.143809
333.5057209
339.6797835
349.1907186
362.8569933
368.1934974
375.9410186
389.7453885
401.7121639
409.7555902
429.4899689
443.1671312
457.2808777
472.1891883
489.0255826
507.5572962
522.7471372
537.2706032
548.6573466
573.3172975
583.1961333
301.9328929
300.0296761
300.3494871
302.1556027
305.7910014
310.8861279
311.0032085
317.0142546
315.038058
327.7040251
329.4744049
334.1918463
336.3208547
339.640107
350.3617416
361.8201307
372.7223961
383.3270023
392.2447138
399.8335264
421.0983367
435.2997373
439.8703331
459.3590571
478.2483848
494.9939507
515.5628872
528.0907685
533.5069256
550.239806
297.458199
297.7180279
300.255235
304.4959825
299.7663866
300.3656688
305.7302903
313.4501678
320.621123
315.2346702
317.6946502
321.0624471
330.4327378
335.7715667
345.202719
347.4915517
354.3600571
355.6396939
374.5441734
382.0086297
393.8927616
415.8112146
430.5247394
437.5338058
458.2920934
474.6793884
483.532568
494.1540823
508.3520391
526.6190075
299.2549935
299.9612489
302.5207875
301.7820635
303.5140719
305.2199167
302.6585981
307.8172086
308.1487241
309.838747
314.8068261
315.4103738
316.7250816
324.4834224
325.9001789
331.5301878
334.7551315
343.6832349
354.1955022
371.3425692
381.0290488
393.4855188
403.4634537
413.6128817
429.5091817
440.6270579
464.6585842
485.4047927
498.4726763
505.8114169
304.8589633
305.2116614
301.5623214
303.2480609
306.0770604
304.6675325
307.9059874
306.5523609
308.9580626
312.5099474
311.7594658
313.4903494
319.504545
321.8514443
323.2963646
327.2342092
332.9785474
332.882583
335.3798317
348.2045429
358.916665
365.3804596
381.2355602
395.8007891
406.830995
425.7837911
441.8173546
458.4962948
474.9427065
485.4803507
307.6768005
307.7051464
306.6626518
302.1609978
307.0935088
308.2284459
308.7027994
307.8922495
307.6330578
311.8637654
310.5069625
312.6007178
310.1436783
311.7353198
315.2858886
320.3669636
328.7285906
330.6811304
333.2664576
334.6305862
347.055465
350.889071
358.1944926
366.619604
382.2592514
393.8893667
406.8034113
421.3641261
447.6675682
464.2288952
299.0307194
299.5456543
298.0876447
301.9418859
300.3278091
298.7539255
300.6014783
301.4735174
306.1534683
306.1429969
305.9804634
309.4519099
313.3663062
314.2963122
317.8530343
319.0855394
315.3724441
319.3128632
325.4585211
327.0501456
330.0110279
335.2972876
346.7699028
352.7791636
362.0305135
379.8480297
393.9010624
407.786116
415.9631805
435.518132
299.6960838
302.6211012
304.0156825
300.6620425
299.7164067
299.4503196
302.6614974
301.4736583
302.5566099
299.6338688
297.1299091
299.9469049
300.8469027
300.4503423
303.5519719
303.6469192
308.1965214
309.3410991
313.5849502
320.7783664
323.4767353
331.0633877
338.5832117
349.7605215
357.1427562
362.0898771
370.8232021
381.1592
397.2137342
416.8651106
298.2058185
294.548946
293.0865635
293.6330121
292.9406432
294.9470844
297.6498
296.4604478
293.2879333
294.3475479
298.4940775
300.5720504
296.5154609
299.6370197
301.1288706
308.3129588
312.3876387
321.0647199
319.6656827
325.3831053
326.7020935
328.6822052
330.2631461
333.884061
338.2023378
346.4201778
358.0491749
366.2438371
371.8610233
385.9566902
294.3288046
295.2824296
297.588839
295.8484089
296.9301043
296.9753387
294.1682461
292.2807507
294.6845667
296.6291187
298.6952239
301.3163519
304.6567994
302.9742005
304.7621787
310.4980664
311.5667923
310.7280731
316.6443267
316.1997559
316.8687548
324.796005
324.9034189
328.5105724
333.3189577
334.4420816
341.1816949
352.4080848
363.4504638
372.1136882
299.8075838
300.6002512
300.1795246
299.5039329
296.2293526
297.1546396
299.2192961
300.7963698
301.5162985
302.8055139
303.4790271
305.2431102
309.5759481
311.3558065
306.3567775
305.9853923
307.5813409
309.5558038
313.4918634
314.1190454
315.7285269
312.3103904
316.3226914
321.0912972
329.3689665
338.6665835
338.3459691
338.7171662
351.8769601
356.9133631
296.1118394
298.7878723
301.0091327
304.5687728
305.9253168
304.379168
302.2840272
302.7077479
302.6094224
298.7653638
301.8730398
303.6839866
300.407185
299.6792186
299.6127626
303.0343196
304.0212231
303.5860783
307.0204343
305.7116663
308.3055393
316.8124198
315.3001089
317.2474409
319.2373138
325.037864
330.7187294
338.1589143
340.9734033
353.8662498
303.3613088
303.3921967
300.592503
299.8180265
300.4393498
300.5264876
300.1424468
299.5875621
299.7680027
300.012499
300.5598323
297.2466393
300.7834038
299.0211713
304.2971746
299.5667628
301.319034
303.8540385
304.171581
305.1862716
307.9331717
308.4654028
314.4527304
319.0480506
316.0865634
319.3213693
326.447912
334.5129523
339.2287602
338.5955472
298.6928839
299.2679216
297.7724163
300.6797492
297.4804437
300.0774117
300.5222006
302.786266
305.5779119
304.923915
306.4031355
304.6766762
302.7348035
303.1570443
305.0032991
305.1413512
300.2121038
305.4198558
306.434197
306.7379371
307.2945297
310.783544
309.8597871
312.9715981
315.909267
322.7972385
322.4366019
328.3653752
330.8286431
334.0377175
303.8997782
298.7888503
300.8166282
300.5904275
305.114
301.1130181
302.2460082
299.335687
296.4934836
297.9582285
299.6330731
302.2089275
304.3365851
303.5584187
302.9200412
304.1724825
304.5723184
302.9011981
306.7992054
310.3916831
309.8487774
312.9653966
315.1498086
315.4171521
316.3211896
310.4529195
313.0565632
316.049904
320.0897638
327.5183292
304.8025672
306.3045297
304.2951503
301.4552511
300.1478078
298.3669746
295.6130554
299.1924507
299.6131886
299.7329366
297.8063605
298.2561198
293.6814443
293.3432347
296.2485592
296.3750106
294.3181272
294.3456887
300.9637297
300.7734688
302.3515244
305.2924178
305.7018473
304.6743125
307.1825092
308.9090884
308.9543467
306.5941425
311.8474595
314.9589176
300.0514804
297.9577998
295.8978315
299.5619648
297.2682641
298.3098386
298.8335902
298.6544053
296.3326586
296.1157981
296.6493411
299.0758525
301.1894333
300.0686695
298.1939036
299.8688721
302.0590943
303.35185
303.294361
302.6975526
302.3006159
298.2896732
299.932341
301.0900911
297.8829278
302.8267373
303.6482178
301.7390583
306.6384898
308.626826
296.3021436
298.624146
299.9221394
299.6859577
299.2523638
301.9483774
299.4094836
299.25534
300.8567541
303.6625779
302.3347795
305.2252837
303.4158674
304.2183504
307.5414323
306.0012648
306.3536624
302.8861336
299.759027
301.6954169
304.3976757
307.2555003
307.6520662
307.7762223
316.0358609
308.6014536
307.5840753
308.4894112
301.0600994
304.7780426
302.8024378
300.0602245
297.6112481
297.5081256
301.7829916
302.9274044
301.6647128
299.6740174
300.3689303
300.1157304
301.216691
298.1591783
299.8716009
300.0139797
300.0052806
302.0278341
303.9991592
299.9941834
303.6845876
300.1147959
300.3498792
299.6376814
301.0229821
302.6783908
302.1161235
306.2265049
307.3950613
308.2682151
312.4513938
307.2317071
)
;

boundaryField
{
    flow
    {
        type            calculated;
        value           nonuniform List<scalar> 
55
(
707.4099999
684.2523657
665.4050768
647.1958986
618.102216
607.9847638
583.1961333
550.239806
526.6190075
505.8114169
485.4803507
464.2288952
435.518132
416.8651106
385.9566902
372.1136882
356.9133631
353.8662498
338.5955472
334.0377175
327.5183292
314.9589176
308.626826
304.7780426
307.2317071
302.8024378
300.0602245
297.6112481
297.5081256
301.7829916
302.9274044
301.6647128
299.6740174
300.3689303
300.1157304
301.216691
298.1591783
299.8716009
300.0139797
300.0052806
302.0278341
303.9991592
299.9941834
303.6845876
300.1147959
300.3498792
299.6376814
301.0229821
302.6783908
302.1161235
306.2265049
307.3950613
308.2682151
312.4513938
307.2317071
)
;
    }
    obstacle
    {
        type            calculated;
        value           nonuniform 0();
    }
    frontAndBack
    {
        type            empty;
    }
    procBoundary3to1
    {
        type            processor;
        value           nonuniform List<scalar> 
36
(
706.964309
657.8613536
662.9023298
676.512359
688.4442147
694.4960276
694.4960276
561.4434709
584.8039863
605.1892262
614.2190081
631.9461642
631.9461642
451.8869463
463.8900603
487.2002419
504.7267578
522.6391503
522.6391503
351.3371945
362.0672394
378.2949817
394.6902535
402.5734694
412.5173664
412.5173664
315.2468499
317.2074192
320.8863244
323.1857104
329.2564292
338.1940184
338.1940184
306.7946511
309.6957403
309.6957403
)
;
    }
    procBoundary3to2
    {
        type            processor;
        value           nonuniform List<scalar> 
19
(
307.0627902
301.5383953
295.871911
297.8193036
302.9820703
307.2480831
299.5699714
297.7790397
300.295913
295.8716217
298.3168251
296.5587864
299.7243119
300.3058707
303.6253889
305.1930815
295.9742405
296.6549264
302.133313
)
;
    }
}


// ************************************************************************* //
