/*--------------------------------*- C++ -*----------------------------------*\
  =========                 |
  \\      /  F ield         | OpenFOAM: The Open Source CFD Toolbox
   \\    /   O peration     | Website:  https://openfoam.org
    \\  /    A nd           | Version:  7
     \\/     M anipulation  |
\*---------------------------------------------------------------------------*/
FoamFile
{
    version     2.0;
    format      ascii;
    class       volScalarField;
    location    "0.004";
    object      internalEMean;
}
// * * * * * * * * * * * * * * * * * * * * * * * * * * * * * * * * * * * * * //

dimensions      [1 -1 -2 0 0 0 0];

internalField   nonuniform List<scalar> 
654
(
0.4385531321
0.4343783729
0.4275965581
0.4076797681
0.4246780822
0.4447850529
0.4289452802
0.3945363822
0.3683534961
0.3855175368
0.3756338329
0.414410939
0.4192701417
0.3967747297
0.3752481813
0.4111960903
0.4337837898
0.4327171413
0.3924279989
0.400461923
0.4129595502
0.3890672625
0.3919210075
0.3811190041
0.3826703139
0.3956983975
0.4072124605
0.4016506153
0.3957935617
0.38876165
0.3832979643
0.3907781679
0.4133232347
0.4378310078
0.3638072295
0.3840724971
0.3650662336
0.3793124402
0.3929694075
0.3934329488
0.4035297092
0.3679349249
0.3629316844
0.3819162602
0.3878626318
0.3846877769
0.3892673627
0.3774701225
0.4011281521
0.4113788569
0.3797230039
0.381513786
0.4048403382
0.4196932229
0.4021797696
0.4382959502
0.394794098
0.3867832807
0.4004395954
0.4094250829
0.3751271622
0.3755031964
0.3496061063
0.3638399737
0.3789217259
0.3927389914
0.3948322233
0.3803563215
0.4105224719
0.3817936874
0.3752798537
0.3902233192
0.3751257145
0.3661857834
0.4019171949
0.4076910464
0.4080204153
0.3763102776
0.4109707299
0.4020730762
0.409661626
0.4365120264
0.4275912913
0.4605054135
0.3570889149
0.3488883544
0.3620433948
0.3954237098
0.3662829657
0.3858625325
0.3727055325
0.363713999
0.3818672396
0.3918559132
0.3948584924
0.3889156788
0.3991999412
0.3514658109
0.3710431372
0.3869371311
0.3743537835
0.3844702412
0.3690609999
0.3672208182
0.3849197132
0.3985916702
0.4051083115
0.3818200271
0.3841315343
0.382812856
0.4013494136
0.4414496464
0.4456327739
0.4645402988
0.334483155
0.3462709078
0.3556492778
0.3661078806
0.3638634283
0.3637193641
0.3683282436
0.376315662
0.3718993775
0.3803396336
0.3858290796
0.3814976918
0.393490468
0.3691282345
0.3420014451
0.3742876767
0.3543773106
0.3971521111
0.395068938
0.3696802635
0.4062938014
0.4382798666
0.395377168
0.3843696165
0.3961661387
0.4129817578
0.3946084326
0.4156642288
0.4391003111
0.4763318634
0.3448370448
0.3793391511
0.376463062
0.3659887679
0.3600286321
0.3713720586
0.3652757449
0.3832223891
0.3551569329
0.3786275166
0.4086227605
0.3761539938
0.3780470231
0.3691720515
0.3621700174
0.3736836317
0.3969742427
0.387567454
0.3868996413
0.3748021119
0.4058676426
0.3909089342
0.3884678379
0.3912643875
0.3735083269
0.3929064151
0.4052087377
0.4461787459
0.4192725698
0.463505383
0.3350400813
0.3821351064
0.3954629098
0.3990391614
0.3597513775
0.3482394911
0.363733703
0.373694855
0.3598812448
0.3545214202
0.3742226086
0.3719994124
0.3858233657
0.3666429304
0.3720388145
0.3689141835
0.3973446117
0.3931417216
0.4197211242
0.4130594794
0.3857173467
0.3973233429
0.4075809079
0.3982743719
0.3911204348
0.3931799315
0.4392172241
0.4234678321
0.42751383
0.4521652551
0.3401597625
0.370009707
0.3692768195
0.3845324681
0.3649444049
0.3852191042
0.38939016
0.3730917219
0.376906485
0.3746317652
0.3673852855
0.3679681332
0.3730224352
0.3743753371
0.4060072362
0.4036545468
0.3716213911
0.3648941786
0.3751355205
0.4196853379
0.3976466276
0.4142051371
0.416105229
0.3900194052
0.3846735089
0.4190553738
0.4271881137
0.4134329215
0.4650866514
0.4201532678
0.3782448427
0.3686522205
0.3654288615
0.3568033806
0.3771668179
0.3586495599
0.3767573593
0.3799036698
0.3608591389
0.3958774464
0.3623508096
0.3579578048
0.3470423881
0.3837875167
0.3580507271
0.3662965855
0.357532732
0.3855002903
0.4170421643
0.3948634933
0.3913056059
0.425694459
0.4017492489
0.3828215244
0.4003511134
0.3753880701
0.4124335139
0.4112335093
0.433868004
0.4539001124
0.3668381646
0.3644516499
0.3467681221
0.3682384702
0.3790522428
0.4119893622
0.3578949006
0.3643356496
0.4005029985
0.3846936397
0.3714814616
0.3745151584
0.3835922056
0.3636916397
0.3587117268
0.3660895571
0.3699794867
0.3554462587
0.3787299598
0.4133082938
0.4041974731
0.4160012566
0.3898503575
0.3830207319
0.3741116334
0.3896267839
0.3963599255
0.4275423753
0.4485885692
0.4259530594
0.3668247124
0.3696326372
0.3486215162
0.3911313193
0.3909878836
0.3939082987
0.3798764439
0.3804779897
0.3952193275
0.3935939959
0.3669579496
0.3543782166
0.3637775113
0.3397114467
0.3764903752
0.3964828495
0.379917005
0.3683250894
0.3800618173
0.3845562418
0.405764968
0.4031874115
0.3956761292
0.3997578726
0.3991312425
0.3958192443
0.4294427446
0.4209591244
0.467738452
0.4489570545
0.3765731039
0.3845007878
0.3672845219
0.3431914996
0.3936970919
0.377716017
0.3765201745
0.3835380025
0.3923770948
0.3755924113
0.3426199258
0.3738610709
0.3501005799
0.3592679271
0.3694599001
0.3697980762
0.356598926
0.3927323824
0.3838226845
0.3810154715
0.4174674804
0.3856194253
0.3737236599
0.3887499356
0.3954113747
0.433973221
0.4717194995
0.4295902354
0.4508758949
0.4540825954
0.3531861413
0.3946897349
0.3658523885
0.3640455902
0.3754316392
0.373003902
0.3780361772
0.3882352835
0.3631889396
0.3562190721
0.3646917055
0.3838035331
0.369978765
0.3699796034
0.4082191343
0.3881672449
0.3837150738
0.3871875106
0.3856626784
0.3916148146
0.3773020365
0.3787864602
0.3900164029
0.3812770743
0.3764097112
0.4311349448
0.4600242847
0.43914787
0.4678156629
0.4559581472
0.3688948661
0.3729446519
0.3647691171
0.3568020349
0.3494713075
0.3776830695
0.4092214863
0.3721396649
0.3669996694
0.3684125019
0.3434817476
0.3666486426
0.3795111252
0.3565137472
0.3960781447
0.3862977494
0.3754733708
0.3863889498
0.3823944372
0.3703744673
0.3974436313
0.3838326354
0.4232408308
0.4024909378
0.4016087826
0.4071631556
0.43402985
0.4259470416
0.4732399518
0.4657341232
0.3844839309
0.3473957452
0.3772838227
0.3598621248
0.3617093767
0.3770040016
0.3663310477
0.3847106649
0.3916754705
0.3500008444
0.3389590062
0.3397055405
0.3559203563
0.3879286821
0.3983406013
0.4007234279
0.3545040958
0.3861645298
0.3822416695
0.3966249005
0.3992233152
0.4024619455
0.4082264442
0.4154367268
0.3943018963
0.3958027535
0.4270204477
0.447858908
0.4875969605
0.4536111105
0.3488196824
0.3374549263
0.3728584973
0.3511879104
0.3384191009
0.3697684862
0.3571294473
0.3869709646
0.3939558694
0.3757910147
0.3534778298
0.3505537059
0.388823939
0.3825792271
0.385906067
0.3813607117
0.3713866981
0.3743668881
0.3936955247
0.4172699625
0.4028476091
0.3768975412
0.4069236724
0.4194219036
0.388746822
0.4039258924
0.4188113449
0.4488498599
0.4603991521
0.4322459245
0.3854514349
0.3743769306
0.4040853411
0.375345866
0.3450063609
0.341785403
0.3956496402
0.3853445585
0.3665942017
0.385201494
0.3617229339
0.3710909692
0.3872702782
0.3961500544
0.3727164752
0.3729545322
0.3789637344
0.3612110794
0.403038933
0.3968092899
0.4226965176
0.3857079756
0.4238408995
0.438414191
0.4580038217
0.4278861862
0.4107155646
0.3990067317
0.4260823505
0.4087779837
0.3957881278
0.3953875122
0.3982463699
0.4021419222
0.386373831
0.3595112047
0.3725458972
0.3570090938
0.3674321655
0.3564117925
0.3634392578
0.3944773719
0.3992312953
0.3823877095
0.3616623413
0.3763596553
0.3585930178
0.3727911324
0.3945327734
0.419288435
0.4098792462
0.3856695496
0.3938348475
0.4052524723
0.4122746584
0.4305480588
0.4270778211
0.4540003003
0.4352989816
0.4365289056
0.3967550019
0.404311026
0.3910547247
0.3805593233
0.3939164092
0.3719326853
0.3841262809
0.3823293005
0.3850304684
0.3775412328
0.3629334958
0.3786847738
0.3678022662
0.3694206107
0.3423125523
0.4047348337
0.3940628853
0.3719904361
0.40227506
0.4107841677
0.3985671789
0.3853258319
0.3805556363
0.3915595752
0.4151637357
0.4065006813
0.4352289373
0.4521320801
0.4315368006
0.4611124883
0.3844704804
0.3922584796
0.383021488
0.4022254263
0.3946839866
0.3900355778
0.368863567
0.3816431086
0.3934760366
0.3677473913
0.3528633192
0.3625299834
0.3865806097
0.3765075562
0.3671906112
0.3881240654
0.386011848
0.4059430319
0.4129144351
0.4322157623
0.3953879429
0.3932714969
0.3816507646
0.3990338923
0.4157693827
0.4140849548
0.4320788001
0.428842097
0.4208102758
0.4180819112
0.3688476198
0.3752246701
0.3861604398
0.3645574172
0.3831129267
0.3928284851
0.3851030149
0.3737417242
0.3781904349
0.3718722216
0.3551698939
0.3664849189
0.3702326734
0.3918759648
0.3961854446
0.3909775051
0.3732387335
0.3822141662
0.4125189284
0.406952618
0.3872704208
0.4024738104
0.3998228723
0.4115807796
0.4321041435
0.4319340473
0.4178182966
0.4368170837
0.4007725913
0.4311263519
0.3889220064
0.3451482215
0.3852168857
0.3779170484
0.3728231795
0.3636201188
0.384285972
0.3779361049
0.3675159924
0.3831382518
0.3602177754
0.3677661686
0.3850705662
0.3781285531
0.3597515096
0.3710098208
0.3905639068
0.3884940307
0.3874146715
0.3875201525
0.380403969
0.3927123117
0.4203433573
0.4257180868
0.4027380455
0.4051834163
0.4105755269
0.380464475
0.4165619588
0.4144763475
)
;

boundaryField
{
    flow
    {
        type            calculated;
        value           nonuniform List<scalar> 
55
(
0.4385531321
0.4289452802
0.4327171413
0.4378310078
0.4382959502
0.4605054135
0.4645402988
0.4763318634
0.463505383
0.4521652551
0.4201532678
0.4539001124
0.4259530594
0.4489570545
0.4540825954
0.4559581472
0.4657341232
0.4536111105
0.4322459245
0.4087779837
0.4365289056
0.4611124883
0.4180819112
0.4311263519
0.4144763475
0.3889220064
0.3451482215
0.3852168857
0.3779170484
0.3728231795
0.3636201188
0.384285972
0.3779361049
0.3675159924
0.3831382518
0.3602177754
0.3677661686
0.3850705662
0.3781285531
0.3597515096
0.3710098208
0.3905639068
0.3884940307
0.3874146715
0.3875201525
0.380403969
0.3927123117
0.4203433573
0.4257180868
0.4027380455
0.4051834163
0.4105755269
0.380464475
0.4165619588
0.4144763475
)
;
    }
    obstacle
    {
        type            calculated;
        value           nonuniform 0();
    }
    frontAndBack
    {
        type            empty;
    }
    procBoundary3to1
    {
        type            processor;
        value           nonuniform List<scalar> 
36
(
0.4358651808
0.3911571036
0.4276213901
0.4407998416
0.4136775785
0.3957869272
0.3957869272
0.3871425073
0.3761601601
0.3742092459
0.3943617485
0.4248854807
0.4248854807
0.4004416382
0.3879572697
0.4005629231
0.4052175576
0.3905955011
0.3905955011
0.3879931578
0.3790176485
0.3749274511
0.3986495415
0.3712846172
0.4011171184
0.4011171184
0.3768958299
0.3712011745
0.4005782256
0.3963863763
0.3763566247
0.3565285509
0.3565285509
0.3648638509
0.3793257765
0.3793257765
)
;
    }
    procBoundary3to2
    {
        type            processor;
        value           nonuniform List<scalar> 
19
(
0.3788130475
0.3475046909
0.3350807303
0.3505666681
0.3636003571
0.3571106297
0.3512052942
0.3833757319
0.3976181816
0.3840977641
0.3844826966
0.3834583713
0.3679710718
0.3842823545
0.4136802658
0.4117607827
0.3964919304
0.3761914474
0.3741075248
)
;
    }
}


// ************************************************************************* //
