/*--------------------------------*- C++ -*----------------------------------*\
  =========                 |
  \\      /  F ield         | OpenFOAM: The Open Source CFD Toolbox
   \\    /   O peration     | Website:  https://openfoam.org
    \\  /    A nd           | Version:  7
     \\/     M anipulation  |
\*---------------------------------------------------------------------------*/
FoamFile
{
    version     2.0;
    format      ascii;
    class       volScalarField;
    location    "0.004";
    object      linearKEMean;
}
// * * * * * * * * * * * * * * * * * * * * * * * * * * * * * * * * * * * * * //

dimensions      [1 -1 -2 0 0 0 0];

internalField   nonuniform List<scalar> 
654
(
1.284819345
1.146777617
1.13624079
1.080125625
1.156208858
1.199624513
1.194945896
1.007083273
0.9895885328
1.057629612
1.051297607
1.057989604
1.106810025
1.137130795
1.095154987
1.138761477
1.200068559
1.28147392
0.9671953272
0.9897139507
0.9738386788
0.9700232258
1.02318394
1.044683618
1.046667555
1.093513315
1.113934917
1.10143561
1.14078584
1.119079711
1.172477393
1.204476349
1.207472787
1.235242458
0.907651091
0.9061168996
0.9201541037
0.9158661578
0.9101741
0.9273829789
0.9378046092
0.9375449238
0.9550882098
0.9921360032
1.022733181
1.002617167
1.015351073
0.9989367528
1.063836558
1.087007864
1.082506872
1.086022574
1.100900812
1.121260955
1.157530466
1.236859433
0.823072467
0.8415586861
0.8775744703
0.8831410855
0.8797683613
0.8689594474
0.8984724604
0.8712440542
0.8837525214
0.9404904477
0.9088019742
0.9121012348
0.9697308205
0.9399604273
0.9484014017
0.9944562686
0.9929183453
0.9953866199
1.011250603
1.045768016
1.051932775
1.075057724
1.071554798
1.094512797
1.122150756
1.200252677
1.16703656
1.171487166
0.8308415026
0.8439801415
0.841864681
0.8348263209
0.8199191914
0.8776598252
0.8639775136
0.8650524621
0.8910448195
0.8976019707
0.930605845
0.9508708275
0.9517782374
0.8993838391
0.959178208
0.9669955345
0.9412816919
0.9568297307
0.9681533457
0.981622737
1.006146874
1.048253438
1.031214301
1.040888215
1.070525213
1.076889979
1.071654099
1.072674894
1.091045714
1.173315691
0.8012006344
0.8444308565
0.8267056014
0.8133072101
0.8299185335
0.8547569688
0.8390182709
0.8649617552
0.8477656916
0.8719864136
0.8833619285
0.8878619986
0.8982869639
0.9597834374
0.9379047691
0.9774393616
0.942784989
1.015940658
0.9929241207
0.9875796638
1.014168044
1.035574578
1.054619569
1.047773513
1.091909692
1.075767763
1.101113593
1.110175995
1.123934569
1.213995973
0.7953713462
0.8364844827
0.8213284277
0.8331096535
0.8431611183
0.8629664541
0.8523535103
0.8779313898
0.8736318041
0.8920630753
0.9075734327
0.92991411
0.9255348018
0.9873863999
0.94882015
0.9484550044
0.9467058738
0.9718139613
1.007809621
1.040996294
1.09893214
1.106347754
1.123301984
1.082108643
1.112881561
1.117102294
1.152982202
1.163483412
1.166383653
1.201572479
0.8083407991
0.861897033
0.849964631
0.850723838
0.8391349839
0.8296274215
0.87041513
0.8899318836
0.8554751028
0.8853272127
0.8807776313
0.9135856688
0.9330861895
0.935185585
0.9318032568
0.9253849906
0.9808785775
1.04589829
1.02445909
1.032082834
1.011192414
1.004230871
1.049750045
1.048291249
1.069381351
1.033928049
1.115120797
1.1132659
1.144773418
1.226800575
0.7926639351
0.8229787492
0.8198365797
0.850198911
0.8335382964
0.8325044179
0.8720888235
0.8943673232
0.886181789
0.9344038537
0.8990201716
0.9061233654
0.9433287737
0.9404106597
0.9591286971
0.9689629249
0.983936468
0.9933711981
0.9863872025
1.009209921
1.01399375
1.014238803
1.040400078
1.05281242
1.07570603
1.075048506
1.083032066
1.100689789
1.131299357
1.159219306
0.7926675725
0.7848772682
0.8133950208
0.8182926297
0.8385420351
0.8461456592
0.8625767203
0.8624210477
0.8729096463
0.9091728934
0.8828060574
0.880972856
0.8728404055
0.932264928
0.911521856
0.9505860274
0.9484505943
1.004082412
1.025070589
1.02361221
1.0108354
1.034039432
1.040363823
1.024527017
1.075568157
1.05342469
1.087203963
1.067162427
1.097584081
1.132302515
0.8306360566
0.8326753171
0.804483544
0.8180601287
0.8411055217
0.8803818028
0.8485908342
0.8686290291
0.854486446
0.8439014347
0.8878686281
0.92370594
0.9311733542
0.9250206292
0.9046749519
0.9396389178
0.9329043053
0.9585529971
1.003705422
0.9983653485
1.01408723
1.027458375
1.012101515
1.009015998
1.021939272
1.056421241
1.045726857
1.061771729
1.091671835
1.129366733
0.7927468995
0.8116507666
0.8245580902
0.8309659948
0.8494714159
0.8474013546
0.8909087235
0.8960523126
0.9274561002
0.9370909021
0.9051682714
0.9324447586
0.8979967651
0.8965307101
0.9618486777
0.9891581007
0.9729819307
0.9798198069
0.9962245511
1.018172239
1.048602756
1.062417605
1.025082347
1.057122987
1.026292493
1.043023473
1.054951806
1.098283577
1.122767063
1.152482657
0.8212123511
0.8365692465
0.8488119043
0.8293707396
0.8606764367
0.8611310316
0.8749557783
0.8736854749
0.8609522629
0.864799916
0.8217159789
0.8693032975
0.8714858508
0.9052595567
0.9254164735
0.8836140515
0.9099240456
0.9741069479
0.9694380358
0.9891483439
0.9782929709
0.9568546234
0.9754144443
1.009625208
0.99896986
1.057835508
1.100438254
1.09651492
1.133642416
1.162589331
0.8193853445
0.8599064807
0.8677092572
0.8811954956
0.8677840616
0.8392677073
0.863168518
0.8651655937
0.8605119173
0.8916494471
0.9046741904
0.9022933924
0.8800856542
0.9020284958
0.9483934046
0.9750876218
0.9820513647
0.9887140766
1.004220037
1.002341886
0.9867114606
1.010957136
0.9770116134
1.032772981
1.033747056
1.063765659
1.077659594
1.104806365
1.129079443
1.168258761
0.79704043
0.8065160795
0.8126191433
0.8112796675
0.8389813541
0.8179750536
0.8611578711
0.846790889
0.8655662388
0.8922568954
0.8687438728
0.890499308
0.91499814
0.892038123
0.9395761027
0.9606373071
0.9595956251
0.9219884892
0.9298350897
0.8996917881
0.9498874404
0.9439381132
1.005188447
1.017492786
1.051657496
1.046906868
1.091103088
1.08280226
1.122958725
1.122145625
0.8009671497
0.780890806
0.814494211
0.8224336259
0.8395914385
0.854693548
0.8537197886
0.8607912997
0.8956541581
0.8706005517
0.8650736038
0.8633900089
0.8884014857
0.9137742493
0.9037192243
0.9238595057
0.9054671205
0.9414366989
0.9381209228
0.9644310581
0.9732896292
0.973405174
1.010809747
1.029135486
1.017390576
1.017829235
1.032335505
1.060718334
1.057462801
1.049186508
0.8079663259
0.7571379283
0.8300279529
0.8063317994
0.8314261159
0.8285598034
0.8276100914
0.8450552988
0.8566407756
0.8534954159
0.8924719625
0.9036115585
0.9231364011
0.9131492857
0.8997875848
0.8977583197
0.8828747097
0.9157949902
0.9608911367
1.002545495
0.9814168277
0.9656946916
1.025889712
1.025108108
0.9879464999
1.001004855
1.004067479
1.013690146
1.043179367
1.035369323
0.7834921146
0.7660529205
0.792670242
0.80495743
0.7916839641
0.8328182441
0.8335661657
0.8686123622
0.8567430982
0.8780669013
0.8722910158
0.8661430901
0.9046962527
0.8880183339
0.9215076722
0.9373582005
0.9606272163
0.9243664446
0.9141845831
0.9324707609
0.9640247686
0.9481822262
0.9936854477
0.9920267478
1.004363668
1.002345596
0.9614863383
0.9721989625
1.039204897
1.026568361
0.7881010244
0.7824533517
0.8210747254
0.8454383633
0.8265963329
0.820081903
0.8397696516
0.8372128477
0.8498414351
0.8226912465
0.8469162938
0.8510678484
0.8842077884
0.8930395529
0.8833900929
0.8889571141
0.879139435
0.9051494826
0.9185940414
0.9627502974
0.9220417568
0.9033210839
0.9160413389
0.9519715998
0.9396041646
0.985952833
0.9838702911
1.024162649
1.022635192
1.005254425
0.820462134
0.8104583051
0.7956638943
0.7787495544
0.8326837727
0.8042993389
0.8204798602
0.8534330439
0.8322549288
0.81854193
0.7992102925
0.8469173167
0.8377687104
0.8576177089
0.8839711115
0.9385136677
0.9229573155
0.9000329106
0.909107831
0.8973952657
0.8833848328
0.8939382649
0.9001288429
0.9018123934
0.9209640288
0.895372695
0.9206424239
0.9116640172
0.9523804656
0.954464646
0.7676588184
0.7699849178
0.7547668114
0.7602285038
0.7885595295
0.7859885034
0.7731369338
0.7990997881
0.7940038607
0.8078966368
0.7768339523
0.7851742507
0.8128470322
0.8027068551
0.8164024668
0.8197266438
0.8318347083
0.8395791235
0.8409033365
0.8425517451
0.8360506223
0.8089473123
0.839366092
0.8665264476
0.8562463119
0.8721032089
0.8839192115
0.883799888
0.9128134122
0.9224080835
0.7274113026
0.7583926509
0.7571124686
0.7472126925
0.7633975622
0.76198091
0.7511508153
0.7618836452
0.7637440989
0.7571728692
0.7557970448
0.7281767862
0.7759628492
0.7973150911
0.8060234729
0.7810958504
0.7905281541
0.7945551269
0.8233255787
0.8074804479
0.8136408319
0.7749271723
0.7869689377
0.7660075876
0.8085851491
0.855894048
0.8276027181
0.8789063761
0.8836578017
0.8363128761
0.6959317991
0.689647809
0.6919053718
0.6730860597
0.696221259
0.6784565459
0.6985374946
0.6789236538
0.6869155385
0.7073173503
0.6986778779
0.6934787542
0.7196825032
0.7345683418
0.7200245093
0.6993563718
0.7208193277
0.7093834101
0.717075852
0.709755
0.7397758849
0.7367153923
0.7672898523
0.75970524
0.7913506201
0.7769958261
0.7550902398
0.7316767669
0.7673811409
0.7687630403
)
;

boundaryField
{
    flow
    {
        type            calculated;
        value           nonuniform List<scalar> 
55
(
1.284819345
1.194945896
1.28147392
1.235242458
1.236859433
1.171487166
1.173315691
1.213995973
1.201572479
1.226800575
1.159219306
1.132302515
1.129366733
1.152482657
1.162589331
1.168258761
1.122145625
1.049186508
1.035369323
1.026568361
1.005254425
0.954464646
0.9224080835
0.8363128761
0.7687630403
0.6959317991
0.689647809
0.6919053718
0.6730860597
0.696221259
0.6784565459
0.6985374946
0.6789236538
0.6869155385
0.7073173503
0.6986778779
0.6934787542
0.7196825032
0.7345683418
0.7200245093
0.6993563718
0.7208193277
0.7093834101
0.717075852
0.709755
0.7397758849
0.7367153923
0.7672898523
0.75970524
0.7913506201
0.7769958261
0.7550902398
0.7316767669
0.7673811409
0.7687630403
)
;
    }
    obstacle
    {
        type            calculated;
        value           nonuniform 0();
    }
    frontAndBack
    {
        type            empty;
    }
    procBoundary3to1
    {
        type            processor;
        value           nonuniform List<scalar> 
36
(
1.249433246
1.15386812
1.177319371
1.226639083
1.222040378
1.240172752
1.240172752
1.092192268
1.047976546
1.073487588
1.10132368
1.092814824
1.092814824
0.9517192132
0.9803802013
1.004266447
1.00238118
1.009551393
1.009551393
0.8772486124
0.9345566544
0.912324784
0.9362064807
0.962169877
0.9867833985
0.9867833985
0.8374604756
0.8274500972
0.847216413
0.8422022488
0.8764842027
0.8643122459
0.8643122459
0.7915548794
0.7911365999
0.7911365999
)
;
    }
    procBoundary3to2
    {
        type            processor;
        value           nonuniform List<scalar> 
19
(
0.8107825283
0.8008584625
0.778598049
0.7980564576
0.7761614344
0.7777916098
0.788731722
0.7828642412
0.8111228917
0.8306701206
0.8203893771
0.8339476157
0.8140394027
0.7812413359
0.7838809752
0.7978150146
0.787351272
0.7314552561
0.6807260341
)
;
    }
}


// ************************************************************************* //
