/*--------------------------------*- C++ -*----------------------------------*\
  =========                 |
  \\      /  F ield         | OpenFOAM: The Open Source CFD Toolbox
   \\    /   O peration     | Website:  https://openfoam.org
    \\  /    A nd           | Version:  7
     \\/     M anipulation  |
\*---------------------------------------------------------------------------*/
FoamFile
{
    version     2.0;
    format      ascii;
    class       volVectorField;
    location    "0.004";
    object      momentumMean;
}
// * * * * * * * * * * * * * * * * * * * * * * * * * * * * * * * * * * * * * //

dimensions      [1 -2 -1 0 0 0 0];

internalField   nonuniform List<vector> 
654
(
(0.000640841669 8.624484585e-05 -1.097968512e-05)
(0.000564356254 4.471445831e-05 -2.45845297e-05)
(0.0005776527051 8.533043264e-05 -2.627936766e-05)
(0.0005339620645 9.499633358e-05 -1.610450906e-05)
(0.0005790297605 0.0001030707064 -1.202163153e-05)
(0.0005713273161 0.0001093747717 1.888509409e-05)
(0.0006148814014 7.521751724e-05 -5.728196099e-05)
(0.0004629926971 7.553778787e-05 1.912549164e-05)
(0.0004816652805 9.423142571e-05 -5.059995883e-06)
(0.0004949899312 0.0001280749227 -3.18741985e-05)
(0.0005493841102 9.676608785e-05 1.884936275e-05)
(0.0005903676046 7.119911239e-05 1.170498536e-05)
(0.0005492535038 4.85532956e-05 -6.97749668e-05)
(0.0005790042095 9.376348899e-05 -6.719077255e-05)
(0.000528705033 8.359446613e-05 2.791692593e-07)
(0.0005873849634 7.764439887e-05 -5.088287064e-05)
(0.0006299191534 0.0001009122281 1.53716671e-05)
(0.0007239414835 8.633479693e-05 1.815431741e-05)
(0.0004259107334 4.61975735e-05 -7.649757592e-05)
(0.0004937697717 7.52949084e-05 -7.42262135e-05)
(0.0004772200791 7.138833953e-05 -6.388258386e-05)
(0.0004704687708 6.440986832e-05 1.101645899e-05)
(0.0004716954463 4.556184215e-05 2.108647335e-05)
(0.0005011220928 7.021163698e-05 7.975969695e-06)
(0.0005084876697 6.735139215e-05 -3.191537133e-05)
(0.0005120346886 0.0001017495716 -3.550776719e-05)
(0.0005768561552 6.538322724e-05 5.823482256e-05)
(0.0005801640819 8.612581384e-05 1.966723417e-05)
(0.0006058612797 3.636549753e-05 -5.075595973e-05)
(0.0005396544965 9.347261908e-05 -6.250314393e-05)
(0.0005763426966 0.0001077760087 -7.302451495e-05)
(0.0005582510281 5.804683169e-05 -3.675704233e-05)
(0.0006069243615 4.781119833e-05 9.425356987e-06)
(0.0005956674639 6.922423252e-05 6.08252038e-05)
(0.0003557540301 -1.969944953e-05 -9.574411802e-06)
(0.0003810818134 -1.431967253e-06 -5.083479418e-05)
(0.0004037281209 5.021019658e-05 5.258698384e-06)
(0.00040434534 -5.249685874e-05 -1.860857615e-05)
(0.0003705770009 4.095777947e-05 -1.367385596e-05)
(0.0004072780251 6.798492959e-06 -1.443448126e-05)
(0.0003989470666 1.060665576e-05 -6.126389786e-05)
(0.000432048242 3.339620476e-05 -0.0001117448381)
(0.0004761685132 4.787355489e-05 -2.215248118e-05)
(0.0004917911203 8.44924263e-05 2.631495754e-05)
(0.0005266263753 4.636613873e-05 9.183155672e-05)
(0.0004893182834 4.351589265e-05 3.873040029e-05)
(0.0004859994431 9.208652572e-05 -1.357413959e-05)
(0.0005037884054 7.058840108e-05 2.401171877e-05)
(0.000492363315 6.889440913e-05 -1.044557501e-06)
(0.0004981618291 6.017354549e-05 -1.555715569e-05)
(0.0005105307686 5.240553039e-05 -2.570007858e-05)
(0.0004663124569 6.35252546e-05 -9.056630023e-05)
(0.00049484987 8.689326286e-05 -1.848958997e-05)
(0.000538038613 5.786830673e-05 -2.883002878e-05)
(0.000531803518 3.922576188e-05 2.422399803e-05)
(0.0006354647157 2.551379597e-05 3.36772581e-05)
(0.0003687383876 -2.228045951e-05 -2.005419958e-06)
(0.0003533109042 3.103570965e-06 4.874734972e-05)
(0.0003677763261 -2.173376653e-06 1.896834661e-05)
(0.000375374112 -4.508016547e-05 1.084270249e-05)
(0.0003917229333 -3.819304619e-05 -5.198731695e-05)
(0.000392584112 2.29167671e-06 -4.520188139e-05)
(0.0004105344792 8.239127827e-06 4.272863363e-05)
(0.0003760694402 -2.162121053e-05 5.17906459e-05)
(0.0003951554137 2.792291847e-05 0.0001089813826)
(0.0004092442206 -2.223006135e-05 -1.596645085e-05)
(0.0004188190308 2.848144764e-05 -6.587733975e-05)
(0.0003899436813 -8.175501107e-06 1.669817102e-06)
(0.000402083183 4.805852065e-05 -1.840434512e-05)
(0.0004187345236 -1.176670683e-05 -1.877960089e-06)
(0.0004158652561 1.019157358e-05 2.198368231e-05)
(0.0004460054785 5.787010018e-05 -4.136469032e-05)
(0.0004854331758 1.653507469e-05 7.55726966e-05)
(0.0005283250391 6.984410206e-05 -8.848800076e-06)
(0.0005151528199 5.794150854e-05 8.690376261e-06)
(0.0005089170553 7.987718262e-05 5.721804785e-05)
(0.0005289201046 7.31898417e-05 -3.405998358e-06)
(0.0005078760518 5.864547169e-05 -2.597695492e-05)
(0.0005063625251 5.499807887e-05 -3.239790899e-05)
(0.000519760175 0.0001015081719 -6.234162032e-05)
(0.0005571066611 2.066941067e-05 -3.807920118e-05)
(0.0006275009938 4.538843762e-05 -3.367242039e-06)
(0.0005825129624 3.804044901e-05 -1.925714671e-05)
(0.0005733928728 5.563319586e-05 -3.882557367e-06)
(0.0003756414688 -9.017614979e-05 -3.814422991e-05)
(0.0003889592606 -4.681410727e-05 -5.963455023e-05)
(0.0003381339654 -2.718860773e-05 -2.258687661e-05)
(0.0003637988007 1.886921344e-05 3.406016354e-05)
(0.0004118976029 -2.856510275e-05 7.220063477e-06)
(0.000399093699 -2.799457707e-05 3.565869132e-05)
(0.000371484732 -3.173912491e-05 1.252029437e-06)
(0.000337891685 -6.312103454e-06 3.667310223e-05)
(0.0003474269493 4.571686188e-06 1.462421901e-05)
(0.0004065911459 -6.091187826e-05 2.80144309e-05)
(0.0004166892887 2.163485437e-05 4.14764759e-05)
(0.0004373025877 2.526814743e-06 -2.452404619e-05)
(0.0004293168887 2.969938907e-05 4.16527437e-05)
(0.0004611966383 2.046529668e-05 5.950972761e-05)
(0.0004482474463 3.929413742e-05 0.0001060280765)
(0.0004248303509 -1.391723246e-05 6.240692505e-05)
(0.000434613972 3.192648427e-05 2.589717254e-05)
(0.0004138431092 1.448969285e-06 3.297634688e-05)
(0.0004531343271 1.308806487e-05 3.996008574e-06)
(0.000466397022 5.929641633e-05 -5.120976248e-06)
(0.0004703768772 7.418677563e-05 -2.890312537e-05)
(0.0004778737381 4.269673202e-05 -1.971718678e-05)
(0.0004525268867 6.585021699e-05 1.116977588e-06)
(0.0004506078222 6.239056217e-05 1.703119087e-05)
(0.0004627483577 5.294916309e-05 5.877610952e-06)
(0.0004952205684 6.446273022e-05 -2.885940419e-05)
(0.0004890976117 1.856305802e-05 -4.621305944e-05)
(0.0004771061651 2.179991803e-05 7.826865607e-06)
(0.0005666516294 3.569858179e-05 -1.955698231e-05)
(0.0005796787558 3.044353953e-05 3.585279609e-05)
(0.0002978075692 -8.091415433e-05 -4.164798369e-05)
(0.0003008053126 -5.314937469e-05 -4.716558132e-06)
(0.000320347501 -3.470340786e-05 -4.195709063e-05)
(0.0003581582917 -3.598250986e-05 -2.727534494e-05)
(0.0003789476391 -1.842895293e-05 -6.814166423e-06)
(0.0003516698619 4.310371257e-06 -2.55130208e-05)
(0.0003459832811 -3.705140431e-05 -5.667620389e-05)
(0.0003939045542 -7.655204742e-06 2.160330407e-05)
(0.000401605116 -3.343748637e-05 1.346997211e-05)
(0.0004121392919 -1.609766256e-05 3.001450509e-05)
(0.0003829180873 -2.237278074e-05 1.318765581e-05)
(0.0003818747767 4.68252048e-06 6.46611948e-06)
(0.0003525676908 2.650715382e-05 -4.766073234e-06)
(0.0003808881965 -3.990501302e-05 1.416583091e-05)
(0.0004296985619 6.531168273e-05 4.90720894e-05)
(0.0004172075781 4.782934416e-06 2.910655163e-05)
(0.0004064893823 1.073914208e-05 -4.348650863e-05)
(0.0004820793149 3.290357008e-05 2.470800842e-05)
(0.0004157664102 -1.974933417e-05 5.444324671e-05)
(0.0004354645489 2.838402208e-05 2.275552537e-05)
(0.0004632359806 8.48548869e-05 7.793591201e-05)
(0.0004529655516 4.624722158e-05 5.780678338e-05)
(0.0004890412467 7.75721148e-05 6.065889592e-05)
(0.0004931651218 4.418598786e-05 -1.648821395e-05)
(0.0005159708818 6.386133049e-05 6.45550106e-05)
(0.000496072161 5.73069853e-05 2.315042797e-05)
(0.0005427388611 8.046600052e-06 -2.480298467e-05)
(0.0005443438563 2.242300936e-06 2.108784727e-05)
(0.0005553872552 6.411219086e-06 -1.193979046e-06)
(0.0006393155726 4.447074258e-05 5.146926236e-05)
(0.0003137093825 -3.146610095e-05 -2.500246105e-05)
(0.0003248463613 -5.534120609e-05 -7.823698092e-06)
(0.0003051790656 -4.311604777e-05 -5.514360765e-05)
(0.0003399548205 -7.311960851e-05 -1.802573338e-05)
(0.000345416837 -4.537320676e-05 -9.650656194e-06)
(0.000385949799 7.609325655e-06 2.045055874e-05)
(0.0004251026715 -7.869677337e-05 -1.074590079e-05)
(0.00039485693 1.224912844e-05 1.757368758e-05)
(0.0003924811755 -1.686230881e-05 -5.066073919e-06)
(0.0003690036648 -1.589915367e-05 4.960917484e-06)
(0.0003752949513 1.364813405e-05 -8.116859746e-06)
(0.0003664056906 1.300032623e-06 9.585558475e-06)
(0.0004225058122 -1.114337698e-05 -3.557076259e-05)
(0.0004227903737 -4.640859618e-06 -3.55489653e-05)
(0.0003959413211 1.802095245e-05 3.440035376e-05)
(0.0004403827638 -4.111247433e-06 8.947930412e-05)
(0.0004574584676 4.822387842e-06 1.102649213e-05)
(0.0004340357722 2.064117502e-05 -1.088745411e-05)
(0.0004455596034 3.983107208e-05 -1.3590623e-05)
(0.0004816661978 -4.169798021e-05 -1.410697153e-05)
(0.0005443360057 7.609001144e-05 4.615065689e-05)
(0.0005474821481 7.011924827e-05 2.683331053e-05)
(0.0005145787905 6.587677909e-05 3.105306486e-05)
(0.0005268565776 7.577010759e-05 3.293076828e-05)
(0.0005573107824 4.896985906e-05 2.531913014e-05)
(0.000573308901 4.675934178e-05 1.969741378e-05)
(0.0005643075673 -2.883770707e-07 -4.043307142e-06)
(0.0005523226109 1.035344765e-06 -5.861037136e-05)
(0.0005696178454 -1.297684009e-05 -3.700496121e-05)
(0.0005970567057 3.675820321e-05 1.966091895e-05)
(0.0003915453551 -4.459493186e-05 3.322099022e-05)
(0.0003861467578 -5.538414195e-05 2.781449316e-05)
(0.0004070190369 -2.257506977e-05 1.344654411e-05)
(0.0003789737341 -5.928471125e-05 1.516631866e-06)
(0.0003545876234 -3.476552727e-05 3.428051425e-05)
(0.0003711153479 -2.336410476e-05 4.050516304e-05)
(0.0003643606954 -5.18326666e-05 1.982284765e-05)
(0.0003398270147 -3.861141118e-06 3.701027517e-05)
(0.0003388593302 -2.451803256e-05 -1.734105211e-05)
(0.0003546865233 -2.480035026e-05 -1.357974216e-05)
(0.0003726806521 -7.416526095e-06 -1.260086539e-05)
(0.0003951343308 -1.990453379e-05 -2.269079474e-06)
(0.000385333187 -2.00459552e-07 2.639881803e-05)
(0.0004065925892 -4.272156019e-05 -1.627642148e-05)
(0.0004478550501 3.214854815e-05 3.714667068e-05)
(0.0004559739269 -1.135907329e-05 7.634511848e-06)
(0.0004587037264 2.462476797e-06 -2.12223044e-06)
(0.0004599382633 8.446855053e-06 1.604392485e-05)
(0.0004900536256 2.849939494e-05 -2.377393832e-07)
(0.0004328175166 -4.429126458e-05 2.679181724e-05)
(0.0004504518965 7.913270312e-05 3.627722279e-05)
(0.0004755301767 5.470279101e-05 1.448410249e-05)
(0.0004820319775 7.788783157e-05 -2.002783363e-05)
(0.0005048313097 5.772444401e-06 4.291650712e-06)
(0.0005477252685 3.606910666e-05 5.976212556e-06)
(0.0005607214913 3.471648962e-05 1.573717345e-05)
(0.0006029586682 1.934446505e-06 -3.001372844e-06)
(0.0006004821429 2.513747906e-05 7.294341536e-06)
(0.0005583033818 -6.279492361e-06 -5.572731205e-05)
(0.0005926095778 2.429027511e-05 6.992701284e-07)
(0.0003389747495 -6.079871462e-05 -3.870565185e-05)
(0.0003236655344 -5.704958724e-05 -5.099651605e-05)
(0.0003635556182 -6.210178556e-05 -1.724050904e-05)
(0.0003638210859 -2.023943036e-05 2.46848529e-05)
(0.0003356828691 -3.985737801e-05 -2.962727184e-05)
(0.000352384548 -1.739412302e-05 3.309140711e-05)
(0.0003551377151 -2.567067897e-05 -5.502545265e-07)
(0.0003545703962 -1.920817893e-05 -7.702857094e-06)
(0.0003647991238 -1.401474093e-05 -2.379476585e-05)
(0.00041604426 -3.70773945e-05 -5.401242135e-06)
(0.0004208761034 -2.603618275e-05 -3.379534989e-05)
(0.0004446409457 -2.436611839e-05 7.677361083e-07)
(0.0004699902271 -2.069875943e-05 3.62456606e-05)
(0.0004959902268 -3.088204486e-05 2.9980045e-05)
(0.0004486729115 2.008350468e-05 -9.286233946e-07)
(0.0004283867695 -7.154926647e-06 4.628263248e-05)
(0.0004425685727 1.158286886e-05 6.061266077e-06)
(0.0004398397606 2.350022233e-05 1.22873624e-05)
(0.000379073533 1.565551453e-05 -2.297278763e-05)
(0.0004182633714 -5.453839985e-05 -6.622281645e-05)
(0.000427931539 4.485604384e-05 -1.562210679e-05)
(0.000525451405 2.013808615e-05 -3.340230737e-06)
(0.0005588689109 8.886650047e-05 1.127686816e-05)
(0.0005090445161 7.991669701e-06 -1.465682604e-05)
(0.0005060564768 1.780631714e-05 4.237933222e-05)
(0.0005186836595 1.077866081e-05 7.554879404e-05)
(0.0005084330869 2.014461828e-05 3.929063768e-05)
(0.0005157770434 1.810537542e-05 -9.813235562e-05)
(0.0005188139071 -6.815575174e-06 1.713530914e-05)
(0.0005560221683 2.652627553e-05 -0.0001051887794)
(0.0003050019527 -8.706745383e-05 -2.506421765e-05)
(0.0003488455908 -6.328490255e-05 -6.054521377e-06)
(0.0003563568832 -6.622500104e-05 1.93164668e-05)
(0.0003465743246 -1.416252864e-05 -2.67622471e-06)
(0.0003101720992 -1.583727548e-05 5.176426179e-05)
(0.0002943627791 -2.935747607e-05 2.507784325e-05)
(0.0003168555952 -6.061029613e-05 -4.218277208e-05)
(0.0003734113139 6.661459053e-06 -5.564834995e-06)
(0.0004110115233 -7.410356349e-05 -5.790077258e-06)
(0.0004182503845 -6.758568433e-05 -6.207542649e-06)
(0.0004097950824 -2.239826347e-05 -9.841641036e-05)
(0.0004323229439 -6.031112732e-05 -3.873533579e-05)
(0.0004378184135 -1.388992419e-05 -1.704895641e-06)
(0.0004418306934 -1.961788013e-05 2.65423485e-05)
(0.0004386237065 1.030658075e-05 5.089894047e-05)
(0.0004735791032 9.405898286e-06 2.767376571e-05)
(0.0004467990648 1.69203576e-05 -4.333118715e-06)
(0.0004232913344 3.619302472e-05 7.14424705e-05)
(0.0004881190877 1.508784046e-05 2.936914069e-05)
(0.0004861310181 -1.896635637e-05 6.442732674e-06)
(0.000485660562 2.745382353e-07 -1.840192217e-05)
(0.0004719495723 -2.44700081e-05 -7.141178616e-06)
(0.0005028886676 8.084395145e-05 2.63883261e-05)
(0.0005091677469 4.063096529e-05 -1.843906499e-05)
(0.0004877599842 1.444242957e-05 -1.095220947e-05)
(0.0005275482948 -9.849818383e-06 4.333625152e-05)
(0.0005205339261 -2.418582445e-06 5.065229846e-05)
(0.0005168781723 3.067609608e-05 -2.398067834e-05)
(0.0004952204532 -7.528148843e-07 -1.119570267e-05)
(0.0005016884499 2.130079543e-05 1.02267868e-05)
(0.0003419714304 -0.0001005165757 -1.698925587e-05)
(0.0003232430564 -8.229483865e-05 1.645051187e-05)
(0.0003186115569 -3.745552111e-05 2.138960524e-05)
(0.0003185278529 -3.187540848e-05 1.437645907e-05)
(0.0003343839879 1.53941184e-05 -6.51715669e-06)
(0.000350175957 -4.345309281e-05 4.171640969e-05)
(0.0003877092139 -9.829301374e-05 -2.641837886e-05)
(0.0004227517738 -3.447234841e-05 1.87665429e-05)
(0.000395411578 -4.107603401e-05 -1.112138541e-06)
(0.0003611054505 -5.603054932e-05 -1.052140608e-05)
(0.0004258085591 -3.839096852e-05 -2.127868424e-05)
(0.0004471602703 -6.798251249e-05 -1.269128903e-05)
(0.0004225401265 -4.661452456e-06 1.685668075e-05)
(0.0003952930789 -4.311252032e-05 4.622746034e-05)
(0.0004437122957 -2.648543925e-06 4.327917636e-05)
(0.0004561653462 1.183955708e-05 1.259518334e-05)
(0.0004136603356 2.392067158e-05 3.628406921e-05)
(0.0004657925624 1.313872054e-06 6.436046952e-05)
(0.0004977403997 5.325176617e-06 3.409471704e-05)
(0.0005066294796 -7.704982002e-06 -4.238819427e-05)
(0.0004767577587 1.133806785e-06 -3.349655069e-05)
(0.0004385033899 -6.639980235e-06 -2.32742538e-05)
(0.0004852640286 1.410973395e-05 -2.95063218e-05)
(0.0005317255385 5.300606113e-05 -2.109664509e-05)
(0.0005409213657 1.35890008e-05 -7.900361451e-06)
(0.0005332878915 -3.370306717e-06 2.257986097e-05)
(0.0005020400099 3.143414284e-05 3.308588326e-06)
(0.0004629268469 2.433452828e-05 -2.556518995e-05)
(0.0004693888908 2.105915404e-05 9.562592129e-06)
(0.0005241916832 -5.936591075e-06 -1.916734891e-05)
(0.0003224100136 -5.509423007e-05 6.527210892e-06)
(0.0003018698614 -8.800606828e-05 3.498440198e-05)
(0.0003293942712 -8.54543882e-05 2.630599275e-05)
(0.0003084156132 -6.022164282e-06 1.21269867e-05)
(0.000334952174 -2.447744337e-06 3.459730569e-05)
(0.0003608887194 -8.528273708e-05 -3.023998514e-06)
(0.0003645584602 -8.888525074e-05 -1.039651089e-05)
(0.0003444785998 -5.042140763e-05 5.35218248e-05)
(0.0003855034945 -5.977527601e-05 4.264704895e-05)
(0.000441899309 -6.933950874e-05 -1.431557744e-05)
(0.0004055515254 -6.924537709e-05 -2.337469459e-06)
(0.0003588571283 -2.68454767e-05 5.561489146e-05)
(0.0003312651841 -6.60851112e-06 -7.082584542e-06)
(0.0003719419425 -3.641225873e-05 4.308017039e-05)
(0.0004004025683 -3.366758502e-05 -4.457707686e-05)
(0.0004341220255 3.259148683e-06 3.357261418e-05)
(0.0004416549159 7.557396009e-06 -8.397704903e-06)
(0.0004949919452 -1.064519773e-05 -2.51638463e-05)
(0.0004867999719 -1.611040273e-05 4.070198148e-05)
(0.0004806547821 -8.175934468e-06 -3.451614606e-05)
(0.0005594674835 1.93608657e-05 -2.074583934e-05)
(0.0005711950864 3.829516647e-06 -3.709669158e-05)
(0.0005317293025 -1.771796498e-06 2.316768995e-05)
(0.0005322081832 4.134643583e-05 -3.45341957e-05)
(0.0005258211557 2.939699678e-05 4.049060967e-06)
(0.0004971556273 -6.205459748e-06 2.54292571e-05)
(0.0004936132724 3.919693944e-05 6.860768384e-05)
(0.0005307458553 1.540057785e-05 1.303840453e-05)
(0.0005547604856 -2.436748641e-05 4.362294333e-05)
(0.000617145798 3.701206933e-05 3.703056094e-06)
(0.0003055365106 -1.920274814e-05 6.456568054e-05)
(0.0002980468504 -6.187396139e-05 9.011666525e-05)
(0.000284818898 -8.361502479e-05 0.0001037261266)
(0.000298382401 -3.233218036e-05 5.557241919e-05)
(0.0003512522152 -4.047944016e-05 9.078935134e-05)
(0.000363061503 -0.0001114281447 4.203577819e-05)
(0.0003784956983 -4.657681285e-05 3.447550696e-05)
(0.0003649932663 -7.11149317e-05 7.673022645e-06)
(0.0003893659793 -6.031817984e-05 -1.041280507e-05)
(0.0003528584433 -8.928442041e-05 5.697765547e-07)
(0.0003880029951 -3.231218363e-05 -9.013916176e-06)
(0.0003495689734 3.377702675e-07 2.695547633e-05)
(0.0004099513444 -6.683688897e-05 -3.377822384e-05)
(0.0004109526503 -2.35951638e-05 -3.483092332e-06)
(0.0004178771934 -2.795921322e-05 2.624456667e-06)
(0.0003752727021 -3.960780762e-05 -8.326744245e-06)
(0.0004446813254 -6.537391522e-06 1.414694231e-05)
(0.0004516740925 -3.359633239e-05 1.435205962e-05)
(0.0004726476831 -3.850393761e-05 -2.104619479e-05)
(0.0004945594485 -9.008301037e-06 -1.35663564e-05)
(0.0004601158424 -1.57705024e-05 -6.130618498e-05)
(0.0004627182617 3.085339646e-05 1.970239376e-05)
(0.0004905259477 -1.982226586e-05 8.202610531e-05)
(0.0005151310953 2.263962297e-05 1.015383175e-05)
(0.0005472562035 3.822893229e-05 7.916297889e-05)
(0.0005451382551 -7.239301079e-06 6.604832581e-05)
(0.0005442407453 5.739594852e-05 3.364636586e-05)
(0.0005775478563 -9.865072547e-06 6.970705478e-05)
(0.0005834169975 -8.266837308e-07 4.886871538e-05)
(0.0005776762387 1.047598475e-05 -5.65146485e-06)
(0.0002636148835 -6.111800907e-05 6.19633961e-05)
(0.0003291713681 -7.929721481e-05 8.138285614e-05)
(0.0003064379935 -4.964239232e-05 1.738949459e-05)
(0.0003361309219 -5.55614081e-05 -3.801379079e-06)
(0.0003061124216 -7.123329641e-05 7.978977832e-06)
(0.0003082097433 -9.568644673e-05 1.772549974e-05)
(0.0003546126518 -7.459118862e-05 2.862466538e-06)
(0.0003249213103 -7.396934061e-05 -6.080365466e-05)
(0.0003298772494 -7.31698217e-05 -2.743736103e-05)
(0.000358719857 -6.924880985e-05 -5.606374174e-05)
(0.0003454311445 -6.451564346e-05 -4.790747864e-05)
(0.0004149602135 -2.362173841e-05 1.45334261e-06)
(0.0004236665949 -4.86268269e-05 3.367423752e-05)
(0.0004021772556 -4.830286135e-05 2.351593811e-05)
(0.0003834164705 -2.357451988e-05 3.130324269e-05)
(0.0004369205204 -4.387945045e-05 6.070100534e-05)
(0.000439216265 -3.843462702e-05 9.219965963e-06)
(0.0004718119939 -9.873215395e-06 3.335241096e-05)
(0.000430227136 -3.138988655e-05 3.652039454e-05)
(0.0004587343912 -3.67000178e-05 2.500373901e-05)
(0.0004782539736 -2.098683783e-05 -2.122931091e-05)
(0.0005016099079 4.391945743e-05 3.041745638e-05)
(0.0004373208568 -2.266603828e-05 1.384428398e-05)
(0.0004814474981 -1.87460584e-05 6.117539925e-05)
(0.0005360792918 -1.820760879e-05 4.738801023e-05)
(0.0005415529487 7.029002349e-05 5.397987091e-05)
(0.0005701212165 1.592176651e-05 -2.860405006e-05)
(0.0005526474428 -1.097457715e-05 2.852903153e-05)
(0.0005601809854 -7.995118861e-06 1.361591325e-05)
(0.0005669911206 1.437990028e-05 -3.889242722e-05)
(0.0002910214696 -9.699963415e-05 6.537146749e-07)
(0.0002992068731 -7.664588162e-05 6.279129508e-05)
(0.0003128984871 -7.141198088e-05 4.304527871e-05)
(0.0002861073045 -4.359387154e-05 6.945387849e-05)
(0.0003685285917 -8.163856173e-05 7.266745773e-05)
(0.0003243073658 -7.305245286e-05 9.50579492e-06)
(0.0003326644926 -0.0001068990488 5.116230019e-05)
(0.0003632549826 -3.395899352e-05 -1.410114387e-05)
(0.0003400874206 -8.735297097e-05 -2.955716603e-05)
(0.0003338312026 -7.031159373e-05 6.678136104e-05)
(0.0003761776769 -0.000104991945 -8.65819681e-06)
(0.0004059841929 -5.708177344e-05 1.059118805e-05)
(0.0004445928233 -5.953140125e-05 -6.459818268e-06)
(0.0004332802809 -2.972095047e-05 1.582920051e-05)
(0.0004621482329 -2.400118726e-05 4.611481754e-05)
(0.0003962025742 -9.346991196e-06 2.896560958e-05)
(0.0003619205356 -6.839810515e-05 -6.753023863e-05)
(0.0003705208841 -3.250175771e-05 3.553243151e-05)
(0.0003861087778 -8.018005723e-06 2.129497866e-05)
(0.0003615831403 -5.828780371e-05 2.326006692e-05)
(0.000423155191 -4.259329286e-05 2.820530542e-05)
(0.0004256301377 4.274173532e-05 5.675038802e-06)
(0.0004859340225 -2.377688304e-05 9.17958585e-05)
(0.0004742448192 -6.687717337e-07 5.671469802e-05)
(0.000442592912 -6.332520145e-05 6.288602844e-05)
(0.0005503558706 1.2478621e-05 -4.167315653e-06)
(0.0005537775027 6.996977182e-06 7.037748312e-06)
(0.0005269032686 -1.642355436e-06 1.869632355e-05)
(0.0005365683765 1.292594936e-05 -2.830980739e-05)
(0.0005412783048 1.110969069e-05 -4.491897218e-05)
(0.000262774772 -8.023003806e-05 3.808329545e-05)
(0.0002562874016 -9.433395917e-05 -2.055373496e-05)
(0.0002507628336 -4.446593338e-05 2.360229586e-05)
(0.0002769079857 -9.04967005e-05 3.396857123e-05)
(0.0002627560783 -8.816263354e-05 2.670777585e-05)
(0.0003214495835 -9.104152594e-05 4.09962667e-05)
(0.0002823907682 -9.173775108e-05 5.03206562e-05)
(0.0003260355905 -0.000100168149 2.862109942e-05)
(0.0003497816741 -7.592613496e-05 2.967558768e-05)
(0.0003636778439 -8.268056231e-05 4.047494619e-05)
(0.0003789827379 -9.294732036e-05 6.980882249e-05)
(0.0003280753404 -7.513017512e-05 -3.997355215e-05)
(0.0003555352895 -7.341017166e-05 -3.864772512e-05)
(0.0004075205426 -5.15120569e-05 -2.317684154e-06)
(0.0004063033676 -1.321104181e-05 2.869797265e-05)
(0.000427974499 -7.641745319e-06 -1.515624091e-05)
(0.0004080039561 -2.247638363e-05 1.596968332e-05)
(0.0003810519267 -3.382955933e-05 -2.268702858e-05)
(0.0004089545283 -3.954313955e-05 -2.268861599e-06)
(0.0004398551213 -6.328895695e-05 1.996441715e-05)
(0.0004625906494 -5.730088473e-05 4.503223258e-05)
(0.0005019135118 -2.231198367e-05 -1.136439983e-05)
(0.0005177186196 -1.399759715e-05 -3.723466087e-05)
(0.0005257046192 -1.570521468e-07 -2.18595249e-05)
(0.0004969657836 -3.926149768e-05 3.034220983e-05)
(0.000493573148 -3.210957244e-05 -7.468613627e-06)
(0.0004894108227 3.445680326e-05 2.741996174e-05)
(0.0005414779509 -1.97843311e-05 -2.328619021e-05)
(0.0004823826816 4.394498439e-05 -8.435610332e-05)
(0.0004844182752 5.215011219e-06 -0.0001060777533)
(0.0002678276852 -5.355886414e-05 1.308747345e-05)
(0.0002670020239 -9.827842327e-05 1.347844293e-05)
(0.0002828358071 -5.499553583e-05 4.78753971e-05)
(0.0003080859807 -0.000109160005 4.285811649e-05)
(0.0003370223947 -0.0001206344276 4.692129461e-05)
(0.0003129310975 -9.180036452e-05 2.199557858e-06)
(0.0003338363964 -9.620580729e-05 1.122837287e-05)
(0.0003243122326 -0.0001020083039 -9.63877027e-06)
(0.0003525503004 -6.72052106e-05 4.42048575e-05)
(0.0003505550096 -0.000111870332 6.77109013e-05)
(0.0003817284723 -0.0001083758483 6.254027404e-05)
(0.0004023009222 -5.240527144e-05 2.429342255e-05)
(0.0003957230499 -7.958438268e-05 5.096044462e-05)
(0.0004078670503 -6.555180243e-05 3.979514348e-05)
(0.0004111472313 -3.851281192e-05 -5.956780816e-06)
(0.0004113748026 -8.463720298e-06 -5.870375471e-05)
(0.0004011990438 -2.58180912e-05 -3.827344726e-05)
(0.0004076774266 -4.881972253e-05 1.010484238e-05)
(0.000438691224 -4.329560811e-05 -5.518394407e-05)
(0.0004579750748 -8.366848163e-05 -2.49940469e-05)
(0.0004502482605 -4.529298644e-05 1.244742207e-05)
(0.0004611713991 -3.234741786e-05 3.085940978e-05)
(0.0004924466871 -4.826987794e-05 -2.698153587e-05)
(0.000490676304 1.523449129e-05 7.216626609e-06)
(0.0004696024998 -8.723761013e-06 1.140382953e-07)
(0.0004129396357 -4.350619167e-05 -1.980647317e-07)
(0.0004653331522 5.789608631e-06 -6.468256303e-05)
(0.0004466139357 1.459962533e-05 -5.160126381e-05)
(0.0004472567371 4.76972583e-05 -6.490549009e-05)
(0.0004696981422 4.255902505e-05 -1.206770622e-05)
(0.0002806551013 -9.97256884e-05 -6.282551454e-06)
(0.0002783321469 -7.06555002e-05 -1.81121307e-05)
(0.0003153205521 -9.5707664e-05 9.08898774e-06)
(0.000311334264 -0.0001144550625 3.770471162e-05)
(0.000318625214 -9.642559874e-05 -6.723596401e-06)
(0.0003016104404 -8.08321913e-05 5.182022112e-05)
(0.0003460961855 -0.0001142851264 1.600749105e-05)
(0.0003553331253 -0.0001343774454 -8.341727179e-07)
(0.0003339886931 -8.802077623e-05 6.869257949e-06)
(0.000384172529 -0.0001146339155 8.538255218e-06)
(0.0003354339645 -0.0001037327203 5.168524582e-05)
(0.0003505497547 -4.409383169e-05 6.888077743e-05)
(0.0003739349792 -0.0001003726179 1.241104251e-05)
(0.0003587141729 -8.982887772e-05 9.440816771e-06)
(0.0003705437329 -1.520194054e-05 -1.211057131e-05)
(0.000396377253 -3.37572391e-05 1.968417085e-05)
(0.000461019722 -3.031945676e-05 -2.935974805e-05)
(0.0004449712978 -4.961848774e-05 -1.883306274e-05)
(0.0004095461118 -4.886751789e-05 8.752177536e-07)
(0.0003790078569 -5.039561094e-05 -3.827970952e-05)
(0.000365559781 -8.481465037e-05 4.276466261e-06)
(0.0003913762918 -1.653069754e-05 -4.978958234e-05)
(0.0003589227919 -5.774973711e-05 4.374940787e-05)
(0.0003818096213 2.015618155e-05 -4.971116568e-06)
(0.0003899984248 2.628436106e-05 6.030007544e-05)
(0.0003696620341 -2.885336224e-05 -4.359243003e-05)
(0.0003849252677 -3.545673553e-05 -5.009575793e-05)
(0.0004135553696 -1.697610427e-05 -4.666515402e-05)
(0.0004495982416 3.900880731e-05 -0.0001158868063)
(0.0004657720902 4.609962212e-05 -5.525380574e-05)
(0.0002748699268 -9.037637391e-05 -7.566226518e-07)
(0.0002869497663 -0.0001385333308 2.582491595e-05)
(0.0003147872899 -9.40378206e-05 2.184825097e-05)
(0.0003402708742 -0.0001096838782 2.99141695e-05)
(0.0002921827294 -0.0001035414589 -4.48900724e-05)
(0.0003457595467 -9.482081051e-05 3.581416841e-05)
(0.0003314925431 -0.000146796837 -4.075331898e-05)
(0.0003510982004 -8.780539714e-05 1.132582413e-05)
(0.0003324326079 -0.0001043417683 3.299237561e-05)
(0.0003127974629 -0.0001266410194 8.351753857e-06)
(0.0003362800354 -8.724633575e-05 2.010534251e-05)
(0.0003281956845 -8.50426236e-05 8.428658357e-07)
(0.0003540930498 -0.0001054427881 -1.839716585e-05)
(0.0003820706192 -3.848123483e-05 6.356365195e-05)
(0.0003441157384 -5.3986124e-05 -2.852454873e-05)
(0.0003350888415 -4.938372793e-05 -2.375778501e-05)
(0.0003431616877 -8.405272802e-05 -7.1465946e-05)
(0.0004147716875 -2.784145334e-05 -1.458011122e-05)
(0.0004070643526 -3.730326263e-05 -7.984896601e-06)
(0.0004061314923 -2.321739135e-05 -7.712586699e-05)
(0.0003759075435 -7.896271869e-05 -1.80496017e-05)
(0.0003180510908 -9.96236459e-06 5.506598751e-06)
(0.000350829433 -5.885049843e-05 -3.871284306e-05)
(0.0003566190501 7.460311819e-06 3.444881868e-05)
(0.0003446805247 -8.638376847e-06 -3.47933678e-06)
(0.000376612622 -3.568022939e-05 1.53202224e-05)
(0.0003659947958 -3.568742822e-05 -1.428335905e-05)
(0.0003498197008 -1.375549264e-05 -3.168063163e-05)
(0.0003895862482 2.578616629e-05 3.866235654e-06)
(0.0004111180098 3.243773775e-05 2.171387574e-05)
(0.0003146509399 -9.107540968e-05 3.139624882e-05)
(0.0003175674639 -0.0001182562111 -1.029662648e-05)
(0.0003149392739 -0.0001051112352 8.187538814e-06)
(0.0002998611422 -0.0001185129479 5.010436314e-05)
(0.000293411196 -0.0001000318241 4.636009109e-05)
(0.0002970666013 -0.000128014648 3.20683385e-05)
(0.0002957685347 -9.72563716e-05 1.254039046e-05)
(0.000259105982 -0.0001285887338 3.675222439e-05)
(0.0003344924926 -7.558623343e-05 3.035418902e-05)
(0.0003185313946 -0.0001359334681 -6.216417479e-07)
(0.0003360384779 -0.0001088794518 8.900890755e-06)
(0.0003395822159 -6.506382516e-05 -2.912803597e-05)
(0.0003146164904 -0.0001095491084 3.206604225e-05)
(0.0003272941614 -6.374091496e-05 2.842038083e-05)
(0.0003695331803 -3.515069404e-05 -6.440645006e-05)
(0.000343415946 -5.735453799e-05 -4.153826434e-05)
(0.0003468952762 -9.889763203e-05 -1.589774049e-05)
(0.0003869552528 -7.014406905e-05 1.508329563e-05)
(0.0004095073141 -4.675066955e-05 1.31968463e-05)
(0.0003657890162 4.669094559e-06 -2.43637031e-05)
(0.000334329288 -1.44467681e-05 -3.812157763e-05)
(0.0003470198388 -5.409556674e-05 1.241062031e-05)
(0.0003013993968 -4.811506413e-05 -1.058645522e-05)
(0.0003117847113 8.197302025e-06 9.426288332e-05)
(0.000313511358 -1.74985576e-06 2.009984994e-05)
(0.0003045214895 -6.69561867e-05 -2.087137431e-05)
(0.0003095555558 9.075846824e-06 5.768283055e-05)
(0.0002676855288 -1.596682193e-05 1.150792846e-05)
(0.0003176478053 -1.006620381e-05 -2.57719012e-05)
(0.0003513613373 4.964340943e-05 4.22139988e-05)
(0.0002620772939 -9.690395147e-05 -2.932372003e-05)
(0.0002644266762 -0.0001274059762 4.47746616e-05)
(0.0002347770116 -0.0001155808209 3.163485852e-05)
(0.0002210998954 -0.0001100439433 5.073061799e-05)
(0.0002112966922 -3.16314351e-05 5.603376335e-05)
(0.0001763499024 -0.0001432681557 1.507706615e-05)
(0.0002086351701 -0.0001026048161 -3.330757895e-05)
(0.0002270419374 -0.0001693013214 8.931408775e-06)
(0.0002424668319 -0.0001220744526 4.93047929e-06)
(0.0002747303463 -0.0001080496437 2.825988772e-05)
(0.000273272449 -0.000126074188 5.642137117e-05)
(0.0003262819084 -7.84354764e-05 6.368441314e-05)
(0.0002983492553 -7.717188946e-05 -3.514449888e-06)