/*--------------------------------*- C++ -*----------------------------------*\
  =========                 |
  \\      /  F ield         | OpenFOAM: The Open Source CFD Toolbox
   \\    /   O peration     | Website:  https://openfoam.org
    \\  /    A nd           | Version:  7
     \\/     M anipulation  |
\*---------------------------------------------------------------------------*/
FoamFile
{
    version     2.0;
    format      ascii;
    class       volScalarField;
    location    "0.004";
    object      overallT;
}
// * * * * * * * * * * * * * * * * * * * * * * * * * * * * * * * * * * * * * //

dimensions      [1 2 -2 0 0 0 0];

internalField   nonuniform List<scalar> 
654
(
743.9179145
722.5913254
723.8603604
725.6174493
725.1369793
720.1136809
721.2015622
673.7164479
678.6618066
685.4361747
698.2353582
697.7580865
703.8363831
705.9430009
713.0770435
719.5624704
714.1577376
714.3005386
565.2439566
578.935736
604.5663424
619.1171932
631.4966562
651.3301568
665.7353211
672.2938598
679.4439665
682.7162696
686.1533711
693.9384171
699.4716882
704.5950567
694.7771209
698.9706814
415.2030933
431.3950361
447.5152766
465.5225534
483.0231103
500.128866
522.6486701
548.6537866
569.1920625
594.3474672
609.4307629
629.0244089
638.9532169
655.6003958
660.4102106
666.9928389
676.0239057
683.6063591
685.8336521
687.6720964
690.5398573
688.8902303
334.6811542
339.00541
352.0559371
360.1644773
371.2710877
381.7202
391.3961252
407.2329011
420.0336195
442.7297522
455.3239583
471.7496747
489.3830552
506.5460984
530.6241955
550.9671935
569.8052517
587.7162845
609.4807699
622.3378316
632.0174683
647.4446093
649.4528082
665.2660926
667.7978584
672.5348112
678.8587749
681.331264
321.0123912
326.1021423
324.2345411
335.2748622
343.3440603
349.6445721
354.5880328
358.6494217
368.3050771
377.4377037
393.9731677
401.6774141
421.7896648
441.9162687
461.8489915
476.6030529
493.3899874
518.9739228
533.3283926
554.5014881
577.5016866
589.5248395
609.333403
627.413686
628.5470757
640.2725281
649.9990131
655.2925432
665.791909
672.9907859
317.0579762
312.356076
318.2775996
320.3372666
328.2531814
335.3010767
344.2996725
354.3486906
355.9056874
366.3790872
374.7088821
390.2470277
396.2163801
407.4570485
424.5030811
448.7454691
462.6434049
483.1186886
500.5959686
515.1000063
538.8156027
563.0406413
572.3343684
590.1676162
610.5664215
626.2341885
633.6483182
640.181383
648.0479078
650.9748712
308.6413068
309.8209243
317.3914738
321.4504614
321.345787
327.6507543
335.0072572
342.7436058
348.3549926
346.3619187
355.3304495
366.6277121
378.6228376
390.2843757
403.3435829
413.2364574
433.6764886
453.4775351
471.1719275
489.0288256
505.6404641
531.3699558
549.9527227
562.0392248
589.9163231
604.0946426
617.4197675
619.07197
628.3169469
635.9863339
307.0906329
306.5487771
309.1335415
311.2015558
314.4087926
320.8778313
325.6839859
331.5209095
330.460817
339.8970732
346.5484732
348.2829
357.8884568
370.7105651
384.0966495
390.6620513
409.3177079
427.7919652
439.0872207
454.0853509
474.1453008
497.8177272
518.3778923
538.5132745
554.2391451
569.1579242
597.2961486
607.6372866
615.1147535
624.643539
312.2302139
311.5336038
308.9155012
310.0757373
317.3860404
317.4220432
320.7879788
327.0657681
327.4896893
333.0510539
341.2861973
343.2949672
350.0181267
357.0007855
368.5630363
373.0108741
384.452772
397.3777998
413.1897188
429.8584228
442.009394
462.1633225
485.2755422
508.3128645
528.0464212
541.6178697
567.4606607
581.1746415
596.6706587
607.9487895
307.7620877
308.8745893
309.0124443
307.2267212
310.6386208
313.1532407
314.9406589
318.2336952
322.9149768
324.2238375
327.5097723
334.8536476
332.1853352
337.2395345
345.1906878
360.9177982
366.1088256
376.7330109
390.4809627
403.2620985
417.3654694
427.9782458
446.3858661
468.5051356
488.3144843
511.3382243
525.4414654
544.7207751
574.1463974
583.6539571
303.1203138
305.6234697
305.1995
306.1605257
306.6074126
308.9885004
311.4545336
314.4789094
320.8876848
320.1287023
319.8353563
325.49329
332.4534217
332.8578555
340.050741
349.6555249
351.7784459
360.3962587
372.321594
382.4067076
398.2906133
405.6980822
425.9468402
436.8568253
462.5365875
483.98596
496.5445783
518.2119801
533.3499828
556.8618185
303.68085
303.4498557
303.35513
302.5975413
300.8760568
302.1029576
305.7822089
306.0415257
310.5565227
312.4310056
311.2802296
312.8184085
316.4302199
321.7653693
326.6649933
331.0616797
341.3909978
344.6774083
353.0187861
367.1214114
374.8081461
389.518285
401.8455084
418.8477188
427.25776
450.6706289
468.5861414
484.66062
512.6947573
533.656382
298.8669126
298.6343345
299.2606677
299.0696644
298.3868986
299.9093206
300.4703778
299.6644861
297.9705731
303.3195282
308.5854293
313.789597
312.1961012
315.5888245
321.6235881
329.5104801
332.3870116
347.1364431
346.2480757
359.4569651
360.7979391
372.2745625
383.6243858
392.4741498
402.6209685
412.5226833
437.2852402
452.2830994
474.7161261
486.5956874
295.0919472
296.2533947
296.8839722
294.9901175
298.0534981
296.8333597
300.2341734
301.4575787
303.4326141
304.2042822
309.4509072
310.445341
313.0144948
314.8219887
314.9844387
321.7644757
330.5908365
329.8213194
336.8447774
346.2325677
350.200977
357.6932609
362.5406495
377.0885457
387.8383252
394.9976027
408.5318927
428.9448271
446.082262
468.7629216
299.8379603
301.4886392
302.7817802
302.4031171
302.8990737
303.1494405
300.1488876
300.5595427
301.8051371
304.1185667
304.7679521
310.8028276
314.7933829
319.2999326
315.8666984
321.9287495
324.0437687
329.0436524
331.9649454
336.5040164
341.0365629
343.1125106
355.1702428
361.4785381
376.0489774
384.5159391
394.9879229
406.1384795
428.1722068
445.9666171
299.832835
300.7207651
301.118011
302.4374607
303.6870943
303.8556034
305.5409351
305.9098182
306.4228135
305.8188229
308.6276781
309.1184815
310.6635731
310.460909
313.4838357
315.5141193
316.1421445
317.9877696
321.5777039
328.7510134
333.6756583
339.2214177
340.7662851
347.7421125
358.301544
370.6511697
380.3491383
394.2398052
406.4045179
428.9735838
303.3137395
301.8696161
299.858706
300.675838
303.3827296
303.8415007
304.1950922
306.1847413
307.4816468
305.7369679
306.0797322
305.5032431
306.4549012
307.278362
311.3639603
308.3226592
311.5047501
315.4015101
319.6748902
323.8198509
326.5503191
330.2697232
337.1883692
341.9432866
347.9773455
357.746725
369.8700551
378.2674208
390.4570368
398.6425863
300.7615968
300.6845039
300.7657927
299.837484
297.797308
298.5887934
302.7138492
302.8391552
308.5903321
308.2775959
306.1338651
307.1277382
306.0004035
308.0111314
309.5819497
312.545172
308.8546402
312.5241888
315.3725764
318.068446
321.6290537
324.0873311
326.5675064
333.0909571
338.2267946
351.7632928
354.5401236
362.2301087
370.9292168
382.4295856
295.7447339
294.3269994
298.2706023
300.868866
301.8172753
299.7281985
302.0804095
300.6815132
298.5717895
298.9045831
301.2461472
303.0323938
304.6106052
305.4641522
307.9189845
310.0384341
312.4491829
309.3590199
313.0445057
315.2281434
315.7982207
321.7112038
323.0856379
325.3809281
328.8452438
328.9224442
342.8222585
343.8854505
356.0384728
367.1442816
301.0403042
302.3477214
300.7844591
298.1785032
299.9284165
300.7737059
299.1474119
300.1176728
300.210156
301.029725
299.6939099
302.3743287
302.3735498
302.7886173
303.4938288
302.4635991
303.2265542
303.5512723
304.9044896
306.2288429
308.3560115
312.8940451
315.1652625
318.2407888
319.5702261
323.0484513
328.4946423
337.1679125
341.0591707
350.794568
301.2304297
299.9033809
299.5525697
300.8793495
298.612598
299.5341796
300.8538379
298.8744674
299.0717299
299.269507
297.9858917
299.4276783
302.473251
301.218339
303.8029667
302.6157339
302.1214134
303.3672799
306.3414246
306.0729994
305.7056856
305.4032701
309.7603514
313.068771
314.1679716
319.2341437
320.7841062
322.9244338
328.8208171
337.2562216
300.9049909
300.3423234
300.0413426
300.4096646
301.3543897
299.5372595
299.8279184
299.2519002
300.1828802
300.1665621
300.1424527
300.2467942
299.0739808
299.4772102
304.0668695
304.4090352
303.6089592
305.7871142
305.8289082
308.602428
307.0897343
309.970306
310.5351581
312.7910378
316.2867816
314.953432
321.2487683
324.6375091
326.9330566
330.8278133
299.2319043
300.3286779
298.8184506
298.0643894
295.3407573
298.5837969
299.1866797
299.193418
299.5248297
299.2858491
298.5810156
295.9515459
297.7316759
299.5928086
302.1088861
302.2303455
304.8297316
303.4687237
306.2348208
305.7471115
306.3857492
307.3485096
306.9681777
309.4295383
310.3175413
311.1543466
312.5651465
318.3654591
324.0227934
324.9123361
)
;

boundaryField
{
    flow
    {
        type            calculated;
        value           nonuniform List<scalar> 
55
(
743.9179145
721.2015622
714.3005386
698.9706814
688.8902303
681.331264
672.9907859
650.9748712
635.9863339
624.643539
607.9487895
583.6539571
556.8618185
533.656382
486.5956874
468.7629216
445.9666171
428.9735838
398.6425863
382.4295856
367.1442816
350.794568
337.2562216
330.8278133
324.9123361
299.2319043
300.3286779
298.8184506
298.0643894
295.3407573
298.5837969
299.1866797
299.193418
299.5248297
299.2858491
298.5810156
295.9515459
297.7316759
299.5928086
302.1088861
302.2303455
304.8297316
303.4687237
306.2348208
305.7471115
306.3857492
307.3485096
306.9681777
309.4295383
310.3175413
311.1543466
312.5651465
318.3654591
324.0227934
324.9123361
)
;
    }
    obstacle
    {
        type            calculated;
        value           nonuniform 0();
    }
    frontAndBack
    {
        type            empty;
    }
    procBoundary3to1
    {
        type            processor;
        value           nonuniform List<scalar> 
36
(
737.772934
731.7106886
735.6932722
735.3137693
734.8254682
740.1351954
740.1351954
686.7954031
701.737142
707.0656211
707.8971886
718.0798455
718.0798455
603.937413
616.5614757
637.843264
649.3514192
664.8639186
664.8639186
441.9020609
463.2054115
485.2362162
506.7652706
525.1632593
543.187022
543.187022
348.4978566
355.5121586
370.6476925
379.6428661
388.0588872
401.7585675
401.7585675
328.2499478
327.7126055
327.7126055
)
;
    }
    procBoundary3to2
    {
        type            processor;
        value           nonuniform List<scalar> 
19
(
316.4225664
311.0295343
307.0262062
303.2698275
307.5354579
304.840924
303.5685065
302.5432653
301.1735762
296.2054927
299.8709234
299.5864709
303.8765986
300.6586218
297.9374771
301.2922615
301.157518
299.7407799
298.7317967
)
;
    }
}


// ************************************************************************* //
