/*--------------------------------*- C++ -*----------------------------------*\
  =========                 |
  \\      /  F ield         | OpenFOAM: The Open Source CFD Toolbox
   \\    /   O peration     | Website:  https://openfoam.org
    \\  /    A nd           | Version:  7
     \\/     M anipulation  |
\*---------------------------------------------------------------------------*/
FoamFile
{
    version     2.0;
    format      ascii;
    class       volScalarField;
    location    "0.004";
    object      translationalT;
}
// * * * * * * * * * * * * * * * * * * * * * * * * * * * * * * * * * * * * * //

dimensions      [1 2 -2 0 0 0 0];

internalField   nonuniform List<scalar> 
654
(
641.9373497
649.4702774
642.7278785
629.3560027
631.926967
622.6197339
595.9677481
649.9326777
669.8660015
678.7915333
661.5996258
673.9847003
634.4779054
634.2642856
638.7654673
627.2422011
644.720649
626.769027
640.2607671
655.1008595
630.908263
644.4678555
649.6626014
651.6091892
671.5183795
657.4763545
676.6651327
669.9940756
671.2826507
644.0836085
659.773402
658.1298333
641.3864172
611.4134708
632.5268703
611.3643054
630.0712927
616.5376994
609.5072471
608.7473402
611.2215718
658.6584669
656.8314842
665.6785686
653.1159049
646.3216282
643.9919245
648.3731763
641.895755
623.6489563
651.3550771
635.2219834
609.513876
614.6756509
627.5806044
615.776816
556.0411948
573.5506802
585.6494973
587.3055531
604.1845045
584.9705556
641.3119014
602.7168894
611.6366788
637.8820524
630.2360373
615.9232333
621.5482116
622.9027081
652.8931595
665.0639479
651.4017034
655.456493
638.3404947
626.0812078
625.7172386
648.8044089
623.2139977
624.7224969
620.81705
614.4268684
602.2138451
577.0155531
579.5216702
593.6091415
592.1398666
571.6205153
578.9374254
592.690388
587.7690996
618.069568
614.1665684
614.2460449
628.2623093
639.6479931
658.8432161
639.6555439
628.1541753
636.9880749
646.3508222
634.5695542
644.8008701
639.8868323
654.0527937
633.8073699
628.2713222
620.4912577
606.4622091
628.2807666
603.4047988
559.4523509
560.4209271
551.866082
572.0192182
580.5722209
582.340053
574.351571
575.0216215
599.7760103
588.1315263
594.9577756
585.1036623
595.2472614
597.6078823
624.7043417
596.5344062
637.2815457
641.1646866
628.8117385
639.5172832
636.0276677
648.7424609
637.158447
624.9644469
590.5697416
622.1034809
598.2354444
621.5355389
601.1963936
623.4745894
604.8635692
589.8732066
600.3621217
542.8079571
552.5113881
542.3566819
571.6333063
570.4261864
567.7457027
566.5518476
580.4891734
593.8080828
614.9289634
579.6724011
610.512198
585.7091164
613.0888777
637.4711419
614.3208039
605.7287521
602.4277998
634.6982019
657.6012006
659.599691
665.979194
664.8577893
634.3912529
635.3072933
627.0383519
645.7110465
601.9194497
618.6157747
602.923504
562.184121
545.4052338
547.8878189
545.9631119
552.9911714
570.750734
575.6647541
564.7219822
588.3801965
607.9363823
591.9299801
594.4492593
582.1199018
592.1481433
601.2235016
592.8367171
620.4531653
647.491361
613.4758518
626.7468899
624.5947745
610.6561839
621.1776849
610.6936902
627.8889967
597.4179402
579.7375863
574.2571667
592.0096729
585.477685
543.7578176
525.9151054
542.4560666
545.1439606
541.3546425
554.8116076
551.590299
594.4533296
575.7282597
603.9957648
612.8011913
577.3276709
594.9753505
600.3512031
572.3825447
599.5857559
635.5960684
627.0932596
614.8073831
582.4103485
598.6767589
589.2513682
603.9929526
611.3362609
603.4291989
589.4580238
598.1777634
584.8400958
566.3550917
565.2322896
510.9748417
520.4613874
539.4108522
569.0565076
557.7302552
557.3992551
539.6117919
573.4555324
573.4356141
560.8206261
567.5524895
568.2792281
571.9683126
575.4856266
577.440682
609.1193988
613.660716
637.1606071
594.5323918
595.5145647
612.4863919
593.8987231
607.055279
617.0355804
604.0838595
602.2227245
596.5428795
575.0853359
554.6153214
551.3820054
537.9603147
543.1389296
538.9842754
547.1528716
530.0718656
524.2231722
559.6320082
575.6280132
540.7738731
543.3576132
571.3409198
579.8644505
594.8165986
582.1060352
571.9239693
593.6261478
602.4657096
621.4026369
611.4127124
584.6340376
600.0720811
586.4522176
617.8852535
588.0631905
597.4928874
583.8212689
556.5718863
554.0303494
559.1567371
565.1891359
519.6084213
537.2918125
541.3297504
514.8786531
554.0441994
530.3702633
550.9615555
538.989289
553.8832784
577.1357945
578.3147171
590.7801589
587.0938677
586.1358104
593.9287017
605.1976326
599.1292811
606.620041
610.7912497
607.639371
604.8123027
602.9593822
586.2807706
585.9914626
612.3631853
588.5022992
548.5745543
580.0740572
564.3355073
581.7300848
509.7511219
514.7434858
535.6879951
533.4611518
530.1500394
529.5048643
534.8010598
524.4238514
536.0239737
541.697877
554.9230108
556.611114
554.72068
551.0713398
586.1969099
576.3522804
594.1909227
587.0846105
585.5009712
592.91328
554.670322
547.6865462
553.568796
565.1296245
582.9913023
574.451433
547.4275258
548.7444406
562.2127495
561.4139674
527.8040411
513.7428947
524.611172
534.9124463
532.5861708
511.1210363
517.2757166
519.5757412
533.865336
553.3060123
576.3575643
558.4377791
555.259926
557.4768896
560.5487186
579.2588976
580.5504302
572.9445323
593.9614521
598.0348532
594.702414
577.2361044
556.8841343
579.1685025
593.4528649
570.8564101
534.5607385
556.7511946
545.3149646
567.5977481
485.7340716
495.7948459
500.9988326
504.7828469
518.0779084
499.4811647
513.8151605
522.6927924
533.5938863
555.4216358
571.1261293
559.5655332
552.4055278
569.9807052
546.8917968
557.8029448
554.3360777
551.660378
562.9767242
566.0815519
559.1461721
550.0100592
541.7636424
564.6911506
570.5768582
580.6118082
561.2273223
539.1179384
547.0718305
538.2338495
480.1688582
488.3696109
488.3569527
498.0268017
525.2385393
516.1080961
534.1111813
514.0989854
532.2168295
542.3253072
559.5257929
551.5966305
550.6575653
547.2914532
552.098699
529.8980921
546.8730913
547.30038
552.8893203
549.0495146
549.6625583
545.8126055
537.3187369
544.1968884
562.2663614
540.0799682
538.3380248
522.9127299
506.5690289
524.5472351
487.760524
475.8674085
501.5008028
508.3861331
526.8020852
507.9959432
521.6384601
493.9449105
504.4870146
511.355995
533.9312681
537.8837011
544.604591
553.027686
525.2233801
547.9435179
522.1491034
546.1031318
545.1779094
541.849607
546.935416
564.1354311
556.3526728
555.2433737
553.24983
528.6104064
530.2864486
511.1741004
500.4675266
509.0322182
470.1342107
454.51272
467.2534714
489.7935314
494.7550175
503.5320011
499.1265778
498.7429264
513.7212018
516.5285232
521.3291466
536.7147286
523.98578
507.1799171
542.8770456
542.5068766
541.8680315
549.6116101
533.2497609
517.4449415
520.6006068
540.6691587
536.8053472
525.7346981
505.2780769
509.949663
521.2284822
519.1656906
530.4032104
515.2026063
452.8953533
457.2763948
475.1848109
479.8350463
477.7726363
495.3596353
491.6265466
496.1709102
508.9349774
505.0436499
491.7411863
498.8380581
503.8193974
507.9005143
517.3005796
506.762151
503.1739393
527.0530901
510.4472053
518.666506
503.8676304
507.287153
503.7555459
509.1752753
512.1659136
519.8189875
517.3074457
506.9289746
514.1745284
485.8930195
443.4467394
451.4592273
462.6420546
448.8527946
469.2242918
476.5716701
470.4165398
493.8557387
487.5858892
492.968926
485.6012855
491.4675054
495.8749368
508.7933025
519.7377259
500.4243458
499.3371724
510.5585464
481.6366919
480.2540518
480.1541736
513.5659019
513.6610798
492.8107466
500.6231014
482.4938155
477.8050595
471.3538208
482.3856621
463.3881829
425.7246738
417.4095576
436.2271569
436.2695528
442.4834153
447.9501939
461.974539
457.982266
456.7113351
473.9369057
443.6848524
453.5778763
473.3926294
469.001179
463.9137066
453.2971139
456.0210237
450.1041663
455.1594332
435.2307606
459.1270128
470.7799836
479.0921758
465.6832075
460.0731074
464.3858332
472.8342729
468.3797857
465.6588252
473.5636467
417.217729
410.9590952
420.4860615
446.5365546
438.7195436
425.8980434
425.2282829
429.347901
437.1556212
420.2132252
426.4575243
413.8310923
446.1202816
433.8947655
440.7816887
442.6133225
448.9489674
433.8119585
442.2090604
432.1492786
433.1586479
425.7535913
426.5497553
430.8709973
425.1097668
435.8261703
444.730042
446.2406905
451.7265236
415.3633536
379.8852697
384.41664
382.1820886
386.4215187
390.9190448
385.2758211
380.1650506
390.4601061
395.5350506
388.3555585
395.2933709
392.3402815
393.6646223
404.4487832
403.4625859
394.552082
396.539265
387.8466725
395.8743062
392.4117574
410.0586698
398.2731196
396.510261
389.0990541
410.5133979
397.4430359
383.4475652
387.9187053
379.9268246
396.2867265
)
;

boundaryField
{
    flow
    {
        type            calculated;
        value           nonuniform List<scalar> 
55
(
641.9373497
595.9677481
626.769027
611.4134708
615.776816
577.0155531
551.866082
600.3621217
602.923504
585.477685
565.2322896
551.3820054
565.1891359
581.7300848
561.4139674
567.5977481
538.2338495
524.5472351
509.0322182
515.2026063
485.8930195
463.3881829
473.5636467
415.3633536
396.2867265
379.8852697
384.41664
382.1820886
386.4215187
390.9190448
385.2758211
380.1650506
390.4601061
395.5350506
388.3555585
395.2933709
392.3402815
393.6646223
404.4487832
403.4625859
394.552082
396.539265
387.8466725
395.8743062
392.4117574
410.0586698
398.2731196
396.510261
389.0990541
410.5133979
397.4430359
383.4475652
387.9187053
379.9268246
396.2867265
)
;
    }
    obstacle
    {
        type            calculated;
        value           nonuniform 0();
    }
    frontAndBack
    {
        type            empty;
    }
    procBoundary3to1
    {
        type            processor;
        value           nonuniform List<scalar> 
36
(
637.5388337
695.8977707
669.331117
659.9279264
665.6913487
665.1838329
665.1838329
701.4316563
692.7348894
700.2176731
672.8481521
668.6164523
668.6164523
661.6404941
665.8504278
659.1361313
657.1804686
664.7370973
664.7370973
614.2998115
630.1551703
629.4576817
631.051751
669.2737659
642.5298243
642.5298243
583.7171443
600.4298687
589.34902
604.0723707
604.0808308
611.2151878
611.2151878
554.7771351
559.1491124
559.1491124
)
;
    }
    procBoundary3to2
    {
        type            processor;
        value           nonuniform List<scalar> 
19
(
550.8652305
549.9453676
537.7657241
548.9734807
519.7423565
524.6255872
534.1184493
483.9178008
490.6149594
502.0143725
501.7995324
485.5840742
476.2265091
450.2582503
448.2504879
438.5893005
435.547287
399.1454343
383.7118053
)
;
    }
}


// ************************************************************************* //
