/*--------------------------------*- C++ -*----------------------------------*\
  =========                 |
  \\      /  F ield         | OpenFOAM: The Open Source CFD Toolbox
   \\    /   O peration     | Website:  https://openfoam.org
    \\  /    A nd           | Version:  7
     \\/     M anipulation  |
\*---------------------------------------------------------------------------*/
FoamFile
{
    version     2.0;
    format      ascii;
    class       volScalarField;
    location    "0.004";
    object      translationalT;
}
// * * * * * * * * * * * * * * * * * * * * * * * * * * * * * * * * * * * * * //

dimensions      [1 2 -2 0 0 0 0];

internalField   nonuniform List<scalar> 
654
(
768.2565242
775.0567103
770.0274013
766.8352649
763.1130097
750.7524559
745.8343598
760.8556754
764.3939712
764.0269432
766.6422713
760.1642678
759.905987
756.7331251
761.620059
763.1547347
750.734136
746.8975131
657.7046541
671.8802691
700.15944
710.6228775
723.4946351
744.5704373
752.9688347
750.3149483
755.7704741
753.7761526
752.056395
752.3126706
749.6003538
756.1237173
738.2372823
733.4872032
462.5574851
484.4678425
505.5588342
527.5293941
550.9463639
574.4212148
605.0862772
635.9872876
660.3478581
688.172343
704.4714056
721.191972
731.5316788
745.0458705
741.5919656
742.7571702
747.9785591
751.7483145
743.6848741
737.9471443
738.3263705
736.0822398
350.8899947
358.2190644
374.6070905
385.2899756
401.7765267
416.6335513
429.4130903
452.1898667
467.1061737
496.4460585
513.2143111
531.7056983
554.7145269
579.0185962
609.4394893
638.7074192
663.041636
683.2205437
703.1968562
715.7823006
720.5109916
731.6904814
728.4402879
739.4947765
740.1488653
738.1213322
735.7194907
730.2289308
328.0354023
336.3985455
331.9537466
346.9230887
358.8982005
369.7888845
376.4180269
383.3348404
395.5051555
408.9669669
434.2847989
443.0091679
470.1889622
494.6224522
524.2859875
543.7110757
562.4863868
597.1484288
615.7102608
637.8425009
667.0580568
677.6874808
700.7628795
719.6724216
709.2069287
718.6227887
725.1512864
726.3826743
727.4416499
732.8538877
327.1413651
320.5736759
330.2296746
332.4583759
343.2279681
351.5777093
366.4973152
379.2383146
383.1507737
392.1624619
404.8652003
427.6171486
436.1467303
452.6683428
473.9306407
506.6956946
522.5907441
549.6464795
572.8301385
591.9443262
617.2937801
648.201244
660.6437253
677.3733223
698.7784459
713.7276803
712.3719388
714.9084593
724.4085626
718.1315813
316.096712
317.889522
328.8156329
332.7534473
335.7320539
345.8408112
354.5252352
362.2725644
366.844239
367.1134176
380.4209824
397.0045555
410.7495707
426.6262484
442.1041588
457.0663945
486.5541096
518.7027625
535.5904302
560.3756228
580.1389325
608.4091166
629.5713782
645.0428374
677.6658096
690.3714788
706.6779004
702.3505618
708.2935521
708.8978849
312.3143925
310.9404626
313.5420442
317.4812174
321.6719397
331.316441
341.0342444
347.3233769
345.3355456
359.9359574
367.7095713
370.1979175
385.3307069
401.5286602
422.8942965
430.0832936
459.0260921
483.8644521
495.6816998
509.2472054
536.2228021
567.3725328
594.987518
621.780203
637.3924541
654.8451684
685.7211915
689.1256158
692.8761382
703.8649537
317.1443809
315.748232
313.8176211
314.6275216
324.9253604
325.9250502
329.375973
340.7413728
339.8441071
346.7451249
360.9706849
363.1647123
370.3605144
380.4336796
398.7408174
403.5286506
418.7689217
440.374611
465.0629769
484.2943428
497.4045467
526.6852311
554.6355302
583.3209148
608.8567054
618.8405887
651.2228647
662.960206
677.8226268
689.5944154
307.8189457
309.6542179
310.5789726
310.6038701
313.0020289
316.4364372
319.0992319
325.1279924
333.1029227
332.4638856
338.8449789
349.6889341
346.8797731
354.2423443
365.1272207
387.951688
391.0289822
407.4342645
428.6239661
449.01644
464.2388057
479.3710291
505.1801151
536.4288234
559.017973
589.6374627
604.5335016
626.9585411
658.4656169
663.270665
305.84671
309.6753466
309.940737
308.9729522
310.7938149
315.8115503
318.6899039
323.1491707
330.7104959
329.4525059
329.0719516
336.1875434
345.1781653
345.2322177
354.8492122
370.0355152
376.0491138
387.785189
403.5636427
419.3110824
443.8103368
452.6319452
478.7314652
492.9085997
529.5406369
553.4112468
564.973589
591.8292228
611.6078511
637.7576095
306.3373608
304.0023586
302.9147617
303.8878738
301.6491569
303.871383
307.8626833
309.0867706
315.889798
320.9624302
320.7137767
321.3994109
326.8190979
335.9753873
342.0736742
349.3381868
363.5206487
368.2349477
379.30801
398.0167748
409.0290866
428.4882165
444.0203729
464.9058504
474.0010959
509.7244634
533.7614343
553.6615668
589.682106
611.5172296
299.3076419
301.3579269
303.3767371
302.6940993
302.0177356
303.2174781
302.350763
301.8005116
301.0923329
309.3008483
315.3129972
322.6012948
322.6498615
326.223361
335.2867331
343.6421609
345.7199269
364.517592
363.9696709
382.1728717
383.5285028
401.336134
419.1985456
431.534209
445.5667223
456.5910203
490.1092837
509.6426075
543.2861947
553.6883522
295.6007089
296.9007047
296.414061
294.4179232
298.8024274
296.738707
304.278125
307.575464
309.2646456
309.2543913
316.6213628
316.5313337
318.5862917
322.7205142
321.7992786
329.2754153
343.2735327
342.5501503
350.3117445
366.2544423
372.4224584
379.6247649
387.6321367
409.4738612
424.1845703
435.36795
453.4320245
479.969322
501.1701275
533.1957438
299.8582112
302.0808979
304.5166173
304.3359066
307.3455545
307.1459743
300.7686152
300.401658
301.9976962
304.9939353
305.6272355
314.5093058
318.2716728
324.5960166
322.2066456
332.5576543
335.0187205
342.0355515
344.2803334
351.4273304
357.9085869
363.6472574
381.0686105
388.4033654
407.1689847
415.0821762
432.7492254
451.0860217
479.0357045
505.3354532
302.3134988
302.0093603
301.1905966
301.0165859
302.194946
303.5065604
307.712207
308.0445318
308.9650742
310.521129
313.1307703
312.741478
317.5011652
317.6487026
322.7312177
323.8339858
324.2227587
327.5888972
331.2825503
344.110578
350.589071
354.1607497
357.7437359
368.0718935
384.3443642
401.0600402
413.4360776
431.6270658
450.025261
479.0451397
303.2820266
300.8545623
299.3695081
301.2477123
305.3449827
306.0515094
306.8968559
310.5828608
312.6240762
309.5532804
309.7596654
311.0076456
310.2358995
312.7831558
316.0751508
314.1599236
318.2952276
323.0998244
330.0104296
336.2422371
338.9617506
344.8059368
352.3454617
357.2067773
369.2378669
383.3636287
398.8181505
407.4370665
424.6092212
438.6739457
302.1407387
301.6288921
302.761377
299.2759738
298.0085508
297.5963812
304.1749482
302.8744147
310.5986123
310.5133832
305.9543515
308.7617796
308.1774701
311.2471894
312.6343834
317.4810526
314.6163311
317.2604108
321.331496
325.6221186
331.185403
332.9565224
337.7059859
346.5038632
353.1051464
371.0739957
375.9424714
384.8065976
397.6629325
414.690831
290.3080377
291.3524321
296.5732517
301.0544917
299.6194588
298.8049854
301.9700103
301.5787306
299.9573269
299.5354861
302.3215299
303.5813713
304.7932853
306.7346412
311.2516134
313.9490685
317.7004259
313.6642345
317.2080392
318.4524503
319.7645162
327.5417419
328.3761908
332.0234454
337.1946132
341.2354607
362.6660554
362.4424815
380.0042788
393.5615832
298.5321288
299.7098493
298.4439984
295.9940046
299.7821556
302.3781935
301.5036496
300.7344875
300.6081343
301.8942507
300.9522763
305.1198013
308.1682869
309.0855391
308.3240086
306.5226582
309.1655055
309.688328
307.5316629
309.865759
312.3590029
317.9617966
321.4742059
327.2851063
327.828704
332.4746933
341.521506
357.5504258
360.5336449
374.6850015
302.0163958
301.200435
301.9890619
301.757606
299.5088206
300.350407
302.2006698
299.0211755
300.8977774
301.3719797
298.8769255
299.6622289
303.3291294
301.9847853
307.5423421
304.446975
302.1629594
303.3775664
308.3728003
308.3232973
307.9757321
310.145668
316.3123584
321.0545576
325.0246675
330.1724147
332.2080319
337.0480175
343.6090352
356.3424854
303.9735558
301.487775
300.1208114
300.8921359
302.7557403
297.9298475
300.106875
299.249607
299.7336309
297.8358848
298.6809016
296.9278012
296.1793897
296.31645
301.7504943
303.3475488
301.779157
307.7211012
309.8754956
313.207102
308.88444
311.7801764
312.4572194
316.1342482
316.4540621
319.1880842
330.3585637
335.4029077
344.1816948
348.1943272
296.8515486
300.5076469
299.6232524
298.435232
291.0459345
295.6880586
297.5346576
298.8730183
298.9620959
298.7325949
296.8238986
294.479791
296.3050592
299.3120278
303.5112898
302.3653532
305.3834466
305.785084
307.9349763
309.5019886
310.4096624
312.4890618
310.9316414
313.9303033
315.7851532
314.4395744
316.01187
325.096955
331.7370598
336.6994221
)
;

boundaryField
{
    flow
    {
        type            calculated;
        value           nonuniform List<scalar> 
55
(
768.2565242
745.8343598
746.8975131
733.4872032
736.0822398
730.2289308
732.8538877
718.1315813
708.8978849
703.8649537
689.5944154
663.270665
637.7576095
611.5172296
553.6883522
533.1957438
505.3354532
479.0451397
438.6739457
414.690831
393.5615832
374.6850015
356.3424854
348.1943272
336.6994221
296.8515486
300.5076469
299.6232524
298.435232
291.0459345
295.6880586
297.5346576
298.8730183
298.9620959
298.7325949
296.8238986
294.479791
296.3050592
299.3120278
303.5112898
302.3653532
305.3834466
305.785084
307.9349763
309.5019886
310.4096624
312.4890618
310.9316414
313.9303033
315.7851532
314.4395744
316.01187
325.096955
331.7370598
336.6994221
)
;
    }
    obstacle
    {
        type            calculated;
        value           nonuniform 0();
    }
    frontAndBack
    {
        type            empty;
    }
    procBoundary3to1
    {
        type            processor;
        value           nonuniform List<scalar> 
36
(
758.3120173
780.9435787
784.2205671
774.5147094
765.7463038
770.5613073
770.5613073
770.363358
779.6925792
774.9832178
770.349309
775.5022997
775.5022997
705.3043908
718.3424192
738.2719455
745.7678601
759.6804308
759.6804308
502.2786385
530.6308596
556.5303725
581.4819486
606.8897859
630.3001257
630.3001257
370.6651944
381.0486516
403.8219379
417.2809699
427.2605259
444.1349335
444.1349335
342.5534788
339.723849
339.723849
)
;
    }
    procBoundary3to2
    {
        type            processor;
        value           nonuniform List<scalar> 
19
(
322.6624172
317.3569602
314.462403
306.9035101
310.5710496
303.2361512
306.2341966
305.7194158
301.758685
296.4280734
300.9069889
301.6049273
306.6447897
300.8937891
294.1455358
298.6917148
304.6130363
301.7980156
296.4641192
)
;
    }
}


// ************************************************************************* //
