/*--------------------------------*- C++ -*----------------------------------*\
  =========                 |
  \\      /  F ield         | OpenFOAM: The Open Source CFD Toolbox
   \\    /   O peration     | Website:  https://openfoam.org
    \\  /    A nd           | Version:  7
     \\/     M anipulation  |
\*---------------------------------------------------------------------------*/
FoamFile
{
    version     2.0;
    format      ascii;
    class       volVectorField;
    location    "0.00252";
    object      momentum;
}
// * * * * * * * * * * * * * * * * * * * * * * * * * * * * * * * * * * * * * //

dimensions      [1 -2 -1 0 0 0 0];

internalField   nonuniform List<vector> 
125
(
(-0.135485 0.057129 -0.00902353)
(0.120875 0.40737 0.173714)
(-0.075594 -0.00418951 0.0349832)
(0.0866704 -0.0804433 -0.133499)
(0.30197 -0.0582812 0.0235916)
(0.0756182 0.124058 0.0272884)
(-0.090614 -0.138713 -0.0251465)
(-0.144299 -0.232271 -0.01895)
(-0.0927194 0.0875004 0.106672)
(0.00513531 -0.133867 -0.163766)
(0.0701818 0.0128872 -0.0205122)
(-0.14472 0.0371469 -0.0573745)
(0.0657622 -0.110058 0.108938)
(-0.0386174 -0.0119606 0.0883162)
(-0.0134811 -0.152981 -0.104303)
(-0.122997 0.0365184 -0.0203113)
(0.107262 0.19067 -0.264282)
(0.102348 -0.0204268 -0.0485611)
(0.208213 -0.0923885 0.155279)
(-0.0855357 -0.0528157 0.0397794)
(0.0636728 -0.00617529 0.102587)
(0.106276 0.37384 0.0278519)
(-0.0881148 -0.0325465 0.0170308)
(-0.0668421 -0.119427 0.235292)
(-0.022344 0.0238064 -0.0073774)
(0.0205056 0.103851 -0.00117271)
(0.288042 0.0225217 0.0165899)
(0.0710687 0.0313588 0.064805)
(-0.0324027 0.271464 -0.133757)
(-0.0144073 -0.197394 -0.229608)
(0.321174 0.125504 -0.013289)
(-0.146609 -0.0414853 0.0433481)
(-0.151098 0.0526457 -0.146638)
(-0.0179598 -0.104551 -0.105903)
(0.0397654 0.157208 -0.22858)
(-0.125712 0.127871 -0.232352)
(0.222157 0.184614 0.0987729)
(-0.0875309 0.186122 -0.157778)
(0.0964171 0.109162 0.0761223)
(0.0818601 0.23063 0.0555481)
(-0.0177718 0.0707891 0.0505555)
(0.0967634 0.0526167 0.197825)
(-0.0671952 0.125771 0.192915)
(0.193441 -0.0535323 -0.113298)
(0.0372658 0.113819 0.00553513)
(0.0114462 -0.0317621 0.174744)
(0.0547957 -0.0483184 -0.207061)
(-0.158476 -0.0246559 0.0365229)
(-0.0482618 0.0724987 0.123697)
(-0.0775628 0.247932 -0.0243495)
(0.0219495 -0.0277362 -0.284605)
(0.189125 0.0577251 -0.0058933)
(0.138311 -0.144092 -0.0520625)
(0.0425625 0.0591488 -0.0372751)
(-0.0571427 0.0805175 -0.126046)
(-0.0789532 0.134301 -0.115518)
(0.0427168 -0.0431102 -0.135047)
(-0.0455135 -0.147855 -0.0382731)
(0.163547 -0.329587 0.0151467)
(0.00823209 0.0171597 0.0731737)
(0.00904705 -0.380134 0.0194654)
(-0.184952 0.0617436 -0.252732)
(0.0881428 0.0752596 0.0752421)
(-0.152386 0.180041 -0.222605)
(0.0210576 0.106497 0.0123712)
(0.156985 -0.223723 0.0491278)
(-0.225579 -0.206335 0.0423146)
(-0.112953 -0.114167 -0.0476353)
(-0.0107368 0.0489877 0.134396)
(0.00727012 -0.160805 0.0378219)
(0.0295464 -0.0647628 -0.0843809)
(-0.117998 -0.154682 0.118466)
(-0.00963673 0.0726227 0.224486)
(0.134152 -0.198608 0.0128901)
(0.188121 -0.00130665 0.0861468)
(-0.287808 -0.100082 -0.193885)
(-0.0151399 -0.113667 -0.00808477)
(0.0768292 -0.0816698 -0.134974)
(-0.137427 0.104616 0.0229188)
(-0.0832344 0.188038 -0.0401675)
(0.0798636 0.0498734 0.211323)
(0.199997 0.239876 -0.0963798)
(-0.197887 -0.0468214 0.0824842)
(-0.271969 0.0942503 -0.00629593)
(-0.126145 -0.00495158 0.0390785)
(0.120663 0.0115125 0.222476)
(0.111394 -0.171671 0.205028)
(0.108299 0.00329125 -0.183094)
(-0.352211 -0.0283097 -0.0543155)
(0.146205 0.0459657 0.0471603)
(0.0144107 -0.0393394 0.425799)
(0.115848 0.13266 -0.0842297)
(-0.196625 -0.0105752 0.0794076)
(-0.0877302 -0.166218 0.0210202)
(0.166896 0.288808 0.135599)
(0.164444 -0.152345 0.0477192)
(0.297983 0.121108 0.0370312)
(-0.0152423 -0.195242 -0.0303922)
(-0.0372958 0.128651 0.189485)
(0.136678 0.148656 0.197533)
(0.097695 -0.0333557 -0.0292058)
(-0.0566068 -0.0897447 0.0741274)
(-0.163951 0.0397668 -0.229376)
(-0.0715005 0.0178712 -0.0047938)
(-0.0807467 -0.35097 -0.0662526)
(-0.0478846 0.037233 -0.0578821)
(0.0952606 0.184171 0.018354)
(-0.0525231 0.273529 -0.218007)
(0.0353954 -0.120242 -0.035308)
(-0.106569 0.0805042 -0.00241795)
(0.361634 -0.0755821 -0.144255)
(-0.103297 0.00956596 -0.200288)
(-0.0557919 -0.0367901 -0.144133)
(-0.0663289 -0.219421 -0.035122)
(-0.10557 -0.0121355 -0.161437)
(0.0770968 0.0260346 0.100748)
(-0.0986012 -0.107659 -0.00455181)
(-0.124878 -0.106047 -0.0327716)
(-0.0342997 -0.0883407 0.258865)
(-0.00277497 -0.080542 0.0941685)
(0.0431128 0.322069 -0.152122)
(0.0139842 0.0684169 0.164056)
(0.194375 0.0203463 -0.0294338)
(-0.00016894 -0.0389702 -0.0981114)
(-0.0412023 0.0612903 -0.124148)
)
;

boundaryField
{
    sides
    {
        type            symmetry;
    }
    empty
    {
        type            empty;
    }
    procBoundary0to1
    {
        type            processor;
        value           uniform (0.0092343 -0.210969 0.225734);
    }
}


// ************************************************************************* //
