/*--------------------------------*- C++ -*----------------------------------*\
  =========                 |
  \\      /  F ield         | OpenFOAM: The Open Source CFD Toolbox
   \\    /   O peration     | Website:  https://openfoam.org
    \\  /    A nd           | Version:  7
     \\/     M anipulation  |
\*---------------------------------------------------------------------------*/
FoamFile
{
    version     2.0;
    format      ascii;
    class       volScalarField;
    location    "0.002";
    object      iDofMean;
}
// * * * * * * * * * * * * * * * * * * * * * * * * * * * * * * * * * * * * * //

dimensions      [0 -3 0 0 0 0 0];

internalField   nonuniform List<scalar> 
654
(
1.853541054e+20
1.534817687e+20
1.526892413e+20
1.587558688e+20
1.616889645e+20
1.740475158e+20
1.874338531e+20
1.333155139e+20
1.291241693e+20
1.335837137e+20
1.339754241e+20
1.360469708e+20
1.525017477e+20
1.566444914e+20
1.463669231e+20
1.53857636e+20
1.634906279e+20
1.862087969e+20
1.216211991e+20
1.208332024e+20
1.311890337e+20
1.191407422e+20
1.358337774e+20
1.398574885e+20
1.334090308e+20
1.370041768e+20
1.419192653e+20
1.391769686e+20
1.486905651e+20
1.550788719e+20
1.531850012e+20
1.60346451e+20
1.67075455e+20
1.972058281e+20
1.181318246e+20
1.231419647e+20
1.177007495e+20
1.156133584e+20
1.150912475e+20
1.200655393e+20
1.27446017e+20
1.172288755e+20
1.223448302e+20
1.242661774e+20
1.287526406e+20
1.318820137e+20
1.381670672e+20
1.331594701e+20
1.35794216e+20
1.451941194e+20
1.399520692e+20
1.462344883e+20
1.521872325e+20
1.60710047e+20
1.61288924e+20
1.855535334e+20
1.12472254e+20
1.186827383e+20
1.205727171e+20
1.290119147e+20
1.194413835e+20
1.189217225e+20
1.106964545e+20
1.134145429e+20
1.204362892e+20
1.146373073e+20
1.090648838e+20
1.233882958e+20
1.270710298e+20
1.149856215e+20
1.184818424e+20
1.227285448e+20
1.246435127e+20
1.175730759e+20
1.304122554e+20
1.409284292e+20
1.347243372e+20
1.376929179e+20
1.459410691e+20
1.46454222e+20
1.526861162e+20
1.743589352e+20
1.702933284e+20
1.797131396e+20
1.144129004e+20
1.112349852e+20
1.155231191e+20
1.13751004e+20
1.091556341e+20
1.155984007e+20
1.189016662e+20
1.113546197e+20
1.146762831e+20
1.165369246e+20
1.174828749e+20
1.180046849e+20
1.169852456e+20
1.081631306e+20
1.211712141e+20
1.224967404e+20
1.171094677e+20
1.280846266e+20
1.205343879e+20
1.238022877e+20
1.291767454e+20
1.410610077e+20
1.296424197e+20
1.422799848e+20
1.535362142e+20
1.509313511e+20
1.538224637e+20
1.693524788e+20
1.669625456e+20
1.955819141e+20
1.061796584e+20
1.186024394e+20
1.12403951e+20
1.152649323e+20
1.128303633e+20
1.139217115e+20
1.190659283e+20
1.149253472e+20
1.125076344e+20
1.119013874e+20
1.139968798e+20
1.148569181e+20
1.217325462e+20
1.19619199e+20
1.204462358e+20
1.235301471e+20
1.217602984e+20
1.350039642e+20
1.253671336e+20
1.266953496e+20
1.325941174e+20
1.460723844e+20
1.404749306e+20
1.495923059e+20
1.474927649e+20
1.573586357e+20
1.567326184e+20
1.653808765e+20
1.604138893e+20
1.865221838e+20
1.118330025e+20
1.161842875e+20
1.188699663e+20
1.173064406e+20
1.189780234e+20
1.203723081e+20
1.203330864e+20
1.192527822e+20
1.126029597e+20
1.12381754e+20
1.205573298e+20
1.246906429e+20
1.278081047e+20
1.249752825e+20
1.236461358e+20
1.220682528e+20
1.229039466e+20
1.296222572e+20
1.264525633e+20
1.330288139e+20
1.394025794e+20
1.411670686e+20
1.449951635e+20
1.419022252e+20
1.511133896e+20
1.579629104e+20
1.513834755e+20
1.756734797e+20
1.669625456e+20
1.855250437e+20
1.127079239e+20
1.247721166e+20
1.233551968e+20
1.279498095e+20
1.16759319e+20
1.150395043e+20
1.158276354e+20
1.210736168e+20
1.0807501e+20
1.074339794e+20
1.176039173e+20
1.181510926e+20
1.315223115e+20
1.309016898e+20
1.276460118e+20
1.172036704e+20
1.20794551e+20
1.327743988e+20
1.354202804e+20
1.407436522e+20
1.324889696e+20
1.394966082e+20
1.478570848e+20
1.461385153e+20
1.444165961e+20
1.427461738e+20
1.67708059e+20
1.689888814e+20
1.765597164e+20
1.940149779e+20
1.155570294e+20
1.18828434e+20
1.196668337e+20
1.17329378e+20
1.240856667e+20
1.143408855e+20
1.282880242e+20
1.153273495e+20
1.162968134e+20
1.143992935e+20
1.124233412e+20
1.245198338e+20
1.289395852e+20
1.237602451e+20
1.412455858e+20
1.255465553e+20
1.241746656e+20
1.308267345e+20
1.325258011e+20
1.434803331e+20
1.379567661e+20
1.546633179e+20
1.450486574e+20
1.417673115e+20
1.496433607e+20
1.510961507e+20
1.550696701e+20
1.594794097e+20
1.752330487e+20
1.86094838e+20
1.200662446e+20
1.179470533e+20
1.157507974e+20
1.146914741e+20
1.181922313e+20
1.198599855e+20
1.2664541e+20
1.217593835e+20
1.175837035e+20
1.186265191e+20
1.22760284e+20
1.205180187e+20
1.175509868e+20
1.34323632e+20
1.284459858e+20
1.225471486e+20
1.160166484e+20
1.295453757e+20
1.447756509e+20
1.438452241e+20
1.351965804e+20
1.501557306e+20
1.433368532e+20
1.388531757e+20
1.579735183e+20
1.466190268e+20
1.616937393e+20
1.619966238e+20
1.76531491e+20
1.936161236e+20
1.200438107e+20
1.2158558e+20
1.16251686e+20
1.164347854e+20
1.226989755e+20
1.36370716e+20
1.281472279e+20
1.153273495e+20
1.257101825e+20
1.128861389e+20
1.232928676e+20
1.253982806e+20
1.266028319e+20
1.324638808e+20
1.199712516e+20
1.201274619e+20
1.251658255e+20
1.262394689e+20
1.373068606e+20
1.41838325e+20
1.463161902e+20
1.471064782e+20
1.363024079e+20
1.427926568e+20
1.456416203e+20
1.480198442e+20
1.633012533e+20
1.688210687e+20
1.717611326e+20
1.813370535e+20
1.19774603e+20
1.168622731e+20
1.164110588e+20
1.311611707e+20
1.261657011e+20
1.283831563e+20
1.262699567e+20
1.255902293e+20
1.323829505e+20
1.237664412e+20
1.273598608e+20
1.233485704e+20
1.214373764e+20
1.265622692e+20
1.273710194e+20
1.306379825e+20
1.291304689e+20
1.342607761e+20
1.373585489e+20
1.458260619e+20
1.477882899e+20
1.4599284e+20
1.468407024e+20
1.458686879e+20
1.432732426e+20
1.565620917e+20
1.700916128e+20
1.637866418e+20
1.777452493e+20
1.852686362e+20
1.224891061e+20
1.321621704e+20
1.221485098e+20
1.243943728e+20
1.332378214e+20
1.335063721e+20
1.259179683e+20
1.254483471e+20
1.284507836e+20
1.204038763e+20
1.163450866e+20
1.202252041e+20
1.265044413e+20
1.314720135e+20
1.283709881e+20
1.259246317e+20
1.237680355e+20
1.396937375e+20
1.322156783e+20
1.378245246e+20
1.479460149e+20
1.490155733e+20
1.451823908e+20
1.436021378e+20
1.437360278e+20
1.571114323e+20
1.666825759e+20
1.725409483e+20
1.766726243e+20
1.901403763e+20
1.246203259e+20
1.320717703e+20
1.224444894e+20
1.347166065e+20
1.350174072e+20
1.284530183e+20
1.279595018e+20
1.289954258e+20
1.216111965e+20
1.221091766e+20
1.227118674e+20
1.279604161e+20
1.233559748e+20
1.279012911e+20
1.32695853e+20
1.295289586e+20
1.397282657e+20
1.435121867e+20
1.391159101e+20
1.403787601e+20
1.399283293e+20
1.475837536e+20
1.450486574e+20
1.525604072e+20
1.440082551e+20
1.550788705e+20
1.626360737e+20
1.766244267e+20
1.816688002e+20
1.919922114e+20
1.345136767e+20
1.209075935e+20
1.23878853e+20
1.297160582e+20
1.337000525e+20
1.312475002e+20
1.307988726e+20
1.241241035e+20
1.225882803e+20
1.261202373e+20
1.194195388e+20
1.322794461e+20
1.38335793e+20
1.259919465e+20
1.303459274e+20
1.380230762e+20
1.427017482e+20
1.345939283e+20
1.351618447e+20
1.311001046e+20
1.493655395e+20
1.475572384e+20
1.610433277e+20
1.463813599e+20
1.513039487e+20
1.517004281e+20
1.689275509e+20
1.72820637e+20
1.889231306e+20
1.960662376e+20
1.294660496e+20
1.214951818e+20
1.24766791e+20
1.286838349e+20
1.296555383e+20
1.36836463e+20
1.294847837e+20
1.335593326e+20
1.310483959e+20
1.262403289e+20
1.237286169e+20
1.269843641e+20
1.238971167e+20
1.25719183e+20
1.298959405e+20
1.417030171e+20
1.373138995e+20
1.359265426e+20
1.410800211e+20
1.548440811e+20
1.580404125e+20
1.491481507e+20
1.575662254e+20
1.5188584e+20
1.45777734e+20
1.631816468e+20
1.654907983e+20
1.769600551e+20
1.834470978e+20
1.857244717e+20
1.367570669e+20
1.236195395e+20
1.2428867e+20
1.284085744e+20
1.295168693e+20
1.336926719e+20
1.284522845e+20
1.346234561e+20
1.413196933e+20
1.275613379e+20
1.330972287e+20
1.368668905e+20
1.306122086e+20
1.315216079e+20
1.35320772e+20
1.368636409e+20
1.367039555e+20
1.360803045e+20
1.471015705e+20
1.550786525e+20
1.486557772e+20
1.39947367e+20
1.526447871e+20
1.542873025e+20
1.530734264e+20
1.681257128e+20
1.672923212e+20
1.699677975e+20
1.795800025e+20
1.873483839e+20
1.430609934e+20
1.333147456e+20
1.379492676e+20
1.313446771e+20
1.246865649e+20
1.257749722e+20
1.338025075e+20
1.397312504e+20
1.332408778e+20
1.359437332e+20
1.388830122e+20
1.366960825e+20
1.517905724e+20
1.393821554e+20
1.390456556e+20
1.363847442e+20
1.417360006e+20
1.402831614e+20
1.493241183e+20
1.563557708e+20
1.522571625e+20
1.447466231e+20
1.589838133e+20
1.693436709e+20
1.741165973e+20
1.668072952e+20
1.672091754e+20
1.720654748e+20
1.82939014e+20
1.909096021e+20
1.427469208e+20
1.449761155e+20
1.433452047e+20
1.476308666e+20
1.384841329e+20
1.334830847e+20
1.401852298e+20
1.434675065e+20
1.367202497e+20
1.297950414e+20
1.375273464e+20
1.318402217e+20
1.4640374e+20
1.468955503e+20
1.401206209e+20
1.382499209e+20
1.367293698e+20
1.40360044e+20
1.530972788e+20
1.594312816e+20
1.606954507e+20
1.52542101e+20
1.544100865e+20
1.653772083e+20
1.614580267e+20
1.603250753e+20
1.734452212e+20
1.896300258e+20
1.920563246e+20
1.976046823e+20
1.625111864e+20
1.45947894e+20
1.401804985e+20
1.430432076e+20
1.428290956e+20
1.453130591e+20
1.525752199e+20
1.529027345e+20
1.418201509e+20
1.345026336e+20
1.339445192e+20
1.474326545e+20
1.3693374e+20
1.413162955e+20
1.391956498e+20
1.527428466e+20
1.544431922e+20
1.495345731e+20
1.568187534e+20
1.560430085e+20
1.628247349e+20
1.454890494e+20
1.499700944e+20
1.573633347e+20
1.679370385e+20
1.6666996e+20
1.704796334e+20
1.672827706e+20
1.800598611e+20
1.94185918e+20
1.606491726e+20
1.605472045e+20
1.461456261e+20
1.424238725e+20
1.475438436e+20
1.460116796e+20
1.470842016e+20
1.529973232e+20
1.446084136e+20
1.385857503e+20
1.396818861e+20
1.460173779e+20
1.41754832e+20
1.427793009e+20
1.456704475e+20
1.540031024e+20
1.521558991e+20
1.571202173e+20
1.50590453e+20
1.611254168e+20
1.555168131e+20
1.486708766e+20
1.582348976e+20
1.554475616e+20
1.568573862e+20
1.647747347e+20
1.623866318e+20
1.677582426e+20
1.756282263e+20
1.85525042e+20
1.456857609e+20
1.665586848e+20
1.631986054e+20
1.419421694e+20
1.433144372e+20
1.504129886e+20
1.517304479e+20
1.527608513e+20
1.478018108e+20
1.43485488e+20
1.521491601e+20
1.486771196e+20
1.417056361e+20
1.558967463e+20
1.602949917e+20
1.478782654e+20
1.490807566e+20
1.585040835e+20
1.583952096e+20
1.560430085e+20
1.656637856e+20
1.607353048e+20
1.61364291e+20
1.559332496e+20
1.676920339e+20
1.643352622e+20
1.578689631e+20
1.70443271e+20
1.778299318e+20
1.841005595e+20
1.565886363e+20
1.550329142e+20
1.603071134e+20
1.510486725e+20
1.53252384e+20
1.49108896e+20
1.629940753e+20
1.545816862e+20
1.419631388e+20
1.619075451e+20
1.510355772e+20
1.553386744e+20
1.600307023e+20
1.580788544e+20
1.611699631e+20
1.495165963e+20
1.572896041e+20
1.659103387e+20
1.655280335e+20
1.576068255e+20
1.665312729e+20
1.575799942e+20
1.709129486e+20
1.739307366e+20
1.639625181e+20
1.737289877e+20
1.762167971e+20
1.77799126e+20
1.808784433e+20
1.797416293e+20
)
;

boundaryField
{
    flow
    {
        type            calculated;
        value           nonuniform List<scalar> 
55
(
1.853541054e+20
1.874338531e+20
1.862087969e+20
1.972058281e+20
1.855535334e+20
1.797131396e+20
1.955819141e+20
1.865221838e+20
1.855250437e+20
1.940149779e+20
1.86094838e+20
1.936161236e+20
1.813370535e+20
1.852686362e+20
1.901403763e+20
1.919922114e+20
1.960662376e+20
1.857244717e+20
1.873483839e+20
1.909096021e+20
1.976046823e+20
1.94185918e+20
1.85525042e+20
1.841005595e+20
1.797416293e+20
1.565886363e+20
1.550329142e+20
1.603071134e+20
1.510486725e+20
1.53252384e+20
1.49108896e+20
1.629940753e+20
1.545816862e+20
1.419631388e+20
1.619075451e+20
1.510355772e+20
1.553386744e+20
1.600307023e+20
1.580788544e+20
1.611699631e+20
1.495165963e+20
1.572896041e+20
1.659103387e+20
1.655280335e+20
1.576068255e+20
1.665312729e+20
1.575799942e+20
1.709129486e+20
1.739307366e+20
1.639625181e+20
1.737289877e+20
1.762167971e+20
1.77799126e+20
1.808784433e+20
1.797416293e+20
)
;
    }
    obstacle
    {
        type            calculated;
        value           nonuniform 0();
    }
    frontAndBack
    {
        type            empty;
    }
    procBoundary3to1
    {
        type            processor;
        value           nonuniform List<scalar> 
36
(
1.791718366e+20
1.35160867e+20
1.467563594e+20
1.642713034e+20
1.628077257e+20
1.728902099e+20
1.728902099e+20
1.271905587e+20
1.226048698e+20
1.389397872e+20
1.44219501e+20
1.423879157e+20
1.423879157e+20
1.193462711e+20
1.176069528e+20
1.329172116e+20
1.297760192e+20
1.274087752e+20
1.274087752e+20
1.168449336e+20
1.220371216e+20
1.165145438e+20
1.159549766e+20
1.113770388e+20
1.243305688e+20
1.243305688e+20
1.142708985e+20
1.099203096e+20
1.185851287e+20
1.234695256e+20
1.224684824e+20
1.151145248e+20
1.151145248e+20
1.096120462e+20
1.02782755e+20
1.02782755e+20
)
;
    }
    procBoundary3to2
    {
        type            processor;
        value           nonuniform List<scalar> 
19
(
1.184799362e+20
1.142930513e+20
1.144266753e+20
1.152284184e+20
1.127786461e+20
1.164310351e+20
1.14961172e+20
1.270096008e+20
1.2832357e+20
1.315082751e+20
1.288357953e+20
1.357174307e+20
1.438239527e+20
1.379222255e+20
1.48255816e+20
1.544470597e+20
1.509282947e+20
1.62731747e+20
1.47721319e+20
)
;
    }
}


// ************************************************************************* //
