/*--------------------------------*- C++ -*----------------------------------*\
  =========                 |
  \\      /  F ield         | OpenFOAM: The Open Source CFD Toolbox
   \\    /   O peration     | Website:  https://openfoam.org
    \\  /    A nd           | Version:  7
     \\/     M anipulation  |
\*---------------------------------------------------------------------------*/
FoamFile
{
    version     2.0;
    format      ascii;
    class       volScalarField;
    location    "0.002";
    object      internalEMean;
}
// * * * * * * * * * * * * * * * * * * * * * * * * * * * * * * * * * * * * * //

dimensions      [1 -1 -2 0 0 0 0];

internalField   nonuniform List<scalar> 
654
(
2.157248572
1.976433318
2.041056943
2.040453838
2.099231658
2.162682472
2.147768051
1.372583311
1.436831324
1.503822291
1.63524956
1.741771196
1.821735836
1.865268488
1.935286082
1.984871616
2.042381579
2.087102066
0.8089557392
0.8553141359
0.9431154169
1.039097348
1.119940258
1.221292237
1.342776842
1.444276412
1.496268669
1.569505771
1.644358172
1.729706668
1.841920815
1.881530941
1.848778631
1.911583114
0.5234353118
0.5496545884
0.5722534971
0.5956982775
0.621537729
0.6522251879
0.7008022703
0.7645846779
0.8208926362
0.8898213131
0.9369606261
1.057129156
1.136302675
1.227683988
1.361565516
1.448211361
1.513077095
1.596787757
1.665442143
1.744672334
1.793114138
1.775669339
0.4289249858
0.4293938039
0.4402144581
0.45621296
0.4548132292
0.4633761463
0.4820518562
0.4971774344
0.5087854965
0.5622403193
0.582505658
0.6112211404
0.6443150613
0.6682802261
0.7258680858
0.7605510979
0.8409705533
0.8828703283
0.9750943755
1.067930349
1.139916052
1.230824031
1.329252535
1.45306853
1.494054164
1.571882665
1.635788394
1.724111807
0.4198556147
0.424968502
0.4316077493
0.4345186241
0.4246315573
0.4280207737
0.4433086522
0.4622910668
0.4785459845
0.4891029158
0.5106595224
0.5156239867
0.5322333652
0.5543385567
0.5801434349
0.6165697277
0.656850274
0.6877062005
0.7260388001
0.7997430275
0.8752932706
0.907867197
1.001069747
1.070460033
1.163829233
1.261491042
1.351446987
1.428575509
1.545398771
1.627381116
0.4182096718
0.4152562851
0.4050659433
0.4170959648
0.4262317001
0.4316407305
0.4228379686
0.437289543
0.4341517486
0.4529607504
0.4647065441
0.468133965
0.5045040766
0.5113404086
0.5326085264
0.5564031117
0.5975365173
0.6420122855
0.6729494452
0.6934118555
0.7741064708
0.8273363877
0.8582546509
0.9572568062
1.027951893
1.088492266
1.167847933
1.248350279
1.349162124
1.442727356
0.4008921617
0.3959437193
0.4024561594
0.4102571733
0.4033504612
0.4037286863
0.4119155365
0.4176584858
0.4347738004
0.4361902481
0.4444920353
0.46183172
0.4730990651
0.4834902985
0.5061650287
0.5059807019
0.5325194172
0.5571523385
0.60257065
0.6267297924
0.6503860267
0.7268173293
0.7819609626
0.8308671866
0.9185289401
1.011756133
1.09277391
1.164485094
1.204133214
1.310748791
0.4125271369
0.4127628685
0.4193232392
0.4138159977
0.4150738072
0.4217286027
0.4234540875
0.4304119986
0.4294888182
0.4297979472
0.4381775495
0.4379588666
0.4531550582
0.4606947633
0.4761366611
0.4894525078
0.4896655879
0.5108988827
0.5476075291
0.5802792273
0.6358051626
0.6653800287
0.7041006558
0.7533395573
0.8083736104
0.8604590652
0.9646970796
1.062840613
1.146070025
1.189457479
0.4216187918
0.4208041279
0.4152395789
0.4247302046
0.4348905758
0.4234201026
0.4317304401
0.4302861806
0.4323592085
0.4389594479
0.4395261806
0.4461601318
0.4468287375
0.4605321397
0.4696049261
0.4629008957
0.4982431045
0.4945975808
0.4964159012
0.5220616143
0.5534230311
0.5883914001
0.6498801488
0.6946143807
0.7482806023
0.812815444
0.8500969427
0.9166208
0.991583604
1.068412655
0.4325708039
0.4355500442
0.4276194566
0.4241235718
0.4339710895
0.4336577361
0.4370825535
0.4464732448
0.4461706812
0.4579785871
0.447223585
0.4520241218
0.4510458615
0.4554340722
0.4592779257
0.4702364568
0.4686390317
0.4802358065
0.491146394
0.5085097768
0.5311048864
0.5465400104
0.5684859913
0.6028593113
0.6541563105
0.6933228908
0.7676614009
0.8390970644
0.932455961
1.013138968
0.4160028141
0.4222407057
0.4223903578
0.4194199647
0.4247507538
0.4215916189
0.4150756547
0.4208291125
0.4275435553
0.4214001213
0.4259762128
0.4305368677
0.4462150122
0.4459613108
0.4495825828
0.4570495599
0.4601484888
0.4624353846
0.4781681855
0.4820863072
0.502419206
0.5066054527
0.5351047623
0.5545985173
0.594979134
0.6499442761
0.678382178
0.7451248123
0.82233746
0.8918850919
0.4377112501
0.4324225351
0.4281696691
0.4253665685
0.4256715458
0.4245319185
0.4371028545
0.4286339724
0.4330589404
0.4266607051
0.4191417225
0.4217108706
0.4257990583
0.4347817982
0.4429183551
0.4483220627
0.4587058983
0.4588890708
0.4713154452
0.4819309388
0.4999139019
0.5168786461
0.5251070354
0.5516147767
0.5609601935
0.5898508457
0.6230061418
0.6542470485
0.7124220844
0.793805117
0.4207775549
0.4213817314
0.4281362026
0.4263741976
0.4242259192
0.4221264604
0.4276820299
0.4226045772
0.4124091449
0.4188664547
0.4273837733
0.4343019474
0.4288942894
0.4325657582
0.4337301054
0.4508995747
0.4485170012
0.4797365493
0.4879110997
0.5004474243
0.5049148997
0.5095082269
0.5082583527
0.5113414072
0.5296134141
0.540234191
0.5822520159
0.6061052226
0.6344077724
0.6883839753
0.4192817122
0.4193077696
0.4175311374
0.4091814678
0.4080833802
0.4114719715
0.4029397281
0.4008028858
0.4021607784
0.4057999543
0.4203976343
0.431675475
0.4322104637
0.4287493738
0.4445619846
0.4558537501
0.4614300754
0.4551616421
0.4564716323
0.4528629922
0.4511124218
0.4694131941
0.4784739557
0.5000930352
0.5200726603
0.5205894432
0.5374278332
0.5646234862
0.5860730249
0.6255636112
0.417969213
0.4166538457
0.4171234224
0.4150900857
0.4090110045
0.4098359727
0.407848391
0.4088848976
0.4106758249
0.4087890451
0.4061166137
0.4102118173
0.4254481135
0.4270591614
0.4172693265
0.415799565
0.4142902531
0.4225051809
0.43176697
0.4373225194
0.4410116599
0.4477012008
0.4624977512
0.4645296156
0.4743471925
0.4922233177
0.5003821504
0.5155137397
0.5616788779
0.583310763
0.400940455
0.4023139657
0.4077398575
0.4142954397
0.4174798042
0.4163706739
0.4238406595
0.4186599097
0.415086077
0.4168521232
0.427611759
0.4297694615
0.4234171187
0.4261736755
0.4239871671
0.4271271875
0.4306501974
0.4266316232
0.434017052
0.436596116
0.4388009538
0.4417692985
0.4366599585
0.4555638051
0.4629067189
0.4757319369
0.4868291572
0.5030119226
0.5207616127
0.5506676156
0.405839266
0.4054019962
0.40179142
0.4123979307
0.4108971926
0.4155842031
0.4103686389
0.4193396385
0.4196665808
0.4213578752
0.4215328485
0.4158011458
0.4200576166
0.4125113033
0.4257700559
0.4222278118
0.4193507404
0.4284945633
0.4356835585
0.4373368802
0.4383094265
0.4372299088
0.4424701246
0.4428922457
0.4422394181
0.4535477766
0.4784627969
0.4831958636
0.4908712758
0.5129671065
0.4256397947
0.4254013996
0.4254981847
0.4236781395
0.4181215946
0.4269797834
0.4304215328
0.4257950429
0.4315992853
0.4238765585
0.4216573336
0.4242414497
0.4185927429
0.4149814939
0.4195144569
0.4153770257
0.4081126399
0.4115890761
0.4095895045
0.4146939966
0.420721105
0.4238027258
0.4282782646
0.447129856
0.4431320843
0.4542870971
0.4601713761
0.4789179938
0.4880688834
0.4879868614
0.4189070221
0.4137978267
0.4144462425
0.4197356812
0.4277127529
0.4201688393
0.4219161317
0.4209828349
0.413689508
0.4162341725
0.4162997202
0.4219833493
0.4268510497
0.4278236358
0.4185353586
0.4202103323
0.4290533875
0.4282219553
0.429056601
0.4301028256
0.429362816
0.4452559086
0.4536745418
0.4590801232
0.4644694076
0.4542453162
0.4627806644
0.4685369509
0.4710318836
0.473146235
0.431172379
0.4374624626
0.42913224
0.4187903719
0.4210677562
0.4160487036
0.4047146036
0.411590613
0.4135334094
0.4166224619
0.4125065842
0.4126925793
0.4028968904
0.409463568
0.4144391796
0.4170699877
0.4136960698
0.4129232767
0.4229370998
0.424758232
0.4374193675
0.4372137858
0.4395139204
0.4292443103
0.4281439136
0.4313829595
0.4298217027
0.4365621247
0.4576175538
0.4599490994
0.4049658808
0.4038660079
0.4053873011
0.4135195218
0.42088376
0.4175941994
0.4221451453
0.4108658084
0.4158119446
0.4115506968
0.4082632431
0.4071617687
0.424505779
0.4254961935
0.429978576
0.4279905534
0.4277274477
0.4351096312
0.4292523918
0.4218753362
0.4180676303
0.4173513014
0.4143797985
0.4194493329
0.4178030016
0.4284258204
0.4266963564
0.4139119415
0.4234513774
0.4392063796
0.4190837218
0.4280366592
0.4347195501
0.4227236845
0.4196128512
0.4241283559
0.4197359955
0.4246637122
0.4208463632
0.4263569328
0.4275664677
0.4254290966
0.4185026843
0.4101512243
0.4167707229
0.42195619
0.4231331557
0.4226073123
0.4102923039
0.4217185981
0.4203423466
0.4193867427
0.422611304
0.4238313141
0.4288484066
0.4200260448
0.427279495
0.433124926
0.4309881617
0.4405383725
0.4143717355
0.4020803942
0.4001786632
0.3958185382
0.4016906635
0.4026466465
0.4020552004
0.4061748372
0.4095058714
0.4056209597
0.4047918209
0.4008712927
0.4042072682
0.4015577408
0.399963136
0.4003464662
0.4010068584
0.3978172823
0.4097441824
0.4024657265
0.4003495632
0.3998287433
0.4041672946
0.4107024698
0.418197119
0.4231865159
0.4337344626
0.4346272236
0.4310001313
0.4313056421
)
;

boundaryField
{
    flow
    {
        type            calculated;
        value           nonuniform List<scalar> 
55
(
2.157248572
2.147768051
2.087102066
1.911583114
1.775669339
1.724111807
1.627381116
1.442727356
1.310748791
1.189457479
1.068412655
1.013138968
0.8918850919
0.793805117
0.6883839753
0.6255636112
0.583310763
0.5506676156
0.5129671065
0.4879868614
0.473146235
0.4599490994
0.4392063796
0.4405383725
0.4313056421
0.4143717355
0.4020803942
0.4001786632
0.3958185382
0.4016906635
0.4026466465
0.4020552004
0.4061748372
0.4095058714
0.4056209597
0.4047918209
0.4008712927
0.4042072682
0.4015577408
0.399963136
0.4003464662
0.4010068584
0.3978172823
0.4097441824
0.4024657265
0.4003495632
0.3998287433
0.4041672946
0.4107024698
0.418197119
0.4231865159
0.4337344626
0.4346272236
0.4310001313
0.4313056421
)
;
    }
    obstacle
    {
        type            calculated;
        value           nonuniform 0();
    }
    frontAndBack
    {
        type            empty;
    }
    procBoundary3to1
    {
        type            processor;
        value           nonuniform List<scalar> 
36
(
2.100406792
2.035049058
2.032247113
2.115201206
2.117557833
2.070599665
2.070599665
1.491798134
1.636948147
1.688365834
1.791918923
1.90771273
1.90771273
0.8783560062
0.9594353638
1.058655965
1.17485633
1.319490453
1.319490453
0.5333732813
0.5432153696
0.5921876125
0.6540032482
0.7013068343
0.7406751713
0.7406751713
0.4303909169
0.4434116177
0.4619419187
0.471453079
0.482985221
0.5094294649
0.5094294649
0.4102165916
0.4173559878
0.4173559878
)
;
    }
    procBoundary3to2
    {
        type            processor;
        value           nonuniform List<scalar> 
19
(
0.4234746092
0.406599387
0.4088102443
0.4031295717
0.4198708042
0.4191098171
0.4178763399
0.4313744713
0.4241855914
0.4239412103
0.4151575582
0.4076058373
0.3959030842
0.4263609115
0.4163956766
0.4374555351
0.4003751599
0.4209995862
0.4103712369
)
;
    }
}


// ************************************************************************* //
