/*--------------------------------*- C++ -*----------------------------------*\
  =========                 |
  \\      /  F ield         | OpenFOAM: The Open Source CFD Toolbox
   \\    /   O peration     | Website:  https://openfoam.org
    \\  /    A nd           | Version:  7
     \\/     M anipulation  |
\*---------------------------------------------------------------------------*/
FoamFile
{
    version     2.0;
    format      ascii;
    class       volScalarField;
    location    "0.002";
    object      linearKE;
}
// * * * * * * * * * * * * * * * * * * * * * * * * * * * * * * * * * * * * * //

dimensions      [1 -1 -2 0 0 0 0];

internalField   nonuniform List<scalar> 
654
(
0.8048773451
0.6130646842
1.214954165
0.3581640192
0.2653242735
0.5766135157
0.8396352285
0.2980006914
0.2491188095
0.2872656905
1.131358238
0.1604568483
0.4494535517
0.7810143155
1.268461066
0.4355871354
0.321569411
0.5431769341
0.9541828612
0.3855385487
0.4921284406
0.7605055885
0.4092292728
0.7180283316
1.880974354
0.5358331076
0.3287349547
0.1518434894
0.3145055774
0.4679210448
0.3182153988
1.217812387
0.8849476204
0.3694927046
0.3177591193
0.8203050994
1.465172624
1.22306292
1.242307458
0.8798038708
0.5321886987
0.7341554319
0.6313613704
0.6989402578
0.4965179311
1.284158021
0.4360724618
0.9014191326
0.5203238139
0.7172262153
0.2165387875
0.9694416744
0.3247947793
0.5718007573
0.5595674475
0.986551534
0.1311755208
0.2546471973
0.8930514298
0.8237834427
0.2524911318
0.1627333622
0.215542702
0.04473412027
0.2218550851
0.9640886896
1.030911447
0.7890616508
0.8365094241
0.56274557
0.3232992051
0.7925643475
0.5680956322
0.4156177359
0.6752019703
0.2293213838
0.7910986889
0.8613802707
1.140465856
0.4497956194
0.4892210021
1.429378257
0.2508286322
0.2968505557
0.2329892609
0.3188380288
0.6757958666
0.7163645223
0.3196655959
0.009995420818
0.5094613564
0.6531644073
0
0.7912318242
0.6100232765
0.7507208399
0.4093323137
0.3136576077
0.8995138073
0.7570475716
0.5761615651
0.489539479
0.5704816314
0.9479976104
0.2621831385
0.6213947309
0.4434008811
1.259496424
0.2973846423
0.1424710157
0.4382235309
0.3727930042
0.8416331789
0.6115192998
0.2982177951
0.5063875126
0.9053978154
0.4467691198
0.3641756999
1.067991725
1.512693345
0.7537885404
0.3015306029
0.2805881533
0.2556530856
0.9522408504
0.2029873666
1.377662111
0.170864175
0.6244744064
0.3754048637
0.7017115346
0.5120541877
0.1655187651
0.3932499981
0.7603384029
1.436896277
0.614132133
0.5735001762
0.7091002235
0.3938612487
0.6972974078
0.9319670073
0.7501158471
0.2329688801
1.190242147
0.7341464231
0.7756833596
0.9148970803
0.7373238427
0.8594908085
0.5041613247
0.7228244617
0.4412777926
0.4680973703
0.7673111619
0.7479987204
0.7089690225
0.7747603076
1.09374681
0.4465017735
0.6929091016
0.6548697285
0.3472803657
1.514405761
0.7626682469
1.010454865
0.5127197258
0.5230610209
0.6899744234
0.2152044473
0.8187139421
0.8719429911
0.7869281746
0.2661154635
0.920779107
0.3160608362
1.246562834
1.080548489
0.2408782562
0.5915556609
0.4763048003
0.4852340451
0.2251940682
0.5657224703
0.8675366451
0.3132988812
0.6754648832
0.08402108258
0.8572105766
0.07989001243
1.505469216
0.5056982695
0.6713744844
0.2297059042
1.481359207
0.9272800484
0.4632182196
0.745105712
0.4313096094
0.8432522754
0.4224482273
0.7700387055
0.4218747595
0.5619496547
1.389144254
0.9092418704
0.4070678919
0.2143696213
0.4144766155
0.1677524151
0.6267828366
0.8671434642
0.3843457292
0.3460063403
1.035275869
0.4340837583
0.6917043053
0.2776233861
0.5052260724
0.3811901481
0.7325995092
0.6590177694
0.3000563043
1.174724752
1.308253624
1.605225558
0.5882206978
0.503493758
0.756523642
1.583286544
0.8751651797
0.5986934152
0.9475476938
0.5243457389
0.730512492
0.516148753
0.5158865904
0.7858000028
1.104943922
0.579090377
0.1783141713
1.14248557
0.7731670469
0.6200281053
0.680626922
0.2425101605
0.5159784938
0.5417562096
0.5037321625
0.3651575406
0.915940498
0.7647215415
0.2843411029
0.7308323624
0.5382741957
0.5402256297
0.8654617897
0.4966177339
0.3895976607
0.8136277297
0.8979900374
0.3932716759
0.1757211061
1.26230256
1.632709117
0.5415167812
0.4657880997
0.6003288609
0.8685182287
0.4375490533
1.15568195
0.4022198158
0.8281793055
0.1023612847
0.08442269253
0.4380040477
0.7214648702
0.8129122451
0.289730457
0.3796269304
0.9331067501
0.4097306246
0.7202314712
0.8324182271
0.3614512557
0.6818376696
0.351796929
0.3323164343
0.2959694798
0.131577786
0.7187755648
0.5629327098
0.653471689
0.8526779068
0.4296017528
0.5881343515
0.8972916571
0.6266081189
1.089948921
0.6727510481
0.4423809303
0.5667074304
0.9279365504
0.9169191256
0.1478263385
0.5459150745
0.6228791757
0.5833276043
1.105383986
0.4974683413
1.107670045
1.255945495
0.7660914174
0.6633795757
0.403483295
0.7866432127
0.4599725874
0.4825197104
0.4899664401
0.5635303952
0.5304587514
0.4409020361
1.500551825
0.8216419388
0.934193111
1.038885588
0.4579747647
0.2344127428
0.241897441
0.8608096695
0.4140786688
0.992026965
0.2569301167
0.0587099289
0.5522849795
0.8337868805
0.08147030112
1.149369723
0.5884930044
0.6437513157
0.3891777185
0.3685026404
0.5597656512
0.6953144077
0.2958342559
0.6965984085
0.4328031368
0.7687743932
0.5649348945
0.2265804936
0.7530591318
0.2217653469
0.5353112257
0.5305201048
0.1765895491
0.7726455037
0.5628023876
0.381217494
0.3270042324
0.36654448
1.000792653
1.535104453
0.46813013
0.1427245508
1.053492856
0.3792408085
0.3036816852
0.6003041092
0.9716992619
0.6988406597
0.545045777
0.9463344793
0.1637813726
0.2913285523
0.7505450341
0.07191215528
0.3442427582
0.5493944658
0.7423733693
0.4656205151
0.335586497
0.4056023433
0.2827008482
0.8675252946
0.8556975681
0.2927055565
0.7215148557
1.2274961
0.1686673256
1.024613761
0.9860863044
0.7531016584
0.2866730053
0.0464039245
0.6340969233
0.3734462467
0.857218545
0.3715320225
0.7255517233
0.6343367927
0.6093152982
0.5803062621
0.8837624057
0.6078887653
0.8625954922
0.41600654
1.011874874
0.5379100704
0.7430972639
0.178720717
0.8996481045
0.8796519931
0.9880165986
0.3663964126
0.9404377922
1.473736098
0.7142919256
0.3928818413
0.8976513109
0.6588895915
0.5098601041
0.5110875933
0.3325103354
0.8653967265
1.27720589
0.5503580919
1.148774311
0.1748723735
0.6022121265
0.4988045385
0.8633985548
0.8224758001
0.5107787895
0.3735866727
0.3307239671
0.2787393187
1.091244938
0.3970164278
1.114000513
0.2590244971
1.277518543
0.1166013326
0.5453077646
0.565049088
0.7198212626
0.84026793
0.5667119533
0.8246495183
0.7207563184
0.609907038
0.9700194802
0.5724404062
0.8808095466
1.244933501
1.273441534
0.637030726
0.8539039253
0.6921186416
0.4564438376
0.3125118721
0.650587006
0.5733490263
0.2342348456
1.476562738
0.5100359739
0.8096601623
0.7717130981
1.457993665
0.9091262038
0.278176212
0.2387386185
0.9004998441
0.6049900486
0.87772899
0.2832585342
0.2857208984
0.6819409513
0.1566079551
0.3254324369
0.5226077937
0.7696578845
0.3643310742
0.5829606495
0.7422677974
1.133739955
0.748778966
0.1522920624
0.8740251913
0.008684969705
0.8340738676
0.2581554672
1.003216529
0.4006285183
0.07212825961
0.6156876276
0.5641142643
0.6720801813
0.409895718
1.404933806
0.7352170543
0.6602714355
0.7493961517
0.5979418667
1.044963977
0.515483918
0.5445698969
0.7668942642
0.3833490645
0.5505846427
0.4846375018
0.4399059432
0.8673482702
0.6598149874
0.829906941
0.4755734264
1.170408778
0.01677866369
0.3626565712
0.6744528366
0.3614773156
0.5759940712
1.014333796
0.7708183254
0.5603995617
1.274682366
1.013836589
0.7741247247
0.5779808917
0.7925024639
1.083843491
0.7192759194
0.6861061902
0.5914439102
0.6752803524
0.4208798291
0.220529844
0.8904286684
0.561088879
1.362797736
0.4943650129
0.7102816488
0.7824630572
0.3253935048
1.053255062
0.6399727779
0.9663097377
0.4635531686
0.5564248251
1.042215222
1.152980621
0.7212425883
0.7568730545
0.6594114503
0.7357242657
0.624378396
0.6124924584
0.6021282182
0.502545273
0.8998635682
0.2146394127
0.276815305
0.6270069085
0.6736329271
0.9233060965
0.7316264827
1.453415481
0.5050749141
1.529333025
0.4489625295
0.4232010662
1.085565463
0.8141570516
0.8734128334
0.3350236718
0.9158481488
0.3930645998
0.4268303623
0.3360434632
0.4583961316
0.5831768382
0.3590001773
0.8223895817
1.073924879
0.7793840793
1.069529678
0.2734510398
0.684867599
0.5364475559
0.3741615228
0.3514200046
0.5386174682
1.01602431
0.6075471402
0.5041762169
0.6618651915
0.2987313884
0.3797738024
0.5270476374
0.4050579837
0.6561590878
1.974779857
0.3531837768
0.4168024725
0.1676580444
0.6024809458
0.4517399546
0.4760802827
0.8751224814
1.099377452
0.2231177546
0.9685464089
0.4455153483
1.016326476
0.6350057044
0.5424285193
0.6029826628
0.2204850677
0.4402015439
1.030364482
0.3869425992
0.8438914334
0.8991698332
0.4642134311
0.6291569669
1.436859693
0.6856761548
0.5290879049
0.7691631657
0.6032059931
0.4843733496
0.2959012459
0.5621415075
0.289581923
0.1450298084
0.4419928203
0.3572791371
0.765845292
1.250786579
0.4841511978
1.134081698
0.6453412895
0.9961437338
1.04771306
0.4224265482
0.8597228329
0.2537886
0.6251548257
0.4078140775
0.7746851027
0.6627002974
0.4924531547
0.7851439648
0.6233442941
)
;

boundaryField
{
    flow
    {
        type            zeroGradient;
    }
    obstacle
    {
        type            calculated;
        value           nonuniform 0();
    }
    frontAndBack
    {
        type            empty;
    }
    procBoundary3to1
    {
        type            processor;
        value           nonuniform List<scalar> 
36
(
0.8696377933
1.591763345
0.4151035411
1.505305417
1.061624568
0.4440317271
0.4440317271
0.8788772254
0.2924062514
0.9785891216
0.8435892452
0.8593784156
0.8593784156
0.4694914315
0.3585645758
1.383566727
1.154467762
1.027189662
1.027189662
0.1657127368
0.7892663349
0.5263047663
0.218538186
0.6818216415
0.4543574134
0.4543574134
0.8009331304
0.3044645372
0.5729958082
0.5197211995
1.079487359
0.6980754703
0.6980754703
0.6737407624
0.7350625827
0.7350625827
)
;
    }
    procBoundary3to2
    {
        type            processor;
        value           nonuniform List<scalar> 
19
(
1.271961277
0.6261652054
0.4313059387
0.298388186
0.4124152961
0.7721854535
0.3628068022
0.4133697322
0.5533435893
1.104559651
0.1277643701
0.2142906415
1.005596101
1.039998093
0.4447549412
0.3852793659
0.584618781
0.7007590286
0.5932663875
)
;
    }
}


// ************************************************************************* //
