/*--------------------------------*- C++ -*----------------------------------*\
  =========                 |
  \\      /  F ield         | OpenFOAM: The Open Source CFD Toolbox
   \\    /   O peration     | Website:  https://openfoam.org
    \\  /    A nd           | Version:  7
     \\/     M anipulation  |
\*---------------------------------------------------------------------------*/
FoamFile
{
    version     2.0;
    format      ascii;
    class       volScalarField;
    location    "0.002";
    object      p;
}
// * * * * * * * * * * * * * * * * * * * * * * * * * * * * * * * * * * * * * //

dimensions      [1 -1 -2 0 0 0 0];

internalField   nonuniform List<scalar> 
654
(
2.3970743
2.372428639
2.403252402
2.372641157
2.378730393
2.390170781
2.332541475
1.906468769
1.994909343
2.04804133
2.108867676
2.189955982
2.267831522
2.315881146
2.376585305
2.378002336
2.357252974
2.35652691
1.246594988
1.305440857
1.447616077
1.520282681
1.627098655
1.754864493
1.906257593
1.951334299
1.992617974
2.05774918
2.089995663
2.167669628
2.240167017
2.299110013
2.229862213
2.274203742
0.6910465618
0.742783535
0.7934079314
0.8249420785
0.877431877
0.9428479049
1.049259828
1.150083639
1.236157726
1.315708951
1.428469932
1.557971693
1.630688133
1.755273477
1.847849726
1.913320435
1.988913186
2.086731644
2.11510643
2.15020388
2.156400107
2.151168949
0.4881032286
0.4943647286
0.5190958799
0.5489701083
0.5826247372
0.5966004601
0.6173795473
0.6631764877
0.6799291264
0.774842561
0.7859994373
0.8460649235
0.9121915324
0.9733248222
1.080039403
1.123557577
1.273866642
1.368001997
1.47636423
1.561200422
1.662260961
1.727572639
1.836650706
1.945854747
2.005758775
2.065416581
2.107340107
2.135288994
0.4493063244
0.4552629226
0.4612165698
0.4877754179
0.4726248597
0.4993449016
0.5329745444
0.5650645125
0.5762470423
0.6030827531
0.6561389199
0.6823183559
0.7395097266
0.7486837757
0.850273054
0.895460896
0.9514051667
1.044208225
1.104009901
1.173259714
1.298101253
1.399181888
1.49580011
1.588639754
1.619386135
1.742053577
1.849224591
1.919261384
1.969803148
2.074863832
0.456740895
0.4450192573
0.4462202597
0.4720610537
0.4860810146
0.4868474566
0.4983486298
0.5249454459
0.5483225135
0.5527726925
0.5757104062
0.6100794535
0.6752845013
0.6978487259
0.7199232395
0.793546263
0.8453009613
0.8999670228
0.974946795
1.036911168
1.128140076
1.242733472
1.282310708
1.428758209
1.520017792
1.596071284
1.65925023
1.750329862
1.878288891
1.921261551
0.4378378217
0.4340834541
0.439872128
0.4480119397
0.4656872427
0.4802788637
0.4927224826
0.4937403097
0.503343758
0.5159475678
0.5458926312
0.5703478592
0.5932029896
0.6353113204
0.6725228577
0.6926923657
0.7453859689
0.819173338
0.8497553156
0.933856097
1.011504455
1.101517592
1.166530762
1.22428929
1.366442456
1.472029902
1.618132259
1.672186576
1.751818776
1.830234812
0.4291883335
0.4260682559
0.434543373
0.4319703225
0.43222196
0.4558111851
0.4755458135
0.4784690656
0.4911043753
0.5020637463
0.5156118904
0.5193904472
0.5542359086
0.5853486093
0.6292724239
0.6355653398
0.6902698108
0.7358793101
0.7825040387
0.8054031601
0.8635815306
0.9413694793
1.03009698
1.140217679
1.221148774
1.31746774
1.459881511
1.519783878
1.60745596
1.682895472
0.4396797975
0.4395006204
0.4338677376
0.4411935966
0.4562738758
0.4441702732
0.460011764
0.4844299137
0.4780973445
0.482880031
0.5024295318
0.5211597958
0.5178748297
0.5340385535
0.5796728311
0.5626032727
0.6110150419
0.6434423058
0.6705497649
0.7312592854
0.7847562248
0.8534017696
0.9335564966
1.03582449
1.096672358
1.185217498
1.278722109
1.346852077
1.428340744
1.54797659
0.4237584035
0.4335007362
0.4323948225
0.4408665015
0.4397390641
0.4512433185
0.4520181614
0.4720480439
0.4777720554
0.4990454027
0.4870481501
0.5061100447
0.5030200005
0.5008820468
0.5029399678
0.5387348015
0.5346135412
0.5884996791
0.6262434047
0.6684094881
0.7097633724
0.7512447685
0.8036932849
0.8820299832
0.9438260218
1.056355815
1.138680234
1.262220835
1.387714737
1.416981866
0.4254368942
0.4332749494
0.4364721299
0.4257146342
0.4366529179
0.4402826712
0.4363747643
0.4524279578
0.4614210967
0.4539535607
0.4539746725
0.4580235877
0.4900897566
0.4896033517
0.4851089663
0.5083166767
0.5232971985
0.5554603285
0.5805751859
0.6026199843
0.6739870037
0.6915834802
0.7315120432
0.7739757451
0.8640207467
0.934213277
0.99303821
1.080292581
1.199833144
1.305030159
0.4481349325
0.4333638814
0.4213529384
0.4203574079
0.4222415728
0.4313363353
0.4413755042
0.4434927987
0.4477521343
0.4640037132
0.4409903659
0.4458285782
0.4518231087
0.4888094851
0.4928759991
0.5046928267
0.5307781199
0.5263669667
0.5457423101
0.5886815393
0.6028393221
0.6514931175
0.6707010035
0.7215564702
0.7238407395
0.8025900415
0.8820262083
0.9574142111
1.05161594
1.156315653
0.4174197544
0.4268974412
0.4368675079
0.4360275827
0.4296770421
0.4280460913
0.4209828657
0.4214684589
0.4203924752
0.4406967007
0.4520676207
0.4606876328
0.4481160416
0.4632995035
0.4776406052
0.4893285973
0.4836841155
0.5281811586
0.5475009462
0.5645504575
0.5708771645
0.6042477363
0.6170722202
0.6383937416
0.6794532448
0.6996658143
0.7857140487
0.8322787488
0.9140227739
0.9872700137
0.4148652164
0.4142183354
0.4111220058
0.4055581837
0.4121381497
0.4037960694
0.4061151196
0.4142365242
0.4277152193
0.4245562433
0.4453364994
0.4538139405
0.4561555044
0.4552086028
0.4690996783
0.4869172262
0.5133313868
0.4930492016
0.4953695321
0.5164357518
0.5243127558
0.5490048021
0.5735158799
0.6035393196
0.6387295691
0.6484218849
0.6830585036
0.7379184312
0.8013396463
0.8781526742
0.4251479446
0.423469283
0.4307114513
0.423607844
0.4251924852
0.4314551356
0.4156559242
0.4139531696
0.420513574
0.4227232049
0.4159978792
0.4351577185
0.4520360469
0.4561184601
0.4554353895
0.4656714484
0.467564525
0.4784828454
0.4814870253
0.489471588
0.4904265976
0.5170373071
0.5579676309
0.5731282367
0.5821999199
0.6021494443
0.6266115096
0.6657308661
0.7508291065
0.8080393089
0.4095958785
0.412119109
0.4086417022
0.4165216323
0.4218053582
0.4163536718
0.4295935457
0.4209936497
0.4178035292
0.4280759055
0.438597985
0.438451828
0.4444795171
0.4495759637
0.4577963392
0.4598117677
0.4628506962
0.4725002332
0.4786790906
0.4988722064
0.4880964784
0.4904242265
0.5013367013
0.53015722
0.5468473899
0.574978893
0.5953099344
0.6129209446
0.668759735
0.7310088757
0.4066336074
0.4014323135
0.4020205468
0.4117768303
0.4163284327
0.4222775874
0.4144025426
0.4340605152
0.4372396284
0.4384199857
0.4369357073
0.4361770753
0.4316601747
0.4324188126
0.4394018296
0.4394637702
0.4350059901
0.4446768571
0.4645704512
0.4800890284
0.4831108612
0.4825976891
0.496692976
0.5020328232
0.5203284072
0.5266017586
0.5742086814
0.5743757268
0.5996732293
0.651721224
0.4231075046
0.42119525
0.4206123844
0.4120647672
0.4100139908
0.4141884391
0.432295001
0.4225875007
0.440413265
0.4397824789
0.4317926713
0.4411085912
0.4360333716
0.4322043729
0.4403076735
0.4315777488
0.4268585308
0.4308038803
0.4315259734
0.4559926655
0.472381651
0.4687464706
0.4767147821
0.5020121444
0.4936778191
0.5241563538
0.5372225329
0.5529124709
0.5728828259
0.5993043487
0.3971997819
0.4034960489
0.4065772563
0.4168087091
0.4199308038
0.4149808981
0.4195008802
0.4219038235
0.4237319456
0.4192322327
0.4191023046
0.4126618605
0.4172296658
0.4217425561
0.4238701934
0.4380226892
0.4478234883
0.4436279311
0.4387286955
0.4453839494
0.4367081146
0.4635282292
0.4650785984
0.4868692869
0.4990946919
0.4992988519
0.5364581816
0.530348305
0.5449205545
0.5673131065
0.4238487521
0.4271065541
0.4189262763
0.4046976859
0.4145033728
0.4174902235
0.4149369082
0.4131072646
0.4035211803
0.4092959342
0.4078241296
0.4184783102
0.41636398
0.4269230612
0.4260922013
0.4244622842
0.4429848128
0.4395034297
0.4351473823
0.4327292398
0.4479886329
0.4545562726
0.4667857598
0.4760774971
0.4688834337
0.4749496179
0.4764473233
0.5094007227
0.5286376177
0.5430261454
0.4089004151
0.4075212954
0.4196870132
0.4241068682
0.4312459065
0.4213216675
0.4242227379
0.4111330192
0.4221669495
0.4235070362
0.4097344942
0.4105934077
0.4293886937
0.4225857835
0.4355931107
0.4273499642
0.4186277427
0.4319650196
0.445724845
0.4385889289
0.4370486836
0.4394058108
0.4453432339
0.456663699
0.4709632399
0.4685983936
0.4775671071
0.4688083016
0.4716000076
0.5052619304
0.4268991088
0.4299540329
0.4285323537
0.4265908916
0.4271046516
0.4219213738
0.4228859667
0.4230913565
0.4123049074
0.4146121464
0.4187535492
0.4134060744
0.4052178379
0.4065297324
0.4129892654
0.4251520716
0.4204699946
0.4324025965
0.421981169
0.4425489597
0.4248347316
0.4282132699
0.4373978316
0.4423867516
0.4392819673
0.4454282946
0.465772072
0.470116718
0.4936690666
0.4874323349
0.4053353922
0.4035711597
0.4064504507
0.3920329191
0.38237555
0.3933726324
0.39570278
0.4035227077
0.4055276693
0.4075476401
0.4052582078
0.4013231985
0.4010843301
0.4040823898
0.4078194162
0.4032636201
0.3970206059
0.4001029682
0.4091056819
0.4170663687
0.4190541623
0.4223943939
0.4196853644
0.4252998427
0.438401738
0.4301974244
0.4336451896
0.4511616326
0.4560703491
0.469605102
)
;

boundaryField
{
    flow
    {
        type            calculated;
        value           nonuniform List<scalar> 
55
(
2.3970743
2.332541475
2.35652691
2.274203742
2.151168949
2.135288994
2.074863832
1.921261551
1.830234812
1.682895472
1.54797659
1.416981866
1.305030159
1.156315653
0.9872700137
0.8781526742
0.8080393089
0.7310088757
0.651721224
0.5993043487
0.5673131065
0.5430261454
0.5052619304
0.4874323349
0.469605102
0.4053353922
0.4035711597
0.4064504507
0.3920329191
0.38237555
0.3933726324
0.39570278
0.4035227077
0.4055276693
0.4075476401
0.4052582078
0.4013231985
0.4010843301
0.4040823898
0.4078194162
0.4032636201
0.3970206059
0.4001029682
0.4091056819
0.4170663687
0.4190541623
0.4223943939
0.4196853644
0.4252998427
0.438401738
0.4301974244
0.4336451896
0.4511616326
0.4560703491
0.469605102
)
;
    }
    obstacle
    {
        type            calculated;
        value           nonuniform 0();
    }
    frontAndBack
    {
        type            empty;
    }
    procBoundary3to1
    {
        type            processor;
        value           nonuniform List<scalar> 
36
(
2.314213554
2.49051488
2.469979741
2.450535938
2.396771906
2.402207529
2.402207529
2.065692085
2.218761718
2.211725049
2.274715907
2.317804101
2.317804101
1.377621318
1.535319439
1.59799955
1.695777632
1.866994138
1.866994138
0.7470601273
0.8028325632
0.8982194494
0.9751910041
1.0622343
1.14265912
1.14265912
0.4967557651
0.5116211034
0.5688041295
0.6061917873
0.6241287531
0.6467416432
0.6467416432
0.4490653967
0.4612976168
0.4612976168
)
;
    }
    procBoundary3to2
    {
        type            processor;
        value           nonuniform List<scalar> 
19
(
0.4499416094
0.4471298213
0.4415505795
0.4206870079
0.4276054415
0.4161783273
0.4301203536
0.4367305773
0.4267122
0.4196231952
0.4184535014
0.4105568569
0.4127102638
0.4172044277
0.3960838614
0.4258460243
0.415035571
0.4218716964
0.3994493245
)
;
    }
}


// ************************************************************************* //
