/*--------------------------------*- C++ -*----------------------------------*\
  =========                 |
  \\      /  F ield         | OpenFOAM: The Open Source CFD Toolbox
   \\    /   O peration     | Website:  https://openfoam.org
    \\  /    A nd           | Version:  7
     \\/     M anipulation  |
\*---------------------------------------------------------------------------*/
FoamFile
{
    version     2.0;
    format      ascii;
    class       volScalarField;
    location    "0.002";
    object      rhoMMean;
}
// * * * * * * * * * * * * * * * * * * * * * * * * * * * * * * * * * * * * * //

dimensions      [1 -3 0 0 0 0 0];

internalField   nonuniform List<scalar> 
654
(
4.432168507e-06
3.670362418e-06
3.667306348e-06
3.795656596e-06
3.861381396e-06
4.155919341e-06
4.479768233e-06
3.190860041e-06
3.10211327e-06
3.208506863e-06
3.204611903e-06
3.256245391e-06
3.646856069e-06
3.747992342e-06
3.502934911e-06
3.67263743e-06
3.897765043e-06
4.460055668e-06
2.925252079e-06
2.901477406e-06
3.150081495e-06
2.850097955e-06
3.246158248e-06
3.358489667e-06
3.206260903e-06
3.291982073e-06
3.403825522e-06
3.330446845e-06
3.561219613e-06
3.7179558e-06
3.658244356e-06
3.826001971e-06
3.992324027e-06
4.727712865e-06
2.838698689e-06
2.967514551e-06
2.821399535e-06
2.780005679e-06
2.763558046e-06
2.890180367e-06
3.055879747e-06
2.811586499e-06
2.932760862e-06
2.981648913e-06
3.082976035e-06
3.160378093e-06
3.319234562e-06
3.191358671e-06
3.245659362e-06
3.483295967e-06
3.344984034e-06
3.50577794e-06
3.640275365e-06
3.853804272e-06
3.865822271e-06
4.452459169e-06
2.683784465e-06
2.849649389e-06
2.894196579e-06
3.087630743e-06
2.856936755e-06
2.860265589e-06
2.654151851e-06
2.730221904e-06
2.886202775e-06
2.749881808e-06
2.609197045e-06
2.965300454e-06
3.051712401e-06
2.755175972e-06
2.837057881e-06
2.948698211e-06
2.984017124e-06
2.819758389e-06
3.129885981e-06
3.377867251e-06
3.223617716e-06
3.290137331e-06
3.501438765e-06
3.51434155e-06
3.657837456e-06
4.182620534e-06
4.08078055e-06
4.314218187e-06
2.732128465e-06
2.662439202e-06
2.760595233e-06
2.719269936e-06
2.618881017e-06
2.763741886e-06
2.852466225e-06
2.678068673e-06
2.741318913e-06
2.793038696e-06
2.819619257e-06
2.836573238e-06
2.807919172e-06
2.597608499e-06
2.91156278e-06
2.943658676e-06
2.806748482e-06
3.086968919e-06
2.874707679e-06
2.964069941e-06
3.100638305e-06
3.384372554e-06
3.10378102e-06
3.410451505e-06
3.692352942e-06
3.610706954e-06
3.678753186e-06
4.050852558e-06
4.009039158e-06
4.684864614e-06
2.538849181e-06
2.833283685e-06
2.682874669e-06
2.758416909e-06
2.715181339e-06
2.732081571e-06
2.862188399e-06
2.76007055e-06
2.692948754e-06
2.682718435e-06
2.733121068e-06
2.757491576e-06
2.929041009e-06
2.876848183e-06
2.881632942e-06
2.964181369e-06
2.931704616e-06
3.259549499e-06
3.005802757e-06
3.042117459e-06
3.186531061e-06
3.501940245e-06
3.369359414e-06
3.572335499e-06
3.521026066e-06
3.755595524e-06
3.744029065e-06
3.961753017e-06
3.842114189e-06
4.46705901e-06
2.679125922e-06
2.782821601e-06
2.845342641e-06
2.805578272e-06
2.851306019e-06
2.88398497e-06
2.883882615e-06
2.856378442e-06
2.70250106e-06
2.701280519e-06
2.890058651e-06
2.987821812e-06
3.060120568e-06
2.996452504e-06
2.964967338e-06
2.92935804e-06
2.945423831e-06
3.120089226e-06
3.047890811e-06
3.186523572e-06
3.338736991e-06
3.388506012e-06
3.469142887e-06
3.395773945e-06
3.611332884e-06
3.764735454e-06
3.632321497e-06
4.213831734e-06
3.996706229e-06
4.449722162e-06
2.69798272e-06
2.991091146e-06
2.957838594e-06
3.073005073e-06
2.802628106e-06
2.751364195e-06
2.780839666e-06
2.92086388e-06
2.59485978e-06
2.579805205e-06
2.824036083e-06
2.825519693e-06
3.146394458e-06
3.124720538e-06
3.046545313e-06
2.813419917e-06
2.893015518e-06
3.19057726e-06
3.251942038e-06
3.371069803e-06
3.181650052e-06
3.347122609e-06
3.556222068e-06
3.499179896e-06
3.457795008e-06
3.409855337e-06
4.023794156e-06
4.053137908e-06
4.227128091e-06
4.655223014e-06
2.793852654e-06
2.853723375e-06
2.871029097e-06
2.824030046e-06
2.996221412e-06
2.735198391e-06
3.079942031e-06
2.778261861e-06
2.793273821e-06
2.740874251e-06
2.693731766e-06
2.989827355e-06
3.086508908e-06
2.960815951e-06
3.384332482e-06
3.002886834e-06
2.970509604e-06
3.125444793e-06
3.17241286e-06
3.451434139e-06
3.30729712e-06
3.719846886e-06
3.494024763e-06
3.401479175e-06
3.579317286e-06
3.6154477e-06
3.718575955e-06
3.830468871e-06
4.22066863e-06
4.456274512e-06
2.877751655e-06
2.818120763e-06
2.771691549e-06
2.754802501e-06
2.844893711e-06
2.884946018e-06
3.04182892e-06
2.931485444e-06
2.838260409e-06
2.850128338e-06
2.945283811e-06
2.887981408e-06
2.818548716e-06
3.221024408e-06
3.076315608e-06
2.947500388e-06
2.782181648e-06
3.105747489e-06
3.478179707e-06
3.471736932e-06
3.254956382e-06
3.619433753e-06
3.436341777e-06
3.317649201e-06
3.807053988e-06
3.510627245e-06
3.869282956e-06
3.8824211e-06
4.234693805e-06
4.638405576e-06
2.888814036e-06
2.91864987e-06
2.789441447e-06
2.794347454e-06
2.952811976e-06
3.279457697e-06
3.082571595e-06
2.768477836e-06
3.029015326e-06
2.711973958e-06
2.953740034e-06
2.999589827e-06
3.033319238e-06
3.168100103e-06
2.869762086e-06
2.872220896e-06
2.987329071e-06
3.027018985e-06
3.292554425e-06
3.411273228e-06
3.517315822e-06
3.533004159e-06
3.269161096e-06
3.427372651e-06
3.500603874e-06
3.56283408e-06
3.91509766e-06
4.039515628e-06
4.107712789e-06
4.359046757e-06
2.874758054e-06
2.815041759e-06
2.799853989e-06
3.151693288e-06
3.024080459e-06
3.082647251e-06
3.032245238e-06
3.011081674e-06
3.192281991e-06
2.96406648e-06
3.059595882e-06
2.959283981e-06
2.895717655e-06
3.029246093e-06
3.052315608e-06
3.134611131e-06
3.096667837e-06
3.208339995e-06
3.292815214e-06
3.495878668e-06
3.547539605e-06
3.515362018e-06
3.52639391e-06
3.499426249e-06
3.437159118e-06
3.748167614e-06
4.08691787e-06
3.934592851e-06
4.243479976e-06
4.449984553e-06
2.940989011e-06
3.179292087e-06
2.928954149e-06
2.979028233e-06
3.204648561e-06
3.214403323e-06
3.032061735e-06
3.01193134e-06
3.068359872e-06
2.879288291e-06
2.786595065e-06
2.882708066e-06
3.026472281e-06
3.147501498e-06
3.077799062e-06
3.021521713e-06
2.961139576e-06
3.354675271e-06
3.17546757e-06
3.299059096e-06
3.548248316e-06
3.581076765e-06
3.487572569e-06
3.439762556e-06
3.436655467e-06
3.773213429e-06
4.000226892e-06
4.140722647e-06
4.225081635e-06
4.557028644e-06
2.992470533e-06
3.170981508e-06
2.929053189e-06
3.217957205e-06
3.230571117e-06
3.078644621e-06
3.075255423e-06
3.094948823e-06
2.915413358e-06
2.920765038e-06
2.930936762e-06
3.061905599e-06
2.949199564e-06
3.061445354e-06
3.18215855e-06
3.10690746e-06
3.346347355e-06
3.436413662e-06
3.337523262e-06
3.356978469e-06
3.345217909e-06
3.544539639e-06
3.47746921e-06
3.676265185e-06
3.455960196e-06
3.726592776e-06
3.913393106e-06
4.249550144e-06
4.365254565e-06
4.600178114e-06
3.227020568e-06
2.89884724e-06
2.96993824e-06
3.096683357e-06
3.203461578e-06
3.148395355e-06
3.140571744e-06
2.979342414e-06
2.934265357e-06
3.011796181e-06
2.857675429e-06
3.174438293e-06
3.314496577e-06
3.022798483e-06
3.139024673e-06
3.311487149e-06
3.429781496e-06
3.233220625e-06
3.240458708e-06
3.140645834e-06
3.590649518e-06
3.541904555e-06
3.862713683e-06
3.503932906e-06
3.632703546e-06
3.642043543e-06
4.052881255e-06
4.148614071e-06
4.53055422e-06
4.699708569e-06
3.102237619e-06
2.915426044e-06
2.982745257e-06
3.084148955e-06
3.105678167e-06
3.298533994e-06
3.120427239e-06
3.215226924e-06
3.137431338e-06
3.028023923e-06
2.974368168e-06
3.045673854e-06
2.985962081e-06
3.022366277e-06
3.126990274e-06
3.411061821e-06
3.299971447e-06
3.26310117e-06
3.384044263e-06
3.702183059e-06
3.803651822e-06
3.573802873e-06
3.784792624e-06
3.639592976e-06
3.499713691e-06
3.904981579e-06
3.955638055e-06
4.232635313e-06
4.399125482e-06
4.449266612e-06
3.282595176e-06
2.968707195e-06
2.979994012e-06
3.080634327e-06
3.101536123e-06
3.21711609e-06
3.085003835e-06
3.243176958e-06
3.386730263e-06
3.063348422e-06
3.190746061e-06
3.273342618e-06
3.132562133e-06
3.159488736e-06
3.242360445e-06
3.290537155e-06
3.275611535e-06
3.273207732e-06
3.524900708e-06
3.708758363e-06
3.549349236e-06
3.348036323e-06
3.660453556e-06
3.69926743e-06
3.661589316e-06
4.018840124e-06
4.00963303e-06
4.082192975e-06
4.301927876e-06
4.495226754e-06
3.423369482e-06
3.18424654e-06
3.301370953e-06
3.155352405e-06
2.995504471e-06
3.025244378e-06
3.212503404e-06
3.342521668e-06
3.192902797e-06
3.260226628e-06
3.330233555e-06
3.272359759e-06
3.629762717e-06
3.3335463e-06
3.334921803e-06
3.273395929e-06
3.397233271e-06
3.37228137e-06
3.580424344e-06
3.742161001e-06
3.63717099e-06
3.467956739e-06
3.813324922e-06
4.046737924e-06
4.172648992e-06
3.99291454e-06
4.015956416e-06
4.138555326e-06
4.394880467e-06
4.576799167e-06
3.419037545e-06
3.468838204e-06
3.429916291e-06
3.529222987e-06
3.327772788e-06
3.212551513e-06
3.384203325e-06
3.467195097e-06
3.287444719e-06
3.119098058e-06
3.286534644e-06
3.157037946e-06
3.494260272e-06
3.511926199e-06
3.366120801e-06
3.30499782e-06
3.278726068e-06
3.374323371e-06
3.674052738e-06
3.820913361e-06
3.849632361e-06
3.649728196e-06
3.695565098e-06
3.972648179e-06
3.87193961e-06
3.851930926e-06
4.146174477e-06
4.566372412e-06
4.600971767e-06
4.744247399e-06
3.905734495e-06
3.507889046e-06
3.368394626e-06
3.423774727e-06
3.434224607e-06
3.491683718e-06
3.670251122e-06
3.674040594e-06
3.401836695e-06
3.22059951e-06
3.212048154e-06
3.528850363e-06
3.277176633e-06
3.390334149e-06
3.331541132e-06
3.65739268e-06
3.703863649e-06
3.578300317e-06
3.767677027e-06
3.760770471e-06
3.900965462e-06
3.489957484e-06
3.60269357e-06
3.777215707e-06
4.041589265e-06
4.007904674e-06
4.100985003e-06
4.029116426e-06
4.301966264e-06
4.641845994e-06
3.85130424e-06
3.848370279e-06
3.502336102e-06
3.41165296e-06
3.545448978e-06
3.507849563e-06
3.542118912e-06
3.675457061e-06
3.474157558e-06
3.316883486e-06
3.337188599e-06
3.495702878e-06
3.400502625e-06
3.427303798e-06
3.491016898e-06
3.707050266e-06
3.642019562e-06
3.764930484e-06
3.616881086e-06
3.864097912e-06
3.726009606e-06
3.573501395e-06
3.791663078e-06
3.727583149e-06
3.766506545e-06
3.966477246e-06
3.907685323e-06
4.034801655e-06
4.195754093e-06
4.44953352e-06
3.495533761e-06
3.995019212e-06
3.91132779e-06
3.395214485e-06
3.430438481e-06
3.600236532e-06
3.64167788e-06
3.665967207e-06
3.54871957e-06
3.43112039e-06
3.638671494e-06
3.562468739e-06
3.396020706e-06
3.732776864e-06
3.850896931e-06
3.54262259e-06
3.565138714e-06
3.795324028e-06
3.803303125e-06
3.753437466e-06
3.978197889e-06
3.863302483e-06
3.86946782e-06
3.741376153e-06
4.02895465e-06
3.95889607e-06
3.799163437e-06
4.100468779e-06
4.274599406e-06
4.419903439e-06
3.756154209e-06
3.722781188e-06
3.848471538e-06
3.619848061e-06
3.665014701e-06
3.571997567e-06
3.917072163e-06
3.703996647e-06
3.392934508e-06
3.891153983e-06
3.617588458e-06
3.720176779e-06
3.826882121e-06
3.78400334e-06
3.871157267e-06
3.589890957e-06
3.766425498e-06
3.963278165e-06
3.977096706e-06
3.789796211e-06
3.995147539e-06
3.784675587e-06
4.095015406e-06
4.17830549e-06
3.944045551e-06
4.165026544e-06
4.232722755e-06
4.26769673e-06
4.343608671e-06
4.319595621e-06
)
;

boundaryField
{
    flow
    {
        type            calculated;
        value           nonuniform List<scalar> 
55
(
4.432168507e-06
4.479768233e-06
4.460055668e-06
4.727712865e-06
4.452459169e-06
4.314218187e-06
4.684864614e-06
4.46705901e-06
4.449722162e-06
4.655223014e-06
4.456274512e-06
4.638405576e-06
4.359046757e-06
4.449984553e-06
4.557028644e-06
4.600178114e-06
4.699708569e-06
4.449266612e-06
4.495226754e-06
4.576799167e-06
4.744247399e-06
4.641845994e-06
4.44953352e-06
4.419903439e-06
4.319595621e-06
3.756154209e-06
3.722781188e-06
3.848471538e-06
3.619848061e-06
3.665014701e-06
3.571997567e-06
3.917072163e-06
3.703996647e-06
3.392934508e-06
3.891153983e-06
3.617588458e-06
3.720176779e-06
3.826882121e-06
3.78400334e-06
3.871157267e-06
3.589890957e-06
3.766425498e-06
3.963278165e-06
3.977096706e-06
3.789796211e-06
3.995147539e-06
3.784675587e-06
4.095015406e-06
4.17830549e-06
3.944045551e-06
4.165026544e-06
4.232722755e-06
4.26769673e-06
4.343608671e-06
4.319595621e-06
)
;
    }
    obstacle
    {
        type            calculated;
        value           nonuniform 0();
    }
    frontAndBack
    {
        type            empty;
    }
    procBoundary3to1
    {
        type            processor;
        value           nonuniform List<scalar> 
36
(
4.290128175e-06
3.246564026e-06
3.510001759e-06
3.92168871e-06
3.880356705e-06
4.135458738e-06
4.135458738e-06
3.050439057e-06
2.938444943e-06
3.346551442e-06
3.457128934e-06
3.404654803e-06
3.404654803e-06
2.865574717e-06
2.823713951e-06
3.191691699e-06
3.10483283e-06
3.055666106e-06
3.055666106e-06
2.814221308e-06
2.931968868e-06
2.792458051e-06
2.776883045e-06
2.68453026e-06
2.986633761e-06
2.986633761e-06
2.742483805e-06
2.635748871e-06
2.836510286e-06
2.955455708e-06
2.937569522e-06
2.764234111e-06
2.764234111e-06
2.625112489e-06
2.452310429e-06
2.452310429e-06
)
;
    }
    procBoundary3to2
    {
        type            processor;
        value           nonuniform List<scalar> 
19
(
2.836925462e-06
2.735599728e-06
2.731703475e-06
2.751965752e-06
2.71491184e-06
2.800124748e-06
2.763001796e-06
3.044086072e-06
3.094023138e-06
3.165929769e-06
3.087798264e-06
3.245437379e-06
3.456692227e-06
3.299794925e-06
3.559438187e-06
3.719380953e-06
3.613390851e-06
3.902711729e-06
3.54000812e-06
)
;
    }
}


// ************************************************************************* //
