/*--------------------------------*- C++ -*----------------------------------*\
  =========                 |
  \\      /  F ield         | OpenFOAM: The Open Source CFD Toolbox
   \\    /   O peration     | Website:  https://openfoam.org
    \\  /    A nd           | Version:  7
     \\/     M anipulation  |
\*---------------------------------------------------------------------------*/
FoamFile
{
    version     2.0;
    format      ascii;
    class       volScalarField;
    location    "0.002";
    object      rhoNMean;
}
// * * * * * * * * * * * * * * * * * * * * * * * * * * * * * * * * * * * * * //

dimensions      [0 -3 0 0 0 0 0];

internalField   nonuniform List<scalar> 
654
(
2.273906843e+20
2.264250818e+20
2.303934801e+20
2.299715121e+20
2.302410579e+20
2.342697628e+20
2.298550428e+20
1.856903966e+20
1.909523546e+20
1.961861647e+20
2.035575893e+20
2.112613562e+20
2.198099538e+20
2.230735116e+20
2.285302906e+20
2.295138631e+20
2.305155754e+20
2.318350803e+20
1.381581822e+20
1.431649124e+20
1.507962285e+20
1.587987973e+20
1.642875424e+20
1.73271074e+20
1.850902435e+20
1.918906963e+20
1.961219399e+20
2.011833031e+20
2.062258103e+20
2.127596425e+20
2.185526193e+20
2.213049527e+20
2.194364905e+20
2.23174206e+20
1.123646465e+20
1.151438617e+20
1.169381881e+20
1.175654624e+20
1.188300527e+20
1.216029336e+20
1.280209991e+20
1.336121843e+20
1.392453936e+20
1.435762547e+20
1.506938272e+20
1.587405938e+20
1.657295044e+20
1.754512572e+20
1.843532862e+20
1.900529232e+20
1.958267282e+20
2.027891111e+20
2.078127608e+20
2.149839499e+20
2.17855778e+20
2.165930812e+20
1.012022609e+20
1.025456477e+20
1.032506448e+20
1.049327956e+20
1.04740003e+20
1.047215844e+20
1.058706134e+20
1.064852554e+20
1.081384731e+20
1.136612553e+20
1.156815851e+20
1.194332248e+20
1.222086817e+20
1.261388739e+20
1.310873751e+20
1.340813837e+20
1.419845447e+20
1.481326927e+20
1.555299555e+20
1.628034911e+20
1.704315023e+20
1.768043983e+20
1.858632064e+20
1.926949727e+20
1.989852916e+20
2.037963397e+20
2.102062683e+20
2.158665914e+20
9.975234545e+19
9.995780973e+19
1.012022594e+20
1.008252749e+20
9.946035811e+19
1.001356009e+20
1.026984689e+20
1.054901165e+20
1.065974677e+20
1.084547575e+20
1.114671126e+20
1.118433567e+20
1.125577132e+20
1.12973687e+20
1.182463055e+20
1.213625113e+20
1.24733782e+20
1.297247659e+20
1.336112319e+20
1.376029848e+20
1.44883523e+20
1.491614096e+20
1.560416498e+20
1.621527723e+20
1.695976266e+20
1.781649152e+20
1.877604108e+20
1.940771016e+20
1.985485284e+20
2.075618406e+20
1.008628236e+20
1.007261952e+20
9.972236284e+19
1.019148446e+20
1.021875156e+20
1.016143476e+20
1.011027892e+20
1.022149822e+20
1.02653386e+20
1.024862031e+20
1.031757702e+20
1.044375631e+20
1.107990007e+20
1.129984846e+20
1.133339581e+20
1.158677997e+20
1.193205179e+20
1.228566827e+20
1.26710999e+20
1.306439909e+20
1.36090354e+20
1.420420699e+20
1.463057636e+20
1.556769136e+20
1.604371742e+20
1.660107512e+20
1.710616659e+20
1.806519671e+20
1.910542688e+20
1.961089739e+20
9.888864093e+19
9.786735206e+19
9.865228197e+19
9.835940891e+19
9.936791209e+19
1.00089027e+20
1.013374481e+20
9.983843875e+19
1.008779531e+20
1.023781206e+20
1.051003308e+20
1.056942309e+20
1.050678058e+20
1.067249238e+20
1.079966249e+20
1.097681687e+20
1.125602935e+20
1.163089392e+20
1.170713492e+20
1.221342127e+20
1.266005699e+20
1.314624956e+20
1.36021565e+20
1.40580071e+20
1.50051703e+20
1.589242566e+20
1.683039464e+20
1.7551965e+20
1.812312805e+20
1.885734435e+20
9.937096912e+19
9.990131158e+19
1.006672208e+20
1.000912502e+20
9.955280412e+19
9.997258946e+19
1.012787833e+20
1.022149822e+20
1.029989401e+20
1.022220023e+20
1.017353772e+20
1.028392772e+20
1.055105583e+20
1.057950482e+20
1.075841386e+20
1.090624262e+20
1.095995163e+20
1.108631633e+20
1.153915175e+20
1.156052721e+20
1.202389974e+20
1.243961865e+20
1.294418166e+20
1.35979514e+20
1.427287867e+20
1.487477206e+20
1.570513496e+20
1.648914185e+20
1.731019122e+20
1.771633098e+20
1.020293865e+20
1.007826933e+20
1.006330679e+20
1.014331397e+20
1.032390898e+20
1.020335214e+20
1.027806011e+20
1.028652799e+20
1.03034687e+20
1.027143772e+20
1.031515627e+20
1.038641334e+20
1.023743902e+20
1.041956621e+20
1.062341799e+20
1.036811394e+20
1.075790748e+20
1.083773281e+20
1.089952352e+20
1.117999798e+20
1.150340717e+20
1.198355675e+20
1.270747135e+20
1.322019305e+20
1.368486764e+20
1.430895104e+20
1.460204749e+20
1.503754904e+20
1.5601048e+20
1.66095056e+20
1.006497023e+20
1.021951667e+20
1.012591801e+20
1.0223598e+20
1.03019529e+20
1.028718644e+20
1.023816794e+20
1.043314042e+20
1.043692398e+20
1.059808697e+20
1.049308718e+20
1.056820286e+20
1.052522855e+20
1.051379361e+20
1.038217553e+20
1.052564567e+20
1.042497901e+20
1.065065443e+20
1.100031342e+20
1.121648708e+20
1.143900291e+20
1.164151042e+20
1.190773783e+20
1.230412905e+20
1.272118302e+20
1.318829631e+20
1.393686952e+20
1.479561706e+20
1.544721114e+20
1.600267461e+20
9.972991227e+19
1.007939938e+20
1.010656549e+20
9.916224924e+19
1.003732625e+20
1.008691524e+20
9.991776169e+19
1.01020799e+20
1.014618203e+20
1.00720856e+20
1.002586709e+20
1.011677897e+20
1.014642863e+20
1.017035955e+20
1.021093097e+20
1.038071657e+20
1.058636032e+20
1.061477629e+20
1.078968837e+20
1.099364306e+20
1.122738858e+20
1.131669879e+20
1.149583495e+20
1.178201315e+20
1.23264534e+20
1.281886459e+20
1.312895514e+20
1.377614603e+20
1.460181329e+20
1.520211339e+20
1.041606072e+20
1.021725656e+20
1.017942194e+20
1.013872639e+20
1.018986218e+20
1.025807733e+20
1.038600313e+20
1.025223949e+20
1.029631931e+20
1.035550187e+20
1.016627515e+20
1.022902487e+20
1.02349792e+20
1.051751303e+20
1.055217022e+20
1.063780832e+20
1.07718853e+20
1.075572585e+20
1.086334262e+20
1.098843033e+20
1.121818796e+20
1.136310054e+20
1.145838923e+20
1.169431915e+20
1.172074759e+20
1.20909882e+20
1.251505096e+20
1.286855087e+20
1.336264904e+20
1.413090013e+20
1.007730887e+20
1.022742651e+20
1.027163097e+20
1.029241289e+20
1.019795121e+20
1.016027039e+20
1.019475612e+20
1.014700957e+20
1.009017844e+20
1.025222314e+20
1.029094805e+20
1.034005078e+20
1.03050818e+20
1.035137534e+20
1.034467671e+20
1.043616768e+20
1.037669177e+20
1.066987481e+20
1.083491461e+20
1.092587759e+20
1.107492112e+20
1.111253145e+20
1.114544994e+20
1.116815574e+20
1.143626994e+20
1.160894176e+20
1.200508111e+20
1.231895942e+20
1.268379034e+20
1.317649446e+20
1.014348881e+20
1.014719796e+20
1.007582908e+20
1.004812012e+20
1.0002659e+20
9.998423388e+19
9.91316551e+19
9.987391029e+19
1.003894111e+20
1.005046911e+20
1.014690851e+20
1.015460091e+20
1.023128967e+20
1.020383507e+20
1.037592573e+20
1.043364709e+20
1.051265862e+20
1.037900636e+20
1.035939301e+20
1.044500336e+20
1.047819501e+20
1.062199994e+20
1.076029409e+20
1.10791127e+20
1.129607286e+20
1.123126995e+20
1.157548674e+20
1.17945401e+20
1.196823668e+20
1.24585538e+20
1.008179558e+20
1.000143093e+20
1.001435646e+20
9.938016304e+19
9.992258893e+19
1.000540959e+20
9.931938073e+19
9.948373089e+19
9.924550807e+19
9.907560061e+19
9.829779793e+19
9.938649403e+19
1.001114292e+20
9.990583597e+19
9.9634387e+19
9.988777409e+19
1.00107246e+20
1.008173103e+20
1.009837301e+20
1.013354287e+20
1.024292194e+20
1.052256784e+20
1.074424593e+20
1.074992328e+20
1.071214535e+20
1.077943744e+20
1.090199379e+20
1.119600275e+20
1.179322934e+20
1.204830164e+20
9.869795277e+19
9.840974127e+19
9.862951431e+19
9.93457556e+19
9.967991739e+19
9.892465875e+19
1.003401477e+20
9.941278932e+19
9.850673657e+19
9.966404963e+19
1.012512112e+20
1.017900221e+20
1.023374933e+20
1.031665998e+20
1.032217741e+20
1.033660749e+20
1.035000658e+20
1.038541315e+20
1.051057787e+20
1.042936526e+20
1.039013191e+20
1.020836231e+20
1.016784936e+20
1.048549253e+20
1.060053214e+20
1.080141097e+20
1.080083137e+20
1.094288313e+20
1.12555055e+20
1.141725449e+20
9.789033158e+19
9.763005679e+19
9.796925209e+19
9.947191549e+19
9.949502536e+19
9.986779714e+19
9.895566018e+19
1.014109769e+20
1.021767597e+20
1.028344696e+20
1.024132095e+20
1.022170448e+20
1.016733643e+20
1.012076626e+20
1.018718171e+20
1.022192441e+20
1.00984043e+20
1.014964305e+20
1.023922035e+20
1.027558971e+20
1.030075443e+20
1.03356354e+20
1.029623459e+20
1.024939347e+20
1.021533047e+20
1.03344714e+20
1.064146566e+20
1.056110586e+20
1.072201571e+20
1.110529198e+20
1.026911866e+20
1.023194627e+20
1.024203301e+20
1.007679299e+20
1.010550519e+20
1.022547497e+20
1.040360255e+20
1.023923361e+20
1.029036148e+20
1.018256991e+20
1.018443145e+20
1.018022235e+20
1.010215331e+20
1.001785995e+20
1.004468616e+20
9.938367148e+19
9.883652615e+19
9.90490352e+19
9.917468051e+19
1.009314423e+20
1.015091563e+20
1.014340001e+20
1.021866855e+20
1.042747955e+20
1.037730564e+20
1.050476701e+20
1.056801899e+20
1.07820612e+20
1.087585281e+20
1.09315049e+20
9.928123494e+19
9.9765715e+19
9.927839342e+19
1.009399671e+20
1.012283882e+20
1.010438075e+20
1.006921361e+20
1.014109777e+20
1.012354228e+20
1.010451035e+20
1.00488649e+20
9.999652575e+19
1.001360258e+20
1.010464834e+20
1.003218647e+20
1.008455667e+20
1.021022757e+20
1.02752163e+20
1.014101489e+20
1.020782433e+20
1.012594268e+20
1.03011657e+20
1.047410183e+20
1.058397943e+20
1.068220025e+20
1.069703625e+20
1.088536443e+20
1.075549062e+20
1.06782639e+20
1.071070939e+20
1.019845187e+20
1.029409503e+20
1.017600679e+20
1.00079781e+20
1.01424836e+20
1.00659567e+20
9.917858614e+19
9.885708034e+19
9.876888178e+19
9.968806796e+19
9.899983937e+19
1.006065598e+20
9.950879203e+19
1.007489224e+20
1.006718538e+20
1.009715914e+20
1.019497886e+20
1.007532432e+20
1.013972279e+20
1.009705386e+20
1.031915559e+20
1.038071129e+20
1.045404162e+20
1.038970371e+20
1.031061004e+20
1.028640409e+20
1.035183598e+20
1.053033993e+20
1.086315058e+20
1.079190518e+20
9.828292487e+19
9.847753992e+19
9.990450341e+19
9.993068139e+19
1.015866172e+20
9.969314202e+19
1.013022492e+20
9.979114437e+19
1.011520124e+20
1.007088476e+20
9.972608834e+19
9.931329014e+19
1.021653123e+20
1.018647739e+20
1.035217647e+20
1.026225256e+20
1.019497894e+20
1.034184696e+20
1.033871816e+20
1.02325847e+20
1.013382884e+20
1.017389252e+20
9.981958042e+19
1.011852727e+20
1.029835981e+20
1.038253871e+20
1.040172434e+20
1.023526657e+20
1.022945503e+20
1.049133856e+20
1.024107636e+20
1.036867362e+20
1.041051372e+20
1.027062158e+20
1.028115262e+20
1.033958305e+20
1.022408848e+20
1.027943376e+20
1.015809769e+20
1.021619557e+20
1.027158133e+20
1.01863226e+20
1.006033764e+20
9.963307245e+19
9.955938934e+19
1.008581693e+20
1.006536544e+20
1.013939218e+20
9.979492607e+19
1.015178751e+20
1.003656512e+20
1.006120281e+20
1.020529508e+20
1.01117815e+20
1.005335521e+20
1.0004867e+20
1.012733833e+20
1.021009453e+20
1.032119279e+20
1.038165334e+20
9.901202669e+19
9.751705903e+19
9.81855456e+19
9.6811074e+19
9.651364133e+19
9.689865939e+19
9.747730908e+19
9.880978671e+19
9.888803835e+19
9.829500497e+19
9.889090125e+19
9.877646154e+19
9.862328631e+19
9.810807645e+19
9.744695456e+19
9.698918789e+19
9.58376308e+19
9.652475915e+19
9.752069235e+19
9.758226471e+19
9.84992391e+19
9.825217371e+19
9.825488527e+19
9.909410954e+19
1.005471626e+20
1.008589475e+20
1.005389166e+20
1.016394563e+20
1.012783793e+20
1.030757988e+20
)
;

boundaryField
{
    flow
    {
        type            calculated;
        value           nonuniform List<scalar> 
55
(
2.273906843e+20
2.298550428e+20
2.318350803e+20
2.23174206e+20
2.165930812e+20
2.158665914e+20
2.075618406e+20
1.961089739e+20
1.885734435e+20
1.771633098e+20
1.66095056e+20
1.600267461e+20
1.520211339e+20
1.413090013e+20
1.317649446e+20
1.24585538e+20
1.204830164e+20
1.141725449e+20
1.110529198e+20
1.09315049e+20
1.071070939e+20
1.079190518e+20
1.049133856e+20
1.038165334e+20
1.030757988e+20
9.901202669e+19
9.751705903e+19
9.81855456e+19
9.6811074e+19
9.651364133e+19
9.689865939e+19
9.747730908e+19
9.880978671e+19
9.888803835e+19
9.829500497e+19
9.889090125e+19
9.877646154e+19
9.862328631e+19
9.810807645e+19
9.744695456e+19
9.698918789e+19
9.58376308e+19
9.652475915e+19
9.752069235e+19
9.758226471e+19
9.84992391e+19
9.825217371e+19
9.825488527e+19
9.909410954e+19
1.005471626e+20
1.008589475e+20
1.005389166e+20
1.016394563e+20
1.012783793e+20
1.030757988e+20
)
;
    }
    obstacle
    {
        type            calculated;
        value           nonuniform 0();
    }
    frontAndBack
    {
        type            empty;
    }
    procBoundary3to1
    {
        type            processor;
        value           nonuniform List<scalar> 
36
(
2.229320434e+20
2.323187994e+20
2.301874733e+20
2.314958768e+20
2.291083122e+20
2.252512449e+20
2.252512449e+20
1.974581297e+20
2.079209301e+20
2.104646109e+20
2.153128677e+20
2.211370407e+20
2.211370407e+20
1.434705174e+20
1.541795393e+20
1.616227547e+20
1.690752936e+20
1.81124625e+20
1.81124625e+20
1.077294559e+20
1.104602878e+20
1.164540231e+20
1.219210944e+20
1.2746374e+20
1.335177398e+20
1.335177398e+20
1.004509273e+20
1.012037575e+20
1.033662031e+20
1.046882784e+20
1.067346029e+20
1.101604383e+20
1.101604383e+20
9.832779338e+19
9.961881792e+19
9.961881792e+19
)
;
    }
    procBoundary3to2
    {
        type            processor;
        value           nonuniform List<scalar> 
19
(
1.003850212e+20
9.938284126e+19
1.008415698e+20
9.822476599e+19
1.009195171e+20
9.900423996e+19
1.011199538e+20
1.02556411e+20
1.012981184e+20
1.027679823e+20
1.003961565e+20
9.92603526e+19
9.753437609e+19
1.017880723e+20
9.877039868e+19
1.029795536e+20
9.890402197e+19
1.027679823e+20
9.821363136e+19
)
;
    }
}


// ************************************************************************* //
