/*--------------------------------*- C++ -*----------------------------------*\
  =========                 |
  \\      /  F ield         | OpenFOAM: The Open Source CFD Toolbox
   \\    /   O peration     | Website:  https://openfoam.org
    \\  /    A nd           | Version:  7
     \\/     M anipulation  |
\*---------------------------------------------------------------------------*/
FoamFile
{
    version     2.0;
    format      ascii;
    class       volVectorField;
    location    "0.002";
    object      UMean;
}
// * * * * * * * * * * * * * * * * * * * * * * * * * * * * * * * * * * * * * //

dimensions      [0 1 -1 0 0 0 0];

internalField   nonuniform List<vector> 
654
(
(1350.339562 388.2830259 -9.164389494)
(1383.180672 417.7696425 -12.64230728)
(1382.762907 412.3102351 -6.199030755)
(1386.242239 413.6247658 -2.549684776)
(1382.329454 406.5047982 -2.704710524)
(1376.302896 406.5302281 -5.781465628)
(1379.288865 401.3592368 -3.13506683)
(1457.705706 349.7965816 -8.587183397)
(1441.236625 366.5405192 -2.796154183)
(1440.167586 381.5966516 2.230986613)
(1427.54704 382.3528341 5.398383928)
(1414.285837 396.1996971 8.073785487)
(1411.138408 397.5427512 1.705871459)
(1404.970078 414.5038114 -3.831934361)
(1393.281928 410.3762946 -12.05551466)
(1387.493039 408.8281013 -11.44732282)
(1388.151877 403.735856 -8.17021151)
(1381.307259 405.5760755 -11.51814335)
(1565.534026 209.0483295 -5.414509692)
(1553.136683 227.3957493 0.427195673)
(1536.123017 264.3052631 3.894899869)
(1525.709368 280.3975232 0.5309457254)
(1507.765459 298.1228864 -3.98354355)
(1489.366564 325.2048192 -2.575645973)
(1464.276803 342.8583511 -1.108542488)
(1450.702727 354.3561128 -1.72416828)
(1450.48348 364.5181129 0.01589908514)
(1432.157884 374.3089555 0.1492009227)
(1425.734392 393.1840653 -1.168250656)
(1415.351735 400.105235 -0.4957369042)
(1409.743071 410.6364729 -6.938448726)
(1406.719209 410.9321291 -4.032034519)
(1411.497313 411.7861146 -6.462137237)
(1398.14069 418.352559 -14.29332192)
(1671.127351 74.82157131 -9.591629791)
(1666.091528 88.8448801 -12.12073505)
(1656.17396 105.6113829 -8.113813281)
(1641.546493 122.030778 -6.896795159)
(1633.083418 135.0645862 -4.533276753)
(1621.59156 153.3216706 -8.780646738)
(1597.144873 178.4839945 -11.7257521)
(1585.513902 197.0050029 -14.58228491)
(1564.7573 218.5942288 -10.01455238)
(1553.544309 240.0775571 -5.922351391)
(1536.098175 270.2382339 0.1810903855)
(1512.842228 294.2228413 -1.432219329)
(1497.605766 318.6406777 1.06410001)
(1479.980655 334.4027887 0.5673685252)
(1469.761307 344.6570793 2.09376274)
(1461.010563 356.841915 1.348974862)
(1446.881259 371.7385732 4.326641792)
(1435.52677 383.7994789 4.206572392)
(1427.13286 401.1037769 2.582500614)
(1419.763961 412.5270444 2.106037333)
(1418.76978 412.6327357 -4.058266193)
(1420.469652 408.794985 -8.505420537)
(1711.607054 24.65408146 -6.448482951)
(1709.861109 17.86714046 -3.419703035)
(1702.225824 22.65375533 -2.580337457)
(1693.670452 31.11645205 -0.8524273636)
(1688.730124 44.88447548 -0.6325040684)
(1685.573823 50.53556644 -1.0213417)
(1683.407016 55.85784156 -1.716895963)
(1667.693191 66.96772398 -1.745487905)
(1667.821966 78.61922063 6.241794643)
(1647.881842 103.6638394 -3.518486966)
(1645.382477 107.3856986 -4.063701061)
(1636.539722 121.531001 3.769500296)
(1613.104199 141.4150833 6.37397708)
(1599.140394 159.8665521 3.965644541)
(1584.195122 181.0383751 0.1702413475)
(1573.877158 204.5884037 4.901958763)
(1548.55747 222.0294975 3.807714044)
(1542.934386 252.5209933 -0.86243124)
(1533.943577 275.7492443 1.03764311)
(1521.249347 296.870318 -1.568325403)
(1505.659196 323.0219063 3.964143404)
(1486.929618 347.8742339 -0.8557206574)
(1476.021943 355.4141988 -3.574569161)
(1463.476066 378.7560931 -0.6361809724)
(1451.116503 383.4285632 -6.716400064)
(1442.310361 395.6083166 -0.6414823849)
(1435.784111 398.2160171 2.671974536)
(1430.639877 404.520047 1.606740154)
(1720.274985 3.766204654 0.06452353617)
(1720.729375 0.6645316346 -2.034251414)
(1726.678553 -1.23007426 -3.789041192)
(1720.393326 14.61948941 -2.350508556)
(1722.064228 18.38992308 -3.393547862)
(1717.500844 22.30698464 -2.950025517)
(1705.820488 33.8803973 -3.170704882)
(1699.388988 36.10272776 -2.557370506)
(1703.35654 47.15059818 2.646247357)
(1696.795008 53.61627779 1.893463086)
(1681.006952 62.45362158 7.1492554)
(1669.178894 70.90606365 9.025705606)
(1663.34234 92.00451574 12.66376501)
(1656.731211 106.9355647 8.850437576)
(1644.742068 114.6398576 5.989883549)
(1632.763935 129.6384108 2.70402652)
(1623.116221 155.6793186 8.468969742)
(1606.470886 176.8844549 2.529389201)
(1598.434055 196.7757386 4.897679131)
(1581.956369 212.7957415 4.875190998)
(1557.619806 242.1750732 6.558913663)
(1537.022021 271.6040762 8.40581783)
(1527.12096 298.8731005 0.3455764013)
(1507.878491 319.4667626 -1.453261985)
(1508.04002 339.2904874 -0.234574605)
(1481.12223 340.8154704 4.183041103)
(1468.671428 363.0722995 7.895232916)
(1456.647724 379.6611451 2.529142454)
(1451.748835 390.5036865 2.749842641)
(1447.046602 397.8061274 5.844756953)
(1726.57287 3.485577856 -9.077795007)
(1730.990997 7.053054696 -5.101356714)
(1731.831454 10.3502741 -2.470659155)
(1722.830971 13.11461385 -1.831801371)
(1720.653636 16.50871903 1.404995757)
(1721.249021 18.70660761 3.005619383)
(1718.677667 18.55839206 2.585180598)
(1708.749555 25.36057936 4.626850267)
(1703.205403 28.64299948 4.216090219)
(1699.011547 40.29614071 3.980389099)
(1698.436949 47.35527323 1.525834989)
(1692.343174 61.29557414 -0.4043232287)
(1679.45333 67.48562201 -3.123276571)
(1677.301097 67.05004324 -8.249812099)
(1666.107936 90.15362938 2.94377121)
(1648.107051 117.4689078 2.641497897)
(1642.076904 125.5059888 1.202280926)
(1629.710055 144.2613682 1.520821869)
(1614.139356 161.2271493 -2.528223506)
(1609.519778 186.5064327 0.2457313586)
(1590.181525 207.5679884 -2.954414912)
(1571.706564 234.9938573 -7.056372529)
(1561.341299 252.8295277 9.29089605)
(1536.572563 290.2696367 5.329946055)
(1523.103263 313.9194258 -0.262803461)
(1513.408482 333.7559553 -5.199659852)
(1501.428597 346.9596049 1.892114378)
(1488.792927 359.4029123 0.4378922754)
(1476.257482 366.3956488 -0.2422090667)
(1474.251085 370.4192915 6.860637378)
(1733.142146 5.802688815 2.560088572)
(1726.499013 3.32647677 3.233786427)
(1726.335102 6.459698093 4.622739858)
(1721.784659 6.142429543 3.655651823)
(1719.268688 6.378954085 3.255042073)
(1708.479497 8.824967058 3.63056372)
(1707.642019 13.74277273 1.346050282)
(1707.141275 22.8130699 3.795875204)
(1708.767325 26.3918157 0.1843191483)
(1706.723861 26.68186095 -1.493536906)
(1707.821539 25.35206765 -6.109267968)
(1702.842277 28.81553293 -3.441162583)
(1697.128925 53.0006189 0.8984096587)
(1687.651342 67.26237534 -0.4043480084)
(1688.333256 66.39929964 -8.038283549)
(1680.331381 70.14083737 -10.05087127)
(1666.38469 89.91181358 -9.599182514)
(1647.389007 116.2561122 1.03171335)
(1637.180396 136.0224232 5.321909388)
(1626.683239 161.7459305 4.0052342)
(1616.864263 181.9983534 2.576448887)
(1595.034081 210.8177495 5.537527466)
(1591.635444 232.0383751 0.7603364218)
(1578.638093 247.5905993 -0.4899564257)
(1553.212802 276.4745139 -2.56061816)
(1538.541058 294.5456084 -0.5950956423)
(1518.91601 309.7193143 -6.203231774)
(1515.604386 322.2945684 -0.7160141253)
(1501.957517 340.6614547 -2.31576412)
(1485.89999 359.1699527 -4.396494289)
(1725.56128 7.078404253 2.21464778)
(1724.50695 5.08860253 -2.605427877)
(1726.239592 3.047630478 2.102446782)
(1724.246629 7.592143615 -0.3063659274)
(1727.257851 13.35061159 1.206693606)
(1722.262769 17.94644024 0.2485166375)
(1724.46901 10.74619749 1.832171732)
(1719.839889 8.370548063 0.9761014208)
(1716.797617 9.982299307 -2.099154514)
(1714.617622 13.37309422 -2.838666749)
(1704.581133 23.22207284 -2.708682948)
(1704.405479 27.69236155 -2.266494741)
(1698.952862 29.01950934 0.06658889312)
(1698.159765 43.82080208 -2.61674348)
(1688.490174 59.76551939 3.435395616)
(1691.555719 63.4086048 5.770074147)
(1686.26815 82.08813618 9.592174691)
(1673.912334 93.46132252 0.1118135509)
(1658.967773 115.6061112 5.512170459)
(1647.750291 126.1579583 2.906766294)
(1632.40626 148.9474131 2.813432993)
(1623.954103 171.7688154 5.835924012)
(1606.109446 192.3893446 -2.033923338)
(1591.387047 220.3907969 3.744613082)
(1578.646334 233.0263411 7.96357845)
(1563.306045 244.9059974 12.96561963)
(1541.013929 272.4016844 6.765108721)
(1531.160143 297.9090679 6.440818478)
(1524.015418 322.4564516 -1.16858133)
(1512.077377 339.265842 0.2263803432)
(1734.971525 3.68478892 -5.533932408)
(1730.797156 5.816909933 -2.655157951)
(1731.346307 10.87950154 -1.709119884)
(1729.447378 6.905647476 -3.034038134)
(1729.085601 6.016597215 -3.740002305)
(1732.635221 7.547349308 -5.257801204)
(1727.219672 12.25024516 -4.520168105)
(1722.42227 19.24502554 -6.696222969)
(1720.313771 17.11642195 -3.166819833)
(1717.360793 17.37921686 0.2588326105)
(1719.846349 17.67617685 0.8851355073)
(1711.721657 19.40048313 -0.03807350794)
(1711.052182 17.70349895 0.5001166012)
(1707.844658 22.32593093 5.37677434)
(1694.155375 43.25634819 2.246023031)
(1695.066972 58.94173644 -1.434770043)
(1687.6008 69.11355197 0.2986060624)
(1679.278232 78.61273218 -6.342586042)
(1680.130096 93.91573997 -2.900459448)
(1671.168693 113.3237113 -2.049608276)
(1661.295358 115.7773644 -4.971718825)
(1642.960997 130.1106907 -4.630450936)
(1629.265459 151.1171661 1.990824134)
(1614.129672 172.1134017 -2.876087537)
(1605.808942 190.8765446 3.664863998)
(1596.394898 216.5341147 -0.7350928505)
(1575.565936 249.8252078 0.4828371094)
(1555.745025 279.1440614 -0.7466165202)
(1542.421069 288.6232977 7.268686442)
(1530.600664 311.0798775 0.8107956936)
(1735.853197 2.448190042 -2.408424936)
(1737.86023 6.143607302 -1.393382681)
(1733.162697 2.865213561 0.02758776955)
(1733.689665 1.840738951 -0.1339520622)
(1729.15896 2.512457712 1.928054503)
(1722.045258 2.958034404 4.212275292)
(1724.014701 6.284655961 4.293682456)
(1725.654418 8.661212759 2.900210732)
(1721.723397 14.59619123 4.032114064)
(1721.346075 14.13603152 0.6047683025)
(1711.301059 20.97772666 -1.692260848)
(1710.933498 25.98913578 1.786750638)
(1708.762748 32.68716238 -3.121758491)
(1711.599874 34.53225452 -3.594515237)
(1716.871828 37.01682565 0.4191017569)
(1701.655668 43.34170269 -3.871744577)
(1701.718258 54.40979862 -3.740007374)
(1687.825491 62.71199199 -0.5405020096)
(1681.214538 66.25762949 -6.282440165)
(1672.303443 75.89900877 -3.441792624)
(1669.489843 92.73466373 -6.948454721)
(1655.446747 107.1465916 -4.525932435)
(1646.336492 113.4828331 -6.393855101)
(1630.535467 137.0299372 -0.7889979154)
(1629.21662 166.1473096 -0.515920635)
(1607.849512 185.0557128 -0.7245052495)
(1602.537647 216.1812313 0.4662046225)
(1590.450063 231.8163455 1.006496733)
(1563.677608 259.0971253 1.607663976)
(1556.152102 278.8718789 -5.142468357)
(1727.449918 3.247374173 -2.309914506)
(1726.265423 -6.805406359 -5.203534623)
(1731.583334 -9.508438176 -6.709115764)
(1731.733965 -2.363933636 -5.597423272)
(1732.380721 -0.1590926232 -3.890553452)
(1736.31877 0.3400939116 -6.231348662)
(1729.054731 1.764887292 -6.313244855)
(1727.770565 3.565441455 -6.133003354)
(1722.731056 4.402645454 -2.884643334)
(1721.863326 10.44261954 3.089701173)
(1725.990493 15.75126349 -1.602776262)
(1725.623783 21.25084071 -8.976951719)
(1714.10923 36.53470698 -10.86669577)
(1710.750614 39.54124347 -12.2881391)
(1710.121449 34.40968191 -4.064374921)
(1708.165931 36.72556729 0.2972600173)
(1710.017009 32.75016995 -1.057666891)
(1704.655424 44.48199387 -0.2446802639)
(1694.56923 54.42092397 -5.372299911)
(1691.715146 58.12681096 -3.13939688)
(1666.582149 76.53538893 -0.3850444884)
(1675.661268 75.16147793 -3.338205609)
(1667.841967 90.23160515 -2.810871916)
(1660.96571 100.0772726 -5.306377361)
(1642.215757 124.5988678 -5.322207544)
(1628.330709 150.9182378 -5.879211529)
(1622.007753 172.0288865 -7.222379672)
(1606.806762 203.6474939 -6.737394713)
(1591.168218 226.2854824 -1.512935117)
(1569.26346 246.0762905 -1.934384846)
(1735.37764 -8.301226872 -0.8376689851)
(1734.691081 2.402566819 3.124093361)
(1734.115082 5.189869587 0.1982552818)
(1732.762183 0.4122610613 1.730935051)
(1735.854861 -1.413489215 -1.968441733)
(1734.786917 1.156952828 2.407101437)
(1731.430987 3.841797523 1.905846079)
(1733.016018 8.611024877 -1.083416565)
(1729.809219 8.87868007 -6.706130577)
(1727.820418 15.33320046 -7.022551142)
(1732.116404 13.20850301 -0.1952334543)
(1733.01236 18.18981509 5.082331494)
(1734.330102 19.40396505 4.12804135)
(1728.182345 24.88841116 10.57161645)
(1718.078779 30.42151816 3.438551084)
(1716.844826 34.22091418 -3.555651103)
(1708.438658 38.28747496 -6.606188447)
(1708.609249 41.08461498 -9.284861627)
(1702.186402 46.49441068 -6.851238657)
(1696.09623 48.16992335 -6.031009399)
(1702.39801 48.10473543 -5.650387846)
(1689.615387 65.71456895 -5.6777135)
(1679.655432 75.12090066 -1.497807445)
(1676.30767 88.78411717 0.3071564724)
(1674.32697 94.03486026 -1.216512073)
(1657.180764 113.4206916 -2.366802651)
(1641.789058 136.7922582 0.2661559449)
(1629.937822 167.6539283 -7.141213536)
(1612.931677 188.6032569 -10.63793047)
(1599.179179 224.8546395 -12.96647237)
(1734.299211 0.7102586158 5.174879726)
(1735.1854 -0.001375496471 4.792357993)
(1732.251301 -3.405385512 -0.1384154586)
(1730.75363 -6.759987861 0.07852396006)
(1729.054354 2.416243113 -3.38703518)
(1728.242388 2.281504109 -8.406543059)
(1728.462819 0.2182878121 -9.869649308)
(1727.934853 9.520074182 -2.756675567)
(1730.618317 8.711976294 -2.387586037)
(1727.816855 15.26031682 -6.262911941)
(1723.487515 19.357259 -3.411099289)
(1725.278778 17.41862858 -3.821665903)
(1727.037762 12.6524026 -3.557741893)
(1728.965322 13.22374535 -4.042348148)
(1728.755564 21.48197904 -3.054380439)
(1727.219575 22.89137704 -0.1233600676)
(1727.349218 25.53427367 1.307941791)
(1728.278264 25.05883386 -1.380213557)
(1720.508186 33.39736582 -2.143666775)
(1713.322021 39.33003122 -3.78919585)
(1708.601842 41.82748698 -1.903073531)
(1699.876774 59.55266185 -0.6612380407)
(1697.368709 63.54753036 -7.910872813)
(1681.42288 74.54869545 -6.211314506)
(1667.727977 87.97942185 -6.257316188)
(1664.162572 96.86212578 -8.093581463)
(1652.389607 116.9131908 -11.68083011)
(1649.800528 125.9283709 -14.78737163)
(1637.984236 149.7951085 -9.694583758)
(1623.910429 177.2939906 -5.597214181)
(1726.668076 -1.259971859 6.616196873)
(1725.172247 0.8291971911 7.91501994)
(1728.31584 6.154647251 8.271449259)
(1728.899686 6.499811607 8.070561433)
(1731.360512 1.825266505 10.81256558)
(1735.115391 3.168178054 9.845758026)
(1739.899866 6.077558733 8.980599461)
(1738.136793 3.162281724 8.712291471)
(1737.762453 4.874328091 12.46801813)
(1732.100824 8.242777797 9.538209375)
(1734.055603 2.740655276 7.24333894)
(1730.415044 12.93113994 4.847436615)
(1728.135087 9.849273458 2.455609758)
(1733.086006 10.57446769 0.3711507775)
(1729.301766 8.263766631 -1.839416749)
(1724.494293 6.149678977 -0.339710054)
(1715.104377 16.92414104 -1.356129281)
(1719.161175 16.84499801 0.7147081181)
(1722.117867 20.89075673 3.010999966)
(1713.73953 28.70810706 2.046374749)
(1712.056655 39.22974932 0.09995612151)
(1703.56672 48.90139264 -7.838309005)
(1705.031187 57.9057298 -3.835483962)
(1701.490039 61.18276133 -3.485095251)
(1698.387383 67.3469486 1.413277248)
(1696.594698 72.82368011 2.825908137)
(1688.196798 91.61385459 2.682391978)
(1666.822923 122.3685087 -0.06784597722)
(1652.604513 134.5390029 0.9404787324)
(1636.161521 149.40826 1.143850263)
(1739.131139 9.381336094 -0.9136719829)
(1740.70022 9.031152988 4.552386323)
(1740.982768 5.653897309 2.419362551)
(1741.760933 4.654512954 5.791891003)
(1740.898645 11.36805433 2.948942298)
(1737.522865 5.045805314 1.622791619)
(1735.46047 7.428723793 1.884771154)
(1737.39937 5.649288192 -0.709895916)
(1732.325679 2.139478574 -4.060188751)
(1733.085958 0.7880130091 -1.780057837)
(1734.530525 1.132048225 -3.375652791)
(1732.593077 1.651457604 -4.616270336)
(1725.788007 4.12464597 -5.339687836)
(1724.265309 1.631807723 -5.319158837)
(1727.16537 6.27190928 -2.712170661)
(1727.03657 13.19058708 0.04004561445)
(1722.814442 9.300315893 0.2114391725)
(1724.392378 10.92538556 2.570189939)
(1722.259629 13.63107148 3.641918808)
(1721.97145 22.78905145 0.8314703765)
(1720.517652 15.84943069 2.34710458)
(1723.135473 27.04869066 1.021404715)
(1711.207639 31.09144522 1.868864111)
(1700.668618 44.53797488 -2.526576492)
(1699.553107 54.41250064 -1.584291534)
(1696.687983 70.52584287 -3.773409528)
(1694.940432 81.03604576 -0.6960716519)
(1693.854534 88.74050244 4.15962059)
(1673.906969 113.4932493 7.604588727)
(1661.019999 127.6570022 2.436424522)
(1740.205846 0.4705713429 -5.239086894)
(1738.969366 3.161721021 -8.603410856)
(1736.877686 9.479534917 -7.2830685)
(1731.352346 9.34804613 -5.031602038)
(1730.100821 5.814512388 -2.547394746)
(1729.720918 12.90481305 -3.253772952)
(1726.512665 8.638581905 -7.035479257)
(1733.141572 3.077745344 -1.029891822)
(1736.705194 4.806479382 -0.4604047711)
(1734.796222 3.13239558 1.052009587)
(1732.203849 0.3868520079 2.845746382)
(1731.797274 -1.458315657 0.6030013879)
(1727.313775 -1.160280185 4.461320718)
(1731.786796 -1.560557941 2.651321371)
(1725.985584 2.468568437 -0.4738068495)
(1726.226978 0.2204976218 0.5432304577)
(1729.08947 12.97830463 2.612423464)
(1723.584351 16.88535062 4.41317164)
(1725.359796 14.4437241 -0.8676179625)
(1718.406255 18.18614019 -1.321755296)
(1721.816819 18.17476625 -2.214547474)
(1713.918927 20.64476317 -0.8912748468)
(1709.362135 28.17430506 4.231667725)
(1707.906675 41.59632734 4.449086877)
(1699.108221 51.41828567 6.641412437)
(1692.986623 56.31050331 5.764525259)
(1690.081706 57.62176831 1.216028986)
(1684.109647 65.0147105 -0.8615961496)
(1678.585162 74.29980616 3.514174708)
(1669.797369 109.5146291 7.452917683)
(1736.909222 0.6072251635 -2.114681757)
(1737.280623 -6.593996179 -4.270048391)
(1736.964393 -6.683167311 -4.062867394)
(1736.974567 -0.2325476092 -5.140730305)
(1738.686577 1.12757043 -0.5553413343)
(1742.404293 0.9730704851 -0.2935700193)
(1737.589653 2.193047411 3.088221241)
(1735.275179 7.825827061 2.497784632)
(1731.168828 -2.882467565 3.918304369)
(1727.647309 -5.060556143 0.3169887971)
(1725.412181 -3.32406099 -2.152367745)
(1724.624279 -6.843149476 -4.160386922)
(1726.469511 -5.148414375 -5.520832853)
(1724.226895 0.3537021853 0.2792711212)
(1724.902096 2.303890399 1.379376456)
(1728.71137 5.785312451 -0.4747415032)
(1729.983739 8.094521357 -4.993529475)
(1728.083316 10.71135036 -6.516762081)
(1724.510493 17.52965281 -0.7246262155)
(1718.354703 23.54227959 1.334958577)
(1718.790391 25.1487237 1.693540257)
(1718.473925 18.57980041 4.90364193)
(1720.325274 31.59886767 6.582723791)
(1719.857878 30.08883099 4.262936555)
(1719.456921 33.37749653 6.463900726)
(1718.750262 43.68992574 0.3113667399)
(1703.347427 53.65350643 6.068410469)
(1706.76581 54.01974959 3.881276653)
(1698.592179 62.57507849 -1.848637989)
(1681.87456 79.18247849 -0.09889848107)
(1733.58123 3.387558582 -0.004581703124)
(1728.909327 10.12801705 0.2092077288)
(1729.452466 5.660965593 -2.600031818)
(1731.030698 0.873009204 -2.019354354)
(1728.075867 -1.392841628 -4.338108477)
(1728.226173 -4.497822456 -4.599982366)
(1728.018157 -8.906370891 -3.43744328)
(1728.618389 -8.168241959 -4.041172094)
(1729.351734 4.151323818 -7.117266862)
(1728.67282 0.9460221636 -9.305661832)
(1736.149054 -5.524093743 -5.253760672)
(1734.98589 3.235495239 0.6691129501)
(1733.322071 -0.735528767 1.286182371)
(1737.30724 6.938047705 -5.616312998)
(1731.381079 6.750544964 -5.959455825)
(1729.720847 8.630436943 -1.985612449)
(1728.029651 2.764542379 -0.08500851752)
(1726.406372 7.073764929 0.9906955903)
(1725.879522 11.47454499 0.7374529659)
(1720.387012 14.72014523 2.065588385)
(1711.718442 25.0157686 1.084271024)
(1715.776461 27.28384732 -3.581584728)
(1712.205486 27.63023696 -6.010693305)
(1710.832106 29.75655944 0.1470169019)
(1714.288382 26.78565043 0.5577506663)
(1714.193355 27.40241918 0.3420974313)
(1706.563653 30.24417517 -0.2747417621)
(1703.420163 46.24566608 2.957352277)
(1700.479278 46.79569343 1.044050907)
(1696.957726 54.50103689 -2.336709543)
(1734.907523 -3.656084631 -3.992602362)
(1740.686183 -6.632496868 -5.868772076)
(1737.443055 -0.7999449534 -5.831981189)
(1737.563241 -1.75150087 -4.834647862)
(1737.934182 -7.435296594 -1.916498581)
(1738.503591 -5.562700773 -1.446919633)
(1730.345895 1.412139571 -3.386148523)
(1727.846452 -4.861242145 -2.830922014)
(1732.635408 -8.310106594 0.6723852196)
(1730.995965 3.604569936 3.632454652)
(1733.822635 5.643733076 0.2856432314)
(1736.455165 8.157237713 -6.062072096)
(1738.328196 7.199883042 -5.002876706)
(1733.765044 6.352584497 -1.366217148)
(1737.909409 7.576082851 1.532679093)
(1733.121963 7.875141809 1.810196463)
(1733.804725 11.07965093 0.2433018333)
(1735.542365 7.529063937 1.082091233)
(1736.681392 2.085779235 -0.4766428922)
(1735.033301 5.316538048 -3.172228385)
(1741.988388 7.558075657 -2.632961962)
(1732.592241 19.40661573 1.492222893)
(1729.242415 13.22726179 5.099712414)
(1722.100227 19.50981976 2.5924406)
(1717.41001 25.61630008 0.09406902888)
(1716.113818 27.21009191 4.066490092)
(1714.570963 37.10277064 1.279215242)
(1714.457241 38.4891641 -0.3381495194)
(1708.591518 48.47526151 3.756392679)
(1706.013402 56.94924648 -0.5834536246)
(1731.849075 0.9251751951 -3.197968077)
(1727.889715 -0.5608607856 -2.445030438)
(1737.08378 -1.618184586 -0.816387987)
(1735.322121 -2.366489735 -4.842232019)
(1732.052767 -1.852149189 -6.617291288)
(1733.72511 -3.081610103 -7.826224095)
(1737.679646 -5.028177854 -7.326075654)
(1739.72986 -1.715611923 -6.750247117)
(1740.081716 6.065570153 -8.287853583)
(1741.8886 -0.453824932 -8.398209048)
(1737.555748 -0.9375494138 -8.362696943)
(1735.344185 0.2561911791 -5.473445747)
(1736.854919 5.835771901 -7.34788904)
(1733.236781 5.236365092 -7.710276551)
(1731.174432 5.404454736 -4.317684082)
(1732.198731 0.0559660443 -5.380053141)
(1726.947824 0.699532282 -2.156220628)
(1728.217508 2.843375173 -2.834251757)
(1732.966854 10.16087358 -3.299616492)
(1733.521325 8.984066306 4.529732296)
(1729.311158 2.819040558 0.4304823747)
(1730.229764 2.573412553 1.000099444)
(1729.755646 12.89061648 -3.389540464)
(1728.569241 16.65564226 -3.78350423)
(1726.669206 18.06770475 -4.962322588)
(1721.811726 21.12117913 -4.002674182)
(1721.767328 30.02927678 -3.118460001)
(1713.838016 40.32859537 2.104825962)
(1716.290212 37.89991066 0.8419989342)
(1713.044361 47.55868289 0.5671183508)
(1730.572914 -1.976909762 -3.656680233)
(1736.710638 -0.2508596181 -5.968956695)
(1729.132886 3.111038096 -2.868987626)
(1730.67882 1.360517341 -0.1737931153)
(1730.157912 0.4522401992 3.075164057)
(1731.71973 -0.03474898109 7.238964503)
(1734.243313 -4.969078474 8.87538103)
(1732.368375 -2.011813519 7.559061283)
(1731.560126 -2.43071024 3.823342777)
(1729.16492 -1.003032634 0.2354931633)
(1734.465876 -0.3851540854 0.4682449922)
(1730.135169 1.183304172 0.8820637641)
(1726.875035 -2.042563399 2.399789125)
(1728.000589 -1.923622268 1.032253179)
(1727.843807 0.4590539777 0.780895784)
(1731.960332 3.252153094 -1.843527992)
(1733.854476 0.449183055 -1.289792048)
(1730.426405 4.58294838 -4.541758581)
(1730.91717 3.438424648 -6.489053044)
(1734.010707 -3.016397052 -8.344440929)
(1732.864171 2.705187804 -7.68519584)
(1729.159072 9.45840829 -8.117256945)
(1733.281765 14.23123619 -7.455501221)
(1733.151636 17.62918087 -5.371964994)
(1731.34602 18.18752569 -7.707528503)
(1727.409937 17.80188638 -8.446901199)
(1725.680097 20.56059242 -2.355902339)
(1721.786394 22.34585827 -4.490934362)
(1723.045415 34.1459728 -4.047611216)
(1722.116307 40.91316142 4.469835736)
(1732.257914 -5.903462691 9.401858764)
(1731.838684 -4.196392558 9.421225376)
(1732.287019 -8.431033522 4.749671843)
(1727.565182 -6.928767218 6.757510193)
(1729.747945 -0.3390512864 -1.288621978)
(1729.129133 6.1253039 -3.288512977)
(1728.557414 9.874250442 -7.323902524)
(1729.185364 1.525918806 -3.839288699)
(1730.920551 -0.4508610512 -2.479127763)
(1730.392229 -3.163163966 -0.6746862721)
(1733.195951 -7.285176372 6.116267926)
(1733.490891 -4.897333982 0.7091428019)
(1738.609466 2.126520313 2.94851149)
(1741.72113 1.3932727 -0.136926962)
(1739.833813 -1.912356828 0.613167922)
(1733.560747 -0.1302400192 -5.032082886)
(1737.102798 5.450211886 -2.931856996)
(1735.670073 4.011677588 -0.46167311)
(1733.082697 7.388498983 1.262777193)
(1726.081912 15.0563104 1.959301759)
(1727.27065 12.93907888 3.67316797)
(1725.757905 3.373749378 0.6670764082)
(1724.075819 4.349675967 0.585104305)
(1720.777856 8.476350881 -4.725581992)
(1721.104066 6.916596611 -1.904544406)
(1718.580351 21.89233895 -1.923228453)
(1721.734742 20.0348548 -5.4524369)
(1722.634848 24.91321092 -4.259246045)
(1710.302066 27.05650302 -11.25479424)
(1709.025152 16.97560589 -8.919872559)
(1737.931114 3.360454553 3.086350948)
(1738.29968 7.363930462 2.375309047)
(1733.23971 10.4167658 2.152842779)
(1737.955126 7.038524133 -0.3482455814)
(1737.323361 2.159444716 3.01231991)
(1736.876518 0.301239223 6.314996316)
(1731.991397 6.156769434 6.396296737)
(1730.347558 9.679980686 7.237098237)
(1731.60813 11.70876799 12.03701627)
(1732.662363 13.19979646 9.909964287)
(1735.768536 15.05115356 5.155680684)
(1736.020157 14.94847523 7.26629529)
(1731.506564 6.542160488 6.623578989)
(1727.598907 11.41199368 9.408527425)
(1728.468867 9.637660415 7.194483601)
(1729.064998 7.360733138 7.150486372)
(1731.188614 9.486802319 6.70412822)
(1729.422257 10.06204574 5.23709912)
(1724.827484 15.64383102 3.833306614)
(1728.246737 6.615042474 -0.2663774237)
(1726.184655 8.698710558 -3.63618238)
(1724.225768 15.32417075 -2.668311275)
(1720.447984 15.24721649 -0.3185925941)
(1724.27328 21.80272633 6.479665147)
(1722.392019 21.45000487 4.20583771)
(1722.546858 12.76380693 8.310605546)
(1718.815576 15.44410496 8.221345782)
(1715.718156 18.97790898 6.160421771)
(1723.490984 25.88332447 1.352901866)
(1718.326579 34.8578415 -2.216108309)
)
;

boundaryField
{
    flow
    {
        type            calculated;
        value           nonuniform List<vector> 
55
(
(1350.339562 388.2830259 -9.164389494)
(1379.288865 401.3592368 -3.13506683)
(1381.307259 405.5760755 -11.51814335)
(1398.14069 418.352559 -14.29332192)
(1420.469652 408.794985 -8.505420537)
(1430.639877 404.520047 1.606740154)
(1447.046602 397.8061274 5.844756953)
(1474.251085 370.4192915 6.860637378)
(1485.89999 359.1699527 -4.396494289)
(1512.077377 339.265842 0.2263803432)
(1530.600664 311.0798775 0.8107956936)
(1556.152102 278.8718789 -5.142468357)
(1569.26346 246.0762905 -1.934384846)
(1599.179179 224.8546395 -12.96647237)
(1623.910429 177.2939906 -5.597214181)
(1636.161521 149.40826 1.143850263)
(1661.019999 127.6570022 2.436424522)
(1669.797369 109.5146291 7.452917683)
(1681.87456 79.18247849 -0.09889848107)
(1696.957726 54.50103689 -2.336709543)
(1706.013402 56.94924648 -0.5834536246)
(1713.044361 47.55868289 0.5671183508)
(1722.116307 40.91316142 4.469835736)
(1709.025152 16.97560589 -8.919872559)
(1718.326579 34.8578415 -2.216108309)
(1737.931114 3.360454553 3.086350948)
(1738.29968 7.363930462 2.375309047)
(1733.23971 10.4167658 2.152842779)
(1737.955126 7.038524133 -0.3482455814)
(1737.323361 2.159444716 3.01231991)
(1736.876518 0.301239223 6.314996316)
(1731.991397 6.156769434 6.396296737)
(1730.347558 9.679980686 7.237098237)
(1731.60813 11.70876799 12.03701627)
(1732.662363 13.19979646 9.909964287)
(1735.768536 15.05115356 5.155680684)
(1736.020157 14.94847523 7.26629529)
(1731.506564 6.542160488 6.623578989)
(1727.598907 11.41199368 9.408527425)
(1728.468867 9.637660415 7.194483601)
(1729.064998 7.360733138 7.150486372)
(1731.188614 9.486802319 6.70412822)
(1729.422257 10.06204574 5.23709912)
(1724.827484 15.64383102 3.833306614)
(1728.246737 6.615042474 -0.2663774237)
(1726.184655 8.698710558 -3.63618238)
(1724.225768 15.32417075 -2.668311275)
(1720.447984 15.24721649 -0.3185925941)
(1724.27328 21.80272633 6.479665147)
(1722.392019 21.45000487 4.20583771)
(1722.546858 12.76380693 8.310605546)
(1718.815576 15.44410496 8.221345782)
(1715.718156 18.97790898 6.160421771)
(1723.490984 25.88332447 1.352901866)
(1718.326579 34.8578415 -2.216108309)
)
;
    }
    obstacle
    {
        type            calculated;
        value           nonuniform 0();
    }
    frontAndBack
    {
        type            empty;
    }
    procBoundary3to1
    {
        type            processor;
        value           nonuniform List<vector> 
36
(
(1332.45033 382.6855762 -3.822211599)
(1361.858802 420.5290691 -9.354350667)
(1367.785691 415.9183035 -6.697617652)
(1356.948448 405.0931363 -8.268323919)
(1353.254528 406.0940846 -3.978875477)
(1356.535427 394.3931681 -0.6297390065)
(1356.535427 394.3931681 -0.6297390065)
(1435.986472 370.1466218 1.737742767)
(1418.710304 388.2301771 3.760944501)
(1410.583025 383.8472506 -3.137309917)
(1401.764957 395.9707696 -7.208169404)
(1394.085891 412.7144939 -13.26040043)
(1394.085891 412.7144939 -13.26040043)
(1529.60886 261.8165022 6.03978131)
(1512.600831 282.3555815 1.79457988)
(1503.537208 294.9175699 -10.36521109)
(1493.129946 316.7960821 -13.60189072)
(1469.744803 339.9883847 -5.265547276)
(1469.744803 339.9883847 -5.265547276)
(1654.184629 103.7644802 -6.445317799)
(1644.728548 119.5907046 -2.925237397)
(1624.92617 126.8328178 -7.659790186)
(1610.104824 150.7679047 -15.38838222)
(1597.059499 167.8963837 -8.474518069)
(1583.68464 186.1613585 -7.619592202)
(1583.68464 186.1613585 -7.619592202)
(1718.975752 26.84394681 -4.99207163)
(1712.136726 28.09395991 -9.405767362)
(1693.142642 44.3665218 -7.781046172)
(1684.214902 54.16047854 -11.01775275)
(1687.268233 59.21824468 -15.16852743)
(1683.601237 71.67120664 -15.53938586)
(1683.601237 71.67120664 -15.53938586)
(1721.988583 9.938086511 -7.759125152)
(1719.688903 16.26890855 -5.2836903)
(1719.688903 16.26890855 -5.2836903)
)
;
    }
    procBoundary3to2
    {
        type            processor;
        value           nonuniform List<vector> 
19
(
(1722.286811 3.325944072 -5.76887107)