/*--------------------------------*- C++ -*----------------------------------*\
  =========                 |
  \\      /  F ield         | OpenFOAM: The Open Source CFD Toolbox
   \\    /   O peration     | Website:  https://openfoam.org
    \\  /    A nd           | Version:  7
     \\/     M anipulation  |
\*---------------------------------------------------------------------------*/
FoamFile
{
    version     2.0;
    format      ascii;
    class       surfaceScalarField;
    location    "0.25";
    object      phi;
}
// * * * * * * * * * * * * * * * * * * * * * * * * * * * * * * * * * * * * * //

dimensions      [0 3 -1 0 0 0 0];

internalField   nonuniform List<scalar> 
3731
(
-1.40369e-05
3.92982e-07
-1.40369e-05
-1.06113e-06
8.26584e-06
-1.5098e-05
9.3041e-06
2.10033e-05
-5.7939e-06
1.55463e-05
3.57241e-05
9.75244e-06
1.89011e-05
5.12126e-05
2.86536e-05
2.08799e-05
6.72202e-05
4.95335e-05
2.28104e-05
8.3745e-05
7.23439e-05
2.58098e-05
0.000100689
9.81537e-05
3.14541e-05
0.00011725
0.000129608
4.10597e-05
0.000131906
0.000170668
-1.1413e-06
1.1413e-06
-3.73893e-06
2.59759e-06
-6.48263e-06
2.74368e-06
-8.62749e-06
2.14487e-06
-9.96111e-06
1.33357e-06
-1.05781e-05
6.17002e-07
-1.06353e-05
5.7203e-08
-1.03089e-05
-3.26406e-07
-9.73068e-06
-5.7828e-07
-8.99284e-06
-7.37828e-07
-8.16419e-06
-8.28634e-07
-7.29701e-06
-8.67176e-07
-6.42987e-06
-8.67107e-07
-5.58937e-06
-8.40538e-07
-4.79253e-06
-7.96818e-07
-4.05041e-06
-7.42108e-07
-3.36975e-06
-6.80644e-07
-2.74465e-06
-6.2509e-07
-2.18268e-06
-5.61929e-07
-1.689e-06
-4.93706e-07
-1.25192e-06
-4.37115e-07
-8.74613e-07
-3.77244e-07
-5.56488e-07
-3.18135e-07
-2.96064e-07
-2.60477e-07
-8.9301e-08
-2.06738e-07
6.76699e-08
-1.56907e-07
1.78024e-07
-1.10375e-07
2.44197e-07
-6.62344e-08
2.67848e-07
-2.36392e-08
2.51769e-07
1.61306e-08
1.98717e-07
5.30901e-08
1.08869e-07
8.98437e-08
-1.55425e-08
1.24401e-07
-1.68674e-07
1.5315e-07
-3.38792e-07
1.70115e-07
-5.01847e-07
1.63018e-07
-6.18949e-07
1.17107e-07
-6.37598e-07
1.86833e-08
-4.62304e-07
-1.75296e-07
-4.62282e-07
-2.65619e-06
3.79746e-06
-5.4678e-06
5.40914e-06
-7.94708e-06
5.22292e-06
-9.68684e-06
3.88467e-06
-1.07144e-05
2.36107e-06
-1.11583e-05
1.06094e-06
-1.11791e-05
7.79104e-08
-1.08679e-05
-6.37614e-07
-1.03172e-05
-1.12892e-06
-9.60333e-06
-1.45176e-06
-8.78912e-06
-1.64279e-06
-7.92423e-06
-1.73206e-06
-7.04647e-06
-1.74491e-06
-6.18383e-06
-1.70319e-06
-5.35646e-06
-1.62418e-06
-4.57792e-06
-1.52059e-06
-3.8558e-06
-1.4027e-06
-3.20026e-06
-1.28065e-06
-2.61097e-06
-1.15124e-06
-2.08086e-06
-1.02377e-06
-1.61564e-06
-9.02381e-07
-1.21026e-06
-7.82662e-07
-8.62693e-07
-6.6567e-07
-5.69922e-07
-5.532e-07
-3.29403e-07
-4.47264e-07
-1.38416e-07
-3.47937e-07
5.96643e-09
-2.54756e-07
1.06421e-07
-1.66639e-07
1.66102e-07
-8.32729e-08
1.87283e-07
-5.03161e-09
1.72146e-07
6.82385e-08
1.23036e-07
1.38987e-07
4.48638e-08
2.02597e-07
-5.79018e-08
2.55895e-07
-1.74623e-07
2.86814e-07
-2.90594e-07
2.79025e-07
-3.81353e-07
2.07913e-07
-4.04611e-07
4.19358e-08
-3.25175e-07
-2.54719e-07
-7.87484e-07
-3.33026e-06
7.1277e-06
-6.1655e-06
8.24434e-06
-8.41011e-06
7.46748e-06
-9.99956e-06
5.47413e-06
-1.09686e-05
3.33011e-06
-1.1406e-05
1.49833e-06
-1.14134e-05
8.53043e-08
-1.10997e-05
-9.51377e-07
-1.05517e-05
-1.67689e-06
-9.84659e-06
-2.15688e-06
-9.04411e-06
-2.44536e-06
-8.19046e-06
-2.58572e-06
-7.32108e-06
-2.61432e-06
-6.46276e-06
-2.56147e-06
-5.63565e-06
-2.45125e-06
-4.85412e-06
-2.30212e-06
-4.12814e-06
-2.12871e-06
-3.46578e-06
-1.94299e-06
-2.86624e-06
-1.75077e-06
-2.32926e-06
-1.56084e-06
-1.855e-06
-1.37665e-06
-1.44015e-06
-1.19747e-06
-1.08145e-06
-1.02435e-06
-7.756e-07
-8.59093e-07
-5.19761e-07
-7.03103e-07
-3.10994e-07
-5.56645e-07
-1.46615e-07
-4.19113e-07
-2.36808e-08
-2.89565e-07
6.0754e-08
-1.67685e-07
1.094e-07
-5.36178e-08
1.25012e-07
5.26869e-08
1.12851e-07
1.51161e-07
7.69788e-08
2.3849e-07
2.40938e-08
3.08834e-07
-3.8745e-08
3.49694e-07
-1.02078e-07
3.42378e-07
-1.54042e-07
2.59878e-07
-1.80544e-07
6.84475e-08
-1.59846e-07
-2.7541e-07
-9.47346e-07
-3.64025e-06
1.07679e-05
-6.6528e-06
1.12569e-05
-8.93804e-06
9.75267e-06
-1.0501e-05
7.03708e-06
-1.14095e-05
4.23858e-06
-1.17711e-05
1.85999e-06
-1.17067e-05
2.08837e-08
-1.13328e-05
-1.32533e-06
-1.07443e-05
-2.26539e-06
-1.00155e-05
-2.8857e-06
-9.20204e-06
-3.2588e-06
-8.34561e-06
-3.44218e-06
-7.47774e-06
-3.48224e-06
-6.62267e-06
-3.4166e-06
-5.79897e-06
-3.27498e-06
-5.02018e-06
-3.08082e-06
-4.29586e-06
-2.85303e-06
-3.63224e-06
-2.60664e-06
-3.03059e-06
-2.35237e-06
-2.49167e-06
-2.0998e-06
-2.0144e-06
-1.85391e-06
-1.59571e-06
-1.61618e-06
-1.23202e-06
-1.38806e-06
-9.19812e-07
-1.17125e-06
-6.55922e-07
-9.6693e-07
-4.3733e-07
-7.75222e-07
-2.61035e-07
-5.95446e-07
-1.23843e-07
-4.26757e-07
-2.25782e-08
-2.689e-07
4.59657e-08
-1.22141e-07
8.55374e-08
1.30992e-08
1.01091e-07
1.3562e-07
9.77225e-08
2.41877e-07
8.1483e-08
3.25031e-07
5.81627e-08
3.72965e-07
3.3262e-08
3.67275e-07
1.07302e-08
2.82434e-07
-7.01989e-09
8.61921e-08
-6.02068e-09
-2.76398e-07
-9.53322e-07
-4.04792e-06
1.48158e-05
-7.35624e-06
1.45651e-05
-9.78932e-06
1.21857e-05
-1.13312e-05
8.57894e-06
-1.2122e-05
5.02939e-06
-1.23319e-05
2.06997e-06
-1.21232e-05
-1.87908e-07
-1.16303e-05
-1.81819e-06
-1.09539e-05
-2.94171e-06
-1.01656e-05
-3.67408e-06
-9.31536e-06
-4.10909e-06
-8.43882e-06
-4.31876e-06
-7.56196e-06
-4.35906e-06
-6.70463e-06
-4.27387e-06
-5.8822e-06
-4.09739e-06
-5.10624e-06
-3.85674e-06
-4.38494e-06
-3.57429e-06
-3.72348e-06
-3.26811e-06
-3.12373e-06
-2.95212e-06
-2.58615e-06
-2.63743e-06
-2.10944e-06
-2.33062e-06
-1.6906e-06
-2.03494e-06
-1.32602e-06
-1.7526e-06
-1.01201e-06
-1.48528e-06
-7.45037e-07
-1.23394e-06
-5.21773e-07
-9.98538e-07
-3.38845e-07
-7.78371e-07
-1.92816e-07
-5.72763e-07
-8.02184e-08
-3.81525e-07
2.60731e-09
-2.04993e-07
5.97592e-08
-4.4038e-08
9.59687e-08
9.94306e-08
1.16245e-07
2.21602e-07
1.25735e-07
3.15567e-07
1.28777e-07
3.69968e-07
1.27958e-07
3.68094e-07
1.2274e-07
2.87594e-07
1.09333e-07
9.95971e-08
7.9461e-08
-2.46538e-07
-8.73831e-07
-4.8801e-06
1.96959e-05
-8.61771e-06
1.83027e-05
-1.12004e-05
1.47684e-05
-1.26356e-05
1.00141e-05
-1.31924e-05
5.58623e-06
-1.31397e-05
2.01725e-06
-1.26943e-05
-6.3322e-07
-1.20119e-05
-2.50057e-06
-1.11957e-05
-3.75802e-06
-1.03107e-05
-4.55899e-06
-9.39798e-06
-5.02175e-06
-8.48402e-06
-5.23271e-06
-7.58717e-06
-5.25591e-06
-6.72125e-06
-5.1398e-06
-5.89708e-06
-4.92148e-06
-5.12323e-06
-4.63061e-06
-4.40581e-06
-4.29175e-06
-3.74868e-06
-3.92524e-06
-3.15343e-06
-3.54736e-06
-2.62006e-06
-3.17078e-06
-2.14702e-06
-2.80366e-06
-1.73136e-06
-2.45062e-06
-1.36938e-06
-2.11461e-06
-1.05718e-06
-1.7975e-06
-7.90932e-07
-1.50015e-06
-5.6696e-07
-1.22248e-06
-3.81566e-07
-9.63764e-07
-2.31032e-07
-7.23291e-07
-1.11605e-07
-5.00912e-07
-1.94181e-08
-2.97138e-07
4.96604e-08
-1.13104e-07
1.00076e-07
4.90295e-08
1.36297e-07
1.85421e-07
1.62414e-07
2.89487e-07
1.81285e-07
3.51087e-07
1.93402e-07
3.55957e-07
1.95514e-07
2.85462e-07
1.79442e-07
1.15666e-07
1.27511e-07
-1.94641e-07
-7.46352e-07
-6.61823e-06
2.63141e-05
-1.08798e-05
2.25643e-05
-1.34692e-05
1.73578e-05
-1.45874e-05
1.11323e-05
-1.4712e-05
5.71089e-06
-1.42377e-05
1.54299e-06
-1.3438e-05
-1.43299e-06
-1.24831e-05
-3.45543e-06
-1.14703e-05
-4.77083e-06
-1.04509e-05
-5.57839e-06
-9.45082e-06
-6.02187e-06
-8.48348e-06
-6.20005e-06
-7.55681e-06
-6.18253e-06
-6.67677e-06
-6.0199e-06
-5.8484e-06
-5.74988e-06
-5.07618e-06
-5.40287e-06
-4.36356e-06
-5.00438e-06
-3.71271e-06
-4.57602e-06
-3.12445e-06
-4.13566e-06
-2.59811e-06
-3.69716e-06
-2.13178e-06
-3.26999e-06
-1.72242e-06
-2.85999e-06
-1.36618e-06
-2.47078e-06
-1.05898e-06
-2.1046e-06
-7.9676e-07
-1.76236e-06
-5.75481e-07
-1.4438e-06
-3.91131e-07
-1.1481e-06
-2.3978e-07
-8.746e-07
-1.17524e-07
-6.23178e-07
-2.04117e-08
-3.94298e-07
5.55849e-08
-1.89112e-07
1.14462e-07
-9.81362e-09
1.60023e-07
1.39882e-07
1.95332e-07
2.54159e-07
2.22e-07
3.24419e-07
2.39001e-07
3.38973e-07
2.41448e-07
2.83032e-07
2.19053e-07
1.38029e-07
1.51877e-07
-1.27471e-07
-5.94512e-07
-1.00938e-05
3.64078e-05
-1.47639e-05
2.72344e-05
-1.69394e-05
1.95333e-05
-1.73483e-05
1.15412e-05
-1.67469e-05
5.1095e-06
-1.56465e-05
4.42581e-07
-1.43543e-05
-2.72525e-06
-1.30362e-05
-4.77357e-06
-1.17687e-05
-6.03839e-06
-1.05782e-05
-6.76886e-06
-9.46821e-06
-7.13189e-06
-8.43389e-06
-7.23436e-06
-7.46965e-06
-7.14679e-06
-6.57152e-06
-6.91801e-06
-5.73756e-06
-6.58378e-06
-4.96729e-06
-6.17313e-06
-4.26095e-06
-5.71077e-06
-3.61867e-06
-5.21828e-06
-3.04006e-06
-4.7143e-06
-2.52368e-06
-4.21355e-06
-2.06712e-06
-3.7265e-06
-1.6671e-06
-3.25996e-06
-1.31966e-06
-2.81825e-06
-1.0205e-06
-2.40383e-06
-7.65284e-07
-2.01762e-06
-5.49708e-07
-1.65937e-06
-3.69561e-07
-1.32823e-06
-2.20749e-07
-1.02344e-06
-9.92603e-08
-7.44708e-07
-1.18361e-09
-4.9237e-07
7.72471e-08
-2.67517e-07
1.39573e-07
-7.21458e-08
1.8892e-07
9.05051e-08
2.27493e-07
2.15576e-07
2.55892e-07
2.96044e-07
2.72096e-07
3.2276e-07
2.70473e-07
2.84646e-07
2.40293e-07
1.68175e-07
1.62237e-07
-4.93906e-08
-4.32261e-07
-1.71185e-05
5.35263e-05
-2.1123e-05
3.12389e-05
-2.18872e-05
2.02974e-05
-2.09733e-05
1.06273e-05
-1.92797e-05
3.41586e-06
-1.73326e-05
-1.50464e-06
-1.54116e-05
-4.64619e-06
-1.36454e-05
-6.5397e-06
-1.20709e-05
-7.61289e-06
-1.06779e-05
-8.16183e-06
-9.43963e-06
-8.37017e-06
-8.32821e-06
-8.34566e-06
-7.32135e-06
-8.15362e-06
-6.40326e-06
-7.83606e-06
-5.56388e-06
-7.42316e-06
-4.79704e-06
-6.93993e-06
-4.09925e-06
-6.40857e-06
-3.46836e-06
-5.84924e-06
-2.90243e-06
-5.28024e-06
-2.39914e-06
-4.7168e-06
-1.95555e-06
-4.17009e-06
-1.56803e-06
-3.64757e-06
-1.23239e-06
-3.15396e-06
-9.44132e-07
-2.69205e-06
-6.9876e-07
-2.26295e-06
-4.91765e-07
-1.86636e-06
-3.18764e-07
-1.50127e-06
-1.75545e-07
-1.16669e-06
-5.81016e-08
-8.62121e-07
3.73214e-08
-5.87743e-07
1.14204e-07
-3.44384e-07
1.75665e-07
-1.33618e-07
2.24187e-07
4.1972e-08
2.61296e-07
1.78481e-07
2.86836e-07
2.70505e-07
2.98261e-07
3.11289e-07
2.89789e-07
2.93077e-07
2.51214e-07
2.06741e-07
1.65116e-07
3.67151e-08
-2.67121e-07
-2.70288e-05
8.05551e-05
-3.01107e-05
3.43207e-05
-2.81778e-05
1.83645e-05
-2.52517e-05
7.70126e-06
-2.21322e-05
2.96367e-07
-1.91724e-05
-4.46445e-06
-1.65301e-05
-7.2884e-06
-1.42599e-05
-8.80993e-06
-1.23438e-05
-9.52897e-06
-1.07278e-05
-9.77774e-06
-9.35016e-06
-9.74779e-06
-8.15652e-06
-9.53928e-06
-7.10547e-06
-9.20467e-06
-6.16802e-06
-8.77343e-06
-5.32518e-06
-8.26609e-06
-4.56459e-06
-7.7006e-06
-3.87863e-06
-7.0945e-06
-3.26256e-06
-6.46527e-06
-2.71284e-06
-5.82996e-06
-2.22615e-06
-5.20353e-06
-1.79891e-06
-4.59738e-06
-1.42707e-06
-4.0194e-06
-1.10624e-06
-3.47475e-06
-8.318e-07
-2.96646e-06
-5.99079e-07
-2.49571e-06
-4.03404e-07
-2.06208e-06
-2.40297e-07
-1.66437e-06
-1.0554e-07
-1.3014e-06
4.78706e-09
-9.72414e-07
9.42624e-08
-6.77218e-07
1.66084e-07
-4.16219e-07
2.2294e-07
-1.90471e-07
2.66815e-07
-1.88255e-09
2.98655e-07
1.46664e-07
3.17841e-07
2.51313e-07
3.21634e-07
3.07478e-07
3.04474e-07
3.1022e-07
2.57138e-07
2.5409e-07
1.64544e-07
1.29286e-07
-1.02594e-07
6.18011e-05
0.000137365
0.000167754
6.47144e-05
7.77459e-05
0.000137391
0.000163277
8.22234e-05
8.63175e-05
0.000135956
0.000157499
9.20952e-05
9.1437e-05
0.000133844
0.000152449
9.6487e-05
9.40018e-05
0.000131484
0.000148492
9.7959e-05
9.41975e-05
0.000129108
0.000145256
9.74334e-05
9.22022e-05
0.000126744
0.000142357
9.51012e-05
8.82817e-05
0.000124311
0.000139506
9.11323e-05
8.29674e-05
0.000121727
0.000136584
8.58896e-05
7.73426e-05
0.0001338
8.01265e-05
0.00013168
7.48109e-05
0.000130541
7.0582e-05
0.000130539
6.67611e-05
0.00013138
6.3007e-05
0.000135723
5.98693e-05
0.000143242
5.56269e-05
0.000151692
5.06172e-05
0.000159561
4.53861e-05
0.000165855
4.05879e-05
0.000168236
3.71681e-05
0.000158096
3.59679e-05
0.000136459
3.48311e-05
0.000114946
2.48961e-05
9.68611e-05
9.61583e-06
8.23077e-05
-4.93127e-06
7.13642e-05
-1.88362e-05
6.52146e-05
-3.34949e-05
6.34353e-05
-4.4222e-05
6.35401e-05
-4.74605e-05
6.34234e-05
-4.49664e-05
6.23918e-05
-4.03098e-05
6.05514e-05
-3.56904e-05
-3.18854e-05
-5.77312e-05
0.000122446
-0.000118107
6.03762e-05
-0.000107532
-1.05756e-05
-1.79571e-05
-8.95747e-05
5.55959e-05
0.000149073
-5.97576e-06
0.000121948
-5.77245e-05
4.11731e-05
4.84798e-06
-8.05295e-05
8.62602e-05
0.000154908
6.33964e-05
0.000144812
-1.09031e-05
0.000115473
5.62651e-05
-6.23202e-05
9.68086e-05
0.000154587
8.79582e-05
0.000153662
6.05253e-05
0.000142906
0.000112738
4.05214e-06
9.99578e-05
0.000152588
9.64118e-05
0.000157208
8.51625e-05
0.000154155
0.000141446
5.6455e-05
9.97189e-05
0.000150302
9.86226e-05
0.000158304
9.30157e-05
0.000159762
0.000155365
7.90965e-05
9.74555e-05
0.000147948
9.7655e-05
0.000158105
9.44986e-05
0.000162918
0.000162324
8.75397e-05
9.36405e-05
0.00014544
9.47162e-05
0.000157029
9.31972e-05
0.000164437
0.000166364
8.91569e-05
8.85594e-05
0.00014277
9.02575e-05
0.000155331
8.99102e-05
0.000164784
0.00016907
8.72041e-05
8.27463e-05
0.00014015
8.47718e-05
0.000153305
8.52232e-05
0.000164333
0.000170717
8.35764e-05
7.69154e-05
0.000138046
7.8803e-05
0.000151418
7.96599e-05
0.000163476
0.000171551
7.88257e-05
7.1587e-05
0.000137041
7.28199e-05
0.000150185
7.36585e-05
0.000162637
0.000171862
7.33478e-05
6.66128e-05
0.000137189
6.69431e-05
0.000149855
6.74142e-05
0.000162166
0.000171981
6.72959e-05
6.17447e-05
0.000138451
6.10738e-05
0.000150526
6.10373e-05
0.000162203
0.00017205
6.09676e-05
5.67375e-05
0.000141583
5.50843e-05
0.000152179
5.46129e-05
0.000162674
0.000172033
5.46303e-05
5.12912e-05
0.000145919
4.90015e-05
0.000154469
4.8295e-05
0.000163381
0.000171792
4.85356e-05
4.58049e-05
0.000150731
4.32089e-05
0.000157065
4.24462e-05
0.000164143
0.000171145
4.30936e-05
4.07881e-05
0.000155329
3.82661e-05
0.000159587
3.75399e-05
0.000164869
0.000169995
3.86902e-05
3.70182e-05
0.000158899
3.47017e-05
0.000161903
3.38864e-05
0.000165685
0.000168587
3.52937e-05
3.508e-05
0.000160987
3.31008e-05
0.000163882
3.20394e-05
0.000166746
0.000168027
3.25993e-05
3.47634e-05
0.000162192
3.36601e-05
0.000164986
3.33124e-05
0.000167094
0.000167591
3.37492e-05
3.54458e-05
0.000161577
3.58338e-05
0.000164598
3.65567e-05
0.000166371
0.000165914
3.82336e-05
3.63193e-05
0.000150154
3.83872e-05
0.00016253
4.04391e-05
0.000164319
0.000163324
4.30287e-05
3.09191e-05
0.00012885
3.99242e-05
0.000153525
4.37063e-05
0.000160537
0.000159871
4.71593e-05
1.72176e-05
0.000106701
3.63079e-05
0.000134434
4.47681e-05
0.000152077
0.000154721
4.99181e-05
-1.02413e-06
8.88894e-05
1.97707e-05
0.000113639
3.5699e-05
0.000136148
0.000144842
4.55778e-05
-2.11931e-05
7.65877e-05
-3.59559e-06
9.60418e-05
1.47188e-05
0.000117834
0.000130674
2.88866e-05
-3.76811e-05
7.00468e-05
-2.58641e-05
8.42248e-05
-9.22533e-06
0.000101195
0.00011416
7.28889e-06
-4.46725e-05
6.72588e-05
-3.75237e-05
7.7076e-05
-2.50743e-05
8.8746e-05
9.86751e-05
-9.58919e-06
-4.30248e-05
6.53172e-05
-3.79617e-05
7.20128e-05
-2.87719e-05
7.95561e-05
8.60247e-05
-1.61214e-05
-3.79754e-05
6.29829e-05
-3.35056e-05
6.7543e-05
-2.62551e-05
7.23056e-05
7.62251e-05
-1.64556e-05
-3.29012e-05
6.01936e-05
-2.86493e-05
6.32911e-05
-2.26311e-05
6.62873e-05
6.86059e-05
-1.50119e-05
-2.88625e-05
-2.48466e-05
-1.97212e-05
-1.36279e-05
-5.20261e-05
4.30065e-05
-4.22113e-05
2.4506e-05
-3.56534e-05
1.18067e-05
-3.01318e-05
2.17958e-06
-2.53905e-05
-4.4451e-06
-2.1326e-05
-8.52895e-06
-1.79005e-05
-1.07138e-05
-1.50721e-05
-1.16383e-05
-1.27675e-05
-1.18335e-05
-1.08907e-05
-1.16546e-05
-9.34436e-06
-1.1294e-05
-8.04607e-06
-1.08376e-05
-6.93346e-06
-1.03173e-05
-5.963e-06
-9.74392e-06
-5.10555e-06
-9.12355e-06
-4.34203e-06
-8.46411e-06
-3.66031e-06
-7.77614e-06
-3.05279e-06
-7.07278e-06
-2.51408e-06
-6.36871e-06
-2.03968e-06
-5.67794e-06
-1.62525e-06
-5.01179e-06
-1.26629e-06
-4.37832e-06
-9.58138e-07
-3.78292e-06
-6.95959e-07
-3.2287e-06
-4.74858e-07
-2.71684e-06
-2.90028e-07
-2.24687e-06
-1.36912e-07
-1.81744e-06
-1.12736e-08
-1.42704e-06
9.07548e-08
-1.07449e-06
1.72621e-07
-7.59129e-07
2.37277e-07
-4.80886e-07
2.8708e-07
-2.40271e-07
3.23628e-07
-3.84287e-08
3.47477e-07
1.22824e-07
3.57717e-07
2.41079e-07
3.51565e-07
3.13662e-07
3.23807e-07
3.38003e-07
2.66218e-07
3.1169e-07
1.65818e-07
2.29661e-07
6.31871e-08
-6.28101e-05
2.5287e-05
-5.0278e-05
1.19738e-05
-4.09786e-05
2.50723e-06
-3.37519e-05
-5.04717e-06
-2.7862e-05
-1.03349e-05
-2.29624e-05
-1.34285e-05
-1.89054e-05
-1.47709e-05
-1.56018e-05
-1.49419e-05
-1.29542e-05
-1.44811e-05
-1.08439e-05
-1.3765e-05
-9.1487e-06
-1.29892e-05
-7.7625e-06
-1.22238e-05
-6.6036e-06
-1.14762e-05
-5.61438e-06
-1.07331e-05
-4.75578e-06
-9.98204e-06
-4.00205e-06
-9.21783e-06
-3.33656e-06
-8.4417e-06
-2.74866e-06
-7.66074e-06
-2.23109e-06
-6.88628e-06
-1.7782e-06
-6.13078e-06
-1.38498e-06
-5.40499e-06
-1.04652e-06
-4.71683e-06
-7.57818e-07
-4.07165e-06
-5.13925e-07
-3.47261e-06
-3.09868e-07
-2.92086e-06
-1.40834e-07
-2.41585e-06
-2.28184e-09
-1.95598e-06
1.09978e-07
-1.53933e-06
1.99694e-07
-1.16423e-06
2.70103e-07
-8.29533e-07
3.23872e-07
-5.34643e-07
3.6303e-07
-2.79442e-07
3.88845e-07
-6.42717e-08
4.01579e-07
1.10077e-07
4.00171e-07
2.42489e-07
3.8194e-07
3.31911e-07
3.42211e-07
3.77744e-07
2.73879e-07
3.80007e-07
1.6605e-07
3.37473e-07
2.29226e-07
-5.89642e-05
2.19309e-05
-5.12102e-05
4.21988e-06
-4.27368e-05
-5.96617e-06
-3.53584e-05
-1.24256e-05
-2.91516e-05
-1.65418e-05
-2.38951e-05
-1.8685e-05
-1.9478e-05
-1.9188e-05
-1.58482e-05
-1.85717e-05
-1.29364e-05
-1.73929e-05
-1.06346e-05
-1.60669e-05
-8.81479e-06
-1.4809e-05
-7.35674e-06
-1.36818e-05
-6.1638e-06
-1.26691e-05
-5.16601e-06
-1.17309e-05
-4.3152e-06
-1.08329e-05
-3.57927e-06
-9.9538e-06
-2.93731e-06
-9.08368e-06
-2.37578e-06
-8.22227e-06
-1.88555e-06
-7.37647e-06
-1.45988e-06
-6.55644e-06
-1.09305e-06
-5.77184e-06
-7.79761e-07
-5.03017e-06
-5.14788e-07
-4.33661e-06
-2.93073e-07
-3.6943e-06
-1.09658e-07
-3.10426e-06
4.02213e-08
-2.56574e-06
1.61037e-07
-2.07682e-06
2.56863e-07
-1.63515e-06
3.31267e-07
-1.2386e-06
3.87252e-07
-8.85489e-07
4.27214e-07
-5.74602e-07
4.52903e-07
-3.05145e-07
4.65302e-07
-7.66793e-08
4.64447e-07
1.10934e-07
4.49207e-07
2.57723e-07
4.17083e-07
3.64017e-07
3.63969e-07
4.30834e-07
2.83832e-07
4.60113e-07
1.67611e-07
4.53675e-07
3.96846e-07
-3.96476e-05
6.56307e-05
-4.51506e-05
9.72275e-06
-4.01988e-05
-1.0918e-05
-3.42929e-05
-1.83316e-05
-2.88025e-05
-2.20322e-05
-2.38278e-05
-2.36597e-05
-1.94316e-05
-2.35842e-05
-1.56951e-05
-2.23082e-05
-1.26421e-05
-2.04458e-05
-1.02173e-05
-1.84917e-05
-8.31287e-06
-1.67134e-05
-6.80851e-06
-1.51861e-05
-5.59974e-06
-1.38779e-05
-4.60746e-06
-1.27233e-05
-3.77596e-06
-1.16644e-05
-3.06773e-06
-1.0662e-05
-2.45804e-06
-9.6933e-06
-1.93071e-06
-8.74957e-06
-1.47487e-06
-7.83234e-06
-1.08272e-06
-6.94865e-06
-7.47962e-07
-6.10661e-06
-4.64947e-07
-5.31315e-06
-2.28346e-07
-4.57319e-06
-3.30218e-08
-3.88962e-06
1.25935e-07
-3.26324e-06
2.53171e-07
-2.693e-06
3.53003e-07
-2.17664e-06
4.29304e-07
-1.71143e-06
4.85418e-07
-1.29471e-06
5.24105e-07
-9.24193e-07
5.47507e-07
-5.98031e-07
5.57105e-07
-3.14749e-07
5.53632e-07
-7.31837e-08
5.36944e-07
1.27646e-07
5.05896e-07
2.88777e-07
4.58199e-07
4.11701e-07
3.9028e-07
4.98732e-07
2.97068e-07
5.5331e-07
1.71079e-07
5.79652e-07
5.67926e-07
5.17636e-06
0.000116909
-2.81488e-05
4.30479e-05
-3.22357e-05
-6.83113e-06
-2.999e-05
-2.05773e-05
-2.6458e-05
-2.55641e-05
-2.25322e-05
-2.75855e-05
-1.86186e-05
-2.74977e-05
-1.50467e-05
-2.58801e-05
-1.20092e-05
-2.34834e-05
-9.55142e-06
-2.09494e-05
-7.61561e-06
-1.86493e-05
-6.09879e-06
-1.6703e-05
-4.89774e-06
-1.50789e-05
-3.92868e-06
-1.36923e-05
-3.13064e-06
-1.24624e-05
-2.46188e-06
-1.13307e-05
-1.89458e-06
-1.02606e-05
-1.4103e-06
-9.2339e-06
-9.96643e-07
-8.24599e-06
-6.44928e-07
-7.30034e-06
-3.48403e-07
-6.40312e-06
-1.01217e-07
-5.56028e-06
1.02059e-07
-4.77645e-06
2.66538e-07
-4.0541e-06
3.97029e-07
-3.39371e-06
4.97986e-07
-2.79392e-06
5.73476e-07
-2.2521e-06
6.27119e-07
-1.76508e-06
6.62002e-07
-1.32963e-06
6.80622e-07
-9.4286e-07
6.84851e-07
-6.02293e-07
6.75898e-07
-3.05804e-07
6.54267e-07
-5.15431e-08
6.19672e-07
1.62245e-07
5.70978e-07
3.37473e-07
5.06097e-07
4.76589e-07
4.21921e-07
5.82915e-07
3.14192e-07
6.61042e-07
1.76727e-07
7.17114e-07
7.44644e-07
4.52714e-05
0.000150734
1.38803e-06
8.69313e-05
-1.8184e-05
1.27409e-05
-2.22413e-05
-1.65201e-05
-2.19782e-05
-2.58272e-05
-1.98986e-05
-2.96651e-05
-1.69573e-05
-3.04389e-05
-1.3843e-05
-2.89945e-05
-1.0994e-05
-2.63325e-05
-8.60581e-06
-2.33376e-05
-6.70073e-06
-2.05544e-05
-5.2114e-06
-1.81922e-05
-4.04584e-06
-1.62445e-05
-3.12081e-06
-1.46173e-05
-2.37269e-06
-1.32105e-05
-1.75688e-06
-1.19465e-05
-1.24332e-06
-1.07742e-05
-8.11877e-07
-9.66538e-06
-4.48974e-07
-8.60889e-06
-1.45214e-07
-7.60404e-06
1.06413e-07
-6.65473e-06
3.11933e-07
-5.76584e-06
4.76679e-07
-4.94122e-06
6.0568e-07
-4.18307e-06
7.03534e-07
-3.49151e-06
7.7443e-07
-2.86478e-06
8.22141e-07
-2.29982e-06
8.49983e-07
-1.79295e-06
8.60742e-07
-1.34041e-06
8.56608e-07
-9.38736e-07
8.39158e-07
-5.84836e-07
8.09326e-07
-2.75972e-07
7.67397e-07
-9.6286e-09
7.12965e-07
2.16652e-07
6.44891e-07
4.05535e-07
5.61251e-07
5.60232e-07
4.59325e-07
6.84843e-07
3.35529e-07
7.84829e-07
1.84816e-07
8.67817e-07
9.29451e-07
6.7278e-05
0.000170996
2.99971e-05
0.000124212
-4.92854e-07
4.32308e-05
-1.16673e-05
-5.34564e-06
-1.5553e-05
-2.19416e-05
-1.59836e-05
-2.92345e-05
-1.4454e-05
-3.19685e-05
-1.20708e-05
-3.13777e-05
-9.57797e-06
-2.88253e-05
-7.36257e-06
-2.5553e-05
-5.55316e-06
-2.23637e-05
-4.13435e-06
-1.9611e-05
-3.03475e-06
-1.7344e-05
-2.17675e-06
-1.54753e-05
-1.49675e-06
-1.38906e-05
-9.48799e-07
-1.24945e-05
-5.01466e-07
-1.12215e-05
-1.33502e-07
-1.00333e-05
1.69412e-07
-8.91179e-06
4.17122e-07
-7.8518e-06
6.16905e-07
-6.85454e-06
7.74575e-07
-5.92353e-06
8.95385e-07
-5.06202e-06
9.84095e-07
-4.27174e-06
1.04501e-06
-3.5524e-06
1.08199e-06
-2.90178e-06
1.09847e-06
-2.31634e-06
1.09738e-06
-1.7919e-06
1.08116e-06
-1.32419e-06
1.05165e-06
-9.09199e-07
1.01011e-06
-5.43261e-07
9.57192e-07
-2.23038e-07
8.92962e-07
5.45968e-08
8.1688e-07
2.92723e-07
7.27774e-07
4.94636e-07
6.23834e-07
6.64159e-07
5.02653e-07
8.06001e-07
3.61192e-07
9.26263e-07
1.95339e-07
1.03365e-06
1.12479e-06
7.73617e-05
0.000182791
5.03217e-05
0.000151252
1.78184e-05
7.57341e-05
5.44139e-07
1.19287e-05
-7.6906e-06
-1.37068e-05
-1.10169e-05
-2.59082e-05
-1.12092e-05
-3.17763e-05
-9.76829e-06
-3.28186e-05
-7.76988e-06
-3.08237e-05
-5.81828e-06
-2.75046e-05
-4.16587e-06
-2.40161e-05
-2.86053e-06
-2.09164e-05
-1.85841e-06
-1.83462e-05
-1.09171e-06
-1.6242e-05
-4.99209e-07
-1.4483e-05
-3.50453e-08
-1.29586e-05
3.32707e-07
-1.15893e-05
6.25788e-07
-1.03264e-05
8.58955e-07
-9.14495e-06
1.04222e-06
-8.03507e-06
1.18275e-06
-6.99506e-06
1.28621e-06
-6.02694e-06
1.35749e-06
-5.13325e-06
1.40099e-06
-4.31522e-06
1.42061e-06
-3.57203e-06
1.41983e-06
-2.90102e-06
1.40163e-06
-2.29816e-06
1.36853e-06
-1.7588e-06
1.32253e-06
-1.27819e-06
1.26511e-06
-8.51764e-07
1.19717e-06
-4.75315e-07
1.11907e-06
-1.44944e-07
1.03066e-06
1.43017e-07
9.3121e-07
3.92175e-07
8.19494e-07
6.06352e-07
6.93768e-07
7.89863e-07
5.51852e-07
9.47881e-07
3.91131e-07
1.08696e-06
2.08254e-07
1.21652e-06
1.33305e-06
8.06781e-05
0.000189317
6.16434e-05
0.000170287
3.38548e-05
0.000103523
1.30798e-05
3.27037e-05
8.61031e-07
-1.48808e-06
-5.37991e-06
-1.96673e-05
-7.40886e-06
-2.97473e-05
-7.01934e-06
-3.32082e-05
-5.60249e-06
-3.22405e-05
-3.98232e-06
-2.91248e-05
-2.53899e-06
-2.54595e-05
-1.3873e-06
-2.20681e-05
-5.14005e-07
-1.92195e-05
1.36548e-07
-1.68925e-05
6.21366e-07
-1.49678e-05
9.85118e-07
-1.33224e-05
1.25946e-06
-1.18636e-05
1.46599e-06
-1.05329e-05
1.61933e-06
-9.29834e-06
1.72939e-06
-8.14511e-06
1.80307e-06
-7.06872e-06
1.84571e-06
-6.06957e-06
1.86173e-06
-5.1493e-06
1.85504e-06
-4.30855e-06
1.82904e-06
-3.54606e-06
1.78667e-06
-2.85865e-06
1.73041e-06
-2.24187e-06
1.66228e-06
-1.69064e-06
1.58381e-06
-1.19971e-06
1.49605e-06
-7.6401e-07
1.39953e-06
-3.78813e-07
1.2943e-06
-3.97247e-08
1.17993e-06
2.5739e-07
1.0555e-06
5.16597e-07
9.19683e-07
7.42148e-07
7.70757e-07
9.38756e-07
6.06688e-07
1.11192e-06
4.25166e-07
1.26847e-06
2.2345e-07
1.41824e-06
1.55651e-06
7.97965e-05
0.000193097
6.65328e-05
0.000183551
4.51924e-05
0.000124863
2.41788e-05
5.37173e-05
9.25565e-06
1.3435e-05
4.43331e-07
-1.0855e-05
-3.30064e-06
-2.60033e-05
-3.93806e-06
-3.25708e-05
-3.12356e-06
-3.30551e-05
-1.87212e-06
-3.03763e-05
-6.77294e-07
-2.66543e-05
2.84626e-07
-2.303e-05
9.98557e-07
-1.99334e-05
1.50797e-06
-1.7402e-05
1.86467e-06
-1.53245e-05
2.11106e-06
-1.35688e-05
2.27771e-06
-1.20303e-05
2.38563e-06
-1.06408e-05
2.44886e-06
-9.36155e-06
2.47682e-06
-8.17307e-06
2.47597e-06
-7.06789e-06
2.45113e-06
-6.04476e-06
2.40618e-06
-5.10437e-06
2.34438e-06
-4.24677e-06
2.26848e-06
-3.47016e-06
2.1808e-06
-2.77095e-06
2.0832e-06
-2.14426e-06
1.97714e-06
-1.58457e-06
1.86364e-06
-1.08619e-06
1.74327e-06
-6.43623e-07
1.61615e-06
-2.51674e-07
1.48196e-06
9.44754e-08
1.33998e-06
3.9937e-07
1.18907e-06
6.67479e-07
1.02777e-06
9.0341e-07
8.5433e-07
1.11217e-06
6.66776e-07
1.29947e-06
4.63004e-07
1.47226e-06
2.40754e-07
1.64051e-06
1.79727e-06
7.64672e-05
0.000195456
6.73146e-05
0.000192703
5.15971e-05
0.000140581
3.22457e-05
7.30687e-05
1.62495e-05
2.94312e-05
5.90531e-06
-5.1084e-07
8.68751e-07
-2.09668e-05
-6.38275e-07
-3.10637e-05
-3.80787e-07
-3.33126e-05
4.96547e-07
-3.12536e-05
1.41283e-06
-2.75706e-05
2.15304e-06
-2.37703e-05
2.67853e-06
-2.04589e-05
3.02171e-06
-1.77452e-05
3.22905e-06
-1.55319e-05
3.34031e-06
-1.36801e-05
3.38448e-06
-1.20744e-05
3.3814e-06
-1.06377e-05
3.34414e-06
-9.32426e-06
3.2812e-06
-8.11013e-06
3.1983e-06
-6.98503e-06
3.09955e-06
-5.94603e-06
2.98808e-06
-4.9929e-06
2.86639e-06
-4.12506e-06
2.73649e-06
-3.34024e-06
2.59993e-06
-2.6344e-06
2.4579e-06
-2.00226e-06
2.31122e-06
-1.43791e-06
2.16031e-06
-9.3529e-07
2.00524e-06
-4.88522e-07
1.84566e-06
-9.20527e-08
1.68085e-06
2.59301e-07
1.50977e-06
5.70446e-07
1.33104e-06
8.46187e-07
1.14301e-06
1.09141e-06
9.43853e-07
1.31131e-06
7.31599e-07
1.51173e-06
5.0426e-07
1.69962e-06
2.59948e-07
1.88484e-06
2.05723e-06
7.17577e-05
0.000197046
6.57825e-05
0.000198678
5.40272e-05
0.000152336
3.69999e-05
9.0096e-05
2.14106e-05
4.50204e-05
1.06558e-05
1.02439e-05
4.93062e-06
-1.52416e-05
2.80727e-06
-2.89404e-05
2.59291e-06
-3.30982e-05
3.10509e-06
-3.17657e-05
3.72765e-06
-2.81932e-05
4.21694e-06
-2.42596e-05
4.52409e-06
-2.07661e-05
4.67457e-06
-1.78957e-05
4.71031e-06
-1.55677e-05
4.66802e-06
-1.36378e-05
4.5746e-06
-1.1981e-05
4.44812e-06
-1.05113e-05
4.30008e-06
-9.17627e-06
4.13771e-06
-7.94779e-06
3.96559e-06
-6.81293e-06
3.78684e-06
-5.76728e-06
3.60366e-06
-4.80972e-06
3.41765e-06
-3.93906e-06
3.22993e-06
-3.15254e-06
3.04124e-06
-2.44573e-06
2.85197e-06
-1.81302e-06
2.66222e-06
-1.24817e-06
2.47178e-06
-7.4484e-07
2.28013e-06
-2.96845e-07
2.08642e-06
1.01668e-07
1.88954e-06
4.56184e-07
1.68805e-06
7.71913e-07
1.48031e-06
1.05391e-06
1.26446e-06
1.30724e-06
1.03854e-06
1.53724e-06
8.00526e-07
1.74977e-06
5.48473e-07
1.95169e-06
2.80779e-07
2.15255e-06
2.33802e-06
6.61945e-05
0.000198147
6.2522e-05
0.000202351
5.40033e-05
0.000160855
3.92177e-05
0.000104882
2.49271e-05
5.9311e-05
1.47048e-05
2.04662e-05
8.84229e-06
-9.3791e-06
6.375e-06
-2.64731e-05
5.79555e-06
-3.25187e-05
5.96167e-06
-3.19318e-05
6.26665e-06
-2.84982e-05
6.47231e-06
-2.44652e-05
6.52896e-06
-2.08227e-05
6.459e-06
-1.78257e-05
6.3004e-06
-1.5409e-05
6.08626e-06
-1.34236e-05
5.84045e-06
-1.17352e-05
5.57852e-06
-1.02493e-05
5.30989e-06
-8.90764e-06
5.04001e-06
-7.6779e-06
4.772e-06
-6.5449e-06
4.50769e-06
-5.50296e-06
4.24813e-06
-4.55018e-06
3.99385e-06
-3.68481e-06
3.74497e-06
-2.90368e-06
3.50127e-06
-2.20205e-06
3.26231e-06
-1.57404e-06
3.02739e-06
-1.01322e-06
2.79559e-06
-5.13005e-07
2.56575e-06
-6.70005e-08
2.33653e-06
3.30881e-07
2.10633e-06
6.86364e-07
1.87335e-06
1.00487e-06
1.63561e-06
1.29162e-06
1.39104e-06
1.55181e-06
1.13749e-06
1.7908e-06
8.72832e-07
2.01444e-06
5.95126e-07
2.2294e-06
3.02966e-07
2.44472e-06
2.64099e-06
6.0275e-05
0.00019884
5.80172e-05
0.000204608
5.20298e-05
0.000166842
3.95208e-05
0.000117391
2.72828e-05
7.1549e-05
1.8289e-05
2.94599e-05
1.27355e-05
-3.82557e-06
1.01351e-05
-2.38727e-05
9.25562e-06
-3.16392e-05
9.07131e-06
-3.17476e-05
9.02697e-06
-2.84539e-05
8.91039e-06
-2.43487e-05
8.6814e-06
-2.05937e-05
8.36229e-06
-1.75066e-05
7.98682e-06
-1.50336e-05
7.58328e-06
-1.30201e-05
7.1713e-06
-1.13232e-05
6.76292e-06
-9.84097e-06
6.36478e-06
-8.5095e-06
5.98014e-06
-7.29323e-06
5.61031e-06
-6.17505e-06
5.25559e-06
-5.14825e-06
4.91567e-06
-4.21028e-06
4.58982e-06
-3.35899e-06
4.277e-06
-2.59089e-06
3.97597e-06
-1.90103e-06
3.68532e-06
-1.28339e-06
3.40352e-06
-7.31398e-07
3.12888e-06
-2.38365e-07
2.85961e-06
2.02254e-07
2.59378e-06
5.96688e-07
2.32932e-06
9.5082e-07
2.06399e-06
1.27019e-06
1.79551e-06
1.5601e-06
1.52153e-06
1.82579e-06
1.23968e-06
2.07265e-06
9.47722e-07
2.30639e-06
6.43658e-07
2.53346e-06
3.26209e-07
2.76218e-06
2.96722e-06
5.43813e-05
0.000199089
5.32128e-05
0.000205777
4.87243e-05
0.00017133
3.8777e-05
0.000127338
2.91185e-05
8.12074e-05
2.16987e-05
3.68798e-05
1.67575e-05
1.11565e-06
1.41603e-05
-2.12755e-05
1.30056e-05
-3.04845e-05
1.24414e-05
-3.11834e-05
1.2001e-05
-2.80134e-05
1.15167e-05
-2.38643e-05
1.09644e-05
-2.00414e-05
1.0367e-05
-1.69091e-05
9.75276e-06
-1.44194e-05
9.14357e-06
-1.2411e-05
8.55312e-06
-1.07328e-05
7.98879e-06
-9.27664e-06
7.45366e-06
-7.97436e-06
6.94826e-06
-6.78783e-06
6.47181e-06
-5.69862e-06
6.02284e-06
-4.69929e-06
5.59945e-06
-3.7869e-06
5.1995e-06
-2.95903e-06
4.82068e-06
-2.21206e-06
4.4606e-06
-1.54095e-06
4.11684e-06
-9.39631e-07
3.78695e-06
-4.01525e-07
3.46845e-06
8.00885e-08
3.15889e-06
5.11783e-07
2.85573e-06
8.99845e-07
2.55634e-06
1.2502e-06
2.25812e-06
1.56841e-06
1.9584e-06
1.85981e-06
1.65456e-06
2.12963e-06
1.34402e-06
2.38318e-06
1.02434e-06
2.62605e-06
6.93472e-07
2.86433e-06
3.50188e-07
3.10548e-06
3.31741e-06
4.88679e-05
0.000198756
4.88474e-05
0.000205798
4.55034e-05
0.000174674
3.82967e-05
0.000134545
3.12344e-05
8.82697e-05
2.53688e-05
4.27454e-05
2.10956e-05