-4.99 	348.432 	7.66753e-13 	100000
-4.98 	348.432 	7.40212e-13 	100000
-4.97 	348.432 	6.42381e-13 	100000
-4.96 	348.432 	4.97198e-13 	100000
-4.95 	348.432 	3.50979e-13 	100000
-4.94 	348.432 	3.13395e-13 	100000
-4.93 	348.432 	3.43088e-13 	100000
-4.92 	348.432 	2.95535e-13 	100000
-4.91 	348.432 	1.99025e-13 	100000
-4.9 	348.432 	1.86384e-13 	100000
-4.89 	348.432 	2.24755e-13 	100000
-4.88 	348.432 	1.94709e-13 	100000
-4.87 	348.432 	1.35506e-13 	100000
-4.86 	348.432 	8.21363e-14 	100000
-4.85 	348.432 	2.95544e-14 	100000
-4.84 	348.432 	2.87777e-14 	100000
-4.83 	348.432 	5.86064e-14 	100000
-4.82 	348.432 	8.44755e-14 	100000
-4.81 	348.432 	1.0345e-13 	100000
-4.8 	348.432 	1.23592e-13 	100000
-4.79 	348.432 	1.27355e-13 	100000
-4.78 	348.432 	1.28289e-13 	100000
-4.77 	348.432 	1.49621e-13 	100000
-4.76 	348.432 	1.24033e-13 	100000
-4.75 	348.432 	5.60241e-14 	100000
-4.74 	348.432 	4.44115e-14 	100000
-4.73 	348.432 	6.43811e-14 	100000
-4.72 	348.432 	8.27249e-14 	100000
-4.71 	348.432 	9.45894e-14 	100000
-4.7 	348.432 	9.46884e-14 	100000
-4.69 	348.432 	1.53046e-13 	100000
-4.68 	348.432 	2.19164e-13 	100000
-4.67 	348.432 	1.913e-13 	100000
-4.66 	348.432 	1.32115e-13 	100000
-4.65 	348.432 	1.35917e-13 	100000
-4.64 	348.432 	1.36754e-13 	100000
-4.63 	348.432 	1.02059e-13 	100000
-4.62 	348.432 	8.85336e-14 	100000
-4.61 	348.432 	7.32673e-14 	100000
-4.6 	348.432 	5.87873e-14 	100000
-4.59 	348.432 	8.22867e-14 	100000
-4.58 	348.432 	9.84335e-14 	100000
-4.57 	348.432 	9.15954e-14 	100000
-4.56 	348.432 	7.32698e-14 	100000
-4.55 	348.432 	4.7382e-14 	100000
-4.54 	348.432 	1.92848e-14 	100000
-4.53 	348.432 	3.47473e-14 	100000
-4.52 	348.432 	3.71218e-14 	100000
-4.51 	348.432 	5.98912e-14 	100000
-4.5 	348.432 	7.55534e-14 	100000
-4.49 	348.432 	5.65696e-14 	100000
-4.48 	348.432 	8.59751e-14 	100000
-4.47 	348.432 	5.86397e-14 	100000
-4.46 	348.432 	3.69672e-14 	100000
-4.45 	348.432 	8.29618e-14 	100000
-4.44 	348.432 	1.33092e-13 	100000
-4.43 	348.432 	1.94676e-13 	100000
-4.42 	348.432 	2.13113e-13 	100000
-4.41 	348.432 	1.84545e-13 	100000
-4.4 	348.432 	1.46631e-13 	100000
-4.39 	348.432 	8.90092e-14 	100000
-4.38 	348.432 	7.20153e-14 	100000
-4.37 	348.432 	8.228e-14 	100000
-4.36 	348.432 	1.01779e-13 	100000
-4.35 	348.432 	1.40882e-13 	100000
-4.34 	348.432 	1.62824e-13 	100000
-4.33 	348.432 	1.54785e-13 	100000
-4.32 	348.432 	1.53077e-13 	100000
-4.31 	348.432 	1.33124e-13 	100000
-4.3 	348.432 	7.06864e-14 	100000
-4.29 	348.432 	2.6584e-14 	100000
-4.28 	348.432 	2.19959e-14 	100000
-4.27 	348.432 	4.41341e-14 	100000
-4.26 	348.432 	6.37997e-14 	100000
-4.25 	348.432 	7.68992e-14 	100000
-4.24 	348.432 	5.36706e-14 	100000
-4.23 	348.432 	1.50518e-14 	100000
-4.22 	348.432 	2.08475e-14 	100000
-4.21 	348.432 	7.04685e-14 	100000
-4.2 	348.432 	1.17637e-13 	100000
-4.19 	348.432 	1.25979e-13 	100000
-4.18 	348.432 	8.22792e-14 	100000
-4.17 	348.432 	4.37238e-14 	100000
-4.16 	348.432 	7.07373e-14 	100000
-4.15 	348.432 	9.29684e-14 	100000
-4.14 	348.432 	1.06018e-13 	100000
-4.13 	348.432 	1.48932e-13 	100000
-4.12 	348.432 	1.94232e-13 	100000
-4.11 	348.432 	1.68542e-13 	100000
-4.1 	348.432 	1.08956e-13 	100000
-4.09 	348.432 	8.57733e-14 	100000
-4.08 	348.432 	5.26364e-14 	100000
-4.07 	348.432 	2.22185e-14 	100000
-4.06 	348.432 	3.95015e-14 	100000
-4.05 	348.432 	4.95178e-14 	100000
-4.04 	348.432 	5.72813e-14 	100000
-4.03 	348.432 	5.73091e-14 	100000
-4.02 	348.432 	3.72265e-14 	100000
-4.01 	348.432 	6.63617e-14 	100000
-4 	348.432 	1.20451e-13 	100000
-3.99 	348.432 	1.54087e-13 	100000
-3.98 	348.432 	1.84744e-13 	100000
-3.97 	348.432 	2.09645e-13 	100000
-3.96 	348.432 	2.46692e-13 	100000
-3.95 	348.432 	2.6602e-13 	100000
-3.94 	348.432 	2.25111e-13 	100000
-3.93 	348.432 	1.70503e-13 	100000
-3.92 	348.432 	2.07534e-13 	100000
-3.91 	348.432 	2.63594e-13 	100000
-3.9 	348.432 	2.29535e-13 	100000
-3.89 	348.432 	1.93591e-13 	100000
-3.88 	348.432 	2.23393e-13 	100000
-3.87 	348.432 	2.70635e-13 	100000
-3.86 	348.432 	2.85796e-13 	100000
-3.85 	348.432 	2.73974e-13 	100000
-3.84 	348.432 	2.56834e-13 	100000
-3.83 	348.432 	2.56808e-13 	100000
-3.82 	348.432 	2.29493e-13 	100000
-3.81 	348.432 	1.69949e-13 	100000
-3.8 	348.432 	9.73372e-14 	100000
-3.79 	348.432 	3.50164e-14 	100000
-3.78 	348.432 	4.5611e-14 	100000
-3.77 	348.432 	6.2365e-14 	100000
-3.76 	348.432 	3.20677e-14 	100000
-3.75 	348.432 	4.91425e-14 	100000
-3.74 	348.432 	8.0987e-14 	100000
-3.73 	348.432 	7.57326e-14 	100000
-3.72 	348.432 	7.33323e-14 	100000
-3.71 	348.432 	8.28029e-14 	100000
-3.7 	348.432 	4.64498e-14 	100000
-3.69 	348.432 	1.91202e-14 	100000
-3.68 	348.432 	2.1462e-14 	100000
-3.67 	348.432 	4.38561e-14 	100000
-3.66 	348.432 	1.08158e-13 	100000
-3.65 	348.432 	1.89846e-13 	100000
-3.64 	348.432 	2.62038e-13 	100000
-3.63 	348.432 	2.91739e-13 	100000
-3.62 	348.432 	2.5495e-13 	100000
-3.61 	348.432 	2.02871e-13 	100000
-3.6 	348.432 	1.94465e-13 	100000
-3.59 	348.432 	1.80929e-13 	100000
-3.58 	348.432 	1.48145e-13 	100000
-3.57 	348.432 	1.13109e-13 	100000
-3.56 	348.432 	5.83524e-14 	100000
-3.55 	348.432 	3.95418e-14 	100000
-3.54 	348.432 	6.25074e-14 	100000
-3.53 	348.432 	1.10853e-13 	100000
-3.52 	348.432 	1.85103e-13 	100000
-3.51 	348.432 	2.17494e-13 	100000
-3.5 	348.432 	1.95702e-13 	100000
-3.49 	348.432 	1.31343e-13 	100000
-3.48 	348.432 	1.17483e-13 	100000
-3.47 	348.432 	9.7882e-14 	100000
-3.46 	348.432 	9.85005e-14 	100000
-3.45 	348.432 	1.42766e-13 	100000
-3.44 	348.432 	8.63616e-14 	100000
-3.43 	348.432 	6.62326e-14 	100000
-3.42 	348.432 	1.34123e-13 	100000
-3.41 	348.432 	1.36039e-13 	100000
-3.4 	348.432 	1.18634e-13 	100000
-3.39 	348.432 	1.49946e-13 	100000
-3.38 	348.432 	1.79616e-13 	100000
-3.37 	348.432 	1.92832e-13 	100000
-3.36 	348.432 	2.19096e-13 	100000
-3.35 	348.432 	2.17915e-13 	100000
-3.34 	348.432 	1.59399e-13 	100000
-3.33 	348.432 	6.49398e-14 	100000
-3.32 	348.432 	5.76613e-14 	100000
-3.31 	348.432 	8.12561e-14 	100000
-3.3 	348.432 	4.94707e-14 	100000
-3.29 	348.432 	4.12084e-14 	100000
-3.28 	348.432 	3.97414e-14 	100000
-3.27 	348.432 	3.43262e-14 	100000
-3.26 	348.432 	6.19628e-14 	100000
-3.25 	348.432 	1.10316e-13 	100000
-3.24 	348.432 	1.25008e-13 	100000
-3.23 	348.432 	1.09434e-13 	100000
-3.22 	348.432 	1.1607e-13 	100000
-3.21 	348.432 	9.81195e-14 	100000
-3.2 	348.432 	3.8928e-14 	100000
-3.19 	348.432 	1.10181e-14 	100000
-3.18 	348.432 	7.14089e-15 	100000
-3.17 	348.432 	3.22208e-14 	100000
-3.16 	348.432 	5.38991e-14 	100000
-3.15 	348.432 	5.66875e-14 	100000
-3.14 	348.432 	5.97239e-14 	100000
-3.13 	348.432 	5.36054e-14 	100000
-3.12 	348.432 	6.83272e-14 	100000
-3.11 	348.432 	8.35369e-14 	100000
-3.1 	348.432 	5.99161e-14 	100000
-3.09 	348.432 	5.25563e-14 	100000
-3.08 	348.432 	4.5388e-14 	100000
-3.07 	348.432 	5.19226e-14 	100000
-3.06 	348.432 	1.15948e-13 	100000
-3.05 	348.432 	1.51059e-13 	100000
-3.04 	348.432 	1.15035e-13 	100000
-3.03 	348.432 	7.48026e-14 	100000
-3.02 	348.432 	1.13166e-13 	100000
-3.01 	348.432 	1.51607e-13 	100000
-3 	348.432 	1.22331e-13 	100000
-2.99 	348.432 	1.14561e-13 	100000
-2.98 	348.432 	1.71564e-13 	100000
-2.97 	348.432 	3.04364e-13 	100000
-2.96 	348.432 	3.7948e-13 	100000
-2.95 	348.432 	3.22261e-13 	100000
-2.94 	348.432 	2.46702e-13 	100000
-2.93 	348.432 	1.98517e-13 	100000
-2.92 	348.432 	1.66373e-13 	100000
-2.91 	348.432 	1.36789e-13 	100000
-2.9 	348.432 	1.0312e-13 	100000
-2.89 	348.432 	4.75426e-14 	100000
-2.88 	348.432 	5.13598e-15 	100000
-2.87 	348.432 	1.38953e-14 	100000
-2.86 	348.432 	2.62995e-14 	100000
-2.85 	348.432 	9.40262e-14 	100000
-2.84 	348.432 	1.16893e-13 	100000
-2.83 	348.432 	3.93459e-14 	100000
-2.82 	348.432 	2.00651e-14 	100000
-2.81 	348.432 	2.05779e-14 	100000
-2.8 	348.432 	5.97725e-14 	100000
-2.79 	348.432 	1.3911e-13 	100000
-2.78 	348.432 	1.83669e-13 	100000
-2.77 	348.432 	2.25362e-13 	100000
-2.76 	348.432 	2.24499e-13 	100000
-2.75 	348.432 	2.05424e-13 	100000
-2.74 	348.432 	1.8594e-13 	100000
-2.73 	348.432 	1.63278e-13 	100000
-2.72 	348.432 	1.35724e-13 	100000
-2.71 	348.432 	1.07021e-13 	100000
-2.7 	348.432 	7.42873e-14 	100000
-2.69 	348.432 	6.09981e-14 	100000
-2.68 	348.432 	5.71691e-14 	100000
-2.67 	348.432 	3.81195e-14 	100000
-2.66 	348.432 	2.93121e-14 	100000
-2.65 	348.432 	3.10055e-14 	100000
-2.64 	348.432 	2.78394e-14 	100000
-2.63 	348.432 	3.07405e-14 	100000
-2.62 	348.432 	4.5583e-14 	100000
-2.61 	348.432 	2.55242e-14 	100000
-2.6 	348.432 	2.63927e-14 	100000
-2.59 	348.432 	8.28758e-14 	100000
-2.58 	348.432 	1.21231e-13 	100000
-2.57 	348.432 	8.25462e-14 	100000
-2.56 	348.432 	8.57162e-14 	100000
-2.55 	348.432 	1.1164e-13 	100000
-2.54 	348.432 	8.88687e-14 	100000
-2.53 	348.432 	1.12682e-13 	100000
-2.52 	348.432 	1.73967e-13 	100000
-2.51 	348.432 	1.61428e-13 	100000
-2.5 	348.432 	8.47523e-14 	100000
-2.49 	348.432 	3.9148e-14 	100000
-2.48 	348.432 	1.97846e-14 	100000
-2.47 	348.432 	3.57724e-14 	100000
-2.46 	348.432 	1.67334e-13 	100000
-2.45 	348.432 	5.43457e-13 	100000
-2.44 	348.432 	1.87704e-12 	100000
-2.43 	348.432 	5.99815e-12 	100000
-2.42 	348.432 	1.70539e-11 	100000
-2.41 	348.432 	4.73843e-11 	100000
-2.4 	348.432 	1.30293e-10 	100000
-2.39 	348.432 	3.54602e-10 	100000
-2.38 	348.432 	9.56959e-10 	100000
-2.37 	348.432 	2.56348e-09 	100000
-2.36 	348.432 	6.82496e-09 	100000
-2.35 	348.432 	1.80853e-08 	100000
-2.34 	348.432 	4.77164e-08 	100000
-2.33 	348.432 	1.25385e-07 	100000
-2.32 	348.432 	3.28318e-07 	100000
-2.31 	348.432 	8.57263e-07 	100000
-2.3 	348.432 	2.2338e-06 	100000
-2.29 	348.432 	5.81418e-06 	100000
-2.28 	348.432 	1.5132e-05 	100000
-2.27 	348.432 	3.94243e-05 	100000
-2.26 	348.432 	0.000102946 	99999.9
-2.25 	348.432 	0.000269749 	99999.9
-2.24 	348.432 	0.000710069 	99999.8
-2.23 	348.432 	0.00187966 	99999.3
-2.22 	348.43 	0.0050078 	99998.1
-2.21 	348.427 	0.0134357 	99995
-2.2 	348.418 	0.0363144 	99986.4
-2.19 	348.395 	0.0988991 	99963
-2.18 	348.331 	0.271477 	99898.5
-2.17 	348.152 	0.751704 	99719.1
-2.16 	347.645 	2.11361 	99212.1
-2.15 	346.365 	5.55649 	97941.4
-2.14 	344.453 	10.7029 	96066.4
-2.13 	342.772 	15.2426 	94436.5
-2.12 	341.637 	18.3133 	93347.6
-2.11 	340.832 	20.4953 	92580.5
-2.1 	340.198 	22.2142 	91980.1
-2.09 	339.654 	23.6917 	91466.8
-2.08 	339.155 	25.0478 	90997.8
-2.07 	338.676 	26.3511 	90549.1
-2.06 	338.202 	27.6417 	90106.6
-2.05 	337.724 	28.9413 	89662.9
-2.04 	337.24 	30.2595 	89214.7
-2.03 	336.75 	31.5978 	88761.6
-2.02 	336.254 	32.9534 	88304.8
-2.01 	335.752 	34.3215 	87845.8
-2 	335.249 	35.6977 	87386
-1.99 	334.744 	37.0785 	86926.9
-1.98 	334.238 	38.4614 	86469.1
-1.97 	333.733 	39.8453 	86013.1
-1.96 	333.229 	41.2294 	85559.1
-1.95 	332.724 	42.6132 	85107.1
-1.94 	332.221 	43.9966 	84657.4
-1.93 	331.717 	45.3795 	84209.9
-1.92 	331.215 	46.7619 	83764.6
-1.91 	330.713 	48.1438 	83321.4
-1.9 	330.212 	49.5251 	82880.5
-1.89 	329.711 	50.9059 	82441.8
-1.88 	329.21 	52.2863 	82005.1
-1.87 	328.71 	53.6661 	81570.6
-1.86 	328.211 	55.0455 	81138.2
-1.85 	327.712 	56.4243 	80707.9
-1.84 	327.214 	57.8027 	80279.8
-1.83 	326.716 	59.1806 	79853.7
-1.82 	326.219 	60.5582 	79429.7
-1.81 	325.722 	61.9353 	79007.8
-1.8 	325.226 	63.3121 	78587.9
-1.79 	324.731 	64.6885 	78169.9
-1.78 	324.236 	66.0645 	77754.1
-1.77 	323.741 	67.4403 	77340.1
-1.76 	323.247 	68.8158 	76928.2
-1.75 	322.754 	70.1908 	76518.3
-1.74 	322.26 	71.5657 	76110.3
-1.73 	321.768 	72.9402 	75704.2
-1.72 	321.275 	74.3145 	75300.1
-1.71 	320.784 	75.6886 	74898
-1.7 	320.293 	77.0625 	74497.8
-1.69 	319.802 	78.436 	74099.4
-1.68 	319.311 	79.8094 	73702.9
-1.67 	318.822 	81.1827 	73308.2
-1.66 	318.332 	82.5557 	72915.5
-1.65 	317.843 	83.9286 	72524.6
-1.64 	317.355 	85.3013 	72135.6
-1.63 	316.866 	86.6738 	71748.4
-1.62 	316.379 	88.0461 	71362.9
-1.61 	315.892 	89.4184 	70979.4
-1.6 	315.404 	90.7905 	70597.6
-1.59 	314.918 	92.1625 	70217.6
-1.58 	314.432 	93.5343 	69839.5
-1.57 	313.947 	94.906 	69463.1
-1.56 	313.462 	96.2776 	69088.5
-1.55 	312.976 	97.6491 	68715.6
-1.54 	312.492 	99.0205 	68344.5
-1.53 	312.008 	100.392 	67975.1
-1.52 	311.524 	101.763 	67607.4
-1.51 	311.042 	103.135 	67241.5
-1.5 	310.558 	104.505 	66877.4
-1.49 	310.076 	105.876 	66514.9
-1.48 	309.594 	107.247 	66154.1
-1.47 	309.113 	108.618 	65795
-1.46 	308.632 	109.989 	65437.6
-1.45 	308.151 	111.359 	65081.9
-1.44 	307.671 	112.73 	64727.8
-1.43 	307.191 	114.101 	64375.4
-1.42 	306.711 	115.471 	64024.8
-1.41 	306.231 	116.842 	63675.7
-1.4 	305.753 	118.213 	63328.2
-1.39 	305.274 	119.583 	62982.4
-1.38 	304.797 	120.953 	62638.2
-1.37 	304.319 	122.324 	62295.7
-1.36 	303.841 	123.694 	61954.7
-1.35 	303.365 	125.065 	61615.3
-1.34 	302.888 	126.435 	61277.6
-1.33 	302.412 	127.806 	60941.5
-1.32 	301.937 	129.176 	60606.9
-1.31 	301.461 	130.546 	60273.9
-1.3 	300.986 	131.916 	59942.5
-1.29 	300.512 	133.287 	59612.6
-1.28 	300.037 	134.657 	59284.3
-1.27 	299.563 	136.028 	58957.5
-1.26 	299.09 	137.398 	58632.3
-1.25 	298.616 	138.769 	58308.6
-1.24 	298.144 	140.139 	57986.5
-1.23 	297.672 	141.51 	57665.9
-1.22 	297.199 	142.88 	57346.8
-1.21 	296.728 	144.25 	57029.1
-1.2 	296.257 	145.62 	56713.1
-1.19 	295.786 	146.992 	56398.4
-1.18 	295.315 	148.362 	56085.3
-1.17 	294.845 	149.733 	55773.6
-1.16 	294.375 	151.103 	55463.5
-1.15 	293.905 	152.474 	55154.9
-1.14 	293.437 	153.844 	54847.7
-1.13 	292.967 	155.215 	54541.9
-1.12 	292.499 	156.585 	54237.6
-1.11 	292.031 	157.957 	53934.8
-1.1 	291.563 	159.327 	53633.3
-1.09 	291.096 	160.698 	53333.3
-1.08 	290.63 	162.07 	53034.8
-1.07 	290.163 	163.44 	52737.7
-1.06 	289.697 	164.812 	52442
-1.05 	289.231 	166.183 	52147.7
-1.04 	288.765 	167.553 	51854.8
-1.03 	288.3 	168.925 	51563.3
-1.02 	287.836 	170.296 	51273.2
-1.01 	287.371 	171.667 	50984.5
-1 	286.907 	173.038 	50697.2
-0.99 	286.443 	174.409 	50411.2
-0.98 	285.98 	175.781 	50126.6
-0.97 	285.517 	177.153 	49843.4
-0.96 	285.054 	178.524 	49561.6
-0.95 	284.592 	179.896 	49281.1
-0.94 	284.13 	181.267 	49001.9
-0.93 	283.668 	182.639 	48724.1
-0.92 	283.207 	184.011 	48447.7
-0.91 	282.746 	185.383 	48172.6
-0.9 	282.286 	186.755 	47898.8
-0.89 	281.825 	188.127 	47626.3
-0.88 	281.365 	189.499 	47355.2
-0.87 	280.907 	190.871 	47085.3
-0.86 	280.447 	192.243 	46816.8
-0.85 	279.989 	193.615 	46549.5
-0.84 	279.53 	194.987 	46283.6
-0.83 	279.072 	196.359 	46019
-0.82 	278.615 	197.732 	45755.6
-0.81 	278.157 	199.104 	45493.5
-0.8 	277.7 	200.476 	45232.7
-0.79 	277.243 	201.849 	44973.1
-0.78 	276.787 	203.221 	44714.9
-0.77 	276.332 	204.594 	44457.9
-0.76 	275.876 	205.967 	44202.1
-0.75 	275.421 	207.339 	43947.7
-0.74 	274.966 	208.713 	43694.5
-0.73 	274.511 	210.085 	43442.5
-0.72 	274.057 	211.459 	43191.7
-0.71 	273.603 	212.832 	42942.1
-0.7 	273.15 	214.204 	42693.8
-0.69 	272.697 	215.577 	42446.8
-0.68 	272.245 	216.951 	42200.9
-0.67 	271.792 	218.323 	41956.3
-0.66 	271.341 	219.697 	41712.9
-0.65 	270.889 	221.07 	41470.7
-0.64 	270.438 	222.442 	41229.7
-0.63 	269.987 	223.815 	40989.8
-0.62 	269.537 	225.189 	40751.2
-0.61 	269.087 	226.561 	40513.8
-0.6 	268.637 	227.935 	40277.6
-0.59 	268.188 	229.309 	40042.4
-0.58 	267.739 	230.681 	39808.6
-0.57 	267.29 	232.055 	39575.9
-0.56 	266.842 	233.428 	39344.3
-0.55 	266.394 	234.8 	39113.9
-0.54 	265.947 	236.174 	38884.7
-0.53 	265.5 	237.548 	38656.7
-0.52 	265.053 	238.921 	38429.8
-0.51 	264.607 	240.293 	38204
-0.5 	264.161 	241.666 	37979.4
-0.49 	263.716 	243.038 	37755.9
-0.48 	263.27 	244.411 	37533.6
-0.47 	262.826 	245.785 	37312.4
-0.46 	262.382 	247.157 	37092.3
-0.45 	261.938 	248.529 	36873.4
-0.44 	261.495 	249.902 	36655.6
-0.43 	261.052 	251.274 	36438.9
-0.42 	260.609 	252.646 	36223.3
-0.41 	260.167 	254.018 	36008.9
-0.4 	259.725 	255.39 	35795.6
-0.39 	259.284 	256.762 	35583.3
-0.38 	258.843 	258.133 	35372.2
-0.37 	258.403 	259.505 	35162.2
-0.36 	257.962 	260.875 	34953.3
-0.35 	257.523 	262.246 	34745.4
-0.34 	257.083 	263.617 	34538.8
-0.33 	256.645 	264.988 	34333.1
-0.32 	256.207 	266.358 	34128.6
-0.31 	255.769 	267.727 	33925.1
-0.3 	255.332 	269.097 	33722.8
-0.29 	254.895 	270.466 	33521.4
-0.28 	254.459 	271.835 	33321.3
-0.27 	254.024 	273.203 	33122.2
-0.26 	253.589 	274.571 	32924.2
-0.25 	253.154 	275.938 	32727.3
-0.24 	252.719 	277.304 	32531.6
-0.23 	252.286 	278.669 	32337
-0.22 	251.854 	280.032 	32143.8
-0.21 	251.423 	281.393 	31951.8
-0.2 	250.994 	282.749 	31761.5
-0.19 	250.567 	284.097 	31573.1
-0.18 	250.145 	285.433 	31387.5
-0.17 	249.731 	286.745 	31206.1
-0.16 	249.33 	288.015 	31031.5
-0.15 	248.953 	289.212 	30867.6
-0.14 	248.612 	290.294 	30719.9
-0.13 	248.32 	291.22 	30594.3
-0.12 	248.089 	291.955 	30494.7
-0.11 	247.918 	292.5 	30421
-0.1 	247.797 	292.882 	30369.5
-0.09 	247.714 	293.149 	30333.8
-0.08 	247.654 	293.338 	30308.2
-0.07 	247.609 	293.478 	30289.2
-0.06 	247.579 	293.576 	30276.3
-0.05 	247.56 	293.634 	30268.6
-0.04 	247.552 	293.661 	30264.9
-0.03 	247.548 	293.669 	30263.6
-0.02 	247.547 	293.669 	30263.4
-0.01 	247.548 	293.668 	30263.8
0 	247.548 	293.668 	30264
0.01 	247.546 	293.669 	30263.7
0.02 	247.546 	293.671 	30263.4
0.03 	247.546 	293.669 	30263.6
0.04 	247.551 	293.654 	30265.7
0.05 	247.565 	293.606 	30272.2
0.06 	247.586 	293.539 	30281.2
0.07 	247.601 	293.49 	30287.7
0.08 	247.608 	293.467 	30290.7
0.09 	247.611 	293.46 	30291.8
0.1 	247.611 	293.458 	30292
0.11 	247.61 	293.457 	30292.2
0.12 	247.612 	293.448 	30293.3
0.13 	247.621 	293.417 	30297.5
0.14 	247.637 	293.365 	30304.5
0.15 	247.651 	293.32 	30310.3
0.16 	247.66 	293.296 	30313.6
0.17 	247.663 	293.286 	30315.2
0.18 	247.663 	293.281 	30315.8
0.19 	247.663 	293.277 	30316.3
0.2 	247.665 	293.269 	30317.3
0.21 	247.671 	293.246 	30320.5
0.22 	247.688 	293.192 	30327.7
0.23 	247.71 	293.126 	30336.3
0.24 	247.726 	293.082 	30342.4
0.25 	247.73 	293.063 	30345.1
0.26 	247.728 	293.058 	30345.7
0.27 	247.725 	293.067 	30344.6
0.28 	247.715 	293.1 	30340.2
0.29 	247.701 	293.148 	30333.7
0.3 	247.687 	293.191 	30327.8
0.31 	247.675 	293.228 	30322.8
0.32 	247.661 	293.272 	30316.9
0.33 	247.643 	293.325 	30309.8
0.34 	247.625 	293.375 	30303.1
0.35 	247.614 	293.409 	30298.6
0.36 	247.611 	293.424 	30296.6
0.37 	247.611 	293.427 	30296.2
0.38 	247.613 	293.418 	30297.3
0.39 	247.615 	293.404 	30299
0.4 	247.615 	293.399 	30299.8
0.41 	247.613 	293.404 	30299.2
0.42 	247.608 	293.423 	30296.7
0.43 	247.603 	293.443 	30294.2
0.44 	247.6 	293.451 	30293.1
0.45 	247.6 	293.444 	30293.8
0.46 	247.608 	293.415 	30297.8
0.47 	247.619 	293.377 	30302.8
0.48 	247.626 	293.356 	30305.5
0.49 	247.628 	293.351 	30306.4
0.5 	247.627 	293.353 	30306.2
0.51 	247.625 	293.356 	30305.5
0.52 	247.623 	293.356 	30305.5
0.53 	247.627 	293.34 	30307.7
0.54 	247.639 	293.299 	30313.2
0.55 	247.652 	293.258 	30318.8
0.56 	247.659 	293.237 	30321.7
0.57 	247.661 	293.23 	30322.7
0.58 	247.661 	293.227 	30322.8
0.59 	247.66 	293.225 	30323.2
0.6 	247.663 	293.211 	30325.1
0.61 	247.674 	293.174 	30330
0.62 	247.688 	293.135 	30335.2
0.63 	247.693 	293.117 	30337.7
0.64 	247.691 	293.119 	30337.4
0.65 	247.678 	293.157 	30332.4
0.66 	247.654 	293.231 	30322.4
0.67 	247.632 	293.295 	30313.7
0.68 	247.621 	293.324 	30309.5
0.69 	247.619 	293.333 	30308.4
0.7 	247.62 	293.33 	30309
0.71 	247.622 	293.324 	30310.1
0.72 	247.621 	293.322 	30310.2
0.73 	247.615 	293.338 	30308.2
0.74 	247.604 	293.371 	30303.6
0.75 	247.595 	293.399 	30299.8
0.76 	247.591 	293.409 	30298.3
0.77 	247.591 	293.404 	30299
0.78 	247.597 	293.382 	30301.9
0.79 	247.603 	293.361 	30304.8
0.8 	247.603 	293.355 	30305.6
0.81 	247.6 	293.364 	30304.4
0.82 	247.593 	293.385 	30301.6
0.83 	247.585 	293.401 	30299.2
0.84 	247.584 	293.404 	30298.8
0.85 	247.589 	293.385 	30301.5
0.86 	247.601 	293.345 	30307.2
0.87 	247.611 	293.311 	30311.9
0.88 	247.614 	293.298 	30313.6
0.89 	247.613 	293.299 	30313.2
0.9 	247.608 	293.311 	30311.6
0.91 	247.604 	293.322 	30310
0.92 	247.603 	293.322 	30309.9
0.93 	247.61 	293.298 	30313
0.94 	247.622 	293.252 	30319.2
0.95 	247.632 	293.214 	30324.5
0.96 	247.636 	293.198 	30326.7
0.97 	247.635 	293.194 	30327.2
0.98 	247.633 	293.196 	30326.9
0.99 	247.631 	293.199 	30326.4
1 	247.63 	293.198 	30326.5
1.01 	247.632 	293.191 	30327.4
1.02 	247.633 	293.185 	30328.3
1.03 	247.631 	293.19 	30327.8
1.04 	247.62 	293.222 	30323.7
1.05 	247.601 	293.284 	30315.5
1.06 	247.581 	293.341 	30308
1.07 	247.57 	293.37 	30304
1.08 	247.565 	293.377 	30302.8
1.09 	247.566 	293.363 	30304.5
1.1 	247.573 	293.337 	30307.8
1.11 	247.575 	293.322 	30309.7
1.12 	247.572 	293.326 	30308.9
1.13 	247.561 	293.355 	30304.8
1.14 	247.548 	293.391 	30299.8
1.15 	247.539 	293.413 	30297.1
1.16 	247.538 	293.417 	30297.4
1.17 	247.546 	293.394 	30301.3
1.18 	247.555 	293.36 	30306.1
1.19 	247.558 	293.343 	30308.1
1.2 	247.553 	293.346 	30307.3
1.21 	247.543 	293.366 	30304.2
1.22 	247.534 	293.39 	30300.7
1.23 	247.528 	293.399 	30299
1.24 	247.527 	293.386 	30300.4
1.25 	247.54 	293.34 	30306.5
1.26 	247.553 	293.291 	30312.8
1.27 	247.555 	293.272 	30315.4
1.28 	247.551 	293.276 	30315.4
1.29 	247.544 	293.299 	30313.7
1.3 	247.537 	293.325 	30311.1
1.31 	247.53 	293.336 	30309.5
1.32 	247.531 	293.318 	30311.3
1.33 	247.546 	293.263 	30318.3
1.34 	247.56 	293.205 	30325.7
1.35 	247.564 	293.178 	30328.9
1.36 	247.561 	293.173 	30329.2
1.37 	247.553 	293.183 	30327.6
1.38 	247.54 	293.212 	30323.7
1.39 	247.525 	293.239 	30319.7
1.4 	247.519 	293.244 	30319
1.41 	247.52 	293.233 	30321.2
1.42 	247.519 	293.23 	30322.9
1.43 	247.511 	293.252 	30320.8
1.44 	247.494 	293.294 	30315.2
1.45 	247.473 	293.34 	30308.5
1.46 	247.455 	293.379 	30302.8
1.47 	247.441 	293.397 	30299.7
1.48 	247.44 	293.373 	30302.2
1.49 	247.448 	293.327 	30308.3
1.5 	247.449 	293.304 	30311.2
1.51 	247.442 	293.315 	30310.1
1.52 	247.428 	293.341 	30306.7
1.53 	247.411 	293.376 	30301.8
1.54 	247.393 	293.412 	30296.6
1.55 	247.383 	293.425 	30294.8
1.56 	247.391 	293.39 	30300.7
1.57 	247.4 	293.34 	30308.8
1.58 	247.394 	293.322 	30311.7
1.59 	247.381 	293.331 	30310.6
1.6 	247.364 	293.347 	30307.7
1.61 	247.347 	293.368 	30303.2
1.62 	247.338 	293.394 	30298.6
1.63 	247.346 	293.39 	30298.8
1.64 	247.375 	293.327 	30306.8
1.65 	247.421 	293.264 	30315.8
1.66 	247.484 	293.254 	30318.6
1.67 	247.589 	293.269 	30317.9
1.68 	247.79 	293.288 	30316
1.69 	248.177 	293.32 	30311.9
1.7 	248.926 	293.355 	30307.3
1.71 	250.373 	293.329 	30310.6
1.72 	253.089 	293.255 	30321.7
1.73 	258.096 	293.224 	30332.5
1.74 	267.246 	293.288 	30346.1
1.75 	283.697 	293.628 	30389.5
1.76 	310.788 	293.826 	30413.4
1.77 	344.223 	290.578 	30041.6
1.78 	372.726 	289.498 	29911.8
1.79 	389.943 	294.067 	30397
1.8 	397.884 	297.772 	30780.4
1.81 	400.856 	298.605 	30874.2
1.82 	400.918 	295.329 	30529.6
1.83 	399.998 	291.154 	30084.4
1.84 	399.706 	289.794 	29939.7
1.85 	399.794 	289.774 	29935.8
1.86 	399.796 	290.009 	29959.3
1.87 	399.812 	290.88 	30049.7
1.88 	400.337 	293.512 	30328
1.89 	400.919 	296.413 	30636.7
1.9 	400.662 	297.395 	30737.3
1.91 	399.746 	297.076 	30701.6
1.92 	398.352 	295.446 	30529
1.93 	396.646 	292.395 	30203.5
1.94 	395.499 	290.258 	29976.8
1.95 	395.119 	289.84 	29933
1.96 	395.017 	289.962 	29945.5
1.97 	395.41 	291.192 	30074.8
1.98 	396.679 	294.157 	30390
1.99 	397.845 	296.46 	30636.2
2 	398.305 	296.927 	30685.1
2.01 	398.559 	296.746 	30665.3
2.02 	398.346 	295.094 	30490.1
2.03 	397.557 	292.043 	30166.2
2.04 	397.093 	290.134 	29966.8
2.05 	397.278 	289.933 	29947.8
2.06 	397.626 	290.26 	29982.6
2.07 	398.245 	291.669 	30132.2
2.08 	399.196 	294.348 	30417.9
2.09 	399.759 	296.182 	30615.1
2.1 	399.656 	296.471 	30646.1
2.11 	399.212 	296.229 	30621.2
2.12 	398.241 	294.838 	30474.9
2.13 	396.875 	292.212 	30197
2.14 	395.993 	290.49 	30016.2
2.15 	395.752 	290.222 	29989.3
2.16 	395.742 	290.44 	30013
2.17 	396.302 	291.894 	30167.8
2.18 	397.462 	294.399 	30436.3
2.19 	398.315 	295.889 	30597.8
2.2 	398.666 	296.129 	30625.6
2.21 	398.861 	295.913 	30606.2
2.22 	398.587 	294.409 	30449.2
2.23 	397.851 	291.929 	30187.3
2.24 	397.425 	290.558 	30042.3
2.25 	397.454 	290.45 	30028.8
2.26 	397.577 	290.766 	30058.2
2.27 	398.018 	292.202 	30205.8
2.28 	398.692 	294.451 	30441.4
2.29 	398.978 	295.732 	30574.4
2.3 	398.775 	295.884 	30586.8
2.31 	398.342 	295.589 	30553.8
2.32 	397.565 	294.254 	30410.3
2.33 	396.621 	292.144 	30185.1
2.34 	396.134 	290.999 	30062.8
2.35 	396.086 	290.894 	30050.5
2.36 	396.243 	291.146 	30076.3
2.37 	396.95 	292.494 	30218.2
2.38 	398.002 	294.49 	30430.3
2.39 	398.652 	295.523 	30539.5
2.4 	398.911 	295.686 	30555.5
2.41 	399.005 	295.443 	30529.7
2.42 	398.608 	294.014 	30377.7
2.43 	397.896 	292.049 	30169
2.44 	397.531 	291.177 	30076.5
2.45 	397.454 	291.115 	30069.7
2.46 	397.435 	291.38 	30097.5
2.47 	397.746 	292.673 	30234.1
2.48 	398.262 	294.509 	30429.7
2.49 	398.43 	295.404 	30524.8
2.5 	398.248 	295.447 	30529.3
2.51 	397.928 	295.125 	30496.4
2.52 	397.339 	293.869 	30363.6
2.53 	396.69 	292.19 	30186.2
2.54 	396.437 	291.43 	30106.8
2.55 	396.493 	291.368 	30101.7
2.56 	396.752 	291.601 	30127.4
2.57 	397.441 	292.746 	30249.9
2.58 	398.293 	294.344 	30421
2.59 	398.761 	295.109 	30503.3
2.6 	398.916 	295.198 	30513.5
2.61 	398.92 	294.94 	30487.3
2.62 	398.491 	293.697 	30356
2.63 	397.842 	292.156 	30193
2.64 	397.508 	291.542 	30129
2.65 	397.377 	291.477 	30124
2.66 	397.321 	291.713 	30150.5
2.67 	397.586 	292.852 	30273.4
2.68 	398.012 	294.327 	30433.2
2.69 	398.144 	294.947 	30501.8
2.7 	398.038 	294.946 	30503.8
2.71 	397.841 	294.647 	30473
2.72 	397.408 	293.54 	30353.7
2.73 	396.952 	292.216 	30210.1
2.74 	396.83 	291.698 	30152.2
2.75 	396.947 	291.685 	30148.2
2.76 	397.226 	291.94 	30171.8
2.77 	397.8 	292.945 	30275.7
2.78 	398.432 	294.24 	30411.4
2.79 	398.724 	294.803 	30469.8
2.8 	398.783 	294.85 	30473.4
2.81 	398.707 	294.617 	30447.8
2.82 	398.252 	293.585 	30337.2
2.83 	397.654 	292.368 	30207.2
2.84 	397.349 	291.911 	30158.5
2.85 	397.211 	291.861 	30153
2.86 	397.16 	292.083 	30175.8
2.87 	397.409 	293.08 	30280.8
2.88 	397.78 	294.272 	30407
2.89 	397.905 	294.718 	30454.2
2.9 	397.873 	294.722 	30454.2
2.91 	397.784 	294.472 	30427.5
2.92 	397.496 	293.53 	30327.2
2.93 	397.182 	292.438 	30210.7
2.94 	397.137 	292.024 	30167.2
2.95 	397.281 	292.025 	30167.8
2.96 	397.527 	292.265 	30192.7
2.97 	397.96 	293.124 	30283.9
2.98 	398.393 	294.149 	30393.3
2.99 	398.552 	294.536 	30435.3
3 	398.547 	294.545 	30437.2
3.01 	398.421 	294.339 	30416.2
3.02 	397.991 	293.488 	30326.8
3.03 	397.489 	292.509 	30223.5
3.04 	397.241 	292.144 	30186
3.05 	397.135 	292.101 	30182.8
3.06 	397.116 	292.3 	30204.5
3.07 	397.37 	293.148 	30295.2
3.08 	397.717 	294.093 	30396.6
3.09 	397.856 	294.406 	30430.6
3.1 	397.903 	294.413 	30432
3.11 	397.919 	294.224 	30412.5
3.12 	397.743 	293.443 	30330.5
3.13 	397.498 	292.516 	30233.1
3.14 	397.453 	292.163 	30197.5
3.15 	397.549 	292.166 	30200.1
3.16 	397.7 	292.365 	30223.9
3.17 	398 	293.095 	30303.8
3.18 	398.307 	293.935 	30394.2
3.19 	398.398 	294.243 	30426.3
3.2 	398.356 	294.265 	30426.3
3.21 	398.212 	294.125 	30408.6
3.22 	397.848 	293.474 	30336.4
3.23 	397.427 	292.667 	30248
3.24 	397.211 	292.342 	30211.5
3.25 	397.125 	292.311 	30206.8
3.26 	397.115 	292.461 	30221.3
3.27 	397.344 	293.135 	30292
3.28 	397.706 	293.941 	30376.8
3.29 	397.901 	294.22 	30405.5
3.3 	397.87 	293.856 	30366.1
3.31 	396.134 	288.967 	29861.2
3.32 	378.826 	244.657 	25627.6
3.33 	327.519 	118.165 	16616.5
3.34 	285.697 	16.8416 	10733.4
3.35 	279.166 	1.18158 	10049.5
3.36 	278.773 	0.0785256 	10003.3
3.37 	278.748 	0.00520375 	10000.2
3.38 	278.746 	0.000345156 	10000
3.39 	278.746 	2.2927e-05 	10000
3.4 	278.746 	1.52566e-06 	10000
3.41 	278.746 	1.01723e-07 	10000
3.42 	278.746 	6.79546e-09 	10000
3.43 	278.746 	4.54593e-10 	10000
3.44 	278.746 	3.03081e-11 	10000
3.45 	278.746 	1.90384e-12 	10000
3.46 	278.746 	1.24273e-13 	10000
3.47 	278.746 	1.15036e-13 	10000
3.48 	278.746 	1.31629e-13 	10000
3.49 	278.746 	8.27378e-14 	10000
3.5 	278.746 	6.62366e-14 	10000
3.51 	278.746 	1.01662e-13 	10000
3.52 	278.746 	1.01857e-13 	10000
3.53 	278.746 	5.63719e-14 	10000
3.54 	278.746 	4.38151e-14 	10000
3.55 	278.746 	9.34943e-14 	10000
3.56 	278.746 	8.45905e-14 	10000
3.57 	278.746 	4.43225e-14 	10000
3.58 	278.746 	7.86624e-14 	10000
3.59 	278.746 	1.77839e-13 	10000
3.6 	278.746 	2.88275e-13 	10000
3.61 	278.746 	3.38812e-13 	10000
3.62 	278.746 	3.43263e-13 	10000
3.63 	278.746 	3.08768e-13 	10000
3.64 	278.746 	2.01085e-13 	10000
3.65 	278.746 	8.53257e-14 	10000
3.66 	278.746 	3.04521e-14 	10000
3.67 	278.746 	6.25233e-14 	10000
3.68 	278.746 	1.39883e-13 	10000
3.69 	278.746 	1.74176e-13 	10000
3.7 	278.746 	2.00915e-13 	10000
3.71 	278.746 	2.52306e-13 	10000
3.72 	278.746 	2.82968e-13 	10000
3.73 	278.746 	3.03149e-13 	10000
3.74 	278.746 	3.42597e-13 	10000
3.75 	278.746 	3.65537e-13 	10000
3.76 	278.746 	4.00732e-13 	10000
3.77 	278.746 	4.72106e-13 	10000
3.78 	278.746 	4.75318e-13 	10000
3.79 	278.746 	3.76001e-13 	10000
3.8 	278.746 	2.81134e-13 	10000
3.81 	278.746 	2.32634e-13 	10000
3.82 	278.746 	1.68858e-13 	10000
3.83 	278.746 	1.66601e-13 	10000
3.84 	278.746 	1.98445e-13 	10000
3.85 	278.746 	1.9702e-13 	10000
3.86 	278.746 	2.06617e-13 	10000
3.87 	278.746 	2.39059e-13 	10000
3.88 	278.746 	2.66317e-13 	10000
3.89 	278.746 	2.17166e-13 	10000
3.9 	278.746 	1.29422e-13 	10000
3.91 	278.746 	1.13931e-13 	10000
3.92 	278.746 	1.09147e-13 	10000
3.93 	278.746 	5.92097e-14 	10000
3.94 	278.746 	4.94388e-14 	10000
3.95 	278.746 	9.84712e-14 	10000
3.96 	278.746 	1.40341e-13 	10000
3.97 	278.746 	1.69111e-13 	10000
3.98 	278.746 	1.67984e-13 	10000
3.99 	278.746 	1.17785e-13 	10000
4 	278.746 	9.36464e-14 	10000
4.01 	278.746 	6.15045e-14 	10000
4.02 	278.746 	3.81541e-14 	10000