/*--------------------------------*- C++ -*----------------------------------*\
  =========                 |
  \\      /  F ield         | OpenFOAM: The Open Source CFD Toolbox
   \\    /   O peration     | Website:  https://openfoam.org
    \\  /    A nd           | Version:  7
     \\/     M anipulation  |
\*---------------------------------------------------------------------------*/
FoamFile
{
    version     2.0;
    format      ascii;
    class       volScalarField;
    location    "0.00072";
    object      dsmcRhoN;
}
// * * * * * * * * * * * * * * * * * * * * * * * * * * * * * * * * * * * * * //

dimensions      [0 -3 0 0 0 0 0];

internalField   nonuniform List<scalar> 
500
(
246
245
275
263
259
252
254
270
251
264
257
225
219
232
265
248
246
257
262
242
266
241
246
259
243
258
256
238
262
280
232
260
276
277
223
254
238
249
239
266
249
284
261
265
246
248
242
232
265
269
229
293
282
266
247
260
273
258
259
243
267
257
275
258
236
254
248
278
267
280
262
260
248
248
258
229
256
248
248
256
245
243
240
241
298
272
246
254
248
264
258
262
248
260
267
247
231
230
255
257
238
281
248
240
275
231
253
241
266
259
274
253
259
233
242
262
261
241
254
248
263
237
224
252
243
245
275
260
270
269
279
246
228
252
231
261
264
223
252
251
309
238
255
264
247
252
264
250
267
252
261
262
271
215
249
261
242
243
246
268
266
252
231
234
275
257
241
256
268
291
238
258
241
231
253
220
250
241
254
245
296
288
267
246
263
221
272
267
313
250
234
250
239
237
255
240
224
245
255
260
270
275
252
229
256
237
246
275
253
265
257
279
265
255
237
259
257
267
237
239
234
235
201
206
210
194
228
191
199
201
196
173
180
172
145
180
173
155
152
162
147
132
152
145
117
125
135
135
126
130
113
143
129
131
118
117
103
123
142
114
155
131
132
143
121
122
133
139
137
155
152
155
181
174
193
193
169
176
185
186
183
170
167
157
81
86
71
71
62
80
67
92
84
62
73
72
89
59
73
80
69
79
58
67
65
73
54
75
86
76
84
63
63
71
77
69
72
78
77
82
68
76
69
73
93
64
65
79
90
79
86
85
73
66
66
75
62
74
60
94
83
69
76
62
52
70
77
85
61
76
85
60
75
76
81
72
76
69
83
86
73
80
61
69
86
87
96
78
65
74
63
78
68
85
68
81
77
70
66
63
72
74
72
81
79
63
66
77
86
74
72
63
71
68
75
83
71
75
68
77
80
58
69
66
75
70
57
79
79
71
74
79
51
71
71
80
74
64
72
77
68
66
71
86
70
78
90
79
69
74
85
67
58
80
73
81
79
58
69
79
86
76
66
73
71
64
86
59
85
81
88
71
73
99
75
64
71
83
78
76
70
79
72
66
97
68
63
70
75
70
59
68
72
72
74
71
63
86
74
82
67
71
78
81
70
73
69
73
76
78
78
99
69
66
81
82
69
64
79
64
)
;

boundaryField
{
    sides
    {
        type            symmetry;
    }
    empty
    {
        type            empty;
    }
}


// ************************************************************************* //
