/*--------------------------------*- C++ -*----------------------------------*\
  =========                 |
  \\      /  F ield         | OpenFOAM: The Open Source CFD Toolbox
   \\    /   O peration     | Website:  https://openfoam.org
    \\  /    A nd           | Version:  7
     \\/     M anipulation  |
\*---------------------------------------------------------------------------*/
FoamFile
{
    version     2.0;
    format      ascii;
    class       volScalarField;
    location    "0.00072";
    object      internalE;
}
// * * * * * * * * * * * * * * * * * * * * * * * * * * * * * * * * * * * * * //

dimensions      [1 -1 -2 0 0 0 0];

internalField   nonuniform List<scalar> 
500
(
1112.92
1050.46
1158.82
1071.79
1208.16
1108.59
1008.9
993.064
1277.22
1101.52
1034.26
1120.04
1107.18
1143.85
1065.7
1173.09
1175.05
1207.71
1093.5
1249.56
1039.6
1262.7
1228.57
1055.48
1100.06
873.869
1168.95
1135.25
1244.08
1282.31
1141.32
1079.75
1180.59
936.676
1224.92
1109.3
1226.51
1024.84
1141.75
1033.5
1169.91
1151.64
1069.58
1161.01
998.514
1447.35
1115.86
1202.89
1101.32
1165.49
1289.81
1145.47
1064.2
1104.32
1305.93
1263.93
1071.88
1200.81
1292.46
1229.48
1128.25
1117.6
1191.4
1210.16
1126.34
883.94
1223.15
1124.36
1174.46
1155.59
1251.55
1014.1
1243.38
1005.33
1120.29
1111.65
1137.52
1129.55
1150.87
1321.13
913.3
1226.15
1114.13
1098.51
1134.21
1188.89
1011.23
1160.56
1104.07
1241.7
1112.1
1190.83
1345.12
1116.03
1111.3
1176.2
1254.36
1167.05
1043.86
1198.2
1164.11
1096.1
1151.41
1088.14
1011.74
1073.75
1219.97
1346.07
1160.5
1233.51
1341.67
1122.06
1230.62
1178.1
1036.65
1210.22
1022.46
1027.52
990.973
1170.73
926.082
1042.73
1080.33
993.683
1165.05
1257.02
1171.16
1122.07
1177.69
1207.55
1182.88
1173.98
1023.66
868.595
1125.68
1242.02
974.596
950.893
1059.42
1136.22
1136.74
1249.68
1307.45
1127.79
1238.02
954.79
1220.78
1246.52
1033.74
1245.15
1135.91
1113.82
1215.29
1136.46
1126.03
1194.38
1006.6
1072.68
1167.54
921.357
1027.72
1115.44
1103.51
1190.05
1169.96
1283.16
1071.53
1055.83
1074.03
1039.33
1088.16
1093.7
1349.93
1165.36
1096
1144.92
1209.87
1149.62
1033.92
1233.16
1018.61
1244.63
929.387
1064.55
1114.23
1251.58
1228.07
1151.53
1117.43
1110.61
1089.45
1302.82
1063.75
1197.35
924.568
1122.85
1121.27
1126.69
1165
1231.41
1064.39
1003.95
1207.43
1228.4
1228.43
1021.99
1058.84
996.743
1136.14
1010.92
1060.31
1194.01
1262.07
1214.14
1092.76
995.599
1069.6
1011.84
1194.8
1053.54
937.276
814.27
1100.84
1008.46
787.893
839.909
912.168
968.838
835.043
778.671
886.46
655.111
823.708
554.135
578.493
638.585
617.531
461.664
524.202
563.697
540.43
498.093
478.277
455.713
545.344
413.574
319.309
408.685
486.458
350.63
481.806
442.991
345.74
436.553
390.514
432.171
391.411
431.182
366.006
563.496
437.716
401.741
417.566
390.217
487.173
404.512
499.984
384.428
513.777
431.021
432.171
465.034
440.532
504.592
424.957
479.695
468.059
326.954
433.547
488.42
471.316
351.932
394.808
354.855
146.022
126.901
91.361
102.514
94.015
108.964
121.22
96.649
90.5411
125.814
116.231
105.986
106.984
103.846
83.0552
102.383
101.024
86.548
129.744
81.2506
93.7134
96.0398
111.253
108.691
95.3525
110.293
98.1098
104.306
157.816
102.114
109.043
98.7651
92.8827
104.933
99.2836
113.427
102.42
123.829
96.5986
94.9992
86.7803
126.899
100.622
129.326
109.169
131.153
121.493
112.893
106.579
125.313
86.4589
110.91
105.308
106.314
116.83
86.2323
121.745
104.496
114.725
101.305
75.8793
183.507
106.238
80.6192
96.9164
99.4252
116.67
90.2596
142.298
105.839
111.868
116.748
112.719
139.968
141.919
106.381
92.8192
101.6
121.454
101.387
110.8
100.962
113.309
94.9468
121.79
117.912
141.57
98.1226
151.426
108.271
120.048
130.936
119.765
88.892
99.1428
112.061
108.931
88.2589
104.821
119.511
93.6449
121.83
85.6161
138.21
123.406
135.092
145.823
89.3187
116.711
73.799
110.936
103.578
112.459
82.5384
112.525
108.8
103.877
118.478
116.855
63.9273
87.6577
140.692
97.6258
120.315
112.12
122.807
123.402
81.415
118.792
100.363
103.717
84.4647
124.491
144.871
137.127
88.0277
100.644
112.016
115.758
113.929
120.755
114.509
137.621
107.203
97.561
112.271
114.514
112.745
101.881
153.135
79.5137
144.757
120.348
100.402
124.219
84.3608
93.7057
128.27
129.514
113.628
100.694
96.315
99.5572
87.0259
84.7221
113.907
116.666
100.452
146.876
117.823
110.266
84.0923
103.206
124.268
156.732
86.3453
111.669
104.882
134.842
113.777
107.093
103.056
109.067
111.525
142.032
114.595
146.378
61.4966
114.022
118.704
81.7576
110.783
89.9531
110.006
120.716
126.493
111.496
117.711
129.799
109.387
104.121
115.508
133.488
114.388
120.693
118.741
124.748
117.945
127.787
96.8557
131.702
94.3023
101.342
138.003
102.199
94.5711
)
;

boundaryField
{
    sides
    {
        type            symmetry;
    }
    empty
    {
        type            empty;
    }
}


// ************************************************************************* //
