/*--------------------------------*- C++ -*----------------------------------*\
  =========                 |
  \\      /  F ield         | OpenFOAM: The Open Source CFD Toolbox
   \\    /   O peration     | Website:  https://openfoam.org
    \\  /    A nd           | Version:  7
     \\/     M anipulation  |
\*---------------------------------------------------------------------------*/
FoamFile
{
    version     2.0;
    format      ascii;
    class       volScalarField;
    location    "0.00072";
    object      linearKE;
}
// * * * * * * * * * * * * * * * * * * * * * * * * * * * * * * * * * * * * * //

dimensions      [1 -1 -2 0 0 0 0];

internalField   nonuniform List<scalar> 
500
(
1657.86
1645.73
1660.36
1775.98
1820.81
1445.11
1540.23
1431.96
1767.94
1787.68
1564.74
1679.76
1496.25
1729.02
1589.97
1699.49
1647.52
1782.41
1862.47
1754.76
1473.53
1927.72
1820.12
1626.91
1644.61
1394.36
1779.96
1799.7
1705.97
2013.55
1519.18
1764.57
1862.28
1599.04
1917.34
1473.16
1692.28
1514.83
1738.14
1582.54
1735.8
1554.66
1490.71
1673.84
1491.62
1976.66
1837.58
1788.45
1732.18
1623.9
2112.02
1748.52
1641.48
1976.83
1816.25
1800.14
1582.94
1802.97
1907.86
1731.17
1584.82
1603.45
1794.66
1691.71
1699.25
1408.01
1656.31
1587.69
1889.26
1550.09
1724.75
1522.62
1842.91
1773.14
1592.24
1770.92
1579.5
1622.46
1597.39
1824.09
1572.39
1853.46
1747.88
1475.31
1666.89
1885.4
1691.6
1658.45
1770.21
1611.49
1557.96
1826.74
1861.07
1503.42
1745.15
1715.37
1733.63
1456.99
1657.38
1731.39
1672.15
1648.38
1555.99
1589.33
1452.83
1542.15
1462.38
1877.24
1682.67
1620.05
1723.13
1707.28
1800
1659.01
1568.87
1690.68
1736.13
1592.54
1563.71
1539.84
1530.86
1610.29
1532.03
1375.89
2066.63
1764.75
1709.36
1667.28
1752.11
1890.03
1567.46
1673.49
1775.18
1523.27
1711.03
1769.05
1743.43
1485.76
1586.24
1638.99
1823.21
1859.87
1741.01
1430.38
1756.34
1522.22
1975.29
1796.27
1710.36
1695.22
1705.53
1871.43
1898.39
1547.35
1425.71
1786.8
1609.92
1817.73
1711.68
1588.46
1414.49
1689.84
1581.93
1737.77
1638.96
1668.55
1754.15
1538
1680.06
1743.79
1537.16
1780.14
1823.97
1862.54
1651.04
1814.17
1825.35
1605.01
1674.03
1728.88
1735.08
1725.38
1586.33
1748.31
1547.36
1893.61
1550.59
1749.77
1651.67
1675.72
1606.24
1838.02
1654.41
1700.28
1614.99
1835.71
1743.28
1590.09
1650.23
1691.84
1604.91
1567.09
2058.43
1675.15
1813.68
1667.26
1540.43
1509.75
1716.25
1668.76
1604.3
1943.48
1686.36
1755.76
1732.95
1417.68
1644.52
1627.62
1689.77
1722.84
1526.35
1128.39
1522.52
1517.9
1336.1
1324.81
1102.39
1327.61
1289.29
1143.9
1314.69
1060.14
1181.41
909.991
944.739
1019.37
946.892
856.66
813.435
1041.91
934.151
876.578
915.22
753.971
851.666
819.068
638.023
818.257
844.97
768.558
763.325
929.244
862.861
673.773
713.069
816.838
736.722
794.206
685.877
1009.45
921.175
838.366
694.044
796.744
892.31
810.94
730.91
771.409
955.194
742.72
781.966
880.687
918.759
914.922
908.735
844.233
994.247
660.312
919.561
772.418
895.988
767.424
813.094
684.6
257.783
144.413
144.29
170.349
186.465
153.328
192.102
155.357
186.019
188.249
143.588
165.146
150.737
159.791
129.508
179.102
183.66
134.518
180.502
126.181
148.457
153.48
179.353
147.359
183.679
176.004
177.185
145.22
232.349
159.738
160.402
175.245
139.897
155.519
131.27
170.18
176.453
186.872
161.69
136.692
146.212
158.705
148.818
179.717
242.408
173.616
178.501
136.688
210.777
177.018
125.293
142.078
157.633
130.582
182.664
129.59
132.093
175.082
187.451
164.194
165.086
220.1
157.536
160.619
141.765
170.452
189.424
147.714
199.915
153.693
153.815
158.15
174.041
182.461
165.64
148.764
131.079
194.768
216.517
175.443
199.022
153.466
157.605
155.392
157.266
151.04
226.437
133.914
189.038
200.619
147.187
200.365
220.259
141.279
140.612
177.486
157.263
148.632
191.612
199.751
146.557
142.226
151.833
170.452
184.467
189.417
226.542
134.627
146.221
84.3481
164.775
142.042
158.132
119.496
172.655
166.859
195.09
148.333
156.945
142.377
160.021
168.174
155.502
145.614
114.711
165.506
149.701
153.315
145.832
189.358
149.151
154.07
185.247
148.477
183.342
120.926
164.183
162.782
168.423
184.274
145.67
198.867
177.552
149.629
170.174
161.465
153.028
171.664
142.692
225.111
113.475
192.207
196.452
168.194
232.079
131.21
149.726
163.821
135.031
178.643
163.988
182.487
141.886
100.424
149.468
138.464
170.181
198.925
181.003
170.44
160.577
124.29
165.541
187.649
181.558
135.007
210.669
148.561
171.472
147.613
156.331
150.096
160.417
133.85
218.367
133.525
180.86
118.296
134.067
191.855
141.065
127.224
151.878
174.236
181.931
195.283
152.604
164.419
188.108
165.461
129.92
202.518
229.451
165.495
155.104
170.537
160.408
169.002
164.452
159.538
146.238
128.273
130.581
189.382
167.689
159.082
)
;

boundaryField
{
    sides
    {
        type            symmetry;
    }
    empty
    {
        type            empty;
    }
}


// ************************************************************************* //
