/*--------------------------------*- C++ -*----------------------------------*\
  =========                 |
  \\      /  F ield         | OpenFOAM: The Open Source CFD Toolbox
   \\    /   O peration     | Website:  https://openfoam.org
    \\  /    A nd           | Version:  7
     \\/     M anipulation  |
\*---------------------------------------------------------------------------*/
FoamFile
{
    version     2.0;
    format      ascii;
    class       volScalarField;
    location    "0.004";
    object      dsmcRhoNMean;
}
// * * * * * * * * * * * * * * * * * * * * * * * * * * * * * * * * * * * * * //

dimensions      [0 -3 0 0 0 0 0];

internalField   nonuniform List<scalar> 
654
(
8.7615
8.5195
8.6025
8.0845
8.0065
8.4505
8.4665
8.5825
8.2415
8.1545
8.278
7.954
7.9005
7.543
7.698
7.4445
7.5865
8.014
7.6085
6.9495
9.006
8.489
8.2715
8.348
8.0565
8.245
8.1005
8.1605
7.914
8.0525
8.153
7.8325
7.8665
7.702
7.8015
7.574
7.624
7.1405
6.9435
6.7385
8.565
8.478
8.354
8.2975
8.1995
8.114
7.9115
8.0975
7.9565
8.1065
7.8435
7.868
7.881
7.6605
7.435
7.0165
7.0115
6.555
6.283
6.381
8.6575
8.509
8.216
8.5315
7.8875
7.951
7.756
7.643
7.967
7.6165
7.7775
7.852
8.2475
7.6395
7.1915
7.368
6.9075
7.1865
6.768
6.5715
8.533
8.465
8.2625
7.9485
8.2455
8.126
8.089
8.1735
7.911
7.6555
7.558
7.5625
7.858
8.0045
7.3445
7.112
7.016
7.2095
6.676
6.189
8.4205
8.1035
8.073
7.9365
8.186
7.615
7.724
7.6855
7.724
7.7905
7.864
7.79
7.4065
7.6045
7.0295
7.2225
7.0155
6.7895
6.4525
6.3135
8.43
8.448
8.3905
8.283
7.879
7.961
8.087
7.8185
7.896
7.462
7.903
7.7235
7.417
7.3235
7.2415
6.8825
7.057
6.6515
6.52
6.5035
8.5725
8.2835
8.13
8.16
7.937
8.213
7.646
7.84
7.948
7.7955
7.6095
7.598
7.4805
6.9535
7.1805
7.031
6.988
6.83
6.828
6.5895
8.3155
8.47
8.309
8.182
7.978
8.347
7.7325
7.385
7.5035
7.653
7.6045
7.675
7.513
6.9195
7.174
7.1945
6.833
6.7675
6.3295
6.3665
8.1715
8.4155
7.8455
8.007
7.904
7.845
7.828
7.8285
7.9325
7.7465
8.0185
7.78
7.2995
7.1495
7.072
7.025
6.7205
6.764
6.5565
6.5065
8.4495
8.167
7.8515
8.1125
8.116
7.904
7.6445
7.835
7.4725
7.321
7.4275
7.1775
7.329
6.9125
7.0045
6.769
6.6685
6.9295
6.7155
6.508
8.269
7.9575
8.1925
8.2055
7.7345
7.8885
8.2565
7.63
7.3815
7.289
7.445
7.345
7.297
6.9795
6.6225
7.012
6.1955
6.649
6.6975
6.549
7.9065
7.9795
8.235
7.669
7.6125
7.9535
7.8075
7.4325
7.6885
7.401
7.5745
7.18
6.9305
6.784
6.861
6.933
6.8
6.4405
6.6955
6.6465
8.089
8.033
7.564
7.829
7.6255
8.1505
7.763
8.044
7.5385
7.702
7.489
7.488
7.0295
6.5775
6.9965
7.14
6.803
6.385
6.5105
6.8525
7.89
7.9145
8.076
7.7785
7.818
8.002
7.6725
7.6165
7.323
7.383
7.6235
7.0865
6.9305
6.7125
6.834
6.837
6.9955
6.8375
6.918
6.535
8.261
8.278
7.7805
7.676
8.1235
7.6365
7.8575
7.852
7.5955
7.443
7.257
7.4085
6.985
6.97
6.5875
6.6395
7.1295
7.1575
7.012
6.9
8.1285
7.9285
8.083
7.864
7.6335
7.2995
7.47
7.5215
7.396
7.0095
7.1595
7.5645
7.186
7.38
6.846
6.93
7.0575
7.2275
6.8185
6.7065
7.9125
8.115
7.9085
7.9095
7.885
7.7465
7.326
7.5875
7.501
7.2615
7.2495
7.381
7.1805
7.305
7.1825
7.1855
7.1675
6.96
6.7275
6.7405
7.93
8.2045
7.8385
8.189
8.005
7.7365
7.533
7.7455
7.3775
7.516
7.3625
7.239
7.173
7.2955
7.182
7.2165
6.9765
6.5545
6.699
6.734
8.0845
8.1695
7.5435
7.6735
7.7725
7.834
7.5805
7.8735
7.548
7.383
7.078
7.1315
7.1295
6.8425
6.948
6.755
7.062
7.0465
6.5765
6.823
8.062
8.117
8.038
8.2305
7.856
7.858
7.997
7.6965
7.469
7.0035
6.911
7.304
7.4895
6.898
7.087
6.773
7.191
6.955
6.566
6.7975
8.4645
8.217
8.0515
7.9065
7.974
7.731
7.3945
7.4935
7.564
7.1635
7.1045
7.1375
7.4155
7.3835
7.271
6.8095
6.918
6.7695
6.8975
6.9755
6.2025
6.032
5.8895
5.7255
5.48
5.4295
5.3925
5.17
5.292
5.345
6.192
5.806
6.0125
5.8265
5.634
5.6375
5.209
5.181
5.2875
5.242
6.0935
5.9555
5.8415
5.726
5.698
5.822
5.4695
5.51
5.44
5.6405
6.1945
6.0965
5.892
5.7905
5.796
5.6985
5.439
5.577
5.717
5.521
6.1315
6.202
6.0355
5.878
5.5015
5.653
5.7145
5.8705
5.8
5.689
6.3475
6.5305
6.14
5.9085
5.7085
5.733
5.868
5.829
5.36
5.465
6.502
6.047
5.765
5.883
5.876
5.7825
5.5775
5.568
5.3685
5.301
6.6465
6.2815
6.1775
5.8285
5.7665
5.6255
5.6815
5.764
5.467
5.203
6.6505
6.5485
6.123
5.862
5.8315
5.775
5.82
5.545
5.507
5.671
6.8445
6.343
5.913
5.992
5.8675
5.9035
5.7595
5.501
5.448
5.646
6.7155
6.109
5.982
6.3085
6.203
5.8665
5.749
5.4905
5.5345
5.302
6.457
6.2335
6.1935
5.7905
5.921
5.978
5.823
5.496
5.8335
5.425
6.449
6.3895
6.194
5.99
6.0345
5.954
5.755
5.903
5.7415
5.5405
6.7345
6.302
6.1245
5.983
6.1455
5.843
6.0465
6.128
5.7765
5.75
6.3775
6.2715
6.1765
6.323
6.049
5.7995
6.043
6.1755
5.7445
5.598
6.514
6.3335
6.231
6.27
6.215
5.9775
6.1135
6.1625
5.7645
5.6135
6.6515
6.692
6.5715
6.0625
6.1005
5.842
6.289
6.33
6.098
5.7615
6.497
6.658
6.2715
6.504
6.0755
6.1055
6.098
6.1735
6.1185
6.0155
6.826
6.418
6.3875
6.6175
6.4695
6.3925
6.4175
6.0485
6.2015
5.899
6.8125
6.5345
6.3425
6.43
6.666
6.574
6.004
6.232
6.279
6.0965
6.7665
6.311
6.403
6.3275
6.4385
6.1945
6.177
6.6525
6.2835
6.152
6.953
6.7165
6.712
6.609
)
;

boundaryField
{
    flow
    {
        type            calculated;
        value           nonuniform List<scalar> 
42
(
8.7615
9.006
8.565
8.6575
8.533
8.4205
8.43
8.5725
8.3155
8.1715
8.4495
8.269
7.9065
8.089
7.89
8.261
8.1285
7.9125
7.93
8.0845
8.062
8.4645
8.7615
8.5195
8.6025
8.0845
8.0065
8.4505
8.4665
8.5825
8.2415
8.1545
8.278
7.954
7.9005
7.543
7.698
7.4445
7.5865
8.014
7.6085
6.9495
)
;
    }
    obstacle
    {
        type            calculated;
        value           nonuniform List<scalar> 10(6.2025 6.032 5.8895 5.7255 5.48 5.4295 5.3925 5.17 5.292 5.345);
    }
    frontAndBack
    {
        type            empty;
    }
    procBoundary0to1
    {
        type            processor;
        value           nonuniform List<scalar> 
21
(
5.249
5.078
5.5275
5.664
5.8235
5.6185
5.452
5.268
5.4005
5.411
5.4845
5.7115
5.6445
5.97
5.6605
5.7505
5.771
5.908
6
6.2815
6.0315
)
;
    }
    procBoundary0to2
    {
        type            processor;
        value           nonuniform List<scalar> 
31
(
7.9765
8.03
8.067
7.6935
8.1835
7.845
7.5495
7.445
7.5815
7.3385
7.187
7.1685
7.4295
7.213
7.319
6.8525
6.722
6.8635
7.0275
6.9425
6.468
6.2645
6.3195
6.345
6.0965
6.2195
6.912
7.0355
6.4325
6.468
6.8125
)
;
    }
}


// ************************************************************************* //
