/*--------------------------------*- C++ -*----------------------------------*\
  =========                 |
  \\      /  F ield         | OpenFOAM: The Open Source CFD Toolbox
   \\    /   O peration     | Website:  https://openfoam.org
    \\  /    A nd           | Version:  7
     \\/     M anipulation  |
\*---------------------------------------------------------------------------*/
FoamFile
{
    version     2.0;
    format      ascii;
    class       volScalarField;
    location    "0.004";
    object      linearKEMean;
}
// * * * * * * * * * * * * * * * * * * * * * * * * * * * * * * * * * * * * * //

dimensions      [1 -1 -2 0 0 0 0];

internalField   nonuniform List<scalar> 
654
(
0.5510451235
0.5429549617
0.590734679
0.5646511735
0.5786858152
0.5800317695
0.5756388678
0.5774560671
0.5837523216
0.5910527222
0.5952476311
0.6185954564
0.5965335564
0.606045006
0.6147316345
0.5971582552
0.6087159808
0.6360746071
0.6466977874
0.6437421425
0.5808254947
0.5740269178
0.5651029022
0.5774915999
0.5692262008
0.5848950386
0.609205257
0.6011697359
0.5949162251
0.6236744305
0.6367600392
0.6136402687
0.6564054958
0.6385268372
0.6714903821
0.6593645499
0.6614312916
0.6607850399
0.6815092322
0.6905013058
0.5559197474
0.5633474193
0.5814249808
0.585119989
0.602728179
0.6030514648
0.5957824629
0.602153743
0.5970339395
0.632877892
0.6365243657
0.6202637536
0.6361364658
0.6504572137
0.6581233908
0.6623194224
0.6503155934
0.6482173617
0.6522935429
0.6843815944
0.5585405166
0.5714608694
0.5822310468
0.5968333885
0.5642505249
0.5811603107
0.584239534
0.5910602624
0.608461821
0.6193352211
0.64146803
0.6403107679
0.6515824429
0.6739948738
0.6682446089
0.6933470708
0.6644156311
0.7297926851
0.7075735115
0.7146168877
0.5322408384
0.5476615971
0.5821874447
0.5788278862
0.5967368443
0.5740426894
0.587806817
0.6080098085
0.6156549026
0.606380873
0.6033976223
0.6348863343
0.6713688152
0.6810193293
0.677124433
0.6637802641
0.690305349
0.7311117518
0.7153575705
0.7045461195
0.5403560479
0.5365517089
0.5524534091
0.5694600199
0.5803905221
0.5613079869
0.5816449047
0.6014375335
0.6076955636
0.6203602688
0.640744009
0.6590407911
0.6402954841
0.6893759223
0.6376725122
0.6606086154
0.6566512859
0.6758232215
0.7062758161
0.6912357908
0.5684809023
0.5766953291
0.592377808
0.5905177726
0.5880578431
0.5925587638
0.5966286464
0.6074599483
0.6163349278
0.6362434868
0.6514774441
0.6370591001
0.6400366631
0.646105941
0.6559350156
0.6432226201
0.6695125621
0.6696209486
0.6854487196
0.7033204771
0.5666371638
0.5742496638
0.5861741432
0.5698920751
0.5681277108
0.607235004
0.5905870201
0.6244540762
0.639621639
0.6474414425
0.64590136
0.6632063945
0.675214487
0.6548840449
0.6882692909
0.6576575755
0.6915920239
0.705238052
0.6995898505
0.7091639861
0.5559629557
0.5854747359
0.596312498
0.5651593305
0.5758783343
0.6098505544
0.5979176929
0.5996789596
0.6073667147
0.6454628178
0.6322806689
0.6532237855
0.6457944139
0.6586737898
0.6731478218
0.6843347725
0.6847435187
0.6928886958
0.6892873083
0.7091616117
0.5668173061
0.5796010644
0.5515469889
0.5703728031
0.5762053711
0.6023259631
0.6051259118
0.6189437633
0.6332150217
0.6312125407
0.6507028096
0.6507246366
0.6502024633
0.672821813
0.6795584761
0.6815540979
0.6669142716
0.6790667011
0.6883159609
0.6904028375
0.5667663915
0.5765601296
0.5669246884
0.5845987133
0.5859980386
0.6042750521
0.5782567
0.6171607594
0.6036285512
0.6063449507
0.6140882993
0.6371463422
0.6642307506
0.6564629786
0.6647774702
0.6682236225
0.667555381
0.6868604716
0.6974014758
0.6986190961
0.5501450463
0.5551022058
0.5614813929
0.578159559
0.5765963302
0.5850471052
0.6262069887
0.6106692579
0.6226715136
0.6259616035
0.6188064124
0.6420660476
0.66300182
0.6579519193
0.6476788221
0.6897780072
0.6523227506
0.6764591609
0.6846997765
0.711714797
0.5174373046
0.5619191593
0.5741852597
0.5593959272
0.565139262
0.606672251
0.6276429106
0.6109171784
0.6301278828
0.6325903957
0.6440554782
0.6365435875
0.6500631966
0.6766258959
0.691317426
0.7024234092
0.703306055
0.6881374868
0.7163192365
0.7358359645
0.5184627537
0.5552180882
0.5435130967
0.5763938051
0.5827261269
0.6061811303
0.5994476684
0.6336002556
0.6174271654
0.6333666475
0.6424591894
0.661008839
0.6417980159
0.6483665013
0.6945419365
0.6970875066
0.7053347017
0.6714459301
0.6904410025
0.7220657858
0.5362942912
0.5752922469
0.5874639683
0.5692176697
0.5844000003
0.5957788417
0.6004690708
0.6068266879
0.6016627441
0.6171569008
0.6380578101
0.6385818689
0.6382666672
0.6105763632
0.6275701875
0.6588789986
0.6823049069
0.6804077063
0.7119430041
0.7098409147
0.5461146225
0.5604046822
0.5735023969
0.5872393779
0.5886843846
0.5822918081
0.5878798864
0.6223255757
0.6057597124
0.6211245435
0.6115633783
0.6494548285
0.6469113515
0.6503281622
0.6557806704
0.6600620254
0.6706331473
0.6851377193
0.7139926992
0.7316135092
0.5461978334
0.5509307155
0.5774917817
0.5811791903
0.5689529177
0.573768976
0.5919277604
0.6152335398
0.620501124
0.6205830949
0.6347426954
0.6735120819
0.6512857016
0.6822925623
0.6277563785
0.6599604909
0.6970531086
0.7186697908
0.7174877049
0.7311337088
0.5256603583
0.5628282236
0.5701588156
0.5922192182
0.5974929193
0.5842672649
0.5753969012
0.6184691764
0.6120358109
0.6304891179
0.6251119271
0.6685532796
0.6451508106
0.6664674743
0.667856379
0.6728522257
0.6957892343
0.6936368738
0.6990586952
0.7074583254
0.5300528092
0.5696953758
0.5543550795
0.5781657443
0.5583231726
0.5807461146
0.5986706972
0.626182953
0.6241817478
0.6430977456
0.6234662127
0.6193891279
0.6495539741
0.6686868609
0.6670928577
0.7014387253
0.6805071093
0.6841253564
0.7076947636
0.7353471106
0.519968694
0.5573289277
0.536655588
0.5646483442
0.5678138356
0.5875124536
0.5986390327
0.6145641644
0.6139281248
0.6172982956
0.6111372214
0.6325932464
0.6265863184
0.6442962397
0.6835005779
0.6790121737
0.6977869778
0.6867685916
0.6820690122
0.7120506957
0.5315131513
0.566680907
0.5677842414
0.5863795488
0.5948106923
0.5867016919
0.5966629893
0.6088209518
0.5998758675
0.5936164111
0.6173797928
0.6520580749
0.6782365446
0.661170701
0.712782034
0.7001309739
0.73079165
0.7187208248
0.7162354913
0.7202430224
0.5690902497
0.5714357661
0.5709957812
0.572070274
0.5724686327
0.590839495
0.588331198
0.6082761143
0.6211132291
0.6212873865
0.6498875645
0.6291518738
0.6720246766
0.6716408883
0.6926977277
0.6646698751
0.6831943027
0.6891110207
0.7116676734
0.7245160715
0.6896648733
0.7124367416
0.7460372044
0.7518137002
0.7391369402
0.7351165901
0.7353063623
0.7404383617
0.7762164743
0.7849517851
0.6873105727
0.7069195734
0.742389268
0.7712853044
0.7735751834
0.8128556215
0.771905583
0.806976646
0.8267776332
0.8329144079
0.6969713317
0.713937282
0.7631321197
0.7765200344
0.7948582783
0.8228233347
0.7750968554
0.829918398
0.8602398651
0.8815154119
0.7317272352
0.7326645313
0.7417931648
0.7498593676
0.7775365909
0.8071714292
0.8295384685
0.8670985061
0.8781496101
0.8975758961
0.6950357819
0.73360693
0.7509775735
0.7688968344
0.7732140581
0.8019908104
0.8297664118
0.8447366815
0.8545170988
0.8751375453
0.7092787157
0.7501301159
0.7707770906
0.7696386273
0.7334096607
0.759711832
0.8117498464
0.8323077654
0.7927943262
0.812538667
0.7258787696
0.7148797678
0.7023938088
0.751185057
0.7795957635
0.7960014924
0.7895118448
0.771993182
0.8051348152
0.8323665597
0.747814191
0.7370098497
0.7619312783
0.7200172913
0.7181936818
0.7420739113
0.7769927277
0.8087690188
0.8159560649
0.7725106471
0.7223112712
0.7252471674
0.714150788
0.735588149
0.7605116438
0.7747724428
0.8065074932
0.7709535866
0.8212558666
0.8288483198
0.7388851066
0.7336019424
0.7468739525
0.7544196278
0.746159018
0.7584544893
0.7872198296
0.7793144694
0.7968237739
0.8435359687
0.7231456468
0.7205902914
0.7266296078
0.7667823643
0.7765544505
0.7592282914
0.8031684385
0.7893263973
0.7931145961
0.7786838158
0.7153971871
0.7337977203
0.7386070308
0.7491594487
0.7697074804
0.776944304
0.8006823298
0.7763616655
0.8077327135
0.7745205319
0.7517945012
0.7432331489
0.7594145759
0.7447190747
0.7722262448
0.7670745109
0.7780962133
0.8027723755
0.8109600767
0.8246453436
0.7517675817
0.7232708667
0.7204176487
0.7162403513
0.7473690079
0.7226383222
0.7495863775
0.7666230835
0.7847224064
0.807689171
0.7089940823
0.6958444579
0.729240405
0.7553278506
0.7560492834
0.7602589703
0.7836963686
0.8387717722
0.8094646561
0.8404238148
0.7121556301
0.7426113263
0.7695867904
0.7824178506
0.766483118
0.7842967988
0.7810926581
0.8052130391
0.7647042843
0.8001197864
0.746641052
0.7543006644
0.7185503647
0.7280603688
0.7500344769
0.7289693395
0.7837494469
0.7953178291
0.8118717797
0.811333926
0.7027432516
0.7468391997
0.7437680644
0.7745675451
0.7646414333
0.803425625
0.7946215883
0.8086914201
0.8368041047
0.8302823356
0.7432466993
0.736122528
0.7317740441
0.7674941936
0.7941168647
0.8227700497
0.8113214287
0.7890603313
0.8238249203
0.8022050767
0.7402331137
0.7344287214
0.7390840235
0.7565939964
0.7805653345
0.7974368586
0.7646685777
0.7959561579
0.7948290024
0.8262599552
0.7277601123
0.6970105716
0.7332238317
0.7377156356
0.7463317529
0.730423877
0.7519582717
0.7948342686
0.7938332494
0.794352887
0.7317139164
0.7297666154
0.7600335672
0.7556314229
)
;

boundaryField
{
    flow
    {
        type            calculated;
        value           nonuniform List<scalar> 
42
(
0.5510451235
0.5808254947
0.5559197474
0.5585405166
0.5322408384
0.5403560479
0.5684809023
0.5666371638
0.5559629557
0.5668173061
0.5667663915
0.5501450463
0.5174373046
0.5184627537
0.5362942912
0.5461146225
0.5461978334
0.5256603583
0.5300528092
0.519968694
0.5315131513
0.5690902497
0.5510451235
0.5429549617
0.590734679
0.5646511735
0.5786858152
0.5800317695
0.5756388678
0.5774560671
0.5837523216
0.5910527222
0.5952476311
0.6185954564
0.5965335564
0.606045006
0.6147316345
0.5971582552
0.6087159808
0.6360746071
0.6466977874
0.6437421425
)
;
    }
    obstacle
    {
        type            calculated;
        value           nonuniform List<scalar> 10(2.779577671e-19 2.830087727e-19 2.951548602e-19 3.210531223e-19 2.931234298e-19 2.9885398e-19 2.770098527e-19 2.554252331e-19 2.974660707e-19 2.996263946e-19);
    }
    frontAndBack
    {
        type            empty;
    }
    procBoundary0to1
    {
        type            processor;
        value           nonuniform List<scalar> 
21
(
0.7864807859
0.8160606817
0.8796105925
0.9224849615
0.9101880292
0.8358169516
0.8517097828
0.8053983157
0.8130575188
0.8713644518
0.8143404407
0.8234314125
0.8120775288
0.8286965681
0.8463649881
0.8001129359
0.849170591
0.8512675596
0.8243576384
0.8320003419
0.7915548794
)
;
    }
    procBoundary0to2
    {
        type            processor;
        value           nonuniform List<scalar> 
31
(
0.56310619
0.5635207561
0.5786422368
0.5782678944
0.5878242262
0.5691528262
0.5894871396
0.5984373024
0.6220932811
0.6126525481
0.6293468076
0.6279880555
0.6449643901
0.6704899873
0.6926849897
0.6932387174
0.675306119
0.6911422272
0.732034639
0.7332434031
0.756266195
0.7570723803
0.7471722409
0.7871456705
0.7720950574
0.8107825283
0.7229925053
0.727768254
0.7107905092
0.756266195
0.7701424073
)
;
    }
}


// ************************************************************************* //
