/*--------------------------------*- C++ -*----------------------------------*\
  =========                 |
  \\      /  F ield         | OpenFOAM: The Open Source CFD Toolbox
   \\    /   O peration     | Website:  https://openfoam.org
    \\  /    A nd           | Version:  7
     \\/     M anipulation  |
\*---------------------------------------------------------------------------*/
FoamFile
{
    version     2.0;
    format      ascii;
    class       volScalarField;
    location    "0.004";
    object      linearKE;
}
// * * * * * * * * * * * * * * * * * * * * * * * * * * * * * * * * * * * * * //

dimensions      [1 -1 -2 0 0 0 0];

internalField   nonuniform List<scalar> 
654
(
3.966178951
11.33817995
7.777285594
6.656676839
5.729299021
8.172393938
7.463668565
7.900579648
9.862897558
11.65710596
5.378088622
7.584887159
13.13178323
10.62089854
4.007783812
4.018520159
11.87073707
7.333834529
8.123337817
10.76860159
6.735677857
9.841229722
8.978948281
7.304712785
6.430693872
7.191437062
3.814620414
6.382090726
6.556697576
8.537200651
5.809249605
7.16581103
9.190909239
7.217210318
5.211820487
4.713588594
6.508909596
4.594190938
7.31114389
12.87053443
5.281570199
6.920514165
10.30364693
9.330099805
6.674407562
5.348392508
5.44725295
4.873545593
6.44266013
13.13162497
5.412007472
6.573468693
10.24425161
11.14541556
10.06983553
5.814673389
9.874064746
7.008685139
13.48184747
5.893940503
4.255599913
9.347271324
9.314110692
9.582674063
4.765877407
11.84764141
6.755696366
7.362194321
12.21464762
5.253829702
7.26355604
9.275176965
11.01423753
8.277786422
5.393084764
9.218213225
10.73390173
8.907184127
4.898567473
10.08775801
8.155687928
5.702125915
3.417563345
7.237898596
5.462645129
7.332373374
5.393575235
10.92484135
3.699797831
11.08744479
7.139149508
5.556150923
6.960000311
5.928419936
6.413756198
7.462735448
6.369704668
8.47037889
9.930449787
11.09464058
4.895601639
6.825186104
7.596875226
8.900126243
10.12501077
12.28470374
9.212792071
8.350852861
6.125129369
7.381715757
6.173988191
10.87315577
7.096419813
11.4433144
1.798703857
8.466766689
10.18179282
6.545766295
3.737004208
5.279055163
7.672940835
7.647197083
4.924953583
7.703155964
7.872502114
5.27830271
5.490605364
7.124453818
4.258022361
8.240254593
7.824299708
6.146376884
7.647562225
6.038009668
9.251362419
7.476272514
10.08337021
6.013956703
8.814194773
10.93274529
6.540525574
8.792207352
6.249824773
9.168770183
9.358118092
6.647427122
6.224131226
5.295514917
5.033584274
13.57707476
10.85096369
12.12633692
5.808386906
9.763115065
4.109212549
13.05987507
5.455761547
7.274054829
6.146335008
10.55620863
5.954184207
11.65083238
7.082211289
7.963851356
7.796910754
9.863920521
5.454930491
5.61818817
6.981825703
12.55373415
4.154438939
6.681685561
6.62689736
7.604299898
11.59717176
9.168870148
7.354572138
7.182339547
9.010150406
6.867687275
5.949789298
5.653486389
12.38182616
5.966979063
7.96695687
12.1419794
17.91860126
6.001295587
7.289969798
4.633817448
2.459633282
7.795124186
13.83337079
7.323950779
10.61692874
6.680283783
9.709109129
8.093850444
5.824245394
5.863137783
7.040486857
8.121330131
5.140949662
5.457729901
5.187375545
6.700949001
3.019745952
2.974404978
7.928057947
8.25636894
5.847361022
9.702601407
8.528789927
8.05514337
10.02106646
12.57834648
9.401674894
10.06350607
4.668678867
7.708259279
5.659765397
8.030410376
7.838672706
7.503548161
8.680336356
7.604536571
8.067759412
6.242006621
6.964083648
5.152196687
17.21540515
9.053708259
8.470214301
5.978046606
10.16609369
8.662329166
8.298169675
8.234061609
6.881814621
12.14222429
9.008749965
6.056547428
7.14764938
10.68648691
11.77857056
6.638944453
8.475569933
9.850557338
8.444658294
5.965158723
12.92178008
8.417246052
8.56613232
6.917786529
13.60532572
5.990477142
8.065339205
9.369212099
7.818596295
5.402550315
5.229905905
5.91083225
6.797660482
7.528303212
3.571236362
9.089287757
5.965239474
8.254257784
15.64581579
6.576565604
5.7047766
6.441754355
12.40482175
7.991449335
8.948884667
6.671260581
8.397182986
8.320324036
7.396428909
7.193055972
7.010180051
7.480346987
5.546829777
6.928598908
5.266580678
8.357749226
9.671210252
6.116380539
3.389817646
7.541099317
8.499628134
4.396268744
4.781682268
4.597724748
4.601135217
6.753625308
7.758963714
8.380428181
8.860087254
7.256689358
6.051697163
7.057466918
15.91354983
8.425396597
12.58905155
6.343074237
11.08838554
11.93622437
7.110388068
7.251890809
6.87629595
4.231020038
13.93652649
4.720164749
6.744142461
5.160636303
13.94657151
6.341966227
5.293012221
8.565222689
7.277469551
5.614726299
7.055441495
5.069396982
2.991723589
5.058532755
10.62800259
3.445212971
7.993424547
7.660780864
10.80056309
6.070652777
6.176289013
8.143298443
5.886568505
3.500218293
4.694523981
6.988960535
5.471728623
8.094411107
6.595144209
8.571187423
6.99923608
8.690518553
7.694978165
6.776157653
4.20473028
8.95662525
9.085730856
8.132045332
5.714633699
9.170157893
3.00848036
8.510111198
8.166318042
6.283987516
8.530138181
10.07690733
9.320414897
9.10096136
5.424233784
10.35469147
9.054427531
6.758265331
10.62046131
7.91514238
12.92834223
2.489074211
6.628123833
8.445895229
8.933009149
8.820926601
3.646526434
9.025177803
5.667174163
10.55371851
6.273034365
2.4709331
11.45407862
7.719885629
7.317321499
5.312561309
9.144178996
8.598218852
15.60922467
8.772526347
0
6.228419961
5.550412411
7.976902897
9.51896859
14.14446193
7.709043359
16.53264778
8.321825825
6.521725442
8.536192601
5.783533998
8.623951896
6.271369834
5.963929393
4.339136565
7.033851208
9.152914427
11.43360634
8.25858551
4.789915572
7.734854686
6.422047404
3.390626692
9.255507891
10.63311888
8.33654348
8.256228842
10.73359551
5.213655001
4.867967381
6.952908121
2.764265974
6.873607976
7.107422888
5.883796587
11.48370765
6.737874314
9.13144508
9.532934966
13.86223839
6.302726413
12.20507072
5.656822169
7.903608524
6.280028931
7.578864797
5.36619138
11.49922854
6.833578601
7.708967239
10.69181652
5.623800203
7.399604739
7.168311936
10.73799211
10.95928182
9.923498725
11.45147843
9.177575534
9.135149548
5.434154064
8.599399271
6.747729622
13.31149733
9.964557352
9.356909432
8.75644636
10.45749782
10.65723671
10.19773924
11.40153374
9.125671354
12.72292538
9.581685387
9.573855992
11.04930349
15.36876631
9.091560576
9.259005391
10.41771127
8.782707908
13.07813911
10.05531506
12.16443245
12.25316108
7.327953813
13.61274208
10.77481293
6.811779948
5.350710114
11.70135269
9.320483961
13.44156292
10.29265121
4.014988616
8.447905869
11.58121115
8.393682462
13.04155571
6.497752294
17.74003888
11.25749189
10.54678694
2.854886386
6.681695167
6.019894266
11.53705256
12.27926293
12.66091142
8.480495707
13.18497664
10.08671604
8.087310838
8.429912092
11.06409711
8.816873974
9.559879271
9.522684515
4.842003247
8.788372874
10.53769359
9.204120072
13.87088534
7.001884059
11.2841798
13.28286988
11.59506698
5.244748249
9.041541836
9.895039409
4.931907651
11.60016375
10.59845717
8.026179872
6.630512322
9.007365511
7.388375091
9.17103226
9.519257152
6.553734674
10.75856763
7.663575187
10.22978748
10.19789128
6.308876618
15.12498139
8.622065002
8.419543677
7.348575738
10.37523346
7.741242503
8.521005932
5.934364855
7.249915742
8.883858986
6.392202385
4.392369341
6.266912936
7.916284375
6.156220732
11.72705794
10.18769277
7.747041164
8.473300711
4.709434696
8.722031877
10.32485349
4.650082081
3.56245538
6.462985311
8.151700286
10.4214686
8.687275712
11.84020169
8.569250164
4.358809667
9.349825684
7.715763787
8.430931882
10.80268982
9.873240628
5.475940576
6.197881693
4.66518957
8.514366706
7.7050515
8.856792955
13.12480072
5.716604188
7.774457722
9.625573738
9.994544518
6.523788373
2.902321263
11.90112888
6.689791247
8.411667686
9.611390036
10.15053579
9.986856224
7.759131912
8.685970865
9.990572726
16.22459994
4.31199358
8.796205629
8.667401374
6.845683338
7.625015189
12.92001609
9.935342316
6.731349686
5.491171019
8.590469648
6.349916192
9.340545425
10.03309999
6.983461958
8.508394176
7.939488611
12.43908954
9.655754058
4.819140441
9.878962489
12.91730056
8.568666811
4.58718724
12.71406751
9.696036875
4.9094748
7.136346841
3.200061159
8.332130645
9.562725508
11.67364973
5.923928543
6.796358756
10.86113278
3.985742496
4.8116967
10.14460379
5.62649326
15.74868932
11.42715111
8.722977237
11.0049357
8.827522204
9.704319352
5.612555019
4.399629954
5.799226251
7.220228479
5.286167615
9.546110252
7.860043055
4.943938395
6.3845578
4.48890731
11.68339449
11.32480053
11.35090209
6.193266769
7.996658604
6.950465772
5.691292656
7.613058862
3.864428342
)
;

boundaryField
{
    flow
    {
        type            zeroGradient;
    }
    obstacle
    {
        type            calculated;
        value           nonuniform List<scalar> 10(0 2.800819005e-18 3.746899026e-18 1.250163024e-17 3.190976319e-18 7.007802918e-18 6.807501735e-18 4.667591078e-18 0 1.409474147e-18);
    }
    frontAndBack
    {
        type            empty;
    }
    procBoundary0to1
    {
        type            processor;
        value           nonuniform List<scalar> 
21
(
8.69668025
9.205207915
11.72242994
10.12006057
8.741364715
11.36681033
8.163789195
10.37606619
6.978803087
9.320071415
9.027476569
6.962853353
7.169153389
7.783244473
4.732161604
10.67393506
4.850663618
6.303257878
8.619224069
11.0412345
12.02760698
)
;
    }
    procBoundary0to2
    {
        type            processor;
        value           nonuniform List<scalar> 
31
(
5.695611079
6.328921749
6.879381489
6.280476681
4.88405163
2.701195008
6.139808398
6.777794221
4.880559701
9.545757762
11.17083701
7.686032513
8.602750605
6.870504081
8.353041425
3.416195318
4.233749632
6.909811311
9.161241498
8.068773078
11.35353035
6.262375295
7.397795612
11.69103671
13.11828702
8.136414031
10.36876034
10.96171575
3.740599162
11.35353035
9.963386463
)
;
    }
}


// ************************************************************************* //
