/*--------------------------------*- C++ -*----------------------------------*\
  =========                 |
  \\      /  F ield         | OpenFOAM: The Open Source CFD Toolbox
   \\    /   O peration     | Website:  https://openfoam.org
    \\  /    A nd           | Version:  7
     \\/     M anipulation  |
\*---------------------------------------------------------------------------*/
FoamFile
{
    version     2.0;
    format      ascii;
    class       volVectorField;
    location    "0.004";
    object      momentumMean;
}
// * * * * * * * * * * * * * * * * * * * * * * * * * * * * * * * * * * * * * //

dimensions      [1 -2 -1 0 0 0 0];

internalField   nonuniform List<vector> 
654
(
(4.327785575e-05 8.005335269e-05 -7.965181456e-05)
(8.145468193e-05 8.451870309e-05 -9.177708353e-06)
(8.351719619e-05 9.149338817e-05 1.487506919e-05)
(7.952430709e-05 5.104838938e-05 3.082499614e-05)
(0.0001233360401 5.631513719e-05 4.674800229e-05)
(0.0001079338371 0.0001291410717 -2.136922424e-05)
(9.063438941e-05 8.581090804e-05 1.030158636e-06)
(5.207398567e-05 0.0001010503582 2.491335505e-05)
(3.994978672e-05 0.0001312641395 4.517760282e-05)
(6.660068987e-06 9.966450023e-05 3.557646601e-05)
(2.77387801e-05 9.97895289e-05 -3.122339577e-05)
(5.276495717e-05 8.210825756e-05 -2.233066354e-05)
(9.306582027e-05 0.0001210162464 -1.281644969e-05)
(6.043353371e-05 0.0001102317595 8.231656536e-05)
(7.509921184e-05 9.689601043e-05 4.956182342e-05)
(0.0001104048211 8.52012424e-05 4.700932362e-05)
(0.0001514055032 0.0001084656646 4.56456321e-05)
(0.0001448308405 0.0001436314153 -4.589450085e-05)
(0.0001547937785 0.000112910265 -1.385794708e-06)
(0.0001497366452 0.0001368801401 -1.003302836e-06)
(7.744886546e-05 0.0001061719596 -6.134681791e-05)
(8.578649907e-05 0.0001086581842 4.372017553e-05)
(0.0001114081802 0.0001111207904 2.585215965e-05)
(0.0001350925963 7.297241467e-05 8.364492357e-06)
(8.28755575e-05 0.0001156883989 -3.800567014e-06)
(0.0001237244535 0.0001294368652 4.389722651e-05)
(0.0001219754959 0.0001303655698 -4.579218761e-06)
(0.0001429110019 0.0001496032885 4.421550336e-07)
(0.0001232562776 0.0001728151817 2.372529398e-05)
(0.0001380223707 0.0001386304684 2.856280633e-05)
(9.882392533e-05 9.099014079e-05 -1.780193729e-05)
(0.000112198775 0.0001323791891 3.111499252e-05)
(0.0001293695429 9.872773353e-05 5.273993731e-05)
(0.0001661007356 0.0001408050577 4.217487402e-05)
(0.0001484529657 0.0001038522207 3.794199829e-05)
(0.0001540190748 9.179222205e-05 3.878293407e-05)
(0.0001418247982 0.0001323401633 -1.419412422e-05)
(0.0001865084925 0.000145054 -5.226352582e-05)
(0.0002224814651 0.0001219724702 1.106109884e-05)
(0.0002461337377 0.0001697754205 -7.643915445e-07)
(5.591187823e-05 0.0001099710265 -3.408111834e-05)
(0.0001005768488 0.0001064848344 1.053371806e-05)
(0.0001082402261 0.0001035745443 1.436208022e-05)
(0.0001041676921 0.0001083424836 2.454816166e-05)
(0.0001094466178 9.018609512e-05 5.353863949e-06)
(0.0001308967987 0.0001155987932 -4.463447683e-05)
(0.0001545052565 0.0001079356965 -2.781006013e-05)
(0.0001267143112 0.000159361087 -7.343904534e-06)
(0.0001541642846 0.0001410812834 1.573098313e-05)
(0.0001786634622 0.0001650028455 5.465201965e-05)
(0.0001791674097 0.000119836304 1.596807714e-05)
(0.0001479804414 0.000110434987 6.832316129e-05)
(0.0001301026995 7.911175074e-05 1.650694509e-05)
(0.0001513189675 0.0001328180483 6.0671726e-06)
(0.0001840792741 9.963936956e-05 9.288908224e-06)
(0.0002196545468 7.743233642e-05 4.174742609e-05)
(0.0002378055085 0.0001111291406 -7.770325656e-05)
(0.0002499907185 0.0001332431585 -2.505648727e-05)
(0.0002476010532 0.0001101887237 -1.912993443e-05)
(0.000264508275 0.0001146325644 -4.967226892e-05)
(7.864916889e-05 0.0001070063312 -1.33629692e-05)
(0.0001521028636 8.263732689e-05 -2.87124995e-05)
(0.0001285747403 0.0001032170829 -2.71877368e-06)
(0.0001073674135 0.0001182005557 6.149212839e-05)
(8.836198575e-05 8.812968815e-05 -5.223995961e-05)
(6.160087693e-05 0.000128151093 -2.314755939e-05)
(5.224818511e-05 0.0001320090621 -2.952520858e-05)
(0.0001166290947 0.0001004681241 1.528185749e-05)
(0.0001513568389 0.0001233090632 -8.941949931e-07)
(0.0001429149505 0.0001559744344 7.887434319e-05)
(0.0001444616247 0.0001098630404 -1.686522385e-05)
(0.000166869701 0.0001158540346 -3.90999631e-06)
(0.0001498267729 0.0001232980406 1.590611112e-05)
(0.0001478118814 0.0001015638173 -5.054016991e-05)
(0.0001886313163 4.516481573e-05 1.366111315e-06)
(0.0002007310995 7.965393639e-05 1.933642478e-05)
(0.0002325222292 7.789243789e-05 -1.414566789e-06)
(0.0002622077324 0.0001345316759 -1.150170348e-05)
(0.0002622911368 7.322515959e-05 -2.59466281e-05)
(0.0002674055435 0.0001341507051 -4.841491888e-05)
(0.0001209718748 7.154635377e-05 2.129955074e-05)
(0.0001378260049 6.276723772e-05 -2.25811151e-05)
(0.0001630305438 0.0001311724273 -3.924682968e-05)
(0.0001539932993 0.0001400238184 1.378963112e-05)
(0.0001233951319 0.0001171523287 3.448657135e-05)
(0.0001270785856 0.0001164012633 -8.610987714e-06)
(0.0001103792352 0.0001314901433 3.659922176e-05)
(0.0001023957762 6.328773001e-05 -2.694788028e-05)
(0.0001124204711 0.0001390890958 -1.232391408e-05)
(0.0001532218534 0.0001170015675 1.888089727e-05)
(0.0001782310625 0.0001058929374 4.120290805e-05)
(0.000175413102 0.0001082737557 2.420240408e-05)
(0.0002141040867 0.0001330129887 -5.277091621e-05)
(0.0002039380381 7.57129633e-05 -4.300855478e-05)
(0.0002442975316 4.278175047e-05 3.487967365e-05)
(0.0002221971939 9.009529048e-05 6.429070033e-05)
(0.0001973000994 4.13157449e-05 2.578517644e-05)
(0.0002402774379 0.0001152261017 -4.692902952e-05)
(0.0002660402138 6.359192303e-05 -3.256573982e-05)
(0.0002879541456 0.0001101440605 -2.954784755e-05)
(0.0001036881464 4.411149927e-05 1.574516492e-05)
(0.0001531507333 7.445556802e-05 -2.669834529e-05)
(0.0001540268985 9.848324281e-05 8.567226193e-06)
(0.0001324686257 0.0001722561663 2.267768601e-05)
(0.0001388265081 0.0001269351771 3.608788856e-05)
(0.000110788418 0.0001218377396 -2.613996935e-05)
(0.000144055813 0.0001122727294 -9.891096376e-06)
(0.0001461830708 0.0001098482785 1.670636869e-05)
(0.0001469743682 7.791790159e-05 2.083562957e-05)
(0.0001764697706 6.712282039e-05 3.773775972e-05)
(0.0002067934513 0.0001226664817 5.221272389e-05)
(0.0001836949774 9.52728466e-05 1.984516255e-05)
(0.0002343254609 8.970578559e-05 7.106438316e-06)
(0.0002689192889 5.221824318e-05 -1.674722373e-05)
(0.0002510459441 6.436414817e-05 2.351764997e-05)
(0.0002535464651 8.214676542e-05 4.306838689e-05)
(0.0002395997055 7.862333948e-05 3.423834696e-05)
(0.0002263277907 8.253104295e-05 -1.011382295e-05)
(0.0002300380251 7.789891354e-05 -4.392651586e-06)
(0.0002096385736 8.535532847e-05 4.729097737e-05)
(6.339982589e-05 4.17259524e-05 -3.852739487e-05)
(8.981799166e-05 4.123520592e-05 -6.736080033e-06)
(0.0001050733106 0.0001497894705 2.172728529e-05)
(0.0001169236794 0.0001618926662 -2.017879478e-06)
(0.0001361236717 9.540153862e-05 6.3762673e-06)
(0.0001662892746 0.0001203495186 2.46171028e-05)
(0.000154203258 0.0001078778037 1.721474404e-06)
(0.0001607007821 9.400911406e-05 3.800654012e-05)
(0.0002068489225 4.555531788e-05 1.727755307e-05)
(0.0001962379867 7.229153463e-05 -2.703428152e-06)
(0.0002068291693 9.960252031e-05 -1.983948413e-05)
(0.0002594790698 0.0001048220783 -1.522850296e-06)
(0.0002031017662 7.122537483e-05 1.194680574e-05)
(0.000219316339 5.247286724e-05 -3.434799955e-05)
(0.0001994015999 6.321276865e-05 1.093491681e-05)
(0.0002160595244 7.847506514e-05 7.629057372e-05)
(0.0002569966956 9.552043266e-05 -9.857894823e-06)
(0.000238597593 5.844505179e-05 -4.164033e-05)
(0.0002396249445 9.206702527e-05 8.850340821e-06)
(0.0002713130981 4.265673597e-05 -8.22471673e-06)
(9.946230752e-05 3.4952663e-05 -1.458064423e-05)
(0.0001430731587 6.276956165e-05 -1.024664421e-05)
(9.450119033e-05 0.0001103611406 3.062100051e-06)
(0.0001479040824 0.0001169726537 2.433695934e-05)
(0.0001760972471 0.0001150337979 4.205670225e-06)
(0.0001326696459 0.0001217025964 -2.704888517e-05)
(0.0001699021922 8.361706487e-05 -5.473031032e-05)
(0.0002215897148 6.587788056e-05 -3.128150677e-05)
(0.0001923065505 5.547995942e-05 -5.847909234e-05)
(0.0001976779268 7.800643909e-05 -7.535738714e-05)
(0.0002069808007 8.407626429e-05 -5.154586852e-05)
(0.0001924629899 7.736635306e-05 1.500850332e-05)
(0.0002463595575 7.100994844e-05 5.735402239e-05)
(0.000236119388 8.239051533e-05 2.03186339e-05)
(0.0002147123035 4.959342934e-05 7.385765813e-05)
(0.0002340750324 7.243985083e-05 5.009541625e-05)
(0.0002363435347 5.601785606e-05 -1.225531859e-05)
(0.0002588447366 6.912286651e-05 1.86083213e-05)
(0.0002619899117 0.0001183024655 -4.404451615e-07)
(0.0002494951514 3.966596779e-05 1.250888833e-06)
(0.0001002160446 1.181772506e-05 -3.697372816e-05)
(0.0001118925222 6.476014779e-05 8.025029896e-06)
(0.0001622502065 0.0001122011332 1.649568331e-05)
(0.0001565631109 5.478419221e-05 3.33983708e-05)
(0.0001920939496 0.0001074666489 1.889839939e-05)
(0.0002123210501 0.0001205855123 1.315137948e-05)
(0.000225564676 7.302015247e-05 -4.318708172e-05)
(0.0002106052046 5.860716441e-05 -4.393122191e-05)
(0.0002135282049 6.113148755e-05 -5.421996514e-05)
(0.0002056230452 9.492884552e-05 -0.0001026483478)
(0.0002174681406 5.89140528e-05 -4.96915193e-06)
(0.0002327869432 7.68553225e-05 3.195006237e-05)
(0.0002112806562 5.407283493e-05 3.97087931e-05)
(0.0002314868765 9.340840566e-05 -2.003977541e-05)
(0.0002491149176 6.032850222e-05 3.504600834e-05)
(0.000226376415 6.497662906e-05 5.738465466e-05)
(0.0002203480155 7.625669196e-05 3.67255117e-05)
(0.0002225845074 6.885208391e-05 1.560225188e-05)
(0.0002716254729 6.527933617e-05 -1.150701192e-06)
(0.0002749819331 4.214066948e-05 8.635391726e-06)
(7.116823081e-05 1.049614276e-05 -4.182802259e-05)
(9.630981727e-05 5.360325108e-05 -2.414896883e-05)
(0.0001187666107 8.702157681e-05 -3.79489763e-05)
(0.0001315461404 5.064535639e-05 4.471211258e-08)
(0.0001306279067 0.0001019302239 7.371742781e-05)
(0.0001826246936 9.538401132e-05 4.838129519e-05)
(0.0001880010195 3.375013722e-05 1.956279826e-06)
(0.0001970186538 7.77894429e-05 -3.073544122e-05)
(0.0002072976019 6.021374537e-05 6.904581913e-06)
(0.0001914977924 0.0001223652238 2.700206973e-05)
(0.00018289743 4.031658661e-05 3.613361582e-05)
(0.0001949076765 9.157942236e-05 3.550647195e-05)
(0.0002005956031 4.932140424e-05 4.355251174e-05)
(0.0002018998057 7.136316079e-05 -1.793298023e-05)
(0.0002155380857 5.285403677e-05 1.595486492e-05)
(0.0002350456883 6.098356759e-05 8.0725121e-05)
(0.0002748260432 4.431136355e-05 5.072858167e-05)
(0.000286518575 6.474054345e-05 -7.03688475e-06)
(0.0002691690352 6.366187584e-05 2.057594182e-05)
(0.0002729918303 3.244184402e-05 3.816472528e-05)
(9.991396324e-05 1.698655614e-05 7.092418625e-06)
(0.0001418914969 4.581445386e-05 5.875876417e-06)
(0.0001535359753 4.666703508e-05 -2.682884202e-05)
(0.0001652519794 6.704944997e-05 -2.766962698e-05)
(0.0001647566684 7.008367265e-05 1.166014444e-05)
(0.0001749368302 7.981328952e-05 2.688259451e-05)
(0.0001741045182 4.931352224e-05 2.138220797e-05)
(0.0001968966389 5.025153531e-05 1.484710516e-05)
(0.0001667820155 0.0001059913172 -1.130176377e-07)
(0.0001725992027 7.798632928e-05 -2.926716571e-05)
(0.0002162588441 2.761747056e-05 1.986541033e-05)
(0.000220975173 7.330684744e-05 -3.06485248e-06)
(0.0002192987902 7.052348641e-05 9.544884314e-05)
(0.0002211037695 7.378480527e-05 5.876634991e-05)
(0.0002659043362 2.359832124e-05 -1.22598374e-05)
(0.0002530044923 6.820557434e-05 3.632501176e-06)
(0.0002478988908 2.510855727e-05 5.113952972e-07)
(0.0002729652221 4.876909096e-05 -3.058803635e-06)
(0.0002792142659 6.871055542e-05 -4.653264875e-06)
(0.0002851140202 4.250965528e-05 2.876484266e-06)
(0.0001148119864 -4.505294605e-06 3.451027047e-05)
(0.0001417170048 3.939814229e-05 3.993929647e-05)
(0.0001474617089 3.327050155e-05 1.811202051e-06)
(0.0001280853325 8.786383251e-05 -3.192563276e-05)
(0.0001391809748 4.81480602e-05 1.078765056e-05)
(0.0001414014779 4.512694551e-05 3.549549511e-05)
(0.000184302177 4.78334221e-05 -2.753286001e-06)
(0.0001692680293 6.508712888e-05 -1.749430023e-05)
(0.0002007307838 7.777048804e-05 6.314656703e-05)
(0.0002605019933 6.570409298e-05 -1.655308526e-05)
(0.0002184646282 3.912844429e-05 9.699552315e-06)
(0.0002175474725 7.668960982e-05 -5.974788166e-05)
(0.0002116447426 6.503262843e-05 -4.11263697e-06)
(0.0002400229486 4.569098179e-05 1.126651115e-05)
(0.0002398750872 4.691178648e-06 1.798559221e-05)
(0.0002652263799 5.855428982e-05 -8.033766084e-05)
(0.0002591935934 1.930656636e-05 -9.04403905e-06)
(0.0002573264967 3.668889512e-05 -1.456174753e-05)
(0.0002774886405 7.536251455e-05 1.145527921e-05)
(0.0002621948891 5.62360456e-05 3.819324256e-05)
(0.0001473264356 1.641810084e-05 1.689987065e-05)
(0.0001637469681 1.579778485e-05 -1.219989389e-05)
(0.0001559568299 7.296119735e-05 -1.879167308e-06)
(0.0001546050055 4.062718449e-05 -5.25910147e-06)
(0.0001883542734 5.025227317e-05 -3.179722868e-05)
(0.000225607045 6.277309682e-05 -2.510334867e-05)
(0.0002126336763 3.312210005e-05 7.15817049e-06)
(0.0002218085533 4.360310095e-05 -4.660277809e-05)
(0.0002628311268 3.825253607e-05 3.879511614e-05)
(0.0002574346922 5.735518333e-05 -2.076570569e-05)
(0.000232463739 7.557417019e-05 -2.659445382e-05)
(0.0002360370983 7.964712062e-05 -1.874872701e-05)
(0.0002518451283 1.479830203e-05 4.631568032e-06)
(0.0002944240356 3.021347547e-05 -5.939174941e-06)
(0.0002615484612 3.369743365e-05 -2.884109318e-05)
(0.0002505166277 8.115591773e-05 -2.059395569e-05)
(0.0002352625632 3.12102034e-05 -3.010654282e-05)
(0.0002250900188 1.89074582e-05 6.459439587e-06)
(0.0002547119273 3.547553324e-05 -2.608471249e-06)
(0.0002816205033 4.338453395e-05 -4.381770561e-05)
(7.90607095e-05 -1.062046261e-05 -5.433327718e-06)
(0.0001454104857 1.886739014e-05 5.530266726e-06)
(0.0001809155999 4.033276588e-05 5.700140065e-05)
(0.0002359451154 6.952343487e-05 -4.325642579e-05)
(0.0002040210539 4.17681279e-06 -3.262873466e-05)
(0.0002395016966 3.191763712e-05 5.278663324e-06)
(0.0002266119713 5.844682216e-05 -1.243585584e-05)
(0.0002513797191 1.199242186e-05 2.922904858e-07)
(0.0002290550344 2.430256589e-05 -4.07792884e-05)
(0.0002279919709 8.757371359e-05 -3.502823552e-05)
(0.0002405101655 6.996856766e-05 -6.076042543e-05)
(0.0002436889471 6.263741571e-05 5.552747591e-06)
(0.0002622350847 2.930564022e-05 1.983323694e-05)
(0.0002324356816 -1.294803363e-05 5.122592274e-05)
(0.0002690382664 5.167061578e-05 -4.510711251e-05)
(0.0002670521162 8.796522382e-05 1.236571276e-06)
(0.000242761355 4.303582134e-05 -5.509783625e-05)
(0.0002431593496 1.049974233e-05 -5.946083153e-06)
(0.0002374598405 3.408983095e-05 -4.182366458e-05)
(0.0002418937861 1.64962935e-05 -3.532363543e-05)
(9.330148313e-05 -1.650548065e-05 -2.375296296e-05)
(0.0001583139522 -2.359665378e-05 1.249283559e-06)
(0.000167592931 1.775332942e-05 2.313089326e-06)
(0.0001549416308 5.204541333e-05 2.41480637e-05)
(0.0001721246156 2.429236597e-05 7.701709507e-06)
(0.0001683454425 -1.59549807e-06 -1.952964373e-05)
(0.0002145220439 6.092685725e-05 -4.310128075e-05)
(0.0002070762193 2.799948139e-05 -4.721496839e-05)
(0.0001703492428 6.330839493e-05 -6.265628153e-05)
(0.0001491322136 4.408828263e-05 -8.763556047e-05)
(0.0002485006986 4.348299795e-05 -3.176445143e-05)
(0.0002456222259 4.750526221e-05 -3.803678336e-05)
(0.0002441767949 5.13184465e-05 -1.607585855e-05)
(0.0002349402135 2.716431245e-05 6.969036827e-06)
(0.0002154935999 3.090942545e-05 3.301095505e-06)
(0.0002504953093 4.667176981e-05 -1.961501398e-05)
(0.0002599311137 6.584614776e-05 -5.980937272e-05)
(0.0002498837721 3.147199683e-05 -8.390540811e-05)
(0.0002558981522 9.66287071e-06 -3.805984526e-05)
(0.0002724760333 2.590876305e-05 -8.673842989e-06)
(0.0001128090274 -1.896567119e-05 5.879155702e-05)
(0.0001228564515 -3.089602374e-05 1.64789775e-05)
(0.0001539376278 8.102934614e-06 -4.965054904e-06)
(0.0001777258819 3.421374846e-05 -7.927479751e-06)
(0.0001841608061 1.59834616e-05 -5.143754048e-05)
(0.0001814798252 4.118659671e-06 -3.002630234e-05)
(0.0001460475651 4.450141697e-05 -4.485468257e-05)
(0.0001335446036 3.507661369e-05 -5.429320278e-05)
(0.000186422877 5.20449742e-05 -1.430528231e-05)
(0.0002404244437 9.537514092e-06 -2.310020054e-05)
(0.0001979861522 2.641569946e-05 -7.939613204e-05)
(0.0002355610832 3.026915744e-05 -3.937453357e-05)
(0.0002546049083 4.465894751e-05 -1.376059977e-05)
(0.0002605496949 2.824713031e-05 2.034300338e-06)
(0.0002731971197 2.578408411e-05 5.915241877e-06)
(0.0002457306773 6.211728849e-05 -4.852295126e-05)
(0.0002531636719 3.914662913e-05 -8.635025077e-05)
(0.0002743880426 4.392797257e-05 -6.440068346e-05)
(0.0002781522715 2.057172285e-05 -5.816871984e-06)
(0.000231289325 3.474915912e-05 -5.006015819e-05)
(0.0001040318935 -1.345463017e-05 1.949345627e-05)
(0.0001327318575 -1.560356442e-05 -1.452552001e-05)
(0.0001267300831 -3.486826049e-05 -1.016813718e-06)
(0.0001699726989 6.166374078e-06 1.931967287e-06)
(0.0002044469358 1.084305441e-05 -1.443644849e-05)
(0.0001980065799 4.958887835e-05 -9.649989652e-06)
(0.0001644412905 4.327925976e-05 -9.687553147e-06)
(0.0001843768153 1.023434593e-05 3.469998425e-05)
(0.0002090030899 -1.284653659e-05 9.700430774e-06)
(0.0002224856314 5.098350804e-05 -4.714843879e-06)
(0.0002164931915 2.73254053e-05 -2.579807835e-05)
(0.0002224314242 1.988297847e-05 -7.931715343e-06)
(0.0002293890626 7.421432755e-06 -4.188725586e-05)
(0.0002431638393 4.793274384e-05 -1.930189051e-05)
(0.0002203713349 3.460932599e-05 -3.080292527e-05)
(0.0002294143761 4.884277799e-05 -2.886890067e-05)
(0.0002529398417 3.037947526e-05 -6.701987261e-05)
(0.0002760909068 1.844824248e-05 -3.726631769e-05)
(0.0002887922649 2.881482975e-05 -5.629160976e-05)
(0.0002679255126 7.349723232e-05 -2.960002118e-05)
(0.000157330662 -3.494344102e-05 4.157891984e-06)
(0.0001989707329 -3.801099435e-05 3.824719881e-05)
(0.0001697000873 -1.057755278e-05 -3.907976068e-07)
(0.0001193807918 -5.124273902e-06 -6.795333407e-06)
(0.0001346719944 -1.675739021e-05 2.315804832e-05)
(0.0001451113812 3.390199583e-05 3.458813869e-05)
(0.0002042676694 5.73733012e-05 2.613672723e-05)
(0.0001871509903 1.321277744e-05 -2.662017115e-05)
(0.0001601754883 -2.640561553e-05 5.038908235e-06)
(0.0001913300045 4.118623969e-05 -1.356282516e-05)
(0.0002156572299 1.538177126e-05 -5.454367782e-05)
(0.0002048925106 5.058222069e-06 3.443881146e-05)
(0.0002465943399 9.492466048e-06 1.721527667e-05)
(0.0002178809591 5.878866367e-05 -2.75142787e-05)
(0.0002405814629 1.912451773e-05 -6.293104702e-05)
(0.0002731279324 1.776661487e-05 -1.855430637e-05)
(0.0002673037757 2.692611619e-05 2.104457397e-05)
(0.0002956435525 4.083025126e-06 -8.334493399e-06)
(0.000294159886 4.712515498e-05 -3.26314638e-05)
(0.0002794027059 7.143312783e-05 2.589386083e-06)
(0.0001071799776 -4.197700813e-05 -5.057497953e-05)
(0.0001305932597 1.000031628e-06 -3.636122495e-05)
(0.0001296608152 -7.30653743e-06 -1.984717078e-05)
(0.0001410254462 7.518594725e-06 -1.618727577e-05)
(0.0001348798564 -3.422645386e-05 1.043603284e-05)
(0.0001364822157 -1.187755343e-05 -1.939361837e-05)
(0.0001502770731 3.933070846e-05 -2.0184253e-05)
(0.0001429313075 3.239080352e-05 -3.30175982e-05)
(0.0001687907672 -2.151064292e-05 -5.207382874e-05)
(0.0001724653226 1.606401258e-05 -6.859939961e-05)
(0.0001773917184 -5.165749375e-06 -5.412593521e-05)
(0.0002045625083 4.42086796e-06 -5.26771451e-05)
(0.0001994794708 -2.056953356e-06 -5.281754434e-05)
(0.0002249702416 2.44075063e-05 -6.69069911e-05)
(0.0002553513249 6.475317046e-06 -9.694412703e-05)
(0.0002461701477 2.72730977e-05 -2.588717106e-05)
(0.0002859672003 -1.495218429e-05 2.063370602e-05)
(0.0003053670043 -2.322960221e-06 -8.149176219e-05)
(0.0002929665901 6.45848009e-05 -5.874925723e-05)
(0.0003298958857 7.465136377e-05 1.837101832e-05)
(9.571844659e-05 -5.397874018e-06 -9.003573203e-06)
(0.0001195780697 -4.472422441e-05 -3.3106442e-05)
(0.0001267778721 -3.737050828e-06 -7.371885276e-05)
(0.0001692492672 -4.781684821e-06 -6.017398396e-05)
(0.0001409644838 1.077274587e-05 -6.56473411e-05)
(0.0001250922103 -1.322314118e-05 -4.285632441e-05)
(0.0001583581457 6.0963361e-07 -1.803245948e-06)
(0.000203685749 3.42263567e-05 -3.103654675e-06)
(0.0001768086358 -2.677556626e-05 3.662393569e-06)
(0.0001784215254 -7.790280794e-06 -4.110492483e-05)
(0.0002123000768 -1.554970657e-05 -4.174682334e-05)
(0.000210118198 1.051641964e-07 -6.076744848e-05)
(0.0001978723567 5.842068933e-06 -1.53240963e-05)
(0.0002365238546 3.576649104e-06 -7.051167836e-05)
(0.0002267369729 1.476711435e-05 -3.407285953e-05)
(0.0002564730437 -1.91238233e-05 -3.044469674e-05)
(0.0002931404616 -2.498013064e-05 -3.717337733e-05)
(0.000279850613 -1.827949146e-05 -2.349056782e-05)
(0.0003011619682 6.226567078e-05 -8.352188822e-08)
(0.0003218854116 5.150032977e-05 1.972964791e-06)
(7.239940912e-05 -1.875721912e-06 -1.917202103e-05)
(0.0001016122803 -2.093180039e-05 1.530937522e-05)
(0.0001334579238 -3.478112232e-05 -3.015269889e-05)
(0.0001756434738 -3.610835302e-05 -1.271062464e-05)
(0.0002005997205 2.47971178e-05 8.478749188e-07)
(0.0001634977089 -8.84550167e-06 -1.38146404e-05)
(0.0001726286166 -3.471196999e-05 -6.354396281e-06)
(0.0001956404795 1.530428006e-05 -3.653471739e-05)
(0.0002188018713 -2.444312856e-05 -2.274641634e-05)
(0.0002568647246 5.944699058e-06 -5.648800199e-06)
(0.0001860804876 -2.254004955e-06 -6.273493286e-05)
(0.0001808651032 -5.87433586e-07 -1.256620417e-05)
(0.0002087274815 -1.336503037e-06 -5.417245107e-05)
(0.0002127681524 -1.659367935e-05 -2.443929795e-05)
(0.000249317792 -5.370102495e-06 -8.5977853e-05)
(0.0002489601253 -4.244192321e-05 -3.029872263e-05)
(0.0002632317361 -1.124997122e-05 -5.149845345e-05)
(0.0002477215718 -3.238095747e-06 7.864815662e-05)
(0.0002646870638 2.050534911e-05 1.17639014e-05)
(0.0002968338669 2.91070858e-05 3.31275222e-05)
(0.0001016296021 -9.631764072e-06 -1.483041821e-06)
(0.0001476918283 -5.84904424e-05 -4.451937246e-06)
(0.0001756462795 -7.01804171e-05 -7.502403863e-05)
(0.0001793476898 -4.989795374e-05 -8.095946456e-05)
(0.0001918409682 -1.903731921e-05 -4.311515232e-05)
(0.0002416597898 4.045215225e-05 -3.244869822e-05)
(0.0001933898711 -3.886773213e-05 -5.469341779e-05)
(0.0002158317855 -3.096057836e-05 -7.601214203e-05)
(0.0002115936407 -2.710074706e-05 9.556774084e-06)
(0.0001832598078 1.75335723e-05 -3.186871552e-05)
(0.000207172372 4.00465742e-05 -6.664607607e-05)
(0.0001978583238 -1.463331644e-07 -4.766486949e-05)
(0.0001789832515 -5.221731301e-06 3.254912391e-05)
(0.0002043468401 -4.115382808e-05 2.395442542e-06)
(0.0002294389645 -2.291999464e-05 -5.913299421e-05)
(0.0002449637733 -2.750934947e-05 -3.394549886e-06)
(0.0002282511604 -3.061502192e-05 4.509404078e-06)
(0.0002526885983 -1.604182878e-05 1.392514275e-05)
(0.0002807450934 -1.463320664e-06 7.544374706e-05)
(0.0002928912037 4.670591652e-06 6.961546933e-05)
(0.0001481247008 6.28971354e-05 5.328259938e-07)
(0.0001599129801 1.02015868e-05 1.637833287e-05)
(0.0002264820071 3.976904152e-05 1.458963579e-05)
(0.000251491161 8.010853265e-05 -1.711347924e-05)
(0.0002381352531 6.497641445e-05 4.593527465e-05)
(0.0002424989186 6.730752404e-05 -7.283924475e-06)
(0.0002230285793 7.373556487e-05 -2.622427184e-05)
(0.0002441502108 6.38672832e-05 -2.401266868e-05)
(0.0002286466681 7.268810762e-05 3.592583947e-05)
(0.0002461990467 5.967732698e-05 2.892435173e-05)
(0.0002917809906 9.677582254e-05 2.474608717e-05)
(0.0002847560688 4.393412553e-05 5.997979178e-05)
(0.0002425805656 1.998873207e-05 3.766008937e-05)
(0.0002386252386 7.340329184e-05 6.572552292e-05)
(0.0002957166736 5.629769446e-05 5.915920063e-05)
(0.0002969856417 0.0001073883123 9.940955539e-06)
(0.0003050081999 6.583454712e-05 -9.39215415e-06)
(0.0002970926217 9.87829029e-05 6.837125176e-06)
(0.0003067976081 5.562687125e-05 -2.268532127e-05)
(0.0003096188644 8.787435997e-05 2.085338748e-05)
(0.0002497871894 8.435533516e-05 -6.620693575e-06)
(0.000273895865 3.283898663e-05 -1.431537212e-05)
(0.0002773724985 8.835546038e-05 2.432528198e-05)
(0.00030136208 3.04203498e-05 6.16059179e-05)
(0.0003096934443 6.128666117e-05 6.358124061e-05)
(0.0002967202685 9.840312535e-05 3.314759118e-05)
(0.0003132518887 8.575885601e-05 3.581869023e-06)
(0.0003152797717 9.529670912e-05 -5.448801325e-05)
(0.0003571686307 6.802887239e-05 -4.031588553e-05)
(0.0003446586476 0.0001099778103 -4.914774323e-05)
(0.0002893677242 8.398305274e-05 -2.862485956e-05)
(0.0002806063417 2.173363262e-05 2.58650727e-05)
(0.0002882307707 9.725584141e-05 1.658695587e-05)
(0.0002763034712 2.946033231e-05 2.389601801e-05)
(0.0002727209446 4.802356423e-05 7.16140618e-05)
(0.0003050683773 8.112472669e-05 6.165455934e-05)
(0.0003087535364 9.67455593e-05 -2.76210283e-05)
(0.0003501188975 6.740608994e-05 -5.355380832e-05)
(0.000351665007 8.291653308e-05 -3.667263273e-05)
(0.0003614617878 7.774528957e-05 -5.408820746e-05)
(0.0003165652807 7.685588914e-05 -1.058454373e-05)
(0.0002935640482 4.635939164e-05 -3.021970592e-05)
(0.0002755280047 0.0001074946923 7.222556718e-06)
(0.0002932634161 9.236179484e-06 3.501832145e-05)
(0.0003004929028 6.066918236e-05 3.904833769e-05)
(0.0003099727206 8.602129124e-05 -1.493113214e-05)
(0.0003113212429 7.115690891e-05 -1.724639437e-06)
(0.0003398329313 3.802929036e-05 -2.61053708e-05)
(0.0003415563328 9.620470803e-05 -4.613724273e-05)
(0.0003493152319 7.029864055e-05 -5.551442092e-05)
(0.0002438897053 3.416289014e-05 1.477795957e-05)
(0.0002869676879 5.170015016e-05 -1.853598526e-05)
(0.0003113649579 9.691527086e-05 6.648323887e-05)
(0.0003435216069 3.66763558e-05 7.047319066e-05)
(0.0003505896673 5.333370545e-05 3.71201179e-05)
(0.0003224209933 0.0001026320345 2.64897274e-05)
(0.0003374366017 6.864617749e-05 1.638691469e-05)
(0.0003253371697 3.988021811e-05 -6.743914095e-05)
(0.0003523464365 6.314537856e-05 -1.827343272e-05)
(0.0003833192465 7.022400369e-05 8.848540719e-07)
(0.0002807083974 5.279115545e-05 6.599657885e-05)
(0.0002627527461 1.695009767e-05 4.008242775e-05)
(0.0003178520947 5.095433997e-05 9.608509863e-06)
(0.0003679143322 4.450416943e-05 5.136981487e-05)
(0.0002995345349 6.225245271e-05 2.838738791e-05)
(0.0003248934949 8.13549882e-05 3.510659814e-05)
(0.0003367633149 7.439736311e-05 -4.4327243e-05)
(0.0003230807899 4.482387916e-05 -8.805216719e-06)
(0.0003617136937 4.683255871e-05 -4.386827801e-05)
(0.0003708357017 5.260694276e-05 -2.153974261e-05)
(0.0002523813406 4.353249161e-05 4.961730561e-07)
(0.0002550192438 2.683409374e-06 3.352204727e-05)
(0.0002808577556 -1.78791344e-05 -1.088557842e-05)
(0.0002303778946 5.595831571e-05 2.728359363e-05)
(0.0002607825694 5.308190225e-05 3.297269513e-05)
(0.0002985226921 6.498498821e-05 5.37453973e-05)
(0.0003349783558 5.928488994e-05 1.126075312e-05)
(0.000347685211 3.698822651e-05 9.379888232e-06)
(0.0003304695969 2.887313457e-05 -4.283315242e-05)
(0.0003081495505 6.250889907e-05 -1.219047821e-05)
(0.0002635039818 5.726041853e-05 6.357919489e-05)
(0.0002763130148 2.817749678e-06 6.081254916e-05)
(0.0002381025965 8.912374191e-06 -3.161541035e-05)
(0.0002702112053 3.304134101e-05 5.312085826e-05)
(0.0002944020202 4.327245494e-05 2.202525105e-05)
(0.0002694327721 3.265954619e-05 1.799299011e-05)
(0.0003428721915 1.879572652e-05 -4.407405701e-05)
(0.0003552392737 5.469817692e-05 -2.46205826e-05)
(0.0003815120572 3.245323184e-05 -3.484628636e-05)
(0.0003679501689 8.860513774e-05 -5.634071079e-05)
(0.0002947873473 8.215076732e-05 2.94845196e-05)
(0.0002810250905 1.492583774e-05 -8.433289754e-06)
(0.0003051093327 -1.615834634e-06 -4.237960607e-06)
(0.0002931961552 4.770129076e-05 -2.094329327e-05)
(0.0002874904335 2.961602333e-05 1.015097612e-05)
(0.0003080853996 1.716843408e-05 -2.654888286e-05)
(0.0003404043169 -1.725087761e-05 -4.528021258e-05)
(0.0003379951602 5.765034538e-05 -3.807374738e-05)
(0.0003611421569 1.831415485e-05 9.653179899e-06)
(0.0003743340055 6.618957972e-05 -1.885792317e-05)
(0.0002618532939 6.340272367e-05 -3.549786662e-07)
(0.000275428579 2.644422955e-06 -1.965276873e-05)
(0.0002723524855 2.207594172e-05 -2.71824989e-05)
(0.0002573637758 4.087455661e-05 -9.631935442e-06)
(0.000267267814 1.063002908e-05 4.644096409e-05)
(0.0003458951908 3.87647391e-06 7.294975663e-05)
(0.0002823653181 -6.10153931e-06 -2.121749844e-05)
(0.0003024727058 -3.846293835e-06 9.025018073e-07)
(0.0003362711852 1.357032497e-05 3.794981368e-05)
(0.00037269037 5.044751791e-05 -1.608213471e-05)
(0.0002793054587 5.16414307e-05 -1.845396931e-06)
(0.0002691496542 4.713072658e-06 1.483640399e-05)
(0.0002583677885 1.055925423e-05 -5.509529805e-05)
(0.0003141565592 4.222254443e-05 -1.812834643e-05)
(0.0003387783196 -1.292189339e-05 -3.817166244e-05)
(0.0003060579253 6.502984358e-06 -7.251623611e-06)
(0.0003083048409 1.018391107e-05 7.725125364e-06)
(0.0003350646714 -1.108193309e-05 -6.79238366e-06)
(0.0003379403666 -1.639308651e-05 6.344031395e-06)
(0.0003147779193 4.788576049e-05 -2.424471413e-05)
(0.0003093778517 6.514054596e-05 1.37430666e-05)
(0.0002979183483 2.321750462e-05 1.136130203e-05)
(0.0002933788538 -2.220315438e-05 -4.327588848e-06)
(0.0003260311821 3.623806254e-05 5.838251928e-05)
(0.0003225892405 2.215925709e-05 4.646895066e-06)
(0.0002612161412 -4.349053754e-06 -4.062271269e-05)
(0.0003181001596 -6.351580486e-06 -3.565419068e-05)
(0.0003453463669 -1.235324414e-05 -6.903605243e-05)
(0.0003133948924 3.869854046e-06 -5.335190893e-05)
(0.0003138485985 4.685224875e-05 4.827912963e-05)
(0.0002466199163 5.007306644e-05 1.604809358e-05)
(0.0002897408685 2.738470584e-05 1.621421035e-05)
(0.0002590903453 -1.750236069e-05 -4.563662382e-06)
(0.0002536032057 -1.740721399e-05 2.612766749e-05)
(0.0002600119279 2.473453717e-05 5.78950816e-05)
(0.0002807866129 -6.06136015e-06 5.437541847e-06)
(0.0002794839813 -2.38634734e-05 2.12266166e-05)
(0.0002635160868 -9.299010542e-06 -4.500438635e-05)
(0.0002625518838 4.879369675e-06 -1.265316467e-05)
(0.0002767956442 3.352729923e-05 4.470557138e-05)
(0.0002711219199 4.049132201e-05 1.339238563e-06)