/*--------------------------------*- C++ -*----------------------------------*\
  =========                 |
  \\      /  F ield         | OpenFOAM: The Open Source CFD Toolbox
   \\    /   O peration     | Website:  https://openfoam.org
    \\  /    A nd           | Version:  7
     \\/     M anipulation  |
\*---------------------------------------------------------------------------*/
FoamFile
{
    version     2.0;
    format      ascii;
    class       volScalarField;
    location    "0.004";
    object      rhoNMean;
}
// * * * * * * * * * * * * * * * * * * * * * * * * * * * * * * * * * * * * * //

dimensions      [0 -3 0 0 0 0 0];

internalField   nonuniform List<scalar> 
654
(
9.124224417e+19
8.872205664e+19
8.958641848e+19
8.419196748e+19
8.337967562e+19
8.800349077e+19
8.817011474e+19
8.937813852e+19
8.582696517e+19
8.492094734e+19
8.62070761e+19
8.283294073e+19
8.227579183e+19
7.855278751e+19
8.016695722e+19
7.75270087e+19
7.900579643e+19
8.345778061e+19
7.923490439e+19
7.237207965e+19
9.378846671e+19
8.84044297e+19
8.613938512e+19
8.693605597e+19
8.390037553e+19
8.586341417e+19
8.435859144e+19
8.498343133e+19
8.24163808e+19
8.385871954e+19
8.490532634e+19
8.156763996e+19
8.192171589e+19
8.020861321e+19
8.124480602e+19
7.887562146e+19
7.939632136e+19
7.436115329e+19
7.230959567e+19
7.017472606e+19
8.919589355e+19
8.828987572e+19
8.699853996e+19
8.641014907e+19
8.538957725e+19
8.449918042e+19
8.239034581e+19
8.432734945e+19
8.285897572e+19
8.442107543e+19
8.168219394e+19
8.193733689e+19
8.207271887e+19
7.977643229e+19
7.742807572e+19
7.306981753e+19
7.301774754e+19
6.826375741e+19
6.543114993e+19
6.645172175e+19
9.015918837e+19
8.861270966e+19
8.556140822e+19
8.884702462e+19
8.214040985e+19
8.280169873e+19
8.077096911e+19
7.959418732e+19
8.29683227e+19
7.931821637e+19
8.099487006e+19
8.177071292e+19
8.588944916e+19
7.955773833e+19
7.489226719e+19
7.673033785e+19
7.193469174e+19
7.48401972e+19
7.0481939e+19
6.843558838e+19
8.886264561e+19
8.815449374e+19
8.604565913e+19
8.277566374e+19
8.586862117e+19
8.46241484e+19
8.423883047e+19
8.51188133e+19
8.238513881e+19
7.97243623e+19
7.870899749e+19
7.875586048e+19
8.183319691e+19
8.335884763e+19
7.64856089e+19
7.406435434e+19
7.306461053e+19
7.507971916e+19
6.952385118e+19
6.445223412e+19
8.769107083e+19
8.438983344e+19
8.40722065e+19
8.265069576e+19
8.524898828e+19
7.930259538e+19
8.043772117e+19
8.003678224e+19
8.043772117e+19
8.113025204e+19
8.18956809e+19
8.112504504e+19
7.713127678e+19
7.91932484e+19
7.32051995e+19
7.521510113e+19
7.305940353e+19
7.070583996e+19
6.719632261e+19
6.574877688e+19
8.779000381e+19
8.797745578e+19
8.737865089e+19
8.625914609e+19
8.205189087e+19
8.290583871e+19
8.421800247e+19
8.142184399e+19
8.222892884e+19
7.770925367e+19
8.230182682e+19
8.043251417e+19
7.724062376e+19
7.626691494e+19
7.541296709e+19
7.167434178e+19
7.349158445e+19
6.926870823e+19
6.789926748e+19
6.772743651e+19
8.927399854e+19
8.626435309e+19
8.466580439e+19
8.497822433e+19
8.265590276e+19
8.553016623e+19
7.962542932e+19
8.164574494e+19
8.277045674e+19
8.118232203e+19
7.924531839e+19
7.912555741e+19
7.790191263e+19
7.241373565e+19
7.477771321e+19
7.32208205e+19
7.277301858e+19
7.112760688e+19
7.110677889e+19
6.862304035e+19
8.659760103e+19
8.820656373e+19
8.652991004e+19
8.520733229e+19
8.308287668e+19
8.692564197e+19
8.052624015e+19
7.690737582e+19
7.814143459e+19
7.96983273e+19
7.91932484e+19
7.992743526e+19
7.824036757e+19
7.205965971e+19
7.471002222e+19
7.492350918e+19
7.115884888e+19
7.0476732e+19
6.591540085e+19
6.630071877e+19
8.509798531e+19
8.763900084e+19
8.170302193e+19
8.338488262e+19
8.231224082e+19
8.169781493e+19
8.152077697e+19
8.152598397e+19
8.260903977e+19
8.067203612e+19
8.35046436e+19
8.102090506e+19
7.601697898e+19
7.445487927e+19
7.364779442e+19
7.315833651e+19
6.998727409e+19
7.044028301e+19
6.827937841e+19
6.775867851e+19
8.799307677e+19
8.505112232e+19
8.176550592e+19
8.448355942e+19
8.452000841e+19
8.231224082e+19
7.960980832e+19
8.159367495e+19
7.781860065e+19
7.624087994e+19
7.734997074e+19
7.474647122e+19
7.632419193e+19
7.198676173e+19
7.294484955e+19
7.0492353e+19
6.944574619e+19
7.216379969e+19
6.99352041e+19
6.77742995e+19
8.611335012e+19
8.286938972e+19
8.531667927e+19
8.545206124e+19
8.054706815e+19
8.215082385e+19
8.598317514e+19
7.945880535e+19
7.687092683e+19
7.5907632e+19
7.75322157e+19
7.64908159e+19
7.599094399e+19
7.26844996e+19
6.896670228e+19
7.302295453e+19
6.45199251e+19
6.924267323e+19
6.974775214e+19
6.820127342e+19
8.233827582e+19
8.309849768e+19
8.575927419e+19
7.986495127e+19
7.927656038e+19
8.282773373e+19
8.130729001e+19
7.740204073e+19
8.006802424e+19
7.707399979e+19
7.888082845e+19
7.477250621e+19
7.217421369e+19
7.064856297e+19
7.145044082e+19
7.220024869e+19
7.081518694e+19
6.707135463e+19
6.972692414e+19
6.921663824e+19
8.423883047e+19
8.365564657e+19
7.877148147e+19
8.153119097e+19
7.941194236e+19
8.487929135e+19
8.084386709e+19
8.377020055e+19
7.850592452e+19
8.020861321e+19
7.799043162e+19
7.798001762e+19
7.32051995e+19
6.849807237e+19
7.286153756e+19
7.435594629e+19
7.084642894e+19
6.649337774e+19
6.78003345e+19
7.136192184e+19
8.216644485e+19
8.24215878e+19
8.410344849e+19
8.100528406e+19
8.141663699e+19
8.333281263e+19
7.990140027e+19
7.931821637e+19
7.626170794e+19
7.688654782e+19
7.939111436e+19
7.379879739e+19
7.217421369e+19
6.990396211e+19
7.116926288e+19
7.120050487e+19
7.285112357e+19
7.120571187e+19
7.204403872e+19
6.805547745e+19
8.603003814e+19
8.62070761e+19
8.102611206e+19
7.993784926e+19
8.45981134e+19
7.952649634e+19
8.182798991e+19
8.177071292e+19
7.909952241e+19
7.751138771e+19
7.557438406e+19
7.715210477e+19
7.274177659e+19
7.258556662e+19
6.860221235e+19
6.914374025e+19
7.424659931e+19
7.453819126e+19
7.302295453e+19
7.185658675e+19
8.465018339e+19
8.256738377e+19
8.417634648e+19
8.18956809e+19
7.949525434e+19
7.601697898e+19
7.779256566e+19
7.832888656e+19
7.70219298e+19
7.299691954e+19
7.455901925e+19
7.877668847e+19
7.48349902e+19
7.685530583e+19
7.129423085e+19
7.216900669e+19
7.349679145e+19
7.526717112e+19
7.100784591e+19
6.984147812e+19
8.240075981e+19
8.450959442e+19
8.235910381e+19
8.236951781e+19
8.211437486e+19
8.067203612e+19
7.629294993e+19
7.901621043e+19
7.81153996e+19
7.562124706e+19
7.549627908e+19
7.686571983e+19
7.477771321e+19
7.607425597e+19
7.479854121e+19
7.48297832e+19
7.464233124e+19
7.248142663e+19
7.006017208e+19
7.019555406e+19
8.258300477e+19
8.544164724e+19
8.163012395e+19
8.528023027e+19
8.336405463e+19
8.056789614e+19
7.844864753e+19
8.066162213e+19
7.682927083e+19
7.827160957e+19
7.667306086e+19
7.53869321e+19
7.469960823e+19
7.597532299e+19
7.479333421e+19
7.515261714e+19
7.26532576e+19
6.825855041e+19
6.976337314e+19
7.012786307e+19
8.419196748e+19
8.507715731e+19
7.855799451e+19
7.991181426e+19
8.094280007e+19
8.158326096e+19
7.894331244e+19
8.199461388e+19
7.860485751e+19
7.688654782e+19
7.371027841e+19
7.426742731e+19
7.424659931e+19
7.125778186e+19
7.235645866e+19
7.034655703e+19
7.354365444e+19
7.338223747e+19
6.848765837e+19
7.10547089e+19
8.395765252e+19
8.453042241e+19
8.370771656e+19
8.571241119e+19
8.181236891e+19
8.183319691e+19
8.328074264e+19
8.015133622e+19
7.778215166e+19
7.293443555e+19
7.197114073e+19
7.606384197e+19
7.799563862e+19
7.183575875e+19
7.380400439e+19
7.053400899e+19
7.488706019e+19
7.242935664e+19
6.837831139e+19
7.078915195e+19
8.814928675e+19
8.557182222e+19
8.384830554e+19
8.233827582e+19
8.304122069e+19
8.051061915e+19
7.70063088e+19
7.803729461e+19
7.877148147e+19
7.460067524e+19
7.398624936e+19
7.432991129e+19
7.722500276e+19
7.689175482e+19
7.572018004e+19
7.091411992e+19
7.204403872e+19
7.049756e+19
7.183055175e+19
7.26428436e+19
6.482188578e+19
6.347347221e+19
6.240306468e+19
6.108833675e+19
5.887947653e+19
5.874935836e+19
5.876450263e+19
5.6743889e+19
5.850249295e+19
5.951835143e+19
6.471215105e+19
6.109532156e+19
6.370632933e+19
6.21659583e+19
6.053411878e+19
6.100000147e+19
5.676482048e+19
5.686462072e+19
5.845274593e+19
5.83714122e+19
6.368273454e+19
6.266847872e+19
6.18944736e+19
6.109367154e+19
6.122176234e+19
6.299636511e+19
5.960360633e+19
6.047559548e+19
6.013861709e+19
6.280884214e+19
6.473827835e+19
6.415219222e+19
6.242955383e+19
6.178185554e+19
6.22747164e+19
6.166004579e+19
5.927123413e+19
6.121096116e+19
6.320082241e+19
6.147816992e+19
6.407986983e+19
6.526234658e+19
6.395002922e+19
6.271543862e+19
5.911048184e+19
6.116771766e+19
6.227348179e+19
6.443230186e+19
6.411837856e+19
6.334890581e+19
6.633727045e+19
6.871908325e+19
6.505727432e+19
6.30408589e+19
6.133457877e+19
6.203334953e+19
6.394624037e+19
6.397681408e+19
5.925422562e+19
6.085459136e+19
6.795193895e+19
6.363131405e+19
6.108390663e+19
6.276878622e+19
6.313427089e+19
6.256895938e+19
6.078053105e+19
6.111218069e+19
5.934819225e+19
5.902839681e+19
6.946209816e+19
6.609890846e+19
6.545461113e+19
6.21872973e+19
6.195775571e+19
6.087015664e+19
6.191386591e+19
6.32633997e+19
6.04370992e+19
5.793713424e+19
6.950390187e+19
6.890849348e+19
6.487714831e+19
6.254472626e+19
6.265614375e+19
6.248780634e+19
6.342316279e+19
6.085974173e+19
6.087929491e+19
6.314846978e+19
7.15313821e+19
6.674606008e+19
6.265206243e+19
6.393176386e+19
6.304294319e+19
6.387822771e+19
6.276386706e+19
6.037681501e+19
6.022705623e+19
6.287008647e+19
7.018321224e+19
6.428372706e+19
6.338316205e+19
6.730866694e+19
6.664769946e+19
6.347787289e+19
6.264944379e+19
6.02615711e+19
6.118330446e+19
5.903953214e+19
6.748164715e+19
6.559381452e+19
6.562414149e+19
6.178185554e+19
6.36177702e+19
6.468434746e+19
6.34558554e+19
6.032193736e+19
6.448871774e+19
6.040917828e+19
6.739803972e+19
6.723536997e+19
6.562943954e+19
6.391042482e+19
6.483726274e+19
6.442465774e+19
6.271482841e+19
6.478900855e+19
6.347166701e+19
6.169530891e+19
7.038177965e+19
6.631462522e+19
6.489304134e+19
6.383573796e+19
6.602989478e+19
6.322359337e+19
6.589143504e+19
6.725852061e+19
6.385858826e+19
6.402816058e+19
6.665079867e+19
6.599368069e+19
6.544401544e+19
6.746337521e+19
6.499305773e+19
6.275290643e+19
6.585329442e+19
6.777986243e+19
6.350483214e+19
6.233559052e+19
6.807735e+19
6.66460937e+19
6.602147867e+19
6.689789065e+19
6.677663267e+19
6.467893753e+19
6.662156469e+19
6.763717858e+19
6.372592955e+19
6.250818817e+19
6.951435271e+19
7.041851363e+19
6.962929565e+19
6.46839648e+19
6.554639543e+19
6.321277297e+19
6.853406728e+19
6.947559375e+19
6.741273677e+19
6.415621736e+19
6.789968421e+19
7.006073922e+19
6.645060239e+19
6.939455787e+19
6.527778423e+19
6.60639482e+19
6.645265374e+19
6.775791074e+19
6.763936208e+19
6.698459177e+19
7.133804025e+19
6.75352695e+19
6.767969702e+19
7.060554886e+19
6.951109011e+19
6.916940281e+19
6.99343897e+19
6.638595984e+19
6.85569177e+19
6.568732602e+19
7.119695224e+19
6.87611746e+19
6.720289289e+19
6.860501339e+19
7.162237062e+19
7.113330578e+19
6.542829384e+19
6.839998376e+19
6.941367238e+19
6.788655369e+19
7.071620952e+19
6.640933047e+19
6.784392955e+19
6.751138805e+19
6.917801278e+19
6.702696374e+19
6.731355281e+19
7.301522708e+19
6.94634194e+19
6.850456464e+19
7.266530773e+19
7.067632199e+19
7.111798456e+19
7.051485794e+19
)
;

boundaryField
{
    flow
    {
        type            calculated;
        value           nonuniform List<scalar> 
42
(
9.124224417e+19
9.378846671e+19
8.919589355e+19
9.015918837e+19
8.886264561e+19
8.769107083e+19
8.779000381e+19
8.927399854e+19
8.659760103e+19
8.509798531e+19
8.799307677e+19
8.611335012e+19
8.233827582e+19
8.423883047e+19
8.216644485e+19
8.603003814e+19
8.465018339e+19
8.240075981e+19
8.258300477e+19
8.419196748e+19
8.395765252e+19
8.814928675e+19
9.124224417e+19
8.872205664e+19
8.958641848e+19
8.419196748e+19
8.337967562e+19
8.800349077e+19
8.817011474e+19
8.937813852e+19
8.582696517e+19
8.492094734e+19
8.62070761e+19
8.283294073e+19
8.227579183e+19
7.855278751e+19
8.016695722e+19
7.75270087e+19
7.900579643e+19
8.345778061e+19
7.923490439e+19
7.237207965e+19
)
;
    }
    obstacle
    {
        type            calculated;
        value           nonuniform List<scalar> 10(25.82524455 26.41756911 26.21420229 25.49837389 23.4130458 25.30073912 22.83835817 21.37368624 23.42544074 23.38831019);
    }
    frontAndBack
    {
        type            empty;
    }
    procBoundary0to1
    {
        type            processor;
        value           nonuniform List<scalar> 
21
(
5.887777609e+19
5.69596775e+19
6.200169696e+19
6.353281078e+19
6.532191447e+19
6.30224396e+19
6.115481716e+19
5.909089816e+19
6.057714422e+19
6.069492216e+19
6.151936807e+19
6.406561619e+19
6.331408005e+19
6.696519761e+19
6.349355172e+19
6.450307686e+19
6.473302436e+19
6.626974712e+19
6.730170662e+19
7.045927785e+19
6.765504058e+19
)
;
    }
    procBoundary0to2
    {
        type            processor;
        value           nonuniform List<scalar> 
31
(
8.306725568e+19
8.362440458e+19
8.400972251e+19
8.012009423e+19
8.522295328e+19
8.169781493e+19
7.86204785e+19
7.75322157e+19
7.895372644e+19
7.642312491e+19
7.48454042e+19
7.465274523e+19
7.737079873e+19
7.511616815e+19
7.622005195e+19
7.136192184e+19
7.000289509e+19
7.147647582e+19
7.31843715e+19
7.229918167e+19
6.949497347e+19
6.778439169e+19
6.886643905e+19
6.964022736e+19
6.739615443e+19
6.925619957e+19
7.223681965e+19
7.403309264e+19
6.815650115e+19
6.949497347e+19
7.268610477e+19
)
;
    }
}


// ************************************************************************* //
