/*--------------------------------*- C++ -*----------------------------------*\
  =========                 |
  \\      /  F ield         | OpenFOAM: The Open Source CFD Toolbox
   \\    /   O peration     | Website:  https://openfoam.org
    \\  /    A nd           | Version:  7
     \\/     M anipulation  |
\*---------------------------------------------------------------------------*/
FoamFile
{
    version     2.0;
    format      ascii;
    class       volScalarField;
    location    "0.004";
    object      translationalT;
}
// * * * * * * * * * * * * * * * * * * * * * * * * * * * * * * * * * * * * * //

dimensions      [1 2 -2 0 0 0 0];

internalField   nonuniform List<scalar> 
654
(
290.7359581
294.6155257
317.4240216
323.1416849
333.6394441
316.3885212
314.2409608
311.1184694
326.9919637
335.2898821
332.6175957
359.8672287
348.3529334
370.6931631
368.8986809
370.1148292
369.0629694
364.8542842
391.1573894
425.5583342
297.8330465
312.1755951
315.0514771
319.1784144
326.1537999
326.6018739
346.4513045
338.5851238
345.1693451
356.3205454
360.8466641
360.9104169
384.7093211
380.5578553
396.4805142
400.9280991
399.2416442
423.7270154
448.874861
465.9885939
299.9164202
306.7080183
321.2025277
325.4039785
339.4396922
342.3170957
346.4812111
341.8530276
344.707554
357.5888391
372.7511809
362.6146776
372.5132253
390.5024571
406.7296786
432.4001571
422.9923968
449.791034
472.6770038
487.5333551
298.035489
309.4283045
326.712613
322.5028718
330.3328488
337.3812161
347.6480282
356.6693097
351.3248607
372.952195
379.8722995
375.0008521
363.7273141
406.3130395
427.4755705
432.3122076
440.1424732
463.0523184
477.1718425
494.3296053
287.9250619
298.4601597
323.6299404
334.458607
333.5061297
325.456447
334.7461413
343.855935
358.4545917
364.2980184
366.5492674
385.7598065
391.1605088
390.9285239
422.0706689
427.0917633
452.3104308
463.6646395
488.9148768
516.1570144
296.6962089
304.9014252
314.911374
329.1809918
326.1999305
339.5495547
346.5582213
360.2017941
362.6086296
366.3886225
373.2529843
388.9578675
395.5117082
414.292999
414.2543946
417.611624
427.8701421
455.6637375
500.9096115
501.4059006
312.2042314
315.8805013
325.1208499
327.8717776
343.9991299
341.9928477
339.5576291
357.5064128
358.5633455
391.6969893
378.2718603
376.3652892
396.1848228
404.5489908
416.1032683
427.5700513
432.8459087
460.2421067
480.222789
493.1118014
305.7664184
319.7790378
332.8199338
321.3073527
328.6314817
340.5404408
355.0712212
365.1963069
369.9430976
381.2142954
389.3473983
401.2396156
412.7912219
430.6410359
439.5644268
427.8047668
453.2500372
471.5686545
466.8072264
492.1388784
309.2259394
319.4182034
330.1289465
318.2894339
331.1424137
334.7948335
354.0336433
372.2765146
371.0047734
386.1711974
381.4444589
389.8220651
394.5097486
435.2916924
429.0264502
435.7650546
459.1030776
469.1982304
495.8568959
507.5544999
321.1423679
318.5072471
324.2166907
328.8500479
335.5791495
352.6308827
355.6639224
363.1267237
366.6963701
373.7619988
373.6415698
384.1638959
409.130823
432.149605
440.9518195
443.6639691
451.876107
456.6967637
478.4458219
483.5243942
310.3439399
325.7806416
332.7993423
331.8276429
332.5097695
351.6840675
348.0990034
362.0936295
371.3183471
380.8425052
379.3141807
406.7275989
414.863676
434.7451168
433.3102742
450.7526508
457.7016888
452.1632334
472.9875595
488.6261664
307.5053981
321.744909
316.1987873
324.9685697
343.9660736
342.1326511
349.1916069
368.4614525
386.8439299
391.8619896
381.2607571
400.4435423
417.0229581
431.4028068
447.3540697
448.5354175
480.0098181
464.6014197
465.4434918
495.961605
301.7888609
324.5350557
321.2665829
336.1900941
341.0972139
349.5994874
369.2224166
376.6608671
374.3585893
390.3877094
389.3709103
405.4431675
428.7682389
453.6198726
460.2523359
463.0304758
473.8241879
489.6928542
489.2235616
504.6063313
296.7335125
318.9230757
330.1226548
336.6512632
350.920335
340.7754414
353.8230258
360.6802023
375.3037638
376.5473046
392.2810554
404.0627884
416.7657275
450.9627314
452.9540721
445.4845644
474.3499723
480.8641646
485.2356883
482.632321
314.4499415
335.1324305
335.2557701
337.2117745
344.302224
343.1408048
358.8321416
365.7523062
377.7622089
384.8811064
382.9161433
411.8994407
420.9699282
415.9814119
421.0749881
440.327936
445.0882308
454.4190505
470.664006
495.4776476
305.3964843
312.7882436
339.9434809
352.136284
333.4136438
350.8628935
345.011081
365.8432417
366.7719614
382.0478332
386.6764965
401.56908
423.0578295
426.0606159
453.5311409
453.930515
429.4743019
436.4539512
464.7823759
486.0387063
310.7645411
320.8535177
330.0404098
340.4903257
342.2316622
360.8328917
365.0046193
376.3719487
385.2729522
405.5926156
406.7010219
408.7814433
415.3470078
423.3990176
420.1515668
436.1619922
451.5003593
454.1462397
479.1945177
497.4243751
306.1056896
318.5850481
332.1344982
346.1056157
349.9331317
347.9024964
360.2228798
375.0474886
376.1503339
399.2152989
395.4259495
416.3137968
411.0859832
418.5315755
425.5492559
427.4157985
443.5603167
453.7359348
472.5799809
478.1622033
308.7586507
320.6937884
326.6160145
325.963714
321.9840981
346.5751115
366.4882429
373.1074136
389.5998867
393.8869355
389.6961303
392.7810274
416.0390705
420.1473456
423.9563212
445.1578868
444.4025282
473.156654
480.1586092
494.5573911
297.5591048
315.1099385
328.1088434
338.6407044
336.8734042
346.3964975
364.1391746
358.7211638
374.5254808
384.8224793
396.0000353
406.9359757
403.8995032
430.5429223
451.0460785
459.2507464
449.9561461
444.4864277
470.7391929
473.3125121
305.2884937
322.9322142
326.0921672
328.1265964
347.9964441
344.164687
343.6973067
363.6595268
368.3333341
386.7638381
410.466963
411.0773319
416.0377342
439.9132488
459.9215806
472.752085
464.7366058
472.6524554
498.1715221
482.2257572
311.0609312
320.7119188
325.863477
332.4338555
330.0354617
349.639971
365.3675484
371.9846414
377.050218
398.9889009
419.6418945
404.9345433
417.3979773
418.0690498
436.7606952
446.5084685
452.7446259
465.4929514
470.1686744
472.9364905
510.6373158
538.7283475
570.3965217
584.8025826
596.967285
594.9045394
596.0481514
620.0221147
632.0020035
627.5672697
501.423
547.0097509
555.162557
590.3891075
604.0907064
629.8983103
641.3603092
669.9556738
668.5517169
673.6302798
519.8434186
540.3034859
584.1239623
600.84754
612.9638369
618.1094798
612.9366536
647.2533676
672.0738066
660.6886957
534.7778587
541.6728163
561.7646548
575.791671
592.2334198
618.3828734
660.6575581
666.5346863
654.2965924
686.3893396
510.6639171
532.1706963
556.250244
580.8777096
617.8526096
619.1347009
630.1816782
618.8101234
627.9040645
650.7605072
509.2844596
517.9499652
558.9055492
573.7639555
560.3591255
576.2703386
598.3503625
614.4563035
627.6279792
624.1878219
506.3979638
533.646665
541.1986585
559.9940857
584.3361013
599.7242683
610.701591
595.6231188
635.7651165
660.5474755
512.9700602
530.7491583
552.7593187
551.6543729
550.288502
575.57082
590.6711985
601.8583497
636.4399926
628.956676
493.8034724
499.7014162
524.6177418
558.0030999
574.6728939
589.1132495
598.9378924
594.0048359
631.2611616
615.2310642
489.4618582
521.7231531
563.7094651
558.9117522
560.9051353
561.4479027
590.4843502
606.7832519
620.695615
629.4217761
490.1186873
531.9798907
544.1313336
542.5271549
554.268496
561.9270416
608.7421647
619.7799799
610.5163451
616.3627912
502.9937068
531.6776897
535.3178225
572.241251
569.7403922
568.676885
597.3449048
605.9442328
590.92398
605.0488146
527.5045913
523.8411339
548.6574865
549.0322536
562.5833303
566.4423438
585.9286563
583.467466
604.3385755
631.8403112
509.2923884
516.9096077
527.9947503
533.7184401
538.2879402
541.986432
540.1197037
542.4245987
584.8729549
599.3538612
505.1342125
500.9466553
529.1849225
533.0195717
552.5845386
572.5763662
563.2577288
586.2015273
602.2127906
633.0820719
499.3442382
530.3498642
551.2765232
553.6016276
543.5713124
570.4629136
554.4610603
563.367057
564.0999694
603.6466077
510.0782035
507.5453447
491.7740052
534.3075087
542.224058
546.3446059
543.0178717
541.9222353
571.9402507
599.992058
491.1545198
508.1072501
529.0083555
528.353557
553.7204076
576.1381226
564.2438303
562.8203907
584.3541681
584.4367403
493.0258067
514.7215087
512.9751277
514.7688943
540.6544991
562.8472186
549.8278115
562.9250058
569.0456197
575.1740373
491.1499502
502.6929702
520.3030073
522.2060935
517.1122637
532.0765974
555.683855
554.1404662
545.428466
575.3518044
486.8935359
496.55607
512.0435657
519.1079968
510.6029483
516.7542176
528.5755234
515.9165414
542.8890157
551.3055945
476.2729713
489.7400975
506.5791215
508.2824824
)
;

boundaryField
{
    flow
    {
        type            calculated;
        value           nonuniform List<scalar> 
42
(
290.7359581
297.8330465
299.9164202
298.035489
287.9250619
296.6962089
312.2042314
305.7664184
309.2259394
321.1423679
310.3439399
307.5053981
301.7888609
296.7335125
314.4499415
305.3964843
310.7645411
306.1056896
308.7586507
297.5591048
305.2884937
311.0609312
290.7359581
294.6155257
317.4240216
323.1416849
333.6394441
316.3885212
314.2409608
311.1184694
326.9919637
335.2898821
332.6175957
359.8672287
348.3529334
370.6931631
368.8986809
370.1148292
369.0629694
364.8542842
391.1573894
425.5583342
)
;
    }
    obstacle
    {
        type            calculated;
        value           nonuniform List<scalar> 10(517.4868548 511.6501404 539.1180157 602.845401 581.9780675 567.0263742 580.8042859 576.9578851 608.4358013 615.6858898);
    }
    frontAndBack
    {
        type            empty;
    }
    procBoundary0to1
    {
        type            processor;
        value           nonuniform List<scalar> 
21
(
634.4399743
675.9853796
667.8665156
679.4920577
652.7848003
624.638606
651.1699172
645.6433607
626.1244472
669.9167467
624.6984556
602.7123583
608.9279638
585.3911426
626.2472561
589.2420341
616.8876537
606.7742392
577.7553728
557.6142993
554.7771351
)
;
    }
    procBoundary0to2
    {
        type            processor;
        value           nonuniform List<scalar> 
31
(
326.048581
322.9442384
330.4891272
346.3915358
331.4058715
334.457179
358.8412915
369.6301108
377.6503774
384.2138396
401.3735626
400.9060441
398.172415
426.3947877
433.383678
461.6776259
459.9302749
460.9502456
477.2297615
482.1190683
517.9659733
529.1601315
514.0010254
535.9993268
540.332334
550.8652305
475.3105846
466.1379317
494.2533647
517.9659733
503.0747459
)
;
    }
}


// ************************************************************************* //
