/*--------------------------------*- C++ -*----------------------------------*\
  =========                 |
  \\      /  F ield         | OpenFOAM: The Open Source CFD Toolbox
   \\    /   O peration     | Website:  https://openfoam.org
    \\  /    A nd           | Version:  7
     \\/     M anipulation  |
\*---------------------------------------------------------------------------*/
FoamFile
{
    version     2.0;
    format      ascii;
    class       volScalarField;
    location    "0.0175";
    object      internalE;
}
// * * * * * * * * * * * * * * * * * * * * * * * * * * * * * * * * * * * * * //

dimensions      [1 -1 -2 0 0 0 0];

internalField   nonuniform List<scalar> 
1000
(
0.356125
0.33577
0.372341
0.336571
0.353451
0.331122
0.369658
0.357737
0.350741
0.360511
0.352841
0.341841
0.342912
0.349084
0.338702
0.361248
0.348023
0.357989
0.35414
0.358881
0.360754
0.354804
0.342712
0.349051
0.364167
0.350681
0.353186
0.353072
0.355276
0.35927
0.348231
0.356289
0.328931
0.351959
0.346326
0.356891
0.346582
0.355089
0.366015
0.359696
0.336132
0.359713
0.34033
0.351578
0.345209
0.364389
0.374916
0.349843
0.361298
0.338718
0.356074
0.375492
0.344534
0.343393
0.360955
0.367884
0.369558
0.348828
0.381474
0.338782
0.360822
0.370123
0.368164
0.362996
0.373593
0.355016
0.355178
0.362398
0.333079
0.346629
0.341333
0.353061
0.366072
0.329878
0.345814
0.36095
0.325004
0.363254
0.368406
0.330493
0.367788
0.379773
0.339889
0.35932
0.379118
0.339241
0.354468
0.352173
0.373251
0.351463
0.36034
0.351435
0.346769
0.331267
0.368017
0.350786
0.365051
0.341434
0.350168
0.348923
0.349273
0.356785
0.34776
0.352886
0.360336
0.348631
0.367961
0.353435
0.352613
0.339927
0.369682
0.327
0.362568
0.369696
0.334077
0.326531
0.356881
0.360418
0.361606
0.344768
0.344687
0.347397
0.352968
0.35472
0.370507
0.345315
0.36024
0.351112
0.337228
0.338725
0.349172
0.342345
0.37173
0.338426
0.337028
0.338449
0.333861
0.360991
0.329684
0.375914
0.359744
0.358366
0.337681
0.353681
0.341363
0.35339
0.334905
0.353873
0.34867
0.347503
0.340645
0.330078
0.385988
0.334385
0.357533
0.349591
0.360456
0.359926
0.343573
0.3424
0.347413
0.369679
0.369156
0.350831
0.368394
0.346635
0.346756
0.323725
0.35555
0.36727
0.347462
0.34899
0.325073
0.337911
0.349547
0.33233
0.354475
0.351165
0.347173
0.33802
0.349623
0.351695
0.342076
0.343789
0.339074
0.359904
0.346001
0.341089
0.350289
0.332687
0.334533
0.326922
0.338128
0.339904
0.339166
0.341739
0.340104
0.323588
0.32859
0.309114
0.344292
0.354645
0.338588
0.343577
0.33048
0.362278
0.353406
0.324443
0.348359
0.324206
0.330408
0.352295
0.351901
0.34272
0.33443
0.351877
0.350899
0.326624
0.338694
0.340071
0.323288
0.332405
0.331206
0.326135
0.319541
0.354154
0.328502
0.308403
0.332065
0.342443
0.329554
0.333107
0.313107
0.327649
0.30336
0.341425
0.34082
0.345901
0.303242
0.338896
0.307484
0.300378
0.317668
0.304606
0.329656
0.322713
0.332487
0.324579
0.311515
0.296003
0.308024
0.325775
0.308804
0.322899
0.323554
0.323689
0.301312
0.323316
0.326272
0.302838
0.309346
0.327592
0.321975
0.328438
0.297941
0.298024
0.320762
0.306498
0.298457
0.326536
0.314003
0.296704
0.290027
0.276614
0.302643
0.305219
0.297155
0.288512
0.300849
0.284068
0.305072
0.314442
0.306301
0.301622
0.277484
0.304038
0.292862
0.300332
0.287451
0.290006
0.29169
0.315427
0.278328
0.282529
0.300107
0.303766
0.278699
0.294686
0.261532
0.280336
0.261006
0.275175
0.289191
0.258902
0.262143
0.263589
0.267481
0.267139
0.263078
0.271214
0.247057
0.27982
0.263735
0.270829
0.286331
0.262499
0.265762
0.281785
0.247684
0.256977
0.277767
0.241657
0.250395
0.263875
0.248518
0.271414
0.247223
0.258973
0.252913
0.255759
0.239515
0.253905
0.266739
0.269156
0.257193
0.248467
0.243849
0.270725
0.245146
0.242379
0.24022
0.234858
0.251737
0.251435
0.264762
0.228036
0.244906
0.242935
0.226006
0.224872
0.231146
0.234714
0.227147
0.240681
0.239073
0.249764
0.242907
0.24572
0.227494
0.234266
0.235003
0.210477
0.245078
0.233753
0.222066
0.243551
0.224204
0.233519
0.224931
0.223726
0.23324
0.231485
0.223739
0.23035
0.190268
0.227846
0.216977
0.222779
0.235277
0.212981
0.233309
0.210825
0.227392
0.22538
0.217447
0.228088
0.21475
0.217632
0.224516
0.207818
0.229699
0.228279
0.211187
0.219624
0.217852
0.215822
0.217796
0.205692
0.21674
0.219841
0.208374
0.208712
0.220528
0.22445
0.22061
0.213537
0.210543
0.224974
0.206757
0.21986
0.20287
0.230046
0.223492
0.224952
0.224587
0.212114
0.209938
0.179813
0.198565
0.209461
0.226379
0.212131
0.223735
0.232844
0.21118
0.220654
0.209058
0.216279
0.220013
0.214627
0.208215
0.209569
0.224571
0.201537
0.220456
0.198131
0.208189
0.226421
0.193242
0.208485
0.197625
0.224082
0.213922
0.208472
0.218178
0.213217
0.209744
0.184911
0.229392
0.193193
0.190717
0.224375
0.211641
0.20265
0.2029
0.217858
0.225007
0.210828
0.201929
0.206382
0.205355
0.214118
0.203284
0.231548
0.20122
0.194749
0.221527
0.218158
0.207752
0.215938
0.199624
0.198673
0.219552
0.219858
0.208216
0.223059
0.206702
0.213721
0.215449
0.222362
0.197103
0.208534
0.202742
0.208154
0.212114
0.213988
0.212465
0.210181
0.21428
0.20665
0.189607
0.21924
0.2012
0.213492
0.207912
0.202193
0.220701
0.185198
0.221143
0.212305
0.220951
0.229059
0.211817
0.206546
0.207554
0.225081
0.203462
0.206841
0.212973
0.226888
0.19338
0.222137
0.198917
0.217702
0.202836
0.203045
0.199968
0.230034
0.205214
0.215145
0.20228
0.189106
0.212396
0.209645
0.221806
0.21048
0.201195
0.221769
0.212013
0.223602
0.193203
0.211496
0.213684
0.223374
0.200724
0.216123
0.216021
0.212296
0.205093
0.208286
0.209503
0.218877
0.227232
0.204581
0.200221
0.194552
0.192114
0.2204
0.206657
0.195732
0.225678
0.223319
0.214861
0.205272
0.199002
0.214023
0.205905
0.20893
0.226645
0.203658
0.206583
0.214269
0.209463
0.213984
0.208939
0.215622
0.204557
0.208792
0.214879
0.210018
0.225668
0.21935
0.218354
0.218581
0.216227
0.209434
0.18989
0.198272
0.196237
0.198072
0.218609
0.207098
0.202965
0.213634
0.203454
0.211878
0.211789
0.186085
0.217194
0.208064
0.224141
0.22384
0.204711
0.208803
0.208372
0.193505
0.221482
0.226691
0.187244
0.215838
0.203971
0.206899
0.214046
0.210334
0.207664
0.206425
0.204478
0.217921
0.218282
0.219409
0.200377
0.213956
0.210894
0.201154
0.204841
0.203593
0.207554
0.227128
0.209667
0.210365
0.230185
0.21574
0.210902
0.22753
0.207982
0.201119
0.214899
0.213492
0.218866
0.223723
0.210602
0.22551
0.21475
0.217764
0.204617
0.217055
0.219753
0.22244
0.221661
0.188369
0.222452
0.200922
0.202875
0.238552
0.208808
0.209472
0.221119
0.203144
0.203228
0.208741
0.20103
0.213843
0.201963
0.216724
0.196256
0.220627
0.196561
0.210929
0.216195
0.217725
0.220861
0.210605
0.207223
0.2285
0.217547
0.207269
0.197484
0.206646
0.213354
0.232027
0.218934
0.205956
0.21755
0.212399
0.206711
0.209929
0.218351
0.227597
0.223114
0.202863
0.194391
0.224457
0.216803
0.201258
0.217246
0.20059
0.207582
0.226026
0.222478
0.212156
0.193573
0.219624
0.213411
0.206226
0.211132
0.227352
0.208708
0.207933
0.192126
0.217066
0.206289
0.21935
0.231057
0.198654
0.188186
0.210301
0.208615
0.222438
0.211965
0.209876
0.21296
0.215165
0.219771
0.205332
0.199185
0.201186
0.198783
0.201723
0.214078
0.220323
0.219851
0.218081
0.221795
0.197334
0.211874
0.199438
0.206776
0.203278
0.194325
0.22925
0.211703
0.20228
0.21415
0.202388
0.221628
0.222477
0.204418
0.215677
0.214314
0.197801
0.208816
0.218584
0.238901
0.208927
0.201478
0.214355
0.210941
0.209902
0.19519
0.208838
0.215031
0.212358
0.223764
0.240235
0.205974
0.210509
0.18896
0.215599
0.207798
0.205533
0.204619
0.205525
0.233988
0.203315
0.196914
0.207248
0.215099
0.211476
0.202732
0.225536
0.203833
0.196144
0.209436
0.214814
0.220351
0.200432
0.23059
0.217617
0.20322
0.211301
0.199958
0.224116
0.199851
0.202805
0.206816
0.220216
0.210385
0.203384
0.210168
0.226912
0.222036
0.236021
0.223057
0.218421
0.206483
0.212033
0.23788
0.200944
0.199543
0.201197
0.182413
0.210103
0.230288
0.212636
0.218624
0.203821
0.215138
0.210576
0.214896
0.206894
0.190902
0.221026
0.213636
0.201886
0.226164
0.228724
0.191307
0.197432
0.205826
0.226508
0.218595
0.211753
0.22421
0.216806
0.201204
0.212961
0.221569
0.230463
0.208879
0.202563
0.196542
0.202512
0.188521
0.212339
0.205129
0.222338
0.204128
0.243698
0.200751
0.222073
0.19976
0.203004
0.211203
0.203109
0.203278
0.218546
0.216963
0.193436
0.201392
0.21274
0.212236
0.20316
0.223092
0.213977
0.211485
0.221786
0.207852
0.220236
0.216255
0.213514
0.19088
0.23051
0.222386
0.206472
0.212377
0.206063
0.201531
0.19556
0.217863
0.217532
0.209504
0.206429
0.203262
0.217773
0.203942
0.209646
0.230788
0.213401
0.209919
0.217725
0.211946
0.209546
0.217067
0.201828
0.214914
0.192066
0.200736
0.210754
0.207925
0.244052
0.213833
0.199617
0.231992
0.229023
0.210008
0.213768
0.199204
0.220102
0.222931
0.208285
0.218374
0.192713
0.237003
0.217852
0.216855
0.218095
0.22628
0.204223
0.224994
0.213769
0.21988
0.214362
0.201698
0.191219
0.206164
0.204771
0.20282
0.216141
0.225723
0.221249
0.211844
0.213656
0.209722
0.22417
0.205018
0.198966
0.211745
0.209242
0.204253
0.201348
0.20597
0.208371
0.196928
0.217917
0.216542
0.199502
0.21483
0.242259
0.213463
0.230934
0.203306
0.219113
0.231712
0.207823
0.217521
0.218847
0.212109
0.213369
0.230681
0.203622
0.224241
0.202565
0.20497
0.203888
0.221953
0.217624
0.211983
0.217567
0.220067
0.212605
0.219471
0.207539
0.211272
0.224128
0.231088
0.20749
0.2005
0.21012
0.207767
0.212573
0.21025
0.214939
0.215852
0.224832
0.206924
0.229525
0.197976
0.223195
0.226341
0.212566
0.208249
0.20287
0.227571
0.201468
0.217344
0.224638
0.222495
0.191938
0.218577
0.217601
0.206459
0.207238
0.211878
0.222099
0.210318
0.215611
0.217535
0.208752
0.215659
0.21637
)
;

boundaryField
{
    sides
    {
        type            symmetry;
    }
    empty
    {
        type            empty;
    }
}


// ************************************************************************* //
