/*--------------------------------*- C++ -*----------------------------------*\
  =========                 |
  \\      /  F ield         | OpenFOAM: The Open Source CFD Toolbox
   \\    /   O peration     | Website:  https://openfoam.org
    \\  /    A nd           | Version:  7
     \\/     M anipulation  |
\*---------------------------------------------------------------------------*/
FoamFile
{
    version     2.0;
    format      ascii;
    class       volVectorField;
    location    "0.0175";
    object      momentum;
}
// * * * * * * * * * * * * * * * * * * * * * * * * * * * * * * * * * * * * * //

dimensions      [1 -2 -1 0 0 0 0];

internalField   nonuniform List<vector> 
1000
(
(2.72252e-05 -2.53395e-05 -4.99964e-05)
(2.80862e-05 -3.03513e-05 -1.64971e-05)
(-3.56226e-05 -6.70341e-05 -4.33655e-05)
(-1.23141e-05 -4.0341e-06 1.81019e-06)
(-1.74923e-06 5.8813e-06 0.00014392)
(6.19951e-05 5.34959e-05 -1.0428e-05)
(-1.09792e-05 5.96985e-05 -7.26189e-05)
(-2.41941e-05 -2.91147e-05 -1.08479e-05)
(-2.65448e-05 2.84886e-06 3.76836e-05)
(2.62455e-05 6.05314e-05 -3.50817e-06)
(-5.02429e-05 4.5671e-05 -6.48702e-05)
(2.25593e-05 1.96861e-05 -7.89367e-06)
(-4.07315e-05 -1.59032e-05 2.45769e-05)
(-5.52535e-06 -7.1842e-07 0.00012278)
(-9.07454e-06 -3.21069e-05 -1.41178e-05)
(-3.95663e-05 -8.6222e-05 -4.93475e-06)
(1.16602e-05 3.32079e-05 -7.47854e-05)
(-4.10909e-05 -8.17587e-05 -7.0762e-05)
(-1.97514e-06 3.49557e-05 -9.55631e-05)
(-9.22736e-06 1.86613e-05 7.85373e-06)
(-1.28591e-05 -4.40917e-05 -5.66567e-05)
(2.64084e-05 4.37859e-05 7.86929e-05)
(1.89783e-05 6.74527e-05 -4.89631e-06)
(-1.35796e-05 8.64322e-05 -3.80681e-06)
(-2.85726e-06 2.53634e-05 -1.25745e-05)
(-0.000105122 -4.7017e-05 2.64842e-05)
(-3.42751e-05 -9.5149e-06 4.53842e-05)
(-1.16278e-05 6.5682e-05 -3.24433e-05)
(9.27027e-05 -5.67815e-05 -5.56125e-06)
(4.05604e-05 -3.25489e-05 -2.46286e-05)
(1.71211e-05 -5.23939e-05 4.88523e-06)
(-3.89644e-05 -2.62783e-05 -7.0089e-06)
(-1.37942e-05 2.07403e-06 -5.91673e-05)
(5.83625e-05 -2.8779e-05 -5.55455e-05)
(7.54276e-05 1.9804e-05 -8.12116e-05)
(-4.70863e-05 5.80778e-05 -3.21059e-05)
(4.85666e-05 -1.68155e-05 -8.6317e-06)
(9.49781e-05 6.10557e-05 9.01741e-05)
(6.48836e-05 4.50122e-05 1.18983e-05)
(-3.2226e-05 -2.36076e-05 1.51289e-05)
(2.22409e-05 7.54883e-05 2.22049e-05)
(6.68797e-06 6.96769e-05 -1.697e-05)
(3.62046e-06 4.33545e-05 -1.22836e-05)
(-1.05683e-05 4.93952e-05 -2.93208e-05)
(0.000150323 8.80615e-05 -5.96762e-05)
(1.98009e-05 -2.21013e-05 -4.82099e-05)
(0.000138962 4.64176e-05 7.90404e-05)
(1.48147e-05 2.77429e-06 -8.6911e-05)
(8.34775e-06 -4.95671e-05 1.33391e-05)
(-2.11108e-05 4.58016e-05 7.72578e-05)
(6.73398e-05 0.000118338 -2.44177e-05)
(-1.67362e-05 -3.43648e-05 -5.37555e-05)
(-2.89204e-05 -3.29927e-05 -6.90439e-05)
(7.26875e-05 -6.69095e-05 -1.68529e-05)
(1.29442e-05 -1.81525e-05 -8.47441e-05)
(8.15203e-06 1.70146e-05 -9.9214e-06)
(-6.59074e-05 1.79476e-05 1.71303e-05)
(7.97583e-05 -1.04208e-05 -7.88445e-06)
(8.21721e-05 6.84548e-06 -5.27681e-05)
(5.48271e-05 -7.95574e-06 1.53827e-05)
(-8.97899e-06 -8.18023e-05 -2.94613e-05)
(6.57878e-05 3.45083e-05 -5.35608e-06)
(1.9159e-05 6.88101e-05 -1.04629e-05)
(8.55314e-05 -8.03468e-05 -2.47107e-05)
(5.91102e-06 -4.03547e-05 -1.45305e-05)
(4.2742e-05 -2.82983e-05 -3.67576e-05)
(2.74755e-05 1.61947e-05 1.9356e-05)
(8.01931e-05 -7.33285e-05 -6.19415e-05)
(4.87014e-05 -4.45744e-05 -4.26806e-05)
(0.000117586 -2.85077e-05 1.1881e-06)
(5.57261e-05 9.46021e-07 -1.7807e-05)
(0.000135454 2.30842e-05 -6.76476e-05)
(5.45209e-05 1.32446e-05 6.48953e-05)
(4.51464e-05 2.61428e-07 8.65591e-05)
(0.000102789 4.65835e-06 9.01892e-05)
(8.5403e-05 6.02554e-05 3.43933e-06)
(-4.49894e-05 -3.37032e-05 -2.18883e-06)
(6.58131e-05 -7.94562e-05 5.29435e-05)
(1.401e-05 7.60496e-05 1.65402e-05)
(6.82905e-05 -1.25826e-05 -2.32098e-05)
(3.00626e-05 -3.46026e-05 -1.55218e-05)
(3.08936e-05 1.72435e-06 -8.85404e-07)
(-2.67004e-05 4.4675e-05 -3.74139e-05)
(0.00012711 3.4549e-05 -5.53957e-05)
(-4.93285e-05 -5.79256e-05 3.62936e-05)
(-1.70194e-06 -1.77934e-05 -2.45178e-07)
(0.000106672 7.94381e-06 -1.82418e-06)
(2.09642e-05 6.05482e-06 7.44151e-05)
(-2.46803e-05 3.58866e-05 -7.61423e-05)
(0.000108515 2.47985e-05 -2.31853e-05)
(5.65186e-05 8.87846e-06 -1.33012e-05)
(7.11183e-05 -3.53717e-05 1.29664e-05)
(1.09468e-05 5.35179e-05 -8.52464e-06)
(5.62662e-05 -2.446e-06 -1.87265e-05)
(9.88431e-05 -2.45979e-05 -2.16756e-05)
(8.8785e-05 -3.62683e-06 4.81724e-05)
(-9.77765e-05 1.71676e-05 3.07462e-05)
(2.78893e-05 -5.6687e-07 0.000127407)
(9.17143e-05 -6.46069e-05 5.69656e-06)
(8.19618e-05 0.000118726 -1.14044e-05)
(0.000110975 -2.39909e-05 -2.4038e-05)
(8.47625e-05 -7.81595e-06 -5.48057e-06)
(6.42931e-05 2.69637e-05 0.000111327)
(4.2125e-05 4.79711e-05 1.18344e-05)
(2.88531e-05 -8.24157e-05 1.45845e-05)
(0.000104595 -5.13519e-05 -9.14197e-05)
(6.52175e-05 -7.90232e-05 -7.48439e-06)
(7.44892e-05 -5.24251e-06 0.000130687)
(0.000100336 -1.44048e-05 -3.86011e-05)
(-1.25662e-05 -0.000112829 3.16482e-05)
(6.35727e-05 6.68519e-06 3.65442e-05)
(4.29168e-05 2.74728e-05 -3.19988e-05)
(0.000108967 1.38656e-05 -7.75413e-05)
(-5.13463e-06 -9.77679e-05 3.18911e-05)
(5.77542e-05 2.833e-05 -2.47451e-06)
(5.35651e-05 1.16591e-05 -4.28509e-05)
(3.72199e-05 0.000126901 -1.89526e-05)
(0.000155039 -1.06761e-05 7.29094e-05)
(1.85589e-05 7.01373e-05 3.85154e-05)
(4.21225e-05 1.26424e-05 -3.89257e-05)
(7.33064e-06 -7.09332e-05 2.32686e-05)
(5.46759e-05 -1.38333e-06 2.01511e-05)
(-2.53384e-05 7.80123e-05 -2.05951e-05)
(5.81884e-05 4.03302e-06 3.19667e-05)
(9.13194e-05 4.65487e-05 2.94512e-05)
(4.71524e-05 -1.07925e-05 6.1527e-06)
(0.000117443 3.61221e-05 -7.47816e-06)
(3.79563e-05 1.41193e-05 3.11126e-05)
(0.000148501 -2.60239e-05 -2.68702e-05)
(5.15742e-05 2.0555e-05 1.52715e-05)
(0.00012939 8.4238e-05 1.28035e-05)
(0.000138792 -4.53728e-05 4.03672e-05)
(4.45778e-05 4.67411e-05 -1.74049e-05)
(0.000108537 4.80992e-05 -1.55744e-05)
(5.86499e-05 -8.70601e-06 8.95755e-06)
(9.0233e-05 2.3332e-05 4.33807e-06)
(0.00013138 2.2805e-06 1.3753e-05)
(6.36562e-05 1.69693e-05 -3.26925e-05)
(6.3113e-05 1.18535e-05 2.42599e-05)
(0.000144817 6.07366e-05 -1.30451e-05)
(7.55811e-05 -0.000116934 -2.00597e-05)
(5.91439e-05 3.30958e-05 9.46756e-05)
(4.8235e-05 2.91395e-05 2.22724e-06)
(-2.81346e-06 5.96888e-06 -6.21708e-05)
(8.54318e-05 -3.55783e-05 0.000151487)
(3.53289e-05 -6.27975e-05 3.77971e-05)
(9.79973e-05 -2.37322e-06 2.56776e-05)
(3.17438e-06 -8.4579e-06 -8.14707e-06)
(0.000152034 -8.26602e-05 -7.11915e-05)
(4.8608e-05 0.000148443 -1.69676e-05)
(3.30051e-05 7.13308e-05 1.47123e-05)
(9.47239e-05 1.68979e-05 1.30778e-05)
(0.000150671 -1.64247e-05 7.40221e-06)
(0.000121387 2.60591e-05 4.25863e-05)
(9.1526e-05 2.58391e-05 2.69517e-05)
(7.05644e-05 5.97656e-06 -5.63111e-05)
(0.00016062 4.07026e-05 1.99031e-06)
(9.32617e-05 -5.88679e-06 5.55555e-05)
(6.60582e-05 -6.76467e-06 -2.14039e-05)
(6.47598e-05 -1.31482e-05 -0.000179035)
(7.46104e-05 -2.03584e-05 -8.67156e-05)
(6.97012e-05 1.58769e-05 -1.24671e-05)
(4.83696e-05 6.9043e-05 1.67099e-05)
(5.91836e-05 3.22503e-05 -5.69208e-05)
(0.00013243 8.43659e-05 4.87191e-05)
(5.70436e-05 4.23855e-05 3.94297e-05)
(0.000204051 1.16104e-05 -3.94797e-05)
(0.000128916 2.1487e-05 2.42727e-05)
(0.000135346 -7.8714e-05 1.24379e-05)
(0.000168505 -7.1734e-06 -2.44536e-05)
(0.000124461 3.91196e-05 -4.81972e-05)
(0.000132928 -1.39069e-05 9.92021e-05)
(-1.04323e-05 -6.9382e-05 -2.79839e-05)
(5.36794e-05 -2.86557e-05 -2.59041e-05)
(5.96791e-05 -0.000102533 -2.82522e-06)
(6.99979e-05 9.71226e-05 -1.11193e-05)
(0.000137579 1.13116e-05 2.1703e-06)
(0.000162595 9.58799e-06 5.68042e-05)
(6.77919e-05 7.28282e-05 6.81477e-05)
(6.51799e-05 -0.000110008 4.29526e-07)
(8.1196e-05 -1.97775e-05 -1.23748e-05)
(0.000100015 7.26435e-06 -3.87236e-05)
(4.62185e-06 -3.7773e-06 5.2043e-05)
(9.33206e-05 -6.32048e-05 1.66054e-05)
(0.000109924 6.72863e-05 4.15801e-05)
(0.000189456 -3.04735e-05 6.55698e-06)
(-4.49352e-06 -2.19505e-05 2.93548e-05)
(5.12963e-05 -3.9679e-05 1.66835e-05)
(6.73443e-05 6.42556e-06 4.89742e-05)
(0.000112265 -6.26153e-05 7.3699e-05)
(2.29389e-05 -1.661e-05 1.5043e-05)
(-5.45009e-06 -1.12692e-06 -6.07428e-05)
(7.27983e-05 -2.1203e-06 -8.26793e-06)
(9.30205e-05 -1.34919e-07 1.3419e-05)
(2.91828e-05 3.91981e-05 4.49844e-05)
(0.000105082 1.86239e-05 5.46967e-05)
(5.96924e-05 2.41956e-05 3.40809e-05)
(0.000108514 -4.77865e-05 1.64461e-05)
(7.2081e-05 1.49315e-05 -3.70298e-05)
(0.000126414 4.50314e-06 0.000107599)
(-2.451e-05 -4.6888e-05 -2.58924e-05)
(5.91439e-05 -6.95002e-06 -5.70492e-05)
(8.915e-06 -7.96604e-05 6.2587e-05)
(0.000136813 3.96802e-05 6.12412e-06)
(0.000139339 -2.09242e-05 2.01407e-05)
(2.09677e-05 -3.47867e-05 -5.54398e-05)
(7.72683e-05 -4.3962e-05 -2.72684e-06)
(0.000146824 1.38926e-05 -4.73814e-05)
(6.07118e-05 -6.40695e-05 -2.07786e-05)
(6.56763e-05 3.98682e-06 -9.38988e-05)
(8.64148e-05 2.26164e-05 -1.44539e-05)
(0.000169631 1.87433e-05 -1.38907e-05)
(0.000138341 1.69255e-05 5.77433e-05)
(9.15628e-05 1.14586e-06 -7.50662e-06)
(0.000103285 5.14034e-05 1.80923e-05)
(4.539e-05 3.14234e-07 -3.03398e-05)
(0.000115246 -3.27637e-05 5.40163e-06)
(2.32511e-05 6.41773e-05 9.35341e-06)
(8.4616e-05 7.89968e-05 -6.15875e-05)
(0.00010773 -5.54011e-06 -2.62502e-05)
(6.49491e-05 0.000114829 -5.62174e-05)
(4.45313e-05 -3.61316e-05 1.02229e-05)
(0.000141311 1.78604e-05 1.1856e-05)
(3.13368e-05 -2.8162e-05 -4.84055e-05)
(0.000105207 8.97663e-05 -1.36392e-05)
(3.0379e-05 -1.2259e-05 1.01937e-05)
(7.28651e-05 -5.72395e-06 -4.36853e-05)
(3.99636e-05 2.6585e-05 1.87514e-05)
(-5.00675e-05 6.95812e-05 1.19249e-05)
(1.03469e-05 1.05048e-05 -4.55998e-05)
(3.16291e-05 6.93452e-05 2.90682e-05)
(0.000119778 5.82683e-05 -7.34348e-05)
(-8.39957e-06 8.60483e-05 4.32709e-05)
(0.0001139 0.000126956 5.33773e-06)
(2.84892e-05 6.9678e-05 -4.49025e-05)
(8.34844e-06 -2.25673e-06 -3.92524e-05)
(0.000135987 4.17022e-05 -2.43462e-05)
(9.50006e-05 1.22206e-05 -2.99907e-05)
(0.000139841 1.12418e-05 -6.15644e-05)
(0.000105965 3.25585e-05 2.46175e-06)
(4.44352e-05 2.46819e-05 5.28958e-06)
(1.53334e-05 5.33025e-06 1.71863e-07)
(0.000100882 1.96421e-05 1.18497e-05)
(4.86553e-05 -1.68788e-05 -7.03437e-05)
(8.6616e-05 1.22294e-05 -6.46203e-05)
(0.000130343 -5.59439e-05 3.62377e-05)
(-5.99064e-06 4.04418e-05 2.70863e-06)
(0.000116964 5.9872e-05 6.48301e-05)
(7.88301e-05 -2.48967e-05 6.60539e-05)
(5.20131e-05 -6.50116e-05 8.67516e-05)
(3.79926e-06 4.75711e-05 -3.46019e-06)
(-1.96396e-05 3.3381e-05 1.98375e-05)
(-3.34858e-05 7.18815e-05 5.63992e-05)
(4.51029e-06 2.75412e-06 9.41212e-06)
(5.07606e-05 -2.61704e-05 7.59591e-05)
(9.66738e-05 3.26738e-05 -1.08229e-05)
(-4.34503e-05 -3.27325e-05 -3.56197e-05)
(3.10275e-05 -6.21888e-05 -5.59244e-05)
(-4.72802e-06 6.38279e-05 -2.22415e-06)
(-4.58107e-06 7.52256e-05 -2.23738e-05)
(3.71487e-05 -3.41791e-05 -2.97123e-05)
(2.33693e-05 3.62122e-05 -2.75606e-05)
(3.67852e-05 -4.71213e-05 -3.67161e-05)
(6.40127e-05 -1.96446e-05 -5.5395e-05)
(-3.3006e-05 2.51624e-05 5.49967e-05)
(1.08859e-05 4.65894e-06 -8.25029e-05)
(3.73427e-06 1.12798e-05 6.61552e-05)
(-1.39629e-05 -3.70723e-05 4.1085e-05)
(-2.98351e-05 3.48974e-06 -0.000106984)
(9.83344e-05 4.04331e-05 -3.79626e-05)
(-1.20784e-06 -4.83084e-05 6.88879e-05)
(4.89422e-05 3.42461e-05 -2.30112e-06)
(-7.21014e-05 -4.73247e-05 -4.05357e-05)
(1.76393e-05 -6.7119e-05 1.79188e-05)
(4.37912e-05 -2.55698e-05 -1.69213e-05)
(-4.14937e-05 -7.15111e-05 -1.94647e-05)
(-6.64179e-05 4.37578e-05 6.99248e-05)
(-2.67606e-05 2.80255e-05 -8.91726e-05)
(-8.68917e-05 3.47632e-05 5.86858e-05)
(-0.000168528 -1.93255e-05 -1.30184e-05)
(-7.61923e-05 -2.53697e-05 -9.50197e-06)
(-7.2158e-05 -1.32621e-06 7.25657e-05)
(7.96082e-05 -2.83199e-06 -1.63981e-05)
(-0.000117461 3.46546e-05 2.85787e-05)
(-4.65286e-05 6.77793e-05 6.93994e-05)
(-8.04928e-05 7.42758e-05 5.1499e-05)
(-2.28424e-05 -4.32106e-06 2.57505e-05)
(-6.45882e-05 6.06787e-05 2.24688e-06)
(-8.92981e-05 -1.31153e-05 -3.44746e-05)
(-5.25785e-05 -1.98655e-05 -4.23953e-05)
(-5.54637e-05 -8.24214e-05 -4.49128e-05)
(9.93124e-07 1.13242e-05 5.87506e-05)
(-2.05106e-05 -3.62392e-05 -2.73857e-05)
(-4.11949e-05 -2.31941e-05 6.5792e-05)
(-5.45581e-05 4.30761e-05 8.28306e-06)
(-7.48114e-05 -2.13783e-05 2.95462e-05)
(-7.90933e-05 -2.82161e-05 -3.65031e-05)
(-9.84654e-05 0.000105195 -3.71984e-05)
(-5.48498e-06 -4.31306e-06 -4.7763e-05)
(-5.18513e-05 1.51614e-05 2.12454e-06)
(-7.77304e-05 -6.678e-05 -5.55038e-05)
(-0.000143967 8.11615e-05 5.63607e-05)
(-7.63377e-05 -4.39182e-05 -0.000111895)
(-1.74123e-05 9.93852e-06 -1.3822e-05)
(-2.06461e-05 -0.000104478 2.91242e-05)
(-5.27421e-05 2.77095e-05 -6.37005e-06)
(-7.76491e-05 -2.88166e-05 4.35436e-05)
(-5.871e-05 -2.89435e-05 -7.82005e-05)
(-0.000136514 -5.73763e-06 7.61231e-06)
(-2.66407e-06 0.000138689 -1.07352e-05)
(-0.000131068 -3.13004e-05 -5.32961e-05)
(-0.000127695 5.12441e-05 1.44659e-05)
(-0.000105465 1.33918e-05 -4.40405e-05)
(-0.000136132 5.48598e-05 1.15483e-05)
(-0.000107497 3.49571e-05 1.80479e-05)
(-2.83403e-05 -5.17902e-05 1.10199e-05)
(-4.83976e-05 1.21747e-05 1.8345e-05)
(-9.14688e-05 -3.8539e-05 -3.36244e-05)
(-0.000106511 3.3306e-05 -3.3432e-06)
(-7.15699e-05 -8.11506e-05 3.5561e-05)
(-0.000212944 -2.58405e-05 -2.95329e-05)
(-0.000158287 -1.89312e-05 7.33464e-06)
(-0.000144906 -9.80069e-06 -9.08092e-05)
(-0.000170051 9.2305e-05 2.77474e-05)
(-0.000194674 6.6562e-05 7.29581e-05)
(-0.000218501 -3.37543e-05 -4.22732e-05)
(-0.000165993 -9.45614e-05 -7.56918e-05)
(-0.000212676 -3.23334e-05 2.24911e-05)
(-0.000119236 3.63238e-06 1.02601e-05)
(-0.000100828 -3.54751e-05 1.59957e-05)
(-9.41263e-05 3.85078e-05 4.17537e-05)
(-9.62661e-05 3.12463e-06 -5.49317e-05)
(-0.000182692 -6.82616e-05 -8.74593e-05)
(-0.000152241 3.64371e-05 2.568e-05)
(-0.000221599 -6.02527e-06 5.55378e-05)
(-0.000223847 -5.11466e-05 3.38177e-05)
(-0.000185744 -3.09101e-06 1.22871e-05)
(-0.000224026 3.13278e-06 3.80822e-05)
(-0.000200639 -2.25231e-05 -4.51652e-06)
(-0.000157374 -9.24426e-06 5.79425e-05)
(-0.000146901 2.40635e-05 6.89249e-05)
(-0.000150881 -1.23989e-05 2.09759e-05)
(-0.000189265 -3.42523e-05 -8.07152e-06)
(-0.000209457 -6.18486e-05 -1.44312e-05)
(-0.000318543 1.36781e-05 -5.02091e-06)
(-0.000237971 7.085e-06 -4.81188e-05)
(-0.000173157 -3.34791e-06 -2.72484e-05)
(-0.000232992 4.927e-05 5.72464e-05)
(-0.000216523 1.34627e-05 4.07364e-05)
(-0.000243642 0.000119402 -2.58072e-05)
(-0.000247195 3.2766e-06 -2.42451e-05)
(-0.000101687 -4.42428e-05 1.16072e-05)
(-0.000251005 -2.42686e-05 5.67364e-05)
(-0.000249845 4.80653e-05 5.19009e-05)
(-0.000210646 6.04422e-09 -2.33716e-06)
(-0.000234386 -1.62776e-05 1.91054e-05)
(-0.00027701 3.92794e-05 -1.14368e-05)
(-0.000186995 -3.14844e-05 -8.49742e-05)
(-0.00029473 1.961e-05 -1.26859e-05)
(-0.000256809 5.82952e-05 5.89728e-05)
(-0.000273528 -2.75705e-05 -5.04675e-05)
(-0.000233052 -6.66276e-05 7.41075e-07)
(-0.00024512 -3.65887e-05 -5.49549e-05)
(-0.000146123 3.29131e-05 5.04415e-05)
(-0.000244554 -6.61594e-05 -3.79748e-05)
(-0.000255125 8.22325e-05 1.1225e-05)
(-0.000289958 -1.3244e-05 -3.09983e-06)
(-0.000277798 -4.46297e-05 -1.85799e-05)
(-0.000227543 3.48032e-05 5.6229e-05)
(-0.000237062 7.72491e-05 -7.52131e-06)
(-0.000318522 -6.74178e-05 -1.74321e-05)
(-0.000290039 6.15985e-06 4.25757e-06)
(-0.000255925 -3.97747e-05 8.91481e-06)
(-0.000240167 1.75437e-05 -6.6832e-05)
(-0.000275217 -4.12456e-05 -2.66928e-05)
(-0.000239245 3.84329e-05 -2.02147e-05)
(-0.000211875 -4.52262e-05 -1.2625e-05)
(-0.000217933 1.84677e-05 -3.74285e-06)
(-0.000258729 -1.99353e-06 1.29827e-05)
(-0.000261621 4.48912e-05 -6.3684e-06)
(-0.000351959 -4.98563e-05 -4.59387e-06)
(-0.000308004 4.78884e-05 -3.60147e-05)
(-0.00030558 1.87556e-05 2.23721e-05)
(-0.000336991 -2.17839e-05 -3.86959e-05)
(-0.000291921 -6.33497e-05 2.67925e-06)
(-0.000321687 -3.29725e-06 3.16594e-05)
(-0.000258995 8.25848e-05 7.25441e-05)
(-0.00021803 4.20018e-06 -3.38739e-05)
(-0.000229119 4.25565e-05 -4.22442e-05)
(-0.000297193 2.77976e-05 -3.49038e-05)
(-0.000333967 7.04139e-06 -1.09655e-05)
(-0.000293242 4.45416e-05 0.000102853)
(-0.000298888 -1.89566e-05 6.92353e-05)
(-0.000253201 -2.47084e-05 1.55692e-05)
(-0.000197851 1.0786e-05 -4.10429e-05)
(-0.000316997 1.07418e-05 5.71506e-05)
(-0.000323558 2.83381e-05 2.84084e-05)
(-0.000283537 2.95011e-05 1.58525e-05)
(-0.000329918 -3.5215e-05 4.81669e-05)
(-0.000331119 7.1475e-06 4.47808e-05)
(-0.000282062 3.69997e-05 1.30284e-05)
(-0.000301214 -3.65622e-05 -2.9511e-05)
(-0.000311738 -4.27929e-05 -6.85016e-05)
(-0.000320825 -3.65693e-05 -2.80993e-05)
(-0.000259318 2.09934e-05 1.41816e-05)
(-0.000290306 -3.62498e-05 1.74069e-05)
(-0.000248383 -1.31368e-05 4.7489e-05)
(-0.000386129 -3.15214e-05 1.09137e-05)
(-0.000309661 8.34088e-06 -4.68671e-05)
(-0.000347059 -5.84677e-07 5.71312e-05)
(-0.000332497 3.14498e-05 -3.26108e-05)
(-0.000342319 -8.99731e-05 -1.78023e-05)
(-0.00034946 -2.65716e-05 3.01804e-05)
(-0.000237292 -1.7566e-05 6.91023e-05)
(-0.000270553 4.70893e-05 -4.88742e-05)
(-0.000313996 1.15443e-05 6.94986e-06)
(-0.000302747 2.13918e-05 1.20686e-05)
(-0.000236724 1.38443e-05 7.50827e-05)
(-0.000312163 -4.08741e-05 4.16866e-05)
(-0.000310922 -3.42312e-05 2.11629e-05)
(-0.000327984 1.18132e-05 3.46101e-06)
(-0.000309461 -1.89343e-05 -1.71212e-05)
(-0.000246664 -0.000107543 1.96672e-05)
(-0.000243009 1.32234e-05 2.17612e-05)
(-0.000303114 6.52444e-05 5.13909e-06)
(-0.000265285 1.87846e-05 2.69934e-05)
(-0.000274285 -7.91719e-05 1.62603e-05)
(-0.000287716 4.19925e-05 -4.11269e-06)
(-0.000291417 -2.43665e-05 5.42096e-06)
(-0.000370678 -2.89437e-05 2.52005e-05)
(-0.000333299 8.20418e-06 1.00419e-06)
(-0.000329058 1.51561e-05 -7.75939e-05)
(-0.000248654 -6.16334e-05 5.24007e-07)
(-0.000176023 -1.52792e-05 3.52304e-05)
(-0.000307975 1.49823e-05 2.54743e-05)
(-0.00024621 -2.55372e-05 -1.28756e-05)
(-0.00034292 -4.32459e-05 -3.04006e-05)
(-0.000312528 4.7848e-05 1.54245e-05)
(-0.00018845 8.88451e-06 8.98594e-05)
(-0.000295337 8.63331e-05 -9.60427e-06)
(-0.00025432 1.17587e-05 -3.20042e-05)
(-0.000245066 4.05744e-05 -2.87282e-05)
(-0.000338922 -1.1323e-05 -7.3145e-06)
(-0.000312906 2.62605e-05 -1.086e-05)
(-0.000295715 9.21917e-06 -1.25564e-05)
(-0.000340141 -1.79964e-05 -1.08854e-05)
(-0.000224725 2.64741e-05 -1.45233e-06)
(-0.000291434 6.97175e-06 -2.72485e-05)
(-0.000217291 -4.96345e-05 1.14916e-06)
(-0.000321099 -3.92415e-05 -1.2805e-05)
(-0.000278048 -4.01984e-05 -8.24074e-07)
(-0.00026114 2.0889e-05 1.03837e-05)
(-0.000270114 -3.86045e-05 1.25054e-05)
(-0.000265739 -2.45666e-05 1.44761e-05)
(-0.000261664 1.943e-05 1.76316e-05)
(-0.000405368 5.5949e-05 -6.62808e-05)
(-0.000304967 1.2792e-05 5.64927e-06)
(-0.000278643 -5.73945e-05 2.50287e-05)
(-0.000297041 -5.31212e-05 5.08974e-08)
(-0.000264906 -1.9337e-05 7.29809e-05)
(-0.000247782 2.18158e-05 3.79393e-06)
(-0.000318282 4.18533e-06 -7.13329e-06)
(-0.000198457 9.16725e-06 -2.80096e-05)
(-0.000259291 -1.5052e-05 -1.42443e-05)
(-0.000268464 -7.5577e-05 -8.48222e-06)
(-0.000235568 -3.28729e-05 4.96897e-05)
(-0.000322388 -1.01269e-06 -8.85924e-06)
(-0.000260925 -5.65965e-05 5.45403e-05)
(-0.000300032 -2.0295e-05 8.61725e-06)
(-0.000234415 1.96846e-05 -5.70613e-05)
(-0.000264505 1.08252e-05 -7.31855e-05)
(-0.000339186 -5.83266e-05 -2.21013e-05)
(-0.000265077 -9.25741e-05 -3.28403e-05)
(-0.000245286 6.98799e-06 2.37218e-05)
(-0.000235062 -2.43246e-05 1.2052e-05)
(-0.000277138 -3.57079e-05 6.179e-05)
(-0.000344387 -7.65845e-05 1.76566e-05)
(-0.000295518 -9.96554e-07 2.31323e-05)
(-0.000302399 2.43337e-05 -4.09793e-05)
(-0.000272783 -2.93299e-05 -5.48405e-05)
(-0.000268732 1.75283e-05 1.89272e-05)
(-0.000187118 -3.52795e-05 -3.45232e-05)
(-0.000265697 -3.63369e-05 1.00519e-05)
(-0.000253528 -3.83718e-05 2.09532e-05)
(-0.000312991 -2.48944e-05 3.47118e-05)
(-0.000295281 9.13842e-06 9.44034e-06)
(-0.000226292 -1.42541e-05 1.98317e-05)
(-0.000320456 2.97052e-05 3.59012e-05)
(-0.000301426 7.15922e-06 -8.33903e-06)
(-0.000295865 -7.8288e-05 -1.25236e-05)
(-0.000233407 -2.76268e-05 2.44018e-05)
(-0.000245702 -3.37327e-05 -3.41676e-05)
(-0.000283773 -3.99761e-06 3.46561e-05)
(-0.000265228 4.84805e-05 1.87539e-06)
(-0.000324396 -2.21332e-05 5.65976e-05)
(-0.000250616 -5.71648e-05 -2.53306e-05)
(-0.000273431 5.93165e-05 5.91476e-05)
(-0.000172013 3.48284e-05 1.10035e-05)
(-0.000221336 -5.85544e-05 -4.53957e-05)
(-0.000257279 3.6338e-06 -2.35848e-05)
(-0.000241988 -6.46675e-05 2.30694e-05)
(-0.000325502 1.43097e-05 -4.16868e-05)
(-0.000342058 9.93081e-06 2.00284e-05)
(-0.000207133 3.11675e-06 5.78017e-05)
(-0.000315231 -1.67096e-07 -9.95822e-07)
(-0.000283941 -2.41373e-05 -7.89388e-05)
(-0.000210429 -3.98314e-05 5.81209e-05)
(-0.000203254 -1.0703e-05 1.84874e-05)
(-0.000282444 1.69136e-05 -3.52458e-05)
(-0.000258662 3.5305e-05 -3.07537e-05)
(-0.000236929 -4.48072e-05 3.13522e-05)
(-0.000228648 2.50224e-05 6.87935e-05)
(-0.000278303 -2.65166e-05 -6.69816e-05)
(-0.000287626 -0.000104193 -4.2906e-05)
(-0.000177678 -3.68321e-06 7.02064e-06)
(-0.000246784 3.48848e-05 3.20872e-05)
(-0.000273804 -3.25007e-05 1.11735e-05)
(-0.000253594 -4.1865e-05 1.38117e-05)
(-0.000195425 7.01263e-05 2.44781e-05)
(-0.0002454 4.51105e-05 8.34352e-07)
(-0.000245017 -1.57621e-05 -1.52833e-05)
(-0.000231397 -4.56206e-05 6.29535e-05)
(-0.000251201 4.42423e-06 -7.47822e-05)
(-0.000212427 2.94598e-05 4.0465e-05)
(-0.000190252 -5.78936e-05 -1.98708e-05)
(-0.000207091 4.22163e-05 1.73281e-05)
(-0.000223555 -5.29563e-05 1.40135e-05)
(-0.000209343 4.20555e-06 3.44018e-05)
(-0.000270503 4.71504e-06 -2.94025e-05)
(-0.000288757 -3.50481e-05 -3.32376e-05)
(-0.000172191 2.95041e-06 -8.11718e-05)
(-0.000257598 1.68641e-05 -1.05558e-05)
(-0.000286161 5.97769e-05 6.6621e-05)
(-0.000190385 -5.46039e-05 -1.52364e-05)
(-0.000253727 -4.45127e-05 -4.32407e-05)
(-0.000232927 -3.1356e-05 -7.51647e-05)
(-0.000225311 2.20386e-05 2.69879e-05)
(-0.000245561 -3.81624e-05 -8.98665e-07)
(-0.000172003 2.97945e-05 -2.17091e-05)
(-0.000257867 -5.82599e-05 4.89481e-05)
(-0.000247033 -8.99913e-06 -5.68853e-05)
(-0.000258084 -1.65109e-05 1.24917e-05)
(-0.000233315 -2.62282e-05 5.09039e-05)
(-0.000190748 -3.66912e-05 -1.92281e-05)
(-0.000247035 6.51465e-06 2.5338e-05)
(-0.000226592 3.25062e-05 2.16065e-05)
(-0.00014044 -1.92405e-05 -8.90327e-06)
(-0.000191205 3.71632e-05 4.21059e-05)
(-0.000267792 -3.74845e-05 -3.58721e-05)
(-0.000167883 -1.00781e-05 1.92657e-05)
(-0.000202052 9.45498e-06 -2.15505e-05)
(-0.000234429 4.57414e-05 1.46338e-05)
(-0.000254431 -6.30446e-06 1.68107e-05)
(-0.000184764 1.57371e-05 4.72616e-05)
(-0.000297019 -4.77927e-05 3.33869e-05)
(-0.000320693 1.12254e-05 -6.85583e-06)
(-0.00018798 7.65076e-07 2.31276e-05)
(-0.000233349 1.44281e-05 -2.25336e-05)
(-0.000265707 -7.40677e-06 -4.20997e-05)
(-0.000228706 2.63624e-05 5.27383e-05)
(-0.000233715 -2.07808e-05 7.9216e-06)
(-0.000253566 1.00283e-06 -1.63734e-05)
(-0.000267739 6.15514e-06 3.84975e-05)
(-0.000216319 1.50146e-05 7.57511e-05)
(-0.000267571 1.37954e-05 1.27189e-05)
(-0.000272527 -1.42642e-05 -5.14645e-06)
(-0.000152097 2.47394e-05 -2.03458e-06)
(-0.000224103 -3.92275e-05 -1.56706e-05)
(-0.000198717 3.96013e-06 -3.87124e-06)
(-0.000219073 -2.74211e-06 3.48604e-05)
(-0.000350684 3.43201e-05 -1.13122e-05)
(-0.000227073 -3.11045e-05 6.36186e-05)
(-0.000190148 2.12718e-05 -3.17991e-06)
(-0.000222461 -4.17501e-05 1.89459e-05)
(-0.000186394 5.54205e-06 2.25241e-05)
(-0.000260593 2.25556e-05 -2.79665e-05)
(-0.00017945 -5.15153e-05 -9.70245e-05)
(-0.000159358 -1.17395e-05 1.55834e-05)
(-0.000261541 2.14473e-05 -5.51298e-06)
(-0.000211494 5.15101e-06 6.73722e-06)
(-0.00018904 -2.07126e-06 -4.31596e-05)
(-0.000201603 2.71861e-05 1.10478e-05)
(-0.000172673 9.85754e-06 3.56668e-05)
(-0.000256798 -9.3706e-07 5.86596e-05)
(-0.000194131 -0.000103364 1.76003e-05)
(-0.000236233 1.83089e-05 -2.54984e-05)
(-0.000216673 8.73367e-06 6.14264e-05)
(-0.000151572 4.15286e-05 1.35354e-05)
(-0.000202351 2.40281e-05 -1.78539e-05)
(-0.000224396 3.27602e-05 -7.14936e-07)
(-0.000127001 -3.53144e-05 -2.40314e-05)
(-0.000192586 -7.10048e-05 4.32786e-05)
(-0.000182649 -2.96425e-05 -8.36708e-05)
(-0.000262364 -7.20197e-05 4.697e-05)
(-0.000250737 -4.48571e-05 1.97052e-05)
(-0.000171102 6.65296e-06 -2.00829e-05)
(-0.000199158 8.22807e-07 -7.19266e-05)
(-0.000204838 1.78932e-05 1.3033e-05)
(-0.000222731 -9.78982e-06 4.14412e-05)
(-0.000206391 -2.30074e-05 -2.0584e-05)
(-0.000235096 -7.87045e-06 -3.43152e-05)
(-0.000250123 1.27435e-05 -5.93077e-05)
(-0.000178705 -4.6587e-06 -6.22655e-05)
(-0.000132224 -4.3923e-05 8.47901e-06)
(-0.000173682 -6.92411e-05 4.69622e-05)
(-0.000271076 -6.85467e-06 5.24634e-05)
(-0.000222683 2.52947e-05 -7.72051e-06)
(-0.000175851 -6.77993e-06 -4.82702e-05)
(-0.000181595 -1.63571e-05 -1.65336e-05)
(-0.000159338 5.921e-05 -4.63499e-06)
(-0.000161786 6.86822e-05 1.14157e-05)
(-0.000118816 -1.17755e-05 -4.61456e-05)
(-0.00024417 3.82127e-05 1.34086e-06)
(-0.000204778 -6.73866e-05 -9.4245e-06)
(-0.000245317 -1.29429e-05 -1.64234e-05)
(-0.000124856 1.21571e-05 -3.76061e-05)
(-0.000208736 1.10134e-05 5.94382e-05)
(-0.000216938 5.08416e-05 5.14129e-05)
(-0.000194596 6.02557e-05 -2.85073e-06)
(-0.000203519 6.46101e-05 3.86573e-06)
(-0.000201192 -1.13407e-05 -1.53962e-05)
(-0.000123595 -8.15356e-07 1.78723e-05)
(-0.000233522 -1.41852e-05 -5.40763e-05)
(-0.00021595 3.52191e-05 3.26191e-06)
(-0.000172729 2.24979e-05 3.00976e-05)
(-0.000146073 -7.64729e-05 -3.01974e-05)
(-0.000199912 -1.2643e-05 1.80681e-05)
(-0.000158543 -6.57798e-05 2.74525e-05)
(-0.00014035 5.40705e-06 4.91451e-05)
(-0.00017649 3.85684e-05 -3.48267e-05)
(-0.000219057 3.886e-05 -9.08516e-06)
(-0.000245128 -8.96442e-06 4.03058e-05)
(-0.000181199 1.89638e-06 -3.46459e-05)
(-0.000144126 -2.90034e-07 1.82728e-05)
(-0.000209804 -6.63476e-05 3.09554e-05)
(-0.000149461 -7.29688e-05 3.23364e-05)
(-0.00018554 4.36587e-06 3.06152e-05)
(-0.000232645 -2.44557e-05 1.79334e-05)
(-0.000225538 -1.67492e-05 2.95631e-05)
(-9.26007e-05 -5.80602e-06 2.51027e-05)
(-0.000205309 -6.07507e-07 7.60942e-05)
(-0.000219866 1.41671e-05 4.75518e-05)
(-0.000242128 -1.03121e-05 -2.49761e-05)
(-0.000188752 -1.91076e-05 -1.65414e-05)
(-0.000150075 -3.5998e-05 -1.6793e-05)
(-0.000200182 -4.92505e-05 -2.54212e-05)
(-0.000137036 -7.43256e-05 -1.70135e-05)
(-0.000220114 1.27002e-06 -3.93347e-05)
(-0.000202857 -1.54142e-06 1.38825e-05)
(-0.00022268 -6.7281e-05 3.02876e-05)
(-0.000174833 8.55938e-05 5.16222e-05)
(-0.000114855 -4.54428e-05 -5.98432e-05)
(-0.000251802 3.75801e-05 -1.77946e-05)
(-0.000168356 1.5612e-05 -4.05456e-05)
(-0.000100964 -2.69533e-05 5.16086e-05)
(-0.000146456 -7.93261e-05 3.46452e-05)
(-0.000112863 1.4453e-05 -3.85292e-08)
(-0.000173013 4.23565e-05 -2.67561e-05)
(-0.000179693 -4.9255e-05 -1.57209e-05)
(-0.000197646 7.36036e-05 2.1182e-05)
(-0.000146791 -1.82056e-05 -1.54442e-05)
(-0.00016796 8.1606e-05 -3.33275e-05)
(-0.000108961 -1.89821e-05 9.97081e-06)
(-0.000247062 -2.58064e-05 -4.02273e-05)
(-0.000175883 -3.57331e-05 3.1029e-05)
(-0.000171579 -4.81364e-05 -9.07448e-06)
(-0.000171419 -2.92355e-05 -8.70029e-06)
(-0.000122041 -1.7025e-05 1.34317e-05)
(-0.000125884 1.65223e-05 2.37528e-06)
(-0.000147606 -9.77555e-06 -1.6536e-07)
(-0.000206677 -4.49088e-05 2.31179e-06)
(-0.000156176 -7.90818e-05 5.24738e-05)
(-0.000186158 -6.8044e-05 -2.28244e-05)
(-0.000166736 -2.17663e-05 -6.33815e-05)
(-0.00010359 -2.13994e-06 2.91077e-05)
(-0.000125034 -2.31825e-05 -2.40314e-05)
(-0.000127499 1.29651e-05 6.52012e-05)
(-0.000150397 -3.01705e-05 8.29365e-05)
(-0.000266782 3.27685e-06 7.75691e-06)
(-0.000191574 -2.86942e-05 -1.97421e-05)
(-9.91386e-05 -6.03217e-05 -1.14121e-06)
(-0.000111481 8.8313e-06 -2.4146e-05)
(-0.000124972 -7.04883e-06 -1.39986e-05)
(-0.000109053 3.84935e-05 4.25648e-05)
(-0.000171555 4.24158e-05 4.78505e-05)
(-0.000121752 -3.22702e-06 -5.40483e-05)
(-0.000149884 -4.99465e-06 2.44724e-05)
(-0.000207266 -0.000106368 -7.39577e-06)
(-0.000152376 1.77535e-05 -3.01406e-05)
(-0.00013869 -2.53884e-05 -2.1423e-05)
(-9.58959e-05 -1.35377e-06 -3.99159e-06)
(-0.000163519 -8.20587e-05 3.64686e-05)
(-0.000104353 -8.13427e-05 -3.60418e-05)
(-0.000136305 1.38872e-05 4.61423e-06)
(-0.000150959 -8.0741e-05 4.4168e-05)
(-0.000139811 2.63252e-05 -9.21544e-05)
(-9.90357e-05 -5.29888e-07 8.38203e-05)
(-0.000141698 4.4432e-06 -4.19163e-05)
(-0.000117079 6.9831e-05 4.1601e-05)
(-6.09359e-05 -2.17967e-05 4.77623e-05)
(-0.00017595 -5.98468e-05 1.33995e-05)
(-0.000148689 -2.44687e-06 7.58271e-05)
(-0.00015898 -1.06983e-05 -9.41915e-05)
(-7.05041e-05 -1.01772e-05 -2.03273e-05)
(-0.000149874 -5.06504e-05 4.36317e-06)
(-0.000129372 5.18936e-05 -4.52935e-06)
(-0.000115798 -7.76206e-07 -2.86162e-06)
(-0.00013598 -7.01646e-05 -4.50356e-05)
(-0.000161821 -2.14112e-05 3.91426e-05)
(-0.000228986 1.56837e-05 -1.13297e-05)
(-0.000145681 4.89086e-05 -5.13396e-05)
(-0.000150503 3.44887e-05 -1.33645e-05)
(-0.000170661 -8.35529e-06 1.65796e-05)
(-0.000138473 -3.22591e-05 2.35779e-05)
(-0.000124501 -2.4599e-05 -6.35671e-05)
(-0.000143205 5.47386e-05 2.81038e-05)
(-0.000146251 5.39906e-05 1.15132e-05)
(-0.000171676 2.0421e-05 4.52666e-06)
(-0.000146141 3.16078e-05 6.67955e-05)
(-0.000103958 -8.71807e-07 -6.53753e-06)
(-0.000226268 -1.84784e-05 5.80549e-05)
(-0.000181247 -8.06473e-06 -3.10834e-05)
(-8.02229e-05 3.79694e-05 -9.30377e-06)
(-0.0001352 6.18103e-06 -3.38481e-05)
(-7.33476e-05 -1.5264e-05 -4.90262e-05)
(-0.000146264 2.14796e-05 -5.46894e-05)
(-0.000215859 4.3303e-05 -8.76081e-05)
(-0.000154658 -2.96815e-06 2.87138e-06)
(-9.75124e-05 9.59838e-06 7.62408e-05)
(-0.00018279 -5.31776e-05 1.57494e-05)
(-0.000173726 -7.62823e-06 -8.87528e-05)
(-1.88787e-07 5.27959e-05 -2.68115e-05)
(-0.000119954 1.10407e-05 -2.68739e-05)
(-6.18686e-05 9.75496e-06 -5.50415e-06)
(-9.14804e-05 -1.29209e-07 -1.16127e-05)
(-0.000112864 -3.51626e-05 -3.7439e-05)
(-0.00014 5.25347e-05 3.00713e-05)
(-0.000143588 4.22635e-05 -5.62142e-06)
(-0.000101054 -9.13789e-08 -8.00279e-06)
(-0.000100708 4.21849e-05 8.81239e-05)
(-8.63308e-05 2.79762e-05 5.3622e-05)
(-0.000125462 1.7165e-05 8.51585e-06)
(-0.000125115 -2.74443e-05 2.62586e-05)