/*--------------------------------*- C++ -*----------------------------------*\
  =========                 |
  \\      /  F ield         | OpenFOAM: The Open Source CFD Toolbox
   \\    /   O peration     | Website:  https://openfoam.org
    \\  /    A nd           | Version:  7
     \\/     M anipulation  |
\*---------------------------------------------------------------------------*/
FoamFile
{
    version     2.0;
    format      ascii;
    class       volScalarField;
    location    "0.0175";
    object      rhoM;
}
// * * * * * * * * * * * * * * * * * * * * * * * * * * * * * * * * * * * * * //

dimensions      [1 -3 0 0 0 0 0];

internalField   nonuniform List<scalar> 
1000
(
9.70222e-06
9.73013e-06
9.56273e-06
9.44415e-06
9.7092e-06
9.18608e-06
9.64643e-06
9.72315e-06
9.27675e-06
9.50693e-06
9.63248e-06
9.3744e-06
9.20002e-06
9.66038e-06
9.4302e-06
9.63945e-06
9.47205e-06
9.85568e-06
9.43718e-06
9.6255e-06
9.52087e-06
9.61155e-06
9.75105e-06
9.74408e-06
9.5697e-06
9.82778e-06
9.61853e-06
9.66038e-06
9.40927e-06
9.7092e-06
9.39533e-06
9.49995e-06
9.1233e-06
9.6813e-06
9.45112e-06
9.9324e-06
9.52087e-06
9.33255e-06
9.75105e-06
9.68828e-06
9.67432e-06
9.73013e-06
9.33255e-06
9.46508e-06
9.67432e-06
9.6534e-06
9.45112e-06
9.52785e-06
9.84172e-06
9.44415e-06
9.44415e-06
1.00928e-05
9.60457e-06
9.46508e-06
9.64642e-06
9.86963e-06
9.83475e-06
9.207e-06
1.00091e-05
9.44415e-06
9.28372e-06
9.46508e-06
9.84172e-06
9.77198e-06
1.01486e-05
9.30465e-06
9.84172e-06
9.22095e-06
9.49995e-06
9.5697e-06
9.00472e-06
9.49995e-06
9.94635e-06
9.41625e-06
9.20002e-06
9.86963e-06
9.10237e-06
9.49995e-06
9.70222e-06
9.06053e-06
9.6813e-06
9.98123e-06
9.75105e-06
9.75803e-06
9.88357e-06
9.13028e-06
9.27675e-06
9.36743e-06
9.82777e-06
9.20003e-06
9.80685e-06
9.5139e-06
9.57667e-06
9.04658e-06
9.72315e-06
9.79988e-06
9.72315e-06
9.32557e-06
9.52785e-06
9.79988e-06
9.36045e-06
9.207e-06
9.68828e-06
9.6813e-06
9.83475e-06
9.3186e-06
9.63248e-06
9.66038e-06
9.75105e-06
9.60457e-06
9.47903e-06
9.01868e-06
9.69525e-06
9.84172e-06
9.54878e-06
9.4023e-06
9.3465e-06
1.01695e-05
9.6255e-06
9.4023e-06
9.47205e-06
9.52087e-06
9.5697e-06
9.66038e-06
9.6534e-06
9.64642e-06
9.6255e-06
9.63945e-06
9.38835e-06
9.35347e-06
9.46508e-06
9.44415e-06
9.63945e-06
9.28372e-06
9.30465e-06
9.5697e-06
9.06053e-06
9.77895e-06
9.05355e-06
9.99518e-06
9.63945e-06
9.73012e-06
9.04658e-06
9.84173e-06
9.24885e-06
9.5697e-06
9.38138e-06
9.61853e-06
9.47205e-06
9.4581e-06
9.73013e-06
9.08145e-06
9.93938e-06
9.41625e-06
9.64643e-06
9.44415e-06
9.43718e-06
9.47205e-06
9.07448e-06
9.10935e-06
9.1233e-06
9.49297e-06
9.66735e-06
9.36045e-06
1.00301e-05
9.22792e-06
9.10238e-06
9.17212e-06
9.7092e-06
9.8208e-06
9.38835e-06
9.61155e-06
8.99775e-06
9.40927e-06
9.46508e-06
9.0396e-06
9.4302e-06
9.52087e-06
9.5418e-06
9.0954e-06
9.55575e-06
9.4302e-06
9.13725e-06
9.32557e-06
9.3744e-06
9.81382e-06
9.35348e-06
9.33952e-06
8.9838e-06
8.94892e-06
9.29768e-06
9.22095e-06
9.2349e-06
9.31162e-06
9.46508e-06
9.25582e-06
9.39533e-06
9.07447e-06
9.24885e-06
8.99077e-06
9.36743e-06
9.26977e-06
9.11633e-06
9.22095e-06
9.28373e-06
9.7371e-06
9.42323e-06
9.0675e-06
9.5139e-06
8.86522e-06
9.13725e-06
9.38835e-06
9.31163e-06
9.3465e-06
9.03263e-06
9.4302e-06
9.25583e-06
8.94892e-06
9.39533e-06
9.33255e-06
8.8722e-06
9.22793e-06
9.01868e-06
8.83035e-06
8.91405e-06
9.0675e-06
9.17213e-06
8.7327e-06
9.08843e-06
9.0954e-06
9.08843e-06
8.928e-06
8.87918e-06
9.07448e-06
8.9001e-06
9.01868e-06
8.75363e-06
8.99775e-06
8.8722e-06
9.45113e-06
9.04658e-06
8.2026e-06
8.66295e-06
8.55135e-06
9.13725e-06
9.1233e-06
9.06053e-06
8.72573e-06
8.71178e-06
8.32815e-06
8.50253e-06
8.7048e-06
8.89313e-06
8.7606e-06
8.58623e-06
9.03263e-06
8.66993e-06
8.65598e-06
8.86523e-06
8.74665e-06
8.6211e-06
9.13028e-06
8.54438e-06
8.78153e-06
8.64203e-06
8.23748e-06
8.649e-06
8.60018e-06
8.36303e-06
8.46765e-06
8.57925e-06
8.24445e-06
8.1189e-06
7.8678e-06
8.2863e-06
8.46765e-06
8.3979e-06
8.12588e-06
8.21655e-06
7.6725e-06
8.35605e-06
8.6211e-06
8.23748e-06
8.19563e-06
7.73528e-06
8.07705e-06
8.21655e-06
7.9794e-06
8.0073e-06
7.93058e-06
8.05613e-06
8.4816e-06
7.6725e-06
7.59578e-06
8.04915e-06
8.23748e-06
8.00033e-06
8.20958e-06
7.6725e-06
7.96545e-06
7.67948e-06
7.69343e-06
7.74225e-06
7.63065e-06
7.32375e-06
7.43535e-06
7.88175e-06
7.73528e-06
7.35165e-06
7.43535e-06
7.2819e-06
7.58183e-06
7.44233e-06
7.65855e-06
7.79805e-06
7.6725e-06
7.20518e-06
8.2584e-06
7.02383e-06
7.0587e-06
7.7841e-06
6.88433e-06
7.09358e-06
7.44233e-06
7.35863e-06
7.46325e-06
6.98198e-06
7.28888e-06
7.00988e-06
7.32375e-06
6.74483e-06
7.47023e-06
7.49115e-06
7.60275e-06
7.3098e-06
7.26098e-06
7.24005e-06
7.28888e-06
7.20518e-06
7.09358e-06
7.24005e-06
6.87735e-06
7.21215e-06
7.09358e-06
7.4214e-06
6.91223e-06
6.99593e-06
7.02383e-06
6.88433e-06
6.57045e-06
7.0866e-06
6.60533e-06
6.75878e-06
7.14938e-06
6.80063e-06
7.1703e-06
7.0866e-06
7.15635e-06
7.0308e-06
7.02383e-06
6.82155e-06
6.31238e-06
6.79365e-06
6.74483e-06
6.50768e-06
6.94013e-06
6.70298e-06
6.76575e-06
6.43095e-06
6.45885e-06
6.57045e-06
6.62625e-06
6.7239e-06
6.75878e-06
5.92875e-06
6.59138e-06
6.73088e-06
6.23565e-06
6.7797e-06
6.4728e-06
6.73785e-06
6.2217e-06
6.4449e-06
6.56348e-06
6.50768e-06
6.6681e-06
6.43095e-06
6.29843e-06
6.35423e-06
6.1101e-06
6.68205e-06
6.5844e-06
5.8869e-06
6.26355e-06
6.3054e-06
6.21473e-06
6.34725e-06
6.2496e-06
6.3891e-06
6.3612e-06
6.17985e-06
6.2217e-06
6.43095e-06
6.48675e-06
6.13103e-06
6.41003e-06
6.46583e-06
6.47978e-06
5.9148e-06
6.48675e-06
6.01245e-06
6.5565e-06
6.45188e-06
6.38213e-06
6.2775e-06
6.0822e-06
6.0264e-06
5.58e-06
6.09615e-06
6.21473e-06
6.36818e-06
6.12405e-06
6.17288e-06
6.48675e-06
6.11708e-06
6.26355e-06
5.9985e-06
6.2496e-06
6.31238e-06
6.42398e-06
6.26355e-06
6.20078e-06
6.15893e-06
5.95665e-06
6.47978e-06
6.03338e-06
6.2775e-06
6.36818e-06
6.06128e-06
6.17288e-06
5.97758e-06
6.32633e-06
6.138e-06
5.83808e-06
6.00548e-06
6.1101e-06
5.96363e-06
5.71253e-06
6.29843e-06
5.7195e-06
5.94968e-06
5.94968e-06
5.93573e-06
5.83808e-06
5.75438e-06
6.29843e-06
6.1938e-06
6.10313e-06
5.92875e-06
5.71253e-06
5.58698e-06
6.26355e-06
5.75438e-06
6.34028e-06
5.81715e-06
5.67068e-06
6.1101e-06
6.06825e-06
5.99153e-06
6.10313e-06
5.9427e-06
5.9148e-06
6.3891e-06
6.0543e-06
5.9706e-06
5.87993e-06
5.94968e-06
6.0822e-06
6.03338e-06
6.3333e-06
5.84505e-06
5.92875e-06
5.9706e-06
6.01943e-06
6.0822e-06
6.15195e-06
5.90783e-06
6.0543e-06
6.17288e-06
5.7753e-06
5.6358e-06
5.90783e-06
5.8032e-06
5.79623e-06
5.94968e-06
5.85203e-06
5.859e-06
5.43353e-06
6.01943e-06
5.55908e-06
6.3054e-06
6.34028e-06
6.138e-06
5.76833e-06
5.92875e-06
6.1101e-06
5.58e-06
5.53815e-06
5.87993e-06
6.2217e-06
5.64278e-06
6.04035e-06
5.81018e-06
5.99153e-06
5.74043e-06
5.71253e-06
5.3568e-06
6.4728e-06
5.72648e-06
5.76135e-06
5.58e-06
5.2731e-06
5.99153e-06
5.9706e-06
6.1938e-06
5.81715e-06
5.859e-06
5.74043e-06
5.81018e-06
6.15893e-06
5.4684e-06
5.65673e-06
5.78925e-06
6.00548e-06
5.76135e-06
5.6079e-06
5.9427e-06
5.87993e-06
5.7753e-06
5.64278e-06
5.75438e-06
5.74043e-06
6.22868e-06
5.7195e-06
5.64975e-06
5.54513e-06
5.72648e-06
5.94968e-06
5.7474e-06
5.40563e-06
5.859e-06
5.67068e-06
5.87295e-06
5.53815e-06
5.68463e-06
5.78228e-06
5.6079e-06
5.9148e-06
6.01943e-06
5.50328e-06
5.87295e-06
5.64278e-06
5.7195e-06
5.72648e-06
5.69858e-06
5.98455e-06
5.51025e-06
5.87295e-06
5.57303e-06
5.99153e-06
6.15893e-06
5.7474e-06
5.90085e-06
5.70555e-06
5.8311e-06
5.70555e-06
5.26613e-06
5.67765e-06
5.79623e-06
5.30798e-06
5.9985e-06
5.67068e-06
5.53815e-06
5.81715e-06
5.2731e-06
5.78228e-06
5.61488e-06
5.2173e-06
5.47538e-06
5.55908e-06
5.89388e-06
5.75438e-06
5.4405e-06
5.78228e-06
5.75438e-06
5.48235e-06
5.68463e-06
5.87993e-06
5.4684e-06
5.6637e-06
5.31495e-06
5.7474e-06
5.58698e-06
5.54513e-06
5.6916e-06
5.40563e-06
5.85203e-06
5.37773e-06
5.7195e-06
5.67765e-06
5.43353e-06
5.26613e-06
5.5521e-06
5.41958e-06
5.58698e-06
5.78228e-06
5.67765e-06
6.0264e-06
5.59395e-06
5.65673e-06
5.81018e-06
5.56605e-06
5.62883e-06
5.9706e-06
5.34285e-06
5.65673e-06
5.859e-06
5.78925e-06
5.72648e-06
5.64975e-06
5.54513e-06
5.92875e-06
5.33588e-06
5.64278e-06
5.6916e-06
5.76833e-06
5.58e-06
5.55908e-06
5.70555e-06
5.08478e-06
5.78925e-06
5.1336e-06
5.72648e-06
5.8311e-06
5.37773e-06
5.53118e-06
5.47538e-06
5.65673e-06
5.25218e-06
5.62185e-06
5.17545e-06
5.3568e-06
5.1615e-06
5.48933e-06
5.39865e-06
5.58698e-06
5.28705e-06
5.50328e-06
5.55908e-06
5.67068e-06
5.78228e-06
5.23823e-06
5.64278e-06
5.9427e-06
5.3847e-06
5.51025e-06
5.18243e-06
5.3289e-06
5.50328e-06
5.93573e-06
5.59395e-06
5.2731e-06
5.56605e-06
5.40563e-06
5.3568e-06
5.4126e-06
5.57303e-06
5.79623e-06
5.69858e-06
5.51025e-06
5.3568e-06
5.3568e-06
5.42655e-06
5.18243e-06
5.16848e-06
5.1336e-06
5.1615e-06
5.79623e-06
5.33588e-06
5.50328e-06
5.1057e-06
5.67068e-06
5.48933e-06
5.34285e-06
5.14755e-06
5.78228e-06
5.08478e-06
5.25218e-06
5.16848e-06
5.3289e-06
5.11965e-06
5.47538e-06
5.73345e-06
5.3568e-06
4.90343e-06
5.3568e-06
5.28705e-06
5.62185e-06
5.36378e-06
5.29403e-06
5.7474e-06
5.46143e-06
5.71253e-06
5.3289e-06
5.16848e-06
5.02898e-06
5.14755e-06
5.022e-06
5.51025e-06
5.6916e-06
5.64278e-06
5.43353e-06
5.4963e-06
5.09873e-06
5.34285e-06
5.30798e-06
5.32193e-06
5.34285e-06
5.16848e-06
5.41958e-06
5.23823e-06
5.3568e-06
5.28008e-06
5.15453e-06
5.301e-06
5.5242e-06
5.34285e-06
5.37773e-06
5.34285e-06
5.33588e-06
5.31495e-06
5.30798e-06
5.39865e-06
5.26613e-06
5.25218e-06
5.4684e-06
5.28008e-06
5.11268e-06
5.06385e-06
5.23125e-06
5.25218e-06
5.0778e-06
5.62185e-06
5.61488e-06
5.1057e-06
5.2731e-06
5.06385e-06
5.2173e-06
5.22428e-06
4.93133e-06
5.03595e-06
4.95923e-06
5.48235e-06
5.26613e-06
5.02898e-06
5.34285e-06
5.1057e-06
5.11965e-06
5.14755e-06
5.31495e-06
5.0499e-06
4.90343e-06
5.20335e-06
4.95225e-06
5.4126e-06
4.95225e-06
5.50328e-06
5.3289e-06
5.00805e-06
5.62185e-06
5.02898e-06
5.59395e-06
5.01502e-06
5.00805e-06
5.2173e-06
5.34285e-06
4.94527e-06
5.20335e-06
5.23125e-06
5.25915e-06
5.23822e-06
5.60093e-06
5.42655e-06
5.34983e-06
4.95922e-06
5.22428e-06
5.60092e-06
5.19638e-06
5.09872e-06
4.7151e-06
4.9941e-06
5.3847e-06
5.37772e-06
5.06385e-06
5.33587e-06
5.2452e-06
5.32192e-06
5.1894e-06
5.39865e-06
4.95225e-06
4.9941e-06
5.29403e-06
5.05687e-06
5.15453e-06
5.32192e-06
5.30798e-06
4.7988e-06
5.0499e-06
5.11965e-06
5.68463e-06
5.39865e-06
5.1336e-06
5.48932e-06
5.17545e-06
5.1615e-06
5.07083e-06
5.42655e-06
5.57303e-06
5.2731e-06
5.12663e-06
5.03595e-06
5.22428e-06
4.83367e-06
4.97318e-06
4.86855e-06
5.54513e-06
5.18242e-06
5.48933e-06
5.11267e-06
5.14755e-06
5.11267e-06
4.86158e-06
5.03595e-06
5.12663e-06
5.12663e-06
5.11268e-06
5.30797e-06
4.89645e-06
5.30798e-06
5.44748e-06
5.14057e-06
4.84065e-06
5.26613e-06
5.23125e-06
5.05687e-06
5.09175e-06
4.86855e-06
5.19638e-06
5.37075e-06
5.11268e-06
4.91738e-06
5.31495e-06
5.31495e-06
5.14755e-06
5.0778e-06
5.03595e-06
5.34285e-06
4.7709e-06
5.1894e-06
5.14755e-06
5.05687e-06
4.98713e-06
5.00108e-06
5.44748e-06
4.84762e-06
5.3289e-06
5.37773e-06
5.0778e-06
4.80577e-06
5.11268e-06
5.11268e-06
4.8267e-06
4.97317e-06
4.86158e-06
5.02898e-06
4.8825e-06
4.7988e-06
5.04293e-06
5.11965e-06
5.37773e-06
5.07082e-06
4.89645e-06
5.4126e-06
5.3568e-06
4.8267e-06
5.301e-06
5.1336e-06
5.23125e-06
5.1615e-06
5.04293e-06
5.16848e-06
4.55468e-06
5.30797e-06
5.03595e-06
4.95923e-06
5.23125e-06
5.03595e-06
4.86157e-06
5.30798e-06
4.98015e-06
5.14755e-06
5.25915e-06
4.9662e-06
4.8546e-06
5.00108e-06
4.95922e-06
4.89645e-06
4.7988e-06
5.09873e-06
5.15452e-06
5.09873e-06
5.0499e-06
5.1615e-06
5.12662e-06
4.88948e-06
4.93132e-06
5.03595e-06
4.98712e-06
4.91738e-06
4.94527e-06
4.92435e-06
4.87552e-06
4.7988e-06
5.2173e-06
4.92435e-06
4.79182e-06
4.98015e-06
5.1894e-06
5.18243e-06
5.19637e-06
5.03595e-06
5.0778e-06
4.95923e-06
5.1336e-06
5.1894e-06
5.11267e-06
4.8825e-06
5.00107e-06
5.28705e-06
4.9383e-06
5.34983e-06
4.89645e-06
4.80578e-06
5.00805e-06
5.09873e-06
5.02897e-06
4.98713e-06
5.25915e-06
5.19638e-06
5.11267e-06
5.1336e-06
5.06385e-06
4.91738e-06
5.28705e-06
5.32193e-06
4.81275e-06
4.89645e-06
4.9941e-06
4.78485e-06
4.91738e-06
5.09175e-06
4.98712e-06
5.14755e-06
5.19638e-06
4.8267e-06
5.28705e-06
5.05688e-06
4.9104e-06
5.22428e-06
5.12662e-06
5.03595e-06
5.02898e-06
5.29403e-06
4.8825e-06
5.11268e-06
5.19638e-06
5.47538e-06
4.5477e-06
4.9941e-06
4.95923e-06
4.92435e-06
4.84762e-06
4.93133e-06
4.98015e-06
4.8546e-06
5.23822e-06
4.87553e-06
5.00805e-06
4.86855e-06
4.90342e-06
)
;

boundaryField
{
    sides
    {
        type            symmetry;
    }
    empty
    {
        type            empty;
    }
}


// ************************************************************************* //
