/*--------------------------------*- C++ -*----------------------------------*\
  =========                 |
  \\      /  F ield         | OpenFOAM: The Open Source CFD Toolbox
   \\    /   O peration     | Website:  https://openfoam.org
    \\  /    A nd           | Version:  7
     \\/     M anipulation  |
\*---------------------------------------------------------------------------*/
FoamFile
{
    version     2.0;
    format      ascii;
    class       volScalarField;
    location    "0.0175";
    object      rhoN;
}
// * * * * * * * * * * * * * * * * * * * * * * * * * * * * * * * * * * * * * //

dimensions      [0 -3 0 0 0 0 0];

internalField   nonuniform List<scalar> 
1000
(
2.0865e+20
2.0925e+20
2.0565e+20
2.031e+20
2.088e+20
1.9755e+20
2.0745e+20
2.091e+20
1.995e+20
2.0445e+20
2.0715e+20
2.016e+20
1.9785e+20
2.0775e+20
2.028e+20
2.073e+20
2.037e+20
2.1195e+20
2.0295e+20
2.07e+20
2.0475e+20
2.067e+20
2.097e+20
2.0955e+20
2.058e+20
2.1135e+20
2.0685e+20
2.0775e+20
2.0235e+20
2.088e+20
2.0205e+20
2.043e+20
1.962e+20
2.082e+20
2.0325e+20
2.136e+20
2.0475e+20
2.007e+20
2.097e+20
2.0835e+20
2.0805e+20
2.0925e+20
2.007e+20
2.0355e+20
2.0805e+20
2.076e+20
2.0325e+20
2.049e+20
2.1165e+20
2.031e+20
2.031e+20
2.1705e+20
2.0655e+20
2.0355e+20
2.0745e+20
2.1225e+20
2.115e+20
1.98e+20
2.1525e+20
2.031e+20
1.9965e+20
2.0355e+20
2.1165e+20
2.1015e+20
2.1825e+20
2.001e+20
2.1165e+20
1.983e+20
2.043e+20
2.058e+20
1.9365e+20
2.043e+20
2.139e+20
2.025e+20
1.9785e+20
2.1225e+20
1.9575e+20
2.043e+20
2.0865e+20
1.9485e+20
2.082e+20
2.1465e+20
2.097e+20
2.0985e+20
2.1255e+20
1.9635e+20
1.995e+20
2.0145e+20
2.1135e+20
1.9785e+20
2.109e+20
2.046e+20
2.0595e+20
1.9455e+20
2.091e+20
2.1075e+20
2.091e+20
2.0055e+20
2.049e+20
2.1075e+20
2.013e+20
1.98e+20
2.0835e+20
2.082e+20
2.115e+20
2.004e+20
2.0715e+20
2.0775e+20
2.097e+20
2.0655e+20
2.0385e+20
1.9395e+20
2.085e+20
2.1165e+20
2.0535e+20
2.022e+20
2.01e+20
2.187e+20
2.07e+20
2.022e+20
2.037e+20
2.0475e+20
2.058e+20
2.0775e+20
2.076e+20
2.0745e+20
2.07e+20
2.073e+20
2.019e+20
2.0115e+20
2.0355e+20
2.031e+20
2.073e+20
1.9965e+20
2.001e+20
2.058e+20
1.9485e+20
2.103e+20
1.947e+20
2.1495e+20
2.073e+20
2.0925e+20
1.9455e+20
2.1165e+20
1.989e+20
2.058e+20
2.0175e+20
2.0685e+20
2.037e+20
2.034e+20
2.0925e+20
1.953e+20
2.1375e+20
2.025e+20
2.0745e+20
2.031e+20
2.0295e+20
2.037e+20
1.9515e+20
1.959e+20
1.962e+20
2.0415e+20
2.079e+20
2.013e+20
2.157e+20
1.9845e+20
1.9575e+20
1.9725e+20
2.088e+20
2.112e+20
2.019e+20
2.067e+20
1.935e+20
2.0235e+20
2.0355e+20
1.944e+20
2.028e+20
2.0475e+20
2.052e+20
1.956e+20
2.055e+20
2.028e+20
1.965e+20
2.0055e+20
2.016e+20
2.1105e+20
2.0115e+20
2.0085e+20
1.932e+20
1.9245e+20
1.9995e+20
1.983e+20
1.986e+20
2.0025e+20
2.0355e+20
1.9905e+20
2.0205e+20
1.9515e+20
1.989e+20
1.9335e+20
2.0145e+20
1.9935e+20
1.9605e+20
1.983e+20
1.9965e+20
2.094e+20
2.0265e+20
1.95e+20
2.046e+20
1.9065e+20
1.965e+20
2.019e+20
2.0025e+20
2.01e+20
1.9425e+20
2.028e+20
1.9905e+20
1.9245e+20
2.0205e+20
2.007e+20
1.908e+20
1.9845e+20
1.9395e+20
1.899e+20
1.917e+20
1.95e+20
1.9725e+20
1.878e+20
1.9545e+20
1.956e+20
1.9545e+20
1.92e+20
1.9095e+20
1.9515e+20
1.914e+20
1.9395e+20
1.8825e+20
1.935e+20
1.908e+20
2.0325e+20
1.9455e+20
1.764e+20
1.863e+20
1.839e+20
1.965e+20
1.962e+20
1.9485e+20
1.8765e+20
1.8735e+20
1.791e+20
1.8285e+20
1.872e+20
1.9125e+20
1.884e+20
1.8465e+20
1.9425e+20
1.8645e+20
1.8615e+20
1.9065e+20
1.881e+20
1.854e+20
1.9635e+20
1.8375e+20
1.8885e+20
1.8585e+20
1.7715e+20
1.86e+20
1.8495e+20
1.7985e+20
1.821e+20
1.845e+20
1.773e+20
1.746e+20
1.692e+20
1.782e+20
1.821e+20
1.806e+20
1.7475e+20
1.767e+20
1.65e+20
1.797e+20
1.854e+20
1.7715e+20
1.7625e+20
1.6635e+20
1.737e+20
1.767e+20
1.716e+20
1.722e+20
1.7055e+20
1.7325e+20
1.824e+20
1.65e+20
1.6335e+20
1.731e+20
1.7715e+20
1.7205e+20
1.7655e+20
1.65e+20
1.713e+20
1.6515e+20
1.6545e+20
1.665e+20
1.641e+20
1.575e+20
1.599e+20
1.695e+20
1.6635e+20
1.581e+20
1.599e+20
1.566e+20
1.6305e+20
1.6005e+20
1.647e+20
1.677e+20
1.65e+20
1.5495e+20
1.776e+20
1.5105e+20
1.518e+20
1.674e+20
1.4805e+20
1.5255e+20
1.6005e+20
1.5825e+20
1.605e+20
1.5015e+20
1.5675e+20
1.5075e+20
1.575e+20
1.4505e+20
1.6065e+20
1.611e+20
1.635e+20
1.572e+20
1.5615e+20
1.557e+20
1.5675e+20
1.5495e+20
1.5255e+20
1.557e+20
1.479e+20
1.551e+20
1.5255e+20
1.596e+20
1.4865e+20
1.5045e+20
1.5105e+20
1.4805e+20
1.413e+20
1.524e+20
1.4205e+20
1.4535e+20
1.5375e+20
1.4625e+20
1.542e+20
1.524e+20
1.539e+20
1.512e+20
1.5105e+20
1.467e+20
1.3575e+20
1.461e+20
1.4505e+20
1.3995e+20
1.4925e+20
1.4415e+20
1.455e+20
1.383e+20
1.389e+20
1.413e+20
1.425e+20
1.446e+20
1.4535e+20
1.275e+20
1.4175e+20
1.4475e+20
1.341e+20
1.458e+20
1.392e+20
1.449e+20
1.338e+20
1.386e+20
1.4115e+20
1.3995e+20
1.434e+20
1.383e+20
1.3545e+20
1.3665e+20
1.314e+20
1.437e+20
1.416e+20
1.266e+20
1.347e+20
1.356e+20
1.3365e+20
1.365e+20
1.344e+20
1.374e+20
1.368e+20
1.329e+20
1.338e+20
1.383e+20
1.395e+20
1.3185e+20
1.3785e+20
1.3905e+20
1.3935e+20
1.272e+20
1.395e+20
1.293e+20
1.41e+20
1.3875e+20
1.3725e+20
1.35e+20
1.308e+20
1.296e+20
1.2e+20
1.311e+20
1.3365e+20
1.3695e+20
1.317e+20
1.3275e+20
1.395e+20
1.3155e+20
1.347e+20
1.29e+20
1.344e+20
1.3575e+20
1.3815e+20
1.347e+20
1.3335e+20
1.3245e+20
1.281e+20
1.3935e+20
1.2975e+20
1.35e+20
1.3695e+20
1.3035e+20
1.3275e+20
1.2855e+20
1.3605e+20
1.32e+20
1.2555e+20
1.2915e+20
1.314e+20
1.2825e+20
1.2285e+20
1.3545e+20
1.23e+20
1.2795e+20
1.2795e+20
1.2765e+20
1.2555e+20
1.2375e+20
1.3545e+20
1.332e+20
1.3125e+20
1.275e+20
1.2285e+20
1.2015e+20
1.347e+20
1.2375e+20
1.3635e+20
1.251e+20
1.2195e+20
1.314e+20
1.305e+20
1.2885e+20
1.3125e+20
1.278e+20
1.272e+20
1.374e+20
1.302e+20
1.284e+20
1.2645e+20
1.2795e+20
1.308e+20
1.2975e+20
1.362e+20
1.257e+20
1.275e+20
1.284e+20
1.2945e+20
1.308e+20
1.323e+20
1.2705e+20
1.302e+20
1.3275e+20
1.242e+20
1.212e+20
1.2705e+20
1.248e+20
1.2465e+20
1.2795e+20
1.2585e+20
1.26e+20
1.1685e+20
1.2945e+20
1.1955e+20
1.356e+20
1.3635e+20
1.32e+20
1.2405e+20
1.275e+20
1.314e+20
1.2e+20
1.191e+20
1.2645e+20
1.338e+20
1.2135e+20
1.299e+20
1.2495e+20
1.2885e+20
1.2345e+20
1.2285e+20
1.152e+20
1.392e+20
1.2315e+20
1.239e+20
1.2e+20
1.134e+20
1.2885e+20
1.284e+20
1.332e+20
1.251e+20
1.26e+20
1.2345e+20
1.2495e+20
1.3245e+20
1.176e+20
1.2165e+20
1.245e+20
1.2915e+20
1.239e+20
1.206e+20
1.278e+20
1.2645e+20
1.242e+20
1.2135e+20
1.2375e+20
1.2345e+20
1.3395e+20
1.23e+20
1.215e+20
1.1925e+20
1.2315e+20
1.2795e+20
1.236e+20
1.1625e+20
1.26e+20
1.2195e+20
1.263e+20
1.191e+20
1.2225e+20
1.2435e+20
1.206e+20
1.272e+20
1.2945e+20
1.1835e+20
1.263e+20
1.2135e+20
1.23e+20
1.2315e+20
1.2255e+20
1.287e+20
1.185e+20
1.263e+20
1.1985e+20
1.2885e+20
1.3245e+20
1.236e+20
1.269e+20
1.227e+20
1.254e+20
1.227e+20
1.1325e+20
1.221e+20
1.2465e+20
1.1415e+20
1.29e+20
1.2195e+20
1.191e+20
1.251e+20
1.134e+20
1.2435e+20
1.2075e+20
1.122e+20
1.1775e+20
1.1955e+20
1.2675e+20
1.2375e+20
1.17e+20
1.2435e+20
1.2375e+20
1.179e+20
1.2225e+20
1.2645e+20
1.176e+20
1.218e+20
1.143e+20
1.236e+20
1.2015e+20
1.1925e+20
1.224e+20
1.1625e+20
1.2585e+20
1.1565e+20
1.23e+20
1.221e+20
1.1685e+20
1.1325e+20
1.194e+20
1.1655e+20
1.2015e+20
1.2435e+20
1.221e+20
1.296e+20
1.203e+20
1.2165e+20
1.2495e+20
1.197e+20
1.2105e+20
1.284e+20
1.149e+20
1.2165e+20
1.26e+20
1.245e+20
1.2315e+20
1.215e+20
1.1925e+20
1.275e+20
1.1475e+20
1.2135e+20
1.224e+20
1.2405e+20
1.2e+20
1.1955e+20
1.227e+20
1.0935e+20
1.245e+20
1.104e+20
1.2315e+20
1.254e+20
1.1565e+20
1.1895e+20
1.1775e+20
1.2165e+20
1.1295e+20
1.209e+20
1.113e+20
1.152e+20
1.11e+20
1.1805e+20
1.161e+20
1.2015e+20
1.137e+20
1.1835e+20
1.1955e+20
1.2195e+20
1.2435e+20
1.1265e+20
1.2135e+20
1.278e+20
1.158e+20
1.185e+20
1.1145e+20
1.146e+20
1.1835e+20
1.2765e+20
1.203e+20
1.134e+20
1.197e+20
1.1625e+20
1.152e+20
1.164e+20
1.1985e+20
1.2465e+20
1.2255e+20
1.185e+20
1.152e+20
1.152e+20
1.167e+20
1.1145e+20
1.1115e+20
1.104e+20
1.11e+20
1.2465e+20
1.1475e+20
1.1835e+20
1.098e+20
1.2195e+20
1.1805e+20
1.149e+20
1.107e+20
1.2435e+20
1.0935e+20
1.1295e+20
1.1115e+20
1.146e+20
1.101e+20
1.1775e+20
1.233e+20
1.152e+20
1.0545e+20
1.152e+20
1.137e+20
1.209e+20
1.1535e+20
1.1385e+20
1.236e+20
1.1745e+20
1.2285e+20
1.146e+20
1.1115e+20
1.0815e+20
1.107e+20
1.08e+20
1.185e+20
1.224e+20
1.2135e+20
1.1685e+20
1.182e+20
1.0965e+20
1.149e+20
1.1415e+20
1.1445e+20
1.149e+20
1.1115e+20
1.1655e+20
1.1265e+20
1.152e+20
1.1355e+20
1.1085e+20
1.14e+20
1.188e+20
1.149e+20
1.1565e+20
1.149e+20
1.1475e+20
1.143e+20
1.1415e+20
1.161e+20
1.1325e+20
1.1295e+20
1.176e+20
1.1355e+20
1.0995e+20
1.089e+20
1.125e+20
1.1295e+20
1.092e+20
1.209e+20
1.2075e+20
1.098e+20
1.134e+20
1.089e+20
1.122e+20
1.1235e+20
1.0605e+20
1.083e+20
1.0665e+20
1.179e+20
1.1325e+20
1.0815e+20
1.149e+20
1.098e+20
1.101e+20
1.107e+20
1.143e+20
1.086e+20
1.0545e+20
1.119e+20
1.065e+20
1.164e+20
1.065e+20
1.1835e+20
1.146e+20
1.077e+20
1.209e+20
1.0815e+20
1.203e+20
1.0785e+20
1.077e+20
1.122e+20
1.149e+20
1.0635e+20
1.119e+20
1.125e+20
1.131e+20
1.1265e+20
1.2045e+20
1.167e+20
1.1505e+20
1.0665e+20
1.1235e+20
1.2045e+20
1.1175e+20
1.0965e+20
1.014e+20
1.074e+20
1.158e+20
1.1565e+20
1.089e+20
1.1475e+20
1.128e+20
1.1445e+20
1.116e+20
1.161e+20
1.065e+20
1.074e+20
1.1385e+20
1.0875e+20
1.1085e+20
1.1445e+20
1.1415e+20
1.032e+20
1.086e+20
1.101e+20
1.2225e+20
1.161e+20
1.104e+20
1.1805e+20
1.113e+20
1.11e+20
1.0905e+20
1.167e+20
1.1985e+20
1.134e+20
1.1025e+20
1.083e+20
1.1235e+20
1.0395e+20
1.0695e+20
1.047e+20
1.1925e+20
1.1145e+20
1.1805e+20
1.0995e+20
1.107e+20
1.0995e+20
1.0455e+20
1.083e+20
1.1025e+20
1.1025e+20
1.0995e+20
1.1415e+20
1.053e+20
1.1415e+20
1.1715e+20
1.1055e+20
1.041e+20
1.1325e+20
1.125e+20
1.0875e+20
1.095e+20
1.047e+20
1.1175e+20
1.155e+20
1.0995e+20
1.0575e+20
1.143e+20
1.143e+20
1.107e+20
1.092e+20
1.083e+20
1.149e+20
1.026e+20
1.116e+20
1.107e+20
1.0875e+20
1.0725e+20
1.0755e+20
1.1715e+20
1.0425e+20
1.146e+20
1.1565e+20
1.092e+20
1.0335e+20
1.0995e+20
1.0995e+20
1.038e+20
1.0695e+20
1.0455e+20
1.0815e+20
1.05e+20
1.032e+20
1.0845e+20
1.101e+20
1.1565e+20
1.0905e+20
1.053e+20
1.164e+20
1.152e+20
1.038e+20
1.14e+20
1.104e+20
1.125e+20
1.11e+20
1.0845e+20
1.1115e+20
9.795e+19
1.1415e+20
1.083e+20
1.0665e+20
1.125e+20
1.083e+20
1.0455e+20
1.1415e+20
1.071e+20
1.107e+20
1.131e+20
1.068e+20
1.044e+20
1.0755e+20
1.0665e+20
1.053e+20
1.032e+20
1.0965e+20
1.1085e+20
1.0965e+20
1.086e+20
1.11e+20
1.1025e+20
1.0515e+20
1.0605e+20
1.083e+20
1.0725e+20
1.0575e+20
1.0635e+20
1.059e+20
1.0485e+20
1.032e+20
1.122e+20
1.059e+20
1.0305e+20
1.071e+20
1.116e+20
1.1145e+20
1.1175e+20
1.083e+20
1.092e+20
1.0665e+20
1.104e+20
1.116e+20
1.0995e+20
1.05e+20
1.0755e+20
1.137e+20
1.062e+20
1.1505e+20
1.053e+20
1.0335e+20
1.077e+20
1.0965e+20
1.0815e+20
1.0725e+20
1.131e+20
1.1175e+20
1.0995e+20
1.104e+20
1.089e+20
1.0575e+20
1.137e+20
1.1445e+20
1.035e+20
1.053e+20
1.074e+20
1.029e+20
1.0575e+20
1.095e+20
1.0725e+20
1.107e+20
1.1175e+20
1.038e+20
1.137e+20
1.0875e+20
1.056e+20
1.1235e+20
1.1025e+20
1.083e+20
1.0815e+20
1.1385e+20
1.05e+20
1.0995e+20
1.1175e+20
1.1775e+20
9.78e+19
1.074e+20
1.0665e+20
1.059e+20
1.0425e+20
1.0605e+20
1.071e+20
1.044e+20
1.1265e+20
1.0485e+20
1.077e+20
1.047e+20
1.0545e+20
)
;

boundaryField
{
    sides
    {
        type            symmetry;
    }
    empty
    {
        type            empty;
    }
}


// ************************************************************************* //
