/*--------------------------------*- C++ -*----------------------------------*\
  =========                 |
  \\      /  F ield         | OpenFOAM: The Open Source CFD Toolbox
   \\    /   O peration     | Website:  https://openfoam.org
    \\  /    A nd           | Version:  7
     \\/     M anipulation  |
\*---------------------------------------------------------------------------*/
FoamFile
{
    version     2.0;
    format      ascii;
    class       volScalarField;
    location    "0.0036";
    object      dsmcRhoN;
}
// * * * * * * * * * * * * * * * * * * * * * * * * * * * * * * * * * * * * * //

dimensions      [0 -3 0 0 0 0 0];

internalField   nonuniform List<scalar> 
125
(
191
167
200
166
193
188
193
165
215
160
177
168
157
187
184
183
176
185
206
167
199
197
180
190
192
159
144
173
177
165
196
187
170
187
199
174
178
182
191
187
174
166
169
195
145
84
69
81
77
62
58
75
82
82
63
89
68
70
73
74
87
88
62
71
83
75
82
62
68
90
79
81
67
70
75
87
90
63
62
62
68
82
79
79
68
70
67
74
67
67
83
82
81
73
73
76
61
79
94
89
74
93
64
76
80
78
60
82
71
75
64
71
58
65
81
77
69
72
87
76
84
69
83
76
66
)
;

boundaryField
{
    sides
    {
        type            symmetry;
    }
    empty
    {
        type            empty;
    }
    procBoundary3to2
    {
        type            processor;
        value           uniform 157;
    }
}


// ************************************************************************* //
