/*--------------------------------*- C++ -*----------------------------------*\
  =========                 |
  \\      /  F ield         | OpenFOAM: The Open Source CFD Toolbox
   \\    /   O peration     | Website:  https://openfoam.org
    \\  /    A nd           | Version:  7
     \\/     M anipulation  |
\*---------------------------------------------------------------------------*/
FoamFile
{
    version     2.0;
    format      ascii;
    class       volScalarField;
    location    "0.0036";
    object      iDof;
}
// * * * * * * * * * * * * * * * * * * * * * * * * * * * * * * * * * * * * * //

dimensions      [0 -3 0 0 0 0 0];

internalField   nonuniform List<scalar> 
125
(
1.36429e+23
1.19286e+23
1.42857e+23
1.18571e+23
1.37857e+23
1.34286e+23
1.37857e+23
1.17857e+23
1.53571e+23
1.14286e+23
1.26429e+23
1.2e+23
1.12143e+23
1.33571e+23
1.31429e+23
1.30714e+23
1.25714e+23
1.32143e+23
1.47143e+23
1.19286e+23
1.42143e+23
1.40714e+23
1.28571e+23
1.35714e+23
1.37143e+23
1.13571e+23
1.02857e+23
1.23571e+23
1.26429e+23
1.17857e+23
1.4e+23
1.33571e+23
1.21429e+23
1.33571e+23
1.42143e+23
1.24286e+23
1.27143e+23
1.3e+23
1.36429e+23
1.33571e+23
1.24286e+23
1.18571e+23
1.20714e+23
1.39286e+23
1.03571e+23
6e+22
4.92857e+22
5.78571e+22
5.5e+22
4.42857e+22
4.14286e+22
5.35714e+22
5.85714e+22
5.85714e+22
4.5e+22
6.35714e+22
4.85714e+22
5e+22
5.21429e+22
5.28571e+22
6.21429e+22
6.28571e+22
4.42857e+22
5.07143e+22
5.92857e+22
5.35714e+22
5.85714e+22
4.42857e+22
4.85714e+22
6.42857e+22
5.64286e+22
5.78571e+22
4.78571e+22
5e+22
5.35714e+22
6.21429e+22
6.42857e+22
4.5e+22
4.42857e+22
4.42857e+22
4.85714e+22
5.85714e+22
5.64286e+22
5.64286e+22
4.85714e+22
5e+22
4.78571e+22
5.28571e+22
4.78571e+22
4.78571e+22
5.92857e+22
5.85714e+22
5.78571e+22
5.21429e+22
5.21429e+22
5.42857e+22
4.35714e+22
5.64286e+22
6.71429e+22
6.35714e+22
5.28571e+22
6.64286e+22
4.57143e+22
5.42857e+22
5.71429e+22
5.57143e+22
4.28571e+22
5.85714e+22
5.07143e+22
5.35714e+22
4.57143e+22
5.07143e+22
4.14286e+22
4.64286e+22
5.78571e+22
5.5e+22
4.92857e+22
5.14286e+22
6.21429e+22
5.42857e+22
6e+22
4.92857e+22
5.92857e+22
5.42857e+22
4.71429e+22
)
;

boundaryField
{
    sides
    {
        type            symmetry;
    }
    empty
    {
        type            empty;
    }
    procBoundary3to2
    {
        type            processor;
        value           uniform 1.12143e+23;
    }
}


// ************************************************************************* //
