/*--------------------------------*- C++ -*----------------------------------*\
  =========                 |
  \\      /  F ield         | OpenFOAM: The Open Source CFD Toolbox
   \\    /   O peration     | Website:  https://openfoam.org
    \\  /    A nd           | Version:  7
     \\/     M anipulation  |
\*---------------------------------------------------------------------------*/
FoamFile
{
    version     2.0;
    format      ascii;
    class       volScalarField;
    location    "0.0036";
    object      internalE;
}
// * * * * * * * * * * * * * * * * * * * * * * * * * * * * * * * * * * * * * //

dimensions      [1 -1 -2 0 0 0 0];

internalField   nonuniform List<scalar> 
125
(
464.112
450.804
421.821
370.943
490.65
469.907
495.733
455.16
493.706
395.421
428.358
409.006
391.156
437.573
416.332
458.646
392.07
367.706
380.028
403.905
382.548
442.053
478.068
492.247
416.063
419.637
488.557
467.591
474.635
461.368
372.762
446.936
365.627
348.323
354.461
490.534
437.655
436.371
394.32
475.639
463.98
486.584
467.618
480.362
374.12
148.452
117.301
118.621
133.14
133.939
124.138
86.3884
104.812
85.1482
88.7715
103.737
113.209
122.706
143.622
111.256
103.401
116.794
103.057
83.7247
114.232
113.769
96.5879
121.397
88.2354
124.734
113.91
109.085
100.524
85.8452
148.558
122.77
135.827
75.6539
101.301
75.8582
127.349
120.058
114.815
113.803
95.1548
103.862
108.683
85.3857
96.8235
114.482
123.672
124.373
124.83
113.19
91.9431
115.053
134.483
95.1494
114.431
118.905
73.024
75.0301
120.803
90.1159
117.933
98.6367
112.772
134.327
110.889
114.112
119.074
123.501
100.633
111.603
103.712
102.838
120.969
113.817
119.718
103.983
116.666
97.7699
97.9817
110.098
158.223
)
;

boundaryField
{
    sides
    {
        type            symmetry;
    }
    empty
    {
        type            empty;
    }
    procBoundary3to2
    {
        type            processor;
        value           uniform 464.892;
    }
}


// ************************************************************************* //
