/*--------------------------------*- C++ -*----------------------------------*\
  =========                 |
  \\      /  F ield         | OpenFOAM: The Open Source CFD Toolbox
   \\    /   O peration     | Website:  https://openfoam.org
    \\  /    A nd           | Version:  7
     \\/     M anipulation  |
\*---------------------------------------------------------------------------*/
FoamFile
{
    version     2.0;
    format      ascii;
    class       volScalarField;
    location    "0.0036";
    object      internalE;
}
// * * * * * * * * * * * * * * * * * * * * * * * * * * * * * * * * * * * * * //

dimensions      [1 -1 -2 0 0 0 0];

internalField   nonuniform List<scalar> 
125
(
441.106
418.186
539.239
326.745
443.428
438.446
451.625
380.091
527.906
381.611
410.031
393.966
358.433
451.23
404.588
423.397
409.296
440.371
459.737
412.403
491.445
454.393
415.356
510.843
469.905
354.167
315.841
469.095
419.296
430.851
436.265
472.236
362.227
446.327
465.241
424.089
412.173
409.636
477.463
468.554
421.86
389.273
350.559
501.962
342.786
123.833
125.261
120.276
117.707
97.6566
90.4088
105.522
133.173
107.921
112.966
150.089
102.177
108.205
113.981
130.768
134.214
127.514
81.3562
107.396
127.495
124.226
112.37
81.5067
108.933
134.016
130.8
109.536
91.6373
89.8474
76.4835
116.967
129.186
81.8927
98.6067
85.0787
99.5109
110.941
108.783
109.714
98.5325
102.146
134.062
117.951
87.3292
97.9765
122.505
147.202
112.947
110.091
95.7104
126.187
106.847
109.986
190.924
107.764
115.812
132.133
83.2229
103.246
148.475
106.665
93.799
113.553
116.952
114.394
96.7694
110.909
96.3377
103.072
126.59
121.21
101.191
98.6701
128.626
112.173
114.986
112.91
118.565
120.913
96.2159
)
;

boundaryField
{
    sides
    {
        type            symmetry;
    }
    empty
    {
        type            empty;
    }
    procBoundary3to2
    {
        type            processor;
        value           uniform 370.402;
    }
}


// ************************************************************************* //
