/*--------------------------------*- C++ -*----------------------------------*\
  =========                 |
  \\      /  F ield         | OpenFOAM: The Open Source CFD Toolbox
   \\    /   O peration     | Website:  https://openfoam.org
    \\  /    A nd           | Version:  7
     \\/     M anipulation  |
\*---------------------------------------------------------------------------*/
FoamFile
{
    version     2.0;
    format      ascii;
    class       volVectorField;
    location    "0.0036";
    object      momentum;
}
// * * * * * * * * * * * * * * * * * * * * * * * * * * * * * * * * * * * * * //

dimensions      [1 -2 -1 0 0 0 0];

internalField   nonuniform List<vector> 
125
(
(1.13148 -0.0851391 -0.121605)
(1.13176 0.0671568 0.0545509)
(1.44238 0.0510241 -0.0408781)
(1.09391 -0.038959 0.0570952)
(1.35063 -0.0815417 0.00410125)
(1.21585 0.0671473 0.0122638)
(1.27969 -0.0182555 -0.0863617)
(0.978742 -0.0090291 0.0744007)
(1.45547 0.079714 0.0705109)
(0.969517 0.0881305 -0.0118927)
(1.28634 -0.0111846 0.144577)
(1.22733 0.138326 0.071761)
(0.952323 0.0223868 0.0266554)
(1.23058 -0.16943 0.0151744)
(1.44041 -0.121793 -0.0372909)
(1.19062 -0.0498788 0.0740219)
(1.10858 0.142638 -0.0801746)
(1.31792 0.0679878 -0.0821707)
(1.31552 -0.0332449 -0.0437474)
(1.29532 -0.0787497 -0.0347742)
(1.16231 0.00172371 0.0795095)
(1.45275 -0.0620282 0.0690806)
(1.03587 -0.00742479 0.0693018)
(1.23311 0.109942 -0.055771)
(1.33976 -0.0436652 -0.0815627)
(0.994775 0.0383515 -0.0372873)
(1.00029 -0.0593115 -0.0523217)
(1.03391 0.0206768 -0.0792671)
(1.3315 -0.042938 0.0818704)
(1.08303 0.00690154 0.0372429)
(1.27666 0.138748 0.0618033)
(1.25944 -0.0573542 0.00711162)
(1.07807 -0.0146841 -0.183558)
(1.0534 0.0541798 -0.106341)
(1.39138 0.0378448 -0.0158702)
(1.0672 -0.0304082 0.0299043)
(1.1323 -0.030755 0.0258228)
(1.1861 -0.0133241 -0.0886726)
(1.25371 0.0905341 0.143175)
(1.13909 -0.0216499 0.10455)
(1.09152 -0.16491 -0.0703755)
(1.15651 0.020811 -0.0169752)
(1.12477 0.0589177 0.133192)
(1.1252 0.0205973 0.153347)
(0.861042 -0.0776343 -0.137251)
(0.105289 0.0656976 -0.0221506)
(0.0579855 -0.0508301 -0.0650752)
(0.010411 -0.0577791 0.0522923)
(-0.033275 0.0764616 0.0369193)
(-0.0482723 0.095087 0.0438483)
(-0.0471535 -0.043167 0.0324491)
(0.010223 0.0158372 0.0474627)
(0.0141172 0.013453 0.00979107)
(-0.0573679 0.0149639 -0.0482883)
(0.0040967 -0.0323492 0.0449382)
(0.0497049 0.07032 -0.0276148)
(-0.0284443 -0.0583124 0.0737587)
(0.028941 0.00177293 0.0189623)
(0.0189169 -0.019732 0.0416558)
(0.00660118 -0.0119526 -0.0291251)
(-0.00480334 0.0100806 0.0632569)
(0.00172484 0.0533412 -0.0853173)
(0.0334301 -0.00161436 0.00993552)
(-0.0004299 -0.0329963 0.0559536)
(-0.0495393 -0.0141354 -0.0450131)
(0.0329823 0.0303803 -0.0528815)
(0.139548 -0.0866733 0.0295526)
(-0.0400857 -0.0160724 -0.0423482)
(-0.0735118 -0.0406664 -0.0140682)
(0.0489538 -0.0344834 -0.12744)
(0.0177053 0.0308856 0.0273854)
(-0.0309765 0.00171519 -0.0722012)
(0.017173 -0.0102683 -0.003439)
(0.0363026 -0.00865512 0.00236794)
(-0.0324705 0.135314 -0.0237835)
(0.0451028 -0.0340053 0.00997448)
(-0.0704168 0.0453905 -0.0439037)
(0.0184686 -0.0761359 -0.0267144)
(-0.000391544 0.0962827 0.0116548)
(-0.0211175 0.0358989 0.0429297)
(-0.0461391 0.00445094 0.0820132)
(0.0452642 -0.00685091 0.0285601)
(0.00705778 -0.0721413 -0.00121714)
(0.0414854 0.0193818 -0.00597255)
(-0.017583 -0.0511739 0.00672628)
(-0.0430045 0.0324096 -0.0865075)
(0.0635491 -0.0121417 -0.0144935)
(-0.0488645 0.0158387 -0.0119204)
(-0.0735065 -0.0436352 0.0132409)
(0.0523286 -0.00869294 -0.0395622)
(0.0141803 -0.0444001 0.0182616)
(-0.0301804 0.0392928 -0.0580706)
(0.00636559 -0.00305733 0.0145667)
(0.00168386 -0.00774405 0.118944)
(0.0250112 -0.0137836 -0.0167797)
(-0.0713727 -0.0401417 0.00214123)
(-0.0245551 0.0314184 0.0330777)
(0.00966977 0.0308401 -0.0424885)
(-0.0446807 -0.000265047 0.0436744)
(0.0184556 -0.0134647 0.00264583)
(0.0195366 0.0687781 -0.0910769)
(0.0337803 0.0306357 0.0451262)
(-0.0792085 0.0668333 0.00813299)
(-0.0324515 -0.0174699 0.0698679)
(-0.0100869 -0.0457831 0.0601817)
(-0.0408047 0.0167099 -0.0210091)
(-0.0223793 0.0434034 0.0549388)
(-0.018248 0.038726 0.0960551)
(-0.0444667 -0.0304279 -0.0302261)
(-0.00921723 0.0366255 0.0108031)
(0.0111622 -0.0593768 0.0387289)
(0.0325546 0.00976625 0.0474442)
(0.0719896 0.0499387 -0.0380395)
(-0.00288192 0.0466956 0.0376935)
(0.0527308 -0.00958036 -0.00635992)
(-0.0472964 0.0545506 -0.0578078)
(-0.0216828 -0.0322514 -0.0208894)
(-0.108518 0.0207454 -0.0227844)
(0.0618819 -0.0203994 -0.0269922)
(-0.0123032 0.0158681 -0.0472943)
(-0.0538824 -0.00759495 -0.0415125)
(-0.0427983 0.0153543 -0.0505303)
(-0.0230101 0.0340412 -0.0128377)
(0.116049 0.0228745 0.00364741)
(-0.070743 0.0453327 -0.03224)
)
;

boundaryField
{
    sides
    {
        type            symmetry;
    }
    empty
    {
        type            empty;
    }
    procBoundary3to2
    {
        type            processor;
        value           uniform (1.0704 -0.0417965 0.00432345);
    }
}


// ************************************************************************* //
