/*--------------------------------*- C++ -*----------------------------------*\
  =========                 |
  \\      /  F ield         | OpenFOAM: The Open Source CFD Toolbox
   \\    /   O peration     | Website:  https://openfoam.org
    \\  /    A nd           | Version:  7
     \\/     M anipulation  |
\*---------------------------------------------------------------------------*/
FoamFile
{
    version     2.0;
    format      ascii;
    class       volScalarField;
    location    "0.0036";
    object      rhoM;
}
// * * * * * * * * * * * * * * * * * * * * * * * * * * * * * * * * * * * * * //

dimensions      [1 -3 0 0 0 0 0];

internalField   nonuniform List<scalar> 
125
(
0.00317196
0.00277339
0.00332143
0.00275679
0.00320518
0.00312214
0.00320518
0.00274018
0.00357054
0.00265714
0.00293946
0.00279
0.00260732
0.00310554
0.00305571
0.00303911
0.00292286
0.00307232
0.00342107
0.00277339
0.00330482
0.00327161
0.00298929
0.00315536
0.00318857
0.00264054
0.00239143
0.00287304
0.00293946
0.00274018
0.003255
0.00310554
0.00282321
0.00310554
0.00330482
0.00288964
0.00295607
0.0030225
0.00317196
0.00310554
0.00288964
0.00275679
0.00280661
0.00323839
0.00240804
0.001395
0.00114589
0.00134518
0.00127875
0.00102964
0.000963214
0.00124554
0.00136179
0.00136179
0.00104625
0.00147804
0.00112929
0.0011625
0.00121232
0.00122893
0.00144482
0.00146143
0.00102964
0.00117911
0.00137839
0.00124554
0.00136179
0.00102964
0.00112929
0.00149464
0.00131196
0.00134518
0.00111268
0.0011625
0.00124554
0.00144482
0.00149464
0.00104625
0.00102964
0.00102964
0.00112929
0.00136179
0.00131196
0.00131196
0.00112929
0.0011625
0.00111268
0.00122893
0.00111268
0.00111268
0.00137839
0.00136179
0.00134518
0.00121232
0.00121232
0.00126214
0.00101304
0.00131196
0.00156107
0.00147804
0.00122893
0.00154446
0.00106286
0.00126214
0.00132857
0.00129536
0.000996429
0.00136179
0.00117911
0.00124554
0.00106286
0.00117911
0.000963214
0.00107946
0.00134518
0.00127875
0.00114589
0.00119571
0.00144482
0.00126214
0.001395
0.00114589
0.00137839
0.00126214
0.00109607
)
;

boundaryField
{
    sides
    {
        type            symmetry;
    }
    empty
    {
        type            empty;
    }
    procBoundary3to2
    {
        type            processor;
        value           uniform 0.00260732;
    }
}


// ************************************************************************* //
