/*--------------------------------*- C++ -*----------------------------------*\
  =========                 |
  \\      /  F ield         | OpenFOAM: The Open Source CFD Toolbox
   \\    /   O peration     | Website:  https://openfoam.org
    \\  /    A nd           | Version:  7
     \\/     M anipulation  |
\*---------------------------------------------------------------------------*/
FoamFile
{
    version     2.0;
    format      ascii;
    class       volScalarField;
    location    "0.125/particle";
    object      iDof;
}
// * * * * * * * * * * * * * * * * * * * * * * * * * * * * * * * * * * * * * //

dimensions      [0 -3 0 0 0 0 0];

internalField   nonuniform List<scalar> 
800
(
3.84800000000003e+22
4.21199999999996e+22
4.50000000000004e+22
4.33200000000008e+22
4.244e+22
4.356e+22
4.148e+22
4.136e+22
4.276e+22
4.4e+22
4.312e+22
4.44e+22
4.468e+22
4.436e+22
4.296e+22
4.524e+22
4.192e+22
4.432e+22
4.224e+22
4.188e+22
4.344e+22
4.236e+22
4.64e+22
4.176e+22
4.172e+22
4.404e+22
4.448e+22
4.308e+22
4.428e+22
4.38e+22
4.392e+22
4.384e+22
4.092e+22
4.38e+22
4.28800000000011e+22
4.196e+22
4.54e+22
4.488e+22
4.292e+22
4.228e+22
4.328e+22
4.328e+22
4.432e+22
4.3e+22
4.66e+22
4.612e+22
4.288e+22
4.38e+22
4.328e+22
4.444e+22
4.444e+22
4.316e+22
4.42e+22
4.44e+22
4.164e+22
4.288e+22
4.408e+22
4.28e+22
4.076e+22
4.272e+22
4.348e+22
4.456e+22
4.096e+22
4.464e+22
4.176e+22
4.684e+22
4.412e+22
4.028e+22
4.44e+22
4.388e+22
4.448e+22
4.464e+22
4.512e+22
4.34e+22
4.276e+22
4.316e+22
4.292e+22
4.452e+22
4.392e+22
4.048e+22
3.908e+22
4.32000000000032e+22
4.23599999999992e+22
4.34400000000008e+22
4.32399999999992e+22
4.45600000000008e+22
4.28399999999992e+22
4.14000000000007e+22
4.08399999999992e+22
4.19200000000007e+22
4.25199999999992e+22
4.19200000000007e+22
4.39199999999992e+22
4.48000000000008e+22
4.37599999999992e+22
4.29600000000008e+22
4.41199999999991e+22
4.20400000000007e+22
4.43599999999991e+22
4.45200000000008e+22
4.31999999999992e+22
4.23600000000008e+22
4.48799999999991e+22
4.26800000000008e+22
4.33199999999992e+22
4.51200000000008e+22
4.29599999999992e+22
4.44800000000008e+22
4.37999999999992e+22
4.25200000000008e+22
4.37999999999992e+22
4.28000000000008e+22
4.22399999999992e+22
4.13600000000007e+22
4.19199999999992e+22
4.51600000000008e+22
4.33599999999992e+22
4.26800000000008e+22
4.28399999999992e+22
4.17200000000007e+22
4.31199999999992e+22
4.30400000000008e+22
4.47199999999991e+22
4.35200000000008e+22
4.45199999999991e+22
4.07200000000007e+22
4.35999999999992e+22
4.43200000000008e+22
4.25199999999992e+22
4.33200000000008e+22
4.40799999999991e+22
4.46000000000008e+22
4.29199999999992e+22
4.28000000000008e+22
4.46399999999991e+22
4.40000000000008e+22
4.28799999999992e+22
4.25600000000008e+22
4.47999999999991e+22
4.30400000000008e+22
4.31999999999992e+22
4.30000000000008e+22
4.39599999999992e+22
4.19200000000023e+22
4.34e+22
4.41200000000008e+22
4.27599999999992e+22
4.144e+22
4.284e+22
4.34400000000008e+22
4.12799999999992e+22
4.1e+22
4.052e+22
4.04000000000007e+22
4.02799999999992e+22
4.228e+22
4.024e+22
3.98400000000007e+22
4.10399999999992e+22
3.908e+22
4.072e+22
4.11600000000007e+22
4.04399999999992e+22
3.836e+22
3.972e+22
3.92400000000007e+22
4.08799999999992e+22
3.956e+22
4.02e+22
3.84400000000007e+22
3.79999999999993e+22
3.828e+22
3.964e+22
3.66400000000007e+22
3.89599999999992e+22
3.664e+22
3.74e+22
3.68400000000007e+22
3.53199999999993e+22
3.592e+22
3.372e+22
3.69600000000007e+22
3.74399999999993e+22
3.704e+22
3.708e+22
3.49600000000006e+22
3.51599999999993e+22
3.596e+22
3.216e+22
3.47600000000006e+22
3.36399999999994e+22
3.336e+22
3.32e+22
3.44400000000006e+22
3.25199999999994e+22
3.34e+22
3.276e+22
3.14000000000006e+22
3.37199999999994e+22
3.288e+22
3.208e+22
3.41200000000006e+22
3.26399999999994e+22
3.148e+22
3.06e+22
3.16800000000006e+22
3.22800000000018e+22
3.07599999999994e+22
3.12000000000006e+22
3.03999999999994e+22
2.85200000000005e+22
3.05599999999994e+22
3.08800000000005e+22
3.31599999999994e+22
3.14000000000006e+22
2.89199999999994e+22
2.95200000000005e+22
2.70399999999995e+22
3.01600000000005e+22
3.09999999999994e+22
2.98400000000005e+22
2.87999999999994e+22
2.92400000000005e+22
2.67999999999995e+22
2.75200000000005e+22
2.88399999999994e+22
3.00400000000005e+22
2.81599999999995e+22
2.60000000000005e+22
2.75199999999995e+22
2.81200000000005e+22
2.68399999999995e+22
2.79600000000005e+22
2.74799999999995e+22
2.64800000000005e+22
2.58799999999995e+22
2.73600000000005e+22
2.75599999999995e+22
2.73600000000005e+22
2.81999999999995e+22
2.49600000000004e+22
2.49999999999995e+22
2.63600000000005e+22
2.51599999999995e+22
2.61600000000005e+22
2.51599999999995e+22
2.46000000000004e+22
2.37999999999995e+22
2.61200000000005e+22
2.47199999999995e+22
2.42400000000004e+22
2.24399999999996e+22
2.33200000000004e+22
2.46799999999995e+22
2.24800000000004e+22
2.32799999999996e+22
2.34000000000004e+22
2.44399999999995e+22
2.24400000000004e+22
2.46799999999995e+22
2.18800000000004e+22
2.26799999999996e+22
2.26800000000004e+22
2.27199999999996e+22
2.19200000000004e+22
2.18799999999996e+22
2.32000000000004e+22
2.19599999999996e+22
2.32800000000013e+22
2.168e+22
2.02800000000004e+22
2.05599999999996e+22
1.948e+22
2.04e+22
1.94800000000003e+22
2.09999999999996e+22
2.164e+22
2.096e+22
2.04800000000004e+22
2.03199999999996e+22
2.188e+22
1.908e+22
2.05600000000004e+22
1.95599999999996e+22
1.952e+22
1.968e+22
2.03200000000004e+22
1.97999999999996e+22
1.844e+22
1.932e+22
1.88800000000003e+22
1.69999999999997e+22
1.944e+22
2.052e+22
1.82800000000003e+22
1.75199999999997e+22
1.868e+22
1.864e+22
1.87600000000003e+22
1.84799999999996e+22
1.82e+22
1.94e+22
1.70800000000006e+22
1.89599999999993e+22
1.94e+22
1.812e+22
1.84000000000007e+22
1.87599999999993e+22
1.828e+22
1.864e+22
1.83600000000007e+22
1.82399999999993e+22
1.728e+22
1.808e+22
1.90800000000007e+22
1.91999999999993e+22
1.908e+22
1.92e+22
1.82400000000007e+22
1.87199999999993e+22
1.908e+22
1.764e+22
1.88400000000007e+22
1.77999999999993e+22
1.624e+22
1.66e+22
1.92000000000007e+22
1.73199999999993e+22
1.816e+22
1.916e+22
1.70400000000006e+22
1.80399999999993e+22
1.8e+22
1.784e+22
1.94400000000007e+22
1.85999999999993e+22
1.824e+22
1.812e+22
1.82000000000007e+22
2.00399999999992e+22
1.92e+22
1.972e+22
1.79600000000007e+22
1.97599999999993e+22
1.932e+22
1.872e+22
1.70800000000006e+22
1.85599999999993e+22
1.94e+22
1.852e+22
1.76000000000006e+22
1.83999999999993e+22
1.732e+22
1.864e+22
1.83600000000007e+22
1.80399999999993e+22
1.716e+22
1.956e+22
1.77200000000006e+22
1.92399999999993e+22
1.836e+22
1.756e+22
1.74400000000019e+22
1.76400000000006e+22
1.73599999999993e+22
1.796e+22
1.78e+22
1.81200000000007e+22
1.74799999999993e+22
1.92e+22
1.832e+22
1.82800000000007e+22
1.88799999999993e+22
1.8e+22
1.948e+22
1.70800000000006e+22
1.78399999999993e+22
1.888e+22
1.864e+22
1.95600000000007e+22
1.93599999999993e+22
1.776e+22
1.844e+22
1.84800000000007e+22
1.89199999999993e+22
1.952e+22
1.852e+22
1.96400000000007e+22
1.97999999999993e+22
1.732e+22
1.9e+22
1.78000000000006e+22
1.73999999999993e+22
2.032e+22
1.856e+22
1.83200000000007e+22
1.75199999999993e+22
1.772e+22
1.78e+22
1.78800000000006e+22
1.79599999999993e+22
1.892e+22
1.932e+22
1.82800000000007e+22
1.71999999999994e+22
1.776e+22
1.636e+22
1.72000000000006e+22
1.61599999999994e+22
1.664e+22
1.648e+22
1.60400000000006e+22
1.71199999999994e+22
1.588e+22
1.572e+22
1.45200000000005e+22
1.35599999999995e+22
1.352e+22
1.24e+22
1.34800000000005e+22
1.45999999999995e+22
1.268e+22
1.304e+22
1.20400000000004e+22
1.16399999999996e+22
1.12e+22
1.268e+22
1.10000000000004e+22
1.19599999999995e+22
1.192e+22
1.204e+22
1.11600000000004e+22
1.06399999999996e+22
1.2e+22
1.228e+22
1.25200000000005e+22
1.10399999999996e+22
1.076e+22
1.048e+22
1.23600000000004e+22
1.02799999999996e+22
1.02e+22
1.16e+22
1.19600000000004e+22
1.19999999999995e+22
1.18e+22
1.1e+22
1.25600000000005e+22
1.15199999999996e+22
1.14e+22
1.112e+22
1.14400000000004e+22
1.13999999999996e+22
9.95999999999999e+21
1.152e+22
1.17600000000004e+22
1.10399999999996e+22
1.224e+22
1.148e+22
1.08400000000004e+22
1.01199999999996e+22
1.34e+22
1.148e+22
1.21600000000004e+22
1.28399999999995e+22
1.108e+22
1.18e+22
1.12000000000004e+22
1.25599999999995e+22
1.192e+22
1.19200000000004e+22
1.124e+22
1.16399999999996e+22
9.99999999999999e+21
1.12e+22
1.08000000000004e+22
1.16399999999996e+22
1.192e+22
1.19600000000004e+22
1.128e+22
1.06399999999996e+22
1.28e+22
1.152e+22
1.13600000000004e+22
1.10799999999996e+22
1.136e+22
1.09200000000004e+22
1.26000000000009e+22
1.20800000000004e+22
1.15999999999996e+22
1.108e+22
1.06400000000004e+22
1.14e+22
1.09199999999996e+22
1.088e+22
1.12e+22
1.01200000000004e+22
1.19999999999995e+22
1.256e+22
1.21600000000004e+22
1.152e+22
1.21599999999995e+22
1.14e+22
1.232e+22
1.20000000000004e+22
1.12799999999996e+22
1.08e+22
1.09600000000004e+22
1.096e+22
1.03999999999996e+22
1.104e+22
1.06e+22
1.13600000000004e+22
1.10399999999996e+22
1.024e+22
1.11600000000004e+22
1.048e+22
1.27599999999995e+22
1.012e+22
7.95999999999999e+21
4.52000000000016e+21
5.15999999999981e+21
4.92e+21
4.76000000000017e+21
5.68e+21
5.51999999999979e+21
5e+21
5.48e+21
5.28000000000019e+21
4.43999999999983e+21
4.92e+21
5.12000000000019e+21
4.72e+21
5.3999999999998e+21
5.36e+21
5.04e+21
5.20000000000019e+21
5.3999999999998e+21
5.16e+21
5.5600000000002e+21
5.28e+21
5.3999999999998e+21
5.48e+21
5.24e+21
5.4000000000002e+21
4.79999999999982e+21
6.19999999999999e+21
5.4000000000002e+21
5.12e+21
6.11999999999977e+21
5e+21
4.88e+21
5.4800000000002e+21
4.59999999999983e+21
5.12e+21
5.08000000000018e+21
4.64e+21
5.59999999999979e+21
5.16e+21
4.16e+21
5.88000000000021e+21
5.95999999999978e+21
5.12e+21
5.6400000000002e+21
5.79999999999999e+21
4.99999999999981e+21
5.52e+21
5.76e+21
5.4800000000002e+21
5.75999999999978e+21
5.48e+21
5.32000000000019e+21
5.28e+21
5.91999999999978e+21
6.11999999999999e+21
5.28e+21
4.96000000000018e+21
5.1999999999998e+21
5.72e+21
5.4800000000002e+21
5.04e+21
5.71999999999978e+21
5.52e+21
5.24e+21
5.28000000000019e+21
5.95999999999978e+21
5.76e+21
5.36000000000019e+21
5.32e+21
5.71999999999978e+21
4.44e+21
5.87999999999999e+21
5.68000000000021e+21
6.95999999999974e+21
5.4e+21
5.6400000000002e+21
5.08e+21
4.35999999999984e+21
5.36e+21
4.28e+21
5.68000000000021e+21
5.11999999999981e+21
5.12e+21
5.4000000000002e+21
4.68e+21
6.07999999999977e+21
5.72e+21
5.44e+21
4.92000000000018e+21
4.83999999999982e+21
6.07999999999999e+21
4.80000000000017e+21
6.08000000000045e+21
5.20000000000019e+21
5.79999999999978e+21
5.87999999999999e+21
5.20000000000019e+21
5.91999999999999e+21
5.15999999999981e+21
5.28e+21
4.48e+21
6.04000000000022e+21
5.3599999999998e+21
5.28e+21
4.96000000000018e+21
5.28e+21
5.43999999999979e+21
5.04e+21
5.2e+21
4.92000000000018e+21
5.75999999999978e+21
5.16e+21
5.5600000000002e+21
5.91999999999999e+21
5.3199999999998e+21
4.76e+21
5.2e+21
5.4400000000002e+21
5.75999999999978e+21
5.91999999999999e+21
5.96000000000022e+21
5.44e+21
5.95999999999978e+21
5.52e+21
5.2e+21
5.5600000000002e+21
5.95999999999978e+21
5.52e+21
6.20000000000022e+21
6.27999999999999e+21
5.59999999999979e+21
4.36e+21
5.16e+21
5.4400000000002e+21
5.43999999999979e+21
5.56e+21
5.5200000000002e+21
5.36e+21
4.03999999999985e+21
6.07999999999999e+21
5.24e+21
4.88000000000018e+21
5.2399999999998e+21
5.28e+21
4.84000000000018e+21
5.12e+21
5.75999999999978e+21
5.99999999999999e+21
4.92e+21
5.00000000000018e+21
6.27999999999976e+21
5.68e+21
5.28000000000019e+21
5.28e+21
5.95999999999978e+21
5.08e+21
4.92e+21
6.04000000000022e+21
5.79999999999978e+21
5.72e+21
5.68000000000021e+21
5.52e+21
5.91999999999978e+21
6.07999999999999e+21
5.48e+21
5.32000000000019e+21
5.47999999999979e+21
6.51999999999999e+21
5.92000000000021e+21
6.15999999999999e+21
5.87999999999978e+21
5.72e+21
5.44e+21
6.36000000000023e+21
4.63999999999982e+21
5.08e+21
5.76000000000021e+21
4.76e+21
6.35999999999976e+21
4.44e+21
4.96e+21
5.16000000000019e+21
6.03999999999977e+21
5e+21
4.24000000000015e+21
5.36e+21
5.75999999999978e+21
4.76e+21
5.79999999999999e+21
6.00000000000022e+21
5.11999999999981e+21
5.08e+21
6.28000000000023e+21
5.2e+21
5.2799999999998e+21
5.64e+21
5.72e+21
4.92000000000018e+21
5.51999999999979e+21
5.36e+21
5.72000000000021e+21
5.44e+21
5.3999999999998e+21
5.24e+21
5.24e+21
5.4400000000002e+21
5.59999999999979e+21
5.4e+21
5.4400000000002e+21
5.12e+21
4.99999999999981e+21
4.28e+21
5e+21
5.32000000000019e+21
6.07999999999977e+21
5.08e+21
5.84000000000021e+21
4.96000000000036e+21
5.16000000000019e+21
5.79999999999978e+21
5.79999999999999e+21
5.4000000000002e+21
5e+21
5.3599999999998e+21
5.16e+21
4.88e+21
5.5200000000002e+21
5.91999999999978e+21
5.91999999999999e+21
4.88000000000018e+21
5.04e+21
5.15999999999981e+21
5.64e+21
6.07999999999999e+21
4.44000000000016e+21
4.95999999999981e+21
5.56e+21
5.6400000000002e+21
4.8e+21
5.15999999999981e+21
4.88e+21
5e+21
5.5200000000002e+21
6.51999999999975e+21
5.6e+21
5.4800000000002e+21
5e+21
5.55999999999979e+21
5.04e+21
5.12e+21
4.60000000000017e+21
5.2399999999998e+21
6.47999999999999e+21
5.08000000000018e+21
5.56e+21
5.1999999999998e+21
5.87999999999999e+21
5.56e+21
4.84000000000018e+21
5.63999999999979e+21
5.32e+21
4.76000000000017e+21
4.84e+21
5.3999999999998e+21
5.12e+21
5.6e+21
5.4800000000002e+21
5.47999999999979e+21
5.16e+21
5.04000000000018e+21
5.12e+21
5.2399999999998e+21
5.56e+21
5.44e+21
5.12000000000019e+21
4.83999999999982e+21
5.16e+21
5.6400000000002e+21
5.56e+21
5.43999999999979e+21
)
;

boundaryField
{
    partSide
    {
        type            symmetry;
    }
    partBound
    {
        type            zeroGradient;
    }
    nullDims
    {
        type            empty;
    }
}


// ************************************************************************* //
