/*--------------------------------*- C++ -*----------------------------------*\
  =========                 |
  \\      /  F ield         | OpenFOAM: The Open Source CFD Toolbox
   \\    /   O peration     | Website:  https://openfoam.org
    \\  /    A nd           | Version:  7
     \\/     M anipulation  |
\*---------------------------------------------------------------------------*/
FoamFile
{
    version     2.0;
    format      ascii;
    class       volScalarField;
    location    "0.125/particle";
    object      internalE;
}
// * * * * * * * * * * * * * * * * * * * * * * * * * * * * * * * * * * * * * //

dimensions      [1 -1 -2 0 0 0 0];

internalField   nonuniform List<scalar> 
800
(
0.000838186272049742
0.0010473263896829
0.00110943033697493
0.000992450629393728
0.00100320283480579
0.0010424987896337
0.00102580216408413
0.000952668374305103
0.000964277800573048
0.00103521199889547
0.0010055112410117
0.00101707790941099
0.00105558020630821
0.00104294717501737
0.000972740446222182
0.00110324417965328
0.00101838977855346
0.00102704855729546
0.000980440024911137
0.00100215362561908
0.00101638461660827
0.000960401143656771
0.00109969541941714
0.0010274849754543
0.000963070725023882
0.00100623662256543
0.00109662636832786
0.00109790105929369
0.00108010480228602
0.0010276321624349
0.00100207978355229
0.000997537292773483
0.000965053856881034
0.000982834349992247
0.00102699122176072
0.00102606209526193
0.00110118316147654
0.00105060123298243
0.000996195889018718
0.001000097149442
0.00103502317443749
0.00100755335698562
0.00100513768231996
0.00104184607444895
0.00105951884101224
0.00106310159240274
0.00104751702484661
0.00104563572666816
0.00103943939392667
0.00100034042596793
0.00100318067901879
0.00098186553399351
0.00105338683720294
0.00105131747616862
0.000994606833251819
0.000939175234053674
0.00104684484690242
0.00101890329736613
0.000913184632501134
0.000974951221498522
0.00103752824744164
0.00102429856011547
0.000947639463154099
0.00108164480736643
0.00101735130871339
0.00110465659224698
0.00102159705207363
0.000895222153818894
0.00107295412804135
0.00103924929423807
0.00108855956170486
0.00108214617618888
0.00106449944826349
0.00098183718861735
0.00102902700881229
0.00100772571825469
0.000969943347426123
0.00105619287227511
0.00104145183540685
0.000977566546016779
0.000975648668763752
0.00108217057189709
0.00102566851623405
0.00104392149166514
0.00100953620945309
0.00106298580696381
0.00100990392311768
0.0010556104684046
0.000961406212786281
0.000990522028225158
0.0010146508103414
0.00101270676512085
0.00106002163841518
0.00108321023586808
0.00105502979631052
0.00104541994667706
0.000996437973516361
0.00100881694021935
0.00102940523496926
0.00102783655392654
0.00101751483027694
0.00100110045210605
0.00108461369650795
0.00100806483616075
0.0010361572925152
0.00108904977176831
0.00101237288422686
0.00115780619913202
0.000999854205866002
0.00103849111436884
0.00103769269572599
0.0010585921040542
0.00100377115493173
0.000965911632669113
0.00101279496519494
0.00104477023792364
0.00100661076301546
0.00106852073551965
0.0010070373956347
0.000989658408069422
0.00098424806393259
0.00108451440990946
0.00107319007075478
0.0010227378191019
0.00104641339438624
0.000938222455869286
0.00101755719625658
0.0010710134621548
0.000993371329740836
0.00103347674617227
0.00101191666377057
0.00103394029178142
0.00102139853898595
0.00106090484854289
0.00110978858201092
0.00109720061886061
0.000984601989469653
0.00101723245641632
0.00105730006759933
0.000991218608699566
0.00106641775739587
0.00105475706675139
0.000985134046711956
0.000957617285285284
0.00101919801586479
0.00105663460708456
0.00098062767248825
0.000999707556772425
0.000963425728099558
0.000961637982624175
0.00096804898299636
0.00096255352359472
0.00101128372868613
0.000938788204302207
0.000905059522992487
0.000983669168909945
0.000850353584942833
0.000887252389272235
0.00098235573874631
0.000872047161977029
0.000912221995377189
0.000942328141393738
0.000884003533369664
0.000817507337897038
0.000919977209790588
0.000841719643064079
0.000895531206418389
0.000894176758206951
0.000880201334166253
0.000855137112094045
0.000894121470061465
0.000842093282524507
0.000873887658298344
0.000840719871414291
0.000916534659600298
0.000850619986973468
0.000815691870921674
0.000802236927330147
0.000767831832235135
0.00077600038491797
0.000754013017593357
0.000810184859662443
0.00083286335746368
0.00081987389988329
0.000837531260790183
0.000785125516697459
0.000766378071017484
0.000719724810385052
0.000690690872609829
0.000716892543428424
0.000767998701964646
0.000748279782725882
0.000745706166082448
0.000712308637448135
0.000702523984971223
0.00071152772427032
0.000673125024831222
0.0006758607639064
0.000692219338102893
0.000640263338616804
0.00065751156866611
0.000718387439562813
0.000688856199547886
0.000674340782037101
0.000663705360901884
0.000661207672699063
0.000694601080916095
0.000641244281638512
0.000650523471686014
0.000630434479815822
0.000620749687511764
0.000587079243212466
0.000635110539900496
0.000679828198515634
0.000659131577723381
0.000627934552366508
0.000581984729105965
0.000545991107921568
0.000562397768878233
0.000593184095753259
0.000601050560572789
0.00057633115515178
0.000569135642526825
0.000544273157703723
0.000581479247137275
0.000535189515542172
0.000582616786967844
0.000574767645895431
0.000498859833123541
0.000587588288386159
0.000552077381938803
0.000501822261800828
0.000529068625916382
0.000570203465275441
0.000526843095330775
0.000495330364601112
0.000524499071889591
0.000525808491927408
0.000535306193016442
0.000545421806461517
0.000499962794722719
0.000463809758150736
0.000462893337328546
0.00048691177262609
0.0004719464557391
0.000467557275048581
0.00045086054669734
0.00045145600347192
0.000508380745227118
0.000469060101395915
0.000454195032821349
0.000423143373272295
0.000454895909386967
0.000454141236847449
0.000434506161581477
0.000421905290382333
0.000413326352896284
0.000476464865998176
0.000398914425381934
0.000411695453627087
0.000408451622802159
0.000409597929902101
0.000427698352919692
0.000411929402704925
0.000362509748183072
0.000402331330816921
0.000430845366079313
0.000394712151798801
0.000419285596227056
0.000374897814007944
0.000370913188179408
0.000387921682066028
0.000332192561826105
0.000367960733613083
0.000356729048241019
0.000367908755084396
0.000361697601338464
0.000404376456466063
0.000336159870920982
0.000355972868755889
0.000373957101345003
0.000334853243083142
0.000334436563027756
0.000343624364088416
0.000322906836851567
0.000347544558605872
0.000376289323822879
0.000347110736301833
0.000299775138874898
0.000306714325117069
0.000322251406255149
0.000278806199722777
0.000314904554984723
0.000352126442042714
0.000313674862104597
0.000302996091242399
0.00033548696579836
0.000297326286049973
0.000312975366951356
0.000301937984626338
0.000286287829037346
0.000349270144657406
0.000279832868523102
0.000294908304042752
0.000300456704690769
0.000302148933226726
0.000312581897555314
0.000293786417448415
0.000317890227682933
0.000318310250558485
0.000315573859235945
0.000307429936035407
0.000307384691631248
0.000302589748367445
0.000326231676641381
0.00030619657831329
0.000306739436323933
0.000335767817756756
0.000300262983633994
0.000315048508633859
0.000315784835688955
0.000277191449803223
0.000309892707330051
0.00028453558501904
0.000257495549931164
0.000282383827637403
0.000307793111386405
0.000294774775796976
0.000315620635163729
0.00032076409359147
0.000295529203098396
0.000300807941976325
0.000297957656477412
0.000295333979355459
0.000323826523329285
0.000307082811254658
0.000324324379222283
0.000292910725021609
0.000316379867014252
0.000353760853455084
0.000305465582342858
0.000341384575947674
0.000275416433336243
0.00035936682665537
0.000313092534252143
0.000331715123714917
0.000316161740714747
0.00033730102184126
0.000323498251724807
0.000281181117649178
0.000287111316152145
0.000324111062112728
0.000293490139361461
0.000304005411975893
0.000306622116532811
0.000295698291046822
0.000283813954774153
0.000324999995273681
0.000320480039246674
0.000313005941000089
0.000330996945929636
0.000283000449597783
0.000296203323644162
0.000298910065615494
0.00029252313463292
0.000299080027128309
0.000289980368491107
0.000307240476618393
0.000306147167521693
0.000343485306975795
0.000273838632008823
0.000292451983211427
0.000313224643017967
0.000309564353806413
0.000304506451751198
0.000298206266359896
0.000272798596633994
0.000294461673486118
0.000332329330008552
0.000334869985742393
0.000346213565295125
0.000306696538796752
0.00032570395723595
0.000316667071288887
0.000302322139381705
0.000292009449665414
0.000329782571917601
0.000298115826148476
0.000332241681566878
0.00030311576032779
0.000315590982253578
0.000287292173865705
0.000303761428577184
0.000335274098663719
0.000296699105485083
0.000299734286796062
0.000302553298141319
0.000297466787441804
0.000306288804828577
0.000276298038341593
0.000317426060467116
0.000288546740546811
0.00035070880324414
0.000324161049733329
0.000268966804029048
0.000296716030657913
0.000270885796121719
0.000297635474968655
0.000295360778855043
0.000280319948411885
0.000323039765433551
0.000299381904927823
0.000330181060374879
0.000298875129898182
0.000322971096679189
0.00027849670972289
0.000278609526198952
0.000329348827548307
0.00028575590849469
0.000283519547701818
0.000374883552315275
0.000294240774269012
0.000330662983684123
0.000279969550343592
0.00026248900337654
0.000298875044395875
0.000338982301789565
0.000288420819035371
0.000310295503933289
0.000319507974871638
0.000330288551702207
0.000287208868822846
0.000286707673070556
0.000336933462878833
0.000327836281123535
0.00032029535105584
0.000287539993019204
0.00029661640628257
0.000315396195877418
0.000354522335553591
0.000297931399677538
0.00026110337798961
0.000322762327038102
0.000314983760498491
0.000316643678150578
0.000279706867010618
0.000299075074178354
0.000322826370359259
0.000291824682456326
0.000285227028726772
0.000306084745756207
0.000298372683121768
0.000319328388151619
0.000274540655730153
0.000309460169761427
0.000330089226580831
0.000324578519268536
0.00030266402680676
0.000330219515264824
0.000277698511500303
0.000262325609380378
0.0003283618756917
0.000288170927280673
0.000335744475046277
0.000350866296207911
0.000297723017401889
0.000319937142495728
0.000287396430003178
0.000332982813898204
0.000303554540593703
0.000371182757514078
0.000272949918842915
0.000310981496519796
0.000257627765616349
0.000314989334889646
0.000307097720280775
0.000316349537089567
0.000303541045129459
0.000303802373182341
0.000302812299863995
0.000310828251084605
0.000367953951720659
0.000314115462815723
0.000279872298911171
0.000333298009839716
0.000303924753374157
0.000295846602798061
0.000320075288095943
0.00030132197168305
0.000285899871737374
0.000302226660514341
0.000282899919800365
0.000310218543566832
0.000293697754960483
0.000342956989993191
0.000260079528209544
0.000277445637350904
0.000331918640706101
0.000367567914378657
0.0003131796490773
0.000291508010978471
0.000286822112543859
0.000297244157147932
0.000292800759023042
0.000326186837228428
0.000263900879416346
0.000302380680818566
0.000280329556617713
0.000273248685280886
0.000287531021986357
0.000307702911982531
0.000284298110468199
0.000306164240092165
0.000309099288670837
0.00027506506678901
0.00029975294218693
0.000280115703160484
0.000374291529992416
0.000235081790993061
0.000198289811239175
8.00676408064967e-05
8.96923959108327e-05
8.59071012701869e-05
7.37694700476011e-05
0.000110309911771155
0.000112762670903369
0.000101161809183344
9.58455029383483e-05
9.99591043333086e-05
7.67125474879519e-05
9.21920187584228e-05
0.000103971761126169
7.57479937322866e-05
9.24878684286098e-05
8.79955901207039e-05
9.13932443199252e-05
0.000103737444157033
9.56134917055409e-05
8.72734766450307e-05
8.98438283729294e-05
9.26103657589452e-05
9.72606995022878e-05
7.71662841309535e-05
0.000103664863666462
9.39523853116593e-05
8.11861325767708e-05
0.000128862890569987
9.79070455233754e-05
0.000101895201782534
0.000113200177474617
9.02910102478853e-05
9.19309380060104e-05
9.30366795799545e-05
8.62680163751851e-05
9.7389320220693e-05
8.9852736229779e-05
9.25663374785491e-05
0.000121900750817299
8.60002766432958e-05
9.40013933629257e-05
0.000107496629422904
0.000101034888266573
9.18226550848232e-05
9.67818625979025e-05
0.000111988417201739
9.1781350811569e-05
0.000110148139427487
0.000108381901831076
0.000119282574523401
0.000113497715937128
0.000102682862362027
0.000101926170376662
9.40124087789473e-05
9.94674405316097e-05
0.000116521082201903
9.76675430631145e-05
0.000102912733104226
9.65683442196323e-05
0.000113032467023175
9.22112583595106e-05
8.8557377122508e-05
0.000113887586754963
0.000102228371724239
9.05001031994712e-05
9.83026486465121e-05
0.000119840626842555
0.000112209906025233
9.13091212157759e-05
8.86485572368595e-05
9.64130437535432e-05
8.15921884287289e-05
0.000115908986741007
0.000104513285033996
0.000132610499340335
0.00010255796625161
9.68258164258106e-05
8.07676794346966e-05
8.52749224902161e-05
9.75882671563177e-05
7.91324743249282e-05
0.000103550523496348
9.43429587462107e-05
8.40740000349137e-05
0.000106387719989394
7.41162777473589e-05
0.000105774593243984
0.000108304473527057
0.000100496670477179
0.000102209457557344
8.50796888190154e-05
0.000101071825721344
8.20382420704933e-05
0.000113525309899037
0.000102615153152047
0.000105509734273761
0.000107922226281968
9.86338356849016e-05
0.000112324982057192
9.88099486872605e-05
9.26434047109829e-05
9.23633104538085e-05
0.000115615752644089
9.92279874839957e-05
0.000103592076235156
9.52069534516903e-05
0.000122687118464336
9.69991798252492e-05
8.77126300134418e-05
0.00011309183477279
9.24914142437299e-05
0.000104521805529796
9.09776513807412e-05
9.89622223541985e-05
0.000104007024587029
0.000100825121128284
8.40619722282155e-05
9.80019896536523e-05
0.000103115131197133
9.78073331607825e-05
0.000115614812558547
9.2811334109512e-05
0.000111045419034418
0.000123048045163894
9.91151027748599e-05
7.73508043030364e-05
9.40755339210718e-05
0.000112785871112604
9.74303876358231e-05
0.000123626054472145
0.000121129799002975
9.84064898003396e-05
8.53900197478158e-05
9.94973233602144e-05
0.000101946932575355
9.9842031493766e-05
8.87810476027908e-05
9.23288779011907e-05
0.000104523361734989
7.47977802302276e-05
0.00010587812699972
0.000104665476963026
9.12500976752523e-05
8.97633708454047e-05
9.51601146111394e-05
8.78870794614992e-05
9.28867083565619e-05
0.000102734988649668
0.00010463105839226
0.000111780923181007
8.5631191760163e-05
0.000108420446981796
0.000100202815409265
0.000116712822463196
9.95681623486729e-05
0.000114113220845479
0.00010238831963446
7.8464130521939e-05
0.000107409980882222
0.000106393003865888
0.000113285634060345
9.96501551014106e-05
0.000103064080012209
8.65406929402198e-05
0.000115348939351975
0.00010782184635398
0.000107633213042651
0.000100722496919713
0.000125426438705885
0.000117930281659384
0.000107219673033662
0.000104031293876935
0.000103560696159799
0.000104465941523704
0.000123306957610552
8.88846976056872e-05
9.352295090812e-05
0.000106443282758192
8.23046048565635e-05
9.54743263307214e-05
8.17597277628239e-05
9.30164334678232e-05
8.39496719391864e-05
0.000114242841013534
7.78606598918684e-05
7.9658820648768e-05
9.3915622454588e-05
9.78184044484422e-05
9.05435963668671e-05
0.000116178175424851
0.000111567051763925
9.90486973824543e-05
9.66717297797308e-05
0.00011421432935151
0.0001075781035862
9.75049465849469e-05
0.000110302033847399
0.000117051398258147
9.85048013254024e-05
9.68003344742878e-05
0.00011245623603281
0.000115607782501709
0.000102574807576381
9.79206226181261e-05
9.48578151440068e-05
0.000100713369645838
0.000115256469353793
9.41769413758574e-05
0.000104665296926245
0.000109841658349199
9.78026554357071e-05
0.000109995404860897
8.14708356071539e-05
0.000104238325778509
0.000106398438789074
0.000108288850261138
9.67612548896195e-05
0.000105855948010487
9.13795463505355e-05
0.000113390173544294
0.000113880763757957
0.000119888995589205
9.64774173611544e-05
9.80264108532233e-05
8.51372569184653e-05
9.07750853356186e-05
7.84225577829335e-05
0.000104047592562248
0.000118541943041441
0.000108264635495539
0.000100376292299538
0.000100767528801955
8.38097772773707e-05
9.81349839393094e-05
0.000133316747535809
8.03145535104849e-05
0.000102420059909259
9.73574066412085e-05
0.000102978025481347
9.40114201827795e-05
9.4988374119701e-05
9.14497635646047e-05
8.09864765860651e-05
0.000109406495407335
0.000120720577793611
9.59815465152576e-05
9.1846311199045e-05
7.96967202845599e-05
9.44370069343838e-05
9.84235475898901e-05
9.15476017936805e-05
9.34504738777376e-05
9.83039386649888e-05
0.000116726031783784
0.000105911436107592
0.00010523348791335
9.55367352684822e-05
0.000117263028760318
0.000104360206981278
8.59777847093214e-05
0.000110236973174248
9.07041341057548e-05
8.08426301529038e-05
7.75766995515846e-05
9.36604414815927e-05
0.000107963617682517
9.78175846001601e-05
0.00012639614893549
9.61803693646139e-05
9.39492369379057e-05
0.00011105308172025
9.513800201391e-05
0.000101687840209923
0.00010097697177635
0.000101122174976716
9.99396391878554e-05
7.54054698195135e-05
0.000103353601871891
9.73135933915999e-05
9.45495115771971e-05
0.000108164664448804
)
;

boundaryField
{
    partSide
    {
        type            symmetry;
    }
    partBound
    {
        type            zeroGradient;
    }
    nullDims
    {
        type            empty;
    }
}


// ************************************************************************* //
