/*--------------------------------*- C++ -*----------------------------------*\
  =========                 |
  \\      /  F ield         | OpenFOAM: The Open Source CFD Toolbox
   \\    /   O peration     | Website:  https://openfoam.org
    \\  /    A nd           | Version:  7
     \\/     M anipulation  |
\*---------------------------------------------------------------------------*/
FoamFile
{
    version     2.0;
    format      ascii;
    class       volScalarField;
    location    "0.125/particle";
    object      rhoM;
}
// * * * * * * * * * * * * * * * * * * * * * * * * * * * * * * * * * * * * * //

dimensions      [1 -3 0 0 0 0 0];

internalField   nonuniform List<scalar> 
800
(
0.000894660000000021
0.000979290000000006
0.00104625000000003
0.00100719000000003
0.000986730000000015
0.00101277000000002
0.000964410000000014
0.000961620000000014
0.000994170000000015
0.00102300000000002
0.00100254000000002
0.00103230000000002
0.00103881000000002
0.00103137000000002
0.000998820000000015
0.00105183000000002
0.000974640000000015
0.00103044000000002
0.000982080000000015
0.000973710000000015
0.00100998000000002
0.000984870000000015
0.00107880000000002
0.000970920000000015
0.000969990000000015
0.00102393000000002
0.00103416000000002
0.00100161000000002
0.00102951000000002
0.00101835000000002
0.00102114000000002
0.00101928000000002
0.000951390000000014
0.00101835000000002
0.000996960000000043
0.000975570000000015
0.00105555000000002
0.00104346000000002
0.000997890000000015
0.000983010000000015
0.00100626000000002
0.00100626000000002
0.00103044000000002
0.000999750000000015
0.00108345000000002
0.00107229000000002
0.000996960000000015
0.00101835000000002
0.00100626000000002
0.00103323000000002
0.00103323000000002
0.00100347000000002
0.00102765000000002
0.00103230000000002
0.000968130000000015
0.000996960000000015
0.00102486000000002
0.000995100000000015
0.000947670000000014
0.000993240000000015
0.00101091000000002
0.00103602000000002
0.000952320000000014
0.00103788000000002
0.000970920000000015
0.00108903000000002
0.00102579000000002
0.000936510000000014
0.00103230000000002
0.00102021000000002
0.00103416000000002
0.00103788000000002
0.00104904000000002
0.00100905000000002
0.000994170000000015
0.00100347000000002
0.000997890000000015
0.00103509000000002
0.00102114000000002
0.000941160000000014
0.000908610000000013
0.00100440000000009
0.000984869999999997
0.00100998000000003
0.00100533
0.00103602000000004
0.000996029999999997
0.000962550000000032
0.000949529999999997
0.000974640000000033
0.000988589999999997
0.000974640000000033
0.00102114
0.00104160000000004
0.00101742
0.000998820000000034
0.00102579
0.000977430000000033
0.00103137
0.00103509000000004
0.0010044
0.000984870000000033
0.00104346
0.000992310000000034
0.00100719
0.00104904000000004
0.000998819999999997
0.00103416000000004
0.00101835
0.000988590000000033
0.00101835
0.000995100000000034
0.000982079999999997
0.000961620000000032
0.000974639999999997
0.00104997000000004
0.00100812
0.000992310000000034
0.000996029999999997
0.000969990000000033
0.00100254
0.00100068000000003
0.00103974
0.00101184000000003
0.00103509
0.000946740000000032
0.0010137
0.00103044000000003
0.000988589999999997
0.00100719000000003
0.00102486
0.00103695000000004
0.000997889999999997
0.000995100000000034
0.00103788
0.00102300000000003
0.000996959999999997
0.000989520000000033
0.0010416
0.00100068000000003
0.0010044
0.000999750000000034
0.00102207
0.000974640000000069
0.00100905000000002
0.00102579000000003
0.000994169999999997
0.000963480000000014
0.000996030000000015
0.00100998000000003
0.000959759999999997
0.000953250000000014
0.000942090000000014
0.000939300000000031
0.000936509999999997
0.000983010000000015
0.000935580000000014
0.000926280000000031
0.000954179999999997
0.000908610000000013
0.000946740000000014
0.000956970000000032
0.000940229999999997
0.000891870000000013
0.000923490000000014
0.00091233000000003
0.000950459999999997
0.000919770000000013
0.000934650000000014
0.00089373000000003
0.000883499999999996
0.000890010000000013
0.000921630000000013
0.000851880000000028
0.000905819999999996
0.000851880000000012
0.000869550000000012
0.000856530000000028
0.000821189999999996
0.000835140000000012
0.00078399000000001
0.000859320000000028
0.000870479999999996
0.000861180000000012
0.000862110000000012
0.000812820000000026
0.000817469999999996
0.000836070000000012
0.00074772000000001
0.000808170000000026
0.000782129999999996
0.00077562000000001
0.00077190000000001
0.000800730000000026
0.000756089999999996
0.00077655000000001
0.00076167000000001
0.000730050000000023
0.000783989999999996
0.00076446000000001
0.00074586000000001
0.000793290000000025
0.000758879999999996
0.000731910000000009
0.000711450000000009
0.000736560000000023
0.000750510000000051
0.000715169999999996
0.000725400000000023
0.000706799999999996
0.00066309000000002
0.000710519999999996
0.000717960000000022
0.000770969999999996
0.000730050000000023
0.000672389999999996
0.000686340000000021
0.000628679999999995
0.000701220000000022
0.000720749999999996
0.000693780000000021
0.000669599999999996
0.000679830000000021
0.000623099999999995
0.000639840000000019
0.000670529999999996
0.000698430000000022
0.000654719999999996
0.000604500000000018
0.000639839999999995
0.00065379000000002
0.000624029999999995
0.00065007000000002
0.000638909999999995
0.000615660000000018
0.000601709999999995
0.000636120000000019
0.000640769999999995
0.000636120000000019
0.000655649999999996
0.000580320000000017
0.000581249999999995
0.000612870000000018
0.000584969999999995
0.000608220000000018
0.000584969999999995
0.000571950000000016
0.000553349999999995
0.000607290000000018
0.000574739999999995
0.000563580000000016
0.000521729999999995
0.000542190000000015
0.000573809999999995
0.000522660000000015
0.000541259999999995
0.000544050000000015
0.000568229999999995
0.000521730000000015
0.000573809999999995
0.000508710000000014
0.000527309999999995
0.000527310000000015
0.000528239999999995
0.000509640000000014
0.000508709999999995
0.000539400000000015
0.000510569999999995
0.000541260000000035
0.000504060000000004
0.000471510000000012
0.000478019999999995
0.000452910000000003
0.000474300000000004
0.000452910000000012
0.000488249999999995
0.000503130000000004
0.000487320000000004
0.000476160000000013
0.000472439999999995
0.000508710000000004
0.000443610000000003
0.000478020000000013
0.000454769999999995
0.000453840000000003
0.000457560000000003
0.000472440000000012
0.000460349999999995
0.000428730000000003
0.000449190000000003
0.000438960000000011
0.000395249999999995
0.000451980000000003
0.000477090000000004
0.000425010000000011
0.000407339999999995
0.000434310000000003
0.000433380000000003
0.000436170000000011
0.000429659999999995
0.000423150000000003
0.000451050000000003
0.000397110000000017
0.000440819999999987
0.000451050000000003
0.000421290000000002
0.000427800000000019
0.000436169999999987
0.000425010000000003
0.000433380000000003
0.000426870000000018
0.000424079999999987
0.000401760000000002
0.000420360000000002
0.000443610000000019
0.000446399999999987
0.000443610000000003
0.000446400000000003
0.000424080000000018
0.000435239999999987
0.000443610000000003
0.000410130000000002
0.000438030000000019
0.000413849999999987
0.000377580000000002
0.000385950000000002
0.00044640000000002
0.000402689999999987
0.000422220000000003
0.000445470000000003
0.000396180000000017
0.000419429999999987
0.000418500000000002
0.000414780000000002
0.00045198000000002
0.000432449999999987
0.000424080000000003
0.000421290000000002
0.000423150000000018
0.000465929999999986
0.000446400000000003
0.000458490000000003
0.000417570000000018
0.000459419999999986
0.000449190000000003
0.000435240000000003
0.000397110000000017
0.000431519999999987
0.000451050000000003
0.000430590000000003
0.000409200000000017
0.000427799999999987
0.000402690000000002
0.000433380000000003
0.000426870000000018
0.000419429999999987
0.000398970000000002
0.000454770000000003
0.000411990000000018
0.000447329999999987
0.000426870000000003
0.000408270000000002
0.000405480000000047
0.000410130000000017
0.000403619999999987
0.000417570000000002
0.000413850000000002
0.000421290000000018
0.000406409999999987
0.000446400000000003
0.000425940000000003
0.000425010000000018
0.000438959999999987
0.000418500000000002
0.000452910000000003
0.000397110000000017
0.000414779999999987
0.000438960000000003
0.000433380000000003
0.00045477000000002
0.000450119999999987
0.000412920000000002
0.000428730000000003
0.000429660000000019
0.000439889999999987
0.000453840000000003
0.000430590000000003
0.00045663000000002
0.000460349999999986
0.000402690000000002
0.000441750000000003
0.000413850000000018
0.000404549999999987
0.000472440000000004
0.000431520000000003
0.000425940000000018
0.000407339999999987
0.000411990000000002
0.000413850000000002
0.000415710000000018
0.000417569999999987
0.000439890000000003
0.000449190000000003
0.000425010000000018
0.000399899999999987
0.000412920000000002
0.000380370000000002
0.000399900000000017
0.000375719999999988
0.000386880000000002
0.000383160000000002
0.000372930000000015
0.000398039999999987
0.000369210000000001
0.000365490000000001
0.000337590000000013
0.000315269999999989
0.00031434
0.0002883
0.000313410000000012
0.000339449999999988
0.00029481
0.00030318
0.00027993000000001
0.000270629999999989
0.000260399999999999
0.00029481
0.000255750000000009
0.000278069999999989
0.000277139999999999
0.000279929999999999
0.000259470000000009
0.00024737999999999
0.000278999999999999
0.00028551
0.00029109000000001
0.00025667999999999
0.000250169999999999
0.000243659999999999
0.00028737000000001
0.00023900999999999
0.000237149999999999
0.000269699999999999
0.00027807000000001
0.000278999999999989
0.000274349999999999
0.000255749999999999
0.000292020000000011
0.000267839999999989
0.000265049999999999
0.000258539999999999
0.000265980000000009
0.000265049999999989
0.000231569999999999
0.000267839999999999
0.000273420000000009
0.00025667999999999
0.00028458
0.000266909999999999
0.000252030000000008
0.000235289999999991
0.00031155
0.000266909999999999
0.00028272000000001
0.000298529999999989
0.000257609999999999
0.000274349999999999
0.000260400000000009
0.000292019999999989
0.000277139999999999
0.00027714000000001
0.000261329999999999
0.000270629999999989
0.000232499999999999
0.000260399999999999
0.000251100000000008
0.000270629999999989
0.000277139999999999
0.00027807000000001
0.000262259999999999
0.00024737999999999
0.0002976
0.000267839999999999
0.000264120000000009
0.00025760999999999
0.000264119999999999
0.000253890000000009
0.000292950000000021
0.00028086000000001
0.000269699999999989
0.000257609999999999
0.000247380000000008
0.000265049999999999
0.00025388999999999
0.000252959999999999
0.000260399999999999
0.000235290000000008
0.000278999999999989
0.00029202
0.00028272000000001
0.000267839999999999
0.000282719999999989
0.000265049999999999
0.00028644
0.00027900000000001
0.000262259999999989
0.000251099999999999
0.000254820000000009
0.000254819999999999
0.00024179999999999
0.000256679999999999
0.000246449999999999
0.000264120000000009
0.00025667999999999
0.000238079999999999
0.000259470000000009
0.000243659999999999
0.000296669999999989
0.000235289999999999
0.00018507
0.000105090000000004
0.000119969999999996
0.00011439
0.000110670000000004
0.00013206
0.000128339999999996
0.00011625
0.00012741
0.000122760000000005
0.000103229999999996
0.00011439
0.000119040000000005
0.00010974
0.000125549999999996
0.00012462
0.00011718
0.000120900000000005
0.000125549999999996
0.00011997
0.000129270000000005
0.00012276
0.000125549999999996
0.00012741
0.00012183
0.000125550000000005
0.000111599999999996
0.00014415
0.000125550000000005
0.00011904
0.000142289999999995
0.00011625
0.00011346
0.000127410000000005
0.000106949999999996
0.00011904
0.000118110000000005
0.00010788
0.000130199999999995
0.00011997
9.67200000000001e-05
0.000136710000000005
0.000138569999999995
0.00011904
0.000131130000000005
0.00013485
0.000116249999999996
0.00012834
0.00013392
0.000127410000000005
0.000133919999999995
0.00012741
0.000123690000000005
0.00012276
0.000137639999999995
0.00014229
0.00012276
0.000115320000000004
0.000120899999999996
0.00013299
0.000127410000000005
0.00011718
0.000132989999999995
0.00012834
0.00012183
0.000122760000000005
0.000138569999999995
0.00013392
0.000124620000000005
0.00012369
0.000132989999999995
0.00010323
0.00013671
0.000132060000000005
0.000161819999999994
0.00012555
0.000131130000000005
0.00011811
0.000101369999999996
0.00012462
9.95100000000001e-05
0.000132060000000005
0.000119039999999996
0.00011904
0.000125550000000005
0.00010881
0.000141359999999995
0.00013299
0.00012648
0.000114390000000004
0.000112529999999996
0.00014136
0.000111600000000004
0.000141360000000011
0.000120900000000005
0.000134849999999995
0.00013671
0.000120900000000005
0.00013764
0.000119969999999996
0.00012276
0.00010416
0.000140430000000005
0.000124619999999996
0.00012276
0.000115320000000004
0.00012276
0.000126479999999996
0.00011718
0.0001209
0.000114390000000004
0.000133919999999995
0.00011997
0.000129270000000005
0.00013764
0.000123689999999996
0.00011067
0.0001209
0.000126480000000005
0.000133919999999995
0.00013764
0.000138570000000005
0.00012648
0.000138569999999995
0.00012834
0.0001209
0.000129270000000005
0.000138569999999995
0.00012834
0.000144150000000006
0.00014601
0.000130199999999995
0.00010137
0.00011997
0.000126480000000005
0.000126479999999996
0.00012927
0.000128340000000005
0.00012462
9.39299999999966e-05
0.00014136
0.00012183
0.000113460000000004
0.000121829999999996
0.00012276
0.000112530000000004
0.00011904
0.000133919999999995
0.0001395
0.00011439
0.000116250000000005
0.000146009999999995
0.00013206
0.000122760000000005
0.00012276
0.000138569999999995
0.00011811
0.00011439
0.000140430000000005
0.000134849999999995
0.00013299
0.000132060000000005
0.00012834
0.000137639999999995
0.00014136
0.00012741
0.000123690000000005
0.000127409999999996
0.00015159
0.000137640000000005
0.00014322
0.000136709999999995
0.00013299
0.00012648
0.000147870000000006
0.000107879999999996
0.00011811
0.000133920000000005
0.00011067
0.000147869999999995
0.00010323
0.00011532
0.000119970000000005
0.000140429999999995
0.00011625
9.85800000000037e-05
0.00012462
0.000133919999999995
0.00011067
0.00013485
0.000139500000000005
0.000119039999999996
0.00011811
0.000146010000000006
0.0001209
0.000122759999999996
0.00013113
0.00013299
0.000114390000000004
0.000128339999999996
0.00012462
0.000132990000000005
0.00012648
0.000125549999999996
0.00012183
0.00012183
0.000126480000000005
0.000130199999999995
0.00012555
0.000126480000000005
0.00011904
0.000116249999999996
9.95100000000001e-05
0.00011625
0.000123690000000005
0.000141359999999995
0.00011811
0.000135780000000005
0.000115320000000009
0.000119970000000005
0.000134849999999995
0.00013485
0.000125550000000005
0.00011625
0.000124619999999996
0.00011997
0.00011346
0.000128340000000005
0.000137639999999995
0.00013764
0.000113460000000004
0.00011718
0.000119969999999996
0.00013113
0.00014136
0.000103230000000004
0.000115319999999996
0.00012927
0.000131130000000005
0.0001116
0.000119969999999996
0.00011346
0.00011625
0.000128340000000005
0.000151589999999995
0.0001302
0.000127410000000005
0.00011625
0.000129269999999996
0.00011718
0.00011904
0.000106950000000004
0.000121829999999996
0.00015066
0.000118110000000005
0.00012927
0.000120899999999996
0.00013671
0.00012927
0.000112530000000004
0.000131129999999995
0.00012369
0.000110670000000004
0.00011253
0.000125549999999996
0.00011904
0.0001302
0.000127410000000005
0.000127409999999996
0.00011997
0.000117180000000005
0.00011904
0.000121829999999996
0.00012927
0.00012648
0.000119040000000005
0.000112529999999996
0.00011997
0.000131130000000005
0.00012927
0.000126479999999996
)
;

boundaryField
{
    partSide
    {
        type            symmetry;
    }
    partBound
    {
        type            zeroGradient;
    }
    nullDims
    {
        type            empty;
    }
}


// ************************************************************************* //
