/*--------------------------------*- C++ -*----------------------------------*\
  =========                 |
  \\      /  F ield         | OpenFOAM: The Open Source CFD Toolbox
   \\    /   O peration     | Website:  https://openfoam.org
    \\  /    A nd           | Version:  7
     \\/     M anipulation  |
\*---------------------------------------------------------------------------*/
FoamFile
{
    version     2.0;
    format      ascii;
    class       volScalarField;
    location    "0.00108";
    object      mag(U);
}
// * * * * * * * * * * * * * * * * * * * * * * * * * * * * * * * * * * * * * //

dimensions      [0 1 -1 0 0 0 0];

internalField   nonuniform List<scalar> 
500
(
4.31418e-13
3.78466e-13
3.421e-13
3.60495e-13
1.33836e-13
1.37733e-13
2.05841e-13
1.65778e-13
3.2964e-13
5.12395e-13
5.80961e-13
3.74368e-13
4.09716e-13
4.2206e-13
3.52858e-13
3.29643e-13
3.16406e-13
3.97232e-13
4.59e-13
4.42644e-13
5.81877e-13
4.12145e-13
2.56816e-13
1.1009e-13
2.62523e-13
2.85319e-13
1.66611e-13
1.8125e-14
1.42391e-13
1.95116e-13
6.19222e-14
1.5947e-14
4.63333e-16
8.86987e-14
1.26871e-13
2.53923e-14
2.77128e-14
2.1259e-13
4.04151e-13
4.53551e-13
4.55677e-13
1.83847e-13
1.6004e-13
1.76862e-14
1.85495e-13
2.56073e-13
1.99729e-13
2.28264e-13
3.26782e-13
1.62993e-13
9.87589e-14
2.20231e-14
6.32325e-14
4.71409e-14
3.97367e-14
7.76156e-14
2.20449e-13
6.80474e-14
1.24684e-13
1.99247e-13
1.07342e-13
1.79952e-14
2.3643e-14
1.41553e-13
6.78825e-15
6.76924e-15
4.84398e-14
1.05846e-13
2.58936e-14
6.34551e-14
1.13414e-13
2.40478e-14
6.51251e-14
9.95303e-15
1.3068e-13
5.23449e-14
1.00163e-13
7.65776e-14
4.28675e-15
8.92982e-14
7.01591e-14
9.48042e-14
5.07594e-14
1.94012e-13
1.98852e-13
2.9483e-13
1.94189e-13
2.03945e-13
3.36202e-13
3.23359e-13
2.507e-13
6.49174e-14
1.22344e-13
1.20041e-14
1.12664e-14
7.53649e-14
4.80673e-14
4.15206e-14
1.15925e-13
4.1876e-14
8.96486e-14
4.26833e-14
4.07009e-14
7.0325e-14
2.25069e-13
3.74213e-13
3.44406e-13
3.9602e-13
3.37962e-13
1.13874e-13
2.00665e-13
7.11039e-14
1.19053e-13
8.39615e-15
6.13718e-14
2.37696e-13
2.35413e-14
3.26216e-14
2.11958e-13
1.37356e-13
4.70925e-14
2.22488e-13
7.98108e-14
1.40761e-13
2.6853e-13
3.70352e-13
3.84037e-13
2.12822e-13
8.53765e-14
1.01215e-13
1.61923e-13
1.30844e-13
2.23375e-13
2.30523e-13
5.33104e-13
4.31637e-13
4.5437e-13
4.54007e-13
3.09027e-13
1.20056e-13
1.93036e-14
9.70704e-14
1.14614e-13
2.64539e-13
6.22152e-13
5.39724e-13
4.42521e-13
6.76907e-13
5.18481e-13
1.75802e-13
4.21091e-14
3.00458e-13
1.48001e-13
8.9146e-14
1.12373e-13
2.0946e-13
3.07891e-13
3.27235e-13
2.28095e-13
4.10904e-14
1.15414e-13
3.12354e-14
2.05652e-13
3.86449e-13
5.18023e-13
4.02191e-13
4.10874e-13
5.16788e-13
5.13258e-13
2.92242e-13
1.62513e-14
1.58528e-13
9.19755e-15
2.14821e-13
1.02834e-13
7.64314e-14
7.50426e-14
1.22045e-13
2.41029e-14
9.28986e-14
1.85246e-13
2.20239e-13
1.98938e-12
7.57166e-12
3.42233e-11
1.53281e-10
6.65425e-10
2.82425e-09
1.17007e-08
4.73431e-08
1.86999e-07
7.20768e-07
2.70972e-06
9.93124e-06
3.54639e-05
0.000123311
0.000417201
0.00137237
0.00438527
0.0135987
0.0408798
0.119003
0.335153
0.913047
2.41126
6.2256
15.9809
35.1654
54.6422
69.5729
81.8771
93.0248
103.712
114.225
124.667
135.072
145.448
155.799
166.13
176.444
186.744
197.033
207.314
217.589
227.859
238.126
248.388
258.647
268.901
279.149
289.389
299.617
309.83
320.02
330.174
340.263
350.216
359.881
368.923
376.776
383.027
386.844
388.757
389.59
389.681
389.197
388.552
388.222
388.086
388.048
387.993
387.895
387.748
387.722
387.785
387.964
388.119
388.167
388.156
388.164
388.218
388.347
388.513
388.578
388.569
388.531
388.527
388.583
388.657
388.665
388.635
388.603
388.592
388.596
388.602
388.623
388.612
388.532
388.484
388.746
388.438
387.362
391.34
390.455
389.5
388.95
387.844
385.27
384.829
385.503
386.299
387.562
388.67
389.58
390.697
391.089
390.875
390.438
387.729
363.736
203.035
19.8423
1.19312
0.0693055
0.00404064
0.000236775
1.39395e-05
8.23188e-07
4.86738e-08
2.87643e-09
1.69752e-10
1.00983e-11
7.04256e-13
1.61837e-13
1.78972e-13
2.89359e-13
3.26727e-13
3.91071e-13
4.85882e-13
4.17751e-13
3.37578e-13
2.39999e-13
2.59658e-13
3.37936e-13
2.61863e-13
1.97287e-13
2.56074e-13
3.88776e-13
3.52705e-13
2.97582e-13
2.93164e-13
2.24456e-13
9.62845e-14
1.37888e-13
2.89773e-13
3.11393e-13
2.47698e-13
1.96982e-13
1.87427e-13
8.62168e-14
1.80358e-14
8.3122e-15
3.20395e-14
3.24177e-16
4.51609e-14
2.21451e-14
2.59145e-14
9.74936e-15
1.03463e-13
2.07603e-14
3.35227e-14
2.18605e-15
3.07097e-14
2.07866e-14
7.66231e-15
5.43202e-15
3.89513e-14
3.90963e-16
3.74383e-14
9.05345e-14
1.01817e-13
3.71113e-14
6.33769e-14
4.98427e-14
3.14205e-14
4.79662e-14
8.99086e-14
1.66013e-14
2.70944e-14
4.48063e-15
3.45836e-15
6.98568e-14
4.51785e-14
1.3823e-13
2.68934e-13
2.2469e-13
2.28788e-13
2.7883e-13
3.06367e-13
2.42859e-13
1.94165e-13
2.40075e-13
2.61857e-13
2.94684e-13
4.24575e-13
4.38493e-13
3.22107e-13
3.1368e-13
2.91343e-13
2.30247e-13
3.07102e-13
2.96651e-13
3.56542e-13
4.012e-13
3.13666e-13
3.25339e-13
3.79927e-13
4.00818e-13
4.85986e-13
5.13316e-13
3.49083e-13
3.09799e-13
3.79735e-13
2.83575e-13
6.02355e-14
5.52871e-14
1.20982e-13
3.63777e-14
1.15398e-13
1.36996e-13
9.62945e-14
7.6957e-14
7.57344e-15
9.55035e-14
1.27866e-13
1.14942e-14
6.35464e-14
1.34136e-13
2.20704e-13
2.48434e-14
1.46237e-13
1.77033e-13
2.25853e-13
1.51349e-13
4.63981e-14
1.77014e-14
1.61058e-13
9.3929e-14
1.80852e-13
3.02432e-13
3.99201e-13
2.35729e-13
1.35907e-13
1.42331e-13
1.41828e-13
6.85128e-14
3.98061e-14
1.97028e-15
4.34574e-14
1.02062e-13
1.23003e-13
2.3152e-14
1.28695e-13
1.0169e-13
6.58606e-14
8.85485e-14
2.55241e-14
4.4228e-14
2.47444e-14
1.62708e-14
4.05126e-14
2.92828e-14
2.78084e-14
3.4497e-14
2.91924e-14
8.78376e-14
1.40023e-13
1.87805e-13
1.88178e-13
1.60777e-13
2.18073e-13
1.60517e-13
5.87901e-14
7.46276e-14
1.55537e-13
1.52855e-13
1.46752e-13
2.32128e-13
2.18841e-13
6.35381e-14
1.51304e-14
5.56265e-14
6.31813e-14
2.14328e-13
3.14447e-13
2.38737e-13
3.21627e-15
1.85699e-13
2.09122e-13
2.89197e-13
3.34979e-13
3.98436e-13
3.39332e-13
2.48124e-13
1.96261e-13
6.53618e-14
3.73561e-14
1.66068e-14
1.36203e-13
1.22255e-13
5.15965e-14
1.0732e-13
1.71288e-13
1.76547e-13
2.66725e-13
3.56176e-13
2.9503e-13
1.9304e-13
7.84213e-14
1.77945e-13
)
;

boundaryField
{
    sides
    {
        type            calculated;
        value           nonuniform List<scalar> 2(1.77945e-13 4.31418e-13);
    }
    empty
    {
        type            empty;
    }
}


// ************************************************************************* //
