/*--------------------------------*- C++ -*----------------------------------*\
  =========                 |
  \\      /  F ield         | OpenFOAM: The Open Source CFD Toolbox
   \\    /   O peration     | Website:  https://openfoam.org
    \\  /    A nd           | Version:  7
     \\/     M anipulation  |
\*---------------------------------------------------------------------------*/
FoamFile
{
    version     2.0;
    format      ascii;
    class       volScalarField;
    location    "0.00108";
    object      rho;
}
// * * * * * * * * * * * * * * * * * * * * * * * * * * * * * * * * * * * * * //

dimensions      [1 -3 0 0 0 0 0];

internalField   nonuniform List<scalar> 
500
(
0.00437282
0.00437282
0.00437282
0.00437282
0.00437282
0.00437282
0.00437282
0.00437282
0.00437282
0.00437282
0.00437282
0.00437282
0.00437282
0.00437282
0.00437282
0.00437282
0.00437282
0.00437282
0.00437282
0.00437282
0.00437282
0.00437282
0.00437282
0.00437282
0.00437282
0.00437282
0.00437282
0.00437282
0.00437282
0.00437282
0.00437282
0.00437282
0.00437282
0.00437282
0.00437282
0.00437282
0.00437282
0.00437282
0.00437282
0.00437282
0.00437282
0.00437282
0.00437282
0.00437282
0.00437282
0.00437282
0.00437282
0.00437282
0.00437282
0.00437282
0.00437282
0.00437282
0.00437282
0.00437282
0.00437282
0.00437282
0.00437282
0.00437282
0.00437282
0.00437282
0.00437282
0.00437282
0.00437282
0.00437282
0.00437282
0.00437282
0.00437282
0.00437282
0.00437282
0.00437282
0.00437282
0.00437282
0.00437282
0.00437282
0.00437282
0.00437282
0.00437282
0.00437282
0.00437282
0.00437282
0.00437282
0.00437282
0.00437282
0.00437282
0.00437282
0.00437282
0.00437282
0.00437282
0.00437282
0.00437282
0.00437282
0.00437282
0.00437282
0.00437282
0.00437282
0.00437282
0.00437282
0.00437282
0.00437282
0.00437282
0.00437282
0.00437282
0.00437282
0.00437282
0.00437282
0.00437282
0.00437282
0.00437282
0.00437282
0.00437282
0.00437282
0.00437282
0.00437282
0.00437282
0.00437282
0.00437282
0.00437282
0.00437282
0.00437282
0.00437282
0.00437282
0.00437282
0.00437282
0.00437282
0.00437282
0.00437282
0.00437282
0.00437282
0.00437282
0.00437282
0.00437282
0.00437282
0.00437282
0.00437282
0.00437282
0.00437282
0.00437282
0.00437282
0.00437282
0.00437282
0.00437282
0.00437282
0.00437282
0.00437282
0.00437282
0.00437282
0.00437282
0.00437282
0.00437282
0.00437282
0.00437282
0.00437282
0.00437282
0.00437282
0.00437282
0.00437282
0.00437282
0.00437282
0.00437282
0.00437282
0.00437282
0.00437282
0.00437282
0.00437282
0.00437282
0.00437282
0.00437282
0.00437282
0.00437282
0.00437282
0.00437282
0.00437282
0.00437282
0.00437282
0.00437282
0.00437282
0.00437282
0.00437282
0.00437282
0.00437282
0.00437282
0.00437282
0.00437282
0.00437282
0.00437282
0.00437282
0.00437282
0.00437282
0.00437282
0.00437282
0.00437282
0.00437282
0.00437282
0.00437282
0.00437282
0.00437282
0.00437282
0.00437281
0.00437279
0.00437272
0.00437252
0.00437195
0.00437038
0.00436618
0.00435531
0.00432772
0.0042577
0.00412286
0.00399017
0.0038906
0.00381
0.00373809
0.00367018
0.00360432
0.00353985
0.00347652
0.00341427
0.00335306
0.00329285
0.00323359
0.00317527
0.00311784
0.0030613
0.0030056
0.00295075
0.00289671
0.00284349
0.00279106
0.00273944
0.00268861
0.00263857
0.00258934
0.00254091
0.00249332
0.0024466
0.00240088
0.00235644
0.00231397
0.00227476
0.00224081
0.00221557
0.00219836
0.00218974
0.00218765
0.00218759
0.00218956
0.00219138
0.00219229
0.00219319
0.00219431
0.00219504
0.00219531
0.00219495
0.00219482
0.00219471
0.00219486
0.00219481
0.00219446
0.00219386
0.00219344
0.00219324
0.00219337
0.00219358
0.0021933
0.00219281
0.00219241
0.00219242
0.00219263
0.00219284
0.0021928
0.00219256
0.00219229
0.00219235
0.0021927
0.00219407
0.00219777
0.00220706
0.0022293
0.00228013
0.00239248
0.00261872
0.00292478
0.00312084
0.00316727
0.00317367
0.00316984
0.00315585
0.00312484
0.003109
0.00310615
0.00311126
0.00312357
0.00313529
0.00314619
0.00315965
0.00316693
0.00316891
0.00316735
0.00314605
0.00296693
0.00199897
0.00133218
0.00127089
0.00126693
0.0012667
0.00126668
0.00126668
0.00126668
0.00126668
0.00126668
0.00126668
0.00126668
0.00126668
0.00126668
0.00126668
0.00126668
0.00126668
0.00126668
0.00126668
0.00126668
0.00126668
0.00126668
0.00126668
0.00126668
0.00126668
0.00126668
0.00126668
0.00126668
0.00126668
0.00126668
0.00126668
0.00126668
0.00126668
0.00126668
0.00126668
0.00126668
0.00126668
0.00126668
0.00126668
0.00126668
0.00126668
0.00126668
0.00126668
0.00126668
0.00126668
0.00126668
0.00126668
0.00126668
0.00126668
0.00126668
0.00126668
0.00126668
0.00126668
0.00126668
0.00126668
0.00126668
0.00126668
0.00126668
0.00126668
0.00126668
0.00126668
0.00126668
0.00126668
0.00126668
0.00126668
0.00126668
0.00126668
0.00126668
0.00126668
0.00126668
0.00126668
0.00126668
0.00126668
0.00126668
0.00126668
0.00126668
0.00126668
0.00126668
0.00126668
0.00126668
0.00126668
0.00126668
0.00126668
0.00126668
0.00126668
0.00126668
0.00126668
0.00126668
0.00126668
0.00126668
0.00126668
0.00126668
0.00126668
0.00126668
0.00126668
0.00126668
0.00126668
0.00126668
0.00126668
0.00126668
0.00126668
0.00126668
0.00126668
0.00126668
0.00126668
0.00126668
0.00126668
0.00126668
0.00126668
0.00126668
0.00126668
0.00126668
0.00126668
0.00126668
0.00126668
0.00126668
0.00126668
0.00126668
0.00126668
0.00126668
0.00126668
0.00126668
0.00126668
0.00126668
0.00126668
0.00126668
0.00126668
0.00126668
0.00126668
0.00126668
0.00126668
0.00126668
0.00126668
0.00126668
0.00126668
0.00126668
0.00126668
0.00126668
0.00126668
0.00126668
0.00126668
0.00126668
0.00126668
0.00126668
0.00126668
0.00126668
0.00126668
0.00126668
0.00126668
0.00126668
0.00126668
0.00126668
0.00126668
0.00126668
0.00126668
0.00126668
0.00126668
0.00126668
0.00126668
0.00126668
0.00126668
0.00126668
0.00126668
0.00126668
0.00126668
0.00126668
0.00126668
0.00126668
0.00126668
0.00126668
0.00126668
0.00126668
0.00126668
0.00126668
0.00126668
0.00126668
0.00126668
0.00126668
0.00126668
0.00126668
0.00126668
0.00126668
0.00126668
0.00126668
0.00126668
0.00126668
0.00126668
0.00126668
0.00126668
0.00126668
0.00126668
0.00126668
0.00126668
0.00126668
0.00126668
0.00126668
0.00126668
0.00126668
0.00126668
0.00126668
)
;

boundaryField
{
    sides
    {
        type            calculated;
        value           nonuniform List<scalar> 2(0.00126668 0.00437282);
    }
    empty
    {
        type            empty;
    }
}


// ************************************************************************* //
