/*--------------------------------*- C++ -*----------------------------------*\
  =========                 |
  \\      /  F ield         | OpenFOAM: The Open Source CFD Toolbox
   \\    /   O peration     | Website:  https://openfoam.org
    \\  /    A nd           | Version:  7
     \\/     M anipulation  |
\*---------------------------------------------------------------------------*/
FoamFile
{
    version     2.0;
    format      ascii;
    class       scalarField;
    location    "0.0018/lagrangian/dsmc";
    object      Ei;
}
// * * * * * * * * * * * * * * * * * * * * * * * * * * * * * * * * * * * * * //


9192
(
5.30193e-21
1.28732e-20
6.82533e-22
4.75672e-21
3.14609e-21
2.33265e-21
5.5137e-21
3.70129e-21
4.56103e-21
3.04754e-21
8.01904e-22
5.71968e-21
2.01318e-21
8.35963e-21
1.38843e-21
7.898e-21
3.76232e-22
1.02128e-21
2.27556e-21
2.40638e-21
1.86232e-21
1.48642e-22
1.3558e-22
2.49739e-21
2.33041e-21
3.85553e-21
1.13317e-21
5.96211e-21
4.98386e-21
6.33456e-22
3.66803e-21
8.44689e-21
8.53213e-21
1.7418e-21
8.78487e-21
6.3007e-23
9.3494e-23
4.42238e-21
9.29987e-22
4.27096e-21
1.93762e-21
2.74959e-21
3.8785e-23
8.69895e-22
2.08671e-21
5.21796e-21
9.99743e-21
4.7903e-21
9.20204e-21
1.28517e-21
8.61233e-21
5.01203e-21
1.48142e-20
1.97007e-21
9.19648e-21
7.68479e-21
7.17819e-21
2.83794e-21
4.60643e-22
5.95263e-22
1.10787e-20
1.21596e-20
2.78806e-21
4.00931e-21
1.5476e-21
7.37531e-22
1.47826e-21
2.78473e-22
7.93349e-22
3.1388e-21
5.93136e-21
2.22966e-22
5.56907e-21
6.45725e-21
4.83336e-21
6.06773e-21
1.74136e-21
9.25418e-21
8.57143e-21
1.38307e-21
1.66382e-21
7.86853e-23
1.01843e-20
5.62383e-21
1.57659e-22
4.81273e-21
7.25339e-22
1.87778e-20
1.63366e-21
1.80436e-21
4.96455e-21
3.0767e-21
9.5649e-21
1.60405e-21
6.96461e-21
3.33421e-22
6.64842e-21
1.89156e-23
2.19051e-21
5.94411e-22
9.78978e-22
1.82449e-21
4.23644e-21
2.06668e-21
4.1948e-21
1.1183e-20
6.26401e-21
8.38927e-21
6.35967e-22
1.50586e-21
8.39164e-21
3.62285e-22
9.99273e-21
1.22689e-20
5.13978e-21
7.01369e-22
1.20939e-22
6.7364e-22
1.09759e-20
1.05374e-22
4.55102e-21
2.88195e-22
3.68687e-22
7.76606e-21
2.34018e-22
5.39055e-22
2.37146e-23
5.27251e-21
6.14088e-21
2.74081e-21
4.76617e-21
2.08667e-21
3.7144e-21
8.34851e-21
2.99454e-21
2.32411e-23
2.9314e-21
2.02225e-20
1.31614e-21
4.42372e-21
1.17579e-20
1.59128e-20
4.8626e-21
8.35976e-22
5.75691e-21
3.63021e-21
5.35233e-21
1.5431e-21
5.07963e-21
2.12045e-21
9.01148e-21
1.34232e-22
2.81218e-21
4.01208e-22
1.17417e-22
4.34872e-22
2.30344e-21
6.77249e-22
7.97089e-22
7.12494e-22
3.27683e-21
4.48569e-21
8.46737e-22
4.20061e-21
4.0124e-21
7.66548e-21
2.31409e-21
4.91371e-21
3.65933e-21
2.76751e-21
9.7084e-21
1.17508e-20
4.83713e-21
7.64579e-21
2.29144e-21
1.19166e-21
2.96215e-21
4.09727e-22
2.96961e-21
4.8519e-21
5.24858e-21
8.38675e-22
1.09193e-21
2.26461e-20
4.32134e-21
4.87751e-21
8.07825e-21
5.27649e-21
2.34855e-21
1.93352e-21
3.99151e-23
8.35192e-21
2.92554e-21
4.28187e-21
4.58137e-21
3.7182e-21
1.92654e-21
2.36795e-22
3.30758e-21
1.74138e-22
3.8487e-21
9.40143e-23
6.22389e-21
2.11826e-22
4.92129e-22
3.77778e-21
5.01232e-21
3.76112e-22
1.73825e-21
3.97323e-22
1.15709e-21
1.98474e-21
6.07567e-22
1.27034e-21
2.23929e-21
8.33848e-22
2.13635e-21
3.11079e-21
3.35865e-21
1.51697e-21
4.89526e-21
9.71734e-21
1.09735e-20
4.50037e-21
1.38085e-20
1.71763e-21
9.92035e-21
1.85298e-21
9.26982e-21
1.14032e-21
8.88108e-23
2.81274e-21
6.71047e-21
3.27209e-21
2.06529e-20
3.65318e-21
7.85966e-21
8.1113e-21
5.58957e-22
9.37998e-21
1.64952e-21
3.53875e-21
5.00749e-21
2.21683e-21
1.03359e-21
4.10879e-21
1.34562e-20
8.58366e-21
3.52414e-21
5.13466e-21
2.37815e-21
2.623e-20
1.48649e-21
2.43408e-21
3.58493e-21
1.71425e-21
5.16351e-21
2.3029e-21
4.96754e-21
5.32896e-21
1.47396e-20
5.53163e-21
1.22687e-21
4.96367e-22
1.36179e-21
2.19541e-22
3.33364e-21
3.84798e-21
1.29057e-21
7.66467e-21
1.43384e-22
4.70132e-22
5.20259e-22
3.5701e-21
1.48449e-20
5.22464e-21
1.71849e-21
1.59832e-21
1.58287e-21
4.90492e-22
1.83316e-20
2.10452e-21
1.5734e-21
8.0009e-22
6.51295e-22
2.43619e-21
6.76467e-21
1.40091e-21
2.86376e-21
8.26382e-21
2.71347e-21
1.10658e-20
7.42121e-21
6.13951e-21
8.7047e-21
1.54751e-21
3.60419e-21
1.16542e-20
4.63773e-21
6.53365e-21
4.22721e-21
4.12665e-22
1.27758e-21
7.69359e-21
6.7145e-21
1.94824e-21
1.09426e-21
1.56352e-21
8.71409e-23
3.54677e-21
3.00653e-23
8.77855e-21
2.03921e-21
1.90283e-21
1.14358e-20
1.35401e-21
2.42527e-21
7.77994e-23
6.61536e-21
8.04325e-22
1.76757e-21
3.21965e-21
5.618e-21
2.04425e-21
4.22722e-21
1.21799e-22
1.27977e-21
6.06208e-21
2.38148e-21
8.2268e-22
1.03605e-21
3.53288e-22
4.44293e-21
1.08801e-21
2.8655e-22
1.09638e-21
8.1447e-21
1.40372e-21
1.07717e-21
1.3937e-21
4.1987e-22
2.24406e-21
5.20308e-21
6.3684e-21
1.09686e-20
1.83891e-21
1.19051e-21
2.97921e-21
1.7967e-21
5.29374e-21
9.3731e-22
7.54953e-22
8.90746e-21
1.06002e-20
9.86429e-21
3.77877e-21
1.70954e-21
2.19115e-21
4.44408e-22
1.74691e-21
3.98548e-21
1.17552e-21
2.46413e-21
1.78168e-21
4.62562e-21
2.05533e-21
3.0885e-21
1.38693e-20
1.70128e-22
4.24657e-21
7.65345e-22
8.75069e-22
2.39525e-21
5.96732e-21
1.518e-20
1.37527e-22
9.75773e-21
6.42663e-22
1.44278e-20
5.97429e-21
1.3858e-20
9.91909e-21
9.51786e-21
3.59388e-21
3.99174e-21
3.14883e-21
7.18048e-22
6.68921e-21
2.47796e-21
2.19831e-21
8.33588e-21
1.87351e-21
1.91646e-21
6.92054e-21
4.13369e-21
2.60612e-21
4.55599e-21
4.08807e-22
5.45147e-22
2.16487e-20
3.14622e-21
7.03313e-21
1.52054e-21
4.72952e-21
1.71322e-21
5.10066e-21
1.03396e-21
6.5594e-21
2.15377e-22
4.47729e-22
1.00241e-21
3.09425e-21
1.37416e-20
3.08894e-21
4.33782e-21
1.32289e-20
5.18821e-21
1.9363e-21
9.97927e-22
5.75197e-21
1.89605e-21
6.17903e-22
4.75051e-22
8.88226e-21
1.68813e-21
4.41021e-21
2.25611e-21
1.21566e-21
3.25457e-22
1.18585e-21
1.95308e-21
2.98688e-21
1.33834e-21
1.82776e-22
1.88269e-21
2.79762e-21
2.87872e-21
4.07466e-22
6.92666e-21
9.45202e-21
3.01398e-22
7.98616e-21
9.04992e-21
3.21337e-21
1.1074e-20
3.23759e-21
2.40161e-20
4.21814e-21
5.24426e-21
3.46687e-21
7.36973e-22
9.68287e-22
1.10744e-20
6.25371e-21
5.48497e-21
4.12069e-21
1.63417e-20
3.91095e-21
1.03125e-20
3.72254e-22
8.11405e-21
8.59136e-21
7.17746e-21
2.41824e-21
3.78893e-21
3.03277e-21
2.93593e-21
1.27619e-21
8.79169e-22
7.31702e-22
1.33833e-20
3.15028e-21
1.42633e-20
3.51688e-20
2.03032e-21
4.52526e-21
8.41929e-21
1.77023e-20
3.33075e-22
2.62706e-22
9.61869e-21
3.43053e-21
1.19396e-20
3.95834e-22
6.78753e-21
6.93334e-21
1.75507e-21
5.2761e-21
2.42087e-22
2.9202e-21
2.66178e-21
4.99431e-21
4.58838e-21
6.23651e-21
2.70984e-21
2.66626e-21
9.46409e-22
1.03259e-20
8.7731e-21
1.11559e-20
1.98082e-20
2.6587e-21
2.25262e-22
2.49719e-21
3.50565e-21
3.03888e-21
6.16963e-21
2.78805e-22
3.34288e-21
3.78669e-21
5.4062e-21
2.46212e-22
4.2941e-21
1.26131e-20
1.77934e-21
2.25761e-20
2.24315e-21
1.28901e-20
1.64501e-20
2.6286e-21
1.42064e-21
1.60331e-22
5.07761e-21
1.34859e-20
2.32199e-21
1.51482e-21
1.40181e-22
4.1472e-21
1.40488e-20
6.31841e-21
2.59006e-21
4.93916e-21
6.19637e-22
4.88968e-21
8.94258e-22
1.86554e-21
5.47194e-21
2.37996e-21
8.24845e-22
1.99302e-21
5.6125e-21
1.6493e-22
5.75939e-22
4.17719e-21
5.92637e-21
2.05413e-21
4.38344e-21
1.49851e-21
6.90692e-21
2.77371e-21
4.50368e-22
4.62338e-21
9.30973e-22
6.71538e-21
1.69576e-21
1.10266e-21
8.88553e-21
6.406e-22
1.64458e-21
1.56803e-22
1.81891e-21
4.99179e-21
1.84327e-20
4.31732e-21
1.9625e-23
1.90151e-22
4.61619e-21
1.88727e-21
2.88802e-21
1.72213e-22
6.08971e-21
1.19587e-20
3.43343e-22
8.15394e-21
2.50885e-23
6.81603e-21
2.30321e-21
5.71643e-22
3.85273e-21
1.30347e-22
1.28685e-21
2.43955e-21
2.14643e-21
5.01641e-21
6.60452e-22
4.40555e-21
4.3646e-21
3.28394e-22
1.27331e-21
4.32826e-21
8.81864e-21
5.34253e-21
1.40275e-21
1.10399e-20
4.78717e-23
6.13775e-21
2.37535e-21
1.3362e-20
3.80736e-23
8.77608e-22
2.92965e-21
9.9046e-21
1.00836e-22
2.25964e-22
6.90638e-21
2.37886e-21
2.09994e-21
7.509e-21
2.38726e-21
8.48906e-22
7.71599e-21
3.85837e-21
6.02934e-21
1.51492e-21
1.31819e-21
1.36957e-21
3.63402e-21
2.84837e-21
4.27713e-21
1.54383e-21
2.31259e-21
8.49543e-21
8.49768e-21
1.92261e-21
1.29251e-20
4.74956e-21
2.75761e-21
3.61602e-21
4.44008e-22
2.36753e-21
9.67887e-22
6.76267e-21
2.0879e-21
1.49082e-22
1.95084e-21
3.30042e-21
8.32594e-21
4.52268e-21
3.98588e-21
1.01406e-23
5.92364e-21
1.50791e-22
1.03779e-20
1.4797e-21
1.95022e-21
2.01588e-21
1.88647e-21
2.67509e-21
1.61543e-21
1.03301e-21
1.23801e-21
5.1395e-21
1.22166e-21
3.70536e-21
2.41602e-21
2.19172e-21
4.60596e-22
4.45985e-22
2.55638e-21
5.12266e-21
2.70024e-22
1.19419e-21
8.31265e-23
6.6698e-22
2.25322e-21
6.64565e-22
1.18945e-20
8.04954e-22
2.5947e-21
3.31081e-21
1.7557e-21
1.43945e-22
1.02791e-21
4.04388e-21
3.84443e-21
4.1072e-21
1.65043e-22
1.13034e-21
1.9206e-21
2.74028e-21
5.41495e-21
5.06527e-21
3.34202e-21
3.32695e-21
5.60079e-21
7.03957e-22
7.96451e-21
8.67144e-22
1.53412e-21
1.4157e-21
1.06502e-21
9.03156e-21
3.13676e-21
1.34004e-21
1.27169e-21
8.84905e-21
1.93142e-21
4.8032e-22
7.79716e-22
2.37079e-21
4.78154e-21
2.01559e-20
6.99042e-21
1.71216e-21
5.50708e-23
1.95277e-21
1.02168e-21
3.84418e-21
1.93702e-22
1.60367e-21
8.35402e-23
1.81092e-21
2.41424e-21
7.97976e-22
5.5424e-21
7.55026e-22
2.67796e-21
1.01671e-21
1.22947e-21
4.58092e-21
1.88843e-21
1.67674e-20
8.24127e-21
1.05711e-21
6.74893e-21
9.64263e-21
3.38884e-21
1.0726e-21
1.97132e-21
8.20606e-21
1.28298e-21
1.72721e-22
2.69619e-21
2.43823e-21
2.37325e-21
9.38788e-21
4.70383e-22
1.90482e-21
4.81643e-22
3.20188e-22
1.09842e-21
3.52897e-22
1.31629e-21
3.18936e-21
2.7094e-21
6.51479e-21
4.74396e-21
3.92912e-21
4.60333e-21
5.91908e-22
4.98727e-21
2.85302e-21
2.5695e-21
1.01203e-20
9.05838e-21
1.1784e-20
2.04768e-21
1.16901e-21
5.15452e-21
4.79974e-21
2.91183e-21
3.79979e-21
8.72279e-21
8.87269e-22
6.2806e-21
7.63603e-21
1.26526e-20
2.53331e-21
8.83807e-22
6.22843e-21
2.03011e-21
3.87048e-21
8.80586e-21
1.72996e-21
1.07936e-20
5.20381e-21
6.31871e-21
3.27672e-21
1.64027e-23
1.83618e-20
1.35978e-21
1.41465e-20
4.70343e-23
2.88835e-21
2.44815e-22
1.20215e-21
8.95841e-21
2.15262e-21
1.60448e-21
6.03453e-22
7.85016e-21
2.96599e-22
1.03898e-22
1.99837e-21
4.15324e-21
3.1914e-21
1.64101e-21
4.48668e-22
7.61532e-21
2.63317e-21
3.93156e-22
1.33742e-21
1.85512e-21
3.7165e-21
1.31594e-20
6.89983e-22
3.01971e-21
1.78841e-22
3.11725e-21
3.65716e-21
1.89079e-21
2.41113e-21
3.36024e-21
1.39465e-20
7.43128e-21
1.01347e-21
9.30744e-22
3.78553e-22
2.93845e-21
3.7819e-22
2.73703e-21
3.2739e-21
4.89351e-21
1.66148e-21
3.07919e-22
1.71026e-21
4.88996e-21
4.09773e-21
3.29541e-21
5.75171e-22
9.5048e-21
4.81686e-21
1.32321e-20
8.87825e-21
2.39704e-21
7.77315e-21
8.56884e-21
2.39937e-21
5.21165e-21
2.30373e-22
5.81705e-22
8.60057e-21
4.6831e-21
1.86363e-21
1.7034e-21
1.73605e-21
5.30549e-22
3.60624e-21
5.285e-21
1.2088e-21
6.36872e-22
4.16413e-21
5.78414e-21
1.6837e-21
1.25372e-21
2.4775e-21
3.31459e-21
4.62359e-22
5.79685e-21
2.32031e-21
6.06089e-21
8.1497e-21
5.7227e-21
8.48688e-21
1.90921e-21
1.01311e-21
2.56967e-21
4.38977e-22
3.59059e-21
7.45781e-21
1.9363e-21
6.28137e-21
1.35677e-20
3.85727e-21
1.41479e-21
6.47265e-21
1.10252e-20
4.68737e-21
6.61527e-21
2.75534e-21
6.08516e-22
2.47009e-21
2.31821e-21
2.3171e-21
1.95839e-21
6.36348e-21
2.15951e-22
1.78515e-21
7.5772e-21
6.27232e-21
1.52592e-20
1.22913e-21
1.10272e-21
1.11879e-20
4.10033e-21
2.56062e-21
7.10817e-22
7.50083e-21
5.10566e-22
7.98658e-21
1.25633e-21
2.0718e-21
7.36933e-21
4.4802e-22
1.07793e-20
1.61671e-21
3.46108e-21
6.17093e-21
1.17763e-20
1.88286e-21
3.17708e-22
1.20404e-21
6.89486e-22
7.2914e-21
4.06541e-21
2.96301e-22
5.05847e-21
3.00774e-21
4.43717e-21
2.05547e-21
4.82636e-21
1.89599e-21
6.07994e-22
5.33876e-21
2.98712e-21
2.51135e-22
1.8377e-22
1.21645e-21
9.91247e-22
5.32929e-21
7.23863e-22
2.30536e-22
5.48124e-22
1.33131e-20
5.12385e-22
1.59002e-21
8.29694e-22
1.19753e-21
9.63223e-22
9.92775e-22
7.34375e-21
1.54663e-20
2.34046e-21
7.46148e-22
7.51578e-21
1.50806e-21
2.58571e-21
3.57387e-21
2.07164e-21
4.97598e-22
3.8041e-21
2.16586e-21
5.04723e-21
1.80949e-21
1.41151e-21
1.95913e-22
3.90093e-22
2.57222e-22
3.27147e-22
6.99405e-21
1.5176e-21
2.04022e-23
5.71443e-21
4.02216e-22
2.80375e-22
3.79406e-21
6.05299e-21
3.89524e-21
4.1439e-21
2.21662e-21
3.76651e-22
1.9227e-21
1.45151e-20
7.12471e-21
3.0572e-21
1.00542e-20
7.38694e-21
2.80434e-21
7.11171e-22
1.21228e-20
7.60378e-23
3.35065e-21
7.09742e-21
4.41576e-21
2.95417e-21
5.91898e-21
4.97069e-21
1.97668e-21
1.17179e-20
6.43112e-21
3.78702e-21
5.59621e-23
9.93727e-21
1.43637e-21
3.11471e-22
5.91027e-21
1.4107e-21
6.73611e-22
5.87054e-21
1.51814e-21
8.19786e-21
1.01811e-20
1.12905e-20
2.97884e-21
2.18684e-21
9.12822e-22
1.04964e-20
1.00837e-21
2.64813e-21
8.67493e-21
6.73952e-21
1.0247e-20
7.45058e-22
1.4151e-22
2.15717e-22
5.14205e-21
4.24166e-21
7.87362e-22
1.68609e-21
5.55487e-21
7.43718e-21
1.33439e-20
1.48591e-21
5.18987e-21
8.92943e-21
3.21835e-21
1.13329e-20
2.52969e-21
5.55318e-21
1.76349e-21
4.41707e-21
1.53345e-21
3.96368e-21
6.06903e-21
5.83886e-22
5.20849e-21
3.15041e-21
6.4828e-22
4.16044e-21
1.78478e-22
1.6397e-21
4.4432e-22
9.15493e-22
8.60133e-24
2.10158e-21
1.00954e-20
3.21962e-21
9.85992e-22
7.77432e-21
4.60344e-21
3.18073e-21
2.43984e-21
8.33757e-22
7.35018e-21
1.056e-20
4.67325e-22
5.42907e-21
5.88268e-22
3.16736e-21
8.6504e-21
3.56385e-21
2.07642e-21
1.25521e-20
1.41e-20
3.89585e-21
2.55262e-21
7.38239e-22
4.86994e-22
1.80653e-22
1.58894e-21
6.66029e-22
7.27062e-21
1.9488e-21
6.63205e-21
2.61646e-21
1.59842e-21
4.61125e-21
2.28996e-21
6.1386e-22
3.33092e-21
1.46202e-21
2.48018e-20
1.98325e-21
1.38539e-21
2.07242e-21
1.05504e-21
9.18441e-21
1.8432e-21
1.34246e-21
1.04405e-21
3.05663e-21
3.62673e-21
3.29786e-21
4.67928e-21
9.44095e-21
7.53386e-23
3.10248e-21
4.39664e-21
9.26589e-23
9.20986e-21
1.55136e-21
1.95956e-21
1.49619e-20
1.24409e-20
1.59586e-22
1.97346e-22
7.9574e-22
1.19894e-21
7.62918e-21
2.5436e-21
7.99709e-21
3.11354e-21
1.02902e-20
1.82576e-21
1.27146e-21
4.99252e-22
4.31361e-22
6.33236e-21
4.71771e-21
6.30653e-22
9.18824e-21
3.06858e-21
1.37361e-20
1.46979e-21
3.48161e-21
6.00487e-23
6.87517e-22
4.1304e-21
1.04586e-20
5.85403e-21
3.93604e-21
6.8568e-22
3.29818e-21
2.66341e-21
5.29269e-21
1.14059e-20
2.60964e-20
1.99108e-21
1.38621e-20
1.14222e-21
5.72607e-21
2.22735e-21
1.28817e-20
1.21078e-20
2.34989e-21
1.15031e-20
5.72991e-21
1.21042e-21
5.47781e-21
3.71679e-21
1.58949e-21
2.84106e-21
4.5393e-21
5.42474e-21
8.94806e-23
1.74069e-20
4.61883e-21
6.13474e-21
1.60139e-21
1.28296e-21
4.18474e-21
1.12765e-21
8.02287e-21
3.67503e-21
1.79119e-22
8.63266e-21
4.40753e-21
1.75528e-21
2.97665e-21
2.80096e-21
1.40853e-22
4.83882e-21
2.37335e-21
3.85371e-21
4.73798e-21
5.12787e-21
1.18178e-21
4.79997e-21
3.94232e-21
5.5685e-22
8.02643e-21
4.30164e-21
3.75221e-21
8.06605e-21
3.56777e-21
6.6566e-21
2.9518e-22
1.63423e-20
4.5685e-21
1.32745e-21
6.89798e-21
1.06104e-21
2.27828e-21
2.62065e-21
9.92309e-21
6.84903e-21
3.75585e-21
7.01197e-21
6.56627e-22
3.68813e-21
2.62866e-22
3.10144e-22
1.22094e-20
1.1538e-22
5.00194e-21
2.21127e-21
2.20064e-21
8.52952e-21
2.62306e-21
5.91529e-22
3.76552e-21
2.47419e-21
4.18997e-21
1.19807e-20
8.32679e-21
8.57547e-23
4.88344e-22
1.09157e-20
3.72146e-21
3.49159e-21
2.27004e-21
2.50721e-21
2.49681e-21
9.91512e-21
2.4421e-21
8.10594e-21
6.85995e-21
3.39229e-21
5.59297e-21
2.12714e-21
3.51768e-21
1.93965e-21
6.56204e-22
2.2761e-22
1.793e-20
2.89939e-21
2.72278e-21
6.45722e-21
5.66235e-21
9.48162e-21
7.27462e-21
5.47283e-21
9.5217e-21
5.94405e-21
2.67038e-22
1.33308e-21
1.62787e-20
1.5612e-20
4.36876e-21
1.42214e-22
2.11194e-21
1.47926e-20
3.95758e-21
4.11214e-21
8.86043e-21
7.35797e-22
1.68953e-21
3.27627e-21
2.51251e-21
4.89558e-22
4.0893e-21
3.78454e-21
1.96112e-21
1.21198e-20
4.83995e-21
7.78015e-22
7.11767e-22
4.58206e-21
5.44972e-21
1.29659e-21
1.86745e-21
1.24852e-21
4.99803e-23
8.57402e-21
7.41034e-22
1.29402e-22
4.30554e-21
3.77487e-21
5.61926e-22
7.08783e-22
1.69919e-21
1.72541e-21
8.6548e-21
1.40366e-21
2.70659e-21
1.63792e-21
3.34319e-21
3.77604e-21
3.54122e-21
3.81728e-21
5.59495e-21
1.32885e-21
5.52104e-21
9.70032e-21
9.40332e-21
7.82188e-21
1.85836e-21
2.16021e-21
8.3729e-21
2.46681e-21
3.95359e-21
8.37639e-21
5.79793e-21
3.91981e-21
5.22923e-22
4.48182e-22
6.93862e-21
6.03874e-21
9.43911e-21
3.83217e-21
1.3581e-21
6.07712e-21
1.39146e-21
9.89414e-22
1.19875e-21
1.37451e-21
1.16447e-20
3.77885e-21
6.33558e-22
5.28087e-21
1.19669e-21
2.18008e-22
3.50918e-22
5.65141e-21
3.18439e-21
3.75227e-22
1.52432e-21
3.13355e-21
5.83657e-22
1.13339e-20
1.84326e-21
7.18333e-21
7.10899e-21
3.07135e-21
5.8348e-21
2.13998e-21
2.84371e-21
2.90713e-21
1.13477e-21
5.893e-21
6.51919e-21
3.25527e-21
2.35872e-21
9.1242e-22
5.10642e-23
6.78817e-22
1.06582e-20
5.98258e-21
1.36575e-20
4.0589e-21
1.33424e-21
1.47791e-21
8.76941e-22
9.34538e-21
2.24596e-21
4.59698e-22
1.82422e-21
9.88789e-22
5.50022e-22
2.90606e-21
7.48362e-23
5.80501e-22
1.46731e-21
7.87623e-21
9.5139e-21
4.95496e-22
2.98412e-21
3.84646e-21
3.38551e-21
1.20701e-21
4.69923e-21
3.95564e-21
4.02604e-22
3.33496e-21
3.36107e-21
4.03382e-21
1.02696e-21
1.04e-20
3.05592e-21
1.20454e-21
5.02549e-21
1.19778e-20
2.17173e-21
2.66004e-21
4.8582e-21
1.39153e-21
4.85491e-21
3.26705e-21
7.23744e-21
9.43329e-21
6.35532e-21
3.3531e-21
4.71899e-21
9.70195e-21
2.87069e-22
5.1421e-21
1.51688e-21
1.3948e-21
1.76168e-21
3.65662e-21
7.44904e-21
2.09713e-23
8.51402e-21
2.9486e-21
2.07774e-21
1.17859e-20
2.81911e-21
2.05011e-21
8.01434e-21
7.99358e-22
3.07269e-21
3.75174e-21
8.1913e-23
5.50663e-21
7.28753e-21
6.72171e-21
7.08627e-21
3.97583e-21
1.01274e-21
4.37099e-21
6.1364e-21
8.48651e-22
1.50278e-22
1.35602e-22
9.20825e-22
4.63792e-21
9.19808e-21
8.25014e-22
6.35442e-21
9.14958e-22
2.63535e-22
1.91552e-21
3.35951e-21
3.81812e-21
1.27417e-21
1.50632e-21
1.13064e-21
1.30349e-20
2.5806e-21
3.77587e-21
1.03545e-21
1.04302e-20
2.64364e-20
1.584e-21
1.98488e-21
2.52746e-21
5.12478e-21
7.37414e-21
1.62311e-21
8.93607e-22
5.59356e-21
1.19826e-20
2.56321e-21
4.2967e-21
1.69585e-21
7.29212e-22
1.02238e-20
5.91681e-21
8.79772e-21
1.03011e-20
3.85835e-21
6.24403e-21
8.01585e-22
1.49818e-21
7.16238e-22
5.9979e-21
1.66565e-21
5.22608e-21
8.11906e-21
7.0423e-21
9.77233e-22
1.02637e-22
3.71864e-21
3.308e-21
2.91443e-22
4.84003e-21
2.90405e-21
8.26716e-24
2.6662e-21
3.65684e-22
4.8401e-21
1.27914e-22
5.45843e-21
9.55178e-22
1.07064e-20
5.17685e-21
4.67856e-21
1.16926e-21
9.22601e-22
1.21793e-21
5.47392e-21
3.72276e-21
1.02453e-20
3.06847e-21
1.39755e-20
3.25713e-21
2.29233e-21
1.14761e-20
3.64159e-21
5.80046e-22
5.89316e-21
1.79623e-21
1.01831e-21
6.58878e-21
1.47235e-22
2.79521e-22
6.94717e-21
2.57169e-21
1.33346e-22
1.3892e-22
1.63699e-21
9.0609e-23
7.97384e-22
1.43111e-21
2.1995e-21
1.28948e-20
1.61864e-21
7.10284e-21
2.59675e-21
9.28913e-23
7.17356e-21
9.79012e-21
3.00028e-21
4.44763e-22
7.1376e-21
1.03827e-22
4.70121e-21
3.71894e-21
4.19249e-21
4.25074e-22
7.57009e-21
1.19389e-22
2.79915e-21
2.7228e-21
6.86044e-21
6.9595e-21
1.7562e-21
4.47236e-21
9.48698e-21
5.37088e-22
2.71858e-21
1.14573e-21
1.05861e-21
9.86179e-22
2.0637e-21
6.74499e-21
3.00143e-21
5.44139e-21
1.93405e-21
4.26041e-21
9.79504e-21
1.23211e-20
3.6998e-21
5.62515e-22
1.42459e-22
1.09103e-20
2.2683e-22
1.55012e-20
4.38378e-21
7.13495e-22
2.35512e-21
2.75075e-21
6.39675e-21
1.44969e-21
1.17153e-21
2.27361e-21
1.68628e-21
1.2132e-20
3.55482e-21
1.96455e-21
4.00351e-21
1.08872e-20
4.86429e-21
8.56588e-21
5.97625e-21
3.84787e-21
2.82135e-21
1.80209e-21
1.23379e-21
5.04768e-22
1.00687e-20
6.09703e-22
2.63636e-21
8.22923e-21
2.29032e-21
2.21532e-22
1.64562e-21
1.83033e-21
1.7979e-22
1.93794e-21
1.14044e-20
1.87304e-21
3.12254e-21
5.66027e-21
2.49165e-21
2.55138e-21
8.89039e-21
1.42164e-20
2.18669e-21
1.07883e-21
3.52196e-21
1.29474e-21
5.97515e-22
5.52026e-21
2.3874e-21
4.44864e-21
1.42137e-20
7.77982e-21
3.52656e-21
5.98001e-21
2.57807e-21
1.95754e-21
2.74863e-21
1.00194e-20
5.78704e-22
3.43251e-21
1.1695e-20
1.17367e-21
2.27098e-21
2.2991e-21
1.11895e-20
8.09271e-22
1.4605e-20
2.47495e-21
5.38089e-21
2.46858e-21
8.20478e-21
6.71812e-21
1.90672e-21
1.63082e-21
1.93312e-21
4.87095e-21
1.02524e-21
1.38918e-20
3.60466e-21
1.72067e-20
5.60991e-21
1.64513e-21
5.71023e-21
2.06658e-20
1.54017e-21
7.77372e-21
2.37589e-22
6.02375e-22
4.50653e-21
5.11263e-23
1.88446e-21
2.16638e-21
2.12606e-22
3.71901e-21
2.04585e-21
5.19443e-21
4.71608e-21
9.17748e-21
8.77248e-22
1.20746e-21
2.84647e-22
4.04333e-21
2.69373e-23
6.11853e-22
3.26364e-21
1.11948e-21
3.45277e-21
4.35658e-22
4.98486e-21
3.95396e-21
3.42176e-21
2.52837e-21
4.54172e-21
1.32886e-21
1.71116e-21
1.34254e-21
7.33349e-21
6.33376e-21
1.20189e-21
5.82253e-21
1.52311e-21
9.57322e-22
2.67809e-21
2.26849e-21
2.66088e-21
3.56895e-21
2.52983e-21
6.80683e-21
3.47279e-22
9.69714e-22
2.41486e-22
3.63178e-22
6.21124e-21
9.73834e-21
1.07359e-20
1.73534e-21
1.1174e-20
1.27117e-21
2.74776e-21
6.31847e-21
3.66977e-22
5.33217e-21
7.14683e-21
4.35639e-21
2.04654e-22
6.26133e-21
6.0976e-21
3.68832e-21
1.35874e-21
1.78475e-20
4.67142e-22
1.50341e-22
1.55022e-21
1.1994e-20
3.55379e-22
5.75811e-21
1.36681e-21
4.47535e-21
6.26315e-21
7.58996e-21
8.68594e-21
2.48625e-21
4.08306e-22
8.92034e-21
8.65338e-21
1.55054e-21
1.34998e-21
3.13169e-21
1.30333e-21
1.04868e-21
1.49493e-21
3.35679e-21
2.3919e-21
1.11681e-20
2.57643e-21
1.80058e-21
4.20788e-21
2.78196e-22
7.7669e-21
6.50118e-21
6.57185e-21
2.46996e-21
2.54183e-21
4.99402e-21
1.95313e-20
4.69348e-22
3.3139e-21
5.91719e-21
4.90934e-21
1.72246e-21
2.32129e-21
3.64099e-21
1.80144e-21
5.39118e-21
1.02741e-20
3.80688e-21
4.94054e-21
1.10796e-20
2.98882e-22
3.7888e-21
1.35551e-20
3.50037e-21
7.32231e-22
7.51873e-21
5.7532e-21
3.33583e-22
5.60483e-21
4.47229e-21
1.04494e-20
3.20286e-21
2.05123e-21
1.81007e-21
8.91095e-22
1.15429e-21
1.40231e-21
1.2039e-21
3.36955e-21
1.67018e-21
8.64927e-21
3.90539e-21
1.87844e-21
1.33213e-21
5.01266e-21
1.94759e-21
6.28691e-21
9.81929e-21
3.34105e-21
4.42564e-21
8.06571e-21
3.06065e-21
1.02306e-20
2.25913e-20
4.87214e-21
3.77297e-22
2.86394e-21
1.38902e-20
2.06907e-22
9.7645e-22
1.8606e-21
3.99205e-21
1.8785e-21
1.95576e-21
1.84541e-21
1.63198e-20
2.63992e-21
1.61897e-21
1.59374e-21
5.60003e-21
7.07408e-21
9.72158e-22
1.46268e-21
3.81767e-21
1.2226e-20
5.95779e-21
1.24154e-22
2.33566e-21
1.09986e-21
9.79009e-22
1.43293e-21
4.28942e-21
4.43753e-21
8.04611e-22
9.31814e-21
2.65598e-21
4.06071e-21
1.14139e-21
1.80826e-20
8.53249e-21
1.06421e-21
5.87043e-22
1.45019e-21
1.72349e-21
8.4875e-21
4.21532e-21
3.45892e-21
1.4977e-21
7.92961e-21
3.2933e-21
1.2879e-21
8.4109e-21
6.4017e-21
1.5615e-21
1.07861e-21
1.41829e-22
5.3374e-21
3.35484e-22
7.43294e-21
4.10392e-21
3.10288e-21
4.67407e-22
3.53205e-21
2.30305e-21
9.09515e-22
2.58698e-21
6.93475e-22
1.33439e-21
4.16561e-21
8.94247e-21
3.61561e-21
6.74452e-21
4.75828e-22
5.94742e-21
1.09604e-21
8.34778e-21
1.96624e-21
1.78478e-21
1.72007e-21
4.03398e-21
7.94696e-21
5.16955e-21
3.26485e-21
5.40931e-22
3.22705e-21
1.15304e-21
1.88309e-21
1.32548e-20
6.42563e-21
5.66137e-21
2.74273e-21
1.58291e-21
5.10447e-22
7.79973e-22
1.1841e-20
3.40262e-22
2.32875e-21
9.19466e-21
1.5166e-21
1.35624e-20
2.60222e-21
1.44983e-21
3.13906e-22
1.10294e-20
7.23711e-21
2.15631e-22
1.56714e-20
1.98069e-21
3.84656e-22
1.44531e-21
2.73828e-21
1.20728e-21
8.92348e-22
2.93571e-22
1.38218e-21
3.61138e-21
4.07447e-21
5.1314e-21
8.9779e-22
4.95925e-22
3.6396e-21
5.52806e-21
1.23508e-20
4.00158e-21
2.27969e-21
1.28413e-20
9.60612e-22
6.74864e-21
8.70496e-21
5.73347e-23
1.95836e-22
4.44941e-22
3.17217e-21
7.0044e-22
3.88739e-21
1.29848e-22
7.30216e-22
8.62979e-22
3.22537e-21
1.13484e-20
2.95309e-23
2.02143e-21
8.23793e-21
5.99959e-22
2.22566e-22
4.98228e-21
4.02022e-21
5.84975e-22
3.99559e-21
8.36959e-21
1.94052e-21
2.07213e-22
4.15122e-21
5.61484e-21
6.40373e-21
8.23476e-22
1.85451e-21
1.35191e-20
1.03171e-21
3.50897e-21
2.49894e-21
1.82858e-21
3.46147e-21
3.09027e-21
1.76219e-21
4.21762e-21
4.18775e-21
1.96847e-21
6.14412e-23
2.88519e-21
2.70338e-21
6.45242e-21
1.58412e-21
1.50915e-21
2.48518e-21
1.51444e-21
3.78067e-21
4.88499e-22
3.30476e-21
1.18052e-20
8.256e-23
6.46316e-21
2.70467e-21
2.98649e-21
4.46167e-21
3.67101e-21
1.0955e-20
3.70444e-21
3.90141e-21
3.35533e-21
6.43613e-21
4.56487e-21
7.82515e-22
2.63503e-21
1.50914e-21
2.59057e-21
6.49288e-21
8.34009e-21
5.97293e-22
3.79193e-21
3.47699e-21
3.5866e-21
2.70087e-21
5.00512e-22
3.34051e-21
4.19873e-21
6.03397e-21
7.08848e-22
3.18364e-21
3.6052e-22
1.81425e-21
3.53086e-22
4.8883e-21
3.54669e-21
6.01155e-21
1.69716e-21
2.0473e-21
1.46818e-21
3.26181e-21
2.42055e-22
3.92026e-21
2.16314e-21
5.78491e-21
4.11269e-21
5.65249e-21
6.0263e-21
7.96218e-21
1.33295e-21
8.79199e-21
1.57416e-21
1.37679e-21
1.26095e-20
4.89056e-21
4.70189e-21
1.12126e-20
4.49657e-21
5.2767e-21
1.04242e-20
5.11649e-21
6.83982e-22
2.47829e-21
1.23518e-20
4.53487e-21
9.93449e-21
2.99638e-21
4.11966e-22
2.22064e-21
6.79127e-22
1.46718e-20
2.09178e-21
8.4645e-23
7.32633e-21
7.96652e-21
2.55049e-22
4.1439e-21
1.92288e-21
4.10037e-21
5.46439e-21
9.94792e-21
5.92377e-21
5.31096e-21
4.77744e-21
1.38765e-20
5.72742e-22
2.47664e-21
4.68315e-21
4.31107e-22
1.5872e-21
1.60657e-22
1.19509e-22
4.40158e-21
2.22363e-21
7.62312e-21
3.68609e-23
2.14773e-21
3.80047e-21
3.12382e-21
4.42894e-22
1.59007e-20
1.15819e-21
1.8794e-21
6.67176e-21
1.59881e-21
2.79794e-21
2.77682e-21
1.99216e-21
3.20841e-21
1.42795e-20
4.29775e-21
7.65899e-22
8.45142e-23
3.44718e-21
7.40144e-21
1.05968e-20
3.76861e-21
1.38277e-20
1.74143e-21
2.86487e-21
7.31468e-22
5.95734e-21
8.45581e-22
3.63804e-21
3.84472e-21
1.59872e-21
1.34749e-21
9.42175e-21
8.73875e-22
9.05199e-21
2.09247e-21
9.39903e-22
8.99043e-21
1.69503e-21
4.46239e-21
6.5622e-21
2.27078e-22
2.40576e-21
2.12566e-22
2.16323e-21
2.26334e-21
6.45245e-21
1.90932e-21
5.0188e-21
1.5139e-21
4.82839e-21
2.0804e-21
7.99182e-21
1.30432e-20
1.35773e-21
1.59965e-21
1.8138e-20
3.19978e-21
2.17692e-21
9.13825e-21
7.6221e-22
4.83543e-21
1.79067e-21
1.50861e-21
2.84681e-21
6.76265e-22
1.97612e-20
5.71574e-21
2.44027e-21
1.3294e-21
6.75347e-21
7.60958e-21
2.85138e-21
2.337e-22
2.84849e-21
6.42432e-22
1.14884e-20
2.98273e-22
6.76047e-21
6.19747e-21
1.82151e-21
5.62415e-22
3.05341e-21
1.15329e-20
4.62075e-21
1.62214e-20
4.81339e-21
1.14744e-21
6.08035e-22
2.1542e-21
1.70673e-20
1.31531e-21
1.21614e-21
9.03376e-21
1.5532e-20
9.8645e-21
1.01976e-20
4.40586e-22
8.32179e-21
3.99362e-21
3.20695e-21
9.66555e-21
8.09277e-21
2.27473e-21
3.59045e-22
7.16524e-21
1.49215e-21
8.40924e-21
6.73717e-21
4.85965e-22
5.16834e-21
4.81685e-22
2.53936e-21
3.75521e-21
1.83683e-22
2.12603e-21
2.69458e-21
1.80686e-21
2.83528e-22
1.91815e-20
5.49377e-21
1.42901e-20
7.87004e-22
1.46979e-21
4.47819e-21
4.94344e-21
1.03106e-21
7.21044e-21
5.19752e-22
2.39115e-21
2.86994e-21
9.7399e-22
5.49344e-21
1.35048e-21
1.4588e-22
4.94157e-21
4.01362e-21
1.26938e-20
1.51948e-22
2.08081e-21
1.34376e-21
1.62052e-20
6.35784e-21
2.73928e-21
2.4546e-21
6.93195e-23
8.85508e-22
4.761e-21
1.63469e-21
1.1495e-20
6.93921e-21
1.13851e-21
3.26978e-21
2.67853e-22
6.64692e-21
1.58652e-20
3.62786e-21
1.45783e-21
1.26664e-21
1.83756e-21
3.57815e-21
4.30669e-21
4.34271e-21
1.971e-20
2.0085e-21
3.84916e-21
2.18497e-21
1.16747e-20
2.67845e-21
6.76719e-21
6.93238e-22
4.98518e-21
1.04836e-21
9.38504e-21
3.59099e-22
4.88395e-21
3.58537e-21
2.76898e-21
6.85465e-21
7.61386e-22
3.79823e-22
4.22409e-22
1.87494e-21
2.37575e-21
4.87003e-21
4.21853e-21
5.99731e-22
1.05848e-21
8.57109e-21
5.89594e-21
5.17855e-21
1.40885e-20
2.20357e-21
3.02548e-21
1.6523e-21
1.13669e-20
7.16515e-22
8.67208e-21
3.15347e-21
3.57964e-21
7.23728e-22
2.14511e-21
4.62524e-21
2.52149e-21
1.85208e-21
6.90109e-21
2.8018e-21
3.53023e-21
9.95372e-22
6.84843e-21
6.7725e-21
1.97637e-22
2.06697e-21
3.46801e-21
1.59591e-20
8.00911e-22
7.73967e-21
1.17058e-20
8.3523e-22
5.65101e-21
2.48196e-21
5.11013e-21
5.44866e-21
2.34345e-21
5.58749e-21
4.47893e-21
4.08415e-21
8.01208e-21
7.03191e-21
5.97425e-22
9.91229e-21
9.50655e-22
2.31297e-21
1.17675e-20
1.78617e-21
8.91042e-21
9.01947e-22
2.77356e-21
2.71757e-22
1.02346e-20
3.05174e-21
1.72683e-21
4.72813e-21
1.07272e-20
1.81344e-21
3.65785e-21
1.42147e-21
3.23558e-21
9.59937e-23
2.55841e-21
9.51218e-21
4.74097e-21
6.0705e-21
2.23111e-21
1.41379e-20
1.24983e-21
1.291e-20
1.89639e-21
3.49493e-22
4.50262e-21
4.24165e-21
1.99072e-21
1.33839e-22
1.35118e-20
3.36067e-21
2.50028e-21
2.30961e-21
2.19338e-21
1.96908e-21
6.30128e-21
7.97129e-22
2.90279e-21
4.41647e-22
2.40777e-21
1.48118e-21
3.64189e-21
8.38181e-21
1.82427e-21
6.77641e-21
3.03753e-21
7.66724e-21
1.00727e-21
2.37381e-21
4.51849e-22
5.0584e-22
8.15077e-21
1.06014e-21
5.36923e-21
5.12789e-21
7.05678e-22
7.90396e-21
1.76453e-21
7.31569e-21
1.23315e-21
9.56336e-21
4.2317e-22
7.62174e-21
1.39649e-21
2.93019e-21
3.4623e-21
6.76961e-22
2.2209e-21
9.17459e-21
9.28277e-21
5.9999e-21
1.14248e-22
1.73553e-23
5.04211e-21
2.25465e-21
2.82862e-21
1.93738e-21
8.69805e-21
8.61442e-22
2.68336e-21
5.4068e-21
2.98268e-21
2.65415e-21
5.96542e-21
6.90007e-21
4.51657e-22
4.13929e-22
3.94039e-21
1.5153e-21
4.48336e-21
1.69008e-20
8.85926e-22
1.53448e-21
3.53087e-22
8.18989e-22
1.51475e-21
1.76967e-21
4.27657e-23
1.20604e-21
5.90051e-21
1.45197e-21
9.54999e-21
1.66776e-21
3.24537e-21
5.99641e-21
3.7149e-21
7.06185e-21
1.19882e-20
4.05961e-21
9.37427e-21
1.5558e-22
4.80028e-23
5.73516e-21
5.06514e-21
1.32003e-21
3.52795e-21
7.39986e-21
9.53816e-21
7.84028e-21
1.17989e-20
1.21592e-21
3.7942e-21
2.40644e-21
6.85415e-21
3.35453e-22
1.0098e-21
1.09826e-21
1.61084e-21
1.53102e-21
4.38111e-21
2.3318e-21
8.59599e-21
1.08902e-21
5.91946e-21
1.57717e-22
3.26169e-21
5.44171e-24
8.63118e-22
8.63013e-22
2.13187e-22
8.41384e-22
8.69249e-21
1.28806e-21
7.86526e-21
2.06495e-21
1.04687e-20
9.90191e-21
9.79194e-22
1.23754e-21
2.66076e-21
1.37107e-22
1.75305e-21
2.2375e-21
5.49308e-22
5.31736e-21
3.76752e-23
2.61065e-21
1.43437e-22
3.99632e-22
2.28561e-21
2.63588e-21
6.28647e-21
2.36863e-21
1.11215e-21
4.93898e-22
4.44316e-22
1.02413e-21
1.76065e-21
7.0132e-21
8.44158e-21
6.32214e-21
5.83492e-22
2.8322e-21
3.92703e-21
6.81368e-21
1.04602e-20
2.1644e-21
1.85639e-21
1.13388e-21