/*--------------------------------*- C++ -*----------------------------------*\
  =========                 |
  \\      /  F ield         | OpenFOAM: The Open Source CFD Toolbox
   \\    /   O peration     | Website:  https://openfoam.org
    \\  /    A nd           | Version:  7
     \\/     M anipulation  |
\*---------------------------------------------------------------------------*/
FoamFile
{
    version     2.0;
    format      ascii;
    class       scalarField;
    location    "0.00144/lagrangian/dsmc";
    object      Ei;
}
// * * * * * * * * * * * * * * * * * * * * * * * * * * * * * * * * * * * * * //


9188
(
3.64653e-21
4.62987e-21
2.11004e-20
1.10285e-21
5.7427e-21
1.27238e-21
4.93615e-22
4.94202e-21
8.39472e-21
1.63276e-21
1.385e-20
9.47098e-22
6.53253e-21
1.61042e-20
4.49679e-21
1.37424e-21
5.55349e-21
1.30721e-21
1.05246e-21
6.11858e-21
5.20654e-21
1.58852e-21
9.20275e-22
5.09936e-21
1.63597e-21
8.14459e-22
3.78003e-21
8.00929e-22
2.9595e-21
2.88369e-21
3.42402e-21
4.49712e-21
3.80279e-21
3.14995e-21
4.44311e-21
1.55597e-21
7.64664e-21
2.68468e-21
4.59877e-21
6.77319e-21
6.98513e-22
1.05981e-20
1.62851e-21
4.53201e-21
1.75898e-21
1.4979e-21
2.20215e-21
8.72499e-21
1.46649e-21
1.15825e-22
3.36729e-21
1.44435e-22
7.33979e-21
5.46427e-21
4.08305e-21
9.0179e-21
2.90003e-21
4.88645e-21
9.44081e-22
3.40302e-21
1.35174e-21
6.92627e-21
8.84978e-21
5.21371e-21
5.70872e-21
8.61338e-23
6.52436e-23
5.14949e-21
6.70781e-22
2.40415e-21
1.06991e-20
2.45031e-21
2.58958e-21
3.55926e-21
1.0161e-21
1.09607e-20
8.59671e-22
3.006e-21
2.53216e-21
1.35983e-21
8.2327e-21
5.84185e-22
8.21841e-22
3.88397e-21
1.80661e-21
2.57297e-21
1.74065e-21
1.13493e-20
8.58942e-21
8.41855e-21
3.81036e-21
6.6428e-22
6.94503e-21
4.20354e-22
3.22505e-21
4.51422e-21
1.85045e-20
7.56297e-21
5.54876e-21
1.72329e-21
5.10255e-21
1.79269e-21
6.11687e-22
5.38563e-21
1.89998e-21
6.96779e-23
3.51883e-21
7.41483e-21
9.85054e-22
3.8823e-21
2.50143e-21
3.09211e-21
5.61433e-21
1.09243e-20
2.23416e-20
1.29829e-20
1.68468e-21
6.38251e-21
6.1352e-21
2.14157e-21
1.69145e-21
1.54728e-20
5.3251e-21
3.04839e-21
1.19472e-20
4.19819e-23
6.67913e-22
3.98355e-22
1.49441e-20
8.07925e-22
2.84347e-21
8.58625e-21
2.71594e-21
1.05713e-20
1.44902e-20
1.23602e-20
6.79394e-21
5.00103e-22
2.50167e-21
1.9019e-21
6.18368e-21
5.32238e-21
5.11564e-21
4.40436e-21
3.49848e-21
1.14705e-21
5.69447e-21
4.00513e-21
5.52822e-22
5.17647e-21
1.05782e-21
9.09418e-22
8.25479e-23
2.77739e-21
1.07654e-20
3.80113e-22
4.39782e-21
2.15264e-21
1.5975e-21
2.11784e-21
3.12679e-21
1.49067e-21
1.52809e-21
9.01023e-21
4.71665e-21
1.6264e-21
6.55461e-21
1.21179e-20
1.15347e-20
5.67098e-21
3.46233e-21
3.58374e-21
8.63542e-21
2.88364e-21
3.49604e-21
1.14535e-22
9.85088e-22
5.19454e-21
9.14997e-22
2.38783e-21
6.19078e-21
3.55386e-21
3.54508e-21
4.23858e-21
2.22018e-21
6.42242e-21
9.51131e-21
3.9897e-21
9.40389e-22
5.003e-21
1.30363e-20
1.92602e-21
7.01048e-22
2.9124e-21
8.22758e-21
6.66286e-21
6.67892e-22
1.33244e-20
1.34961e-20
4.67492e-21
1.9901e-21
9.83234e-23
1.45238e-21
8.35929e-21
1.06347e-20
2.32645e-22
8.06342e-22
5.72344e-21
1.00395e-20
6.544e-21
1.12109e-21
1.13395e-20
4.87482e-21
6.15558e-23
2.25594e-21
3.02658e-21
1.62318e-20
9.49147e-21
6.20144e-21
1.10922e-20
7.06298e-21
4.33252e-22
7.76586e-21
1.28718e-21
8.0494e-21
4.29621e-22
1.01309e-21
6.30262e-22
1.42995e-21
3.51236e-21
3.95387e-21
1.43277e-20
2.25115e-21
1.48006e-21
3.68038e-21
1.11858e-21
3.03105e-21
1.01955e-20
2.58732e-22
1.19934e-21
2.8475e-22
2.1679e-21
9.44832e-23
4.68689e-21
7.32414e-21
4.85039e-21
4.80303e-21
2.25993e-21
3.54388e-22
3.54827e-21
8.77412e-21
4.64012e-22
2.69239e-21
2.42846e-21
1.52268e-20
8.73701e-21
5.14475e-21
3.21046e-22
3.79871e-22
4.96333e-21
1.06601e-21
7.22483e-21
7.71639e-21
2.32799e-21
8.64375e-22
3.16027e-25
9.29255e-21
2.25297e-21
3.89245e-21
1.04709e-20
3.91885e-21
1.12859e-21
1.94395e-21
2.0472e-21
5.99245e-22
1.37193e-21
6.94773e-21
5.72521e-23
1.88089e-22
3.39815e-22
1.38143e-21
1.11465e-20
3.09518e-21
3.80894e-21
3.83722e-22
1.47949e-21
1.64498e-21
2.54065e-21
2.50769e-21
8.27489e-22
1.29056e-21
1.56028e-21
1.03783e-20
6.61758e-21
4.22325e-22
1.60625e-20
1.37582e-21
1.65421e-22
3.01655e-21
5.95848e-22
6.88151e-21
1.31199e-21
2.26494e-21
2.7771e-21
5.02483e-21
6.4662e-21
6.41548e-21
1.45049e-21
1.30292e-21
9.15911e-21
1.32554e-20
3.17952e-21
4.94356e-22
7.5883e-21
8.29488e-21
5.20792e-21
8.07483e-21
1.45876e-21
2.83022e-21
4.93107e-21
7.48758e-22
8.35335e-21
1.33845e-21
2.80906e-21
7.99728e-22
1.27848e-21
5.17914e-21
3.8205e-22
3.64754e-21
5.93213e-21
2.77193e-21
8.48679e-21
1.62558e-20
1.50834e-20
5.57947e-21
1.16939e-21
2.05296e-21
7.62822e-22
1.91811e-21
4.00934e-22
1.91764e-21
5.83075e-21
3.1807e-22
2.30868e-21
3.99778e-21
1.42894e-21
5.84432e-21
1.00515e-20
3.10678e-21
1.2131e-22
2.89751e-21
4.96924e-22
1.08227e-20
4.96301e-21
8.03126e-21
2.52966e-22
1.27925e-21
1.86546e-22
4.69965e-22
4.06348e-22
4.94554e-22
1.68698e-21
4.97971e-21
1.44271e-21
1.59294e-21
1.73114e-21
4.03221e-21
2.17573e-21
1.82723e-21
2.48951e-21
1.94582e-21
1.7016e-21
1.04741e-21
4.05642e-21
4.96311e-21
3.04198e-21
3.25026e-22
7.88578e-22
3.35072e-21
7.36312e-22
3.18587e-21
7.15983e-22
1.03121e-20
4.97531e-21
9.37979e-21
3.4461e-21
3.65839e-21
2.54243e-22
9.67133e-21
6.56382e-22
3.41027e-22
9.59294e-21
2.17877e-20
2.82094e-21
1.27261e-20
2.29618e-21
7.14347e-21
3.58735e-21
7.58177e-22
1.56681e-21
7.25577e-21
9.17537e-22
4.82401e-22
7.61395e-22
5.91882e-21
2.78168e-21
1.85621e-22
1.46504e-20
8.67135e-21
1.13675e-20
1.73962e-21
1.55781e-21
3.80884e-21
6.726e-22
6.61883e-21
7.25141e-21
7.43344e-21
7.41899e-21
8.97592e-21
1.44227e-21
8.94099e-21
2.22299e-22
2.97169e-21
1.14254e-21
1.73237e-21
7.18828e-22
6.24083e-21
3.72982e-21
2.58125e-21
4.94224e-21
1.47375e-21
1.06001e-20
3.93642e-22
1.10868e-22
6.63702e-21
2.58402e-21
1.93937e-20
3.62014e-21
3.07228e-21
1.5281e-21
2.3334e-22
1.16036e-20
1.96444e-21
6.55157e-21
4.21646e-21
3.12728e-21
2.72483e-21
5.70771e-22
1.9121e-21
4.26163e-21
3.46753e-21
1.66274e-21
2.38095e-21
2.57038e-21
9.31222e-22
5.80155e-21
3.47283e-21
1.71604e-21
3.18728e-21
1.23598e-20
1.00103e-20
7.53705e-21
2.06944e-21
1.34328e-20
3.7506e-21
9.75157e-22
1.31853e-21
5.26178e-21
1.52393e-21
2.88976e-21
7.14506e-21
5.26418e-22
7.07091e-21
1.63255e-20
8.3749e-21
4.94897e-21
4.98847e-21
2.34034e-23
2.70598e-22
4.89761e-21
5.30268e-21
8.02921e-23
1.86534e-21
4.0496e-22
3.90737e-21
2.13777e-21
1.23269e-20
6.4919e-21
1.78498e-21
4.10969e-20
6.23976e-21
1.12353e-21
9.01069e-21
4.78024e-22
4.29827e-21
7.88333e-21
2.35556e-21
2.9041e-21
7.81115e-21
1.57353e-21
6.14546e-21
5.51266e-21
9.51133e-23
4.90147e-22
5.41288e-22
9.5124e-21
6.92192e-22
5.28504e-22
3.82606e-21
8.67454e-21
4.41688e-21
1.05635e-21
3.1987e-21
6.39715e-21
3.60379e-21
5.53311e-23
4.31392e-22
4.95997e-21
3.32023e-21
6.54768e-21
4.53483e-21
4.54431e-21
1.6277e-21
6.7773e-23
5.40335e-21
2.9465e-21
1.96103e-21
1.09357e-21
1.56781e-21
1.1509e-20
2.5826e-21
1.98964e-20
1.70983e-20
7.55061e-22
1.37725e-22
1.68847e-21
4.06807e-21
2.89207e-21
1.83501e-21
1.20385e-21
8.43182e-21
1.63431e-21
1.31744e-21
2.28762e-21
1.45147e-22
2.3849e-21
1.47798e-22
7.74619e-23
1.00058e-21
1.15217e-21
3.30798e-21
5.22061e-22
2.43743e-21
1.35452e-21
5.46188e-21
5.06973e-21
2.12844e-21
2.04781e-21
3.31993e-21
1.49954e-20
2.12103e-21
9.64987e-23
9.68493e-22
1.14498e-20
1.04619e-21
9.8362e-21
7.33156e-21
9.54852e-21
6.60714e-21
2.86387e-21
1.49946e-21
1.45752e-21
5.2329e-21
2.92319e-22
2.53599e-21
9.66871e-23
3.57003e-21
3.61188e-22
9.87844e-22
1.29561e-21
3.46823e-21
6.40851e-21
5.29014e-21
7.23312e-22
5.47847e-21
5.15642e-21
1.25021e-21
4.5306e-21
3.18586e-21
2.12341e-21
6.3317e-21
5.10621e-21
1.15222e-22
3.63116e-21
7.27597e-22
4.17854e-21
1.75779e-21
4.74545e-21
5.7977e-21
6.45027e-21
1.93436e-21
1.4689e-21
2.09644e-22
1.13647e-21
1.07407e-20
6.8339e-21
3.12313e-21
1.68888e-22
5.66175e-21
2.3343e-21
3.93464e-21
2.69562e-21
4.204e-21
1.39043e-20
8.71758e-21
8.51918e-21
3.54136e-21
5.80337e-21
8.04635e-22
4.41061e-21
2.10037e-21
1.82392e-21
5.11678e-21
1.17877e-22
2.86508e-21
8.09569e-22
1.87552e-21
1.70373e-21
6.70059e-21
5.67897e-21
1.62735e-22
1.54045e-21
9.10615e-22
2.39042e-21
2.66365e-21
3.00837e-21
8.26786e-21
2.74634e-21
3.90778e-21
1.23884e-22
3.82331e-21
1.92789e-21
5.39833e-23
1.47005e-20
1.03397e-20
1.91047e-20
6.37126e-21
2.7455e-21
1.85491e-21
1.6831e-21
7.29834e-21
5.60034e-22
2.61412e-21
2.13244e-21
2.58214e-20
2.76091e-21
3.62546e-21
1.51073e-21
4.77869e-21
2.61521e-21
1.72776e-21
8.02398e-22
1.78073e-21
5.95132e-22
3.6204e-21
1.9842e-22
8.35435e-21
1.62115e-22
5.30357e-23
5.18737e-22
1.45422e-20
7.63704e-21
5.14917e-21
3.43792e-21
1.98472e-21
1.21539e-22
2.41253e-21
2.39919e-22
3.15846e-23
4.84991e-21
1.13592e-21
2.82457e-21
1.78864e-21
4.56554e-21
4.31745e-21
1.2682e-20
3.55939e-21
3.62731e-21
1.72695e-20
7.79174e-22
1.12861e-21
3.29074e-22
1.73749e-21
4.35344e-21
1.90817e-21
2.09127e-21
3.24599e-21
2.76726e-21
3.59039e-21
9.74875e-21
2.0001e-21
2.43297e-21
1.94594e-22
3.44317e-21
9.02838e-21
2.33376e-21
3.54349e-22
8.81234e-22
1.58517e-21
1.04182e-21
3.04879e-21
1.72875e-21
6.23016e-22
1.21518e-21
1.03887e-21
1.1574e-21
3.23887e-21
2.46354e-21
5.60398e-21
3.91287e-22
1.10108e-23
1.8706e-21
2.75444e-21
2.54946e-22
1.63589e-21
8.1792e-21
1.40204e-21
3.5198e-21
6.47267e-22
5.92205e-22
1.41733e-21
8.04323e-21
4.96892e-21
1.04134e-20
1.4932e-20
2.91896e-21
1.04941e-21
2.66905e-22
5.75502e-21
1.08082e-20
1.57701e-21
1.87589e-22
6.88016e-21
4.77386e-21
1.82224e-21
4.30211e-21
5.39311e-21
6.53722e-21
4.68725e-22
1.38013e-20
7.87137e-21
1.62565e-21
5.4399e-21
1.94209e-21
3.61548e-21
4.826e-21
1.72278e-21
1.93448e-21
4.93268e-21
7.10875e-21
2.13709e-21
1.94239e-21
4.12194e-21
1.01988e-20
5.45219e-21
4.26339e-21
1.67129e-21
2.47362e-23
2.12406e-21
2.55592e-21
3.24404e-21
8.02328e-21
3.96728e-21
2.1289e-22
5.00597e-21
8.62196e-21
1.53734e-20
5.71501e-21
9.08694e-21
1.69476e-21
4.96027e-21
7.15706e-21
2.28885e-21
5.24948e-21
3.01329e-21
6.03341e-22
1.48321e-20
4.5763e-21
6.57939e-22
6.99652e-22
1.77472e-22
5.01033e-21
2.86382e-21
1.4167e-20
1.91105e-20
1.05461e-20
4.6642e-22
4.16633e-22
8.72979e-22
1.04966e-20
1.11778e-20
7.04007e-21
2.94037e-21
5.35523e-22
4.28453e-21
5.73904e-21
4.60325e-21
3.9652e-21
3.25823e-21
1.71951e-20
2.20682e-21
6.37073e-22
1.73151e-20
6.71839e-22
8.76215e-22
6.2263e-21
1.97114e-21
1.87844e-21
4.77182e-22
8.63438e-22
2.75814e-21
3.33475e-21
1.35347e-21
2.22189e-21
5.85567e-22
9.21911e-22
3.32354e-21
2.21358e-21
2.73143e-21
1.59053e-21
6.38544e-21
8.90999e-22
1.81538e-21
2.71095e-22
1.55772e-21
7.97968e-21
2.87955e-22
1.02376e-22
4.85415e-21
2.38392e-21
6.73893e-22
9.38918e-21
1.11127e-21
1.16832e-20
1.06256e-20
2.91935e-21
5.08977e-21
9.37468e-21
1.11777e-20
1.06555e-21
5.36065e-21
9.1801e-22
3.21796e-21
1.73467e-21
7.28118e-23
1.97754e-21
2.29032e-21
2.96218e-21
5.90768e-21
4.66367e-22
1.44957e-21
1.82219e-20
2.40316e-21
8.37325e-22
3.94235e-21
6.32277e-22
5.13587e-21
2.77977e-21
7.28825e-21
6.21586e-22
1.63607e-21
1.44031e-22
1.20278e-20
2.15112e-21
1.44814e-21
1.9906e-21
2.50105e-21
5.61709e-21
1.58721e-21
2.07526e-21
4.48988e-21
5.6407e-21
2.6239e-21
3.27929e-22
1.07593e-20
3.75356e-21
6.44105e-22
2.59333e-21
5.21982e-21
1.4397e-22
6.58541e-21
1.11643e-21
1.97997e-21
1.51122e-21
3.01517e-22
2.89364e-21
5.78129e-22
1.17437e-21
4.21489e-21
2.64616e-21
6.22775e-22
3.4321e-23
5.04395e-21
1.45707e-21
4.07943e-21
3.52684e-20
4.92105e-21
1.62595e-20
2.6693e-21
1.48055e-21
1.03465e-21
6.84937e-21
1.43287e-21
9.85376e-23
4.56772e-21
1.09447e-21
8.23099e-22
4.08082e-23
1.481e-21
6.89614e-22
8.75029e-21
1.17831e-21
2.57271e-21
4.88349e-21
1.77072e-21
8.27523e-21
1.3199e-21
5.93251e-22
2.61226e-21
5.97346e-22
6.79442e-22
2.36294e-23
7.49694e-21
9.41021e-21
7.7588e-22
2.29982e-21
1.60768e-21
4.35823e-22
7.73718e-22
1.57789e-20
7.1112e-22
2.12925e-21
2.38344e-21
7.44187e-21
1.36773e-21
6.75819e-21
1.01415e-20
3.17003e-21
3.65974e-23
2.14935e-21
1.80373e-21
3.61705e-21
1.71011e-22
5.47669e-21
1.48922e-21
6.53484e-21
1.03038e-23
7.13466e-22
7.836e-21
9.00137e-21
4.95363e-21
6.66422e-21
7.73647e-21
1.03168e-21
2.71359e-21
2.14554e-21
3.37685e-21
7.86952e-22
3.30135e-22
8.67336e-22
2.44394e-22
2.31142e-21
1.12196e-21
8.16188e-21
4.46872e-21
5.13625e-21
5.80979e-21
1.60165e-20
1.02296e-21
3.24203e-21
1.31082e-21
3.33125e-23
2.10277e-21
4.25163e-21
4.70726e-21
4.46408e-21
2.75725e-21
8.26703e-21
3.21752e-21
3.31605e-22
2.60643e-21
4.54124e-21
9.97049e-21
2.87602e-21
4.69071e-21
5.6794e-21
1.34655e-21
3.36713e-21
2.98782e-21
1.63467e-20
3.56739e-21
1.20329e-20
4.51202e-22
6.16067e-21
1.51186e-20
3.6382e-21
1.73392e-21
5.34202e-21
8.41874e-21
7.17065e-21
2.47561e-22
3.86629e-21
3.63086e-21
6.46499e-21
3.25098e-21
3.26311e-21
1.25647e-20
4.23745e-22
1.07374e-21
3.13661e-21
9.38271e-21
1.34283e-20
1.92709e-20
3.1101e-21
8.24656e-21
3.01733e-21
9.26238e-22
8.55242e-21
6.64341e-21
7.56341e-22
4.54068e-21
7.37397e-21
8.71347e-22
1.24712e-21
1.30208e-21
4.92632e-21
4.08173e-21
1.36681e-20
1.61527e-21
3.13722e-22
4.80458e-23
6.41196e-21
4.50801e-21
8.39489e-21
7.25279e-22
4.96045e-21
1.10528e-21
6.07943e-22
2.72605e-22
8.67256e-22
1.00117e-20
3.54746e-21
5.63183e-21
6.11709e-21
2.64265e-21
3.77641e-21
3.54151e-21
1.21693e-20
1.61455e-21
7.63093e-22
2.52515e-21
3.29278e-21
1.89624e-21
4.83623e-21
2.23152e-22
1.24673e-21
8.93274e-22
1.08248e-21
9.1426e-22
2.84073e-21
1.6215e-20
1.2826e-21
9.88492e-22
3.55683e-21
4.23728e-21
8.19716e-21
1.46991e-21
5.47224e-22
7.76903e-21
1.25817e-21
8.04465e-21
1.68746e-21
1.0815e-20
2.22249e-21
1.23112e-20
1.20088e-20
1.37286e-22
4.13874e-21
1.18414e-20
1.53083e-21
1.79389e-21
4.23014e-21
2.13852e-21
5.17083e-21
7.34364e-22
4.65357e-21
6.28057e-21
1.9208e-21
2.67954e-21
9.5478e-22
2.48512e-21
3.51442e-21
4.63817e-21
5.47265e-21
9.67069e-21
5.80808e-22
4.1564e-22
1.9605e-20
5.01983e-21
3.35343e-21
4.70525e-21
1.06592e-20
4.47832e-21
4.46641e-22
1.2045e-20
4.89213e-21
3.4237e-22
5.12607e-21
1.09318e-21
6.72427e-21
2.27781e-21
4.01537e-21
1.27452e-21
9.06359e-21
3.8351e-21
1.50825e-21
3.07329e-21
1.19262e-22
1.24487e-20
2.22067e-20
4.55163e-21
6.45912e-21
7.60574e-22
1.8716e-21
1.79831e-20
3.60529e-21
1.90655e-21
1.83343e-21
6.13439e-21
1.46221e-20
2.68391e-21
1.15866e-21
1.28191e-20
3.24461e-21
4.45895e-21
8.75303e-21
3.62085e-21
3.66595e-21
1.06569e-21
1.01513e-21
3.97505e-21
9.83597e-21
1.46232e-20
1.33199e-21
8.01673e-21
1.65216e-21
1.6547e-21
4.05087e-21
1.03609e-21
2.05525e-22
3.4631e-21
2.64318e-22
6.72928e-22
2.63942e-22
2.45939e-21
1.79725e-21
2.00072e-21
5.19847e-21
9.56321e-21
2.87844e-21
8.09659e-21
1.32465e-21
9.52436e-22
1.42815e-20
4.35074e-21
7.51551e-22
3.41809e-21
4.0252e-21
2.75403e-21
1.39427e-21
2.59896e-21
2.69615e-21
3.10659e-21
6.48269e-22
5.59031e-23
3.06315e-21
2.78023e-21
7.56744e-21
2.88734e-22
1.1594e-22
1.26136e-20
7.35687e-21
6.40665e-22
5.55492e-21
3.10581e-21
7.39318e-21
7.0783e-22
6.15166e-21
1.5768e-20
4.47152e-22
4.58059e-21
1.34717e-20
5.93814e-21
2.09462e-21
3.10033e-21
3.47126e-21
5.47199e-21
3.98597e-21
1.25499e-23
3.02683e-21
8.05611e-21
8.83757e-22
6.34956e-23
2.38781e-21
1.37406e-21
1.37897e-21
1.91522e-21
1.50704e-21
9.09688e-22
3.21554e-22
2.00776e-21
4.49505e-22
5.09034e-21
5.66149e-21
9.44933e-22
1.59738e-21
5.3692e-21
4.10208e-21
1.93222e-21
6.96441e-22
9.24381e-21
5.44324e-22
1.38146e-21
6.55472e-21
6.22828e-21
1.11142e-20
5.37488e-21
3.43872e-22
9.46069e-22
4.21933e-22
1.95631e-21
2.67729e-21
1.01487e-20
1.56622e-22
5.14165e-21
5.70569e-21
9.67746e-21
5.52004e-22
5.1643e-21
5.51136e-22
2.10212e-21
7.20743e-21
3.92416e-21
4.6303e-21
2.0499e-21
3.24335e-21
1.55157e-21
1.40147e-20
1.27049e-21
5.68532e-22
8.62325e-21
2.85884e-21
2.32001e-21
2.39096e-22
1.27184e-20
3.31338e-21
2.55735e-21
1.48359e-20
2.04054e-22
2.10228e-21
1.32678e-20
1.23072e-21
5.34038e-21
4.54979e-21
1.10192e-21
3.10116e-21
1.75382e-21
7.87728e-22
7.70322e-21
2.20814e-21
6.69894e-21
1.61814e-21
2.43532e-21
1.08198e-21
1.14402e-21
6.51734e-22
4.10549e-21
3.20853e-23
5.0468e-21
5.50909e-21
2.26739e-21
3.02028e-21
6.48644e-21
1.82403e-21
4.68196e-22
1.29982e-21
3.86879e-21
1.33675e-20
6.46462e-21
8.4628e-22
1.33923e-21
3.58315e-21
3.81618e-21
2.9187e-22
1.31739e-21
7.40814e-21
6.69806e-22
1.89485e-21
8.09177e-22
2.65972e-21
9.32612e-21
8.20985e-21
4.98443e-21
1.48127e-21
3.58783e-21
1.092e-20
2.94817e-21
1.1619e-21
1.02519e-23
7.24563e-21
1.75388e-22
5.24985e-21
5.80442e-21
9.4799e-22
5.99624e-21
3.49393e-21
2.25651e-21
2.29781e-21
6.64333e-22
1.76085e-21
2.63044e-21
1.25278e-21
3.25371e-21
1.40735e-21
5.73637e-21
3.65896e-22
1.48466e-21
3.80904e-21
9.32687e-21
1.30615e-21
1.37923e-21
4.95536e-21
7.8231e-22
6.00325e-22
1.4552e-21
1.47424e-21
4.88222e-21
2.6191e-22
1.2811e-20
1.26251e-20
1.69126e-21
5.24573e-21
1.56331e-20
1.39215e-21
7.3214e-22
2.16219e-22
1.10985e-20
4.59561e-21
9.08642e-21
3.11908e-21
1.96085e-23
6.57852e-22
6.02281e-22
8.10955e-22
1.60555e-20
2.86469e-21
2.59009e-21
4.35107e-21
7.79021e-22
1.37292e-20
4.49926e-22
7.26755e-21
9.15835e-22
2.21435e-21
1.12497e-20
4.10769e-21
9.67378e-21
9.26486e-23
9.8887e-21
1.22148e-21
3.89737e-21
2.61864e-22
1.16219e-20
6.80112e-21
1.43035e-21
4.21002e-21
5.98261e-21
3.17038e-21
1.20969e-21
2.29044e-20
2.31801e-21
2.42074e-21
3.8221e-21
2.47877e-20
5.2445e-21
1.83386e-21
7.41098e-22
7.388e-21
6.9299e-21
1.21734e-21
3.1441e-21
8.40108e-22
4.87642e-21
6.07184e-21
1.88733e-21
3.51569e-21
1.31948e-21
1.91903e-21
4.89186e-21
1.21994e-20
4.89399e-22
2.32855e-21
3.00351e-21
1.05372e-21
2.92955e-21
3.5161e-21
6.13138e-22
7.93686e-21
7.09444e-21
1.57143e-21
2.0156e-21
8.5561e-21
2.40136e-21
2.49786e-22
9.67279e-22
2.97904e-21
1.20362e-20
5.31074e-21
1.31694e-21
3.76929e-21
1.5423e-21
2.34076e-22
1.25223e-21
6.67111e-21
4.29451e-21
2.60373e-21
1.09562e-22
2.36706e-21
3.57852e-21
2.38619e-21
4.61488e-21
1.55403e-22
6.67242e-21
2.87573e-22
3.61205e-21
3.48973e-21
2.62654e-22
1.15808e-20
1.50408e-21
5.58331e-21
1.59025e-21
5.64508e-21
9.09976e-21
2.32474e-21
1.42488e-21
8.52091e-21
1.68464e-20
9.51508e-21
9.11682e-21
1.74932e-22
1.67789e-21
1.96951e-21
2.57576e-20
1.36441e-20
2.08922e-21
6.63248e-21
5.36258e-21
8.40212e-21
2.1165e-20
3.79991e-21
2.84032e-21
9.69914e-21
1.05867e-20
1.43516e-21
6.32445e-21
2.41728e-21
4.80303e-21
1.07408e-21
7.15207e-21
3.43041e-21
1.42182e-22
7.78419e-22
1.20309e-21
5.11408e-22
3.84238e-21
4.74342e-21
6.35685e-21
1.26711e-21
6.04071e-21
6.50897e-21
3.59846e-21
3.19194e-21
2.53496e-21
6.09084e-21
7.05882e-21
5.48065e-22
1.05135e-20
3.84687e-22
1.78794e-21
1.99296e-21
1.41775e-21
2.50417e-21
2.21241e-20
2.1105e-21
2.44184e-22
1.42297e-22
3.83955e-21
3.12249e-21
1.81716e-21
1.04094e-21
1.06583e-21
1.92197e-21
6.62209e-22
6.04459e-21
3.30417e-21
9.02769e-22
6.2277e-21
5.53237e-21
1.58545e-22
6.67617e-23
1.00557e-21
4.54302e-22
1.5962e-21
2.28773e-21
1.17975e-20
8.50689e-21
4.27705e-21
3.79071e-21
1.11939e-22
1.12596e-20
2.75179e-21
2.82472e-21
6.8555e-21
2.0327e-21
6.80373e-21
4.79447e-21
1.48017e-21
7.89629e-21
6.81069e-21
4.00984e-21
1.43209e-21
6.55853e-22
2.22709e-21
1.89581e-21
7.17531e-22
3.94934e-21
4.58996e-22
6.87685e-21
1.25416e-21
4.1704e-21
5.17888e-22
1.00589e-20
5.38166e-21
6.8666e-21
3.01864e-22
3.73595e-21
5.32745e-21
3.07731e-21
1.37515e-20
2.25846e-21
7.02376e-22
3.18697e-21
4.06645e-21
9.97909e-22
1.96475e-21
4.62379e-22
5.02539e-22
1.20135e-21
1.20974e-21
1.3634e-21
4.11805e-21
6.58173e-22
2.9304e-21
6.28078e-22
3.17889e-21
3.99477e-21
1.09037e-20
2.26656e-21
4.74948e-21
1.75976e-21
2.12585e-21
1.90339e-21
3.17513e-21
2.03069e-20
1.6005e-20
4.06228e-21
3.02449e-21
1.25968e-20
7.04754e-22
1.5599e-21
1.18587e-21
2.10299e-22
2.79322e-22
1.36229e-21
6.33992e-22
1.40413e-21
1.43473e-22
2.86755e-21
6.47023e-22
1.39978e-21
2.5334e-21
4.92284e-22
3.28325e-21
1.41955e-21
2.67899e-21
1.50049e-21
6.48499e-23
2.72077e-21
1.67647e-21
1.06685e-21
8.05248e-22
8.61485e-22
2.24191e-21
1.10569e-20
1.54349e-21
1.28447e-21
2.02724e-21
1.20148e-21
8.23787e-21
5.72154e-21
1.08934e-20
5.83193e-21
5.93903e-21
4.51737e-21
2.26785e-23
6.72124e-22
5.69682e-21
5.09504e-21
5.27065e-23
3.22602e-22
2.50046e-21
2.4112e-21
6.58152e-22
5.42185e-21
7.72564e-22
2.4508e-21
2.38725e-20
3.63918e-21
6.22418e-21
7.09646e-21
3.36926e-21
1.59534e-20
3.24442e-21
1.6307e-21
6.27162e-21
1.22872e-20
3.93797e-21
5.99483e-21
5.05658e-22
3.38205e-21
1.90698e-22
1.99066e-21
4.57575e-21
6.76405e-22
3.50427e-21
3.63339e-21
3.86579e-21
1.2862e-20
4.38897e-21
4.96045e-21
1.86428e-21
1.25937e-21
1.83618e-21
2.19274e-21
2.08325e-21
8.99874e-22
1.13228e-20
4.02685e-21
3.36777e-21
6.53847e-21
7.17063e-21
1.3986e-21
2.24599e-21
5.66344e-21
4.03332e-21
8.219e-22
4.50592e-21
1.89366e-22
2.11269e-21
2.86949e-21
3.10534e-21
3.88781e-21
3.7806e-21
2.45717e-21
9.89956e-22
2.91675e-21
2.40362e-21
1.90857e-21
9.32851e-21
5.10369e-21
1.24235e-21
2.19534e-21
1.53117e-21
3.29256e-21
7.06093e-22
2.70695e-21
5.2285e-22
4.08062e-23
6.62688e-22
6.27535e-21
4.67268e-21
3.82665e-21
2.03078e-21
1.3275e-21
4.2048e-21
3.36529e-21
6.9057e-21
1.66752e-20
6.14264e-21
5.0824e-22
9.02968e-21
5.21144e-21
2.30629e-21
6.9047e-21
1.20859e-20
4.99315e-21
3.0417e-22
1.61049e-21
3.95687e-21
1.26562e-20
1.32967e-20
7.38077e-21
8.40403e-21
9.60425e-22
5.69214e-22
2.11364e-21
5.08218e-21
6.73241e-21
5.95653e-21
7.40245e-22
1.31844e-20
4.37011e-21
6.26169e-21
4.09405e-21
1.78315e-21
2.44332e-21
5.7289e-21
7.78214e-22
3.2379e-21
3.93944e-21
3.50027e-21
2.69597e-21
3.00828e-22
2.45769e-22
6.96946e-21
6.62109e-21
1.02302e-22
8.46912e-21
4.57235e-21
4.0202e-21
1.24303e-21
1.54815e-21
3.5245e-22
7.34623e-21
5.01036e-21
7.07624e-22
1.56244e-20
8.83893e-21
1.29436e-21
6.87394e-22
6.95307e-21
3.49491e-22
1.35798e-20
4.19182e-21
8.41351e-21
3.27919e-21
8.08336e-21
5.01964e-22
1.24977e-20
3.66013e-22
4.02739e-21
7.5034e-22
9.19268e-22
7.83625e-21
1.19368e-20
8.09683e-22
4.29331e-21
9.91236e-22
2.8067e-21
2.88621e-21
2.72391e-21
1.71326e-23
2.66333e-21
2.89508e-22
9.2701e-21
5.84906e-21
3.67803e-22
8.24883e-21
3.54265e-21
5.83503e-22
4.79713e-21
5.67333e-21
2.08085e-22
2.90732e-21
2.13666e-21
1.90526e-22
3.48044e-21
3.9057e-21
2.07774e-21
8.76157e-21
5.71586e-22
1.35796e-21
4.64429e-22
1.85403e-21
3.15833e-21
2.39316e-21
2.23159e-21
2.42818e-21
5.51126e-21
1.36175e-21
1.40014e-20
3.0353e-21
1.10565e-20
6.71253e-22
5.70469e-21
6.33652e-22
3.64121e-21
6.10429e-21
1.81328e-22
1.77506e-22
1.4428e-21
2.35619e-21
3.27674e-21
2.04013e-21
1.66011e-22
2.3356e-21
2.45506e-21
3.10574e-21
2.19454e-21
8.7416e-21
1.20586e-20
6.84069e-21
4.25647e-21
1.19501e-20
2.77807e-21
1.81213e-20
1.02607e-20
1.32829e-20
3.3596e-21
5.79019e-21
2.23884e-22
7.00352e-21
3.01077e-21
5.72702e-21
1.26939e-21
5.93008e-21
1.75499e-21
1.97309e-21
5.47362e-22
7.49516e-21
8.40018e-22
7.25615e-21
1.87455e-21
2.25938e-21
1.79934e-20
2.35778e-21
3.17385e-21
3.83042e-21
3.23756e-21
6.2951e-22
1.91326e-20
6.04194e-21
5.10116e-21
2.5577e-21
7.89995e-21
2.90273e-21
1.16847e-20
2.32839e-21
1.20069e-20
1.36596e-21
1.26196e-22
1.7946e-21
2.25846e-20
9.42917e-22
1.39504e-20
3.23628e-21
1.99931e-20
2.51646e-21
3.50109e-22
3.3671e-21
1.89359e-21
4.18371e-21
2.63463e-21
4.46809e-21
3.09171e-21
1.51827e-20
4.16009e-21
6.88155e-21
3.02996e-21
4.3693e-22
6.27013e-21
9.97611e-22
9.84794e-21
1.05509e-22
4.42407e-21
2.58894e-22
3.84444e-21
6.82381e-21
5.13377e-21
2.07803e-21
3.89009e-21
6.21314e-22
4.3061e-22
1.25557e-20
2.6303e-21
7.81765e-21
5.13674e-21
7.42837e-22
2.41257e-21
1.91734e-21
6.61155e-21
3.5603e-21
1.91156e-21
1.911e-21
8.4999e-22
7.54502e-22
2.59422e-21
3.1425e-21
4.46436e-21
4.64856e-21
6.64045e-21
1.25679e-21
1.1513e-22
3.60327e-21
7.43125e-21
4.04895e-21
6.1025e-21
1.3465e-20
4.97086e-22
3.63093e-21
5.49352e-22
7.73632e-21
8.00394e-21
1.55109e-21
8.1472e-21
2.27366e-21
6.41716e-21
2.10536e-21
2.4192e-21
7.37907e-22
4.60936e-21
1.0847e-20
4.5935e-21
4.74528e-21
5.71928e-21
1.27585e-20
1.24614e-22
3.07162e-22
1.25159e-21
6.48452e-21
1.24917e-21
2.05868e-21
2.83421e-21
5.96348e-21
7.51771e-22
7.02962e-21
1.09809e-20
5.26695e-21
1.31049e-20
1.29346e-21
8.18118e-22
2.46508e-21
2.11445e-21
2.86867e-21
2.69207e-22
4.60611e-21
2.0365e-21
2.51732e-21
7.34241e-21
5.89409e-21
1.37683e-20
2.1142e-22
9.78503e-22
1.66165e-21
8.01475e-23
9.22333e-21
3.26815e-21
4.29915e-22
2.75909e-21
1.38748e-20
3.93828e-21
1.26815e-21
5.16243e-21
1.25756e-21
2.04153e-21
3.20772e-22
1.50721e-21
4.19592e-21
8.68567e-21
3.12385e-21
2.18923e-21
6.78649e-22
3.90443e-21
1.15791e-20
3.77754e-21
3.14378e-21
1.99196e-21
8.2936e-22
2.45841e-21
1.16153e-20
3.43549e-21
1.14556e-20
1.13614e-20
1.44346e-23
1.21753e-21
7.49901e-21
6.23226e-22
3.24213e-21
2.2458e-21
2.44593e-21
4.99625e-21
8.01088e-21
5.66927e-21
5.39173e-21
6.61122e-21
2.07462e-21
9.00321e-23
6.18068e-21
2.81062e-21
8.89151e-21
2.56337e-21
5.47554e-21
4.15399e-21
2.47485e-21
8.09515e-22
2.16714e-21
1.32127e-20
2.97157e-21
5.07819e-21
2.87376e-21
5.54658e-22
6.26749e-23
4.57098e-22
2.49013e-21
2.8736e-21
2.84613e-21
1.65209e-21
2.60797e-20
2.00728e-21
2.22765e-21
1.31685e-22
2.16206e-21
1.42189e-20
5.05687e-21
3.08946e-21
1.1714e-21
5.88057e-21
1.70997e-21
6.55814e-22
9.05056e-21
2.83363e-21
2.51307e-21
1.11011e-21
2.16313e-21
2.28038e-21
6.30403e-21
1.65485e-21
2.11251e-21
3.18438e-21
2.94999e-21
1.95667e-21
1.07984e-21
5.62746e-21
4.85204e-21
9.31518e-21
8.68013e-21
1.53604e-21
2.12054e-21
7.18529e-21
4.7208e-23
4.7782e-21
2.05062e-21
3.7835e-21
9.26166e-21
9.03089e-21
9.13554e-21
6.08828e-21
5.53507e-21
1.67583e-21
5.09472e-21
2.32179e-21
3.00926e-21
2.46176e-21
3.331e-21
5.05299e-21
1.16222e-21
4.47594e-21
3.50045e-21
1.37341e-21
6.16989e-22
8.38334e-22
1.08257e-21
2.89319e-22
2.00361e-22
9.2617e-22
2.05812e-21
9.13659e-21
4.2196e-22
6.4031e-21
5.79689e-21
7.35039e-21
4.50248e-21
4.35432e-21
8.54506e-22
1.28852e-21
6.55966e-22
3.37394e-21
9.41789e-21
2.79789e-21
4.48785e-21
7.72485e-21
2.43522e-21
1.34046e-21
1.5695e-20
6.75669e-22
2.47762e-21
1.36517e-21
3.01289e-21
3.2271e-21
6.63086e-21
1.27935e-21
3.3324e-21
2.22516e-21
1.06331e-20
1.08933e-20
1.46723e-21
6.72168e-21
5.48101e-21
8.75613e-22
7.19297e-22
1.28765e-20
1.25718e-20
1.88087e-21
2.87509e-21
2.09501e-21
1.14883e-21
9.70766e-21
2.25008e-21
1.31142e-20
2.59508e-21
7.13029e-21
2.47593e-22
5.66783e-23
4.76609e-21
2.31364e-21
3.35199e-21
9.18984e-22
2.05473e-21
1.81123e-21
2.64654e-22
3.46789e-21
1.33761e-21
2.954e-21
5.85539e-21
7.70555e-22
1.95878e-21
3.28072e-21
1.75389e-22
1.1898e-21
5.42389e-22
7.88555e-22
5.82926e-21
6.12169e-21
6.15551e-21
1.52418e-20
1.79943e-21
1.82408e-21
1.45578e-21
4.56981e-21
1.81038e-21
5.19138e-21
2.3581e-21
4.18301e-22
3.90277e-21
9.99279e-21
3.70684e-21
2.17007e-21
3.0285e-21
1.01669e-21
8.91033e-21
9.59552e-21
5.03509e-21
7.05428e-21
8.84235e-21
3.52417e-21
1.40838e-20
1.56523e-20
2.41713e-21
8.83527e-21
2.61244e-22
1.85603e-21
4.94756e-21
6.77013e-21
1.37947e-21
1.29702e-20
1.92088e-21
5.60157e-21
5.7194e-21
6.07904e-21
4.1857e-21
3.65551e-21
5.72559e-22
1.11405e-20
3.04552e-21
3.10339e-23
6.58905e-22
5.96743e-21
2.08154e-21
3.14564e-21
1.14263e-20
5.14809e-21
5.03444e-21
3.98956e-21
1.54082e-20
8.16418e-22
6.30172e-22
2.00813e-21
9.94726e-22
1.15361e-20
3.9885e-21
1.06511e-20
4.16792e-22
1.1559e-20
5.61444e-21
1.21837e-20
6.35233e-21
4.50042e-23
1.64986e-23
5.8851e-21
2.54205e-22
2.0404e-21
1.55085e-21
6.67318e-21
3.57172e-21
7.07852e-22
3.04609e-21
3.2051e-22
2.49e-21
6.96047e-21
1.15388e-21
8.01339e-22
4.59822e-22
1.27442e-21
3.37856e-21
6.22833e-21
1.72928e-20
1.48178e-20
8.69767e-21
1.39174e-21
3.61612e-21
3.2753e-21
2.56228e-21
4.25425e-21
7.24298e-21
3.51113e-22
1.11259e-22
1.53499e-21
4.64814e-21
1.71555e-21
5.82063e-21
3.5192e-21
3.35164e-21
5.69125e-22
3.00793e-21
3.77366e-21
2.04448e-21
1.05638e-20
1.00464e-21
4.48645e-21
3.18505e-22
4.19705e-21
2.20005e-21
6.46934e-21
9.36195e-21
1.61483e-20
2.75564e-21
5.37932e-21
4.78151e-21
2.2542e-20
1.1026e-21
3.52811e-21
7.98488e-21
3.48795e-21
2.7318e-21
1.47367e-21
2.31742e-21
8.79295e-21
5.90334e-21
1.84325e-21
3.66148e-21
6.29798e-22
2.6302e-21
6.57706e-22
7.51858e-21
7.37179e-21
6.17278e-22
1.56615e-21
3.58503e-21
4.85901e-21
6.76224e-21
5.07986e-22
1.82974e-21
9.03575e-22
5.10183e-21
3.37103e-21
1.89602e-21
7.62824e-21
1.00503e-21
6.54547e-23
3.43334e-21
2.15993e-21
3.75089e-21
9.63779e-21
2.13952e-22
8.61733e-22
3.88561e-21
7.72572e-21
2.84258e-22
5.21907e-21
1.33152e-20
1.33733e-21
2.11743e-22
1.15683e-21
1.81002e-20
5.52011e-21
9.55344e-22
4.85983e-21
1.84179e-21
1.12723e-20
1.00747e-20
5.52225e-22
1.38106e-21
2.11812e-22
1.79924e-22
1.15448e-21
5.21132e-21
9.71919e-21
8.84419e-21
3.47284e-22
3.31192e-21
5.25182e-21
8.27061e-21
6.87376e-22
4.38266e-21
4.48104e-21
5.87108e-21
2.51942e-22
1.61588e-20
2.80328e-21
1.44748e-21
5.11269e-21
1.54342e-21
3.00667e-21
6.33746e-23
1.57431e-20
8.91301e-21
4.97463e-21
1.50127e-21
2.15657e-21
9.60517e-23
8.84669e-21
2.9837e-21
2.36467e-21
1.74223e-21
3.44604e-22
4.41806e-21
2.70697e-21
4.09071e-21
2.34683e-21
2.37828e-21
8.26081e-22
6.32084e-22
4.3327e-21
8.54574e-21
5.40181e-22
3.2323e-21
4.41146e-21
1.50172e-20
1.81102e-21
2.58824e-21
3.45914e-21
3.10168e-21
7.64976e-21
3.07866e-22
2.63794e-21
1.78106e-21
4.23289e-21
1.68192e-21
3.66755e-21
1.43936e-21
6.98598e-21
1.66473e-21
4.37102e-21
1.39937e-21
4.40482e-21
2.94878e-21
6.43427e-22
2.39797e-22
2.17801e-22
9.79392e-22
1.1284e-21
4.36563e-21
2.75518e-21
3.85494e-21
2.81e-21
1.21871e-21
9.02455e-21
3.19178e-21
5.40725e-21
6.20453e-21
5.19841e-21
2.15401e-21
6.09708e-21
9.27395e-21
5.26866e-21
4.73881e-21
2.11166e-20
1.7114e-21
3.87499e-21
3.74747e-21
1.25524e-21
6.49791e-21
1.34033e-20
2.92377e-21
7.19821e-21
9.04207e-21
8.1882e-21
3.4982e-21
2.26322e-21
5.90169e-22
7.69551e-21
6.78108e-21
2.46762e-21
1.18156e-20
1.03264e-20
4.11555e-21
1.47851e-20
6.66706e-21
4.91326e-21
8.85013e-22
9.21416e-21
2.53876e-21
6.44395e-21
1.71693e-21
9.32405e-21
3.75583e-22
2.49172e-23
8.32516e-21
4.10676e-21
6.60546e-21
5.34658e-21
4.45068e-21
6.65911e-21
1.2388e-21
7.09168e-21
1.21831e-20
1.43839e-20
1.30898e-21
9.54142e-21
1.48351e-20
2.04058e-21
2.09056e-21
6.27603e-21
7.69579e-21
1.46791e-22
2.96622e-21
4.39666e-21
4.0577e-21