/*--------------------------------*- C++ -*----------------------------------*\
  =========                 |
  \\      /  F ield         | OpenFOAM: The Open Source CFD Toolbox
   \\    /   O peration     | Website:  https://openfoam.org
    \\  /    A nd           | Version:  7
     \\/     M anipulation  |
\*---------------------------------------------------------------------------*/
FoamFile
{
    version     2.0;
    format      ascii;
    class       scalarField;
    location    "0.008/lagrangian/dsmc";
    object      Ei;
}
// * * * * * * * * * * * * * * * * * * * * * * * * * * * * * * * * * * * * * //


4674
(
4.974495529e-22
2.041379851e-21
6.245090206e-21
6.697566475e-21
3.040695516e-22
9.855753746e-21
1.788889469e-21
5.647316362e-21
4.999317699e-21
3.866565691e-22
3.161160482e-21
1.72173389e-21
3.215390465e-21
1.641154341e-21
8.719253287e-21
1.350010657e-20
5.839919394e-21
4.06701366e-24
1.902677481e-20
3.391095588e-21
6.333889116e-21
2.928861313e-22
2.766211822e-20
1.355333616e-21
1.416328465e-20
8.551832235e-21
4.994125797e-21
1.933243677e-22
1.044635514e-21
7.228198551e-23
1.097194497e-21
8.823330246e-21
2.181578263e-20
4.733699152e-21
7.967800833e-21
2.0973462e-20
2.872282806e-21
4.321215524e-21
9.731274787e-22
1.079598365e-21
3.505804842e-21
4.737911791e-21
5.339015852e-21
1.375577189e-21
3.131873535e-21
6.490064086e-23
7.270149715e-21
2.46137526e-21
4.808874054e-21
7.623872457e-22
4.393498545e-21
1.332993292e-21
7.187486605e-22
5.115429734e-21
7.545350438e-21
6.199709395e-21
1.998394891e-21
9.77202944e-22
7.56686366e-23
2.290930659e-21
1.310937735e-21
6.342580047e-22
3.214256217e-21
1.303534756e-21
9.958761214e-21
3.065388151e-21
9.553861706e-22
1.939926283e-21
1.334992879e-21
3.23486549e-21
4.338893813e-21
4.19571651e-21
3.637255721e-21
1.93762224e-21
1.52645993e-21
3.336676498e-21
1.106681561e-21
3.523766233e-21
2.955286569e-21
3.376214963e-21
8.67632362e-22
4.182251676e-21
3.003624298e-21
1.501094063e-21
9.362748282e-21
5.306901327e-21
5.420520577e-21
9.547893423e-21
2.186876336e-21
4.652064833e-22
2.507473346e-21
1.048601882e-20
2.674985972e-21
2.441736182e-21
6.227283222e-21
2.848663663e-22
5.092596269e-21
1.232374618e-21
1.70106054e-21
2.199433838e-21
7.656129792e-21
2.365974976e-21
6.892925001e-21
1.595378078e-21
2.961592132e-21
4.276513551e-21
5.07620358e-21
1.530001173e-20
8.879004934e-21
7.963980508e-21
2.967762442e-22
4.588351979e-21
1.557370518e-20
5.539576684e-21
2.674934175e-22
2.076190257e-21
9.842649505e-21
7.233423221e-21
6.923530655e-22
7.219504017e-22
2.573810526e-20
1.495139892e-20
6.12849232e-21
2.649340239e-21
1.707747395e-21
2.000238042e-21
8.258983897e-21
3.586412785e-21
1.375595637e-21
1.454489207e-21
8.626254345e-22
2.909899493e-21
9.745081849e-22
4.665604739e-21
9.32278747e-22
7.503925713e-22
1.413181866e-21
9.553971055e-22
3.570954957e-21
2.565351226e-20
4.703085686e-22
9.536020551e-21
1.664413032e-21
7.491409456e-22
1.447101014e-21
2.06171621e-22
9.529056218e-21
2.907048344e-21
9.693354979e-21
1.601593955e-23
7.687182625e-23
4.266446239e-23
8.044569861e-21
1.559578806e-21
7.035819127e-23
1.687089493e-21
1.058702707e-20
3.347494888e-21
3.414406036e-21
5.540123476e-21
1.109081845e-20
2.22243604e-21
8.416465287e-21
2.460878161e-20
7.712657903e-22
4.385880571e-21
3.487903116e-21
8.411854841e-22
7.67733894e-22
1.884495638e-21
2.070758065e-21
3.287362586e-21
1.756741174e-20
6.370819751e-21
5.417874218e-21
1.654031507e-21
2.986112739e-21
7.415487104e-22
1.72542267e-21
5.348217657e-21
3.447397836e-22
3.201763674e-21
1.181182725e-20
6.349475667e-21
4.38246206e-21
5.389913717e-21
1.112435845e-20
6.52310538e-22
1.168042082e-20
8.530893712e-22
2.563760548e-21
9.426383679e-21
2.226974626e-22
2.107120358e-20
6.388298222e-22
2.144421343e-21
3.600253704e-22
1.012004529e-21
2.375155722e-21
1.176107321e-21
1.729201703e-22
4.44338223e-21
1.059390732e-20
4.110273305e-22
2.748728125e-22
3.097652479e-21
1.491332967e-21
4.076928817e-21
1.813395489e-20
1.677390731e-21
1.044150924e-20
4.870964514e-21
1.227566534e-21
1.292255365e-21
4.511753279e-21
6.720238227e-21
4.045920807e-22
2.784330164e-21
3.070557292e-21
1.023233564e-20
6.688619014e-21
1.004657093e-20
2.171874946e-22
2.531987963e-21
8.751847678e-22
2.812931868e-22
1.311006594e-20
5.143149241e-21
1.079083493e-20
8.048666891e-22
1.996168513e-22
4.925663605e-21
2.316688814e-21
1.348168421e-21
4.97974225e-21
2.967206519e-21
2.042288388e-21
3.278447274e-22
6.273187425e-21
8.586193414e-22
2.773095425e-22
1.681697578e-21
6.575508969e-21
2.114820914e-21
3.135228437e-21
4.111122487e-21
7.911631324e-22
3.809768542e-21
2.885444392e-21
1.419490835e-20
4.296255888e-21
6.688310846e-21
5.429943699e-21
4.523160717e-21
4.346376217e-21
1.216600385e-21
3.772200787e-21
7.727086269e-21
9.292123573e-22
4.979639209e-21
1.568140108e-21
3.031588158e-21
8.331383923e-21
1.143755993e-21
6.43388097e-21
1.653684449e-21
9.156556028e-22
7.65247519e-21
9.157605478e-21
1.860261255e-21
2.120424448e-22
9.186769413e-22
1.821251428e-21
5.982054595e-22
3.223570141e-21
3.187443256e-21
8.579536346e-22
5.776496868e-22
1.765098301e-21
3.800253406e-22
2.05211148e-21
2.43694245e-22
1.621843773e-21
7.410563995e-21
1.017557003e-21
1.184450382e-20
1.885664226e-21
9.008318996e-21
2.295843308e-21
3.30366567e-21
2.04147104e-21
3.031882206e-21
2.976335929e-21
5.382945931e-21
3.288673206e-21
4.966929913e-21
6.536693422e-22
4.084408379e-21
4.410981873e-21
6.216540901e-22
6.360262552e-21
2.968033071e-22
2.401289232e-20
3.368681795e-22
1.201837486e-21
8.463117632e-21
8.023933908e-21
9.373333982e-21
1.212770851e-21
1.914085306e-20
8.309398802e-21
7.918426164e-21
1.697828606e-20
4.367128112e-21
1.485848112e-21
6.291531633e-22
2.961225552e-21
2.173926654e-21
3.467038525e-22
2.076035444e-21
9.230413964e-21
1.145784317e-20
9.834983494e-21
4.275856229e-21
7.815321719e-23
9.968831515e-21
1.285851564e-21
4.043467924e-21
2.075515855e-21
8.00348944e-24
2.015897927e-21
3.5086533e-21
1.88495272e-21
2.760323828e-21
1.04517707e-22
1.624828215e-21
7.909944609e-21
1.928961088e-21
5.928260212e-22
6.152197112e-22
1.570346423e-20
4.894241058e-21
1.126295805e-21
9.59600961e-21
1.065129604e-21
4.510946824e-21
4.992952903e-21
2.732262883e-21
2.264115523e-21
4.662756911e-21
9.972523295e-22
1.487592705e-20
1.075816247e-21
2.031629202e-21
1.482090143e-20
3.269512336e-21
5.672310651e-21
7.639750265e-21
9.260803721e-21
1.335478176e-20
1.074988943e-21
3.999261024e-21
4.6283432e-21
1.237540282e-21
2.826984686e-21
5.428124321e-21
9.466454468e-22
8.38688051e-21
1.375942289e-20
4.183723018e-21
2.337833745e-22
1.949377292e-22
3.778938648e-21
1.400873538e-20
7.958958077e-22
6.365574272e-21
5.677736346e-21
4.423722536e-22
4.710381192e-21
1.00740429e-20
9.125559941e-21
6.819484148e-21
9.045197675e-22
7.276945353e-22
7.163161027e-23
5.318786979e-21
8.1103992e-22
1.318192942e-20
1.700751884e-21
1.902172119e-21
3.32899808e-21
5.292624719e-21
4.890177718e-21
2.167652809e-21
3.832063113e-21
1.202688233e-22
4.525176154e-21
2.136839264e-21
9.039844979e-22
1.077501595e-21
6.337163786e-22
8.13982718e-21
4.706966607e-21
1.176498333e-21
2.467343871e-22
4.398182101e-22
1.989760796e-21
9.684670219e-22
1.158700188e-21
1.360012308e-20
8.816333368e-22
2.00810863e-22
1.27093922e-21
4.103211665e-21
1.61948167e-21
4.513062427e-21
5.155569264e-21
3.260128445e-21
3.594904713e-21
3.705918226e-22
2.68397785e-21
3.401238492e-20
1.525741784e-21
1.322897793e-20
4.293511794e-21
2.035714917e-21
2.141334517e-20
2.209613824e-21
6.127679805e-22
2.542807313e-20
7.902685333e-22
2.711954121e-22
1.982092044e-21
8.116947138e-21
6.08230787e-21
3.095551478e-21
1.236100822e-21
1.02314448e-20
4.54279773e-22
4.984041305e-21
6.910025697e-21
1.151611933e-21
1.145622502e-20
1.390447169e-20
5.970516598e-21
7.256327863e-22
4.576694901e-21
1.266282098e-21
2.719610417e-21
8.230347613e-22
6.639479061e-21
3.668130818e-21
3.64311831e-21
7.197418752e-21
9.595696782e-22
5.983741546e-21
2.047486212e-21
2.732306314e-21
1.09324264e-20
2.18652453e-21
6.721734789e-22
4.596399188e-22
5.229014457e-21
3.063799227e-21
6.52867663e-21
2.082334395e-22
1.767142378e-21
3.117835527e-21
9.419344086e-21
1.623251407e-20
5.355704573e-22
7.311718163e-21
1.029614729e-20
1.828868814e-21
2.685327593e-21
6.816958658e-22
3.346649368e-21
2.935133203e-20
2.740405144e-21
7.890837164e-22
1.069177701e-22
8.059734788e-21
1.544670716e-21
4.145458244e-21
3.17947403e-21
5.155748285e-21
2.939612839e-21
6.095775192e-21
6.077863429e-21
1.531387442e-21
6.324973632e-22
3.011751342e-21
5.252496656e-21
8.281373389e-21
4.469430912e-21
1.802245403e-21
3.649467238e-21
7.13649646e-22
7.980736498e-21
5.996193947e-21
3.086647375e-21
1.246098444e-22
4.721343029e-21
3.539829021e-22
8.139991487e-22
1.231605391e-20
4.861720776e-21
5.734091655e-21
9.129866326e-22
1.548895922e-21
1.667631286e-20
9.891876979e-21
2.259950275e-21
1.630028171e-22
6.582561109e-21
1.757740229e-21
1.484860602e-21
2.236027974e-21
1.306959788e-20
1.0985996e-20
2.380055066e-21
1.060979841e-21
1.023886445e-20
8.306166096e-21
2.076842031e-21
2.471252051e-21
3.714640881e-21
5.519029003e-21
3.770308991e-21
1.174957601e-21
4.257237955e-21
5.10771429e-21
4.154483782e-21
1.455134549e-21
1.022605896e-20
2.86246236e-21
5.106471828e-21
5.279771895e-21
1.453983588e-20
8.878004247e-22
1.171766146e-22
5.552710997e-22
2.475318088e-21
4.165133126e-21
9.528679708e-21
7.580348872e-21
8.488550641e-21
1.318438597e-21
4.63355218e-21
8.098168182e-21
5.755953172e-21
3.103411664e-22
3.222982788e-21
9.659113769e-21
4.128678237e-21
2.51864304e-20
5.628785263e-21
1.560356355e-20
2.388601602e-21
3.312856488e-21
1.707535301e-21
3.061007698e-21
1.759086023e-20
7.507512149e-21
1.842240902e-21
7.920842566e-21
4.887922151e-21
2.085466755e-21
4.831182823e-21
3.545414375e-21
5.194865825e-21
3.923503793e-22
1.427047476e-21
1.956759298e-21
3.831610457e-21
1.169722477e-21
1.247155129e-20
5.954867997e-21
1.229215971e-21
1.067464929e-20
3.155201126e-20
4.986616781e-21
7.864012655e-21
6.008441162e-22
1.939844794e-21
1.261167869e-22
3.48640394e-21
3.138389652e-21
5.111448553e-21
1.627144767e-20
6.525267719e-21
1.297221572e-20
1.489039981e-21
1.559421325e-21
1.225433735e-21
1.1745389e-21
9.574073297e-22
8.321223006e-21
1.432517472e-21
5.524097536e-21
3.280337305e-21
2.171511567e-21
4.9846437e-21
3.210269143e-21
9.504063764e-21
2.064182071e-20
3.79934294e-21
6.836260872e-23
7.352985715e-21
1.883077142e-21
3.190426538e-21
2.813555669e-21
4.65793129e-21
1.213123933e-20
2.377690516e-21
4.477179734e-21
2.373854648e-21
1.07119082e-20
8.337873589e-22
3.564722526e-21
4.694862733e-22
1.60396945e-20
1.254645529e-21
1.124385154e-20
1.798955967e-20
1.074334933e-20
4.380691904e-21
1.313061239e-21
2.491110157e-22
9.917751705e-22
8.15505814e-21
8.377494742e-21
5.781674802e-21
1.159955967e-21
9.819167807e-22
1.638906427e-20
5.092877124e-21
5.75618664e-21
1.793836491e-21
1.001368401e-20
3.353475449e-21
8.837209218e-21
4.053754302e-21
2.267264174e-21
9.125964627e-22
4.490369287e-21
8.784654506e-22
1.284841891e-20
3.129025537e-21
5.524695995e-21
7.844619374e-22
3.479502292e-21
2.561498109e-22
2.215724356e-21
7.649902067e-21
2.224408162e-21
2.757794228e-21
3.754977496e-22
8.43460436e-21
2.361249568e-21
9.571428881e-22
4.637752439e-21
3.504473392e-21
4.850621001e-21
9.880925813e-21
4.821092654e-22
1.938076133e-22
5.028590004e-21
1.92668582e-21
1.484462502e-20
1.137724706e-20
8.773927822e-22
3.570556572e-22
2.684595066e-21
9.135614911e-23
6.268407131e-21
1.31540447e-21
5.192114854e-21
1.178492583e-20
2.501757101e-21
1.354242225e-21
6.743722956e-21
4.92434454e-21
1.617025598e-21
8.227188335e-22
3.348099116e-21
4.338208727e-21
1.443496926e-21
1.500747342e-21
4.862297479e-21
1.254600366e-21
6.997542399e-22
5.435619823e-22
3.650512933e-21
6.890653321e-21
2.083386065e-21
3.519124443e-21
1.440923465e-21
4.639975131e-21
7.243539471e-21
8.815934248e-21
1.754667653e-20
4.328781886e-21
2.142202717e-21
1.454775633e-21
1.87406663e-21
5.256739846e-21
2.70407387e-21
3.016753848e-21
5.152396089e-22
2.372311851e-21
6.535592465e-22
7.969433088e-21
6.559498479e-21
7.919076254e-21
3.225934126e-21
8.118725827e-21
1.035482967e-22
5.923704619e-21
1.028240006e-21
2.77475599e-21
1.113021604e-21
5.293877385e-22
2.381950627e-21
1.050732191e-21
2.343409373e-21
9.09453042e-21
8.570493882e-22
4.395307795e-21
6.302227664e-23
1.497373583e-20
2.812415515e-21
5.025766798e-21
3.049555899e-21
4.007631354e-21
4.243027059e-22
1.505708753e-21
3.99003269e-21
5.137833102e-21
8.32251999e-21
5.748179855e-21
2.112169663e-21
2.723984775e-21
3.090917916e-21
1.898322998e-21
3.108274692e-21
4.966583834e-21
2.36175985e-21
1.019457208e-21
1.459073633e-21
5.895399639e-21
6.487392191e-21
3.423235616e-21
5.017182495e-21
2.048822289e-21
1.245876585e-21
4.201807652e-22
7.022175231e-21
8.03976797e-21
5.260330899e-21
1.637366588e-21
6.494159564e-21
1.064261674e-21
1.864544454e-22
1.438707794e-21
1.640978658e-21
6.695127998e-21
2.066031715e-21
5.787769019e-21
5.277052413e-21
3.211336042e-22
8.445007823e-21
2.823939488e-21
2.677405156e-21
3.458219015e-21
1.531711297e-21
9.771647146e-21
1.433528714e-21
8.475603746e-22
6.307282296e-21
8.028064284e-21
9.661766676e-21
1.099840645e-20
2.847103259e-21
2.589625065e-21
6.13797438e-21
1.20725971e-20
2.928130968e-21
5.033947298e-23
2.258177215e-20
3.061741329e-21
1.44078269e-20
5.234157674e-21
1.58898192e-21
1.98932796e-22
6.792301076e-22
1.156318521e-22
2.060162224e-21
1.452152946e-21
1.555599699e-22
4.347047262e-22
2.639145949e-21
1.026992866e-21
4.359341821e-21
1.25556803e-20
4.342265561e-23
3.675360752e-21
3.174056441e-21
1.815300997e-21
3.729599767e-21
8.366533088e-21
9.933346879e-21
2.540097665e-21
3.710147647e-21
8.09537098e-21
1.045623202e-20
2.772933029e-22
7.304397837e-21
5.355050467e-21
3.771579007e-21
6.996775458e-21
1.268263614e-20
2.532583251e-21
9.140937883e-21
4.849971785e-21
1.203757837e-20
1.322532883e-21
1.074097924e-20
6.739819703e-21
3.841504784e-21
1.572944763e-20
1.278090834e-20
3.87844251e-21
6.652325486e-21
1.117799475e-21
1.477864642e-22
8.018690192e-22
4.14045738e-22
4.557535968e-23
9.11904391e-21
2.295985032e-21
2.980577622e-21
2.331256609e-21
8.304118308e-22
3.587186686e-21
1.645867402e-21
3.78968677e-21
5.033077417e-21
4.822730711e-22
1.41270338e-21
4.021561807e-21
4.074423299e-21
1.746526283e-21
3.325139955e-21
5.182194456e-22
3.084962137e-21
6.487740337e-21
7.436921673e-21
1.177209492e-20
7.752376696e-21
5.124184956e-21
2.693880032e-21
6.319455406e-21
7.159266372e-21
4.315605572e-21
1.3953335e-20
1.162018595e-21
4.002523896e-22
4.333026767e-22
1.396418957e-21
3.461216101e-21
7.363144794e-21
1.045046937e-21
2.017845915e-20
1.741710128e-21
1.02992544e-22
6.398376367e-21
2.001304616e-22
1.586886635e-21
3.939511042e-22
5.581245874e-22
3.809889839e-21
8.914640035e-22
4.069046815e-22
1.370307543e-21
6.736266871e-22
8.620002682e-21
3.146994183e-22
7.596070182e-21
9.059767187e-21
1.246817657e-21
7.452173843e-21
3.815637451e-21
4.274984845e-22
1.333239721e-20
2.409184822e-20
1.621770303e-20
1.819647092e-21
2.473560125e-21
4.242615253e-21
7.421761141e-21
2.423137171e-21
3.775524208e-21
3.368857572e-21
3.239539194e-21
1.436130483e-20
7.17311409e-22
3.722382061e-21
1.044880383e-21
2.220188276e-20
2.495572425e-21
1.252045104e-21
2.513322218e-21
3.867874848e-21
9.421709879e-22
2.141419251e-21
3.268258733e-21
7.362997444e-21
6.736240687e-22
5.153151178e-21
2.550031805e-21
1.755426241e-20
2.827046681e-21
1.668326625e-21
8.954558276e-21
2.643774743e-21
2.677374714e-21
2.206004635e-21
1.480626537e-21
1.235555342e-21
1.865169477e-21
5.955171035e-22
1.030423689e-21
1.804006977e-21
3.664287544e-21
1.499531623e-21
6.369231323e-21
1.864990621e-20
1.36545379e-21
4.035718756e-21
3.202615139e-21
6.252406589e-22
7.911953151e-21
1.259594868e-20
1.622056581e-21
1.23380688e-20
1.226202018e-21
2.999132938e-21
1.715627978e-21
6.576327491e-21
1.030931157e-21
3.621646913e-22
2.908052476e-21
1.670337488e-21
2.356367196e-21
3.816472024e-22
1.028178469e-20
2.530355515e-22
1.279189512e-21
6.053897127e-21
1.303573939e-21
1.103405264e-21
4.050769777e-21
9.187902951e-22
2.045095026e-21
6.471398376e-22
5.69300022e-21
1.914806095e-20
4.071301844e-21
1.957013021e-23
1.754207484e-22
2.752897201e-21
1.130315494e-20
2.164906305e-21
7.920286294e-21
5.447379048e-21
5.266465511e-21
1.243352998e-22
2.764650727e-21
3.054847553e-21
8.630481702e-22
3.889793543e-21
7.689018865e-22
1.614201372e-20
1.175991054e-20
4.51950566e-21
3.299969698e-21
1.159224328e-20
2.559041986e-21
1.353673311e-20
1.961108052e-21
5.735231296e-21
1.417946299e-20
6.199933104e-21
1.265054444e-21
6.016171984e-22
1.593736055e-20
4.388614603e-21
5.055348946e-21
2.029808507e-21
4.929397491e-21
1.052600798e-21
1.001272351e-21
2.016925077e-21
4.834639154e-22
1.703031255e-21
1.061832939e-20
2.475940988e-22
1.627129912e-20
2.237756676e-20
5.87324805e-21
1.038524711e-20
4.715341807e-21
3.21332116e-21
1.719991812e-21
5.944525292e-22
3.332792864e-21
2.338963967e-21
5.811017318e-22
1.326710795e-21
1.389852736e-20
4.994531855e-21
1.546026435e-20
5.104605817e-21
1.332495685e-21
1.044620387e-20
1.901660291e-21
1.794973403e-20
3.081673573e-21
3.686469138e-21
1.494020454e-20
1.609214562e-21
3.806206649e-21
1.17840735e-21
9.105308176e-22
1.070277276e-21
2.94059541e-21
1.851051504e-21
3.669788738e-21
9.088426816e-21
7.743458819e-22
2.513634093e-21
2.784124253e-21
6.714510119e-21
3.328308869e-21
6.42408806e-21
3.153885466e-21
4.348694966e-21
1.953084226e-21
1.319220625e-21
4.065262395e-22
2.112514077e-21
1.689085548e-20
4.834780369e-21
2.865223029e-21
1.196333825e-20
9.489912096e-21
3.531410883e-21
1.60544145e-20
1.552431255e-21
2.225722078e-21
5.197625051e-21
3.135577891e-21
2.263047207e-21
6.474197133e-21
7.314231255e-21
7.07782311e-22
2.846184419e-21
3.116942534e-21
7.55637433e-21
4.319493027e-21
8.713302417e-22
4.495087542e-22
7.540624433e-22
2.035713845e-21
1.00781111e-20
1.204370967e-20
5.50754027e-21
1.046090957e-20
9.626369849e-21
2.199399204e-21
2.857878455e-21
2.388943943e-24
3.934264304e-21
3.770305516e-21
6.866524582e-22
2.937927316e-21
2.751192949e-21
6.818230842e-21
1.246674451e-21
3.604088825e-21
1.050402625e-21
2.812043843e-20
8.28749978e-21
2.220070041e-21
7.996146289e-21
3.623589005e-21
1.363225176e-21
1.265526754e-21
1.00938995e-20
7.605414999e-21
2.505428824e-22
1.851366311e-21
6.827660189e-22
5.978741689e-22
9.797238652e-22
8.892688292e-21
2.568310846e-22
8.518954289e-22
3.315367148e-21
9.906459721e-24
9.731743206e-22
1.415463624e-20
4.137945149e-21
5.43185018e-21
2.701977245e-21
1.215903783e-20
2.360457933e-22
3.746346394e-21
5.432207267e-22
7.273668533e-21
7.956157521e-22
1.403399314e-21
1.234066279e-20
1.91230659e-21
2.521414423e-21
8.203644609e-21
4.223466603e-21
4.808534387e-22
7.970963671e-21
4.480720316e-21
1.340976995e-20
2.286409397e-21
3.015878449e-21
1.763935865e-21
1.492860217e-20
5.859774822e-22
1.22358579e-21
1.094779458e-20
6.657241374e-21
6.398592505e-22
2.317915871e-21
5.191043644e-23
8.084166363e-22
4.882279994e-21
2.015583737e-21
4.668459697e-21
1.351856016e-20
4.847396672e-22
2.137068879e-21
4.021553721e-21
3.515848106e-21
6.182173824e-22
6.204933687e-21
1.798036408e-20
2.978116748e-21
1.419946668e-20
9.981968123e-21
9.629105677e-22
1.228939342e-21
9.47121295e-23
6.640990968e-21
2.925897681e-21
1.46215786e-20
3.996276983e-23
7.069478683e-21
5.503827254e-21
3.192592467e-22
6.46423093e-21
4.373320727e-21
5.419834169e-21
3.510836219e-21
7.048789925e-21
3.284995294e-21
8.957343021e-22
9.229719891e-23
3.665814351e-21
5.138730756e-21
2.981242585e-21
1.620619594e-21
4.249740815e-22
3.101403359e-21
2.590108301e-21
4.266881642e-21
4.58594594e-23
2.331042421e-21
8.992401008e-21
2.22699419e-21
4.856861562e-21
1.722117661e-21
4.243692435e-21
3.036069478e-21
7.600309265e-21
1.596440857e-21
3.352297277e-22
1.235833829e-21
8.558061537e-21
2.27569734e-21
3.586307792e-21
6.022588673e-21
9.454503372e-22
1.151720757e-20
7.342844651e-21
3.62090317e-21
2.821511296e-23
3.37714216e-21
3.657532728e-21
8.58598577e-22
9.585874845e-21
1.075867199e-20
4.872300214e-21
6.586195055e-21
2.014626952e-21
2.943444131e-21
4.39497011e-21
5.47827554e-21
6.401679864e-22
4.638119467e-21
9.233530168e-21
1.912661171e-21
1.32261721e-21
1.883557863e-21
1.161375878e-20
7.728091377e-21
1.06520098e-20
9.059692441e-21
2.159301535e-21
5.192971933e-21
5.315614399e-22
2.61383978e-21
2.135741216e-20
1.423628605e-22
1.50845398e-20
5.822431478e-21
5.567096161e-21
1.684616581e-22
1.800016366e-20
1.006674738e-22
7.415718638e-22
1.632067408e-21
8.834561368e-21
7.55693179e-21
2.732295556e-22
6.071371567e-21
2.647907716e-23
1.219456018e-20
8.410782344e-22
1.834447557e-21
1.136356548e-20
3.680075915e-21
2.277482485e-21
8.154255663e-22
1.151356244e-21
1.565499261e-21
1.279484588e-21
4.81131502e-21
9.821584011e-22
4.108559519e-21
8.935675871e-21
3.215003063e-21
1.591669261e-20
9.375525048e-21
3.220544008e-21
8.76433038e-22
7.61550278e-21
1.313570242e-21
5.173058297e-21
2.473479765e-21
1.1064098e-20
2.143292765e-22
2.268780391e-21
1.077731034e-20
1.213602646e-20
6.973959263e-22
5.412806931e-21
2.019061437e-21
2.433705055e-20
1.359049597e-21
1.217688027e-20
1.269843423e-20
1.741396619e-21
4.755313011e-21
9.142174536e-22
5.730737162e-22
1.253774957e-22
4.778456695e-21
2.496171267e-21
5.991265769e-21
1.57151918e-21
5.258800911e-21
5.688303407e-21
2.756846034e-21
6.934836546e-21
4.079569451e-22
5.270717784e-22
8.482792672e-21
2.176716915e-22
4.442176378e-21
2.804398106e-22
3.927775429e-21
4.590302469e-21
3.476904865e-21
7.127315495e-21
5.846775808e-22
7.884182692e-21
1.692437927e-22
1.116959345e-21
3.749506758e-21
3.762874632e-21
1.758957084e-22
1.210925108e-20
1.45016726e-21
3.827812202e-21
4.314967047e-21
5.213210353e-21
9.344500564e-21
2.308955603e-21
3.444973524e-21
1.898223613e-21
3.815918397e-21
3.72985151e-21
1.903612002e-22
6.326615043e-22
6.832625719e-22
6.732674755e-22
1.165289719e-20
9.708354872e-21
4.471360612e-21
7.118105336e-21
1.150804587e-22
7.09889441e-21
2.527293292e-22
9.125168634e-21
3.39720188e-21
9.188265307e-21
4.589247247e-21
8.313823938e-23
5.956373014e-21
1.423680269e-21
1.994520825e-21
1.061155493e-21
8.908391107e-23
3.12336405e-22
6.575891101e-21
6.540555627e-22
3.782587657e-21
9.140466311e-22
5.853740265e-21
2.644684277e-21
1.673395188e-21
4.525419086e-21
1.389344354e-20
2.69825768e-21
4.153985454e-21
3.659674388e-21
3.269779752e-21
3.769669494e-21
8.224537128e-22
1.030900464e-21
6.19496522e-21
5.637441041e-21
1.884285007e-22
3.680579529e-21
9.401775925e-22
3.380197837e-21
9.782299519e-22
5.213462213e-21
4.429879265e-21
3.764035487e-21
3.370699685e-22
2.392221098e-21
3.447552388e-21
4.646080533e-21
9.996500061e-22
7.016349379e-21
1.078315645e-21
3.485792832e-21
6.830528705e-21
3.273233368e-21
4.847520095e-21
2.043429625e-21
6.867299816e-21
3.482426551e-21
5.603472393e-21
1.593311239e-21
2.368327335e-21
1.621658754e-20
1.820760338e-21
2.596760795e-22
7.110171652e-21
6.18505637e-21
4.763261122e-21
1.665188111e-20
2.242947369e-21
2.043819979e-21
1.212449631e-20
1.573422348e-23
6.343224999e-21
1.748181731e-21
6.486958136e-22
8.282825077e-21
2.274601841e-21
6.974692541e-21
1.617895995e-22
1.697072926e-21
1.001195782e-20
9.24860103e-22
1.150437553e-21
1.618473276e-21
6.037590411e-21
1.72245068e-20
7.946149148e-21
7.186915535e-22
7.301240925e-21
3.846879514e-21
5.586028372e-21
6.566264909e-22
8.279423897e-21
1.007174862e-24
1.120345827e-21
2.358900287e-21
1.602706286e-21
3.356471418e-22
4.494953325e-21
5.215381716e-22
7.356725028e-22
8.550624843e-22
1.035741291e-21
3.463184572e-21
5.133327877e-21
3.00426178e-21
3.703306261e-21
8.123251529e-21
1.447415061e-21
1.253196846e-21
1.349075294e-21
5.82858019e-21
1.837350535e-20
3.490631752e-21
1.946654666e-22
3.033462104e-21
1.116287587e-20
7.789694577e-22
4.762720028e-21
4.801792603e-21
1.170726644e-22
2.555247467e-21
8.975764831e-22
1.145546541e-21
7.519475295e-22
5.679544738e-21
2.871797327e-22
2.39676459e-21
5.793308531e-21
1.570286367e-21
4.079981227e-22
7.159610278e-21
1.541643299e-21
9.911203869e-21
1.047998596e-21
1.364241912e-20
7.723154055e-21
1.05329271e-20
2.912023601e-21
7.835941678e-21
1.230218002e-20
1.34489674e-21
5.048995922e-21
8.270406924e-22
4.09734145e-21
1.985822363e-21
5.704772382e-21
4.491829988e-21
6.469536208e-21
7.067688445e-21
5.829369029e-23
2.983765848e-21
4.982199824e-22
2.462205165e-21
5.461947757e-22
5.290339105e-21
4.852391004e-21
3.637066109e-23
3.479834392e-21
5.478645417e-22
1.233345683e-22
3.815145644e-21
5.398971605e-22
1.245846395e-21
1.158032782e-20
1.64855147e-21
3.368850257e-21
1.564480848e-21
3.236038846e-21
7.020372415e-21
2.601353607e-21
7.066390361e-21
1.455065549e-21
2.955948608e-22
2.981492e-21
3.928495604e-21
1.173489161e-21
1.614527137e-21
4.212594318e-21
8.665378495e-21
7.242835827e-21
5.114938349e-21
7.136448933e-22
2.592193879e-22
4.027956951e-21
6.41148005e-21
9.90762705e-21
4.711254967e-22
9.100858558e-21
9.378193581e-22
7.678181223e-21
3.744574826e-21
6.583743408e-22
1.205103105e-20
7.399855724e-21
3.888384589e-21
6.642126296e-22
1.845458918e-20
2.794134748e-21
1.073247359e-21
3.274098066e-20
2.318308728e-21
1.123295578e-20
4.914918773e-22
8.259603069e-21
9.517160759e-22
3.830608883e-21
2.22040526e-21
9.499590122e-21
1.579785989e-20
3.66756542e-21
2.972576428e-21
7.199994804e-21
1.286081218e-20
1.983762448e-21
6.505486667e-21
5.231411569e-21
2.903986354e-21
3.279387664e-22
7.845920784e-21
3.54333389e-22
1.598514723e-22
1.421097829e-20
2.171272085e-21
2.177127249e-21
2.154605676e-21
1.202522462e-23
2.050068741e-21
3.813915575e-21
2.295517164e-21
5.615342694e-21
2.834049351e-21
4.405165926e-21
3.197342992e-21
7.002270352e-21
1.434071333e-21
1.252118982e-20
1.17228078e-20
4.680264815e-21
6.119521345e-22
5.348994224e-22
4.415859694e-21
3.438676885e-21
6.589739013e-21
1.342860899e-20
3.588132914e-21
1.261140746e-21
8.947667051e-22
3.311637915e-21
6.739382694e-21
3.796557583e-21
3.094625853e-21
1.26644054e-21
2.483451334e-21
6.679428413e-22
7.200808781e-22
1.966121184e-21
8.029095786e-22
2.52207868e-21
4.679050083e-22
6.620854322e-21
3.563619573e-21
9.07551453e-22
3.579256476e-21
8.324025153e-21
7.512491491e-23
5.474583595e-21
3.271091722e-21
4.402550109e-21
7.866205692e-21
2.88084945e-21
3.300091187e-21
3.315723312e-21
5.531201484e-21
4.907767036e-21
3.742515647e-21
5.542434507e-21
2.723278586e-21
1.26318663e-20
1.967419861e-20
4.222398181e-21
1.725278637e-21
3.381360831e-21
8.071965842e-21
6.044173509e-21
2.367526358e-20
3.235645947e-21
1.267542494e-21
2.73912017e-21
1.005017207e-20
2.017739691e-21
2.932392796e-21
2.385635512e-21
1.146060652e-21
2.441324081e-22
3.497635661e-21
4.310230532e-21
6.107561194e-21
7.621631314e-21
1.788628752e-21
2.241380311e-21
1.933218042e-20
1.847876788e-21
1.106174604e-21
2.881866589e-21
9.801758882e-21
1.652895938e-20
6.314463548e-24
1.730815262e-20
3.75418509e-21
4.206702015e-22
1.017284225e-21
9.828339637e-21
1.390183271e-21
9.889958486e-22
6.794807907e-21
8.053451259e-21
1.918750303e-21
1.570105791e-20
2.016092123e-21
1.914505028e-20
1.568249776e-21
7.744977213e-23
1.206118857e-20
1.001716874e-21
1.391682994e-20
6.837142131e-22
1.553802285e-21
1.105806283e-20
4.619506614e-22
8.587355588e-22
4.027895446e-21
6.945587399e-23
4.926099006e-21
1.792932524e-21
5.028062793e-21
1.025603254e-22
1.549994361e-21
7.254908286e-21
3.643396916e-21
5.971998562e-22
3.62273422e-23
4.513443714e-22
5.05241141e-21
1.407169355e-20
2.571322181e-21
1.525960366e-21
3.869671492e-22
6.429269479e-21
6.838357209e-21
6.150944781e-21
3.911507824e-21
1.511649688e-21
1.418056504e-21
6.872179438e-22
2.237194084e-21
2.274265149e-21
1.580311017e-21
4.385371134e-21
8.020847602e-21
1.08060364e-21
8.179550169e-22
1.226386116e-20
3.218632715e-21
1.089581001e-21
8.050425322e-21
1.414580985e-20
1.031979059e-21
3.56006873e-21
2.642984587e-21
1.054839983e-20
2.221237526e-21
2.411668602e-21
3.429524107e-21
2.079891272e-21
2.7681524e-21
4.853158927e-21
2.818543868e-21
7.733709683e-22
1.833044325e-21
4.467013645e-22
7.725802417e-21
8.805873644e-21
9.445167059e-21
4.381895239e-21
1.163473575e-22
7.06281937e-22
6.072801364e-21
9.088078759e-21
1.000169854e-21
6.037508535e-21
3.984764336e-21
5.222141397e-21
1.786957416e-20
2.995578515e-21
5.754965101e-21
3.831716898e-22
4.191751397e-22
6.052767774e-21
2.642647977e-21
5.272363511e-21
2.268439191e-21
1.651015611e-21
5.158471523e-22
1.540646019e-21
1.290202299e-20
3.890916488e-21
6.422890678e-21
7.338328341e-22
2.569857867e-21
2.562713898e-22
2.292012367e-21
1.558078784e-20
1.129918409e-20
3.918276956e-22
1.42670425e-22
1.517990135e-22
4.770425621e-22
2.785745057e-21
2.22420873e-21
2.989225414e-21
3.186502167e-21
3.160664254e-21
8.02866375e-21
2.143023355e-22
2.024317019e-21
2.730246142e-21
1.391857381e-21
3.119759604e-21
3.525433487e-21
7.44303894e-21
6.095849284e-21
2.683352224e-21
1.64547336e-20
3.598308221e-21
5.511534831e-22
3.433347798e-21
5.077472871e-21
1.232832994e-21
5.491457239e-21
1.211973016e-21
3.115038267e-21
9.086040154e-21
1.563107879e-21
1.18793745e-21
2.606155682e-21
2.425459139e-21
1.446039579e-20
7.728181301e-22
1.470567811e-21
1.977149033e-21
7.538976432e-21
1.149788911e-20
3.137503672e-21
1.32475097e-21
2.372242195e-20
3.233950439e-21
9.959078532e-22
1.715593908e-22
9.477530077e-22
6.467248647e-21
5.821973625e-21
1.710818889e-20
5.422778888e-21
1.209701398e-21
3.110488026e-21
4.060410814e-22
1.097119323e-20
6.325172593e-22
5.478876237e-21
5.221768798e-21
1.280947016e-20
1.367083454e-21
1.674899729e-22
1.952039104e-21
8.084161997e-21
1.247186292e-21
3.141737751e-21
2.770103045e-22
1.480608889e-20
1.747978017e-20
2.904393216e-21
2.853905213e-21
1.173160347e-20
1.075859968e-20
1.699489179e-21
3.211402051e-21
1.503995919e-22
2.006327546e-21
9.314898206e-21
3.41759711e-21
1.03504191e-21
1.323347537e-21
8.933156117e-21
4.54520135e-22
8.690618279e-22
1.958600897e-21
7.838071829e-22
4.383929691e-22
1.277130984e-20
2.171290542e-22
1.22447304e-21
5.956814756e-22
9.710324601e-23
2.396585203e-20
2.509457388e-21
2.709734561e-21
7.639049986e-22
2.030484039e-21
2.051351644e-21
3.98720958e-21
7.617145159e-21
1.917937882e-20
6.870967287e-22
5.707712106e-23
5.921212703e-21
1.212097837e-20
1.149638553e-21
1.01471437e-20
2.137597772e-20
3.838014377e-21
8.66189162e-22
1.275423732e-20