/*--------------------------------*- C++ -*----------------------------------*\
  =========                 |
  \\      /  F ield         | OpenFOAM: The Open Source CFD Toolbox
   \\    /   O peration     | Website:  https://openfoam.org
    \\  /    A nd           | Version:  7
     \\/     M anipulation  |
\*---------------------------------------------------------------------------*/
FoamFile
{
    version     2.0;
    format      ascii;
    class       Cloud<dsmcParcel>;
    location    "0.008/lagrangian/dsmc";
    object      positions;
}
// * * * * * * * * * * * * * * * * * * * * * * * * * * * * * * * * * * * * * //

6208
(
(0.4253559231 0.2873220384 0.1632483875 0.1240736509) 379 741 2
(0.07386803932 0.4201271764 0.4630659803 0.0429388039) 17 32 2
(0.1437594945 0.4281202528 0.2867815011 0.1413387516) 233 456 1
(0.1823697579 0.3159133245 0.09290179657 0.408815121) 531 1042 1
(0.1783025237 0.3167695954 0.4108487381 0.09407914274) 500 979 1
(0.02818009195 0.2241345994 0.2617753546 0.485909954) 593 1275 1
(0.5462029998 0.1282891077 0.2268985001 0.09860939243) 560 1100 2
(0.5464184252 0.1853187181 0.2267907874 0.04147206927) 55 106 2
(0.4081385987 0.2959307006 0.004878068237 0.2910526324) 202 337 1
(0.4442668449 0.2778665776 0.07815929916 0.1997072784) 111 216 2
(0.03406768157 0.1214770692 0.36148909 0.4829661592) 203 338 2
(0.1061567146 0.4469216427 0.415133451 0.03178819174) 232 455 1
(0.5459392033 0.2270303983 0.1632882248 0.0637421735) 263 456 1
(0.1673203711 0.4163398145 0.4138137937 0.002526020777) 622 1163 1
(0.3240824247 0.04537994297 0.2925788447 0.3379587877) 143 220 2
(0.5245138915 0.2377430542 0.170900545 0.06684250924) 263 513 2
(0.2372225715 0.3813887143 0.08670491386 0.2946838004) 562 1103 2
(0.1457059901 0.4197537267 0.007393278231 0.427147005) 27 21 2
(0.8373079195 0.08134604025 0.02290915064 0.05843688961) 473 926 2
(0.3822251594 0.3088874203 0.2640234964 0.04486392389) 593 1164 1
(0.1455494934 0.09780754463 0.3294177087 0.4272252533) 233 1263 1
(0.4997512948 0.1295195859 0.2501243526 0.1206047667) 263 513 1
(0.08817676513 0.39396619 0.06194542745 0.4559116174) 172 278 2
(0.03543642888 0.4822817856 0.2502116482 0.2320701373) 353 690 2
(0.08748369617 0.4562581519 0.321454817 0.1348033349) 139 271 2
(0.2935734714 0.2453992594 0.1078140049 0.3532132643) 83 1258 1
(0.2400394819 0.379980259 0.3178933772 0.06208688185) 593 1164 1
(0.2467816021 0.3766091989 0.3254955533 0.05111364565) 472 868 1
(0.6039017237 0.179324019 0.01872511919 0.1980491382) 173 279 2
(0.3473159876 0.3263420062 0.236805751 0.08953625517) 198 385 2
(0.6400586913 0.1391703148 0.1799706544 0.04080033956) 292 573 2
(0.4133356483 0.2708779535 0.2933321759 0.02245422242) 203 395 1
(0.01100879144 0.4944956043 0.1609011876 0.3335944166) 33 1256 2
(0.1282870911 0.288016596 0.1478398584 0.4358564545) 252 493 1
(0.02790477739 0.4860476113 0.2542248059 0.2318228054) 54 105 1
(0.1239049828 0.4380475086 0.02460941689 0.4134380917) 560 1097 2
(0.3245326081 0.3377336959 0.024046011 0.3136876849) 173 338 1
(0.08546556677 0.4572672166 0.3915520444 0.06571517224) 171 334 2
(0.708756946 0.145621527 0.1385274311 0.007094095904) 262 514 1
(0.02735279816 0.4863236009 0.4077531695 0.0785704314) 261 453 1
(0.3795730517 0.05549702107 0.2547164531 0.3102134741) 353 1267 1
(0.01419006171 0.01198167316 0.480923296 0.4929049691) 382 749 1
(0.1961512347 0.4019243827 0.00214636947 0.3997780132) 319 626 1
(0.1536937068 0.03348322669 0.3896699199 0.4231531466) 347 622 2
(0.4253084524 0.2167109259 0.2873457738 0.07063484793) 17 32 2
(0.7582595279 0.0928634809 0.02800675516 0.1208702361) 142 277 1
(0.1838880951 0.4015146228 0.4080559524 0.006541329684) 197 386 2
(0.7866275567 0.07520853357 0.0314776881 0.1066862217) 202 337 2
(0.3480264156 0.1295641996 0.1964225926 0.3259867922) 230 392 2
(0.5409142968 0.2295428516 0.186133472 0.04340937956) 169 331 1
(0.7078553119 0.07411793098 0.146072344 0.07195441305) 437 858 2
(0.3450374363 0.0921503237 0.2353309581 0.3274812818) 621 1219 1
(0.4670929785 0.2664535108 0.2458466582 0.02060685256) 143 220 1
(0.8098927993 0.069607784 0.02544581634 0.09505360034) 232 396 2
(0.0714485405 0.4642757297 0.1990235038 0.2652522259) 353 690 2
(0.07627987076 0.4618600646 0.4373023296 0.02455773502) 441 807 1
(0.3795593234 0.07164099898 0.2385793393 0.3102203383) 353 1267 1
(0.2627574244 0.03042251545 0.3686212878 0.3381987724) 112 219 2
(0.4423255866 0.185931989 0.2788372067 0.09290521769) 410 802 1
(0.4805162023 0.2597418989 0.1023737996 0.1573680993) 413 808 2
(0.1518754319 0.4240622841 0.2434825762 0.1805797079) 413 751 1
(0.3483319185 0.3258340408 0.0961523261 0.2296817147) 291 512 1
(0.3100514027 0.3449742987 0.289015399 0.05595889969) 321 571 1
(0.0003067253288 0.4998466373 0.1640004908 0.3358461466) 83 106 1
(0.259502312 0.370248844 0.05469455571 0.3155542883) 473 926 2
(0.3856902125 0.05854636527 0.2486085285 0.3071548938) 263 1264 1
(0.6857237079 0.1097347067 0.04740343933 0.1571381461) 442 867 1
(0.6316391964 0.145357259 0.03882314281 0.1841804018) 83 106 2
(0.4420928322 0.02533427951 0.2536193044 0.2789535839) 351 630 2
(0.08528243452 0.2281328928 0.4573587827 0.22922589) 323 633 2
(0.7947709963 0.01001347745 0.1026145019 0.09260102441) 233 454 1
(0.5064832736 0.2467583632 0.1332082107 0.1135501525) 263 515 1
(0.4456720472 0.2771639764 0.226823015 0.05034096139) 353 633 1
(0.08858354941 0.4557082253 0.1257926682 0.3299155571) 502 985 2
(0.6659113029 0.1670443486 0.08224289459 0.08480145397) 173 1261 2
(0.1471684002 0.2127655401 0.4264157999 0.2136502598) 169 328 1
(0.2401087142 0.136621503 0.3799456429 0.2433241399) 232 455 2
(0.4741373494 0.07293795997 0.2629313253 0.1899933653) 293 574 2
(0.1010391047 0.4494804476 0.3818059687 0.06767447895) 532 1045 1
(0.2515500678 0.08097919858 0.3742249661 0.2932457675) 473 926 1
(0.5725327138 0.1024510171 0.111282626 0.2137336431) 502 985 1
(0.07959426459 0.4602028677 0.227102532 0.2331003357) 55 104 2
(0.06980729417 0.3795497988 0.4650963529 0.08554655414) 322 632 2
(0.001384699759 0.401273637 0.4993076501 0.09803401314) 471 925 2
(0.5509585662 0.1538401988 0.2245207169 0.07068051815) 202 393 1
(0.2472827955 0.3763586022 0.009119362733 0.3672392395) 323 633 1
(0.3500157733 0.3249921134 0.2201244399 0.1048676734) 473 869 1
(0.3116671149 0.3441664426 0.07952863294 0.2646378096) 170 274 1
(0.4041028375 0.1194296448 0.1785189365 0.2979485812) 380 745 1
(0.2129402086 0.3861697807 0.3935298957 0.007360115005) 442 865 1
(0.5460093377 0.2269953311 0.1919318061 0.03506352509) 168 329 1
(0.2157915779 0.392104211 0.346267801 0.04583641004) 411 748 1
(0.08201530516 0.2774202014 0.4589923474 0.1815721461) 203 397 2
(0.07692338893 0.2390388395 0.4615383055 0.2224994661) 383 751 2
(0.5595582685 0.2202208657 0.10416405 0.1160568158) 352 690 2
(0.5268685646 0.2365657177 0.1233909395 0.1131747782) 259 449 1
(0.2895665984 0.2758274917 0.3552167008 0.07938920907) 592 1160 1
(0.08725583271 0.4563720836 0.191054106 0.2653179776) 259 505 2
(0.09501599173 0.01987844547 0.4524920041 0.4326135587) 291 571 2
(0.4835334502 0.2582332749 0.1843174297 0.07391584515) 231 450 2
(0.344442052 0.2971437319 0.03063524204 0.327778974) 173 1261 1
(0.3650485357 0.003164199443 0.3174757322 0.3143115327) 383 749 1
(0.2187905974 0.1288371773 0.2617675241 0.3906047013) 202 395 1
(0.4247036045 0.2876481978 0.02463966492 0.2630085329) 81 155 2
(0.02779031105 0.02272974442 0.4861048445 0.4633751001) 139 269 1
(0.224190245 0.1393838899 0.2485209876 0.3879048775) 351 630 2
(0.151803049 0.06288723757 0.3612112379 0.4240984755) 258 447 2
(0.1489931153 0.3205406578 0.4255034424 0.1049627845) 169 331 2
(0.2604624515 0.3537081817 0.01606059254 0.3697687743) 412 808 1
(0.4818295181 0.2347108726 0.02437436835 0.2590852409) 353 633 2
(0.6154141117 0.1800206413 0.01227230289 0.1922929442) 30 57 1
(0.545042674 0.227478663 0.105213378 0.122265285) 172 278 1
(0.03587535211 0.4820623239 0.2999121864 0.1821501376) 74 144 1
(0.21280858 0.1438895985 0.2497061115 0.39359571) 380 745 1
(0.09373410326 0.4531329484 0.4039218422 0.04921110615) 80 155 2
(0.1008437807 0.204613204 0.2449649057 0.4495781096) 350 686 1
(0.09604260787 0.2992905712 0.4519786961 0.1526881248) 260 510 2
(0.07121792157 0.2785795454 0.1858114938 0.4643910392) 263 1264 1
(0.1157442917 0.02286164382 0.4421278541 0.4192662103) 498 978 2
(0.00455841943 0.376606418 0.4977207903 0.1211143723) 439 859 1
(0.3830319803 0.3084840099 0.2917553891 0.0167286208) 172 334 2
(0.4816756932 0.2299385633 0.02922359016 0.2591621534) 321 571 2
(0.514601484 0.242699258 0.05531525397 0.187384004) 411 806 2
(0.05504612302 0.0622693818 0.4724769385 0.4102075567) 413 810 2
(0.1248915242 0.4375542379 0.05620452919 0.3813497087) 54 105 1
(0.2866699235 0.3566650382 0.3489180605 0.007746977767) 173 338 1
(0.1429724223 0.4285137889 0.3863809983 0.04213279053) 113 1259 2
(0.2136677313 0.3931661344 0.2590907575 0.1340753768) 411 804 2
(0.13038998 0.1785572966 0.43480501 0.2562477134) 380 746 2
(0.8030117506 0.07872521572 0.01976890898 0.09849412469) 288 564 1
(0.3562316439 0.3218841781 0.1855528952 0.1363312829) 321 630 1
(0.5461028026 0.01747405363 0.2094745451 0.2269485987) 32 61 1
(0.2726541587 0.117912912 0.2457600086 0.3636729206) 621 1219 1
(0.2067724548 0.006483033544 0.3901307391 0.3966137726) 167 326 1
(0.05590475531 0.341541349 0.4720476223 0.1305062734) 79 151 1
(0.4572840808 0.1450218127 0.2713579596 0.1263361469) 230 451 2
(0.7072240507 0.1463879746 0.06469395864 0.08169401599) 200 389 2
(0.1201247245 0.4399376377 0.2705930323 0.1693446054) 113 1259 2
(0.7817931111 0.1064945703 0.002608874158 0.1091034445) 442 809 2
(0.1962991188 0.03016665361 0.371683787 0.4018504406) 413 751 2
(0.2870899467 0.3564550266 0.2856564725 0.07079855415) 352 691 1
(0.2659594185 0.008870124036 0.3581501667 0.3670202908) 202 395 1
(0.2650008505 0.3342156296 0.3674995747 0.03328394517) 322 629 1
(0.5876923386 0.2061538307 0.1726193197 0.03353451102) 439 803 1
(0.06270884803 0.468645576 0.1572028732 0.3114427028) 171 334 2
(0.9250495005 0.03747524975 0.007518339737 0.02995691001) 443 867 2
(0.07189400506 0.2099217911 0.2541312063 0.4640529975) 113 161 2
(0.2406558825 0.08710345398 0.2925686048 0.3796720587) 143 220 2
(0.06413663686 0.3664772102 0.1014544713 0.4679316816) 528 978 2
(0.1845041778 0.1219878059 0.4077479111 0.2857601052) 381 748 2
(0.9787256975 0.006693955079 0.01063715125 0.003943196173) 28 51 1
(0.4913650701 0.105641077 0.148676388 0.254317465) 588 1154 1
(0.3118035707 0.3440982146 0.1961540462 0.1479441684) 533 1273 2
(0.7144951812 0.1427524094 0.07084679963 0.07190560976) 227 444 2
(0.3858398983 0.3070800509 0.2454879829 0.06159206801) 351 689 1
(0.2842202735 0.1012163568 0.2566735065 0.3578898633) 143 1260 1
(0.3081071792 0.1044028535 0.3459464104 0.2415435569) 530 1041 2
(0.06844398847 0.4398070161 0.4657780058 0.02597098968) 467 917 2
(0.3737352311 0.3131323845 0.004020539185 0.3091118453) 530 1038 2
(0.6288476995 0.1855761503 0.03386658596 0.1517095643) 319 567 1
(0.6141855351 0.04215136845 0.150755864 0.1929072325) 113 1259 1
(0.673542531 0.08169865208 0.1632287345 0.08153008241) 411 804 1
(0.1750982034 0.4124508983 0.1625523581 0.2498985402) 439 862 1
(0.3736886157 0.116207406 0.3131556922 0.1969482862) 143 279 2
(0.2447239682 0.1849888526 0.3776380159 0.1926491633) 53 103 2
(0.1105888873 0.4447055564 0.0009767224829 0.4437288339) 526 1032 2
(0.319223085 0.3027637438 0.3403884575 0.03762471365) 262 514 2
(0.5940460646 0.2029769677 0.01503453965 0.1879424281) 471 924 2
(0.2067312873 0.3966343563 0.1560561654 0.2405781909) 590 1159 1
(0.2607038708 0.1924064659 0.3696480646 0.1772415987) 170 333 2
(0.6347713425 0.07019665405 0.1124176747 0.1826143288) 472 868 2
(0.02006698357 0.4497004357 0.04026607254 0.4899665082) 412 808 1
(0.2659972131 0.3670013935 0.009052293824 0.3579490996) 469 862 1
(0.6692922051 0.1653538974 0.1461832243 0.01917067317) 322 629 2
(0.05310140311 0.4734492984 0.4220727532 0.05137654521) 202 337 1
(0.1988634537 0.1385533991 0.4005682731 0.2620148741) 203 397 2
(0.07629999672 0.4618500016 0.3061912887 0.155658713) 112 218 2
(0.1349253842 0.1255461422 0.3069911657 0.4325373079) 473 1271 1
(0.1097256797 0.4451371601 0.1797645207 0.2653726394) 136 207 1
(0.6365110208 0.0611113387 0.1817444896 0.1206331509) 560 1097 1
(0.04589054599 0.3120580324 0.1649966946 0.477054727) 471 866 2
(0.432058175 0.2839709125 0.2265818276 0.05738908485) 263 456 1
(0.3255832391 0.2639518709 0.07325650951 0.3372083804) 591 1102 2
(0.05811480925 0.2748591077 0.1960834877 0.4709425954) 232 396 2
(0.03278815993 0.48360592 0.1865106301 0.2970952899) 438 860 1
(0.4153057963 0.07478014124 0.2175669606 0.2923471019) 351 630 2
(0.319052128 0.01252570113 0.3279482349 0.340473936) 233 397 2
(0.7618114911 0.005164872178 0.1190942544 0.1139293823) 353 690 1
(0.6579808593 0.1041349618 0.06687460853 0.1710095704) 54 104 1
(0.6068772471 0.1965613764 0.1824912409 0.01407013549) 111 216 2
(0.6027732595 0.1986133702 0.1033608281 0.09525254209) 33 32 1
(0.1608360031 0.1129678375 0.4195819985 0.306614161) 2 1 1
(0.09989678632 0.4500516068 0.1802975023 0.2697541046) 622 1221 2
(0.2932469351 0.3464916017 0.3533765324 0.006884930726) 352 688 1
(0.5420580294 0.2289709853 0.1006039721 0.1283670132) 197 385 2
(0.381169882 0.07111088567 0.309415059 0.2383041733) 413 808 1
(0.1891991354 0.3775534054 0.02784702692 0.4054004323) 530 1040 1
(0.4630938746 0.2035685355 0.2684530627 0.06488452724) 33 63 2
(0.1209362016 0.2697541279 0.4395318992 0.1697777713) 82 157 1
(0.786969933 0.07594809816 0.1065150335 0.03056693534) 27 49 1
(0.02939741486 0.0505385474 0.4347627452 0.4853012926) 202 395 1
(0.3797475859 0.3101262071 0.07757464978 0.2325515573) 502 985 2
(0.1310329102 0.2359022348 0.4344835449 0.1985813101) 383 751 2
(0.04027027305 0.4798648635 0.4458723904 0.03399247305) 322 631 2
(0.5907859591 0.2046070205 0.05225323897 0.1523537815) 55 104 2
(0.2492831316 0.3753584342 0.04888845578 0.3264699784) 55 1257 2
(0.1267943806 0.02612781445 0.4366028097 0.4104749953) 51 99 2
(0.3263236047 0.02013864696 0.3368381976 0.3166995507) 347 681 2
(0.7833605434 0.1083197283 0.001184291934 0.1071354364) 54 105 1
(0.06022812291 0.3146007945 0.155285144 0.4698859385) 55 1257 1
(0.2881961849 0.3559019075 0.2559143385 0.09998756908) 111 158 1
(0.3116007268 0.1754290411 0.3441996366 0.1687705955) 290 569 2
(0.7270147888 0.03656995218 0.09992265344 0.1364926056) 32 61 1
(0.6336621285 0.1831689358 0.03382995655 0.1493389792) 112 219 1
(0.8667571743 0.06662141287 0.01581853404 0.05080287882) 652 1251 2
(0.1518928983 0.007106289855 0.416947261 0.4240535509) 201 335 2
(0.7466486468 0.1266756766 0.08485067859 0.04182499799) 112 216 2
(0.4537758293 0.2529075595 0.2731120854 0.02020452583) 227 442 1
(0.3937876765 0.3031061618 0.0250933876 0.2780127742) 529 980 1
(0.5427326464 0.2286336768 0.09237844275 0.1362552341) 560 1041 1
(0.001213248179 0.4993933759 0.3601334435 0.1392599324) 319 625 2
(0.03704482313 0.4814775884 0.2278720152 0.2536055732) 562 1103 2
(0.1461445435 0.03843943825 0.4269277283 0.38848829) 319 626 2
(0.03210807861 0.4839459607 0.03374938484 0.4501965759) 292 573 1
(0.5144987846 0.1202489107 0.122501697 0.2427506077) 169 272 2
(0.1430889014 0.4284555493 0.1733572786 0.2550982707) 171 276 1
(0.767546311 0.05235179991 0.1162268445 0.06387504459) 322 632 2
(0.168391036 0.3565791288 0.0592253532 0.415804482) 532 986 2
(0.2113556286 0.3943221857 0.03762905727 0.3566931284) 350 684 2
(0.1159820727 0.4420089637 0.111763393 0.3302455707) 591 1160 2
(0.3960777414 0.146127361 0.3019611293 0.1558337683) 3 3 1
(0.2106113298 0.3946943351 0.266001196 0.1286931391) 260 451 1
(0.7399743374 0.02084570915 0.1300128313 0.1091671221) 351 689 2
(0.04279637086 0.1472966143 0.3313052003 0.4786018146) 500 923 2
(0.09292126147 0.4469102876 0.006629081635 0.4535393693) 380 745 1
(0.5917640115 0.2041179942 0.0004942173544 0.2036237769) 257 445 1
(0.402287403 0.2988562985 0.1069193634 0.1919369351) 143 1260 2
(0.113676441 0.4431617795 0.4265225672 0.01663921228) 320 625 2
(0.08062361148 0.186372398 0.2733157963 0.4596881943) 232 454 1
(0.4970779294 0.1991076043 0.05235343098 0.2514610353) 441 807 2
(0.5338619676 0.2330690162 0.2167055848 0.01636343135) 111 216 2
(0.1348735504 0.06686268415 0.3657005406 0.4325632248) 142 277 1
(0.4751916282 0.2076125753 0.05479161055 0.2624041859) 443 1270 1
(0.08125243682 0.001245974722 0.4581278069 0.4593737816) 289 508 2
(0.2185340004 0.3907329998 0.1485358412 0.2421971586) 169 331 1
(0.2444898376 0.3777550812 0.0594636106 0.3182914706) 231 453 1
(0.1894162909 0.07264609148 0.4052918545 0.3326457631) 55 106 2
(0.1101854679 0.4369113377 0.007995928374 0.4449072661) 289 566 1
(0.2795001569 0.3602499215 0.185864955 0.1743849666) 229 446 2
(0.1726166204 0.4136916898 0.03418636589 0.3795053239) 262 514 1
(0.06812793217 0.3901485839 0.07578745 0.4659360339) 441 807 2
(0.5633056143 0.0800697392 0.1382774537 0.2183471929) 140 215 2
(0.1007064723 0.05530841623 0.4496467639 0.3943383476) 291 571 2
(0.08345371972 0.1678642534 0.4582731401 0.2904088868) 407 796 1
(0.03309905598 0.06295117852 0.483450472 0.4204992935) 353 690 1
(0.6643779667 0.1678110166 0.1226116031 0.04519941354) 263 1264 2
(0.01831817905 0.2734507908 0.4908409105 0.2173901196) 467 917 2
(0.1394780929 0.159040319 0.2712206345 0.4302609535) 353 1267 1
(0.2213788663 0.3893105668 0.139220009 0.2500905578) 203 397 1
(0.2295196586 0.09086528689 0.2943748838 0.3852401707) 258 505 1
(0.07368022232 0.3567942574 0.1063656315 0.4631598888) 383 692 2
(0.3915045278 0.3042477361 0.2823255574 0.02192217866) 467 914 2
(0.6634800527 0.06681352229 0.1014464514 0.1682599737) 165 264 2
(0.4356319923 0.2821840039 0.02886732506 0.2533166788) 468 919 1
(0.1082117971 0.4051536535 0.04074044793 0.4458941014) 233 397 2
(0.1001726035 0.4499136983 0.3779025484 0.07201114988) 352 690 2
(0.2352341769 0.2816252 0.1007577116 0.3823829116) 170 332 1
(0.7454702474 0.05115750936 0.07610736697 0.1272648763) 105 204 1
(0.7310301233 0.1344849383 0.08445922103 0.05002571731) 232 455 1
(0.2136142779 0.0548242044 0.3931928611 0.3383686567) 289 564 1
(0.1173498079 0.3042263819 0.1370987142 0.441325096) 54 62 2
(0.2597261573 0.1141233127 0.2560136087 0.3701369213) 443 1270 1
(0.0806051696 0.4596974152 0.1193548504 0.3403425648) 52 58 1
(0.2271949919 0.267632803 0.1187697011 0.3864025041) 138 269 1
(0.1478252174 0.3732943944 0.4260873913 0.05279299697) 531 1040 1
(0.3356686731 0.3321656635 0.2418154588 0.09035020463) 500 982 1
(0.32153962 0.2926839736 0.33923019 0.04654621637) 323 631 1
(0.2133442858 0.3933278571 0.3154970505 0.07783080662) 168 270 1
(0.200512238 0.1430133831 0.399743881 0.2567304979) 413 808 1
(0.1308153545 0.4345923227 0.07783900187 0.3567533209) 622 1163 1
(0.1522665852 0.09504067255 0.4238667074 0.3288260349) 48 93 2
(0.2492061103 0.08659998238 0.3753969449 0.2887969625) 263 515 2
(0.05173116232 0.4741344188 0.4163227406 0.05781167821) 381 748 1
(0.4596612399 0.2701693801 0.1602600532 0.1099093269) 200 392 1
(0.1958995284 0.4020502358 0.1004945051 0.3015557307) 263 456 1
(0.4683322535 0.2108537929 0.05498008039 0.2658338732) 350 686 1
(0.2607656746 0.3696171627 0.1322479507 0.237369212) 472 926 2
(0.06081725066 0.4695913747 0.1393051471 0.3302862275) 254 497 2
(0.4095332898 0.2007830449 0.0944503102 0.2952333551) 383 1268 1
(0.8340677074 0.08296614628 0.02685867447 0.05610747181) 563 1046 1
(0.5897016911 0.1486701519 0.2051491545 0.0564790026) 15 29 2
(0.2683306947 0.2489558077 0.3658346527 0.1168788449) 203 397 2
(0.06561839775 0.4671908011 0.300070374 0.1671204271) 261 512 1
(0.1854844253 0.09522770879 0.3120300786 0.4072577874) 113 1259 1
(0.7659893402 0.1170053299 0.09614458517 0.02086074475) 404 793 1
(0.173824925 0.137241562 0.2758459755 0.4130875375) 263 456 2
(0.1577779008 0.1951513649 0.2259596847 0.4211110496) 259 507 1
(0.4622940749 0.1278455027 0.1410074598 0.2688529625) 142 277 1
(0.1052115168 0.2037321551 0.2436620865 0.4473942416) 83 1258 1
(0.6401596135 0.1799201933 0.08020825598 0.09971193727) 258 506 1
(0.4677794496 0.169241475 0.09686880018 0.2661102752) 139 271 1
(0.7125466145 0.1437266927 0.06777433846 0.07595235428) 378 739 2
(0.4225729167 0.07734816564 0.2887135416 0.211365376) 498 975 1
(0.5513062976 0.2243468512 0.02929587623 0.195050975) 32 61 2
(0.5020377813 0.1238433952 0.2489811094 0.1251377142) 231 453 2
(0.2519330001 0.2412763881 0.3740334999 0.1327571118) 320 628 2
(0.8581978207 0.07090108965 0.03776054891 0.03314054074) 141 276 1
(0.2797619656 0.3601190172 0.01270050032 0.3474185169) 140 274 1
(0.9019508712 0.0469796574 0.04902456438 0.002044906987) 470 920 1
(0.2570924317 0.3714537842 0.2235121397 0.1479416444) 142 278 1
(0.5760966765 0.2119516618 0.07097016331 0.1409814984) 318 621 2
(0.5809083199 0.1031801025 0.1063657375 0.2095458401) 142 219 2
(0.4619616189 0.2690191906 0.2610466978 0.007972492809) 353 633 1
(0.4549670437 0.2725164782 0.2597528724 0.01276360572) 168 328 2
(0.9011745068 0.04941274659 0.02145088405 0.02796186253) 378 741 2
(0.006396172832 0.152892969 0.4968019136 0.3439089446) 255 497 1
(0.2231004716 0.3884497642 0.1458316265 0.2426181377) 140 215 1
(0.04618242069 0.4769087897 0.3651432171 0.1117655725) 473 928 1
(0.1817704304 0.4091147848 0.3125245895 0.09659019532) 323 574 1
(0.3341659089 0.3329170455 0.03971882779 0.2931982178) 412 809 1
(0.06698768419 0.435849004 0.03065715394 0.4665061579) 650 1250 1
(0.1555189264 0.3277931965 0.09444734028 0.4222405368) 141 217 2
(0.1125318095 0.1745936506 0.2691404446 0.4437340952) 32 61 1
(0.06137632502 0.2202625726 0.2490492649 0.4693118375) 503 928 2
(0.2406491026 0.1578637091 0.3796754487 0.2218117396) 503 987 2
(0.4531116914 0.2734441543 0.1099174961 0.1635266582) 258 506 1
(0.170446482 0.008559644078 0.4062171149 0.414776759) 591 1102 2
(0.145771035 0.4271144825 0.2519610961 0.1751533864) 442 865 2
(0.0250166711 0.4874916644 0.09980901961 0.3876826448) 563 1105 1
(0.07123110266 0.2535189797 0.2108654689 0.4643844487) 288 564 1
(0.2556792023 0.3721603988 0.3406604928 0.03149990607) 82 105 1
(0.8139694688 0.0008044011616 0.09301526559 0.09221086443) 261 509 1
(0.5611568135 0.2070454638 0.01237612938 0.2194215932) 134 203 2
(0.0684383536 0.4657808232 0.3457822325 0.1199985907) 321 627 2
(0.6420147262 0.1663016391 0.01269099781 0.1789926369) 589 1098 2
(0.4784668369 0.2607665816 0.05025088302 0.2105156985) 258 505 2
(0.1901345778 0.270657022 0.1342756891 0.4049327111) 501 983 1
(0.252162988 0.373918506 0.3563762206 0.01754228535) 292 572 2
(0.1640150701 0.1747999271 0.4179924649 0.2431925378) 229 449 2
(0.4254145663 0.2872927168 0.09633925113 0.1909534657) 291 512 1
(0.03638041623 0.1719357234 0.3098740685 0.4818097919) 320 569 2
(0.7969400104 0.07268477569 0.1015299948 0.02884521912) 136 266 2
(0.7262086538 0.06477070998 0.1368956731 0.07212496313) 256 499 1
(0.303415339 0.2177786438 0.3482923305 0.1305136867) 323 631 1
(0.726550068 0.01133161237 0.136724966 0.1253933537) 170 330 1
(0.7389050039 0.09388700322 0.130547498 0.0366604948) 25 48 2
(0.2426045043 0.3786977478 0.2554847512 0.1232129966) 289 566 2
(0.1493800259 0.4253099871 0.2267991539 0.1985108332) 502 983 2
(0.4004495445 0.2673297441 0.03244548364 0.2997752278) 139 271 1
(0.3716135203 0.3015756407 0.3141932399 0.0126175992) 33 61 1
(0.4037985919 0.2981007041 0.0905383448 0.2075623593) 53 103 1
(0.6411615383 0.1794192309 0.04179494938 0.1376242815) 231 450 2
(0.2041569753 0.09685954662 0.3010619657 0.3979215123) 527 976 2
(0.3880267684 0.3059866158 0.01390204763 0.2920845682) 580 1139 1
(0.1611353709 0.4194323145 0.1257379545 0.29369436) 530 982 1
(0.01540177405 0.3656852516 0.1266138614 0.492299113) 109 212 1
(0.1107225174 0.4446387413 0.303197876 0.1414408653) 202 393 2
(0.1565612749 0.0499450617 0.3717743009 0.4217193626) 617 1211 1
(0.6152621614 0.1923689193 0.05372903161 0.1386398877) 50 54 1
(0.2379991035 0.3810004483 0.2149529668 0.1660474814) 321 627 2
(0.1227731666 0.4386134167 0.1077733724 0.3308400443) 593 1162 2
(0.3255487805 0.3372256097 0.2577859581 0.07943965163) 32 31 1
(0.5266561201 0.03974945191 0.196922488 0.2366719399) 292 514 2
(0.9269617746 0.0285941865 0.007924926197 0.03651911269) 443 1270 1
(0.6752456778 0.06773779729 0.1623771611 0.09463936383) 649 1248 1
(0.6153016123 0.02165558539 0.1923491938 0.1706936084) 142 275 1
(0.4333750117 0.2833124942 0.007710105602 0.2756023886) 292 570 2
(0.09885849146 0.4505707543 0.1552656868 0.2953050674) 323 631 2
(0.0370841329 0.2628565247 0.4814579336 0.2186014089) 141 273 1
(0.3884968306 0.3057515847 0.1621881553 0.1435634295) 173 336 2
(0.4892082073 0.2553958964 0.07648251677 0.1789133796) 29 56 1
(0.5793816397 0.2103091801 0.0590491129 0.1512600672) 168 326 2
(0.534247336 0.232876332 0.1603012644 0.07257506765) 81 157 2
(0.4307094272 0.2846452864 0.07479189309 0.2098533933) 260 451 1
(0.3447137317 0.2525543409 0.07508879323 0.3276431342) 231 452 1
(0.05980083207 0.470099584 0.207004942 0.263094642) 290 510 1
(0.2704779446 0.2755842851 0.08917674263 0.3647610277) 590 1158 1
(0.2994219847 0.1781215683 0.3502890076 0.1721674393) 139 269 1
(0.6655408774 0.0189053047 0.1672295613 0.1483242566) 81 158 2
(0.3094871717 0.04428657155 0.3452564141 0.3009698426) 413 808 1
(0.01529959398 0.0986077651 0.492350203 0.3937424379) 53 100 1
(0.4266671257 0.265446502 0.2866664372 0.0212199352) 289 564 1
(0.1171933092 0.4414033454 0.0125980679 0.4288052775) 320 628 1
(0.1200237512 0.2265007392 0.2134873852 0.4399881244) 139 213 2
(0.6027092728 0.03618257813 0.1624627855 0.1986453636) 172 336 1
(0.717447633 0.1326701202 0.008606063298 0.1412761835) 202 337 2
(0.008754348188 0.3945087774 0.1011140485 0.4956228259) 318 565 2
(0.07528489222 0.4623575539 0.1824039133 0.2799536405) 261 511 2
(0.6411795525 0.1120745235 0.0673357002 0.1794102237) 530 1040 1
(0.1163363573 0.4418318214 0.2801383693 0.1616934521) 319 626 1
(0.2007074996 0.3996462502 0.2223962925 0.1772499577) 442 867 2
(0.06972362527 0.4651381874 0.3869114795 0.0782267079) 382 749 2
(0.5068436107 0.2465781946 0.08666588515 0.1599123095) 443 869 1
(0.2173683556 0.02300786205 0.3913158222 0.3683079601) 353 690 1
(0.6135776333 0.08110090772 0.1932111833 0.1121102756) 439 862 2
(0.2256731154 0.05975010971 0.3871634423 0.3274133326) 473 928 2
(0.1239783196 0.4380108402 0.394967844 0.04304299619) 409 802 2
(0.187298542 0.406350729 0.1059842592 0.3003664698) 441 807 1
(0.06878818836 0.1531910197 0.4656059058 0.3124148861) 140 274 2
(0.3634592569 0.3182703716 0.01582034954 0.302450022) 230 448 2
(0.2840021923 0.3579989038 0.2217786984 0.1362202054) 261 509 2
(0.06732361377 0.3056441378 0.4663381931 0.1606940553) 407 796 1
(0.4277586937 0.2491750803 0.2861206532 0.0369455729) 173 338 2
(0.4204303112 0.1420438829 0.1477409615 0.2897848444) 83 106 2
(0.7464791081 0.03608514872 0.09067529724 0.126760446) 314 557 2
(0.04358204878 0.08624367766 0.3919652979 0.4782089756) 653 1223 2
(0.1514363067 0.146408846 0.4242818467 0.2778730007) 231 453 2
(0.2363530432 0.09477155369 0.3818234784 0.2870519247) 293 572 1
(0.1669656047 0.4165171977 0.07836787258 0.3381493251) 410 746 1
(0.6364168414 0.1817915793 0.1301082166 0.05168336267) 203 395 2
(0.4264319451 0.233328518 0.2867840275 0.05345550944) 411 804 1
(0.2943611487 0.04330275252 0.3095166731 0.3528194256) 382 749 1
(0.1631153501 0.09021258802 0.4184423249 0.3282297369) 614 1206 2
(0.5104219448 0.2447890276 0.134986115 0.1098029126) 227 444 2
(0.5456818081 0.2271590959 0.03126029761 0.1958987983) 468 918 2
(0.5281829982 0.2359085009 0.1346397117 0.1012687892) 408 801 1
(0.7323382227 0.04045075939 0.09338012927 0.1338308887) 473 1271 1
(0.106258691 0.3013713076 0.1454993469 0.4468706545) 80 155 1
(0.6561142634 0.158000918 0.1719428683 0.01394195033) 138 267 1
(0.09352332785 0.383040188 0.4532383361 0.07019814806) 561 1099 1
(0.5513336714 0.2243331643 0.0402548665 0.1840782978) 233 456 1
(0.1167452408 0.2245873726 0.217040007 0.4416273796) 499 921 2
(0.3192615639 0.2713783477 0.0689908703 0.340369218) 443 810 2
(0.0669672623 0.4665163688 0.02107817755 0.4454381913) 258 505 2
(0.836300152 0.0638263159 0.01802360809 0.08184992399) 591 1160 1
(0.466053246 0.1261967661 0.1407766108 0.266973377) 472 926 1
(0.05431907046 0.3449433427 0.1278971221 0.4728404648) 142 219 2
(0.1502310875 0.4248844562 0.2230013753 0.2018830809) 28 53 2
(0.4183324402 0.2908337799 0.1805752511 0.1102585288) 32 62 1
(0.04264941482 0.4786752926 0.1800665734 0.2986087192) 171 332 2
(0.5504504498 0.05809857884 0.2247747751 0.1666761962) 383 749 1
(0.1732529633 0.3052584616 0.4133735183 0.1081150568) 503 985 1
(0.2033310853 0.3983344573 0.2268350047 0.1714994527) 407 740 1
(0.4068893689 0.2936268541 0.2965553155 0.002928461488) 232 455 2
(0.07631374823 0.4618431259 0.3742628545 0.0875802714) 289 566 2
(0.5725790515 0.1580352829 0.05567519137 0.2137104743) 199 389 1
(0.1106016702 0.4446991649 0.3905828478 0.05411631706) 230 392 1
(0.5585097762 7.937975928e-05 0.2207451119 0.2206657321) 381 745 1
(0.8583374498 0.07083127511 0.006222248898 0.06460902621) 232 455 1
(0.01157228799 0.1512232003 0.494213856 0.3429906557) 408 801 2
(0.3726365315 0.1043303754 0.2093513589 0.3136817343) 233 397 2
(0.667078982 0.166460509 0.06209560195 0.1043649071) 531 984 1
(0.2965720198 0.1196723848 0.2320416053 0.3517139901) 287 562 1
(0.2350521445 0.2203945812 0.3824739278 0.1620793465) 469 918 1
(0.6522768488 0.1738615756 0.1566533228 0.01720825281) 443 867 2
(0.4130557669 0.07955235736 0.2139197592 0.2934721165) 143 1260 1
(0.885877153 0.0570614235 0.01936784344 0.03769358006) 49 94 2
(0.1951603475 0.1110074447 0.2914123815 0.4024198263) 260 509 1
(0.4294759867 0.1584151578 0.1268468489 0.2852620066) 259 507 1
(0.1383133701 0.3205472007 0.1102961143 0.430843315) 469 920 1
(0.2488471782 0.3755764109 0.1001787681 0.2753976429) 650 1250 2
(0.1642729179 0.417863541 0.3545667201 0.0632968209) 647 1246 2
(0.3462577446 0.3268711277 0.0220687661 0.3048023616) 557 1091 2
(0.5908587879 0.109646853 0.2045706061 0.09492375308) 622 1219 1