/*--------------------------------*- C++ -*----------------------------------*\
  =========                 |
  \\      /  F ield         | OpenFOAM: The Open Source CFD Toolbox
   \\    /   O peration     | Website:  https://openfoam.org
    \\  /    A nd           | Version:  7
     \\/     M anipulation  |
\*---------------------------------------------------------------------------*/
FoamFile
{
    version     2.0;
    format      ascii;
    class       volScalarField;
    location    "0.00036";
    object      dsmcSigmaTcRMax;
}
// * * * * * * * * * * * * * * * * * * * * * * * * * * * * * * * * * * * * * //

dimensions      [0 3 -1 0 0 0 0];

internalField   nonuniform List<scalar> 
125
(
6.98895e-16
6.92832e-16
7.13544e-16
6.88503e-16
7.03382e-16
6.92361e-16
6.97526e-16
7.10854e-16
6.97268e-16
7.32568e-16
6.9879e-16
6.69037e-16
6.75923e-16
6.75893e-16
6.87993e-16
6.72977e-16
6.71386e-16
6.90498e-16
6.86138e-16
7.02128e-16
6.78877e-16
6.8036e-16
6.9637e-16
7.07136e-16
7.40742e-16
7.0209e-16
6.8003e-16
6.91388e-16
6.81125e-16
6.98878e-16
6.76965e-16
6.79551e-16
6.63885e-16
6.87893e-16
7.07936e-16
7.03234e-16
6.79494e-16
6.87949e-16
6.83793e-16
7.4629e-16
6.73607e-16
6.95288e-16
6.87726e-16
7.07041e-16
6.89026e-16
6.6076e-16
6.91692e-16
7.03335e-16
6.7877e-16
6.82079e-16
6.66087e-16
6.82919e-16
6.82734e-16
6.62353e-16
6.99808e-16
7.23031e-16
7.33396e-16
6.91133e-16
6.62376e-16
6.77728e-16
7.24487e-16
7.07107e-16
6.90179e-16
7.44275e-16
7.07042e-16
6.78729e-16
6.9767e-16
6.80956e-16
7.19245e-16
6.9263e-16
6.9263e-16
7.12559e-16
6.724e-16
6.79586e-16
6.9927e-16
6.71602e-16
6.92719e-16
6.81618e-16
6.90592e-16
7.40873e-16
6.67744e-16
6.6594e-16
6.67107e-16
6.99814e-16
6.70205e-16
6.78036e-16
6.78004e-16
6.97899e-16
6.78456e-16
6.69167e-16
6.84825e-16
6.83429e-16
6.69788e-16
7.11434e-16
7.36427e-16
6.73574e-16
6.89366e-16
6.92506e-16
7.10467e-16
6.9354e-16
7.15585e-16
6.74245e-16
6.55068e-16
6.91379e-16
6.98116e-16
6.94536e-16
6.90757e-16
6.84194e-16
6.84686e-16
6.77186e-16
7.11767e-16
7.0569e-16
6.9244e-16
6.78071e-16
6.89835e-16
6.82104e-16
6.76438e-16
6.74372e-16
6.98059e-16
7.09889e-16
7.21075e-16
7.0904e-16
6.80522e-16
7.19036e-16
7.02962e-16
)
;

boundaryField
{
    sides
    {
        type            symmetry;
    }
    empty
    {
        type            empty;
    }
    procBoundary3to2
    {
        type            processor;
        value           uniform 7.1368e-16;
    }
}


// ************************************************************************* //
