/*--------------------------------*- C++ -*----------------------------------*\
  =========                 |
  \\      /  F ield         | OpenFOAM: The Open Source CFD Toolbox
   \\    /   O peration     | Website:  https://openfoam.org
    \\  /    A nd           | Version:  7
     \\/     M anipulation  |
\*---------------------------------------------------------------------------*/
FoamFile
{
    version     2.0;
    format      ascii;
    class       volScalarField;
    location    "0.00036";
    object      rhoN;
}
// * * * * * * * * * * * * * * * * * * * * * * * * * * * * * * * * * * * * * //

dimensions      [0 -3 0 0 0 0 0];

internalField   nonuniform List<scalar> 
125
(
2.89286e+22
2.64286e+22
3.14286e+22
2.85714e+22
1.85714e+22
2.67857e+22
2.82143e+22
2.46429e+22
2.78571e+22
2.28571e+22
2.71429e+22
2.67857e+22
2.60714e+22
2.28571e+22
2.96429e+22
2.78571e+22
2.57143e+22
2.64286e+22
2.5e+22
2.42857e+22
2.64286e+22
2.71429e+22
3e+22
2.21429e+22
2.21429e+22
2.67857e+22
2.28571e+22
2.71429e+22
2.64286e+22
2.67857e+22
2.42857e+22
2.96429e+22
2.46429e+22
2.39286e+22
2.67857e+22
2.17857e+22
2.57143e+22
2.75e+22
2.71429e+22
2.32143e+22
2.92857e+22
2.67857e+22
2.75e+22
2.39286e+22
2.92857e+22
2.39286e+22
3e+22
2.5e+22
2.10714e+22
2.28571e+22
2.57143e+22
3.25e+22
2.96429e+22
2.78571e+22
2.32143e+22
2.60714e+22
2.78571e+22
2.60714e+22
2.89286e+22
2.53571e+22
2.64286e+22
2.60714e+22
2.85714e+22
2.60714e+22
2.39286e+22
2.57143e+22
2.75e+22
2.92857e+22
2.89286e+22
2.57143e+22
2.71429e+22
2.60714e+22
2.75e+22
2.42857e+22
2.71429e+22
2.78571e+22
3.21429e+22
2.85714e+22
2.60714e+22
2.21429e+22
2.82143e+22
2.46429e+22
2.57143e+22
2.89286e+22
2.21429e+22
2.53571e+22
2.14286e+22
2.92857e+22
2.60714e+22
2.53571e+22
2.28571e+22
2.64286e+22
2.28571e+22
2.57143e+22
2.64286e+22
3.32143e+22
2.67857e+22
2.57143e+22
2.67857e+22
2.57143e+22
2.75e+22
2.89286e+22
2.85714e+22
2.67857e+22
2.32143e+22
2.64286e+22
1.92857e+22
2.53571e+22
2.28571e+22
2.71429e+22
2.96429e+22
2.75e+22
2.42857e+22
2.42857e+22
3.10714e+22
2.25e+22
2.57143e+22
2.60714e+22
2.57143e+22
2.85714e+22
2.78571e+22
2.64286e+22
3.10714e+22
2.21429e+22
3.07143e+22
)
;

boundaryField
{
    sides
    {
        type            symmetry;
    }
    empty
    {
        type            empty;
    }
    procBoundary3to2
    {
        type            processor;
        value           uniform 2.75e+22;
    }
}


// ************************************************************************* //
