/*--------------------------------*- C++ -*----------------------------------*\
  =========                 |
  \\      /  F ield         | OpenFOAM: The Open Source CFD Toolbox
   \\    /   O peration     | Website:  https://openfoam.org
    \\  /    A nd           | Version:  7
     \\/     M anipulation  |
\*---------------------------------------------------------------------------*/
FoamFile
{
    version     2.0;
    format      ascii;
    class       scalarField;
    location    "0.006/lagrangian/dsmc";
    object      Ei;
}
// * * * * * * * * * * * * * * * * * * * * * * * * * * * * * * * * * * * * * //


6142
(
7.995973502e-21
2.423044738e-21
5.442275844e-21
5.567387366e-21
1.398538644e-20
5.329166785e-21
9.097646711e-21
5.29256169e-21
6.618220918e-21
6.532316296e-21
1.796331289e-21
1.178173275e-21
4.708780254e-21
1.939670524e-21
6.12793404e-22
3.019341401e-21
3.267316951e-22
3.317973334e-21
4.766210934e-21
3.628141344e-21
1.114427321e-21
2.958351837e-22
1.401576515e-20
4.326138313e-21
1.735966985e-20
2.669260935e-21
1.314362935e-21
1.466372273e-21
1.472900314e-21
6.882285455e-21
1.437532694e-22
5.931793829e-21
1.223238499e-20
3.421582101e-21
1.14172443e-21
1.689627136e-21
3.111542327e-21
4.473528386e-20
9.903999977e-22
7.813659527e-21
7.273517394e-21
1.505448454e-21
7.117800859e-21
7.117301464e-21
2.317799495e-21
1.209961219e-20
5.972078635e-21
8.130603359e-22
9.493996376e-21
4.605140101e-21
4.948569052e-21
2.372524202e-22
6.984655908e-22
2.577368011e-20
3.451394688e-21
1.935758148e-21
3.764603382e-20
2.536063986e-21
1.218868027e-20
8.166789125e-21
4.167798006e-21
2.332347224e-21
9.680343897e-22
2.937056854e-21
1.90216358e-22
1.378142311e-20
5.519725385e-21
2.822816097e-21
1.56213769e-21
2.374853191e-21
2.848657672e-21
1.36437333e-20
4.748828591e-21
2.79501625e-20
4.981223258e-21
7.247869004e-22
5.357071914e-21
5.35352671e-22
1.314346593e-20
6.44237053e-22
1.663126429e-21
5.267253104e-21
8.655378761e-21
2.724887739e-21
1.078161126e-21
5.191662961e-21
3.731144841e-21
1.011322436e-23
8.324601598e-21
2.668771834e-21
8.967075209e-21
6.171982136e-21
4.620944761e-22
7.173181724e-21
3.279984478e-21
2.715205654e-22
2.133116842e-22
2.642523796e-21
2.4490823e-21
8.229193972e-21
2.561497774e-21
4.903033476e-21
5.63693433e-21
5.690401789e-21
3.514390707e-20
3.025785154e-21
4.720217466e-21
6.906559411e-21
5.151363895e-21
1.10405493e-20
2.197592613e-21
2.298193698e-21
2.604257941e-21
6.896841455e-21
7.183090995e-21
3.709958623e-21
3.908607993e-20
3.447053294e-21
1.201492219e-20
6.415166332e-22
1.063203699e-21
8.43736268e-21
5.476400414e-21
5.923717469e-23
6.406045823e-22
3.771592783e-21
5.75724241e-21
4.11787265e-21
1.346552028e-21
2.244054243e-21
1.7610872e-20
4.529388428e-21
5.610893794e-21
1.992901405e-21
7.060439018e-21
8.757069684e-21
1.695270083e-21
1.171622742e-21
4.984881167e-21
2.800972301e-21
1.100319904e-21
4.366883337e-22
7.198843421e-21
4.164877239e-21
3.517096384e-22
2.059049873e-20
2.97055361e-21
4.500578298e-21
2.666909261e-21
6.590795742e-21
1.158857578e-20
9.063652277e-22
2.695065708e-21
1.907793558e-21
2.078738106e-21
5.698798082e-21
2.826003752e-22
2.954225388e-21
6.149679388e-21
6.623303734e-22
3.441607163e-21
6.090414434e-22
3.449089034e-21
1.087747846e-20
7.553002626e-21
1.137693525e-20
4.354553559e-22
1.444156155e-21
1.671868464e-21
1.364592398e-20
1.398459956e-20
1.881604527e-21
8.283122772e-21
3.418638139e-21
5.635077441e-21
2.470035543e-22
2.013887297e-20
4.133391624e-21
9.36055062e-21
2.037139305e-21
2.668554647e-21
2.855604299e-21
9.028994275e-22
8.286935489e-21
5.946268112e-21
2.3740466e-20
6.547718008e-21
3.432896873e-21
9.479386769e-21
6.135807793e-21
6.996741641e-21
1.289615467e-20
1.373657563e-21
6.180330369e-21
1.242270966e-20
1.323844252e-20
1.768164335e-21
1.858135626e-21
9.708372905e-22
1.412639346e-21
1.392131935e-21
2.463593252e-21
6.691776239e-24
3.184433405e-20
6.241991275e-21
2.467518464e-21
1.817995969e-20
3.204579301e-21
1.434319417e-21
2.335839771e-20
7.767055906e-21
8.103199576e-21
3.700076436e-21
4.701873228e-21
4.547330652e-21
3.15363119e-22
5.497800851e-21
1.462264784e-21
9.605459172e-21
1.44069209e-21
2.384701415e-20
2.329847804e-21
7.606903028e-21
6.78587342e-21
4.635744443e-21
2.218240152e-21
2.195047746e-23
8.140780331e-22
8.604598497e-21
1.774312196e-20
1.483900241e-21
5.170291993e-21
8.338040268e-22
1.071408543e-21
6.571959922e-21
1.908608497e-21
4.516390711e-21
1.870573526e-20
8.853365566e-21
1.17507153e-20
1.676138596e-23
2.45410503e-21
3.146309467e-21
2.096123139e-21
5.364109724e-21
2.909378895e-22
2.686223085e-21
2.555511205e-21
6.34481204e-21
5.559905471e-21
1.346663544e-20
1.616500512e-21
1.404019679e-20
4.550291824e-22
3.195703365e-21
1.912619481e-21
8.286922159e-21
9.854017528e-21
1.832383533e-21
2.39132826e-21
3.710328802e-21
1.291771137e-22
1.99354525e-20
5.57922758e-21
8.300294415e-22
3.836428766e-21
1.362121806e-21
4.284708566e-20
2.589374721e-21
1.266290518e-21
2.176860511e-21
1.023052858e-21
3.417860382e-21
4.645550194e-21
1.711831556e-23
6.352201277e-21
6.392943189e-21
1.533887119e-21
5.150744979e-22
5.917268156e-21
4.11092953e-22
1.451973085e-20
9.960966372e-22
7.714879663e-21
5.618366422e-21
1.879707763e-20
8.268927405e-21
3.934534546e-21
2.333525675e-21
1.635380233e-21
2.806194633e-21
1.728364763e-21
6.327863065e-22
1.471421591e-20
2.876368758e-20
5.19392066e-22
3.647896149e-21
7.450456941e-22
2.897492934e-21
1.023345853e-21
5.47025981e-21
1.106941851e-21
9.949668512e-22
1.266303397e-21
1.592528626e-20
9.578970315e-21
3.090652487e-21
2.262601518e-21
9.477333056e-22
1.469396619e-20
2.314935834e-20
5.934733284e-22
7.926410957e-21
8.262072929e-22
1.755362904e-21
4.111865075e-21
4.428458208e-23
1.763923232e-21
1.249213497e-22
4.736881414e-21
1.453037792e-20
2.868929431e-21
9.75694255e-21
3.612648422e-22
1.142693082e-21
2.952703987e-20
2.539077304e-21
7.930244154e-22
1.864848892e-20
6.318017113e-21
5.032804303e-21
4.106418237e-21
7.078062252e-21
3.082718159e-21
2.355318036e-21
2.71476876e-20
5.598178676e-22
1.131410232e-20
3.423437401e-21
9.384817679e-21
2.752020379e-21
1.861672251e-21
1.250818067e-20
6.620358879e-21
2.202944909e-21
1.008215846e-20
2.955631819e-21
5.376043161e-21
1.029167952e-20
1.290705475e-21
8.191195681e-21
6.634046089e-21
1.197909658e-21
1.137845944e-20
1.022773355e-21
2.532155254e-21
1.581751239e-21
9.401614914e-21
2.939880775e-21
7.411565433e-21
2.328249875e-21
1.335790255e-21
4.909496528e-21
2.988173113e-22
9.593208111e-22
2.278786238e-21
5.380541155e-21
4.083058472e-21
6.520969505e-21
3.642051837e-22
3.791311682e-22
4.700019072e-21
6.552303814e-22
2.487759449e-21
3.668147266e-22
9.689421453e-22
1.533904618e-20
6.897789412e-21
3.841855432e-21
6.08665275e-21
4.038154825e-22
5.084484608e-20
4.384595578e-22
8.518320608e-21
1.298425603e-20
3.645730759e-21
1.139438451e-20
2.51304482e-21
6.657676378e-23
8.089203457e-22
9.826861307e-21
1.535478861e-20
8.410148072e-22
2.922864721e-21
3.592580355e-21
1.535213401e-21
9.865422342e-21
2.383017395e-22
1.009843564e-21
2.698237352e-20
1.948840434e-20
1.096056399e-21
1.01279562e-21
1.053320943e-21
5.129759319e-21
7.597412866e-21
2.381858812e-21
1.509496841e-22
3.033226429e-21
4.20403844e-21
5.371763403e-22
5.87705344e-21
6.849869347e-23
4.977742559e-24
1.256827082e-22
9.901282633e-21
8.230455544e-21
1.15312499e-21
5.448341488e-21
1.484438654e-21
1.109170407e-21
1.43753796e-21
3.091857645e-21
1.331149124e-20
8.18629337e-21
3.791355107e-21
7.111116986e-21
1.318576003e-21
1.009311076e-20
2.138202592e-20
7.168249853e-22
2.90799319e-21
3.600050674e-21
5.201682342e-22
4.703894529e-21
4.407442113e-22
1.10474813e-21
4.940750456e-21
5.979379695e-21
1.046447433e-20
3.14947826e-21
6.584985444e-21
4.723462355e-21
5.282441263e-21
7.026313414e-21
6.579581718e-21
3.736411937e-21
5.890702889e-21
3.258345862e-21
5.640200159e-21
2.856695822e-21
9.236378384e-22
1.113783741e-20
4.820917627e-21
8.199724845e-21
6.230767613e-21
7.056237019e-21
5.290185489e-21
1.978624728e-21
1.102832006e-21
4.745599882e-23
2.540763099e-22
7.303714702e-21
1.094872747e-20
7.910048206e-23
1.513193186e-21
1.350640545e-20
1.696945237e-21
4.48228154e-21
3.158716819e-21
7.415934689e-21
1.489110826e-21
6.17713832e-21
1.46232572e-20
3.048079033e-21
1.265867685e-20
5.258010942e-21
4.830938889e-21
1.180276182e-20
8.98286181e-21
5.045801104e-21
4.616259069e-21
1.991697821e-21
1.140233479e-20
1.184769903e-20
4.923949514e-21
1.894562324e-21
7.957296723e-22
4.760702653e-21
1.756680426e-20
6.489536012e-21
8.081018274e-22
1.980504103e-21
6.642215227e-21
7.480654804e-21
7.356808542e-22
2.613860032e-20
2.754161834e-21
9.203494438e-21
1.553788976e-21
4.619623953e-23
4.102404525e-20
2.881064335e-21
2.345902717e-21
2.616704131e-21
2.223551681e-21
1.818314913e-21
1.442340275e-20
6.337635067e-22
3.956632324e-22
3.199082539e-21
2.678575197e-20
1.935767494e-20
4.147501408e-21
1.006631305e-20
1.923383045e-21
9.283628266e-22
4.655828405e-21
4.979481408e-21
4.538445119e-21
3.232915682e-21
1.700388223e-21
5.452956758e-22
1.556986712e-20
4.558504386e-21
9.947140554e-21
1.383704077e-20
1.98653918e-21
2.060689386e-20
4.177121316e-21
9.630731296e-22
2.016020167e-22
9.346654516e-22
1.619608296e-21
7.48158029e-21
4.971315169e-22
3.629402834e-21
7.896347609e-22
1.219367069e-20
8.677327039e-22
3.455943537e-21
4.925042241e-21
1.940413456e-20
3.860292039e-21
1.926047209e-21
1.129049881e-21
3.637436023e-22
1.533049119e-22
3.692100291e-21
6.8536957e-21
6.55044296e-21
1.722747877e-21
3.170314361e-21
9.98490533e-21
9.273419525e-22
5.817608822e-21
1.28340205e-20
1.81644252e-21
8.531650579e-21
1.24562952e-20
6.328465197e-22
6.097796096e-21
2.491168474e-21
7.971295664e-21
2.366404672e-21
4.562598055e-22
1.292029958e-21
2.83367569e-21
3.413290922e-21
4.902318927e-21
1.405558509e-21
2.551532945e-21
3.730599476e-21
1.127921516e-20
4.426984539e-21
3.195080201e-22
5.685276382e-21
2.377961079e-21
5.589473914e-21
1.99301695e-22
7.171270618e-22
8.60968172e-21
7.742018663e-22
1.74484797e-20
3.752143672e-21
5.487428902e-21
1.335952297e-21
6.965698891e-22
6.238123142e-21
1.066389081e-21
2.223572185e-20
4.153312805e-21
9.094691551e-21
6.770581241e-22
8.898113671e-23
4.380097757e-21
6.385595668e-22
6.709444595e-21
1.93647196e-21
4.25764692e-21
7.101558698e-21
1.209203452e-20
3.453622892e-21
1.278821542e-20
1.676386951e-21
6.116517757e-22
3.571610932e-21
1.242868845e-20
4.656725117e-22
2.646227012e-21
1.984153467e-22
1.128886298e-20
3.035995529e-22
7.279970045e-22
1.951689458e-21
6.455573272e-21
2.052654579e-21
1.080057144e-20
5.497068553e-22
2.157314069e-20
3.852131891e-21
1.023103948e-21
1.528829997e-20
1.522115832e-20
6.04148314e-21
3.522887297e-21
1.298264127e-21
3.084051452e-21
2.488442832e-21
1.030418509e-20
5.219653594e-22
1.239090154e-21
1.29260175e-20
1.695712509e-21
1.177981779e-21
8.0461244e-21
6.364548844e-22
1.847424136e-21
5.471059271e-22
6.160177646e-21
2.244045372e-21
2.789391084e-22
1.908889586e-21
1.26954586e-21
1.447637483e-21
2.319615431e-21
4.109114391e-22
3.323336302e-21
1.829873856e-21
2.612595324e-21
1.505771536e-20
9.160758685e-21
1.578854798e-21
1.33249402e-20
1.507914973e-21
4.002313239e-21
3.368589833e-21
3.949637332e-21
3.913179364e-21
2.149292112e-21
3.611813102e-21
8.389228439e-21
2.802829e-21
1.556200035e-21
2.08090889e-21
6.021783556e-22
5.404093227e-22
2.466114572e-21
4.902942641e-21
1.285209268e-21
2.81146865e-20
2.042463463e-21
2.418087691e-22
1.580809185e-22
9.743469435e-23
9.626417146e-21
6.500114922e-22
1.497413851e-20
4.95553226e-21
1.874452829e-20
3.699986852e-21
7.873335382e-23
3.755529724e-21
2.803688377e-21
7.075016192e-22
7.386137613e-21
9.141527656e-22
7.675186354e-21
9.79175972e-21
2.262733856e-21
2.719732075e-21
1.458715873e-21
1.210239077e-21
5.936995206e-22
8.448523236e-21
1.641272382e-21
4.484015963e-20
9.39180019e-21
1.79989269e-21
4.785059047e-20
2.508097359e-22
3.904081134e-21
3.362608366e-22
2.779078439e-20
1.487573415e-21
1.851556413e-21
3.454346918e-22
7.919927997e-21
8.683592016e-21
2.445336868e-20
1.037045618e-20
1.440533874e-20
3.17460132e-21
2.458052887e-21
9.292086196e-21
1.101787293e-20
1.156022475e-21
2.612131926e-21
8.180340445e-21
7.451237211e-21
2.504588752e-22
9.447092316e-21
4.132642771e-21
3.481524028e-21
1.416193489e-20
3.078828576e-21
7.904039214e-21
3.426780837e-22
4.488447456e-21
9.136740612e-21
2.677424058e-22
6.580115863e-21
1.520032952e-21
1.227294615e-21
8.324711543e-21
2.971031931e-23
1.584397223e-21
9.765262979e-21
9.890067422e-22
5.064796092e-21
1.448798002e-21
7.319987003e-21
3.708755581e-21
1.693242511e-21
4.006396584e-21
3.424420367e-22
1.026255915e-20
1.375295908e-20
1.250249277e-21
2.129254074e-20
1.049070852e-21
5.172444975e-21
2.759500433e-21
3.340897713e-21
2.714949572e-21
1.216952266e-20
8.034901389e-21
5.039423047e-21
6.483682203e-22
5.660689347e-22
9.705473573e-22
5.035748466e-21
6.892336749e-21
6.64257202e-21
5.334210034e-21
6.83969711e-21
3.252050902e-22
5.58763677e-21
1.143981255e-21
1.122432832e-21
9.804251523e-22
9.254021114e-21
6.992887749e-21
1.31897601e-20
9.846976737e-22
6.974418225e-22
3.709949087e-21
4.380465595e-21
7.161499092e-21
2.875743588e-21
1.139334572e-20
7.600325779e-21
2.241673446e-20
3.733823477e-21
7.152807895e-21
5.550872862e-23
1.158093632e-21
2.359690023e-21
3.5342264e-21
3.057244582e-21
1.197395886e-21
6.561369364e-22
9.758443582e-21
8.964927889e-22
1.18534644e-20
4.864345857e-22
1.305849073e-20
2.288476855e-22
4.122129608e-22
2.953976656e-21
9.78876844e-22
1.191732886e-20
5.433963518e-22
4.95304157e-21
3.507319791e-21
4.24042823e-22
2.573444267e-21
8.205556664e-21
3.233651714e-21
9.599880996e-22
4.597384899e-21
9.354360957e-21
5.218005446e-21
1.964959056e-20
1.963799985e-22
1.977363087e-21
1.216524685e-21
1.634315317e-21
7.701141958e-21
1.213245144e-21
2.751877263e-21
2.694035974e-21
2.035098176e-21
1.095554875e-20
1.741269906e-21
5.182414654e-22
1.370718959e-21
5.746604556e-21
7.551642441e-21
3.151176907e-21
2.576541493e-21
2.689051587e-21
7.077984876e-21
3.513183933e-21
4.343624272e-21
3.474103808e-21
6.236004584e-22
9.2640264e-22
8.154572151e-21
1.168029153e-21
1.336918105e-21
6.529071918e-21
4.709097737e-21
7.749896592e-21
1.489338618e-20
5.176007914e-21
1.13847754e-21
1.703804662e-21
1.055543096e-20
3.172576785e-21
4.985639274e-22
3.440260551e-21
6.007020273e-22
5.871196193e-21
1.743926392e-20
1.076556355e-21
6.95858929e-21
8.523956267e-21
6.050866393e-21
1.354179817e-20
5.434121335e-21
2.149184087e-20
4.344104465e-21
3.19107992e-22
9.156090893e-21
1.28283097e-21
5.96059223e-21
4.793628966e-21
2.241470308e-21
9.032791384e-22
2.722185386e-21
4.94870849e-23
4.111074047e-21
2.897215367e-21
3.055140651e-22
4.974519829e-21
3.34059045e-22
7.4743646e-21
1.972052316e-21
7.60200943e-22
6.098832483e-22
1.144953823e-20
3.242755871e-21
8.122268886e-21
1.428506889e-20
2.079586056e-21
2.843802267e-21
3.993137901e-21
1.17206799e-21
8.838101525e-22
7.426548196e-22
6.186197957e-21
2.868372629e-21
2.807761034e-21
3.767844388e-21
3.713704885e-22
1.782399406e-21
2.536942727e-22
3.332946784e-21
3.49629163e-21
1.33457136e-20
2.34088564e-20
1.02346161e-21
6.998471789e-22
1.272870814e-20
3.82805972e-21
5.22845979e-21
4.560129008e-21
1.019181418e-21
1.45112923e-21
8.900278284e-21
3.567667468e-20
1.881018596e-21
2.475210757e-21
4.762462551e-22
4.202108713e-20
4.899528416e-22
3.36627759e-21
1.38222271e-20
5.815613116e-21
2.47698871e-21
1.150908225e-21
5.746417071e-21
1.822106367e-20
7.826377901e-21
1.678876869e-21
5.613531491e-22
4.158986169e-21
3.396572515e-22
1.568561427e-21
1.392681285e-20
1.392517234e-20
6.452578339e-21
5.842546953e-21
5.871938526e-21
2.359150083e-21
2.180009477e-22
9.297790068e-22
1.544712819e-21
5.808646845e-22
1.184694962e-20
2.403725026e-21
4.901410074e-21
5.741527289e-22
9.812499193e-21
3.728326491e-22
3.547245174e-21
5.802722364e-21
1.470618608e-20
1.146600116e-20
1.394853718e-20
4.218489018e-21
1.30553342e-20
8.828739175e-21
9.213900192e-21
8.282631631e-22
1.518505503e-21
9.862848244e-21
1.954747285e-22
5.11897012e-21
2.035907875e-21
8.800434077e-21
2.263576885e-22
2.033234221e-20
1.592900893e-20
5.609991691e-21
8.982249161e-21
3.094270351e-21
3.970642148e-21
2.50672809e-21
1.119424417e-21
2.549063887e-21
2.082005353e-22
1.114471021e-21
1.292683349e-21
1.814404651e-21
9.918552855e-21
8.816839334e-21
2.432560076e-21
3.076445953e-21
1.808722913e-20
5.699579032e-20
3.767720098e-21
5.546978995e-21
1.835936216e-20
1.908716643e-20
8.134919002e-22
4.44750939e-21
4.303358728e-21
5.3110826e-21
5.529846587e-21
3.189637122e-21
2.404779814e-21
2.972295931e-21
8.230089522e-22
5.948014173e-21
9.641680425e-22
1.598762386e-21
5.601774613e-21
9.111897964e-22
1.329727313e-21
3.768316797e-21
5.311344173e-21
5.390086902e-20
2.01019875e-21
2.763525626e-21
5.690466261e-21
2.08923926e-22
5.654929111e-21
2.415152145e-22
1.286779955e-21
3.019624805e-21
1.015354713e-21
1.364587293e-21
2.678745628e-21
1.820622275e-21
2.325655094e-21
5.142529744e-22
7.18372652e-23
2.214274559e-22
2.221361229e-21
1.376034423e-22
3.831493797e-21
2.999416323e-22
4.002372956e-21
1.561992201e-21
1.940384277e-21
4.73211768e-22
1.044392181e-20
5.061771011e-22
1.859991596e-21
4.830864585e-22
4.300986851e-21
1.039975856e-20
3.550201279e-21
2.620571425e-21
6.746061077e-21
5.206950379e-21
8.033837643e-21
8.530914428e-22
1.587702786e-20
1.202479826e-21
1.337417292e-21
3.750443246e-22
4.274678532e-21
1.139363237e-20
4.08014702e-22
3.948646332e-21
7.844534713e-22
5.248556241e-23
5.121164164e-21
1.594260099e-21
1.650820422e-21
6.879765339e-21
7.507887842e-21
3.224975861e-21
2.883181789e-22
2.507329378e-21
1.284880961e-21
9.788702546e-21
2.214224296e-21
6.876150773e-22
4.031832949e-21
2.974242789e-21
6.501161975e-21
1.355617003e-20
3.104107972e-21
9.765407772e-21
5.451906545e-21
3.520126752e-21
6.355070765e-21
1.987762615e-21
1.937360563e-20
8.633881888e-21
2.618500794e-21
1.774878832e-21
5.048314409e-23
1.006407465e-20
6.401826542e-21
4.833580009e-21
1.800469641e-22
2.228323656e-21
1.233665486e-20
5.371182901e-22
1.265379402e-20
4.739888128e-21
2.279631396e-21
4.259942731e-21
6.477834786e-21
8.600588254e-21
1.925991014e-21
7.750097206e-21
3.021659163e-21
4.13486061e-21
2.893170734e-21
4.806166605e-21
2.458412299e-21
2.024085885e-21
7.560708186e-21
1.18551411e-21
8.989275159e-22
1.616832388e-21
1.056100333e-20
2.64411523e-21
2.019911099e-20
3.632630389e-23
8.272494814e-22
1.981907759e-21
3.448042615e-22
5.980304258e-21
6.727263924e-21
3.516623072e-21
6.375947565e-21
1.142160906e-21
9.025251446e-22
3.334691961e-21
3.240492091e-22
1.468837794e-22
8.284885168e-22
2.995897654e-21
3.540664498e-21
4.321373046e-21
2.534638436e-20
5.895767919e-22
8.755884467e-21
1.667420233e-21
4.539382827e-21
1.121350318e-20
1.265984631e-20
9.128118135e-21
7.864380545e-21
1.751786818e-22
1.117317396e-21
2.149073755e-22
2.859454616e-21
6.045773186e-22
5.137359976e-23
1.861506117e-21
3.530145136e-22
4.523417769e-21
1.959161566e-21
6.678062252e-22
6.712749064e-21
1.652528729e-20
1.095837825e-20
5.681804611e-21
2.048596677e-21
2.078895497e-20
1.028826498e-22
8.894241105e-22
1.26869693e-20
2.640994882e-21
8.610420002e-22
1.721034746e-21
2.158842072e-21
4.855481245e-21
9.969884707e-22
1.526877802e-21
2.241919299e-21
3.664903076e-24
1.624000581e-20
1.579518584e-20
2.989929349e-20
4.361236378e-21
2.867618701e-21
2.677400379e-21
4.281350957e-22
3.557964215e-22
8.813614895e-21
3.147755772e-21
7.74135606e-21
8.217559066e-21
6.411405852e-22
6.068901139e-21
5.495946178e-22
9.349828404e-21
8.062674171e-21
2.341294838e-22
5.189233566e-22
3.228285902e-22
4.861770618e-21
2.393295638e-23
2.512577372e-21
1.671755593e-20
3.28310292e-21
1.893264679e-21
1.611340643e-21
4.934790982e-21
6.363245151e-21
3.321026386e-21
4.628531601e-22
1.456958216e-21
1.028381307e-21
9.214305265e-21
2.599020293e-22
1.772907987e-21
5.221052601e-22
2.856782321e-20
8.524957501e-21
2.009822108e-21
1.87071601e-21
3.52165191e-21
2.49818209e-21
2.120182416e-21
3.745576141e-21
9.696776951e-21
6.69893438e-21
7.313628155e-21
1.209924686e-21
2.069472073e-21
3.060612582e-21
5.511935835e-21
1.524466543e-21
1.353892239e-21
9.135840008e-21
7.748640735e-21
3.57715604e-21
2.14716358e-21
1.180755045e-21
5.471415286e-21
1.949744668e-21
2.086172391e-23
4.227266161e-21
2.17529964e-21
5.573532841e-21
2.424767746e-21
2.126566672e-21
7.654540709e-22
7.985280861e-21
3.678169405e-21
7.166146018e-21
1.5726325e-21
1.20919742e-20
2.988720101e-21
2.482521037e-21
1.5792209e-20
1.371064631e-21
1.975340274e-20
3.524153387e-21
6.147428539e-21
1.080581522e-21
7.942793857e-22
9.798176775e-21
2.867494739e-21
9.511072347e-22
8.367351664e-21
6.221711579e-21
2.083405965e-21
2.909665457e-21
4.582981991e-21
3.881246191e-21
6.564747005e-21
8.248869759e-21
1.226697785e-20
2.418152347e-21
2.857692889e-22
5.483616039e-23
1.572012837e-21
3.23111064e-21
4.162200018e-21
1.229738193e-21
8.161007534e-21
5.705823141e-21
6.795217673e-21
2.158490272e-21
1.593666966e-20
1.007693025e-20
1.335033806e-21
4.604629869e-21
1.841308933e-21
6.638734894e-21
9.903240623e-22
2.383049839e-22
3.657907001e-21
1.567796127e-21
9.164394133e-21
7.014515003e-23
1.157126684e-20
2.194013882e-20
1.115077318e-20
9.11590134e-21
1.840632941e-22
2.851158983e-21
6.67726645e-22
3.679601474e-21
2.585523095e-21
7.538684296e-21
1.218017709e-20
8.689256839e-22
1.873891473e-20
1.432094215e-20
3.856897961e-21
3.433093414e-21
5.412306747e-20
1.48206024e-21
1.854143497e-21
1.775460724e-20
5.08198488e-22
8.299382216e-22
3.210246297e-21
1.231976571e-20
2.171652698e-22
7.945204489e-21
8.270321303e-21
1.250616561e-21
3.668436613e-22
2.966778615e-21
3.398566442e-21
2.032279187e-21
1.41060377e-21
6.626131094e-21
1.95213186e-22
1.518505587e-22
1.073798994e-21
1.162861279e-20
4.277913357e-21
5.767052465e-21
3.441264264e-23
3.857829215e-21
5.264562013e-21
3.719991562e-21
4.079793428e-21
6.295532726e-22
6.993393296e-22
7.50190151e-21
2.315752187e-21
1.66706089e-21
7.377735126e-21
1.285056451e-20
6.917615753e-22
1.746908944e-21
7.109793631e-22
1.059244066e-20
1.153588856e-21
8.660928382e-21
4.514540885e-21
1.162435304e-21
1.082294153e-23
4.0368852e-22
3.540122607e-21
9.321630145e-21
8.914151161e-21
1.570871479e-21
1.787614464e-21
1.723897223e-21
2.977661825e-21
1.652139758e-21
1.867984377e-20
3.074548632e-21
3.063760597e-21
3.062594448e-21
4.405043038e-21
1.390468809e-21
1.162951536e-21
7.758794452e-21
1.493051128e-20
1.646938331e-20
5.456833753e-21
3.965513608e-21
2.374402765e-20
1.844295545e-21
9.700069202e-21
9.46439567e-21
4.378191767e-21
2.296224495e-21
2.344969252e-21
2.313434701e-21
3.391794849e-22
1.055405969e-21
3.654818916e-21
1.48022484e-21
9.221436747e-22
1.184496714e-20
1.738006213e-21
1.594622074e-20
3.739642751e-21
5.838132667e-21
5.281963654e-21
4.68569621e-21
3.771832856e-21
2.3922493e-21
2.799970418e-21
2.815806756e-21
6.40685087e-21
4.133091798e-21
6.449021525e-22
1.358741402e-21
4.508228705e-21
1.172401179e-20
1.098019296e-21
1.349191017e-21
3.745515907e-21
5.171098154e-21
2.5893601e-21
7.862142628e-21
2.209473408e-21
5.685755027e-21
4.198662218e-21
3.279439696e-21
4.750081657e-22
5.208949108e-21
6.174785743e-21
1.276704894e-21
3.459538141e-21
3.964105712e-21
3.340715264e-21
1.160119369e-20
7.941097322e-21
1.911775902e-22
8.835988384e-21
1.937473793e-21
3.545569425e-21
2.308627876e-21
1.828297256e-20
5.983770195e-21
5.121312744e-23
1.808113932e-21
2.546501167e-21
1.143146403e-20
8.571044597e-21
7.145637232e-21
4.793167449e-21
1.451099149e-21
2.367711187e-21
7.367358287e-21
4.865217922e-21
1.284591099e-20
6.811384907e-22
8.260801222e-22
5.214628209e-21
1.036719331e-21
1.934596562e-21
9.40953723e-21
2.792115381e-21
4.37344992e-20
7.198172255e-21
5.062547885e-21
6.810172666e-21
4.449818224e-22
1.60952893e-20
5.105535023e-22
1.448520903e-20
3.999091788e-21
1.782926021e-21
6.83962867e-21
5.758668411e-21
9.655595777e-22
1.860861216e-22
1.412400017e-22
3.731238084e-22
1.343315354e-20
3.813240334e-21
1.166839055e-20
5.819767585e-22
2.646694751e-22
3.252642763e-21
8.669609523e-21
1.062514457e-21
2.815406686e-20
6.510066121e-21
1.127042767e-20
3.930198643e-21
5.967235252e-21
8.990087877e-21
1.196223291e-20
3.069586338e-21
4.539648758e-21
6.339328777e-21
1.707406646e-22
3.944722956e-21
1.692153842e-20
1.914431689e-21
1.231400413e-20
3.132207569e-22
4.686300538e-21
8.759834524e-21
6.24058569e-22
5.616808391e-21
3.408018994e-21
2.624795973e-21
4.925429763e-21
6.340574816e-21
5.216944897e-21
9.316027519e-21
4.678918863e-21
1.552267357e-21
4.458414353e-21
4.86971764e-21
7.55013815e-21
2.12389491e-21
2.209653276e-21
5.023031228e-21
8.08985833e-21
1.155144204e-21
1.247430418e-21
1.243421693e-20
5.458844761e-21
1.309396771e-21
9.55424695e-21
1.254256948e-22
9.074814112e-22
3.102158013e-21
4.839995763e-22
1.32822504e-20
3.626059381e-21
3.447043233e-22
2.218602318e-20
3.22363871e-21
2.295240623e-21
4.914839684e-21
6.149867774e-22
7.269376551e-22
9.244813075e-21
4.761548744e-21
4.53416422e-21
1.026435825e-21
1.974480619e-21
6.957630963e-22
2.437281781e-21
6.516451936e-21
2.58722729e-21
7.84048998e-21
2.013131459e-21
2.16398497e-21
2.566597472e-23
1.971990681e-21
1.701436639e-21
2.796947114e-22
6.948177172e-21
1.878600156e-22
3.164013762e-21
2.432257069e-21
2.016514807e-23
6.513092145e-21
2.457248225e-21
1.047709223e-21
5.550829924e-22
4.064133291e-21
2.324513223e-21
1.195298067e-20
1.684466555e-20
2.445836444e-21
5.377164969e-21
1.027911047e-22
4.445280643e-21
5.766217929e-21
4.231614392e-21
6.50440859e-21
2.775850786e-23
5.657830768e-21
4.392467345e-21
2.121180162e-21
3.149663839e-21
2.045893317e-21
6.903098508e-21
8.330839713e-21
1.29837414e-21
3.1817021e-21
4.306167591e-21
5.461846019e-22
1.472697359e-21
1.486590426e-21
2.28712297e-21
1.308922834e-21
6.919343973e-21
8.156416347e-21
1.278880366e-20
4.963950043e-21
2.49833244e-21
2.762264474e-21
9.482614596e-22
6.72840451e-22
3.385126203e-21
3.346681951e-21
2.07847823e-21
2.974702355e-20
2.974290327e-22
3.256434531e-21
1.300663687e-22
5.536525826e-21
1.728165159e-20
2.356208949e-22
1.316170465e-20
1.508951039e-20
2.038257263e-21
1.52560434e-21
2.90209743e-21
8.771137871e-23
1.133546392e-21
2.677829801e-22
6.583163648e-21
5.393178759e-21
2.207382489e-21
2.660202563e-21
1.666002814e-21
4.886429456e-21
3.401698174e-21
6.876369591e-21
2.608163906e-21
6.959260737e-21
1.491732312e-20
5.374188776e-22
1.588628287e-21
9.465843024e-21
2.936837177e-21
2.850405003e-22
4.236580877e-21
2.446444037e-23
1.330348963e-21
5.9879927e-21
1.137762496e-21
7.482356184e-21
1.269600847e-20
2.395856656e-21
5.468954557e-23
8.10563683e-22
2.800030232e-21
1.278268253e-21
2.22138765e-21
5.472185405e-23
1.879913182e-20
1.218677271e-20
3.80174305e-21
1.495425228e-20
5.074865166e-21
7.004639956e-21
1.211447601e-21
2.130926625e-21
2.233584735e-21
2.441443423e-21
7.457406162e-21
7.724620082e-21
1.590901332e-21
2.557017969e-22
5.316787025e-22
4.567827484e-21
1.075960711e-21
6.324246767e-21
3.819253314e-21
2.473643848e-21
1.816392647e-21
3.587977886e-21
3.53834368e-21
1.485221524e-20
1.48083296e-21
2.351233765e-21
2.561298356e-21
1.126283954e-21
5.67787307e-21
4.232385311e-21
3.368626695e-21
4.160777349e-21
3.079868817e-21
1.629352897e-21
5.079164886e-21
9.456107953e-21
5.182263315e-21
6.576790227e-21
8.162694151e-22
1.407719276e-21
8.518456608e-21
5.03334245e-22
9.344118254e-22
5.71980792e-21
2.276813504e-21
6.931726105e-21
2.451844365e-21
2.133035142e-21
1.598586363e-21
1.18266822e-21
1.138389918e-20
4.864647132e-21
2.919018468e-21
4.776723145e-21
3.723734305e-21
2.277468591e-22
2.773458835e-23
5.110655554e-22
1.026651638e-20
3.364018711e-21
2.602372858e-22
2.335710987e-21
3.672054613e-21
9.435404597e-21
2.986042493e-21
6.131231234e-22
5.165056734e-21
2.051876314e-21
3.027863284e-21
2.234787219e-21
3.861424903e-21
9.428977779e-22
3.339970996e-21
2.939690171e-21
1.023257453e-21
1.268050087e-21
3.980618151e-21
1.039757651e-20
6.667103865e-21
1.527046771e-21
1.607632093e-21
4.718577644e-21
3.15448609e-21
4.040910752e-21
1.120790346e-21
1.330180418e-21
1.913870075e-20
7.099729486e-21
8.69161257e-21
5.324086643e-21
1.617553345e-21
3.021995894e-21
1.155620714e-21
4.693275179e-22
1.889125697e-21
1.757587066e-21
1.818173711e-21
5.180345202e-21
3.452702142e-22
1.36900114e-21
1.93420882e-21
1.070743981e-21
1.568831825e-20
1.083005359e-20
6.257910818e-21
3.876212859e-21
1.466292966e-21
2.982430879e-21
2.446451481e-20
1.218862766e-20
2.868477792e-22
1.047659386e-20
2.990227799e-21
2.197199971e-20
4.311832778e-21
1.560393808e-21
1.437992256e-20
1.139880796e-21
2.538928121e-21
3.456797922e-21
3.278608515e-21
1.223581808e-20
7.24379195e-22
2.042501291e-21
4.3539688e-21
6.543988233e-21
4.672005858e-21
7.673091632e-21
2.147114737e-21
1.016258583e-21
1.424111667e-20
2.91071978e-21
9.650100782e-21
4.078841784e-21
7.899016114e-22
1.48950416e-21
1.197559892e-20
1.044142484e-20
9.606609219e-22
1.017821177e-21
1.230922567e-21
2.255268934e-21
6.451541055e-21
2.236524824e-21
4.40215787e-21
7.344564475e-21
2.98895371e-22
7.325533588e-21
6.429500595e-23
9.243525909e-22
4.808394645e-21
7.835882e-22
2.724707053e-22
1.284233009e-21
1.619182006e-21
6.375879875e-21
6.751055837e-22
3.017122067e-22
2.003975375e-21
1.435259006e-21
4.707910059e-21
1.111227701e-20
5.354342434e-21
3.454283611e-21
1.987705242e-21
2.202111473e-21
2.431414301e-20
3.287509036e-21
6.716703423e-22
6.477058848e-21
5.265275031e-21
2.224693039e-21
5.24730579e-21
1.56322511e-22
5.26212959e-21
1.5862149e-21
4.934271165e-22
2.748415829e-21
4.863743291e-21
9.405798232e-21
7.587505746e-21
6.424138982e-21
6.292123022e-23
4.510514584e-22
1.358615022e-22
7.971686392e-21
5.364080214e-22
8.215984589e-21
2.488374724e-20
1.009678241e-20
1.023212794e-20
9.127990477e-21
3.93168035e-21
1.608289493e-20
3.427204582e-21
3.136814258e-20
2.857763239e-21
3.727065378e-21
1.764327093e-22
1.474916277e-21
1.225687983e-21
4.536150176e-21
1.127906212e-20
2.758933676e-21
5.138037411e-21
1.119169596e-20
1.841014408e-21
6.306431431e-21
4.19786104e-22
4.158395911e-21
1.834268884e-21
6.751310687e-21
2.090078042e-21
2.488234993e-20
3.903448311e-21
3.069412146e-21
1.047727904e-20
9.367263679e-21
1.998404592e-21
3.325256082e-21
7.360958027e-21
5.638167158e-22
3.730365143e-21
1.653940728e-21
3.848194931e-21
1.015476839e-21
1.531634881e-20
7.399515038e-22
1.083494532e-21