/*--------------------------------*- C++ -*----------------------------------*\
  =========                 |
  \\      /  F ield         | OpenFOAM: The Open Source CFD Toolbox
   \\    /   O peration     | Website:  https://openfoam.org
    \\  /    A nd           | Version:  7
     \\/     M anipulation  |
\*---------------------------------------------------------------------------*/
FoamFile
{
    version     2.0;
    format      ascii;
    class       Cloud<dsmcParcel>;
    location    "0.006/lagrangian/dsmc";
    object      positions;
}
// * * * * * * * * * * * * * * * * * * * * * * * * * * * * * * * * * * * * * //

4665
(
(0.2408543707 0.3795728147 0.3125453037 0.06702751095) 200 333 1
(0.5794125188 0.05787187422 0.1524218664 0.2102937406) 349 684 1
(0.1734792079 0.4132603961 0.1872982816 0.2259621144) 364 714 1
(0.2196642123 0.3901678938 0.07493530992 0.3152325839) 365 715 2
(0.7948635153 0.05217778143 0.1025682423 0.0503904609) 308 604 2
(0.7632190061 0.118390497 0.0924226776 0.02596781936) 556 1033 1
(0.7788042231 0.009454257401 0.101143631 0.1105978884) 539 999 2
(0.547185309 0.2264073455 0.18974104 0.03666630548) 379 685 1
(0.5086158115 0.2456920942 0.08149453974 0.1641975545) 600 1177 2
(0.6999838683 0.1445806103 0.1500080659 0.005427455534) 68 132 2
(0.3216464841 0.2909362557 0.339176758 0.04824050228) 163 319 2
(0.007830880985 0.4960845595 0.4953825267 0.0007020328548) 113 1259 2
(0.1149858909 0.4284744735 0.01403258102 0.4425070545) 600 1177 1
(0.842983443 0.07850827848 0.006385048315 0.07212323017) 604 1186 1
(0.7063450421 0.05599823074 0.1468274789 0.0908292482) 277 540 1
(0.1270512279 0.436474386 0.2313586033 0.2051157828) 180 349 2
(0.3819041382 0.3090479309 0.186813778 0.1222341529) 23 13 1
(0.1694945611 0.4152527194 0.3610326967 0.05422002273) 137 265 2
(0.8720172191 0.06399139047 0.0366964232 0.02729496727) 576 1072 1
(0.5541194979 0.2229402511 0.1843566957 0.03858355531) 91 118 1
(0.8228645999 0.08856770006 0.0877974185 0.0007702815605) 490 959 2
(0.5491550296 0.2254224852 0.09416211753 0.1312603677) 372 729 2
(0.2063387364 0.04022954736 0.3566010844 0.3968306318) 486 953 1
(0.6988263735 0.02304364412 0.1505868132 0.1275431691) 436 856 2
(0.1338214541 0.08254530616 0.3505439668 0.4330892729) 434 793 2
(0.0124668309 0.2197803855 0.4937665845 0.273986199) 362 710 2
(0.6040578155 0.1979710922 0.1596692391 0.03830185319) 419 821 2
(0.2800130679 0.359993466 0.1660034493 0.1939900168) 105 202 2
(0.8686258588 0.004390763292 0.0656870706 0.06129630731) 156 302 1
(0.109281815 0.4453590925 0.1671284417 0.2782306508) 331 590 1
(0.5731225076 0.05067751333 0.2134387462 0.1627612329) 458 899 2
(0.7513956149 0.08638201542 0.1243021926 0.03792017715) 522 1022 1
(0.009076602071 0.1404370569 0.3550246421 0.495461699) 308 545 2
(0.09061688886 0.4546915556 0.1653838127 0.2893077429) 493 909 1
(0.1383671846 0.4308164077 0.02098281497 0.4098335928) 398 778 2
(0.7684875809 0.1157562096 0.07148481405 0.04427139551) 497 917 1
(0.2995561536 0.3491758533 0.3502219232 0.001046069895) 433 850 2
(0.2138237766 0.3930881117 0.05753216749 0.3355559442) 582 1084 1
(0.1917643634 0.2929222418 0.1111955765 0.4041178183) 3 2619 1
(0.6441837946 0.1779081027 0.05424910246 0.1236590002) 178 347 2
(0.3112186747 0.3443906626 0.1816955347 0.162695128) 182 353 2
(0.2582566289 0.3589542085 0.01191747701 0.3708716856) 485 893 2
(0.3931997129 0.3034001436 0.1798013277 0.1235988158) 228 388 1
(0.3863457603 0.02156977584 0.3068271198 0.285257344) 215 421 2
(0.6720232567 0.01019694936 0.1639883717 0.1537914223) 195 379 1
(0.1737923277 0.05058945153 0.3625143846 0.4131038361) 182 297 2
(0.7113552106 0.1443223947 0.1353383108 0.008984083849) 308 604 1
(0.1089538126 0.3158440729 0.1296790208 0.4455230937) 454 890 1
(0.7479607833 0.08637753278 0.1260196084 0.03964207557) 586 1148 1
(0.2338650975 0.3830674512 0.3290979922 0.05396945907) 378 683 1
(0.6816621028 0.1506621955 0.1591689486 0.008506753082) 521 1023 2
(0.5623997058 0.1148418084 0.2188001471 0.1039583387) 341 666 1
(0.4281959113 0.2859020443 0.04141976488 0.2444822795) 360 705 2
(0.002134715209 0.4989326424 0.2116475821 0.2872850603) 286 558 2
(0.3263481891 0.3368259054 0.1899794583 0.1468464472) 120 175 1
(0.04389910318 0.1395002047 0.4780504484 0.3385502437) 335 654 1
(0.3660149245 0.09093993997 0.3169925377 0.2260525978) 331 649 2
(0.2728010558 0.3635994721 0.3405178847 0.02308158739) 307 599 2
(0.2092604073 0.237730917 0.1576388794 0.3953697964) 187 365 1
(0.208287528 0.2178892282 0.395856236 0.1779670078) 120 234 2
(0.08166206645 0.4591689668 0.2214905023 0.2376784644) 477 935 2
(0.1656281496 0.4171859252 0.02774420751 0.3894417177) 343 673 1
(0.576044503 0.2119777485 0.06224059773 0.1497371508) 194 379 2
(0.2728311217 0.2015749281 0.3635844392 0.162009511) 552 1081 1
(0.05526565965 0.2013375442 0.2710296259 0.4723671702) 576 1130 1
(0.2011738387 0.3994130806 0.2765038207 0.1229092599) 404 792 2
(0.4381421259 0.01660445548 0.280928937 0.2643244816) 162 314 1
(0.04637093937 0.4768145303 0.06335629109 0.4134582392) 371 728 1
(0.1377745938 0.4311127031 0.2535904773 0.1775222258) 249 487 2
(0.6381201709 0.1705448237 0.0103950908 0.1809399145) 7 12 1
(0.5139031188 0.2430484406 0.01520627632 0.2278421643) 638 1237 2
(0.2107396732 0.2494444934 0.3946301634 0.14518567) 133 257 1
(0.634209205 0.1828953975 0.01677965952 0.166115738) 588 1154 2
(0.5250190754 0.02184685296 0.2374904623 0.2156436094) 192 373 1
(0.1389010637 0.4305494682 0.2275994118 0.2029500564) 544 1065 2
(0.4635281491 0.08157289105 0.2682359254 0.1866630344) 134 259 1
(0.7408018603 0.0329397087 0.09665936115 0.1295990699) 347 622 2
(0.8105398988 0.01839411853 0.0947300506 0.07633593207) 286 558 1
(0.1028263827 0.4485868086 0.2727007104 0.1758860983) 165 323 1
(0.4769901927 0.2615049036 0.249947398 0.01155750565) 312 612 1
(0.1515222995 0.04078368634 0.3834551639 0.4242388502) 585 1090 2
(0.3636165332 0.3181917334 0.1126063962 0.2055853372) 627 1227 2
(0.3877826475 0.03612557056 0.2699831057 0.3061086763) 207 404 1
(0.141444647 0.1252449588 0.4292776765 0.3040327177) 591 1161 2
(0.1103934863 0.1498902648 0.4448032568 0.2949129921) 387 756 1
(0.5103735545 0.05740233661 0.1874108862 0.2448132228) 286 560 1
(0.2431531134 0.3784234433 0.2516655376 0.1267579057) 562 1103 2
(0.5489384009 0.02364030134 0.2018904982 0.2255307995) 252 493 1
(0.4633920083 0.2683039958 0.0324823028 0.235821693) 628 1174 1
(0.01073682934 0.4946315853 0.09866877291 0.3959628124) 213 417 1
(0.7084043158 0.09282178873 0.1457978421 0.05297605337) 295 578 2
(0.07057312685 0.08410344023 0.4647134366 0.3806099963) 270 529 2
(0.5011652062 0.06312118573 0.1862962112 0.2494173969) 455 834 2
(0.6037837527 0.1981081236 0.1702804169 0.02782770671) 371 728 1
(0.5873876135 0.2063061933 0.04178621557 0.1645199777) 335 598 1
(0.1312670853 0.3520838535 0.08228260384 0.4343664574) 642 1202 2
(0.1550936666 0.4224531667 0.3893288956 0.03312427109) 499 980 1
(0.0784904668 0.05252739468 0.4082273719 0.4607547666) 550 1079 1
(0.1633037947 0.4183481027 0.04029135926 0.3780567434) 156 302 2
(0.1547882864 0.4226058568 0.3395946296 0.08301122719) 545 1069 2
(0.4323768648 0.2838115676 0.1095540813 0.1742574863) 128 191 1
(0.4078945622 0.06859487893 0.22745784 0.2960527189) 256 501 1
(0.1636119992 0.04169092394 0.3765030764 0.4181940004) 237 463 1
(0.4591079211 0.2704460394 0.1855305295 0.08491550993) 116 223 2
(0.03542224139 0.4822888793 0.02953928371 0.4527495956) 552 1081 2
(0.8488339757 0.0226501414 0.05293287077 0.07558301217) 407 798 1
(0.4877133387 0.1793752464 0.07676808428 0.2561433307) 381 747 1
(0.7463721172 0.09513429666 0.03167964474 0.1268139414) 258 447 2
(0.5018201243 0.2490899379 0.1738124872 0.07527745064) 428 839 2
(0.5009824353 0.2495087823 0.06815295867 0.1813558237) 433 849 2
(0.2154216828 0.3513885751 0.3922891586 0.04090058353) 322 632 2
(0.5289008632 0.2355495684 0.2196650757 0.01588449266) 198 385 2
(0.1516979355 0.1655902563 0.4241510323 0.2585607759) 283 552 1
(0.1577298154 0.2742109974 0.1469240949 0.4211350923) 356 639 2
(0.1212251821 0.439387409 0.02139961261 0.4179877963) 364 714 1
(0.13249058 0.43375471 0.3340640815 0.09969062854) 283 555 1
(0.03651169175 0.4817441541 0.1703507299 0.3113934242) 305 597 2
(0.5379579716 0.2310210142 0.2135842706 0.01743674361) 287 562 2
(0.2091047923 0.3954476039 0.3452009211 0.05024668271) 77 150 1
(0.4315821522 0.2842089239 0.04121944581 0.2429894781) 149 291 1
(0.1827901614 0.3180490243 0.09055589505 0.4086049193) 420 765 2
(0.6106620485 0.1257367301 0.1946689758 0.06893224564) 71 135 1
(0.05520537332 0.337998279 0.4723973133 0.1343990343) 304 596 2
(0.4431553461 0.2566521585 0.278422327 0.02177016849) 309 603 1
(0.2508765991 0.3745617005 0.099991138 0.2745705625) 560 1097 2
(0.6434346139 0.178282693 0.008323766041 0.169958927) 454 891 1
(0.220013137 0.3899934315 0.3526813498 0.03731208174) 390 764 2
(0.4143661708 0.05031119737 0.2928169146 0.2425057172) 308 601 1
(0.6609205782 0.1695397109 0.1260466035 0.04349310741) 512 1005 1
(0.3620030899 0.009318003457 0.3189984551 0.3096804516) 257 501 1
(0.4909284687 0.2545357656 0.007470690139 0.2470650755) 157 306 2
(0.4791562832 0.2604218584 0.255258917 0.005162941447) 369 724 1
(0.73059894 0.13470053 0.03273264023 0.1019678898) 214 418 2
(0.3013101887 0.3493449056 0.265530752 0.08381415359) 391 764 2
(0.8966017334 0.03266441794 0.01903471535 0.05169913329) 539 1057 1
(0.5230487252 0.09497200939 0.2384756374 0.143503628) 581 1141 2
(0.8338640573 0.04938793207 0.03368003926 0.08306797133) 547 1073 1
(0.2353210083 0.3823394958 0.2510489541 0.1312905418) 473 926 2
(0.8356322081 0.03595730278 0.04622659318 0.08218389597) 392 710 2
(0.1256710177 0.3235782585 0.1135862326 0.4371644911) 503 928 2
(0.2513119899 0.02952620313 0.3448178019 0.3743440051) 154 300 1
(0.2478717789 0.2467321053 0.1293320053 0.3760641106) 403 732 2
(0.2827661343 0.3586169329 0.1103333307 0.2482836022) 290 510 1
(0.853186889 0.07297340941 0.0004331461026 0.07340655552) 74 143 1
(0.259432218 0.06266695414 0.370283891 0.3076169369) 49 92 1
(0.6790941261 0.1604529369 0.0548648313 0.1055881056) 300 588 1
(0.1265811671 0.0554798381 0.4367094164 0.3812295784) 441 866 2
(0.7008618577 0.1495690711 0.1416646067 0.00790446444) 317 619 2
(0.5744369979 0.02501295617 0.2127815011 0.1877685449) 455 890 1
(0.2862372134 0.3568813933 0.1974155817 0.1594658116) 570 1119 1
(0.03934417483 0.4671690885 0.4803279126 0.01315882409) 538 1056 2
(0.450520703 0.2747396485 0.03272287041 0.2420167781) 597 1169 2
(0.2179751256 0.3277407188 0.06327171845 0.3910124372) 620 1217 1
(0.04640710319 0.3128066877 0.1639897607 0.4767964484) 299 585 1
(0.3312641298 0.2491886913 0.3343679351 0.08517924378) 160 310 1
(0.6766784755 0.1616607623 0.1199267837 0.04173397854) 492 965 2
(0.3900971849 0.3049514076 0.1305088994 0.1744425082) 257 501 2
(0.7721839216 0.1139080392 0.04772906598 0.06617897321) 630 1284 1
(0.460347078 0.09747330603 0.172353155 0.269826461) 268 524 1
(0.1040426118 0.4479786941 0.3061492063 0.1418294878) 513 1004 2
(0.5394579139 0.1733480883 0.05692295471 0.2302710431) 476 875 2
(0.128203454 0.4295769382 0.435898273 0.006321334743) 304 596 2
(0.1037357125 0.2583842767 0.1897478671 0.4481321438) 448 820 2
(0.1260540143 0.4369729928 0.1314456255 0.3055273673) 407 798 2
(0.2052287879 0.3831013714 0.397385606 0.0142842346) 605 1185 1
(0.7901091131 0.1049454435 0.004235410417 0.100710033) 422 825 2
(0.003139487829 0.4984302561 0.4486761916 0.04975406453) 576 1128 2
(0.1579590893 0.4210204553 0.07206325474 0.3489572006) 112 219 1
(0.1664976054 0.4167511973 0.2671935093 0.149557688) 305 597 2
(0.1641172785 0.4179413608 0.2977616577 0.1201797031) 143 279 1
(0.193793041 0.216957751 0.1861457285 0.4031034795) 469 862 2
(0.3602800108 0.1824202301 0.1374397645 0.3198599946) 512 946 2
(0.5038610748 0.2480694626 0.1975713104 0.05049815217) 490 961 2
(0.5051672132 0.2474163934 0.04704258202 0.2003738114) 580 1136 2
(0.1704414729 0.4147792636 0.1350494623 0.2797298012) 398 778 2
(0.6752128769 0.05546122488 0.1069323367 0.1623935616) 347 622 2
(0.583580117 0.2082099415 0.02346438918 0.1847455523) 340 608 1
(0.0119192965 0.1137727688 0.4940403517 0.3802675829) 422 828 2
(0.6621359679 0.1138728898 0.168932016 0.05505912623) 336 659 2
(0.04533425338 0.4773328733 0.1041418583 0.373191015) 215 362 1
(0.5743097676 0.09992924046 0.2128451162 0.1129158758) 520 1018 1
(0.06687661866 0.4665616907 0.4021169021 0.0644447886) 43 40 1
(0.5489711626 0.03546481053 0.2255144187 0.1900496082) 412 806 1
(0.7065723796 0.03961088098 0.1467138102 0.1071029292) 550 1077 1
(0.2319141499 0.0057612852 0.3782816398 0.384042925) 268 524 1
(0.1991648572 0.4004175714 0.1189437443 0.2814738271) 460 903 1
(0.6196138659 0.1901930671 0.1826233186 0.007569748432) 452 884 2
(0.2283766955 0.3858116523 0.09763345285 0.2881781994) 357 641 1
(0.2903778267 0.3548110866 0.3492556557 0.005555430945) 456 895 1
(0.08738295943 0.05983485191 0.3964736684 0.4563085203) 302 533 2
(0.5018511591 0.02978046123 0.2490744205 0.2192939592) 496 971 1
(0.7181709283 0.1409145359 0.1067456188 0.03416891704) 356 695 2
(0.5175336653 0.2412331674 0.2375712131 0.00366195427) 288 565 1
(0.8026105724 0.01139676209 0.0872979517 0.09869471378) 419 763 2
(0.6597351237 0.02493605304 0.1451963851 0.1701324381) 590 1100 2
(0.04547723663 0.4772613817 0.1136167606 0.3636446211) 326 639 1
(0.1372662792 0.2858991032 0.1454677572 0.4313668604) 122 179 2
(0.008916360247 0.2929132523 0.4955418199 0.2026285676) 574 1127 2
(0.3016486106 0.3491756947 0.04651403546 0.3026616592) 126 187 1
(0.007777004913 0.2490855075 0.2470259901 0.4961114975) 546 1013 2
(0.7126116498 0.01236516978 0.1436941751 0.1313290053) 505 991 2
(0.1648135556 0.4175932222 0.1847519798 0.2328412424) 205 401 1
(0.51268545 0.243657275 0.2083658948 0.03529138025) 521 1023 1
(0.3123675804 0.0150638904 0.3287523194 0.3438162098) 194 379 1
(0.01357391436 0.2602488803 0.4932130428 0.2329641626) 294 576 2
(0.2940816 0.3529592 0.2274678551 0.1254913449) 397 778 2
(0.129609864 0.435195068 0.3322067722 0.1029882957) 212 356 1
(0.1252587716 0.2634439791 0.173926635 0.4373706142) 456 836 2
(0.03568626416 0.4821568679 0.1091274004 0.3730294675) 614 1203 2
(0.3858256533 0.3070871733 0.08027076542 0.2268164079) 531 1043 1
(0.1346463666 0.106930954 0.4326768167 0.3257458626) 447 877 2
(0.3944121363 0.3027939318 0.125581488 0.1772124438) 286 558 2
(0.4375142512 0.2812428744 0.2400255436 0.04121733086) 97 188 2
(0.06414180552 0.4679290972 0.02914707 0.4387820272) 364 714 1
(0.2403406285 0.3798296857 0.3304343592 0.04939532656) 604 1127 1
(0.4415057495 0.2792471252 0.05025165338 0.2289954719) 223 434 2
(0.06795754834 0.2111178431 0.2549033828 0.4660212258) 107 208 1
(0.1097249102 0.4451375449 0.153335256 0.291802289) 164 320 2
(0.3677294086 0.3161352957 0.1575021758 0.1586331199) 128 250 1
(0.02025102099 0.1466486623 0.3432258272 0.4898744895) 298 583 1
(0.4083918386 0.2958040807 0.02831033265 0.2674937481) 490 959 2
(0.490451824 0.06630114482 0.1884729432 0.254774088) 430 785 2
(0.1599450627 0.4200274687 0.4104636097 0.009563859006) 68 131 2
(0.1587507419 0.420624629 0.3499393541 0.07068527491) 74 143 2
(0.3793045422 0.3103477289 0.03595535145 0.2743923775) 405 795 1
(0.2736363552 0.3102141337 0.05296768869 0.3631818224) 48 50 2
(0.4623221347 0.2688389327 0.1576464699 0.1111924628) 214 360 1
(0.7778319865 0.1110840068 0.01361955165 0.09746445512) 527 1032 2
(0.7221464909 0.04628335665 0.1389267545 0.09264339788) 108 208 1
(0.5568625324 0.2215687338 0.2075006741 0.01406805974) 201 394 1
(0.250374532 0.1655830068 0.2092297272 0.374812734) 373 731 1
(0.08343820753 0.4582808962 0.1311751473 0.3271057489) 634 1233 2
(0.3389951694 0.3305024153 0.03004616725 0.300456248) 395 716 1
(0.01374507873 0.2813418739 0.4931274606 0.2117855867) 24 46 2
(0.2392051966 0.3803974017 0.3195630091 0.06083439264) 358 643 1
(0.2425237068 0.1443266512 0.2344114954 0.3787381466) 372 671 2
(0.3336409458 0.3331795271 0.06079552077 0.2723840063) 556 1092 1
(0.1487080013 0.2256836391 0.4256459994 0.1999623603) 168 329 2
(0.2811937577 0.3594031211 0.09758041067 0.2618227105) 453 888 2
(0.118998777 0.07302956451 0.367471047 0.4405006115) 514 950 2
(0.26139034 0.07121014132 0.2980946887 0.36930483) 308 545 2
(0.347597796 0.2588237009 0.326201102 0.06737740111) 155 303 2
(0.644874915 0.1208299528 0.05673258967 0.1775625425) 346 620 2
(0.3162800218 0.3418599891 0.146329834 0.1955301551) 255 497 2
(0.6166472663 0.1916763668 0.04518789099 0.1464884759) 437 799 1
(0.4361694837 0.2819152582 0.1890718189 0.09284343928) 222 432 2
(0.2813790062 0.3593104969 0.2430475211 0.1162629757) 159 310 2
(0.3168447164 0.3415776418 0.339396479 0.002181162818) 338 604 1
(0.7775020665 0.07365902125 0.1112489667 0.0375899455) 190 372 2
(0.7496823972 0.1251588014 0.06773790391 0.05742089749) 373 729 2
(0.06809128407 0.3606180747 0.465954358 0.1053362832) 279 544 1
(0.1956067687 0.3312322716 0.07096434402 0.4021966157) 221 374 2
(0.08198430846 0.313915457 0.4590078458 0.1450923888) 503 987 2
(0.1601329383 0.4199335309 0.2328089313 0.1871245996) 218 427 1
(0.496116555 0.2519417225 0.1662201289 0.08572159359) 309 547 1
(0.9556899132 0.01622944269 0.02215504338 0.00592560069) 282 553 2
(0.3854919596 0.3072540202 0.01510308503 0.2921509352) 21 39 2
(0.3997244193 0.3001377904 0.1966820782 0.1034557121) 435 795 1
(0.184138875 0.4079305625 0.3464936359 0.06143692664) 615 1208 1
(0.7118961921 0.144051904 0.09137321071 0.05267869326) 442 865 2
(0.80565256 0.09717372002 0.02035815005 0.07681556997) 490 961 2
(0.1060673574 0.4469663213 0.01076078258 0.4362055387) 609 1195 2
(0.3678316963 0.3160841518 0.2319534217 0.08413073014) 575 1070 1
(0.4933490701 0.253325465 0.0930170167 0.1603084483) 605 1188 1
(0.1155191642 0.08955297737 0.4422404179 0.3526874406) 611 1197 1
(0.07332120659 0.3518040862 0.1115353105 0.4633393967) 75 145 1
(0.09600536926 0.4366242621 0.01537305326 0.4519973154) 177 345 1
(0.1325549946 0.4337225027 0.3111979675 0.1225245352) 25 45 2
(0.5291192005 0.2354403997 0.1015600779 0.1338803218) 495 972 1
(0.1224304449 0.02833442156 0.4387847776 0.410450356) 609 1193 1
(0.2561529498 0.3719235251 0.3598578277 0.01206569735) 354 694 1
(0.1318420619 0.4340789691 0.3378659551 0.09621301393) 133 260 1
(0.2463646428 0.3768176786 0.3153023231 0.06151535556) 269 468 1
(0.3664430969 0.2344139856 0.08236446593 0.3167784516) 384 752 1
(0.1000041843 0.2428241891 0.4499979078 0.2071737187) 164 318 1
(0.5497854001 0.2028061716 0.2251073 0.02230112836) 60 113 1
(0.2150224112 0.3617820015 0.3924887944 0.03070679289) 434 849 1
(0.2415624679 0.3792187661 0.1205815626 0.2586372035) 393 771 1
(0.04363854709 0.4781807265 0.4131075088 0.06507321769) 192 375 2
(0.2335685666 0.3832157167 0.2387715471 0.1444441697) 540 1001 1
(0.8167946819 0.09160265906 0.08006596418 0.01153669488) 463 909 1
(0.3284549147 0.3357725426 0.06255382805 0.2732187146) 247 484 1
(0.3244289718 0.2394337093 0.3377855141 0.09835180473) 206 403 2
(0.1728210808 0.4135894596 0.1384477031 0.2751417565) 364 713 2
(0.4012012432 0.2993993784 0.05557950338 0.243819875) 163 319 1
(0.01804284199 0.107682775 0.490978579 0.383295804) 21 37 1
(0.5901664283 0.2049167858 0.1322483754 0.07266841042) 98 188 2
(0.3199275257 0.01751036068 0.3400362372 0.3225258765) 556 1092 2
(0.2024639716 0.3987680142 0.2768939003 0.1218741139) 218 368 1
(0.3658021296 0.1469115884 0.1701873469 0.3170989352) 377 739 1
(0.3992326543 0.2333062574 0.06707741546 0.3003836729) 185 303 2
(0.2789394667 0.326314394 0.3605302666 0.03421587263) 544 1068 2
(0.6709443576 0.1645278212 0.04054492041 0.1239829008) 46 88 2
(0.2963725569 0.1510225115 0.3518137216 0.2007912101) 462 907 2
(0.05009640398 0.474951798 0.02032553864 0.4546262594) 95 182 2
(0.3752538064 0.07812452521 0.3123730968 0.2342485716) 423 827 1
(0.2919860015 0.3053793609 0.3540069993 0.04862763837) 179 347 1
(0.3868370153 0.2878881696 0.3065814923 0.01869332274) 164 321 2
(0.7369852516 0.1315073742 0.1109552184 0.02055215581) 525 1028 2
(0.1632567114 0.4183716443 0.3722501368 0.04612150754) 8 12 2
(0.1760571284 0.4119714358 0.3901192525 0.02185218327) 160 312 2
(0.6883252774 0.1236795397 0.1558373613 0.03215782163) 193 375 1
(0.0295551322 0.4852224339 0.3759016396 0.1093207943) 283 554 2
(0.7147400591 0.1366073187 0.1426299705 0.006022651729) 107 209 2
(0.4002922876 0.2998538562 0.003725245827 0.2961286104) 203 1262 2
(0.8004603039 0.09976984805 0.01473551952 0.08503432853) 244 475 2
(0.2668150983 0.2839084205 0.3665924509 0.08268403037) 249 485 1
(0.2875181223 0.3562409388 0.1126348712 0.2436060676) 581 1138 2
(0.2061731773 0.3969134114 0.1765035118 0.2204098995) 293 515 1
(0.1005488869 0.4497255565 0.1555802141 0.2941453425) 434 793 1
(0.3562521326 0.3218739337 0.1918266569 0.1300472768) 278 545 1
(0.2735733479 0.363213326 0.2786126935 0.08460063255) 358 702 1
(0.6242168463 0.1878915769 0.06572381935 0.1221677575) 472 926 2
(0.1043978962 0.4478010519 0.3337778017 0.1140232502) 336 600 1
(0.1165539849 0.09962104899 0.4417230076 0.3421019586) 342 671 2
(0.1249550604 0.2008455113 0.4375224698 0.2366769585) 159 311 2
(0.935211525 0.03239423752 0.01455501392 0.0178392236) 364 713 2
(0.6108660464 0.1945669768 0.09727488833 0.09729208845) 273 476 1
(0.5864786933 0.05815089453 0.2067606534 0.1486097588) 534 1048 2
(0.7574772739 0.1212613631 0.03598633758 0.08527502548) 577 1132 2
(0.6200114142 0.1899942929 0.1668555371 0.02313875582) 239 465 2
(0.1998814971 0.08165360248 0.318405649 0.4000592515) 545 1011 2
(0.6819740627 0.1590129687 0.004689243864 0.1543237248) 306 597 2
(0.3172985303 0.1492065534 0.1921441814 0.3413507348) 395 774 1
(0.4630584646 0.2684707677 0.116116227 0.1523545407) 601 1121 1
(0.2481507182 0.3759246409 0.2081102074 0.1678144335) 126 187 1
(0.2636835814 0.2579808146 0.1101773947 0.3681582093) 569 1058 2
(0.009094523001 0.4954527385 0.2744230744 0.2210296641) 556 1089 2
(0.4538191196 0.2730904402 0.2043345738 0.06875586645) 515 1011 1
(0.3550699954 0.3224650023 0.03562068806 0.2868443142) 468 916 2
(0.258578129 0.3652093325 0.3707109355 0.005501603009) 439 862 2
(0.3200274965 0.3399862517 0.1544136561 0.1855725957) 551 1079 2
(0.4998498846 0.2500750577 0.2395169954 0.01055806232) 648 1248 2
(0.3783228212 0.2932909411 0.0175476483 0.3108385894) 262 513 1
(0.4734414827 0.2632792586 0.1593849902 0.1038942684) 396 776 2
(0.1807665553 0.4096167224 0.02663076527 0.3829859571) 302 592 1
(0.2120489302 0.05490984783 0.3390656871 0.3939755349) 218 426 1
(0.05057514284 0.4420398253 0.03267260332 0.4747124286) 369 723 1
(0.3174431407 0.3412784297 0.1541193176 0.1871591121) 334 654 2
(0.005803314496 0.4970983428 0.4291208402 0.06797750253) 227 445 1
(0.03814476491 0.4809276175 0.06118110411 0.4197465134) 422 769 1
(0.1930621573 0.4034689214 0.2511259838 0.1523429376) 345 677 1
(0.1477541351 0.4261229324 0.4082213618 0.01790157062) 521 1023 1
(0.09053360187 0.4547331991 0.3371922537 0.1175409454) 401 787 1
(0.3636617586 0.1952091557 0.122959965 0.3181691207) 340 666 1
(0.1614222247 0.07773744367 0.341551444 0.4192888877) 317 621 1
(0.1196464152 0.4401767924 0.2754761817 0.1647006107) 107 206 2
(0.4141350069 0.09317059905 0.2929324965 0.1997618975) 280 546 1
(0.4514106021 0.2742946989 0.1300848592 0.1442098397) 244 475 2
(0.3414127211 0.3292936395 0.1344741075 0.194819532) 274 478 1
(0.143850143 0.4280749285 0.4195888932 0.008486035282) 308 604 1
(0.1946775475 0.4026612262 0.3237142718 0.0789469544) 561 1099 2
(0.201755509 0.3991222455 0.1164161494 0.282706096) 93 178 2
(0.4424875126 0.1323188505 0.2787562437 0.1464373932) 457 894 1
(0.2043596622 0.3978201689 0.2260766589 0.17174351) 1 1 2
(0.09427127591 0.1227327748 0.3301315872 0.452864362) 87 168 1
(0.03453079682 0.2136368739 0.4827346016 0.2690977277) 302 589 1
(0.4728852907 0.1561811824 0.1073761723 0.2635573546) 101 138 2
(0.8645549156 0.06772254219 0.008375334905 0.05934720729) 461 904 2
(0.8563857638 0.06312919904 0.008677919058 0.0718071181) 358 643 2
(0.4885277096 0.2557361452 0.1662260616 0.08951008363) 553 1085 2
(0.6372412102 0.1505638479 0.03081554695 0.1813793949) 524 1028 1
(0.2923151412 0.3538424294 0.1730021144 0.180840315) 359 701 2
(0.1055088325 0.3919969328 0.4472455838 0.05524865101) 114 2653 2
(0.2218792785 0.05907213279 0.3890603608 0.329988228) 394 773 2
(0.02022989688 0.4898850516 0.1034394769 0.3864455746) 543 1063 2
(0.02307674155 0.1122261255 0.3762355037 0.4884616292) 433 849 1
(0.8078685495 0.09606572527 0.02334486623 0.07272085904) 344 674 2
(0.5433232172 0.1549853266 0.07335306487 0.2283383914) 151 294 1
(0.2873789105 0.08504041427 0.3563105447 0.2712701305) 509 996 1
(0.4144565231 0.2927717384 0.1513984455 0.141373293) 244 477 2
(0.1799985351 0.1344258239 0.2755749086 0.4100007325) 280 490 2
(0.6030547262 0.006536953068 0.1984726369 0.1919356838) 591 1161 2
(0.2796296641 0.360185168 0.2329613416 0.1272238263) 249 487 2
(0.2751019211 0.3624490395 0.07348872124 0.2889603182) 512 1002 2
(0.7826241859 0.1086879071 0.05831298707 0.05037491998) 544 1068 1
(0.2828207717 0.3585896142 0.05241166699 0.3061779472) 140 215 1
(0.7781510246 0.1109244877 0.04648356363 0.06444092407) 205 400 2
(0.0007667776419 0.2902015728 0.4996166112 0.2094150384) 390 765 2
(0.124693133 0.4376534335 0.3245367274 0.1131167061) 366 715 2
(0.6806246879 0.06925941742 0.09042823861 0.159687656) 428 839 1
(0.4318093937 0.2262645345 0.05783076865 0.2840953031) 274 536 1
(0.09542709817 0.4522864509 0.1656204088 0.2866660422) 81 155 2
(0.3732579691 0.3133710154 0.04026188014 0.2731091353) 338 662 2
(0.7404970258 0.1103533547 0.01939813237 0.1297514871) 431 845 1
(0.3757899244 0.3121050378 0.2388442582 0.07326077962) 119 231 2
(0.2726368826 0.04540339224 0.3182781665 0.3636815587) 480 941 1
(0.2342007516 0.3828996242 0.2489136435 0.1339859807) 417 759 1
(0.6834605941 0.1261080879 0.03216161508 0.158269703) 282 552 1
(0.03395968616 0.4830201569 0.264076671 0.2189434859) 569 1114 2
(0.02644928215 0.226009979 0.2607653799 0.4867753589) 295 519 2
(0.07751940887 0.4612402956 0.3076055897 0.1536347059) 224 380 1
(0.213150933 0.3934245335 0.3073761528 0.08604838066) 166 266 1
(0.6014168171 0.1992915915 0.1976052424 0.001686349076) 504 2666 1
(0.5853460514 0.2073269743 0.1958101729 0.01151680134) 258 447 1
(0.05042884214 0.291207624 0.4747855789 0.183577955) 333 650 1
(0.1503511811 0.4248244095 0.08850492185 0.3363194876) 219 428 2
(0.2310577244 0.3844711378 0.07338194495 0.3110891928) 614 1147 1
(0.3106253193 0.3446873404 0.2377457827 0.1069415577) 399 724 1
(0.419227286 0.290386357 0.1676240519 0.1227623051) 651 1305 1
(0.06859197163 0.4657040142 0.4298686277 0.03583538654) 368 721 2
(0.6726994723 0.1636502639 0.1267008194 0.03694944441) 145 282 2
(0.09481411141 0.1178054369 0.4525929443 0.3347875074) 284 554 1
(0.4824884397 0.1232031456 0.2587557801 0.1355526345) 313 611 1
(0.5844004688 0.2077997656 0.1011004042 0.1066993613) 202 396 1
(0.8139991579 0.02909116484 0.09300042106 0.06390925621) 128 250 2
(0.05944572811 0.4702771359 0.2394500733 0.2308270626) 512 1002 2
(0.4079093441 0.1336993751 0.296045328 0.1623459528) 210 408 1
(0.2719396452 0.3201641783 0.0438659991 0.3640301774) 404 792 1
(0.1587357764 0.39087921 0.4206321118 0.02975290182) 497 976 2
(0.7477814775 0.1261092613 0.08526034483 0.04084891645) 423 830 1
(0.4485744977 0.1897015705 0.0860111807 0.2757127512) 546 1013 2
(0.1815866725 0.3706714776 0.0385351862 0.4092066638) 187 365 1
(0.4718970783 0.2640514608 0.01139185208 0.2526596088) 562 1103 2
(0.6059132123 0.08311656429 0.1970433939 0.1139268296) 160 313 2
(0.2814176299 0.3592911851 0.2121317987 0.1471593864) 194 379 2
(0.3737445874 0.3131277063 0.2736517163 0.03947598998) 267 522 2
(0.3299526165 0.2744698953 0.3350236917 0.06055379643) 364 714 2
(0.6164985975 0.1301454631 0.06160523814 0.1917507012) 34 64 1
(0.7140362534 0.1429818733 0.03580428467 0.1071775887) 256 499 2
(0.07577544686 0.4621122766 0.3055259673 0.1565863093) 551 1079 2
(0.181803456 0.2428519116 0.409098272 0.1662463604) 467 917 2
(0.6079234924 0.06603673957 0.1300015142 0.1960382538) 133 201 2
(0.2776622581 0.3611688709 0.1806458486 0.1805230223) 396 718 1
(0.1910458706 0.2324871988 0.4044770647 0.171989866) 182 353 1
(0.2794450886 0.07947675046 0.3602774557 0.2808007052) 58 109 1
(0.2877595486 0.3561202257 0.1595138115 0.1966064142) 473 1271 2
(0.4275653808 0.2862173096 0.1464750916 0.139742218) 333 653 1
(0.5820110224 0.2060685411 0.002925947732 0.2089944888) 431 845 1
(0.06927451326 0.07779783695 0.3875649064 0.4653627434) 541 1003 2
(0.08537151905 0.006658693366 0.4506555471 0.4573142405) 296 521 2
(0.2095005584 0.2029499255 0.3952497208 0.1922997953) 227 445 2
(0.590236325 0.2048818375 0.1412046826 0.06367715489) 157 248 1
(0.3648193017 0.3175903492 0.1240398113 0.1935505379) 99 134 1
(0.6985361086 0.1507319457 0.1037383683 0.04699357739) 83 161 1
(0.4813468024 0.03998428261 0.2193423162 0.2593265988) 129 251 1
(0.09913338658 0.4504333067 0.3045365539 0.1458967528) 648 1247 2
(0.5670361334 0.1729728016 0.2164819333 0.04350913168) 609 1193 1
(0.1959692765 0.1452908907 0.2567244711 0.4020153617) 390 764 1
(0.2239176925 0.3305152684 0.3880411537 0.05752588532) 532 1042 1
(0.2152133289 0.3923933356 0.3154822466 0.07691108895) 226 443 1
(0.03387903839 0.1146661867 0.3683942941 0.4830604808) 238 465 1
(0.03098256882 0.4845087156 0.2450963676 0.239412348) 106 148 1
(0.3192440388 0.3403779806 0.1703984866 0.169979494) 116 225 2
(0.063687737 0.1819172437 0.4681561315 0.2862388878) 10 16 1
(0.006084894501 0.4969575527 0.3551470712 0.1418104815) 19 36 1
(0.4834950709 0.2256240918 0.0326283728 0.2582524646) 357 699 1
(0.7836426595 0.1081786703 0.03186818493 0.07631048533) 423 771 1
(0.1271262111 0.4364368945 0.01544344072 0.4209934538) 606 1131 1
(0.7196395294 0.1401802353 0.04108916349 0.09909107183) 332 592 1
(0.03150244752 0.2392584799 0.4842487762 0.2449902963) 367 720 2
(0.1132477439 0.4433761281 0.1146872531 0.3286888749) 257 504 1
(0.5679871535 0.1471708387 0.2160064233 0.06883558456) 316 617 1