/*--------------------------------*- C++ -*----------------------------------*\
  =========                 |
  \\      /  F ield         | OpenFOAM: The Open Source CFD Toolbox
   \\    /   O peration     | Website:  https://openfoam.org
    \\  /    A nd           | Version:  7
     \\/     M anipulation  |
\*---------------------------------------------------------------------------*/
FoamFile
{
    version     2.0;
    format      ascii;
    class       volScalarField;
    location    "0.00324/particle";
    object      dsmcRhoN;
}
// * * * * * * * * * * * * * * * * * * * * * * * * * * * * * * * * * * * * * //

dimensions      [0 -3 0 0 0 0 0];

internalField   nonuniform List<scalar> 
600
(
211
206
228
242
211
216
233
239
231
223
208
204
221
228
227
197
241
265
233
232
250
209
214
222
215
210
206
205
236
226
220
210
196
242
244
235
250
227
203
221
220
218
241
192
232
230
230
204
211
231
217
250
216
232
225
216
219
224
238
218
210
229
213
239
220
201
231
213
212
204
238
190
247
241
242
209
242
224
195
240
258
221
242
232
213
211
234
230
233
229
221
209
224
240
233
213
212
198
238
196
210
229
213
221
230
232
233
198
219
216
204
218
239
212
203
234
220
203
217
232
239
221
201
215
222
214
183
159
202
216
207
207
203
206
193
174
201
216
198
225
175
201
168
191
183
179
181
184
201
177
166
171
194
202
172
174
185
159
184
191
173
161
201
163
175
182
166
190
145
181
168
178
187
163
159
161
184
162
153
144
189
165
166
149
158
156
165
172
164
150
150
166
147
150
154
160
164
142
157
141
157
139
159
159
143
136
143
153
152
142
165
124
143
153
165
152
136
110
140
131
147
135
129
129
138
137
133
152
121
118
139
148
130
123
128
148
125
113
141
116
113
137
120
109
132
111
125
118
117
117
127
99
121
107
124
119
126
134
130
117
126
124
135
109
121
116
119
114
101
103
144
105
108
106
105
106
108
97
109
100
101
117
116
95
124
131
121
98
122
107
108
126
101
115
122
110
109
115
105
114
124
133
118
112
103
124
116
102
113
107
120
116
108
125
104
115
113
111
115
122
114
114
116
116
106
143
120
120
112
107
110
115
128
119
122
95
108
117
103
131
96
116
95
129
102
126
102
115
108
113
110
110
114
118
118
124
111
108
112
109
113
113
106
116
123
104
133
109
117
96
119
105
108
97
112
118
118
110
104
120
118
108
116
97
131
123
131
97
106
106
119
127
98
113
104
109
108
119
127
99
112
107
119
102
103
131
115
119
122
111
123
113
128
107
115
120
129
120
124
139
108
135
130
119
111
124
106
145
133
124
151
163
132
161
158
166
167
146
148
140
151
166
159
152
168
182
163
168
136
162
162
161
161
165
159
162
161
153
153
151
164
157
169
159
183
149
176
168
171
162
164
194
162
160
177
154
173
146
165
136
149
179
173
165
148
167
148
198
160
159
162
178
163
180
168
188
153
159
164
175
187
177
158
144
168
162
193
153
152
130
155
148
163
152
148
119
96
58
91
72
68
66
67
69
71
85
50
81
49
74
62
57
51
62
64
75
56
72
63
66
64
78
74
79
70
64
82
66
62
71
80
55
84
57
66
69
61
74
68
76
72
67
67
61
62
70
53
59
68
55
64
67
69
73
65
67
55
76
55
53
60
69
69
72
76
74
77
65
62
61
72
68
67
75
59
66
62
78
60
71
)
;

boundaryField
{
    DSMCSide
    {
        type            symmetry;
    }
    DSMCBound
    {
        type            symmetry;
    }
    nullDims
    {
        type            empty;
    }
}


// ************************************************************************* //
