/*--------------------------------*- C++ -*----------------------------------*\
  =========                 |
  \\      /  F ield         | OpenFOAM: The Open Source CFD Toolbox
   \\    /   O peration     | Website:  https://openfoam.org
    \\  /    A nd           | Version:  7
     \\/     M anipulation  |
\*---------------------------------------------------------------------------*/
FoamFile
{
    version     2.0;
    format      ascii;
    class       volScalarField;
    location    "0.00324/particle";
    object      internalE;
}
// * * * * * * * * * * * * * * * * * * * * * * * * * * * * * * * * * * * * * //

dimensions      [1 -1 -2 0 0 0 0];

internalField   nonuniform List<scalar> 
600
(
115.32864600435
103.192233389497
111.175035940706
116.943337063151
112.361256273585
90.6012681632126
116.870194994515
119.163140371638
105.376006567082
106.140888510027
102.471803635221
104.400418730592
109.920366651666
114.332990201335
107.458738846828
91.1123525324408
116.143335610338
135.403803267474
114.300278001742
117.208425071544
114.668321151473
102.665606464683
106.707804440372
116.615626810033
116.439526782628
93.9255935006751
112.692348370508
112.279519087996
111.210570936865
114.004407870531
119.370426484845
105.631186820077
95.5360155149365
109.732713281727
125.881996960672
123.505072048732
132.358630664355
118.424027722179
103.448948571053
102.784601060248
95.1300870335948
110.405284512183
106.448210649192
96.3270708712292
120.385536102672
120.256894810938
119.111129975257
89.7993469440566
97.8377862210645
119.160858020032
95.6201314813476
118.511989620576
92.4903701772919
111.036138887395
103.357672357489
107.140923252137
110.188033665391
128.792301104082
122.9625347519
92.5685666045063
106.592687582023
104.690202169133
107.486600036354
120.727881525087
109.242787339799
96.5672138483599
106.812686051842
110.46072499455
110.252483698927
96.6064175390583
104.136843668638
91.7352622329753
129.322589064472
132.955982186274
114.535380271838
110.941179363779
102.936850243489
101.71408586207
99.0623508555717
125.701873348717
134.934593758644
105.858574529239
115.109023857302
103.029204052233
99.3184656497862
106.211029873582
102.776148529938
113.818847891358
110.528197734024
107.333204046498
113.004579514654
95.2434772749948
112.837226550608
125.822470259861
119.99912434992
97.6330034983387
96.1371465469579
103.661788573916
106.812895639611
97.5952214238934
101.952664413345
101.581206979926
111.279795500826
100.299565597526
124.679462568149
113.344509887208
116.538097853689
89.4688016110338
109.365050984844
102.972829698853
106.576390149382
107.970107012007
118.775003572728
109.244035167338
100.064643598708
112.372497915796
115.239478178699
94.1197953245357
95.7814687167457
111.718446396114
112.20117446736
104.398553135807
94.3538169365381
102.381571431425
94.6340553740942
108.479849658511
86.4512490422772
81.6635019343335
89.9029179331855
108.312520901646
107.152579831271
96.3140762771154
94.8325753518309
93.6107944206967
91.3002645941752
78.6894538113618
97.5223441426049
108.95798952413
95.0316295965289
106.489984562697
85.0066808979048
84.8333656094947
79.5813989173766
86.6782747044096
65.4400908098445
90.326190138524
86.8702502756898
89.6628683488224
97.1145308340777
77.7832395187267
66.0802585037242
75.7049385893904
85.6998828952746
85.413203939302
75.7384468867652
72.5313582957976
101.156533655003
74.7370554614387
86.939309217881
95.3332627101121
75.6279348466877
77.6437911649441
92.6623212424079
80.1974841985695
75.7423886709012
94.2047053763312
67.7604374047834
80.5852774795425
62.4567899473252
79.1757715514643
70.0840973716414
83.4140080787487
83.085174780674
68.3747574788065
70.995921291397
63.5537619639296
90.6272109033983
60.207293801037
74.5763588271777
67.1217426594245
86.2672903991233
67.4376224544667
64.0195417097189
69.7483979930543
60.1772472723409
71.0823766654422
71.8394665745009
75.6892022041417
69.4288500489039
73.3304020723212
65.238638940776
67.0800519264092
63.6244422091121
69.529361082877
67.1685887304825
66.0669510231821
74.9482766443802
56.890407024119
60.197222801702
58.1391852801715
62.6253175726878
62.9548325762573
62.5732771924466
59.7825612930634
55.6012473461696
58.6197766039379
54.8869620673743
61.6021094057228
62.0723347924954
55.763561027499
60.9347798697824
54.925106902716
58.319764134131
56.567964097029
66.3856046501291
60.3136957611597
66.0799605714705
43.4109644074037
60.5224048967491
49.8544906060567
58.1341833837369
45.6465492029649
44.2869101269002
56.0036123024616
57.5051959222328
54.561239765491
60.1764360738666
65.5660256326827
52.5154794535934
49.5548729740197
53.8052043484946
59.0106495453648
46.3523845251501
52.0576216569237
51.0625546528
57.2431472773004
46.8310752713722
47.8008804880618
58.3186176521733
53.6324068537811
37.949584971209
46.10538956915
60.6125122234099
42.2962621824002
55.2967306727653
38.0429539817011
48.1968918368641
40.3433596145402
48.5523713583687
46.8833216721639
49.2525342128585
34.1764684026109
43.1507232827963
42.9090211137649
46.8874907492901
46.6050345378284
52.255476986583
52.120446885592
48.4073995116822
43.3564543241948
44.4119488929587
43.7537698385784
48.8435012477382
41.1075038728604
54.7857230658331
43.488027466119
35.7005115782411
47.6548136787592
39.6335894498646
41.8581546593229
57.5904061081319
43.6597750384449
39.6202970034559
33.118476336253
40.3174565487233
37.3825044685774
34.0015130738805
35.6675868539599
44.3297415419219
38.3258995221189
43.0835764918936
41.3873516978194
41.4868274106133
33.1520139265859
45.5824843093214
48.2523369570156
46.046593136028
34.5660095929955
39.9446260177099
47.9066729946688
42.3521440664062
52.0232142638073
33.8471205051926
43.7497428374192
49.5431996597091
45.9315287180599
38.4501116423345
40.6371731897847
46.2278046717469
40.3666544429096
51.5168120835976
45.6027741904151
41.4581029538091
34.9141004023167
32.732828915403
41.4756364292426
45.8577143407347
42.7277783814949
42.7586497266865
41.1376308036535
41.422084099841
43.8527845722241
39.2331484789772
42.5341362489539
36.1287868133395
38.051172944658
44.6195904691707
45.8393441457263
51.6898735338617
44.3930810535679
38.5897137042107
45.2373485123355
45.4993039708675
42.4382807855343
40.5034378573819
55.9677367531112
38.4267858726139
47.2318386848301
41.2095113955201
37.2158707961369
37.3824236939086
43.8974688505687
45.6428366320511
45.6423900882743
43.8558229243206
34.0662542401276
35.799765086774
41.0078369420865
41.1526482854913
51.5948851763209
42.5302362235408
45.2155968018945
33.6142435265077
55.4538958525326
28.1470134797715
43.2502939640185
42.8573251302417
46.8644762098724
40.6303469971443
44.8249535978182
42.1822955247837
39.069585514843
49.059553126435
45.3513650603452
37.7674804613858
51.6560921864198
38.4772422996641
37.1012358027097
40.5861304454411
40.045754937872
42.9656065565415
44.1806549452664
38.1556393375565
41.79018516416
44.2723143692275
36.5039303965743
46.306119059541
40.5907058201131
38.077988491606
37.5210865723529
40.357905674183
43.6883851998811
40.013741805116
34.9257284150289
40.3922199041596
47.7699207244902
52.5368210543142
42.8436977147473
41.2867189138141
43.8398097073821
42.1198631074706
44.7586638260737
38.0766229186841
38.1087690297577
50.1248190068948
52.5325921580297
48.9473597235707
26.5155777667473
42.1278651675079
45.2135194489885
45.5934735724871
47.6914832627025
34.0571820329972
44.9702663148976
43.5428337087922
42.7993638330804
38.094852230313
49.1553164406194
45.8186900063352
32.7390967756607
34.5749247393408
38.5840786052193
46.3626182453741
39.6590896155183
38.5120685801113
47.3344486766419
46.1380460447861
42.1753648976612
49.3195870411077
38.0448822219028
54.0695756949281
39.5777213703013
50.4625976091077
37.1207471160535
43.3650788224838
41.91251902084
43.8992511423755
49.210440173166
49.4520379442958
50.2313622522167
41.9159321392058
44.7184315105056
41.4249704627922
42.1354085215233
37.1937063393867
31.7787940619087
31.658689955333
43.8965602924355
36.3553057772912
40.4651881671899
52.4175609334439
51.7535486931897
38.6524749075125
54.9867473761249
49.8935018500099
45.6443381009901
45.0213629569391
40.3880382295307
38.13624442133
36.3676353620118
37.3135358484484
41.5197190165984
39.4762174153402
44.6467708176667
47.856518175461
49.9669847791469
43.4028959021044
39.112321583135
30.7923101950152
44.027197608742
49.1587163622936
41.6317223330386
42.741562704957
46.2768088059701
45.1459028404854
42.0331842174528
39.7398832758782
44.2989049815444
36.5982737887225
37.9827648442694
42.4045666292509
37.7730179025612
45.0527682427157
35.0935163346719
52.767672715899
33.3624751591356
42.7039146032953
43.2370133603595
43.1850751345034
43.1578952105645
45.1502479743823
51.4326576454954
38.4915064213875
41.6050154639767
50.2368877507619
41.3008539108237
49.01506965015
30.8235632591798
42.1083096457389
34.9651124763881
41.7444768392421
47.8652245549201
38.7350664319798
40.8756269538257
36.5303465344708
44.9688271161664
36.8069013045042
47.5549944392271
43.2268454668246
48.5981300027912
44.9373858156468
46.2884896926032
41.8571838461056
43.4050898425666
45.1527817326424
45.9439611633522
40.5638873821949
39.2101509800115
48.3054189568493
50.0022384483194
51.1351711718861
51.7551582304379
46.4212968922981
34.6063189167523
44.6589891332699
46.6096470583996
48.1869089119754
50.6415429410015
41.1776565131014
34.1387689055023
34.7166273592957
36.9998554839561
45.3397267699888
40.6216884759627
39.9814818123678
23.8608883241312
15.8682430459225
8.38971964285446
15.4760516303545
12.3094719846509
11.0899320295961
9.70698134516832
12.4911967872514
9.81982548140831
10.7133383740922
15.1964711251097
7.15398074758699
13.6778016299151
10.3452524662486
14.3018917435665
8.06618111250102
8.48216019200441
8.61588295097761
9.27511625452188
12.2414305622036
12.8586144840434
8.45132245972284
10.8411228075757
10.3321075778571
12.4292309947075
11.4212201195994
16.427405242059
12.0183498868766
11.0489565423024
8.85066647167023
11.8574023626882
13.5708233210731
13.539734650657
10.2535105328385
12.6326715490826
14.0668644282241
9.99412060954511
12.6164795414006
8.72495480759255
10.6313820453283
9.4931528868766
10.0464374413377
9.18582669455062
11.77844412016
13.5337922792151
11.8920530683243
13.0801985747331
10.5660878561198
9.14609008668972
12.1613363344069
12.6077625285394
8.55906920655306
10.5488928799249
12.593039374735
8.35681750852489
10.4922532696553
10.9413230221405
10.2593863175186
9.47047457923569
9.27523167084302
13.3077463265994
7.73441792959306
12.6663084196063
9.09986271369998
8.91077637880685
8.91486666826268
11.801142499904
14.1394789662879
11.1018744724302
11.5694331595799
12.9969268921472
11.4289486450033
11.3918585803198
9.7735449207562
12.4336044263596
11.9399927928506
9.89649602333499
13.091090697898
11.9854716082524
11.7774047264372
11.580370935132
9.61821605562243
10.7703311604869
9.90020946345026
10.3038413587823
)
;

boundaryField
{
    DSMCSide
    {
        type            symmetry;
    }
    DSMCBound
    {
        type            symmetry;
    }
    nullDims
    {
        type            empty;
    }
}


// ************************************************************************* //
