/*--------------------------------*- C++ -*----------------------------------*\
  =========                 |
  \\      /  F ield         | OpenFOAM: The Open Source CFD Toolbox
   \\    /   O peration     | Website:  https://openfoam.org
    \\  /    A nd           | Version:  7
     \\/     M anipulation  |
\*---------------------------------------------------------------------------*/
FoamFile
{
    version     2.0;
    format      ascii;
    class       volScalarField;
    location    "0.00324/particle";
    object      linearKE;
}
// * * * * * * * * * * * * * * * * * * * * * * * * * * * * * * * * * * * * * //

dimensions      [1 -1 -2 0 0 0 0];

internalField   nonuniform List<scalar> 
600
(
141.335353044651
160.467743469497
183.371245881288
173.337292242177
156.195817435013
174.723649376535
171.963548170198
189.502200316582
174.061709236036
164.161604378571
141.904613466609
159.454712906616
137.495140233997
180.417780521201
182.829762364938
143.13472832904
181.973956888329
193.566558292119
170.122091921789
159.965087981435
171.345790419801
153.538336667764
166.922388132494
164.717993076325
163.70065055487
162.301923929184
143.834305825129
144.199933169353
180.301877869438
168.806920230575
170.61136519941
162.818670583429
156.309514165888
186.773855080053
182.259505189645
172.341615546967
207.619312002367
175.067179055011
148.359478197484
167.588099574614
175.110273657964
147.832290948156
165.395669322265
156.027966651609
174.38959983762
168.102040044994
170.906780771539
175.652725797724
149.386951165522
181.908673384326
149.339498309222
176.973737659864
151.108693746007
189.025827511435
163.680593933114
168.305106075349
167.904469228435
165.983861911073
170.600083701877
164.34895570279
161.683646470845
178.339566811405
165.364222465974
183.149387877172
165.674726540899
165.152144886372
161.664454307037
171.271956195664
158.061220724034
151.588095141971
169.97753868399
136.734391036284
187.722596462743
163.572581330862
184.903449119406
156.760135142327
173.791925155697
160.13121830685
155.330580508651
184.589931245736
182.685221430315
169.160522196561
186.756579149702
186.27978376201
156.17330311195
152.966980886991
171.613368872742
187.837598524494
187.634660899984
170.634672001284
161.211645548033
167.891901406577
177.329359833278
178.971110817392
183.717531265069
148.500833115536
155.873705690691
161.525986347922
205.824905338618
140.382369315518
157.142865414807
164.520370109842
153.818711382042
167.359396848118
174.112031952056
175.05871328764
172.979263416318
139.312470618406
159.105031093222
154.373906500063
135.686771853424
176.124406909438
176.619913469109
162.212021060924
156.487766947183
173.036989060505
171.29187573787
145.569344468503
168.009160670076
173.802422244464
186.852252396318
148.755871446531
148.098375157289
148.537752507542
163.906173793881
149.719533714306
123.77263587667
113.499434694278
130.06807832795
156.258531584503
144.883196185599
151.120815415108
141.352425138024
131.148157958143
146.282590103379
111.957126452989
138.579347179853
152.123514833961
143.580370927162
155.607736531862
135.699488013089
141.73542619438
126.676506630655
133.743931065828
125.928476601421
114.51221513162
134.244782905503
123.359022057755
144.384093800826
112.878677333032
116.263930450747
116.268540895031
139.832011089994
147.838500072775
119.037381840023
108.974560884593
140.386307518541
107.178195399796
125.607775769267
115.063752266179
114.628857503068
104.986367856861
135.175856625566
101.820355149257
113.539009772792
119.033656228854
111.154367073828
127.88064370318
95.0702471495733
128.873608538921
126.066570041619
137.51822802124
130.63937930069
114.256795877556
115.371102563424
120.39153787368
134.611118956009
109.396807471394
96.2332556161491
86.2836542258557
110.70469019361
116.165324988922
109.708835595392
105.387279105917
108.796102441149
113.691580441325
122.332847871732
116.740421402172
111.751451101638
107.369197908273
109.034461103552
122.237669496988
101.239138530771
101.43241316269
106.679866866251
98.8081432665336
115.285725057962
101.986977925642
106.416500998688
102.816012329401
111.080735512972
86.6352812286791
117.940094224497
110.93199615015
93.0565543818471
100.714349299983
91.8002862513631
94.2856675651683
107.840686318438
97.5231683737379
108.504890074593
81.6453523071874
106.46120084671
98.9763603820403
107.375899759368
97.3002793583257
104.59199463827
70.6100333907237
109.957296654931
83.7890457494852
96.7726952776899
101.314405052153
87.8785071934356
92.4692851985977
94.120289371257
113.760766773038
90.3064832751918
101.305830607477
83.131948747517
90.9040777167684
94.9456712681471
95.5236280552618
85.593428765919
80.8917974761194
91.0818895893963
107.719174582335
84.1219688218891
77.7072943906618
93.6678720104425
79.4032957540084
73.9344091759564
95.6650220990517
82.8653258238501
77.5123170444807
95.0246148870832
80.7414516730005
95.6134877500426
88.2295980578342
81.932649683302
87.160497379546
91.8007025350005
56.9225077485785
86.916136529956
75.5274758550617
84.190783545489
88.4668647584536
87.6729380231416
97.7159376746994
99.9809859768233
86.437465559555
85.7650544464946
97.8877867112093
90.2759390444498
71.3705261717542
92.648334940658
85.1776062131793
85.4088822312611
80.5330102833385
73.4486857875932
70.2453260549907
96.9545055465001
80.8038189095256
80.9433150434407
76.9631544705416
77.9325081929061
74.9969654783876
79.9703776114562
68.7081375107539
72.103867118137
83.0556803466988
64.2932196440669
87.3899156352784
83.5675625744238
60.8586980284271
92.1051981120776
97.5497643609005
91.2684872108148
77.2488135959239
92.4882361714298
69.337917281518
69.7390308165207
93.1001824062495
67.7635457112937
71.8351802753276
94.3381989657119
78.6676917559489
71.4255858381205
79.9262842788841
77.1773903972842
94.2590768935256
78.2095529208875
90.8234171504943
80.4770480302619
70.8628326717388
68.4615341643289
78.3232504674212
89.1244193033145
75.5471164930258
80.7485801279416
72.3177427587377
85.0526391187831
78.1830909561482
76.730688462066
86.2683803418822
80.467599814645
83.0935752048983
70.9245504728657
82.5401282739343
72.2846675803306
93.7992323329763
87.3801344158465
84.9243089514944
87.0722738083648
75.9047994036803
72.1176428171635
97.1570474277006
92.6098935031069
79.4310697232258
84.4210812552913
70.4661754750813
89.8318237285811
75.3627073046806
106.109187313685
82.4518446232945
88.6588764369378
66.7505354979552
74.6229958566728
78.3240979377878
74.7589727118826
95.5389241838663
76.232888420104
83.5322886794308
59.9939623094291
85.4789664616112
72.3368997852595
90.6988025854572
75.9075375076281
81.3255638100185
86.3609634358077
81.1910301361031
71.1679439498513
81.204273429062
78.790570566332
84.4421455747359
89.4655953372558
90.8124290039999
75.4027494599432
68.7808308795631
72.1915125890409
85.1684093165052
85.4483022375733
81.7608114900171
68.8882873065639
81.6668927456191
77.9986411988073
76.3864139787007
95.2408372572488
80.6401346090367
86.1113964356957
69.4500595173042
79.5883130617895
76.2404881410623
67.1182770792228
72.2721929486936
78.3860441060788
85.1712194649759
85.1015793581633
69.7691236006739
86.12558232653
85.1396384196833
73.7214016537502
82.1208176895138
83.8228156602854
75.4027703018455
89.4948274803326
86.0266174832282
95.3606171864268
63.7649242358554
75.4242862467866
81.859363440216
83.1944212029797
95.4429057088094
79.4993722086506
78.963868756629
71.8086994364201
79.2347936128996
75.8618539859679
87.9009614449615
90.8042345328866
75.3063677388655
72.541183148549
87.8777372745192
86.3009843213312
62.7368789050412
62.8778652415592
85.0929734190559
78.670498823678
91.027016330088
87.1483760549914
73.0031276613608
80.4292007087402
84.197816097971
87.5807006451019
72.8387454960472
86.562983011826
80.9764540442387
83.3372164478783
81.9461338428064
84.2315664091339
108.785581283799
49.2051488349394
90.338037210227
84.0543226847638
71.7893695128475
71.2496697153115
70.103597074204
67.2792185244855
90.1480393573308
84.3071057681295
81.1416653271198
94.7125927187698
95.2926590842557
77.3183693041492
87.2455172360337
96.4955204324185
97.8771882876889
89.9146663275983
85.8407634336481
83.1930957907871
79.6969029517281
74.7538203442714
90.7038547708502
92.0983627624011
82.3815445984755
83.1839746043793
112.115410390525
89.0102914031495
96.3161130821477
71.7670176954906
82.5565264184551
89.8333404407485
95.5657152021203
84.3236822521613
79.8212177596563
86.3026708356071
77.8316901000737
86.9499916814486
80.9297742362696
91.2708397486416
94.808855064045
86.4212244761717
79.7282650058851
95.808008861248
89.6097281826985
101.417430865196
81.4636979190909
89.4287478312047
85.930239369515
92.9986847359645
86.9341741794788
90.1292156475817
103.570845771102
97.1961600926147
90.7625477624055
90.9817917012886
94.9786265970402
84.582330865246
84.8163081140969
93.2961561624776
86.1588341249055
80.4098042422598
95.2346256994364
94.5440361318041
87.3420113530713
83.8817373180442
83.888641369924
81.7165756171833
107.99580093458
89.8548731246174
79.7826237456148
92.972032786024
92.1217410299339
80.3613400052927
99.7178337542
92.7395674350213
108.130735021017
81.4794121287764
83.1529021479732
95.7554709899999
89.2601341142536
106.489285329926
98.0786448808762
90.6667393346481
80.0019480652368
88.7098805146049
86.3368307632946
101.108142615806
82.686385728831
88.9397056159663
65.6328438823473
91.3947676347486
77.2364795565751
84.1692360470598
76.9927763922142
84.4408989352841
49.4887438279091
32.6645279760426
15.4184116767734
22.6893446402433
18.3002063313858
17.677350627797
16.9054616646231
18.3950516138403
17.940739564861
17.7822775028872
19.4759109658296
14.8964890263857
23.693433029178
11.717887627981
19.1700143269868
13.2414042285065
15.8480423945373
13.7003430648829
15.587752285984
13.8772064350731
17.9775109620163
16.3162808230105
18.4998949059756
19.0654671906818
18.1952067501145
15.092641456311
18.7180170861952
21.3121575393975
20.5880196394927
20.9983023484298
16.583514518846
14.8741842619168
14.2359485261428
15.4237665473401
18.6705083144645
19.3156042323039
16.0131417909043
18.7112804942706
14.147159550034
15.1359620168541
18.7319641122072
16.0419801256172
18.5248069491001
16.8506244681577
16.4906889709432
19.2900266340705
18.283412600092
17.6876246149883
16.0776249393829
16.377925650955
19.3141242409336
11.5255187602617
15.6933639416999
16.9356175151501
14.3242813996004
16.0983905739035
19.1666524267443
18.593120574154
17.2865405652157
14.8910754737993
13.0388676458627
12.8683093478375
21.8067865648725
14.8121548356591
10.9018448726416
15.5188388845045
19.1349041364982
16.5397274119951
16.3646651507237
20.6918978131826
20.9248892382091
17.9212009450241
19.5342821596263
13.6200016006689
16.1083058573618
24.2060110037177
19.7202108272004
19.8670851741033
19.0101726881253
17.250015548184
17.2754251617897
15.8431317568805
19.3637358659577
14.570242625141
16.3859507111989
)
;

boundaryField
{
    DSMCSide
    {
        type            symmetry;
    }
    DSMCBound
    {
        type            symmetry;
    }
    nullDims
    {
        type            empty;
    }
}


// ************************************************************************* //
