/*--------------------------------*- C++ -*----------------------------------*\
  =========                 |
  \\      /  F ield         | OpenFOAM: The Open Source CFD Toolbox
   \\    /   O peration     | Website:  https://openfoam.org
    \\  /    A nd           | Version:  7
     \\/     M anipulation  |
\*---------------------------------------------------------------------------*/
FoamFile
{
    version     2.0;
    format      ascii;
    class       volScalarField;
    location    "0.00324/particle";
    object      rhoN;
}
// * * * * * * * * * * * * * * * * * * * * * * * * * * * * * * * * * * * * * //

dimensions      [0 -3 0 0 0 0 0];

internalField   nonuniform List<scalar> 
600
(
8.43999999999999e+21
8.23999999999999e+21
9.12000000000006e+21
9.67999999999992e+21
8.43999999999999e+21
8.63999999999999e+21
9.32000000000006e+21
9.55999999999992e+21
9.23999999999999e+21
8.91999999999999e+21
8.32000000000005e+21
8.15999999999993e+21
8.84000000000019e+21
9.11999999999999e+21
9.07999999999999e+21
7.88000000000005e+21
9.63999999999992e+21
1.06e+22
9.31999999999999e+21
9.28000000000006e+21
9.99999999999992e+21
8.35999999999999e+21
8.55999999999999e+21
8.88000000000006e+21
8.59999999999993e+21
8.39999999999999e+21
8.23999999999999e+21
8.20000000000005e+21
9.43999999999992e+21
9.03999999999999e+21
8.79999999999999e+21
8.40000000000005e+21
7.83999999999994e+21
9.67999999999999e+21
9.75999999999999e+21
9.40000000000006e+21
9.99999999999992e+21
9.08000000000019e+21
8.11999999999999e+21
8.84000000000006e+21
8.79999999999999e+21
8.71999999999993e+21
9.63999999999999e+21
7.67999999999999e+21
9.28000000000006e+21
9.19999999999992e+21
9.19999999999999e+21
8.16000000000005e+21
8.43999999999999e+21
9.23999999999992e+21
8.67999999999999e+21
9.99999999999999e+21
8.64000000000006e+21
9.27999999999992e+21
8.99999999999999e+21
8.64000000000006e+21
8.75999999999999e+21
8.95999999999993e+21
9.51999999999999e+21
8.71999999999999e+21
8.40000000000005e+21
9.15999999999992e+21
8.52000000000018e+21
9.55999999999999e+21
8.80000000000006e+21
8.03999999999999e+21
9.23999999999992e+21
8.51999999999999e+21
8.47999999999999e+21
8.16000000000005e+21
9.51999999999992e+21
7.59999999999999e+21
9.88000000000007e+21
9.63999999999999e+21
9.67999999999992e+21
8.35999999999999e+21
9.67999999999999e+21
8.96000000000006e+21
7.79999999999994e+21
9.59999999999999e+21
1.03200000000001e+22
8.83999999999999e+21
9.67999999999992e+21
9.27999999999999e+21
8.51999999999999e+21
8.44000000000006e+21
9.35999999999992e+21
9.2000000000002e+21
9.31999999999999e+21
9.16000000000006e+21
8.83999999999999e+21
8.35999999999993e+21
8.95999999999999e+21
9.59999999999999e+21
9.32000000000006e+21
8.51999999999993e+21
8.47999999999999e+21
7.92000000000005e+21
9.51999999999999e+21
7.83999999999994e+21
8.40000000000018e+21
9.15999999999979e+21
8.52000000000018e+21
8.8399999999998e+21
9.2000000000002e+21
9.27999999999992e+21
9.3200000000002e+21
7.9199999999997e+21
8.76000000000019e+21
8.6399999999998e+21
8.16000000000017e+21
8.7199999999998e+21
9.5600000000002e+21
8.47999999999993e+21
8.12000000000017e+21
9.35999999999965e+21
8.80000000000019e+21
8.11999999999981e+21
8.68000000000018e+21
9.27999999999979e+21
9.5600000000002e+21
8.83999999999993e+21
8.04000000000017e+21
8.59999999999967e+21
8.88000000000019e+21
8.56000000000018e+21
7.31999999999983e+21
6.36000000000014e+21
8.07999999999981e+21
8.64000000000018e+21
8.27999999999993e+21
8.28000000000018e+21
8.11999999999969e+21
8.24000000000018e+21
7.71999999999982e+21
6.96000000000015e+21
8.03999999999981e+21
8.64000000000018e+21
7.91999999999993e+21
9.00000000000019e+21
6.99999999999973e+21
8.04000000000017e+21
6.71999999999984e+21
7.64000000000016e+21
7.31999999999983e+21
7.16000000000015e+21
7.23999999999994e+21
7.36000000000016e+21
8.03999999999969e+21
7.08000000000015e+21
6.64000000000014e+21
6.83999999999984e+21
7.76000000000017e+21
8.07999999999981e+21
6.88000000000015e+21
6.95999999999994e+21
7.40000000000016e+21
6.35999999999976e+21
7.36000000000016e+21
7.63999999999982e+21
6.92000000000015e+21
6.43999999999985e+21
8.04000000000017e+21
6.51999999999995e+21
7.00000000000015e+21
7.27999999999972e+21
6.64000000000014e+21
7.59999999999982e+21
5.80000000000012e+21
7.23999999999983e+21
6.72000000000024e+21
7.11999999999984e+21
7.48000000000016e+21
6.51999999999975e+21
6.36000000000014e+21
6.44000000000014e+21
7.35999999999983e+21
6.48000000000014e+21
6.11999999999986e+21
5.76000000000021e+21
7.55999999999982e+21
6.60000000000014e+21
6.63999999999975e+21
5.96000000000013e+21
6.31999999999985e+21
6.24000000000013e+21
6.59999999999995e+21
6.88000000000005e+21
6.55999999999995e+21
6.00000000000013e+21
5.99999999999977e+21
6.64000000000014e+21
5.87999999999986e+21
6.00000000000013e+21
6.15999999999986e+21
6.40000000000023e+21
6.55999999999985e+21
5.68000000000012e+21
6.27999999999976e+21
5.64000000000012e+21
6.28000000000013e+21
5.55999999999987e+21
6.36000000000014e+21
6.35999999999985e+21
5.72000000000021e+21
5.43999999999987e+21
5.72000000000012e+21
6.11999999999977e+21
6.08000000000013e+21
5.67999999999987e+21
6.60000000000014e+21
4.95999999999996e+21
5.72000000000004e+21
6.11999999999995e+21
6.60000000000014e+21
6.07999999999977e+21
5.44000000000012e+21
4.3999999999999e+21
5.60000000000012e+21
5.23999999999988e+21
5.88000000000021e+21
5.39999999999988e+21
5.16000000000011e+21
5.1599999999998e+21
5.52000000000012e+21
5.48000000000012e+21
5.31999999999988e+21
6.08000000000013e+21
4.83999999999989e+21
4.72000000000017e+21
5.55999999999987e+21
5.92000000000013e+21
5.1999999999998e+21
4.9200000000001e+21
5.11999999999988e+21
5.92000000000013e+21
4.99999999999996e+21
4.52000000000003e+21
5.63999999999995e+21
4.6400000000001e+21
4.51999999999983e+21
5.48000000000012e+21
4.79999999999989e+21
4.36000000000009e+21
5.27999999999988e+21
4.44000000000016e+21
4.99999999999988e+21
4.7200000000001e+21
4.67999999999982e+21
4.6800000000001e+21
5.08000000000011e+21
3.95999999999991e+21
4.8400000000001e+21
4.2799999999999e+21
4.96000000000018e+21
4.75999999999989e+21
5.04000000000011e+21
5.3599999999998e+21
5.20000000000011e+21
4.67999999999989e+21
5.04000000000011e+21
4.95999999999996e+21
5.40000000000004e+21
4.35999999999996e+21
4.8400000000001e+21
4.63999999999982e+21
4.7600000000001e+21
4.55999999999989e+21
4.04000000000009e+21
4.1199999999999e+21
5.76000000000021e+21
4.1999999999999e+21
4.32000000000009e+21
4.23999999999984e+21
4.20000000000009e+21
4.24000000000009e+21
4.3199999999999e+21
3.88000000000008e+21
4.3599999999999e+21
4.00000000000015e+21
4.03999999999991e+21
4.6800000000001e+21
4.63999999999982e+21
3.80000000000008e+21
4.95999999999989e+21
5.24000000000011e+21
4.83999999999996e+21
3.92000000000003e+21
4.87999999999996e+21
4.28000000000009e+21
4.31999999999984e+21
5.04000000000011e+21
4.03999999999991e+21
4.6000000000001e+21
4.87999999999989e+21
4.40000000000016e+21
4.3599999999999e+21
4.6000000000001e+21
4.19999999999984e+21
4.5600000000001e+21
4.96000000000011e+21
5.32000000000011e+21
4.71999999999982e+21
4.47999999999996e+21
4.12000000000021e+21
4.95999999999996e+21
4.63999999999969e+21
4.08000000000009e+21
4.5200000000001e+21
4.28000000000009e+21
4.79999999999968e+21
4.64000000000024e+21
4.31999999999996e+21
5.00000000000025e+21
4.1599999999996e+21
4.6000000000001e+21
4.5200000000001e+21
4.44000000000009e+21
4.59999999999983e+21
4.87999999999996e+21
4.56000000000023e+21
4.55999999999996e+21
4.63999999999969e+21
4.6400000000001e+21
4.24000000000009e+21
5.72000000000012e+21
4.8000000000001e+21
4.79999999999982e+21
4.47999999999996e+21
4.28000000000022e+21
4.39999999999996e+21
4.59999999999969e+21
5.12000000000011e+21
4.7600000000001e+21
4.8800000000001e+21
3.79999999999974e+21
4.32000000000022e+21
4.67999999999996e+21
4.12000000000021e+21
5.23999999999949e+21
3.84000000000008e+21
4.6400000000001e+21
3.80000000000008e+21
5.1599999999998e+21
4.07999999999997e+21
5.04000000000026e+21
4.07999999999997e+21
4.59999999999969e+21
4.32000000000009e+21
4.5200000000001e+21
4.40000000000009e+21
4.40000000000009e+21
4.55999999999983e+21
4.71999999999996e+21
4.72000000000024e+21
4.95999999999996e+21
4.4399999999997e+21
4.32000000000009e+21
4.4800000000001e+21
4.36000000000009e+21
4.51999999999969e+21
4.52000000000023e+21
4.23999999999997e+21
4.64000000000024e+21
4.91999999999952e+21
4.16000000000009e+21
5.32000000000011e+21
4.36000000000009e+21
4.67999999999982e+21
3.83999999999997e+21
4.76000000000024e+21
4.19999999999997e+21
4.31999999999971e+21
3.88000000000008e+21
4.4800000000001e+21
4.7200000000001e+21
4.7200000000001e+21
4.39999999999983e+21
4.15999999999997e+21
4.80000000000024e+21
4.71999999999996e+21
4.31999999999971e+21
4.6400000000001e+21
3.88000000000008e+21
5.24000000000011e+21
4.91999999999967e+21
5.24000000000027e+21
3.87999999999997e+21
4.24000000000022e+21
4.23999999999959e+21
4.7600000000001e+21
5.08000000000011e+21
3.92000000000008e+21
4.51999999999983e+21
4.15999999999997e+21
4.36000000000022e+21
4.31999999999996e+21
4.75999999999968e+21
5.08000000000011e+21
3.96000000000008e+21
4.4800000000001e+21
4.28000000000009e+21
4.75999999999982e+21
4.07999999999997e+21
4.12000000000021e+21
5.23999999999996e+21
4.59999999999969e+21
4.7600000000001e+21
4.8800000000001e+21
4.44000000000009e+21
4.91999999999967e+21
4.52000000000023e+21
5.11999999999996e+21
4.28000000000022e+21
4.59999999999955e+21
4.8000000000001e+21
5.16000000000011e+21
4.8000000000001e+21
4.95999999999981e+21
5.55999999999995e+21
4.32000000000022e+21
5.39999999999996e+21
5.19999999999965e+21
4.7600000000001e+21
4.44000000000009e+21
4.96000000000011e+21
4.24000000000009e+21
5.79999999999978e+21
5.31999999999996e+21
4.96000000000025e+21
6.03999999999995e+21
6.51999999999956e+21
5.28000000000011e+21
6.44000000000014e+21
6.32000000000032e+21
6.63999999999936e+21
6.68000000000034e+21
5.83999999999995e+21
5.9200000000003e+21
5.59999999999946e+21
6.04000000000013e+21
6.64000000000034e+21
6.35999999999995e+21
6.07999999999977e+21
6.71999999999995e+21
7.28000000000037e+21
6.51999999999995e+21
6.71999999999955e+21
5.44000000000028e+21
6.47999999999995e+21
6.48000000000014e+21
6.44000000000014e+21
6.43999999999976e+21
6.59999999999995e+21
6.36000000000032e+21
6.47999999999995e+21
6.43999999999956e+21
6.12000000000013e+21
6.12000000000013e+21
6.04000000000031e+21
6.55999999999936e+21
6.28000000000032e+21
6.75999999999994e+21
6.36000000000032e+21
7.31999999999929e+21
5.96000000000013e+21
7.04000000000036e+21
6.71999999999995e+21
6.83999999999974e+21
6.47999999999995e+21
6.56000000000033e+21
7.75999999999994e+21
6.47999999999956e+21
6.40000000000033e+21
7.07999999999994e+21
6.16000000000013e+21
6.92000000000015e+21
5.83999999999978e+21
6.59999999999995e+21
5.44000000000028e+21
5.95999999999995e+21
7.15999999999952e+21
6.92000000000015e+21
6.60000000000014e+21
5.9200000000003e+21
6.67999999999935e+21
5.9200000000003e+21
7.91999999999993e+21
6.40000000000033e+21
6.35999999999938e+21
6.48000000000014e+21
7.12000000000036e+21
6.51999999999995e+21
7.19999999999973e+21
6.71999999999995e+21
7.52000000000038e+21
6.11999999999995e+21
6.35999999999957e+21
6.56000000000033e+21
6.99999999999994e+21
7.48000000000016e+21
7.08000000000015e+21
6.31999999999976e+21
5.75999999999995e+21
6.72000000000034e+21
6.47999999999995e+21
7.71999999999948e+21
6.12000000000013e+21
6.08000000000013e+21
5.20000000000027e+21
6.1999999999994e+21
5.9200000000003e+21
6.51999999999995e+21
6.08000000000031e+21
5.91999999999943e+21
4.7600000000001e+21
3.8400000000002e+21
2.31999999999998e+21
3.63999999999986e+21
2.87999999999998e+21
2.72000000000014e+21
2.63999999999998e+21
2.67999999999982e+21
2.76000000000014e+21
2.83999999999998e+21
3.40000000000007e+21
2.00000000000004e+21
3.23999999999988e+21
1.95999999999998e+21
2.96000000000015e+21
2.47999999999998e+21
2.27999999999985e+21
2.04000000000004e+21
2.48000000000005e+21
2.56000000000013e+21
2.99999999999971e+21
2.24000000000011e+21
2.87999999999998e+21
2.52000000000013e+21
2.63999999999974e+21
2.56000000000005e+21
3.12000000000016e+21
2.95999999999998e+21
3.15999999999988e+21
2.79999999999998e+21
2.56000000000013e+21
3.27999999999997e+21
2.63999999999982e+21
2.48000000000013e+21
2.83999999999998e+21
3.20000000000007e+21
2.20000000000005e+21
3.35999999999987e+21
2.27999999999998e+21
2.64000000000013e+21
2.75999999999998e+21
2.43999999999983e+21
2.96000000000006e+21
2.72000000000006e+21
3.04000000000016e+21
2.87999999999972e+21
2.68000000000014e+21
2.67999999999998e+21
2.44000000000012e+21
2.47999999999976e+21
2.80000000000006e+21
2.12000000000011e+21
2.35999999999998e+21
2.7199999999999e+21
2.19999999999998e+21
2.56000000000013e+21
2.67999999999998e+21
2.75999999999981e+21
2.92000000000015e+21
2.59999999999998e+21
2.68000000000006e+21
2.20000000000005e+21
3.03999999999988e+21
2.19999999999998e+21
2.12000000000011e+21
2.39999999999998e+21
2.75999999999981e+21
2.76000000000006e+21
2.88000000000006e+21
3.04000000000016e+21
2.95999999999971e+21
3.08000000000016e+21
2.59999999999998e+21
2.48000000000013e+21
2.43999999999976e+21
2.88000000000006e+21
2.72000000000014e+21
2.67999999999998e+21
2.99999999999989e+21
2.35999999999998e+21
2.64000000000013e+21
2.47999999999998e+21
3.11999999999979e+21
2.40000000000012e+21
2.83999999999998e+21
)
;

boundaryField
{
    DSMCSide
    {
        type            symmetry;
    }
    DSMCBound
    {
        type            symmetry;
    }
    nullDims
    {
        type            empty;
    }
}


// ************************************************************************* //
