/*--------------------------------*- C++ -*----------------------------------*\
  =========                 |
  \\      /  F ield         | OpenFOAM: The Open Source CFD Toolbox
   \\    /   O peration     | Website:  https://openfoam.org
    \\  /    A nd           | Version:  7
     \\/     M anipulation  |
\*---------------------------------------------------------------------------*/
FoamFile
{
    version     2.0;
    format      ascii;
    class       volScalarField;
    location    "0.0175";
    object      dsmcRhoN;
}
// * * * * * * * * * * * * * * * * * * * * * * * * * * * * * * * * * * * * * //

dimensions      [0 -3 0 0 0 0 0];

internalField   nonuniform List<scalar> 
250
(
1219
1248
1275
1256
1231
1295
1243
1241
1271
1254
1236
1309
1225
1259
1239
1181
1240
1233
1199
1214
1230
1182
1164
1128
1188
1214
1204
1165
1178
1100
1198
1236
1181
1175
1109
1158
1178
1144
1148
1137
1155
1216
1100
1089
1154
1181
1147
1177
1100
1142
1101
1103
1110
1094
1050
1066
1130
1109
1054
1066
1044
1087
1067
1098
1118
1100
1033
1184
1007
1012
1116
987
1017
1067
1055
1070
1001
1045
1005
1050
967
1071
1074
1090
1048
1041
1038
1045
1033
1017
1038
986
1034
1017
1064
991
1003
1007
987
942
1016
947
969
1025
975
1028
1016
1026
1008
1007
978
905
974
967
933
995
961
970
922
926
942
950
964
969
850
945
965
894
972
928
966
892
924
941
933
956
922
903
911
876
958
944
844
898
904
891
910
896
916
912
886
892
922
930
879
919
927
929
848
930
862
940
925
915
900
872
864
800
874
891
913
878
885
930
877
898
860
896
905
921
898
889
883
854
929
865
900
913
869
885
857
907
880
837
861
876
855
819
903
820
853
853
851
837
825
903
888
875
850
819
801
898
825
909
834
813
876
870
859
875
852
848
916
868
856
843
853
872
865
908
838
850
856
863
872
882
847
868
885
828
808
847
832
831
853
839
840
779
863
797
)
;

boundaryField
{
    sides
    {
        type            symmetry;
    }
    empty
    {
        type            empty;
    }
    procBoundary1to0
    {
        type            processor;
        value           uniform 1194;
    }
    procBoundary1to2
    {
        type            processor;
        value           uniform 904;
    }
}


// ************************************************************************* //
