/*--------------------------------*- C++ -*----------------------------------*\
  =========                 |
  \\      /  F ield         | OpenFOAM: The Open Source CFD Toolbox
   \\    /   O peration     | Website:  https://openfoam.org
    \\  /    A nd           | Version:  7
     \\/     M anipulation  |
\*---------------------------------------------------------------------------*/
FoamFile
{
    version     2.0;
    format      ascii;
    class       volScalarField;
    location    "0.0175";
    object      rhoM;
}
// * * * * * * * * * * * * * * * * * * * * * * * * * * * * * * * * * * * * * //

dimensions      [1 -3 0 0 0 0 0];

internalField   nonuniform List<scalar> 
250
(
8.50253e-06
8.7048e-06
8.89313e-06
8.7606e-06
8.58623e-06
9.03263e-06
8.66993e-06
8.65598e-06
8.86523e-06
8.74665e-06
8.6211e-06
9.13028e-06
8.54438e-06
8.78153e-06
8.64203e-06
8.23748e-06
8.649e-06
8.60018e-06
8.36303e-06
8.46765e-06
8.57925e-06
8.24445e-06
8.1189e-06
7.8678e-06
8.2863e-06
8.46765e-06
8.3979e-06
8.12588e-06
8.21655e-06
7.6725e-06
8.35605e-06
8.6211e-06
8.23748e-06
8.19563e-06
7.73528e-06
8.07705e-06
8.21655e-06
7.9794e-06
8.0073e-06
7.93058e-06
8.05613e-06
8.4816e-06
7.6725e-06
7.59578e-06
8.04915e-06
8.23748e-06
8.00033e-06
8.20958e-06
7.6725e-06
7.96545e-06
7.67948e-06
7.69343e-06
7.74225e-06
7.63065e-06
7.32375e-06
7.43535e-06
7.88175e-06
7.73528e-06
7.35165e-06
7.43535e-06
7.2819e-06
7.58183e-06
7.44233e-06
7.65855e-06
7.79805e-06
7.6725e-06
7.20518e-06
8.2584e-06
7.02383e-06
7.0587e-06
7.7841e-06
6.88433e-06
7.09358e-06
7.44233e-06
7.35863e-06
7.46325e-06
6.98198e-06
7.28888e-06
7.00988e-06
7.32375e-06
6.74483e-06
7.47023e-06
7.49115e-06
7.60275e-06
7.3098e-06
7.26098e-06
7.24005e-06
7.28888e-06
7.20518e-06
7.09358e-06
7.24005e-06
6.87735e-06
7.21215e-06
7.09358e-06
7.4214e-06
6.91223e-06
6.99593e-06
7.02383e-06
6.88433e-06
6.57045e-06
7.0866e-06
6.60533e-06
6.75878e-06
7.14938e-06
6.80063e-06
7.1703e-06
7.0866e-06
7.15635e-06
7.0308e-06
7.02383e-06
6.82155e-06
6.31238e-06
6.79365e-06
6.74483e-06
6.50768e-06
6.94013e-06
6.70298e-06
6.76575e-06
6.43095e-06
6.45885e-06
6.57045e-06
6.62625e-06
6.7239e-06
6.75878e-06
5.92875e-06
6.59138e-06
6.73088e-06
6.23565e-06
6.7797e-06
6.4728e-06
6.73785e-06
6.2217e-06
6.4449e-06
6.56348e-06
6.50768e-06
6.6681e-06
6.43095e-06
6.29843e-06
6.35423e-06
6.1101e-06
6.68205e-06
6.5844e-06
5.8869e-06
6.26355e-06
6.3054e-06
6.21473e-06
6.34725e-06
6.2496e-06
6.3891e-06
6.3612e-06
6.17985e-06
6.2217e-06
6.43095e-06
6.48675e-06
6.13103e-06
6.41003e-06
6.46583e-06
6.47978e-06
5.9148e-06
6.48675e-06
6.01245e-06
6.5565e-06
6.45188e-06
6.38213e-06
6.2775e-06
6.0822e-06
6.0264e-06
5.58e-06
6.09615e-06
6.21473e-06
6.36818e-06
6.12405e-06
6.17288e-06
6.48675e-06
6.11708e-06
6.26355e-06
5.9985e-06
6.2496e-06
6.31238e-06
6.42398e-06
6.26355e-06
6.20078e-06
6.15893e-06
5.95665e-06
6.47978e-06
6.03338e-06
6.2775e-06
6.36818e-06
6.06128e-06
6.17288e-06
5.97758e-06
6.32633e-06
6.138e-06
5.83808e-06
6.00548e-06
6.1101e-06
5.96363e-06
5.71253e-06
6.29843e-06
5.7195e-06
5.94968e-06
5.94968e-06
5.93573e-06
5.83808e-06
5.75438e-06
6.29843e-06
6.1938e-06
6.10313e-06
5.92875e-06
5.71253e-06
5.58698e-06
6.26355e-06
5.75438e-06
6.34028e-06
5.81715e-06
5.67068e-06
6.1101e-06
6.06825e-06
5.99153e-06
6.10313e-06
5.9427e-06
5.9148e-06
6.3891e-06
6.0543e-06
5.9706e-06
5.87993e-06
5.94968e-06
6.0822e-06
6.03338e-06
6.3333e-06
5.84505e-06
5.92875e-06
5.9706e-06
6.01943e-06
6.0822e-06
6.15195e-06
5.90783e-06
6.0543e-06
6.17288e-06
5.7753e-06
5.6358e-06
5.90783e-06
5.8032e-06
5.79623e-06
5.94968e-06
5.85203e-06
5.859e-06
5.43353e-06
6.01943e-06
5.55908e-06
)
;

boundaryField
{
    sides
    {
        type            symmetry;
    }
    empty
    {
        type            empty;
    }
    procBoundary1to0
    {
        type            processor;
        value           uniform 8.32815e-06;
    }
    procBoundary1to2
    {
        type            processor;
        value           uniform 6.3054e-06;
    }
}


// ************************************************************************* //
