/*--------------------------------*- C++ -*----------------------------------*\
  =========                 |
  \\      /  F ield         | OpenFOAM: The Open Source CFD Toolbox
   \\    /   O peration     | Website:  https://openfoam.org
    \\  /    A nd           | Version:  7
     \\/     M anipulation  |
\*---------------------------------------------------------------------------*/
FoamFile
{
    version     2.0;
    format      ascii;
    class       volScalarField;
    location    "0.0018";
    object      iDof;
}
// * * * * * * * * * * * * * * * * * * * * * * * * * * * * * * * * * * * * * //

dimensions      [0 -3 0 0 0 0 0];

internalField   nonuniform List<scalar> 
125
(
1.82857e+23
1.80714e+23
1.87857e+23
1.93571e+23
1.75714e+23
1.78571e+23
2.05e+23
1.78571e+23
1.87857e+23
1.75e+23
1.72143e+23
1.87143e+23
1.97143e+23
1.75714e+23
1.72857e+23
1.81429e+23
1.86429e+23
1.67143e+23
1.94286e+23
1.9e+23
1.57143e+23
1.68571e+23
1.7e+23
1.88571e+23
1.97143e+23
1.73571e+23
1.79286e+23
1.72143e+23
1.86429e+23
1.84286e+23
1.64286e+23
1.85e+23
1.98571e+23
2.01429e+23
1.83571e+23
1.75714e+23
1.7e+23
1.66429e+23
1.77857e+23
1.87857e+23
1.82857e+23
1.74286e+23
1.81429e+23
1.62143e+23
1.77857e+23
1.57143e+23
1.72143e+23
1.82857e+23
1.75e+23
1.76429e+23
1.73571e+23
1.66429e+23
1.41429e+23
1.62143e+23
1.61429e+23
1.75e+23
1.52857e+23
1.57857e+23
1.62857e+23
1.46429e+23
1.79286e+23
1.58571e+23
1.37857e+23
1.66429e+23
1.40714e+23
1.60714e+23
1.5e+23
1.45714e+23
1.47143e+23
1.23571e+23
1.27857e+23
1.43571e+23
1.28571e+23
1.46429e+23
1.52143e+23
1.43571e+23
1.32857e+23
1.34286e+23
1.15e+23
1.13571e+23
1.05714e+23
1.25714e+23
1.45e+23
1.11429e+23
1.22857e+23
1.15e+23
1.12857e+23
1.15714e+23
1.12143e+23
1.27143e+23
1.03571e+23
1.10714e+23
1.14286e+23
1.07857e+23
1.13571e+23
1.16429e+23
9.92857e+22
1.10714e+23
1.1e+23
9.78571e+22
1.03571e+23
1.08571e+23
9.35714e+22
1.02143e+23
9.42857e+22
1.10714e+23
9.14286e+22
8.35714e+22
1.01429e+23
8.5e+22
9.57143e+22
9.71429e+22
1.00714e+23
9.14286e+22
9e+22
8.64286e+22
9.35714e+22
9.64286e+22
9.5e+22
8.85714e+22
9.07143e+22
8.92857e+22
9.5e+22
9.85714e+22
8.35714e+22
)
;

boundaryField
{
    sides
    {
        type            symmetry;
    }
    empty
    {
        type            empty;
    }
    procBoundary1to0
    {
        type            processor;
        value           uniform 1.78571e+23;
    }
    procBoundary1to2
    {
        type            processor;
        value           uniform 8.21429e+22;
    }
}


// ************************************************************************* //
