/*--------------------------------*- C++ -*----------------------------------*\
  =========                 |
  \\      /  F ield         | OpenFOAM: The Open Source CFD Toolbox
   \\    /   O peration     | Website:  https://openfoam.org
    \\  /    A nd           | Version:  7
     \\/     M anipulation  |
\*---------------------------------------------------------------------------*/
FoamFile
{
    version     2.0;
    format      ascii;
    class       volScalarField;
    location    "0.0018";
    object      rhoN;
}
// * * * * * * * * * * * * * * * * * * * * * * * * * * * * * * * * * * * * * //

dimensions      [0 -3 0 0 0 0 0];

internalField   nonuniform List<scalar> 
125
(
9e+22
8.89286e+22
8.57143e+22
8.89286e+22
8.96429e+22
8.82143e+22
9e+22
9.25e+22
9.39286e+22
9.32143e+22
9.67857e+22
9.39286e+22
9.78571e+22
9.42857e+22
8.78571e+22
9.39286e+22
8.82143e+22
8.96429e+22
9.14286e+22
8.92857e+22
8.85714e+22
8.82143e+22
8.78571e+22
8.96429e+22
8.67857e+22
1.01071e+23
8.57143e+22
9.42857e+22
8.07143e+22
8.78571e+22
9.21429e+22
8.92857e+22
8.25e+22
9.5e+22
9.57143e+22
8.64286e+22
8.75e+22
8.78571e+22
8.39286e+22
8.64286e+22
8.39286e+22
8.71429e+22
8.64286e+22
9.32143e+22
8.75e+22
7.96429e+22
8.60714e+22
9e+22
9.39286e+22
7.75e+22
8.57143e+22
9.10714e+22
8.07143e+22
8.28571e+22
7.96429e+22
8.32143e+22
7.75e+22
7.92857e+22
7.96429e+22
7.39286e+22
8.32143e+22
8.25e+22
7.96429e+22
7.67857e+22
7.82143e+22
7.60714e+22
7.25e+22
7.60714e+22
7.17857e+22
7.35714e+22
6.17857e+22
6.82143e+22
7.53571e+22
5.92857e+22
6.78571e+22
6.89286e+22
7.14286e+22
6.07143e+22
6.03571e+22
6.67857e+22
5.78571e+22
6.28571e+22
6.03571e+22
6.46429e+22
6.17857e+22
5.35714e+22
6.07143e+22
6.03571e+22
5.71429e+22
5.75e+22
5.92857e+22
5.82143e+22
5.64286e+22
6.07143e+22
5.21429e+22
5e+22
6.28571e+22
5.75e+22
4.75e+22
5.35714e+22
4.92857e+22
4.35714e+22
4.32143e+22
4.82143e+22
4.75e+22
5.07143e+22
4.64286e+22
4.89286e+22
4.17857e+22
4.42857e+22
5e+22
5.35714e+22
4.57143e+22
4.46429e+22
4.46429e+22
4.67857e+22
5.03571e+22
4.39286e+22
4.25e+22
3.57143e+22
5.28571e+22
5.32143e+22
4.92857e+22
4.39286e+22
4.46429e+22
)
;

boundaryField
{
    sides
    {
        type            symmetry;
    }
    empty
    {
        type            empty;
    }
    procBoundary1to0
    {
        type            processor;
        value           uniform 8.17857e+22;
    }
    procBoundary1to2
    {
        type            processor;
        value           uniform 4.71429e+22;
    }
}


// ************************************************************************* //
