/*--------------------------------*- C++ -*----------------------------------*\
  =========                 |
  \\      /  F ield         | OpenFOAM: The Open Source CFD Toolbox
   \\    /   O peration     | Website:  https://openfoam.org
    \\  /    A nd           | Version:  7
     \\/     M anipulation  |
\*---------------------------------------------------------------------------*/
FoamFile
{
    version     2.0;
    format      ascii;
    class       scalarField;
    location    "0.00108/lagrangian/dsmc";
    object      Ei;
}
// * * * * * * * * * * * * * * * * * * * * * * * * * * * * * * * * * * * * * //


9172
(
2.8976e-22
7.66652e-21
7.05289e-21
5.16915e-21
6.43312e-21
2.29153e-21
3.74036e-21
6.54901e-21
7.322e-21
3.17343e-21
1.4337e-20
1.07588e-20
1.15218e-20
4.05404e-21
1.00628e-22
2.80937e-22
1.64824e-21
9.90334e-22
7.66438e-21
5.76514e-22
8.94294e-21
2.72017e-21
1.31987e-21
5.2087e-21
3.43645e-21
5.53153e-21
7.38527e-21
9.51704e-21
1.28325e-21
1.35446e-20
3.42483e-22
5.04323e-21
4.0763e-22
6.35878e-22
3.53897e-21
9.45793e-21
7.93164e-21
9.27693e-21
5.41025e-21
6.29965e-21
1.73253e-21
2.63092e-21
2.32385e-20
7.22667e-21
7.7894e-23
3.58651e-21
2.34817e-21
1.82754e-20
3.97579e-21
4.22784e-21
2.84045e-22
2.13729e-21
4.73984e-21
2.07525e-21
4.56928e-23
6.3384e-22
1.93155e-21
2.532e-21
1.42505e-21
3.70779e-21
1.52196e-21
8.48105e-22
2.40263e-21
4.42814e-22
4.36396e-22
4.64706e-21
1.53084e-21
1.0391e-20
1.23732e-20
6.35694e-22
2.35025e-21
8.32286e-21
1.31642e-21
1.83239e-21
5.04357e-21
2.09992e-21
1.13683e-21
6.17486e-21
9.5712e-22
3.18083e-21
2.39751e-21
2.97509e-21
1.65606e-21
3.67745e-22
2.59419e-21
1.79584e-22
3.21885e-21
5.18273e-21
3.21916e-21
1.86714e-21
1.13522e-21
2.37292e-21
1.90133e-21
4.64164e-21
3.1719e-21
1.23762e-22
1.35732e-21
3.75301e-22
1.48154e-21
4.66249e-21
2.13054e-21
2.19491e-21
5.88065e-22
1.02302e-20
4.94513e-21
4.90351e-21
1.311e-20
6.41257e-21
1.3433e-22
3.07971e-21
1.8503e-22
4.2036e-21
9.39227e-21
1.97349e-21
6.28721e-22
1.16916e-21
6.87893e-21
1.27452e-20
1.21273e-21
1.2813e-20
1.65101e-20
5.79743e-21
3.04091e-21
3.54639e-21
1.5878e-21
1.17598e-21
3.22968e-22
1.07982e-20
1.30083e-22
3.61823e-21
4.39578e-21
7.19084e-21
6.2312e-21
8.18571e-22
1.32181e-20
1.97831e-21
6.06288e-21
3.79827e-21
3.05089e-21
5.17838e-21
3.01122e-21
1.62813e-21
7.51548e-21
4.32523e-21
2.87323e-21
4.85547e-21
1.37784e-20
4.9806e-21
7.1549e-21
1.55723e-21
6.60164e-21
5.18305e-21
2.78734e-21
6.55339e-21
6.2256e-21
4.54313e-21
2.04454e-21
2.29044e-23
1.55786e-21
4.45291e-23
3.30809e-22
2.89535e-21
2.4981e-21
5.46649e-22
3.94847e-21
1.20939e-20
9.87326e-22
1.1677e-21
8.03646e-21
3.30443e-21
4.04373e-22
1.83205e-21
3.14371e-22
2.61027e-21
9.89764e-21
4.09436e-21
1.16506e-20
8.87627e-22
3.53908e-22
6.46704e-21
2.86382e-22
2.32713e-20
5.07657e-22
7.76446e-23
2.86655e-21
5.57402e-21
1.37339e-20
1.74208e-21
4.92089e-21
9.24764e-21
7.12856e-21
3.78209e-21
8.7131e-21
1.70358e-21
2.35544e-21
4.18707e-21
2.63482e-22
9.88625e-21
1.70599e-21
1.35168e-21
1.43232e-21
5.53271e-22
7.78606e-21
8.83625e-21
1.7201e-20
4.26678e-21
6.78341e-23
2.31436e-21
1.63799e-21
1.20739e-22
4.08834e-21
1.197e-20
2.86129e-21
2.68379e-21
6.38104e-21
2.38789e-21
4.09561e-21
2.91226e-22
1.35577e-21
2.07022e-21
3.98026e-21
6.50648e-21
5.43634e-21
1.63537e-21
2.28508e-21
2.62864e-21
1.80534e-21
3.92356e-21
6.30002e-21
1.75373e-21
3.09845e-22
5.53164e-21
2.89121e-21
9.61249e-22
2.00199e-21
4.28749e-21
3.15789e-21
1.83854e-20
1.82688e-21
3.28127e-21
4.2913e-21
1.25875e-20
2.82733e-21
1.32189e-21
3.43278e-21
2.82757e-21
1.28661e-20
3.08979e-21
8.90214e-22
2.50284e-22
1.0546e-21
2.32464e-21
2.00728e-21
1.72814e-21
2.07112e-22
1.05952e-22
3.81535e-21
4.69255e-22
2.17911e-21
2.07969e-21
5.18195e-21
1.00062e-21
3.70294e-21
2.25379e-21
3.69083e-21
6.52488e-22
1.47189e-21
7.23893e-21
2.56498e-20
4.02345e-20
1.05367e-20
5.50851e-22
7.91108e-21
4.63406e-21
2.8544e-21
5.08414e-21
3.73377e-21
8.88607e-22
2.1139e-21
7.88132e-21
3.54974e-21
4.31088e-21
2.78484e-21
3.97704e-21
5.13567e-21
2.21856e-21
1.06572e-20
7.48366e-21
3.03532e-22
5.8885e-22
1.08328e-20
6.20231e-21
9.57542e-22
1.09811e-21
7.33572e-21
1.6262e-21
1.97275e-21
1.51836e-21
3.34058e-21
3.13503e-21
6.97328e-21
2.02709e-21
3.56907e-21
7.55563e-23
3.98945e-21
8.59528e-22
2.08032e-21
4.1719e-21
3.86647e-21
1.41095e-20
3.99199e-22
2.76843e-21
2.2804e-22
5.67381e-23
1.02365e-21
1.41878e-22
2.24863e-21
1.25516e-21
4.7662e-21
1.15136e-21
5.09265e-21
7.30483e-22
7.66176e-22
8.85433e-21
1.40338e-20
9.03238e-22
2.5728e-21
1.97328e-21
6.27491e-22
2.02976e-21
4.22136e-21
5.77499e-21
4.14067e-21
1.1647e-21
3.66815e-21
9.86413e-21
9.08326e-21
3.84226e-21
5.20813e-21
8.12189e-21
1.32678e-20
1.9154e-21
1.85919e-22
1.0435e-20
6.63165e-21
6.41061e-22
4.53625e-21
3.74821e-21
2.83451e-20
5.18426e-21
3.45975e-21
3.61718e-21
4.67746e-21
2.12443e-21
1.91945e-21
5.63659e-21
3.73708e-21
3.86653e-21
3.10166e-21
2.23737e-21
5.83184e-21
5.58838e-21
1.04334e-20
3.45156e-21
2.66528e-21
1.37694e-20
2.57368e-21
7.45294e-21
9.19412e-21
9.82561e-21
8.32736e-22
3.01262e-21
8.77064e-22
3.52363e-21
1.27661e-21
8.67451e-21
2.50305e-22
1.06374e-20
7.18515e-22
5.424e-22
3.37952e-21
3.73635e-21
3.6301e-22
5.98794e-21
4.44159e-23
3.37281e-21
4.64623e-21
1.28392e-21
2.38065e-21
6.85776e-22
2.41492e-21
1.01383e-21
1.3746e-21
2.79691e-22
1.50303e-21
2.04117e-21
3.64486e-21
5.03685e-23
1.60973e-21
1.52646e-21
2.18569e-21
8.62437e-21
1.8348e-22
9.78316e-21
6.68648e-21
8.10039e-21
6.58435e-23
1.61753e-20
1.05686e-21
2.80773e-21
3.08652e-21
8.61507e-21
2.79722e-21
5.9128e-21
1.7366e-21
8.87325e-22
3.21905e-22
8.25386e-22
2.80886e-22
7.79615e-22
2.19274e-21
2.40573e-21
1.74309e-20
7.50809e-21
4.67373e-22
3.48813e-21
6.32289e-21
3.94197e-21
8.5329e-21
8.53051e-21
6.69404e-21
1.01431e-20
7.81992e-21
2.56798e-23
9.64729e-21
1.14417e-20
2.99015e-21
6.18035e-22
2.07992e-21
1.01262e-20
1.05121e-21
1.66855e-20
1.35634e-21
6.53817e-22
6.04674e-22
1.35139e-21
1.37556e-20
7.42855e-22
9.23995e-21
3.106e-21
4.80072e-21
8.86113e-21
4.58871e-22
9.05766e-22
6.4991e-21
4.68751e-22
1.11242e-21
5.04508e-21
1.12183e-20
1.62741e-21
5.02937e-21
2.60124e-21
4.09885e-21
1.3651e-20
5.89075e-21
1.41909e-21
1.14895e-21
1.27276e-22
1.07944e-20
1.01583e-21
4.14764e-21
8.33449e-23
1.28017e-20
2.31859e-22
4.75337e-21
4.64015e-21
9.41457e-21
4.32687e-21
6.23427e-21
3.41855e-22
4.81136e-22
6.03504e-21
2.92601e-21
1.39758e-22
1.69263e-21
6.86369e-21
3.31005e-22
1.93032e-20
9.0859e-21
4.56326e-21
4.4943e-21
4.43579e-21
1.04561e-21
4.46568e-21
2.54632e-21
2.43553e-22
6.69059e-22
3.59074e-21
1.07276e-20
2.71102e-21
1.38475e-22
8.93067e-21
1.51045e-21
3.48e-21
6.85493e-22
3.18821e-21
1.45748e-21
9.78589e-21
1.1212e-21
9.83962e-22
1.39514e-21
1.14254e-20
4.11952e-21
6.08329e-21
5.18802e-21
7.74225e-21
2.94495e-21
1.00133e-21
2.8882e-21
1.26607e-21
6.38516e-21
1.38643e-21
4.20698e-22
2.79663e-21
9.36226e-21
2.06129e-21
6.05185e-21
3.99268e-21
1.75771e-20
7.98709e-22
3.03846e-21
7.83616e-21
9.87794e-22
1.41441e-20
7.43094e-21
3.02696e-21
2.77754e-21
1.41665e-21
7.73738e-22
2.33938e-22
2.21841e-21
4.54343e-22
8.00309e-21
5.92507e-21
2.06469e-20
4.32614e-22
6.15572e-21
2.01684e-21
1.94734e-21
6.79103e-21
1.82256e-21
4.53361e-22
6.62283e-21
1.37639e-21
3.1056e-21
1.60786e-21
5.64388e-22
4.13326e-21
4.77892e-21
3.52335e-21
2.06206e-21
1.16964e-21
5.89778e-22
4.17258e-21
2.97996e-22
8.08849e-22
9.66115e-22
1.28306e-21
3.4385e-21
1.80616e-23
2.06401e-21
4.34507e-21
6.36931e-22
1.99934e-21
1.19601e-21
1.80355e-21
3.97376e-21
1.88321e-21
8.02378e-21
1.68464e-20
1.19091e-21
4.31462e-21
6.66461e-22
2.267e-21
1.05885e-20
1.89208e-21
1.22321e-21
1.23762e-21
5.19038e-21
4.99177e-21
5.61522e-23
6.12371e-22
3.02076e-21
1.11883e-21
2.21867e-22
5.37523e-21
1.05574e-20
1.61486e-21
5.61565e-21
1.51368e-21
9.05099e-21
1.9478e-20
1.25023e-21
8.33416e-21
9.19033e-22
3.37461e-21
2.20385e-21
7.08229e-21
4.17022e-21
1.1269e-21
1.32925e-21
4.65474e-21
1.34081e-21
5.08301e-21
3.63552e-21
2.21776e-21
7.11914e-21
6.4418e-22
1.03891e-20
1.32379e-20
6.62505e-22
9.43766e-21
7.17982e-21
1.19172e-21
2.39979e-21
7.57433e-22
3.83323e-22
8.27828e-21
4.74843e-21
1.3986e-21
2.10744e-21
9.70363e-22
8.654e-21
1.18442e-21
1.96458e-21
5.42792e-22
2.7583e-22
1.28076e-20
1.87842e-22
1.22854e-21
8.05493e-21
6.0118e-21
1.2585e-21
1.64184e-22
1.87591e-21
1.01045e-21
6.74155e-21
9.87715e-23
6.27815e-21
4.40294e-21
2.00685e-20
7.89983e-21
4.11083e-22
2.47196e-21
3.1827e-21
7.8067e-21
1.56298e-21
4.01695e-22
3.73498e-21
5.87019e-22
5.46753e-21
4.00374e-22
9.34794e-22
1.4064e-22
2.72978e-21
1.66437e-21
1.38214e-20
1.77182e-20
1.57286e-21
6.16038e-23
1.18672e-21
1.90825e-21
1.87245e-20
1.85708e-22
1.87532e-21
9.55948e-21
1.67305e-21
4.38922e-22
4.33777e-21
2.06071e-21
5.7353e-21
7.81738e-22
6.99847e-21
4.47528e-21
3.11499e-21
1.07801e-20
1.33311e-21
3.20736e-21
1.90777e-20
1.38104e-21
2.53527e-21
1.15828e-20
8.67706e-21
2.58733e-21
2.99745e-21
4.61547e-22
2.4091e-21
5.11632e-22
1.36176e-21
8.16155e-21
1.80639e-22
1.04637e-22
5.41136e-21
5.27643e-21
1.1822e-21
7.16277e-21
5.91481e-21
7.92535e-22
4.14039e-21
4.49117e-21
2.41256e-21
7.55989e-22
2.63453e-21
4.08145e-21
1.73414e-20
1.90051e-21
1.23835e-20
3.10149e-21
4.8512e-21
5.94284e-22
2.36271e-21
5.62316e-21
5.37526e-21
1.55314e-20
4.73367e-21
6.42874e-22
3.7774e-21
1.52103e-21
3.42994e-22
6.9523e-21
9.22104e-21
1.7881e-22
3.13429e-22
2.8983e-21
5.67814e-21
9.43121e-22
4.75987e-21
3.53555e-21
8.92532e-21
2.21402e-21
6.75871e-21
4.14286e-21
1.35784e-21
9.5112e-21
6.70332e-22
6.7699e-26
1.13573e-21
2.47188e-21
5.22623e-22
5.83103e-21
4.01816e-21
2.96844e-21
3.67704e-21
1.04632e-20
1.60865e-22
1.05861e-21
5.24542e-21
6.21612e-21
2.98303e-21
7.38838e-23
1.75927e-21
5.33977e-21
1.74143e-21
5.85072e-21
4.49755e-21
1.3602e-20
5.25375e-21
1.08205e-20
7.88472e-22
5.21754e-21
6.26367e-22
3.19776e-22
4.20674e-21
2.98551e-21
8.49249e-21
5.04663e-21
3.17892e-21
7.07743e-21
6.3687e-22
1.48384e-21
3.16387e-21
1.34562e-20
8.41815e-22
4.72525e-21
6.41362e-21
1.02881e-20
5.84078e-21
2.59781e-21
9.87674e-21
1.131e-20
9.9544e-21
2.69186e-21
1.19175e-20
5.83806e-22
3.0385e-22
7.09184e-22
2.50844e-21
3.4329e-22
1.91631e-21
7.88798e-21
6.88432e-21
2.09219e-22
3.88849e-21
3.84995e-22
2.72759e-21
1.85551e-21
2.41476e-21
4.39325e-21
2.63006e-21
6.4462e-22
3.22526e-21
4.13154e-21
7.20115e-21
1.29269e-21
5.04839e-21
4.54932e-21
8.88373e-21
8.52375e-21
4.45134e-21
1.07688e-21
8.37138e-21
8.73171e-22
2.40078e-22
1.82219e-21
7.90262e-21
4.54142e-22
3.67155e-21
7.18011e-21
2.16255e-21
3.59085e-21
2.25156e-21
1.05128e-21
1.39796e-21
1.31967e-21
4.04742e-21
1.38067e-21
4.00096e-21
6.35448e-21
4.46438e-21
8.70283e-21
7.0613e-22
4.46646e-22
2.67995e-21
8.21897e-21
1.00838e-21
1.226e-20
1.94875e-21
5.12271e-21
8.89403e-22
5.2851e-22
6.52006e-21
4.36934e-21
1.72018e-23
4.978e-21
2.30518e-21
1.60712e-20
9.10145e-22
5.82942e-22
1.71156e-21
4.18411e-21
2.20503e-21
2.27388e-21
1.68989e-22
1.12286e-21
5.04141e-21
5.78679e-21
3.10195e-21
3.46665e-21
1.08106e-20
2.71032e-21
7.05745e-21
8.82572e-21
1.10465e-20
5.74676e-21
1.00173e-20
2.11586e-21
1.23016e-21
7.23592e-21
2.01803e-21
4.33679e-22
1.23935e-20
1.4177e-21
4.675e-21
2.2044e-21
2.44999e-21
1.27642e-21
1.96212e-21
1.66686e-22
1.65918e-21
1.93925e-21
3.38528e-21
5.95106e-21
6.96048e-21
3.73646e-21
5.80091e-21
7.06098e-21
2.21817e-21
3.30277e-21
1.32693e-21
2.61315e-21
9.44753e-22
2.01577e-21
1.85588e-21
3.62185e-21
6.11357e-24
1.79934e-22
4.22685e-21
1.13379e-20
1.35705e-21
4.00679e-22
4.1205e-22
4.61984e-21
1.39833e-22
7.67319e-21
2.70339e-21
1.08304e-21
8.63501e-22
5.31072e-23
3.55774e-21
5.81454e-21
4.80476e-21
1.72705e-21
7.31538e-21
9.8838e-21
9.21239e-21
3.63726e-21
2.66266e-21
2.62676e-22
3.96622e-22
6.91316e-22
3.44844e-21
3.7947e-22
1.50989e-20
3.25677e-21
5.45797e-21
5.02362e-21
2.60057e-21
5.97656e-21
1.34793e-21
4.27909e-21
8.7457e-21
2.96862e-21
4.40686e-21
2.10072e-21
7.36325e-21
9.66737e-22
1.95545e-21
6.83353e-21
2.57736e-21
5.59546e-21
4.98236e-21
6.10238e-21
4.81562e-21
1.68165e-21
3.63453e-21
1.97623e-21
4.52213e-21
7.13774e-22
5.1036e-21
1.40394e-21
1.24634e-21
1.40773e-21
2.05899e-22
1.60014e-21
1.8528e-21
1.20561e-21
1.19037e-21
1.92214e-21
6.36477e-21
6.79507e-21
1.36796e-21
2.21948e-21
1.14786e-21
6.22063e-21
4.10839e-22
2.85974e-22
4.46699e-21
1.18411e-21
1.11147e-20
6.93627e-21
1.70553e-21
5.96328e-21
5.57898e-21
2.21943e-21
1.70292e-22
3.73218e-21
3.49181e-22
4.45314e-21
1.75206e-21
5.34821e-21
2.07802e-21
9.54368e-21
3.98894e-21
5.04127e-23
3.02321e-21
5.68099e-21
1.59214e-21
2.17676e-21
3.1963e-22
5.83053e-21
2.01675e-21
2.05657e-22
6.35005e-23
1.40368e-21
5.33368e-21
6.0878e-21
1.79057e-21
9.0611e-22
2.71068e-21
2.83817e-21
5.57007e-21
7.05126e-21
3.38631e-22
4.37332e-22
3.06758e-22
1.1221e-20
2.74338e-21
5.04759e-22
1.2933e-20
2.01134e-21
1.20832e-21
3.22689e-21
1.88035e-22
3.29912e-22
1.61915e-21
3.09807e-21
3.22616e-21
5.39746e-22
7.40333e-23
2.54283e-22
2.30276e-21
1.95775e-21
8.29124e-21
1.17892e-20
6.0056e-21
1.28584e-21
1.03207e-20
4.13314e-21
2.37964e-21
1.12199e-20
4.49742e-21
2.6713e-20
5.34083e-21
3.8858e-21
4.71077e-21
6.04582e-22
1.51143e-21
5.16152e-21
9.32023e-21
6.6039e-21
6.55143e-21
4.6576e-22
4.62723e-21
8.84394e-22
6.32908e-21
7.46764e-22
2.34182e-21
3.76151e-22
3.69647e-22
4.8822e-21
1.17064e-21
5.26691e-21
9.46329e-22
3.00787e-21
9.63972e-21
1.52514e-21
1.20999e-20
5.5824e-21
9.97816e-21
4.65555e-21
1.84917e-21
1.4805e-21
2.37526e-22
1.19897e-21
7.41604e-21
2.55915e-21
3.31474e-21
8.20266e-22
3.71512e-21
1.15176e-20
4.28969e-22
9.79987e-22
1.02751e-22
4.01602e-21
9.44018e-22
1.40305e-20
4.83576e-21
1.42941e-21
5.63231e-21
7.79968e-22
9.08784e-21
1.87218e-21
6.10531e-21
4.50079e-22
1.41513e-20
1.24497e-20
1.80148e-23
7.97439e-21
5.69569e-21
2.29658e-21
7.55897e-22
3.27328e-21
9.25345e-21
5.45354e-21
2.88586e-21
2.03946e-21
2.86914e-21
7.19312e-21
2.06923e-21
2.59228e-21
4.75758e-21
2.61371e-21
2.25199e-21
6.40616e-21
2.86022e-21
1.9338e-21
4.16889e-21
4.10613e-21
2.1473e-21
1.01017e-21
5.7648e-21
8.53813e-22
4.51225e-21
2.31077e-21
2.54072e-21
8.0594e-22
5.23327e-23
1.15248e-21
5.41485e-21
1.16746e-20
5.51237e-21
3.6393e-22
1.55831e-20
8.7371e-22
3.70348e-21
3.07607e-21
4.87986e-21
2.52391e-21
2.0154e-21
2.09882e-21
9.15017e-22
6.0242e-21
3.1071e-21
1.02312e-20
1.3607e-20
5.88227e-21
8.78716e-22
4.59762e-21
4.0112e-21
1.38578e-21
9.26344e-22
1.37217e-21
7.61027e-21
5.32162e-21
5.40385e-22
2.6976e-21
4.54338e-21
5.4877e-21
3.05516e-21
2.98801e-21
7.29441e-21
1.6999e-21
2.76476e-22
4.35213e-21
6.27067e-21
3.52981e-22
2.51799e-21
5.34021e-21
2.76579e-21
3.28086e-22
2.35148e-21
1.33885e-21
9.61868e-21
9.26303e-22
1.3908e-21
4.77856e-21
4.34751e-21
1.6578e-21
2.56272e-21
1.7017e-21
8.86079e-21
7.5047e-22
1.44248e-20
8.47767e-21
6.97885e-21
4.61739e-22
1.84142e-21
4.74248e-21
1.17861e-21
1.21724e-21
8.70967e-21
5.86748e-21
3.13567e-21
5.16859e-21
3.92334e-22
1.68362e-21
4.15386e-21
3.87332e-21
4.15098e-21
4.21831e-21
5.41591e-21
5.04633e-21
4.40026e-21
3.47499e-21
5.3873e-21
1.27456e-21
5.5403e-21
5.04311e-21
1.48493e-21
1.91267e-21
4.62373e-21
4.70906e-21
7.24285e-21
6.40529e-21
7.92254e-22
1.21991e-21
5.1827e-21
1.08696e-20
1.77049e-21
3.64103e-21
4.4068e-22
1.14876e-21
3.24492e-22
8.59366e-21
5.53582e-21
1.62543e-22
7.92144e-21
1.24818e-20
1.03056e-22
3.11313e-21
1.87443e-21
2.81425e-21
4.37583e-21
2.00049e-22
1.02868e-20
5.8023e-21
3.81865e-21
1.13591e-20
1.02147e-20
4.32558e-21
2.88549e-22
3.33267e-21
1.0405e-21
4.09067e-21
7.79774e-21
1.81043e-21
3.05799e-21
1.00495e-21
2.84592e-21
1.14792e-20
4.78651e-22
1.42153e-22
3.17972e-22
2.75086e-21
2.12659e-21
1.45245e-23
4.40486e-21
1.06205e-20
6.31266e-21
2.47046e-21
1.76529e-21
1.02791e-21
1.55052e-21
3.45359e-21
1.81033e-21
7.20996e-21
3.43394e-21
1.473e-20
1.14949e-20
8.2855e-21
3.72263e-21
6.18545e-22
1.01763e-20
1.10779e-20
6.03893e-21
4.68844e-22
8.04721e-24
1.46187e-20
3.63811e-21
7.11561e-21
5.32767e-21
8.87895e-22
1.22714e-21
4.8422e-21
2.22571e-21
5.72505e-21
1.64698e-21
2.00367e-21
8.2176e-21
3.21632e-21
4.29185e-21
3.58254e-21
1.44122e-21
3.09713e-21
1.4773e-20
4.79484e-22
1.43325e-21
3.35729e-22
4.11595e-21
9.49255e-21
2.91192e-21
2.49296e-21
5.28365e-21
9.6588e-21
4.10444e-21
1.21951e-20
3.47003e-21
9.63618e-22
2.3828e-21
3.17639e-21
1.04158e-21
6.40895e-21
1.29181e-21
6.84799e-22
4.24778e-21
2.32471e-21
4.96352e-21
2.89847e-21
9.42631e-21
3.45081e-21
1.28058e-21
4.31442e-21
2.16004e-21
1.22261e-22
9.25898e-21
1.98985e-21
8.23994e-21
1.6702e-21
3.60304e-21
2.00108e-23
2.40752e-22
2.75549e-21
1.15447e-21
5.1612e-21
6.73881e-21
3.22893e-21
1.19448e-21
6.46542e-21
5.77031e-21
4.18267e-21
6.36841e-21
5.50975e-21
9.60682e-22
8.50513e-21
1.51785e-20
1.90764e-21
1.70834e-21
4.03125e-21
3.72519e-21
3.10716e-21
3.15356e-21
6.60643e-23
2.78222e-21
7.97371e-21
6.04984e-21
7.01866e-22
2.49132e-21
1.10064e-21
3.33088e-21
2.31854e-21
9.01863e-22
1.49203e-20
6.0654e-21
4.19041e-21
3.80346e-21
4.48677e-21
4.4261e-21
3.24943e-23
5.65333e-21
4.31963e-22
1.14628e-21
2.13968e-25
5.07733e-21
5.71519e-23
1.40904e-21
1.08281e-21
7.94044e-21
3.58937e-21
3.10787e-21
1.43645e-21
3.51677e-22
7.25262e-21
4.50664e-21
6.38127e-22
1.93936e-21
7.57157e-21
3.09118e-21
9.09282e-21
4.16154e-21
2.60778e-21
5.2424e-21
1.37812e-20
6.58474e-22
1.2575e-20
6.48899e-21
6.30833e-22
1.66401e-20
5.2118e-21
5.71841e-21
6.63337e-21
3.52636e-23
4.03985e-21
2.3703e-21
4.69166e-21
2.8337e-21
2.31137e-21
2.59502e-21
3.54553e-21
1.08632e-20
1.99025e-21
2.11387e-21
5.68002e-21
9.97331e-21
2.46277e-21
8.42105e-22
9.30861e-21
7.34077e-21
3.94356e-21
2.45399e-21
2.76442e-20
2.8801e-21
9.64722e-21
1.69355e-20
5.17174e-21
7.51089e-22
1.92764e-21
1.74843e-21
6.88133e-21
3.08529e-21
2.36718e-21
2.29081e-21
9.79615e-21
5.2204e-22
3.46217e-21
7.48457e-22
8.60136e-21
2.32747e-21
1.6553e-20
3.70682e-21
1.38072e-21
1.74426e-21
7.06007e-21
6.51661e-21
5.868e-21
1.53143e-21
1.35541e-21
2.31682e-21
3.82707e-25
4.01233e-21
2.7677e-21
1.39301e-20
6.17333e-21
4.31673e-21
3.20686e-21
1.46085e-21
3.20051e-21
4.07825e-21
7.1789e-21
1.32207e-21
1.73826e-21
2.53798e-22
9.79429e-21
8.19152e-21
3.81182e-22
7.23003e-21
3.24356e-21
8.20028e-21
9.28437e-21
2.36405e-21
4.45773e-21
1.84066e-21
1.56813e-21
4.52426e-21
4.21552e-21
1.40922e-20
1.65926e-21
8.35037e-22
4.00728e-21
7.35341e-22
1.93e-21
1.34532e-21
5.74275e-21
7.78553e-22
1.68358e-21
1.35566e-20
6.92678e-23
4.566e-21
1.44159e-22
4.72564e-21
6.4032e-22
3.30854e-22
2.62744e-21
6.23468e-22
8.12852e-21
9.57149e-21
6.33489e-22
8.20127e-22
3.15347e-21
1.90277e-21
3.1945e-21
8.57344e-22
4.292e-22
1.14805e-20
1.739e-21
3.40488e-21
3.9822e-21
1.03996e-20
2.60028e-21
3.94219e-22
3.17017e-21
6.28441e-21
1.65101e-20
2.46293e-21
9.46762e-21
3.62238e-21
3.65287e-23
7.94855e-21
3.54603e-21
8.01052e-21
1.42104e-21
3.34577e-21
1.7776e-21
8.29893e-22
2.63305e-21
2.76807e-22
5.99127e-21
6.18852e-21
2.29497e-21
1.50827e-22
1.81361e-21
6.17651e-21
5.72238e-21
3.45853e-21
4.28112e-23
4.75821e-21
4.48699e-21
1.43833e-20
8.75158e-22
2.27432e-20
5.87075e-21
4.60889e-21
2.66651e-21
5.01765e-21
6.64432e-21
5.058e-22
6.25813e-21
1.20909e-22
8.30025e-21
1.13346e-22
4.68908e-21
1.16894e-21
1.4162e-20
1.59101e-20
3.33829e-22
9.30128e-22
6.30274e-21
1.6376e-21
3.07657e-21
5.48597e-21
5.63429e-21
6.7692e-22
2.00039e-21
1.78025e-21
3.1682e-21
2.27007e-21
1.48122e-20
1.66526e-21
8.06274e-22
1.9343e-21
2.04719e-21
3.29852e-21
1.89593e-21
3.78457e-22
2.13294e-21
6.48206e-21
2.17617e-21
6.97318e-21
6.50803e-21
4.99501e-22
1.52137e-20
2.55975e-21
2.93219e-22
1.31435e-21
5.26836e-21
9.48313e-21
8.27804e-21
1.03616e-20
7.97437e-22
5.92599e-22
3.35113e-21
1.17121e-21
4.08733e-22
4.96264e-21
1.17671e-21
1.04178e-20
1.33633e-21
6.11318e-21
6.65284e-21
5.36747e-21
2.11161e-21
7.35717e-21
1.581e-21
5.42729e-21
7.20577e-22
1.72432e-22
5.34013e-23
1.26453e-21
5.29973e-21
7.44473e-21
1.4082e-21
2.75069e-21
3.32927e-22
2.86201e-21
5.18412e-21
1.46026e-20
1.16871e-21
1.64536e-21
1.61112e-21
3.23376e-21
4.34031e-21
1.14316e-20
7.69377e-21
1.67238e-21
7.62214e-21
2.58861e-22
2.37667e-21
1.1755e-21
4.59315e-22
5.59526e-21
3.4056e-21
1.03638e-20
2.00688e-21
4.23269e-21
1.88062e-21
4.39361e-21
1.91757e-21
2.73749e-21
1.01528e-20
9.28048e-21
1.20724e-21
1.21619e-21
4.63229e-22
2.80715e-21
1.9248e-21
7.03313e-21
3.73282e-21
9.6762e-23
2.05519e-21
9.99356e-21
1.12909e-20
4.85858e-21
7.09057e-22
2.33339e-21
3.46418e-21
2.77641e-21
5.477e-21
4.74397e-22
1.21316e-21
4.18567e-21
7.98148e-21
2.25557e-21
1.53013e-21
6.71866e-22
1.58439e-21
2.43717e-22
1.60284e-21
2.81821e-21
2.56168e-22
4.98932e-21
6.37622e-22
1.10107e-20
2.74495e-21
2.44065e-21
8.1985e-21
1.09299e-20
1.48807e-20
3.27705e-21
1.65796e-21
6.02147e-21
9.45861e-22
3.00154e-21
6.74579e-21
1.997e-21
6.81924e-21
1.12373e-20
5.29654e-21
6.65738e-22
2.8247e-21
3.02394e-21
1.2584e-22
4.00891e-22
8.40252e-22
1.52348e-21
5.54724e-21
4.8491e-21
3.17137e-21
3.36881e-21
8.08326e-23
2.96145e-21
4.35209e-21
7.49816e-22
2.34268e-21
7.85698e-22
1.2196e-21
2.05763e-21
9.48664e-22
7.81729e-22
6.35532e-22
5.42699e-21
9.59541e-22
5.19926e-21
1.20227e-20
5.30418e-21
9.37028e-21
3.92169e-21
8.18082e-22
9.78251e-21
3.56421e-21
6.95647e-21
3.03122e-22
1.89548e-20
3.1029e-21
1.36967e-21
3.1106e-21
2.63566e-23
3.73922e-21
1.10119e-20
7.60123e-21
4.38378e-22
9.21812e-21
9.53164e-22
1.44188e-21
1.90049e-21
6.44017e-21
2.17662e-22
1.77508e-21
9.32339e-22
1.51432e-21
6.73121e-23
7.81416e-22
1.07729e-21
1.22675e-20
1.16935e-22
2.20497e-21
4.8144e-21
3.12721e-21
7.08734e-21
2.97406e-21
3.91991e-21
3.57928e-22
5.3454e-22
3.68763e-21
7.8956e-22
8.8392e-21
1.96613e-22
5.6586e-21
2.78804e-21
5.02608e-21
1.13129e-20
4.56261e-21
1.37966e-20
4.36668e-22
7.35222e-21
9.78866e-22
9.20432e-22
5.60824e-22
4.70932e-21
1.70188e-21
4.11045e-22
5.78051e-21
2.89695e-21
4.05478e-21
5.21146e-21
6.06174e-21
4.62485e-22
7.82042e-21
1.4091e-21
1.81469e-21
1.39206e-22
2.88759e-21
1.99844e-21
1.68378e-20
1.76308e-21
7.64061e-22
2.24034e-22
1.14893e-20
4.28577e-21
1.93548e-21
1.00874e-20
7.82266e-21
7.96211e-22
1.82147e-21
1.80445e-21
2.41192e-21
1.01137e-21
2.53402e-21
2.46845e-21
6.85177e-22
6.94834e-21
1.90873e-21
4.31564e-21
5.14387e-21
9.46999e-21
6.27885e-21
2.4735e-20
2.79491e-21
1.75788e-21
2.00114e-20
5.02047e-22
2.74433e-21
8.01085e-22
2.21682e-21
6.22362e-21
9.71022e-23
2.33538e-24
9.08368e-22
7.10627e-22
3.31676e-21
5.51347e-21
5.61622e-22
4.30484e-21
9.49621e-22
2.74897e-21
7.967e-21
2.60985e-23
1.71275e-21
2.42121e-21
2.21796e-21
4.06262e-21
5.83717e-21
2.33201e-21
3.23741e-21
6.00821e-21
4.5348e-21
6.67976e-21
1.3739e-21
2.3368e-21
5.82215e-21
5.07175e-23
2.50781e-21
3.15458e-21
4.08187e-21
2.88165e-22
3.33916e-22
6.11184e-22
9.96573e-21
8.12445e-23
4.35884e-21
3.70203e-22
2.17975e-21
6.60902e-22
4.27921e-21
9.2731e-22
1.06023e-20
1.44262e-20
2.82093e-22
2.72813e-21
2.97983e-21
1.74456e-21
1.67147e-21
4.365e-21
2.72102e-21
3.14889e-21
5.33944e-21
1.93982e-21
5.35482e-21
5.00675e-21
7.76899e-22
2.73407e-21
6.43618e-21
4.49659e-21
1.2683e-21
1.53788e-21
2.6216e-21
5.91104e-21
5.69881e-21
2.38645e-21
9.17339e-21
2.21984e-21
2.25751e-21
1.70344e-21
3.94868e-21
1.64721e-21
3.21005e-21
7.63816e-21
1.55927e-21
7.37125e-21
5.14228e-21
3.25144e-21
7.74124e-22
1.38677e-21
6.70686e-22
3.85125e-22
1.13245e-20
6.25642e-21
1.3334e-21
5.26249e-21
3.33311e-22
1.40506e-21
3.06803e-21
2.07947e-21
4.30944e-21
7.49595e-22
9.99311e-23
7.32918e-21
3.47341e-21
3.04419e-22
2.09203e-21
1.57696e-21
1.91075e-20
1.4585e-21
3.45054e-21
9.42367e-21
3.98376e-21
1.24358e-21
6.54351e-21
9.53867e-22
9.97131e-21
1.57762e-20
1.96325e-24
7.54167e-22
2.32917e-21
3.04662e-22
1.75392e-22
1.13929e-21
1.63553e-22
1.04802e-21
8.99608e-22
1.02952e-21
1.89547e-21
1.0579e-21
3.37441e-21
4.52702e-21
9.74078e-21
6.27899e-21
3.6433e-21
4.79186e-21
7.23116e-21
1.01172e-20
4.64922e-22
3.82364e-21
2.36968e-21
2.374e-21
1.79965e-21
5.71552e-22
8.04427e-21
1.47012e-21
2.82512e-22
1.20418e-20
9.38297e-21
2.97178e-21
3.93809e-21
1.06134e-20
1.5981e-21
5.44129e-21
2.55652e-21
4.35382e-21
6.72451e-21
1.3868e-21
1.7469e-20
1.97457e-21
4.67776e-21
1.06005e-21
1.10756e-20
8.026e-21
3.39494e-21
1.13901e-20
2.28375e-21
2.44866e-20
1.22096e-20
6.7095e-21
7.61732e-21
6.4973e-22
2.73727e-22
1.49723e-21
2.26171e-21
4.04726e-21
1.68697e-20
2.02462e-21
1.27246e-20
1.21667e-21
6.21406e-21
1.38474e-21
4.66044e-21
2.48828e-21
4.33804e-21
4.49339e-21
1.52132e-22
3.85697e-22
5.12801e-22
5.41262e-21
6.15593e-21
2.0738e-21
8.4392e-21
2.95121e-21
2.79188e-21
2.59717e-21
1.35434e-22
4.1668e-21
6.11741e-21
5.44819e-23
3.29849e-21
4.37895e-22
2.1909e-22
8.14693e-21
1.07656e-21
2.34648e-21
6.12137e-21
1.94655e-22
3.51669e-21
9.7241e-21
2.56501e-21
7.78842e-21
3.46664e-22
7.91627e-22
1.94419e-22
1.36624e-21
1.14e-20
2.37697e-21
8.62716e-21
1.00245e-21
4.45776e-21
2.92365e-21
6.99287e-22
3.3371e-21
7.91473e-22
2.94495e-21
7.29375e-21
9.02115e-21
1.4018e-21
1.34741e-22
2.92107e-21
4.36921e-21
6.07207e-21
5.00289e-21
1.8507e-20
5.84113e-22
3.02091e-21
7.47068e-21
3.65172e-21
1.11864e-20
3.09909e-21
2.25463e-21
1.46013e-21
8.60454e-21
5.7851e-22
5.06641e-21
5.08606e-21
4.11882e-21
7.74808e-22
6.51422e-22
3.73861e-21
4.15971e-21
7.59083e-21
1.19247e-21
4.77734e-21
3.50988e-21
1.32548e-20
4.49674e-21
6.12703e-21
1.38808e-20
4.25798e-21
1.40973e-22
4.22945e-21
1.45556e-20
7.49799e-22
1.03667e-20
2.26199e-21
8.45409e-21
1.10723e-21
1.87043e-21
6.38648e-21
3.3536e-21
6.00148e-22
2.7407e-21
4.32252e-22
2.78543e-23
9.37235e-21
4.08985e-21
8.02926e-22
1.39558e-21
3.4499e-21
3.13658e-21
4.56948e-21
5.20528e-21
1.05737e-21
1.22105e-20
1.64784e-21
1.60423e-20
3.71211e-21
8.21684e-21
2.1157e-22
2.76005e-21
7.29572e-22
2.50002e-21
7.27316e-21
1.29843e-21
8.6149e-22
2.26974e-22
1.1523e-20
2.2038e-21
1.2059e-21
1.21995e-21
1.02071e-21
1.02736e-21
1.82036e-22
8.76581e-22
3.06979e-21
2.92491e-21
4.46354e-21
3.61157e-21
2.11176e-21
7.10126e-21
2.129e-21
4.74213e-21
7.48533e-22
7.87693e-22
1.61756e-21
4.44619e-22
8.66732e-21
4.73707e-21
9.91575e-21
3.62828e-22
7.75731e-21
5.75247e-21
3.43192e-22
1.12184e-20
1.25583e-20
2.3666e-21
1.13889e-21
8.35328e-21
9.36472e-21
1.33646e-20
5.59027e-22
1.96861e-21
4.3376e-21
1.42153e-21
2.27481e-21
5.88063e-21
1.06937e-20
2.74287e-22
5.92633e-21
9.20819e-22
1.68999e-22
5.51864e-21
2.60649e-21
1.56564e-22
1.75773e-21
7.06027e-21
1.71019e-21
8.21358e-21
7.94048e-21
6.07231e-22
3.94178e-21
4.69929e-21
3.07784e-22
1.79761e-22
1.37669e-21
3.37085e-21
9.85651e-21
2.7681e-22
3.01118e-21
3.10288e-21
3.41093e-21
2.72645e-21
4.41249e-23
1.47923e-22
8.93963e-22
1.92316e-21
3.54074e-21
1.00201e-21
1.60181e-21
2.36234e-21
2.01629e-21
4.42908e-22
1.38289e-21
4.87938e-21
5.23598e-21
1.10162e-21
1.07089e-20
6.04178e-21
5.53729e-22
8.95898e-21
1.94415e-21
1.83409e-22
5.95254e-22
9.98183e-21
9.49569e-21
5.28758e-21
1.24243e-21
9.31859e-21
4.28238e-21
4.65398e-21
1.24856e-21
4.22055e-23
4.99013e-21
2.4578e-21
2.79495e-21
2.83117e-22
3.40277e-21
6.0381e-21
1.89711e-21
1.87554e-21
4.31331e-21
9.0581e-21
8.70385e-21
9.73627e-21
7.45695e-21
5.14367e-21
7.45476e-21
3.30285e-21
9.96522e-22
1.74181e-21
2.33328e-21
2.46475e-21
5.65446e-21
1.39992e-21
7.53464e-22
1.29431e-21
4.5438e-21
2.25836e-21
1.43258e-20
8.26377e-21
4.39976e-22
1.92623e-20
1.1724e-20
3.43131e-21
2.04778e-21
1.14503e-21
3.88022e-23
6.18396e-21
2.4255e-21
9.32003e-22
1.13958e-21
8.5702e-22
7.38022e-21
4.45119e-21
3.67607e-21
5.86619e-21
2.77649e-23
2.40078e-21
7.61642e-22
1.8169e-21
2.66465e-21
1.10451e-20
4.89476e-21
1.11535e-21
1.22121e-20
6.08436e-21
3.54956e-21
1.47356e-21
4.95003e-21
3.91694e-21
3.80189e-21
3.16594e-22
1.26745e-21
2.64178e-21
1.49577e-22
5.42133e-21
7.19739e-21
1.40921e-20
1.08089e-20
1.27608e-20
9.75341e-22
1.40792e-21
8.94533e-22
1.14885e-21
2.05739e-22
3.15481e-21
8.45877e-21
3.19769e-21
3.23774e-21
2.59642e-21
1.26412e-20
5.27119e-22
4.84036e-22
1.94264e-21
5.72567e-21
1.23454e-22
1.08937e-21
1.73565e-21
3.66237e-21
7.16667e-21
6.68975e-21
8.75413e-22
1.4737e-21
2.4072e-21
5.9978e-22
4.7451e-21
1.90975e-21
6.7666e-21
4.78773e-21
1.46048e-21
9.3684e-22
1.40822e-21
5.31313e-21
1.07077e-20
1.85388e-21
3.38382e-21
6.78611e-21
8.91934e-21
5.54346e-21
6.44838e-22
1.45939e-20
8.91649e-22
8.07477e-21
5.85764e-22
1.102e-21
1.22206e-20
1.64097e-21
6.13669e-21
3.24602e-22
2.01107e-21
1.12383e-21
1.05619e-20
2.64751e-21
4.18423e-21
2.96233e-22
8.01449e-21
6.47168e-21
4.6318e-21
7.04217e-21
1.364e-20
4.21331e-22
3.67195e-22
4.06897e-21
4.70539e-21
5.81816e-21
1.81835e-21
5.56612e-21
1.22851e-21
7.53355e-21
2.17187e-21
2.33405e-21
1.03337e-20
2.3189e-20
3.12792e-21
1.85366e-21
3.36958e-21
6.6016e-22
7.77856e-21
3.86665e-21
2.06615e-21
4.58701e-21
2.73076e-21
1.11155e-20
2.11286e-21
5.39046e-21
4.6932e-23
3.86073e-22
3.38628e-21
1.12426e-20
1.44003e-21
1.21831e-20
1.06935e-20
1.04095e-20
2.97503e-21
1.95249e-22
5.99828e-21
7.91074e-21
6.53613e-21
8.02559e-21
3.9415e-21
2.22082e-21
1.64549e-21
2.06214e-22
4.02478e-21
1.48727e-21
1.32666e-21
2.41366e-21
5.58907e-21
4.9638e-22
1.12209e-20
1.17431e-20
1.4731e-21
3.70082e-21
7.38475e-22
3.1434e-21
5.87759e-21
2.56361e-21
1.26254e-20
8.70387e-21
2.85803e-20
2.12624e-21
1.82171e-21
1.49051e-21
5.63782e-22
4.88913e-21
9.63097e-21
3.65247e-21
4.8697e-22
7.54894e-21
6.04794e-22
9.80708e-21
2.11021e-21
5.62263e-21
4.33646e-21
5.59007e-21
5.54436e-21
1.11969e-21
2.43033e-21
1.23664e-22
1.06864e-20
3.03645e-21
4.7416e-21
9.08314e-22
6.28145e-21
2.17372e-21
2.04572e-21
1.54553e-21
3.91296e-21
9.90965e-21
9.13731e-22
1.61865e-21
1.0878e-21
6.5584e-21
3.11598e-21
2.34547e-21
2.78952e-21
4.99004e-23
4.50548e-22
2.88162e-22
1.9561e-21
1.93951e-21
7.33954e-21
3.01164e-21
2.85828e-21
4.75773e-21
5.45251e-21
9.40111e-21
1.84421e-21
2.38347e-22
1.34577e-21
2.60909e-21
1.02804e-20
2.80883e-21
2.53442e-20
1.18053e-21
2.95792e-22
1.18987e-21
3.18827e-21
8.64442e-21
3.60814e-21
1.09729e-21
3.93006e-22
1.17287e-21
8.32737e-21
3.76506e-21
1.07799e-21
2.229e-21
2.68106e-21
3.65052e-21
8.37528e-21
1.14251e-21
3.40557e-21
9.46236e-22
1.17589e-21
5.50529e-23
3.81635e-21
7.64e-21
1.22652e-20
2.10317e-20
2.62644e-22
6.65708e-21
1.94524e-21
3.44412e-21
4.82294e-22
6.29339e-21
1.04552e-20
6.25525e-21
1.79257e-21
2.46985e-21