/*--------------------------------*- C++ -*----------------------------------*\
  =========                 |
  \\      /  F ield         | OpenFOAM: The Open Source CFD Toolbox
   \\    /   O peration     | Website:  https://openfoam.org
    \\  /    A nd           | Version:  7
     \\/     M anipulation  |
\*---------------------------------------------------------------------------*/
FoamFile
{
    version     2.0;
    format      ascii;
    class       vectorField;
    location    "0.00108/lagrangian/dsmc";
    object      U;
}
// * * * * * * * * * * * * * * * * * * * * * * * * * * * * * * * * * * * * * //


9176
(
(-602.706 206.969 348.36)
(-26.5906 -86.5885 532.495)
(-269.572 -112.919 524.959)
(56.7168 -54.418 -390.044)
(29.1778 -266.615 124.521)
(-1043.83 -259.666 -345.978)
(115.98 465.182 41.9933)
(-138.89 -269.607 -271.55)
(-788.652 217.665 -210.039)
(6.27348 -212.232 86.4353)
(-60.242 108.277 -106.284)
(338.891 14.7886 -76.7583)
(28.5482 145.948 191.97)
(60.1362 109.858 299.952)
(347.989 8.26301 185.906)
(-44.2878 -356.79 -403.082)
(123.954 48.363 245.31)
(-281.816 -76.0225 -473.263)
(-170.939 212.721 -733.971)
(-90.4937 -262.209 185.418)
(347.312 -355.975 -118.762)
(111.246 -121.309 -514.321)
(127.564 -81.0827 -2.0298)
(189.161 -378.82 42.7582)
(-31.1649 83.1423 -126.381)
(656.485 132.268 457.975)
(80.9895 21.3993 221.811)
(435.744 -78.2581 403.253)
(-41.3596 -390.15 63.819)
(276.939 -47.9009 46.515)
(-125.497 -148.496 -99.6283)
(78.8942 -480.176 164.169)
(443.509 -389.969 -194.167)
(-511.223 -805.737 -27.6331)
(-169.98 15.1493 -83.8793)
(-116.228 -3.52179 -40.4403)
(588.271 -526.204 398.211)
(-374.362 -214.304 -512.744)
(42.5465 -118.52 -22.1235)
(338.989 191.918 -22.1489)
(184.705 390.323 126.46)
(-3.56119 -280.535 119.534)
(-107.483 140.214 11.4721)
(-588.614 123.522 -166.163)
(362.237 73.9781 -30.9687)
(-160.909 -21.0884 391.88)
(-291.767 318.006 215.509)
(135.259 414.046 -465.16)
(-50.6778 205.558 -228.507)
(-23.7825 19.8522 0.197476)
(-217.148 329.559 198.918)
(206.183 337.366 232.69)
(117.914 -65.0605 -207.297)
(-147.507 403.138 -307.987)
(41.597 654.285 128.745)
(57.9919 -167.707 324.426)
(-488.714 100.421 252.991)
(-65.4563 403.234 -113.887)
(-112.676 -621.395 -180.222)
(48.034 430.463 456.22)
(238.137 -408.106 -7.32721)
(579.086 -174.211 -86.7845)
(-541.834 -15.1378 43.4288)
(29.2762 141.613 12.9459)
(-312.719 -464.884 85.0652)
(-848.642 92.2911 -137.867)
(-232.553 -402.134 212.073)
(186.88 11.3732 -8.9517)
(-208.979 -591.678 -133.161)
(696.798 -462.49 21.0866)
(-261.151 -207.877 -369.978)
(267.295 -45.8457 -224.274)
(-488.111 -212.86 -340.219)
(141.372 -90.0733 -191.529)
(77.5069 385.803 -110.397)
(-25.3049 104.313 87.2779)
(47.7118 196.412 278.237)
(-410.591 -23.2584 -605.251)
(-287.034 -370.222 -159.526)
(-254.611 168.524 -555.885)
(-333.527 -21.7325 560.545)
(-350.44 -110.1 302.214)
(-117.571 24.8608 44.2891)
(203.5 358.003 -620.929)
(-90.0216 -127.961 159.873)
(-236.025 -423.925 -104.991)
(174.728 608.745 149.113)
(109.244 3.20771 367.228)
(-26.3311 -114.617 -150.211)
(-53.7817 -653.738 -27.1898)
(533.4 -49.4958 -253.165)
(-242.196 -228.749 -59.8012)
(-511.983 -208.865 333.437)
(-123.925 320.828 -183.77)
(-191.582 -226.005 221.449)
(526.075 328.509 218.802)
(295.216 330.478 -107.21)
(-249.192 -360.448 -286.815)
(256.822 194.531 -510.81)
(-152.788 -553.901 -172.629)
(146.55 338.285 366.596)
(-297.473 -73.6146 77.4262)
(89.3049 59.1819 -653.033)
(297.737 -470.624 440.067)
(-279.812 -238.632 139.837)
(-29.5265 -196.65 -532.382)
(874.772 -383.533 378.641)
(129.321 261.196 -131.561)
(54.601 65.9222 -534.162)
(37.3958 -37.3778 -114.379)
(245.371 -117.796 -427.682)
(-229.479 196.264 213.807)
(-33.6851 -25.067 -331.44)
(-214.635 585.029 88.1162)
(39.3885 -266.248 -529.787)
(139.928 471.568 95.5338)
(-392.3 35.1409 -431.129)
(86.0802 307.777 -179.878)
(142.187 182.773 -379.553)
(-362.901 238.329 -352.189)
(130.335 330.24 335.897)
(459.058 280.467 -15.8661)
(-180.67 135.722 406.06)
(150.872 -460.49 719.105)
(-53.8922 -304.737 221.703)
(267.308 243.824 -28.9295)
(-291.514 268.279 -210.366)
(-29.9526 -583.571 -413.435)
(307.958 51.3938 -225.935)
(-185.932 -432.784 229.716)
(575.306 155.565 -678.524)
(-148.014 34.0124 -218.161)
(-182.411 514.63 -716.552)
(184.851 -292.811 443.485)
(78.1957 245.084 42.5948)
(-10.417 115.081 18.4547)
(565.045 288.724 432.749)
(42.8825 -606.488 671.238)
(80.8714 79.7387 -191.336)
(56.2296 -351.707 -137.338)
(-233.908 -1131.74 -22.6013)
(-353.621 -250.083 89.0223)
(31.4216 -264.378 -694.493)
(632.481 -219.569 125.705)
(-36.8539 160.427 384.934)
(-106.043 -505.096 -710.214)
(-202.37 235.343 260.678)
(-100.402 146.168 -107.4)
(304.244 242.196 645.074)
(-290.765 225.917 771.763)
(317.985 99.4458 45.8366)
(280.244 -96.4822 -373.814)
(93.1742 286.543 182.528)
(189.134 87.1332 353.853)
(144.009 144.632 6.82071)
(438.837 77.1883 453.098)
(-305.774 516.739 25.6942)
(549.226 87.1196 424.002)
(-276.478 -653.824 579.775)
(636.366 375.673 422.454)
(-152.513 3.44557 -109.312)
(150.163 -169.294 22.0866)
(-275.148 -193.152 1.20365)
(122.34 50.3565 -90.6142)
(-10.1441 36.9245 -435.442)
(-123.671 -322.826 -186.493)
(-231.722 400.096 -223.215)
(-730.552 166.651 137.624)
(-225.662 -576.898 -290.198)
(63.7399 -417.491 284.206)
(321.03 286.562 -391.587)
(-255.278 104.124 -188.913)
(-258.44 177.635 -143.794)
(-157.262 -223.597 250.474)
(-22.3855 273.739 377.451)
(198.003 -250.74 199.691)
(0.426747 20.3779 -161.187)
(524.419 444.02 325.374)
(34.5054 312.203 -355.757)
(-374.414 406.067 -174.217)
(9.16938 90.2381 -507.774)
(-556.641 528.588 -19.0744)
(-17.7396 446.438 -27.662)
(2.3946 47.6615 171.893)
(-70.3132 -99.1692 -490.709)
(218.051 202.359 237.455)
(62.8903 112.48 136.678)
(-25.8036 -264.934 35.4721)
(-192.737 -254.787 282.114)
(-211.465 542.855 -539.171)
(-312.751 713.775 85.3892)
(114.562 -277.03 6.23459)
(-137.108 -53.0403 -242.33)
(-342.262 573.835 -675.359)
(128.434 -264.137 156.124)
(348.957 34.0532 576.473)
(169.963 165.241 40.6631)
(-106.65 57.3877 -152.404)
(35.6324 57.9257 -111.803)
(-210.046 -299.359 212.001)
(-426.419 252.631 74.4515)
(-184.197 -65.3648 181.034)
(-85.3287 475.2 -251.236)
(-82.6305 -507.68 -186.299)
(64.4788 -202.683 -108.232)
(-93.6222 -29.8401 408.003)
(-119.525 67.1702 -110.379)
(-175.471 -132.177 -116.069)
(288.882 -254.634 -69.0624)
(339.515 -87.74 -51.193)
(275.404 314.479 226.08)
(-487.467 751.938 -293.974)
(-255.121 396.09 388.844)
(213.622 392.252 -308.851)
(170.618 704.824 -472.899)
(100.059 -351.725 -189.144)
(-43.5374 -470.555 -92.5008)
(-69.5327 177.911 -99.4497)
(484.502 68.8481 752.404)
(-36.1629 -74.9902 -44.2796)
(609.24 -251.704 384.748)
(269.635 427.434 -50.3069)
(169.593 176.209 45.558)
(-87.1454 41.4307 -70.3266)
(187.743 109.845 247.647)
(-327.349 -113.096 -69.7922)
(-637.161 240.075 -497.981)
(218.379 -323.194 -370.962)
(-15.301 48.3421 477.185)
(-174.462 232.807 -112.32)
(16.559 -401.663 -217.867)
(593.242 -680.638 128.105)
(68.6029 35.0064 -85.3034)
(-232.061 20.6853 22.1539)
(34.8652 225.631 34.2465)
(-328.932 -120.399 -119.876)
(-25.1241 325.357 65.0531)
(16.9044 118.358 52.6382)
(315.314 -192.959 -720.713)
(-220.763 52.8199 227.059)
(-69.3652 -331.281 387.11)
(349.152 9.65745 397.129)
(-102.945 -388.846 -205.431)
(293.21 -58.8778 -501.838)
(-407.938 -256.36 660.738)
(-33.6876 -33.9381 -280.305)
(-36.1855 180.271 -112.801)
(-163.733 505.061 402.712)
(12.6385 160.356 128.061)
(-94.3606 -143.943 148.579)
(234.334 -74.24 -294.241)
(-152.384 -188.007 472.546)
(15.1902 182.482 223.822)
(158.984 151.448 -569.312)
(-34.2866 458.864 226.409)
(5.36977 -153.641 -239.988)
(1.68585 375.55 -80.6834)
(90.8483 412.283 -202.296)
(-85.0147 -120.136 -305.414)
(-335.189 55.0107 158.084)
(-511.459 -89.9078 331.037)
(98.0604 -353.295 49.5832)
(-91.5647 532.826 109.147)
(591.482 111.791 25.2481)
(-524.281 -354.649 -31.6775)
(-480.683 323.931 -491.21)
(-64.6304 -137.457 351.765)
(-266.227 -82.6957 -10.9593)
(268.548 168.586 180.574)
(-80.2393 195.918 219.026)
(-81.3803 -651.224 -532.674)
(132.604 -453.779 -258.737)
(8.4175 -126.367 528.147)
(-183.884 541.677 454.756)
(-96.1818 3.80126 237.844)
(-241.791 209.236 119.103)
(-327.344 119.65 120.756)
(-291.584 -359.48 355.996)
(47.58 347.456 42.0843)
(130.942 29.2038 -414.696)
(-222.434 -99.8769 -143.336)
(-227.918 40.9179 -300.781)
(-362.041 -122.523 -566.905)
(213.809 -265.379 105.858)
(614.283 -183.03 530.873)
(88.4393 -288.249 -158.693)
(594.747 -56.594 301.192)
(197.512 -28.7492 -162.872)
(-224.842 370.575 210.063)
(287.17 -648.846 533.002)
(-144.114 -491.364 102.088)
(-132.727 462.169 -434.481)
(467.99 82.1115 -257.354)
(-27.9292 -190.577 53.7944)
(65.0344 71.8028 43.4759)
(-514.781 -87.7077 85.4161)
(176.634 64.7421 659.492)
(201.179 532.919 5.51718)
(-505.535 -94.4386 163.269)
(378.397 -302.83 81.9318)
(-935.284 -161.634 -482.758)
(-20.4941 416.468 -232.258)
(299.868 72.6437 -530.875)
(167.848 -172.266 -285.706)
(-120.776 387.176 -437.484)
(-54.4406 221.782 -389.29)
(-196.21 363.516 -27.6867)
(286.519 -441.374 -18.5463)
(229.164 -5.6627 52.2992)
(-107.315 -309.19 6.90882)
(-172.465 -416.442 122.809)
(130.744 -98.3243 286.495)
(-65.657 -89.1551 332.337)
(258.782 -439.464 -234.421)
(655.764 160.274 502.282)
(369.627 161.359 207.282)
(-365.229 -164.931 -279.444)
(851.438 415.117 562.918)
(296.412 -319.726 -695.063)
(-242.109 377.602 283.052)
(389.258 -550.68 332.318)
(550.411 -255.684 275.661)
(-153.03 707.448 257.933)
(-151.246 154.386 423.863)
(-442.165 192.921 209.223)
(94.5331 486.719 40.5241)
(-32.7659 155.908 713.322)
(62.8908 5.30813 -134.777)
(-62.3505 -204.748 -579.586)
(422.09 -104.468 -421.91)
(348.153 -174.897 -617.312)
(577.321 -98.3803 244.607)
(261.626 459.218 -149.353)
(66.4006 -231.263 -33.2092)
(-13.4653 450.373 18.7018)
(136.687 -241.403 -110.055)
(-130.788 -125.365 269.506)
(657.841 -28.8164 255.48)
(-20.2317 171.329 -408.839)
(-363.096 78.2285 -38.7747)
(81.4891 -195.743 -157.604)
(-199.831 -347.316 -199.271)
(125.192 -53.3592 186.463)
(369.477 232.546 -375.555)
(474.782 118.274 295.06)
(-564.002 -88.6334 623.147)
(138.722 -116.926 6.55977)
(272.856 -563.826 -218.239)
(-194.825 -433.78 422.052)
(-58.2618 445.313 -92.3444)
(46.2419 501.115 555.534)
(-213.315 107.7 -390.459)
(-344.514 345.173 -230.033)
(-67.803 -188.367 393.669)
(-41.8458 -475.304 -17.2018)
(236.964 -39.3854 -67.148)
(-25.1012 279.847 -382.508)
(200.819 282.839 29.172)
(243.612 341.44 602.785)
(-180.735 -243.871 -148.064)
(102.726 564.877 217.855)
(35.3819 -121.953 -334.84)
(267.647 -112.182 45.5306)
(4.32033 -453.421 353.914)
(-568.923 197.601 -528.335)
(-602.147 -178.558 194.18)
(-59.1836 -223.705 -140.331)
(-309.188 -112.832 256.142)
(102.857 -410.208 -369.113)
(285.416 -136.881 -24.6945)
(411.509 422.352 230.925)
(-17.6809 60.806 262.56)
(-9.35802 -173.029 229.596)
(351.766 -369.931 -204.016)
(411.36 -42.2648 90.5976)
(138.031 -9.4318 97.494)
(191.406 398.187 393.238)
(40.422 226.166 -252.522)
(27.4301 -63.6034 -117.556)
(195.039 87.4009 380.21)
(-370.412 -389.503 -14.9888)
(-119.719 527.571 -547.111)
(-275.296 -143.487 51.7488)
(-614.78 379.522 10.9717)
(606.834 -277.838 569.507)
(433.638 176.752 185.259)
(425.488 257.265 -195.208)
(315.442 -378.772 -28.7669)
(108.881 -140.038 324.508)
(-141.491 198.531 -472.861)
(-62.8148 -469.266 -279.318)
(-131.527 -75.8433 -156.914)
(-172.416 -0.716906 647.498)
(407.887 333.297 68.3456)
(-159.684 211.582 -449.741)
(-535.247 -241.86 273.143)
(46.7956 -357.368 38.8698)
(-301.207 -255.378 223.531)
(-348.6 -348.417 349.103)
(-555.547 -238.298 28.2252)
(-7.805 -48.841 240.49)
(55.0851 46.0063 87.5488)
(-119.1 -113.873 -513.546)
(-413.384 227.327 -46.5762)
(9.66054 -293.45 296.184)
(744.448 37.6729 -136.291)
(-251.316 66.6407 -81.6038)
(62.0762 488.664 44.3996)
(384.132 658.74 -2.61769)
(-430.776 -212.124 -247.583)
(352.676 125.612 -165.158)
(-3.22055 90.6581 -727.623)
(88.6351 167.713 81.0267)
(-140.748 -24.644 -410.587)
(-173.871 -477.431 -80.8723)
(-72.4215 -26.7414 23.6883)
(-567.255 192.212 -293.011)
(-84.096 -10.4128 56.2526)
(-306.837 -648.449 -17.8626)
(-88.7489 181.746 542.432)
(295.506 250.925 -278.67)
(-485.11 -283.912 -143.904)
(-147.18 -48.156 83.8047)
(454.64 -162.169 -61.9301)
(228.8 79.6494 -529.034)
(-197.598 208.909 -172.471)
(742.807 -197.232 -4.59068)
(-33.9532 624.363 150.332)
(-540.752 -371.356 347.371)
(-41.2064 118.665 176.031)
(271.381 -256.987 -167.505)
(-368.232 173.786 97.5787)
(-306.19 -43.1749 -118.037)
(-199.292 -247.466 142.567)
(319.753 80.2495 113.228)
(198.645 199.317 103.092)
(213.746 293.999 294.89)
(64.146 379.014 203.563)
(-297.754 365.352 123.25)
(-184.799 -156.284 -378.502)
(-377.472 -30.4659 -227.444)
(-330.09 -7.39538 13.039)
(213.331 -294.759 196.698)
(61.1614 30.1994 -387.116)
(-480.663 -183.538 78.5503)
(-644.949 -134.279 267.297)
(-351.347 -41.151 -315.813)
(186.229 -409.284 440.176)
(106.827 207.938 231.044)
(341.534 -493.586 -287.811)
(-268.058 168.628 431.725)
(296.065 575.809 270.747)
(346.646 187.861 -503.713)
(198.188 -573.734 -190.544)
(-371.738 591.322 232.753)
(336.583 -178.378 -174.697)
(326.793 -193.114 -290.315)
(-425.11 135.41 56.3411)
(82.3015 527.434 -384.776)
(415.808 169.035 100.146)
(-82.605 319.403 121.396)
(-249.549 -248.528 -411.363)
(289.257 -202.615 -282.279)
(118.122 425.397 27.8528)
(328.37 -410.051 -431.519)
(-23.7621 -198.583 -0.118497)
(-109.321 212.707 -500.978)
(-83.3164 223.474 0.541522)
(-462.365 -409.598 55.5966)
(303.549 238.443 -466.648)
(367.852 -205.293 -179.201)
(-255.243 67.0259 -76.6534)
(-267.894 381.123 27.5643)
(5.61058 292.163 152.241)
(-49.4612 127.164 78.7114)
(277.529 -297.706 121.522)
(240.35 -82.9427 141.811)
(-122.698 -133.586 -64.5691)
(402.771 198.535 163.709)
(-6.59789 -78.8135 410.486)
(-678.709 -10.0136 398.243)
(-28.981 -541.323 -449.127)
(74.7144 749.793 -8.32528)
(403.56 350.364 -248.191)
(-454.606 -758.669 -253.631)
(137.126 -197.47 21.4506)
(146.258 262.789 -92.1082)
(-288.153 121.577 0.129558)
(-111.08 -266.215 -162.306)
(279.89 271.599 -245.557)
(-115.135 258.132 -79.329)
(-437.141 535.725 186.661)
(62.3373 -150.753 426.913)
(-15.6093 -254.528 -127.436)
(31.485 242.905 -211.426)
(-0.194247 -113.951 167.73)
(96.0087 316.876 253.777)
(-333.373 -422.15 -47.0064)
(47.6796 309.666 490.083)
(89.5631 -489.21 -282.322)
(34.0312 298.583 -217.275)
(-113.6 128.29 -179.851)
(-234.485 69.5753 288.014)
(92.7917 131.246 42.3907)
(169.006 -43.3981 -77.7255)
(494.536 -564.284 -84.6414)
(168.838 -206.083 -168.075)
(-349.637 247.235 -457.22)
(81.9754 275.16 -651.208)
(395.078 -496.97 -41.5209)
(-195.646 -414.595 243.061)
(132.32 -131.727 80.9441)
(-210.74 285.422 -64.0983)
(-174.942 59.192 67.4286)
(-283.589 107.13 309.386)
(574.323 282.108 209.912)
(-438.047 -224.09 61.343)
(42.5723 -17.4264 -384.03)
(-143.793 -241.044 -297.115)
(-177.94 -155.133 -462.3)
(498.649 -327.488 246.056)
(254.888 -33.4367 -92.86)
(-313.432 173.655 -78.3067)
(157.931 -196.875 -558.502)
(105.917 381.252 266.944)
(-64.1744 -169.778 -58.4555)
(-181.943 -236.432 196.287)
(-419.261 319.263 459.891)
(-49.475 -118.14 -388.082)
(-337.918 439.546 109.661)
(-345.971 -531.343 -53.0023)
(-165.329 88.7534 -334.44)
(442.095 241.468 411.541)
(-436.731 209.279 -15.4104)
(117.919 206.578 166.206)
(-366.209 -116.894 -216.175)
(40.4834 -250.798 -114.504)
(-580.408 -33.1201 -65.3217)
(-320.591 -159.065 148.123)
(-68.8859 670.261 -274.352)
(204.961 319.445 98.954)
(554.775 -448.547 -147.974)
(-595.772 296.852 -220.768)
(-2.31614 -12.9657 -281.103)
(-180.8 -151.573 -54.5046)
(-261.092 86.0531 -390.142)
(-90.7654 16.8801 -155.592)
(219.155 -46.4149 10.1184)
(-168.169 -121.972 345.225)
(165.352 147.09 151.19)
(419.702 350.954 -172.186)
(277.304 188.951 67.5016)
(-160.232 371.109 -167.064)
(-33.3872 -1026.37 51.2907)
(128.793 178.124 -91.8769)
(294.192 -185.699 347.03)
(-44.3142 -329.176 300.135)
(-105.893 165.935 -345.088)
(-140.653 -264.32 -48.675)
(305.892 252.401 -428.163)
(-106.75 -306.692 -102.228)
(25.2295 170.283 -125.697)
(-642.508 310.689 273.427)
(-370.128 -21.3633 38.655)
(-181.426 -342.767 730.599)
(-104.376 422.684 72.23)
(3.27706 -224.8 252.622)
(-453.105 -195.778 -506.333)
(-120.178 253.506 -13.9894)
(353.562 222.113 -178.533)
(631.961 130.89 -459.763)
(-191.411 -384.596 -506.25)
(158.54 -536.205 821.873)
(-407.245 -2.15493 -432.33)
(-141.36 -468.665 -139.753)
(101.733 -75.3033 225.111)
(-39.6936 25.6505 -142.374)
(229.808 137.645 563.998)
(189.308 -176.617 12.5594)
(-392.482 129.408 -285.218)
(544.458 92.6419 -1041.1)
(-65.7754 84.4309 335.18)
(91.5588 166.312 61.2588)
(-704.51 95.99 -99.2443)
(16.4048 199.073 84.1985)
(232.218 484.52 9.68546)
(58.2863 -208.763 -127.253)
(-9.92864 580.168 -327.53)
(56.3425 -153.063 -173.519)
(-239.526 224.052 -86.2524)
(217.102 -146.173 108.185)
(518.642 286.998 -170.869)
(60.8011 208.479 -179.41)
(-319.459 -48.1266 -168.149)
(575.351 92.7725 187.549)
(223.829 87.7305 -11.6428)
(-82.7939 -539.204 -102.598)
(-241.237 152.284 -734.735)
(-548.34 498.818 703.169)
(-374.527 -390.352 -68.9287)
(-44.284 186.738 493.338)
(-139.068 58.0442 -87.4356)
(551.328 -554.205 -94.7897)
(-236.553 426.543 -100.594)
(69.1119 201.058 39.5025)
(639.454 -240.264 62.8246)
(172.363 229.604 -98.3624)
(33.4555 193.121 -292.71)
(118.613 41.6286 -413.165)
(549.322 56.4028 -90.9396)
(370.184 -553.773 132.541)
(147.338 94.7391 -289.035)
(81.8979 -47.1405 41.2381)
(-262.317 -151.602 -549.39)
(-251.43 -161.833 -389.026)
(423.304 344.691 337.961)
(476.136 303.142 155.564)
(-412.086 290.567 413.417)
(-616.123 -605.088 85.8655)
(635.222 374.729 -223.699)
(167.607 281.509 -272.243)
(206.015 210.583 -314.552)
(-217.675 9.88609 240.46)
(-16.1646 447.279 -187.576)
(-353.372 140.08 -357.776)
(-751.95 -419.076 98.6262)
(118.371 -166.726 -156.456)
(305.042 -288.281 52.2608)
(37.6453 -168.904 -148.224)
(-355.856 453.17 -159.514)
(410.586 -319.993 -260.803)
(392.041 -252.341 -149.581)
(58.9205 -86.3236 272.783)
(234.896 151.799 -100.488)
(780.475 302.105 -703.496)
(11.5348 -276.401 203.708)
(91.6348 -212.467 -193.006)
(-224.344 -89.9172 -59.016)
(59.1272 164.875 486.325)
(-183.894 301.639 341.716)
(392.884 479.968 225.057)
(139.779 122.865 -446.126)
(112.122 154.594 -198.169)
(279.36 -444.514 -120.985)
(-408.947 -58.3099 176.584)
(38.7685 -190.499 499.522)
(-137.858 442.846 -166.987)
(466.297 97.0067 -409.34)
(-576.567 -301.738 325.149)
(-178.873 -238.93 -49.2226)
(168.402 154.234 203.231)
(23.9301 -35.7216 -185.409)
(-101.963 104.772 -364.324)
(-24.6255 -181.296 290.033)
(57.107 -226.395 398.757)
(-336.95 -92.7415 -153.44)
(469.035 -147.625 558.067)
(206.3 562.057 407.576)
(97.2657 -220.468 15.222)
(718.401 -8.79071 154.508)
(413.694 -90.313 111.888)
(-209.842 93.4942 151.796)
(906.76 -525.471 31.5799)
(-40.2392 -182.29 26.4881)
(-195.298 -267.359 -799.264)
(-126.051 -442.377 -265.895)
(240.701 -34.5875 -149.674)
(416.64 201.97 120.268)
(-368.859 295.417 195.795)
(-245.165 227.464 160.095)
(16.7798 52.7504 -340.226)
(231.024 418.117 -131.87)
(172.448 -321.417 -84.2103)
(-193.947 -58.9868 -584.119)
(-166.147 -81.2638 204.197)
(100.781 -88.1785 101.277)
(93.9649 231.71 -365.324)
(-114.212 523.605 105.441)
(67.7482 267.126 -76.579)
(-88.3438 -205.573 295.076)
(54.0895 -228.605 411.415)
(257.552 -278.529 -690.276)
(178.631 88.8491 -246.938)
(357.239 -7.00252 -118.24)
(-70.6463 44.825 304.142)
(-289.738 72.7954 -536.121)
(-151.816 7.17841 -54.7568)
(-173.591 -599.192 75.2514)
(405.406 466.182 297.779)
(-40.8714 682.553 -713.682)
(-252.056 63.9873 -152.96)
(543.548 -166.042 -141.226)
(-353.982 -233.583 -149.591)
(191.638 -795.231 163.238)
(206.663 114.949 -60.3973)
(381.395 -480.386 -107.511)
(-161.869 292.068 265.579)
(199.59 -108.334 -64.9136)
(458 923.928 -221.132)
(98.4884 -46.715 519.24)
(368.014 -8.05396 -327.505)
(-98.5082 34.3667 -22.1179)
(449.82 -306.332 -204.673)
(358.114 -138.477 70.56)
(58.2647 -442.317 126.736)
(-505.22 51.5243 197.453)
(-44.966 -66.5932 -262.957)
(-336.205 77.7263 280.494)
(29.6904 555.731 340.077)
(-91.2233 431.415 178.034)
(-2.35393 -618.935 -242.033)
(-67.7211 408.87 57.289)
(-480.021 639.722 246.497)
(153.199 198.616 -637.365)
(-216.663 210.927 427.097)
(145.734 129.309 529.407)
(132.906 -708.948 -135.728)
(389.297 -347.115 -51.4363)
(-10.6345 -101.836 -122.885)
(-729.567 625.338 -383.568)
(-65.2139 -337.497 -92.1022)
(-202.228 -111.023 -14.7405)
(61.5556 -267.487 -280.956)
(335.408 227.864 -247.363)
(386.235 -21.2646 214.13)
(-134.832 -274.642 -628.074)
(111.79 -8.53905 453.593)
(-69.1787 -118.147 9.885)
(246.364 -280.776 -225.22)
(-548.792 272.946 235.457)
(-584.461 77.938 72.5378)
(104.119 44.7801 -33.8268)
(104.597 243.204 255.478)
(-179.677 -92.3158 85.0243)
(-493.693 546.331 -55.5723)
(-92.1743 105.596 -175.994)
(0.0583284 821.741 302.345)
(66.3033 -387.246 -216.549)
(486.175 -415.144 -300.71)
(-12.9156 -9.46254 59.2217)
(38.6073 -62.4468 -149.934)
(47.2594 172.85 -80.1048)
(-554.674 243.204 612.914)
(-44.0282 396.794 -70.5297)
(-25.66 -214.082 -338.948)
(-266.702 418.521 301.395)
(305.821 255.973 -378.45)
(-124.299 -145.576 -762.566)
(131.592 -164.491 -263.19)
(403.804 -167.488 -528.341)
(-87.77 -139.463 -166.813)
(-24.0908 371.861 -149.847)
(214.045 409.868 -147.637)
(-128.887 337.224 330.03)
(760.068 215.427 67.3584)
(-128.272 157.431 -345.064)
(109.085 -111.174 -147.757)
(150.853 840.446 -223.494)
(-193.211 -123.585 597.283)
(-763.424 -179.519 283.132)
(86.5982 -211.463 -91.9108)
(-589.584 429.904 -346.515)
(144.372 -353.661 -277.971)
(232.747 -300.046 -209.041)
(-68.2549 268.289 -354.896)
(-240.561 -112.592 479.915)
(109.582 -64.9542 524.693)
(-139.48 415.538 153.904)
(-62.2173 261.764 519.98)
(201.806 277.894 -179.057)
(-143.677 407.926 121.031)
(258.423 892.208 -434.884)
(49.2501 -13.5379 161.466)
(317.094 -340.809 397.332)
(-227.428 -265.08 -114.62)
(-183.419 226.182 313.393)
(181.478 -588.609 126.289)
(-230.188 -46.4351 216.574)
(285.165 138.873 319.248)
(351.53 -93.7954 -241.346)
(205.536 -60.8987 0.730909)
(13.5214 312.753 -47.2298)
(-163.575 -426.497 198.351)
(205.938 -68.7515 -235.973)
(116.607 268.213 -249.03)
(394.7 180.913 184.548)
(-13.6593 -313.649 411.689)
(2.83213 -126.294 48.1377)
(442.624 -457.901 -339.695)
(419.155 -70.4525 -87.7519)
(-158.398 -502.882 -76.1083)
(335.171 91.5442 351.377)
(-83.1122 659.389 331.196)
(-254.011 166.612 38.5278)
(-289.662 -172.809 -93.1561)
(10.3756 72.2391 110.778)
(-375.992 30.3676 -135.905)
(187.559 -98.1829 9.98998)
(24.6759 -982.679 566.369)
(53.767 -291.06 -235.168)
(261.99 443.094 58.5185)
(318.3 -80.5008 -87.1745)
(-121.439 129.625 -24.0441)
(112.411 65.5021 -7.24337)
(103.409 116.629 -205.285)
(392.346 -213.93 -268.195)
(183.757 370.55 -214.551)
(597.533 30.755 -192.998)
(-241.687 -100.304 -25.0222)
(196.78 663.795 -89.0227)
(6.67494 -102.544 -164.577)
(448.344 349.285 253.915)
(334.531 -509.202 445.583)
(119.337 271.043 352.569)
(147.21 53.4286 -261.1)
(102.527 249.655 650.91)
(-229.072 -39.8798 473.779)
(-562.829 48.9519 -268.937)
(196.146 401.526 653.607)
(-291.987 277.033 -184.322)
(29.239 7.32551 -347.142)
(-116.071 -513.509 -62.5032)
(-41.594 -432.892 123.913)
(-371.923 -223.155 -30.6582)
(-441.852 236.782 -240.179)
(8.37587 -360.414 -843.906)
(122.429 45.554 91.9275)
(323.31 -13.8658 187.006)
(163.213 209.027 -573.083)
(152.436 -70.8231 137.41)
(167.481 -95.9897 -25.4114)
(-390.335 32.4716 137.518)
(13.343 -730.786 69.176)
(81.0323 -87.2311 14.4056)
(404.585 262.833 273.985)
(74.5883 295.676 -188.12)
(703.271 -624.183 -334.712)
(211.638 532.348 -384.998)
(332.765 284.944 -868.587)
(-405.009 117.485 -344.991)
(-58.5095 234.418 -414.029)
(-85.1519 389.506 207.233)
(-98.4136 137.076 228.407)
(37.7566 40.497 -6.71597)
(7.76842 -266.581 271.254)
(124.894 -131.7 -233.054)
(-542.785 -337.876 44.5495)
(-128.942 244.12 447.744)
(-389.544 -80.8358 -28.9347)
(-68.2521 86.3936 -602.075)
(179.902 40.3031 419.038)
(213.765 -406.165 -109.048)
(-395.615 -170.587 461.514)
(204.66 -183.29 170.608)
(12.517 189.93 200.041)
(-537.128 -347.364 -230.937)
(-25.9546 497.426 41.266)
(124.778 32.9955 427.911)
(-219.313 -445.48 608.006)
(-157.321 -359.057 185.368)
(-422 47.5874 395.765)
(203.271 322.407 13.1071)
(368.621 145.002 -269.774)
(-384.323 308.887 -421.332)
(-260.043 37.4037 94.896)
(294.63 -108.621 78.3215)
(447.005 -202.392 -65.1794)
(-333.063 -169.467 -106.005)
(-249.78 170.148 117.205)
(-205.081 -395.18 -206.929)
(117.525 68.8593 136.374)
(227.702 -215.4 -259.908)
(-5.33413 -45.8432 644.044)
(-589.762 221.15 -256.074)
(202.227 -339.5 294.298)
(13.5308 128.424 -103.682)
(555.111 177.145 21.3546)
(-163.939 191.369 -151.801)
(-246.692 109.559 -186.944)
(-590.859 -46.213 187.587)
(274.891 -136.836 -537.749)
(-79.9064 249.95 393.35)
(-207.577 303.078 -311.059)
(641.828 66.0821 -168.043)
(352.959 240.875 232.845)
(74.5711 203.489 -438.011)
(-579.874 9.08579 -43.4798)
(-130.638 -393.171 -482.138)
(45.4852 -232.857 143.952)
(-15.1384 -348.211 -220.588)
(-101.909 -482.239 92.9074)
(266.451 -369.751 276.103)
(439.692 -49.0197 178.049)
(-4.01089 -47.2094 -84.2595)
(129.61 229.511 375.705)
(567.529 -184.538 -296.841)
(37.5815 606.378 -31.7137)
(54.9069 155.915 -522.707)
(36.8193 216.033 109.637)
(-50.5943 7.32109 -492.462)
(-281.146 80.9036 508.437)
(-609.253 178.449 -46.8601)
(-431.991 -102.447 439.365)
(286.525 144.894 -296.566)
(-607.177 28.3097 -163.634)
(65.6527 186.855 118.995)
(17.264 167.069 -363.435)
(-555.51 -578.353 416.37)
(-942.198 -369.054 315.481)
(306.214 143.968 -395.065)
(80.0676 -513.599 205.37)
(-79.426 -348.724 -273.443)
(349.62 13.5844 -224.954)
(-86.2962 505.002 46.5405)
(-573.145 456.816 58.6)
(-535.91 70.4452 283.631)
(-456.845 253.229 47.6492)
(-738.417 -90.9246 -58.9373)
(460.223 42.0434 299.946)
(167.612 187.51 210.018)
(271.906 -493.678 -346.818)
(-106.098 -120.016 -356.581)
(211.49 242.035 265.674)
(260.721 -350.606 52.4915)
(18.1445 253.91 560.706)
(-325.713 -274.503 -355.241)
(-355.606 -171.78 -517.448)
(12.7438 614.88 -281.651)
(-35.7928 75.4729 107.154)
(46.4346 -17.9655 -504.981)
(107.768 -503.825 -124.881)
(4.76991 -55.9553 214.763)
(379.073 409.512 455.208)
(-186.746 168.858 326.948)
(-42.4748 -262.889 -243.194)
(-163.199 323.433 179.063)
(356.903 -174.918 -53.2587)
(17.1184 120.229 -209.002)
(-392.456 14.9807 -147.787)
(301.219 70.6233 -160.21)
(708.557 435.967 -47.0839)
(283.634 -61.0802 -180.766)
(-129.041 -342.883 -189.131)
(-76.8513 -287.196 -77.2402)
(-215.809 -40.2912 332.472)
(-208.38 603.118 48.607)
(-79.138 -185.306 281.607)
(-309.18 113.023 -836.136)
(240.824 -492.671 20.6961)
(-543.901 -306.823 -254.112)
(-208.179 49.633 -270.265)
(-348.217 -155.077 -201.541)
(161.778 -725.133 -0.0547795)
(364.607 -49.304 51.6835)
(384.031 -319.575 -206.777)
(185.339 -219.029 48.7199)
(-2.37207 -328.168 231.648)
(-355.717 -458.622 59.8987)
(-118.03 321.541 -225.527)
(-167.54 -23.2631 -424.058)
(463.868 23.6452 -303.512)
(189.698 -236.144 6.94934)
(391.545 86.4064 96.2173)
(334.103 174.922 -10.5182)
(518.259 416.555 -63.9286)
(-244.286 296.685 381.661)
(462.72 288.879 -141.928)
(-250.635 -181.98 442.818)
(215.079 374.175 660.775)
(-142.493 -53.1874 -95.3172)
(46.8778 -284.507 -201.087)
(-81.0078 -386.367 -95.1573)
(18.559 -90.7356 -420.805)
(261.69 86.0794 315.717)
(-333.197 -149.792 -103.799)
(504.259 142.164 161.226)
(167.017 -606.515 -118.818)
(452.182 -812.711 9.37856)
(-81.0272 445.986 -198.147)
(-376.517 269.097 -225.291)
(-34.1934 217.512 -612.852)
(344.078 -321.424 -242.29)
(30.9525 -200.639 163.731)
(-170.841 -15.3664 -227.307)
(266.668 266.969 -289.457)
(81.1221 -309.468 -73.533)
(-141.137 728.934 351.569)
(-436.165 -53.6419 -78.7983)
(173.019 192.717 16.3131)
(-285.651 127.672 201.584)
(-285.783 -191.138 124.715)
(25.0887 170.156 236.042)
(156.836 166.923 -184.113)
(214.345 -167.248 22.7761)
(-227.416 25.9192 201.22)
(-184.166 -261.89 10.3807)
(-251.022 556.75 202.756)
(-359.289 422.921 227.442)
(331.685 -161.761 130.218)
(71.841 -177.697 286.163)
(576.939 225.054 345.267)
(-157.114 19.2428 137.159)
(49.79 629.098 366.623)
(-61.6261 -69.0283 42.0344)
(175.013 430.242 -234.571)
(40.983 -302.643 -244.291)
(309.608 23.4824 761.904)
(-187.847 -357.818 -121.474)
(192.87 280.5 207.223)
(271.914 55.5709 352.606)
(191.582 134.109 28.6263)
(25.8946 56.6698 -12.0584)
(9.84654 -85.0077 199.515)
(-482.442 -229.359 170.697)
(-470.937 -239.902 -125.942)
(312.239 -193.453 379.061)
(-205.413 536.673 466.779)
(55.9358 406.817 122.931)
(-154.199 20.6187 -296.745)
(-234.188 -54.2282 398.078)
(-132.056 -71.4098 -261.609)
(-113.656 301.866 31.0168)
(341.557 -163.545 -31.7192)
(27.9423 -220.306 629.155)
(-235.766 58.9207 -187.348)
(41.5128 175.542 -356.386)
(448.441 129.734 407.726)
(-239.384 -10.3652 198.252)
(-125.322 -121.146 294.452)
(239.355 354.96 81.3864)
(216.62 75.6662 305.32)
(176.58 -269.087 100.205)
(-335.925 -222.981 -485.541)
(267.375 -405.996 346.765)
(469.844 254.735 166.444)
(-66.0228 -129.834 -357.396)
(-125.289 -157.205 16.704)
(-8.97557 114.21 333.499)
(772.392 342.981 102.776)
(473.639 400.375 79.6427)
(-729.598 185.219 -54.9137)
(619.232 -301.437 117.392)
(-157.881 -47.4077 161.511)
(-224.713 -422.722 -339.201)
(-478.139 11.2771 -196.5)
(-589.926 -277.535 355.25)
(83.2114 113.052 -549.782)
(452.26 -55.2074 -41.7705)
(160.621 -222.976 67.335)
(-527.321 -129.958 -413.404)
(-262.371 -111.668 -822.045)
(39.503 -97.575 55.9144)
(-427.258 -61.4158 118.984)
(-123.326 -21.4302 195.187)
(-78.072 -459.79 -325.055)
(-690.707 -133.673 545.464)
(395.574 -155.333 191.342)
(-120.789 43.2278 110.811)
(-294.226 196.317 295.964)
(-124.556 -224.072 135.925)
(164.215 61.9944 -351.002)
(173.49 -325.029 -166.351)
(-285.01 40.4202 -331.621)
(163.092 96.4022 -445.372)
(-236.292 -105.368 -316.021)
(-78.806 162.18 69.4199)
(-119.095 113.203 -144.336)
(220.169 424.749 33.2065)
(-180.808 81.2481 -215.231)
(-527.749 7.73299 -655.277)
(254.935 -32.8063 88.225)
(-96.0236 337.888 40.7002)
(104.341 311.411 -375.899)
(-644.57 -104.034 -391.904)
(49.995 -199.659 -182.702)
(-262.121 90.4763 -8.68573)
(441.085 405.202 -225.92)
(245.908 -33.3637 -206.484)
(-395.45 120.128 194.887)
(198.376 638.604 49.8246)
(-659.85 -9.36752 140.253)
(-59.8652 390.897 22.4556)