/*--------------------------------*- C++ -*----------------------------------*\
  =========                 |
  \\      /  F ield         | OpenFOAM: The Open Source CFD Toolbox
   \\    /   O peration     | Website:  https://openfoam.org
    \\  /    A nd           | Version:  7
     \\/     M anipulation  |
\*---------------------------------------------------------------------------*/
FoamFile
{
    version     2.0;
    format      ascii;
    class       volScalarField;
    location    "0.125/fluid";
    object      p;
}
// * * * * * * * * * * * * * * * * * * * * * * * * * * * * * * * * * * * * * //

dimensions      [1 -1 -2 0 0 0 0];

internalField   nonuniform List<scalar> 
200
(
0.000999999999999998
0.000999999999999998
0.000999999999999998
0.000999999999999998
0.000999999999999998
0.000999999999999999
0.000999999999999999
0.000999999999999999
0.000999999999999998
0.000999999999999998
0.000999999999999998
0.000999999999999999
0.000999999999999997
0.000999999999999997
0.000999999999999997
0.000999999999999998
0.000999999999999998
0.000999999999999998
0.000999999999999998
0.000999999999999998
0.000999999999999998
0.000999999999999999
0.000999999999999998
0.000999999999999998
0.000999999999999997
0.000999999999999997
0.000999999999999997
0.000999999999999997
0.000999999999999997
0.000999999999999998
0.000999999999999998
0.000999999999999998
0.000999999999999999
0.000999999999999999
0.000999999999999998
0.000999999999999996
0.000999999999999996
0.000999999999999995
0.000999999999999995
0.001
0.00100000000000003
0.0010000000000002
0.0010000000000012
0.00100000000000707
0.00100000000004145
0.00100000000024317
0.00100000000142918
0.00100000000841581
0.0010000000496503
0.00100000029342346
0.00100000173664
0.00100001029102448
0.00100006103351907
0.00100036259116338
0.00100215495243596
0.00101124116326043
0.00101804118998401
0.00101971182187872
0.00101956285345243
0.00101922994917409
0.0010169453688826
0.00101109422172111
0.00100808807840163
0.00100888614704784
0.00100986658056212
0.00101071139525631
0.0010113065763022
0.00101188903988129
0.00101083200144032
0.00100461184399616
0.000996056915587767
0.00099613359010593
0.000996030508780578
0.000998212596204963
0.00100299807128109
0.0010063807545846
0.0010063166619035
0.00100577899192634
0.00100802662860446
0.001010153126033
0.00100753095946492
0.00100181196821215
0.000999851941844247
0.000999981407427252
0.00099972685685903
0.00099948587887949
0.000999158845782779
0.000999123245315947
0.000998315895505094
0.000998295238642401
0.00100005310644586
0.00100762639742703
0.00101378008982886
0.00101391824822249
0.00101366001910773
0.00101262316122859
0.00101071783763324
0.00101027920422066
0.001010803933779
0.00101072892573296
0.00101029582531837
0.00100856861308356
0.00100028462288643
0.000994733367506174
0.000993897651264927
0.000993936636105168
0.000997635630809186
0.00100885696713769
0.00101421624206322
0.00101305255590199
0.0010134351292764
0.00101386216227846
0.00100899296944811
0.00099369453895492
0.000985389032412939
0.000987407608975949
0.000986083616653667
0.00098506173776557
0.000987518494263987
0.000991621728238015
0.000993353831937452
0.000991192284032622
0.000991365763462665
0.000993679860867711
0.000995569709846088
0.000993428612305256
0.000990494414030753
0.000988687013042395
0.000990082765639215
0.000991057457756182
0.000995716750561688
0.00101723408786813
0.00102670436842884
0.00103370157153456
0.00103148187645504
0.00102394980375061
0.0010086615020963
0.0010058357548478
0.00100073413666341
0.000996866011884783
0.00099922023224927
0.00100205324529591
0.00100036862932287
0.000999277400719389
0.00100144359242228
0.0010041062532132
0.00100275234608487
0.00100210350348956
0.00100107942994608
0.000997991441641047
0.000994306346958963
0.000994264103743452
0.000995908887665612
0.000997917517453688
0.000997215828279192
0.000996700133461024
0.000997310857821279
0.000997103997336591
0.000997239929132876
0.00100016679795858
0.00100390912713717
0.00100315346370486
0.00100224219966351
0.00100112719306311
0.00100079670815397
0.000999932179492627
0.000999988809512637
0.00100046861014943
0.00100038230739406
0.00100025895155693
0.00100148324798183
0.00100362631545506
0.00100358877863592
0.00100302464307606
0.000999176702661425
0.000996489026197394
0.000995819026786655
0.000998077935129857
0.00100387404237641
0.00100454533824979
0.00100460091028241
0.00100361708886099
0.00100321288883977
0.00100487069310016
0.00100839137311612
0.00101000085771456
0.00100880997973034
0.00100171075216632
0.000995421888106844
0.000995906289567815
0.000996558641154208
0.000997670195380753
0.000998992752298891
0.00100000542852094
0.00100056844926185
0.00100115037680857
0.00100051372867655
0.000997257418498325
0.000992798170943587
0.00107394783912213
)
;

boundaryField
{
    fluidSide
    {
        type            zeroGradient;
    }
    fluidBound
    {
        type            codedFixedValue;
        value           uniform 0.000980767845268603;
        name            HPCFluidP;
    }
    nullDims
    {
        type            empty;
    }
}


// ************************************************************************* //
