/*--------------------------------*- C++ -*----------------------------------*\
  =========                 |
  \\      /  F ield         | OpenFOAM: The Open Source CFD Toolbox
   \\    /   O peration     | Website:  https://openfoam.org
    \\  /    A nd           | Version:  7
     \\/     M anipulation  |
\*---------------------------------------------------------------------------*/
FoamFile
{
    version     2.0;
    format      ascii;
    class       volScalarField;
    location    "0.125/fluid";
    object      T;
}
// * * * * * * * * * * * * * * * * * * * * * * * * * * * * * * * * * * * * * //

dimensions      [0 0 0 1 0 0 0];

internalField   nonuniform List<scalar> 
200
(
0.00340000000000001
0.00340000000000001
0.00340000000000001
0.00340000000000001
0.00340000000000001
0.00340000000000001
0.00340000000000001
0.00340000000000001
0.00340000000000001
0.00340000000000001
0.00340000000000001
0.00340000000000001
0.00340000000000001
0.00340000000000001
0.0034
0.00340000000000001
0.0034
0.0034
0.0034
0.0034
0.0034
0.0034
0.0034
0.0034
0.0034
0.0034
0.0034
0.0034
0.0034
0.0034
0.0034
0.0034
0.0034
0.0034
0.0034
0.0034
0.0034
0.0034
0.0034
0.0034
0.00340000000000003
0.00340000000000018
0.00340000000000106
0.00340000000000623
0.0034000000000365
0.00340000000021413
0.00340000000125851
0.00340000000741081
0.00340000004372111
0.00340000025838318
0.00340000152925392
0.00340000906211776
0.00340005374555738
0.00340031929012737
0.00340189758195877
0.0034098624213717
0.00341578305081375
0.00341723356081891
0.00341710426837816
0.00341681527593637
0.00341483183917216
0.00340972944095409
0.00340710193592765
0.00340780005476609
0.00340865743771708
0.00340939570189831
0.00340991535259374
0.00341042394320005
0.00340950099039556
0.00340405791982945
0.00339652068491765
0.00339658866110948
0.00339649825182596
0.00339842495364676
0.0034026339908694
0.0034056029077993
0.00340554691048824
0.00340507533442799
0.00340704442906246
0.0034089045264753
0.00340661079967766
0.00340159132510458
0.00339986632515849
0.00339998037140356
0.00339975667436347
0.00339954463861136
0.00339925696790852
0.0033992257600314
0.00339851471663954
0.00339849663757188
0.00340004640808423
0.00340669929236431
0.00341207239919163
0.00341219304118956
0.00341196843906547
0.00341106429742098
0.00340940171948555
0.00340901863814505
0.00340947747080399
0.00340941234713988
0.00340903430156172
0.00340752575119716
0.00340025737739322
0.00339535951661366
0.00339462076109602
0.00339465609392887
0.00339793029763499
0.00340778048038911
0.00341246275469841
0.00341144727783168
0.00341178073084293
0.00341215276047176
0.00340790816225121
0.00339443375337902
0.00338706320199875
0.0033888559410806
0.00338767627031815
0.00338676559235357
0.00338894772187761
0.0033925878152216
0.00339411908392189
0.00339220276240021
0.0033923536497931
0.00339440004004294
0.00339606918380293
0.00339417528961197
0.00339157554115797
0.00338997176684665
0.0033912119372781
0.00339207743153937
0.00339621734322032
0.00341504433810299
0.00342324544259824
0.00342928045520758
0.00342737534846261
0.0034208848266074
0.00340758228145064
0.00340511041447126
0.00340063006900604
0.00339721908124744
0.00339929500729567
0.00340178797746623
0.00340030677932075
0.00339934687941111
0.00340125650829504
0.00340359800247254
0.00340241051190729
0.00340184146334488
0.00340094185199162
0.00339822013136067
0.00339496700986515
0.00339492910348677
0.00339638186511136
0.00339815370371451
0.00339753368464072
0.00339707793483478
0.00339761631487953
0.00339743334844431
0.00339755288438932
0.00340013210052634
0.00340342194357786
0.00340275768411958
0.00340195626096248
0.0034009749623009
0.00340068300265743
0.00339992140497565
0.00339997049921027
0.00340039221995617
0.00340031553480923
0.00340020634044572
0.00340128353507017
0.00340316606809666
0.00340313263862666
0.00340263717585446
0.00339925253474363
0.00339688109698085
0.0033962891443024
0.00339828500139938
0.00340338322855889
0.00340397234523795
0.00340402030603027
0.00340315259347624
0.00340279116457587
0.00340424212162186
0.00340730981743713
0.00340869895615024
0.00340763136424449
0.00340137781070292
0.00339576431200028
0.00339607606406128
0.00339656972238294
0.00339742667467681
0.00339839990160457
0.00339917312394084
0.00339961544561288
0.00340007008887316
0.00339948684828972
0.00339663106572367
0.00339253900626417
0.00346140892596813
)
;

boundaryField
{
    fluidSide
    {
        type            zeroGradient;
    }
    fluidBound
    {
        type            codedFixedValue;
        value           uniform 0.00340826967279526;
        name            HPCFluidT;
    }
    nullDims
    {
        type            empty;
    }
}


// ************************************************************************* //
