/*--------------------------------*- C++ -*----------------------------------*\
  =========                 |
  \\      /  F ield         | OpenFOAM: The Open Source CFD Toolbox
   \\    /   O peration     | Website:  https://openfoam.org
    \\  /    A nd           | Version:  7
     \\/     M anipulation  |
\*---------------------------------------------------------------------------*/
FoamFile
{
    version     2.0;
    format      ascii;
    class       vectorField;
    location    "0.00036/lagrangian/dsmc";
    object      U;
}
// * * * * * * * * * * * * * * * * * * * * * * * * * * * * * * * * * * * * * //


31759
(
(-141.619 -489.082 -1006.63)
(517.949 367.951 -512.017)
(1105.79 -693.408 -278.165)
(-649.192 139.733 15.7961)
(-64.3968 318.833 554.892)
(-179.377 557.163 265.002)
(77.34 -108.543 -879.222)
(213.183 320.266 409.593)
(-250.053 -391.658 377.681)
(1091.08 473.046 -74.5212)
(865.666 220.61 70.3572)
(72.5683 255.569 844.255)
(-642.49 -211.956 -405.676)
(548.209 -410.413 315.513)
(386.182 1129.42 466.619)
(260.164 402.522 199.109)
(225.929 -167.418 -475.225)
(435.42 115.567 -555.67)
(-94.1884 -513.252 -1173.57)
(-283.946 570.434 -365.401)
(-128.351 -148.549 579.339)
(-130.697 -86.3476 588.341)
(-535.936 4.77535 297.375)
(116.101 -488.91 -739.205)
(193.667 724.413 388.08)
(-97.5891 -322.413 92.256)
(337.69 211.113 264.072)
(-378.317 161.052 1385.8)
(-412.847 66.6383 381.734)
(-224.829 -181.907 -588.551)
(-286.855 -88.025 -147.861)
(362.642 111.906 640.167)
(364.769 -358.155 89.8676)
(367.682 -444.931 -292.541)
(155.229 125.622 -185.962)
(419.258 -673.88 -30.9425)
(688.104 -149.3 -27.868)
(-695.584 -929.997 -177.946)
(-931.725 135.246 -648.704)
(127.4 203.167 -46.7627)
(442.926 -17.7032 -799.462)
(-660.614 447.993 281.176)
(-466.819 100.656 691.689)
(-763.048 -415.699 149.418)
(-561.601 -198.011 -1100.04)
(-1245.79 287.175 -411.213)
(-51.1114 486.862 -249.504)
(-165.981 -60.5332 820.214)
(597.542 -687.511 1115.47)
(-964.79 -325.141 506.229)
(1282.68 538.127 1164.96)
(382.405 -90.9559 564.783)
(730.573 1366.04 257.716)
(453.119 -129.989 -364.412)
(-333.786 -60.1082 215.319)
(-535.592 692.256 -1329.4)
(-217.467 381.538 430.154)
(326.707 527.643 -323.456)
(-148.053 -101.921 354.385)
(560.662 256.093 -110)
(460.022 -134.857 197.754)
(-770.44 -618.656 574.761)
(-350.506 488.391 -799.517)
(-387.734 -297.88 -242.761)
(-492.542 -497.799 235.614)
(-469.838 56.5113 522.402)
(63.3815 1059.72 298.749)
(989.635 421.49 -24.7259)
(83.4944 -1159.73 -492.384)
(375.303 -359.162 334.888)
(251.936 -1000.62 -1094.18)
(484.7 -205.59 281.92)
(726.033 326.929 -339.019)
(-279.99 1154.4 143.627)
(-687.463 586.978 -72.4494)
(255.33 -903.949 -252.016)
(389.289 -479.102 282.391)
(27.4967 -423.411 -520.727)
(1034.29 144.936 100.349)
(330.795 -222.667 95.8279)
(-316.513 56.8386 -465.359)
(780.46 623.507 312.421)
(-460.673 -534.964 -90.8536)
(509.793 785.902 -15.9899)
(348.452 148.305 333.523)
(-350.89 -215.776 169.376)
(928.045 600.465 -1056.48)
(212.497 555.835 -570.754)
(-259.059 104.307 389.839)
(-325.284 151.723 -694.626)
(59.3539 423.709 -16.835)
(-506.839 432.036 244.714)
(-774.087 306.593 434.248)
(-157.198 -576.008 -698.394)
(-413.836 -486.825 -20.721)
(-1038.25 -828.899 -367.661)
(38.5652 -418.789 171.476)
(1.94023 148.669 -85.383)
(-88.1934 590.695 737.471)
(-612.155 -139.151 607.529)
(-533.197 -463.129 -488.706)
(-159.23 -365.493 117.406)
(357.608 609.142 136.226)
(265.869 -327.523 389.784)
(-339.245 -1146.55 1340.71)
(-349.7 607.174 -171.423)
(1637.9 107.575 133.194)
(-453.918 -153.082 471.436)
(-572.891 596.033 -129.76)
(-378.505 8.48719 288.509)
(632.37 552.403 -1097.38)
(-334.73 -377.358 -1272.09)
(123.665 -39.9381 548.974)
(40.575 763.012 314.835)
(-352.765 514.95 1108.04)
(952.009 -357.333 479.668)
(-255.123 285.983 -330.339)
(-438.687 -730.561 -200.239)
(299.69 113.783 -353.828)
(470.102 567.373 1188.4)
(-83.6943 379.12 -262.82)
(-642.256 167.749 -535.975)
(136.201 -17.0188 266.836)
(698.909 -462.389 -93.7891)
(-163.084 -657.089 -507.492)
(-549.656 -85.2694 108.285)
(193.132 149.98 351.699)
(810.613 141.775 -75.8216)
(-756.699 220.661 837.478)
(486.319 3.37345 380.449)
(-513.69 -374.819 448.926)
(156.187 -212.92 1012.29)
(576.857 290.671 380.524)
(-599.334 -51.1108 -256.352)
(395.166 -16.4042 -889.363)
(607.227 -218.193 314.993)
(-284.529 -616.107 124.092)
(-190.519 -774.77 -622.753)
(315.476 -619.601 -565.467)
(-73.4521 -230.673 -98.9275)
(713.621 113.816 -54.2886)
(-501.289 -734.134 -110.753)
(857.041 -580.066 -351.631)
(5.24558 -142.082 -282.287)
(-757.664 -313.397 262.052)
(-159.95 376.863 1003.68)
(-70.0305 -551.66 -90.764)
(-459.372 -26.4146 -23.7706)
(752.404 -15.0272 85.0222)
(594.671 282.934 1047.56)
(490.878 -18.7243 -41.3027)
(972.651 -263.816 524.434)
(182.178 -417.085 -579.501)
(-650.51 401.444 1219.53)
(-218.435 -167.354 237.733)
(-421.335 -313.877 166.986)
(380.238 -171.677 -387.988)
(537.682 -326.916 -141.145)
(-344.057 -416.313 -590.815)
(-613.394 357.117 401.839)
(-951.878 74.0285 1198.23)
(918.083 -637.942 92.357)
(718.546 402.891 738.03)
(908.478 437.421 15.3036)
(74.9285 75.7354 -505.859)
(-597.848 373.293 -366.036)
(790.566 -146.276 -1184.2)
(37.9275 -299.235 -33.6451)
(354.956 -246.993 293.447)
(-664.665 -934.414 -408.087)
(959.293 424.3 925.837)
(698.913 -1035.31 203.588)
(-296.844 795.439 -771.604)
(298.532 -1547.26 -645.359)
(792.182 -196.878 -432.899)
(137.788 201.197 42.2957)
(2.38132 14.0797 -490.563)
(252.981 -272.031 -355.923)
(-1275.75 302.402 -62.3556)
(-119.571 263.409 207.857)
(9.61745 187.231 192.342)
(-383.777 -416.012 422.584)
(75.2069 -201.102 95.2222)
(88.5641 -429.586 533.174)
(59.0642 -46.0423 -225.253)
(-517.625 396.813 -537.446)
(1271.41 -347.006 -413.905)
(-610.602 -366.716 -433.401)
(807.427 -291.865 52.1209)
(14.8859 -530.241 1067.23)
(-155.365 267.663 -577.477)
(795.476 -461.45 137.202)
(513.984 485.522 195.847)
(-438.638 -270.998 524.465)
(-857.901 1166.87 529.831)
(-109.534 -621.961 -723.523)
(437.034 -164.589 441.534)
(88.1244 -770.412 789.978)
(332.143 -724.149 -576.169)
(235.067 495.259 -310.528)
(-187.667 -199.815 -67.6254)
(-637.3 -182.569 -604.747)
(390.093 -79.7176 -295.946)
(1122.8 -194.79 257.121)
(205.209 -330.732 509.833)
(-50.3741 670.185 -669.807)
(-18.3019 224.448 662.115)
(-261.75 -4.35501 476.308)
(-437.032 -815.593 374.398)
(938.292 154.18 -164.133)
(-388.607 -348.275 -1148.43)
(-1123.06 190.027 -311.863)
(104.054 -558.619 -426.679)
(-544.268 184.406 300.055)
(-334.009 -628.801 132.614)
(162.753 925.501 -502.235)
(409.832 -714.889 24.4882)
(124.003 -569.943 319.26)
(57.2954 -692.659 128.685)
(-383.124 -189.014 -302.987)
(1069.16 -2.88912 -81.8363)
(-198.227 -312.495 196.433)
(-553.688 119.338 170.006)
(-1138.11 -313.28 -640.841)
(280.336 -1055.16 -388.94)
(490.38 -166.208 -853.482)
(-565.533 -631.648 -11.5815)
(104.744 -103.061 85.624)
(-250.529 -143.711 1550.04)
(-249.045 123.253 16.8326)
(-451.778 63.9214 -151.299)
(585.443 -1033.05 385.033)
(-844.728 1379.07 -1145.9)
(-170.782 -264.675 -572.76)
(162.609 -145.22 -474.501)
(-20.1884 475.785 -512.117)
(-533.991 205.874 -750.83)
(-934.883 -37.269 -322.912)
(-414.882 453.234 -929.494)
(-670.67 181.726 25.804)
(412.292 473.619 -6.87061)
(285.429 174.856 165.683)
(-386.521 632.169 -749.744)
(-375.164 839.425 -24.8849)
(1016.37 470.907 -111.436)
(-452.304 54.1853 -227.064)
(375.907 -569.718 -275.294)
(197.76 -871.705 900.195)
(4.81043 307.285 148.285)
(313.39 -197.734 -15.0753)
(-265.258 345.23 204.86)
(-67.208 -756.914 -677.31)
(388.876 260.679 251.569)
(62.4615 120.514 1036.77)
(429.4 -162.239 245.128)
(651.191 -582.048 291.251)
(446.448 -202.038 75.5201)
(317.863 68.7054 -165.762)
(992.726 282.722 110.121)
(356.835 -891.766 -643.143)
(-314.11 -175.838 -89.4568)
(141.929 391.418 -644.396)
(-113.249 976.852 14.0538)
(-84.6281 176.012 209.632)
(571.5 -312.402 688.087)
(-439.042 63.7989 23.5106)
(173.705 -307.259 555.891)
(-828.537 -130.72 1126.58)
(-150.939 374.507 749.645)
(435.487 902.356 94.6009)
(-421.495 -0.301786 608.877)
(-846.668 672.276 1279.63)
(-223.846 -31.3167 -370.005)
(397.792 205.443 331.697)
(-1037.71 436.106 381.801)
(660.84 -488.481 -1036.53)
(-393.436 -5.62806 718.556)
(1187.28 522.279 270.962)
(-281.794 381.446 -527.305)
(1265.09 717.662 302.655)
(63.7935 425.113 562.615)
(-122.965 638.39 672.2)
(-922.494 752.178 -126.344)
(424.142 -543.371 -1071.25)
(-242.811 -194.234 837.155)
(-355.593 220.465 -213.502)
(71.4334 -1087.2 493.004)
(180.793 58.5263 160.656)
(262.945 -30.9351 249.831)
(-90.3716 374.385 1083.28)
(-44.6242 -511.814 -538.314)
(704.803 -503.487 -277.939)
(-240.25 -1032.7 -272.922)
(-261.537 209.461 499.465)
(-100.142 275.749 678.081)
(368.324 -562.351 119.134)
(294.586 -433.479 140.429)
(67.9341 383.094 123.871)
(-195.117 142.143 105.878)
(78.3823 939.879 562.731)
(-316.667 391.076 346.475)
(-211.777 161.199 341.282)
(-381.523 222.669 425.863)
(-24.1197 601.288 98.767)
(-159.014 470.237 -815.224)
(606.814 44.8197 619.631)
(-206.895 -232.726 -8.63876)
(788.397 -162.422 -722.196)
(-304.862 -81.9072 -184.087)
(-422.833 -88.6078 114.719)
(651.545 1483.44 241.299)
(568.065 293.731 -118.853)
(-380.229 317.126 -360.436)
(60.8586 841.417 -274.615)
(144.525 61.0336 -587.031)
(184.095 1056.57 688.992)
(1387.3 877.447 -912.811)
(483.056 781.642 398.851)
(541.054 -67.6931 466.481)
(-18.9597 890.863 68.8658)
(249.356 -492.863 263.199)
(-289.608 659.748 -1090.96)
(-901.737 26.7544 -1.57933)
(-48.0002 312.376 -252.38)
(-481.958 -441.231 -448.658)
(-405.464 678.093 -703.875)
(-155.228 768.036 -253.026)
(172.241 785.532 152.151)
(620.876 770.084 441.175)
(117.195 357.501 -550.981)
(321.14 -38.9046 79.7638)
(-30.2735 -518.78 -119.594)
(526.684 -546.399 686.242)
(239.346 149.732 -122.423)
(-325.308 -372.21 86.3585)
(-84.5434 395.026 -123.452)
(-654.594 -604.446 642.026)
(-148.645 832.442 -678.455)
(322.32 -1050.44 -257.25)
(-165.402 -842.959 432.085)
(-526.29 -564.152 -87.9885)
(-153.192 1025.53 72.3092)
(6.18847 161.538 -807.966)
(-18.0905 128.282 689.164)
(169.675 -448.662 972.265)
(-191.579 383.755 -216.034)
(404.981 -848.304 868.419)
(260.905 309.544 -736.389)
(68.6689 346.418 209.189)
(-169.311 2.89497 -572.217)
(284.718 -816.706 5.65094)
(30.9046 -594.203 -738.841)
(-888.12 538.812 -326.574)
(377.599 -757.866 674.23)
(-734.448 -444.132 922.988)
(247.749 -736.867 409.12)
(-526.253 928.747 369.024)
(-45.9757 -110.379 -145.833)
(708.427 -420.235 -132.908)
(-461.44 -318.74 -224.874)
(-167.166 179.147 -1106.29)
(147.83 1124.44 -116.51)
(-631.028 34.8356 149.288)
(-26.6931 169.108 -66.1832)
(-1020.59 -571.607 26.7698)
(240.142 -269.231 313.254)
(-702.137 -817.999 851.202)
(-223.207 895.407 88.4511)
(-585.76 343.84 -598.946)
(335.367 249.436 398.89)
(-575.249 57.833 -502.119)
(289.467 943.039 833.55)
(-493.41 -1025.69 -641.515)
(-623.098 412.372 574.778)
(22.0327 -513.175 819.436)
(-184.224 222.723 60.0016)
(386.055 409.806 -562.503)
(-41.6307 -1750.05 361.407)
(230.327 -76.8538 78.9832)
(465.61 70.7598 -405.279)
(-366.814 -1621.82 557.554)
(-361.813 -248.272 -483.185)
(-920.952 757.341 -831.361)
(481.652 -618.471 358.496)
(457.129 -521.644 225.338)
(-408.423 87.9763 93.533)
(404.483 393.296 185.967)
(32.9275 -394.329 -277.042)
(-613.044 -128.117 102.065)
(76.3397 478.243 80.6114)
(771.951 715.554 598.395)
(-170.713 -1694.39 322.291)
(-281.474 -717.468 -149.17)
(-66.5298 579.705 -719.451)
(453.352 1054.28 587.79)
(-1117.53 -401.293 108.015)
(272.999 -294.067 219.441)
(-246.341 -144.545 961.733)
(-30.3366 -144.797 -229.541)
(-0.314124 -9.35803 -494.299)
(-534.026 273.242 -119.046)
(-484.222 -358.714 152.17)
(393.858 -612.702 -257.022)
(926.295 167.893 -19.6815)
(493.175 44.341 -558.139)
(-108.608 28.0197 83.6468)
(-339.094 85.5868 -311.565)
(-203.809 -262.429 536.972)
(-590.341 -235.818 -479.987)
(-849.179 546.083 -355.116)
(-65.0905 -268.009 -491.715)
(27.2662 998.216 -681.126)
(772.969 711.336 -32.77)
(-66.92 339.884 -600.48)
(62.5612 66.9539 -284.806)
(297.613 155.927 92.1055)
(-42.6401 371.879 -335.28)
(-702.343 313.759 592.148)
(-154.737 -200.289 101.261)
(-22.4818 445.35 319.44)
(782.254 -119.169 854.354)
(-132.127 1084.96 -310.644)
(525.929 -250.701 135.187)
(-582.339 125.721 686.26)
(-216.887 288.804 -540.077)
(443.694 -181.168 115.337)
(331.141 -586.236 196.969)
(-209.205 -905.723 -861.784)
(-460.64 -614.317 -755.499)
(-1086.32 -529.075 418.672)
(-718.159 -474.782 -881.64)
(55.6969 -1423.56 212.377)
(60.8038 -594.91 -767.481)
(20.9759 -213.802 -339.461)
(-381.464 394.451 712.819)
(-260.737 -1101.01 -867.886)
(174.81 -79.6738 741.456)
(1018.72 -411.055 -983.725)
(-302.677 -328.273 662.739)
(-101.414 12.1329 -542.075)
(87.4414 -129.254 -278.809)
(975.251 267.744 -184.252)
(-474.13 -1456.66 -544.294)
(657.999 313.956 -959.951)
(-166.161 -208.132 -499.524)
(-775.613 202.107 -467.121)
(617.544 41.8809 50.5733)
(230.423 555.629 -421.496)
(796.329 62.4289 -122.493)
(-111.488 -305.827 -92.5463)
(-173.109 -330.592 -321.846)
(23.2788 -254.278 -740.958)
(169.455 -490.917 793.271)
(-493.504 -550.834 669.592)
(180.802 281.59 258.898)
(-603.866 130.82 -367.977)
(1102.12 -22.2364 -90.7346)
(-660.67 -128.014 203.808)
(33.2729 -109.461 400.731)
(-125.952 1004.23 -440.423)
(307.043 -848.25 -700.234)
(-61.76 235.056 869.835)
(76.0901 312.747 -778.96)
(388.003 -255.963 -1067.17)
(929.117 267.924 466.428)
(935.492 266.691 -60.1056)
(801.911 542.14 -560.934)
(-75.7778 -8.00363 192.553)
(163.625 1109.65 -0.881632)
(719.178 -2.95884 -93.9768)
(316.298 -710.091 757.703)
(196.968 1427.68 -451.431)
(153.083 854.073 563.93)
(96.284 -513.467 -131.037)
(-312.845 517.055 318.412)
(152.008 550.464 -92.8884)
(258.461 -70.9629 -214.827)
(-372.661 122.158 300.892)
(298.378 -167.604 418.651)
(-237.154 4.01688 -856.525)
(297.849 -1196.17 -76.5416)
(629.096 45.0201 -623.157)
(-123.755 101.367 -228.178)
(164.549 -470.588 -331.628)
(97.9904 531.437 -1187.93)
(444.485 788.143 808.856)
(365.262 -232.336 152.092)
(136.433 -136 638.817)
(609.153 -267.245 -757.015)
(827.779 -310.336 -251.276)
(-634.89 -219.071 -717.48)
(-159.917 -211.534 81.0686)
(-535.938 -374.926 121.921)
(-177.927 -154.428 -147.947)
(20.376 791.341 28.3299)
(136.573 353.79 920.934)
(-268.908 -320.43 -57.5011)
(-679.409 -361.03 17.8081)
(-36.2581 -199.51 297.986)
(225.845 226.655 516.478)
(-638.831 -412.731 -140.992)
(256.863 231.461 266.967)
(606.558 -545.864 -344.317)
(-51.6709 103.018 -608.126)
(-451.191 -202.231 -31.6493)
(-755.812 150.71 -989.361)
(176.535 -86.0397 168.724)
(-248.776 518.837 407.087)
(66.5951 -841.131 437.039)
(-620.038 560.487 326.797)
(-138.004 -478.4 -473.299)
(333.505 123.139 27.6364)
(-410.281 517.304 -400.15)
(-53.8806 222.67 364.124)
(-737.209 1.62092 351.336)
(381.226 480.667 92.0656)
(-302.222 -889.346 -769.599)
(-55.1343 313.861 -747.469)
(256.204 227.593 -49.561)
(531.379 -617.398 -328.978)
(170.365 157.176 456.169)
(-58.7409 253.725 -428.289)
(-8.35164 -937.928 103.34)
(86.4776 312.754 142.168)
(-1137.06 -482.396 85.5465)
(81.8165 -412.08 -324.477)
(-172.276 12.8104 -354.138)
(-235.658 452.008 -24.6976)
(-101.667 234.359 64.0126)
(414.156 -720.626 -460.912)
(-662.206 769.115 34.9415)
(-337.365 840.678 -964.655)
(997.231 8.96634 -229.371)
(80.6942 258.727 -432.348)
(-901.899 -287.409 512.48)
(230.798 -402.474 -303.172)
(31.8683 -309.201 238.447)
(-771.584 507.24 -343.559)
(815.071 483.281 278.935)
(25.638 -71.6434 -909.399)
(-219.056 313.005 -178.548)
(127.208 -187.993 -603.969)
(-589.099 -232.977 710.309)
(216.764 -576.553 -404.973)
(506.547 705.112 127.11)
(93.4169 129.687 581.276)
(-11.6414 -241.855 -142.446)
(267.747 736.093 -314.776)
(213.628 41.3515 -187.146)
(741 -621.975 201.075)
(108.49 -309.562 -146.003)
(934.382 -427.281 127.609)
(-717.252 -786.556 62.4776)
(-194.637 -473.36 443.212)
(-294.323 460.723 39.2931)
(-968.507 604.599 -206.557)
(317.818 942.135 -191.15)
(-608.193 -248.497 281.794)
(-20.4397 -310.499 -95.507)
(-270.46 -223.789 635.212)
(264.109 866.049 -256.171)
(90.867 705.665 988.788)
(952.415 -264.473 37.5214)
(-1102.83 622.626 125.268)
(83.7488 -685.441 -192.302)
(-255.846 -37.5639 -1183.32)
(540.86 326.481 391.355)
(-591.439 -361.115 -264.122)
(-106.912 -158.774 -358.177)
(-11.3953 1014.83 858.526)
(759.838 861.672 -345.728)
(-388.994 469.966 383.779)
(229.328 675.054 692.684)
(-690.282 -62.2321 -79.632)
(-350.665 349.603 425.277)
(-174.48 162.702 138.092)
(-126.91 776.681 -293.973)
(-446.666 -297.428 -196.305)
(-856.139 106.375 -1084.1)
(-148.268 -160.405 130.614)
(523.432 -249.97 1174.71)
(540.333 -172.793 -261.942)
(23.9586 -448.223 -517.31)
(-753.24 -1449.44 503.671)
(-18.6861 -822.152 251.429)
(314.293 79.0598 293.747)
(552.999 -301.491 24.8889)
(146.797 356.283 782.708)
(-205.283 -620.089 -178.522)
(185.777 1126.65 -150.44)
(191.419 -782.875 -217.022)
(-120.645 -203.742 -1337.14)
(264.699 132.59 -618.279)
(-699.711 -1496.06 -37.862)
(704.465 -73.0066 -227.655)
(307.636 281.934 1026.8)
(85.9617 -421.117 -541.057)
(-756.594 -731.768 1025.85)
(-267.861 366.483 263.192)
(69.8892 -542.966 605.998)
(-182.892 67.1452 -742.634)
(-279.048 34.6325 1536.93)
(502.024 406.045 -904.265)
(26.7743 -514.731 283.667)
(-454.92 -362.968 -455.753)
(342.765 -75.0176 -1040.19)
(263.424 553.749 291.078)
(-38.635 523.597 371.846)
(159.179 -269.33 -524.847)
(-306.021 792.295 -325.591)
(728.632 65.4134 211.022)
(-4.91731 649.402 558.633)
(-200.458 3.19906 -24.3191)
(97.594 800.012 -482.39)
(348.806 984.673 72.1386)
(452.421 19.3424 -179.175)
(56.4277 -169.918 65.6788)
(775.05 -272.553 -343.782)
(265.715 -73.0242 -936.478)
(552.903 -645.239 -570.436)
(-465.692 -501.763 -255.555)
(121.337 350.404 963.969)
(-308.054 -683.603 -490.122)
(-469.235 448.899 375.225)
(178.893 184.76 -578.01)
(-638.233 471.329 7.46774)
(-475.726 3.5822 25.9492)
(-309.97 256.423 622.909)
(106.415 -810.274 -54.0247)
(-319.388 35.0518 -670.586)
(-1033.24 -27.742 -470.027)
(-226.108 -171.759 641.698)
(354.51 -1190.56 -827.039)
(-905.322 -398.239 -1270.64)
(518.995 360.723 693.868)
(11.5739 167.304 -994.003)
(546.045 11.187 -348.642)
(-406.131 -136.567 -504.827)
(213.046 58.0028 -578.874)
(353.868 749.885 116.013)
(409.958 312.348 6.25748)
(252.692 295.306 -123.876)
(371.016 -189.764 1037.17)
(-276.689 -162.908 -466.939)
(-106.012 -299.448 -1221.07)
(263.708 -38.1067 -535.276)
(1041.67 -114.838 -678.286)
(-121.278 115.824 -284.029)
(63.9546 763.038 -38.0792)
(-770.695 -15.1082 193.772)
(635.346 -1004.38 460.902)
(111.998 -101.645 361.642)
(-466.722 387.982 -192.379)
(250.833 -809.198 308.52)
(559.082 292.866 -319.084)
(-263.819 771.493 979.166)
(1226.18 -20.232 632.901)
(-62.4905 10.1091 -279.081)
(514.912 -272.663 528.776)
(-279.527 -328.132 -42.6315)
(1406.71 -408.263 1068.54)
(-145.093 128.565 -458.096)
(966.894 204.296 258.352)
(527.785 -672.258 -256.916)
(-362.093 441.392 522.804)
(282.76 -61.198 -322.71)
(-413.786 641.24 -336.836)
(294.203 826.116 -689.913)
(325.446 810.273 -248.941)
(950.356 -101.069 78.5286)
(263.031 174.376 -623.141)
(142.569 -311.238 -722.556)
(716.995 -380.482 629.47)
(157.389 -243.389 73.0703)
(401.609 429.013 -328.039)
(405.784 328.943 -328.337)
(303.697 34.9438 502.417)
(134.272 518.55 -38.0478)
(-230.766 212.639 153.953)
(-455.806 34.6665 -1286.78)
(124.118 268.927 -154.641)
(1208.05 213.46 -43.9789)
(-23.3123 -192.747 710.521)
(-800.883 -172.8 -238.333)
(805.924 611.83 -317.835)
(-237.339 999.937 -621.981)
(-212.011 556.493 344.725)
(24.787 -300.347 1196.52)
(3.05502 -52.4039 265.499)
(130.134 -507.485 14.9973)
(372.812 384.121 -14.8582)
(-130.562 348.421 -162.854)
(-280.676 344.021 241.37)
(357.105 42.73 -184.094)
(911.774 -180.685 -851.194)
(-371.276 77.7805 55.0175)
(224.679 -603.448 -692.74)
(-292.163 554.294 479.001)
(511.225 -702.246 -436.576)
(431.138 -298.64 379.429)
(-687.915 432.657 -778.899)
(-138.504 12.9268 237.061)
(815.423 273.103 -1492.84)
(159.793 -145.495 -54.8412)
(1134.04 -430.204 52.3149)
(-704.406 -383.195 -256.121)
(364.593 641.46 -242.316)
(107.674 483.852 441.163)
(-109.171 -823.101 -313.26)
(-199.88 -114.033 -296.476)
(-550.202 -1113.29 216.57)
(50.0959 148.872 -927.742)
(-243.337 656.861 -358.658)
(3.9181 603.087 11.8505)
(580.656 245.541 140.816)
(280.86 -616.4 -285.859)
(304.103 -822.95 11.3421)
(-147.469 610.977 -161.903)
(203.176 -113.124 -607.763)
(625.138 150.046 158.804)
(231.471 -484.1 188.775)
(523.05 729.952 -350.356)
(-183.768 352.656 -138.018)
(-653.266 -202.207 -222.429)
(147.677 -428.342 -376.875)
(711.241 -466.713 668.511)
(228.57 -100.628 -408.657)
(-397.556 -1014.06 284.607)
(-640.237 111.86 -51.8512)
(-114.844 -111.987 208.968)
(-88.4024 -516.272 -535.578)
(-138.525 -234.019 -798.831)
(-429.505 10.8169 155.326)
(-187.937 613.836 -430.593)
(467.858 -654.648 -1120.43)
(-372.022 445.867 -638.544)
(-35.8593 -292.645 836.046)
(50.8684 158.204 715.275)
(-814.809 -617.805 -95.6912)
(-63.1688 777.959 848.13)
(26.7976 -37.3075 132.942)
(602.724 553.158 324.608)
(-302.323 339.521 -452.911)
(-772.98 -364.548 -86.6064)
(283.064 29.4039 292.276)
(14.4215 350.166 350.33)
(-293.544 -145.426 172.314)
(227.888 786.206 600.99)
(-662.224 230.578 43.0892)
(-576.874 491.661 512.07)
(649.076 945.6 1016.07)
(304.867 493.132 -56.4303)
(-480.734 -583.41 817.887)
(-464.462 -264.028 107.607)
(808.572 -111.918 -164.943)
(-64.6294 -198.965 234.688)
(214.686 -385.743 -401.507)
(-217.051 -107.611 157.504)
(-553.981 561.276 142.436)
(718.938 198.506 -665.223)
(-34.2695 -116.378 -192.375)
(-25.0232 380.708 -128.501)
(374.95 1081.36 23.5014)
(1030.92 -532.886 -781.398)
(-173.875 201.911 7.55674)
(97.5722 651.964 37.2339)
(-952.322 889.676 217.803)
(392.717 186.194 -207.523)
(137.435 -5.54188 320.209)
(830.371 -395.862 134.926)
(-143.028 225.503 -80.56)
(38.3205 -504.865 308.172)
(-50.132 -1434.4 258.396)
(-272.317 103.605 -608.043)
(277.246 292.402 -210.328)
(295.328 -657.868 155.946)
(225.875 -402.63 -695.916)
(515.286 -442.031 -340.23)
(-207.656 -501.687 683.155)
(209.939 -1030.33 545.728)
(281.316 112.429 557.232)
(900.498 -793.332 132.34)
(156.152 -819.812 277.752)
(-170.574 119.362 -152.696)
(-234.355 -67.18 -879.261)
(-1352.7 -568.209 778.852)
(-327.126 407.835 -1427.23)
(-611.401 -687.664 -30.2073)
(676.928 0.39797 -235.036)
(54.5073 -51.9557 342.587)
(-179.74 -237.429 -146.954)
(72.719 385.38 -1487.1)
(229.857 711.571 959.482)
(936.201 -1285.8 -0.932698)
(-307.131 128.672 9.91762)
(782.073 -323.169 93.8629)
(-374.929 912.803 -190.406)
(895.389 -44.053 259.103)
(87.5241 573.16 -853.122)
(-463.85 132.997 303.395)
(21.3205 65.2862 548.252)
(-610.221 -761.787 10.6206)
(-68.7855 -221.214 -215.034)
(-618.916 -1631.95 1139.99)
(-373.607 -642.317 136.213)
(656.759 687.03 286.234)
(270.478 14.9745 307.265)
(379.424 -1211.39 955.046)
(-613.063 491.192 1082.31)
(-186.305 -532.777 -529.913)
(888.986 139.369 89.9735)
(-825.933 438.485 426.249)
(-15.3216 164.233 -466.085)
(900.411 -440.171 208.514)
(-400.128 155.565 616.871)
(773.206 -314.462 278.506)
(-164.065 171.128 -254.366)
(612.654 861.603 -439.082)
(-202.787 1216.01 642.191)
(-772.736 -155.642 86.6975)
(325.071 482.6 876.72)
(518.314 81.4863 -210.237)
(534.588 187.534 756.874)
(169.689 643.244 1161.94)
(-196.899 1136.29 477.544)
(-129.693 -92.186 520.421)
(-164.912 -312.993 -902.443)
(51.8953 -125.198 591.016)
(-1147.18 -960.553 -182.122)
(78.4106 5.29369 -176.351)
(247.143 -632.868 -1.34014)
(86.9606 201.237 257.165)
(365.654 259.915 -569.158)
(913.848 483.894 162.947)
(961.614 -939.557 206.192)
(-774.574 197.725 -386.654)
(-13.8872 86.3034 467.129)
(-392.18 135.496 38.0295)
(-295.286 695.579 -652.726)
(932.559 -162.548 -80.6887)
(-951.998 192.576 -412.277)
(48.7061 -149.752 356.201)
(-7.58897 -625.026 838.231)
(421.611 413.191 -120.125)
(-144.591 177.129 -166.82)
(-651.072 334.998 -110.291)
(-170.515 -155.206 734.228)
(163.958 -485.459 -14.6805)
(58.6941 532.826 -70.5655)
(-452.11 273.247 114.657)
(693.58 -30.7752 -528.254)
(320.01 370.928 -794.651)
(-248.931 -304.317 -177.946)
(-427.909 -556.152 543.954)
(-247.591 191.446 68.2251)
(724.203 -712.329 301.73)
(-258.278 543.983 437.284)
(-345.297 -600.175 7.26877)
(-74.0538 168.642 854.569)
(289.71 177.414 -168.365)
(294.115 -691.989 -309.328)
(117.137 567.501 1208.6)
(11.5901 -267.642 -43.4971)
(-174.381 -528.57 293.535)
(-83.9624 -308.281 41.306)
(-75.4634 184.423 -560.265)
(598.472 -161.314 600.659)
(131.164 1003.6 454.406)
(187.024 -65.3535 415.057)
(-278.371 -33.7556 309.264)
(-46.867 -416.224 -650.525)
(776.622 623.589 127.172)
(-679.947 -264.986 -280.983)
(183.933 163.211 772.258)
(-443.348 -381.333 -295.805)
(53.8615 -260.434 -276.581)
(-1312.12 -752.8 32.6002)
(-753.72 400.359 256.161)
(28.6293 -282.241 184.194)
(309.316 -525.922 1235.33)
(414.365 95.2693 -386.856)
(270.058 -57.0929 579.531)
(432.246 190.338 -966.546)
(12.6629 -308.745 875.356)
(-138.949 -1239.91 -856.075)
(-408.166 -699.078 -386.757)
(169.02 -713.001 -89.1836)
(-1031.83 424.194 18.3283)
(-285.784 -179.508 -796.17)
(-127.881 -107.544 -192.732)
(-19.458 -171.624 -272.433)
(-137.102 442.41 10.4764)
(549.803 -639.504 681.378)
(-353.046 -215.995 214.918)
(42.8181 542.424 480.929)
(444.527 668.093 -245.195)
(805.666 -1239.95 244.571)
(581.862 51.1657 -172.586)
(-383.533 -220.332 -380.395)
(-751.774 33.0973 -390.119)
(507.568 381.265 325.272)
(-389.173 -168.497 239.016)
(564.462 192.458 -493.203)
(-377.175 37.4046 -170.728)
(-1166.1 -87.5911 -105.108)
(-760.688 55.4251 83.561)
(-1358.18 -218.321 -179.254)
(-424.731 -58.251 -64.1149)
(-608.332 -511.492 -1157.87)
(-627.132 -237.242 -501.957)
(176.714 -117.404 186.176)
(192.31 -84.7907 -807.379)
(767.498 54.6541 -574.828)
(-266.57 -376.197 -32.0873)
(-9.84211 -11.6782 163.381)
(-597.109 572.607 565.922)
(64.6698 -176.004 -43.9093)
(701.817 154.566 389.781)
(-617.382 -87.2 211.28)
(326.702 174.698 722.327)
(332.71 615.998 -238.258)
(-39.395 896.277 -100.162)
(-784.696 -272.421 -757.758)
(453.11 -49.184 -307.895)
(-573.32 -237.557 64.6958)
(114.018 -480.777 186.084)
(663.088 -363.186 146.288)
(174.155 -1098.75 -412.488)
(625.693 -886.806 -741.597)
(666.079 -458.221 -524.622)
(-323.615 -47.3851 303.185)
(-641.078 -270.836 -144.932)
(-412.531 -162.254 -228.68)
(-162.996 114.05 -1005.86)
(37.254 387.556 -187.08)
(363.172 258.038 -25.614)
(-739.024 70.8957 -561.651)
(529.824 240.114 469.51)
(116.008 -831.68 51.9145)
(90.9102 -391.554 270.665)
(823.683 248.324 141.484)
(13.6061 -1203.28 -118.094)
(711.535 -95.8333 767.943)
(221.726 -395.287 665.38)
(428.075 657.38 622.833)
(-462.062 213.199 -396.766)
(463.235 -242.953 421.33)
(-735.965 -565.978 424.692)
(-762.011 -441.593 167.87)
(-561.083 -53.4735 -216.408)
(729.972 -386.027 -307.573)
(-662.209 -30.7773 -67.3746)
(129.123 -285.57 567.626)
(-317.355 206.154 556.033)
(351.887 -23.1644 -131)
(298.039 147.127 110.11)
(105.808 396.136 -341.408)
(-243.127 922.424 367.419)
(-7.69231 0.111161 -251.244)
(-261.192 -386.123 7.584)
(-737.492 -381.466 -390.797)
(309.784 -37.0123 -468.423)
(116.276 396.58 126.374)
(-840.651 -28.7238 333.46)
(100.714 -146.617 488.797)
(-877.761 -782.525 -132.202)
(109.83 -303.565 136.247)
(-103.475 -1514.02 354.233)
(49.3001 687.219 -92.2223)
(24.4368 362.213 27.3743)
(436.854 192.875 144.536)
(-789.081 599.86 -38.226)
(371.443 562.314 37.3397)
(1299.93 -802.813 -114.972)
(-72.2578 -811.474 10.9096)
(142.894 -203.153 140.556)
(360.763 -274.906 -486.748)
(-484.324 -805.259 -327.74)
(-84.434 122.826 865.773)
(125.902 -403.836 -510.739)
(-774.012 -549.835 -458.416)
(-100.97 567.089 1241.62)
(-862.915 797.356 566.161)
(-375.458 -690.874 -633.809)
(-357.794 687.46 511.788)
(-512.046 1066.73 208.888)
(-338.985 3.16791 573.566)
(38.7265 -75.9829 -565.724)
(-199.91 -947.205 -548.233)
(8.47261 -576.974 -691.757)
(95.195 -742.248 -475.843)
(211.186 -293.873 -881.165)
(52.2033 55.0789 130.02)
(-37.7834 265.575 235.01)
(-452.21 1120.73 -846.916)
(-80.1273 507.512 505.084)
(-657.976 -261.652 1142.21)
(-746.743 353.21 593.608)
(-16.6615 286.568 440.274)
(27.815 917.272 -850.606)
(122.012 346.334 339.911)
(-1294.49 1378.74 139.339)
(-292.388 522.034 -241.351)
(-180.485 -355.068 68.0986)
(282.331 -55.1931 245.597)
(390.721 -399.079 -208.135)
(790.322 -275.951 -339.507)
(-315.967 76.0963 421.665)
(-759.532 29.4038 -699.56)
(-255.253 -484.772 104.953)
(-107.72 -1020.03 285.338)
(212.865 319.118 -582.778)
(-516.602 -386.775 -118.095)
(464.857 1067.32 -225.17)
(-993.052 864.051 256.728)
(63.7825 58.0795 -130.393)
(252.386 -667.691 900.376)
(-496.821 -146.01 119.45)
(602.081 498.029 586.008)
(315.566 752.3 -287.956)
(307.928 -411.985 773.97)
(776.523 -255.24 906.576)
(-504.481 -278.014 629.898)
(293.351 137.332 805.549)
(183.851 569.419 434.411)
(-886.769 -644.263 279.126)
(-273.643 1468.83 2.77134)
(352.813 222.812 -984.976)
(-1103.89 791.371 -1565.28)
(959.287 440.013 944.563)
(224.929 388.588 400.21)
(-480.863 244.912 227.259)
(581.39 -139.795 -59.1405)
(-726.863 -706.228 621.069)
(-273.509 63.9943 -917.471)
(-91.0955 83.5917 -725.334)
(-419.726 -279.265 -932.172)
(1108.27 -182.942 -224.367)
(-619.657 896.764 -32.2318)
(-101.065 -319.333 -408.095)
(359.825 -264.08 -466.751)
(-239.539 209.918 -1648.4)
(147.912 -420.272 474.634)
(-941.795 -298.368 -366.707)
(-695.699 -5.80723 493.956)
(584.389 105.438 218.151)
(-647.662 515.463 242.589)
(-353.495 721.875 780.93)
(-120.875 823.439 -882.171)
(439.68 362.825 166.911)
(218.602 -28.0748 -693.849)
(-638.777 -236.713 -533.081)
(-823.704 118.598 -424.259)
(250.166 100.603 292.102)
(-1166 -220.688 -779.32)
(-29.533 95.5303 465.253)
(209.388 -324.919 -56.2248)
(177.442 343.053 -172.439)
(755.048 935.326 -235.04)
(280.796 -560.264 -333.176)
(27.3378 615.318 603.717)
(52.4366 -175.188 -583.51)
(906.349 -915.258 541.584)
(-370.785 -14.319 131.306)
(-455.913 -513.608 -302.956)
(-304.358 -390.203 93.3043)
(-67.6962 -339.66 736.595)
(481.448 -309.768 526.158)
(476.933 758.456 -833.775)
(396.579 398 -604.565)
(-410.391 262.423 -36.0641)
(-590.368 -851.038 434.78)
(-308.275 -650.032 576.343)
(605.994 532.297 -725.801)
(-291.313 153.362 -321.327)
(261.702 317.724 -193.839)
(59.4018 -146.127 -509.368)
(-380.199 336.439 929.186)
(-44.0889 527.842 -527.186)
(-1174.06 763.405 111.808)
(-662.641 194.492 -430.787)