/*--------------------------------*- C++ -*----------------------------------*\
  =========                 |
  \\      /  F ield         | OpenFOAM: The Open Source CFD Toolbox
   \\    /   O peration     | Website:  https://openfoam.org
    \\  /    A nd           | Version:  7
     \\/     M anipulation  |
\*---------------------------------------------------------------------------*/
FoamFile
{
    version     2.0;
    format      ascii;
    class       scalarField;
    location    "0.002/lagrangian/dsmc";
    object      Ei;
}
// * * * * * * * * * * * * * * * * * * * * * * * * * * * * * * * * * * * * * //


105527
(
1.00107e-21
3.09103e-21
1.40735e-21
4.77022e-21
2.98119e-22
8.57496e-21
3.21873e-22
5.42041e-21
3.59292e-21
4.03837e-21
2.74626e-21
3.90766e-24
1.19239e-21
3.41664e-21
4.1997e-21
1.15281e-21
4.07895e-21
8.12418e-21
4.72393e-21
2.57844e-21
2.53118e-20
6.29958e-22
7.2761e-21
1.76607e-21
2.035e-21
5.69695e-21
8.89919e-22
6.88954e-22
6.096e-22
7.38722e-21
3.3623e-21
2.52242e-21
1.12779e-21
8.44626e-21
1.13529e-20
4.56238e-21
4.76377e-21
5.20268e-21
2.41899e-21
2.06987e-21
1.80944e-21
4.66243e-22
2.55419e-21
1.0698e-20
2.32044e-21
3.07454e-21
4.96664e-21
1.16609e-21
3.64856e-21
4.30726e-21
9.95618e-22
8.52659e-21
3.51045e-21
1.11553e-20
1.48852e-21
7.95467e-21
3.51919e-21
2.92156e-21
2.30886e-21
1.01822e-21
4.90073e-22
5.9093e-22
1.93968e-21
4.88544e-21
9.40328e-21
1.74015e-21
7.2832e-21
3.19751e-21
1.36805e-21
6.26322e-22
8.42456e-22
1.45144e-21
4.06025e-21
4.27324e-21
1.46679e-21
1.68573e-21
2.2249e-21
3.05481e-21
7.89078e-21
1.35665e-21
3.97316e-21
1.49149e-22
5.3451e-21
2.32541e-21
8.93287e-22
1.53631e-21
2.39067e-21
3.0903e-22
4.13663e-21
1.4153e-21
2.56324e-21
8.8132e-22
3.04187e-21
8.40993e-21
3.14881e-22
7.74627e-21
9.99836e-22
9.67027e-22
7.87272e-22
3.77416e-21
6.01931e-22
4.50294e-21
3.45397e-21
6.31516e-23
3.13087e-21
5.21689e-21
4.00839e-21
1.43628e-22
4.84166e-22
2.07026e-20
2.82393e-21
2.47893e-21
1.35528e-22
1.567e-21
4.03645e-21
2.71769e-21
1.7237e-20
3.25329e-21
2.89314e-22
2.30551e-21
3.27848e-21
3.90728e-21
9.86532e-22
2.55698e-21
3.49842e-21
7.15359e-21
3.00854e-21
4.97032e-21
9.15287e-22
4.3476e-22
4.27446e-22
2.57552e-22
1.91973e-21
6.25125e-22
2.33638e-21
1.00229e-22
5.73416e-21
2.33076e-22
2.09503e-21
1.40915e-22
4.50098e-22
2.70919e-21
1.65981e-20
1.26131e-21
8.54619e-22
8.69157e-22
4.72155e-21
1.39686e-21
2.24455e-21
1.07006e-21
1.10894e-21
1.3383e-21
4.3536e-21
5.70028e-21
5.95544e-22
3.01753e-21
4.41227e-21
2.77888e-22
1.20476e-21
1.51564e-20
2.8563e-21
7.95755e-21
4.59051e-21
4.32686e-21
1.56739e-23
5.70267e-21
1.5724e-23
1.40472e-21
1.39216e-21
2.08413e-21
2.20135e-21
4.74598e-21
3.46817e-23
5.86619e-22
2.23455e-21
6.9885e-22
1.62609e-22
2.66481e-21
4.07872e-21
4.67047e-22
2.66307e-22
3.64984e-22
5.26639e-21
6.77422e-22
2.0141e-21
1.43088e-21
1.05989e-21
1.1194e-21
8.83668e-22
5.03437e-21
8.37433e-22
1.88311e-20
5.84647e-21
1.37203e-21
2.40642e-21
1.78328e-22
1.91086e-21
3.27942e-21
6.21214e-22
4.78751e-21
3.49398e-21
7.35925e-23
1.59463e-21
3.20731e-21
1.72598e-21
6.94257e-22
2.80314e-22
1.24664e-20
6.10374e-21
3.14988e-21
9.9517e-22
6.92201e-22
8.56371e-22
1.12302e-21
1.2631e-21
5.56626e-23
1.25551e-20
3.09292e-21
1.98252e-21
1.61716e-22
9.79966e-22
5.45591e-21
1.07181e-20
6.019e-21
2.06772e-22
6.98603e-22
1.89973e-21
2.51727e-21
2.57599e-21
1.96312e-21
4.9453e-21
1.90696e-21
2.10583e-21
1.61498e-21
1.16502e-22
3.11554e-22
8.19528e-22
7.0825e-21
3.8788e-21
4.07803e-21
1.20511e-21
2.15857e-21
1.26423e-21
1.79683e-21
4.54402e-21
3.71976e-21
5.82489e-22
1.23637e-20
8.18445e-22
2.15655e-21
3.89466e-21
4.44576e-21
3.26228e-21
4.63416e-21
6.55022e-22
4.13374e-21
8.01627e-22
2.20197e-21
2.96818e-21
5.65469e-21
4.39541e-21
8.29223e-21
3.21156e-22
4.6355e-21
2.19039e-21
7.61868e-21
9.60558e-22
3.6313e-21
2.4679e-21
5.80055e-21
1.16004e-21
1.24232e-21
6.1312e-22
5.02904e-21
4.587e-21
1.72091e-22
2.67142e-21
5.07254e-21
1.51616e-21
3.54562e-23
3.82257e-21
6.2997e-23
4.60505e-21
1.01612e-21
8.94128e-22
1.60611e-22
4.65688e-21
1.51835e-22
6.13616e-22
1.77179e-21
1.10781e-21
8.01322e-21
7.01798e-22
3.45024e-21
3.24591e-22
3.12658e-21
1.59045e-21
6.8776e-22
4.22299e-21
2.84349e-22
9.90434e-23
2.3894e-21
4.01496e-21
2.51877e-21
6.85895e-22
9.69904e-22
1.60526e-21
1.8754e-21
1.31673e-22
5.73358e-21
9.82303e-22
1.50294e-22
2.93987e-21
1.21725e-21
3.88651e-21
5.48961e-21
7.46046e-21
4.29627e-21
8.84343e-21
5.89066e-21
1.23443e-21
4.11861e-21
4.61057e-21
4.02376e-21
1.25867e-22
1.3674e-21
4.5611e-21
1.17383e-21
2.14218e-21
1.27528e-21
1.37531e-21
2.79961e-21
5.37887e-22
4.09086e-22
1.07285e-21
2.38463e-21
4.60907e-22
6.13505e-21
2.79926e-21
4.97192e-21
2.59029e-21
6.69718e-21
1.93266e-22
5.10243e-22
8.34128e-21
2.63115e-22
2.66784e-21
5.7217e-22
4.25054e-22
1.54578e-21
2.26092e-22
4.87672e-22
4.78675e-21
2.31583e-21
4.30605e-22
1.97315e-21
1.3699e-21
2.13214e-21
1.34279e-21
7.35905e-22
1.35794e-21
2.85844e-21
9.32511e-22
1.78111e-21
4.04819e-21
5.16293e-21
7.60927e-21
1.24883e-21
3.09814e-21
1.22008e-21
1.49114e-21
2.48305e-21
2.01366e-21
1.48354e-23
4.12996e-21
1.46103e-21
8.37268e-21
2.55273e-22
1.1723e-20
4.70569e-22
4.14064e-21
4.64329e-21
1.04143e-21
3.28797e-21
1.19896e-22
1.75609e-21
8.74043e-23
1.70463e-21
4.52038e-21
6.74451e-21
1.01702e-20
2.24837e-21
1.83492e-20
1.07351e-21
4.47769e-21
6.45248e-22
4.07063e-21
7.99486e-22
7.15567e-22
7.6305e-22
1.56303e-20
4.35664e-21
2.85879e-21
3.66806e-21
6.90089e-22
3.49521e-21
8.40438e-21
4.51839e-21
5.84622e-22
4.04444e-21
2.02371e-21
4.21847e-21
4.95058e-22
1.0594e-21
9.20746e-21
6.77918e-21
8.14109e-21
7.1983e-21
1.69225e-21
1.39581e-21
4.00701e-22
7.40621e-21
6.78603e-21
1.58552e-21
2.35825e-21
1.82726e-22
4.71306e-21
2.00928e-21
8.10346e-21
7.88944e-22
5.46198e-21
1.32397e-21
1.98838e-21
9.24244e-22
1.83106e-21
7.0489e-22
4.42113e-21
1.33181e-20
2.37181e-21
6.0178e-21
1.03769e-22
1.74789e-21
1.1005e-20
1.3706e-20
6.06268e-23
1.03634e-21
9.68807e-21
2.50642e-21
1.23075e-20
1.13109e-21
4.17172e-21
2.71991e-22
9.54703e-21
2.00786e-21
1.79327e-21
4.12545e-21
1.80664e-21
2.66005e-21
2.20357e-22
1.64555e-21
3.70938e-21
3.59464e-21
1.6998e-22
4.48993e-23
5.20683e-22
2.92034e-21
2.53753e-21
1.09967e-20
3.16547e-21
9.06857e-21
2.70053e-21
9.27628e-22
2.76472e-21
4.05064e-21
5.00661e-22
5.85071e-21
3.39041e-21
6.1581e-21
5.51169e-22
3.0854e-22
2.54176e-22
3.15543e-22
1.89041e-21
2.4696e-21
1.10607e-20
3.11114e-21
5.50594e-21
2.51431e-21
3.04859e-21
4.13978e-21
2.81432e-21
2.74837e-21
1.96098e-20
1.10026e-21
1.08424e-21
5.49986e-22
2.86562e-21
6.5937e-22
1.73548e-21
6.01048e-21
1.25625e-21
2.88637e-21
2.03082e-21
2.46342e-22
2.20293e-22
3.73702e-21
2.5429e-21
2.87737e-21
8.1347e-21
1.74256e-21
1.63798e-21
3.25035e-21
7.50833e-21
3.15004e-22
2.44891e-21
6.46431e-21
1.41281e-21
3.09563e-21
7.44283e-21
2.6062e-21
6.53684e-23
6.34785e-21
2.49516e-21
2.27171e-21
1.24802e-21
1.52429e-21
4.12169e-21
3.45249e-21
5.83849e-21
4.69141e-21
4.25903e-21
1.33764e-21
6.99938e-22
7.89475e-21
8.20582e-22
1.53e-21
5.51675e-21
1.60947e-21
3.28031e-21
1.06531e-20
7.06595e-23
6.31364e-21
2.95729e-21
5.1229e-22
1.85784e-21
6.67152e-22
8.7219e-22
7.09845e-21
5.18943e-21
6.61019e-22
2.77676e-22
5.43967e-22
2.35441e-22
2.25102e-21
3.96332e-21
7.38351e-21
1.37119e-21
1.37939e-21
1.24901e-21
7.17684e-21
3.99193e-21
1.50427e-21
1.02639e-20
2.33091e-21
1.51949e-21
1.20763e-20
3.31493e-21
7.19094e-22
6.94933e-23
1.48693e-21
1.16877e-21
3.851e-21
1.70262e-21
1.97595e-21
9.37268e-21
1.15899e-20
2.3163e-21
5.6433e-21
4.76157e-22
1.47567e-20
2.35453e-21
2.29262e-21
7.58776e-21
2.43124e-21
3.0406e-21
2.85278e-21
5.51468e-21
2.40169e-22
8.38368e-22
6.52488e-22
3.66294e-21
3.52672e-21
8.89316e-21
3.98921e-21
4.16138e-21
1.39195e-20
1.26376e-23
1.32701e-22
3.61854e-21
9.276e-21
5.50569e-23
1.59722e-21
2.01661e-20
2.28669e-21
5.5807e-21
1.57913e-22
7.74658e-22
1.69639e-21
1.24607e-20
7.39586e-21
3.78667e-21
2.11257e-21
1.16758e-20
1.23666e-21
8.38245e-22
5.98102e-21
1.36164e-20
2.38009e-21
2.31157e-21
9.39486e-22
4.05642e-21
7.15533e-22
2.21782e-21
1.3809e-21
2.66418e-21
5.36231e-21
1.82333e-21
2.86073e-21
2.18107e-21
4.41739e-21
1.71043e-22
3.54936e-21
5.31551e-22
3.52827e-21
9.86992e-24
3.07349e-21
6.59245e-21
2.23363e-21
5.24042e-21
3.43874e-21
4.90875e-23
5.60152e-21
1.52936e-21
5.36216e-21
7.85921e-21
5.41278e-22
5.24521e-21
9.29629e-22
1.98793e-24
8.5235e-21
1.4235e-22
1.09855e-21
5.19651e-21
3.97706e-21
3.24706e-21
5.14778e-21
4.4179e-22
4.0028e-21
6.56516e-21
5.38773e-22
1.33365e-21
6.67043e-22
9.07217e-21
3.01212e-23
4.98584e-22
2.16719e-21
1.59015e-21
1.40978e-21
4.02939e-21
6.14019e-23
2.03299e-21
4.21693e-22
2.78427e-21
6.67818e-23
2.164e-21
1.59325e-21
4.95848e-22
1.08371e-21
3.82924e-21
2.98077e-21
1.94466e-21
4.89063e-21
9.05563e-22
3.10064e-22
5.13598e-22
5.59533e-22
2.4398e-21
1.19665e-21
2.53857e-21
6.86013e-21
4.48349e-21
1.23966e-21
7.5384e-23
2.63768e-21
3.14795e-21
2.98802e-21
8.21319e-21
2.60248e-21
1.35921e-21
7.82491e-21
2.53315e-21
1.7664e-21
3.93094e-21
1.15801e-20
2.54235e-21
1.64554e-21
5.82403e-21
1.05219e-22
3.85046e-21
8.43303e-21
3.32668e-21
1.08492e-21
2.09607e-21
2.21043e-21
2.94484e-21
1.64803e-21
3.0457e-21
1.35529e-22
3.27693e-21
1.2753e-21
7.45928e-22
2.99757e-21
3.60841e-21
4.88471e-22
4.26152e-21
1.00903e-21
1.69201e-22
3.91295e-22
1.04566e-21
6.66251e-22
2.21966e-21
7.45014e-22
3.61599e-21
4.86994e-21
4.39008e-21
5.76144e-21
3.08718e-21
3.91712e-21
9.36206e-21
1.5474e-21
3.59971e-21
9.91792e-22
3.75953e-21
2.98091e-21
3.81407e-22
3.35134e-22
4.53445e-22
6.24942e-21
3.35099e-22
2.19745e-21
1.78316e-21
3.07622e-22
3.13703e-21
3.41861e-22
8.87461e-22
2.41317e-22
4.01486e-22
1.29377e-21
4.22253e-21
1.17429e-20
1.63752e-20
3.87073e-21
4.62343e-22
3.97586e-22
2.3951e-21
1.06459e-21
1.63535e-21
2.24548e-21
1.71426e-21
4.32577e-22
3.86049e-21
4.65689e-21
1.04666e-20
3.52787e-21
1.73017e-21
1.72948e-21
4.87189e-21
2.5956e-22
7.98551e-22
1.15687e-21
5.1682e-23
1.3181e-22
1.02497e-21
3.45932e-22
1.04311e-22
5.86543e-21
1.43551e-21
1.05584e-21
5.58857e-21
1.95976e-21
2.00493e-21
7.43871e-21
1.10643e-20
1.37309e-22
3.80159e-21
2.12519e-21
1.30565e-20
5.80618e-22
2.07568e-21
1.65118e-21
7.64256e-22
1.33157e-21
2.41108e-21
4.9511e-21
4.2689e-21
1.29205e-21
2.92261e-21
3.55979e-22
1.51304e-21
6.15456e-22
5.86297e-21
9.50579e-22
4.3362e-21
4.98348e-23
1.13436e-21
2.87052e-21
8.59221e-22
2.63876e-21
1.3769e-21
3.1326e-21
1.37684e-21
3.80161e-21
6.50695e-21
3.31751e-21
2.04874e-21
3.74483e-21
8.62854e-21
9.15306e-22
1.83358e-22
7.91604e-21
5.72634e-22
6.53207e-22
1.30596e-21
1.12606e-21
1.52585e-21
9.1172e-22
8.64626e-22
2.78342e-21
5.06382e-22
1.7717e-21
7.3624e-21
6.6837e-21
1.31521e-20
2.05506e-21
1.25694e-21
1.93365e-21
5.08689e-21
5.8297e-21
3.03162e-21
1.35192e-21
1.51826e-21
8.84275e-21
4.6887e-21
6.85079e-21
6.85699e-21
7.18032e-21
1.96207e-21
1.11892e-21
4.22876e-21
1.78533e-22
2.66523e-21
5.87966e-21
2.41722e-22
1.34066e-21
4.74407e-21
3.1351e-22
5.09458e-21
5.14414e-21
6.38872e-21
1.7083e-20
3.18477e-21
2.35092e-21
2.50331e-22
3.73431e-21
1.43127e-21
5.41149e-21
2.05503e-21
2.06979e-21
1.30031e-21
1.51593e-20
3.91507e-22
2.42108e-21
3.1047e-21
1.19596e-21
9.11951e-23
5.65472e-22
1.30616e-21
3.69978e-21
4.3604e-21
5.55961e-22
2.95088e-21
2.14593e-21
1.90587e-21
1.51507e-21
7.44283e-22
2.38717e-21
7.3679e-21
4.00195e-21
6.30004e-21
1.83485e-20
3.65672e-21
1.98282e-21
2.22084e-20
1.45024e-21
2.23653e-21
7.84345e-22
4.54246e-22
1.07436e-21
3.41655e-22
9.54147e-22
6.9534e-21
5.53678e-21
3.64637e-22
5.67586e-22
2.40191e-21
1.24305e-22
3.30025e-21
3.59444e-22
1.20989e-21
5.94536e-22
1.86919e-21
1.76569e-22
8.41527e-21
2.70773e-21
7.03258e-21
2.27386e-21
1.10179e-20
1.24686e-21
2.24632e-21
8.26408e-21
2.88796e-21
2.41342e-22
1.77907e-21
3.57576e-21
5.82235e-22
2.96605e-21
4.08283e-22
1.00266e-22
1.01781e-21
3.69282e-21
1.39753e-20
1.43161e-21
6.25602e-23
1.71595e-20
6.84814e-21
3.92715e-21
1.71335e-21
2.36345e-21
1.42922e-20
3.56966e-22
1.53446e-21
3.1921e-21
9.10997e-21
3.79473e-22
9.10402e-22
1.65871e-21
1.74279e-21
7.62115e-22
5.69852e-22
1.90681e-22
1.26334e-20
5.05256e-21
5.2002e-21
1.16763e-20
3.75047e-21
5.15207e-21
1.10084e-22
8.3355e-22
2.28135e-21
4.7551e-22
4.46011e-22
1.47693e-21
5.60939e-21
2.8051e-21
1.16735e-21
3.28371e-21
3.13783e-21
2.56692e-21
1.57288e-21
7.66226e-21
5.32587e-22
3.20327e-21
1.83768e-21
3.9875e-22
3.94458e-22
1.47343e-21
4.8952e-21
1.98091e-21
3.49223e-21
2.88546e-21
3.57302e-21
1.21548e-20
5.34545e-22
1.50306e-21
2.60436e-21
2.11368e-20
3.19337e-21
2.79233e-22
1.86938e-22
7.58087e-21
9.2583e-22
4.4717e-21
7.65686e-21
4.50674e-22
2.19703e-21
3.79798e-21
4.57863e-21
6.44741e-21
1.19759e-21
2.52953e-22
7.36352e-21
1.32845e-21
2.32476e-21
6.23993e-22
6.93977e-21
1.8432e-21
1.38988e-20
1.05862e-21
1.09183e-21
9.78652e-22
8.38933e-21
3.24169e-21
3.73954e-21
3.77831e-21
1.65846e-21
6.78663e-22
1.34974e-21
8.04449e-21
2.60246e-22
6.97657e-21
3.78436e-21
1.07252e-22
3.69944e-21
2.18952e-21
1.89172e-22
9.74668e-21
2.58113e-21
1.19891e-21
2.53831e-21
1.95874e-22
1.84226e-21
1.44078e-21
5.79858e-22
4.5921e-21
5.65322e-21
1.44063e-20
4.93647e-21
5.93296e-22
9.61707e-21
1.19752e-21
6.16024e-21
4.32304e-21
7.68768e-21
8.20959e-21
2.66494e-21
1.61988e-21
4.88303e-21
5.84471e-21
4.54016e-22
3.039e-21
2.61101e-21
5.73665e-22
2.11199e-21
6.48386e-21
3.48064e-22
5.38334e-21
8.11583e-21
3.24136e-21
3.08811e-21
1.00261e-21
8.18414e-21
5.43071e-21
2.0818e-21
4.96604e-21
1.71699e-21
4.12178e-21
1.69159e-21
1.42397e-21
7.9881e-21
3.96988e-22
9.69678e-22
3.77481e-21
8.21574e-21
9.88548e-22
1.61697e-22
1.57311e-20
4.20627e-22
6.58109e-21
1.07514e-21
9.53663e-22
2.34005e-21
9.24893e-21
1.20919e-21
1.07122e-21
4.49743e-22
1.01647e-21
1.20732e-21
9.30727e-21
4.76391e-22
3.66825e-21
6.28842e-21
1.26238e-21
3.17201e-21
8.22941e-21
2.65703e-21
1.01965e-22
1.05673e-20
9.17749e-22
1.21371e-21
1.12451e-20
2.71352e-21
1.25765e-21
1.55695e-21
2.39369e-21
1.73796e-20
1.05805e-22
5.49383e-21
2.17639e-21
5.09421e-21
2.666e-21
2.10463e-21
9.30523e-21
1.73244e-20
7.37611e-21
5.14984e-21
1.59896e-21
2.78748e-21
4.27255e-21
1.30985e-20
7.61174e-22
2.73072e-21
2.99649e-21
4.19699e-21
1.03411e-21
1.77174e-21
4.39606e-21
1.93058e-23
8.80967e-21
1.04842e-20
1.48289e-21
1.36964e-20
8.9746e-23
2.30359e-21
3.74711e-21
1.53603e-21
1.40044e-21
1.3032e-20
1.87555e-21
9.60423e-21
1.03409e-21
2.57444e-21
1.04374e-21
2.54653e-21
1.47061e-21
5.56534e-21
3.15593e-21
2.38534e-21
4.37434e-21
4.56884e-21
2.69104e-21
2.07168e-21
4.5243e-21
2.57855e-21
8.48205e-22
3.03509e-22
4.28234e-22
2.06144e-21
2.54633e-21
4.17904e-21
3.3639e-22
2.81339e-21
8.93218e-22
1.10375e-21
1.5354e-21
6.82656e-22
2.51937e-20
9.26817e-21
1.83207e-22
2.80181e-21
3.8394e-21
9.12909e-21
8.47905e-22
2.93139e-21
7.91308e-22
1.6423e-22
4.66616e-21
3.10653e-21
1.0934e-22
1.00134e-23
1.95715e-21
6.09569e-22
9.59054e-21
2.1721e-21
2.05559e-21
4.53412e-21
8.48756e-22
6.86657e-22
3.99425e-21
6.59641e-21
3.40442e-21
1.09129e-21
4.88081e-21
6.85856e-21
9.87446e-22
4.5183e-22
4.93807e-21
4.63084e-22
4.55948e-22
1.1461e-21
3.78293e-21
2.03663e-21
6.07231e-21
2.66821e-21
2.82514e-21
1.50431e-21
7.34966e-21
5.31477e-22
3.11112e-21
5.17248e-22
1.34706e-21
8.36865e-21
3.08711e-21
7.88705e-22
1.00465e-21
2.30665e-21
7.39795e-22
4.7119e-22
2.84106e-21
2.57948e-21
3.52148e-21
5.23065e-22
3.47141e-23
5.62004e-21
7.77952e-21
3.35796e-23
7.62423e-22
4.12568e-21
1.82376e-21
7.94007e-21
8.50389e-22
1.22528e-21
4.23739e-22
1.30412e-21
2.9659e-21
6.0551e-21
3.31608e-21
2.88057e-22
9.80418e-21
5.46416e-23
2.5773e-22
7.44486e-21
1.19463e-21
7.69232e-22
6.37548e-21
1.24065e-21
1.91884e-22
9.57353e-23
4.34732e-21
2.01779e-22
1.6e-21
3.56525e-21
8.82973e-22
6.36291e-21
2.18265e-21
6.91481e-23
9.53119e-21
2.01411e-21
1.15072e-21
2.32925e-22
8.30344e-22
4.14519e-21
1.04316e-21
1.42026e-21
9.44831e-21
5.46198e-22
1.17413e-21
4.17174e-21
9.00755e-21
1.60747e-21
2.7404e-21
3.71717e-21
3.80104e-21
4.01529e-22
2.44537e-21
6.22428e-22
9.80913e-22
7.70409e-22
8.43146e-21
1.18666e-21
1.85989e-21
5.93023e-22
1.17321e-20
6.77493e-22
4.81899e-21
1.1049e-21
1.03901e-21
4.79566e-21
5.15123e-21
3.28717e-21
5.93423e-21
6.46717e-21
4.63133e-21
1.9291e-21
9.7403e-21
8.64033e-21
4.31035e-21
2.67234e-21
4.3839e-21
5.01209e-22
1.84002e-21
3.22297e-21
1.8175e-21
9.52835e-23
1.2751e-21
1.56293e-20
7.35816e-22
2.57319e-21
3.58406e-21
4.77026e-23
8.01111e-22
5.61309e-22
1.43818e-20
4.68284e-21
1.73667e-21
9.83191e-21
9.32072e-22
1.03994e-20
3.0822e-21
1.97074e-21
9.09913e-21
3.28913e-21
1.0181e-21
3.06442e-21
4.42677e-21
3.78044e-21
4.11525e-22
2.46779e-20
8.81243e-22
2.84358e-22
1.82372e-21
1.81526e-21
4.38193e-21
1.37487e-22
8.03772e-24
2.92146e-21
4.57091e-21
1.20266e-21
2.10546e-21
3.96373e-21
2.15648e-21
2.72358e-22
2.31885e-21
1.78525e-21
2.84057e-21
1.82522e-21
6.08788e-21
7.13437e-21
4.99063e-21
9.46953e-21
3.48805e-21
2.3859e-21
8.70458e-21
2.42672e-21
5.5289e-21
3.73914e-21
3.77344e-21
4.80241e-22
1.13215e-21
2.00791e-21
6.62732e-21
2.50931e-21
3.25518e-21
2.80421e-21
4.40406e-21
8.31673e-22
2.16667e-22
4.88045e-21
9.53689e-22
2.67736e-21
5.12577e-21
3.65273e-21
4.63546e-22
4.80471e-21
9.5208e-22
2.92164e-21
3.84007e-21
1.5352e-21
5.75831e-22
1.56798e-22
1.26481e-21
1.35755e-20
1.38626e-21
1.70443e-21
3.76415e-22
1.28468e-22
1.11546e-21
8.5002e-22
3.86947e-21
5.84943e-21
1.45174e-21
1.82771e-20
3.30995e-21
4.99174e-22
1.36036e-21
1.06454e-21
3.23952e-21
4.79321e-21
3.49707e-21
8.8068e-23
2.52297e-21
4.67333e-22
9.389e-21
1.9775e-21
3.51482e-21
6.89196e-21
5.89834e-22
8.49115e-21
4.72076e-21
2.88566e-22
9.08114e-21
7.07029e-21
1.47987e-21
1.76359e-21
5.0257e-21
4.27303e-21
4.6098e-21
2.62081e-21
9.51302e-21
2.4566e-21
4.32096e-21
2.48983e-21
1.11395e-20
1.67444e-21
1.1685e-20
3.6319e-21
4.67833e-21
1.49734e-21
3.47037e-21
1.15964e-21
2.94265e-22
8.9588e-21
3.34698e-22
8.26438e-21
1.82586e-21
2.68877e-21
1.80259e-21
6.73698e-22
4.73798e-21
5.62131e-21
4.41269e-21
5.82016e-21
2.09643e-21
3.73535e-22
4.10308e-21
4.85269e-21
5.44332e-21
2.68959e-21
4.06972e-21
3.92108e-22
6.8166e-22
2.63209e-21
9.33131e-21
4.42608e-21
7.29434e-21
2.06094e-23
4.19257e-22
1.1781e-21
5.65809e-21
5.17714e-22
3.26164e-21
2.41423e-21
4.30509e-21
1.51822e-21
3.15595e-22
1.47521e-20
2.13902e-21
2.71543e-21
3.99603e-21
2.87951e-21
3.88704e-22
8.2683e-23
5.97412e-22
5.81517e-21
4.35413e-21
6.65939e-21
3.95357e-21
2.95234e-22
1.26224e-20
1.2098e-20
1.02848e-20
1.09208e-21
1.39256e-21
2.34974e-21
5.27821e-22
8.82275e-23
3.51718e-21
1.36083e-21
2.22665e-22
7.5519e-21
7.16225e-22
6.19447e-22
9.2627e-22
2.91032e-21
2.60686e-21
3.46389e-21
8.24887e-21
5.0738e-22
7.76902e-22
4.34672e-22
4.81118e-21
2.80895e-21
2.34113e-21
2.01071e-20
2.65598e-21
9.78703e-21
5.69117e-21
2.12057e-22
1.64008e-21
2.78935e-21
6.50333e-21
4.45884e-21
8.95809e-21
3.14259e-22
5.56402e-22
3.28434e-21
8.20762e-22
1.82944e-21
6.62369e-22
6.17546e-22
5.2428e-21
3.48223e-21
3.59154e-21
2.4363e-21
1.04831e-20
2.08126e-22
5.99126e-21
8.58147e-22
2.20435e-22
2.41332e-21
5.04371e-21
2.8508e-21
1.62568e-21
2.46207e-22
2.76112e-21
1.48883e-20
7.29169e-21
2.06177e-21
1.61455e-21
1.96889e-21
1.80322e-21
1.56131e-21
6.41074e-21
2.50036e-23
1.40506e-21
2.21518e-21
6.55016e-21
5.7063e-21
8.0808e-21
8.58374e-21
5.53471e-21
1.05689e-20
4.36328e-21
1.02032e-21
7.44072e-22
3.14552e-22
1.35829e-21
4.43153e-21
7.56148e-23
3.90087e-21
8.52976e-21
3.15261e-21
1.83384e-21
8.91872e-22
2.49663e-21
2.08165e-21
6.414e-22
4.72112e-21
2.57502e-22
6.41418e-21
1.15534e-21
8.99023e-21
1.3317e-21
1.82491e-21
3.89641e-21
2.65676e-22
5.80954e-22
4.00253e-21
3.68199e-21
5.06036e-21
2.36976e-21
2.64243e-21
8.41622e-22
4.01587e-21
5.77207e-23
3.38724e-21
6.31438e-21
5.68585e-22
2.00387e-22
2.09755e-21
4.85147e-21
3.24189e-22
1.02394e-21
5.17356e-21
7.89084e-22
3.98241e-21
4.64628e-22
1.50903e-21
2.03946e-21
3.22796e-21
7.69525e-23
7.61709e-21
2.42829e-21
1.60096e-21
1.87531e-21
1.55362e-21
1.54689e-21
2.80589e-21
5.91529e-22
7.69044e-23
4.65577e-21
6.44602e-21
1.59563e-20
7.25449e-23
2.36342e-21
6.63194e-21
5.78572e-21
9.07988e-22
4.31865e-22
1.45814e-21
5.25015e-22
5.01239e-21
2.36707e-21
2.00489e-21
9.09593e-22
3.78435e-21
5.08389e-21
3.9505e-21
1.79292e-21
3.67255e-21
3.60533e-22
9.15813e-22
4.68652e-22
6.11657e-21
2.20259e-21
5.44213e-21
2.37292e-21
4.26146e-21
2.34763e-20
4.37816e-21
6.38027e-22
7.57153e-22
8.88532e-22
1.98661e-21
4.80124e-21
3.91698e-21
3.39429e-21
2.2333e-21
1.39062e-21
5.89711e-21
7.78517e-21
6.70544e-21
6.29234e-22
2.53295e-21
5.60463e-21
1.88281e-21
1.8539e-21
1.32687e-22
9.23638e-21
2.85242e-21
1.99661e-23
6.88142e-21
4.87149e-22
1.72478e-22
3.67941e-21
1.63482e-22
5.09137e-21
7.23957e-21
8.35388e-21
6.72839e-22
2.38063e-21
8.37169e-21
2.48387e-22
7.17173e-21
3.32105e-21
1.70297e-21
2.60277e-22
5.5761e-23
1.18942e-20
1.18136e-20
3.4634e-21
1.0346e-21
7.5077e-22
7.90304e-21
5.14604e-21
2.32319e-22
8.00975e-21
2.85222e-21
3.62157e-21
1.63656e-21
3.05335e-21
1.25885e-21
4.98306e-22
2.9327e-21
3.80207e-21
3.36816e-21
1.44859e-21
4.82138e-21
1.45244e-20
4.36468e-22
4.31326e-21
1.02729e-20
7.48628e-22
1.00367e-20
6.6611e-21
2.37837e-21
1.55248e-21
1.0056e-20
6.31718e-21
1.00872e-21
6.19926e-21
3.72637e-21
7.06596e-21
3.36758e-21
1.55023e-21
2.82096e-22
7.43752e-21
4.61057e-21
1.51376e-22
3.04475e-21
1.31048e-22
3.8903e-21
8.89174e-22
3.80773e-21
4.63567e-21
6.48454e-22
5.59225e-22
1.52222e-21
7.64827e-22
2.96357e-21
1.19928e-20
6.18724e-21
4.94493e-21
1.35913e-21
4.82543e-22
5.40125e-22
1.01533e-21
9.14534e-22
1.58596e-21
2.47548e-21
8.13437e-22
4.69209e-21
2.11068e-21
6.2966e-22
4.97512e-21
2.52364e-21
4.37484e-21
1.53906e-21
2.53561e-21
1.92167e-21
3.28703e-22
4.76421e-21
9.47394e-21
8.55339e-21
1.18628e-21
3.29369e-21
9.87577e-21
8.81821e-22
5.17241e-21
3.18571e-22
9.93448e-22
9.91796e-21
5.28895e-21
4.023e-22
3.36448e-21
1.25137e-21
3.46597e-22
9.78763e-21
3.03774e-21
9.27216e-22
7.42034e-22
1.75273e-22
6.15553e-22
6.31023e-21
2.54127e-21
1.26511e-21
3.74707e-21
2.60492e-21
5.79999e-21
9.14528e-22
5.62829e-22
3.35378e-21
1.14711e-20
4.67812e-21
1.37645e-21
4.43927e-21
7.32618e-22
1.39896e-21
2.31385e-21
2.85444e-21
1.15185e-21
1.14762e-20
1.55306e-21
3.62191e-21
2.37002e-21
3.28264e-21
1.30662e-21
6.92253e-21
3.42575e-21
4.50568e-22
2.27755e-21
2.53229e-22
9.1316e-21
6.35105e-22
3.16973e-21
7.34109e-21
8.32324e-22
2.84245e-21
1.1612e-21
7.37585e-22
1.13886e-20
4.90871e-22
2.99846e-21
8.05901e-21
6.78721e-21
7.06625e-21
4.12913e-22
7.18278e-21
1.99773e-21
1.65403e-21
1.05479e-20
2.19109e-21
2.78541e-21
1.16521e-21
6.62177e-21
1.63737e-21
4.9745e-21
2.1645e-21
3.21381e-21
9.47518e-22
9.86985e-21
3.29181e-21
1.30065e-22
5.79948e-21
1.33351e-21
1.86068e-21
2.78782e-21
1.16002e-21
1.90931e-21
6.22763e-22
4.25747e-21
8.45524e-21
1.24073e-21
4.2706e-22
8.76238e-22
6.39362e-21
5.68005e-21
1.24271e-21
5.97694e-23
3.78271e-21
2.98935e-21
4.60301e-21
2.11777e-21
5.1597e-21
1.18243e-21
1.59196e-21
1.9966e-21
7.49558e-22
2.35561e-21
1.46987e-21
1.20021e-20
1.01202e-20
1.4636e-21
1.00066e-20
2.71277e-21
2.57608e-22
5.12303e-21
2.17169e-21
4.71403e-21
5.63127e-21
7.19414e-21
7.87813e-23
5.87548e-22
4.98664e-21
4.26571e-21
1.61648e-20
7.22098e-21
1.69712e-21
9.57662e-22
7.3378e-21
4.30384e-21
2.56203e-21
1.77628e-21
7.84948e-21
4.52381e-21
1.59619e-21
2.01448e-22
9.53548e-22
1.76589e-22
3.98549e-22
6.02307e-21
5.16042e-21
5.35623e-21
5.7297e-21
2.02736e-21
1.18216e-21
1.9782e-21
2.44906e-21
1.18945e-21
6.54212e-22
1.98814e-22
1.47856e-21
3.3587e-22
3.81102e-21
7.43299e-21
1.10504e-21
2.40288e-21
2.29195e-21
5.72925e-21
7.63042e-22
3.15819e-21
2.45527e-21
9.44986e-22
9.86272e-22
1.96481e-21
1.64618e-21
3.06106e-21
8.8943e-22
5.53414e-21
1.77342e-21
2.64593e-22
5.57035e-21
1.90549e-21
7.31746e-21
2.77843e-21
1.66326e-21
2.5007e-22
1.30146e-20
4.86231e-21
1.71575e-21
2.49211e-23
4.19798e-22
2.97804e-22
2.60952e-21
1.97061e-21
3.89591e-21
3.85851e-21
5.2351e-22
7.81239e-22
2.08325e-21
4.95618e-21
1.28781e-20
7.30323e-22
5.24827e-21
8.12709e-21
8.30279e-22
3.96166e-21
7.34289e-22
3.40961e-21
1.87979e-22
4.53382e-22
4.10227e-21
3.71274e-21
1.51995e-22
2.57578e-21
1.20932e-20
2.85074e-21
9.56655e-22
2.21713e-21
5.91129e-21
3.01564e-21
8.94103e-21
9.42072e-21
1.05788e-21
6.46854e-22
4.95815e-21
6.38639e-21
2.67464e-21
2.53755e-21
4.35946e-22
1.08914e-21
4.53634e-22
2.44447e-21
1.41729e-20
5.7046e-21
8.22239e-22
3.3416e-21
8.69319e-22
1.09515e-22
3.17169e-21
4.6325e-21
5.42898e-21
7.58327e-22
2.68915e-21
2.96052e-21
1.38202e-21
2.50584e-22
6.01356e-22
1.1912e-21
1.21747e-21
2.92772e-21
1.43622e-20
1.58505e-21
2.08568e-21
1.12929e-20
5.85924e-21
3.29702e-21
3.84749e-21
3.44392e-21
5.20404e-21
1.18811e-20
2.48909e-21
2.60558e-21
1.96892e-21
9.74113e-21
2.51168e-21
3.81123e-21
7.54877e-22
5.48457e-22
8.88008e-22
1.1538e-21
1.74056e-21
5.30871e-21
1.13493e-21
1.72457e-20
1.73586e-20
7.50153e-22
4.68554e-23
4.92129e-21
8.28072e-23
5.50143e-21
9.87496e-22
1.13074e-21
1.046e-21
8.88428e-21
1.83047e-21
5.62332e-21
2.30755e-21
2.16927e-21
7.8962e-22
4.80267e-21
4.0058e-21
1.69893e-21
1.70909e-21
1.79737e-21
9.0128e-21
2.18967e-21
4.70208e-21
2.99385e-22
6.77918e-22
3.5773e-21
4.5717e-21
1.02945e-21
9.65849e-21
2.14986e-21
6.20177e-21
6.17817e-21
1.62095e-21
1.93483e-21
1.74884e-21
2.60112e-21
2.48604e-21
2.37394e-21
1.22242e-21
1.20403e-21
5.61633e-22
1.2059e-21
3.54787e-21
4.05145e-21
5.45648e-22
4.35853e-21
2.1751e-21
3.94441e-22
1.57868e-21
1.11101e-21
1.18495e-21
2.67177e-21
1.39949e-21
5.5596e-22
4.40986e-21
1.31362e-20
5.08084e-21
5.35134e-22
4.16003e-21
4.00072e-21
8.24725e-21
5.29115e-21
8.41809e-21
4.55806e-21
8.7375e-22
3.26979e-21
2.31662e-21
2.13015e-21
2.53129e-21
5.70686e-21
2.91101e-21
3.10609e-21
1.04938e-20
5.28931e-21
2.85092e-21
3.61509e-21
5.27079e-21
4.17926e-21
9.38307e-24
1.52983e-21
6.02705e-21
1.50799e-22
3.97516e-21
7.15116e-22
1.20914e-20
4.35589e-21
1.07574e-22
4.41913e-21
3.77127e-21
1.34038e-21
4.19208e-21
1.04956e-21
3.63877e-21
4.26525e-21
1.26895e-21
3.72848e-21
1.68074e-21
1.91952e-21
3.56142e-21
1.01289e-21
2.1756e-21
5.49722e-21
2.40405e-21
5.99367e-22
9.24156e-22
2.14891e-21
1.50597e-21
9.28248e-22
2.53892e-21
1.27068e-22
8.17154e-22
3.98391e-21
1.21376e-20
5.64067e-21
5.80466e-22
7.68991e-21
6.08301e-21
7.80959e-21
1.41485e-22
2.33677e-21
5.07636e-21
1.22831e-22
8.39751e-22
8.92691e-21
3.41749e-21
1.19521e-22
3.21889e-21
1.06671e-21
1.04361e-20
2.82698e-21
4.86684e-21
2.5595e-21
1.00126e-21
1.77642e-21
2.5985e-21
1.14057e-21
5.39222e-22
4.41169e-21
1.06595e-21
9.84101e-23
2.10693e-21
7.43743e-21
2.31656e-21
1.46938e-21
2.04525e-21
2.04508e-22
3.57228e-21
3.32008e-21
7.34814e-21
7.21438e-21
3.72303e-21
4.31014e-21
1.52668e-21
9.82217e-22
6.46224e-22
1.05439e-21
2.03626e-21
3.80838e-21
2.29355e-21
7.49993e-22
8.87615e-23
1.1365e-20
1.16271e-20
1.92942e-21
1.76878e-21
5.11877e-21
1.1269e-21
3.13474e-21
1.55776e-22
9.74836e-22
4.1142e-21
2.55668e-21
5.63793e-21
9.19583e-22
9.90478e-22
2.36189e-21
1.24515e-21
3.32623e-21
3.55658e-21
5.52888e-21
2.82372e-21
7.96591e-22
2.55316e-21
4.50805e-21
2.3722e-21
6.32473e-21
1.04328e-21
2.00472e-21
4.39957e-24
1.62124e-21
9.5301e-22
1.41328e-22
5.17385e-21
3.06352e-21
1.12601e-21
3.93412e-21
7.93614e-21
1.68319e-21
5.89654e-22
1.75415e-21
1.42569e-21
5.16232e-21
4.76288e-21
1.33957e-21
2.30864e-21
1.53139e-21
2.07266e-21
3.61762e-21
7.38288e-22
1.03343e-21
7.85463e-22
7.90529e-22
2.76273e-21
7.8418e-21
7.69369e-22
8.78753e-21
2.37663e-21
1.46021e-23
1.07795e-21
3.75738e-21
1.00852e-20
1.06444e-20
5.79629e-21
2.14517e-21
6.65567e-21
7.0127e-22
8.67542e-22
2.75441e-22
1.43422e-21
2.46572e-21
6.68195e-21
1.52378e-21
2.0874e-21
7.75037e-21
1.22119e-21
2.34294e-21
2.88528e-21
3.43691e-21
1.00744e-22
5.25178e-21
5.09367e-21
7.50344e-21
6.91335e-21
7.08675e-21
1.15384e-21
1.95273e-23
1.29797e-21
2.19934e-21
3.29406e-21
1.16304e-21
2.18461e-21
5.41752e-22
1.7555e-21
3.17301e-21
6.50454e-22
3.21225e-21
9.0557e-22
1.27391e-20
2.5638e-21
5.41222e-21
1.07421e-21
3.10949e-21
1.15326e-20
5.12447e-22
4.5242e-22
4.86906e-21
1.36754e-22
2.4873e-21
4.54074e-24
1.39578e-21
6.42369e-23
7.11075e-21
5.44378e-22
1.29506e-21
1.70441e-21
1.72175e-21
1.20296e-20
1.4049e-20
7.88375e-21
5.4401e-21
1.35029e-21
4.10146e-21
3.78503e-23
1.24477e-22
1.20269e-21
1.84119e-21
1.54881e-22
1.19079e-21
2.24382e-21
1.73007e-21
4.59964e-21
1.04356e-20
1.05615e-21
1.15069e-21
1.12925e-21
1.18013e-21
5.31902e-22
1.02303e-21
7.86569e-21
2.51568e-20
2.64241e-21
5.78928e-21
3.93506e-21
1.61171e-21
4.9732e-22
2.21112e-21
6.56305e-21
1.47525e-21
6.00246e-21
7.47835e-21
8.20062e-21
4.07283e-21
3.43699e-21
1.16456e-20
3.09782e-21
8.689e-22
1.7224e-21
1.00412e-20
4.60284e-21
2.45361e-21
6.03352e-21
1.40145e-20
3.84322e-21
1.46223e-21
1.5219e-20
5.17777e-22
3.51234e-21
8.85545e-21
1.31596e-20
2.22136e-21
6.58449e-21
1.49408e-22
2.19221e-21
7.88559e-22
5.43411e-22
2.99969e-22
3.46963e-21
6.64944e-21
4.9276e-22
2.41992e-21
1.4106e-20
1.48884e-21
2.18417e-21
1.62054e-21
2.42857e-22
1.97937e-22
1.87391e-21
3.93848e-22
1.80186e-21
3.45215e-21
2.51372e-21
1.26904e-21
1.34905e-20
1.15001e-20
1.52602e-21
1.55481e-21
5.58841e-21
1.95424e-21
2.99135e-21
3.73912e-21
4.03885e-21
2.8019e-21
5.65387e-22
6.00798e-21
1.30137e-20
1.95455e-21
7.0028e-22
3.00075e-21
1.1214e-20
2.8286e-21
2.83931e-21
5.52424e-21
5.27632e-21
1.23243e-22
1.40803e-23
8.45611e-21
4.43281e-21
8.4615e-21
9.90379e-22
1.15832e-21
5.76977e-22
7.17972e-21
7.26127e-21
2.13617e-21
7.02732e-21
7.74638e-22
2.23491e-21
8.61846e-21
1.35834e-21
5.22687e-21
9.93871e-21
1.36711e-21
1.80927e-21
2.75019e-21
2.79605e-21
4.75781e-21
1.09591e-20
4.07115e-21
4.26921e-21
2.86891e-21
3.43582e-21
2.31563e-21
1.18189e-20
3.69351e-21
2.15581e-21
3.3502e-22
2.02002e-21
6.24788e-21
4.1171e-21
2.86236e-21
1.80772e-21
6.54706e-22
4.57107e-21
1.06144e-21
7.24918e-21
7.55924e-22
7.9264e-22
1.77093e-21
1.04213e-21
8.48472e-21
1.70675e-21
4.3318e-21
1.31554e-21
6.03427e-21
7.02349e-23
3.22188e-21
2.11528e-21
9.53965e-22
2.48275e-21
2.45528e-21
8.42371e-21
3.06464e-22
5.37046e-21
3.443e-21
1.21186e-21
1.56623e-21
5.88933e-22
1.371e-21
3.65681e-21
5.33612e-21
1.58739e-21
1.08153e-21
4.36619e-21
4.43282e-21
3.63801e-22