/*--------------------------------*- C++ -*----------------------------------*\
  =========                 |
  \\      /  F ield         | OpenFOAM: The Open Source CFD Toolbox
   \\    /   O peration     | Website:  https://openfoam.org
    \\  /    A nd           | Version:  7
     \\/     M anipulation  |
\*---------------------------------------------------------------------------*/
FoamFile
{
    version     2.0;
    format      ascii;
    class       vectorField;
    location    "0.002/lagrangian/dsmc";
    object      U;
}
// * * * * * * * * * * * * * * * * * * * * * * * * * * * * * * * * * * * * * //


105527
(
(-331.755 -2.25242 -422.672)
(111.372 -316.006 -138.522)
(-127.205 -287.808 304.465)
(-63.5572 -180.854 390.129)
(-18.9997 -306.195 120.484)
(-375.47 376.223 -186.423)
(-137.087 -366.413 31.5886)
(-760.206 -129.96 -241.174)
(-439.678 -25.8875 -39.6806)
(-392.276 -172.839 263.608)
(-412.502 -38.1772 -16.5093)
(-246.792 8.83212 -203.21)
(-101.337 83.6552 -77.5189)
(-595.362 -13.8431 -461.493)
(-670.992 52.7314 -53.4239)
(230.185 -332.756 -152.577)
(-205.719 -137.091 373.951)
(-318.562 22.7621 -62.2909)
(-84.6343 -310.569 -515.289)
(27.8252 -152.267 -21.3454)
(-481.865 -2.74828 -160.156)
(-121.556 393.053 134.728)
(-532.595 -178.863 370.047)
(-122.019 98.5906 52.8755)
(-505.971 -240.999 -240.641)
(-453.659 192.765 -201.85)
(-107.5 86.229 182.615)
(-261.796 304.443 -84.9853)
(-73.4972 -434.254 -30.7612)
(124.76 278.724 -227.273)
(-689.255 -3.62518 -337.607)
(47.1512 228.127 -99.5216)
(-363.005 -43.4127 171.848)
(70.7613 -89.1024 387.338)
(-392.743 -468.203 -234.69)
(-462.298 268.677 -535.913)
(100.767 -235.143 202.299)
(356.297 327.886 -108.097)
(-168.145 108.383 -241.638)
(-266.822 458.753 513.504)
(-433.132 7.33293 584.356)
(-88.3457 -417.197 -410.246)
(67.3571 197.047 -289.754)
(-73.2862 -139.746 -28.0626)
(-61.8898 -375.234 77.219)
(-206.263 443.283 177.228)
(-1.92722 147.624 266.652)
(-289.233 190.442 138.901)
(-239.241 -373.901 264.94)
(-138.96 -58.4321 -129.083)
(56.3898 -286.982 462.653)
(-309.605 -555.192 341.36)
(-194.949 228.614 251.172)
(-315.028 85.621 98.5022)
(-6.44071 -196.848 -225.367)
(-462.956 121.137 135.611)
(-329.939 -163.352 250.679)
(-380.44 -417.456 182.8)
(-591.424 -39.7519 5.76574)
(-512.83 -450.675 -287.47)
(-222.338 252.135 -413.251)
(-603.461 139.536 246.657)
(-210.419 99.2528 94.0538)
(-142.905 -7.26941 -117.004)
(-277.291 226.385 -243.169)
(-54.0996 355.877 -270.597)
(-361.29 -198.502 73.2174)
(-193.582 363.505 -222.738)
(-414.124 -63.0112 -115.988)
(-1033.94 -139.662 183.607)
(20.8374 9.8836 -284.813)
(-471.881 470.95 84.9049)
(-214.455 174.151 414.862)
(-479.764 164.366 -393.177)
(-739.021 -316.651 -342.565)
(-42.3437 -229.356 224.863)
(83.2993 -12.1125 -373.185)
(-594.087 59.9152 75.7607)
(-475.886 349.125 362.433)
(-284.473 -39.5127 28.096)
(-443.977 -115.698 147.207)
(-78.7309 14.0898 86.5758)
(-346.477 106.19 -144.746)
(-390.783 -297.11 100.795)
(178.297 381.029 -228.487)
(41.2944 11.1192 19.9212)
(-300.84 -244.706 -53.7996)
(-453.352 -162.506 244.105)
(-395.023 -208.025 81.225)
(-296.852 -250.674 -116.816)
(-471.392 -239.801 -177.305)
(-240.206 -240.16 -145.137)
(-363.531 -209.102 22.5609)
(-501.351 -4.03896 58.7595)
(210.614 -183.072 -258.151)
(104.712 -272.542 282.033)
(-325.463 201.902 -320.488)
(-44.456 -6.05137 199.607)
(-44.5871 -138.489 -32.0634)
(-544.004 97.2762 382.702)
(-153.4 194.248 324.097)
(-217.41 -112.556 64.2016)
(-324.339 -17.4828 -383.784)
(-496.438 -383.079 -205.07)
(207.913 -83.4292 -281.286)
(-186.747 272.698 88.5422)
(-655.805 -115.112 -88.1639)
(-567.424 281.97 -58.1214)
(-314.135 -136.273 -36.2106)
(58.6568 -338.928 -109.139)
(-561.642 -20.2608 -3.03377)
(323.425 -121.093 294.277)
(-274.263 136.347 164.688)
(-531.242 129.053 -99.4631)
(-547.265 163.958 228.261)
(10.3576 -195.398 12.3145)
(-489.524 139.345 -352.685)
(-156.888 -70.5549 150.601)
(-406.455 177.762 90.7664)
(-652.399 -181.062 -49.2415)
(-498.33 -104.18 10.3156)
(-259.134 120.119 114.988)
(-394.624 53.1544 -68.1744)
(-276.574 71.5623 55.4034)
(185.678 -165.574 -26.1956)
(-276.558 -114.914 -197.366)
(-400.105 407.938 381.805)
(87.2902 -157.979 364.186)
(-429.054 -305.537 29.725)
(-714.473 -463.033 286.986)
(-281.488 -13.212 -171.01)
(-317.454 -407.076 -57.5191)
(-363.362 -99.8579 -131.049)
(-502.142 177.143 -405.578)
(-424.38 -180.244 383.971)
(-445.329 246.069 84.7391)
(59.038 -85.9389 174.006)
(44.6861 -119.227 -263.221)
(-51.4726 318.292 372.397)
(125.082 -370.161 50.0197)
(-533.619 262.65 -111.681)
(-413.462 -80.2452 329.061)
(-135.518 167.788 142.579)
(-288.684 171.349 -144.958)
(32.7508 66.7591 -219.141)
(-23.9137 31.643 269.169)
(-392.392 -297.72 105.939)
(-99.3478 270.172 -237.517)
(-346.098 373.583 -156.593)
(66.2179 397.776 -100.377)
(-11.8921 150.564 75.737)
(-416.463 536.97 363.871)
(100.144 334.98 -260.059)
(-352.882 187.371 -18.9726)
(-284.351 -123.934 -273.681)
(-297.185 80.8816 304.575)
(-657.486 -183.462 -251.188)
(-136.461 -230.093 -46.1267)
(-529.692 243.806 -44.9391)
(-21.5586 -326.365 -252.9)
(-239.159 319.38 200.383)
(-346.674 279.789 62.9757)
(-248.874 -133.789 -354.286)
(-910.354 316.717 240.648)
(-305.018 10.6185 103.99)
(298.487 -44.2331 -599.234)
(-112.614 42.3991 -459.089)
(-391.594 -99.7056 560.982)
(-43.0586 -419.044 -525.108)
(98.4954 442.99 -82.3114)
(19.1151 -54.8547 -162.161)
(-606.966 -723.799 -40.3814)
(-641.468 259.245 43.2611)
(35.3504 -9.63003 -172.659)
(-26.2983 -57.0737 -293.129)
(-105.721 115.236 -68.7609)
(-342.007 -137.425 -237.921)
(17.6901 -208.533 129.277)
(-76.2851 321.868 202.377)
(-28.1562 -347.798 -290.58)
(-235.602 -46.8212 -343.187)
(-460.584 181.736 303.647)
(-665.041 -468.11 78.4407)
(11.2923 -222.043 154.609)
(-132.77 102.321 -61.7497)
(0.226104 -232.1 -230.48)
(-340.947 -103.181 -117.647)
(-369.246 440.128 -411.569)
(49.3944 110.971 -199.005)
(-444.878 269.039 248.932)
(-69.2304 -277.689 -84.062)
(-156.869 -11.2395 511.839)
(46.0011 201.737 503.86)
(-370.903 94.2193 179.799)
(-501.53 196.403 -209.222)
(8.76567 -79.8062 207.509)
(-108.141 693.852 -258.773)
(-4.98218 -185.487 -107.999)
(-120.976 -39.1383 239.286)
(-263.669 -721.497 405.484)
(6.22283 -493.525 -112.627)
(317.408 36.8008 177.018)
(50.5344 -110.338 168.809)
(-395.209 -334.081 -193.59)
(-115.4 -227.47 119.332)
(-2.51678 28.5549 297.104)
(-304.655 -368.455 209.625)
(-74.9773 43.4904 312.532)
(-286.221 52.9612 245.536)
(-679.513 -34.9147 -380.421)
(-406.251 212.701 -14.5624)
(-298.577 73.9496 17.4613)
(-235.411 458.557 266.593)
(-199.289 -444.611 122.716)
(31.8522 204.631 -156.265)
(-138.004 504.408 156.284)
(-405.91 18.1417 -125.058)
(251.422 102.749 138.983)
(-600.076 210.083 134.63)
(-361.633 169.949 -235.129)
(-133.006 -332.638 -193.107)
(-423.878 -5.32913 -139.53)
(-212.519 -307.049 -140.471)
(-97.3549 14.4111 -132.657)
(-148.401 -315.685 -109.904)
(-349.376 278.327 -416.02)
(-160.226 162.029 -195.093)
(118.931 -150.591 -498.718)
(-345.101 -170.301 -270.359)
(-442.986 -46.4843 4.92512)
(31.1302 -53.9716 44.5095)
(-1284.88 -32.5026 -64.8212)
(-746.568 -139.563 -183.476)
(-157.819 -185.476 205.388)
(174.934 -597.57 160.388)
(-304.762 -11.9481 -153.43)
(-493.592 -320.846 236.081)
(-228.022 41.13 -424.474)
(-116.474 -89.3691 -181.202)
(-499.75 301.544 -597.633)
(190.638 358.613 -129.532)
(70.2249 -376.523 -699.251)
(-402.747 15.113 185.896)
(-781.534 271.206 243.467)
(-622.354 129.465 -240.714)
(-385.882 309.897 86.4412)
(-318.253 179.703 -264.539)
(-499.044 371.865 428.662)
(-587.626 71.9459 492.78)
(-436.753 210.432 133.162)
(-16.1259 -13.1739 107.056)
(5.17817 124.026 -226.21)
(-486.577 -104.751 -167.284)
(-88.206 -219.567 -28.6248)
(-107.769 79.7457 -257.273)
(-674.576 427.47 194.966)
(-166.654 36.6048 -224.296)
(-88.3598 -521.949 237.545)
(-297.249 563.049 35.818)
(-283.082 184.108 21.7819)
(-786.475 504.475 -176.131)
(-396.662 -231.455 -68.7409)
(-302.744 26.6774 358.175)
(-273.563 82.1233 -97.1639)
(-485.542 -198.854 445.902)
(-165.49 46.8623 -84.9508)
(-403.943 -195.24 -327.387)
(-475.236 64.4829 68.197)
(-203.61 -124.717 -281.036)
(236.901 235.551 -7.97917)
(-698.058 -206.552 -49.9948)
(-210.208 499.984 -419.021)
(-140.316 219.152 -175.368)
(-100.199 47.2211 -177.109)
(-606.771 159.294 489.206)
(-334.713 -253.585 -186.67)
(-238.394 -403.177 91.7998)
(-445.887 -187.752 265.922)
(-137.721 -572.92 -3.61349)
(-277.818 199.996 -204.092)
(-117.209 -63.3244 322.005)
(-249.863 -153.554 89.2537)
(170.831 94.686 -343.314)
(-394.434 -51.9089 -58.3974)
(168.031 152.714 -590.195)
(-504.479 203.091 299.127)
(-557.453 539.953 -46.1289)
(-44.3938 -156.202 -82.7244)
(-62.6514 -62.2497 -200.791)
(-827.18 -119.602 55.0287)
(-160.913 -492.125 -351.505)
(52.8412 7.23236 270.204)
(-622.826 -43.4056 85.9858)
(-472.847 344.829 -106.968)
(-369.859 -299.023 -168.075)
(-253.655 -174.282 236.154)
(-252.695 429.176 496.73)
(136.015 -362.153 69.2397)
(-296.808 -28.7868 258.498)
(-410.139 -86.748 -4.51851)
(-340.493 -188.625 278.241)
(-161.963 208.606 -259.227)
(-842.806 9.73753 339.226)
(-57.423 213.346 193.845)
(124.187 291.281 304.663)
(20.1789 409.981 -17.2623)
(-524.931 -37.9315 -10.8006)
(-363.208 -75.5842 132.358)
(-489.615 -154.964 239.609)
(-349.746 253.15 -191.303)
(-620.189 350.634 -250.38)
(92.2029 339.636 -10.0418)
(-445.626 187.873 -108.922)
(-123.858 92.8052 51.0782)
(-50.4896 420.9 78.675)
(17.3221 -304.523 -53.6914)
(-465.292 6.13339 124.596)
(-360.716 276.936 -437.037)
(-20.7425 -199.2 525.989)
(-623.358 -162.33 278.684)
(-316.122 -565.659 152.292)
(-264.283 165.865 -310.717)
(-419.386 666.34 -61.0379)
(142.813 -2.79783 -272.067)
(-418.991 -69.7806 488.555)
(-70.7963 -82.0596 181.882)
(-309.969 492.344 -62.0908)
(-202.123 294.872 30.3145)
(-17.0784 165.008 -168.526)
(-33.473 53.2343 277.93)
(-158.196 -44.9543 85.2905)
(-356.107 108.746 609.959)
(102.707 -227.268 -360.669)
(-327.212 -257.951 82.2302)
(-54.5125 -427.368 76.2125)
(-110.229 215.58 -78.2181)
(-152.392 -524.853 530.863)
(-250.665 -132.17 105.854)
(-289.759 91.1124 -186.631)
(-276.574 -315.921 124.545)
(-375.586 45.529 -592.237)
(77.9157 -15.3574 93.574)
(-503.529 -160.355 146.381)
(-126.578 -182.838 -53.4389)
(-468.911 -210.014 285.699)
(-265.133 -337.184 -205.098)
(-246.482 395.92 360.766)
(-283.435 -246.44 -173.396)
(28.3066 525.2 -9.45409)
(348.433 11.247 102.302)
(-723.329 -139.064 -117.743)
(-73.4953 -41.1175 148.966)
(-441.978 -378.879 7.71531)
(-251.731 46.4593 142.308)
(-41.8266 123.002 -132.176)
(-268.042 -357.541 101.051)
(-283.743 70.9039 226.364)
(-168.765 118.075 -462.04)
(-234.598 -34.866 -307.346)
(-310.672 -160.881 195.989)
(219.959 69.8021 23.4028)
(-173.775 73.8559 -11.3084)
(-254.986 -12.1809 -389.361)
(20.0871 68.0198 12.1447)
(-179.517 136.484 -674.535)
(171.879 8.45268 311.047)
(30.9566 -232.75 -4.52652)
(-358.006 135.338 -99.5681)
(-175.224 -345.631 -77.7007)
(-130.673 20.772 -111.388)
(-239.639 -98.1304 -50.9004)
(-240.098 -314.079 -22.4757)
(-329.896 50.6166 -458.733)
(508.266 190.051 124.699)
(-228.669 245.71 114.389)
(-173.729 65.4988 -141.821)
(-467.122 325.005 288.184)
(-158.6 369.649 579.273)
(-58.882 75.2942 -75.7326)
(-269.197 -108.977 -250.901)
(-302.091 456.364 180.079)
(-349.576 -305.898 -21.2067)
(-346.837 -75.2855 -161.735)
(181.89 333.524 -179.806)
(-229.359 208.457 330.418)
(-551.338 -104.767 -210.416)
(-204.518 272.543 440.778)
(-241.447 -143.63 -16.46)
(-409.337 66.7849 -6.89378)
(-268.023 -216.023 -126.433)
(-355.761 171.68 513.578)
(-293.548 -129.774 -241.482)
(120.379 145.544 121.171)
(-417.245 -57.6384 32.6701)
(97.6188 -3.068 28.78)
(-239.445 -12.8902 -26.7027)
(-171.745 73.9472 61.0831)
(-339.53 32.3017 466.364)
(-353.25 -19.1362 76.2605)
(-10.7513 208.452 -4.89016)
(144.05 -459.819 -283.244)
(-61.6498 236.74 98.5788)
(-62.6767 -39.9729 -396.729)
(-213.468 207.556 -381.902)
(-241.591 232.832 -78.2691)
(-393.343 453.963 126.848)
(-99.6101 464.824 -55.527)
(-318.987 294.689 -385.631)
(191.227 -156.398 -333.142)
(-339.483 207.878 60.9288)
(-286.35 19.843 -435.565)
(-442.634 -395.5 -11.6205)
(-401.663 62.5705 252.28)
(-384.508 -459.702 -240.079)
(62.1634 -245.35 -289.838)
(-504.893 167.976 -183.075)
(-249.78 212.648 -139.005)
(-501.125 362.233 687.003)
(-183.792 22.3519 -105.848)
(-273.051 59.4108 412.893)
(-281.38 136.594 176.144)
(84.203 3.45976 -396.966)
(-337.31 99.4596 -155.324)
(-15.503 -297.071 163.041)
(-1037.29 -78.9668 -98.168)
(-536.63 -107.389 -62.8997)
(-587.623 95.6629 23.8702)
(-636.945 -72.3803 66.7688)
(-113.026 205.599 779.003)
(-313.32 -27.5099 -92.4055)
(141.518 -245.505 125.438)
(-269.389 -97.4861 -58.3465)
(43.3934 -122.288 24.5657)
(-430.317 -46.369 -187.633)
(-254.651 10.0173 300.705)
(-343.091 425.246 -143.746)
(94.2838 304.271 80.3476)
(-266.425 -217.735 -50.5508)
(-642.215 86.1626 -175.424)
(-304.714 -138.86 -157.052)
(-323.856 -36.5062 168.768)
(-202.857 -575.79 444.979)
(-1006.63 -494.086 -9.42271)
(-554.558 -123.961 150.879)
(-188.437 -301.009 -880.629)
(-285.184 5.62896 649.13)
(-202.985 -135.627 21.1374)
(-42.2086 -61.1695 -48.9654)
(-461.345 -253.715 -154.738)
(-460.15 871.478 -85.4507)
(-677.632 119.125 -83.2016)
(-210.112 467.13 484.031)
(-49.8527 97.7046 -265.616)
(-242.896 -316.437 -141.898)
(181.777 514.828 337.974)
(-40.4846 147.684 308.232)
(-568.747 -115.052 -141.33)
(-66.1096 138.867 357.99)
(-317.922 -97.6484 -149.95)
(-164.385 271.771 -379.7)
(-191.512 -46.4574 -35.0308)
(-164.932 222.705 -311.273)
(-286.006 -228.326 43.1446)
(-251.824 187.536 -130.205)
(1.17829 515.028 31.6086)
(-188.535 101.903 -191.376)
(-68.7271 60.1528 -75.2569)
(453.682 624.053 452.407)
(154.38 -76.3156 -341.636)
(-517.851 579.1 597.09)
(-201.661 173.788 455.774)
(83.273 236.639 -25.2525)
(167.285 -45.0468 229.094)
(-601.056 16.4037 93.6426)
(-135.823 92.8183 356.149)
(-381.035 136.798 -46.0774)
(-528.332 -284.26 52.6416)
(256.293 191.182 16.8128)
(-298.071 -172.67 -255.028)
(-346.561 287.727 -205.392)
(-408.283 350.091 -175.802)
(-221.303 257.326 24.1904)
(-630.028 3.1103 12.1291)
(-480.708 56.6878 170.176)
(69.9242 42.4459 185.906)
(-399.705 -489.744 289.02)
(-631.26 18.512 -543.807)
(-56.1239 -161.261 -515.157)
(-39.4693 54.2187 -704.066)
(419.843 -239.233 115.359)
(-84.4366 210.796 45.4113)
(-689.078 -211.606 135.301)
(181.778 -135.551 314.862)
(-815.219 97.3563 -111.607)
(-353.551 -150.396 -55.0589)
(-321.747 -142.558 -106.8)
(-523.257 229.281 -258.687)
(40.3656 328.932 236.471)
(-735.548 -218.346 -138.597)
(-193.079 158.979 483.305)
(-62.3786 39.0041 -243.969)
(-574.142 -160.05 509.667)
(-390.673 -96.2317 -179.286)
(193.11 140.911 759.34)
(-318.662 -485.318 307.515)
(-455.519 -263.139 106.252)
(-36.6026 430.041 212.25)
(-269.473 345.006 268.356)
(-244.199 -241.248 -15.2598)
(-314.203 -95.018 -289.349)
(-395.933 1.95479 -31.9259)
(-390.101 150.906 -338.423)
(-342.436 -173.094 274.356)
(285.244 621.434 66.5835)
(-238.754 97.8874 325.755)
(56.6209 54.4818 -678.58)
(53.5309 17.2159 167.454)
(-671.45 19.252 704.426)
(-47.7002 341.577 154.207)
(-374.273 490.926 104.91)
(-65.6981 164.585 -142.33)
(-161.747 60.3385 217.052)
(349.615 187.774 -81.636)
(-560.924 198.456 -154.616)
(-134.361 392.701 48.9231)
(-198.679 323.715 -107.575)
(22.8073 296.791 -118.108)
(-292.926 -442.99 -577.681)
(-187.548 270.711 -812.083)
(-400.242 -70.4897 305.2)
(213.793 -36.8915 -4.6851)
(-216.71 297.625 -3.74426)
(299.832 -45.4446 228.81)
(60.8964 14.4161 59.9531)
(-173.767 291.306 -242.948)
(-318.477 -154.853 -39.8475)
(-451.423 -321.11 4.59139)
(-399.991 -77.497 44.4788)
(-230.05 -24.4812 169.419)
(-317.754 -199.637 99.6403)
(-545.939 27.048 147.671)
(-86.1976 -32.0692 25.2222)
(-25.081 250.381 -767.852)
(-269.446 -583.255 -354.939)
(-446.704 20.4046 290.712)
(-375.635 53.2107 -106.739)
(73.5339 -523.928 177.441)
(60.7004 51.3997 94.0326)
(-646.874 23.8344 140.466)
(145.165 -24.9674 211.439)
(-573.808 27.9625 214.777)
(-402.621 -689.945 114.505)
(-179.456 61.3208 344.399)
(-349.288 -61.1216 120.738)
(-129.988 42.0024 251.891)
(-318.729 -230.434 -0.792696)
(-97.0073 28.3183 314.268)
(215.193 545.08 -104.991)
(-199.769 -184.879 -180.627)
(137.126 359.426 206.68)
(-65.5495 31.8489 201.452)
(-192.265 -111.213 24.4605)
(-394.214 -157.59 -3.36069)
(-51.9361 112.414 -22.3189)
(-601.395 -43.2151 -14.5471)
(-263.62 349.354 -53.1468)
(165.509 -348.546 -310.551)
(-215.263 82.1778 194.764)
(-250.371 -259.453 -21.3383)
(-239.083 139.759 447.685)
(353.633 -75.147 -98.6108)
(-160.324 198.564 27.5802)
(-115.355 -2.47922 257.086)
(453.634 134.342 -245.918)
(55.4 191.688 531.891)
(-239.547 216.516 0.35416)
(-72.1664 163.284 252.154)
(-29.4572 287.95 -360.67)
(-204.876 189.505 -34.6211)
(-139.177 32.1893 9.68881)
(-0.552909 331.103 121.575)
(-138.027 -409.446 89.366)
(326.497 -152.927 -19.5844)
(-335.534 -365.103 221.236)
(-103.245 36.8952 135.383)
(195.584 289.534 -139.734)
(57.3952 -408.484 124.75)
(-251.252 -46.7684 349.776)
(-401.931 586.311 -41.4357)
(-583.289 -15.0288 -209.038)
(-85.7837 85.8892 530.713)
(-312.505 69.1982 418.755)
(-569.68 589.525 80.4163)
(-747.278 -40.0889 506.971)
(153.724 278.38 444.772)
(-277.294 -173.326 368.632)
(-113.806 -222.162 319.857)
(21.4772 -286.688 -435.109)
(-130.599 -597.876 -143.027)
(-323.654 -179.79 -219.865)
(-221.607 153.817 -125.356)
(83.6365 415.546 293.04)
(39.3542 -5.2067 -387.597)
(-218.798 182.788 254.666)
(369.338 76.7756 -113.518)
(-282.142 543.642 -248.413)
(-276.313 202.26 211.085)
(-410.324 -103.889 -288.751)
(-86.6531 5.45866 -325.733)
(28.5866 -203.681 -416.169)
(-129.792 -331.007 -427.328)
(-509.169 -466.108 -298.399)
(-277.387 433.79 154.408)
(-155.64 154.512 156.875)
(-318.231 240.817 -278.533)
(-52.1979 -220.198 -148.731)
(-446.261 374.736 307.839)
(-292.855 281.602 166.846)
(103.114 78.9793 218.379)
(-480.236 41.9267 -28.2593)
(-524.811 218.72 -271.709)
(-122.713 -57.3036 149.679)
(-57.5055 295.286 -318.404)
(67.8274 96.2957 -273.8)
(-145.348 270.433 270.267)
(-397.633 -213.338 -530.773)
(-35.3265 -132.305 -98.5785)
(318.379 -382.844 -19.9036)
(-266.19 61.3229 -153.208)
(-369.102 349.378 -26.1738)
(-270.67 156.324 528.087)
(-116.407 391.751 -145.141)
(-591.204 -55.4808 209.746)
(-307.45 -139.28 -367.765)
(-99.5308 -201.436 -148.637)
(66.8293 -186.653 -394.664)
(-813.14 17.9787 -27.9125)
(-75.735 84.4659 404.803)
(-372.91 72.7215 -202.513)
(-754.639 -324.424 -50.387)
(-495.782 -278.071 516.352)
(-91.66 -582.602 -90.3259)
(73.0136 126.507 -131.759)
(-11.9185 -67.0284 -149.439)
(-449.346 -616.877 -15.5025)
(-278.778 -137.997 368.849)
(45.8296 280.393 93.3264)
(-270.032 652.637 -538.816)
(-294.788 -345.502 -375.512)
(-595.078 -177.863 -135.893)
(-726.044 1.4402 503.941)
(-53.7572 265.777 209.594)
(-14.6003 -151.359 350.963)
(-43.1262 87.0844 162.118)
(-327.864 -138.833 35.9973)
(-200.731 -308.38 34.6507)
(14.6936 290.47 -45.1328)
(180.239 1.65485 85.6817)
(-423.393 -527.735 168.089)
(-39.1043 26.8927 79.0237)
(-42.231 360.19 172.792)
(21.0707 -3.3299 113.301)
(-453.657 88.4522 435.09)
(152.766 -209.653 -397.471)
(-446.778 -1.02891 -142.906)
(-283.983 14.8865 22.6425)
(-365.436 52.148 -103.064)
(-40.79 482.145 295.831)
(-366.137 -191.752 116.159)
(-420.831 282.53 -311.964)
(240.863 119.496 -216.444)
(-16.7577 412.38 -628.428)
(-584.638 477.207 58.4258)
(-653.322 305.742 46.3535)
(-140.052 -314.218 36.1797)
(-93.1276 -254.883 75.66)
(-346.892 -147.56 38.4697)
(-323.58 -59.7791 98.0521)
(-219.4 344.202 117.667)
(-216.058 -150.739 200.655)
(-123.844 20.1711 -461.974)
(16.3328 -301.669 -537.311)
(-375.284 469.485 -2.76645)
(38.9316 -48.3555 247.781)
(-58.2749 18.1164 51.3501)
(-208.354 50.6816 -316.644)
(-640.04 46.2877 -169.02)
(-15.2483 -248.471 330.815)
(-165.246 -322.401 686.755)
(231.542 -111.687 338.783)
(-198.693 611.82 190.473)
(-304.703 -154.591 -432.732)
(-302.961 204.466 -239.824)
(-1.02421 341.681 35.9439)
(-112.899 -603.068 -122.308)
(-390.917 -55.2385 -128.082)
(-402.564 -115.423 73.85)
(-166.829 48.7417 -155.075)
(-103.238 -98.7644 -0.138989)
(-44.3521 -486.822 140.324)
(-265.163 -244.755 -257.325)
(-6.14947 38.2333 -4.00022)
(-168.138 218.758 348.623)
(-268.678 205.596 78.2808)
(-740.129 -39.8354 -56.5226)
(-104.391 71.9167 -429.289)
(-329.925 65.5427 61.9183)
(-116.244 -64.5835 -272.814)
(-6.86649 -497.84 193.495)
(188.707 -209.519 -250.376)
(-595.072 -188.851 223.323)
(-246.828 400.721 151.877)
(-265.147 263.96 -54.2571)
(535.458 218.336 329.247)
(-322.467 -164.275 -237.942)
(-409.804 -91.4359 359.943)
(216.086 246.739 -255.88)
(-791.602 -127.656 -149.614)
(-530.98 -251.009 -391.146)
(-175.291 -212.035 12.3705)
(273.073 236.799 -329.577)
(-472.408 230.664 157.642)
(-355.822 314.472 361.429)
(-406.698 301.783 233.421)
(-5.47017 177.809 36.8433)
(-88.1699 -126.458 75.7792)
(-499.164 -178.068 -439.973)
(38.1447 -257.887 515.653)
(103.389 -330.328 6.86666)
(-317.268 125.144 408.303)
(-372.294 -319.705 -584.483)
(-386.581 -262.738 -795.303)
(-209.323 -428.232 36.6005)
(-516.054 -79.0299 -112.738)
(-138.774 130.441 399.934)
(-203.695 210.516 82.5163)
(-520.625 -165.642 85.4982)
(17.4694 -370.609 40.6554)
(-200.998 -104.151 297.044)
(-117.765 6.63416 -333.371)
(-639.109 -146.975 183.415)
(20.0489 -80.4142 -436.566)
(-634.78 21.8309 350.184)
(-46.523 -483.338 215.463)
(-339.588 107.721 -189.817)
(-243.746 240.292 222.578)
(-214.565 -461.81 361.43)
(-542.534 39.1379 -196.387)
(-485.717 127.237 -75.3886)
(78.7427 470.943 -272.799)
(-448.448 156.651 -88.0201)
(5.84472 519.367 -92.3186)
(-640.775 -10.6018 -146.462)
(-443.472 34.0777 -354.403)
(-402.045 321.268 -178.115)
(-521.835 -351.343 460.126)
(-100.886 602.793 150.41)
(126.648 890.682 349.542)
(-113.966 56.7615 258.009)
(-396.367 -42.301 179.766)
(-189.307 -311.484 95.6266)
(-358.467 93.1753 -89.5846)
(198.311 336.652 -168.227)
(-470.867 524.649 -494.269)
(194.318 51.3065 -115.512)
(-378.635 -59.188 -100.68)
(45.238 -95.615 453.823)
(50.7727 -63.9728 118.468)
(-100.014 232.177 -226.46)
(-130.991 -262.599 145.191)
(-118.316 -167.877 294.113)
(128.834 -213.85 289.557)
(-355.087 -286.076 530.269)
(139.05 -397.659 -459.854)
(-327.428 98.282 -547.534)
(-160.847 305.348 -361.376)
(-379.484 -227.195 88.9016)
(-341.455 130.56 -86.3193)
(-265.056 111.167 -49.7692)
(-263.005 -301.505 149.822)
(-195.916 164.737 30.6348)
(-277.914 28.2618 36.2948)
(125.986 -182.005 -476.606)
(-199.604 -441.331 -13.3685)
(-298.103 171.922 -222.403)
(-341.363 -90.0267 -134.134)
(224.061 379.286 -503.667)
(36.7638 337.074 -151.239)
(-217.038 -100.82 6.00276)
(-64.0184 159.807 -541.174)
(-59.815 -263.636 -139.079)
(-395.656 -99.6295 -3.72036)
(-78.9667 195.495 150.332)
(-64.5938 258.237 -37.4678)
(-313.474 -328.369 115.971)
(74.6627 53.5038 -299.642)
(-439.034 16.2977 262.434)
(301.6 85.9308 -322.679)
(-581.211 -421.369 -307.147)
(-172.867 -184.474 653.471)
(69.9676 -390.85 -231.161)
(-279.037 -64.2913 -274.699)
(-249.702 336.559 -511.611)
(221.412 45.6241 40.4274)
(-229.19 -272.516 140.679)
(109.925 231.998 -47.9331)
(-224.52 86.0059 -25.9379)
(-39.9944 -309.179 -440.463)
(-291.6 522.503 -61.8223)
(-545.61 -378.998 -117.691)
(-67.8857 138.184 -153.29)
(-125.517 302.552 -406.543)
(-275.688 375.351 217.307)
(-42.7239 -4.15864 -501.139)
(-197.914 665.245 -451.786)
(57.6978 -179.813 372.777)
(488.817 -172.551 -525.852)
(-633.878 279.438 191.498)
(-52.5717 -438.623 -141.436)
(-154.585 -330.632 -10.6946)
(-704.16 -46.2308 -372.217)
(-779.283 78.4823 -15.9566)
(-569.032 155.192 -11.0531)
(-234.272 129.472 -217.618)
(9.13361 -615.603 259.749)
(-138.817 -34.9102 311.502)
(-368.262 -100.363 182.3)
(-347.677 176.771 -217.831)
(-221.815 -199.719 194.019)
(-144.858 114.689 -397.981)
(-39.093 -174.365 -416.024)
(-558.265 -433.825 -51.461)
(56.881 204.227 -45.2094)
(-600.447 -339.142 92.0639)
(148.164 -268.898 -53.9962)
(179.302 -281.383 102.845)
(-171.746 -458.173 291.713)
(-428.02 -13.7409 124.92)
(-285.771 -218.67 216.274)
(350.379 344.415 -164.597)
(-229.849 -280.134 359.778)
(-150.02 -176.627 -68.2459)
(-506.127 144.329 77.1325)
(-704.002 -109.427 -385.623)
(-452.587 441.586 31.3814)
(-164.096 82.2193 -338.109)
(603.996 28.2675 230.36)
(-424.895 -278.018 -195.626)
(-403.823 12.6221 -106.107)
(-786.614 -151.242 -115.341)
(-23.5426 -12.1429 361.293)
(-23.4985 164.818 -165.488)
(-406.288 -89.1729 62.5174)
(-338.546 -41.1844 -243.392)
(197.909 -243.595 -237.624)
(-479.041 -65.5824 -384.772)
(-197.465 349.666 -112.137)
(-90.3386 -237.08 122.155)
(-253.953 -310.074 -230.426)
(291.925 184.027 -465.203)
(-123.612 280.984 -65.7748)
(-622.641 -65.16 -202.838)
(-616.852 -209.7 334.441)
(-372.127 -399.366 -406.248)
(159.254 57.4615 -217.843)
(-464.957 87.5932 -261.079)
(-175.307 513.531 107.495)
(-169.756 -311.602 213.547)
(-49.4022 -309.281 -596.701)
(307.926 122.067 621.765)
(23.929 190.699 48.6025)
(-183.343 -117.513 -231.099)
(-150.997 -376.085 -161.684)
(-268.663 105.267 288.152)
(-700.147 -155.438 -113.772)
(-508.575 -106.623 -651.189)
(-97.5067 116.868 -32.7902)
(498.125 44.4499 269.749)
(-89.3346 343.48 -119.174)
(304.087 60.2124 -167.633)
(-455.98 335.41 167.721)
(-632.869 -367.066 225.015)
(-51.5915 -216.019 -108.471)
(196.055 -58.0493 65.389)
(-257.069 282.33 -614.685)
(-369.896 -28.5068 96.39)
(-310.544 -207.924 16.8435)
(-206.882 -67.0573 -492.901)
(-307.34 344.566 -195.579)
(-388.34 168.781 375.968)
(-214.616 236.201 -76.7087)
(-428.469 82.1194 -236.048)
(-549.708 519.92 181.3)
(-170.16 -446.355 269.634)
(-308.223 307.094 -319.37)
(-288.256 -361.1 -107.494)
(-215.568 -55.3644 -275.325)
(-552.864 -202.154 -494.69)
(-86.7227 97.4918 -338.146)
(-145.845 -99.7601 95.7064)
(-226.4 219.257 64.2645)
(215.39 407.759 48.0986)
(-262.531 -322.938 -116.625)
(122.563 175.89 215.485)
(113.49 -131.83 -296.892)
(-611.865 108.731 -242.239)
(-152.553 320.884 -116.559)
(-47.69 256.614 243.338)
(-339.424 6.63048 -50.9674)
(-35.8476 -156.506 -163.586)
(-231.692 241.324 -204.071)
(238.631 74.9786 -71.8899)
(-209.134 -104.787 -82.699)
(-214.908 -167.051 13.2674)
(-193.975 259.134 130.023)
(151.541 -113.952 206.881)
(34.6327 363.183 -67.5776)
(-364.533 -144.704 -227.071)
(-168.697 -437.055 225.885)
(-402.111 158.132 -30.9849)
(259.788 -364.522 173.045)
(214.487 -2.2621 166.082)
(-377.284 -94.1637 174.071)
(70.1778 62.22 -199.444)
(-246.714 11.0214 -16.2982)
(-548.849 42.2481 -535.883)
(-448.292 -239.74 53.0604)
(-270.302 247.209 148.277)
(-139.069 -207.317 198.7)
(-186.251 -212.168 525.305)
(-625.353 215.746 162.131)
(9.52643 184.335 257.362)
(286.142 516.693 173.508)
(-278.539 -6.58689 162.188)
(77.8739 -5.98778 54.2439)
(-195.95 -130.87 52.7233)
(-471.483 34.3362 -172.241)
(-244.384 -515.893 589.659)
(-467.426 -32.8263 -33.2745)
(179.389 -248.414 -138.164)
(-90.7735 61.0228 281.31)
(-148.875 141.303 -251.271)
(-557.506 418.523 365.055)
(-162.799 105.929 -203.513)
(-79.3359 167.385 725.146)
(-218.742 382.048 287.645)
(-346.006 -214.635 -191.658)
(-192.672 163.309 429.656)
(55.5489 72.5958 292.106)
(-85.7794 -209.481 247.792)
(-106.19 -66.445 -171.356)
(-316.957 242.78 288.542)
(-218.703 -261.241 -23.078)
(-87.2431 296.752 106.334)
(160.201 134.461 292.313)
(-271.165 -317.885 -233.779)
(-301.984 138.489 -240.079)
(-448.609 -109.222 287.946)
(-721.791 -142.602 -428.449)
(-410.078 381.804 -129.091)
(-262.114 -202.528 452.844)
(-667.161 69.926 235.958)
(-195.095 -57.7024 119.044)
(-265.338 434.348 -152.6)
(-477.901 162.545 169.123)
(114.485 255.319 -249.716)
(-68.5015 -2.65421 62.9245)
(-284.447 -525.949 -277.82)
(-77.2007 366.847 398.636)
(122.83 -128.224 -413.935)
(-548.665 124.807 295.539)
(262.427 345.765 382.515)
(133.531 -363.691 -272.155)
(-110.785 -137.207 -45.4376)
(-455.384 223.607 -177.253)
(89.1412 -1063.28 162.108)
(-427.848 213.978 -113.868)
(-632.37 -521.952 58.9705)
(-457.383 85.5718 -128.419)
(-4.41225 377.42 -242.719)
(-157.974 -148.363 -163.709)
(21.5502 -210.473 344.552)
(150.426 -105.254 387.316)
(-291.952 -270.451 102.406)
(-385.649 -136.217 121.85)
(-25.19 473.211 15.2747)
(-380.104 -176.519 61.6967)
(-445.876 -203.909 547.687)
(-107.72 167.525 -29.8209)
(-357.559 363.349 44.2137)
(-622.69 -68.0348 -177.348)
(220.522 -127.981 -152.035)
(-283.426 31.8422 337.14)
(-492.337 48.1257 -465.408)
(-81.3041 -510.915 125.381)
(-286.789 95.3075 217.149)
(110.708 -361.077 -457.607)
(-496.014 -230.155 434.503)
(18.0353 398.115 269.819)
(-80.7082 -33.968 -188.781)
(108.532 -174.419 -165.153)
(353.315 240.78 341.387)
(-922.567 171.631 -34.6421)
(-283.698 42.9833 -337.457)
(-27.1475 340.633 36.0708)
(-451.4 334.857 164.746)
(-686.395 -143.579 -40.1733)
(-305.121 15.9282 47.3025)
(194.531 -273.436 -289.015)
(-101.175 147.425 131.973)
(18.0552 76.8234 -165.195)
(-374.126 245.738 -95.342)
(-330.784 196.913 260.471)
(-261.418 -225.372 26.5323)
(-203.912 207.365 -216.307)
(171.812 58.9059 -17.6163)
(-156.144 546.098 -23.9285)
(-224.265 245.453 303.082)
(-109.411 195.111 -227.036)
(5.36581 16.5741 -334.178)
(-393.29 132.232 -155.294)
(-158.669 402.686 9.70419)
(-234.741 476.386 333.917)
(-822.564 -131.938 -56.631)
(-6.87134 -313.535 240.242)
(-383.799 124.863 116.798)
(-394.3 -1.752 -7.68516)
(-393.39 -651.469 21.5291)
(-290.049 73.9214 -219.987)
(-620.832 586.653 386.717)
(-664.848 -206.033 352.266)
(-226.41 427.579 -294.567)
(-562.255 -234.545 -48.2505)
(-84.2533 -70.4791 -149.943)
(302.867 136.381 -743.737)
(-295.155 -38.5882 -375.275)
(-344.701 -192.425 54.0815)
(-26.4365 -411.983 -326.526)
(-218.412 -396.154 312.193)
(-181.587 236.851 -11.2823)
(-171.25 176.978 12.2405)
(-524.073 -33.7167 136.864)
(257.418 172.526 -3.70862)
(41.8877 -318.806 32.7679)
(-123.173 75.7243 397.172)
(-220.968 72.7741 196.374)
(-96.9852 271.378 -315.508)
(-108.732 319.623 401.218)
(281.994 -138.112 -104.151)
(-515.246 152.207 -208.964)
(-532.333 -19.3252 228.435)
(-218.151 -329.111 27.4024)
(132.335 -317.262 195.482)
(-170.103 -171.939 -84.3039)
(-198.737 297.402 52.5986)
(-70.5629 64.1504 -385.668)
(-86.2267 -248.673 450.737)
(212.366 -285.806 -6.72965)
(-228.371 36.7145 -287.163)
(-276.4 -88.5361 -440.95)
(-166.582 314.189 -379.168)
(120.282 -96.7626 412.17)
(-41.7091 205.587 -36.8979)
(-161.633 169.71 -70.3029)
(-342.197 176.424 -175.664)
(-643.797 -187.327 -9.34302)
(-121.338 -100.668 -188.475)
(32.5707 -65.1942 -218.098)
(-320.784 -56.1202 -336.603)