/*--------------------------------*- C++ -*----------------------------------*\
  =========                 |
  \\      /  F ield         | OpenFOAM: The Open Source CFD Toolbox
   \\    /   O peration     | Website:  https://openfoam.org
    \\  /    A nd           | Version:  7
     \\/     M anipulation  |
\*---------------------------------------------------------------------------*/
FoamFile
{
    version     2.0;
    format      ascii;
    class       volScalarField;
    location    "0.001";
    object      dsmcSigmaTcRMax;
}
// * * * * * * * * * * * * * * * * * * * * * * * * * * * * * * * * * * * * * //

dimensions      [0 3 -1 0 0 0 0];

internalField   nonuniform List<scalar> 
654
(
5.226076989e-16
5.671659692e-16
5.688891625e-16
5.425462107e-16
5.210476561e-16
5.579081177e-16
5.561660174e-16
5.432015396e-16
5.573983266e-16
5.524092011e-16
5.457518699e-16
5.889125325e-16
6.142958452e-16
5.622944841e-16
7.190297858e-16
5.730700892e-16
5.696461218e-16
7.966534593e-16
8.026759332e-16
8.442339537e-16
5.682386358e-16
5.313610886e-16
5.565958091e-16
5.785973329e-16
5.94410236e-16
5.713143937e-16
5.380318432e-16
5.653093339e-16
5.660876573e-16
6.028606371e-16
5.514530519e-16
8.787011494e-16
5.4250808e-16
5.129702155e-16
6.52503003e-16
7.82707566e-16
7.570181441e-16
7.404988482e-16
8.29664264e-16
8.817513668e-16
5.222980899e-16
5.961089579e-16
5.7871889e-16
6.022330138e-16
5.55435352e-16
5.481894192e-16
5.712956205e-16
5.464889427e-16
5.75235956e-16
6.157158397e-16
5.961966585e-16
5.88684369e-16
6.735801506e-16
7.378767e-16
5.322672532e-16
7.797682036e-16
7.951591215e-16
7.964469927e-16
8.065690059e-16
8.151599002e-16
6.074640042e-16
5.42440736e-16
5.992930967e-16
5.744463199e-16
5.58148922e-16
5.756110535e-16
5.800298175e-16
5.234289105e-16
5.887839961e-16
5.715934718e-16
5.874345372e-16
5.588391783e-16
6.085424988e-16
5.673908396e-16
7.288455048e-16
7.829765327e-16
8.284715407e-16
7.225431342e-16
8.040006623e-16
8.22840479e-16
5.824849912e-16
5.707198611e-16
5.82788009e-16
5.73023609e-16
5.381394445e-16
5.655212486e-16
5.322141763e-16
6.124966795e-16
6.491675438e-16
5.641835188e-16
5.623364093e-16
5.918704324e-16
7.220006871e-16
7.556737511e-16
7.19518143e-16
8.142720609e-16
7.970659127e-16
7.435567966e-16
7.463234963e-16
8.19046633e-16
5.247737901e-16
5.539943245e-16
5.511577573e-16
5.806105459e-16
5.783288921e-16
5.468259809e-16
6.03594379e-16
6.053094266e-16
5.324677699e-16
5.569374667e-16
6.084215328e-16
5.546175334e-16
7.680459458e-16
5.90584796e-16
5.738492398e-16
6.655997431e-16
7.006960851e-16
7.373039516e-16
8.995552743e-16
7.783199607e-16
5.322988503e-16
6.461627393e-16
5.537505293e-16
5.473764461e-16
5.519064423e-16
5.785701809e-16
6.235070253e-16
5.533224083e-16
5.386183498e-16
6.128779502e-16
5.494563034e-16
6.393158982e-16
7.125562302e-16
7.552596936e-16
7.926438944e-16
7.32137883e-16
7.16520771e-16
7.011350475e-16
7.176099715e-16
7.299478193e-16
5.165212051e-16
5.462057746e-16
5.587694965e-16
5.466321199e-16
5.689585245e-16
5.346361763e-16
6.262670336e-16
5.818623298e-16
5.647612631e-16
5.673358632e-16
5.694189578e-16
5.344944596e-16
5.461846995e-16
5.800275343e-16
6.923109052e-16
6.838379714e-16
6.58775186e-16
6.115175177e-16
7.19379806e-16
7.621137064e-16
5.427203586e-16
5.480197399e-16
5.66349688e-16
6.25457767e-16
5.24917882e-16
5.613566374e-16
5.57296538e-16
5.843467351e-16
5.465078405e-16
5.466432706e-16
5.957809785e-16
5.453902625e-16
6.136689015e-16
5.948575332e-16
6.437005895e-16
5.806503883e-16
7.056046224e-16
7.026309566e-16
7.255890915e-16
7.715761669e-16
5.509473174e-16
5.628526522e-16
5.567836609e-16
6.670866534e-16
5.314782353e-16
6.106489942e-16
5.810521318e-16
5.96104446e-16
5.895678275e-16
5.557277147e-16
5.751728657e-16
8.615052408e-16
5.659646792e-16
5.813657849e-16
6.69412162e-16
5.457190186e-16
5.910172754e-16
6.68268747e-16
7.056844243e-16
6.948533873e-16
5.182841869e-16
5.579271533e-16
5.844619237e-16
5.644036934e-16
5.271720243e-16
5.521632604e-16
5.859243808e-16
6.732044929e-16
5.75174962e-16
5.743156152e-16
5.712486413e-16
5.473804843e-16
5.881374173e-16
5.673324402e-16
5.711928007e-16
5.727317342e-16
5.810401557e-16
6.085885959e-16
5.700130269e-16
5.873117403e-16
5.349226203e-16
5.637721084e-16
5.654695198e-16
5.958287428e-16
5.461160559e-16
5.668170835e-16
6.041162209e-16
5.439789229e-16
5.528145089e-16
5.727168445e-16
5.415866568e-16
5.485531173e-16
5.905537168e-16
5.999321241e-16
5.896184696e-16
5.9024605e-16
5.37478882e-16
5.571330307e-16
7.326410872e-16
7.441482342e-16
5.097298313e-16
5.946153239e-16
5.798516547e-16
5.889133579e-16
5.441957814e-16
5.393136821e-16
5.549082551e-16
5.378706658e-16
5.408469159e-16
5.869350441e-16
5.44946218e-16
5.948672026e-16
5.547896754e-16
6.53418784e-16
5.625446061e-16
5.502197305e-16
5.655875294e-16
5.399556847e-16
6.791215228e-16
7.446145243e-16
5.997622762e-16
5.296190314e-16
5.906015795e-16
6.005337231e-16
5.205921979e-16
5.860262013e-16
5.844591215e-16
5.457993579e-16
5.516933833e-16
5.847464044e-16
5.481968001e-16
5.44921966e-16
6.106470512e-16
5.726329566e-16
5.788423941e-16
5.617962301e-16
5.639544305e-16
7.41382222e-16
7.919540133e-16
6.025418264e-16
5.564208928e-16
6.076242512e-16
5.86275393e-16
5.545071474e-16
5.544975581e-16
6.416670308e-16
5.277780111e-16
5.368251865e-16
5.465374766e-16
5.536543266e-16
5.64003307e-16
5.510026845e-16
5.437787348e-16
5.543732987e-16
5.666243677e-16
5.410561035e-16
5.637095042e-16
7.354336275e-16
5.980990108e-16
5.490703581e-16
5.220821178e-16
5.679387345e-16
5.910790212e-16
5.379939434e-16
6.013592088e-16
6.80018445e-16
5.503417877e-16
5.207261476e-16
5.347401422e-16
5.580992561e-16
5.618759025e-16
6.020606368e-16
5.493286073e-16
5.63516735e-16
5.816279432e-16
5.969715717e-16
5.551228789e-16
6.761015842e-16
5.952613837e-16
5.158572195e-16
5.219134873e-16
5.46402672e-16
5.365546536e-16
5.534166812e-16
5.297857944e-16
5.16912424e-16
5.259653242e-16
5.269852615e-16
6.494077623e-16
5.727919725e-16
5.568211053e-16
5.71639156e-16
5.839901007e-16
5.600781409e-16
5.78548998e-16
5.70284248e-16
5.635219374e-16
5.527873298e-16
7.793851283e-16
7.239416054e-16
5.171726176e-16
5.445079733e-16
5.31215276e-16
5.794707067e-16
5.777072231e-16
5.518476864e-16
5.261540267e-16
5.375128835e-16
5.441920257e-16
5.470404335e-16
5.634090558e-16
5.699498378e-16
5.510326738e-16
5.704678787e-16
5.614123064e-16
5.343490585e-16
5.809346465e-16
5.80139054e-16
5.270592286e-16
6.949309385e-16
6.140729476e-16
5.531898803e-16
5.789166933e-16
5.94568389e-16
5.463395709e-16
5.648301364e-16
5.282764254e-16
5.649393107e-16
5.714349779e-16
5.798717263e-16
5.425984199e-16
5.285157727e-16
5.587819844e-16
5.438466954e-16
5.515109813e-16
5.487527922e-16
5.64735888e-16
5.878661891e-16
5.734492034e-16
5.534117984e-16
5.543608436e-16
6.785493634e-16
5.647262189e-16
6.175581111e-16
6.510836444e-16
5.683974025e-16
5.972041721e-16
5.993932986e-16
5.972825705e-16
5.701778463e-16
5.650377087e-16
6.133790705e-16
5.743854196e-16
5.772408633e-16
5.816345698e-16
5.435955834e-16
5.560588723e-16
5.547641875e-16
6.503773958e-16
5.825533434e-16
5.258491495e-16
5.789577896e-16
5.573292036e-16
5.519238105e-16
5.83806954e-16
6.113332418e-16
5.530829878e-16
5.574296057e-16
5.854501987e-16
5.713078234e-16
5.539702645e-16
5.30018391e-16
6.431417273e-16
5.875894267e-16
5.722175908e-16
5.788256021e-16
5.316864547e-16
5.869330926e-16
6.160498254e-16
5.043611477e-16
5.345580511e-16
5.447260287e-16
5.464756658e-16
5.916888747e-16
5.939651256e-16
5.73576566e-16
5.884824068e-16
5.332383063e-16
6.101236485e-16
5.445647717e-16
5.845032548e-16
5.394818076e-16
6.20445709e-16
7.111685456e-16
6.085753378e-16
5.354513567e-16
5.57822056e-16
5.316830906e-16
5.548537119e-16
5.306963153e-16
8.778498761e-16
8.726139791e-16
8.317157766e-16
8.218044198e-16
8.693017406e-16
8.400669233e-16
8.991612125e-16
8.891918111e-16
8.071486508e-16
8.220171229e-16
8.630397371e-16
8.725725829e-16
8.402345556e-16
8.021956271e-16
8.70027873e-16
7.935205648e-16
8.438449341e-16
8.229280651e-16
8.535374902e-16
7.943173667e-16
8.395164127e-16
8.164772187e-16
8.258302673e-16
8.019696087e-16
8.448277446e-16
8.288174364e-16
8.244153562e-16
8.380797536e-16
8.480608282e-16
8.576434565e-16
8.425936771e-16
8.000383631e-16
8.475782382e-16
8.701937552e-16
8.163453518e-16
8.047098703e-16
8.375493251e-16
8.285638218e-16
8.265503113e-16
8.133319339e-16
7.899836901e-16
8.565231568e-16
7.88391852e-16
8.138881827e-16
8.31940661e-16
7.91298864e-16
8.277880582e-16
7.940742756e-16
7.946221951e-16
8.298646988e-16
8.756983373e-16
8.263588506e-16
8.807028076e-16
8.589874934e-16
7.874358985e-16
8.148226151e-16
8.057467381e-16
8.048120041e-16
8.424178952e-16
8.026456036e-16
7.324585954e-16
7.345378552e-16
8.499104799e-16
8.399377427e-16
8.03882923e-16
7.946916386e-16
8.428756992e-16
8.15291162e-16
8.041606377e-16
8.068883166e-16
7.518591541e-16
8.871867717e-16
7.623308601e-16
8.127769459e-16
7.556329152e-16
7.549640401e-16
7.832498738e-16
7.841930428e-16
7.817760094e-16
7.990169828e-16
7.468393377e-16
7.634340181e-16
8.100011749e-16
7.386540879e-16
7.40679952e-16
7.713735731e-16
7.927378724e-16
7.598470671e-16
8.400727916e-16
7.827490679e-16
7.701859996e-16
7.275647331e-16
8.175383403e-16
7.431737233e-16
7.464057196e-16
7.223696302e-16
7.977905041e-16
7.944872847e-16
7.96112963e-16
8.093534559e-16
6.959117429e-16
7.025601263e-16
8.369175259e-16
7.250648006e-16
7.489784383e-16
7.539703106e-16
7.415555833e-16
7.705077021e-16
8.345734703e-16
7.253589555e-16
7.149772668e-16
7.359645045e-16
7.245599504e-16
7.033691399e-16
7.325089611e-16
7.582227313e-16
7.262841566e-16
7.274864097e-16
6.784018407e-16
7.816016376e-16
8.017164067e-16
6.385045325e-16
6.301518406e-16
7.690185166e-16
7.157176971e-16
7.66141316e-16
7.535971135e-16
7.549864848e-16
7.291946828e-16
7.430865124e-16
7.016739969e-16
6.417529772e-16
5.803713661e-16
7.420198676e-16
6.35806925e-16
6.386938778e-16
6.285845916e-16
6.961239587e-16
7.024875659e-16
7.640902649e-16
5.543830144e-16
6.347939398e-16
6.479907894e-16
5.525491262e-16
7.680619738e-16
6.821388626e-16
7.041006348e-16
6.311389592e-16
7.277494258e-16
7.496536777e-16
7.019466589e-16
6.404132164e-16
5.775931566e-16
5.415832162e-16
7.715413488e-16
8.933083305e-16
5.966042495e-16
6.127674406e-16
7.424506442e-16
7.306491799e-16
6.136803729e-16
6.413637092e-16
7.288346501e-16
5.591860219e-16
8.077342368e-16
7.483087586e-16
7.145958231e-16
6.99409233e-16
6.31370518e-16
7.185379722e-16
7.761240518e-16
7.439532339e-16
7.249347051e-16
5.781553302e-16
5.963882526e-16
5.449034542e-16
5.97192857e-16
5.713245094e-16
7.877466986e-16
6.549190986e-16
7.211935471e-16
6.567746185e-16
6.19522932e-16
5.676511029e-16
7.220506963e-16
6.070917944e-16
5.943045584e-16
5.672190072e-16
6.810254615e-16
7.012227375e-16
5.92619305e-16
6.15927982e-16
5.643075643e-16
7.386937224e-16
7.273465033e-16
6.802742819e-16
6.492421362e-16
5.621022363e-16
5.537823053e-16
5.626800618e-16
5.525415211e-16
5.957893613e-16
5.377675867e-16
5.749634578e-16
6.62116087e-16
8.268863551e-16
5.791696974e-16
6.921290197e-16
5.7796632e-16
6.306672566e-16
6.100030933e-16
5.496619111e-16
5.3954157e-16
5.773623967e-16
)
;

boundaryField
{
    flow
    {
        type            zeroGradient;
    }
    obstacle
    {
        type            zeroGradient;
    }
    frontAndBack
    {
        type            empty;
    }
    procBoundary0to1
    {
        type            processor;
        value           nonuniform List<scalar> 
21
(
8.183466733e-16
8.755479309e-16
8.245279351e-16
8.207278637e-16
8.117232297e-16
8.17371724e-16
7.782910708e-16
8.189346714e-16
8.103240456e-16
7.572757325e-16
7.283400038e-16
6.44403359e-16
6.670494828e-16
7.841186278e-16
8.832157689e-16
7.016483894e-16
7.054473946e-16
7.23887409e-16
7.799394369e-16
6.221814312e-16
6.238433129e-16
)
;
    }
    procBoundary0to2
    {
        type            processor;
        value           nonuniform List<scalar> 
31
(
5.251931149e-16
5.549162983e-16
6.280665097e-16
5.760001635e-16
5.665933156e-16
5.716745637e-16
5.753928335e-16
5.880487227e-16
6.026593274e-16
5.600885758e-16
5.617311107e-16
5.402768282e-16
5.594893172e-16
7.538402873e-16
6.918119761e-16
5.922531846e-16
5.730503813e-16
5.403566025e-16
5.549651915e-16
5.339156621e-16
6.578962985e-16
6.086845185e-16
5.696388698e-16
7.204883188e-16
5.625377854e-16
5.751716958e-16
5.729989549e-16
7.210611956e-16
6.931694643e-16
6.578962985e-16
8.189615481e-16
)
;
    }
}


// ************************************************************************* //
