/*--------------------------------*- C++ -*----------------------------------*\
  =========                 |
  \\      /  F ield         | OpenFOAM: The Open Source CFD Toolbox
   \\    /   O peration     | Website:  https://openfoam.org
    \\  /    A nd           | Version:  7
     \\/     M anipulation  |
\*---------------------------------------------------------------------------*/
FoamFile
{
    version     2.0;
    format      ascii;
    class       volScalarField;
    location    "0.001";
    object      dsmcRhoNMean;
}
// * * * * * * * * * * * * * * * * * * * * * * * * * * * * * * * * * * * * * //

dimensions      [0 -3 0 0 0 0 0];

internalField   nonuniform List<scalar> 
654
(
7.382
9.578
9.682
9.548
9.478
9.39
9.398
9.366
9.082
9.084
9.28
9.288
9.382
9.246
9.164
9.142
9.176
9.484
10.148
12.88
7.502
9.436
9.492
9.438
9.726
9.656
9.654
9.618
9.87
9.746
9.718
9.428
9.372
9.43
9.614
9.788
9.842
10.016
10.652
12.798
7.332
9.604
9.656
9.572
9.65
9.766
9.736
9.676
9.552
9.57
9.612
9.682
9.766
10.06
10.064
10.014
9.928
10.058
10.478
11.302
7.542
9.566
9.722
9.83
9.63
9.67
9.484
9.556
9.592
9.636
9.65
9.73
9.684
9.442
9.374
9.494
9.452
9.87
10.232
10.876
7.426
9.628
9.61
9.446
9.552
9.586
9.608
9.676
9.724
9.562
9.592
9.668
9.704
9.734
9.654
9.67
9.8
9.874
9.92
10.296
7.466
9.472
9.49
9.436
9.44
9.374
9.334
9.532
9.346
9.522
9.482
9.372
9.344
9.764
9.856
9.974
9.944
10.094
10.054
10.302
7.52
9.612
9.778
9.876
9.94
9.78
9.684
9.684
9.638
9.532
9.57
9.754
9.626
9.446
9.406
9.45
9.59
9.742
9.746
9.978
7.474
9.558
9.564
9.29
9.418
9.48
9.606
9.596
9.588
9.78
9.718
9.806
9.876
9.91
9.94
9.892
9.79
9.828
10.056
10.102
7.502
9.632
9.614
9.67
9.664
9.756
9.678
9.724
9.656
9.714
9.556
9.686
9.46
9.448
9.51
9.552
9.598
9.62
9.548
9.62
7.488
9.554
9.798
10.01
9.906
9.896
9.896
9.812
9.692
9.79
9.772
9.982
10.102
10.006
9.976
9.998
9.962
10.078
10.196
10.076
7.494
9.556
9.668
9.572
9.578
9.756
9.764
10.114
10.028
9.998
9.988
9.74
9.564
9.766
9.822
9.714
9.924
9.928
9.87
10.006
7.436
9.726
9.706
9.644
9.674
9.77
9.516
9.48
9.398
9.326
9.304
9.414
9.602
9.554
9.552
9.596
9.472
9.338
9.316
9.474
7.402
9.62
9.844
9.686
9.714
9.7
9.852
9.776
9.836
9.688
9.73
9.532
9.452
9.338
9.432
9.452
9.404
9.516
9.556
9.626
7.524
9.518
9.384
9.404
9.39
9.36
9.508
9.544
9.524
9.762
9.704
9.64
9.69
9.59
9.488
9.536
9.616
9.558
9.618
9.534
7.378
9.358
9.53
9.38
9.536
9.358
9.36
9.222
9.252
9.014
9.222
9.516
9.52
9.584
9.764
9.68
9.784
9.71
9.758
9.52
7.478
9.644
9.588
9.67
9.676
9.712
9.698
9.67
9.65
9.66
9.57
9.374
9.384
9.436
9.284
9.332
9.264
9.298
9.536
9.596
7.228
9.358
9.42
9.388
9.404
9.404
9.51
9.506
9.608
9.5
9.476
9.49
9.432
9.656
9.698
9.74
9.878
9.846
9.732
9.816
7.558
9.614
9.666
9.6
9.542
9.554
9.464
9.49
9.482
9.652
9.67
9.75
9.838
9.66
9.752
9.608
9.574
9.724
9.69
9.568
7.378
9.592
9.652
9.888
9.932
9.76
9.748
9.916
9.802
9.766
9.846
9.822
9.72
9.776
9.752
9.788
9.702
9.488
9.418
9.384
7.596
9.802
9.792
9.676
9.53
9.752
9.728
9.848
9.778
9.812
9.658
9.59
9.642
9.498
9.498
9.56
9.624
9.776
9.834
9.85
7.426
9.416
9.492
9.472
9.482
9.382
9.294
9.398
9.324
9.232
9.562
9.586
9.74
9.88
9.902
9.83
9.784
9.82
9.898
9.962
7.548
9.81
9.79
9.648
9.642
9.648
9.578
9.614
9.692
9.748
9.562
9.464
9.648
9.586
9.646
9.662
9.762
9.71
9.482
9.418
22.988
27.166
28.068
26.7
26.446
26.97
27.202
27.166
26.922
26.712
16.122
18.502
19.512
22.066
21.902
22.848
22.868
23.192
22.87
23.102
13.03
14.846
16.126
18.104
19.586
20.126
20.668
21.244
21.184
21.714
12.02
12.866
14.31
15.124
16.28
17.482
18.396
19.204
18.934
19.562
11.016
11.574
12.662
13.436
14.392
16.018
17.392
17.694
18.298
18.422
10.56
10.988
11.586
12.532
13.032
13.706
14.95
15.828
16.404
16.916
10.276
10.748
10.726
11.37
11.782
12.304
13.26
13.898
14.638
15.252
10.242
10.254
10.632
10.63
11.164
11.514
11.602
12.506
13.332
14.07
9.77
10.008
10.002
10.288
10.48
11.134
11.434
11.422
12.136
12.756
10.114
10.16
10.356
10.394
10.24
10.378
10.69
11.022
11.51
11.958
9.89
9.928
10.048
9.856
9.816
10.154
10.298
10.72
10.912
11.21
9.402
9.164
9.17
9.4
9.604
9.764
9.918
9.862
9.962
10.198
9.76
10.058
9.936
9.77
9.618
9.428
9.564
9.79
9.992
9.862
9.512
9.286
9.268
9.436
9.376
9.386
9.548
9.612
9.464
9.308
9.448
9.428
9.552
9.43
9.644
9.64
9.476
9.314
9.622
9.848
9.602
9.752
9.66
9.682
9.528
9.478
9.324
9.41
9.344
9.524
9.848
9.67
9.516
9.35
9.366
9.386
9.454
9.45
9.406
9.354
9.498
9.472
9.458
9.432
9.48
9.476
9.444
9.33
9.352
9.552
9.748
9.754
9.542
9.586
9.502
9.404
9.56
9.524
9.278
9.154
9.686
9.746
9.852
9.816
9.626
9.724
9.53
9.326
9.226
9.024
9.79
9.682
9.492
9.41
9.292
8.964
8.972
8.888
8.842
8.818
9.256
9.334
9.144
9.06
)
;

boundaryField
{
    flow
    {
        type            calculated;
        value           nonuniform List<scalar> 
42
(
7.382
7.502
7.332
7.542
7.426
7.466
7.52
7.474
7.502
7.488
7.494
7.436
7.402
7.524
7.378
7.478
7.228
7.558
7.378
7.596
7.426
7.548
7.382
9.578
9.682
9.548
9.478
9.39
9.398
9.366
9.082
9.084
9.28
9.288
9.382
9.246
9.164
9.142
9.176
9.484
10.148
12.88
)
;
    }
    obstacle
    {
        type            calculated;
        value           nonuniform List<scalar> 10(22.988 27.166 28.068 26.7 26.446 26.97 27.202 27.166 26.922 26.712);
    }
    frontAndBack
    {
        type            empty;
    }
    procBoundary0to1
    {
        type            processor;
        value           nonuniform List<scalar> 
21
(
25.616
22.91
21.17
20.35
19.308
17.31
15.668
14.554
13.342
12.294
11.706
10.266
10.184
9.528
9.932
9.54
9.36
9.416
9.11
9.028
8.684
)
;
    }
    procBoundary0to2
    {
        type            processor;
        value           nonuniform List<scalar> 
31
(
7.348
9.336
9.382
9.488
9.582
9.716
9.712
9.748
9.67
9.592
9.79
9.952
9.684
9.584
9.56
9.278
9.03
9.316
9.474
9.506
8.924
8.986
9.078
9.004
9.014
9.074
9.474
9.344
9.34
8.924
9.132
)
;
    }
}


// ************************************************************************* //
