/*--------------------------------*- C++ -*----------------------------------*\
  =========                 |
  \\      /  F ield         | OpenFOAM: The Open Source CFD Toolbox
   \\    /   O peration     | Website:  https://openfoam.org
    \\  /    A nd           | Version:  7
     \\/     M anipulation  |
\*---------------------------------------------------------------------------*/
FoamFile
{
    version     2.0;
    format      ascii;
    class       volScalarField;
    location    "0.001";
    object      dsmcSigmaTcRMax;
}
// * * * * * * * * * * * * * * * * * * * * * * * * * * * * * * * * * * * * * //

dimensions      [0 3 -1 0 0 0 0];

internalField   nonuniform List<scalar> 
654
(
5.082118907e-16
5.597607896e-16
6.601222141e-16
5.262474951e-16
5.587080392e-16
5.213795515e-16
6.623885915e-16
7.053870988e-16
5.720063718e-16
7.514708388e-16
6.178186141e-16
6.000052255e-16
7.623160186e-16
6.172568954e-16
7.460368481e-16
6.206315067e-16
6.392324822e-16
7.374230692e-16
6.703834324e-16
7.163252914e-16
5.575201068e-16
5.008501699e-16
6.164691203e-16
4.845480777e-16
5.397817091e-16
5.153229991e-16
5.498786146e-16
5.453196658e-16
5.362733651e-16
5.192740625e-16
5.701885862e-16
6.216395426e-16
6.466513432e-16
5.907660661e-16
5.945292235e-16
5.869709679e-16
6.256235383e-16
5.485213161e-16
6.905962079e-16
6.518082896e-16
5.552207513e-16
5.070531682e-16
5.160882153e-16
5.404381496e-16
4.865844872e-16
5.591830018e-16
5.196974282e-16
5.239107659e-16
5.628107397e-16
6.047277918e-16
5.422435021e-16
5.188600322e-16
5.263223731e-16
5.25878751e-16
5.388864387e-16
6.78101621e-16
5.663739871e-16
5.364393934e-16
6.105034113e-16
7.446691556e-16
5.501312796e-16
6.003061291e-16
5.44202302e-16
5.171782663e-16
5.042125113e-16
5.44538456e-16
5.227917404e-16
5.230918466e-16
5.196838749e-16
5.315390748e-16
5.125973113e-16
5.010273017e-16
6.392621377e-16
5.545115252e-16
5.170819807e-16
5.664686774e-16
6.148102035e-16
6.233652721e-16
8.315381562e-16
6.090672533e-16
5.772087893e-16
5.956931295e-16
5.521518517e-16
5.911535986e-16
5.38442938e-16
5.392443561e-16
5.668560761e-16
5.013946188e-16
5.359742038e-16
5.464547852e-16
5.482716245e-16
6.368625923e-16
5.21682572e-16
6.648379739e-16
5.407079994e-16
4.990672809e-16
6.387831248e-16
5.989977926e-16
6.086691478e-16
7.787975053e-16
5.725421548e-16
5.397375175e-16
5.093516132e-16
5.519089874e-16
5.582136732e-16
5.084305395e-16
4.969909774e-16
5.215476291e-16
4.882250338e-16
5.109194588e-16
5.707357857e-16
5.503842902e-16
6.654219189e-16
5.748830458e-16
5.59641938e-16
4.851502718e-16
5.627653267e-16
6.025498075e-16
5.076686296e-16
5.780050356e-16
5.224350827e-16
4.976024337e-16
5.141685539e-16
5.311883588e-16
6.134889321e-16
4.818401501e-16
5.18545552e-16
5.118911038e-16
5.264826203e-16
5.917659375e-16
5.482423174e-16
5.819731172e-16
5.519039923e-16
5.569827804e-16
6.138200224e-16
5.759336666e-16
5.782113293e-16
5.509295777e-16
6.033788333e-16
5.79142612e-16
5.223301798e-16
5.445758154e-16
5.206784334e-16
4.965566816e-16
4.940959144e-16
4.782457741e-16
5.880482639e-16
5.424088702e-16
5.56838283e-16
5.026380985e-16
5.621467462e-16
5.17393996e-16
5.590443148e-16
5.883700908e-16
5.353380846e-16
4.869063517e-16
5.792615519e-16
4.758693558e-16
4.949576181e-16
7.16478488e-16
5.539572423e-16
4.974217683e-16
6.099765745e-16
5.708288597e-16
5.018897946e-16
5.583448789e-16
4.712723168e-16
6.776108752e-16
5.241506755e-16
6.570599782e-16
4.993375855e-16
5.468962903e-16
5.304214584e-16
5.909594172e-16
5.171514678e-16
4.947776682e-16
4.89471754e-16
5.65185032e-16
6.930231041e-16
5.577620311e-16
6.007238665e-16
5.492371211e-16
5.022074863e-16
5.321698807e-16
5.023573887e-16
5.403981383e-16
4.748933333e-16
5.268024783e-16
5.262439748e-16
5.985247534e-16
5.147345238e-16
5.302872177e-16
5.206055827e-16
5.63282659e-16
5.827779559e-16
5.284591149e-16
5.754908818e-16
4.544088982e-16
5.515212032e-16
5.942143322e-16
5.970781653e-16
5.000513509e-16
5.32791688e-16
5.143003687e-16
5.097216101e-16
5.709988606e-16
5.334324814e-16
5.405576587e-16
5.436220114e-16
5.711100772e-16
5.79179365e-16
5.327344039e-16
4.943612086e-16
5.439901886e-16
5.564547172e-16
5.853207717e-16
5.143767726e-16
5.276733169e-16
6.273226896e-16
5.282616524e-16
6.551255091e-16
5.358359593e-16
5.323670507e-16
5.876180849e-16
5.782131325e-16
5.197019686e-16
5.272261697e-16
5.77130132e-16
5.667330728e-16
5.024959264e-16
5.734031346e-16
5.591694011e-16
5.502518818e-16
6.155842596e-16
4.840412644e-16
5.333705203e-16
6.275011371e-16
5.717595663e-16
5.21639317e-16
5.043386028e-16
5.766647171e-16
5.581488786e-16
6.558000928e-16
5.475714053e-16
4.624252198e-16
5.768675444e-16
5.892560966e-16
5.664807215e-16
5.8339655e-16
5.107071989e-16
6.466368402e-16
5.512348633e-16
5.752844245e-16
5.87954798e-16
5.298390669e-16
5.574716973e-16
5.773671721e-16
5.245622524e-16
5.520621194e-16
5.640077578e-16
5.157958034e-16
5.573735463e-16
5.377180462e-16
5.356542508e-16
5.605146234e-16
4.970626062e-16
5.41112781e-16
5.45179778e-16
6.219771639e-16
5.415501286e-16
5.927098439e-16
5.950498904e-16
6.818038615e-16
5.273816879e-16
6.177785608e-16
5.644631894e-16
5.831795627e-16
5.821734056e-16
5.48376521e-16
6.144231517e-16
5.0501794e-16
5.792967928e-16
5.24310792e-16
5.184964021e-16
5.256539143e-16
5.711152993e-16
4.829298138e-16
5.598903004e-16
5.379459633e-16
5.734286842e-16
5.755391287e-16
5.201566438e-16
5.176094181e-16
5.576992863e-16
6.050475408e-16
5.620632602e-16
5.420176464e-16
5.786955001e-16
6.168990306e-16
5.978419924e-16
5.523616633e-16
5.846811661e-16
5.60561215e-16
5.066696464e-16
6.308445475e-16
5.392118868e-16
6.044903414e-16
5.911647429e-16
5.0563989e-16
6.437195535e-16
5.186472158e-16
5.721694423e-16
5.575490664e-16
5.0343738e-16
5.426648355e-16
5.392921816e-16
5.118655598e-16
5.554677332e-16
5.698624451e-16
5.17583026e-16
5.351314378e-16
5.774005461e-16
5.037225202e-16
4.893548585e-16
5.023402928e-16
5.289785374e-16
6.11714161e-16
5.306406592e-16
4.882109893e-16
5.222099722e-16
5.629494702e-16
5.393140733e-16
5.261700921e-16
6.049466056e-16
5.170772453e-16
5.927306037e-16
5.900448132e-16
5.87790186e-16
5.589907312e-16
6.155989807e-16
5.124743358e-16
6.014002928e-16
5.660195081e-16
4.829352941e-16
5.317406923e-16
5.625608337e-16
5.68013338e-16
5.652798726e-16
5.205072688e-16
5.736394268e-16
5.014535005e-16
5.646844074e-16
5.716618059e-16
5.726047699e-16
5.731774081e-16
5.669997703e-16
5.221094585e-16
5.320592615e-16
6.237784564e-16
5.75553796e-16
5.238747677e-16
5.512202694e-16
5.025452775e-16
5.66284832e-16
5.877133285e-16
5.990721052e-16
5.250754038e-16
5.670894455e-16
5.388699531e-16
5.437423519e-16
5.717047594e-16
5.756148727e-16
5.570369768e-16
6.391061744e-16
5.703077311e-16
5.668377269e-16
5.040741147e-16
5.267624178e-16
5.639813247e-16
5.34805982e-16
5.377648956e-16
5.463447372e-16
5.591371159e-16
5.254989241e-16
5.770318097e-16
5.476227348e-16
5.616632204e-16
6.05966255e-16
5.287829873e-16
4.641939922e-16
5.452867426e-16
5.487263205e-16
5.240947318e-16
5.625061688e-16
6.212671508e-16
5.519642395e-16
5.912378085e-16
5.681935391e-16
5.490960751e-16
5.724117237e-16
5.391906673e-16
5.432309452e-16
5.385064406e-16
4.909562513e-16
6.187399548e-16
5.291873932e-16
5.725268027e-16
5.111450307e-16
5.468447795e-16
5.415260101e-16
5.427638749e-16
5.451144461e-16
5.52663039e-16
6.220585219e-16
5.642092811e-16
5.447472829e-16
5.760471365e-16
5.289488049e-16
5.403666435e-16
6.432238708e-16
5.098626142e-16
5.396106139e-16
5.250649623e-16
5.32097401e-16
6.545732699e-16
5.570346477e-16
5.27978945e-16
5.822899291e-16
5.5621897e-16
5.306453228e-16
5.514838664e-16
5.588862715e-16
5.836794529e-16
5.674581527e-16
5.727407571e-16
5.72601171e-16
5.856255882e-16
5.719237024e-16
5.282846525e-16
5.720225465e-16
7.222927994e-16
8.445895963e-16
7.532392756e-16
8.083284946e-16
8.018689122e-16
8.131048853e-16
7.651834848e-16
7.580078981e-16
7.671402661e-16
8.07758569e-16
7.2562476e-16
7.369576669e-16
7.997962673e-16
7.019602936e-16
7.445560165e-16
7.674585479e-16
7.787976193e-16
7.984194853e-16
8.200646584e-16
8.104916577e-16
7.347348464e-16
7.179610809e-16
6.700679916e-16
8.155660629e-16
7.521289833e-16
7.038545893e-16
7.748868844e-16
7.440072805e-16
7.669324047e-16
7.532009478e-16
7.232486846e-16
7.175430929e-16
7.439098059e-16
7.362191489e-16
6.246107486e-16
8.315054913e-16
6.91703256e-16
6.72560767e-16
7.333287214e-16
7.558093144e-16
6.644732763e-16
5.751926095e-16
7.818101833e-16
8.10127818e-16
5.44117168e-16
6.947651161e-16
6.796934369e-16
7.468385479e-16
7.758697282e-16
7.521128814e-16
4.980626575e-16
5.716976618e-16
6.958720409e-16
6.638233332e-16
6.268823686e-16
6.058778148e-16
6.586415734e-16
6.886176797e-16
7.69149608e-16
6.351783587e-16
5.589297232e-16
5.106070825e-16
7.146372126e-16
6.998833838e-16
6.580112616e-16
6.448377672e-16
6.233120928e-16
7.949666448e-16
7.017343575e-16
5.84044151e-16
6.689545771e-16
5.469361587e-16
7.234560474e-16
5.740714534e-16
5.291062477e-16
5.932032058e-16
7.047360523e-16
5.863591843e-16
5.910927022e-16
7.158155313e-16
6.333946324e-16
6.009389055e-16
4.946777296e-16
5.788646105e-16
5.671109834e-16
5.198150639e-16
6.858565142e-16
6.5779677e-16
6.942557679e-16
6.465653456e-16
5.747519441e-16
4.838747199e-16
7.387306489e-16
7.736153811e-16
5.986115982e-16
5.953303359e-16
5.457985751e-16
6.464820006e-16
6.247543514e-16
6.416396603e-16
5.70006864e-16
6.08830656e-16
7.196939736e-16
4.524562299e-16
4.843626753e-16
5.298978694e-16
5.714140523e-16
5.432915837e-16
7.174128902e-16
5.950094594e-16
5.371450809e-16
5.77619846e-16
6.186587821e-16
6.200060297e-16
7.175049213e-16
5.416261226e-16
5.472891474e-16
5.340199927e-16
6.257998653e-16
6.349613334e-16
5.096672681e-16
6.003978795e-16
4.964739198e-16
5.917526839e-16
5.924506546e-16
5.074189078e-16
6.010371307e-16
5.8434591e-16
6.170208255e-16
6.084293048e-16
4.878577389e-16
5.660488923e-16
5.603014287e-16
5.617657431e-16
6.200563207e-16
6.459657879e-16
5.426560336e-16
5.504227921e-16
5.776754507e-16
5.834108033e-16
5.828959818e-16
5.623202339e-16
5.564002878e-16
5.172394517e-16
6.058244492e-16
5.567159725e-16
5.491638186e-16
6.492079706e-16
6.283596814e-16
5.947037905e-16
6.135191565e-16
5.51352571e-16
5.532863458e-16
6.208913923e-16
6.004671201e-16
5.833110259e-16
5.850289278e-16
5.59902403e-16
5.968390552e-16
5.767984218e-16
6.088497987e-16
5.468920546e-16
5.9723379e-16
6.118125254e-16
6.288434181e-16
5.658787293e-16
5.588474579e-16
5.39605951e-16
6.064757303e-16
5.748445276e-16
5.031429755e-16
5.412619368e-16
5.531503408e-16
5.171688074e-16
5.609423409e-16
5.302475612e-16
7.054255909e-16
7.232632487e-16
5.233637e-16
5.767397598e-16
5.512738787e-16
5.720730943e-16
5.913802569e-16
6.150908358e-16
6.162592224e-16
6.104046961e-16
5.778458455e-16
5.416171308e-16
5.291864879e-16
5.44793449e-16
5.123821066e-16
5.743298354e-16
5.360061559e-16
5.961678488e-16
5.419978325e-16
5.18073644e-16
5.890661305e-16
5.508519612e-16
5.648976739e-16
6.240109599e-16
5.605426194e-16
5.871633492e-16
5.260645297e-16
5.232202957e-16
5.168108767e-16
6.037091229e-16
5.64088172e-16
6.317614249e-16
5.563178035e-16
6.015462716e-16
5.7373511e-16
6.179222076e-16
5.96776303e-16
6.331837168e-16
)
;

boundaryField
{
    flow
    {
        type            zeroGradient;
    }
    obstacle
    {
        type            zeroGradient;
    }
    frontAndBack
    {
        type            empty;
    }
    procBoundary0to1
    {
        type            processor;
        value           nonuniform List<scalar> 
21
(
8.10224316e-16
7.88481101e-16
6.978341046e-16
7.000370419e-16
6.695574525e-16
7.966964978e-16
6.722368914e-16
6.692811573e-16
6.201209918e-16
7.155760714e-16
5.50624448e-16
6.166131204e-16
5.574717478e-16
6.147505693e-16
5.444055347e-16
5.943468944e-16
6.594168382e-16
4.983094605e-16
5.548299726e-16
5.369766755e-16
5.824646895e-16
)
;
    }
    procBoundary0to2
    {
        type            processor;
        value           nonuniform List<scalar> 
31
(
5.127407524e-16
5.824880368e-16
4.935837446e-16
4.983885816e-16
5.191642847e-16
4.716942971e-16
5.566760104e-16
6.852089164e-16
5.351075974e-16
5.567386278e-16
5.481957578e-16
5.563549306e-16
5.240042004e-16
6.543175546e-16
5.296775199e-16
5.315462287e-16
5.96001374e-16
5.715484555e-16
5.478982093e-16
5.649673471e-16
5.736580803e-16
5.755684915e-16
5.593631014e-16
6.310098011e-16
6.087218218e-16
6.065166751e-16
5.516001485e-16
6.28702694e-16
6.241392055e-16
5.736580803e-16
5.629974408e-16
)
;
    }
}


// ************************************************************************* //
