/*--------------------------------*- C++ -*----------------------------------*\
  =========                 |
  \\      /  F ield         | OpenFOAM: The Open Source CFD Toolbox
   \\    /   O peration     | Website:  https://openfoam.org
    \\  /    A nd           | Version:  7
     \\/     M anipulation  |
\*---------------------------------------------------------------------------*/
FoamFile
{
    version     2.0;
    format      ascii;
    class       volScalarField;
    location    "0.001";
    object      internalT;
}
// * * * * * * * * * * * * * * * * * * * * * * * * * * * * * * * * * * * * * //

dimensions      [1 2 -2 0 0 0 0];

internalField   nonuniform List<scalar> 
654
(
259.8768446
277.2564592
293.3412534
299.149244
309.9468258
326.7467138
314.9816161
302.0309337
312.2923983
320.19307
312.8996313
287.2450811
290.7449522
332.5495082
391.6281988
354.117319
325.717637
326.8260649
342.9501407
379.4814497
300.8347774
308.3247717
292.7858914
271.5651609
298.2301124
294.3788591
305.0515596
284.9759502
323.5637754
293.2949929
307.7155001
301.6483218
305.2187305
300.6548792
331.3033365
339.6103217
330.3722931
365.3261772
360.1307077
401.9735231
316.1286882
349.0480366
319.8667309
297.180398
305.6972298
266.2936685
280.9181023
289.360633
335.0630396
306.7706251
308.4122367
295.4468256
281.7467599
338.4059988
331.6759783
297.7925082
348.1287272
376.0445372
339.4067882
383.911742
321.1627996
351.5303124
292.4224362
279.4209412
301.6619362
285.4219082
269.6551001
322.9489234
328.0192118
322.1432381
327.3573138
317.3736347
341.3988371
323.8881378
274.3934644
324.3346
330.8633922
336.016151
356.7738811
395.7751682
344.7508549
278.9197824
304.3773532
301.0892138
283.2478265
291.9031601
316.7173718
311.7164407
304.9982428
293.1359595
320.3363252
355.6201181
333.8944884
318.3056058
324.9951929
333.5556776
303.3608491
314.7673122
370.1834061
347.4313641
310.4587858
306.0109525
323.2543589
314.3375481
291.9722406
277.8062104
285.0140503
300.6031387
292.6133307
273.4745767
305.4950879
304.4473101
300.7465868
300.7899194
314.2348979
306.1300357
289.4961817
322.9056171
348.7853123
386.6463213
284.6104215
309.1913532
309.8909164
301.9349693
314.8896014
310.4261006
288.911039
317.6106442
319.391722
315.3741974
297.8841091
287.8788729
278.4052753
351.2468509
295.5340718
334.0299418
333.3627465
334.6769703
334.6861649
365.6269508
251.0612175
270.0006635
284.8453746
269.5835402
280.3739157
280.8340343
297.9193941
277.2293955
325.8539757
314.7621913
318.5783229
291.5455106
316.8642269
312.2072741
278.8428553
317.1065281
315.6548577
326.5577781
357.79075
359.2851209
277.9513019
302.2898651
311.66127
308.2722474
287.1089641
272.0189543
284.6919692
299.9239587
314.8360268
310.9035865
330.3184657
293.1922557
307.5147142
266.2665403
283.4272916
354.967394
310.0486397
297.9903796
352.0093884
346.5165097
272.7069633
303.8992548
310.2015596
323.8496509
312.0812223
313.0854661
272.032484
320.6599362
308.0282024
302.803182
311.2139877
311.590941
321.7368089
336.0408463
309.8149608
347.0572705
356.2740433
311.5948331
343.896354
340.9141098
286.6269361
322.8455979
296.4718887
313.8155646
290.8461279
297.4386019
284.4725726
289.5749423
296.8755351
303.9058149
319.2850001
327.1128658
334.0888117
357.7729122
341.9525434
357.3393528
332.0599149
352.6647263
343.8757206
337.3736941
268.3413237
272.3302365
314.935321
293.562519
272.3167846
269.4899516
311.3527553
304.9129924
335.306355
347.0183477
332.1739961
331.7523522
310.0574668
350.5415316
382.9179607
317.4474619
326.9073449
334.5438119
326.873158
379.4760736
290.0810022
290.2517221
265.2476242
237.4357758
257.4918643
276.8189075
276.5381069
336.1330538
277.223619
302.9723351
339.6411552
335.7788148
305.1261031
331.2423985
331.5616485
312.5846593
315.3967963
320.9851768
322.0253088
374.7923615
295.8963908
299.9790023
296.2596489
268.5538545
285.4926543
268.2487201
265.1471389
311.6531038
306.2241778
296.3839395
296.4418091
343.7648746
358.1251694
333.6323137
346.8279787
314.4535899
319.4695346
300.2950037
337.5777589
345.394882
296.0250465
273.9781832
283.5079772
268.0207275
270.5037859
244.4211088
245.0989421
280.7939447
326.6208555
316.7513302
327.7096163
334.3072396
351.8640802
322.0126466
321.9693419
315.690911
316.5776097
327.3075292
358.9647878
357.7598028
305.9831699
296.6896841
246.7893091
283.5351803
251.409225
245.7340786
287.9119143
285.8911912
314.7354709
325.9665938
303.9218108
326.2299646
338.9507234
306.0298019
349.5001908
346.4414159
333.1066361
333.701809
329.9002592
317.0606737
318.6072814
290.1618667
266.2543184
295.6180027
303.6132254
290.4297472
278.3655763
290.8477249
307.1327196
322.0890268
296.0674355
313.5369747
326.2262166
285.7596492
339.5407839
341.184859
330.7287329
358.5371569
341.1711603
326.6633696
279.828635
270.7434524
298.1976055
297.3852165
310.5019118
271.8693797
271.1958886
277.4174755
302.2374776
329.7649188
308.532458
306.815035
315.3400386
315.565992
316.3747748
335.1560289
334.612313
340.6039073
331.2756649
342.2429689
301.1854152
276.936146
331.6289416
330.0561079
292.0887444
293.2696443
311.1805684
278.6970344
292.8874902
322.878082
332.0383186
290.9191086
332.6956179
309.4963383
302.9446807
316.5330984
330.2517586
312.2451785
346.8483051
309.8149174
288.4927073
280.8022797
306.9873511
291.976692
288.2640075
310.2623598
293.0009425
303.5210158
281.1731431
310.866685
323.0272609
340.5103523
325.3390406
335.3778108
322.2083693
342.3616992
338.9207139
333.5645228
333.0204753
306.1022074
297.128091
275.084199
276.6114758
294.9944888
299.0246629
281.3858905
264.686978
283.2932153
274.5847691
316.7964545
313.0662532
348.7437035
339.5571638
304.5806072
310.7836999
335.1407416
313.6732255
317.930649
320.9080645
360.3882686
281.8264396
268.9087228
278.4442641
315.2994203
293.7843369
290.2701229
302.6649897
282.9738807
287.363896
305.6833047
308.7532558
309.4981578
326.2732084
286.5967783
300.2362146
347.1571947
311.6518274
315.7079424
300.4897234
349.6425136
463.8355612
468.2712353
514.052636
517.7257504
566.0498256
546.9263074
537.8175712
572.7494133
572.7699803
578.4126728
468.8450142
487.6301772
410.1996658
406.3455487
478.8866409
462.8980437
486.3118508
575.8871803
595.3786835
538.4572235
392.6436856
414.9215798
475.4748551
437.5796604
540.3749216
448.2711015
484.7558871
430.5867625
457.4158693
552.2325824
391.5663494
391.9983108
439.4659737
423.6050046
449.8856044
475.6831515
461.3199806
411.9592977
456.5362055
510.0450375
371.5267969
429.271853
388.1079087
448.7032827
436.5970398
376.4526405
449.6137177
444.7030084
505.9173382
456.4908178
422.4051911
397.037015
375.7751879
422.2692564
429.4181279
409.3111469
456.433967
428.2766577
440.3726123
456.1997727
390.2027042
364.8258852
411.6427934
487.6601458
456.8808833
407.3703167
407.7320061
402.8533167
429.2217056
457.1338048
367.1013841
341.2429927
403.3889974
446.6976515
379.4410029
396.1896262
420.7076027
382.9883409
431.2629694
448.284435
334.3619631
350.6260542
441.413566
496.6206536
456.9087348
416.7841665
415.4224495
426.8031834
417.0968563
408.7886324
368.5738327
384.8854207
388.5066086
425.3904977
452.3682611
364.7288913
376.4334959
411.5086086
378.4164821
422.400207
394.7548968
405.3694876
393.8983779
368.4772521
398.1144396
335.6612786
362.8998806
362.0519943
429.2778119
393.6399931
340.8632366
392.3535718
339.6111958
379.308234
400.1081203
349.9889426
379.0130168
344.7355459
436.1288253
434.1466231
351.5069847
363.4686131
375.1274915
335.8556695
409.1300147
381.4905975
380.0616474
355.685898
378.0507532
393.8372696
378.0741048
346.1129866
356.6716463
382.2550801
375.0404174
371.9405361
400.3958047
394.6383805
395.9580848
416.9795018
357.0964541
330.8207221
370.2146884
338.8333075
384.5718215
411.119834
405.8878095
383.3110848
388.5241786
429.5821661
345.0012607
339.9528643
356.0983977
356.049061
379.8310665
380.916934
341.1367766
380.3076167
388.9501755
409.2666416
357.8005978
335.7234648
376.6117566
373.1227144
365.1296467
362.712797
362.500656
387.935794
379.3875501
340.4698939
356.9916295
302.2334117
332.6893162
378.5214251
395.8882226
401.960901
338.1068773
349.6304737
374.0127046
402.2262318
343.0641145
381.6901542
427.4838398
366.6447661
420.5176706
400.1210189
372.62257
338.5834387
329.9791103
375.3672349
352.6335184
375.3554824
400.6087041
321.3458149
356.5120411
399.5219489
436.5164065
364.9333597
367.1935744
359.0016183
381.2815897
350.1752289
370.7888739
356.6364564
354.719311
367.1488132
348.3524937
320.074169
392.3375106
356.8442553
381.8610918
360.7888796
403.3335577
381.4287828
)
;

boundaryField
{
    flow
    {
        type            calculated;
        value           nonuniform List<scalar> 
42
(
259.8768446
300.8347774
316.1286882
321.1627996
344.7508549
310.4587858
284.6104215
251.0612175
277.9513019
272.7069633
286.6269361
268.3413237
290.0810022
295.8963908
296.0250465
305.9831699
318.6072814
279.828635
301.1854152
288.4927073
297.128091
281.8264396
259.8768446
277.2564592
293.3412534
299.149244
309.9468258
326.7467138
314.9816161
302.0309337
312.2923983
320.19307
312.8996313
287.2450811
290.7449522
332.5495082
391.6281988
354.117319
325.717637
326.8260649
342.9501407
379.4814497
)
;
    }
    obstacle
    {
        type            calculated;
        value           nonuniform List<scalar> 10(508.5293543 561.9222902 442.8745501 563.3408555 448.4994931 526.3747718 527.2449943 537.7569104 449.653883 587.5040861);
    }
    frontAndBack
    {
        type            empty;
    }
    procBoundary0to1
    {
        type            processor;
        value           nonuniform List<scalar> 
21
(
553.3937325
547.0050357
536.1632614
544.9165337
464.5204757
457.9440025
472.7348238
435.7676391
442.8625753
428.9804145
446.4106373
450.5965504
395.5892596
397.698382
431.5462924
386.053744
386.6912231
435.5598149
466.4130515
384.576105
343.495157
)
;
    }
    procBoundary0to2
    {
        type            processor;
        value           nonuniform List<scalar> 
31
(
278.6052293
312.7558433
304.5727083
304.4695915
303.6749257
277.1607073
279.6691138
313.026187
318.3580584
335.8244079
312.5965864
356.7706247
357.1413912
337.6554178
309.8740502
343.0244193
337.2096163
309.9912128
314.562527
361.1692069
349.6416037
358.4548056
376.6911446
345.0731615
356.1633619
380.1140855
354.3262545
359.2722102
374.2128221
349.6416037
362.7788944
)
;
    }
}


// ************************************************************************* //
