/*--------------------------------*- C++ -*----------------------------------*\
  =========                 |
  \\      /  F ield         | OpenFOAM: The Open Source CFD Toolbox
   \\    /   O peration     | Website:  https://openfoam.org
    \\  /    A nd           | Version:  7
     \\/     M anipulation  |
\*---------------------------------------------------------------------------*/
FoamFile
{
    version     2.0;
    format      ascii;
    class       volVectorField;
    location    "0.001";
    object      momentumMean;
}
// * * * * * * * * * * * * * * * * * * * * * * * * * * * * * * * * * * * * * //

dimensions      [1 -2 -1 0 0 0 0];

internalField   nonuniform List<vector> 
654
(
(0.006319548463 -4.826466484e-05 1.932813954e-05)
(0.008358117318 -3.938749771e-05 1.723110198e-05)
(0.008387574621 -2.384194886e-05 -5.077947588e-06)
(0.008293777258 -6.825895902e-06 2.291533641e-06)
(0.008245397778 -1.780233273e-05 9.862087053e-07)
(0.008156946592 -5.10014379e-05 -5.070643132e-06)
(0.008175023547 -6.65407019e-05 -7.938931698e-06)
(0.008169789771 -2.311644795e-05 -3.402830744e-05)
(0.00791629274 -1.017685505e-05 -2.589448058e-05)
(0.007927012619 -7.39008409e-06 -7.478116124e-06)
(0.008057429618 -1.392496991e-05 -1.076955156e-05)
(0.008103908223 -3.544195673e-05 -2.967434845e-05)
(0.008175255694 -2.264969791e-05 -1.171846446e-05)
(0.008059466411 -2.377890911e-05 -4.940616472e-06)
(0.008010979055 9.240303506e-06 1.037178375e-05)
(0.007983963811 2.176610613e-05 -1.977224465e-05)
(0.007940045976 1.47421222e-05 -1.310421529e-05)
(0.008054668351 -1.772958751e-05 -4.470836627e-05)
(0.008086151764 -3.413152595e-05 -6.565908521e-05)
(0.007747137824 7.242887224e-05 2.698745433e-05)
(0.006406245779 1.910792544e-05 2.704761972e-05)
(0.008222992643 2.7286125e-05 2.857200847e-05)
(0.008234179421 -2.011159234e-05 1.723460094e-05)
(0.008165383559 -1.844222455e-05 2.959856197e-05)
(0.00837197836 -1.459178689e-05 3.784406795e-05)
(0.008353219314 3.6561095e-05 2.282298196e-05)
(0.008337379741 6.141824763e-06 7.024823525e-06)
(0.008301983335 2.542834675e-05 2.561014156e-05)
(0.008519739548 1.598268984e-06 5.300238377e-06)
(0.008406086785 3.711382647e-06 2.738789001e-06)
(0.008406825108 1.039587406e-05 2.864895897e-05)
(0.008141521962 2.850968974e-05 4.30490496e-05)
(0.008100452738 3.768356055e-05 2.672423023e-05)
(0.008140075823 3.49414847e-05 3.295388089e-06)
(0.008275309232 4.939728951e-05 1.529224639e-06)
(0.008315781298 1.373297106e-05 5.087498849e-06)
(0.008317141715 -2.05355863e-05 -1.506243394e-05)
(0.008296914444 -2.353853256e-05 -2.847916776e-05)
(0.008335926323 8.167904867e-06 -1.167002795e-05)
(0.008196111514 0.0003792761598 5.838217239e-05)
(0.006280236431 4.435643699e-07 -5.750485949e-06)
(0.008376376724 -2.020144026e-05 -2.756461891e-05)
(0.008371184766 -2.271123223e-07 -2.504168813e-05)
(0.008332384305 3.215213233e-06 -2.329292911e-05)
(0.008380822754 -2.434438826e-05 -4.811062692e-05)
(0.008480782311 -2.647078854e-05 -3.270173694e-05)
(0.00844099655 1.610092566e-05 -3.41685385e-06)
(0.008385756086 1.618468608e-05 2.369939577e-05)
(0.008294314797 4.651751507e-05 8.662742796e-06)
(0.008320235181 3.704366739e-05 -1.233610061e-05)
(0.008342761076 3.965927366e-05 -5.850076349e-05)
(0.008390388739 4.375814381e-05 -7.470599238e-05)
(0.008470889248 1.070356266e-05 -7.09295065e-05)
(0.00869773916 -6.994734447e-06 -6.04359242e-05)
(0.008686801933 -4.594065203e-05 -5.887220509e-05)
(0.008598344144 -2.232991908e-05 -4.117093797e-05)
(0.008455911555 4.118328107e-06 -2.01282294e-05)
(0.008356667711 4.272034715e-06 -9.01279397e-06)
(0.008188486881 9.920167761e-05 -4.421988351e-06)
(0.008154989296 0.0003175391659 -3.504500859e-05)
(0.00642408209 -1.021293951e-05 8.559132719e-06)
(0.008309787817 -5.626285006e-06 9.350882218e-06)
(0.008427662793 -2.257820322e-05 1.872424621e-05)
(0.008486893303 -2.117607575e-05 1.506634132e-05)
(0.008337850586 1.885301069e-05 -3.06997361e-06)
(0.008396019891 3.080704908e-05 -4.965921748e-06)
(0.008222732519 2.175356717e-05 -3.687871124e-05)
(0.008275711198 1.638083566e-05 -8.282479081e-05)
(0.008320322952 -1.597085366e-05 -6.737196266e-05)
(0.008345257699 3.376762107e-07 -4.999809213e-05)
(0.008355107132 1.265211033e-05 -2.802522811e-05)
(0.008396919589 8.034313839e-06 -2.687053695e-05)
(0.008387266934 -2.006488998e-05 -5.923802093e-05)
(0.00815753288 5.486490586e-06 -9.088015181e-05)
(0.008106859633 5.8406494e-06 -5.651469475e-05)
(0.00816828594 2.945572661e-05 -5.435543576e-05)
(0.008054794619 5.029693473e-05 -1.721800566e-05)
(0.008235684319 8.489800641e-05 -1.778692157e-06)
(0.008331850659 0.0001346885358 7.270906138e-06)
(0.008320068498 0.0003258106842 -1.894779275e-05)
(0.006338059584 -1.187652774e-05 -1.164800974e-05)
(0.008398780394 8.677664559e-06 8.484645741e-06)
(0.008337202192 2.452820507e-06 2.674873224e-06)
(0.008192159479 2.589998654e-05 -9.552745082e-06)
(0.008264499361 -2.117734515e-05 9.283235728e-06)
(0.008284486555 -1.483164277e-05 -1.295847029e-05)
(0.008291255394 2.338804511e-05 -9.333405598e-06)
(0.008375265914 3.108561523e-05 5.941865304e-06)
(0.008403834727 3.419345609e-05 -2.571161237e-05)
(0.008285200012 1.541387183e-05 -2.359287762e-05)
(0.008311670904 3.161873001e-05 -2.226638662e-05)
(0.008371256207 7.463824082e-05 -2.54620771e-05)
(0.008389137569 6.375740994e-05 6.818777987e-06)
(0.008387951107 4.23444291e-05 2.699823028e-05)
(0.008337563481 3.505560968e-05 5.503362016e-05)
(0.008298571446 2.566661344e-05 5.183963507e-05)
(0.008303081337 2.620279322e-05 3.988588547e-05)
(0.008293454231 3.732878927e-05 4.682189744e-05)
(0.008237008661 6.574074928e-05 1.390696151e-05)
(0.008229593568 0.0002017305479 -2.868555447e-05)
(0.006369131988 -3.630191088e-06 -1.538882899e-06)
(0.008229839071 4.28076302e-06 8.472840066e-07)
(0.00821526526 2.869332047e-05 -1.168362268e-05)
(0.008157583318 1.474695578e-05 -1.50719021e-05)
(0.008144911912 2.877735374e-05 -1.4508483e-05)
(0.008091445558 2.360228192e-05 6.254583853e-06)
(0.008070042119 -1.044312896e-05 5.054076904e-05)
(0.008224517615 -1.751012224e-05 5.97637725e-05)
(0.008068906851 -6.003401465e-06 4.2815528e-05)
(0.008218370028 2.714856815e-05 6.459534341e-05)
(0.008193743179 -3.068946968e-05 5.04203642e-05)
(0.008123405152 -4.010440324e-05 2.765152873e-05)
(0.008112529658 -1.143980335e-05 4.119564022e-05)
(0.008408175713 2.228064266e-05 6.423849915e-06)
(0.008491061778 6.294572245e-05 7.884547686e-06)
(0.008586775193 5.916756961e-05 -1.331709734e-05)
(0.008526056813 5.903041105e-05 -2.012564068e-05)
(0.008535809623 8.434309901e-05 -2.816745852e-06)
(0.008491028764 8.742129022e-05 2.490272241e-06)
(0.008399426003 0.0001781981676 2.576723755e-05)
(0.006368206209 4.138824054e-05 4.200041827e-05)
(0.008346171905 4.838301097e-05 4.833335895e-05)
(0.008420448145 2.824436667e-05 7.6051848e-05)
(0.008535315409 2.082942822e-05 7.465400689e-05)
(0.008629383414 1.467609258e-05 8.109537716e-05)
(0.008517958193 1.402055075e-05 5.916135183e-05)
(0.008421606436 1.583145952e-06 4.506399296e-05)
(0.008464555564 1.306654229e-05 2.874950251e-05)
(0.00841363075 1.528456265e-05 4.123616951e-05)
(0.008302179138 1.722053572e-05 4.017293883e-05)
(0.008298877511 3.740095237e-05 7.238839835e-05)
(0.008475163257 1.91989338e-06 5.839361167e-05)
(0.008341916809 -1.01990552e-05 6.450796214e-05)
(0.008158035707 -3.558709448e-05 6.269026883e-05)
(0.008162858129 -6.711049138e-05 2.594121472e-05)
(0.008137855398 -3.759742991e-05 5.737649414e-05)
(0.008239313186 2.451425482e-05 1.679638282e-05)
(0.008309488672 8.465655934e-05 3.309048796e-05)
(0.008281479479 0.0001182001911 2.940224761e-05)
(0.008342211388 0.0001653411358 1.783429896e-05)
(0.006401464215 1.064875767e-05 5.976599759e-05)
(0.008322630603 4.255487447e-07 4.799267034e-05)
(0.008294154774 2.429631263e-06 4.138455226e-05)
(0.008055926717 -6.327986465e-07 4.32429301e-05)
(0.008132943098 2.716868026e-05 3.880192672e-05)
(0.008197787291 2.607831371e-05 4.446522683e-05)
(0.008313226022 4.400203767e-05 5.539746036e-05)
(0.008293833927 2.712431672e-05 4.908176302e-05)
(0.008297003 1.304321416e-05 6.619037268e-05)
(0.008463520281 -1.599039298e-05 6.419916875e-05)
(0.00842419862 4.642108151e-06 3.591978183e-05)
(0.008480264488 1.246397168e-05 2.353328423e-05)
(0.008516254714 8.957859694e-06 2.370672611e-05)
(0.008530091374 2.180154721e-05 3.114788148e-05)
(0.008516033215 4.349012014e-06 3.273595748e-05)
(0.008477183159 1.833060644e-05 5.174383405e-05)
(0.008390259712 1.131255925e-05 4.691379907e-05)
(0.008417041844 -5.377283282e-06 5.733683981e-06)
(0.008582605089 5.419270862e-05 1.417151281e-05)
(0.008512866941 0.0001024547834 2.267234044e-05)
(0.00638381244 -6.48528699e-06 -2.735112362e-05)
(0.008349818859 3.430201162e-05 -2.739237756e-05)
(0.008307065325 3.650242131e-05 -2.32655977e-06)
(0.008347018977 4.222158422e-05 -1.267194144e-05)
(0.008339376694 2.368334457e-05 1.008051654e-05)
(0.008420806764 1.833646897e-05 1.107147982e-05)
(0.008376705831 -8.446168826e-06 1.531636942e-06)
(0.008419453873 3.163131105e-06 2.131277264e-05)
(0.008347270275 1.384191704e-05 -7.568898778e-06)
(0.008388026526 8.331373105e-07 -3.012393268e-06)
(0.008237107273 -2.514836762e-06 8.770968058e-06)
(0.008322455035 -3.178652266e-05 -1.134458938e-05)
(0.008102108637 -2.789675128e-06 1.383872103e-05)
(0.00811279961 -1.171212888e-05 3.83200499e-05)
(0.008128847599 2.062767905e-05 5.13347441e-05)
(0.008174265328 1.985477109e-05 3.920749835e-05)
(0.008198633912 3.06707391e-05 1.758224351e-05)
(0.008222814113 3.192552143e-05 7.026133868e-06)
(0.008131557899 2.88768941e-05 1.477874012e-05)
(0.00817888139 6.113415147e-05 1.280607728e-05)
(0.006401327571 2.733256436e-05 7.035920212e-06)
(0.008353254201 -3.706001041e-06 5.639045655e-06)
(0.008499482043 8.781284817e-07 5.073225959e-07)
(0.008702532028 3.538020066e-06 7.275534746e-06)
(0.008623674377 -1.464008969e-05 3.095224773e-05)
(0.008591221943 3.115862918e-06 4.382313047e-05)
(0.008556595272 1.106052152e-05 3.74855484e-05)
(0.008453506566 -6.180751204e-06 8.387451617e-06)
(0.008340939674 2.272552712e-06 2.550509898e-05)
(0.008463315744 2.784931441e-06 5.019948237e-05)
(0.008458647137 -2.137039051e-05 6.635010562e-05)
(0.008648890439 1.818075353e-05 6.531065531e-05)
(0.00874152496 -7.652588721e-06 4.697385695e-05)
(0.008678264084 6.692369714e-06 3.824575004e-05)
(0.008642538801 2.94299997e-05 3.140701242e-05)
(0.008665421888 1.447640822e-05 3.154844468e-05)
(0.008622908339 4.96621143e-06 4.301975496e-05)
(0.008690670993 2.435508894e-05 2.61926453e-05)
(0.008785921361 4.727930036e-05 4.585586618e-05)
(0.008668516518 5.993028073e-05 5.15858875e-05)
(0.006393733927 -3.886283846e-05 -1.037049703e-05)
(0.008329926934 -1.230583471e-05 -7.585095509e-06)
(0.008380188869 -1.129398366e-05 2.940515318e-05)
(0.008300763258 -4.577522798e-05 1.727023799e-05)
(0.008285162294 -4.760337142e-06 -2.039164983e-05)
(0.008464771117 1.535480846e-06 -3.357252251e-05)
(0.008501762357 -9.780352867e-06 -5.569543533e-05)
(0.008775714801 -3.597782368e-05 -4.600883546e-09)
(0.00869808331 -2.017988375e-05 9.551413991e-06)
(0.008685047466 -2.033826593e-05 1.476877787e-05)
(0.008642379271 2.301870382e-05 -1.870881338e-05)
(0.008477579796 3.03222034e-05 -2.696723255e-05)
(0.008336120178 4.679988203e-05 -1.252334148e-05)
(0.008525153784 3.750435419e-06 1.187269572e-05)
(0.008553533506 -6.946637936e-06 3.152611802e-05)
(0.008455315075 2.922875592e-05 3.302743716e-05)
(0.008646771663 3.118481142e-05 3.370486311e-05)
(0.008638029395 2.119650123e-05 4.65563334e-05)
(0.008557827286 -3.722242091e-06 2.052647235e-05)
(0.008618111866 4.728288329e-05 3.555519914e-05)
(0.00633264562 -1.270262572e-05 -1.515600528e-05)
(0.008454373781 -1.708798935e-06 -9.027358522e-06)
(0.008389713214 -1.466761526e-05 -1.360010161e-05)
(0.0083325285 -7.957212484e-06 -1.422629657e-05)
(0.008340433531 -1.738761728e-05 -3.414090455e-06)
(0.008406389944 -1.559865564e-05 2.361945716e-05)
(0.008208386727 2.511347731e-06 5.503047917e-06)
(0.008194437199 -7.464621951e-06 -1.950901942e-05)
(0.008143150902 -6.414693517e-06 -2.805068665e-05)
(0.008066969181 -1.522779594e-05 -4.24619753e-05)
(0.008099308609 -1.233159661e-05 -3.307512553e-05)
(0.008183521359 -2.920722422e-05 -7.680216487e-06)
(0.008292902905 -9.599836113e-06 -1.400687511e-05)
(0.00826290592 -6.143168206e-06 -4.237142467e-05)
(0.008326795236 -4.775029995e-06 -4.435062972e-05)
(0.008341272777 -1.206306684e-05 -5.705364647e-05)
(0.008248748988 -1.673989122e-05 -3.611143311e-05)
(0.008120612075 8.804298367e-06 -4.211580192e-05)
(0.008084038732 2.71219316e-05 -3.535845945e-05)
(0.008165884675 2.033732609e-05 -5.597269651e-05)
(0.006321355416 -3.203107985e-05 -8.422051793e-06)
(0.008384594449 -4.767774142e-05 -3.378226555e-05)
(0.008536649267 -3.045393514e-05 -5.702003799e-05)
(0.008412165636 -9.937996412e-06 -3.451232352e-05)
(0.008430441503 3.082201746e-07 -6.916803707e-05)
(0.008425684538 -2.657797457e-06 -7.111797612e-05)
(0.008549247655 2.627460184e-05 -4.743154192e-05)
(0.008474718825 1.398850342e-05 -3.756361889e-05)
(0.008531896035 6.681329698e-06 -4.790330458e-05)
(0.00840310722 -1.587105322e-05 -3.440977674e-05)
(0.008418597735 -2.88403502e-05 -5.451808515e-05)
(0.008258287206 1.135512301e-05 -6.170593202e-05)
(0.008233042214 -9.906294372e-06 -4.762156569e-05)
(0.00810613594 3.154982805e-05 -6.783066211e-05)
(0.008186583766 2.408479324e-05 -4.553395038e-05)
(0.008156713435 2.586387574e-05 -4.186694131e-05)
(0.008120497252 1.619235316e-05 -2.571826102e-05)
(0.008186721855 4.529599103e-05 -3.721523943e-05)
(0.00821788625 6.042426436e-05 -2.426739072e-05)
(0.008307769069 6.670382283e-05 -2.447193347e-05)
(0.006426258994 -7.833944064e-06 3.349622564e-05)
(0.00831504649 -2.121691451e-06 1.880073426e-05)
(0.008144495897 -1.133772318e-05 1.274001263e-05)
(0.008163577707 -4.245884848e-05 4.231714328e-05)
(0.008169824347 -4.939138541e-05 3.348976112e-05)
(0.0081685444 -4.252360048e-05 1.585311952e-05)
(0.008292233124 -4.009729129e-05 2.771442275e-07)
(0.008321713812 -1.187063016e-05 -5.252039484e-06)
(0.008294511079 -3.337426759e-06 6.62837316e-06)
(0.008488626195 3.627721112e-05 -1.196568634e-05)
(0.008451730253 6.997923248e-05 -6.606373423e-06)
(0.008392177611 5.441707368e-05 -5.157571807e-06)
(0.008394833381 6.873730055e-05 -2.211379884e-05)
(0.008318995393 5.181056183e-05 -8.361192169e-07)
(0.008234120491 1.721921914e-05 -9.37672884e-06)
(0.00828937362 1.000714659e-05 -1.105675691e-06)
(0.008358184759 -8.178336919e-06 -5.381441943e-06)
(0.008297349977 -1.197507868e-05 -2.269337227e-05)
(0.008316345906 -6.03279476e-05 -2.889861683e-05)
(0.008230765433 -5.886181956e-06 -8.953830052e-06)
(0.00632019773 5.410298473e-06 2.546735308e-05)
(0.008179024577 -9.143669628e-06 3.897829423e-05)
(0.008269814065 -1.701428152e-05 5.530018557e-05)
(0.008131150933 1.207021873e-05 2.111347069e-05)
(0.008262992972 2.062561988e-05 2.386965785e-05)
(0.008112383156 3.374190933e-05 1.527426766e-05)
(0.008095065691 2.916410648e-06 -4.536898174e-06)
(0.008011151954 -1.87692387e-05 4.648198338e-06)
(0.008040155504 -1.404004085e-05 -1.301168466e-05)
(0.007836467223 -3.62454103e-06 1.338957399e-05)
(0.00806005646 -6.034438698e-06 1.115392107e-05)
(0.008266773857 -2.866600496e-05 -2.52549323e-05)
(0.008292604211 -3.093876822e-05 -3.31378867e-05)
(0.008328151509 -1.733860716e-05 -5.02931308e-05)
(0.008449487846 2.00795065e-05 -3.35203026e-05)
(0.008395971718 1.355205311e-05 -3.792496735e-05)
(0.008477964629 2.157962496e-06 -2.693315227e-05)
(0.008439498617 3.094341663e-05 -5.909529018e-05)
(0.008468713515 6.633603246e-05 -2.991683146e-05)
(0.008253412384 4.308951758e-05 -3.197907272e-05)
(0.00637692207 -1.169913516e-05 -2.241747578e-05)
(0.008420265793 -1.869939927e-06 -3.658556244e-05)
(0.008372680156 1.25151283e-05 -5.564990436e-06)
(0.00844108632 3.003818026e-05 -3.554584798e-06)
(0.008427216653 2.768149103e-05 -2.210153515e-05)
(0.008459672502 1.766248721e-05 -1.146034281e-06)
(0.008479558246 2.795314236e-05 1.501476808e-05)
(0.008444243393 2.428350541e-05 3.120194471e-05)
(0.008409936843 1.949418103e-05 2.662261913e-05)
(0.008419570594 -8.939188989e-06 1.265566957e-05)
(0.008337912535 -3.887182602e-05 -4.665021274e-06)
(0.008162510735 -2.576206928e-05 1.179549676e-05)
(0.008179390872 -2.334575964e-05 1.01561486e-05)
(0.00824782507 -5.489750366e-06 -7.58405647e-06)
(0.008092385834 -2.401164831e-05 -7.139546001e-06)
(0.008133495924 -9.787176931e-06 6.570523696e-07)
(0.008079145489 1.738532855e-05 2.835904338e-05)
(0.008068033581 2.0914003e-05 1.619115305e-05)
(0.008249561925 1.756351884e-06 3.6832706e-05)
(0.008340585585 2.144851452e-05 -6.839772665e-06)
(0.006246589131 4.150971423e-06 -3.566846522e-05)
(0.008263042611 1.704641584e-05 -5.094444295e-05)
(0.008262224271 -2.006362e-05 -5.720156172e-05)
(0.008215700153 -1.003647052e-06 -4.388759893e-05)
(0.008227744158 -3.442516008e-06 -6.460107845e-05)
(0.008238245131 -7.747793631e-06 -4.846465622e-05)
(0.008283254292 -1.08453498e-05 -3.707582296e-05)
(0.008247385196 -1.230810569e-05 -3.53229907e-05)
(0.008311744932 2.70470112e-06 -1.797753225e-05)
(0.008257660911 -1.578684026e-06 -1.536700505e-05)
(0.00820390949 2.509503922e-05 2.641969019e-05)
(0.008233038337 2.728778551e-05 2.484879864e-05)
(0.008194764375 6.851462002e-06 5.268334191e-05)
(0.008367575489 -8.982776943e-06 6.654896925e-05)
(0.008407098477 1.114509337e-05 6.233490073e-05)
(0.008427392782 -9.709846176e-06 1.547667771e-05)
(0.008557210357 -9.634259412e-06 1.794957184e-05)
(0.008540799628 -2.450617426e-05 1.943829701e-05)
(0.008431277465 -1.708050992e-05 6.681479882e-06)
(0.008491490742 -5.076642494e-05 9.743106923e-06)
(0.0064275668 2.818750726e-05 -5.17733576e-06)
(0.008357531758 1.394286998e-05 7.402820745e-06)
(0.008381940597 3.898158907e-05 -1.487535611e-06)
(0.008309666286 3.716611321e-05 1.917783527e-05)
(0.00826811218 1.272682763e-06 3.203022952e-05)
(0.008286770971 2.764279606e-06 3.567476783e-05)
(0.008249396894 1.182607182e-05 2.951203815e-05)
(0.008297225869 3.135647911e-05 5.288641168e-05)
(0.008279856511 7.021079877e-06 9.470252446e-06)
(0.008387711232 6.793907379e-06 1.300611274e-05)
(0.008374424768 -2.172792053e-05 1.905938035e-05)
(0.0084414301 -3.708545879e-05 1.917859729e-05)
(0.008500928479 -3.280348696e-05 -1.789230411e-05)
(0.008347619175 -4.03888437e-05 4.906383943e-06)
(0.008434878392 -6.675012636e-05 2.755527461e-05)
(0.008317567171 -6.650605479e-05 3.438858443e-05)
(0.008282175887 -4.426305878e-05 3.922903567e-05)
(0.008402793949 -3.042608822e-05 2.106248491e-05)
(0.008366721652 -1.568974676e-05 5.341981574e-05)
(0.008289367992 3.24228558e-05 4.022628346e-05)
(0.006292869456 -5.180302792e-06 4.468522319e-06)
(0.008358179494 1.284111968e-05 8.014600468e-06)
(0.008340432011 2.421653902e-05 -7.52080784e-06)
(0.008554153309 7.81741781e-06 -8.385865162e-06)
(0.008599750339 3.69542816e-06 -3.393564561e-05)
(0.008450030307 -6.346604225e-06 6.816484538e-06)
(0.008438355135 -4.853069942e-06 1.410113425e-06)
(0.00859357409 -4.301752895e-05 3.138620415e-05)
(0.008506002375 -3.906115811e-05 3.775151581e-05)
(0.008494260259 -2.428727539e-05 5.425015011e-05)
(0.00860043581 -1.298181236e-05 4.704784104e-05)
(0.008560430075 -4.023502433e-06 4.434770392e-05)
(0.008474298614 -1.718798819e-05 4.637453318e-05)
(0.008516791426 2.29241287e-05 2.094744522e-05)
(0.008512311475 4.45866908e-05 -5.804982786e-06)
(0.008541507661 7.891036403e-06 3.633754411e-05)
(0.008448609155 -2.434306071e-06 2.721839435e-05)
(0.008295763275 -4.691180327e-07 1.417664945e-05)
(0.008228040657 -1.713216281e-06 3.074436542e-05)
(0.008165194876 -2.138190906e-05 1.81847567e-05)
(0.006465091717 -5.484661979e-06 5.795020794e-05)
(0.008525476854 -3.674975746e-05 6.200356109e-05)
(0.008534761484 -5.807101714e-05 7.396874095e-05)
(0.008423174145 -5.345496772e-05 6.567573079e-05)
(0.008303738266 -3.721455648e-05 8.096893245e-05)
(0.008477513405 -2.20469212e-05 4.53311515e-05)
(0.008426633354 3.355626174e-06 1.828174405e-05)
(0.008505907723 1.713434224e-05 3.653802783e-06)
(0.008452143787 8.984100948e-07 -5.687573306e-06)
(0.008490948467 -5.676961952e-07 8.486773835e-06)
(0.008368980548 -1.995607283e-05 8.522718248e-06)
(0.008301947917 -5.962180254e-06 -6.054836474e-06)
(0.008384757646 1.048804149e-05 2.24750177e-05)
(0.008258955589 -5.502248185e-06 4.048710262e-05)
(0.008264830579 -1.067355748e-05 5.755467869e-05)
(0.008337786711 2.55434491e-05 1.849403392e-05)
(0.00837204075 9.859369387e-06 2.046080806e-05)
(0.008486223895 2.090150216e-06 3.687889837e-05)
(0.008538087063 -3.653125141e-05 2.347633453e-05)
(0.008571164991 -2.031902111e-05 3.732315493e-05)
(0.006307376384 -3.693173327e-05 -1.50510625e-05)
(0.008159588617 -2.736724379e-05 -7.562310293e-06)
(0.008174685887 -1.317628083e-05 -1.501574331e-05)
(0.008139288237 -1.811316538e-05 -2.102578525e-05)
(0.008162756915 -2.05165666e-05 -8.059727203e-06)
(0.008085828131 -3.162599103e-05 -4.556415128e-06)
(0.008048611884 -3.664249301e-05 6.183855205e-06)
(0.008135700478 -3.501377163e-05 4.060004038e-05)
(0.008079246846 1.804490678e-05 5.121926789e-05)
(0.007978816858 -1.197594621e-06 5.343632141e-05)
(0.00824452776 -6.060599139e-06 6.860206201e-05)
(0.008279918715 7.887405068e-06 6.431595647e-05)
(0.008422801253 -2.161961961e-06 6.940289599e-05)
(0.008546639552 -1.31965417e-05 5.955754622e-05)
(0.008553666943 -3.019151237e-05 4.864407619e-05)
(0.008474359829 -4.597930209e-05 4.462877205e-05)
(0.008446420197 -5.722280413e-05 5.558188328e-05)
(0.008498587692 -4.303302907e-05 3.708947641e-05)
(0.008580126574 -4.919529906e-05 2.0108776e-05)
(0.008635247518 -7.674204063e-05 1.510567373e-05)
(0.006448347011 8.954497025e-06 5.517237553e-06)
(0.008581725752 6.902099562e-06 1.822424828e-05)
(0.008506411588 1.5947717e-05 8.911968582e-06)
(0.008386875278 8.007120342e-06 2.597213555e-06)
(0.008365180236 4.374402093e-06 -1.585360346e-05)
(0.008380613564 5.228347493e-05 1.043302576e-05)
(0.008283198683 2.552554424e-05 2.601354882e-05)
(0.008322284679 1.915650197e-05 1.70915862e-05)
(0.008371031732 -2.456340187e-05 -1.287482549e-05)
(0.008420930823 -4.53723071e-05 -1.788639589e-05)
(0.008272530565 -5.385565484e-05 -2.01943542e-05)
(0.008207525142 -3.011959747e-05 -2.734089255e-06)
(0.008359196004 -7.738977656e-05 1.288910133e-05)
(0.00831377593 -7.807444352e-05 4.929880773e-06)
(0.008383579796 -8.940500808e-05 -5.820912426e-06)
(0.008403278146 -7.466605467e-05 -2.364829088e-06)
(0.008470395342 -6.552960777e-05 -8.071994955e-06)
(0.008412471224 -1.78730256e-05 -3.370645857e-06)
(0.008214442476 -2.093765989e-05 -8.703183617e-06)
(0.00817397812 -1.617680849e-05 -2.586764785e-05)
(0.007754511945 0.001759523458 0.0002068336971)
(0.008195903466 0.002265036974 0.0001458318366)
(0.008111357419 0.002212224746 -0.000110280648)
(0.007739793775 0.002334318377 -0.0001119220818)
(0.007275475521 0.002102912199 -0.0001173091258)
(0.006986981015 0.001875631318 5.472581264e-05)
(0.006675909682 0.002013707578 0.0001623272081)
(0.006332564277 0.00175609873 8.041964191e-05)
(0.005986048194 0.001689995472 0.0001796442363)
(0.005729346366 0.001657299222 -2.124873181e-05)
(0.008592151326 0.001180834308 -8.02663251e-05)
(0.008901004495 0.002078713883 -3.643605399e-05)
(0.009162619632 0.002518773353 0.0001545374545)
(0.009479188338 0.002966073556 7.697540053e-05)
(0.009532240669 0.002699064682 8.157949248e-05)
(0.009478273032 0.002780855255 2.678515658e-05)
(0.00930069602 0.002963342068 -9.042263561e-05)
(0.008977433277 0.002721816471 5.619336963e-05)
(0.008853853032 0.002538683765 0.0002699526775)
(0.008578141318 0.002425903457 0.0001934548214)
(0.008103781556 0.0009312531501 -7.263763341e-05)
(0.008656212012 0.001558107099 6.401607572e-05)
(0.009239895203 0.001910158195 -2.429287225e-05)
(0.009733760693 0.002502540489 9.523476121e-05)
(0.0103211696 0.002820787554 -0.000105462966)
(0.01041800707 0.003046891501 -4.343762435e-06)
(0.01049564413 0.003073737133 -0.0001143732656)
(0.01056930889 0.003138137855 -6.209065405e-05)
(0.01053673343 0.003135985014 9.821916997e-06)
(0.01029789578 0.003167885708 0.0002165152696)
(0.008510834822 0.0007838526272 -3.68030482e-05)
(0.008821652844 0.001027487354 3.856953026e-05)
(0.009281118671 0.001454934853 -2.163179029e-05)
(0.009430201255 0.001918819384 5.469333146e-05)
(0.009994190097 0.002378995174 0.0001197880431)
(0.01034853619 0.002864636498 0.0001333764488)
(0.0105812029 0.00291002544 -3.652625289e-05)
(0.01076165562 0.003146200993 0.0001049715584)
(0.0107492747 0.003127742713 6.163297873e-05)
(0.01096302871 0.003294055505 0.0001472753837)
(0.008286411557 0.0004727158167 9.830245287e-05)
(0.008576982698 0.0006951141229 0.0001509712227)
(0.008872520217 0.001155234661 0.0001136449518)
(0.009316572694 0.001447372207 4.972748353e-05)
(0.00976783834 0.001764407016 5.600151917e-05)
(0.01041634142 0.002322733329 4.61215869e-05)
(0.01106583778 0.002749919729 4.250703774e-05)
(0.01130947512 0.002960993025 5.674509882e-05)
(0.01160124577 0.003144295619 2.58007907e-05)
(0.01164686869 0.003198550442 0.0001221416447)
(0.00852237004 0.0003235417058 2.559979349e-05)
(0.008609004243 0.000510299828 -4.352097299e-05)
(0.008800955878 0.0007479287837 5.316749665e-05)
(0.009192555959 0.001129464137 6.167292889e-05)
(0.009446990774 0.001286313433 -5.198178087e-05)
(0.009637262492 0.00159317678 -7.069957693e-06)
(0.01011597244 0.002152209704 3.836791578e-05)
(0.01068194603 0.002423621387 2.106521276e-05)
(0.0110734221 0.002748581623 9.851005969e-05)
(0.01134853474 0.003082766113 -3.619151472e-05)
(0.008539372408 0.0002209435802 6.755014696e-06)
(0.008724554896 0.0003580291733 2.182596345e-05)
(0.00864823446 0.0004948631787 3.751419138e-05)
(0.008845781088 0.0007802748245 0.0001005750861)
(0.009082600546 0.001057259901 3.831981978e-05)
(0.009476686451 0.001177794215 -2.515643178e-05)
(0.009884760759 0.001508318476 -4.178238077e-05)
(0.01009659925 0.001924180198 5.650152237e-05)
(0.01049459756 0.002245075495 0.0001309724619)
(0.01083987254 0.00253744661 5.162461539e-05)
(0.008508533198 0.0001778146336 -1.165695073e-05)
(0.008504770199 0.0002523121247 5.728466625e-06)
(0.008704755504 0.0003972030986 3.489947858e-05)
(0.008697403529 0.000467627195 6.25407414e-05)
(0.008973177599 0.0007413277712 7.619617489e-05)
(0.008987897277 0.0009617095434 1.946069123e-05)
(0.009071798646 0.001092207238 4.485550752e-05)
(0.009624643678 0.00143985324 1.22795557e-05)
(0.01011367387 0.001789258679 6.151712623e-05)
(0.01051129617 0.002102381894 -4.149338491e-05)
(0.008213166827 9.35197553e-05 9.689785282e-06)
(0.008354715483 0.000125773267 -2.070678243e-05)
(0.008315488954 0.000249819652 1.09106054e-06)
(0.008634203832 0.000342191368 7.279585257e-05)
(0.008757552686 0.0004615661915 7.786015757e-05)
(0.009140558146 0.0007103526632 4.476749271e-05)
(0.009402658587 0.0008760105421 1.224207228e-05)
(0.009283471446 0.001065801794 1.794004995e-05)
(0.009577369877 0.001353084011 3.625687711e-05)
(0.00993805882 0.001597772285 -5.923708646e-05)
(0.00867381567 0.0001133724622 4.924089251e-05)
(0.008734360774 0.0001568526249 9.339504056e-05)
(0.008808308145 0.0002155697544 8.637717724e-05)
(0.008836263187 0.0003150411679 6.661388324e-05)
(0.008714418999 0.0003291545429 3.089328941e-05)
(0.008781427695 0.0004952538038 2.292200201e-05)
(0.008865126408 0.0006470442688 -9.362375107e-06)
(0.00921255047 0.0007591820463 -8.127328279e-06)
(0.009455745929 0.001002542738 -1.596178853e-05)
(0.009767427886 0.001186896328 -3.905724022e-05)
(0.008514002008 7.394419021e-05 3.815046154e-06)
(0.00862825307 9.934915574e-05 -2.028589512e-05)
(0.008698496889 0.0001639122283 -3.408635097e-06)
(0.008555832253 0.0002144813985 1.199862914e-05)
(0.008467278358 0.000289366471 -3.469500685e-06)
(0.008750603732 0.0003622290625 -7.394407436e-05)
(0.008743529159 0.0005076885475 -6.49740636e-05)
(0.009155165542 0.0006204300912 -1.270473657e-05)
(0.009218334544 0.0007241568533 1.224638954e-05)
(0.009498164212 0.0007828533311 7.997217738e-05)
(0.008136139002 6.220445961e-05 -4.151199399e-05)
(0.007945997423 8.210852108e-05 -1.934685202e-05)
(0.007948826262 5.710834166e-05 -6.838537369e-06)
(0.008155606792 0.000141100481 -4.03772607e-05)
(0.008418712624 0.0001095407737 1.996811152e-05)
(0.008504523347 0.0002113472335 5.890629898e-05)
(0.008592689233 0.0002737360916 4.014778815e-05)
(0.00849637589 0.0003251983206 4.985714259e-05)
(0.008562554544 0.0003961434936 5.538334241e-05)
(0.008748370318 0.0006396843844 2.44403073e-05)
(0.00842863628 3.362400237e-05 -4.172714565e-05)
(0.008747931988 3.025257764e-05 -6.437492871e-05)
(0.008701550979 0.0001013503361 -7.413775616e-05)
(0.008528607454 0.0001432565902 -3.40324723e-05)
(0.008458029986 0.0001317841377 9.247216182e-06)
(0.008324730272 0.0001100140966 1.865682348e-05)
(0.008400104162 0.000221164343 2.588242129e-05)
(0.008607204026 0.0003745053651 3.698719856e-05)
(0.008687583239 0.000380009196 7.468801862e-05)
(0.008731382934 0.0003951928417 5.539944535e-05)
(0.008231892192 1.221031046e-05 -1.212697198e-05)
(0.008098736844 4.092550033e-06 4.174857359e-05)
(0.008109693762 2.717478718e-05 3.405254319e-05)
(0.008282636848 7.932134264e-05 2.709976693e-05)
(0.008299020571 0.0001167967066 1.594422387e-05)
(0.008337152127 0.0001383712433 6.739440301e-07)
(0.00850412422 9.811511536e-05 -6.717763788e-06)
(0.008582489394 0.0001398389145 -2.297859884e-05)
(0.008446531942 0.0002808954451 -6.388224116e-05)
(0.008333052132 0.0003408987773 -1.8266636e-07)
(0.008257150299 2.374553284e-05 -4.909231149e-05)
(0.008265205949 6.070864244e-05 -1.566175658e-05)
(0.008442936796 1.688207586e-05 -1.794230477e-05)
(0.008366396034 4.553902873e-05 -4.783455264e-05)
(0.008562679537 4.412961009e-05 -2.384276002e-05)
(0.00857515257 8.840865609e-05 -1.752061826e-05)
(0.008507654386 0.0001432723087 7.725648869e-06)
(0.008453250027 0.0001841186125 1.421541672e-05)
(0.008737195343 0.0002367670622 2.870049219e-05)
(0.008904586156 0.0003080037089 3.642670091e-05)
(0.008354976257 1.406698721e-05 1.651830911e-05)
(0.008549690639 -6.231368584e-06 1.120725784e-05)
(0.008513176513 6.808105551e-06 -4.547241145e-06)
(0.00859413105 2.523872353e-05 1.940476602e-05)