/*--------------------------------*- C++ -*----------------------------------*\
  =========                 |
  \\      /  F ield         | OpenFOAM: The Open Source CFD Toolbox
   \\    /   O peration     | Website:  https://openfoam.org
    \\  /    A nd           | Version:  7
     \\/     M anipulation  |
\*---------------------------------------------------------------------------*/
FoamFile
{
    version     2.0;
    format      ascii;
    class       volScalarField;
    location    "0.001";
    object      rhoNMean;
}
// * * * * * * * * * * * * * * * * * * * * * * * * * * * * * * * * * * * * * //

dimensions      [0 -3 0 0 0 0 0];

internalField   nonuniform List<scalar> 
654
(
8.054186115e+19
7.689696182e+19
7.604301398e+19
6.377532424e+19
6.331710832e+19
6.56081879e+19
5.996380094e+19
6.635799576e+19
6.854493536e+19
6.721194361e+19
6.787843948e+19
6.231736451e+19
6.717028761e+19
5.658966556e+19
5.950558503e+19
5.765189337e+19
5.442355396e+19
6.552487592e+19
6.12759647e+19
5.513170583e+19
7.825078157e+19
7.525155012e+19
6.971130315e+19
6.667041571e+19
6.531659596e+19
6.348373229e+19
6.352538829e+19
6.535825195e+19
6.085940478e+19
6.269226844e+19
5.956806902e+19
5.715202146e+19
5.625641763e+19
5.906819711e+19
5.725616144e+19
5.182005444e+19
5.679794553e+19
5.288228225e+19
5.15076345e+19
4.996636279e+19
7.293964255e+19
7.283550257e+19
6.642047975e+19
6.29005484e+19
6.415022817e+19
6.273392443e+19
5.906819711e+19
5.440272597e+19
5.708953747e+19
5.715202146e+19
5.448603795e+19
5.758940938e+19
5.561074975e+19
5.381954208e+19
5.63813856e+19
5.029961072e+19
5.494425387e+19
5.063285866e+19
4.203089625e+19
4.590490354e+19
7.623046594e+19
7.196072673e+19
6.440016412e+19
6.829499941e+19
5.700622549e+19
6.052615684e+19
5.279897026e+19
5.279897026e+19
5.53399858e+19
5.665214955e+19
5.159094649e+19
5.63813856e+19
5.413196202e+19
5.281979826e+19
5.488176988e+19
5.786017333e+19
5.088279462e+19
5.157011849e+19
4.736286327e+19
4.567579558e+19
6.754519154e+19
6.881569931e+19
6.862824734e+19
6.025539289e+19
6.285889241e+19
5.960972501e+19
5.275731427e+19
4.852923105e+19
5.390285406e+19
4.707127132e+19
4.509261168e+19
4.621732348e+19
5.354877813e+19
5.465266192e+19
4.952897487e+19
5.188253843e+19
4.861254304e+19
4.894579097e+19
4.632146346e+19
4.375961993e+19
7.066939097e+19
5.654800957e+19
5.902654112e+19
6.462927208e+19
5.825590526e+19
5.829756125e+19
5.592316969e+19
5.331967017e+19
5.636055761e+19
5.244489433e+19
5.53191578e+19
5.290311024e+19
5.429858599e+19
5.379871408e+19
4.621732348e+19
4.421783585e+19
4.307229606e+19
4.646725943e+19
3.940656873e+19
3.84901369e+19
6.102602875e+19
5.983883297e+19
5.831838925e+19
6.060946882e+19
5.209081839e+19
5.338215416e+19
5.700622549e+19
5.648552558e+19
5.931813306e+19
5.256986231e+19
5.550660976e+19
5.794348532e+19
5.194502242e+19
5.046623469e+19
4.50301277e+19
4.034382856e+19
4.440528781e+19
4.146854035e+19
4.263490814e+19
4.275987612e+19
7.10442949e+19
6.417105617e+19
5.698539749e+19
5.85683252e+19
5.715202146e+19
6.004711293e+19
5.923482108e+19
5.448603795e+19
5.321553019e+19
4.992470679e+19
5.017464275e+19
5.250737832e+19
5.294476624e+19
4.671719539e+19
4.709209932e+19
4.640477544e+19
4.417617985e+19
4.290567209e+19
4.236414419e+19
3.946905272e+19
5.836004524e+19
6.063029682e+19
5.844335722e+19
5.173674246e+19
5.592316969e+19
6.331710832e+19
5.58398577e+19
4.921655492e+19
4.992470679e+19
4.965394284e+19
4.782107918e+19
5.092445061e+19
5.354877813e+19
4.850840306e+19
4.948731887e+19
4.623815147e+19
4.188510028e+19
4.211420823e+19
4.023968858e+19
3.807357698e+19
5.940144505e+19
5.623558963e+19
5.556909375e+19
4.909158695e+19
5.159094649e+19
5.298642223e+19
5.31322182e+19
5.223661437e+19
4.98830508e+19
5.20699904e+19
4.963311485e+19
4.836260708e+19
4.625897947e+19
4.798770315e+19
4.723789529e+19
4.698795934e+19
4.192675627e+19
4.071873249e+19
4.12186044e+19
3.744873709e+19
6.156755665e+19
5.094527861e+19
5.040375071e+19
5.077865464e+19
5.092445061e+19
4.859171504e+19
5.317387419e+19
5.213247439e+19
4.55299996e+19
4.486350373e+19
4.432197583e+19
4.859171504e+19
4.405121188e+19
4.782107918e+19
4.711292731e+19
4.77377672e+19
4.323892003e+19
3.980230066e+19
4.236414419e+19
4.450942779e+19
6.02137369e+19
5.498590986e+19
5.011215876e+19
5.079948263e+19
4.71754113e+19
4.271822012e+19
5.786017333e+19
5.925564907e+19
5.040375071e+19
5.429858599e+19
5.040375071e+19
4.871668302e+19
4.342637199e+19
4.767528321e+19
4.365547995e+19
4.948731887e+19
4.165599232e+19
3.494937756e+19
4.221834821e+19
4.151019635e+19
5.979717697e+19
5.740195742e+19
5.775603335e+19
4.700878733e+19
4.571745157e+19
4.852923105e+19
4.482184773e+19
5.242406633e+19
5.267400229e+19
5.050789069e+19
5.538164179e+19
4.898744697e+19
4.01355486e+19
4.421783585e+19
3.980230066e+19
4.50092997e+19
4.157268033e+19
4.167682031e+19
4.300981207e+19
4.240580018e+19
6.12551367e+19
5.767272137e+19
4.909158695e+19
5.009133076e+19
4.669636739e+19
4.927903891e+19
4.869585502e+19
4.359299596e+19
4.755031523e+19
4.805018714e+19
4.798770315e+19
5.319470219e+19
4.723789529e+19
3.95940207e+19
4.469687976e+19
4.28223601e+19
4.051045253e+19
3.821937295e+19
4.071873249e+19
4.442611581e+19
5.777686135e+19
5.356960612e+19
5.813093728e+19
4.463439577e+19
4.567579558e+19
4.732120727e+19
4.465522377e+19
4.942483489e+19
4.353051197e+19
4.369713594e+19
4.965394284e+19
4.861254304e+19
4.49884717e+19
3.530345349e+19
3.899000881e+19
4.188510028e+19
4.588407554e+19
3.869841686e+19
4.686299136e+19
4.107280843e+19
5.931813306e+19
5.461100593e+19
4.76961112e+19
4.696713134e+19
4.517592367e+19
4.280153211e+19
4.473853575e+19
5.040375071e+19
4.66130554e+19
4.580076355e+19
3.990644064e+19
4.761279922e+19
4.671719539e+19
4.780025119e+19
4.053128053e+19
3.928160076e+19
4.053128053e+19
4.215586423e+19
4.434280382e+19
4.144771236e+19
5.58398577e+19
4.727955128e+19
5.004967477e+19
5.132018254e+19
4.796687515e+19
4.652974342e+19
4.159350833e+19
4.3384716e+19
4.194758426e+19
4.280153211e+19
4.194758426e+19
4.82792951e+19
4.761279922e+19
4.480101974e+19
4.036465656e+19
4.001058062e+19
4.142688436e+19
4.777942319e+19
4.3384716e+19
4.171847631e+19
5.923482108e+19
5.736030142e+19
5.159094649e+19
5.173674246e+19
4.727955128e+19
4.638394745e+19
3.874007286e+19
4.473853575e+19
4.600904352e+19
4.973725483e+19
4.430114783e+19
4.590490354e+19
5.04454067e+19
4.328057602e+19
4.057293652e+19
4.398872789e+19
4.294732808e+19
4.126026039e+19
4.169764831e+19
4.371796394e+19
5.821424927e+19
5.404865003e+19
5.136183853e+19
5.300725023e+19
4.417617985e+19
4.436363182e+19
5.04245787e+19
4.925821092e+19
4.646725943e+19
4.528006365e+19
5.023712674e+19
4.484267573e+19
4.450942779e+19
4.317643604e+19
4.057293652e+19
4.39262439e+19
4.3384716e+19
3.940656873e+19
3.95731927e+19
4.134357238e+19
5.85474972e+19
5.165343048e+19
4.55508276e+19
4.805018714e+19
4.613401149e+19
4.775859519e+19
5.075782664e+19
4.765445521e+19
5.025795473e+19
4.213503623e+19
4.384293192e+19
4.830012309e+19
4.484267573e+19
3.95731927e+19
3.948988072e+19
3.705300517e+19
4.492598772e+19
4.342637199e+19
4.053128053e+19
4.01355486e+19
5.400699404e+19
5.31530462e+19
5.123687055e+19
4.561331159e+19
4.894579097e+19
4.638394745e+19
4.817515512e+19
4.536337563e+19
5.027878273e+19
4.382210392e+19
4.396789989e+19
4.838343508e+19
4.850840306e+19
4.3363888e+19
4.078121648e+19
3.757370507e+19
4.49884717e+19
4.246828417e+19
3.996892463e+19
4.040631255e+19
5.267400229e+19
5.123687055e+19
5.148680651e+19
4.590490354e+19
5.427775799e+19
4.469687976e+19
4.615483949e+19
4.615483949e+19
4.403038388e+19
4.096866845e+19
4.471770775e+19
4.165599232e+19
4.467605176e+19
4.455108378e+19
4.078121648e+19
3.894835282e+19
3.996892463e+19
4.350968398e+19
4.12186044e+19
3.853179289e+19
4.048689811e+19
3.659826531e+19
4.231901525e+19
4.690320992e+19
5.14228421e+19
5.100736262e+19
5.076032513e+19
5.156340243e+19
5.602619695e+19
5.380592593e+19
4.38939009e+19
3.750322529e+19
4.164089385e+19
4.054417601e+19
4.716804782e+19
5.01633715e+19
4.415647007e+19
4.796340331e+19
4.753603924e+19
5.251422738e+19
4.096764083e+19
3.866073223e+19
4.238258913e+19
4.193121361e+19
4.244049864e+19
4.542403654e+19
4.376416181e+19
4.392437987e+19
4.48165356e+19
5.204654342e+19
4.247257457e+19
3.8723869e+19
4.416265791e+19
3.648975839e+19
4.211816568e+19
4.689561086e+19
4.46359579e+19
4.199267301e+19
4.49713041e+19
4.85277784e+19
4.234716343e+19
3.69349946e+19
3.875887779e+19
4.028810756e+19
3.956099139e+19
3.873702976e+19
4.051672155e+19
4.317803859e+19
4.585569556e+19
4.552123869e+19
3.952541266e+19
3.863968665e+19
3.903436459e+19
3.841027199e+19
3.732614989e+19
3.862882571e+19
3.90346682e+19
4.276096545e+19
4.342361907e+19
4.035444448e+19
4.328774702e+19
3.403070442e+19
3.471134052e+19
3.813286452e+19
3.59508629e+19
4.055485686e+19
3.796671809e+19
3.828291779e+19
3.873634454e+19
4.20915563e+19
3.565856901e+19
3.592480673e+19
3.632187891e+19
3.655377551e+19
3.287795586e+19
3.215822692e+19
3.463209819e+19
3.635121093e+19
3.981972404e+19
3.63457248e+19
3.444626127e+19
3.682976669e+19
3.555899228e+19
4.022409041e+19
3.743359424e+19
3.354323804e+19
3.820646198e+19
3.744877165e+19
3.798461182e+19
3.988676049e+19
3.854302538e+19
4.087051826e+19
3.339748026e+19
3.523075505e+19
3.758401624e+19
3.657294989e+19
3.933979688e+19
4.177316087e+19
3.889111304e+19
4.255924026e+19
3.850122164e+19
3.834504852e+19
3.568614005e+19
3.698055633e+19
3.9002281e+19
4.003547766e+19
4.210774931e+19
3.808535684e+19
3.858157604e+19
3.895139257e+19
4.351766745e+19
4.074424478e+19
3.79324173e+19
3.870901855e+19
3.876590354e+19
3.865046657e+19
3.853338566e+19
3.841462532e+19
4.041668845e+19
3.781558883e+19
4.207543928e+19
3.906059838e+19
3.490206229e+19
3.894374801e+19
4.514809479e+19
3.663787221e+19
3.979748972e+19
3.883169782e+19
3.811727038e+19
3.839462596e+19
4.358037288e+19
4.057587986e+19
3.765693019e+19
3.636172405e+19
3.870143699e+19
3.836913608e+19
4.01244131e+19
3.920486874e+19
3.763085509e+19
4.088894011e+19
4.134387449e+19
4.141770345e+19
4.189518936e+19
3.789813518e+19
3.95395028e+19
3.871538912e+19
3.986287456e+19
3.955608845e+19
3.847102722e+19
4.093348173e+19
3.772785286e+19
3.746113422e+19
4.64725093e+19
4.246468976e+19
3.900228103e+19
3.884523392e+19
3.646286995e+19
3.709755191e+19
3.559675482e+19
3.514310891e+19
4.044509434e+19
3.813459256e+19
4.117468506e+19
3.642574117e+19
3.799230461e+19
3.384620915e+19
4.106159414e+19
4.293657547e+19
3.670224436e+19
3.538808622e+19
3.816679186e+19
4.291193971e+19
4.202233741e+19
4.0074717e+19
4.039905666e+19
3.823929128e+19
3.940518136e+19
4.001706367e+19
4.138951894e+19
3.7926942e+19
4.623490918e+19
4.063901695e+19
4.130183311e+19
3.832491598e+19
3.846505953e+19
4.020860396e+19
3.816287226e+19
3.786584467e+19
4.0836774e+19
3.957497147e+19
4.017337019e+19
4.249102808e+19
4.183161547e+19
3.732198084e+19
4.179583284e+19
4.070634262e+19
4.234749332e+19
4.028047824e+19
4.17653853e+19
4.162387234e+19
4.220085037e+19
3.33572457e+19
3.746620879e+19
3.836759406e+19
3.861548155e+19
3.63998234e+19
3.763979463e+19
3.78219425e+19
4.218547122e+19
3.98199485e+19
4.084222963e+19
3.969196554e+19
4.181042418e+19
4.278477536e+19
)
;

boundaryField
{
    flow
    {
        type            calculated;
        value           nonuniform List<scalar> 
42
(
8.054186115e+19
7.825078157e+19
7.293964255e+19
7.623046594e+19
6.754519154e+19
7.066939097e+19
6.102602875e+19
7.10442949e+19
5.836004524e+19
5.940144505e+19
6.156755665e+19
6.02137369e+19
5.979717697e+19
6.12551367e+19
5.777686135e+19
5.931813306e+19
5.58398577e+19
5.923482108e+19
5.821424927e+19
5.85474972e+19
5.400699404e+19
5.267400229e+19
8.054186115e+19
7.689696182e+19
7.604301398e+19
6.377532424e+19
6.331710832e+19
6.56081879e+19
5.996380094e+19
6.635799576e+19
6.854493536e+19
6.721194361e+19
6.787843948e+19
6.231736451e+19
6.717028761e+19
5.658966556e+19
5.950558503e+19
5.765189337e+19
5.442355396e+19
6.552487592e+19
6.12759647e+19
5.513170583e+19
)
;
    }
    obstacle
    {
        type            calculated;
        value           nonuniform List<scalar> 10(17.87846433 15.80642837 19.18982231 22.13824323 23.4465845 20.23324458 22.68752193 19.57167048 25.33894245 22.50843164);
    }
    frontAndBack
    {
        type            empty;
    }
    procBoundary0to1
    {
        type            processor;
        value           nonuniform List<scalar> 
21
(
5.62642265e+19
5.626422654e+19
5.20690868e+19
5.191204949e+19
4.518187885e+19
3.885551851e+19
4.331986498e+19
3.901255577e+19
4.554082132e+19
4.455372959e+19
3.997721356e+19
3.741974886e+19
4.069509831e+19
4.27590173e+19
4.141298348e+19
3.706080618e+19
3.753191812e+19
4.020155276e+19
3.928176277e+19
3.688133497e+19
3.921446106e+19
)
;
    }
    procBoundary0to2
    {
        type            processor;
        value           nonuniform List<scalar> 
31
(
5.050789069e+19
4.965394284e+19
4.505095569e+19
4.813349912e+19
4.727955128e+19
4.596738752e+19
4.819598311e+19
4.657139941e+19
4.50301277e+19
4.021886058e+19
4.296815608e+19
4.71962393e+19
4.571745157e+19
4.407203987e+19
4.748783124e+19
4.194758426e+19
3.901083681e+19
3.976064467e+19
4.66130554e+19
4.192675627e+19
3.848654839e+19
3.704904736e+19
3.853338531e+19
4.388047738e+19
4.306986265e+19
4.204701497e+19
3.852212344e+19
3.853445885e+19
4.13442157e+19
3.848654839e+19
4.40864565e+19
)
;
    }
}


// ************************************************************************* //
