/*--------------------------------*- C++ -*----------------------------------*\
  =========                 |
  \\      /  F ield         | OpenFOAM: The Open Source CFD Toolbox
   \\    /   O peration     | Website:  https://openfoam.org
    \\  /    A nd           | Version:  7
     \\/     M anipulation  |
\*---------------------------------------------------------------------------*/
FoamFile
{
    version     2.0;
    format      ascii;
    class       volScalarField;
    location    "0.001";
    object      rhoN;
}
// * * * * * * * * * * * * * * * * * * * * * * * * * * * * * * * * * * * * * //

dimensions      [0 -3 0 0 0 0 0];

internalField   nonuniform List<scalar> 
654
(
5.20699904e+19
1.24967977e+20
9.372598272e+19
9.372598272e+19
1.041399808e+20
6.248398848e+19
1.457959731e+20
1.770379674e+20
8.331198464e+19
8.331198464e+19
1.24967977e+20
9.372598272e+19
1.35381975e+20
1.041399808e+20
6.248398848e+19
8.331198464e+19
6.248398848e+19
9.372598272e+19
1.978659635e+20
1.770379674e+20
1.145539789e+20
9.372598272e+19
7.289798656e+19
8.331198464e+19
4.165599232e+19
6.248398848e+19
1.562099712e+20
1.041399808e+20
1.457959731e+20
1.24967977e+20
8.331198464e+19
1.145539789e+20
9.372598272e+19
8.331198464e+19
6.248398848e+19
5.20699904e+19
1.770379674e+20
8.331198464e+19
1.041399808e+20
1.874519654e+20
5.20699904e+19
1.145539789e+20
1.041399808e+20
1.041399808e+20
1.457959731e+20
1.666239693e+20
7.289798656e+19
9.372598272e+19
9.372598272e+19
5.20699904e+19
1.041399808e+20
1.24967977e+20
8.331198464e+19
9.372598272e+19
1.041399808e+20
1.562099712e+20
1.041399808e+20
9.372598272e+19
1.770379674e+20
1.666239693e+20
7.289798656e+19
6.248398848e+19
1.041399808e+20
1.041399808e+20
1.145539789e+20
7.289798656e+19
1.041399808e+20
1.457959731e+20
4.165599232e+19
1.35381975e+20
1.041399808e+20
7.289798656e+19
4.165599232e+19
8.331198464e+19
9.372598272e+19
1.041399808e+20
1.35381975e+20
1.145539789e+20
1.457959731e+20
1.24967977e+20
7.289798656e+19
1.145539789e+20
1.145539789e+20
1.35381975e+20
1.041399808e+20
8.331198464e+19
8.331198464e+19
6.248398848e+19
1.562099712e+20
8.331198464e+19
7.289798656e+19
1.041399808e+20
5.20699904e+19
9.372598272e+19
9.372598272e+19
1.145539789e+20
1.24967977e+20
9.372598272e+19
1.041399808e+20
9.372598272e+19
8.331198464e+19
8.331198464e+19
1.041399808e+20
9.372598272e+19
1.24967977e+20
8.331198464e+19
9.372598272e+19
9.372598272e+19
1.145539789e+20
1.041399808e+20
1.35381975e+20
7.289798656e+19
9.372598272e+19
8.331198464e+19
7.289798656e+19
1.041399808e+20
8.331198464e+19
9.372598272e+19
1.041399808e+20
1.562099712e+20
6.248398848e+19
9.372598272e+19
1.145539789e+20
8.331198464e+19
4.165599232e+19
7.289798656e+19
8.331198464e+19
8.331198464e+19
5.20699904e+19
1.24967977e+20
9.372598272e+19
9.372598272e+19
1.24967977e+20
1.041399808e+20
7.289798656e+19
6.248398848e+19
1.041399808e+20
1.24967977e+20
1.24967977e+20
1.562099712e+20
9.372598272e+19
1.041399808e+20
1.145539789e+20
9.372598272e+19
9.372598272e+19
1.041399808e+20
1.145539789e+20
7.289798656e+19
1.24967977e+20
7.289798656e+19
1.562099712e+20
9.372598272e+19
1.145539789e+20
5.20699904e+19
8.331198464e+19
1.145539789e+20
1.666239693e+20
8.331198464e+19
1.24967977e+20
1.457959731e+20
8.331198464e+19
8.331198464e+19
9.372598272e+19
1.145539789e+20
9.372598272e+19
5.20699904e+19
1.35381975e+20
9.372598272e+19
4.165599232e+19
1.24967977e+20
1.24967977e+20
8.331198464e+19
9.372598272e+19
1.457959731e+20
1.145539789e+20
7.289798656e+19
5.20699904e+19
1.24967977e+20
1.35381975e+20
1.041399808e+20
9.372598272e+19
8.331198464e+19
1.24967977e+20
1.145539789e+20
9.372598272e+19
1.457959731e+20
4.165599232e+19
9.372598272e+19
1.041399808e+20
1.041399808e+20
1.24967977e+20
1.24967977e+20
5.20699904e+19
1.24967977e+20
1.145539789e+20
4.165599232e+19
1.041399808e+20
3.124199424e+19
1.145539789e+20
8.331198464e+19
7.289798656e+19
1.145539789e+20
9.372598272e+19
6.248398848e+19
1.041399808e+20
6.248398848e+19
1.041399808e+20
1.35381975e+20
1.145539789e+20
1.145539789e+20
1.24967977e+20
1.457959731e+20
1.24967977e+20
5.20699904e+19
1.457959731e+20
9.372598272e+19
1.145539789e+20
1.145539789e+20
7.289798656e+19
9.372598272e+19
7.289798656e+19
1.24967977e+20
9.372598272e+19
7.289798656e+19
1.041399808e+20
1.145539789e+20
7.289798656e+19
1.562099712e+20
1.24967977e+20
9.372598272e+19
7.289798656e+19
1.562099712e+20
1.145539789e+20
1.041399808e+20
8.331198464e+19
7.289798656e+19
9.372598272e+19
6.248398848e+19
7.289798656e+19
7.289798656e+19
7.289798656e+19
1.24967977e+20
8.331198464e+19
1.24967977e+20
1.24967977e+20
1.24967977e+20
1.041399808e+20
8.331198464e+19
9.372598272e+19
8.331198464e+19
1.35381975e+20
7.289798656e+19
7.289798656e+19
1.35381975e+20
5.20699904e+19
1.041399808e+20
1.145539789e+20
9.372598272e+19
3.124199424e+19
1.562099712e+20
6.248398848e+19
1.145539789e+20
1.35381975e+20
1.041399808e+20
1.145539789e+20
5.20699904e+19
1.24967977e+20
6.248398848e+19
1.770379674e+20
1.041399808e+20
1.35381975e+20
1.145539789e+20
1.666239693e+20
1.145539789e+20
7.289798656e+19
5.20699904e+19
1.562099712e+20
1.145539789e+20
1.35381975e+20
7.289798656e+19
6.248398848e+19
1.041399808e+20
7.289798656e+19
6.248398848e+19
1.24967977e+20
7.289798656e+19
1.457959731e+20
5.20699904e+19
8.331198464e+19
5.20699904e+19
9.372598272e+19
9.372598272e+19
1.041399808e+20
1.145539789e+20
7.289798656e+19
1.24967977e+20
9.372598272e+19
1.145539789e+20
1.770379674e+20
6.248398848e+19
1.24967977e+20
6.248398848e+19
1.041399808e+20
1.041399808e+20
1.24967977e+20
1.24967977e+20
8.331198464e+19
8.331198464e+19
1.562099712e+20
9.372598272e+19
1.457959731e+20
7.289798656e+19
1.041399808e+20
1.35381975e+20
7.289798656e+19
2.082799616e+19
9.372598272e+19
1.041399808e+20
1.24967977e+20
1.041399808e+20
9.372598272e+19
4.165599232e+19
8.331198464e+19
8.331198464e+19
1.666239693e+20
8.331198464e+19
1.35381975e+20
1.145539789e+20
9.372598272e+19
9.372598272e+19
1.24967977e+20
9.372598272e+19
6.248398848e+19
7.289798656e+19
1.35381975e+20
9.372598272e+19
1.041399808e+20
7.289798656e+19
1.457959731e+20
7.289798656e+19
7.289798656e+19
1.24967977e+20
1.041399808e+20
1.041399808e+20
7.289798656e+19
7.289798656e+19
7.289798656e+19
8.331198464e+19
1.35381975e+20
8.331198464e+19
1.666239693e+20
1.562099712e+20
1.457959731e+20
1.041399808e+20
7.289798656e+19
8.331198464e+19
1.562099712e+20
1.145539789e+20
1.35381975e+20
5.20699904e+19
4.165599232e+19
1.145539789e+20
1.145539789e+20
5.20699904e+19
1.041399808e+20
1.041399808e+20
7.289798656e+19
6.248398848e+19
8.331198464e+19
1.041399808e+20
3.124199424e+19
1.145539789e+20
7.289798656e+19
7.289798656e+19
6.248398848e+19
1.457959731e+20
7.289798656e+19
1.35381975e+20
9.372598272e+19
1.041399808e+20
7.289798656e+19
1.24967977e+20
1.145539789e+20
1.562099712e+20
1.24967977e+20
8.331198464e+19
1.145539789e+20
7.289798656e+19
1.457959731e+20
8.331198464e+19
1.457959731e+20
1.145539789e+20
8.331198464e+19
1.978659635e+20
5.20699904e+19
9.372598272e+19
5.20699904e+19
1.35381975e+20
7.289798656e+19
6.248398848e+19
8.331198464e+19
8.331198464e+19
9.372598272e+19
8.331198464e+19
1.041399808e+20
1.145539789e+20
3.124199424e+19
9.372598272e+19
1.24967977e+20
1.041399808e+20
6.248398848e+19
5.20699904e+19
9.372598272e+19
1.041399808e+20
1.35381975e+20
1.457959731e+20
1.145539789e+20
1.041399808e+20
4.165599232e+19
9.372598272e+19
7.289798656e+19
1.041399808e+20
1.145539789e+20
4.165599232e+19
9.372598272e+19
1.041399808e+20
1.145539789e+20
7.289798656e+19
1.145539789e+20
1.562099712e+20
1.041399808e+20
6.248398848e+19
1.041399808e+20
1.562099712e+20
5.20699904e+19
1.457959731e+20
8.331198464e+19
1.35381975e+20
1.24967977e+20
1.24967977e+20
1.881167181e+20
3.788204575e+20
2.754868294e+20
1.8138184e+20
3.438217608e+20
2.488691854e+20
3.923082234e+20
3.402438219e+20
2.984821069e+20
2.783833088e+20
1.881167182e+20
1.999330192e+20
1.271477675e+20
2.667380001e+20
2.148886006e+20
3.4625278e+20
2.724362665e+20
2.853657863e+20
2.653174283e+20
2.115713147e+20
1.045092878e+20
2.104558097e+20
1.907216511e+20
2.347294401e+20
2.471218908e+20
1.947671886e+20
1.634617598e+20
2.63414572e+20
2.87427214e+20
2.338419794e+20
1.672148605e+20
5.261395245e+19
1.483390621e+20
1.707123199e+20
1.611664503e+20
1.731263899e+20
2.397439145e+20
3.182926078e+20
3.979761425e+20
1.781653177e+20
1.567639317e+20
1.157506953e+20
1.377434148e+20
1.493732801e+20
1.074443004e+20
1.406651919e+20
1.961541118e+20
1.31707286e+20
1.989880714e+20
2.561126443e+20
1.46313003e+20
8.418232386e+19
1.059564728e+20
1.2803424e+20
1.719108803e+20
1.298447923e+20
1.198719571e+20
1.756097144e+20
1.437136069e+20
2.227066472e+20
1.358620742e+20
1.052279048e+20
4.238258916e+19
1.280342401e+20
1.611664505e+20
1.623059906e+20
1.307694079e+20
1.97560929e+20
1.768782856e+20
1.670299853e+20
1.149602166e+20
8.418232392e+19
1.271477675e+20
1.2803424e+20
1.719108803e+20
1.19024393e+20
1.416668586e+20
1.646341075e+20
1.105489285e+20
1.447593206e+20
9.405835905e+19
1.473190668e+20
1.059564728e+20
8.535616003e+19
9.669987032e+19
2.05587588e+20
1.416668585e+20
1.536585003e+20
1.879331784e+20
1.670299853e+20
5.225464395e+19
1.157506954e+20
9.536082561e+19
6.401712002e+19
2.041441705e+20
1.406651919e+20
9.807705592e+19
8.780485732e+19
1.326587142e+20
1.336239882e+20
1.358620742e+20
4.209116193e+19
1.059564728e+20
8.535616003e+19
9.669987025e+19
4.328159747e+19
1.198719572e+20
8.780485726e+19
1.216038213e+20
1.670299853e+20
1.358620742e+20
1.367962764e+20
1.165521202e+20
7.468663997e+19
2.256330306e+20
8.6563195e+19
1.08974507e+20
1.207316796e+20
1.547685006e+20
1.224886564e+20
6.27055727e+19
1.262734861e+20
9.536082593e+19
1.066952e+20
8.595543987e+19
1.190243929e+20
1.416668583e+20
1.317072849e+20
7.73842496e+19
5.567666177e+19
4.180371499e+19
5.26139521e+19
7.416953048e+19
8.535615974e+19
1.074443004e+20
1.190243928e+20
9.807705538e+19
1.097560715e+20
8.84391424e+19
7.794732592e+19
8.360743071e+19
6.313674307e+19
7.416953098e+19
1.066952004e+20
1.074443011e+20
1.082039942e+20
1.743592108e+20
1.536585012e+20
6.632935727e+19
1.224886559e+20
7.315650138e+19
5.261395256e+19
1.059564735e+20
1.600428006e+20
1.181887304e+20
1.29844793e+20
1.198719574e+20
1.097560707e+20
1.326587136e+20
1.447593206e+20
1.149602165e+20
1.157506948e+20
5.297823606e+19
1.173647196e+20
6.446658021e+19
1.298447921e+20
8.717960539e+19
9.878046504e+19
1.216038217e+20
1.113533235e+20
3.135278631e+19
1.367962766e+20
1.48339063e+20
1.493732795e+20
1.074442996e+20
1.190243928e+20
1.416668578e+20
1.097560715e+20
6.632935727e+19
1.113533235e+20
1.045092884e+20
1.578418577e+20
1.059564728e+20
7.468664028e+19
9.669987032e+19
5.410199672e+19
8.717960539e+19
9.878046435e+19
1.10548928e+20
1.113533243e+20
1.254111452e+20
7.365953358e+19
7.416953098e+19
1.066951997e+20
1.074443004e+20
5.41019971e+19
8.717960539e+19
7.682925005e+19
8.843914303e+19
1.113533235e+20
1.672148603e+20
9.470511396e+19
1.059564728e+20
8.535616032e+19
1.181887304e+20
9.73835941e+19
1.307694081e+20
8.780485781e+19
2.210978576e+20
1.55894653e+20
6.270557261e+19
1.262734853e+20
6.35738837e+19
4.267808016e+19
)
;

boundaryField
{
    flow
    {
        type            zeroGradient;
    }
    obstacle
    {
        type            calculated;
        value           nonuniform List<scalar> 10(109.3953481 192.7201172 274.2712031 254.4465266 282.7082443 241.5414766 2.225073859e-308 2.225073859e-308 2.225073859e-308 150.0041196);
    }
    frontAndBack
    {
        type            empty;
    }
    procBoundary0to1
    {
        type            processor;
        value           nonuniform List<scalar> 
21
(
2.131220701e+20
3.028576787e+20
2.243390211e+20
2.355559722e+20
2.692068253e+20
2.916407279e+20
2.01905119e+20
1.233864616e+20
3.028576787e+20
1.233864616e+20
1.458203637e+20
1.009525599e+20
2.019051184e+20
8.973560819e+19
7.851865773e+19
6.730170614e+19
8.973560819e+19
7.851865773e+19
1.233864621e+20
6.730170614e+19
8.973560883e+19
)
;
    }
    procBoundary0to2
    {
        type            processor;
        value           nonuniform List<scalar> 
31
(
7.289798656e+19
9.372598272e+19
1.041399808e+20
1.666239693e+20
1.041399808e+20
1.041399808e+20
1.24967977e+20
1.041399808e+20
1.041399808e+20
5.20699904e+19
9.372598272e+19
9.372598272e+19
7.289798656e+19
8.331198464e+19
1.457959731e+20
9.372598272e+19
7.289798656e+19
2.082799616e+19
1.24967977e+20
1.35381975e+20
1.181887304e+20
6.492239607e+19
6.538470358e+19
9.878046435e+19
8.843914303e+19
1.336239882e+20
1.35862074e+20
1.157506956e+20
1.059564728e+20
1.181887304e+20
8.535615974e+19
)
;
    }
}


// ************************************************************************* //
