/*--------------------------------*- C++ -*----------------------------------*\
  =========                 |
  \\      /  F ield         | OpenFOAM: The Open Source CFD Toolbox
   \\    /   O peration     | Website:  https://openfoam.org
    \\  /    A nd           | Version:  7
     \\/     M anipulation  |
\*---------------------------------------------------------------------------*/
FoamFile
{
    version     2.0;
    format      ascii;
    class       volScalarField;
    location    "0.001";
    object      translationalT;
}
// * * * * * * * * * * * * * * * * * * * * * * * * * * * * * * * * * * * * * //

dimensions      [1 2 -2 0 0 0 0];

internalField   nonuniform List<scalar> 
654
(
284.0412554
301.753142
295.130955
290.5826046
291.9719099
295.4063931
299.987941
300.4544075
294.0778487
295.8979184
304.346813
292.8995471
298.3702017
307.3192457
307.4394896
312.6645224
339.0426137
417.8201252
670.1128107
1312.976337
288.7812
303.6253176
296.2694475
303.8271838
310.3721049
308.390804
302.3156087
300.1374406
303.2080189
302.9105394
301.666521
309.5925173
304.6234353
311.3745776
320.4486598
361.5652798
386.5850337
468.8657449
672.7607261
1167.137498
293.3709231
320.7165492
310.2036944
309.7392678
303.4097502
300.1323831
300.874493
302.3209697
297.4788884
298.7091438
299.8697018
294.8417727
299.9846469
309.720993
318.8061477
335.6830897
370.3874381
483.0748739
682.0935011
887.0460945
287.1271935
299.526142
296.2588237
296.1110398
292.2351632
292.8677045
290.1286811
292.4240506
297.5759214
301.9486363
307.697109
308.1647031
310.1414216
314.4086058
302.3437446
336.2270507
386.0954301
455.8438459
544.7392793
742.1508554
293.7060632
305.7201611
296.549471
295.4701744
298.1884841
295.0126194
297.9930481
303.4455743
294.6837563
290.6145728
287.2109042
289.8392964
301.5381612
313.1551032
321.9154142
347.8085585
392.3031878
435.7418965
481.7732133
622.7201001
291.8291009
310.0622832
305.5379768
304.9249293
307.7820677
302.9914228
305.3949056
302.8832215
303.8244451
304.0982056
304.116204
294.3778865
298.6683724
321.1783826
321.0726505
333.1852519
346.8502521
394.1747052
405.6967661
531.3725591
286.0021452
301.9431204
297.8561151
299.9444501
300.8305219
299.7622992
297.8803351
299.3340279
299.9805218
297.9307194
304.7811284
307.3331934
311.8140904
332.6643956
321.0864792
355.90096
359.4330138
366.7929497
363.7677704
428.9170348
293.2603878
314.1786406
298.7162291
294.4978051
301.09766
299.6522936
300.0342766
295.7758234
291.2994042
293.0507237
290.4447126
292.4582495
297.814652
305.596408
306.6582706
318.6190908
319.3184731
320.4271359
349.9328641
403.2358147
286.8032174
301.1950436
290.5726007
294.384757
291.4392999
291.4971172
289.6839973
290.3748725
296.2334492
299.5901701
293.9263724
301.944672
307.9163111
307.5408835
317.738687
322.4905381
323.4153911
317.678499
333.0350584
358.1243777
280.7672487
300.0351475
293.8310938
295.7375975
293.4054627
295.2660622
295.5789821
299.4677388
293.9984038
301.4011652
297.2837354
303.9347419
301.2565184
294.2229402
289.8276278
288.2399447
296.9993102
309.9008838
324.6078541
339.2236043
286.8135725
301.477515
299.6037455
304.0316135
303.0640258
303.1309747
299.5766542
300.7883877
307.0322753
310.1627595
305.0312279
298.9820945
294.0952389
293.2988309
299.4875907
307.6404593
297.1557008
304.1570112
314.7809634
335.219982
296.540187
313.4441712
306.7054523
306.4184913
304.8409142
306.0198623
305.2508659
307.3981801
303.8785372
296.5869609
300.0489103
299.1104206
310.5075969
307.7465671
300.3951414
303.7615576
304.0754208
310.5762934
320.9894445
339.8457404
292.079333
309.6486355
301.7179754
301.8066329
302.0899887
301.8627913
301.6957495
299.7434852
293.3982592
297.2459084
297.6125493
295.1720036
287.8214499
290.4336706
298.4821267
294.2960062
292.4312893
300.7796161
305.0872327
310.4712745
288.7622804
301.9958029
292.4330991
302.2905236
296.5880185
294.2084526
291.5218215
294.9459979
297.2605801
299.8826021
298.0576353
297.0947667
297.7171076
295.4426849
301.2095455
302.2983354
303.6236951
314.2963402
323.3870789
325.0770325
283.0893192
302.8212745
303.4806333
297.3813959
296.2866826
299.2756261
299.6451061
300.9061497
296.9756867
293.9109859
289.9275955
298.6135373
300.1323854
306.717413
306.3971977
297.9866808
300.1006586
298.9399664
305.9459055
317.5070415
290.5546841
305.8793428
290.3986161
293.007327
298.7569464
295.9356767
295.1536667
297.329389
294.6690163
293.755626
299.5980206
293.3675394
297.1915505
293.9106374
297.8630302
299.6593861
300.895975
309.8358411
319.5009143
303.3317688
297.6449741
309.0658286
305.4030737
303.8653631
304.3674449
300.6627151
307.9015198
308.9714206
312.9759444
310.5662377
304.5748078
308.3617046
300.1207674
300.3932695
307.4624839
303.0940408
308.1826748
301.2926582
310.6513332
320.1021765
284.1323758
303.5608335
297.9544198
299.2007892
300.6304184
299.5822428
296.2832753
299.2269244
298.5469913
301.5915517
305.5672569
306.9650422
308.0016863
300.9585678
302.1930302
295.9727505
295.9326703
301.0418725
299.9440085
300.4625491
287.9613763
305.4335351
298.2163435
296.2736778
294.1119522
293.4863398
290.645159
290.6736742
290.3341546
288.1848139
293.4972187
292.930955
300.0203289
307.9842385
308.0711219
302.9685092
302.3880882
298.2564507
302.4006429
306.2731076
289.6691353
304.2219388
301.1047613
296.6387855
295.1696904
294.0518385
293.2522164
293.6360209
297.6686664
301.0945485
297.1254099
299.164063
297.0029591
298.9553048
295.69457
300.5445356
299.0788441
302.3647766
304.0259595
304.528752
290.0718787
307.459774
298.2680873
299.2461454
301.4420509
304.6330862
303.4376081
304.9938466
303.3519833
304.2636613
305.583268
302.7990453
300.2651169
295.7872729
290.2682779
295.1360536
297.5491931
301.0123085
297.9742944
292.3348254
292.6510617
308.7285846
302.2970472
302.38754
305.145949
307.7413929
304.8363077
302.9644998
305.8987055
303.2828725
299.3053265
294.5813917
296.2404351
296.5151811
295.7249738
295.690884
295.9715619
297.6629466
298.1284611
298.7502246
1403.891464
1288.493656
1194.896537
1160.398335
1097.243526
1057.72954
1040.559401
1015.877214
991.2269426
985.7804728
1347.761573
1312.2927
1238.522036
1186.862238
1161.023701
1159.432604
1099.213603
1082.81924
1103.198906
1054.603228
1171.178905
1201.349411
1178.421024
1177.261231
1133.750609
1116.574747
1098.997431
1088.196765
1073.426452
1069.435266
960.0828378
988.9056119
1057.1775
1096.618136
1091.941155
1086.812971
1088.585056
1060.351401
1043.184037
1042.947105
803.8785222
835.6037777
974.1733455
969.3101077
974.0977219
1012.954849
1016.181873
1011.267498
986.0053467
981.2753689
568.8934503
664.5125085
781.9520333
879.1940058
883.1927799
925.4108386
985.5329227
961.0283045
950.5384517
946.8180499
488.4144354
589.7332974
630.7415827
755.3115207
793.6187338
788.8208267
867.3351832
901.2258537
899.4397534
906.0047455
460.6556421
499.8771855
575.5152466
590.8530566
671.8410529
748.7542757
767.8164675
817.0456758
861.0945057
904.0904325
417.5209243
479.2935574
533.0274423
507.0152591
550.5905497
644.8217132
655.9390698
705.2928281
771.122073
799.2584258
375.3367137
378.2322519
437.5914819
473.4430252
491.283818
527.6933362
601.8315562
606.6364906
666.6303451
710.6890802
341.5517587
359.2451456
405.1731947
425.3447301
460.1494466
474.9282625
532.9500913
559.4018264
623.1466365
618.4230734
348.840704
345.111901
358.2656301
415.1591649
405.590335
458.9037837
514.0299319
532.4519868
555.0651009
591.4719095
333.5431064
331.1552883
343.0547903
377.2984801
375.0353
387.4535195
434.7632337
492.4820869
514.7808797
501.4115576
316.3089555
325.682616
329.6864825
374.7152072
365.0761874
379.9956178
382.9374212
404.8556974
460.2081639
462.0160857
302.2756456
320.3846571
321.4463491
328.375017
345.2849365
367.4016596
379.2673814
365.8887881
386.7972209
418.9678691
304.5828977
309.8966116
315.4401602
310.8822824
344.4589576
339.7514591
343.0197013
341.5630955
361.1207445
377.058478
321.2221435
321.1965888
323.8243663
323.4411253
338.0238528
352.9095647
340.8390512
345.4100723
366.6044532
393.3186213
299.4553514
310.9375773
313.5692782
315.2671178
338.8065889
330.0773799
338.0782671
330.7523407
347.8207411
353.4963543
314.5389072
312.6519857
312.8607582
306.7798513
323.6634267
318.6048226
324.0067318
325.6232575
329.1689408
325.2539005
302.6210266
299.0444327
307.5802854
309.8494202
314.5978616
309.7630658
308.9088719
320.1229098
318.9242113
321.1350496
294.6378038
293.2605165
303.2126834
312.3375052
311.462117
298.2402365
308.710789
322.5873627
324.1383329
327.2953207
309.0217664
304.7363288
308.7603351
303.8923515
)
;

boundaryField
{
    flow
    {
        type            calculated;
        value           nonuniform List<scalar> 
42
(
284.0412554
288.7812
293.3709231
287.1271935
293.7060632
291.8291009
286.0021452
293.2603878
286.8032174
280.7672487
286.8135725
296.540187
292.079333
288.7622804
283.0893192
290.5546841
297.6449741
284.1323758
287.9613763
289.6691353
290.0718787
292.6510617
284.0412554
301.753142
295.130955
290.5826046
291.9719099
295.4063931
299.987941
300.4544075
294.0778487
295.8979184
304.346813
292.8995471
298.3702017
307.3192457
307.4394896
312.6645224
339.0426137
417.8201252
670.1128107
1312.976337
)
;
    }
    obstacle
    {
        type            calculated;
        value           nonuniform List<scalar> 10(1184.303745 1093.50518 1044.549902 965.2151599 965.0020491 913.1534428 966.3672464 816.5464496 919.1903473 818.6707095);
    }
    frontAndBack
    {
        type            empty;
    }
    procBoundary0to1
    {
        type            processor;
        value           nonuniform List<scalar> 
21
(
974.8073973
1051.188987
1037.386294
1024.210492
982.8356129
941.5099628
891.4892946
877.327817
807.4831808
756.3561017
686.2118065
595.1978663
569.278134
469.4807897
439.1229706
420.2651097
381.713902
368.6652175
328.36987
321.1357086
317.1799482
)
;
    }
    procBoundary0to2
    {
        type            processor;
        value           nonuniform List<scalar> 
31
(
298.0281519
307.0608511
296.7417267
296.8601168
296.3098913
300.6971178
300.3908315
306.0365369
302.6919585
301.9484134
306.9118165
307.4750721
305.5115403
313.3193542
305.1940914
297.479946
290.7952191
296.1926771
299.9946158
299.4657821
301.2145419
318.7939113
321.6310841
315.4274849
316.3148305
326.3410909
296.0654898
301.8835121
296.8735539
301.2145419
309.1390644
)
;
    }
}


// ************************************************************************* //
