/*--------------------------------*- C++ -*----------------------------------*\
  =========                 |
  \\      /  F ield         | OpenFOAM: The Open Source CFD Toolbox
   \\    /   O peration     | Website:  https://openfoam.org
    \\  /    A nd           | Version:  7
     \\/     M anipulation  |
\*---------------------------------------------------------------------------*/
FoamFile
{
    version     2.0;
    format      ascii;
    class       volScalarField;
    location    "0.001";
    object      translationalT;
}
// * * * * * * * * * * * * * * * * * * * * * * * * * * * * * * * * * * * * * //

dimensions      [1 2 -2 0 0 0 0];

internalField   nonuniform List<scalar> 
654
(
273.1734453
282.7442741
337.6693256
360.1058635
376.4604777
380.8613883
399.4459359
395.0987522
379.171895
387.5489938
431.8985961
466.4204894
462.2005903
511.6996289
494.7290755
505.0796997
530.8910829
493.6577416
536.0009726
593.4697333
279.7804223
305.9375686
339.0393948
331.3105661
374.3361793
396.0396618
434.5297754
439.2515971
482.2422945
454.3279553
507.4332736
530.2183654
573.7290448
537.5904458
587.5623835
636.142437
580.4558658
639.0700306
706.1774608
677.6069351
298.7795194
316.4591881
331.7046687
354.1302319
390.266403
411.090339
448.5278319
473.7790748
491.6152537
509.241337
545.7182083
525.1277222
552.0805022
600.1420905
602.8848779
682.6921584
640.3601657
670.3104408
762.6706594
761.340265
281.1595435
278.9673871
327.1252424
356.7176235
357.6308425
414.2357209
443.8440432
490.0251522
478.0020082
512.0907836
584.150952
558.4183479
584.8840889
635.3543467
661.9549953
662.8749628
729.1089714
740.5594169
790.6556623
837.4397412
282.5026333
286.919274
318.5118124
375.20096
366.333133
396.0059725
435.0107868
474.2106129
458.2450549
539.7687588
591.176663
601.3859297
614.0443281
621.7061083
671.0944236
642.5802688
739.566521
767.0703661
860.525243
899.0053439
282.5959702
294.275411
309.214239
326.4133009
354.5127602
381.6213929
437.0297511
468.8600229
446.2103726
498.5088361
539.4409522
584.5934428
607.4879946
614.4329081
660.3562509
671.1167935
694.8470772
708.2635232
826.3765976
865.8715974
293.6379281
316.708177
366.7005119
362.7981603
432.8852493
464.0568182
443.2929279
468.2395918
472.9995561
550.3745274
545.6035095
525.1815444
612.8865339
610.1707841
699.9220811
710.4775291
715.4396206
780.3293644
823.9522692
879.45348
302.5834837
320.5088667
352.0193626
351.2627233
361.0196656
387.177288
422.6257315
472.4042614
516.4496319
551.0091035
584.8873277
577.469218
620.0460096
681.4799871
706.6710906
670.1366544
743.3621219
757.6027878
798.584017
843.2592301
297.3701847
319.0397075
365.6083898
372.4570647
391.7936071
389.3486962
435.0828381
505.9629901
520.3648102
544.804599
554.5449484
584.5250093
572.5413144
654.3305306
622.1051908
672.7881712
754.0799731
763.9398275
809.4472288
854.1980804
297.0342453
330.1163109
345.2309239
405.4341646
422.2626694
429.9520041
470.0981704
481.8800879
544.9906332
530.5814749
566.2842346
577.7797342
622.3349462
663.0945514
688.098202
709.0965708
740.503171
721.0315315
735.3515076
782.4815111
303.8645405
346.4348012
368.5436401
406.5481842
402.6060403
441.2263491
419.4969123
481.3935326
533.071092
550.7585072
608.4062704
597.3299622
622.811402
659.4649839
671.4382791
696.4866598
758.6148088
776.8972947
793.4031817
786.5813839
289.7167453
319.1274147
375.2900933
418.7887525
444.8300186
459.9838991
444.5285621
467.8878399
549.9953431
562.0646376
602.7207628
650.2763166
658.1459352
638.8445218
684.799078
698.6239125
768.009646
824.3083781
783.7294442
807.3975592
264.3831643
311.9716412
349.2351743
389.908438
446.2350757
472.9734321
535.958936
494.709078
563.7101872
586.28935
564.4081594
640.4208207
747.4470762
767.5846423
823.1132803
785.7935869
794.3181339
789.490024
792.3118807
805.9049829
280.439245
339.7673539
370.3898275
393.25999
412.9743031
431.454791
457.8392298
556.9235442
541.1274348
593.8719203
561.453122
583.7923375
681.360766
770.2075325
732.2603243
772.5859491
808.0813959
828.0889443
789.3833285
788.8687353
310.2174461
342.9828066
365.459293
416.2132338
427.7963303
452.4515408
446.0200849
492.6293322
555.1271899
569.5446362
559.058036
623.2695326
632.9099757
762.779056
687.5871701
717.6311182
713.6554817
757.5643603
798.2534305
856.8872355
279.616349
308.383094
378.208403
402.8921079
440.2572968
454.2053034
472.8937227
519.2128378
514.758751
573.3862435
587.9430341
561.2960558
578.5476869
654.512703
732.7787125
766.3748429
779.9866632
753.7387528
809.7976103
869.8154922
302.9785845
367.4285687
362.4072676
367.3485392
394.8403815
456.6192219
513.8903147
538.5961817
566.3578546
640.4493943
627.1253116
614.481577
618.4037765
713.2323169
719.0495715
787.806833
827.8555296
776.1579199
821.8126381
891.1984865
269.8312114
334.056111
364.0632857
387.2815566
440.3292752
468.1923689
524.5149352
543.225726
526.4502592
550.1024618
602.4695938
657.699284
649.5171983
724.6617244
805.6038795
746.9738942
773.856216
809.522459
802.8374877
824.1596066
270.2673411
321.4186513
343.5138457
365.0875575
399.2750568
483.4403526
474.236275
538.1647025
566.7606395
555.5774943
567.8272224
635.9670079
660.4721647
676.4935151
718.7440304
705.8092618
730.7906465
839.2479442
857.071295
853.5514871
269.690387
313.1860282
349.0743918
395.9654679
427.0404153
453.5772957
480.9426823
528.5985759
508.8256422
624.5340138
636.4548735
627.8282437
693.3586764
739.8913762
759.0800685
790.113788
774.7979204
822.4385385
819.564615
863.8004126
281.2072623
316.5447447
365.9544915
395.6896726
413.4170336
459.4315091
500.3592456
536.9083192
533.7045634
590.7001717
646.8750708
625.9372658
699.0734726
755.7793849
845.2845064
834.8607482
783.3046121
876.4879859
964.2268373
873.8218807
310.1353784
333.9050407
346.2560196
411.3649908
381.178822
482.0231387
549.8329753
576.88625
604.9889211
677.7860853
650.5205404
679.5409332
722.3579777
732.3017865
798.9933286
811.7780656
808.5926722
816.6299145
873.49534
916.2338192
807.6279095
917.206765
926.1299304
921.247917
891.9766936
893.7641206
881.6525927
917.6528442
944.0082427
937.7699367
812.9409626
924.0217071
928.420243
972.7061262
999.6532755
1022.804956
1094.631846
1118.521726
1087.712699
1091.374098
848.7529549
957.50573
994.2880937
1021.261451
1042.089893
1089.610549
1068.03588
1112.31217
1159.274747
1124.077655
917.6738787
967.7800291
991.4423628
1085.218887
1024.259859
1002.627591
1099.851492
1163.782673
1170.34225
1207.261246
899.5883579
1034.768209
992.3330849
1050.305519
1077.795892
1102.638034
1150.133158
1127.649773
1120.430317
1146.555554
887.2694434
919.5103497
945.9915093
1014.225099
1013.356347
1030.235144
1087.927727
1160.531062
1135.764474
1082.573667
840.3731806
920.9578454
960.9595794
994.4156338
1070.153198
986.9611685
1014.766996
1064.228701
1058.630817
1066.094455
931.5953763
979.9746045
942.3930443
943.338096
948.2043134
1017.278156
1093.466575
1099.326802
1087.5234
1128.72277
922.8998861
875.5853368
920.1266292
901.682041
995.4301397
1024.216498
1031.810781
1048.57059
1068.629622
1070.572041
858.0910356
831.3100258
922.5376323
973.4738632
990.3413397
917.0612672
993.6654574
1022.486123
1063.931925
1090.268014
823.0486429
826.9927572
889.2283248
903.8323386
990.462164
956.9800802
1059.154651
1090.394952
1135.782631
1157.903266
780.4379036
836.0874286
907.7252364
983.2906617
1003.146976
1049.732192
1069.448897
1078.700088
1127.299336
1103.650079
865.833847
911.0667094
957.9067258
908.5224246
945.9869277
1017.956308
1043.416859
1131.155282
1049.704277
1110.489043
822.3627537
838.034866
960.2011484
1005.808052
993.8704903
995.5490511
1011.910349
1008.788018
1087.569962
1066.690335
866.9824617
809.2368515
870.8626165
991.19583
1006.491463
1056.855293
1096.112585
1079.819201
1100.688942
1165.277684
916.2769633
959.571728
917.0513914
973.3154038
984.3199419
1022.650825
1034.409562
1088.213355
1083.161752
1110.230295
916.7889755
918.7430856
860.3178854
922.1273508
989.9760919
984.0711159
946.6485881
990.5216958
1159.096063
1104.120213
861.1846662
900.3585904
916.6315703
973.2098896
974.026265
1014.78638
1031.313765
1086.558904
1094.699394
1098.867646
814.79052
953.4712511
963.0143161
1047.912789
1055.672172
1103.720585
1039.26975
1042.949479
1111.689214
1057.199038
889.0512422
864.5985538
925.6415779
978.1920296
942.2421539
1035.997767
1022.946338
1079.276796
1008.234376
1094.915228
892.095612
985.2315257
989.0341477
989.6107199
945.7854306
979.4150796
1045.396655
1033.363328
1014.59017
1045.186461
946.9036032
970.0943131
991.0505394
940.0634066
)
;

boundaryField
{
    flow
    {
        type            calculated;
        value           nonuniform List<scalar> 
42
(
273.1734453
279.7804223
298.7795194
281.1595435
282.5026333
282.5959702
293.6379281
302.5834837
297.3701847
297.0342453
303.8645405
289.7167453
264.3831643
280.439245
310.2174461
279.616349
302.9785845
269.8312114
270.2673411
269.690387
281.2072623
310.1353784
273.1734453
282.7442741
337.6693256
360.1058635
376.4604777
380.8613883
399.4459359
395.0987522
379.171895
387.5489938
431.8985961
466.4204894
462.2005903
511.6996289
494.7290755
505.0796997
530.8910829
493.6577416
536.0009726
593.4697333
)
;
    }
    obstacle
    {
        type            calculated;
        value           nonuniform List<scalar> 10(610.1420014 847.6266786 742.1907868 898.6018807 846.4464173 824.0195718 720.2054634 710.5759321 846.7900283 914.3047488);
    }
    frontAndBack
    {
        type            empty;
    }
    procBoundary0to1
    {
        type            processor;
        value           nonuniform List<scalar> 
21
(
948.4757474
1062.680476
1138.735445
1100.342132
1140.87807
1122.319964
1126.186535
1183.660682
1022.976162
1161.959642
1135.976305
1088.88169
1075.192456
1077.592631
1138.321666
1091.518044
1087.651184
1125.769095
1124.381657
1107.317034
1021.936596
)
;
    }
    procBoundary0to2
    {
        type            processor;
        value           nonuniform List<scalar> 
31
(
322.9748674
357.2722997
380.664596
421.4222892
443.7504408
454.9168618
476.654621
532.3248862
564.1203596
627.0574925
650.5591739
647.9636144
669.1635868
682.3861124
648.8196649
773.1995327
846.2871006
798.9273299
782.1370496
865.1250766
957.3273453
979.1533108
1030.254542
1012.577011
1033.18715
1072.93277
860.7953365
931.0751008
884.4013308
957.3273453
883.0648627
)
;
    }
}


// ************************************************************************* //
