/*--------------------------------*- C++ -*----------------------------------*\
  =========                 |
  \\      /  F ield         | OpenFOAM: The Open Source CFD Toolbox
   \\    /   O peration     | Website:  https://openfoam.org
    \\  /    A nd           | Version:  7
     \\/     M anipulation  |
\*---------------------------------------------------------------------------*/
FoamFile
{
    version     2.0;
    format      ascii;
    class       volVectorField;
    location    "0.001";
    object      UMean;
}
// * * * * * * * * * * * * * * * * * * * * * * * * * * * * * * * * * * * * * //

dimensions      [0 1 -1 0 0 0 0];

internalField   nonuniform List<vector> 
654
(
(1712.098778 -13.07591423 5.236400081)
(1745.526254 -8.225765289 3.598578453)
(1732.409579 -4.924429582 -1.048823461)
(1737.310245 -1.429830886 0.480011067)
(1740.793706 -3.75848317 0.2082114112)
(1737.141545 -10.86150505 -1.079867907)
(1741.344283 -14.17369261 -1.691054863)
(1746.507222 -4.941748128 -7.274444801)
(1745.803584 -2.244332113 -5.710586821)
(1746.891545 -1.628567537 -1.647967331)
(1738.994434 -3.00535609 -2.324338047)
(1749.228861 -7.650147545 -6.405209105)
(1746.944856 -4.839943205 -2.504082071)
(1746.784736 -5.153769909 -1.070814493)
(1753.198051 2.022234983 2.269858768)
(1750.574914 4.772466444 -4.335289625)
(1735.467331 3.222206969 -2.864207287)
(1704.691095 -3.752292288 -9.462084659)
(1599.037963 -6.749515382 -12.98409589)
(1206.800354 11.28251371 4.203935723)
(1711.20387 5.104012099 7.224822954)
(1746.767412 5.79624913 6.069402644)
(1738.568519 -4.246371073 3.638921755)
(1734.6302 -3.917812239 6.287831929)
(1726.065285 -3.008413987 7.802377066)
(1735.162806 7.594611109 4.74087749)
(1731.030907 1.275183429 1.458514187)
(1729.645157 5.297772235 5.335647582)
(1728.775699 0.3243113904 1.075493359)
(1727.927984 0.762899801 0.5629766)
(1731.925146 2.141697425 5.902091671)
(1727.391546 6.04891779 9.133742401)
(1728.979876 8.043268687 5.704083187)
(1726.578398 7.41138215 0.6989794702)
(1720.18647 10.26820227 0.3178795449)
(1698.604844 2.80513524 1.039186804)
(1689.572566 -4.171669118 -3.05983426)
(1655.822541 -4.697605724 -5.683612653)
(1565.166344 1.533618377 -2.191182392)
(1281.831736 59.31693553 9.130686089)
(1713.069473 0.1209917158 -1.568568642)
(1745.303256 -4.209175472 -5.743368607)
(1735.117769 -0.04707417612 -5.190457415)
(1740.406331 0.6715697766 -4.865253428)
(1737.764688 -5.047812074 -9.97574475)
(1738.048632 -5.424914365 -6.701882804)
(1733.095932 3.305823973 -0.701544595)
(1731.790951 3.342393054 4.894299179)
(1736.417388 9.73845628 1.813547905)
(1739.372722 7.74410136 -2.57890269)
(1737.894843 8.261491195 -12.1863942)
(1734.769361 9.047290842 -15.4459669)
(1736.757293 2.194514646 -14.54243281)
(1730.314644 -1.391521546 -12.02302837)
(1726.90493 -9.13283612 -11.70358228)
(1717.30342 -4.459840844 -8.222861449)
(1704.583294 0.8301923741 -4.057545228)
(1662.828414 0.8500590137 -1.793385883)
(1563.308304 18.93912864 -0.8442257052)
(1443.772642 56.21765327 -6.204425636)
(1705.44826 -2.711304068 2.272255832)
(1738.343548 -1.176975448 1.956132471)
(1734.491204 -4.646803728 3.853623614)
(1727.935416 -4.311458852 3.067514087)
(1731.291726 3.914685336 -0.6374568429)
(1736.980692 6.3734067 -1.027357046)
(1736.560945 4.59414131 -7.788424284)
(1736.279189 3.436768559 -17.37699119)
(1739.076975 -3.338156947 -14.08178861)
(1735.061523 0.07020622032 -10.39509732)
(1734.564951 2.626645811 -5.818187328)
(1728.502577 1.653860326 -5.531289404)
(1733.92499 -4.148075224 -12.24645474)
(1730.172648 1.163657699 -19.27523372)
(1731.467193 1.247448861 -12.07043717)
(1724.403518 6.218386447 -11.4749539)
(1707.477532 10.66208265 -3.649920227)
(1671.698124 17.23279239 -0.3610430206)
(1629.365057 26.3395016 1.421888231)
(1530.54098 59.93539646 -3.485593094)
(1706.814891 -3.19830291 -3.136763897)
(1747.246113 1.805263974 1.765109171)
(1737.686365 0.5112305846 0.5575120553)
(1735.788441 5.487795662 -2.024074914)
(1732.62616 -4.439763451 1.946201019)
(1732.13934 -3.101033692 -2.709386517)
(1728.856335 4.876772942 -1.946160941)
(1732.683495 6.431023564 1.229259112)
(1730.027821 7.039123479 -5.293036594)
(1735.154272 3.228098962 -4.941013172)
(1734.818742 6.599487161 -4.647458406)
(1735.026215 15.4695187 -5.277269046)
(1732.96604 13.17053455 1.408572763)
(1726.360056 8.715087874 5.556621126)
(1729.583655 7.272101694 11.4164348)
(1717.898488 5.313280328 10.7313929)
(1695.239874 5.349823528 8.143500072)
(1678.25541 7.55381784 9.474834066)
(1661.291415 13.25900541 2.80484296)
(1599.372507 39.20513081 -5.574866705)
(1707.543604 -0.9732424427 -0.4125695081)
(1738.220966 0.904138218 0.1789545107)
(1732.054985 6.049519666 -2.463301702)
(1729.125116 3.125843847 -3.194721213)
(1727.294971 6.10282578 -3.076820228)
(1726.192511 5.035204403 1.334324717)
(1730.456938 -2.239317304 10.83744337)
(1727.351935 -3.677558362 12.55186905)
(1728.213345 -1.285819593 9.170308722)
(1728.920655 5.711317458 13.5890965)
(1730.994354 -6.483398072 10.65170873)
(1734.84896 -8.564768216 5.905310023)
(1737.711751 -2.450417015 8.824146244)
(1722.099273 4.563353554 1.315684596)
(1723.012936 12.77299552 1.599938619)
(1721.796135 11.8641155 -2.670307095)
(1716.233767 11.88239616 -4.05114637)
(1693.621783 16.73482845 -0.5588810368)
(1691.004342 17.41011431 0.4959423987)
(1632.725267 34.63911114 5.008773195)
(1696.032134 11.02285065 11.18589077)
(1741.256041 10.09411394 10.08375507)
(1727.189671 5.79344205 15.59964078)
(1732.611398 4.228233291 15.15425934)
(1738.917249 2.957396758 16.34162528)
(1744.180528 2.870919421 12.11417989)
(1738.89274 0.3268878715 9.304810289)
(1745.921754 2.695139782 5.92994889)
(1743.776995 3.167820114 8.546451097)
(1739.481834 3.608065855 8.417078959)
(1733.059508 7.810463044 15.11691212)
(1734.992149 0.3930307699 11.95404203)
(1730.800515 -2.116123955 13.38426367)
(1726.087213 -7.52956115 13.26408406)
(1732.945856 -14.24731952 5.507227963)
(1719.156897 -7.942618515 12.12103077)
(1716.80234 5.10796581 3.499814691)
(1707.009549 17.39090826 6.797744262)
(1702.169379 24.29478288 6.04331698)
(1674.79202 33.19407792 3.580434515)
(1712.723502 2.849094664 15.99050237)
(1741.23591 0.08903203702 10.04088311)
(1732.126747 0.5073970054 8.642627468)
(1731.193841 -0.1359864802 9.292772499)
(1725.022353 5.762561004 8.230008514)
(1727.422 5.495172199 9.369627233)
(1728.370237 9.148291178 11.51746884)
(1726.17536 5.645317665 10.21526723)
(1729.967347 2.719576526 13.80102954)
(1729.663991 -3.267908155 13.12018956)
(1730.490478 0.9535772264 7.378605757)
(1728.978181 2.541186671 4.798026643)
(1724.398432 1.813816018 4.800213557)
(1723.091314 4.403945396 6.291919005)
(1716.26666 0.8764719601 6.597394702)
(1716.957182 3.712656172 10.48012598)
(1717.153821 2.315232784 9.601396394)
(1713.618577 -1.09475665 1.167315973)
(1707.552829 10.78191435 2.819494378)
(1687.126641 20.30505067 4.493328726)
(1702.452719 -1.729514233 -7.294073131)
(1734.768977 7.126629524 -5.69107517)
(1727.976228 7.592972226 -0.483954299)
(1729.062787 8.746088907 -2.624958975)
(1727.581972 4.906232278 2.088275813)
(1729.134561 3.765223821 2.273425687)
(1733.227394 -1.747600009 0.316911583)
(1735.361271 0.6519633337 4.392845519)
(1732.934381 2.873650086 -1.571340629)
(1729.823661 0.171814029 -0.62123184)
(1726.881083 -0.527226839 1.838803152)
(1722.538157 -6.579007987 -2.348043695)
(1716.047873 -0.5908605133 2.931077433)
(1720.379429 -2.483643941 8.126051267)
(1713.374918 4.347842358 10.82018846)
(1715.543717 4.166946684 8.228528773)
(1712.256803 6.405479527 3.671991746)
(1712.313552 6.648150166 1.463117623)
(1707.670181 6.064300541 3.103613617)
(1703.36066 12.73199887 2.667035651)
(1710.15274 7.302057163 1.879687939)
(1749.866387 -0.7763449423 1.181285306)
(1736.317772 0.1793885887 0.1036384611)
(1738.737114 0.7068847068 1.453627777)
(1742.240194 -2.957736063 6.253279951)
(1735.979822 0.6296048674 8.855093109)
(1732.942075 2.240054894 7.591837869)
(1726.333929 -1.262202901 1.712844509)
(1724.244567 0.4697835999 5.272430932)
(1731.226139 0.5696757931 10.26862978)
(1733.65567 -4.380002864 13.59889294)
(1735.782356 3.648772223 13.10747129)
(1732.017377 -1.516259086 9.30724752)
(1737.001108 1.339513697 7.655092027)
(1736.096463 5.911841367 6.308979855)
(1734.148149 2.897058775 6.31356184)
(1733.890128 0.998603329 8.65039097)
(1726.95603 4.839691636 5.204839393)
(1724.133347 9.27800455 8.998672395)
(1721.375675 11.90082839 10.24381643)
(1707.867849 -10.3808812 -2.770124414)
(1744.928098 -2.577789327 -1.588903046)
(1734.894456 -2.338117904 6.087552204)
(1737.253788 -9.580226029 3.614461157)
(1733.234822 -0.9958503897 -4.26588114)
(1738.113022 0.3152878227 -6.893610915)
(1742.841946 -2.004950093 -11.41743757)
(1737.692886 -7.124024616 -0.0009110280801)
(1736.068324 -4.027744471 1.906386349)
(1738.507413 -4.071160949 2.956302761)
(1733.608621 4.617411725 -3.752873965)
(1742.479279 6.232416842 -5.542837112)
(1744.557765 9.794136342 -2.620846647)
(1747.092738 0.7685912359 2.433117454)
(1742.878087 -1.415455148 6.423799033)
(1742.907323 6.024969179 6.807997285)
(1745.194458 6.294090116 6.802716966)
(1742.603236 4.276101637 9.392097842)
(1737.67104 -0.7558030876 4.167910308)
(1726.867621 9.474381563 7.124428542)
(1705.475931 -3.421006594 -4.081738307)
(1739.739342 -0.3516363021 -1.857648027)
(1729.586092 -3.023810553 -2.803736671)
(1728.792391 -1.650923654 -2.951602658)
(1724.347223 -3.594811884 -0.7058478883)
(1721.584148 -3.19452208 4.837139761)
(1725.82287 0.5280137855 1.157022234)
(1730.688477 -1.576549418 -4.120360471)
(1736.595298 -1.367987249 -5.982044434)
(1733.082327 -3.27149186 -9.122397434)
(1742.159604 -2.652523877 -7.114452649)
(1740.333272 -6.21129974 -1.633298882)
(1732.191551 -2.005179031 -2.92570539)
(1733.192696 -1.28856535 -8.887653381)
(1745.686294 -1.001069941 -9.297969294)
(1741.14517 -2.518027061 -11.90929534)
(1744.094199 -3.539439399 -7.635308225)
(1739.806426 1.886283292 -9.023130543)
(1737.012982 5.827674614 -7.597452851)
(1726.119468 4.298940762 -11.8316098)
(1708.743091 -8.658409913 -2.276588147)
(1745.250933 -9.924108219 -7.031768897)
(1735.815973 -6.192409387 -11.59427893)
(1739.219903 -2.054686261 -7.135441997)
(1736.990203 0.063505028 -14.25123497)
(1739.675682 -0.5487631994 -14.68393613)
(1736.620197 5.337195278 -9.634833027)
(1734.20285 2.862502343 -7.68673702)
(1734.611006 1.358374268 -9.739171576)
(1734.08326 -3.275184641 -7.100875456)
(1731.097943 -5.93037849 -11.21043528)
(1734.494612 2.384925491 -12.96014584)
(1740.988488 -2.094820361 -10.07022623)
(1735.167246 6.753430815 -14.51956197)
(1735.78196 5.106641648 -9.654455616)
(1726.458553 5.474375167 -8.861600874)
(1727.189714 3.444033654 -5.470147273)
(1723.916525 9.53818987 -7.836587998)
(1723.000879 12.6688369 -5.088015855)
(1727.966749 13.87399998 -5.090017184)
(1710.045884 -2.084634904 8.913441372)
(1748.500427 -0.4461524554 3.953446552)
(1738.833692 -2.420581372 2.719967385)
(1738.545102 -9.042190287 9.012012233)
(1741.725228 -10.52975172 7.139683712)
(1745.987402 -9.089216767 3.388528679)
(1744.366798 -8.434927307 0.05830048208)
(1746.08959 -2.490734987 -1.102000342)
(1743.875174 -0.7016755554 1.393578872)
(1741.824185 7.443904612 -2.455299759)
(1743.462723 14.43564566 -1.362793824)
(1743.414829 11.30475755 -1.071448626)
(1735.584582 14.21105025 -4.571903524)
(1738.349822 10.82641313 -0.1747167324)
(1737.698518 3.633880706 -1.978830383)
(1739.661037 2.100163872 -0.2320441817)
(1738.75813 -1.701344277 -1.119504557)
(1734.44576 -2.503223861 -4.743734257)
(1727.822967 -12.5338718 -6.004042455)
(1724.816921 -1.233492355 -1.876340385)
(1713.173709 1.466533406 6.903264991)
(1750.137164 -1.956550672 8.340525288)
(1737.973765 -3.575700092 11.62181773)
(1736.344834 2.57750251 4.508619513)
(1737.191004 4.336278807 5.018297246)
(1738.852866 7.232426601 3.273970619)
(1735.139706 0.6251190672 -0.9724630365)
(1742.420553 -4.08229771 1.010980239)
(1742.543498 -3.042899093 -2.820023381)
(1742.495859 -0.8059432339 2.977269804)
(1749.856179 -1.310090059 2.421541064)
(1739.006271 -6.030207582 -5.312651153)
(1743.830569 -6.506034586 -6.968481596)
(1740.116325 -3.622795929 -10.5084421)
(1734.479023 4.121845423 -6.880921395)
(1738.700613 2.806460508 -7.853785862)
(1737.165973 0.4421744113 -5.518701447)
(1741.926836 6.386773705 -12.19736818)
(1740.005125 13.62958331 -6.14679431)
(1737.251267 9.069862925 -6.731238184)
(1706.531891 -3.130812486 -5.999153968)
(1746.845782 -0.3879327272 -7.589942762)
(1745.044065 2.608418088 -1.159861998)
(1744.462944 6.207790134 -0.7346023044)
(1741.592994 5.720737086 -4.567567249)
(1741.875947 3.636767456 -0.2359724385)
(1747.665852 5.761237901 3.094594869)
(1743.922761 5.015080193 6.443890711)
(1741.560916 4.036927316 5.513110718)
(1742.505068 -1.85004472 2.619203453)
(1744.425853 -8.132613287 -0.9759977311)
(1745.100479 -5.507790544 2.521813166)
(1746.849349 -4.985887786 2.1690199)
(1750.401851 -1.165067047 -1.609532982)
(1745.445579 -5.179069096 -1.539927687)
(1744.580367 -2.099283861 0.1409333299)
(1746.914388 3.759145152 6.131938209)
(1737.961789 4.505154535 3.487789811)
(1732.208137 0.3687913435 7.733975892)
(1740.250431 4.475199764 -1.42710811)
(1732.115985 1.15102239 -9.890504635)
(1770.361217 3.652203543 -10.91487365)
(1757.633659 -4.268159839 -12.16856223)
(1751.815705 -0.2140054572 -9.358056356)
(1750.205913 -0.7322920786 -13.74194279)
(1751.052998 -1.646806698 -10.30124501)
(1742.22411 -2.281111896 -7.798190228)
(1738.210822 -2.594044295 -7.444638906)
(1733.427745 0.5640697593 -3.749243203)
(1740.784884 -0.3327999682 -3.239494863)
(1734.813308 5.306641677 5.586754728)
(1737.064562 5.757369665 5.242774994)
(1737.872117 1.4529966 11.17261055)
(1736.1559 -1.863801672 13.80798844)
(1736.828266 2.302472517 12.87781008)
(1733.195351 -1.996947418 3.182966139)
(1734.627229 -1.952955228 3.638547465)
(1736.171959 -4.981609968 3.951412944)
(1735.13071 -3.515115881 1.375027803)
(1732.868684 -10.35996513 1.988287497)
(1701.751752 7.462876909 -1.370742689)
(1738.623491 2.900545518 1.540014255)
(1733.921957 8.063888359 -0.3077176016)
(1732.451066 7.748623138 3.998314735)
(1735.597112 0.2671546395 6.723611466)
(1738.349356 0.5798740775 7.483639876)
(1747.190421 2.504716364 6.250535771)
(1751.218641 6.618121718 11.16224524)
(1748.829904 1.482957395 2.000259383)
(1739.987745 1.409361297 2.69805149)
(1732.019002 -4.493821637 3.941907634)
(1731.314166 -7.606125903 3.933477714)
(1729.574445 -6.674103056 -3.640316704)
(1728.35388 -8.36241008 1.015854646)
(1732.418805 -13.70964331 5.65950968)
(1733.943939 -13.86436301 7.168908446)
(1732.462573 -9.258930715 8.205915573)
(1729.568101 -6.262677858 4.335343964)
(1730.068546 -3.244321791 11.04613573)
(1733.920631 6.782019891 8.414294417)
(1707.87244 -1.405924027 1.212748201)
(1744.726896 2.680517559 1.673006546)
(1730.823495 5.025465666 -1.560733412)
(1733.371865 1.58408338 -1.699270776)
(1733.962238 0.7451068498 -6.842422826)
(1734.298227 -1.302587571 1.399026586)
(1733.037101 -0.9967049417 0.2896037015)
(1732.437258 -8.672197284 6.327359127)
(1734.423074 -7.964796027 7.697752389)
(1739.729274 -4.974333573 11.1110999)
(1746.972734 -2.636944538 9.556643094)
(1744.332347 -0.8198566403 9.036594397)
(1743.744106 -3.536747343 9.542420272)
(1741.387407 4.687186409 4.28302344)
(1742.401404 9.126535476 -1.188233089)
(1741.72006 1.609080849 7.40967895)
(1739.258287 -0.5011342019 5.603267598)
(1745.577316 -0.09871084422 2.983021197)
(1744.376609 -0.3632085122 6.517924999)
(1738.442413 -4.552398093 3.871695998)
(1700.792903 -1.442868033 15.24515145)
(1739.518876 -7.498336797 12.65106536)
(1742.742988 -11.85772538 15.10393757)
(1738.825196 -11.03489529 13.55767)
(1738.60428 -7.791838456 16.95295877)
(1734.886808 -4.511807994 9.276825997)
(1729.857801 0.6888582746 3.752959959)
(1726.948205 3.478772934 0.7418288985)
(1727.534905 0.1836261706 -1.16248394)
(1729.54846 -0.1156358544 1.728698116)
(1731.097636 -4.127851691 1.762897802)
(1730.997185 -1.24314406 -1.26246334)
(1738.28721 2.174329796 4.659411456)
(1738.68377 -1.15833891 8.523386213)
(1742.70277 -2.250601268 12.13584441)
(1745.513376 5.347514109 3.871720961)
(1741.735688 2.051162439 4.25670642)
(1737.047269 0.4278333648 7.548750831)
(1737.380672 -7.433596035 4.777104)
(1740.34232 -4.125699641 7.578324079)
(1701.458152 -9.962589009 -4.060127608)
(1735.24243 -5.819999616 -1.608223442)
(1724.30028 -2.779295136 -3.167296059)
(1721.753216 -3.831588197 -4.447712418)
(1725.352882 -4.336563942 -1.703575606)
(1726.970357 -6.754675976 -0.9731586837)
(1734.295699 -7.895637028 1.332482376)
(1734.037655 -7.462811424 8.653464939)
(1735.104497 3.87533634 10.99988449)
(1732.057071 -0.2599761679 11.60006051)
(1727.035319 -1.269553463 14.370524)
(1728.692502 1.646742977 13.4279714)
(1731.171051 -0.4443564378 14.26464674)
(1732.095962 -2.674463624 12.07016918)
(1729.785408 -6.105549572 9.837162675)
(1726.158922 -9.365613939 9.090521834)
(1726.312881 -11.69542381 11.36004589)
(1730.468006 -8.762312366 7.552096257)
(1733.833288 -9.941164199 4.063490779)
(1735.793783 -15.42611914 3.036431149)
(1711.384351 2.376513865 1.464268904)
(1752.026093 1.409117336 3.720622102)
(1739.256796 3.260737489 1.822178689)
(1739.418718 1.660658414 0.5386561408)
(1737.456742 0.9085679203 -3.292810131)
(1738.915677 10.84843651 2.164776112)
(1731.725126 5.33649234 5.438516909)
(1733.080608 3.989260565 3.559250585)
(1730.415895 -5.077617955 -2.661416584)
(1731.076217 -9.327106868 -3.676875534)
(1732.450906 -11.27856552 -4.229144511)
(1735.686433 -6.36954207 -0.5781915429)
(1732.885235 -16.04312198 2.671947561)
(1731.97202 -16.26490211 1.027020169)
(1735.609628 -18.50906135 -1.205073715)
(1737.495837 -15.43825599 -0.4889616438)
(1736.118533 -13.43115191 -1.654461153)
(1735.409966 -3.687029164 -0.6953310457)
(1733.045117 -4.417330738 -1.836157465)
(1737.282493 -3.438189552 -5.497862983)
(674.0338745 152.9404329 17.97829692)
(598.2122109 165.3231742 10.64414506)
(568.2600153 154.9825514 -7.725967369)
(565.1557582 170.4507265 -8.17249281)
(532.7576451 153.9889108 -8.590137297)
(498.662213 133.8641771 3.905792042)
(468.7935346 141.4059114 11.39888784)
(441.8185548 122.521773 5.610821842)
(419.0097239 118.2958295 12.57468691)
(400.3530861 115.8081246 -1.484810799)
(1063.789627 146.1984595 -9.93773047)
(954.0297827 222.801253 -3.905298631)
(923.5559053 253.8824155 15.57676565)
(839.8128017 262.780573 6.819668992)
(842.5157582 238.5592859 7.210477615)
(798.825013 234.3693548 2.25744215)
(777.7039353 247.7882068 -7.560943762)
(734.1508652 222.5829873 4.59534587)
(727.4613216 208.5865036 22.18018876)
(695.1786088 196.5969232 15.67771486)
(1239.924015 142.4869534 -11.11396518)
(1155.660488 208.0174109 8.546561617)
(1128.863425 233.3692834 -2.967927056)
(1051.692139 270.389035 10.28971771)
(1021.39371 279.1480787 -10.43672512)
(995.1515341 291.0459486 -0.4149259854)
(972.0983725 284.6871355 -10.59316264)
(945.0755835 280.6027807 -5.551958196)
(936.863058 278.8329541 0.8733058734)
(886.9046967 272.8336715 18.64734444)
(1412.889279 130.1278895 -6.109698205)
(1359.307672 158.323102 5.943087912)
(1276.993254 200.1851348 -2.976327666)
(1219.487108 248.1363269 7.072787823)
(1191.613548 283.6490854 14.28240345)
(1139.079013 315.3148675 14.68094723)
(1097.818834 301.920374 -3.789664441)
(1064.562855 311.2280144 10.38398048)
(1070.910136 311.6053378 6.140263736)
(1047.731251 314.8112615 14.07503585)
(1500.854175 85.61939053 17.80476939)
(1465.601871 118.7784324 25.79738286)
(1377.963186 179.4158587 17.64983973)
(1353.4198 210.2599601 7.223918388)
(1316.00327 237.7153799 7.544983832)
(1254.96364 279.8435414 5.5567413)
(1218.492205 302.8018143 4.680575949)
(1215.449205 318.2231342 6.098495688)
(1198.223984 324.7556768 2.664810902)
(1185.669626 325.6174863 12.43421232)
(1609.145651 61.08931274 4.83360804)
(1553.006703 92.05467106 -7.85089203)
(1496.270433 127.1570657 9.039126467)
(1434.457951 176.247914 9.623789466)
(1407.655988 191.6681036 -7.745584477)
(1358.125115 224.5174291 -0.9963293116)
(1298.025002 276.1595112 4.923156348)
(1284.288162 291.391498 2.532666173)
(1274.618739 316.3785875 11.33911152)
(1257.010218 341.459809 -4.008720497)
(1657.898452 42.8956605 1.311469728)
(1610.022248 66.07041175 4.027745501)
(1589.470397 90.9515551 6.89478262)
(1521.700698 134.2272359 17.30148838)
(1498.771968 174.4645154 6.323373072)
(1486.411253 184.7361506 -3.945767697)
(1427.936643 217.8892614 -6.035815532)
(1381.858987 263.3506229 7.733013324)
(1353.765234 289.6066415 16.8949752)
(1331.430201 311.6672303 6.340902239)
(1658.523541 34.66046956 -2.27222798)
(1644.156329 48.77739988 1.107436702)
(1611.498102 73.53360348 6.460887211)
(1598.450244 85.94275306 11.49403532)
(1558.7056 128.7739751 13.23582457)
(1503.840812 160.9117257 3.256132196)
(1495.4229 180.0427654 7.394118385)
(1460.202138 218.4472329 1.862991929)
(1429.534729 252.9058632 8.695244621)
(1397.08316 279.4329351 -5.514991528)
(1679.388813 19.12246934 1.981320645)
(1655.499404 24.92216149 -4.103079995)
(1633.333736 49.06973816 0.2143068192)
(1636.990711 64.87732994 13.80163554)
(1619.423491 85.35159994 14.39769451)
(1580.552951 122.8316674 7.741036334)
(1571.151734 146.3783322 2.045607942)
(1543.20876 177.1702185 2.982207939)
(1488.772948 210.3327843 5.636021009)
(1461.285019 234.9352873 -8.710178572)
(1707.856093 22.32279976 9.695428343)
(1701.793988 30.56100623 18.19699491)
(1674.029006 40.9692776 16.41608102)
(1662.110632 59.25958333 12.53014325)
(1652.879497 62.43133309 5.859585666)
(1632.502383 92.06965463 4.261291467)
(1590.583594 116.0928735 -1.679800103)
(1590.703674 131.0857047 -1.403321588)
(1551.016563 164.4460843 -2.618196235)
(1529.627715 185.8738595 -6.11655779)
(1720.676531 14.9440924 0.7710193605)
(1724.793997 19.85996772 -4.055165031)
(1706.140609 32.15007289 -0.6685765178)
(1698.712357 42.58407495 2.382260309)
(1674.975829 57.24175163 -0.6863279488)
(1660.637581 68.74167917 -14.03266707)
(1626.699756 94.45348915 -12.08817304)
(1623.429644 110.0170824 -2.252853416)
(1591.36034 125.0111385 2.114093228)
(1585.962403 130.7174653 13.35340849)
(1726.427907 13.19932157 -8.80853497)
(1718.716068 17.76004031 -4.184716363)
(1706.267884 12.25868148 -1.467937064)
(1694.060768 29.30901346 -8.387056294)
(1699.202071 22.1093079 4.030290374)
(1675.323171 41.6337169 11.6040704)
(1654.764177 52.71558951 7.731586679)
(1634.359188 62.55500817 9.590498365)
(1620.32023 74.96353024 10.4803712)
(1605.24924 117.3764752 4.484582075)
(1720.046246 6.861707769 -8.515330102)
(1720.515197 5.949979911 -12.66105445)
(1719.340678 20.02582713 -14.64888963)
(1703.197296 28.60891867 -6.796421938)
(1704.144728 26.55219287 1.863151908)
(1699.625906 22.46112516 3.809086839)
(1678.167146 44.18406334 5.170772676)
(1668.497931 72.59749217 7.169931615)
(1639.105674 71.69718117 14.09155478)
(1656.538398 74.97691053 10.51051239)
(1725.251473 2.559053936 -2.54158774)
(1727.008066 0.872712258 8.902638118)
(1721.556266 5.768765938 7.228801828)
(1715.140833 16.42559926 5.611729414)
(1715.319186 24.14063565 3.295501305)
(1709.085943 28.36560292 0.1381560814)
(1704.36174 19.6638295 -1.3463467)
(1694.79401 27.6141506 -4.537610231)
(1683.21562 55.97653618 -12.73038294)
(1675.577878 68.54660703 -0.03672984484)
(1744.037636 5.015423174 -10.36905419)
(1736.976893 12.75824339 -3.291401262)
(1737.931648 3.475081554 -3.693323787)
(1735.230112 9.445009964 -9.921112481)
(1726.401787 8.897382811 -4.807161512)
(1717.322175 17.70535793 -3.508805938)
(1719.732699 28.96098771 1.561658523)
(1725.809255 37.58951933 2.902208932)
(1712.66898 46.41118652 5.625883449)
(1694.288222 58.60430199 6.930959983)
(1737.889174 2.926024445 3.435915278)
(1738.140312 -1.266828637 2.278420058)
(1736.37958 1.388606878 -0.9274724491)
(1735.527436 5.096791854 3.918663052)
(1728.487131 15.8207212 4.251100441)
(1718.376427 19.78855828 8.419363142)
(1717.363046 25.91595101 7.310726987)
(1704.839822 17.40918162 7.553758622)
(1694.382585 19.84231599 -0.1333286358)
(1696.105919 20.97005895 5.395089971)
(1731.795196 -1.31547613 -3.099646439)
(1728.793146 3.082733943 1.748137603)
(1726.642059 2.90675546 4.441609307)
(1729.38865 11.41088643 6.051189404)
(1725.718409 13.37988894 -0.04749734744)
(1717.152674 15.93277893 -4.602447525)
(1723.457471 4.376044636 -3.991658289)
(1730.545049 9.838699681 0.4611956677)
(1719.757813 18.66935445 -1.270489684)
(1713.102417 29.94016076 1.635353159)
(1732.865966 3.80387208 6.564311663)
(1730.96349 7.80017924 4.249634553)
(1736.98495 0.1963162977 5.853505076)
(1724.576184 0.8720967626 -2.021662301)
(1719.526167 -0.2138552421 -0.8123214013)
(1721.697403 -2.120960393 0.8239699797)
(1713.661395 6.159991336 -1.23496279)
(1720.542156 5.038183196 -2.244107225)
(1719.500461 8.629745785 1.318596669)
(1715.059779 13.15617146 -0.4274229981)
(1731.642451 -6.917933844 3.542807197)
(1724.059676 -9.375942715 2.958944559)
(1724.164293 0.5573578943 2.341067145)
(1730.280852 -6.106989156 -1.437909524)
(1735.990741 -5.624329765 5.352692645)
(1735.046477 -0.04867942473 -0.07816394416)
(1730.35773 -2.275694468 2.608221399)
(1732.328317 0.7947243552 1.037360102)
(1725.256898 6.124948068 3.719086808)
(1726.903271 9.412393362 -2.45007522)
(1741.587402 -0.4980501391 5.733723099)
(1749.451776 -10.86100835 5.178459261)
(1743.794651 -12.31781297 0.9619798043)
(1739.416644 -3.781085709 6.077164573)
(1732.895025 -0.739156971 3.287719476)
(1726.886301 0.3230316168 7.974317131)
(1728.133839 3.571142056 2.819271518)
(1729.215007 12.71812321 0.2834071052)
(1738.033045 11.51014432 -9.703937715)
(1735.588332 10.45438762 1.575806194)
(1732.926828 -13.78770589 1.639602199)
(1737.209344 -7.755237768 4.643570461)
(1738.229594 -1.939494957 0.9714720409)
(1730.983435 -4.861304774 0.553651249)
(1740.660023 -1.08808316 -3.90655807)
(1743.900058 3.811495434 -6.140705997)
(1743.81926 3.999818682 -3.400396764)
(1733.701748 2.714649673 -2.304726886)
(1729.41079 6.43500324 3.186879553)
(1724.63159 6.457198124 -5.526110549)
(1729.02198 3.526696082 -7.923450996)
(1731.238279 -11.2367724 -9.648593094)
(1735.553995 -4.017350299 -5.790345381)
(1733.779245 -2.29680962 -3.23276188)
)
;

boundaryField
{
    flow
    {
        type            calculated;
        value           nonuniform List<vector> 
42
(
(1712.098778 -13.07591423 5.236400081)
(1711.20387 5.104012099 7.224822954)
(1713.069473 0.1209917158 -1.568568642)
(1705.44826 -2.711304068 2.272255832)
(1706.814891 -3.19830291 -3.136763897)
(1707.543604 -0.9732424427 -0.4125695081)
(1696.032134 11.02285065 11.18589077)
(1712.723502 2.849094664 15.99050237)
(1702.452719 -1.729514233 -7.294073131)
(1710.15274 7.302057163 1.879687939)
(1707.867849 -10.3808812 -2.770124414)
(1705.475931 -3.421006594 -4.081738307)
(1708.743091 -8.658409913 -2.276588147)
(1710.045884 -2.084634904 8.913441372)
(1713.173709 1.466533406 6.903264991)
(1706.531891 -3.130812486 -5.999153968)
(1732.115985 1.15102239 -9.890504635)
(1701.751752 7.462876909 -1.370742689)
(1707.87244 -1.405924027 1.212748201)
(1700.792903 -1.442868033 15.24515145)
(1701.458152 -9.962589009 -4.060127608)
(1711.384351 2.376513865 1.464268904)
(1712.098778 -13.07591423 5.236400081)
(1745.526254 -8.225765289 3.598578453)
(1732.409579 -4.924429582 -1.048823461)
(1737.310245 -1.429830886 0.480011067)
(1740.793706 -3.75848317 0.2082114112)
(1737.141545 -10.86150505 -1.079867907)
(1741.344283 -14.17369261 -1.691054863)
(1746.507222 -4.941748128 -7.274444801)
(1745.803584 -2.244332113 -5.710586821)
(1746.891545 -1.628567537 -1.647967331)
(1738.994434 -3.00535609 -2.324338047)
(1749.228861 -7.650147545 -6.405209105)
(1746.944856 -4.839943205 -2.504082071)
(1746.784736 -5.153769909 -1.070814493)
(1753.198051 2.022234983 2.269858768)
(1750.574914 4.772466444 -4.335289625)
(1735.467331 3.222206969 -2.864207287)
(1704.691095 -3.752292288 -9.462084659)
(1599.037963 -6.749515382 -12.98409589)
(1206.800354 11.28251371 4.203935723)
)
;
    }
    obstacle
    {
        type            calculated;
        value           nonuniform List<vector> 10((396.968773 106.3674621 -9.127359336) (317.4707421 85.066029 36.17650569) (308.1110896 82.55811763 -28.06621984) (328.7574764 88.0903003 25.53937078) (283.3977499 75.93619818 -8.736173904) (254.672558 68.23930638 3.418254987) (268.6112666 71.97417173 -11.86748562) (231.7883224 62.10749391 -9.439031444) (228.7395301 61.29057248 82.95513312) (249.3780435 66.82064515 -0.6941634079));
    }
    frontAndBack
    {
        type            empty;
    }
    procBoundary0to1
    {
        type            processor;
        value           nonuniform List<vector> 
21
(
(403.312639 110.2301976 6.900598219)
(680.5156629 193.2253975 -0.6429237066)
(865.6394348 270.5005325 3.947655851)
(1029.345633 313.3735764 14.76199535)
(1146.706725 328.7599237 20.52183465)
(1242.128078 325.9834044 12.52058055)
(1319.925975 321.1130446 11.2502579)
(1390.429718 302.2437606 -31.6622932)
(1446.576711 258.40997 -0.118766245)
(1498.885376 209.6527576 -11.87307426)
(1543.131045 180.4120104 4.181149164)
(1599.85053 135.6991435 0.8261210782)
(1624.238418 107.1139436 2.976908126)
(1663.050123 81.70903387 6.157099916)
(1682.7062 51.3485784 10.18900135)
(1684.605186 33.20853829 0.9425917974)
(1712.823377 29.63350692 9.862904358)
(1714.412197 26.92263085 4.889684897)
(1730.990384 13.44121472 -13.57522331)
(1734.30871 10.66742177 2.66832532)
(1726.186612 2.27957303 -9.078185612)
)
;
    }
    procBoundary0to2
    {
        type            processor;
        value           nonuniform List<vector> 
31
(
(1703.221433 6.899033017 -5.288997105)
(1742.391878 5.730596239 -1.091803619)
(1737.839081 2.335939452 -1.245008567)
(1742.566141 3.249717897 4.834041037)
(1735.908525 3.104764228 2.820046395)
(1732.590914 -2.853431099 4.710191679)
(1737.019675 -6.974847073 5.776011215)
(1735.450139 -7.532038306 0.9065662799)
(1739.738191 -8.721696901 -0.7814577194)
(1744.009149 -1.34810024 0.1938647067)
(1737.329077 -4.841778012 0.7372721972)
(1729.057926 -6.446866324 -0.9962621407)
(1732.769463 -2.633639872 -3.413667259)
(1727.395981 -1.255869556 -4.034193643)
(1729.419253 -5.516139575 1.148868056)
(1727.61389 -1.826979734 3.27428797)
(1732.13132 -5.426413134 -1.45109154)