/*--------------------------------*- C++ -*----------------------------------*\
  =========                 |
  \\      /  F ield         | OpenFOAM: The Open Source CFD Toolbox
   \\    /   O peration     | Website:  https://openfoam.org
    \\  /    A nd           | Version:  7
     \\/     M anipulation  |
\*---------------------------------------------------------------------------*/
FoamFile
{
    version     2.0;
    format      ascii;
    class       volScalarField;
    location    "0.175/fluid";
    object      p;
}
// * * * * * * * * * * * * * * * * * * * * * * * * * * * * * * * * * * * * * //

dimensions      [1 -1 -2 0 0 0 0];

internalField   nonuniform List<scalar> 
200
(
0.0010185331899436
0.00101620744255083
0.0010099788267691
0.00100846968700179
0.00100767777432002
0.00100913678552816
0.00101296873123594
0.0010145613414132
0.00101361113937251
0.00101181400187464
0.00100465849528185
0.000996463056054663
0.000991629547734786
0.000993507466639788
0.000998008501217972
0.00100372270134748
0.0010036927396143
0.00100688135226564
0.00101026646051703
0.00101104540321937
0.00101005475599196
0.00100756748501362
0.00100490971137985
0.000999577041620802
0.000997088995261856
0.000999342604708258
0.00100072892374836
0.000998651509308271
0.000996322380810346
0.00099759983614163
0.000998811820917388
0.00100063509894562
0.00100759478225014
0.00101270998430808
0.00101387114277856
0.00101263940641547
0.00101099508756637
0.00101152611320787
0.00101187465780334
0.00101286849812568
0.00101290581093051
0.00101270973935986
0.00100911196755903
0.000997764270215841
0.000990576012504665
0.000992607751033035
0.000994282369529119
0.000995805267958392
0.00100493249221015
0.0010160189709122
0.00102028557941944
0.00101795985853932
0.00101540907849328
0.00101101161716933
0.000998267041941317
0.000987796170923471
0.000986085329345136
0.000986202356923801
0.000985191417588059
0.000984391505815171
0.000985681442042323
0.000990119339803512
0.000993524332270907
0.000992800416324294
0.000994273003967273
0.000995870052396262
0.000994549387145263
0.000991057898684789
0.000988659694002758
0.000990042999393631
0.000991648538555579
0.000997390052522487
0.001019623869959
0.00103358862064748
0.00103246153718804
0.00103102758060697
0.00102192980325605
0.00100468236231238
0.000996473290440695
0.000997568310953484
0.000998804521424884
0.00100074789471436
0.000999570856623688
0.000998950081577088
0.00099960450338349
0.00100154111203038
0.00100491868718142
0.00100373019678808
0.00100343734112691
0.00100269907254602
0.000997987987513972
0.000994130269751513
0.000992127135431137
0.000994214583168991
0.000997995282372723
0.000999848925686915
0.000997474203569416
0.000993628537827259
0.00099174202826405
0.000996330288323005
0.00100441575842126
0.00100608764797351
0.00100352828996764
0.00100132139871715
0.00100325648792186
0.00100148914053936
0.000998817312319136
0.000997639013278718
0.000999718899520438
0.00100134452191059
0.0010009142325681
0.00100202440309259
0.00100387213319528
0.00100311344771749
0.00100061409294995
0.00099827536582359
0.000999247589533544
0.000998828371834658
0.000998345804173792
0.000999286631664752
0.00100203392755148
0.00100414558526619
0.00100391419879192
0.00100430095944675
0.001006901313702
0.0010097668110815
0.00100830902597603
0.00100707616778702
0.00100431309383087
0.000999187072216828
0.000994584866869839
0.000995356704927539
0.000996243882302362
0.000997468976713522
0.000999194680824459
0.00100220479705083
0.00100472984477149
0.00100326823738272
0.000999913355317018
0.000992031557324041
0.000989052342427293
0.000985820368384322
0.000986927693156951
0.000993599190678943
0.00100254991185795
0.00100078417834946
0.00100031360676601
0.000999254605841684
0.000991603022154289
0.00098451750188331
0.000980878847038066
0.000980638852745326
0.000984722091475991
0.000994407247382148
0.00100844491898493
0.00100858057004051
0.00101074373428022
0.0010093799529788
0.000999338524382154
0.000994166350651537
0.000992196348013041
0.000996661758245685
0.00100561431305343
0.00100964678174354
0.00100787294016551
0.00100419583666437
0.00100389471782259
0.00100583120144736
0.00101252381624355
0.0010177921995199
0.00101198659865156
0.00100733514577358
0.00100981730636237
0.00101237910785864
0.0010109037877385
0.001007460585983
0.00100072656420893
0.00100069243423899
0.00100003175912617
0.00100016570764032
0.00100054940134421
0.000997895094084089
0.000995992701805227
0.000993205319834483
0.000991415225347933
0.000992497518134829
0.000996996929780649
0.00100343745007358
0.00100770487679126
0.00101108363525051
0.00101658862241049
0.00101852873449198
0.00102126575842703
0.00101983434373253
0.00101029384546419
0.0010005137376119
0.000995292853582062
0.000992034076483804
0.000991497565928964
0.00108395117390938
)
;

boundaryField
{
    fluidSide
    {
        type            zeroGradient;
    }
    fluidBound
    {
        type            codedFixedValue;
        value           uniform 0.000989726393716258;
        name            HPCFluidP;
    }
    nullDims
    {
        type            empty;
    }
}


// ************************************************************************* //
