/*--------------------------------*- C++ -*----------------------------------*\
  =========                 |
  \\      /  F ield         | OpenFOAM: The Open Source CFD Toolbox
   \\    /   O peration     | Website:  https://openfoam.org
    \\  /    A nd           | Version:  7
     \\/     M anipulation  |
\*---------------------------------------------------------------------------*/
FoamFile
{
    version     2.0;
    format      ascii;
    class       volScalarField;
    location    "0.175/fluid";
    object      rho;
}
// * * * * * * * * * * * * * * * * * * * * * * * * * * * * * * * * * * * * * //

dimensions      [1 -3 0 0 0 0 0];

internalField   nonuniform List<scalar> 
200
(
0.00100450796196114
0.0010028079954944
0.000998253106544977
0.000997149268039725
0.000996569289907554
0.000997638001284502
0.00100044382826112
0.00100160909972672
0.00100091391167104
0.000999598506174435
0.000994353692145857
0.000988339794817779
0.00098478433512689
0.000986166054928304
0.000989474413103875
0.000993670275677141
0.000993648482446251
0.000995986692933402
0.000998466839750119
0.000999037243263641
0.000998311809764573
0.000996489099726775
0.000994541298974337
0.000990627065065453
0.000988799539800568
0.000990454934571935
0.000991472924590013
0.000989947401522436
0.000988236147776323
0.000989174905983539
0.000990065373456593
0.000991404019086716
0.000996509219960074
0.00100025523678659
0.00100110531243514
0.00100020397421163
0.000999000365512993
0.000999389194234945
0.000999644420968468
0.00100037189677626
0.00100039928142377
0.00100025574560502
0.000997619942135657
0.000989297561586176
0.000984010552132298
0.000985505853369411
0.000986737544705092
0.000987857108975905
0.000994557470649166
0.00100267862632277
0.00100579747177745
0.00100409778268317
0.00100223294553713
0.000999014196472555
0.000989670431459958
0.0009819670365221
0.000980707599166602
0.000980793731724076
0.00098004865659931
0.000979459026553092
0.000980409935938468
0.000983679069336425
0.000986185041006178
0.000985652600341948
0.000986735797239394
0.000987909890474973
0.000986938868035268
0.000984370205045242
0.000982604565927107
0.000983622925441192
0.000984804459237291
0.000989021530781186
0.00100531585281701
0.00101549625424804
0.00101467572165375
0.00101362944309574
0.00100698639755074
0.000994372408235663
0.000988340919608321
0.000989145432408416
0.000990053717682853
0.000991480828074579
0.000990616560994241
0.000990161048467457
0.000990642389663576
0.000992065366955491
0.000994545573171854
0.000993675540185477
0.000993462364084217
0.000992921586843971
0.000989464389169482
0.00098663002642515
0.000985156704520703
0.00098669189536585
0.000989470398510643
0.000990831796050823
0.000989086858585956
0.000986258650564293
0.000984870410928525
0.000988244556185376
0.000994180883077973
0.00099540665312734
0.000993529269667956
0.00099190969584961
0.000993329389593729
0.000992032360907142
0.000990070104516389
0.000989204415310935
0.000990731963551464
0.000991925541633517
0.000991609689871276
0.000992425019932695
0.000993780838319635
0.000993224708939145
0.000991391197302765
0.000989674606615719
0.00099038936231875
0.000990082691896214
0.0009897290837662
0.000990421000126622
0.00099243919227049
0.000993989432300788
0.000993820075595492
0.000994104291083536
0.000996011228501747
0.000998110951375427
0.000997042906941754
0.000996139428538062
0.000994112854620033
0.000990351510720059
0.000986968627048802
0.000987536070028949
0.000988187968860067
0.00098908799699885
0.000990355534842733
0.000992564903497068
0.000994416542108619
0.000993343552884815
0.000990879756168249
0.00098508597980264
0.000982893181917601
0.000980511272676835
0.000981327089341965
0.000986237225078126
0.000992813718151677
0.000991517089728287
0.000991171312028613
0.000990393452469279
0.000984769933870452
0.000979551063583171
0.000976866912156318
0.000976689008929069
0.000979700609439626
0.000986830548297433
0.000997138520403244
0.000997236307735963
0.000998820380436605
0.000997820534264825
0.000990459992856707
0.000986660569857015
0.000985213284030855
0.000988496820167385
0.000995072479362794
0.000998026954956725
0.000996726166960125
0.000994029640100867
0.000993807493507071
0.000995228407530028
0.0010001310336378
0.00100398498858403
0.000999738105256067
0.000996331287941854
0.000998148868904009
0.00100002446982535
0.000998943588969179
0.00099642022813432
0.000991480887643156
0.000991455702243279
0.00099097047394897
0.000991069583284163
0.00099135306377498
0.000989405776922655
0.000988011876894449
0.000985970603376151
0.000984659111547993
0.000985464756780458
0.000988790926095647
0.000993537795179104
0.000996684676323318
0.00099917537334157
0.00100323352578736
0.00100469437270661
0.00100672014964505
0.00100570312058897
0.000998784128403949
0.000991686313753642
0.000987934724164317
0.000985607581158157
0.000985308966758258
0.00105275119383537
)
;

boundaryField
{
    fluidSide
    {
        type            calculated;
        value           uniform 0.00100450796196114;
    }
    fluidBound
    {
        type            calculated;
        value           uniform 0.000983820339286108;
    }
    nullDims
    {
        type            empty;
    }
}


// ************************************************************************* //
