/*--------------------------------*- C++ -*----------------------------------*\
  =========                 |
  \\      /  F ield         | OpenFOAM: The Open Source CFD Toolbox
   \\    /   O peration     | Website:  https://openfoam.org
    \\  /    A nd           | Version:  7
     \\/     M anipulation  |
\*---------------------------------------------------------------------------*/
FoamFile
{
    version     2.0;
    format      ascii;
    class       volScalarField;
    location    "0.007";
    object      internalT;
}
// * * * * * * * * * * * * * * * * * * * * * * * * * * * * * * * * * * * * * //

dimensions      [1 2 -2 0 0 0 0];

internalField   nonuniform List<scalar> 
546
(
303.1483764
301.9006234
298.6314091
300.4165964
300.5633812
301.0065823
299.0326195
299.6324245
302.3028422
302.6557581
303.539932
305.215591
303.7679033
304.9290671
303.3549625
301.908543
301.4424628
303.0485674
304.4950272
304.9087317
298.9325138
299.9373284
302.595065
301.4015535
300.4039519
301.5122579
302.709228
303.7169475
303.9335415
301.8153362
301.6799723
298.9985133
297.9550963
299.3230932
299.2656213
299.7211675
299.5433674
301.0906837
301.322287
302.7211451
304.4628105
303.5858176
302.0445404
302.2638323
302.0621535
300.2462558
299.6550034
297.8851046
296.6029928
296.9805039
296.8325577
300.4990673
301.8788427
301.1319503
303.0825456
305.5533349
304.4645012
302.2601146
303.0031496
301.0481908
300.1074483
299.6175185
301.5481611
302.413328
302.0193926
303.478456
301.3924129
302.8980328
301.8012759
300.1121232
302.6639596
302.0016476
300.8510609
299.3397582
297.5994594
295.4478807
296.3227693
299.1240764
300.8917571
301.6315676
305.6257649
305.6368008
305.6609884
304.5003186
302.2934944
302.6259249
302.445928
300.5555887
300.5522885
299.1448289
299.0164688
298.9447531
300.2541182
300.2777725
301.1020005
301.5364645
303.9708307
301.6677114
299.6365252
298.3828364
299.4838564
301.8157948
301.8237691
302.4757765
302.153242
303.615194
305.3134467
306.0752563
306.3538574
305.6257203
303.2217128
303.3994898
301.9634654
304.2499101
303.6492047
302.3645307
300.9660463
301.9033998
302.2603005
301.3669528
300.8411615
302.7895028
303.4285882
303.1997234
303.1932656
301.348946
302.0329479
302.4790609
302.6318078
303.5756246
306.7097386
307.9820286
306.0428299
304.5967016
305.1629981
304.2418439
306.2707969
305.8571387
305.8890463
306.4821994
305.2787664
301.869691
300.7086916
301.3662181
301.2743618
300.5076822
300.1068461
302.1462875
303.798836
303.4681156
302.544248
301.1032519
301.7413623
299.8010082
300.7421883
300.2762628
300.1515572
300.0244719
299.2236562
298.2709725
296.554598
296.3883357
298.5186688
298.4177304
299.4134138
297.9204764
297.7532224
297.3041385
295.942036
295.4102633
296.4595971
297.6526425
296.2774261
297.8465311
297.1811024
297.7281198
298.3635807
299.0382454
299.5411162
297.9857428
297.5330519
297.7236794
298.0622135
298.0643854
298.3046961
301.5742394
302.5368144
299.3478451
300.3590821
301.255552
302.3666796
301.4896899
300.8236835
301.0621106
302.3439888
300.7636585
301.3679072
299.7779118
298.6521331
298.2120063
301.9395119
303.7018671
304.8284948
303.991364
302.5765524
301.7646928
302.5518746
304.7021897
302.9416602
303.6603984
300.952729
299.4678986
296.10076
294.4989008
294.5121679
294.1988254
295.6302414
297.0063268
296.7432945
298.710955
300.9021439
300.5207413
299.87247
300.0088245
297.9772846
299.8974365
301.6309033
303.0556715
302.103857
300.2204864
300.3420321
300.2474908
300.3769418
301.7480247
301.7971778
300.0612184
298.8368173
299.8977913
300.8864747
298.1452699
301.6893357
299.0237361
299.5480435
297.7051078
297.8858626
295.2340339
296.3395748
296.4715078
298.6124366
299.9114465
300.902707
300.8596389
300.9383689
298.4952763
298.7520833
299.4865347
299.9557911
299.6037409
299.8439564
300.6386574
300.9450873
302.382469
301.2537288
301.3523426
303.3877983
304.3355558
303.854661
301.1590184
301.2113458
301.4842656
300.9566408
299.5177973
302.0978726
302.6379788
302.729558
303.1561814
302.7754203
301.4908686
300.1818935
300.6330141
301.0121007
301.0775807
299.2526764
297.6125056
296.2294972
296.8718072
296.0241001
297.3629726
297.2029131
297.2077543
300.10989
302.3153945
301.3282866
302.6356579
300.628363
301.7643289
302.3269757
303.5743104
305.2351746
305.0773092
297.6743035
298.0819928
298.4770751
301.9706737
299.6159207
300.1055833
299.6189783
300.13456
301.0804532
300.6355835
296.9586123
298.4361221
299.683454
298.7834382
302.881941
301.880057
301.7835658
301.5684099
300.8014578
299.3825546
301.9833337
301.465444
301.7824411
300.9876644
302.090118
302.3008041
302.1609898
303.4852147
301.5863757
301.5635101
302.6320403
300.4275384
301.9883196
299.9330592
298.8062991
298.0166016
297.5046017
298.157067
299.8098837
300.1133149
297.3951143
299.0905283
299.506871
299.4679833
299.8178824
299.8636825
299.2272205
299.8142526
300.2166423
298.6403344
300.4917916
299.849902
301.2088404
299.4254462
299.0467248
300.2843999
299.176957
298.1301401
296.5135118
294.2187463
306.144829
307.7329832
308.2941116
307.9106856
308.5613229
308.1165167
304.9574886
304.0078022
302.6079415
303.7665359
302.2471058
301.5260453
302.0918213
301.0424026
302.0674335
304.6747361
304.4602585
305.0279644
302.5815419
304.4994393
303.8515342
302.6412128
301.7059689
299.6138977
301.4823752
297.3174916
300.1022325
300.2104451
299.1391288
299.5275206
299.1596458
299.57055
300.1461583
300.0528766
300.506492
301.7432857
301.0237005
301.1785784
301.8917488
299.6712305
297.4861779
299.0286722
299.6865005
299.8707899
300.916295
301.9369615
300.7723102
298.2347304
299.7679836
302.1724566
305.1738408
304.2692781
304.2622662
305.3749666
305.9396143
306.3077583
302.5197582
301.5464675
304.8545297
303.9249972
303.1791468
305.5805884
303.9131209
305.3363806
303.0035578
299.8630006
306.9217221
304.4875384
301.5842073
302.0709845
300.4032993
296.9505382
298.5621942
300.2721236
297.9259421
298.1053445
298.8123612
298.6771319
297.7528888
298.3498599
300.49902
299.4453102
299.0010209
300.6441462
302.5267392
300.3086787
296.2426792
298.1708795
299.8063126
301.1627068
298.188173
298.745666
298.1383998
296.3146578
295.6112787
297.4969082
297.5119703
296.2918157
298.7154327
298.4752403
299.3649603
298.6496594
298.3572509
300.1841663
300.660084
300.2058926
298.7912823
301.1633937
299.4859757
300.0080752
297.0254166
299.8259866
297.4639791
296.8195628
296.8147716
298.4474023
298.3396451
296.9757949
297.6639417
297.8440986
298.1598084
299.102385
299.2902236
299.2176228
298.7086334
299.543487
298.8168614
299.5204122
299.7508035
300.2931207
300.8548151
302.4523554
301.0154139
301.2295925
301.7860374
302.1440671
303.8183318
302.6452559
304.419235
303.5759305
302.6254757
301.3383297
301.2906225
301.798927
301.4948064
301.5478716
304.4462745
304.0617145
303.4811701
302.4312744
302.8571794
304.4206852
303.4421415
301.5649684
301.3056357
302.4154761
297.333158
299.1738404
299.636576
300.9133428
297.7372812
294.7367178
296.2389388
298.9018345
298.9065034
299.2973187
299.1129357
299.2109311
297.746133
295.7166201
297.8876384
298.604972
298.5979637
299.6556296
297.6093869
298.4083402
294.5123944
295.3529468
296.9871335
299.5577291
299.3824677
297.1164373
298.2961773
299.0274677
301.5820853
298.6682244
)
;

boundaryField
{
    flow
    {
        type            calculated;
        value           nonuniform List<scalar> 
48
(
303.1483764
298.9325138
304.4628105
300.1074483
305.6257649
299.4838564
300.8411615
305.2787664
296.554598
297.5330519
301.9395119
300.9021439
301.6893357
300.9450873
301.0121007
297.6743035
301.9833337
297.3951143
297.3951143
299.0905283
299.506871
299.4679833
299.8178824
299.8636825
299.2272205
299.8142526
300.2166423
298.6403344
300.4917916
299.849902
301.2088404
299.4254462
299.0467248
300.2843999
299.176957
298.1301401
296.5135118
294.2187463
294.5123944
295.3529468
296.9871335
299.5577291
299.3824677
297.1164373
298.2961773
299.0274677
301.5820853
298.6682244
)
;
    }
    obstacle
    {
        type            calculated;
        value           nonuniform 0();
    }
    frontAndBack
    {
        type            empty;
    }
    procBoundary2to0
    {
        type            processor;
        value           nonuniform List<scalar> 
31
(
299.4706776
301.0020719
302.6149637
303.1473639
300.9327412
301.1612929
302.6827801
300.6057654
298.5179107
299.4265588
301.6552816
302.6385708
303.2552919
302.9815482
301.846324
304.7842089
306.2478059
304.3928869
303.7901209
302.8571832
303.6011198
306.8589027
306.6922775
307.8369076
308.5355559
306.5452047
304.8578059
304.8865918
304.5163688
304.6638595
304.6638595
)
;
    }
    procBoundary2to3
    {
        type            processor;
        value           nonuniform List<scalar> 
19
(
309.9046392
305.0300499
299.0785684
302.2148437
303.1459206
308.9931761
298.3391984
299.9802187
298.9262063
297.5067605
300.2527491
299.1185574
300.7873189
301.6752221
301.8365964
302.2637606
301.1932554
296.5698165
299.6298614
)
;
    }
}


// ************************************************************************* //
