/*--------------------------------*- C++ -*----------------------------------*\
  =========                 |
  \\      /  F ield         | OpenFOAM: The Open Source CFD Toolbox
   \\    /   O peration     | Website:  https://openfoam.org
    \\  /    A nd           | Version:  7
     \\/     M anipulation  |
\*---------------------------------------------------------------------------*/
FoamFile
{
    version     2.0;
    format      ascii;
    class       volVectorField;
    location    "0.007";
    object      momentum;
}
// * * * * * * * * * * * * * * * * * * * * * * * * * * * * * * * * * * * * * //

dimensions      [1 -2 -1 0 0 0 0];

internalField   nonuniform List<vector> 
546
(
(0.003498689288 0.0007153557676 0.0005319291395)
(0.0110218597 0.0004719204455 0.0004550433135)
(0.008665333896 0.0005183922411 0.0003444000128)
(0.008120359505 -0.0001223434819 0.0009105445443)
(0.006083909706 -0.0003216724461 -0.0002837131501)
(0.007348380295 0.000159987322 -0.0002014707847)
(0.008253941157 0.001485277354 -0.0006998072043)
(0.00666142093 -0.0004124705543 1.159344579e-05)
(0.006942563208 -0.0001426631529 0.0003023252017)
(0.00617835479 -0.0004852261949 -0.0008142124564)
(0.00697634843 -0.0002037903858 -0.000122363457)
(0.0109653039 -0.0002745983674 0.0002357552538)
(0.007846955741 -0.0002642488175 -0.0007451697093)
(0.006497765174 -0.0001940583933 -0.0003603396484)
(0.008754580952 0.0003827347956 0.0001638148709)
(0.01180718529 -0.0005841898448 0.0004347763793)
(0.007557200601 0.0001880728066 -0.0007462178513)
(0.006105807762 0.0001264830934 -0.0005853986078)
(0.0089510921 0.0002838473745 -0.0001231575712)
(0.009264410705 7.214675013e-05 0.000602648941)
(0.004094916988 -1.567197373e-05 -0.0003468711424)
(0.007672117608 0.0001618495788 -0.0001685391382)
(0.009173549243 -0.000533131467 -0.0003638294326)
(0.00718213187 0.0002308191922 0.0002704760534)
(0.01380445927 -0.000444770376 0.0004839828983)
(0.013290579 0.0001965683366 0.0007548461832)
(0.007714442018 0.0002432332918 0.0001558898195)
(0.007461651748 -0.0004069588461 -0.0009584327983)
(0.01314184121 -0.0007736013896 -0.0004573104871)
(0.01042473074 -0.0001174551882 0.0004887869093)
(0.01009320924 2.740773411e-05 0.0004502728725)
(0.008297353781 0.0002801415038 0.000645898514)
(0.01055381877 -0.0002434118933 0.000424273546)
(0.01003311883 -0.0001631855053 0.0002256907571)
(0.007548157392 -0.0002517378949 0.0009685394792)
(0.01295206861 -0.000166175542 0.0007707336826)
(0.007638183188 2.862201916e-05 -0.0007078169202)
(0.008136207093 -0.000619696622 0.0008358575458)
(0.008642561672 6.568546961e-05 0.0004692822494)
(0.006961052123 0.0001542177747 -0.0004922281095)
(0.007576927411 -2.431059349e-05 3.623889975e-05)
(0.008438616589 1.660520917e-05 2.513331823e-05)
(0.01076997404 -0.0003811977091 -0.0007862650229)
(0.006728767598 -0.0005596971271 -3.622896483e-06)
(0.005923817527 0.0004260181056 0.0001013806546)
(0.007295269068 0.0001340550025 -0.0002066506369)
(0.006223685578 1.009925988e-05 0.0001793241065)
(0.006552884104 0.0001049510733 0.0002037740568)
(0.005459692656 0.0003188071262 -0.0003083139486)
(0.004432005693 -0.0007545100835 -0.000157898021)
(0.009876462902 -0.0004780187258 0.0002122602553)
(0.008324125853 -8.002929986e-05 -0.0006868409787)
(0.007263224763 0.0002896280853 0.000839182574)
(0.007080077882 0.0001964926765 -0.0003362624996)
(0.004260051384 -0.0001862577089 0.0007449210404)
(0.009512016794 0.001051803847 -0.0002917019127)
(0.005967057361 -0.0002268446003 6.648729084e-05)
(0.005906886769 0.0001062440088 7.403317348e-05)
(0.006571362356 0.0002830081853 -7.644998945e-05)
(0.005102285063 0.0004306788991 2.849677114e-05)
(0.007999443795 -0.0003553003331 0.0003977878763)
(0.00745928777 0.0005795901971 -0.0002026444555)
(0.009374066014 -0.0004862171232 0.0004062668694)
(0.009140115865 -0.0001492126003 0.0002384267146)
(0.008700928919 7.877076058e-05 -0.0005836217294)
(0.007488686662 -8.525803228e-05 0.0002361402122)
(0.01041267427 0.000532227645 -0.001265909581)
(0.005337765861 0.0001716547413 0.0004417080704)
(0.007090477003 -0.0003353825091 0.0002119841773)
(0.003779454042 0.0001964431009 1.177770304e-05)
(0.008966248259 -0.0005947268907 0.0003606152808)
(0.006690012566 -0.0003572073365 -0.0001359712391)
(0.007956410213 -0.0005485993008 0.0003132563009)
(0.01211050024 -0.0004099538366 -0.0004303955646)
(0.008030299775 0.000839288859 2.332920567e-05)
(0.005714391515 0.0002889817468 0.0004177574125)
(0.008600931056 0.0004996118043 0.001265889636)
(0.005015789488 -0.0002451179645 7.50143334e-05)
(0.007344608018 -0.0006112649458 0.0004612558728)
(0.01129871727 0.0008804764567 0.0006656468274)
(0.007319702185 -0.0006358650565 0.0001863760117)
(0.009344057469 0.0001922673748 -0.0002342820378)
(0.005351236245 0.0001457251785 2.108699024e-05)
(0.009482536977 -0.0005187166322 0.0007822189928)
(0.008472439712 0.0002273740863 -6.984945531e-05)
(0.006153472459 -8.879373389e-05 0.0003768459756)
(0.006143485471 0.0001088858778 8.273762555e-05)
(0.01050710496 -0.001100963046 0.0003378141257)
(0.008911901608 0.0006250346541 -0.0002172097442)
(0.00796189408 0.000290334939 -0.0005672617709)
(0.01002713325 -7.316619022e-05 -0.0001207216395)
(0.007807115641 4.012034109e-05 -6.786684924e-05)
(0.007710528275 -0.0002712198584 0.0005911945995)
(0.01278405894 0.0006534535133 8.651002214e-06)
(0.006009004491 -1.741148446e-05 -0.0001474957638)
(0.01057562075 -0.0007470567709 -1.772077247e-05)
(0.008248483698 -0.000766550167 -0.0005802451439)
(0.01543871355 -0.0006959314172 -3.083449255e-07)
(0.008266232695 0.0009815489352 0.0007241702536)
(0.003984328114 0.0003283501172 7.231285606e-05)
(0.004609925143 -0.0001242691605 6.589510584e-05)
(0.007268497375 0.0005903599997 1.585200944e-05)
(0.007772443304 0.0002728248246 0.0001772759982)
(0.005668475349 0.0002821180845 0.000243054888)
(0.01060778534 -0.0005701739249 -6.649878944e-05)
(0.01003140645 0.0002376760708 0.0006616781015)
(0.01233145688 -0.0003604186125 -0.0007266178976)
(0.006714846607 0.0008091482112 0.000585209494)
(0.01001436621 -0.0001470951301 -4.821601953e-05)
(0.005807047177 -5.198709082e-05 -0.0001329640809)
(0.01099200625 0.0005049200371 -2.855893663e-05)
(0.008825048118 1.880077889e-05 0.0007127247293)
(0.006640249751 0.0002212049296 -0.0009746071637)
(0.009099076896 0.0003296798816 0.000768662782)
(0.00644527066 8.200438989e-05 -6.940508094e-05)
(0.008100854014 -0.0001091990071 -0.0007142483612)
(0.006804342028 0.000541423732 0.0005611372812)
(0.005450170131 -0.0002736577749 0.0002988067404)
(0.005538917132 -2.037473161e-05 -0.0003708737599)
(0.004373892906 0.0004197356244 0.0001491152807)
(0.007340783651 0.000387887999 -0.0006261308629)
(0.008325547717 -0.0002415535989 -0.0006512778929)
(0.01479295047 0.0002231200751 -8.534760434e-05)
(0.00722219112 -0.000824458085 -0.000521722331)
(0.005199117008 -0.00010283893 0.0003645875355)
(0.009332566914 -0.0004176605373 -6.999838301e-05)
(0.009441006097 0.0008392604893 -2.867722082e-05)
(0.01301707512 -0.0006974947523 0.001064090712)
(0.005613144688 0.0001505226762 -8.081646639e-05)
(0.006420551621 -0.0005408756874 0.0005291044652)
(0.004749125278 -2.614767405e-05 3.450384588e-05)
(0.007042742693 1.386896214e-05 0.0001223117016)
(0.005772037756 -0.0003402919795 -0.000377106741)
(0.003758214946 0.0001710927471 -0.0004065700289)
(0.008236907923 -0.0002485961243 0.0006944506151)
(0.007515972825 -0.0006308968451 -0.0003550740298)
(0.009890600669 0.0004526267084 -0.0004531505112)
(0.00755144334 -0.0005031688536 -0.0002638569139)
(0.01576707267 0.0006940945088 0.000265161824)
(0.007978532841 3.655704744e-05 -2.579260764e-05)
(0.006898750308 0.0007225988907 -0.0007042635183)
(0.00790929894 0.0006218155608 -0.0003652259045)
(0.005955331612 -0.0003624231323 0.0001742183284)
(0.008910350161 5.596376976e-07 0.0002026901606)
(0.007406673389 -0.0004573026817 8.801265534e-05)
(0.005097015431 -0.000359692379 0.0001268474532)
(0.01069762412 -0.0004420460708 -5.715537143e-05)
(0.01409097114 -6.105384058e-05 0.0004730106173)
(0.005755931026 -0.0001869678615 -0.0006032257096)
(0.007582841693 8.219999503e-05 -0.0003729803998)
(0.008814816543 -0.0006385227748 -1.050575386e-05)
(0.01134732193 0.0005775503408 0.0008136921469)
(0.01378508254 0.0006416744026 -0.0008164008873)
(0.008187550272 -0.001321440675 -8.127746233e-05)
(0.01164796205 -0.00049889104 0.001018483329)
(0.006640867909 0.000293297706 -0.0001294572749)
(0.007199188116 6.952663695e-05 -0.0004624116996)
(0.01100561232 0.0005298559455 -0.0007216602787)
(0.01236221239 0.0008662900675 0.000740394471)
(0.007468265083 0.0004358426658 0.0004522233187)
(0.00599557266 -0.0002886534125 0.0003702317153)
(0.008735656958 0.0003671592988 0.0003482038517)
(0.008792798267 -0.0003839852064 0.0001474367303)
(0.01121000538 0.000195610025 0.0007936832176)
(0.00813948553 0.0001953249385 0.0001283098157)
(0.005646470869 0.0004968778111 -0.0001264825958)
(0.007960338914 -6.657353135e-05 5.400309273e-05)
(0.005713069723 -0.0003626988513 -0.0008930461942)
(0.01030387779 -0.0002994309849 -0.0006265973261)
(0.008576662657 0.0004500168746 -9.061783616e-05)
(0.00936581019 0.0003575555841 0.000142518466)
(0.009526153759 0.0004684257617 -0.0001548092826)
(0.00836109513 -0.0004726243093 0.0002126256838)
(0.008198996251 2.956945848e-05 0.0001010930605)
(0.008984967581 0.0007366937242 0.0002602257039)
(0.0100082303 0.000568587957 -0.0003244468751)
(0.006844779405 1.789414801e-05 -0.0003291431498)
(0.006486706883 -9.215998129e-05 -0.0003838059852)
(0.007368241058 -0.0002476263893 0.0001398149779)
(0.005363163439 -0.0002195897854 -0.000115945045)
(0.008635986065 0.001444704352 1.093532318e-05)
(0.007805135893 9.08665709e-05 5.526514651e-05)
(0.006688571087 0.0003976315646 -8.967226465e-05)
(0.004564101313 2.464606627e-05 -0.0004685571903)
(0.006969437339 -3.460910113e-05 0.0001253796985)
(0.008640978169 -0.0007636694513 0.0002568553888)
(0.01347199602 4.306967719e-05 8.787875632e-05)
(0.007053565847 1.11219908e-05 0.0004779589225)
(0.009708137296 -0.0005353484722 -0.00102968706)
(0.01206748431 0.0003145443658 -0.0004361966083)
(0.01330135942 6.437927096e-05 0.000521517161)
(0.005582074733 0.000915731154 0.0009675895574)
(0.009520951036 -0.0001967430172 -0.0003999897482)
(0.007050323115 -0.0005804978875 -0.0004944412552)
(0.0092117784 0.0005259572856 0.0001514102021)
(0.008070520094 5.58565405e-05 -0.0006064585387)
(0.005502648948 0.0002828473229 3.872525328e-05)
(0.007740684555 -0.0001931216066 -0.0001358236403)
(0.009993317815 0.0004686073212 1.826195891e-05)
(0.005736258033 0.0003359858191 4.158699339e-07)
(0.007130095539 -0.0004259120709 -0.0002345531536)
(0.006952073588 -0.0004960335458 -0.0002163048336)
(0.008099619831 -0.0004222467032 -0.0001040975733)
(0.007250410987 4.370474113e-05 8.950731034e-07)
(0.007362086726 0.0003147199138 0.0001913776226)
(0.007769516834 0.0006619637694 -0.0005458455268)
(0.005488317598 -0.0001057055443 -1.667953366e-05)
(0.01152523321 -0.0007302600439 0.0002349464146)
(0.006234347274 0.0001382625145 0.000303607992)
(0.009719088912 0.0004537826762 0.0002740404004)
(0.005642727584 0.0002329304241 0.0003037726562)
(0.005185672937 0.0002359912881 -0.0004423268805)
(0.008037587434 -0.0001632473652 3.539467358e-05)
(0.00979764817 4.380643875e-05 -0.0001203614757)
(0.007423989722 -0.0003673804691 -3.791934765e-05)
(0.003526110296 6.260345849e-05 -4.88312054e-06)
(0.007962742288 -0.0002747057295 0.0002427169841)
(0.009908172878 -3.824527767e-05 0.0003683794781)
(0.007790652073 -0.0002869644779 0.0003324807452)
(0.01184795756 -0.0003661347098 0.0004373334809)
(0.007107711393 -5.09317556e-05 -0.0002008633161)
(0.006829517002 -1.565519134e-05 0.0003598065511)
(0.0114786044 0.0005449564262 0.0009010885968)
(0.01019498082 -0.0002077920508 -0.001011916664)
(0.01442395276 9.59753855e-05 0.001119626237)
(0.008511371507 -0.0001169837029 -9.04904487e-06)
(0.005013661976 -0.000541244606 5.70564338e-05)
(0.0122632669 0.0007263716507 -0.001168167221)
(0.006769276886 -0.0001087870519 2.939525031e-05)
(0.009208953648 -2.401598869e-05 -0.0004549540774)
(0.01197370459 -0.0003385809902 6.727803918e-05)
(0.006446296234 -0.0002736901615 0.0001756104298)
(0.0119287252 -0.000990981545 -0.0001536091453)
(0.01165689156 -4.991317645e-05 -0.0002171271918)
(0.008113514567 -0.000270098522 -4.057696752e-05)
(0.004308866962 0.0003179871789 -0.0001298029382)
(0.005246275218 3.069909745e-05 0.0004231435596)
(0.009441958031 -0.0002953216507 -0.0002810542857)
(0.0039153542 -0.0002478701052 8.535975976e-06)
(0.007928038187 0.0002623779211 -6.386822652e-05)
(0.006847938904 0.0003011648463 6.533346013e-05)
(0.006253082311 0.0002120633218 0.0001168040746)
(0.01225626425 -0.0006051887779 -0.000346579392)
(0.009878649351 -0.0005280298975 -0.0004092932489)
(0.007633847271 -0.0001728407152 0.0003585997181)
(0.007364887454 -8.411416955e-05 0.0002730849927)
(0.01151030682 0.0004991181063 5.009684364e-05)
(0.009938289149 0.0001329932181 -0.0001002339984)
(0.008740833391 -0.0004152541943 0.0005865563376)
(0.009517840657 0.0006411989128 -0.0009093633817)
(0.009340336723 0.0005869238281 -0.0004927255872)
(0.0130242495 -0.0007154742647 -0.0008814038731)
(0.009090976776 -0.0001584946616 -0.0002045845282)
(0.005640524827 0.0002631765566 -0.0002298680567)
(0.009186590765 0.0001429266827 -0.0001070947682)
(0.006835022205 0.0004330729901 0.0002503071244)
(0.006962180798 -0.0005127431509 0.0009781195032)
(0.008236676075 -0.0004030809736 0.0002419056668)
(0.01218990136 0.0007151559975 0.0002591288929)
(0.007763689166 8.086145783e-05 -3.131661995e-05)
(0.005957846002 0.0003735765351 -0.0001948236613)
(0.009459193488 6.368590205e-05 0.0002705306854)
(0.006117117441 -0.0003020606871 -0.0005770904086)
(0.004017566505 -0.000101937878 0.0001998803209)
(0.01045460357 -0.0001470346781 0.0003220121089)
(0.007581401015 0.0001712127738 0.0003417285857)
(0.009879662568 0.0003416583655 2.713703948e-05)
(0.008396212637 0.0003538961655 0.0008442778898)
(0.007013654769 -0.0007536756913 -1.272160599e-05)
(0.008887653642 -0.0002019883907 -1.08369725e-05)
(0.00839832758 0.0004614025328 0.000131100357)
(0.005624179258 -0.0006262380823 0.0001487478103)
(0.007815746811 6.363550137e-05 -0.0003395571345)
(0.01329535295 -8.080205124e-05 -0.0009324093449)
(0.005464763246 -0.000305301359 0.000506564723)
(0.009432211745 -0.0003301162844 0.0004924199303)
(0.009309074891 0.0002961558967 0.0003151648894)
(0.01182004633 0.0002533147063 -0.0004942880851)
(0.004489322191 0.0002736279851 0.0008490355629)
(0.01222043706 0.0002302845737 0.0004258028403)
(0.006237721538 0.0006288490753 -7.472731554e-05)
(0.00689657274 -0.0006543087006 0.001105746713)
(0.0052154365 0.0003237425287 0.0002168611585)
(0.003711625994 0.0003100292266 -0.0001586341991)
(0.005923888144 0.0003662965294 5.772565001e-05)
(0.00321145145 0.0001145748623 0.0001759712823)
(0.0114560698 -0.0003847556379 0.001763009538)
(0.005667033875 -6.187049363e-05 -0.0005824404126)
(0.009060075797 0.0009349298331 0.0002078947595)
(0.01067739806 -0.0002293797947 -0.000210387023)
(0.004400346608 6.722110826e-05 0.0005951935391)
(0.007729735954 1.954627665e-05 0.0002728579921)
(0.009430399034 -0.0002068656179 6.492660431e-05)
(0.008428224069 0.0004020408935 -0.0001553594116)
(0.006276514698 -0.0003606396139 7.628166002e-05)
(0.008178720508 -0.0003121063434 -0.0003280123316)
(0.01065795609 -0.000209610449 0.0005195503645)
(0.006458943123 0.000843076186 -0.0001038154143)
(0.005482462551 0.0002609056613 0.0003274971133)
(0.006902359298 8.434715741e-06 0.0002428430093)
(0.007425848428 0.000585891219 5.205011254e-05)
(0.009104099598 0.0008718301147 0.0007347961657)
(0.01216767644 0.001171643 -0.0001660529468)
(0.009012256147 -0.0002147342624 -0.0005250783577)
(0.007321758912 0.0002678888048 -0.000676293108)
(0.01223920298 -0.0002910883055 -0.0002788960506)
(0.01377492904 -6.879859459e-05 -0.0008200723586)
(0.01048187287 -0.0001899397255 0.0002588970644)
(0.004489883258 -0.0004430364923 -0.0007541916742)
(0.008253650466 -0.0004426216635 -0.0003244161472)
(0.005964327678 -0.000116484737 -0.0002262534483)
(0.007553483876 0.0004094136566 -0.0001542856735)
(0.01091865989 1.376709042e-05 0.0005987126856)
(0.009470594272 0.0001931746156 -0.0002826331686)
(0.00790348257 0.0004535888522 0.0001606256157)
(0.01048867643 0.0008445217364 0.0002134309499)
(0.007974620858 0.0003923490065 -0.0003461096205)
(0.008933847702 8.62678217e-05 -0.0001396666797)
(0.005751467886 -0.0004668506052 -0.0002463802112)
(0.005979245119 8.937760642e-05 0.0001727943032)
(0.004149591233 -0.0001797217563 -0.0003064582684)
(0.009005467005 -0.0002236802241 0.0004817230256)
(0.008871057273 -0.0003020488571 -0.0001306267189)
(0.01118324227 -0.0001818960439 1.582526151e-05)
(0.00872425038 0.0001413236598 0.0003441323438)
(0.007000089989 0.0002581553106 0.0002541594928)
(0.009942343807 0.0006027665307 -0.0003691799811)
(0.005619448236 -5.439984196e-05 6.524043184e-05)
(0.008666559474 -0.000169757061 -2.319805789e-05)
(0.008107932956 -0.0003422598293 -0.0005004862059)
(0.007680977889 -0.0002467876404 -3.603167045e-05)
(0.009677093871 -0.0002046393808 0.0002093128494)
(0.006973731198 0.0001538342281 -0.0002932438531)
(0.009669128841 0.0003749944155 -6.496353789e-05)
(0.01234272356 -0.0001262671167 -0.0005730769209)
(0.01258880357 -6.41553982e-05 0.0008346782744)
(0.004942781408 -0.001172525717 -7.292884626e-05)
(0.005490253453 0.0006395278444 -0.0003383699342)
(0.008934845261 1.992961709e-05 0.0006206107727)
(0.005267201124 7.570831633e-05 -0.0003848259531)
(0.008534581857 -0.0004685001173 0.0001152635371)
(0.002780962502 -1.712034505e-05 0.0002530480961)
(0.01032348976 0.0001817227296 0.0009985953517)
(0.008568248671 -4.745667937e-05 0.0008796376113)
(0.006914006352 -0.0001835209339 0.0003567550975)
(0.009188147109 0.0005642256552 -0.0002751768155)
(0.004648407954 0.0002521497451 -0.0002197848745)
(0.0172944258 0.0002697643641 -0.0003238997279)
(0.01046923121 0.0003856261747 -0.0006474456012)
(0.007668681993 -0.0005667095268 -0.0001698463527)
(0.009435481927 5.683792186e-05 0.0005238967412)
(0.01143723443 0.0005133465271 -1.090415208e-05)
(0.007621737412 -0.0005329761247 0.001031844139)
(0.006430811756 -0.0001089868084 -0.0003269252577)
(0.00735667996 -0.0001379290049 -0.00038962564)
(0.005654941913 0.0003073304546 -0.0001721609704)
(0.007895139569 9.454445721e-05 0.0002519917816)
(0.005435083105 0.0004438306203 -0.000472307252)
(0.006833921453 -0.0005491764774 -0.0003101649763)
(0.01631067771 -0.0007331999053 -0.0005407825642)
(0.01109899265 -0.00106727094 0.0007642343478)
(0.009083064406 -0.0004465405772 -3.767574148e-05)
(0.00707336995 0.0001935022579 -1.642974081e-05)
(0.007123615418 0.0003179483132 0.0004106377249)
(0.00788138469 0.0004116587135 -0.0002667268467)
(0.01436975945 -0.0002290979726 -0.0005257636865)
(0.009576824517 0.0004313162945 -0.0002059274853)
(0.01326043213 -0.0002258782321 2.653631815e-05)
(0.004153807481 -4.253768291e-05 0.0002847150951)
(0.003126215435 0.0003137274954 0.0001093974384)
(0.007865599077 0.0004489197192 0.0001970934814)
(0.007131580549 0.0007916630391 0.0001171683511)
(0.007868365141 0.0004198758365 0.0001768336074)
(0.0116895206 0.0001206365125 -0.0004150361817)
(0.008973889302 -0.000856567262 -0.0001598119788)
(0.005367250072 0.0008400468129 0.0001677995007)
(0.01027822399 0.0004441045811 3.439702347e-05)
(0.005891478366 -0.0001448578043 -6.787263868e-05)
(0.01427402201 -0.0015576014 0.00018502838)
(0.01539284016 -0.0001715632746 -0.0003760493401)
(0.0083202241 -0.0003307131761 -0.0003272052719)
(0.0115591136 0.0003788000698 0.0003159831426)
(0.004966653516 -0.0002323747929 0.0003481848863)
(0.004993848236 -0.0001353551785 7.99741019e-05)
(0.0111309654 -0.0004782412544 -0.0006691769437)
(0.00683665625 5.364091137e-05 0.0003730870204)
(0.01172585698 -0.0007012464378 0.0004212560852)
(0.01383989545 0.0002964844533 -0.0008116854939)
(0.01243939128 -5.529460537e-05 0.0005741728148)
(0.006678655955 0.0003813676299 7.139779351e-06)
(0.01031084786 0.000525733002 0.0004836909478)
(0.008488250268 -0.0007605661362 -2.817306693e-05)
(0.01135810395 -0.0003718803168 -0.0004010958508)
(0.00936677512 0.000360258753 -0.0004753055304)
(0.005205941048 -0.0003901050231 -0.0001597399944)
(0.009876283653 -5.259397408e-05 0.0002521876686)
(0.004162244811 -0.0002543195001 0.0001566944142)
(0.009780576547 0.0001252422583 -0.0006210476336)
(0.00635627853 -0.0006652455463 -0.0001193988605)
(0.01042736718 -0.0001472489728 0.0009600094319)
(0.01121282579 0.0009991953898 -0.0006509357857)
(0.01248983527 -0.0001124774567 0.001362368573)
(0.002545998188 2.813405056e-05 -0.0001895550271)
(0.008296886116 0.000591528999 0.0003629997693)
(0.01001891157 -0.000341613137 0.0001795242113)
(0.01120296471 -0.00021754512 0.0005320973391)
(0.009020592692 4.977259189e-06 -0.0002741506557)
(0.01119920972 -0.001106517892 7.547153032e-05)
(0.009820497072 0.0003526593759 0.0005908602351)
(0.007788747052 -0.000346376946 -0.0002272735517)
(0.004292484857 0.0001840234464 0.0001305464181)
(0.009636874056 -7.625129642e-06 5.201195531e-05)
(0.008303761555 -0.0002030101889 0.0001461443923)
(0.00902003857 0.001040779962 -0.0003712672237)
(0.008488655874 0.0003992386398 -0.0005502523548)
(0.008351419796 -0.0007482449281 0.0004487268401)
(0.007537208255 0.0004623423543 -0.0001242971124)
(0.007058961269 -0.0006504640009 9.473742676e-05)
(0.006961690001 -0.0003493382564 0.0001352932471)
(0.006357194583 0.0001484728265 6.040467278e-05)
(0.006758398777 2.492891151e-05 0.0001879232813)
(0.007773589373 0.0003834358824 -0.000924496662)
(0.003778610683 0.0001031711533 -0.0001542539189)
(0.008282219508 -0.0002042987397 -0.0001318807194)
(0.007602331885 9.869240597e-05 0.000708408271)
(0.007873409974 -0.0001203692287 0.0008078513793)
(0.007914648202 0.0005322018946 -0.0007729445455)
(0.01041223297 0.0003899796479 -0.0006312634811)
(0.01071468076 0.00140809258 0.0006599187113)
(0.008474131425 -0.001401120883 -0.0007302254487)
(0.00710815532 -0.0006606271047 -0.0005706653417)
(0.01660391994 0.0002944646239 0.001078235235)
(0.01190386016 -0.0001001342895 0.0006771314917)
(0.008150715999 -5.335056186e-05 -0.0002663515226)
(0.007040679289 0.0008202304093 8.206602894e-05)
(0.008423380508 -0.0001648491624 -0.0001200052698)
(0.006240976003 -2.467235563e-05 -0.0001939439101)
(0.005357965 -0.0005506045306 -0.000187167785)
(0.006742971744 -0.0006940910837 -0.0001971788751)
(0.009650957597 -0.0002441203182 -0.0001390131167)
(0.005245456982 -0.0001436312391 9.259819421e-05)
(0.00362311661 -3.461019835e-05 0.0002069609287)
(0.009272704101 -0.001067399184 0.0002681448311)
(0.009815177775 0.0003731500707 6.170770699e-05)
(0.002639563343 0.0001680893295 2.64316843e-05)
(0.00793383591 -8.465713969e-05 0.0005665758454)
(0.007434329839 -0.0007615955889 0.0006907358405)
(0.01028878193 -0.0001290084161 5.829899773e-05)
(0.007315243417 0.000643072109 1.362250514e-05)
(0.009299181081 -0.0002219216187 0.0006559646484)
(0.01115552197 -0.000410096512 0.0005458301962)
(0.00602339814 0.0004265624451 -0.0007474106825)
(0.006786756497 4.946811675e-05 0.0004221524442)
(0.008663794992 -0.000514001509 0.0003841463149)
(0.009149799803 -0.0002432850309 0.0007565665892)
(0.007940365408 -0.0005203457904 0.0008033225389)
(0.006640808931 0.0004067643576 -0.0003066487661)
(0.01053875143 -0.0007125540837 -6.102402664e-05)
(0.006371137196 0.0001384952915 0.0002235023501)
(0.009538860644 0.0002856560315 -0.0009179508781)
(0.008716116436 -5.268496093e-05 -8.756766936e-05)
(0.0030868899 -0.000106145549 -0.0005290415333)
(0.01531396233 -4.64045869e-05 0.0002104139883)
(0.007642927784 2.113830778e-05 0.0002463590796)
(0.007981038952 -0.0003837316311 -6.146138968e-05)
(0.005293360047 -0.0004168764556 0.0003606818778)
(0.01048484335 -6.303289524e-06 0.0002859372971)
(0.006971754778 -0.0003612350477 0.000327328046)
(0.006405693995 0.0006595973492 0.0002369760787)
(0.01054340787 -0.0002676913225 0.0009063377331)
(0.00898004051 -0.0009238748919 0.0005376713385)
(0.004260393564 -2.008714143e-06 0.0001201810115)
(0.008595894894 0.0005571434502 0.0003308393973)
(0.009830739244 -0.0004620548633 0.0007950474262)
(0.005281265331 8.109090918e-05 -0.0002975969674)
(0.01205487233 0.0007480981703 -7.702946255e-05)
(0.0129688384 -0.0004581095909 -0.0005840287709)
(0.007913085797 0.0004178122535 2.624606315e-05)
(0.01194554172 0.000425237597 -0.0002687804916)
(0.005061852904 -0.000631757184 0.0002409305513)
(0.009610772972 -0.001130994171 0.0001608490465)
(0.003660937083 -0.0004671874545 -0.0003940577424)
(0.009376968702 0.0001239899741 6.995983317e-05)
(0.005956347959 0.0003322760454 0.0008405164126)
(0.006009886524 -0.0001517952877 0.0006751020805)
(0.01482208203 5.498159956e-05 0.0003883614863)
(0.008676332824 0.0004165441051 6.021006284e-06)
(0.008499492674 -0.0003622847487 0.0001947431417)
(0.009695569423 0.0004027042716 0.0001112458125)
(0.007987417672 0.0008634441133 -0.0003007220219)
(0.006707760775 0.0006128648565 0.0004459269573)
(0.01033579657 -0.0005558148218 0.001244050972)
(0.01105213874 0.001249869893 0.0007194331172)
(0.002565548942 -0.000236689523 -7.259525061e-06)
(0.005619144176 -0.000405522445 0.0001367718192)
(0.005549719997 0.0002796587171 0.0001001352819)
(0.01085858506 -0.0003741589999 0.0002960060063)
(0.004667989129 0.0003140628775 3.943131932e-06)
(0.007002170756 -0.000116793635 0.0001273816257)
(0.003962642801 0.0006832425806 0.0004980159365)
(0.009999013902 0.0001825510723 8.711192526e-05)
(0.007075830043 0.0004540447169 0.0001128821838)
(0.00784248656 0.0008538426199 -0.0009201968049)
(0.01003294226 0.0001061684924 -0.0004416341463)
(0.006703057735 0.000436900548 -0.0008766849578)
(0.004963260316 5.251915616e-05 6.503903726e-05)
(0.008376713143 -0.0006312206801 -2.89382387e-05)
(0.006603271847 0.0003696938908 -0.0006890939824)
(0.01068475252 0.0002788868195 0.0001788411407)
(0.01022956555 -0.0002775419464 0.0003639506748)
(0.007299096577 -0.0003272710266 0.0005447114058)
(0.007362343027 -4.460761878e-05 -0.0003761849103)
(0.005896970622 -2.66986539e-05 -0.0001658731974)
(0.009307407618 -0.0005012116968 0.0002173674937)
(0.01073826782 -6.753659349e-05 -0.0002122713884)
(0.006999735049 0.0002125000077 -0.000455121245)
(0.005987455642 -0.00015219481 9.966952227e-05)
(0.01542827329 0.0003167176674 -0.0001758738193)
(0.009688445978 3.082521256e-05 0.0006251278552)
(0.01260342422 -0.0001263971498 -0.0003899585664)
(0.009316893948 -0.0004924863034 0.0002088242348)
(0.0035584516 0.000375893867 -0.0006703216335)
(0.00577894589 0.0005245976103 -0.0001076582808)
(0.008116331687 -0.0007736069186 -8.365121233e-05)
(0.003263213215 -0.0001795822527 -0.0001049192462)
(0.009979712328 -2.431304487e-05 -0.000294157261)
(0.01011889018 0.0002741950546 0.0002078711864)
(0.007672199341 -0.0001165457449 -0.001158002795)
(0.006427106241 0.0003359727621 0.0001550464584)
(0.00956327628 0.0005228878037 2.856232465e-05)
(0.009070077459 -0.0006408879282 -0.0002463996944)
(0.006438429107 -0.000134180348 0.000619780994)
(0.007938088309 -0.0001926115272 0.0005558893751)
(0.008957813674 0.0001280818476 4.697521345e-05)
(0.01417583621 0.000275736687 -0.0009905209692)
(0.005180844711 4.41915409e-05 -6.392737046e-05)
(0.009991526351 0.0003531719126 0.0006302096856)
(0.00507407585 -0.0001181787407 -0.0003464994414)
(0.007820186392 0.0003788115058 0.0006179968951)
(0.003177986567 4.782696478e-05 -0.0003521022456)
(0.01015200251 -7.710552024e-05 -0.0008483478152)
(0.01136131942 0.0003726376822 0.0004132772681)
(0.008636119058 -0.0001177782557 -0.0005347046735)
(0.008239902531 -0.0005077082893 0.0006120708264)
(0.007404427604 -0.0001178828719 -0.0001807873503)
(0.01055487239 0.0006308991669 -0.0004780152278)
)
;

boundaryField
{
    flow
    {
        type            zeroGradient;
    }
    obstacle
    {
        type            calculated;
        value           nonuniform 0();
    }
    frontAndBack
    {
        type            empty;
    }
    procBoundary2to0
    {
        type            processor;
        value           nonuniform List<vector> 
31
(
(0.006692578958 -0.0008233083703 0.000304830769)
(0.01041014861 -0.0008609505317 0.0002377652201)
(0.004850036793 -0.000101668263 -0.0006340302363)
(0.01132776919 -0.000582691827 -0.001144335244)
(0.007744533543 0.0006069625975 0.0005519492374)
(0.008280601332 0.0002522109041 0.0004888552193)
(0.008265690776 -0.000604915467 -0.0002528216579)
(0.006898014427 -0.0002916482912 0.0003986384378)
(0.01050246906 -0.0003486372196 7.429172029e-05)
(0.005956092729 -0.0002282726767 0.0004481838179)
(0.009153922412 -0.001168353258 0.0002512076915)
(0.009792854472 0.0006145366538 -0.0004883563511)
(0.004750084638 -0.0008442143305 -0.0002097220529)
(0.009538725274 0.0004767842659 0.0003278639506)
(0.005662186685 0.0002433965698 -6.224964953e-06)
(0.007629702448 0.000108996265 -0.0005130053366)
(0.006494201529 0.0001060351737 -0.0001428993294)
(0.01082821049 -0.000298430122 -0.0005158738647)
(0.01129979132 -0.0005674989245 -0.0003789075694)
(0.004432889094 1.975547667e-05 0.0006718132029)
(0.00646001354 -0.0003611573814 -0.001252633777)
(0.002664721162 -0.0003328262317 -1.586663047e-05)
(0.01627124045 0.000203041839 0.000270166955)
(0.006938842336 -0.000523747251 0.0007792300749)
(0.007557122434 -8.836500615e-05 6.170026275e-05)
(0.005876987874 0.0002988443428 0.000206756843)
(0.00665565434 -0.0001987846115 0.001083612089)
(0.009018279663 -0.00011291235 -0.0003322045312)
(0.01165823711 0.001226347961 -0.0003812347415)
(0.007631343799 0.0001404098203 0.0001600526975)
(0.007631343799 0.0001404098203 0.0001600526975)
)
;
    }
    procBoundary2to3
    {
        type            processor;
        value           nonuniform List<vector> 
19
(
(0.008503525556 -4.195244093e-05 0.000338412743)
(0.006485941661 -0.0008191014889 -0.0009070348358)
(0.005501676616 0.0005224229111 -8.088580041e-05)
(0.007548459114 0.0002538610361 0.0002213347724)
(0.00552448067 -0.000102555199 -0.0001404479075)
(0.009303949025 0.00052281996 -0.0007952560631)
(0.009811652825 5.605880122e-05 -0.0003489757684)