/*--------------------------------*- C++ -*----------------------------------*\
  =========                 |
  \\      /  F ield         | OpenFOAM: The Open Source CFD Toolbox
   \\    /   O peration     | Website:  https://openfoam.org
    \\  /    A nd           | Version:  7
     \\/     M anipulation  |
\*---------------------------------------------------------------------------*/
FoamFile
{
    version     2.0;
    format      ascii;
    class       volScalarField;
    location    "0.007";
    object      overallT;
}
// * * * * * * * * * * * * * * * * * * * * * * * * * * * * * * * * * * * * * //

dimensions      [1 2 -2 0 0 0 0];

internalField   nonuniform List<scalar> 
546
(
315.4911275
319.6147957
321.3310045
323.3305997
323.6346018
322.2758724
335.247117
339.9411485
340.7408211
351.1180944
358.1859988
359.7848657
359.8871707
370.9426378
374.5259935
389.4727592
386.0348848
381.7440053
395.8531241
402.0302481
316.6223474
318.3189442
318.3572986
325.4457357
327.1705686
330.0157011
334.0800048
327.5643867
334.6690143
339.7832462
352.5425394
348.6765963
353.7573987
377.8403092
373.3481445
380.6652812
386.5471795
380.1196488
384.5991132
397.9071809
310.7326912
310.9792643
314.4690975
314.7534746
321.9080679
321.5199996
332.130563
330.146287
330.8466512
338.7401134
346.1461529
347.3102126
352.8139632
368.640948
372.9986822
374.9862022
375.8513195
386.2176072
395.7679638
397.1637484
310.7460826
307.6657455
321.3338473
319.4223817
321.0474722
327.4684261
329.7358056
339.215128
335.9900231
342.6268532
344.713723
352.7089572
354.7887601
365.4993876
369.0136332
369.5354512
385.3469757
386.6197223
389.7507984
399.7480772
310.7246211
310.9031107
320.075216
319.5866912
327.7959027
324.2898692
322.585597
336.2348609
338.7290125
343.5396068
348.0514893
357.538732
361.9038198
365.7904607
369.0795388
374.8626506
375.1547652
382.1556295
385.9843024
383.1236177
305.0831142
310.6257327
312.9642214
319.8295912
317.6319477
327.5648499
331.6354122
333.0703634
331.5815435
340.1470189
340.8859558
351.862589
363.7350108
357.8295347
366.2763414
366.1196592
381.87133
376.4723185
381.1699304
377.1994191
309.1987912
304.0469681
308.9912907
313.4325434
321.053226
325.2875363
326.1745586
327.9380822
333.9949481
330.6889609
340.3399621
352.7079161
366.9544523
358.9151522
359.4866245
364.3846935
367.717642
378.1247921
374.2878296
384.6041838
301.9365596
312.7295895
306.9975214
316.30135
319.7133396
317.8622482
322.5679667
325.3323656
332.803303
335.4814559
341.5708393
350.503472
350.7887468
344.9836715
352.9428711
361.1674452
367.7223457
368.0234914
376.1591799
372.1279859
305.1945547
309.0715917
318.4397338
313.2623955
314.505831
317.5730415
324.7047842
333.2477214
329.9832025
336.8165561
337.0623879
343.9065446
345.3326409
347.1930134
348.1194857
360.8633001
363.4276487
358.0554554
371.9998286
369.7553423
309.5096577
305.0198095
309.8906138
312.3583809
322.4840056
318.7303093
324.2420562
327.2650293
326.7576095
333.1395556
339.1950856
346.8711869
347.2070842
356.0550501
347.4466305
356.1178489
356.4289743
365.3008457
366.5503791
363.2789206
308.5507521
303.1064605
310.2384641
313.436868
318.1276449
318.2257293
314.9244055
320.7567371
325.6215176
334.8676958
339.2321028
341.4961461
348.116127
346.6899165
345.4183243
353.1270011
354.4177612
359.7981881
357.1361142
363.732198
302.2467556
302.8859549
308.5826978
313.8905743
312.9646606
317.3900386
317.3503913
331.9107137
321.9382198
326.4687377
334.1229145
333.1210761
348.5683703
344.7645855
347.3294232
348.2715749
342.3002616
356.4740087
357.988828
350.8368414
298.3399974
305.6857977
309.3841802
312.9854502
311.3379592
316.2753471
324.2016862
325.9153987
331.8738305
333.5302105
338.1926422
341.0810963
346.6083633
337.9112073
348.5983446
346.7423857
354.3922473
361.2421421
362.0093401
360.1900631
296.0830052
306.5547305
308.6803236
311.3668027
315.1604054
316.3274327
318.0854682
318.9652789
325.4923322
320.5744918
326.9128261
341.0361354
339.4824727
336.3578796
347.874258
348.6077682
357.9175183
356.1551253
360.0489995
352.8506579
304.3248374
303.2541631
306.0495256
313.5236237
308.343227
317.2931184
312.5172495
319.819433
322.9763209
329.3486091
330.1467804
340.6601933
342.3021837
335.5279034
340.8924855
343.4367095
349.701888
346.3415704
348.8951749
350.2937159
297.0474011
302.8334372
310.0952628
312.4513422
312.0621542
316.9083602
316.4441674
321.4031336
326.3147962
324.403146
319.6590261
333.8836646
330.5881771
334.8345022
339.5315592
331.4489909
341.9063336
338.867819
338.4214431
348.0070289
303.0273252
302.3253955
301.755794
308.6670252
306.8318381
315.9577145
319.6621831
318.6777597
327.2828189
320.5216912
320.6505017
324.1747945
331.6661635
334.8086894
329.3693674
336.4697659
342.4610004
336.7064886
339.0591871
346.849052
300.7685888
302.1594777
302.6391739
301.7452525
306.4882973
315.2881447
308.0356042
309.6179778
310.285617
311.5614585
315.8333541
314.2081302
316.487008
321.8900922
318.7926533
324.1084498
328.6150265
325.8523797
323.8282878
324.9775432
423.1616688
421.2284415
423.3176539
429.2625126
435.8007172
445.9068678
388.4909666
396.4533944
411.6463426
417.3948313
417.1177214
425.2008803
419.3727447
426.431045
435.83355
436.2124694
397.7545834
401.3985439
410.8246655
412.1019888
420.2677132
408.8972976
409.7542007
419.4589276
422.4751852
420.2082878
391.2900815
401.1293521
401.2970843
401.7388023
402.4579737
399.7877104
405.2180572
406.7419675
418.4587151
425.6264232
401.8538464
387.8974057
393.4242919
395.3240175
401.3334366
403.115166
414.9229274
418.4791857
408.5634952
409.2000136
386.9605405
395.2687683
393.4758739
398.9763807
394.8758336
406.2909591
401.6867724
401.2236007
405.0366867
413.1352591
393.3602573
395.7801399
390.6550683
392.4975579
394.6000348
398.2373924
389.42364
399.7098373
403.2352864
416.5881871
380.972166
384.3463232
386.5892405
389.4032271
389.8205546
392.2526163
394.7011689
399.8028682
408.7246597
396.0161325
379.1992799
378.2144456
388.3916515
383.9116546
394.0329865
396.8973298
393.7997384
401.7217283
402.0776002
398.4967662
375.7738891
385.9163052
381.6085951
376.5275931
386.7606153
394.4295788
390.7968684
390.4239356
395.7366738
397.7119102
373.7653711
379.3312635
369.2119157
372.0803404
382.9086243
383.7991035
389.0116832
390.2131556
389.6527289
394.8271229
368.6797658
371.3497183
363.4638153
376.5964555
381.0989664
378.9401488
389.6027139
385.1854059
391.6026112
388.2431157
363.8093862
370.7774748
372.1123927
376.8836184
382.1110431
378.7940176
382.8939266
385.5535991
378.9527116
380.1405004
370.886422
367.8791278
372.3837019
371.9150691
376.6525034
372.4367302
372.0559264
378.9102763
375.9721676
377.2199821
352.9364821
363.8407617
359.0668453
362.7877585
368.1837549
368.6690196
366.4333056
369.9041433
371.8508661
381.4044077
349.4629015
357.3606861
357.9152307
365.2870949
368.7302655
364.9364325
362.0636259
362.4031366
366.9968281
373.6627778
344.701645
342.8698859
350.8687754
350.9476993
350.6749374
348.4490577
344.5487797
349.1263123
355.9400198
363.0970669
342.1226122
345.2908428
344.1866433
345.4333635
341.1063904
346.4757192
342.8141892
345.4412051
345.4788547
346.4498158
322.8158075
318.0886793
329.9845067
330.1995752
322.2281091
327.4551994
328.8436243
326.0464143
334.5873236
336.8594492
)
;

boundaryField
{
    flow
    {
        type            calculated;
        value           nonuniform List<scalar> 
48
(
315.4911275
316.6223474
310.7326912
310.7460826
310.7246211
305.0831142
309.1987912
301.9365596
305.1945547
309.5096577
308.5507521
302.2467556
298.3399974
296.0830052
304.3248374
297.0474011
303.0273252
300.7685888
300.7685888
302.1594777
302.6391739
301.7452525
306.4882973
315.2881447
308.0356042
309.6179778
310.285617
311.5614585
315.8333541
314.2081302
316.487008
321.8900922
318.7926533
324.1084498
328.6150265
325.8523797
323.8282878
324.9775432
322.8158075
318.0886793
329.9845067
330.1995752
322.2281091
327.4551994
328.8436243
326.0464143
334.5873236
336.8594492
)
;
    }
    obstacle
    {
        type            calculated;
        value           nonuniform 0();
    }
    frontAndBack
    {
        type            empty;
    }
    procBoundary2to0
    {
        type            processor;
        value           nonuniform List<scalar> 
31
(
310.3766135
320.7140869
323.9486965
324.8396492
325.6238861
335.164773
340.1375604
343.6227187
343.5516339
353.3137889
372.2092379
363.113195
362.8868131
369.0791416
381.5419834
384.3248717
391.193554
390.505725
397.7575149
402.1125123
418.6022299
421.4061548
422.8409974
417.450961
438.7043633
435.4799805
397.0771306
404.0038434
414.0611876
418.3209179
418.3209179
)
;
    }
    procBoundary2to3
    {
        type            processor;
        value           nonuniform List<scalar> 
19
(
448.5059741
437.6576237
427.9224157
430.5727391
418.0120698
415.4623347
421.2592645
418.3132166
408.9264956
402.1876305
394.2855686
390.4488134
372.2304939
380.3204248
377.8041015
368.1785635
351.8516876
348.3030523
329.7429078
)
;
    }
}


// ************************************************************************* //
