/*--------------------------------*- C++ -*----------------------------------*\
  =========                 |
  \\      /  F ield         | OpenFOAM: The Open Source CFD Toolbox
   \\    /   O peration     | Website:  https://openfoam.org
    \\  /    A nd           | Version:  7
     \\/     M anipulation  |
\*---------------------------------------------------------------------------*/
FoamFile
{
    version     2.0;
    format      ascii;
    class       volScalarField;
    location    "0.007";
    object      overallT;
}
// * * * * * * * * * * * * * * * * * * * * * * * * * * * * * * * * * * * * * //

dimensions      [1 2 -2 0 0 0 0];

internalField   nonuniform List<scalar> 
546
(
296.3359307
303.3172077
297.7302921
299.2823719
299.7375017
299.8936092
299.3062048
300.3825371
302.4190149
302.3053881
303.0658012
303.1378191
302.4289178
302.9884663
301.7446115
300.4073874
299.8798476
300.5862407
302.4775017
302.3421233
293.350035
304.0668326
300.6920029
300.1785625
300.0236187
300.9541246
301.2746481
300.517542
300.944047
301.0834791
302.3360224
300.2015116
300.4102123
300.161628
299.8303066
300.2124765
300.7739466
301.7890731
302.0779537
300.7608327
294.719204
303.9811313
299.9195507
300.6239077
300.2827872
299.5499038
299.7812214
299.2051194
298.9431297
299.3651438
299.2181026
299.2974544
299.2876395
300.2993265
301.303641
301.7615154
302.4336583
301.1799802
300.2282868
301.7111382
294.8007929
303.5387712
299.976983
300.3764879
300.5827385
301.2573359
301.6764608
301.8357513
301.4624782
300.22345
300.2991136
300.3672343
300.2197528
298.7700981
298.7905851
298.0953937
298.396459
300.1190067
302.0201578
301.9706191
298.0581635
305.9305754
301.5542873
302.1333094
302.2642752
302.3711008
302.0723103
301.6243448
301.1682368
299.7617357
299.638902
301.1633499
301.8852067
301.6588194
301.7287858
303.0703045
305.4797219
304.5786844
303.2549766
302.7274604
293.0889046
305.7730222
301.4669375
301.7210508
301.944654
301.889029
301.490424
301.742882
301.6866842
302.4109908
302.1285502
298.597365
298.6612083
301.1443213
302.0359846
301.4359621
300.3582847
300.2900734
299.6925102
299.5078368
295.0280786
304.1051316
300.0573152
300.138529
299.9808871
299.2904254
300.0072434
301.4462091
300.8469116
301.0533206
301.8155404
303.8438464
302.9033948
300.8326733
299.6522951
300.1523976
300.9010462
300.7040917
301.0223677
302.4979169
296.6485507
305.4018355
300.5786288
301.178498
301.5753026
301.3809786
301.0689347
301.1509079
302.0399863
301.9902116
301.8674747
299.5807504
299.6848485
300.3909979
301.1146709
299.5193407
300.2333953
299.7986178
299.0446329
299.0128745
291.0206413
300.8020509
298.856768
298.294641
298.9685517
298.927172
299.8564262
298.9654306
298.6830024
297.8174575
297.3067242
298.8655591
299.4465699
298.6221324
297.2381207
297.2989894
297.7240624
297.7168149
297.1119954
298.2297863
293.9209789
302.6770924
298.3129026
299.1020214
299.8019391
301.0187091
300.8224942
298.8980732
299.1817715
300.2026089
300.2396353
298.3721758
297.7227388
298.0405728
300.0262529
300.3288336
300.8133591
301.6502393
301.828985
300.2073717
292.7507392
303.3437131
299.1009682
299.5788643
298.3977332
297.9391216
299.3376611
300.0984802
299.5011788
299.6808978
299.1989972
299.6853175
299.5377103
298.8755042
299.7431119
299.1153631
299.2310761
299.4942763
299.3825007
300.7089747
294.1435353
303.7381741
299.335877
298.6332206
298.3351854
300.2969752
300.083799
299.1283293
298.9683817
299.6391622
300.3915494
299.5019507
300.1659553
302.1713826
301.8205594
300.5870923
300.2429129
300.6725913
301.1632846
299.5692482
293.557473
301.4248569
298.332934
298.5242191
299.3402054
296.9051033
298.4847027
299.4487741
300.4473703
299.7346375
299.8253606
301.317283
300.1242564
297.7271227
299.7355095
299.7138595
299.231454
298.7798657
299.3260292
298.4849546
294.4966706
305.2812335
300.1764319
301.0739985
301.8922661
302.3982948
302.0860205
299.8399313
299.5801954
300.714647
299.7403906
298.7919786
300.0259447
299.634775
298.2775869
299.6554606
300.1658742
300.117347
299.1168933
300.3117246
294.5527565
304.1835473
299.6422188
299.1074767
297.8699363
296.8139712
296.8807082
297.5878463
297.1497448
298.2205008
298.8225167
300.7322056
301.4111143
302.051104
301.1628295
301.0711439
300.5581291
300.4865234
301.5803368
300.2535989
292.5914043
301.8872336
297.1056277
298.9243028
298.1146536
298.3470257
298.3597041
298.4818203
298.3939552
297.6187009
296.5095723
296.6542512
296.0934114
296.0275519
297.4247918
297.5772459
298.6267163
296.5524634
295.2916742
296.4238629
295.52148
304.4878144
300.0633291
299.6386554
300.3626791
300.4950402
299.9679417
300.8141045
300.4645483
300.4222335
300.9276861
298.6020629
298.8993082
298.1029876
296.6943495
296.5780271
296.9138162
298.0376122
300.1867505
298.7040298
292.1970955
302.0213408
299.1005961
299.240773
299.6804819
298.499621
298.1839479
297.4951011
298.5521441
296.0349052
297.1680407
296.8570211
298.5408489
297.9855748
298.6321055
300.3543314
299.0259627
298.6453212
297.8081312
298.3046518
306.7737064
309.0897638
311.306987
313.0807436
314.7857171
316.062458
302.875831
302.8411949
302.4820708
304.3068528
302.7100369
304.8529119
305.7626553
307.6528076
310.2266732
310.3657667
301.5582491
302.9401908
302.1806715
304.3055575
303.5585059
304.2877019
303.5674265
304.512785
305.3791915
305.350582
300.0013415
301.8374108
300.2064969
300.723347
301.6550913
302.4392812
302.149548
301.6395616
304.0372995
303.7242508
302.7508547
303.5608563
303.8755006
301.9457655
300.2613728
299.3917265
301.7658097
301.9107406
302.5725905
306.0616781
302.296599
302.5426707
302.8184215
302.1644303
303.1503412
304.6357712
303.9241704
303.9781853
303.6771927
303.2038147
300.0722984
300.9332605
303.5951322
303.7609636
301.7824019
303.3166734
303.967943
304.5783258
303.6947149
302.5598325
303.166928
301.1639999
300.7020781
300.606594
300.5867773
299.2677136
300.2904288
301.2827984
300.3878399
302.0497627
298.3521712
299.4970706
298.8144785
300.1008246
299.1175103
299.7943304
299.4228509
301.0160732
302.8294521
301.2713836
298.323994
299.2214863
299.6858868
301.4227154
299.9929974
299.7440122
300.0496173
298.8963738
296.8316403
297.5805129
300.3243618
299.1810854
300.7398018
300.0423174
298.9626215
299.0429543
298.6239793
298.772074
300.6080548
300.5933264
299.7025839
299.4565011
297.6462498
297.9782459
298.7176425
299.5079437
298.5201768
299.2843856
298.2626096
299.5985567
299.0728292
299.6074869
300.633395
300.1284985
298.8388947
299.8610377
300.0927151
301.640499
302.5025712
302.6852456
298.6868194
299.5192007
300.2195285
299.6430605
300.200561
301.3228797
301.5074201
299.6246645
300.3384612
300.6831266
300.5926344
300.0794853
301.32518
302.0467868
301.6287045
300.3959436
299.7064902
299.6835935
298.163964
298.215738
299.9423533
299.9414127
300.2446828
299.5345242
298.9867341
300.379111
299.6049335
300.1535566
299.7293014
300.717779
296.636594
298.704108
299.4847821
300.0923378
299.7675035
298.3402685
299.4470281
301.0338766
300.3910468
300.7945209
297.8673518
298.2368175
298.5366593
297.5758308
297.9376196
298.9888965
299.9355738
300.6866688
299.3838201
300.3285077
298.1211488
298.4440516
298.0932175
298.3200204
298.8052841
298.2019212
299.0558096
298.1154778
299.3402447
297.8100707
)
;

boundaryField
{
    flow
    {
        type            calculated;
        value           nonuniform List<scalar> 
48
(
296.3359307
293.350035
294.719204
294.8007929
298.0581635
293.0889046
295.0280786
296.6485507
291.0206413
293.9209789
292.7507392
294.1435353
293.557473
294.4966706
294.5527565
292.5914043
295.52148
292.1970955
292.1970955
302.0213408
299.1005961
299.240773
299.6804819
298.499621
298.1839479
297.4951011
298.5521441
296.0349052
297.1680407
296.8570211
298.5408489
297.9855748
298.6321055
300.3543314
299.0259627
298.6453212
297.8081312
298.3046518
298.1211488
298.4440516
298.0932175
298.3200204
298.8052841
298.2019212
299.0558096
298.1154778
299.3402447
297.8100707
)
;
    }
    obstacle
    {
        type            calculated;
        value           nonuniform 0();
    }
    frontAndBack
    {
        type            empty;
    }
    procBoundary2to0
    {
        type            processor;
        value           nonuniform List<scalar> 
31
(
294.9791509
304.8403224
301.7359875
301.8858899
301.1266525
301.7423227
302.5218698
301.3965399
300.9121039
301.4345992
301.6530178
300.5349261
300.1782999
301.3441481
300.8979524
302.6955999
304.1522973
302.5619809
302.204027
301.0180936
308.9685487
312.1245363
313.7807031
316.9519675
316.5389979
319.0789672
304.4412136
304.4268933
305.6280181
305.8757266
305.8757266
)
;
    }
    procBoundary2to3
    {
        type            processor;
        value           nonuniform List<scalar> 
19
(
318.2628688
316.4991296
307.9678211
305.5029136
307.3702788
307.2063798
301.2679082
304.7989241
299.7102034
297.6765975
299.3732937
301.2937775
301.3357376
300.5520204
297.9084106
300.513066
301.3441054
300.8142225
298.2721543
)
;
    }
}


// ************************************************************************* //
