/*--------------------------------*- C++ -*----------------------------------*\
  =========                 |
  \\      /  F ield         | OpenFOAM: The Open Source CFD Toolbox
   \\    /   O peration     | Website:  https://openfoam.org
    \\  /    A nd           | Version:  7
     \\/     M anipulation  |
\*---------------------------------------------------------------------------*/
FoamFile
{
    version     2.0;
    format      ascii;
    class       volScalarField;
    location    "0.007";
    object      rhoM;
}
// * * * * * * * * * * * * * * * * * * * * * * * * * * * * * * * * * * * * * //

dimensions      [1 -3 0 0 0 0 0];

internalField   nonuniform List<scalar> 
546
(
2.074884977e-06
5.948892263e-06
5.049331109e-06
4.496139531e-06
3.874007286e-06
4.496139531e-06
4.911449774e-06
3.874007286e-06
3.942947953e-06
3.52763771e-06
3.596578377e-06
6.433143174e-06
4.565080198e-06
3.458697042e-06
5.049331109e-06
6.986334752e-06
4.358258196e-06
3.389756375e-06
4.565080198e-06
4.911449774e-06
2.490195221e-06
4.565080198e-06
5.326760018e-06
4.01188862e-06
7.954836573e-06
7.608466997e-06
4.496139531e-06
4.496139531e-06
7.470585662e-06
5.948892263e-06
5.602522687e-06
4.496139531e-06
5.948892263e-06
6.01783293e-06
4.427198864e-06
7.677407664e-06
4.496139531e-06
4.496139531e-06
4.911449774e-06
3.458697042e-06
4.427198864e-06
4.911449774e-06
6.571024508e-06
3.942947953e-06
3.596578377e-06
4.565080198e-06
3.458697042e-06
4.080829287e-06
2.974446132e-06
2.421254554e-06
5.602522687e-06
4.911449774e-06
4.01188862e-06
3.942947953e-06
2.628076555e-06
5.53358202e-06
3.389756375e-06
3.52763771e-06
3.874007286e-06
3.112327466e-06
4.565080198e-06
4.427198864e-06
6.086773598e-06
5.464641352e-06
5.395700685e-06
4.496139531e-06
6.155714265e-06
2.974446132e-06
4.496139531e-06
2.143825645e-06
5.671463354e-06
3.942947953e-06
4.980390442e-06
6.433143174e-06
4.427198864e-06
3.458697042e-06
5.049331109e-06
2.628076555e-06
4.080829287e-06
6.433143174e-06
4.01188862e-06
5.049331109e-06
2.974446132e-06
5.602522687e-06
5.049331109e-06
3.389756375e-06
3.389756375e-06
6.01783293e-06
4.842509107e-06
4.496139531e-06
6.086773598e-06
4.427198864e-06
4.149769955e-06
6.917394084e-06
3.52763771e-06
6.01783293e-06
4.911449774e-06
8.576968818e-06
4.842509107e-06
2.559135888e-06
2.490195221e-06
3.942947953e-06
4.565080198e-06
3.665519044e-06
5.948892263e-06
5.948892263e-06
6.986334752e-06
3.942947953e-06
5.740404021e-06
3.458697042e-06
6.571024508e-06
4.911449774e-06
3.874007286e-06
5.602522687e-06
3.874007286e-06
4.980390442e-06
3.874007286e-06
3.043386799e-06
3.181268133e-06
2.559135888e-06
4.080829287e-06
4.496139531e-06
8.301206149e-06
4.01188862e-06
2.905505464e-06
4.980390442e-06
5.948892263e-06
7.124216086e-06
3.458697042e-06
4.01188862e-06
2.974446132e-06
4.01188862e-06
3.52763771e-06
2.421254554e-06
4.842509107e-06
4.980390442e-06
5.53358202e-06
4.427198864e-06
9.130160396e-06
4.496139531e-06
4.080829287e-06
4.496139531e-06
3.52763771e-06
5.049331109e-06
4.080829287e-06
2.559135888e-06
6.086773598e-06
7.816955239e-06
3.389756375e-06
4.496139531e-06
5.187212443e-06
6.571024508e-06
7.954836573e-06
4.842509107e-06
6.364202506e-06
3.458697042e-06
4.01188862e-06
6.571024508e-06
7.608466997e-06
4.427198864e-06
2.974446132e-06
5.049331109e-06
5.049331109e-06
6.364202506e-06
4.358258196e-06
3.389756375e-06
4.980390442e-06
3.458697042e-06
6.01783293e-06
5.049331109e-06
6.01783293e-06
4.980390442e-06
4.911449774e-06
4.565080198e-06
4.911449774e-06
5.948892263e-06
4.080829287e-06
3.389756375e-06
4.358258196e-06
2.974446132e-06
4.980390442e-06
4.427198864e-06
3.596578377e-06
2.490195221e-06
3.942947953e-06
4.911449774e-06
7.608466997e-06
3.942947953e-06
5.118271776e-06
6.364202506e-06
6.917394084e-06
2.974446132e-06
5.602522687e-06
3.942947953e-06
5.395700685e-06
5.049331109e-06
3.112327466e-06
4.080829287e-06
5.464641352e-06
3.389756375e-06
4.080829287e-06
4.01188862e-06
4.496139531e-06
4.080829287e-06
3.942947953e-06
4.565080198e-06
2.974446132e-06
6.77784651e-06
3.458697042e-06
5.464641352e-06
3.52763771e-06
3.458697042e-06
4.980390442e-06
5.464641352e-06
4.565080198e-06
2.143825645e-06
4.149769955e-06
4.980390442e-06
4.496139531e-06
6.917394084e-06
3.942947953e-06
4.01188862e-06
6.502083841e-06
5.879951596e-06
7.954836573e-06
4.565080198e-06
2.559135888e-06
6.708905843e-06
3.942947953e-06
5.464641352e-06
6.086773598e-06
3.52763771e-06
6.986334752e-06
6.502083841e-06
4.496139531e-06
2.421254554e-06
2.974446132e-06
4.911449774e-06
2.421254554e-06
4.427198864e-06
4.01188862e-06
3.458697042e-06
7.124216086e-06
5.326760018e-06
4.427198864e-06
4.080829287e-06
6.433143174e-06
5.464641352e-06
5.049331109e-06
5.464641352e-06
5.464641352e-06
7.470585662e-06
5.464641352e-06
3.52763771e-06
5.602522687e-06
3.942947953e-06
3.942947953e-06
4.980390442e-06
7.53952633e-06
4.427198864e-06
3.52763771e-06
4.980390442e-06
3.52763771e-06
2.00594431e-06
5.602522687e-06
4.080829287e-06
5.464641352e-06
4.980390442e-06
3.942947953e-06
5.326760018e-06
4.980390442e-06
2.974446132e-06
5.049331109e-06
7.885895906e-06
3.458697042e-06
5.53358202e-06
5.671463354e-06
6.848453417e-06
2.559135888e-06
7.193156754e-06
3.942947953e-06
4.01188862e-06
2.490195221e-06
2.421254554e-06
3.458697042e-06
2.00594431e-06
6.502083841e-06
3.52763771e-06
5.395700685e-06
6.433143174e-06
2.559135888e-06
4.980390442e-06
5.049331109e-06
4.980390442e-06
3.52763771e-06
5.049331109e-06
5.811010928e-06
3.389756375e-06
2.905505464e-06
4.01188862e-06
4.080829287e-06
5.395700685e-06
7.124216086e-06
5.464641352e-06
3.942947953e-06
7.055275419e-06
7.954836573e-06
5.395700685e-06
2.490195221e-06
4.911449774e-06
3.52763771e-06
4.149769955e-06
6.364202506e-06
5.811010928e-06
4.565080198e-06
6.364202506e-06
4.911449774e-06
5.53358202e-06
3.596578377e-06
3.52763771e-06
2.421254554e-06
4.911449774e-06
5.118271776e-06
6.502083841e-06
5.049331109e-06
3.942947953e-06
5.879951596e-06
3.389756375e-06
5.602522687e-06
4.427198864e-06
4.496139531e-06
5.53358202e-06
4.01188862e-06
5.602522687e-06
7.470585662e-06
7.055275419e-06
2.905505464e-06
3.043386799e-06
4.980390442e-06
3.043386799e-06
5.049331109e-06
1.452752732e-06
6.01783293e-06
5.049331109e-06
3.942947953e-06
5.53358202e-06
2.490195221e-06
9.614411307e-06
5.879951596e-06
4.149769955e-06
5.811010928e-06
7.124216086e-06
4.634020865e-06
3.874007286e-06
4.149769955e-06
3.389756375e-06
4.565080198e-06
3.112327466e-06
4.01188862e-06
9.130160396e-06
6.708392337e-06
5.174747783e-06
3.619261292e-06
4.08292586e-06
4.846022842e-06
8.505834972e-06
5.136422471e-06
7.409307255e-06
2.533631178e-06
1.984530714e-06
4.567672097e-06
4.168450643e-06
4.560583107e-06
6.269705828e-06
5.213708543e-06
3.180473627e-06
5.900803441e-06
3.564490058e-06
8.023447949e-06
8.220651744e-06
5.138416185e-06
6.252676009e-06
2.677939528e-06
3.280169953e-06
6.388180399e-06
4.142343636e-06
7.011110074e-06
8.03793876e-06
7.178339121e-06
3.684825416e-06
6.351032594e-06
5.103116739e-06
6.876073426e-06
5.32163292e-06
3.157498482e-06
5.399077207e-06
1.943872751e-06
5.452068183e-06
3.519026376e-06
5.739988391e-06
5.99539196e-06
6.827455578e-06
1.592335481e-06
4.738608597e-06
5.213708543e-06
5.916870199e-06
5.067237323e-06
6.919997449e-06
5.63010314e-06
4.606458582e-06
2.56920811e-06
5.31800987e-06
4.704865354e-06
5.32163292e-06
5.213708579e-06
4.73385249e-06
4.095300947e-06
3.984138943e-06
4.152010344e-06
4.110325872e-06
4.0680561e-06
5.174747818e-06
2.026925825e-06
4.81126715e-06
4.772839451e-06
4.437207268e-06
5.067237357e-06
6.430687737e-06
6.122800739e-06
5.173223487e-06
4.210312354e-06
9.343198426e-06
6.659650055e-06
4.593291592e-06
4.331970293e-06
4.80756839e-06
3.540147611e-06
3.564490058e-06
4.574564789e-06
5.598723946e-06
2.99769598e-06
2.515742848e-06
5.35587902e-06
5.248974363e-06
1.542157557e-06
4.363491336e-06
4.581269135e-06
5.452068183e-06
4.152010316e-06
5.669356091e-06
7.065752031e-06
3.736933144e-06
4.053851679e-06
4.738608664e-06
4.772839451e-06
4.73385249e-06
4.095300947e-06
6.080699725e-06
4.011724001e-06
5.598723946e-06
4.567672128e-06
2.012594292e-06
8.033818529e-06
4.082925831e-06
4.185603512e-06
3.180473627e-06
5.96998859e-06
3.984138943e-06
3.729455931e-06
6.377385518e-06
5.709160344e-06
2.515742848e-06
4.921288724e-06
5.32163292e-06
3.230681895e-06
6.582094954e-06
7.497078262e-06
4.612770417e-06
6.897766334e-06
3.047428293e-06
5.78028847e-06
2.084225322e-06
5.283737897e-06
3.280169953e-06
3.671551023e-06
7.988042017e-06
5.136422471e-06
4.543109575e-06
5.700246364e-06
4.81835525e-06
4.139184227e-06
5.677896391e-06
5.79046943e-06
1.603755728e-06
3.598367607e-06
3.254189504e-06
5.96998855e-06
2.585870523e-06
4.644707911e-06
2.480663392e-06
5.99539196e-06
4.743230257e-06
4.342416114e-06
5.686681536e-06
3.671550997e-06
2.662680691e-06
4.581269135e-06
3.494829185e-06
5.840532735e-06
5.457459463e-06
3.710696331e-06
4.240081687e-06
3.691402441e-06
5.2489744e-06
6.829049527e-06
3.624550681e-06
3.609332784e-06
7.968277887e-06
5.63010314e-06
7.228386437e-06
5.13841622e-06
2.155856365e-06
3.691402415e-06
4.665950111e-06
2.056210075e-06
5.769438399e-06
5.96998855e-06
4.403787829e-06
4.011723974e-06
5.457459463e-06
5.13841622e-06
3.665302099e-06
4.198133927e-06
4.883925669e-06
7.930337899e-06
3.180473627e-06
5.900803402e-06
2.585870523e-06
4.434278388e-06
1.984530727e-06
6.066520087e-06
6.755824535e-06
4.92128869e-06
4.81126715e-06
3.671551023e-06
5.916870199e-06
)
;

boundaryField
{
    flow
    {
        type            zeroGradient;
    }
    obstacle
    {
        type            calculated;
        value           nonuniform 0();
    }
    frontAndBack
    {
        type            empty;
    }
    procBoundary2to0
    {
        type            processor;
        value           nonuniform List<scalar> 
31
(
3.942947953e-06
6.01783293e-06
2.628076555e-06
6.502083841e-06
4.565080198e-06
4.911449774e-06
4.427198864e-06
4.218710622e-06
5.948892263e-06
3.52763771e-06
5.049331109e-06
5.53358202e-06
2.490195221e-06
5.464641352e-06
3.52763771e-06
4.080829287e-06
3.596578377e-06
6.433143174e-06
6.433143174e-06
2.490195221e-06
3.568440103e-06
1.581076752e-06
8.902999251e-06
4.300901448e-06
4.185603542e-06
3.254189527e-06
4.164486096e-06
4.962758428e-06
6.755784708e-06
4.677090805e-06
4.677090805e-06
)
;
    }
    procBoundary2to3
    {
        type            processor;
        value           nonuniform List<scalar> 
19
(
4.917062651e-06
3.79962999e-06
3.651117584e-06
4.469730644e-06
3.203785551e-06
5.215882263e-06
4.917062686e-06
3.725373774e-06
6.108751571e-06
4.768550219e-06
5.960239096e-06
3.278041791e-06
4.917062651e-06
5.960239096e-06
6.333314978e-06
4.842806435e-06
7.673516195e-06
4.172705811e-06
5.512907089e-06
)
;
    }
}


// ************************************************************************* //
