/*--------------------------------*- C++ -*----------------------------------*\
  =========                 |
  \\      /  F ield         | OpenFOAM: The Open Source CFD Toolbox
   \\    /   O peration     | Website:  https://openfoam.org
    \\  /    A nd           | Version:  7
     \\/     M anipulation  |
\*---------------------------------------------------------------------------*/
FoamFile
{
    version     2.0;
    format      ascii;
    class       volScalarField;
    location    "0.007";
    object      rhoNMean;
}
// * * * * * * * * * * * * * * * * * * * * * * * * * * * * * * * * * * * * * //

dimensions      [0 -3 0 0 0 0 0];

internalField   nonuniform List<scalar> 
546
(
7.773603252e+19
9.945368166e+19
1.002927524e+20
9.984941359e+19
9.984643816e+19
9.973039647e+19
9.981965931e+19
1.003790398e+20
1.010812408e+20
1.007717963e+20
1.012300122e+20
1.01360931e+20
1.003849906e+20
9.972742104e+19
9.97125439e+19
9.867411952e+19
9.834682244e+19
9.895976061e+19
9.959650221e+19
9.992379929e+19
7.758131027e+19
9.96381582e+19
9.978097874e+19
1.002243175e+20
1.011228968e+20
1.012508402e+20
1.011258722e+20
9.998628328e+19
9.989404501e+19
1.000428164e+20
1.003820152e+20
9.976312618e+19
9.958757592e+19
1.000219884e+20
9.987619244e+19
1.005159095e+20
1.002362192e+20
1.004802043e+20
9.98613153e+19
9.877528407e+19
7.751287542e+19
9.981073302e+19
1.005902952e+20
1.002005141e+20
9.951319022e+19
9.966791248e+19
9.910555658e+19
9.993272557e+19
9.922159827e+19
1.000100867e+20
9.995950442e+19
1.002243175e+20
9.991784843e+19
1.003046541e+20
1.00060669e+20
9.992082386e+19
9.953401822e+19
9.952806736e+19
1.000071113e+20
1.008997397e+20
7.722128347e+19
9.940309938e+19
9.926325427e+19
9.883479263e+19
9.895083432e+19
9.882586635e+19
9.969766676e+19
9.935251711e+19
9.978097874e+19
9.878421036e+19
9.854915154e+19
9.883479263e+19
9.873362808e+19
9.87782595e+19
9.917399143e+19
9.879611207e+19
9.913233543e+19
9.966791248e+19
9.980180674e+19
9.989404501e+19
7.738195659e+19
9.890322748e+19
9.966493705e+19
9.938524682e+19
9.981668388e+19
9.949236223e+19
9.869494751e+19
9.828136302e+19
9.841823271e+19
9.851047098e+19
9.856105325e+19
9.851047098e+19
9.923945084e+19
9.941202567e+19
9.941797652e+19
9.99892587e+19
1.002748998e+20
1.004861552e+20
9.999520956e+19
1.002005141e+20
7.757535941e+19
9.993272557e+19
1.003671381e+20
1.002391947e+20
1.003314329e+20
1.006914597e+20
1.003671381e+20
1.005099586e+20
1.0076287e+20
1.014115133e+20
1.013073733e+20
1.004593763e+20
1.003552364e+20
1.006408774e+20
1.010366094e+20
1.011347985e+20
1.009622237e+20
1.002987032e+20
9.996843071e+19
1.002451455e+20
7.75218017e+19
9.965898619e+19
1.008313048e+20
1.006289757e+20
1.004772289e+20
1.005367375e+20
1.010276831e+20
1.015662356e+20
1.008967643e+20
1.005040078e+20
1.002421701e+20
1.012151351e+20
1.009979288e+20
1.001172021e+20
9.917399143e+19
9.874552979e+19
9.893298176e+19
9.902819545e+19
9.955484621e+19
9.913531086e+19
7.756643313e+19
9.996843071e+19
1.007241894e+20
1.002748998e+20
1.008194031e+20
1.012389385e+20
1.008402311e+20
1.006974106e+20
1.010009042e+20
1.013996116e+20
1.016227687e+20
1.00700386e+20
1.002778752e+20
1.003195312e+20
1.004206958e+20
1.00804526e+20
1.012210859e+20
1.00143981e+20
9.97125439e+19
9.987619244e+19
7.763486797e+19
9.943582909e+19
1.001826615e+20
9.985238902e+19
9.982263474e+19
9.909365487e+19
9.973932275e+19
9.959650221e+19
9.92662297e+19
9.917399143e+19
9.878718578e+19
9.960245306e+19
1.000309147e+20
9.9935701e+19
1.002987032e+20
1.003463101e+20
1.005664917e+20
1.010990934e+20
1.017596384e+20
1.022208297e+20
7.755750684e+19
9.947450966e+19
9.977502789e+19
9.9171016e+19
9.986726616e+19
1.005694672e+20
9.990594672e+19
9.951021479e+19
9.968874047e+19
1.001767107e+20
1.002629981e+20
1.000785215e+20
1.005992214e+20
1.007896488e+20
1.008402311e+20
1.006260003e+20
1.005694672e+20
1.012062088e+20
1.009622237e+20
1.005516146e+20
7.768842567e+19
1.001380301e+20
1.008551083e+20
1.003909415e+20
1.003611872e+20
1.005456637e+20
1.012478648e+20
1.011526511e+20
1.007301403e+20
1.008134523e+20
1.010276831e+20
1.008997397e+20
1.005367375e+20
1.011615773e+20
1.01694179e+20
1.019232869e+20
1.010812408e+20
1.007658454e+20
1.008015506e+20
1.011853808e+20
7.759023655e+19
9.90758023e+19
1.003790398e+20
1.002213421e+20
1.002838261e+20
1.000487673e+20
9.938822224e+19
9.907877773e+19
9.955484621e+19
1.003790398e+20
1.003314329e+20
9.980478217e+19
9.98613153e+19
1.001767107e+20
9.956972335e+19
9.962030563e+19
1.005992214e+20
1.005040078e+20
9.954889536e+19
9.900736746e+19
7.782231994e+19
9.995950442e+19
1.002510964e+20
1.006349266e+20
9.987619244e+19
9.981073302e+19
1.006200494e+20
1.007063369e+20
1.010128059e+20
1.009116414e+20
1.004236712e+20
1.002987032e+20
1.000785215e+20
9.998033242e+19
9.9914873e+19
9.954889536e+19
9.976312618e+19
9.984643816e+19
9.98077576e+19
1.003820152e+20
7.798001762e+19
1.004564009e+20
1.004772289e+20
1.002005141e+20
1.003314329e+20
1.000666198e+20
9.977800332e+19
9.9956529e+19
9.92245737e+19
9.856402868e+19
9.94477308e+19
9.908472859e+19
1.00039841e+20
1.002243175e+20
9.965303534e+19
9.953104279e+19
9.944475538e+19
9.927813141e+19
9.966493705e+19
9.921267199e+19
7.764676968e+19
9.962923191e+19
1.000844724e+20
1.000011604e+20
1.002034895e+20
9.958460049e+19
9.958757592e+19
1.000547181e+20
1.004444992e+20
1.008937888e+20
1.003879661e+20
1.001975387e+20
9.944177995e+19
9.884371892e+19
9.905794973e+19
9.93941731e+19
9.952211651e+19
9.951319022e+19
9.999818499e+19
9.989404501e+19
7.75634577e+19
9.960245306e+19
9.94685588e+19
1.005902952e+20
1.00533762e+20
1.012181105e+20
1.012210859e+20
1.0065873e+20
1.001112513e+20
9.898951489e+19
9.999818499e+19
1.001618335e+20
1.000338901e+20
1.002213421e+20
9.980180674e+19
1.000428164e+20
9.997735699e+19
9.913828629e+19
9.863246353e+19
9.846583956e+19
7.757535941e+19
9.956079707e+19
9.991189758e+19
9.935846796e+19
9.883479263e+19
9.87038738e+19
9.8385503e+19
9.929598398e+19
9.945963252e+19
1.000130621e+20
9.947450966e+19
9.970659304e+19
9.964708448e+19
9.98404873e+19
9.959947763e+19
9.867709495e+19
9.936739425e+19
1.004623518e+20
1.009532974e+20
1.008759363e+20
7.60668174e+19
9.792431166e+19
9.849261841e+19
9.820995275e+19
9.859973382e+19
9.88734732e+19
9.898951489e+19
9.876040693e+19
9.89270309e+19
9.88526452e+19
9.945963252e+19
9.940309938e+19
9.989106958e+19
9.95637725e+19
9.981370845e+19
1.00081497e+20
9.975419989e+19
9.875148065e+19
9.849856927e+19
9.820697732e+19
1.003038591e+20
1.000732362e+20
1.00639513e+20
1.002386522e+20
1.003815859e+20
1.011151808e+20
9.994671079e+19
9.976808009e+19
9.861823025e+19
9.791570895e+19
9.86154487e+19
9.939000529e+19
1.00166253e+20
1.002386522e+20
1.011712204e+20
1.013951549e+20
9.902404374e+19
1.000326531e+20
1.004558182e+20
1.005952827e+20
1.0102834e+20
1.009172281e+20
1.008076458e+20
1.016654811e+20
1.002426101e+20
9.971212894e+19
1.007081356e+20
9.983722986e+19
1.001016209e+20
1.004946844e+20
1.007305665e+20
1.004565875e+20
1.001008683e+20
9.918185868e+19
1.001194263e+20
1.002116274e+20
1.001975331e+20
1.000506915e+20
1.001591401e+20
9.931494096e+19
9.871675333e+19
9.772675534e+19
9.904225814e+19
9.898429636e+19
9.920029091e+19
9.997301387e+19
9.954061755e+19
9.974102082e+19
9.940836281e+19
1.001776479e+20
1.003529765e+20
1.010872622e+20
1.005087443e+20
1.003640884e+20
1.001510124e+20
9.900583072e+19
1.007290375e+20
1.008865024e+20
1.008705621e+20
1.002020347e+20
1.000674817e+20
9.99341175e+19
1.009166203e+20
1.005679204e+20
1.005016104e+20
1.003675235e+20
9.897626806e+19
9.890521127e+19
9.962935774e+19
9.986365914e+19
9.964998382e+19
9.966206105e+19
9.992962267e+19
1.00132032e+20
1.009343298e+20
1.014587854e+20
9.960929509e+19
9.976507358e+19
9.998355577e+19
1.005312662e+20
1.010621089e+20
1.017303031e+20
1.013494041e+20
1.016780246e+20
1.014933922e+20
1.009242894e+20
1.025922888e+20
1.022153798e+20
1.022268043e+20
1.017110089e+20
1.012248096e+20
1.00802841e+20
1.004994044e+20
1.005553775e+20
1.007985133e+20
1.005106913e+20
1.008484766e+20
1.013464987e+20
1.014699737e+20
1.021134036e+20
1.010129922e+20
1.009172281e+20
1.009477552e+20
1.004268047e+20
9.959826705e+19
9.919672213e+19
1.012874163e+20
1.001769657e+20
9.990787189e+19
9.928140819e+19
9.937369848e+19
9.978263121e+19
9.984555663e+19
9.963969829e+19
1.002141832e+20
1.010770025e+20
9.867766944e+19
9.871279387e+19
9.890582572e+19
9.908021085e+19
9.888866421e+19
9.915195651e+19
9.899866834e+19
9.962715404e+19
9.995834141e+19
9.939079507e+19
1.006752898e+20
1.00778268e+20
1.003226165e+20
1.008147706e+20
1.003898146e+20
1.003885743e+20
1.005959246e+20
9.992506408e+19
1.000373042e+20
1.004311525e+20
9.947791198e+19
9.953056501e+19
9.969595827e+19
9.990023967e+19
1.006967983e+20
1.001072432e+20
9.990159996e+19
1.000912647e+20
9.964248662e+19
9.980439384e+19
9.978546789e+19
9.962978056e+19
9.956881186e+19
9.948870104e+19
9.957323721e+19
9.948275157e+19
9.963383473e+19
1.001916145e+20
1.003563176e+20
1.001098194e+20
9.898224002e+19
9.949448754e+19
1.00407381e+20
1.005129756e+20
1.002547417e+20
9.98104551e+19
9.993584909e+19
9.948917498e+19
9.939927968e+19
1.000970933e+20
1.006215422e+20
9.991840567e+19
9.973531421e+19
1.005526046e+20
1.001626466e+20
1.002865534e+20
1.009103939e+20
1.012452721e+20
1.005489878e+20
1.003611597e+20
9.825963229e+19
9.85143641e+19
9.754050156e+19
9.729382903e+19
9.757784374e+19
9.799881109e+19
9.808016893e+19
9.809056904e+19
9.877704714e+19
9.862086637e+19
)
;

boundaryField
{
    flow
    {
        type            calculated;
        value           nonuniform List<scalar> 
48
(
7.773603252e+19
7.758131027e+19
7.751287542e+19
7.722128347e+19
7.738195659e+19
7.757535941e+19
7.75218017e+19
7.756643313e+19
7.763486797e+19
7.755750684e+19
7.768842567e+19
7.759023655e+19
7.782231994e+19
7.798001762e+19
7.764676968e+19
7.75634577e+19
7.757535941e+19
7.60668174e+19
7.60668174e+19
9.792431166e+19
9.849261841e+19
9.820995275e+19
9.859973382e+19
9.88734732e+19
9.898951489e+19
9.876040693e+19
9.89270309e+19
9.88526452e+19
9.945963252e+19
9.940309938e+19
9.989106958e+19
9.95637725e+19
9.981370845e+19
1.00081497e+20
9.975419989e+19
9.875148065e+19
9.849856927e+19
9.820697732e+19
9.825963229e+19
9.85143641e+19
9.754050156e+19
9.729382903e+19
9.757784374e+19
9.799881109e+19
9.808016893e+19
9.809056904e+19
9.877704714e+19
9.862086637e+19
)
;
    }
    obstacle
    {
        type            calculated;
        value           nonuniform 0();
    }
    frontAndBack
    {
        type            empty;
    }
    procBoundary2to0
    {
        type            processor;
        value           nonuniform List<scalar> 
31
(
7.732244803e+19
9.954889536e+19
9.987619244e+19
9.937632053e+19
9.959055135e+19
9.981965931e+19
9.986726616e+19
9.982858559e+19
9.954591993e+19
9.895083432e+19
9.902522003e+19
9.904009717e+19
9.970956847e+19
9.998330785e+19
1.008699854e+20
1.010217322e+20
1.01735835e+20
1.00908666e+20
1.001796861e+20
9.996247985e+19
1.006691698e+20
1.004627706e+20
1.002627733e+20
9.992819997e+19
9.957299943e+19
1.000970933e+20
1.000780939e+20
1.004325185e+20
1.006192939e+20
1.005922349e+20
1.005922349e+20
)
;
    }
    procBoundary2to3
    {
        type            processor;
        value           nonuniform List<scalar> 
19
(
1.01058319e+20
1.024043532e+20
9.929565602e+19
1.003500487e+20
1.01160874e+20
9.997508277e+19
9.958729675e+19
1.027889343e+20
1.001994218e+20
1.001064806e+20
9.941743934e+19
1.016448061e+20
9.979561084e+19
1.003756874e+20
9.991098662e+19
9.98372738e+19
9.976035756e+19
1.005487497e+20
9.879249493e+19
)
;
    }
}


// ************************************************************************* //
