/*--------------------------------*- C++ -*----------------------------------*\
  =========                 |
  \\      /  F ield         | OpenFOAM: The Open Source CFD Toolbox
   \\    /   O peration     | Website:  https://openfoam.org
    \\  /    A nd           | Version:  7
     \\/     M anipulation  |
\*---------------------------------------------------------------------------*/
FoamFile
{
    version     2.0;
    format      ascii;
    class       volVectorField;
    location    "0.007";
    object      UMean;
}
// * * * * * * * * * * * * * * * * * * * * * * * * * * * * * * * * * * * * * //

dimensions      [0 1 -1 0 0 0 0];

internalField   nonuniform List<vector> 
546
(
(14.0135493 -4.790249644 -2.743083537)
(23.04405409 -13.28186995 8.222042098)
(19.52050707 -5.872075793 2.225118559)
(19.06145812 -7.607523954 -6.270139081)
(20.05772609 -8.001789944 -10.1592618)
(20.05776966 0.575398096 -7.545214185)
(21.86401841 -1.918642815 -6.533564676)
(19.5544313 -12.58453732 -3.116060081)
(22.19460726 -0.8174000094 3.685079945)
(25.66137122 1.53060954 -3.673956853)
(32.80345765 4.310088213 -3.745487012)
(32.5070329 9.727871722 -13.87620432)
(25.99468842 -1.380659774 -3.956047264)
(26.47272624 -13.47870722 -16.3061662)
(33.11924919 -8.57521479 -2.598005453)
(38.30931083 -9.052879127 -4.888934365)
(39.40652232 -1.152401359 5.237884717)
(37.30458645 3.195776525 6.217336426)
(37.97733043 -1.341227219 0.04889216534)
(38.05045275 8.95580052 9.300668668)
(11.9024463 -11.38962524 -9.803128212)
(13.602508 -6.415409338 12.1743476)
(19.09464589 -7.000361042 -0.3849003533)
(13.77626709 -6.602752528 1.338312858)
(11.47865929 -6.015300101 -11.18001897)
(13.32900581 -1.911252349 -3.661267614)
(14.39127079 1.835716634 3.493093663)
(5.837055266 -10.46262825 1.379481934)
(12.64214834 -10.53976638 7.866013916)
(23.91132256 0.1087532071 -4.827012932)
(24.45513858 -1.547358385 -8.041369122)
(24.54163808 9.9110947 -10.45139901)
(34.90566313 -1.270685536 -12.84822422)
(27.14281279 -10.60057916 -2.544711368)
(22.61289151 -13.12952436 4.279806488)
(32.31043806 -8.570004654 1.728747296)
(31.84527136 -3.363655679 13.80737722)
(34.67675106 0.6882657823 13.30132702)
(37.72165883 5.777401625 9.673213036)
(41.10506291 2.858975141 5.327511008)
(10.78632894 -5.837983334 0.3453431734)
(15.50105544 -11.84689591 -2.282160164)
(17.00629027 -9.057894199 -6.963830753)
(22.53962554 -5.120038627 -8.501917788)
(16.39667938 0.3003475434 -7.223202136)
(13.35980809 -2.780237832 -1.602290915)
(16.22222512 0.5349991457 -2.168272964)
(20.21000644 -3.619387416 3.948777169)
(14.01045128 -12.54724364 2.405825253)
(14.85702473 -9.292017654 -1.939623853)
(21.69036573 0.1188667161 -15.00307876)
(23.07027108 -2.498343887 -4.19896494)
(30.95075468 -3.36035244 -12.89590242)
(31.51118882 -0.5283997853 -6.966040538)
(29.75827578 -12.57031689 -11.3632382)
(24.61015982 -12.79886367 -8.435917469)
(26.8478347 -1.891931137 0.1493627211)
(28.01611385 -6.088824208 13.78880675)
(36.59153603 0.3696690101 7.940384716)
(38.47541311 2.964408451 -0.6309319213)
(8.108667307 -2.622012342 -4.093741291)
(11.74428732 -7.880807521 -0.07746842891)
(9.791278893 -5.965571732 -2.83358884)
(9.544000657 -9.728261683 0.7720909877)
(19.68904774 -3.504216332 -6.729702592)
(20.27002282 -0.4794784008 -2.387867776)
(17.15133937 -5.262073008 6.101190082)
(20.28859235 -2.785995977 7.66886024)
(22.27476632 -8.257200232 0.2436536144)
(18.43429884 -11.52302568 -1.376358547)
(16.89626344 -1.11806413 -2.889538279)
(27.20988004 -8.244365036 3.312197769)
(22.16936127 -0.08875163619 -13.23086809)
(30.32592571 -8.321607611 -15.19571253)
(33.1136898 -8.975850709 -1.041411908)
(30.27403542 -7.671620091 3.065959344)
(30.0720908 -5.20204085 -6.452993345)
(33.40187511 -6.75856481 -0.6412871049)
(30.19394212 -0.2009673619 3.100361415)
(29.9764457 -1.083695818 -0.08231905037)
(7.703444323 -6.362528018 2.421079893)
(12.15391737 -4.761777953 -4.387333911)
(16.27548327 -11.99228978 8.293818288)
(18.77936882 -6.628046219 11.15106127)
(12.17011089 -9.204828822 5.499865392)
(15.33661931 -1.910599006 9.345955214)
(18.0300213 -2.329170714 3.481143698)
(24.93923569 -7.884118044 13.37646002)
(22.57612665 -8.428987011 4.238064401)
(27.03129324 -8.494514429 -12.96760008)
(28.8645461 -10.99419315 -14.38037338)
(30.36416982 -2.508945296 -2.489533857)
(28.21057853 -1.978869183 -18.27764941)
(31.73696253 -12.96703243 -9.468328858)
(28.20364645 -0.9334039687 -0.5727820492)
(24.08485747 -4.935523668 -2.361091066)
(21.67212286 -7.143577059 -5.66851967)
(21.8724514 -11.76500497 -13.6242635)
(29.59364296 -7.162489325 -19.84571527)
(27.89450561 3.952096845 -6.060184907)
(11.58527659 -1.123928859 16.75622014)
(22.25061345 -3.744510214 5.943261849)
(14.86354404 -13.59176294 3.175038826)
(11.93865471 -3.972832931 -5.634171294)
(15.87517581 -6.571244209 -1.181351325)
(18.17712543 -5.579457407 -3.182318411)
(20.57538549 -1.999217526 0.380095868)
(12.79998776 -10.58098787 0.05145358213)
(15.06780012 -10.368632 -1.01367183)
(15.97355058 -10.98384313 -8.33439778)
(23.04559043 -8.550510306 -13.25261845)
(22.85389486 -8.748781082 -2.113637402)
(27.11458522 -0.4811077584 -10.55735517)
(22.23922089 -14.16775146 -3.182756118)
(26.3957891 0.7924807754 -12.05407334)
(28.20530673 -2.030555859 0.27922121)
(25.93640884 -3.136839201 8.589521663)
(26.21303246 -15.03244074 -1.785090022)
(26.19739528 -7.4318195 -9.103250176)
(29.84204117 2.928521936 5.417840229)
(13.98652593 -3.109327925 9.557843224)
(17.83580153 -8.897633879 10.11145662)
(21.55403933 -7.916971841 12.0994697)
(16.32497253 1.64250539 0.9652775907)
(14.48848819 -13.33583556 -3.663694769)
(21.94944819 -6.871542559 1.937672882)
(23.33466635 -7.713970317 3.257923622)
(26.77066312 -4.08953106 -3.83644859)
(21.16310628 -8.868294216 2.602118016)
(26.54914749 -14.11549473 -9.791727413)
(20.9902534 -11.40998857 -6.651078874)
(29.36785512 -6.066339313 -5.614804158)
(25.64091092 -8.074966067 -2.003197002)
(32.92607814 -11.5240737 -5.919928013)
(28.72938443 1.287515705 -6.481733911)
(24.26338989 -0.1015129297 -6.55950936)
(29.42502577 -6.848506968 -20.43063233)
(33.67869061 -13.61996756 7.731748095)
(28.8210793 -5.835687528 2.161875515)
(35.14914543 -2.641510496 2.167184551)
(11.28276029 -9.049168562 8.69547462)
(19.25625645 -5.607255621 5.693545627)
(14.94393792 -4.871856796 5.717322803)
(19.73955631 -0.6465735934 -1.939962565)
(18.03855412 -11.48867344 2.213265013)
(13.50467304 -14.08881881 11.63597743)
(22.78644026 -4.487920733 5.806988905)
(19.16885738 -1.742852274 -5.496383512)
(18.71575507 -17.00281288 -7.88135707)
(17.32584789 -6.350575459 2.322017418)
(17.79188976 -15.91028314 -9.97079878)
(15.88465118 -10.0791513 -2.246497506)
(20.783558 -6.590341803 9.612072327)
(16.34375265 -12.36921168 10.13034546)
(27.40266699 -7.675386604 -1.847628186)
(38.68166029 -1.458597305 0.6943826432)
(37.01919296 -0.6926314643 2.794577503)
(31.19805266 -10.29458123 0.6659683486)
(27.93027396 -4.385509381 -1.640596655)
(26.82469727 -9.586727893 -3.045825614)
(8.896077634 -2.198002158 -0.7903762801)
(17.87543407 -10.72961204 3.95071895)
(18.54241478 -8.429357135 -16.90453901)
(26.68361385 -6.968071207 -17.16798873)
(24.35279793 -1.073599178 7.642110692)
(22.91073431 -13.8919548 8.535370202)
(16.49944843 -8.964710348 2.00746761)
(16.01862336 1.401881942 -6.016462681)
(16.39650549 -12.04532146 -13.12580008)
(15.94017815 -13.83962978 -2.204756993)
(18.67426442 -8.276933957 7.915350215)
(15.42583047 -6.448101579 3.434435495)
(17.07206374 -9.284931746 0.3610480916)
(26.57516259 -15.76395732 8.456255603)
(25.83967077 -9.859081775 1.892905157)
(17.47154444 -5.067363145 3.177314725)
(29.23678138 -10.0330266 13.19400903)
(26.00001519 -0.4347069489 -2.636530394)
(25.33683183 -7.262565597 -2.977640603)
(27.98707953 -8.309429352 -3.716573475)
(12.90181516 -5.238684956 4.403699194)
(17.86626733 -9.420373296 9.752407609)
(17.09509923 -6.767762084 -12.10642202)
(19.21316701 -12.96088333 -5.850945752)
(27.82750551 -2.876778413 0.1912488034)
(20.46167718 -8.294874867 4.363324688)
(14.45778159 -0.3480996061 -5.611035723)
(14.15790901 -1.429918465 -8.326491087)
(18.2351559 -13.42727608 -5.543672481)
(16.13180536 -9.290661478 2.249991373)
(9.812656824 -11.03977766 1.407712956)
(16.48930519 -13.68312944 4.743302828)
(24.00217983 -13.32103159 -3.139860869)
(25.89490075 -19.53880588 8.955666177)
(29.75978983 -9.173920861 4.805873181)
(32.64495585 -0.2374122377 7.211359632)
(22.57961636 -12.38234128 -1.975612976)
(25.29677778 3.503292445 4.753906176)
(25.87271473 -11.97445304 3.92117582)
(25.91231328 -11.38998061 -4.587423544)
(12.221443 -12.38999183 0.9125489691)
(21.55561076 -8.938228065 2.408103851)
(23.76839478 -8.019588684 -0.06441929168)
(20.23149724 -9.852008655 2.529626111)
(17.18999605 -7.183698135 0.467086931)
(15.46807508 1.571407404 3.742348764)
(12.05455193 -0.6840841884 2.27620758)
(20.06465698 -9.2995639 2.970729123)
(21.64053054 -4.61359393 15.99397234)
(14.60330907 -8.580414607 10.07773751)
(22.71383632 -12.9437045 6.246049268)
(25.53104836 -18.48724716 10.05215621)
(28.78720338 -19.0566982 9.135962367)
(25.01900007 -15.9054988 0.03373116943)
(15.5981992 -11.32948685 -1.870438944)
(24.47339838 -4.532366033 1.327264679)
(25.31515277 -1.348885742 -1.900410179)
(25.38398484 -5.049082301 -1.117666224)
(34.96067611 -9.030972798 1.977608211)
(24.9834214 -6.907037035 9.692359019)
(6.014197604 -11.51042802 -8.689966414)
(9.398086839 -8.146327517 0.03819340411)
(12.95512581 -8.238995313 3.711078292)
(13.13478888 -6.898910901 -2.760323624)
(13.19553332 -5.898051977 1.375124497)
(18.647877 -2.622436126 14.04059004)
(26.70683797 -6.929740952 4.033666957)
(25.47227611 -6.408593906 9.112495164)
(22.76138849 -2.92956307 11.79163994)
(28.07172022 -14.96882072 -1.544472278)
(28.72170997 -12.91205188 7.772077278)
(26.10356686 -14.82586869 3.680275901)
(20.89588725 -11.93090536 -6.623429092)
(14.56239913 -11.08212797 1.214085161)
(19.7558426 -12.7266656 9.215441648)
(19.73863119 -10.69109838 -0.8058301329)
(24.85899569 -7.356429593 -0.446274463)
(34.20440335 -11.26251752 -8.449969508)
(34.3844068 -4.030872758 3.194105311)
(29.64997654 -4.888134115 -10.08060697)
(8.321558595 -1.700292234 5.850263413)
(11.63891762 -11.90316607 8.051523209)
(17.27304412 -11.21695748 16.50130066)
(18.05776575 -8.308273167 7.555090767)
(23.73230855 -9.318571866 4.813885712)
(20.82287603 -2.616530672 -0.6359662056)
(17.17947358 -8.508314823 -8.438032894)
(19.68027966 -5.593557341 16.10338507)
(23.20877705 -9.898725432 11.47234883)
(28.12164595 -12.17202435 5.040997195)
(25.88099504 -14.77925367 -10.22874435)
(18.3242932 -11.27166335 -5.859265449)
(21.96617401 -13.08158312 -4.440687238)
(24.00580243 -13.2486236 9.489839403)
(20.45896095 -4.695696624 -2.435823053)
(19.69447856 -10.81313864 -1.78133767)
(25.08192623 -17.17598901 -4.220764912)
(28.88916609 -9.536618834 -4.555009031)
(24.66592537 -4.805188816 1.985240947)
(28.73458903 -6.331277045 -7.296882751)
(14.4976978 -1.888982088 4.073293501)
(18.53780942 -11.99257632 -10.30657091)
(16.7802429 -13.46515375 2.010037751)
(16.63547851 -8.762502214 7.647561986)
(10.8184942 -3.794480075 0.744251249)
(16.33785078 -7.974389828 -5.449226448)
(14.30702555 -2.833678592 -16.35225813)
(15.25016908 -6.094422542 0.1300204911)
(22.79078451 -17.75168211 15.45988777)
(23.40798589 -17.31787288 1.80534625)
(22.90897866 -4.167941041 1.720468548)
(19.97844827 -8.486442787 -0.764029931)
(23.23722702 -18.33420861 -3.986543698)
(22.28526178 -10.53671143 -0.5597471665)
(28.2023515 -6.468316543 3.042365214)
(28.26096368 -13.61199902 -1.833896844)
(24.85183363 -18.15657305 3.848582303)
(28.21271065 -8.836018021 3.960649903)
(31.37382313 -8.263702507 -6.164874904)
(33.16185328 -7.569582534 -4.982750627)
(8.38009856 -4.522486802 7.333643358)
(15.66171181 -13.21796889 -0.5102617252)
(15.53518394 -7.061325907 -12.8770895)
(10.47736318 -6.573863609 -1.161860893)
(11.43145551 -6.195162711 -3.698142966)
(14.59840181 -11.3231224 3.127595571)
(21.38018471 -4.557289545 -3.31982307)
(22.19193782 -14.00886242 0.7165521567)
(26.110865 -16.59332573 0.3934038593)
(22.95493412 -13.80209618 -2.281440341)
(18.8062501 0.4363338572 -4.063383714)
(25.63600751 -12.73857001 -3.174624351)
(23.98621354 -16.51713034 2.076886489)
(20.71094208 -12.5867312 -3.294013477)
(19.70054056 -11.53619959 2.01853848)
(20.78635272 -12.14166282 9.529301197)
(22.09182359 -14.17112177 5.261133848)
(22.63634203 -12.56888269 -1.061187911)
(27.3994135 -8.888207021 -2.874810709)
(24.35993614 -11.37990072 -5.643818614)
(0.8218715614 -0.2186615617 11.62312481)
(1.034421558 -10.67692326 -6.741624575)
(5.624322293 -11.39380824 -14.23897112)
(9.395300989 -8.077796474 -12.90881704)
(11.445936 -12.01225174 2.985959571)
(6.137286725 -6.825868547 -4.676048886)
(11.36003719 -15.44251607 -3.280715646)
(23.66666659 -10.47232145 -3.279548675)
(18.05730527 -21.12675371 1.450712871)
(17.34748691 -7.745746314 11.62913885)
(13.52757644 -2.164188623 2.923408829)
(15.99878916 -12.63455434 -8.975586484)
(14.24278966 -16.52468545 -5.548631699)
(16.64157284 -9.263360096 -1.12793307)
(19.1672256 -10.70525498 -0.9586995663)
(21.06007871 -14.91982495 0.3438765075)
(21.67339691 -17.70614368 0.9768093455)
(24.1565072 -15.02290187 3.666754112)
(30.9964312 -10.18232573 -3.582042772)
(29.48153075 -12.3612363 8.79524349)
(8.317861421 -1.513990623 10.60061692)
(11.87900616 -6.657373091 -4.315459275)
(4.209807449 -15.25340017 -17.96356054)
(12.35448672 -9.762357619 -13.0339325)
(7.320948478 -4.950076545 -3.315562387)
(10.89009399 -11.54870479 8.373916823)
(10.18666708 -19.9763567 9.982230357)
(10.88735952 -15.04602285 4.55055633)
(8.716357527 -10.24417946 -6.19294367)
(4.470159305 -10.64069138 3.945640851)
(9.182612404 -3.748076468 3.900953843)
(12.1277125 -14.94678747 -9.590100231)
(15.36731834 -17.54139346 7.890294402)
(17.76496425 -15.38787306 0.6982528548)
(18.33888964 -7.904728077 -5.547228183)
(21.21395105 -23.68476803 -1.208948266)
(26.41947607 -8.574403878 15.88525812)
(19.71693235 -16.85908453 8.967193507)
(20.62921151 -13.66932928 -3.467138583)
(28.76819146 -13.36802119 12.937258)
(-6.38726114 -4.650451787 -3.894871887)
(11.42233455 1.851779725 -9.908978778)
(8.509713724 -4.858904195 -5.415537343)
(4.179798395 -5.369077888 -7.233879236)
(10.28542363 -5.740004827 -2.818182734)
(16.44530041 -5.667863995 10.77097143)
(18.55306982 -12.44424948 5.709374591)
(10.76682527 -8.582912949 -4.41820501)
(5.997062283 -3.508175162 1.03129692)
(9.416032654 -3.632291823 7.200271046)
(16.12566795 -7.936935198 -1.16553352)
(21.28859748 -7.445789962 0.457014058)
(16.7053437 -5.419625809 -3.700919502)
(11.99262016 -10.15351238 4.459029761)
(12.04552226 -3.663876848 5.838849156)
(13.02762578 -18.91266166 7.3360182)
(14.40260097 -4.775739201 11.72219501)
(19.33492183 -10.01386408 6.168424758)
(15.51400877 -14.26021107 4.982890471)
(16.1811631 -7.012288175 -2.871563572)
(43.59064258 2.010197098 -14.32023678)
(48.97739877 6.357341967 -0.3107464142)
(41.61541732 -3.191332772 1.118533499)
(40.1061666 -3.21536179 -6.289874299)
(51.60105755 1.06908648 -8.909205706)
(55.86077046 1.223290843 -7.00399721)
(41.16363713 10.19839556 -0.4780163141)
(46.31654767 3.989168625 -7.692486677)
(47.35227688 7.573170105 -8.660499141)
(44.68696974 2.218054937 -4.786710328)
(45.21864208 -2.140074352 -12.40088007)
(44.56249049 9.814750657 -15.93198812)
(49.71418893 0.647628134 -1.169866594)
(56.33701849 -10.96091669 -1.906576506)
(59.09897082 -1.084177337 2.272748519)
(55.52168493 -1.503163047 -7.235881634)
(41.24781409 3.496930804 -7.046300559)
(40.5170128 4.357487946 -5.002659188)
(43.62251797 6.460571147 -10.81485671)
(44.36729091 2.149174194 0.8488650339)
(38.94283263 3.991078678 3.067875089)
(49.81769443 0.5615331207 -7.122684202)
(54.21102594 -5.458228375 3.625010229)
(51.82880729 -5.66599671 -13.45822852)
(51.64636756 -1.525237054 -2.205830336)
(52.62927421 5.990488907 3.35681463)
(40.60976865 2.73733669 0.291601771)
(44.59336782 0.574418706 -7.526196486)
(50.7766685 6.845992613 -8.066565476)
(44.69025453 5.505578134 5.103848051)
(47.65108439 1.569241337 -3.451325017)
(47.28596584 -4.314714356 -6.809375241)
(48.92349973 -7.578831089 -2.352139393)
(48.00657419 -0.3890038777 5.131260097)
(47.03587002 -2.619044233 1.385672654)
(55.47745268 5.785823556 2.826896237)
(35.02619764 3.440224568 -2.378536795)
(34.81872575 -7.229707089 -15.25214301)
(47.26322855 6.359667996 -10.76127927)
(45.14314979 6.457322191 6.003365488)
(41.95021449 -4.919300899 -10.19719752)
(43.48175223 -3.377794259 -8.562566662)
(44.00941021 0.5934813994 3.482863945)
(42.56666512 -4.867258067 -1.02225089)
(49.19212747 -7.397483802 -8.337705715)
(45.84004299 2.961674721 -5.17533067)
(28.85144219 -4.400362322 12.44480682)
(32.32392968 -1.950261509 6.798719734)
(18.11198907 -0.8293865935 10.7800779)
(32.58222798 2.417444772 -12.85787294)
(43.61268452 2.032796781 -14.50621899)
(39.27574884 -6.430620961 -3.262879483)
(41.22454757 -2.560018567 -5.502093971)
(42.26667552 -8.494445932 -7.842390273)
(35.99850336 -6.604869812 -7.166818138)
(37.69520851 -1.460753787 -6.833593532)
(28.29029799 -4.551695504 0.2608294771)
(33.5112962 0.8172901224 -2.083453243)
(42.11103504 -1.079271754 4.418609722)
(38.55379702 -4.977586746 -4.215415851)
(41.1435523 -6.105181846 -12.54407)
(41.22866257 0.2480525483 -2.382353879)
(40.94172055 -3.515084186 -11.7245265)
(40.45354093 -8.717217979 -9.712783793)
(44.97377139 -3.760639965 2.666021756)
(48.5142203 -7.850537504 0.9290633686)
(37.23562466 -4.649794649 1.961876414)
(42.45095425 -3.485252561 3.61930517)
(37.69048217 -3.828872446 -6.14982213)
(39.85552791 -5.177691615 -6.314215018)
(36.32711534 -4.035845695 5.521809163)
(35.75658836 -3.980401149 1.849261369)
(40.53956884 -4.331007291 7.710848962)
(41.7179988 -5.603440326 3.371562128)
(31.76811117 -2.260254843 -3.845161868)
(40.80825009 -16.94158072 2.084182686)
(30.47858378 -3.141438665 -12.07304981)
(32.58612719 -4.273748683 -5.645233983)
(30.76349746 -8.4773523 -7.575825438)
(31.57450837 0.4538885393 -5.464613352)
(35.22360926 -6.384138934 10.98232419)
(35.60686123 -1.995188273 -2.303113973)
(39.50474418 -12.0548156 0.1745829775)
(39.87539733 -5.83643535 2.670813587)
(48.02498017 -6.47382881 6.639180175)
(44.92033728 -20.53213963 15.44142486)
(35.86605126 -4.258342874 -3.301487209)
(26.91998224 -3.051765913 -6.178877456)
(30.30632226 -1.415099426 5.380813638)
(32.82778345 -12.84528031 -3.150236199)
(33.72970336 -3.496737064 -0.2680158678)
(38.91049716 -8.437430834 4.04891964)
(37.90885301 -10.43573715 -1.705819999)
(35.81264249 -5.109362275 6.166649639)
(40.74972715 -9.733377363 4.804052934)
(36.88090495 -11.57068325 7.182939564)
(23.53961237 -0.1868748224 -10.57599577)
(29.43450832 -3.451565215 -1.744241705)
(32.12965147 -5.376781225 9.528180521)
(27.93130809 -11.22430711 3.945164904)
(25.9974707 -6.088668488 0.9616988835)
(27.81131667 -6.936726263 12.02782122)
(32.13357775 -14.92154083 4.271973116)
(34.91613406 -7.683324668 -1.561982918)
(35.17047015 -9.360298928 9.78530386)
(38.8496709 -10.2902891 4.114389967)
(26.37588149 -4.683750222 -5.62744856)
(30.34738891 -9.031692699 -2.847936713)
(27.72603757 -4.435623969 6.398284232)
(38.67373179 -8.31109792 -1.233334017)
(41.78140547 -9.038282441 4.235548926)
(33.80422092 -7.21091547 -7.221012547)
(41.55299019 -14.79478098 3.836375949)
(44.47230135 -14.10603376 7.333288004)
(42.16423236 -6.469341568 12.00785878)
(35.70359558 -7.185461998 10.35561405)
(29.43816749 -6.548338293 -10.03489452)
(27.78540251 -9.377560298 -8.223058249)
(33.17633095 -7.466919197 13.03701135)
(32.73529987 -13.67162503 -0.2431299523)
(30.17694982 -6.999768768 1.344386002)
(39.95659705 -12.07598029 6.335911292)
(40.62915549 -14.43982047 -1.000536499)
(38.90599292 -11.45809868 0.4492083684)
(35.94940895 -6.316484794 3.021404694)
(32.66691521 -5.257163374 10.4870549)
(36.37348024 -5.496708276 -5.022923389)
(36.06347643 -8.347994107 -8.053541479)
(38.11273915 -13.33167855 3.992838969)
(36.46024631 -11.60364467 -6.299673448)
(41.50350809 -7.534417048 -7.523457786)
(36.91451383 -10.67424134 5.622562825)
(34.71359012 -17.69994373 6.022706106)
(32.72722932 -12.39026304 10.22585615)
(33.56895276 -5.111363187 -6.448012941)
(35.01195242 1.415510008 3.051730817)
(28.53719888 -11.37322704 -5.505297476)
(31.47609936 -8.023258163 -11.05212591)
(34.91501986 -13.36141787 -4.494329854)
(34.77112839 -5.340799571 -3.729503319)
(33.35971133 -12.49720752 -0.360859602)
(33.85428371 -7.462462315 6.703220572)
(33.47210272 -15.83131888 6.060127342)
(35.44301953 -11.53200128 0.3608067781)
(38.26689553 -2.781785009 -14.92547078)
(33.88939351 -6.172930361 -2.849999957)
(35.69616084 -6.607659461 -17.60765056)
(34.38756418 -11.11258465 -10.52882459)
(24.51713069 -8.922196643 3.841277438)
(30.98669835 -14.26987727 4.089500741)
(36.4902599 -8.238247027 -6.289741568)
(35.75964014 -9.887715744 -1.511271028)
(31.95194253 -14.10829901 -15.04206488)
(30.25773537 -12.96630727 -2.734938595)
(28.50547532 -6.237886458 -5.029774362)
(42.61457951 -10.16671543 -7.883253286)
(27.89927479 -10.49828622 -0.2859662814)
(25.80577713 -7.079490688 2.200077861)
(27.04251483 -10.87785808 17.8136082)
(27.10153263 -13.84681861 6.328346431)
(24.70042945 -6.226097188 12.82329071)
(24.75178889 -14.0896933 1.786757234)
(35.25290044 -12.15910206 -0.4574974589)
(34.20211882 -14.66719375 -1.465908601)
(36.61311033 -8.359526631 5.085672041)
(36.12981511 -9.71682731 -5.173973432)
(30.37417648 -11.79520632 3.721714365)
(33.25822535 -10.07094036 8.516019202)
(35.11377597 -7.405659292 7.368132232)
(32.62628695 -14.31291109 13.95854929)
(34.28024161 -7.351009787 2.80484012)
(34.26665214 -12.1204819 1.738474309)
(27.83507572 -20.60194518 -8.590912431)
(27.73551475 -5.035647344 -3.747882832)
(31.46326156 -17.91012174 7.842537524)
(35.13845578 -5.618946703 -7.165054404)
(11.81873148 -5.130232022 -1.217734384)
(12.10391889 -3.688295303 4.633269859)
(15.52925967 -7.163843516 1.969477973)
(18.50673632 -5.525693348 10.06917585)
(25.24882126 -6.747760453 -1.830325767)
(28.58431533 -4.214060987 -0.7267582199)
(24.97686796 -4.520648425 -6.218508519)
(19.86560741 -5.044404477 1.768580857)
(24.87275472 -10.31018162 0.4262968248)
(24.82915161 -5.09085936 -2.069622961)
)
;

boundaryField
{
    flow
    {
        type            calculated;
        value           nonuniform List<vector> 
48
(
(14.0135493 -4.790249644 -2.743083537)
(11.9024463 -11.38962524 -9.803128212)
(10.78632894 -5.837983334 0.3453431734)
(8.108667307 -2.622012342 -4.093741291)
(7.703444323 -6.362528018 2.421079893)
(11.58527659 -1.123928859 16.75622014)
(13.98652593 -3.109327925 9.557843224)
(11.28276029 -9.049168562 8.69547462)
(8.896077634 -2.198002158 -0.7903762801)
(12.90181516 -5.238684956 4.403699194)
(12.221443 -12.38999183 0.9125489691)
(6.014197604 -11.51042802 -8.689966414)
(8.321558595 -1.700292234 5.850263413)
(14.4976978 -1.888982088 4.073293501)
(8.38009856 -4.522486802 7.333643358)
(0.8218715614 -0.2186615617 11.62312481)
(8.317861421 -1.513990623 10.60061692)
(-6.38726114 -4.650451787 -3.894871887)
(-6.38726114 -4.650451787 -3.894871887)
(11.42233455 1.851779725 -9.908978778)
(8.509713724 -4.858904195 -5.415537343)
(4.179798395 -5.369077888 -7.233879236)
(10.28542363 -5.740004827 -2.818182734)
(16.44530041 -5.667863995 10.77097143)
(18.55306982 -12.44424948 5.709374591)
(10.76682527 -8.582912949 -4.41820501)
(5.997062283 -3.508175162 1.03129692)
(9.416032654 -3.632291823 7.200271046)
(16.12566795 -7.936935198 -1.16553352)
(21.28859748 -7.445789962 0.457014058)
(16.7053437 -5.419625809 -3.700919502)
(11.99262016 -10.15351238 4.459029761)
(12.04552226 -3.663876848 5.838849156)
(13.02762578 -18.91266166 7.3360182)
(14.40260097 -4.775739201 11.72219501)
(19.33492183 -10.01386408 6.168424758)
(15.51400877 -14.26021107 4.982890471)
(16.1811631 -7.012288175 -2.871563572)
(11.81873148 -5.130232022 -1.217734384)
(12.10391889 -3.688295303 4.633269859)
(15.52925967 -7.163843516 1.969477973)
(18.50673632 -5.525693348 10.06917585)
(25.24882126 -6.747760453 -1.830325767)
(28.58431533 -4.214060987 -0.7267582199)
(24.97686796 -4.520648425 -6.218508519)
(19.86560741 -5.044404477 1.768580857)
(24.87275472 -10.31018162 0.4262968248)
(24.82915161 -5.09085936 -2.069622961)
)
;
    }
    obstacle
    {
        type            calculated;
        value           nonuniform 0();
    }
    frontAndBack
    {
        type            empty;
    }
    procBoundary2to0
    {
        type            processor;
        value           nonuniform List<vector> 
31
(
(6.884833673 -8.049751155 -3.819959827)
(17.04687236 -7.249412315 -3.188380103)
(24.43088397 -8.841029369 -6.401902314)
(24.52484398 -7.007491088 -12.43638886)
(26.03747101 -7.450105506 -9.963062285)
(35.95936832 7.800859472 -5.295021264)
(26.62051241 -11.98782183 -13.84328926)
(29.487334 -7.160540923 -19.05728968)
(29.69928088 -5.011965348 1.660684789)
(23.22390487 8.188033952 -6.216985531)
(30.82448161 8.826800104 -16.98980268)
(29.70504782 2.55677121 -12.51165375)
(28.8231613 0.5103539803 2.739180796)
(29.33959858 -11.27836121 -2.119961868)
(32.74579342 -8.505236948 -6.94004348)
(34.70386177 -2.294834992 -2.491697669)
(29.77329742 -4.718860371 8.214564255)
(32.2160807 6.605609524 6.567017814)
(42.43282647 0.506688 8.139506194)
(43.41404637 8.609375612 8.376672764)
(49.97060405 1.026675226 -7.781963687)
(44.07459256 3.175166841 -4.812762064)
(54.87554994 -0.351874499 -6.847831804)
(50.11098755 -1.274380998 -2.943308834)
(48.97000653 0.8372589819 -5.911692882)
(43.8481097 -1.60922712 -6.641078798)
(45.48421526 11.64527394 12.03345533)
(46.94099081 8.469198844 -5.800026983)
(47.84470435 6.978774081 -5.567561954)
(45.26642531 -4.053628221 -4.015494806)
(45.26642531 -4.053628221 -4.015494806)
)
;
    }
    procBoundary2to3
    {
        type            processor;
        value           nonuniform List<vector> 
19
(
(60.31272965 -14.47676129 -2.897256165)
(48.38649009 -8.759097873 -14.69532639)
(42.02483821 -0.3647749818 -5.195808917)
(65.120667 -3.136104258 5.046458819)
(48.31881191 -1.367255513 -1.247813487)
(47.75464879 -6.576503405 -5.059102513)
(50.1429983 -8.832471584 1.101748315)
(46.76349378 -2.228834218 3.176898998)
(40.95794379 3.897451993 9.739853922)
(36.42172321 -4.964705985 4.499558201)
(39.49229185 -11.56498373 -3.000662175)
(33.45501749 -9.499269919 7.832004923)
(35.33646341 -8.717805947 -1.343366453)
(37.31347619 -19.21185208 -7.527738279)
(34.7327387 -12.48380343 0.5467080918)
(42.11143547 -7.543800011 -5.411814542)
(32.38804804 -9.391959493 -16.11218208)
(34.97879646 -13.1885896 -0.6491993474)
(25.08813515 0.4184695134 -3.959550958)
)
;
    }
}


// ************************************************************************* //
