/*--------------------------------*- C++ -*----------------------------------*\
  =========                 |
  \\      /  F ield         | OpenFOAM: The Open Source CFD Toolbox
   \\    /   O peration     | Website:  https://openfoam.org
    \\  /    A nd           | Version:  7
     \\/     M anipulation  |
\*---------------------------------------------------------------------------*/
FoamFile
{
    version     2.0;
    format      ascii;
    class       volScalarField;
    location    "0.4";
    object      alpha.water;
}
// * * * * * * * * * * * * * * * * * * * * * * * * * * * * * * * * * * * * * //

dimensions      [0 0 0 0 0 0 0];

internalField   nonuniform List<scalar> 
7700
(
1
1
1
1
1
1
1
1
1
1
1
1
1
1
1
1
1
1
1
1
1
1
1
1
1
1
1
1
1
1
1
1
1
1
1
1
1
1
1
1
1
0.958073
0.942722
0.983353
0.99847
0.99847
1
1
1
1
1
1
1
1
1
1
1
1
1
1
1
1
1
1
1
1
1
1
1
1
1
1
1
1
1
1
1
1
1
1
1
1
1
1
1
1
1
0.994141
0.942885
0.942681
0.997899
0.99847
1
1
1
1
1
1
1
1
1
1
1
1
1
1
1
1
1
1
1
1
1
1
1
1
1
1
1
1
1
1
1
1
1
1
1
1
1
1
1
1
1
1
0.968639
0.942681
0.967251
0.99808
1
1
1
1
1
1
1
1
1
1
1
1
1
1
1
1
1
1
1
1
1
1
1
1
1
1
1
1
1
1
1
1
1
1
1
1
1
1
1
1
1
1
0.99998
0.966635
0.979626
0.998191
1
1
1
1
1
1
1
1
1
1
1
1
1
1
1
1
1
1
1
1
1
1
1
1
1
1
1
1
1
1
1
1
1
1
1
1
1
1
1
1
1
1
0.999999
0.999574
0.999109
0.999658
1
1
1
1
1
1
1
1
1
1
1
1
1
1
1
1
1
1
1
1
1
1
1
1
1
1
1
1
1
1
1
1
1
1
1
1
1
1
1
1
1
1
1
0.999983
0.999984
0.999704
1
1
1
1
1
1
1
1
1
1
1
1
1
1
1
1
1
1
1
1
1
1
1
1
1
1
1
1
1
1
1
1
1
1
1
1
1
1
1
1
1
1
1
0.999998
0.999996
0.999696
1
1
1
1
1
1
1
1
1
1
1
1
1
1
1
1
1
1
1
1
1
1
1
1
1
1
1
1
1
1
1
1
1
1
1
1
1
1
1
1
1
1
1
1
0.999999
0.9997
1
1
1
1
1
1
1
1
1
1
1
1
1
1
1
1
1
1
1
1
1
1
1
1
1
1
1
1
1
1
1
1
1
1
1
1
1
1
1
1
1
1
1
1
1
0.999711
1
1
1
1
1
1
1
1
1
1
1
1
1
1
1
1
1
1
1
1
1
1
1
1
1
1
1
1
1
1
1
1
1
1
1
1
1
1
1
1
1
1
1
1
1
0.999872
2.95764e-23
2.95285e-23
2.69946e-23
3.07215e-24
1.31844e-25
5.69949e-27
2.53864e-28
1.56146e-29
1.60382e-29
3.36615e-29
1.32492e-28
6.26469e-28
1.81508e-27
2.50734e-27
1.13036e-27
3.70995e-28
8.32476e-29
1.23924e-29
1.33172e-30
1.11088e-31
5.99048e-33
2.89274e-34
1.05849e-35
3.35899e-37
1.06638e-38
3.45665e-40
1.19164e-41
4.40327e-43
3.7237e-44
1.31921e-45
3.78129e-47
1.01111e-48
2.35977e-50
4.61562e-52
7.21008e-54
8.37846e-56
6.49002e-58
2.79319e-60
4.49915e-63
1.01107e-63
2.27531e-22
3.045e-22
1.65809e-22
3.28273e-23
3.38234e-24
3.36468e-25
2.75713e-26
2.24698e-27
1.13805e-27
8.03828e-27
2.13804e-26
3.03131e-26
1.87742e-26
1.30157e-26
4.71142e-27
1.84616e-27
7.96878e-28
2.92307e-28
6.81967e-29
9.38068e-30
6.35219e-31
2.17385e-32
2.88929e-34
1.05761e-35
3.35817e-37
1.06629e-38
3.45664e-40
1.19165e-41
4.22533e-42
1.89845e-43
4.38706e-45
1.16565e-46
2.7437e-48
5.451e-50
8.67011e-52
1.0262e-53
8.03096e-56
3.40796e-58
6.05802e-61
1.1115e-63
6.6334e-21
5.31448e-21
2.72139e-21
7.13975e-22
1.03449e-22
1.55783e-23
1.9578e-24
2.66878e-25
1.49352e-25
8.08538e-25
1.96072e-24
2.72707e-24
2.15412e-24
1.65179e-24
7.89838e-25
3.3075e-25
1.18814e-25
3.35855e-26
6.71889e-27
8.91353e-28
7.0226e-29
2.63323e-30
4.19658e-32
1.56721e-33
4.90167e-35
1.47989e-36
4.5567e-38
1.48127e-39
2.75873e-40
1.06848e-41
2.72611e-43
7.09247e-45
1.63954e-46
3.215e-48
5.05012e-50
5.79984e-52
4.91267e-54
2.98474e-56
7.86694e-59
4.06343e-61
7.80626e-20
6.63849e-20
3.88047e-20
1.23456e-20
2.42277e-21
5.39669e-22
9.88494e-23
2.09766e-23
1.36074e-23
5.51376e-23
1.19723e-22
1.56963e-22
1.41764e-22
1.03584e-22
5.47285e-23
2.36408e-23
8.18292e-24
2.16747e-24
4.1522e-25
5.53691e-26
4.77437e-27
1.89161e-28
3.33543e-30
1.28486e-31
4.04875e-33
1.18816e-34
3.50078e-36
1.06482e-37
1.01867e-38
4.93937e-40
1.35427e-41
3.39543e-43
7.62055e-45
1.44508e-46
2.14132e-48
3.18877e-50
3.53696e-52
2.54939e-54
8.68959e-57
7.74823e-59
6.27237e-19
6.56485e-19
4.79752e-19
1.83266e-19
4.64714e-20
1.40381e-20
3.57389e-21
1.19008e-21
9.23089e-22
2.84182e-21
5.53374e-21
6.75276e-21
6.58525e-21
4.62362e-21
2.53049e-21
1.1028e-21
3.76349e-22
9.76468e-23
1.85865e-23
2.54393e-24
2.3314e-25
9.64912e-27
1.83542e-28
7.40469e-30
2.40796e-31
7.06568e-33
2.03519e-34
5.92769e-36
2.66516e-37
2.08601e-38
6.20046e-40
1.45775e-41
3.14916e-43
5.59542e-45
1.12442e-46
1.78681e-48
2.14209e-50
1.7375e-52
7.13604e-55
8.54053e-57
4.21031e-18
5.51409e-18
4.92903e-18
2.06284e-18
6.16085e-19
2.42912e-19
8.46767e-20
3.96282e-20
3.98753e-20
1.16921e-19
2.05151e-19
2.33565e-19
2.33231e-19
1.5905e-19
8.77987e-20
3.82952e-20
1.3007e-20
3.36932e-21
6.49199e-22
9.23964e-23
8.87775e-24
3.80475e-25
7.79685e-27
3.33099e-28
1.14003e-29
3.43375e-31
9.90248e-33
2.84808e-34
9.30431e-36
8.70432e-37
2.61439e-38
5.92257e-40
1.21799e-41
2.53802e-43
5.53883e-45
9.24292e-47
1.17928e-48
1.0383e-50
4.75088e-53
6.99672e-55
2.16736e-17
3.35037e-17
3.29148e-17
1.41217e-17
5.40104e-18
2.56028e-18
1.06767e-18
6.88781e-19
1.43728e-18
3.91012e-18
6.25078e-18
6.81796e-18
6.56953e-18
4.41734e-18
2.4305e-18
1.05834e-18
3.5973e-19
9.40016e-20
1.85347e-20
2.76253e-21
2.76429e-22
1.22861e-23
2.70502e-25
1.23325e-26
4.50747e-28
1.42482e-29
4.21159e-31
1.2201e-32
3.92381e-34
3.49257e-35
1.04481e-36
2.327e-38
4.51687e-40
1.15581e-41
2.63309e-43
4.56521e-45
6.11837e-47
5.68378e-49
2.74133e-51
4.64537e-53
9.51474e-17
1.806e-16
1.85856e-16
7.54329e-17
3.26883e-17
1.65106e-17
8.76209e-18
1.20683e-17
4.84744e-17
1.08366e-16
1.57758e-16
1.72818e-16
1.51528e-16
1.01642e-16
5.55254e-17
2.41656e-17
8.26648e-18
2.19625e-18
4.46809e-19
6.99307e-20
7.26741e-21
3.49619e-22
9.21179e-24
3.87376e-25
1.52711e-26
5.15373e-28
1.59419e-29
4.74372e-31
1.53787e-32
1.34302e-33
4.04974e-35
8.86849e-37
1.9095e-38
5.10918e-40
1.21218e-41
2.1874e-43
3.05592e-45
2.9601e-47
1.48728e-49
2.67372e-51
3.80493e-16
7.54562e-16
7.6216e-16
3.10904e-16
1.75097e-16
1.10195e-16
9.77014e-17
4.05075e-16
1.42696e-15
2.72663e-15
3.49268e-15
3.74616e-15
2.98728e-15
1.95167e-15
1.0483e-15
4.55107e-16
1.57531e-16
4.28962e-17
9.10456e-18
1.49567e-18
1.61704e-19
8.37013e-21
2.59384e-22
1.05222e-23
4.50122e-25
1.642e-26
5.40774e-28
1.68314e-29
5.59856e-31
4.92285e-32
1.51226e-33
3.27388e-35
7.8827e-37
2.19167e-38
5.41654e-40
1.01727e-41
1.47761e-43
1.48578e-45
7.72522e-48
1.44726e-49
7.95956e-16
2.61532e-15
3.0783e-15
3.09786e-15
4.07789e-15
4.71793e-15
5.84541e-15
1.62616e-14
3.99739e-14
6.02906e-14
7.00476e-14
7.33951e-14
5.23906e-14
3.30941e-14
1.68908e-14
7.16614e-15
2.48141e-15
6.90994e-16
1.54351e-16
2.63853e-17
2.95451e-18
1.57914e-19
5.36416e-21
2.50399e-22
1.15897e-23
4.48245e-25
1.59575e-26
5.4398e-28
1.8885e-29
1.70459e-30
5.38679e-32
1.1609e-33
3.1259e-35
9.07782e-37
2.33471e-38
4.56992e-40
6.90502e-42
7.20467e-44
3.87271e-46
7.42546e-48
1
1
1
1
1
1
1
1
1
1
1
1
1
1
1
1
1
1
1
1
1
1
1
1
1
1
1
1
1
1
1
1
1
1
1
1
1
1
1
1
1
1
1
1
1
1
1
1
1
1
1
1
1
1
1
1
1
1
1
1
1
1
1
1
1
1
1
1
1
1
1
1
1
1
1
1
1
1
1
1
1
1
1
1
1
1
1
1
1
1
1
1
1
1
1
1
1
1
1
1
1
1
1
1
1
1
1
1
1
1
1
1
1
1
1
1
1
1
1
1
1
1
1
1
1
1
1
1
1
1
1
1
1
1
1
1
1
1
1
0.999996
0.999996
0.999997
0.999997
0.999998
0.999998
0.999997
0.999997
0.999997
0.999997
0.999996
0.999996
0.999996
0.999996
0.999995
0.999995
0.999995
0.999995
0.999995
0.999995
0.999995
0.999996
0.999996
0.999997
0.999997
0.999998
0.999999
0.999999
1
1
1
1
1
1
1
1
1
1
1
1
1
1
1
1
1
0.999993
0.999962
0.999963
0.999972
0.999977
0.999979
0.999979
0.999978
0.999975
0.999973
0.99997
0.999967
0.999964
0.999962
0.999959
0.999957
0.999956
0.999954
0.999954
0.999954
0.999955
0.999956
0.999959
0.999963
0.999967
0.999972
0.999977
0.999982
0.999988
0.999994
0.999998
1
1
0.999999
0.999999
1
1
1
1
1
1
1
1
1
1
1
0.999906
0.999665
0.999697
0.999774
0.999816
0.999829
0.999824
0.999811
0.999792
0.99977
0.999746
0.999722
0.999697
0.999674
0.999653
0.999636
0.999622
0.999611
0.999604
0.999601
0.999604
0.999613
0.99963
0.999656
0.999687
0.999726
0.999774
0.999829
0.999886
0.999941
0.999978
0.999987
0.999991
0.999988
0.99998
0.99999
1
1
1
1
1
1
1
1
1
1
0.999009
0.997347
0.997705
0.99829
0.998584
0.998655
0.998595
0.998474
0.998317
0.998134
0.997947
0.997757
0.997566
0.997384
0.997215
0.997064
0.996926
0.996799
0.996715
0.996666
0.996652
0.996425
0.996407
0.996625
0.997366
0.997817
0.998132
0.99849
0.998877
0.999233
0.999482
0.999642
0.999833
0.999889
0.999818
0.999848
0.999988
1
1
1
1
1
1
1
1
1
0.92209
0.814132
0.842116
0.893091
0.913195
0.90934
0.893481
0.872099
0.84841
0.822853
0.79856
0.774804
0.75126
0.729682
0.710418
0.694209
0.67938
0.664595
0.650059
0.637173
0.626439
0.617897
0.614397
0.61614
0.617797
0.625837
0.646999
0.687256
0.736414
0.779727
0.818524
0.860199
0.908735
0.958015
0.988608
0.995449
0.999108
1.00001
1
1
1
1
1
1
1
1
0.246316
0.129307
0.156469
0.216689
0.242247
0.233786
0.206713
0.177025
0.150338
0.126297
0.106728
0.0897806
0.0752358
0.0636234
0.0541558
0.046796
0.0402918
0.0340312
0.0283665
0.0237645
0.0201041
0.0172269
0.0161294
0.016415
0.0164504
0.0194013
0.0278722
0.0455163
0.0691822
0.0932881
0.119807
0.156137
0.218113
0.34667
0.581063
0.831407
0.963511
0.999842
0.999943
1.00003
1.00001
1
1
1
1
1
-2.13775e-08
-2.9873e-08
-1.93458e-06
-2.27979e-06
-3.57932e-07
-4.08504e-08
-6.50539e-09
-4.30582e-09
-8.67029e-08
-2.24984e-07
-1.00111e-06
-3.26162e-06
-6.02628e-06
-7.10336e-06
-6.43744e-06
-5.03587e-06
-1.22148e-05
-1.0291e-05
-5.93182e-06
-2.94873e-06
-1.43669e-06
-7.15187e-07
-1.56649e-05
-2.25483e-05
-2.20719e-05
-8.5669e-05
-0.000140615
-0.000110135
-6.11685e-05
-2.8014e-05
-1.13716e-05
-4.27316e-06
-1.53664e-06
-3.55105e-07
0.0054597
0.0817017
0.402826
0.865367
0.998759
0.99982
0.999917
1.00002
1.00001
0.999999
1
1
-2.50335e-12
-1.38545e-12
-3.82789e-06
-1.12453e-06
-2.22373e-07
-3.92536e-08
-1.33448e-08
-1.57389e-08
-3.54601e-07
-8.96507e-07
-2.94563e-06
-8.93799e-06
-1.38331e-05
-1.49241e-05
-1.30837e-05
-1.00931e-05
-7.15036e-06
-4.948e-06
-3.55429e-06
-2.47604e-06
-1.58811e-06
-9.47163e-07
-5.40976e-07
-3.02646e-07
-1.68424e-07
-9.43958e-08
-5.42084e-08
-3.29902e-08
-4.00203e-08
-1.18464e-07
-3.2011e-07
-6.40357e-07
-9.71068e-07
-1.14285e-06
-9.70411e-07
-4.37342e-07
0.00259473
0.0383878
0.355706
0.928706
0.999181
1
0.999934
1.00002
1.00002
0.999999
-2.13286e-12
-1.46543e-12
-4.04751e-13
-1.59639e-13
-7.78677e-14
-4.62548e-14
-1.26545e-08
-1.91727e-08
-3.99419e-07
-9.45363e-07
-2.65508e-06
-6.64415e-06
-1.00405e-05
-1.11009e-05
-1.01008e-05
-8.1135e-06
-6.00244e-06
-4.19881e-06
-2.81995e-06
-1.83464e-06
-1.16202e-06
-7.19501e-07
-4.37787e-07
-2.63359e-07
-1.57687e-07
-9.48783e-08
-5.85127e-08
-3.85643e-08
-4.95584e-08
-1.49314e-07
-4.16082e-07
-8.82559e-07
-1.4848e-06
-2.06189e-06
-2.41495e-06
-2.39614e-06
-1.86278e-06
-1.52721e-07
0.00370219
0.0399632
0.251159
0.86349
0.999415
1.00027
0.999943
1
-1.16366e-12
-9.34135e-13
-2.9634e-13
-1.44748e-13
-7.55858e-14
-4.97607e-14
-8.82249e-09
-1.30179e-08
-1.75402e-07
-3.9878e-07
-7.1803e-07
-1.3594e-06
-2.21249e-06
-2.92415e-06
-3.23392e-06
-3.10941e-06
-2.68075e-06
-2.12087e-06
-1.56734e-06
-1.09731e-06
-7.36373e-07
-4.78485e-07
-3.03846e-07
-1.90258e-07
-1.18626e-07
-7.46558e-08
-4.85942e-08
-3.42281e-08
-4.11596e-08
-1.09966e-07
-3.04075e-07
-6.74322e-07
-1.2197e-06
-1.86914e-06
-2.49662e-06
-2.96205e-06
-3.03595e-06
-1.29605e-09
1.11906e-06
2.14788e-05
0.00176257
0.0544506
0.213026
0.782901
0.998632
1.0005
-8.8961e-13
-7.01375e-13
-2.14293e-13
-1.03784e-13
-5.58068e-14
-4.13312e-14
-2.65497e-09
-3.84169e-09
-3.73461e-09
-5.21338e-09
-3.07697e-08
-1.69597e-07
-4.44262e-07
-7.58555e-07
-9.85846e-07
-1.05991e-06
-9.91734e-07
-8.35443e-07
-6.49337e-07
-4.74528e-07
-3.31158e-07
-2.23701e-07
-1.48095e-07
-9.72303e-08
-6.41007e-08
-4.31283e-08
-3.04177e-08
-2.35134e-08
-2.4976e-08
-4.75916e-08
-1.14056e-07
-2.4864e-07
-4.65223e-07
-7.57935e-07
-1.09889e-06
-1.44357e-06
-1.74071e-06
-1.6378e-06
-2.17782e-07
-1.14833e-06
1.03741e-05
8.70807e-05
0.000419571
0.0487257
0.168472
0.690388
-5.31828e-13
-3.78257e-13
-1.19333e-13
-5.52903e-14
-3.14634e-14
-2.89336e-14
-5.10614e-14
-1.58173e-12
-8.41771e-11
-6.21938e-10
-6.65663e-09
-3.9183e-08
-1.04681e-07
-1.8163e-07
-2.39959e-07
-2.62674e-07
-2.5091e-07
-2.16663e-07
-1.73642e-07
-1.31929e-07
-9.67701e-08
-6.9639e-08
-4.98678e-08
-3.59634e-08
-2.6401e-08
-1.99859e-08
-1.59463e-08
-1.38888e-08
-1.37022e-08
-1.54523e-08
-1.9283e-08
-2.53225e-08
-3.35912e-08
-4.39104e-08
-5.58271e-08
-6.85655e-08
-8.10162e-08
-1.05569e-07
-6.08884e-10
-1.0511e-08
-6.15876e-07
-5.25139e-06
1.93466e-05
0.000153662
0.000501853
0.0414399
-2.30506e-13
-1.38667e-13
-4.70746e-14
-2.15282e-14
-1.43532e-14
-1.94854e-14
-4.53847e-14
-1.23235e-13
-3.87315e-13
-1.32842e-11
-2.75686e-10
-1.97841e-09
-6.00818e-09
-1.17061e-08
-1.73479e-08
-2.14119e-08
-2.33076e-08
-2.32925e-08
-2.20129e-08
-2.0103e-08
-1.80013e-08
-1.59411e-08
-1.40172e-08
-1.22626e-08
-1.07069e-08
-9.41136e-09
-8.48624e-09
-8.09157e-09
-8.42881e-09
-9.72614e-09
-1.22189e-08
-1.61244e-08
-2.16084e-08
-2.87454e-08
-3.74763e-08
-4.75713e-08
-5.86018e-08
-7.0051e-08
-7.32461e-08
-4.37258e-11
-1.90588e-08
5.02081e-08
-2.51751e-07
-7.37086e-06
2.98342e-05
0.000193231
-6.87108e-14
-3.34499e-14
-1.25202e-14
-6.2228e-15
-6.48886e-15
-1.46939e-14
-4.1803e-14
-1.18211e-13
-2.77437e-13
-5.54114e-13
-3.90527e-12
-3.79905e-11
-1.72501e-10
-4.99666e-10
-1.08669e-09
-1.93444e-09
-2.96743e-09
-4.05648e-09
-5.05839e-09
-5.85367e-09
-6.37002e-09
-6.5883e-09
-6.53505e-09
-6.26972e-09
-5.87342e-09
-5.44244e-09
-5.0859e-09
-4.9251e-09
-5.09262e-09
-5.72995e-09
-6.98293e-09
-8.99401e-09
-1.18909e-08
-1.5772e-08
-2.06906e-08
-2.6641e-08
-3.35488e-08
-4.12678e-08
-4.99697e-08
-4.94973e-08
-6.80057e-11
-6.51814e-09
-3.08607e-08
1.93632e-07
9.871e-07
-7.43038e-06
-1.534e-14
-5.94607e-15
-2.5694e-15
-1.79892e-15
-4.04155e-15
-1.28356e-14
-3.97603e-14
-1.13331e-13
-2.60975e-13
-5.0827e-13
-2.87735e-12
-2.24809e-11
-9.67148e-11
-2.76745e-10
-6.02683e-10
-1.0792e-09
-1.66713e-09
-2.29435e-09
-2.87831e-09
-3.34881e-09
-3.66299e-09
-3.80947e-09
-3.80401e-09
-3.68091e-09
-3.48489e-09
-3.26571e-09
-3.076e-09
-2.97113e-09
-3.00975e-09
-3.25397e-09
-3.76839e-09
-4.61775e-09
-5.86332e-09
-7.55834e-09
-9.74395e-09
-1.24465e-08
-1.56777e-08
-1.94376e-08
-2.38256e-08
-2.90003e-08
-2.83088e-08
-7.07684e-10
-1.78892e-09
9.92216e-10
-2.6036e-08
3.87186e-07
-3.43034e-15
-1.11561e-15
-5.76476e-16
-8.54449e-16
-3.37629e-15
-1.19979e-14
-3.80525e-14
-1.0742e-13
-2.40783e-13
-4.55522e-13
-2.33798e-12
-1.60772e-11
-6.4716e-11
-1.77503e-10
-3.75026e-10
-6.56182e-10
-9.9508e-10
-1.3488e-09
-1.67102e-09
-1.92488e-09
-2.09066e-09
-2.16679e-09
-2.16605e-09
-2.10954e-09
-2.02133e-09
-1.92511e-09
-1.84311e-09
-1.79644e-09
-1.80599e-09
-1.89323e-09
-2.08019e-09
-2.3889e-09
-2.84012e-09
-3.45203e-09
-4.23933e-09
-5.21318e-09
-6.38245e-09
-7.7562e-09
-9.34725e-09
-1.14916e-08
-1.40001e-08
-1.3619e-08
-2.64799e-09
-8.7503e-10
-8.05192e-10
9.25629e-09
-4.19503e-16
-1.28382e-16
-1.53492e-16
-6.39535e-16
-3.09625e-15
-1.13024e-14
-3.5875e-14
-9.93838e-14
-2.15625e-13
-3.95373e-13
-1.93463e-12
-1.24201e-11
-4.71799e-11
-1.23194e-10
-2.49441e-10
-4.20497e-10
-6.17143e-10
-8.12955e-10
-9.82982e-10
-1.11056e-09
-1.19009e-09
-1.2259e-09
-1.22849e-09
-1.2105e-09
-1.18368e-09
-1.15757e-09
-1.13948e-09
-1.13529e-09
-1.15022e-09
-1.1895e-09
-1.25854e-09
-1.36277e-09
-1.50713e-09
-1.69565e-09
-1.93121e-09
-2.21573e-09
-2.55085e-09
-2.93903e-09
-3.3849e-09
-3.89668e-09
-4.7497e-09
-5.73357e-09
-5.28413e-09
-5.84021e-10
-2.49589e-10
-2.43997e-10
-1.61129e-17
-1.57025e-17
-9.96867e-17
-5.85746e-16
-2.86251e-15
-1.04494e-14
-3.28513e-14
-8.87739e-14
-1.85597e-13
-3.29558e-13
-1.58341e-12
-9.8188e-12
-3.54684e-11
-8.80052e-11
-1.69759e-10
-2.73597e-10
-3.85495e-10
-4.8994e-10
-5.75169e-10
-6.36085e-10
-6.74206e-10
-6.95385e-10
-7.06761e-10
-7.14361e-10
-7.22068e-10
-7.31772e-10
-7.44083e-10
-7.59072e-10
-7.76809e-10
-7.97659e-10
-8.22351e-10
-8.5185e-10
-8.87117e-10
-9.28887e-10
-9.77552e-10
-1.03324e-09
-1.09608e-09
-1.16654e-09
-1.24582e-09
-1.33629e-09
-1.44347e-09
-1.70722e-09
-1.99028e-09
-1.73846e-09
-3.29852e-10
-1.00177e-10
-7.6468e-19
-1.0373e-17
-8.8923e-17
-5.36712e-16
-2.57762e-15
-9.34721e-15
-2.89287e-14
-7.58918e-14
-1.52307e-13
-2.62065e-13
-1.2565e-12
-7.6226e-12
-2.62147e-11
-6.16689e-11
-1.12925e-10
-1.73352e-10
-2.33829e-10
-2.86581e-10
-3.27808e-10
-3.58185e-10
-3.81453e-10
-4.02063e-10
-4.23134e-10
-4.45598e-10
-4.68591e-10
-4.90418e-10
-5.09372e-10
-5.24163e-10
-5.34043e-10
-5.38809e-10
-5.38735e-10
-5.34437e-10
-5.26693e-10
-5.16268e-10
-5.03804e-10
-4.89778e-10
-4.74604e-10
-4.58736e-10
-4.42589e-10
-4.26817e-10
-4.12696e-10
-4.05013e-10
-4.5629e-10
-5.12151e-10
-3.96409e-10
-1.9562e-12
-7.27372e-19
-8.88835e-18
-7.79954e-17
-4.73721e-16
-2.23549e-15
-8.02227e-15
-2.43179e-14
-6.16616e-14
-1.18402e-13
-1.97925e-13
-9.5476e-13
-5.6783e-12
-1.85302e-11
-4.11721e-11
-7.13434e-11
-1.04162e-10
-1.34748e-10
-1.60443e-10
-1.81609e-10
-2.00875e-10
-2.21381e-10
-2.44954e-10
-2.71179e-10
-2.97775e-10
-3.21795e-10
-3.40738e-10
-3.53036e-10
-3.58009e-10
-3.55651e-10
-3.4646e-10
-3.31308e-10
-3.11307e-10
-2.8763e-10
-2.61373e-10
-2.33455e-10
-2.04529e-10
-1.74972e-10
-1.4536e-10
-1.15804e-10
-8.49939e-11
-5.42232e-11
-2.65671e-11
-6.2908e-12
2.92684e-12
1.66797e-11
5.06697e-11
-6.14752e-19
-7.38355e-18
-6.58851e-17
-4.00512e-16
-1.85596e-15
-6.56551e-15
-1.93998e-14
-4.73438e-14
-8.67647e-14
-1.41675e-13
-6.88877e-13
-4.00314e-12
-1.23279e-11
-2.57587e-11
-4.2153e-11
-5.8668e-11
-7.35031e-11
-8.68119e-11
-1.00465e-10
-1.16871e-10
-1.37446e-10
-1.6154e-10
-1.86497e-10
-2.08799e-10
-2.25488e-10
-2.34936e-10
-2.36786e-10
-2.31514e-10
-2.20041e-10
-2.03533e-10
-1.83269e-10
-1.60536e-10
-1.36472e-10
-1.11993e-10
-8.77952e-11
-6.42948e-11
-4.12439e-11
-1.88072e-11
-1.18907e-12
1.83734e-11
5.09724e-11
8.86768e-11
1.29425e-10
1.72986e-10
2.19802e-10
2.78714e-10
-4.87419e-19
-5.92545e-18
-5.33845e-17
-3.23075e-16
-1.46778e-15
-5.09771e-15
-1.46142e-14
-3.41854e-14
-5.97245e-14
-9.61657e-14
-4.69138e-13
-2.64408e-12
-7.63379e-12
-1.49473e-11
-2.31418e-11
-3.10468e-11
-3.86427e-11
-4.71632e-11
-5.84458e-11
-7.38078e-11
-9.29712e-11
-1.1371e-10
-1.32597e-10
-1.46455e-10
-1.53512e-10
-1.53579e-10
-1.47519e-10
-1.36622e-10
-1.22246e-10
-1.05684e-10
-8.80816e-11
-7.03967e-11
-5.33142e-11
-3.72287e-11
-2.25397e-11
-9.17333e-12
3.76807e-13
1.65943e-11
3.82642e-11
5.92661e-11
7.83652e-11
9.58562e-11
1.10806e-10
1.26869e-10
1.47866e-10
1.77723e-10
-3.68398e-19
-4.5778e-18
-4.13304e-17
-2.47718e-16
-1.10088e-15
-3.73792e-15
-1.03491e-14
-2.31172e-14
-3.85467e-14
-6.21264e-14
-3.00465e-13
-1.62353e-12
-4.36582e-12
-8.01129e-12
-1.18671e-11
-1.58002e-11
-2.05139e-11
-2.72916e-11
-3.73131e-11
-5.07823e-11
-6.63272e-11
-8.11993e-11
-9.23685e-11
-9.78523e-11
-9.73299e-11
-9.17643e-11
-8.26307e-11
-7.13653e-11
-5.91606e-11
-4.69415e-11
-3.53659e-11
-2.48493e-11
-1.5591e-11
-7.44648e-12
-1.01794e-12
4.53224e-12
1.5922e-11
2.44286e-11
2.4575e-11
2.47484e-11
2.61859e-11
2.97554e-11
3.59586e-11
4.52467e-11
5.80452e-11
7.47356e-11
-2.66452e-19
-3.392e-18
-3.04577e-17
-1.79878e-16
-7.79776e-16
-2.57703e-15
-6.85997e-15
-1.45882e-14
-2.33351e-14
-3.8476e-14
-1.80937e-13
-9.22348e-13
-2.30045e-12
-3.99345e-12
-5.83726e-12
-8.15118e-12
-1.17145e-11
-1.74362e-11
-2.57955e-11
-3.62554e-11
-4.70556e-11
-5.57458e-11
-6.03006e-11
-6.00503e-11
-5.57245e-11
-4.87451e-11
-4.05153e-11
-3.2096e-11
-2.41821e-11
-1.71735e-11
-1.12429e-11
-6.40604e-12
-2.56697e-12
4.94259e-14
4.81048e-12
5.76324e-12
5.52786e-12
5.59454e-12
6.11403e-12
7.27605e-12
9.50207e-12
1.34068e-11
1.98626e-11
2.92702e-11
4.16518e-11
5.67681e-11
-1.84536e-19
-2.40085e-18
-2.12815e-17
-1.23223e-16
-5.19367e-16
-1.66301e-15
-4.23836e-15
-8.56701e-15
-1.32978e-14
-2.3085e-14
-1.02981e-13
-4.85168e-13
-1.12599e-12
-1.90377e-12
-2.91288e-12
-4.54891e-12
-7.39488e-12
-1.19398e-11
-1.81759e-11
-2.52615e-11
-3.15884e-11
-3.5426e-11
-3.58157e-11
-3.30179e-11
-2.81581e-11
-2.24937e-11
-1.6956e-11
-1.20699e-11
-8.05024e-12
-4.91803e-12
-2.58488e-12
-9.45372e-13
2.16532e-13
1.22079e-12
1.27968e-12
1.45928e-12
1.49662e-12
1.67145e-12
2.16882e-12
3.28128e-12
5.81916e-12
1.04749e-11
1.78058e-11
2.82329e-11
4.26823e-11
6.3898e-11
-1.22196e-19
-1.61584e-18
-1.40388e-17
-7.92968e-17
-3.23745e-16
-9.99668e-16
-2.43042e-15
-4.67457e-15
-7.19072e-15
-1.3581e-14
-5.61313e-14
-2.3898e-13
-5.26512e-13
-9.18372e-13
-1.57334e-12
-2.7989e-12
-4.94333e-12
-8.18994e-12
-1.22946e-11
-1.64412e-11
-1.94514e-11
-2.03611e-11
-1.89852e-11
-1.5973e-11
-1.23181e-11
-8.81682e-12
-5.89211e-12
-3.66384e-12
-2.07983e-12
-1.01977e-12
-3.50923e-13
1.83274e-14
2.44305e-13
2.72344e-13
3.06127e-13
3.45918e-13
4.09062e-13
5.8372e-13
1.14637e-12
2.55937e-12
5.52598e-12
1.21804e-11
2.43967e-11
4.19641e-11
6.70126e-11
1.12744e-10
-7.7114e-20
-1.0286e-18
-8.70062e-18
-4.76991e-17
-1.87853e-16
-5.56774e-16
-1.28809e-15
-2.37136e-15
-3.73813e-15
-7.91038e-15
-2.99389e-14
-1.13408e-13
-2.48084e-13
-4.7711e-13
-9.31562e-13
-1.80172e-12
-3.2589e-12
-5.31736e-12
-7.68536e-12
-9.74486e-12
-1.07888e-11
-1.04293e-11
-8.85855e-12
-6.69744e-12
-4.57975e-12
-2.86427e-12
-1.64423e-12
-8.57246e-13
-3.89267e-13
-1.32608e-13
-1.31309e-14
4.29693e-14
5.76808e-14
6.64662e-14
7.44669e-14
8.91838e-14
1.46072e-13
3.77803e-13
1.07191e-12
3.33683e-12
9.27952e-12
2.19622e-11
4.36549e-11
7.41038e-11
1.25178e-10
2.21047e-10
-4.61463e-20
-6.15387e-19
-5.03612e-18
-2.66596e-17
-1.00825e-16
-2.85589e-16
-6.28517e-16
-1.12301e-15
-1.89862e-15
-4.57227e-15
-1.5991e-14
-5.41938e-14
-1.24415e-13
-2.6906e-13
-5.70399e-13
-1.1283e-12
-2.0087e-12
-3.16009e-12
-4.34559e-12
-5.18158e-12
-5.32702e-12
-4.71167e-12
-3.59977e-12
-2.40224e-12
-1.42044e-12
-7.49765e-13
-3.53291e-13
-1.45125e-13
-4.73766e-14
-7.45508e-15
7.72104e-15
1.07094e-14
1.2258e-14
1.39832e-14
1.75638e-14
3.37348e-14
1.08372e-13
4.37269e-13
1.83624e-12
6.21757e-12
1.69754e-11
3.76027e-11
7.78027e-11
1.37275e-10
2.3232e-10
4.03949e-10
-2.60054e-20
-3.43322e-19
-2.70262e-18
-1.37426e-17
-4.96769e-17
-1.34e-16
-2.81558e-16
-5.00977e-16
-9.5442e-16
-2.60121e-15
-8.62931e-15
-2.69932e-14
-6.65465e-14
-1.55012e-13
-3.35638e-13
-6.53226e-13
-1.12282e-12
-1.68638e-12
-2.19258e-12
-2.44549e-12
-2.32103e-12
-1.86311e-12
-1.26419e-12
-7.29527e-13
-3.61151e-13
-1.53349e-13
-5.55469e-14
-1.63112e-14
-2.76327e-15
1.10894e-15
1.66807e-15
1.96428e-15
2.33539e-15
3.15976e-15
6.9803e-15
2.73597e-14
1.45627e-13
7.55627e-13
3.12521e-12
1.02369e-11
2.73394e-11
5.7122e-11
1.36287e-10
2.41506e-10
3.3635e-10
6.46542e-10
-1.36745e-20
-1.76868e-19
-1.33225e-18
-6.47314e-18
-2.22636e-17
-5.70878e-17
-1.15717e-16
-2.13418e-16
-4.75222e-16
-1.43035e-15
-4.62363e-15
-1.38471e-14
-3.57645e-14
-8.48036e-14
-1.80565e-13
-3.3959e-13
-5.58722e-13
-7.97052e-13
-9.76163e-13
-1.01508e-12
-8.8617e-13
-6.41718e-13
-3.82483e-13
-1.86787e-13
-7.43899e-14
-2.39305e-14
-6.12694e-15
-1.08442e-15
3.19e-17
2.20091e-16
2.77064e-16
3.43033e-16
4.94395e-16
1.23355e-15
5.75369e-15
3.41405e-14
2.08324e-13
1.08253e-12
4.45662e-12
1.44084e-11
3.78212e-11
7.70696e-11
2.06892e-10
3.53222e-10
3.93201e-10
7.73334e-10
-6.62811e-21
-8.31006e-20
-5.96149e-19
-2.75359e-18
-8.97569e-18
-2.19131e-17
-4.37538e-17
-8.79793e-17
-2.30546e-16
-7.41301e-16
-2.36767e-15
-6.92104e-15
-1.79944e-14
-4.19041e-14
-8.62355e-14
-1.55477e-13
-2.43739e-13
-3.29284e-13
-3.79162e-13
-3.67244e-13
-2.94591e-13
-1.92236e-13
-1.00043e-13
-4.05893e-14
-1.24433e-14
-2.88755e-15
-5.02699e-16
-4.6718e-17
2.06444e-17
3.3858e-17
4.37204e-17
6.55105e-17
1.77425e-16
9.30531e-16
6.06737e-15
4.0324e-14
2.50743e-13
1.31475e-12
5.41889e-12
1.75629e-11
4.59467e-11
9.51964e-11
2.4787e-10
4.50909e-10
4.15384e-10
5.78853e-10
-2.9125e-21
-3.5057e-20
-2.38488e-19
-1.04206e-18
-3.21134e-18
-7.52163e-18
-1.53147e-17
-3.51588e-17
-1.05644e-16
-3.51478e-16
-1.10877e-15
-3.16604e-15
-8.05422e-15
-1.81201e-14
-3.57687e-14
-6.1552e-14
-9.16849e-14
-1.17133e-13
-1.26837e-13
-1.14668e-13
-8.48841e-14
-5.01539e-14
-2.28552e-14
-7.64101e-15
-1.73084e-15
-2.85244e-16
-3.49124e-17
-4.41982e-19
3.34922e-18
4.78193e-18
7.31533e-18
2.01008e-17
1.14893e-16
8.31176e-16
6.12461e-15
4.17665e-14
2.64855e-13
1.40547e-12
5.84199e-12
1.92991e-11
5.09997e-11
1.10259e-10
2.58721e-10
5.78174e-10
4.45418e-10
4.58116e-10
-1.13189e-21
-1.30125e-20
-8.35654e-20
-3.43775e-19
-1.00212e-18
-2.29158e-18
-4.98517e-18
-1.33415e-17
-4.39599e-17
-1.47429e-16
-4.55413e-16
-1.26078e-15
-3.09362e-15
-6.67545e-15
-1.25857e-14
-2.06134e-14
-2.91335e-14
-3.52113e-14
-3.59518e-14
-3.05033e-14
-2.10211e-14
-1.13864e-14
-4.61193e-15
-1.28381e-15
-2.08415e-16
-2.08942e-17
-1.19263e-18
2.85773e-19
4.4103e-19
6.89626e-19
1.80414e-18
1.07055e-17
8.48018e-17
6.36135e-16
4.44884e-15
3.21958e-14
2.22714e-13
1.29679e-12
5.82298e-12
1.97334e-11
5.38354e-11
1.22847e-10
2.7031e-10
6.94615e-10
4.85219e-10
4.85182e-10
-3.67038e-22
-3.99969e-21
-2.43382e-20
-9.48516e-20
-2.65301e-19
-6.13606e-19
-1.49756e-18
-4.61043e-18
-1.59301e-17
-5.2718e-17
-1.57587e-16
-4.19098e-16
-9.84629e-16
-2.02858e-15
-3.642e-15
-5.671e-15
-7.60877e-15
-8.72155e-15
-8.43866e-15
-6.77393e-15
-4.39972e-15
-2.22523e-15
-8.23003e-16
-1.97928e-16
-2.33261e-17
-1.03682e-18
-6.62394e-21
3.33297e-20
5.5422e-20
1.3404e-19
7.64896e-19
6.62096e-18
5.41483e-17
4.02463e-16
2.95109e-15
2.19931e-14
1.59937e-13
1.00124e-12
4.91227e-12
1.85535e-11
5.57873e-11
1.36432e-10
2.99315e-10
7.3388e-10
5.53496e-10
5.3047e-10
-9.36716e-23
-9.73132e-22
-5.63548e-21
-2.09763e-20
-5.7325e-20
-1.38571e-19
-3.82884e-19
-1.29239e-18
-4.52349e-18
-1.46248e-17
-4.22281e-17
-1.0815e-16
-2.44497e-16
-4.83419e-16
-8.29891e-16
-1.23186e-15
-1.57361e-15
-1.71694e-15
-1.58263e-15
-1.21207e-15
-7.51706e-16
-3.62569e-16
-1.26938e-16
-2.81172e-17
-2.74567e-18
-1.39412e-20
2.27218e-21
3.84456e-21
8.90007e-21
4.66587e-20
4.21136e-19
3.83832e-18
3.15803e-17
2.45345e-16
1.88272e-15
1.4857e-14
1.16147e-13
7.96237e-13
4.31865e-12
1.8086e-11
5.91556e-11
1.55741e-10
3.35858e-10
7.25001e-10
9.31984e-10
6.72592e-10
-1.77838e-23
-1.76774e-22
-9.79344e-22
-3.51426e-21
-9.55424e-21
-2.46307e-20
-7.54773e-20
-2.66397e-19
-9.20237e-19
-2.873e-18
-7.97198e-18
-1.97181e-17
-4.33784e-17
-8.3395e-17
-1.38497e-16
-1.98011e-16
-2.42852e-16
-2.53794e-16
-2.23935e-16
-1.64262e-16
-9.7688e-17
-4.52606e-17
-1.5271e-17
-3.29106e-18
-3.21875e-19
1.37996e-22
2.13099e-22
5.91846e-22
3.0883e-21
2.73325e-20
2.62831e-19
2.36902e-18
2.00529e-17
1.61184e-16
1.27406e-15
1.03332e-14
8.46134e-14
6.29699e-13
3.81853e-12
1.79135e-11
6.44593e-11
1.80371e-10
4.02244e-10
7.437e-10
1.55413e-09
1.47967e-09
-2.24664e-24
-2.14326e-23
-1.1422e-22
-3.98731e-22
-1.09296e-21
-3.00723e-21
-9.83143e-21
-3.47627e-20
-1.15192e-19
-3.38369e-19
-8.7909e-19
-2.09377e-18
-4.62933e-18
-8.96782e-18
-1.47947e-17
-2.07827e-17
-2.48093e-17
-2.50174e-17
-2.12238e-17
-1.49527e-17
-8.54047e-18
-3.80262e-18
-1.23523e-18
-2.578e-19
-2.5044e-20
6.87024e-24
3.92655e-23
2.47031e-22
2.21396e-21
2.12659e-20
1.98581e-19
1.78297e-18
1.53348e-17
1.26333e-16
1.01928e-15
8.31358e-15
6.86916e-14
5.36231e-13
3.55521e-12
1.82947e-11
7.03334e-11
2.05552e-10
4.76652e-10
9.02567e-10
1.72051e-09
3.43881e-09
-1.42329e-25
-1.30717e-24
-6.73589e-24
-2.303e-23
-6.38551e-23
-1.83288e-22
-6.04625e-22
-2.01384e-21
-5.88448e-21
-1.37022e-20
-2.13023e-20
-3.51047e-20
-1.2602e-19
-3.42622e-19
-6.59953e-19
-1.00919e-18
-1.23875e-18
-1.22741e-18
-1.00866e-18
-6.84931e-19
-3.76243e-19
-1.61005e-19
-5.0311e-20
-1.01323e-20
-9.6054e-22
1.9649e-24
2.03009e-23
1.98563e-22
1.95472e-21
1.85128e-20
1.70614e-19
1.53348e-18
1.33603e-17
1.12359e-16
9.16883e-16
7.43471e-15
6.08887e-14
4.86271e-13
3.42333e-12
1.87991e-11
7.57161e-11
2.27069e-10
5.32006e-10
1.03021e-09
1.6601e-09
4.06917e-09
1.87013e-57
-3.00101e-50
-1.04869e-41
-2.48626e-39
-5.63727e-37
-8.31524e-35
-9.26087e-33
-8.32668e-31
-6.31587e-29
1.99678e-24
3.71965e-21
1.48348e-20
2.30189e-20
2.54724e-20
2.44557e-20
1.21561e-20
3.12237e-21
8.75493e-22
2.17727e-22
7.37695e-23
4.88115e-23
2.71499e-23
6.13873e-24
1.19755e-24
5.85162e-25
1.38257e-24
1.56667e-23
1.67738e-22
1.66585e-21
1.58987e-20
1.4771e-19
1.33644e-18
1.17635e-17
1.00284e-16
8.27416e-16
6.71133e-15
5.47718e-14
4.44874e-13
3.27289e-12
1.89287e-11
7.83089e-11
2.36855e-10
5.59958e-10
1.10798e-09
1.80007e-09
3.66896e-09
-2.0249e-44
-4.93586e-47
-4.46363e-44
-9.48384e-42
-1.29851e-39
-1.33791e-37
-1.11016e-35
-7.7516e-34
-4.69419e-32
-1.31277e-30
2.76906e-31
7.51107e-26
1.23536e-23
9.72189e-23
3.36674e-24
8.51091e-26
8.2042e-26
8.01806e-26
2.40189e-26
2.22319e-27
6.54348e-29
6.44277e-29
4.49275e-28
5.51476e-27
6.93514e-26
9.48202e-25
1.07976e-23
1.14616e-22
1.17489e-21
1.16561e-20
1.11657e-19
1.03625e-18
9.33277e-18
8.13968e-17
6.85417e-16
5.61023e-15
4.57619e-14
3.75949e-13
2.87294e-12
1.73765e-11
7.42041e-11
2.27677e-10
5.62234e-10
1.13804e-09
2.0119e-09
3.46279e-09
-1.83978e-44
-2.78379e-49
-8.17473e-47
-1.40433e-44
-1.73967e-42
-1.69391e-40
-1.36263e-38
-9.3607e-37
-5.65989e-35
1.26281e-33
4.84966e-31
1.80568e-30
2.25615e-30
4.17901e-30
5.38035e-30
5.80383e-30
5.24848e-30
3.48211e-30
2.59056e-30
2.25432e-30
2.81594e-30
1.54845e-29
2.34312e-28
3.31662e-27
4.32597e-26
5.09553e-25
5.84384e-24
6.45424e-23
6.87585e-22
7.05197e-21
6.97885e-20
6.67463e-19
6.17659e-18
5.52453e-17
4.76434e-16
3.9828e-15
3.30287e-14
2.76949e-13
2.20695e-12
1.41437e-11
6.33295e-11
1.97321e-10
4.8594e-10
1.11407e-09
2.05241e-09
2.78852e-09
-1.24065e-45
-7.26758e-52
9.50805e-50
1.75731e-47
2.13799e-45
1.92684e-43
1.38729e-41
8.34172e-40
4.32703e-38
4.21711e-36
2.9913e-33
7.55201e-32
2.80502e-31
4.83294e-31
6.13082e-31
6.53689e-31
5.47995e-31
3.34131e-31
2.35034e-31
2.02895e-31
4.89413e-31
6.78386e-30
1.05231e-28
1.46593e-27
1.91404e-26
2.37968e-25
2.82425e-24
3.21196e-23
3.50236e-22
3.68184e-21
3.73803e-20
3.66632e-19
3.47615e-18
3.18424e-17
2.81221e-16
2.40419e-15
2.03504e-14
1.75313e-13
1.46693e-12
1.00853e-11
4.86688e-11
1.60984e-10
4.03241e-10
9.09952e-10
2.04632e-09
3.39318e-09
-4.61021e-60
-6.16754e-54
-1.29754e-51
-7.22657e-50
6.90519e-48
1.72211e-45
1.93117e-43
1.53101e-41
9.6343e-40
3.01665e-37
2.65696e-34
5.82478e-33
2.00307e-32
3.54246e-32
4.48962e-32
4.76743e-32
3.94611e-32
2.51864e-32
1.97173e-32
2.37569e-32
1.53453e-31
2.69331e-30
4.02763e-29
5.71804e-28
7.73764e-27
9.96482e-26
1.21662e-24
1.41429e-23
1.57509e-22
1.68953e-21
1.75063e-20