/*--------------------------------*- C++ -*----------------------------------*\
  =========                 |
  \\      /  F ield         | OpenFOAM: The Open Source CFD Toolbox
   \\    /   O peration     | Website:  https://openfoam.org
    \\  /    A nd           | Version:  7
     \\/     M anipulation  |
\*---------------------------------------------------------------------------*/
FoamFile
{
    version     2.0;
    format      ascii;
    class       surfaceScalarField;
    location    "0.4";
    object      alphaPhi0.water;
}
// * * * * * * * * * * * * * * * * * * * * * * * * * * * * * * * * * * * * * //

dimensions      [0 3 -1 0 0 0 0];

internalField   nonuniform List<scalar> 
15214
(
-3.18048e-06
3.18048e-06
-4.42209e-06
1.2416e-06
-3.81048e-06
-6.1161e-07
-2.28622e-06
-1.52425e-06
-3.69449e-07
-1.91677e-06
1.66079e-06
-2.03024e-06
3.68523e-06
-2.02444e-06
5.64205e-06
-1.95682e-06
7.50998e-06
-1.86793e-06
9.28793e-06
-1.77795e-06
1.0984e-05
-1.69611e-06
1.26101e-05
-1.62603e-06
1.41783e-05
-1.56822e-06
1.56998e-05
-1.52149e-06
1.71837e-05
-1.48392e-06
1.8637e-05
-1.45328e-06
2.00644e-05
-1.42739e-06
2.14685e-05
-1.40412e-06
2.285e-05
-1.38148e-06
2.42075e-05
-1.35756e-06
2.5538e-05
-1.33046e-06
2.68362e-05
-1.29824e-06
2.80951e-05
-1.25881e-06
2.93049e-05
-1.20988e-06
3.04537e-05
-1.14877e-06
3.1526e-05
-1.07227e-06
3.25023e-05
-9.76363e-07
3.33581e-05
-8.55777e-07
3.40613e-05
-7.0322e-07
3.45681e-05
-5.06735e-07
3.48154e-05
-2.47349e-07
3.47005e-05
1.14903e-07
3.408e-05
6.2053e-07
3.28517e-05
1.22823e-06
3.08962e-05
1.9555e-06
2.80893e-05
2.8069e-06
2.4329e-05
3.76039e-06
1.95752e-05
4.75377e-06
1.38966e-05
5.67855e-06
7.49886e-06
6.39778e-06
6.99697e-07
6.79916e-06
-6.10192e-06
6.93917e-06
-1.25526e-05
6.15723e-06
-1.56339e-05
2.6847e-06
-1.11383e-05
-4.49512e-06
-1.11378e-05
-2.01471e-06
5.1952e-06
-1.92637e-06
1.15326e-06
-9.97946e-07
-1.54004e-06
4.23531e-07
-2.94573e-06
2.12377e-06
-3.61702e-06
3.9586e-06
-3.86506e-06
5.82191e-06
-3.88775e-06
7.66324e-06
-3.79815e-06
9.45792e-06
-3.66261e-06
1.11976e-05
-3.51764e-06
1.28832e-05
-3.38168e-06
1.45199e-05
-3.26273e-06
1.61145e-05
-3.16281e-06
1.76737e-05
-3.08068e-06
1.92032e-05
-3.01345e-06
2.07074e-05
-2.95751e-06
2.21891e-05
-2.90908e-06
2.36494e-05
-2.86439e-06
2.50877e-05
-2.81982e-06
2.65019e-05
-2.7718e-06
2.78882e-05
-2.71674e-06
2.92409e-05
-2.65093e-06
3.05525e-05
-2.57035e-06
3.18131e-05
-2.47049e-06
3.30104e-05
-2.34614e-06
3.41292e-05
-2.19105e-06
3.51504e-05
-1.99753e-06
3.60505e-05
-1.75587e-06
3.68007e-05
-1.45346e-06
3.73673e-05
-1.07329e-06
3.77137e-05
-5.9377e-07
3.78108e-05
1.7801e-08
3.76275e-05
8.03797e-07
3.7064e-05
1.79179e-06
3.60083e-05
3.01118e-06
3.43292e-05
4.48596e-06
3.18741e-05
6.21553e-06
2.84801e-05
8.14779e-06
2.40112e-05
1.01474e-05
1.84319e-05
1.19771e-05
1.19081e-05
1.3323e-05
5.07477e-06
1.38579e-05
-1.02976e-06
1.19671e-05
-5.34716e-06
6.71691e-06
-6.77452e-06
-3.07833e-06
-1.79118e-05
-5.93629e-07
5.78883e-06
-5.33672e-08
6.12998e-07
9.41531e-07
-2.53494e-06
2.30214e-06
-4.30634e-06
3.88008e-06
-5.19496e-06
5.56983e-06
-5.55481e-06
7.30011e-06
-5.61803e-06
9.02962e-06
-5.52767e-06
1.07365e-05
-5.36952e-06
1.24113e-05
-5.19241e-06
1.40517e-05
-5.0221e-06
1.56595e-05
-4.87049e-06
1.7238e-05
-4.7413e-06
1.87909e-05
-4.63365e-06
2.03217e-05
-4.54417e-06
2.18325e-05
-4.46834e-06
2.33246e-05
-4.4012e-06
2.47979e-05
-4.33771e-06
2.6251e-05
-4.27285e-06
2.76808e-05
-4.20165e-06
2.90831e-05
-4.11903e-06
3.04518e-05
-4.01966e-06
3.17792e-05
-3.89772e-06
3.30554e-05
-3.74668e-06
3.42682e-05
-3.55894e-06
3.54027e-05
-3.32551e-06
3.64406e-05
-3.03545e-06
3.736e-05
-2.67524e-06
3.81346e-05
-2.22806e-06
3.87339e-05
-1.67264e-06
3.91228e-05
-9.82644e-07
3.92657e-05
-1.25068e-07
3.9127e-05
9.42435e-07
3.86556e-05
2.26322e-06
3.77893e-05
3.87744e-06
3.64577e-05
5.81761e-06
3.45801e-05
8.0931e-06
3.2064e-05
1.06639e-05
2.88087e-05
1.34027e-05
2.47342e-05
1.60516e-05
1.98735e-05
1.81837e-05
1.45284e-05
1.9203e-05
9.04045e-06
1.78107e-05
3.87773e-06
1.16083e-05
2.27388e-07
7.11568e-07
-1.76797e-05
4.79539e-07
5.30929e-06
1.2378e-06
-1.45264e-07
2.37935e-06
-3.67649e-06
3.75304e-06
-5.68003e-06
5.26922e-06
-6.71114e-06
6.86322e-06
-7.1488e-06
8.49128e-06
-7.24609e-06
1.01266e-05
-7.16297e-06
1.17538e-05
-6.9967e-06
1.3365e-05
-6.80369e-06
1.49574e-05
-6.61447e-06
1.65306e-05
-6.44368e-06
1.80857e-05
-6.29641e-06
1.96242e-05
-6.17214e-06
2.11473e-05
-6.06731e-06
2.26558e-05
-5.97679e-06
2.41493e-05
-5.89476e-06
2.56268e-05
-5.81517e-06
2.70859e-05
-5.7319e-06
2.8523e-05
-5.63877e-06
2.99333e-05
-5.5294e-06
3.13107e-05
-5.39701e-06
3.26471e-05
-5.23415e-06
3.39329e-05
-5.03243e-06
3.5156e-05
-4.78211e-06
3.63022e-05
-4.47171e-06
3.73542e-05
-4.08743e-06
3.82916e-05
-3.61259e-06
3.90904e-05
-3.02686e-06
3.97233e-05
-2.30551e-06
4.01594e-05
-1.4188e-06
4.03658e-05
-3.31432e-07
4.03086e-05
9.99572e-07
3.99512e-05
2.62064e-06
3.92534e-05
4.57525e-06
3.81734e-05
6.89757e-06
3.66681e-05
9.59846e-06
3.46897e-05
1.26422e-05
3.21813e-05
1.59112e-05
2.90765e-05
1.91564e-05
2.53267e-05
2.19335e-05
2.09938e-05
2.35359e-05
1.60451e-05
2.27597e-05
1.03877e-05
1.77341e-05
4.7856e-06
6.6056e-06
-1.29003e-05
1.01925e-06
4.29004e-06
2.1269e-06
-1.25291e-06
3.43985e-06
-4.98943e-06
4.87293e-06
-7.11311e-06
6.37152e-06
-8.20973e-06
7.9065e-06
-8.68378e-06
9.46004e-06
-8.79963e-06
1.10207e-05
-8.72363e-06
1.25811e-05
-8.55714e-06
1.41369e-05
-8.35946e-06
1.56856e-05
-8.16314e-06
1.7226e-05
-7.98415e-06
1.87579e-05
-7.82825e-06
2.02809e-05
-7.69517e-06
2.17948e-05
-7.58118e-06
2.32987e-05
-7.48074e-06
2.47913e-05
-7.38738e-06
2.62705e-05
-7.2943e-06
2.77331e-05
-7.1945e-06
2.91751e-05
-7.0808e-06
3.05914e-05
-6.94569e-06
3.19755e-05
-6.78112e-06
3.33195e-05
-6.57819e-06
3.4614e-05
-6.32684e-06
3.58473e-05
-6.01543e-06
3.70058e-05
-5.63027e-06
3.80735e-05
-5.15513e-06
3.90316e-05
-4.57064e-06
3.98584e-05
-3.8537e-06
4.05298e-05
-2.97691e-06
4.10191e-05
-1.90814e-06
4.12979e-05
-6.10234e-07
4.13375e-05
9.60018e-07
4.11093e-05
2.84884e-06
4.05851e-05
5.09948e-06
3.97376e-05
7.74507e-06
3.854e-05
1.0796e-05
3.69623e-05
1.42199e-05
3.49627e-05
1.79107e-05
3.24762e-05
2.1643e-05
2.94073e-05
2.50024e-05
2.56502e-05
2.7293e-05
2.10419e-05
2.73679e-05
1.52628e-05
2.35439e-05
8.11507e-06
1.37936e-05
-4.78408e-06
1.25981e-06
3.03022e-06
2.70887e-06
-2.70196e-06
4.21676e-06
-6.49733e-06
5.72811e-06
-8.62445e-06
7.23114e-06
-9.71276e-06
8.73006e-06
-1.01827e-05
1.02298e-05
-1.02994e-05
1.17328e-05
-1.02266e-05
1.32394e-05
-1.00637e-05
1.47488e-05
-9.86889e-06
1.62599e-05
-9.67428e-06
1.77715e-05
-9.49573e-06
1.92823e-05
-9.33901e-06
2.07909e-05
-9.20375e-06
2.22957e-05
-9.08601e-06
2.37949e-05
-8.9799e-06
2.5286e-05
-8.8785e-06
2.67661e-05
-8.7744e-06
2.82315e-05
-8.65991e-06
2.96777e-05
-8.52703e-06
3.10994e-05
-8.36733e-06
3.24899e-05
-8.17167e-06
3.38416e-05
-7.92987e-06
3.51451e-05
-7.6304e-06
3.63896e-05
-7.25994e-06
3.75623e-05
-6.80294e-06
3.86483e-05
-6.24107e-06
3.96304e-05
-5.55278e-06
4.04895e-05
-4.71281e-06
4.12045e-05
-3.69184e-06
4.17525e-05
-2.45621e-06
4.21101e-05
-9.67814e-07
4.22539e-05
8.16267e-07
4.21616e-05
2.94109e-06
4.18126e-05
5.44854e-06
4.11872e-05
8.37042e-06
4.02659e-05
1.17174e-05
3.90236e-05
1.54621e-05
3.74201e-05
1.95143e-05
3.53824e-05
2.36807e-05
3.27822e-05
2.76026e-05
2.94135e-05
3.06617e-05
2.49392e-05
3.18422e-05
1.88368e-05
2.96464e-05
1.05234e-05
2.2107e-05
5.73658e-06
1.42571e-06
1.60451e-06
3.1401e-06
-4.41636e-06
4.80654e-06
-8.16376e-06
6.38315e-06
-1.02011e-05
7.89308e-06
-1.12227e-05
9.36656e-06
-1.16562e-05
1.08256e-05
-1.17584e-05
1.22834e-05
-1.16844e-05
1.37465e-05
-1.15268e-05
1.52174e-05
-1.13398e-05
1.66966e-05
-1.11534e-05
1.81829e-05
-1.0982e-05
1.96747e-05
-1.08308e-05
2.11698e-05
-1.06989e-05
2.2666e-05
-1.05821e-05
2.41603e-05
-1.04742e-05
2.56495e-05
-1.03677e-05
2.71301e-05
-1.0255e-05
2.85977e-05
-1.01276e-05
3.00477e-05
-9.97703e-06
3.14745e-05
-9.79406e-06
3.28714e-05
-9.56861e-06
3.4231e-05
-9.28944e-06
3.55444e-05
-8.94377e-06
3.68012e-05
-8.51683e-06
3.79898e-05
-7.99148e-06
3.90964e-05
-7.34767e-06
4.01057e-05
-6.56209e-06
4.10007e-05
-5.60787e-06
4.17633e-05
-4.45444e-06
4.23746e-05
-3.06743e-06
4.28154e-05
-1.40862e-06
4.30676e-05
5.64052e-07
4.31145e-05
2.89416e-06
4.29408e-05
5.62224e-06
4.25319e-05
8.77929e-06
4.18717e-05
1.23776e-05
4.09367e-05
1.63972e-05
3.96846e-05
2.07663e-05
3.80348e-05
2.53305e-05
3.5836e-05
2.98015e-05
3.28178e-05
3.36798e-05
2.85136e-05
3.61464e-05
2.21889e-05
3.59712e-05
1.29115e-05
3.13842e-05
1.86455e-05
1.60663e-06
-2.11585e-09
3.50888e-06
-6.31861e-06
5.2789e-06
-9.93378e-06
6.89361e-06
-1.18158e-05
8.40228e-06
-1.27314e-05
9.8526e-06
-1.31065e-05
1.12778e-05
-1.31836e-05
1.2698e-05
-1.31046e-05
1.41244e-05
-1.29532e-05
1.55622e-05
-1.27776e-05
1.7013e-05
-1.26042e-05
1.84762e-05
-1.24453e-05
1.99501e-05
-1.23047e-05
2.14322e-05
-1.2181e-05
2.29193e-05
-1.20692e-05
2.44079e-05
-1.19629e-05
2.58944e-05
-1.18542e-05
2.73745e-05
-1.1735e-05
2.88435e-05
-1.15966e-05
3.02964e-05
-1.143e-05
3.17276e-05
-1.12252e-05
3.31305e-05
-1.09715e-05
3.44978e-05
-1.06568e-05
3.58212e-05
-1.02672e-05
3.70912e-05
-9.78677e-06
3.82967e-05
-9.19707e-06
3.94257e-05
-8.47663e-06
4.04644e-05
-7.60075e-06
4.13979e-05
-6.54142e-06
4.22109e-05
-5.26745e-06
4.2888e-05
-3.74449e-06
4.34144e-05
-1.93504e-06
4.3777e-05
2.01514e-07
4.3964e-05
2.7071e-06
4.39652e-05
5.62111e-06
4.37701e-05
8.97437e-06
4.33658e-05
1.27818e-05
4.27312e-05
1.70319e-05
4.18251e-05
2.16724e-05
4.05662e-05
2.65893e-05
3.87962e-05
3.15715e-05
3.62156e-05
3.62604e-05
3.22761e-05
4.00859e-05
2.60345e-05
4.22127e-05
1.60533e-05
4.13655e-05
3.46961e-05
1.80488e-06
-1.80699e-06
3.84471e-06
-8.35845e-06
5.67418e-06
-1.17632e-05
7.30253e-06
-1.34441e-05
8.80008e-06
-1.42289e-05
1.02258e-05
-1.45322e-05
1.16194e-05
-1.45772e-05
1.30056e-05
-1.44908e-05
1.43986e-05
-1.43462e-05
1.58056e-05
-1.41847e-05
1.72295e-05
-1.4028e-05
1.86701e-05
-1.38859e-05
2.01258e-05
-1.37604e-05
2.15936e-05
-1.36488e-05
2.30703e-05
-1.35459e-05
2.45517e-05
-1.34443e-05
2.60336e-05
-1.33361e-05
2.75114e-05
-1.32128e-05
2.89801e-05
-1.30653e-05
3.04343e-05
-1.28842e-05
3.18684e-05
-1.26593e-05
3.32761e-05
-1.23792e-05
3.46503e-05
-1.2031e-05
3.59831e-05
-1.16001e-05
3.72659e-05
-1.10695e-05
3.84887e-05
-1.04199e-05
3.96406e-05
-9.62855e-06
4.07096e-05
-8.66972e-06
4.16827e-05
-7.51459e-06
4.25472e-05
-6.13188e-06
4.32907e-05
-4.48806e-06
4.39028e-05
-2.54716e-06
4.43751e-05
-2.70707e-07
4.47009e-05
2.38126e-06
4.4875e-05
5.44703e-06
4.48917e-05
8.95761e-06
4.47428e-05
1.29307e-05
4.44121e-05
1.73626e-05
4.38662e-05
2.22184e-05
4.30353e-05
2.74201e-05
4.17786e-05
3.28283e-05
3.9816e-05
3.8223e-05
3.66027e-05
4.32992e-05
3.10767e-05
4.77387e-05
2.1104e-05
5.13382e-05
5.57976e-05
2.00844e-06
-3.81543e-06
4.15412e-06
-1.05041e-05
6.01633e-06
-1.36255e-05
7.64342e-06
-1.50712e-05
9.12319e-06
-1.57087e-05
1.0522e-05
-1.5931e-05
1.18838e-05
-1.5939e-05
1.32363e-05
-1.58434e-05
1.45962e-05
-1.57061e-05
1.59723e-05
-1.55608e-05
1.73684e-05
-1.54241e-05
1.8785e-05
-1.53025e-05
2.02205e-05
-1.51958e-05
2.16719e-05
-1.51002e-05
2.31355e-05
-1.50095e-05
2.46069e-05
-1.49158e-05
2.60816e-05
-1.48108e-05
2.75543e-05
-1.46855e-05
2.90199e-05
-1.45309e-05
3.0473e-05
-1.43373e-05
3.19077e-05
-1.4094e-05
3.33179e-05
-1.37894e-05
3.46969e-05
-1.341e-05
3.60375e-05
-1.29406e-05
3.73316e-05
-1.23636e-05
3.85705e-05
-1.16588e-05
3.97446e-05
-1.08026e-05
4.08433e-05
-9.76845e-06
4.18556e-05
-8.52681e-06
4.27705e-05
-7.0468e-06
4.35789e-05
-5.2965e-06
4.42742e-05
-3.24245e-06
4.48526e-05
-8.49124e-07
4.5313e-05
1.92088e-06
4.56557e-05
5.10439e-06
4.58807e-05
8.73262e-06
4.59859e-05
1.28254e-05
4.59639e-05
1.73846e-05
4.57951e-05
2.23872e-05
4.54354e-05
2.77798e-05
4.47893e-05
3.34744e-05
4.36582e-05
3.93541e-05
4.16317e-05
4.53257e-05
3.77847e-05
5.15857e-05
2.90273e-05
6.00955e-05
8.48236e-05
3.666e-29
-4.48315e-29
-4.65181e-30
4.03289e-29
-1.42031e-29
6.26948e-29
-1.25374e-30
7.46839e-30
-7.79064e-32
2.81944e-31
-4.2277e-33
9.06201e-33
-1.48311e-34
2.39517e-34
-2.43119e-34
5.65994e-36
-3.61737e-34
-5.19938e-36
-1.70761e-33
-1.37126e-34
-7.27672e-33
-9.8827e-34
-2.10524e-32
-1.57914e-32
-2.706e-32
-8.46053e-32
-1.63295e-32
-1.68987e-31
-5.73003e-33
-8.50493e-32
-1.25989e-33
-3.06656e-32
-1.37212e-34
-7.45873e-33
2.62687e-36
-1.15426e-33
3.43105e-36
-1.21953e-34
5.36441e-37
-8.89466e-36
7.50679e-38
-5.32536e-37
8.16657e-39
-5.01977e-38
6.67758e-40
-5.59625e-39
3.00198e-41
-3.17712e-40
8.25247e-43
-8.04317e-42
1.74568e-44
-1.11984e-43
2.16201e-46
-5.96432e-46
4.90738e-48
1.83535e-48
1.76973e-49
1.04004e-49
5.19401e-51
5.13332e-51
1.42199e-52
2.10435e-52
3.39502e-54
7.56847e-54
6.80911e-56
2.23466e-55
1.09583e-57
5.51257e-57
1.32114e-59
1.09916e-58
1.07494e-61
1.65356e-60
4.94152e-64
1.70873e-62
1.01334e-66
1.00243e-64
1.47421e-67
2.20985e-67
1.35706e-70
-1.19035e-28
-6.23733e-28
-5.29223e-28
1.83277e-27
-2.69915e-28
1.42662e-27
-4.35039e-29
2.93045e-28
-5.4715e-30
2.57064e-29
-5.11129e-31
1.82335e-30
-2.95761e-32
8.479e-32
-1.92121e-32
2.29935e-33
-6.41629e-32
-1.88496e-33
-3.89732e-31
-4.69077e-32
-1.13182e-30
-2.79947e-31
-1.87257e-30
-8.03085e-31
-1.73847e-30
-1.3366e-30
-1.23258e-30
-1.51179e-30
-5.51889e-31
-1.13016e-30
-1.51743e-31
-5.83707e-31
-2.32613e-32
-2.04797e-31
-1.2055e-33
-4.84979e-32
2.08402e-34
-7.53726e-33
4.89613e-35
-7.93538e-34
8.35525e-36
-6.47034e-35
9.46478e-37
-5.58585e-36
8.3258e-38
-7.44054e-37
4.26165e-39
-5.14478e-38
1.31845e-40
-1.5649e-39
2.9239e-42
-2.6006e-41
3.98318e-44
-2.0262e-43
5.92063e-46
4.86646e-46
2.71184e-47
4.02449e-47
6.8303e-49
2.29418e-48
1.94091e-50
1.01216e-49
4.90822e-52
3.77629e-51
1.06123e-53
1.19093e-52
1.8809e-55
3.158e-54
2.58571e-57
6.84868e-56
2.53882e-59
1.15806e-57
1.55932e-61
1.41192e-59
4.7185e-64
1.07672e-61
4.85065e-67
3.85424e-64
3.2608e-67
-1.11015e-26
1.20664e-26
-1.55308e-26
5.4374e-26
-7.42434e-27
3.59148e-26
-1.47613e-27
9.07778e-27
-2.62257e-28
1.06476e-27
-3.61895e-29
1.11104e-28
-3.5096e-30
7.71403e-30
-2.40527e-30
3.01165e-31
-7.29808e-30
-3.98222e-31
-3.7041e-29
-6.68757e-30
-9.4756e-29
-3.40678e-29
-1.46684e-28
-8.71903e-29
-1.25241e-28
-1.36319e-28
-8.6058e-29
-1.43495e-28
-3.78445e-29
-1.03227e-28
-1.06209e-29
-5.21709e-29
-1.76701e-30
-1.82717e-29
-1.3056e-31
-4.40956e-30
7.31782e-33
-7.17334e-31
2.94287e-33
-7.97781e-32
4.95343e-34
-6.84758e-33
5.97955e-35
-5.37124e-34
5.65274e-36
-5.85881e-35
3.21845e-37
-4.35439e-36
1.10496e-38
-1.50472e-37
2.65681e-40
-2.89085e-39
4.2582e-42
-2.93169e-41
3.96349e-44
1.57883e-44
1.60429e-45
3.69062e-45
4.55576e-47
2.09583e-46
1.30988e-48
9.50359e-48
3.38462e-50
3.6051e-49
7.59204e-52
1.16671e-50
1.42382e-53
3.20277e-52
2.12804e-55
7.28891e-54
2.48465e-57
1.32351e-55
2.06084e-59
1.80155e-57
9.19628e-62
1.6466e-59
1.83057e-64
8.10671e-62
1.25419e-64
-2.05221e-25
5.25167e-25
-2.77408e-25
9.75205e-25
-1.45658e-25
6.60325e-25
-3.63602e-26
1.93536e-25
-9.15204e-27
3.00015e-26
-1.79311e-27
4.54217e-27
-2.71332e-28
4.45096e-28
-2.04121e-28
2.16764e-29
-5.63577e-28
-5.3828e-29
-2.36798e-27
-5.95021e-28
-5.24121e-27
-2.57389e-27
-7.27123e-27
-5.84019e-27
-6.11093e-27
-8.56685e-27
-3.93478e-27
-8.40897e-27
-1.69608e-27
-5.8391e-27
-4.79209e-28
-2.89564e-27
-8.32747e-29
-1.01329e-27
-7.09786e-30
-2.4922e-28
1.68825e-31
-4.23047e-29
1.32047e-31
-5.0154e-30
2.18302e-32
-4.51965e-31
2.72958e-33
-3.31323e-32
2.72566e-34
-3.17899e-33
1.70873e-35
-2.49516e-34
6.49622e-37
-9.6508e-36
1.69913e-38
-2.10637e-37
3.06338e-40
-2.56861e-39
2.26507e-42
-2.94731e-42
7.78279e-44
2.85969e-43
2.39863e-45
1.33735e-44
6.92366e-47
6.22693e-46
1.82066e-48
2.40298e-47
4.21074e-50
7.94609e-49
8.27383e-52
2.24693e-50
1.46871e-53
5.33131e-52
2.01718e-55
1.03026e-53
1.94864e-57
1.53177e-55
1.10479e-59
1.60155e-57
3.3667e-62
9.88221e-60
2.28639e-62
-2.319e-24
8.01517e-24
-3.7501e-24
1.28301e-23
-2.34749e-24
9.90389e-24
-7.21875e-25
3.33057e-24
-2.38114e-25
6.48796e-25
-6.24123e-26
1.30285e-25
-1.49207e-26
1.69994e-26
-1.28425e-26
8.59267e-28
-3.26743e-26
-4.37336e-27
-1.13955e-25
-3.81649e-26
-2.17862e-25
-1.39894e-25
-2.6823e-25
-2.81002e-25
-2.20313e-25
-3.84656e-25
-1.34216e-25
-3.54219e-25
-5.65281e-26
-2.37666e-25
-1.59464e-26
-1.15856e-25
-2.83528e-27
-4.05614e-26
-2.57348e-28
-1.01732e-26
4.29596e-30
-1.79944e-27
4.96734e-30
-2.28304e-28
7.96207e-31
-2.15868e-29
1.00865e-31
-1.51979e-30
1.04963e-32
-1.33898e-31
7.15942e-34
-1.0956e-32
3.0121e-35
-4.69007e-34
8.63048e-37
-1.15524e-35
1.71787e-38
-1.63978e-37
1.40796e-40
-5.36932e-40
3.40222e-42
1.51299e-41
1.1444e-43
7.08924e-43
3.2683e-45
3.40581e-44
8.74884e-47
1.34161e-45
2.08078e-48
4.5372e-47
4.79794e-50
1.31989e-48
9.07968e-52
3.26726e-50
1.3509e-53
6.64728e-52
1.4601e-55
1.0607e-53
9.80709e-58
1.22792e-55
3.94225e-60
8.87797e-58
2.77314e-60
-2.39796e-23
8.36829e-23
-4.02318e-23
1.35002e-22
-2.88299e-23
1.16538e-22
-9.87324e-24
4.09396e-23
-4.07842e-24
9.18478e-24
-1.41257e-24
2.34234e-24
-4.78531e-25
3.94802e-25
-5.03062e-25
7.8517e-27
-1.46552e-24
-2.52019e-25
-4.35026e-24
-1.87869e-24
-7.23617e-24
-5.86954e-24
-7.85385e-24
-1.04855e-23
-6.26859e-24
-1.32901e-23
-3.63251e-24
-1.15651e-23
-1.4918e-24
-7.51079e-24
-4.17603e-25
-3.60691e-24
-7.47829e-26
-1.26562e-24
-6.83179e-27
-3.24105e-25
1.96629e-28
-5.97443e-26
1.6589e-28
-8.11653e-27
2.53147e-29
-8.05298e-28
3.20191e-30
-5.56892e-29
3.43374e-31
-4.65465e-30
2.51556e-32
-3.93135e-31
1.16688e-33
-1.84122e-32
3.68208e-35
-5.09005e-34
8.07926e-37
-8.27778e-36
7.90444e-39
-4.18496e-38
1.44747e-40
6.62583e-40
5.0507e-42
3.36486e-41
1.45384e-43
1.67587e-42
3.97694e-45
6.77724e-44
1.04873e-46
2.35241e-45
2.56692e-48
7.07568e-47
5.12361e-50
1.81918e-48
8.14194e-52
3.87702e-50
9.58187e-54
6.56347e-52
7.26412e-56
8.2183e-54
3.45503e-58
6.66468e-56
2.51378e-58
-1.83046e-22
6.14949e-22
-2.92983e-22
9.87568e-22
-2.14724e-22
8.60102e-22
-8.85393e-23
2.93961e-22
-4.31654e-23
8.19583e-23
-1.6274e-23
2.41988e-23
-9.33495e-24
4.53521e-24
-1.31263e-23
-3.25334e-25
-5.36414e-23
-1.24319e-23
-1.34931e-22
-7.30041e-23
-1.99783e-22
-1.95936e-22
-1.8935e-22
-3.18321e-22
-1.46016e-22
-3.67817e-22
-8.07954e-23
-3.05583e-22
-3.23131e-23
-1.92685e-22
-8.92741e-24
-9.14241e-23
-1.58518e-24
-3.22274e-23
-1.36615e-25
-8.44213e-24
9.46995e-27
-1.62385e-24
4.99767e-27
-2.35782e-25
7.21321e-28
-2.45546e-26
9.00457e-29
-1.70483e-27
9.87205e-30
-1.383e-28
7.67076e-31
-1.19667e-29
3.89789e-32
-6.05852e-31
1.35767e-33
-1.86719e-32
3.28841e-35
-3.44567e-34
3.84234e-37
-2.28194e-36
5.88239e-39
2.62515e-38
2.09981e-40
1.47442e-39
6.21726e-42
7.65594e-41
1.74573e-43
3.19731e-42
5.11482e-45
1.14468e-43
1.30665e-46
3.57193e-45
2.73475e-48
9.54156e-47
4.59782e-50
2.12489e-48
5.78496e-52
3.78877e-50
4.76803e-54
5.05242e-52
2.47155e-56
4.43621e-54
1.85771e-56
-1.27506e-21
3.75482e-21
-1.92251e-21
6.12387e-21
-1.27437e-21
5.13802e-21
-5.61627e-22
1.59179e-21
-2.78314e-22
4.9171e-22
-1.14242e-22
1.50593e-22
-1.19496e-22
3.3355e-23
-4.10619e-22
-2.21299e-23
-1.64532e-21
-5.0942e-22
-3.43064e-21
-2.36609e-21
-4.53358e-21
-5.38878e-21
-3.95746e-21
-8.00167e-21
-2.84286e-21
-8.42742e-21
-1.50716e-21
-6.69401e-21
-5.8661e-22
-4.11649e-21
-1.59067e-22
-1.93819e-21
-2.74674e-23
-6.89269e-22
-1.98977e-24
-1.85335e-22
3.5719e-25
-3.73199e-23
1.35055e-25
-5.77319e-24
1.90937e-26
-6.31703e-25
2.32295e-27
-4.6203e-26
2.54218e-28
-3.75268e-27
2.07023e-29
-3.16258e-28
1.1422e-30
-1.70966e-29
4.38456e-32
-5.81811e-31
1.17236e-33
-1.20689e-32
1.57837e-35
-9.68633e-35
2.27982e-37
9.69075e-37
8.40205e-39
6.05274e-38
2.57023e-40
3.29138e-39
7.82881e-42
1.42753e-40
2.3997e-43
5.31347e-42
6.40095e-45
1.72277e-43
1.40415e-46
4.79201e-45
2.48467e-48
1.11475e-46
3.30927e-50
2.0855e-48
2.91324e-52
2.93499e-50
1.58559e-54
2.74084e-52
1.23976e-54
-7.6869e-21
1.67319e-20
-9.55758e-21
2.72824e-20
-5.53302e-21
2.13596e-20
-2.92909e-21
6.83534e-21
-1.52206e-21
2.70994e-21
-1.34704e-21
1.00118e-21
-2.39944e-21
3.49303e-22
-1.28509e-20
-1.98515e-21
-4.31728e-20
-2.05353e-20
-7.43216e-20
-7.17713e-20
-8.3837e-20
-1.32474e-19
-7.05087e-20
-1.75598e-19
-4.68149e-20
-1.64597e-19
-2.37984e-20
-1.23726e-19
-9.00601e-21
-7.36495e-20
-2.3805e-21
-3.43834e-20
-3.8814e-22
-1.23736e-20
-1.67051e-23
-3.42815e-21
1.05507e-23
-7.2813e-22
3.23764e-24
-1.19297e-22
4.51182e-25
-1.37454e-23
5.4175e-26
-1.06323e-24
5.92672e-27
-8.86226e-26
5.00782e-28
-7.38778e-27
2.96951e-29
-4.21362e-28
1.24978e-30
-1.56492e-29
3.68202e-32
-3.60932e-31
5.58593e-34
-3.34376e-33
8.39135e-36
3.3744e-35
3.21685e-37
2.33329e-36
1.02212e-38
1.33287e-37
3.37696e-40
6.03514e-39
1.08211e-41
2.34736e-40
3.01909e-43
7.94109e-42
6.94417e-45
2.30689e-43
1.29084e-46
5.6123e-45
1.81116e-48
1.10035e-46
1.68717e-50
1.62708e-48
9.52458e-53
1.60173e-50
7.69427e-53
-3.1548e-20
9.97979e-20
-4.50805e-20
1.04825e-19
-4.36287e-20
8.98232e-20
-4.96434e-20
7.17866e-20
-5.50127e-20
6.37719e-20
-5.99387e-20
4.10938e-20
-1.09491e-19
1.42404e-20
-3.39986e-19
-1.49688e-19
-9.44203e-19
-7.64462e-19
-1.38545e-18
-1.51103e-18
-1.29824e-18
-2.64576e-18
-1.04846e-18
-3.50634e-18
-6.54271e-19
-2.81638e-18
-3.18766e-19
-2.03296e-18
-1.16832e-19
-1.14386e-18
-2.97172e-20
-5.19065e-19
-4.31963e-21
-1.86271e-19
1.04646e-22
-5.28241e-20
2.51384e-22
-1.18809e-20
6.77955e-23
-2.03756e-21
9.44514e-24
-2.46272e-22
1.17178e-24
-2.00383e-23
1.29822e-25
-1.7552e-24
1.11828e-26
-1.51316e-25
6.97339e-28
-9.02246e-27
3.17701e-29
-3.59332e-28
1.0239e-30
-9.055e-30
1.7162e-32
-9.20965e-32
2.91038e-34
1.10905e-33
1.16806e-35
8.42216e-35
3.87606e-37
5.06313e-36
1.38616e-38
2.40413e-37
4.66212e-40
9.81749e-39
1.36326e-41
3.48046e-40
3.29308e-43
1.0595e-41
6.43249e-45
2.70171e-43
9.49352e-47
5.55521e-45
9.3194e-49
8.62062e-47
5.43751e-51
8.91277e-49
4.52396e-51
2.2421e-06
-6.05753e-06
4.51989e-06
-1.27819e-05
6.43925e-06
-1.55448e-05
8.08939e-06
-1.67214e-05
9.57487e-06
-1.71942e-05
1.09692e-05
-1.73253e-05
1.2321e-05
-1.72908e-05
1.36614e-05
-1.71838e-05
1.50096e-05
-1.70543e-05
1.63763e-05
-1.69275e-05
1.77663e-05
-1.68142e-05
1.91807e-05
-1.67168e-05
2.06179e-05
-1.6633e-05
2.20749e-05
-1.65572e-05
2.35477e-05
-1.64822e-05
2.50316e-05
-1.63997e-05
2.65214e-05
-1.63006e-05
2.80116e-05
-1.61758e-05
2.94967e-05
-1.6016e-05
3.09709e-05
-1.58115e-05
3.24284e-05
-1.55515e-05
3.38631e-05
-1.52241e-05
3.52687e-05
-1.48155e-05
3.66381e-05
-1.43101e-05
3.79642e-05
-1.36897e-05
3.92392e-05
-1.29338e-05
4.04548e-05
-1.20182e-05
4.16016e-05
-1.09153e-05
4.26698e-05
-9.59497e-06
4.365e-05
-8.02707e-06
4.45356e-05
-6.18207e-06
4.53234e-05
-4.03025e-06
4.60145e-05
-1.54021e-06
4.66135e-05
1.32187e-06
4.71271e-05
4.59074e-06
4.75622e-05
8.29754e-06
4.79242e-05
1.24634e-05
4.82163e-05
1.70925e-05
4.84371e-05
2.21664e-05
4.85759e-05
2.7641e-05
4.86027e-05
3.34476e-05
4.84518e-05
3.9505e-05
4.79966e-05
4.57809e-05
4.70514e-05
5.2531e-05
4.59702e-05
6.11767e-05
7.74158e-05
5.33781e-05
2.44524e-06
-8.50277e-06
4.83647e-06
-1.51731e-05
6.80182e-06
-1.75102e-05
8.46421e-06
-1.83837e-05
9.94259e-06
-1.86725e-05
1.13179e-05
-1.87007e-05
1.26441e-05
-1.86169e-05
1.39563e-05
-1.84961e-05
1.52767e-05
-1.83747e-05
1.66177e-05
-1.82685e-05
1.79852e-05
-1.81817e-05
1.93806e-05
-1.81123e-05
2.08026e-05
-1.8055e-05
2.2248e-05
-1.80026e-05
2.37127e-05
-1.79469e-05
2.51917e-05
-1.78787e-05
2.66794e-05
-1.77883e-05
2.81699e-05
-1.76663e-05
2.96573e-05
-1.75034e-05
3.11357e-05
-1.72899e-05
3.25993e-05
-1.70151e-05
3.40421e-05
-1.66669e-05
3.54581e-05
-1.62315e-05
3.68408e-05
-1.56928e-05
3.81838e-05
-1.50327e-05
3.94805e-05
-1.42305e-05
4.07242e-05
-1.32618e-05
4.19068e-05
-1.20979e-05
4.30196e-05
-1.07077e-05
4.40543e-05
-9.06175e-06
4.5006e-05
-7.13375e-06
4.58749e-05
-4.89915e-06
4.66669e-05
-2.33226e-06
4.73931e-05
5.95723e-07
4.80672e-05
3.91662e-06
4.87034e-05
7.66132e-06
4.93152e-05
1.18516e-05
4.99163e-05
1.64914e-05
5.05225e-05
2.15602e-05
5.11542e-05
2.70093e-05
5.18391e-05
3.27627e-05
5.2621e-05
3.87231e-05
5.36019e-05
4.48e-05
5.51377e-05
5.09951e-05
5.8567e-05
5.77474e-05
6.7738e-05
6.82448e-05
2.63031e-06
-1.11331e-05
5.14746e-06
-1.76903e-05
7.17333e-06
-1.9536e-05
8.85473e-06
-2.00651e-05
1.03262e-05
-2.0144e-05
1.16791e-05
-2.00536e-05
1.29748e-05
-1.99125e-05
1.42537e-05
-1.9775e-05
1.55413e-05
-1.96623e-05
1.6852e-05
-1.95791e-05
1.81923e-05
-1.9522e-05
1.95642e-05
-1.94841e-05
2.09661e-05
-1.94569e-05
2.23949e-05
-1.94315e-05
2.38464e-05
-1.93984e-05
2.53153e-05
-1.93475e-05
2.67956e-05
-1.92686e-05
2.8281e-05
-1.91517e-05
2.97653e-05
-1.89876e-05
3.12424e-05
-1.87669e-05
3.27064e-05
-1.84791e-05
3.41516e-05
-1.81121e-05
3.55723e-05
-1.76521e-05
3.69624e-05
-1.7083e-05
3.83163e-05
-1.63865e-05
3.96288e-05
-1.5543e-05
4.08949e-05
-1.4528e-05
4.21085e-05
-1.33115e-05
4.32612e-05
-1.18604e-05
4.43451e-05
-1.01456e-05
4.53564e-05
-8.14506e-06
4.6298e-05
-5.84082e-06
4.71807e-05
-3.21487e-06
4.80217e-05
-2.45331e-07
4.88428e-05
3.09557e-06
4.96655e-05
6.83856e-06
5.05107e-05
1.10064e-05
5.14001e-05
1.56021e-05
5.2361e-05
2.05993e-05
5.34325e-05
2.59378e-05
5.46724e-05
3.15228e-05
5.61687e-05
3.72268e-05
5.8071e-05
4.28978e-05
6.06787e-05
4.83874e-05
6.47195e-05
5.37066e-05
5.95625e-05
7.28949e-05
2.79902e-06
-1.39321e-05
5.46876e-06
-2.03598e-05
7.57284e-06
-2.16399e-05
9.27715e-06
-2.17693e-05
1.07387e-05
-2.16054e-05
1.2064e-05
-2.13788e-05
1.33239e-05
-2.11723e-05
1.4565e-05
-2.1016e-05
1.58161e-05
-2.09132e-05
1.70928e-05
-2.08556e-05
1.84025e-05
-2.08316e-05
1.97469e-05
-2.08284e-05
2.11245e-05
-2.08343e-05
2.25321e-05
-2.08389e-05
2.39652e-05
-2.08314e-05
2.54186e-05
-2.08007e-05
2.68858e-05
-2.07356e-05
2.83602e-05
-2.06259e-05
2.98351e-05
-2.04623e-05
3.13043e-05
-2.0236e-05
3.2762e-05
-1.99366e-05
3.42026e-05
-1.95525e-05
3.56207e-05
-1.907e-05
3.70107e-05
-1.84728e-05
3.83673e-05
-1.77429e-05
3.9687e-05
-1.68625e-05
4.09673e-05
-1.58082e-05
4.22042e-05
-1.45482e-05
4.33898e-05
-1.3046e-05
4.45159e-05
-1.12717e-05
4.55788e-05
-9.20791e-06
4.65833e-05
-6.84524e-06
4.75438e-05
-4.17545e-06
4.84845e-05
-1.186e-06
4.94347e-05
2.14538e-06
5.04236e-05
5.84963e-06
5.14779e-05
9.95219e-06
5.26236e-05
1.44563e-05
5.38928e-05
1.93301e-05
5.53308e-05
2.44997e-05
5.70024e-05
2.98512e-05
5.89966e-05
3.52326e-05
6.14355e-05
4.04589e-05
6.45008e-05
4.5322e-05
6.85752e-05
4.96322e-05
5.33283e-05
7.48094e-05
2.96141e-06
-1.68931e-05
5.82436e-06
-2.32209e-05
8.01334e-06
-2.3827e-05
9.73091e-06
-2.34855e-05
1.11727e-05
-2.30461e-05
1.24642e-05
-2.26693e-05
1.36849e-05
-2.23921e-05
1.48866e-05
-2.22168e-05
1.61004e-05
-2.2126e-05
1.73425e-05
-2.20966e-05
1.86203e-05
-2.21082e-05
1.99354e-05
-2.2142e-05
2.12856e-05
-2.21831e-05
2.26679e-05
-2.22196e-05
2.40778e-05
-2.22398e-05
2.55102e-05
-2.22314e-05
2.69583e-05
-2.21821e-05
2.84149e-05
-2.20808e-05
2.98732e-05
-2.19189e-05
3.1327e-05
-2.1688e-05
3.27703e-05
-2.13784e-05
3.41979e-05
-2.09785e-05
3.56047e-05
-2.04755e-05
3.69854e-05
-1.98522e-05
3.83345e-05
-1.9091e-05
3.96506e-05
-1.81776e-05
4.09342e-05
-1.7091e-05
4.21844e-05
-1.57978e-05
4.33943e-05
-1.42555e-05
4.45544e-05
-1.24315e-05
4.56605e-05
-1.03139e-05
4.67181e-05
-7.90285e-06
4.77444e-05
-5.20172e-06
4.87689e-05
-2.21039e-06
4.9829e-05
1.08534e-06
5.09607e-05
4.7179e-06
5.21948e-05
8.71805e-06
5.35587e-05
1.30924e-05
5.50829e-05
1.7806e-05
5.68103e-05
2.27723e-05
5.88003e-05
2.78612e-05
6.11284e-05
3.29046e-05
6.38818e-05
3.77056e-05
6.71644e-05
4.20394e-05
7.11343e-05
4.56623e-05
4.83805e-05
7.60821e-05
3.14957e-06
-2.00376e-05
6.2459e-06
-2.63003e-05
8.47826e-06
-2.60441e-05
1.01699e-05
-2.51659e-05
1.15739e-05
-2.44414e-05
1.28274e-05
-2.3915e-05
1.40103e-05
-2.3567e-05
1.5176e-05
-2.33741e-05
1.63556e-05
-2.32965e-05
1.75643e-05
-2.32955e-05
1.88098e-05
-2.3343e-05
2.00926e-05
-2.34135e-05
2.14106e-05
-2.34889e-05
2.27608e-05
-2.3557e-05
2.41393e-05
-2.36048e-05
2.55413e-05
-2.36195e-05
2.69598e-05
-2.35863e-05
2.83874e-05
-2.34939e-05
2.98172e-05
-2.33343e-05
3.12438e-05
-2.31003e-05
3.26611e-05
-2.27818e-05
3.40646e-05
-2.23688e-05
3.54505e-05
-2.1849e-05
3.68133e-05
-2.12038e-05
3.81467e-05
-2.04145e-05
3.94513e-05
-1.94737e-05
4.07313e-05
-1.8364e-05
4.19897e-05
-1.7051e-05
4.32194e-05
-1.54815e-05
4.441e-05
-1.36203e-05
4.55593e-05
-1.14628e-05
4.66737e-05
-9.01715e-06
4.77663e-05
-6.29404e-06
4.88655e-05
-3.30913e-06
5.00196e-05
-6.7994e-08
5.12725e-05
3.46547e-06
5.26569e-05
7.3336e-06
5.41995e-05
1.15499e-05
5.59242e-05
1.60812e-05
5.78671e-05
2.08294e-05
6.00772e-05
2.56511e-05
6.26133e-05
3.03685e-05
6.55302e-05
3.47887e-05
6.88713e-05
3.86983e-05
7.2656e-05
4.18776e-05
4.41668e-05
7.68697e-05
3.52007e-06
-2.35044e-05
6.68041e-06
-2.93263e-05
8.76289e-06
-2.80091e-05
1.03582e-05
-2.66749e-05
1.17024e-05
-2.57168e-05
1.2914e-05
-2.50631e-05
1.40453e-05
-2.46334e-05
1.51576e-05
-2.44169e-05
1.62785e-05
-2.43421e-05
1.7422e-05
-2.43572e-05
1.85999e-05
-2.44326e-05
1.98124e-05
-2.45312e-05
2.10589e-05
-2.4634e-05
2.23402e-05
-2.47303e-05
2.3654e-05
-2.48036e-05
2.49987e-05
-2.48419e-05
2.63686e-05
-2.48257e-05
2.77561e-05
-2.47423e-05
2.91477e-05
-2.4583e-05
3.0528e-05
-2.43357e-05
3.18779e-05
-2.3985e-05
3.32179e-05
-2.35192e-05
3.45548e-05
-2.29788e-05
3.58824e-05
-2.23362e-05
3.711e-05
-2.15403e-05
3.82996e-05
-2.06018e-05
3.95252e-05
-1.9538e-05
4.0828e-05
-1.83099e-05
4.2167e-05
-1.67868e-05
4.34984e-05
-1.49294e-05
4.48261e-05
-1.27764e-05
4.61633e-05
-1.0343e-05
4.74858e-05
-7.61121e-06
4.87505e-05
-4.56769e-06
5.00116e-05
-1.32026e-06
5.13785e-05
2.10306e-06
5.2887e-05
5.8241e-06
5.45694e-05
9.86746e-06
5.64423e-05
1.42084e-05
5.85338e-05
1.87379e-05
6.08803e-05
2.33046e-05
6.3527e-05
2.77218e-05
6.65021e-05
3.18136e-05
6.98089e-05
3.53916e-05
7.34051e-05
3.82814e-05
4.03756e-05
7.71963e-05
4.46989e-06
-2.00806e-05
6.22779e-06
-1.70605e-05
7.85045e-06
-1.69433e-05
9.43994e-06
-1.86756e-05
1.06453e-05
-1.89474e-05
1.16691e-05
-1.81272e-05
1.24382e-05
-1.67995e-05
1.31339e-05
-1.55019e-05
1.37655e-05
-1.43602e-05
1.43478e-05
-1.3321e-05
1.49285e-05
-1.24554e-05
1.5483e-05
-1.16742e-05
1.60236e-05
-1.09684e-05
1.65889e-05
-1.0374e-05
1.71799e-05
-9.85937e-06
1.77947e-05
-9.43089e-06
1.83858e-05
-9.01972e-06
1.89398e-05
-8.58917e-06
1.94828e-05
-8.16106e-06