/*--------------------------------*- C++ -*----------------------------------*\
  =========                 |
  \\      /  F ield         | OpenFOAM: The Open Source CFD Toolbox
   \\    /   O peration     | Website:  https://openfoam.org
    \\  /    A nd           | Version:  7
     \\/     M anipulation  |
\*---------------------------------------------------------------------------*/
FoamFile
{
    version     2.0;
    format      ascii;
    class       volScalarField;
    location    "0.4";
    object      epsilon;
}
// * * * * * * * * * * * * * * * * * * * * * * * * * * * * * * * * * * * * * //

dimensions      [0 2 -3 0 0 0 0];

internalField   nonuniform List<scalar> 
7700
(
0.0307211
0.079058
0.140447
0.206939
0.268216
0.329504
0.388092
0.447059
0.507931
0.571764
0.639244
0.710688
0.786079
0.865121
0.947305
1.03197
1.11835
1.2056
1.29286
1.3792
1.4637
1.54539
1.6233
1.69641
1.76369
1.82406
1.87641
1.91958
1.95233
1.97316
1.98007
1.97239
1.95763
1.93049
1.88835
1.82999
1.7553
1.66555
1.56371
1.45363
1.33541
1.18692
1.05131
0.897884
0.787237
0.591298
0.0473675
0.0584203
0.0845555
0.112361
0.137952
0.160901
0.182341
0.20336
0.224699
0.24689
0.270291
0.295107
0.321407
0.349156
0.378232
0.40845
0.439579
0.471355
0.503491
0.535687
0.56763
0.599004
0.629489
0.658764
0.686513
0.712431
0.736231
0.757661
0.77652
0.792682
0.806222
0.818717
0.833534
0.850433
0.87
0.893442
0.922366
0.958496
1.00297
1.05414
1.1002
1.10667
1.03888
0.856541
0.736788
0.976055
0.0576198
0.0611422
0.0819597
0.102183
0.12049
0.137003
0.152289
0.166984
0.181616
0.196584
0.212166
0.228533
0.245766
0.263872
0.282802
0.302466
0.322736
0.343464
0.364482
0.385613
0.406669
0.42746
0.447796
0.467488
0.48636
0.504255
0.521045
0.536654
0.551081
0.564444
0.577078
0.589906
0.604876
0.622971
0.645673
0.674973
0.7134
0.763901
0.829251
0.909825
0.996642
1.05917
1.05916
0.992679
0.967426
1.56826
0.0684629
0.0704017
0.0870245
0.103177
0.118082
0.131837
0.144754
0.157215
0.169572
0.182105
0.195018
0.208439
0.222437
0.237025
0.252178
0.267836
0.283914
0.300309
0.316902
0.333567
0.350168
0.366569
0.382633
0.39823
0.413243
0.427578
0.441179
0.454046
0.466266
0.478054
0.489833
0.502398
0.517181
0.535408
0.558702
0.589099
0.629053
0.681317
0.748434
0.831083
0.923554
1.00668
1.05854
1.09872
1.24687
2.36109
0.082717
0.0819194
0.0949403
0.107861
0.120229
0.132104
0.143615
0.15494
0.166268
0.17776
0.189541
0.201691
0.214251
0.227229
0.240603
0.254326
0.268335
0.28255
0.296881
0.311227
0.325486
0.339552
0.35332
0.366695
0.379596
0.391968
0.4038
0.415138
0.426123
0.437023
0.448303
0.46072
0.475479
0.493862
0.517465
0.548222
0.588364
0.640267
0.706018
0.786343
0.878328
0.973297
1.06702
1.19613
1.50761
3.16809
0.0974665
0.0932872
0.103402
0.113676
0.124009
0.134438
0.144956
0.155585
0.166379
0.177394
0.188679
0.200267
0.212167
0.224371
0.236854
0.249573
0.262474
0.275492
0.288553
0.301577
0.31448
0.327179
0.339593
0.35165
0.363296
0.374506
0.385297
0.395752
0.406044
0.416479
0.427541
0.439969
0.45485
0.473462
0.497339
0.528301
0.568396
0.619745
0.68423
0.762928
0.855452
0.961089
1.08961
1.29294
1.7573
4.05324
0.111546
0.10361
0.111218
0.119414
0.12819
0.137536
0.147342
0.15752
0.168025
0.178834
0.189933
0.201309
0.212943
0.224808
0.236869
0.249084
0.261401
0.273763
0.286107
0.298368
0.310476
0.322365
0.33397
0.34524
0.356141
0.366671
0.376869
0.386844
0.396795
0.407049
0.418102
0.430677
0.445787
0.464685
0.488846
0.519998
0.560073
0.611095
0.675004
0.753527
0.848599
0.965454
1.12438
1.39211
2.00388
5.01636
0.125538
0.112988
0.118124
0.124655
0.132274
0.140835
0.15014
0.160027
0.170383
0.181127
0.192201
0.203552
0.215135
0.226906
0.238819
0.250825
0.262874
0.274914
0.286888
0.298739
0.310412
0.32185
0.333006
0.343842
0.354341
0.364519
0.374434
0.384213
0.394073
0.404354
0.415557
0.428387
0.443804
0.463029
0.487483
0.51883
0.558946
0.609866
0.673765
0.753178
0.852166
0.98061
1.16726
1.49491
2.26433
6.08959
0.141504
0.121967
0.12438
0.129453
0.136166
0.14414
0.153081
0.162772
0.173055
0.183808
0.194937
0.206362
0.218015
0.229834
0.241761
0.253744
0.265729
0.277664
0.289499
0.301183
0.312668
0.32391
0.334872
0.34553
0.35588
0.36595
0.375816
0.385616
0.395577
0.406047
0.417525
0.430699
0.446484
0.466058
0.490802
0.522332
0.562497
0.613399
0.677508
0.758169
0.861288
1.00049
1.21203
1.59869
2.56146
7.4533
0.158429
0.130908
0.13038
0.134062
0.139978
0.147454
0.156092
0.165627
0.175865
0.186654
0.197873
0.209417
0.2212
0.233145
0.245185
0.257259
0.269311
0.281288
0.293144
0.304832
0.316311
0.327545
0.338506
0.349181
0.359578
0.369736
0.379739
0.389735
0.399956
0.41075
0.422609
0.436201
0.452404
0.472335
0.497354
0.529024
0.569174
0.619967
0.684123
0.765623
0.871727
1.01868
1.24853
1.68608
2.87022
9.36489
0.0462729
0.0764282
0.0859794
0.084283
0.085121
0.376959
0.384887
0.417495
0.446305
0.471208
0.487358
0.49572
0.497076
0.49211
0.481524
0.466091
0.446673
0.424371
0.401574
0.381873
0.37382
0.381635
0.382287
0.376068
0.368428
0.086223
0.0858804
0.0862482
0.365835
0.0849295
0.0856338
0.085533
0.0862445
0.0861415
0.0848721
0.0807056
0.0730373
0.0614826
0.0465447
0.0275975
0.11034
0.102015
0.1342
0.164475
0.176772
0.190137
0.199974
0.205027
0.209253
0.21315
0.21492
0.214491
0.212013
0.207691
0.201771
0.194541
0.186333
0.17754
0.168633
0.160431
0.154171
0.146979
0.13996
0.132587
0.128726
0.116918
0.111561
0.102689
0.106131
0.0971988
0.0879551
0.0822422
0.0751025
0.0695565
0.0649657
0.0603421
0.0545233
0.0466655
0.036132
0.0216689
0.191243
0.133914
0.149371
0.1632
0.169775
0.17299
0.174913
0.175512
0.17584
0.175732
0.174462
0.171889
0.168067
0.163134
0.157279
0.150722
0.143709
0.136503
0.129341
0.122495
0.116332
0.110222
0.104732
0.0997951
0.0957156
0.0915537
0.087914
0.0843666
0.0817887
0.0787434
0.0755399
0.0723722
0.0684757
0.0643876
0.0602652
0.0560604
0.0512891
0.0455595
0.039578
0.0967242
0.289049
0.170084
0.169899
0.17579
0.178631
0.17904
0.17825
0.176844
0.175269
0.173143
0.170047
0.165875
0.160688
0.154628
0.147887
0.140685
0.133248
0.1258
0.118518
0.111555
0.10518
0.0993038
0.094088
0.0895218
0.0855859
0.0821363
0.0791088
0.0764562
0.0741751
0.0720153
0.0698969
0.0676863
0.0651386
0.0622293
0.0590137
0.055568
0.0517994
0.0478124
0.0450665
0.0226805
0.397451
0.212436
0.198174
0.198125
0.198089
0.196643
0.194264
0.191423
0.188375
0.184562
0.17971
0.173784
0.166891
0.159218
0.150995
0.142466
0.133872
0.125428
0.117295
0.109613
0.102636
0.0963709
0.0908575
0.0860775
0.0819848
0.0785072
0.0755568
0.0730665
0.0709611
0.0690968
0.0673516
0.0655884
0.06366
0.0614692
0.0589984
0.0563077
0.0534857
0.050976
0.0514236
0.0975644
0.525296
0.264135
0.235493
0.229751
0.226887
0.223724
0.219984
0.215843
0.211351
0.205753
0.198883
0.190801
0.181702
0.171851
0.161545
0.151079
0.140726
0.130713
0.121204
0.112357
0.104411
0.097367
0.0912141
0.0859144
0.0814097
0.0776271
0.0744786
0.0718782
0.0697341
0.0679203
0.0663084
0.0647693
0.0631818
0.0614515
0.0595429
0.0575088
0.0555377
0.0543262
0.0572031
0.0990482
0.68562
0.330805
0.284943
0.272659
0.266495
0.261354
0.256112
0.250606
0.244371
0.236592
0.227168
0.216282
0.204261
0.19149
0.178361
0.165249
0.152474
0.140292
0.12887
0.118418
0.109131
0.100973
0.093893
0.0878264
0.082695
0.078411
0.0748773
0.071994
0.0696578
0.067745
0.0661256
0.0646748
0.0632807
0.0618574
0.0603716
0.058884
0.057648
0.057538
0.062474
0.111229
0.901789
0.424741
0.354148
0.332806
0.322052
0.313997
0.306463
0.298951
0.290219
0.279357
0.266357
0.251579
0.235532
0.218761
0.20179
0.185091
0.169052
0.15396
0.139987
0.127427
0.116376
0.106745
0.0984402
0.0913575
0.085389
0.0804227
0.0763432
0.0730345
0.0703806
0.0682535
0.0665199
0.0650553
0.0637514
0.0625281
0.0613582
0.0603161
0.0597044
0.0605388
0.0672988
0.123925
1.2254
0.575064
0.463242
0.426135
0.407029
0.392981
0.380419
0.368678
0.35536
0.339314
0.320667
0.300011
0.278078
0.255601
0.233255
0.211619
0.191144
0.172144
0.154804
0.139503
0.126164
0.114633
0.104754
0.0963722
0.0893353
0.0834955
0.0787092
0.0748379
0.0717489
0.0693036
0.0673615
0.0657953
0.0644963
0.0633869
0.0624454
0.0617599
0.0616738
0.0633288
0.0717505
0.136109
1.86407
0.874849
0.670695
0.596921
0.55636
0.525863
0.499525
0.476704
0.453101
0.426895
0.398215
0.367831
0.336664
0.3056
0.275423
0.246777
0.22014
0.195798
0.174026
0.155119
0.138804
0.124825
0.112937
0.102911
0.0945316
0.0875994
0.081929
0.0773498
0.0737051
0.0708379
0.068596
0.0668451
0.065473
0.0644015
0.0636119
0.0632038
0.0635572
0.0659318
0.0758917
0.147779
0.17677
0.140157
0.136529
0.138804
0.143922
0.1509
0.159232
0.168605
0.178791
0.189613
0.200922
0.212595
0.22453
0.236638
0.248842
0.261076
0.273278
0.285397
0.297386
0.309202
0.32081
0.33218
0.343293
0.354143
0.364747
0.375154
0.385456
0.395802
0.406424
0.417665
0.430004
0.444086
0.46075
0.481054
0.506324
0.538069
0.578079
0.628523
0.692242
0.773539
0.880249
1.02929
1.26246
1.69806
2.74683
5.97918
0.196061
0.149901
0.143176
0.143995
0.148245
0.154662
0.16264
0.171812
0.181912
0.192734
0.204107
0.215892
0.22797
0.240244
0.252631
0.265058
0.27746
0.289784
0.301984
0.31402
0.325862
0.337484
0.348874
0.360032
0.370984
0.381784
0.392529
0.40337
0.41453
0.426339
0.439258
0.453907
0.47108
0.491776
0.517272
0.549012
0.588712
0.638469
0.701073
0.780758
0.885051
1.02935
1.24892
1.6328
2.42221
4.19262
0.215101
0.160097
0.150548
0.149881
0.153167
0.158936
0.166491
0.175401
0.18536
0.196129
0.207516
0.219365
0.231549
0.243964
0.25652
0.269141
0.28176
0.294323
0.306782
0.319102
0.331254
0.343218
0.354985
0.366563
0.377981
0.389301
0.400623
0.412092
0.423921
0.43642
0.450025
0.465322
0.483063
0.504182
0.529885
0.561546
0.600766
0.649495
0.710302
0.787027
0.886229
1.02047
1.21585
1.52992
2.09021
3.10311
0.232415
0.170762
0.158896
0.156722
0.158948
0.163987
0.171045
0.179625
0.18937
0.20001
0.211334
0.223174
0.235399
0.247898
0.260583
0.273372
0.286199
0.299006
0.311749
0.324392
0.336909
0.349283
0.361509
0.373599
0.385588
0.397543
0.409565
0.421793
0.434424
0.447741
0.462151
0.478199
0.496588
0.518196
0.544099
0.575632
0.614242
0.661664
0.72013
0.792891
0.885255
1.00668
1.17499
1.4243
1.81686
2.4131
0.246742
0.182204
0.168526
0.164808
0.165912
0.170163
0.176657
0.184822
0.194256
0.204661
0.215814
0.227543
0.239712
0.252215
0.26496
0.277866
0.290866
0.303901
0.316928
0.329913
0.34283
0.355666
0.368419
0.381103
0.393758
0.406455
0.419295
0.432413
0.445987
0.460271
0.475631
0.492567
0.511721
0.533895
0.560059
0.591459
0.629384
0.675318
0.731101
0.799326
0.884045
0.992009
1.13471
1.33128
1.60983
1.98362
0.258575
0.195352
0.179827
0.17449
0.174478
0.177913
0.183766
0.191398
0.200378
0.210396
0.221228
0.232704
0.244692
0.257086
0.269795
0.282741
0.295855
0.309081
0.322375
0.335704
0.349043
0.36238
0.375717
0.389073
0.402489
0.416039
0.429823
0.443971
0.458646
0.474074
0.490576
0.508591
0.528688
0.551579
0.578118
0.609427
0.646647
0.691012
0.743958
0.807448
0.884429
0.979525
1.09985
1.25564
1.45878
1.7098
0.273466
0.21233
0.193416
0.186285
0.185201
0.18778
0.19286
0.199775
0.208094
0.217519
0.227837
0.238886
0.250539
0.262691
0.275253
0.288147
0.301306
0.314676
0.328213
0.341884
0.355663
0.36954
0.383518
0.397625
0.411907
0.426432
0.441293
0.456618
0.472567
0.489343
0.507216
0.526549
0.547821
0.571636
0.598734
0.630026
0.666587
0.709401
0.759516
0.818355
0.887958
0.971402
1.07295
1.19788
1.3508
1.52955
0.307027
0.23783
0.21088
0.20134
0.198998
0.200509
0.204567
0.210492
0.21788
0.226466
0.236055
0.246495
0.257662
0.269449
0.281762
0.294521
0.307666
0.321146
0.334913
0.348932
0.363175
0.377634
0.392314
0.407254
0.422515
0.438151
0.454233
0.47089
0.488303
0.506662
0.526171
0.547093
0.569782
0.594679
0.622345
0.653619
0.689564
0.730956
0.778447
0.83298
0.895851
0.969078
1.05515
1.15671
1.2753
1.40865
0.387669
0.280314
0.235594
0.221672
0.217185
0.217083
0.219694
0.224243
0.230362
0.237832
0.246466
0.256118
0.266662
0.277977
0.289959
0.302526
0.315619
0.329193
0.343196
0.357584
0.37233
0.387427
0.402874
0.418736
0.43511
0.452017
0.469493
0.487683
0.50682
0.527079
0.548565
0.571409
0.595818
0.621989
0.65003
0.680942
0.715924
0.755762
0.800927
0.851816
0.908879
0.973385
1.04674
1.1303
1.22446
1.3274
0.535124
0.34583
0.269
0.248554
0.240568
0.238133
0.23874
0.241413
0.245837
0.251835
0.259221
0.26784
0.27755
0.288212
0.299708
0.31195
0.324881
0.338446
0.352593
0.36728
0.38249
0.398228
0.414523
0.43145
0.449129
0.467647
0.486999
0.507251
0.528641
0.551327
0.575294
0.600518
0.627143
0.655325
0.683783
0.713678
0.747185
0.784945
0.827464
0.87488
0.927144
0.984465
1.04738
1.11675
1.19263
1.27382
0.680329
0.36423
0.302683
0.275321
0.262859
0.258482
0.257321
0.258229
0.260932
0.265309
0.271224
0.278542
0.287128
0.296852
0.3076
0.319276
0.331802
0.345117
0.359178
0.373953
0.389432
0.40563
0.422602
0.440435
0.459248
0.479231
0.500452
0.52291
0.546644
0.571715
0.598063
0.625552
0.65419
0.68444
0.716522
0.750347
0.785761
0.821622
0.860522
0.904038
0.951643
1.00204
1.05614
1.1141
1.1757
1.24035
0.803851
0.398743
0.325198
0.292718
0.279982
0.275214
0.27332
0.273161
0.274548
0.277469
0.281913
0.287814
0.295076
0.303598
0.313278
0.32402
0.335733
0.348355
0.361843
0.37617
0.391328
0.407337
0.424235
0.442104
0.461096
0.481381
0.503085
0.526286
0.551068
0.577594
0.605996
0.63632
0.668478
0.702183
0.738533
0.777135
0.818083
0.860294
0.901506
0.943396
0.985734
1.0278
1.07371
1.12113
1.17065
1.22204
0.802011
0.388877
0.330797
0.305541
0.295124
0.29083
0.288718
0.28783
0.288131
0.289753
0.292806
0.297308
0.303213
0.310449
0.318927
0.328552
0.339232
0.350895
0.363492
0.376996
0.391404
0.40674
0.423053
0.44043
0.459032
0.479058
0.500665
0.523956
0.549087
0.576354
0.60609
0.638537
0.673751
0.711374
0.751263
0.792692
0.837043
0.884609
0.933456
0.983947
1.02892
1.06453
1.10353
1.13916
1.17735
1.21653
0.733172
0.3682
0.327607
0.311927
0.304744
0.301323
0.299387
0.298296
0.298086
0.298954
0.301077
0.304544
0.309364
0.315501
0.322886
0.331439
0.341072
0.351714
0.363314
0.375849
0.38932
0.403757
0.419222
0.435812
0.453688
0.473059
0.494113
0.517007
0.541968
0.569364
0.599619
0.633077
0.669866
0.709777
0.752416
0.797415
0.845183
0.894325
0.945378
0.999758
1.05381
1.10207
1.14416
1.16887
1.19767
1.22415
0.676056
0.357999
0.324431
0.313714
0.308733
0.306162
0.304667
0.303826
0.303664
0.304361
0.306103
0.309012
0.31314
0.318486
0.32501
0.332652
0.341342
0.351017
0.361634
0.373173
0.385645
0.399087
0.413567
0.429193
0.446124
0.464565
0.484727
0.506825
0.53114
0.558064
0.588041
0.621437
0.65843
0.698926
0.742685
0.78952
0.839362
0.891126
0.944546
0.999543
1.05461
1.10788
1.15687
1.19612
1.22691
1.24339
0.646818
0.359949
0.324021
0.313281
0.30863
0.306381
0.305304
0.304942
0.305209
0.306195
0.308035
0.310844
0.31469
0.319597
0.325552
0.332518
0.340446
0.349291
0.359022
0.369629
0.381129
0.393568
0.407022
0.421603
0.43747
0.454823
0.473889
0.494921
0.518232
0.544217
0.573305
0.605863
0.642101
0.682028
0.725514
0.772405
0.822498
0.8752
0.930014
0.986436
1.04311
1.09736
1.14803
1.19459
1.2329
1.26191
0.641512
0.369647
0.325872
0.311788
0.305846
0.30327
0.30241
0.302558
0.303439
0.304996
0.307276
0.310348
0.31427
0.319073
0.32476
0.331316
0.338713
0.346924
0.355933
0.365742
0.376378
0.387895
0.400374
0.413933
0.428729
0.444963
0.462871
0.482725
0.504853
0.529643
0.557502
0.588792
0.623753
0.662464
0.704864
0.750805
0.800042
0.852167
0.906838
0.963531
1.02102
1.0773
1.13129
1.18115
1.22415
1.26151
0.650853
0.382841
0.328689
0.309625
0.301428
0.298025
0.297135
0.2977
0.299211
0.301452
0.304357
0.307928
0.31219
0.317161
0.322851
0.329255
0.336362
0.344161
0.352651
0.361849
0.371788
0.382532
0.394169
0.406822
0.420651
0.435855
0.452677
0.471399
0.492352
0.515913
0.542476
0.572397
0.60594
0.643239
0.684285
0.728949
0.77699
0.828065
0.88184
0.937854
0.995119
1.05231
1.10839
1.16143
1.20946
1.25244
0.672787
0.397257
0.331506
0.30691
0.296078
0.291569
0.290438
0.291267
0.293323
0.29623
0.299811
0.303993
0.308752
0.314082
0.319984
0.326455
0.333493
0.341099
0.349285
0.358076
0.36752
0.377685
0.38867
0.400601
0.413643
0.428
0.443917
0.461681
0.481625
0.504118
0.529546
0.558268
0.590572
0.626634
0.6665
0.710079
0.757151
0.80739
0.860413
0.915765
0.972607
1.02988
1.08663
1.14135
1.19245
1.239
0.706089
0.411514
0.333757
0.303694
0.290222
0.284508
0.282987
0.28392
0.286381
0.289858
0.294073
0.298878
0.304197
0.309992
0.316244
0.322945
0.330093
0.337696
0.345773
0.35436
0.363512
0.373307
0.383851
0.395279
0.407762
0.421509
0.436769
0.453836
0.473046
0.494768
0.519388
0.547276
0.578748
0.614025
0.653207
0.696252
0.742975
0.793055
0.846057
0.901425
0.958403
1.01598
1.07312
1.12851
1.18079
1.22885
0.748654
0.424655
0.335127
0.30001
0.284089
0.277185
0.275183
0.276081
0.278796
0.282709
0.287459
0.29283
0.298698
0.304988
0.311659
0.318688
0.32607
0.333813
0.34194
0.350493
0.359536
0.369155
0.379464
0.390607
0.402764
0.416152
0.43103
0.447699
0.466504
0.487822
0.512052
0.539584
0.570768
0.605874
0.645061
0.688345
0.735582
0.78646
0.8405
0.897045
0.955228
1.01398
1.07214
1.12833
1.18119
1.22954
0.797605
0.436016
0.335464
0.295885
0.277799
0.269779
0.26725
0.268
0.270829
0.275035
0.280192
0.28603
0.292381
0.299137
0.306231
0.313625
0.321305
0.329274
0.337558
0.346203
0.355277
0.364876
0.375121
0.386169
0.398208
0.411469
0.426223
0.442786
0.461516
0.48281
0.507088
0.534772
0.566254
0.601862
0.641818
0.686205
0.734927
0.787691
0.843981
0.903042
0.963861
1.02517
1.08549
1.14335
1.19721
1.24574
0.849902
0.445231
0.334738
0.291361
0.271419
0.262389
0.259319
0.259837
0.262658
0.267019
0.272446
0.278628
0.285361
0.292508
0.299978
0.307717
0.3157
0.323925
0.332416
0.341221
0.350413
0.360095
0.370399
0.38149
0.393573
0.406891
0.421734
0.438437
0.457382
0.47899
0.503716
0.532022
0.564353
0.601102
0.642565
0.688895
0.740059
0.795789
0.855545
0.918481
0.983418
1.04885
1.11299
1.17384
1.22969
1.27902
0.902829
0.452196
0.333024
0.286512
0.265016
0.255089
0.251485
0.251712
0.254423
0.258815
0.264377
0.270771
0.277764
0.285195
0.292955
0.300974
0.309215
0.317672
0.326364
0.335342
0.344682
0.354493
0.364917
0.376133
0.388358
0.401855
0.416934
0.433956
0.453332
0.475518
0.501009
0.53032
0.563958
0.602386
0.645983
0.694984
0.749423
0.809072
0.873379
0.941414
1.01183
1.08288
1.15242
1.21806
1.27737
1.32853
0.954198
0.457006
0.330464
0.281435
0.258667
0.247959
0.243841
0.243738
0.246257
0.25057
0.256143
0.262617
0.269739
0.277331
0.285267
0.293467
0.301883
0.310503
0.319344
0.328456
0.33792
0.34785
0.358399
0.369758
0.38216
0.39589
0.411281
0.428722
0.448661
0.471593
0.498064
0.528646
0.563915
0.604415
0.650612
0.702827
0.761173
0.825471
0.895166
0.96926
1.04625
1.12413
1.20042
1.2723
1.33689
1.39148
1.00236
0.459864
0.327238
0.276245
0.252458
0.241081
0.236481
0.236023
0.238288
0.24243
0.247902
0.254331
0.261453
0.269075
0.277062
0.285324
0.293805
0.302489
0.31139
0.320559
0.330079
0.340072
0.350699
0.362165
0.374722
0.388674
0.404382
0.422267
0.442814
0.466565
0.494118
0.526108
0.563188
0.605984
0.655053
0.710809
0.773443
0.84283
0.918424
0.99917
1.08343
1.16895
1.25293
1.33215
1.40322
1.46297
1.04615
0.461009
0.32352
0.271052
0.246473
0.234534
0.22949
0.228667
0.230633
0.234531
0.239807
0.246081
0.25308
0.260606
0.268517
0.276713
0.285137
0.293767
0.302617
0.311737
0.321215
0.33118
0.341801
0.353297
0.365938
0.38005
0.396022
0.414309
0.435432
0.459984
0.488617
0.522033
0.560959
0.606107
0.658125
0.717516
0.784549
0.859153
0.940794
1.02837
1.12012
1.2136
1.3057
1.39286
1.47123
1.53715
1.08476
0.460672
0.319459
0.265945
0.240775
0.228378
0.222934
0.221752
0.223389
0.226987
0.231991
0.238016
0.244787
0.252102
0.259814
0.267821
0.276064
0.284516
0.293194
0.302148
0.31147
0.321294
0.331801
0.343223
0.355846
0.370019
0.386158
0.404749
0.426356
0.451616
0.481237
0.515987
0.556666
0.604069
0.658929
0.721833
0.793122
0.872769
0.960251
1.05443
1.15344
1.25468
1.35483
1.45002
1.53605
1.6088
1.11771
0.459051
0.315166
0.26098
0.235404
0.222648
0.216855
0.215327
0.216623
0.219885
0.224558
0.23026
0.236715
0.243719
0.251126
0.258833
0.266778
0.274936
0.283322
0.29199
0.301037
0.310603
0.320878
0.332106
0.344592
0.358703
0.374882
0.393647
0.415597
0.441415
0.471862
0.507767
0.549998
0.599429
0.656868
0.722977
0.798156
0.882414
0.975231
1.07543
1.18109
1.28949
1.39718
1.50009
1.59379
1.67379
1.14471
0.45631
0.310711
0.256184
0.230365
0.217346
0.21126
0.209412
0.210367
0.213272
0.217577
0.222902
0.228972
0.235588
0.242602
0.249913
0.257459
0.265217
0.273205
0.281478
0.290138
0.299331
0.309257
0.320172
0.332395
0.346313
0.362391
0.381176
0.4033
0.429486
0.460543
0.497355
0.540855
0.591982
0.651615
0.720476
0.799011
0.887252
0.984676
1.09008
1.2015
1.31619
1.43065
1.54079
1.64206
1.72974
1.16566
0.452576
0.306127
0.251547
0.225636
0.212447
0.206126
0.203992
0.20462
0.207164
0.21108
0.215992
0.221632
0.2278
0.234355
0.241195
0.248261
0.255534
0.263033
0.270817
0.278992
0.287712
0.297183
0.307672
0.319512
0.333106
0.348939
0.36758
0.389691
0.416029
0.447444
0.48487
0.529294
0.581714
0.643068
0.714127
0.795372
0.88685
0.988032
1.0977
1.2139
1.33391
1.45435
1.57126
1.68018
1.77633
1.18061
0.447952
0.301419
0.247037
0.221169
0.207899
0.201405
0.199026
0.19935
0.201542
0.205063
0.209546
0.214727
0.220411
0.226459
0.232776
0.239304
0.246027
0.252967
0.260189
0.267802
0.275964
0.28489
0.294856
0.306205
0.319354
0.334801
0.353134
0.375039
0.4013
0.432802
0.470519
0.515485
0.568751
0.631302
0.703954
0.787215
0.881144
0.985209
1.0982
1.21821
1.34268
1.46847
1.59199
1.70913
1.81517
1.18972
0.44253
0.296569
0.242599
0.216897
0.203632
0.197027
0.194449
0.194501
0.196359
0.199495
0.203547
0.208258
0.213439
0.218956
0.224717
0.23067
0.2368
0.243135
0.249743
0.256737
0.264277
0.272588
0.281952
0.292718
0.305313
0.320245
0.338115
0.359625
0.38558
0.416891
0.454566
0.499681
0.553329
0.616542
0.690175
0.774766
0.870388
0.976524
1.092
1.21503
1.34329
1.47412
1.60452
1.73108
1.84939
1.19326
0.436404
0.291548
0.238167
0.212742
0.199562
0.19291
0.190181
0.189998
0.191551
0.19432
0.197953
0.202198
0.206875
0.211853
0.217046
0.222406
0.227922
0.233626
0.239589
0.245925
0.252804
0.260451
0.269153
0.279264
0.291214
0.305518
0.322783
0.34372
0.369149
0.400002
0.43731
0.482186
0.535763
0.599118
0.67315
0.758436
0.855078
0.962595
1.07989
1.20535
1.33704
1.47292
1.61098
1.74874
1.88259
1.19162
0.429679
0.286312
0.233667
0.208618
0.195602
0.188964
0.186135
0.185759
0.18704
0.18947
0.192704
0.196501
0.200685
0.205133
0.209761
0.214529
0.219428
0.224494
0.2298
0.235466
0.241664
0.24862
0.256622
0.266025
0.277258
0.290838
0.307374
0.327579
0.352281
0.382423
0.419059
0.46333
0.516412
0.579429
0.653335
0.738763
0.83587
0.944241
1.0629
1.19046
1.32546
1.46671
1.61341
1.76465
1.91802
1.18529
0.422443
0.280809
0.229024
0.204446
0.191667
0.185103
0.182225
0.181699
0.182746
0.184869
0.187734
0.191109
0.194823
0.198761
0.202844
0.207036
0.211333
0.215772
0.220432
0.225433
0.230948
0.237204
0.244485
0.253144
0.263609
0.27639
0.292092
0.311428
0.335224
0.364432
0.400121
0.443459
0.495665
0.557921
0.631251
0.716365
0.813508
0.922364
1.0421
1.17161
1.30997
1.45697
1.61339
1.78035
1.95728
1.17431
0.414695
0.274904
0.224133
0.200136
0.187674
0.181248
0.178371
0.177738
0.178588
0.180441
0.182973
0.185957
0.189235
0.192694
0.196263
0.199908
0.203631
0.207472
0.211509
0.215865
0.220712
0.226274
0.232831
0.240731
0.250393
0.262321
0.27711
0.295464
0.318207
0.34629
0.380797
0.422921
0.473926
0.535063
0.607441
0.691877
0.788731
0.897818
1.01847
1.14988
1.29166
1.44469
1.61151
1.79581
1.99971
1.15793
0.405727
0.268432
0.218906
0.19561
0.183545
0.177315
0.174489
0.173795
0.174492
0.176115
0.178352
0.180986
0.183864
0.186883
0.189976
0.193114
0.196302
0.199582
0.203033
0.206777
0.210985
0.215876
0.221722
0.228863
0.237708
0.248749
0.26257
0.279861
0.301435
0.328244
0.361377
0.402055
0.451589
0.511306
0.582419
0.665873
0.762176
0.871299
0.992758
1.126
1.27117
1.43014
1.60734
1.8094
2.04202
1.13663
0.395571
0.261387
0.213318
0.190831
0.179231
0.17325
0.170519
0.169805
0.170389
0.171821
0.173804
0.176129
0.178652
0.181276
0.18394
0.186618
0.189319
0.192085
0.194997
0.198175
0.201784
0.206035
0.211197
0.217595
0.225625
0.235769
0.248592
0.264764
0.285088
0.31051
0.342123
0.381168
0.429009
0.48705
0.556622
0.63882
0.734324
0.843285
0.9654
1.10034
1.24863
1.41298
1.59957
1.81809
2.07861
1.1109
0.384338
0.253806
0.207377
0.185787
0.174707
0.169017
0.166419
0.165719
0.166226
0.167506
0.169275
0.171334
0.173547
0.175824
0.178108
0.180378
0.182644
0.184951
0.187377
0.190039
0.193098
0.196758
0.201277
0.206968
0.214212
0.223465
0.235274
0.250293
0.269314
0.293282
0.323263
0.360527
0.40649
0.46263
0.5304
0.611059
0.705485
0.814023
0.936549
1.07288
1.22377
1.39245
1.5864
1.81813
2.10244
1.08125
0.372163
0.24575
0.201108
0.180484
0.169966
0.164598
0.162162
0.161507
0.161967
0.16313
0.164722
0.166557
0.168506
0.170484
0.17244
0.174356
0.176244
0.178148
0.180144
0.182347
0.184909
0.188029
0.191952
0.196978
0.203471
0.211868
0.222695
0.236581
0.254287
0.276727
0.304982
0.340339
0.384284
0.438313
0.504008
0.582808
0.675815
0.783565
0.906112
1.04337
1.19609
1.36764
1.56612
1.80608
2.10669
1.04822
0.359205
0.237297
0.194556
0.174946
0.165017
0.159993
0.157739
0.15715
0.157591
0.158667
0.160118
0.161768
0.163496
0.165223
0.166903
0.168519
0.170086
0.171645
0.173271
0.175073
0.177197
0.179831
0.183208
0.187616
0.1934
0.200978
0.210851
0.223626
0.240037
0.260974
0.287504
0.320898
0.362627
0.414303
0.477614
0.554175
0.645371
0.751839
0.873847
1.01136
1.16498
1.33774
1.53758
1.77983
2.08672
1.01243
0.345639
0.228539
0.187777
0.169208
0.159883
0.155212
0.153153
0.152647
0.153089
0.154103
0.155443
0.156944
0.158493
0.160015
0.161469
0.162839
0.164141
0.165414
0.166729
0.16819
0.169935
0.172141
0.17503
0.178871
0.183993
0.190792
0.199746
0.211434
0.226564
0.245995
0.270774
0.302157
0.341616
0.390816
0.451532
0.525509
0.614252
0.718762
0.839461
0.976358
1.12981
1.30217
1.50038
1.73934
2.04172
0.974481
0.331657
0.21958
0.180841
0.16332
0.154597
0.150282
0.14842
0.148006
0.148464
0.149437
0.150693
0.152077
0.153483
0.154843
0.156117
0.157292
0.158383
0.159427
0.16049
0.161671
0.163097
0.164935
0.167392
0.170723
0.175235
0.181303
0.189377
0.20001
0.213874
0.231796
0.254789
0.284082
0.321136
0.367636
0.425421
0.496357
0.582126
0.683982
0.802569
0.937987
1.09038
1.2613
1.45612
1.68696
1.97496
0.935033
0.317455
0.210531
0.173823
0.157339
0.149206
0.145236
0.143569
0.143249
0.143731
0.144678
0.145871
0.147166
0.148462
0.149697
0.150834
0.151861
0.152791
0.153659
0.154528
0.155485
0.156652
0.158181
0.160267
0.163145
0.167104
0.172493
0.179735
0.18935
0.201973
0.218389
0.239566
0.266689
0.301189
0.344738
0.399208
0.466553
0.548623
0.646904
0.762289
0.89502
1.04506
1.21317
1.40294
1.62363
1.89299
0.894733
0.303236
0.201508
0.166806
0.15133
0.143762
0.140119
0.138636
0.138406
0.138915
0.139845
0.140992
0.142219
0.143433
0.144576
0.145613
0.146534
0.147349
0.148091
0.148816
0.149605
0.150569
0.151848
0.153621
0.156106
0.15957
0.164336
0.170799
0.179442
0.190857
0.205781
0.225126
0.250019
0.28183
0.322193
0.372969
0.436166
0.513763
0.607466
0.718434
0.847117
0.9934
1.15734
1.34075
1.5497
1.79753
0.854223
0.289195
0.192625
0.159874
0.145361
0.138323
0.134981
0.133663
0.133515
0.134048
0.134966
0.136077
0.137252
0.138406
0.139484
0.140453
0.141304
0.142044
0.142703
0.143332
0.144003
0.144816
0.145901
0.147418
0.149569
0.152596
0.156798
0.162539
0.170261
0.180513
0.193976
0.211494
0.234119
0.263144
0.300128
0.346883
0.405421
0.477806
0.565933
0.67124
0.79446
0.935557
1.09412
1.27042
1.46744
1.69362
0.814121
0.275519
0.183994
0.153111
0.139501
0.132949
0.129876
0.128702
0.128619
0.12917
0.130075
0.131155
0.13229
0.1334
0.134434
0.135361
0.136171
0.13687
0.137484
0.138056
0.138653
0.139364
0.140304
0.14162
0.143491
0.146141
0.149839
0.154917
0.161778
0.170921
0.182967
0.198687
0.219044
0.245233
0.278708
0.321195
0.374656
0.441184
0.522817
0.621261
0.737594
0.872047
1.02407
1.1929
1.37897
1.58607
0.775003
0.262382
0.175717
0.146597
0.133819
0.127702
0.12486
0.123802
0.123766
0.124323
0.12521
0.12626
0.127361
0.128438
0.129443
0.130347
0.131139
0.131824
0.132423
0.132974
0.133534
0.134184
0.135024
0.136186
0.137832
0.14016
0.143414
0.147891
0.153955
0.162054
0.172745
0.18672
0.204846
0.228203
0.258118
0.296191
0.344285
0.404458
0.478822
0.569308
0.677363
0.803641
0.947829
1.10878
1.28527
1.47742
0.737394
0.249935
0.167888
0.140406
0.128379
0.122641
0.119989
0.119017
0.119007
0.119555
0.120415
0.121431
0.122499
0.123549
0.124535
0.125429
0.12622
0.12691
0.127517
0.128073
0.128627
0.12925
0.130029
0.131081
0.132549
0.134608
0.137476
0.141416
0.146751
0.15388
0.163293
0.175602
0.191573
0.21216
0.238546
0.272177
0.314767
0.368271
0.434793
0.516406
0.614889
0.731396
0.866141
1.01823
1.18586
1.36699
0.701752
0.238313
0.16059
0.134605
0.123244
0.117824
0.115319
0.1144
0.114391
0.114913
0.115735
0.116711
0.117743
0.118766
0.119737
0.120628
0.121428
0.122137
0.122767
0.123348
0.12392
0.124542
0.125292
0.126271
0.127602
0.129442
0.131979
0.135445
0.140123
0.146362
0.154588
0.165333
0.17926
0.197195
0.220169
0.249447
0.286559
0.333296
0.391661
0.463757
0.551583
0.65675
0.780131
0.921533
1.07952
1.25151
0.668461
0.227623
0.153891
0.129252
0.118465
0.113304
0.110901
0.110001
0.109969
0.110445
0.111215
0.11214
0.113131
0.114124
0.115079
0.11597
0.116783
0.117517
0.118182
0.118799
0.119404
0.120046
0.120791
0.121726
0.122958
0.124621
0.126879
0.129932
0.134027
0.139461
0.146602
0.155904
0.16793
0.183381
0.20313
0.228257
0.260083
0.30018
0.350369
0.412655
0.489101
0.581613
0.691648
0.819852
0.965726
1.12738
0.637829
0.217952
0.147849
0.124396
0.114094
0.109128
0.106783
0.10587
0.105787
0.106198
0.1069
0.107764
0.108703
0.10966
0.110595
0.111482
0.112308
0.113069
0.113771
0.114431
0.115078
0.115753
0.116511
0.117425
0.118587
0.120111
0.122137
0.124836
0.128418
0.133136
0.139302
0.147295
0.157587
0.170758
0.187534
0.208808
0.23568
0.26948
0.31178
0.364376
0.429223
0.508302
0.60341
0.715869
0.846179
0.993666
0.61009
0.209364
0.142509
0.120082
0.11017
0.10534
0.103009
0.102049
0.101891
0.102216
0.102834
0.103623
0.1045
0.105412
0.106319
0.107197
0.108031
0.108816
0.109553
0.110257
0.110948
0.111662