/*--------------------------------*- C++ -*----------------------------------*\
  =========                 |
  \\      /  F ield         | OpenFOAM: The Open Source CFD Toolbox
   \\    /   O peration     | Website:  https://openfoam.org
    \\  /    A nd           | Version:  7
     \\/     M anipulation  |
\*---------------------------------------------------------------------------*/
FoamFile
{
    version     2.0;
    format      ascii;
    class       volScalarField;
    location    "0.4";
    object      p;
}
// * * * * * * * * * * * * * * * * * * * * * * * * * * * * * * * * * * * * * //

dimensions      [1 -1 -2 0 0 0 0];

internalField   nonuniform List<scalar> 
7700
(
888.63
887.603
889.894
894.749
900.861
907.094
912.873
918.036
922.568
926.537
930.04
933.172
936.021
938.666
941.178
943.62
946.05
948.521
951.089
953.811
956.749
959.974
963.568
967.626
972.264
977.622
983.871
991.218
999.926
1010.33
1022.87
1038.09
1056.35
1077.97
1103.28
1132.44
1165.14
1200.29
1235.9
1269.22
1297.39
1318.35
1327.67
1332.83
1352.27
1377.28
840.521
838.721
840.292
844.524
849.823
855.349
860.624
865.445
869.754
873.572
876.961
879.995
882.751
885.303
887.721
890.071
892.415
894.811
897.32
900.005
902.936
906.189
909.854
914.036
918.859
924.476
931.066
938.852
948.101
959.137
972.32
988.13
1007.2
1029.92
1056.68
1087.73
1122.81
1160.88
1199.78
1236.15
1266.08
1286.39
1289.89
1281.63
1285.34
1319.21
791.602
790.613
792.248
795.437
799.563
804.032
808.435
812.556
816.304
819.66
822.656
825.343
827.783
830.045
832.194
834.3
836.425
838.635
840.993
843.571
846.443
849.695
853.425
857.747
862.797
868.737
875.759
884.095
894.023
905.869
920.001
936.868
957.022
980.934
1008.96
1041.23
1077.49
1116.72
1156.84
1194.53
1225.48
1245.92
1250.61
1242.18
1236.54
1275.49
742.641
742.857
744.519
747.081
750.323
753.865
757.395
760.734
763.792
766.542
768.999
771.199
773.196
775.048
776.821
778.583
780.399
782.336
784.464
786.857
789.596
792.774
796.495
800.881
806.074
812.243
819.587
828.341
838.784
851.237
866.056
883.635
904.449
928.953
957.443
989.975
1026.19
1065.1
1104.79
1142.35
1174
1196.27
1206.34
1205.94
1210.53
1249.69
693.667
694.928
696.683
698.848
701.451
704.248
707.019
709.635
712.025
714.167
716.07
717.765
719.296
720.717
722.088
723.478
724.954
726.584
728.44
730.6
733.151
736.187
739.82
744.175
749.397
755.657
763.155
772.126
782.839
795.603
810.751
828.638
849.661
874.21
902.519
934.574
969.995
1007.86
1046.56
1083.72
1116.35
1141.58
1157.63
1167.91
1188.72
1239.23
644.398
646.465
648.413
650.336
652.447
654.622
656.726
658.683
660.45
662.012
663.38
664.583
665.66
666.658
667.636
668.657
669.79
671.106
672.676
674.582
676.912
679.765
683.252
687.5
692.657
698.891
706.399
715.408
726.177
738.993
754.167
772.014
792.868
817.049
844.734
875.864
910.062
946.527
983.94
1020.46
1053.83
1081.86
1103.63
1124.67
1165.03
1231.56
594.828
597.485
599.667
601.419
603.113
604.739
606.24
607.588
608.767
609.775
610.627
611.351
611.985
612.572
613.166
613.828
614.625
615.627
616.909
618.551
620.642
623.282
626.582
630.668
635.685
641.798
649.197
658.097
668.741
681.397
696.347
713.87
734.244
757.729
784.462
814.347
847.022
881.787
917.564
952.919
986.185
1015.86
1041.96
1071.92
1130.48
1213.8
545.015
548.137
550.518
552.098
553.398
554.513
555.45
556.223
556.842
557.313
557.66
557.914
558.11
558.291
558.506
558.814
559.279
559.97
560.961
562.332
564.171
566.576
569.656
573.536
578.353
584.267
591.458
600.127
610.498
622.816
637.336
654.304
673.949
696.485
722.016
750.419
781.334
814.122
847.848
881.321
913.231
942.531
969.882
1003.97
1075.69
1170.59
494.877
498.499
501.029
502.409
503.315
503.934
504.326
504.542
504.612
504.556
504.401
504.183
503.939
503.711
503.545
503.497
503.629
504.007
504.702
505.793
507.366
509.517
512.35
515.985
520.553
526.204
533.106
541.444
551.421
563.256
577.179
593.41
612.137
633.537
657.689
684.446
713.428
744
775.255
806.047
835.097
861.293
885.005
914.49
989.104
1074.13
444.639
448.652
451.255
452.403
452.907
453.031
452.882
452.543
452.064
451.475
450.81
450.11
449.415
448.765
448.208
447.795
447.586
447.643
448.033
448.834
450.127
452.004
454.566
457.925
462.203
467.539
474.089
482.018
491.504
502.741
515.934
531.283
548.951
569.086
591.748
616.768
643.723
671.922
700.376
727.779
752.515
772.7
786.975
799.546
851.356
871.847
7.17964
7.17563
7.17118
7.16705
7.16259
7.15665
7.1518
7.14855
7.14544
7.14278
7.14029
7.13762
7.13446
7.13057
7.12573
7.11982
7.11273
7.10445
7.09499
7.08444
7.07293
7.06066
7.04784
7.03515
7.02226
7.00916
6.99645
6.9846
6.97391
6.96327
6.95326
6.9446
6.93674
6.92977
6.92379
6.91884
6.915
6.91233
6.91076
6.91018
7.13361
7.13028
7.12781
7.1236
7.1175
7.11168
7.1063
7.10131
7.09738
7.09408
7.091
7.08782
7.08426
7.08008
7.07508
7.06912
7.06208
7.05395
7.04472
7.03448
7.02337
7.01155
6.99935
6.98655
6.97374
6.96137
6.94943
6.93779
6.92647
6.91631
6.90697
6.89811
6.89026
6.88327
6.8772
6.87211
6.86809
6.86521
6.86348
6.86296
7.08876
7.08433
7.08155
7.07752
7.07147
7.06505
7.05918
7.05375
7.04917
7.04518
7.04145
7.0377
7.03368
7.02915
7.02393
7.01787
7.01086
7.00287
6.99389
6.98398
6.97324
6.96183
6.94994
6.93767
6.92526
6.91314
6.90138
6.88999
6.87905
6.86897
6.85958
6.85083
6.84291
6.83582
6.82961
6.82437
6.82021
6.81723
6.81546
6.81518
7.04476
7.03822
7.03391
7.02945
7.02356
7.01721
7.01121
7.00569
7.00084
6.99649
6.99239
6.98828
6.98395
6.97916
6.97376
6.9676
6.96059
6.95268
6.94384
6.93413
6.92363
6.91247
6.90082
6.88884
6.87673
6.86479
6.85316
6.84192
6.83118
6.8211
6.81166
6.80287
6.7948
6.78752
6.78111
6.77572
6.77145
6.76844
6.76676
6.76661
7.00035
6.9915
6.98514
6.98009
6.97436
6.96836
6.96261
6.9573
6.95251
6.94812
6.94394
6.93973
6.93527
6.93038
6.92488
6.91864
6.91159
6.90368
6.89489
6.88525
6.87486
6.86383
6.8523
6.84043
6.82844
6.81655
6.80492
6.79366
6.78289
6.77271
6.76314
6.75419
6.74592
6.73842
6.73181
6.72625
6.72192
6.71893
6.71741
6.71738
6.95432
6.94329
6.93496
6.9296
6.92422
6.9188
6.91359
6.90871
6.90421
6.90002
6.89596
6.89184
6.88743
6.88254
6.87702
6.87074
6.86364
6.85569
6.84686
6.83721
6.82682
6.8158
6.80428
6.79242
6.78041
6.76843
6.75666
6.74522
6.73425
6.72384
6.71403
6.70483
6.6963
6.68854
6.68171
6.67601
6.67162
6.6687
6.66737
6.66752
6.90497
6.89265
6.88296
6.87798
6.87334
6.86876
6.86431
6.86002
6.85599
6.85214
6.84835
6.84444
6.8402
6.83543
6.82997
6.82372
6.81659
6.80858
6.79968
6.78993
6.77943
6.76831
6.75668
6.74471
6.73257
6.72041
6.70839
6.69665
6.68533
6.67454
6.66435
6.6548
6.64594
6.63788
6.63081
6.62497
6.62055
6.61771
6.61657
6.61685
6.84935
6.83856
6.82882
6.82534
6.82194
6.81848
6.81494
6.81136
6.80788
6.80447
6.80104
6.79745
6.79348
6.78893
6.78363
6.77746
6.77036
6.76232
6.75332
6.74341
6.73269
6.72133
6.70945
6.69724
6.68485
6.67242
6.66008
6.64795
6.63617
6.62487
6.61415
6.6041
6.59481
6.5864
6.57909
6.5731
6.56864
6.56588
6.5649
6.56531
6.78004
6.77975
6.77295
6.77218
6.77044
6.7683
6.76574
6.76288
6.75995
6.757
6.754
6.7508
6.74719
6.74294
6.73789
6.73189
6.72488
6.71685
6.70775
6.69763
6.68663
6.6749
6.66262
6.65
6.63723
6.62443
6.61169
6.5991
6.58677
6.57483
6.56342
6.55272
6.54287
6.53405
6.52646
6.52033
6.51584
6.51313
6.51229
6.51283
6.68285
6.71364
6.71767
6.71984
6.71958
6.71878
6.71711
6.71477
6.71231
6.70979
6.70721
6.70445
6.70126
6.6974
6.69268
6.68693
6.68008
6.6721
6.66293
6.6526
6.64126
6.62908
6.61628
6.6031
6.58976
6.57642
6.56316
6.55001
6.53704
6.52436
6.51214
6.50062
6.49008
6.48076
6.47288
6.46662
6.46209
6.45941
6.45868
6.45935
393.78
398.163
400.787
401.68
401.772
401.394
400.694
399.783
398.732
397.587
396.39
395.185
394.015
392.922
391.954
391.159
390.593
390.313
390.384
390.879
391.875
393.459
395.727
398.781
402.734
407.714
413.861
421.319
430.236
440.775
453.121
467.462
483.955
502.729
523.835
547.086
571.997
597.779
623.281
646.905
666.432
678.698
679.369
663.137
632.429
437.389
342.103
346.815
349.408
350.033
349.713
348.822
347.547
346.034
344.377
342.639
340.872
339.127
337.449
335.884
334.477
333.277
332.333
331.697
331.43
331.599
332.279
333.552
335.504
338.229
341.828
346.417
352.123
359.063
367.348
377.104
388.495
401.71
416.923
434.267
453.801
475.326
498.294
521.796
544.505
564.55
579.246
584.624
574.583
538.381
461.926
311.345
289.868
294.844
297.351
297.709
296.983
295.571
293.698
291.548
289.246
286.874
284.498
282.176
279.956
277.887
276.016
274.388
273.045
272.034
271.41
271.237
271.584
272.527
274.147
276.523
279.743
283.916
289.156
295.552
303.163
312.064
322.398
334.372
348.205
364.074
382.072
402.01
423.28
444.861
465.278
482.52
493.796
495.203
481.287
444.239
375.991
293.613
237.147
242.267
244.64
244.756
243.649
241.709
239.208
236.382
233.391
230.341
227.314
224.372
221.569
218.958
216.589
214.505
212.739
211.328
210.322
209.783
209.776
210.37
211.641
213.655
216.479
220.221
224.994
230.854
237.782
245.774
254.954
265.569
277.917
292.275
308.81
327.354
347.271
367.443
386.271
401.729
411.17
411.196
397.634
365.872
311.7
248.13
184.101
189.025
191.227
191.17
189.709
187.208
184.008
180.421
176.652
172.829
169.055
165.394
161.904
158.653
155.696
153.077
150.815
148.931
147.476
146.514
146.106
146.318
147.229
148.881
151.31
154.644
159.023
164.469
170.819
177.926
185.892
195.045
205.834
218.726
234.025
251.527
270.568
289.94
307.941
322.634
331.62
332.061
320.715
294.459
250.598
195.338
130.645
134.952
136.872
136.571
134.667
131.475
127.424
122.927
118.237
113.497
108.832
104.306
99.9832
95.9555
92.296
89.0499
86.2105
83.7758
81.7971
80.3542
79.5066
79.3164
79.8756
81.1792
83.1964
86.1317
90.2228
95.454
101.39
107.605
114.166
121.556
130.513
141.935
156.514
173.842
193.034
212.613
230.657
245.516
255.164
257.36
249.546
229.515
195.929
152.694
76.9528
80.4791
81.5131
80.667
78.2241
74.3744
69.6179
64.4938
59.2819
54.0971
49.0793
44.2665
39.7132
35.5334
31.8003
28.5451
25.713
23.2633
21.2454
19.7417
18.784
18.412
18.7141
19.6067
20.9552
23.0526
26.2804
30.6387
35.4002
39.784
43.7712
47.9297
53.2381
61.3382
74.1696
91.9073
112.786
134.555
154.257
170.49
181.748
186.681
183.332
170.171
146.678
115.557
28.6186
30.0717
29.8813
28.8558
26.8071
23.6477
19.9622
16.3409
12.9653
9.82299
6.98058
4.41035
2.11559
0.145522
-1.49233
-2.81802
-3.89155
-4.75321
-5.38952
-5.78855
-5.98028
-5.98396
-5.7942
-5.49571
-5.18668
-4.79548
-4.10032
-2.99077
-1.81033
-1.17369
-1.28715
-2.07156
-3.303
-3.72139
0.179428
11.1543
29.6086
53.4172
76.5609
96.309
110.681
119.437
121.157
114.928
100.601
79.922
4.08218
2.29386
2.71586
2.7818
2.42742
1.61107
0.648876
-0.184963
-0.853719
-1.39428
-1.81189
-2.13164
-2.36409
-2.51827
-2.60792
-2.65313
-2.66238
-2.63885
-2.58763
-2.52309
-2.457
-2.39501
-2.36581
-2.37601
-2.39324
-2.47274
-2.63072
-2.84316
-3.06738
-3.40661
-4.01737
-5.12858
-7.16292
-10.9015
-17.6252
-27.54
-30.9895
-21.0056
-2.59628
19.8483
38.8543
53.5725
61.6582
62.6537
56.7428
45.2092
-1.82597
-1.44276
-1.50849
-1.6235
-1.60465
-1.59096
-1.58483
-1.58099
-1.57999
-1.58252
-1.5879
-1.59584
-1.60579
-1.61619
-1.62605
-1.63558
-1.64567
-1.65658
-1.66713
-1.67717
-1.68773
-1.69886
-1.71313
-1.73476
-1.76147
-1.79436
-1.83405
-1.88053
-1.93899
-2.01296
-2.0991
-2.1966
-2.30221
-2.43492
-3.15681
-8.31823
-20.6616
-38.3166
-53.1845
-48.6724
-34.3167
-14.6713
1.38897
11.1546
14.1196
11.2835
-1.6764
-1.62747
-1.61428
-1.60614
-1.58291
-1.56227
-1.54674
-1.53464
-1.52554
-1.51938
-1.51613
-1.51577
-1.51804
-1.52253
-1.5291
-1.53784
-1.54905
-1.56304
-1.57976
-1.5989
-1.62031
-1.64361
-1.66793
-1.69451
-1.72483
-1.75606
-1.78831
-1.82657
-1.87398
-1.92769
-1.98312
-2.03628
-2.0794
-2.10688
-2.21922
-2.53834
-3.20279
-7.51223
-25.245
-50.2187
-72.5017
-72.1858
-58.8124
-42.5701
-29.9321
-23.2463
-1.72784
-1.70308
-1.6831
-1.67028
-1.65557
-1.64048
-1.62784
-1.61815
-1.6114
-1.60757
-1.60662
-1.60838
-1.61265
-1.61919
-1.62786
-1.63867
-1.65173
-1.66707
-1.68466
-1.70439
-1.72621
-1.75009
-1.77584
-1.80403
-1.83557
-1.86959
-1.90581
-1.94623
-1.99278
-2.04434
-2.09831
-2.1513
-2.19822
-2.22786
-2.24393
-2.27434
-2.40183
-2.78699
-3.66029
-9.09961
-28.1948
-56.1266
-78.4899
-82.6092
-72.4709
-59.7597
-1.76939
-1.75771
-1.74468
-1.73291
-1.72123
-1.70949
-1.69939
-1.69173
-1.6868
-1.68469
-1.68534
-1.68859
-1.69422
-1.70202
-1.71188
-1.72376
-1.73772
-1.75379
-1.77194
-1.79215
-1.81448
-1.83902
-1.86597
-1.89571
-1.9287
-1.96485
-2.00413
-2.04726
-2.09509
-2.14717
-2.20192
-2.2574
-2.31064
-2.35786
-2.39902
-2.43624
-2.47167
-2.48881
-2.655
-3.21706
-4.12869
-10.3644
-26.7931
-53.3058
-73.805
-80.942
-1.82459
-1.81572
-1.80487
-1.7935
-1.78264
-1.7724
-1.76376
-1.75737
-1.75354
-1.75238
-1.75388
-1.75792
-1.76431
-1.77287
-1.78349
-1.79615
-1.8109
-1.82779
-1.84683
-1.86805
-1.89155
-1.91745
-1.94597
-1.97741
-2.01208
-2.05003
-2.09132
-2.1363
-2.18523
-2.23771
-2.29271
-2.349
-2.40534
-2.46061
-2.51729
-2.57682
-2.63606
-2.68078
-2.7276
-2.80083
-2.96178
-3.41922
-4.40872
-9.67725
-22.0011
-43.3472
-1.88656
-1.87743
-1.86658
-1.85536
-1.84517
-1.83614
-1.82879
-1.82362
-1.82087
-1.82067
-1.82302
-1.82784
-1.83498
-1.84432
-1.85575
-1.86928
-1.88493
-1.90275
-1.92281
-1.94517
-1.96994
-1.99728
-2.02738
-2.06051
-2.0969
-2.13663
-2.17976
-2.22641
-2.27656
-2.32979
-2.38538
-2.4426
-2.5008
-2.55994
-2.62154
-2.68749
-2.75833
-2.83189
-2.90789
-2.98089
-3.04022
-3.10502
-3.28276
-3.66162
-4.66319
-8.25333
-1.95097
-1.94114
-1.93006
-1.91919
-1.90984
-1.902
-1.89596
-1.89202
-1.89042
-1.89126
-1.89455
-1.90023
-1.90821
-1.91838
-1.93069
-1.94514
-1.96175
-1.98058
-2.00172
-2.02526
-2.05134
-2.08011
-2.11177
-2.14654
-2.18461
-2.22606
-2.27091
-2.31916
-2.37067
-2.42503
-2.48167
-2.5401
-2.60001
-2.66147
-2.72554
-2.79356
-2.8668
-2.94601
-3.0338
-3.12932
-3.21812
-3.29424
-3.36984
-3.42857
-3.62112
-3.95551
-2.01727
-2.0065
-1.99541
-1.98517
-1.97676
-1.97011
-1.9653
-1.96258
-1.9621
-1.96396
-1.96819
-1.97474
-1.98355
-1.99455
-2.00773
-2.02308
-2.04065
-2.06049
-2.08272
-2.10745
-2.13483
-2.16502
-2.19821
-2.23459
-2.2743
-2.3174
-2.36387
-2.41363
-2.46651
-2.52214
-2.58004
-2.63982
-2.70128
-2.76459
-2.83044
-2.89983
-2.97376
-3.05332
-3.14046
-3.23547
-3.33427
-3.43585
-3.53724
-3.61665
-3.70695
-3.78506
-2.08488
-2.0736
-2.06286
-2.05346
-2.04605
-2.04052
-2.03688
-2.03528
-2.03585
-2.03869
-2.0438
-2.05117
-2.06076
-2.07256
-2.08656
-2.10277
-2.12124
-2.14207
-2.16536
-2.19125
-2.2199
-2.25147
-2.28615
-2.32409
-2.36541
-2.4101
-2.45811
-2.5093
-2.56349
-2.62035
-2.67947
-2.74051
-2.80333
-2.86807
-2.93526
-3.00564
-3.08003
-3.15929
-3.24449
-3.33605
-3.43258
-3.53504
-3.64266
-3.74863
-3.85932
-3.95056
-2.15371
-2.14252
-2.13253
-2.12412
-2.1177
-2.11321
-2.11062
-2.11004
-2.11157
-2.11529
-2.1212
-2.12933
-2.13966
-2.1522
-2.16695
-2.18396
-2.2033
-2.22506
-2.24937
-2.27638
-2.30624
-2.33914
-2.37523
-2.41466
-2.4575
-2.50374
-2.55322
-2.60578
-2.6612
-2.71917
-2.77934
-2.84142
-2.90529
-2.97106
-3.03914
-3.11012
-3.1847
-3.26356
-3.34738
-3.43641
-3.53018
-3.62894
-3.73256
-3.83989
-3.95339
-4.06475
-2.22383
-2.21333
-2.20441
-2.19707
-2.1916
-2.18804
-2.18639
-2.18672
-2.18909
-2.19359
-2.20023
-2.20905
-2.22005
-2.23326
-2.24871
-2.26646
-2.2866
-2.30923
-2.3345
-2.36256
-2.39358
-2.42771
-2.46512
-2.50592
-2.55018
-2.59783
-2.6487
-2.70255
-2.75911
-2.81807
-2.87911
-2.94198
-3.00657
-3.07298
-3.14155
-3.21276
-3.28722
-3.36549
-3.44811
-3.5353
-3.62688
-3.72279
-3.82275
-3.92647
-4.0349
-4.14638
-2.29536
-2.28601
-2.27834
-2.27208
-2.26753
-2.26483
-2.264
-2.26511
-2.26824
-2.27342
-2.28072
-2.29015
-2.30177
-2.31559
-2.33167
-2.3501
-2.37096
-2.39439
-2.42054
-2.44957
-2.48165
-2.51693
-2.55554
-2.59758
-2.64308
-2.69197
-2.74405
-2.79903
-2.8566
-2.91642
-2.97817
-3.04161
-3.10664
-3.17335
-3.24205
-3.31317
-3.38723
-3.46473
-3.54613
-3.63169
-3.72137
-3.81506
-3.91241
-4.01315
-4.11762
-4.22539
-2.36833
-2.36045
-2.35405
-2.34884
-2.34516
-2.34324
-2.34315
-2.34496
-2.34875
-2.35455
-2.36243
-2.37243
-2.3846
-2.39898
-2.41563
-2.43466
-2.45617
-2.48031
-2.50725
-2.53715
-2.57019
-2.60651
-2.6462
-2.68933
-2.7359
-2.78583
-2.83889
-2.89479
-2.95316
-3.01365
-3.07593
-3.13974
-3.20498
-3.27173
-3.34029
-3.41105
-3.4845
-3.56108
-3.64123
-3.72523
-3.81315
-3.9049
-4.00017
-4.09865
-4.20036
-4.30519
-2.44266
-2.4364
-2.43115
-2.42692
-2.42406
-2.42286
-2.42344
-2.42588
-2.43026
-2.43663
-2.44504
-2.45555
-2.46821
-2.48309
-2.50026
-2.51982
-2.54191
-2.56667
-2.59429
-2.62496
-2.65884
-2.69606
-2.7367
-2.78078
-2.82827
-2.87906
-2.93289
-2.98946
-3.0484
-3.10934
-3.17193
-3.23591
-3.30116
-3.36775
-3.43595
-3.50616
-3.57882
-3.6544
-3.73329
-3.81582
-3.90213
-3.9922
-4.08579
-4.18254
-4.28226
-4.38481
-2.51815
-2.51348
-2.50923
-2.50586
-2.50376
-2.50323
-2.50443
-2.50745
-2.51238
-2.51926
-2.52816
-2.53913
-2.55223
-2.56755
-2.58517
-2.60521
-2.6278
-2.6531
-2.6813
-2.7126
-2.74717
-2.78515
-2.82658
-2.87148
-2.91974
-2.97122
-3.02566
-3.08272
-3.14202
-3.20318
-3.26586
-3.32981
-3.39488
-3.46115
-3.52884
-3.59835
-3.67013
-3.74466
-3.82235
-3.90356
-3.9885
-4.0772
-4.16949
-4.26502
-4.36341
-4.46424
-2.59449
-2.59127
-2.58784
-2.58526
-2.58386
-2.58395
-2.58573
-2.5893
-2.59473
-2.60209
-2.61142
-2.62281
-2.63631
-2.65202
-2.67003
-2.69047
-2.71348
-2.73924
-2.76792
-2.79973
-2.83485
-2.8734
-2.91545
-2.96097
-3.00985
-3.06188
-3.11678
-3.17417
-3.23368
-3.29492
-3.35754
-3.42129
-3.48605
-3.55185
-3.61892
-3.68765
-3.75851
-3.832
-3.9086
-3.98869
-4.07256
-4.16028
-4.25172
-4.34651
-4.44409
-4.54378
-2.67131
-2.66935
-2.66661
-2.66473
-2.66398
-2.66467
-2.66701
-2.6711
-2.67701
-2.68481
-2.69455
-2.7063
-2.72015
-2.73619
-2.75453
-2.7753
-2.79867
-2.82478
-2.85384
-2.88604
-2.92155
-2.96052
-3.00299
-3.04894
-3.09824
-3.15066
-3.20587
-3.2635
-3.32313
-3.38435
-3.44682
-3.5103
-3.57467
-3.63994
-3.70634
-3.77425
-3.84419
-3.91671
-3.99236
-4.07158
-4.15472
-4.24189
-4.33294
-4.42746
-4.52472
-4.62378
-2.74823
-2.7473
-2.74516
-2.74394
-2.74382
-2.7451
-2.74799
-2.75258
-2.75895
-2.76715
-2.77726
-2.78934
-2.80349
-2.8198
-2.83841
-2.85944
-2.88307
-2.90946
-2.9388
-2.97127
-3.00705
-3.04626
-3.08898
-3.13517
-3.18471
-3.23735
-3.29275
-3.3505
-3.41018
-3.47135
-3.53366
-3.59685
-3.6608
-3.72554
-3.79128
-3.85842
-3.9275
-3.99917
-4.07404
-4.15266
-4.23541
-4.32244
-4.41358
-4.50831
-4.60574
-4.70471
-2.82487
-2.82478
-2.8232
-2.82262
-2.82312
-2.82499
-2.82841
-2.83349
-2.84028
-2.84887
-2.85931
-2.87168
-2.88608
-2.90261
-2.92142
-2.94264
-2.96645
-2.99301
-3.02252
-3.05516
-3.09108
-3.13042
-3.17325
-3.21954
-3.26916
-3.32187
-3.37734
-3.43514
-3.49483
-3.55594
-3.6181
-3.68104
-3.74461
-3.80886
-3.87399
-3.94042
-4.00876
-4.07972
-4.15404
-4.23234
-4.31507
-4.40239
-4.49408
-4.58953
-4.68763
-4.78711
-2.90093
-2.90153
-2.9005
-2.90055
-2.90166
-2.9041
-2.90805
-2.91359
-2.92079
-2.92972
-2.94046
-2.95308
-2.96769
-2.98441
-3.00336
-3.0247
-3.0486
-3.07525
-3.10482
-3.1375
-3.17346
-3.21282
-3.25565
-3.30192
-3.35152
-3.40421
-3.45968
-3.51749
-3.57717
-3.63826
-3.70033
-3.76308
-3.82634
-3.89015
-3.95472
-4.02052
-4.08823
-4.15865
-4.23265
-4.31096
-4.39408
-4.48217
-4.57495
-4.67163
-4.77096
-4.87149
-2.9762
-2.97737
-2.9769
-2.97756
-2.97928
-2.98229
-2.98674
-2.99272
-3.0003
-3.00955
-3.02055
-3.0334
-3.04819
-3.06504
-3.08409
-3.10549
-3.1294
-3.15602
-3.18553
-3.21814
-3.25402
-3.29329
-3.33603
-3.38222
-3.43173
-3.48436
-3.53979
-3.59761
-3.65735
-3.71849
-3.78058
-3.84325
-3.9063
-3.96973
-4.03379
-4.09901
-4.16616
-4.23619
-4.3101
-4.38877
-4.47275
-4.56218
-4.65668
-4.75527
-4.85636
-4.95834
-3.05052
-3.05216
-3.05227
-3.05354
-3.05585
-3.05941
-3.06435
-3.07075
-3.07869
-3.08823
-3.09948
-3.11251
-3.12745
-3.1444
-3.1635
-3.1849
-3.20876
-3.23526
-3.2646
-3.297
-3.33265
-3.37173
-3.41431
-3.46035
-3.50973
-3.56228
-3.6177
-3.67558
-3.73546
-3.79679
-3.85904
-3.92179
-3.98476
-4.04793
-4.11155
-4.17622
-4.24284
-4.31256
-4.38658
-4.46593
-4.55127
-4.64269
-4.73972
-4.84107
-4.94456
-5.04783
-3.12382
-3.12584
-3.12655
-3.12841
-3.1313
-3.13539
-3.14079
-3.1476
-3.15586
-3.16569
-3.17715
-3.19035
-3.20541
-3.22242
-3.24153
-3.26288
-3.28662
-3.31293
-3.342
-3.37405
-3.40937
-3.4482
-3.49056
-3.53638
-3.58559
-3.63802
-3.69343
-3.75142
-3.81151
-3.87313
-3.93569
-3.99868
-4.06173
-4.12477
-4.18806
-4.25227
-4.31846
-4.38799
-4.46229
-4.54262
-4.62972
-4.72369
-4.8239
-4.92875
-5.03507
-5.14066
-3.19602
-3.19832
-3.19965
-3.20209
-3.20554
-3.21014
-3.216
-3.22318
-3.23177
-3.24185
-3.25351
-3.26686
-3.28201
-3.29906
-3.31815
-3.33942
-3.36301
-3.3891
-3.41784
-3.44953
-3.48458
-3.52315
-3.56524
-3.61077
-3.6597
-3.71191
-3.7672
-3.82519
-3.88539
-3.94721
-4.01001
-4.07322
-4.13641
-4.19946
-4.26264
-4.32671
-4.39286
-4.46262
-4.53762
-4.61926
-4.70838
-4.805
-4.90839
-5.01626
-5.12615
-5.23649
-3.26708
-3.26954
-3.27149
-3.2745
-3.2785
-3.2836
-3.28989
-3.29744
-3.30634
-3.31667
-3.32854
-3.34204
-3.35728
-3.37438
-3.39346
-3.41466
-3.43813
-3.46402
-3.49254
-3.52406
-3.55889
-3.59718
-3.63892
-3.68403
-3.73253
-3.78435
-3.83929
-3.89701
-3.95701
-4.01871
-4.08145
-4.14464
-4.20785
-4.27097
-4.33435
-4.3988
-4.4656
-4.53637
-4.61278
-4.69625
-4.78759
-4.8867
-4.99249
-5.1036
-5.21782
-5.33183
-3.33702
-3.33949
-3.34203
-3.3456
-3.35014
-3.35572
-3.36242
-3.37033
-3.37954
-3.39013
-3.40222
-3.41589
-3.43126
-3.44845
-3.46757
-3.48875
-3.51217
-3.53798
-3.56642
-3.5978
-3.63239
-3.67033
-3.71156
-3.75613
-3.80407
-3.85534
-3.90975
-3.96698
-4.02653
-4.08782
-4.15021
-4.21313
-4.27621
-4.33943
-4.40321
-4.46845
-4.53649
-4.60893
-4.68739
-4.77317
-4.86696
-4.96863
-5.07711
-5.1909
-5.30875
-5.42766
-3.40581
-3.40823
-3.41134
-3.41545
-3.42049
-3.42651
-3.4336
-3.44185
-3.45135
-3.46221
-3.47452
-3.48838
-3.50391
-3.52121
-3.5404
-3.56162
-3.58503
-3.6108
-3.63916
-3.67034
-3.70457
-3.74197
-3.78259
-3.82654
-3.87387
-3.92455
-3.97839
-4.03507
-4.09412
-4.15495
-4.21693
-4.27954
-4.34246
-4.40578
-4.47002
-4.53618
-4.60565
-4.67999
-4.76071
-4.84896
-4.9453
-5.04961
-5.16093
-5.27786
-5.39885
-5.52173
-3.47351
-3.47585
-3.47951
-3.48413
-3.48962
-3.49604
-3.50348
-3.51203
-3.5218
-3.5329
-3.54541
-3.55945
-3.57511
-3.59252
-3.61178
-3.63303
-3.6564
-3.68208
-3.71025
-3.74112
-3.77487
-3.81166
-3.85164
-3.89494
-3.94164
-3.99172
-4.04502
-4.10121
-4.15983
-4.22028
-4.28194
-4.34429
-4.40711
-4.47054
-4.53522
-4.60224
-4.67305
-4.74918
-4.83205
-4.92265
-5.02145
-5.12828
-5.24237
-5.3624
-5.48672
-5.6128
-3.54006
-3.54257
-3.54666
-3.55174
-3.55763
-3.56439
-3.57213
-3.58094
-3.59094
-3.60223
-3.61491
-3.62908
-3.64485
-3.66233
-3.68161
-3.70283
-3.72611
-3.75161
-3.77949
-3.80995
-3.84316
-3.87933
-3.91865
-3.96128
-4.00733
-4.05682
-4.1096
-4.16536
-4.2236
-4.28373
-4.34512
-4.40728
-4.47001
-4.53355
-4.59862
-4.6664
-4.73838
-4.81607
-4.9008
-4.99348
-5.09447
-5.20361
-5.32021
-5.4431
-5.57054
-5.69972
-3.60566
-3.60838
-3.61284
-3.61832
-3.62456
-3.63162
-3.63961
-3.64864
-3.65882
-3.67025
-3.68305
-3.69732
-3.71315
-3.73064
-3.74989
-3.77101
-3.79413
-3.81937
-3.84689
-3.87687
-3.9095
-3.94502
-3.98364
-4.02558
-4.07097
-4.11986
-4.17212
-4.22743
-4.28531
-4.34513
-4.40626
-4.46821
-4.53084
-4.59445
-4.65984
-4.72825
-4.80118
-4.88014
-4.96637
-5.06069
-5.16344
-5.2745
-5.39327
-5.51869
-5.64892
-5.78087
-3.6704
-3.67331
-3.6781
-3.68391
-3.69045
-3.69776
-3.70595
-3.71515
-3.72547
-3.73701
-3.74988
-3.76419
-3.78003
-3.79748
-3.81664
-3.83761
-3.86049
-3.8854
-3.91249
-3.94193
-3.97394
-4.00876
-4.04664
-4.08783
-4.13251
-4.18075
-4.23245
-4.28729
-4.34477
-4.40425
-4.46508
-4.52679
-4.58927
-4.65288
-4.71847
-4.78734
-4.86097
-4.94083
-5.02808
-5.12351
-5.22746
-5.33989
-5.46034
-5.58783
-5.72046
-5.8549
-3.73434
-3.73741
-3.74247
-3.74856
-3.75533
-3.76284
-3.77119
-3.78051
-3.79091
-3.80251
-3.81541
-3.82971
-3.8455
-3.86286
-3.88187
-3.90262
-3.9252
-3.94972
-3.97632
-4.00517
-4.0365
-4.07056
-4.10765
-4.14803
-4.19193
-4.23944
-4.29048
-4.34475
-4.40174
-4.4608
-4.52127
-4.58269
-4.64496
-4.70847
-4.77412
-4.84323
-4.91724
-4.99756
-5.0853
-5.1812
-5.28567
-5.3988
-5.52029
-5.64926
-5.7838
-5.92049
-3.79755
-3.80074
-3.806
-3.8123
-3.81925
-3.82689
-3.83535
-3.84474
-3.85519
-3.86679
-3.87966
-3.8939
-3.90958
-3.92679
-3.94559
-3.96606
-3.98828
-4.01235
-4.03839
-4.0666
-4.09719
-4.13044
-4.16666
-4.20615
-4.24917
-4.29585
-4.34611
-4.39967
-4.45602
-4.51451
-4.57449
-4.6355
-4.69746
-4.76078
-4.82635
-4.89544
-4.96947
-5.04977
-5.13738
-5.23307
-5.33732
-5.45039
-5.57215
-5.70185
-5.83767
-5.97636
-3.86006
-3.86332
-3.86872
-3.87517
-3.88223
-3.88996
-3.89847
-3.90789
-3.91832
-3.92988
-3.94267
-3.95679
-3.97231
-3.9893
-4.00783
-4.02796
-4.04975
-4.0733
-4.09873
-4.12623
-4.15602
-4.18839
-4.22366
-4.26218
-4.30421
-4.3499
-4.39922
-4.45189
-4.50743
-4.56518
-4.62451
-4.68497
-4.74648
-4.80942
-4.87468
-4.94345
-5.01708
-5.09681
-5.18368
-5.27846
-5.38173
-5.49391
-5.61504
-5.74456
-5.8809
-6.02125
-3.92192
-3.92522
-3.9307
-3.93722
-3.94434
-3.9521
-3.96061
-3.96999
-3.98036
-3.99183
-4.00449
-4.01843
-4.03373
-4.05045
-4.06864
-4.08836
-4.10966
-4.13263
-4.15739
-4.18411
-4.21303
-4.24445
-4.27869
-4.31611
-4.35701
-4.40156
-4.44974
-4.50132
-4.55582
-4.61263
-4.67112
-4.73086
-4.79174
-4.85413
-4.91881
-4.9869
-5.05965
-5.13823
-5.22367
-5.31677
-5.41825
-5.52863
-5.64812
-5.77641
-5.91232
-6.0534
-3.9832
-3.9865
-3.99199
-3.99853
-4.00565
-4.01338
-4.02184
-4.03114
-4.0414
-4.05272
-4.06519
-4.07891
-4.09393
-4.11031
-4.1281
-4.14734
-4.16809
-4.19042
-4.21445
-4.24033
-4.26831
-4.29868
-4.33179
-4.36799
-4.4076
-4.45081
-4.49764
-4.54787
-4.60109
-4.65671
-4.71415
-4.77296
-4.83303
-4.89464
-4.95847
-5.02552
-5.0969
-5.17375
-5.25706
-5.34772
-5.44653
-5.55413
-5.67087
-5.79668
-5.93077
-6.07129
-4.04396
-4.04723
-4.05269
-4.05919
-4.06624
-4.0739
-4.08225
-4.09143
-4.10153
-4.11265
-4.12489
-4.13831
-4.153
-4.16898
-4.18631
-4.20502
-4.22516
-4.24679
-4.27001
-4.295
-4.32196
-4.3512
-4.38307
-4.41791
-4.45606
-4.49772
-4.54295
-4.59157
-4.64322
-4.69738
-4.75349
-4.81114
-4.87016
-4.93074
-4.99344
-5.05908
-5.12865
-5.2032
-5.28373
-5.37119
-5.46645
-5.57025
-5.68307
-5.80507
-5.93586
-6.07424
-4.10426
-4.10748
-4.11286
-4.11927
-4.12622
-4.13375
-4.14196
-4.15096
-4.16085
-4.17173
-4.18368
-4.19677
-4.21106
-4.22659
-4.24341
-4.26153
-4.28099
-4.30186
-4.32423
-4.34824
-4.37412
-4.40215
-4.43267
-4.46602
-4.50253
-4.54243
-4.58581
-4.63253
-4.6823
-4.73467
-4.78915
-4.84533
-4.90302
-4.9623
-5.02356
-5.08743
-5.15477
-5.22653
-5.30369
-5.38724
-5.4781
-5.57708
-5.68477
-5.80159
-5.92752
-6.06199
-4.16418
-4.16732
-4.17259
-4.17887
-4.18567
-4.19304
-4.20106
-4.20985
-4.21949
-4.23007
-4.24169
-4.25439
-4.26824
-4.28327
-4.29952
-4.31699
-4.33573
-4.35578
-4.37724
-4.40023
-4.42496
-4.45169
-4.48076
-4.51249
-4.5472
-4.58514
-4.62641
-4.67095
-4.71852
-4.76876
-4.82125
-4.87562
-4.93164
-4.98928
-5.04876
-5.11053
-5.17527
-5.24381
-5.31709
-5.39609
-5.48177
-5.57495
-5.67636
-5.78659
-5.90598
-6.03465
-4.22378
-4.22684
-4.23196
-4.23807
-4.2447
-4.25186
-4.25966
-4.26819
-4.27754
-4.2878
-4.29903
-4.3113
-4.32466
-4.33914
-4.35476
-4.37155
-4.38951
-4.4087
-4.42919
-4.4511
-4.47462
-4.5
-4.52753
-4.55752
-4.5903
-4.62609
-4.66503
-4.70711
-4.75216
-4.79992
-4.85005
-4.90221
-4.95616
-5.01178
-5.06912
-5.12844
-5.19023
-5.2552
-5.32419
-5.39813
-5.47794
-5.56447
-5.65848
-5.76072
-5.8718
-5.99239
-4.28311
-4.28608
-4.29103
-4.29695
-4.30337
-4.3103
-4.31785
-4.32609
-4.33512
-4.345
-4.35582
-4.36761
-4.38044
-4.39432
-4.40927
-4.42532
-4.44246
-4.46074
-4.48022
-4.50101
-4.52328
-4.54723
-4.57316
-4.60133
-4.63206
-4.66555
-4.70198
-4.74135
-4.7836
-4.82854
-4.87591
-4.92545
-4.9769
-5.03007
-5.08487
-5.14138
-5.19991
-5.26099
-5.32537
-5.39385
-5.46728
-5.54644
-5.63212
-5.72511
-5.82612
-5.93605
-4.34223
-4.3451
-4.34987
-4.35557
-4.36176
-4.36844
-4.3757
-4.38363
-4.3923
-4.40178
-4.41213
-4.42341
-4.43566
-4.4489
-4.46315
-4.47841
-4.49469
-4.51203
-4.53046
-4.55009
-4.57106
-4.59355
-4.61782
-4.64412
-4.6727
-4.7038
-4.73756
-4.77405
-4.81326
-4.85507
-4.89933
-4.94584
-4.99434
-5.0446
-5.09643
-5.14975
-5.20469
-5.26164
-5.32116
-5.3839
-5.45058
-5.52188
-5.59854
-5.68131
-5.77076
-5.86785
-4.40118
-4.40394
-4.40852
-4.414
-4.41993
-4.42633
-4.43329
-4.44088
-4.44915
-4.45819
-4.46806
-4.47879
-4.49043
-4.50299
-4.51649
-4.53093
-4.54631
-4.56266
-4.58002
-4.59846
-4.6181
-4.6391
-4.66168
-4.68606
-4.71247
-4.7411
-4.77211
-4.80559
-4.84157
-4.88003
-4.92087
-4.96395
-5.00908
-5.05598
-5.1044
-5.15414
-5.20519
-5.25775
-5.31222
-5.36906
-5.4288
-5.49199
-5.55925
-5.63116
-5.70818
-5.79107
-4.45998
-4.46265
-4.46703
-4.47226
-4.47793
-4.48404
-4.49067
-4.49789
-4.50575
-4.51432
-4.52366
-4.53381
-4.5448
-4.55665
-4.56937
-4.58295
-4.59741
-4.61275
-4.629
-4.64622
-4.66451
-4.68401
-4.70489
-4.72734
-4.75155
-4.7777
-4.80592
-4.83633
-4.86899
-4.90391
-4.9411
-4.98046
-5.02183
-5.06496
-5.10955
-5.15533
-5.20217
-5.25014
-5.29942
-5.35031
-5.40309
-5.45815
-5.51594
-5.57688
-5.64125
-5.70944
-4.51869
-4.52126
-4.52544
-4.53041
-4.5358
-4.5416
-4.54789
-4.55471
-4.56214
-4.57023
-4.57901
-4.58855
-4.59886
-4.60997
-4.62187
-4.63458
-4.64807
-4.66237
-4.67749
-4.69348
-4.71041
-4.7284
-4.74758
-4.76811
-4.79014
-4.81383
-4.83928
-4.86662
-4.89591
-4.92723
-4.96061
-4.99603
-5.03337
-5.07239
-5.11278
-5.15426
-5.1966
-5.23976
-5.28378
-5.32874
-5.37472
-5.42189
-5.47051
-5.52083
-5.5729
-5.62671
-4.57732
-4.5798
-4.58377
-4.58849
-4.59359
-4.59907
-4.60499
-4.61141
-4.61838
-4.62595
-4.63417
-4.64307
-4.65268
-4.66301
-4.67408
-4.68588
-4.6984
-4.71163
-4.72561
-4.74035
-4.75591
-4.77239
-4.78988
-4.80852
-4.82842
-4.84969
-4.87244
-4.89676
-4.92273
-4.95045
-4.97998
-5.01135
-5.04446
-5.07914
-5.11508
-5.15197
-5.18956
-5.22774
-5.26642
-5.30553
-5.34498
-5.38469
-5.42473
-5.46516
-5.50581
-5.54632
-4.63592
-4.63831
-4.64207
-4.64653
-4.65133
-4.65648
-4.66203
-4.66803
-4.67453
-4.68156
-4.68919
-4.69743
-4.70632
-4.71586
-4.72607
-4.73694
-4.74847
-4.76063
-4.77345
-4.78694
-4.80114
-4.81611
-4.83195
-4.84873
-4.86655
-4.88549
-4.90562
-4.92703
-4.94978
-4.97398
-4.99972
-5.02703
-5.05588
-5.0861
-5.11743
-5.14957
-5.18225
-5.2153
-5.2486
-5.28196
-5.31515
-5.34792
-5.38012
-5.41164