/*--------------------------------*- C++ -*----------------------------------*\
  =========                 |
  \\      /  F ield         | OpenFOAM: The Open Source CFD Toolbox
   \\    /   O peration     | Website:  https://openfoam.org
    \\  /    A nd           | Version:  7
     \\/     M anipulation  |
\*---------------------------------------------------------------------------*/
FoamFile
{
    version     2.0;
    format      ascii;
    class       volScalarField;
    location    "0.00288";
    object      dsmcRhoN;
}
// * * * * * * * * * * * * * * * * * * * * * * * * * * * * * * * * * * * * * //

dimensions      [0 -3 0 0 0 0 0];

internalField   nonuniform List<scalar> 
125
(
133
125
131
128
123
134
130
140
116
112
146
124
115
127
157
126
120
125
128
122
122
130
141
116
133
111
128
133
127
122
126
115
148
126
133
129
126
123
135
150
112
129
140
123
130
138
101
143
122
144
148
127
118
132
114
132
127
122
120
122
128
137
137
125
138
127
143
110
109
148
110
123
137
150
140
153
167
149
125
172
153
166
175
146
161
160
197
157
193
193
169
202
213
199
196
168
172
183
186
182
199
169
174
183
193
175
186
164
181
173
184
177
184
158
176
164
191
164
186
173
160
197
184
167
180
)
;

boundaryField
{
    sides
    {
        type            symmetry;
    }
    empty
    {
        type            empty;
    }
    procBoundary2to1
    {
        type            processor;
        value           uniform 129;
    }
    procBoundary2to3
    {
        type            processor;
        value           uniform 176;
    }
}


// ************************************************************************* //
