/*--------------------------------*- C++ -*----------------------------------*\
  =========                 |
  \\      /  F ield         | OpenFOAM: The Open Source CFD Toolbox
   \\    /   O peration     | Website:  https://openfoam.org
    \\  /    A nd           | Version:  7
     \\/     M anipulation  |
\*---------------------------------------------------------------------------*/
FoamFile
{
    version     2.0;
    format      ascii;
    class       volScalarField;
    location    "0.00288";
    object      internalE;
}
// * * * * * * * * * * * * * * * * * * * * * * * * * * * * * * * * * * * * * //

dimensions      [1 -1 -2 0 0 0 0];

internalField   nonuniform List<scalar> 
125
(
410.077
373.156
451.973
420.85
411.038
513.655
424.062
446.037
326.005
361.409
538.468
407.994
426.17
485.689
634.111
447.174
412.337
380.838
402.504
380.499
418.428
426.11
477.845
401.206
424.53
310.655
377.271
444.931
462.709
352.818
425.788
377.09
497.681
406.107
490.015
462.631
414.965
412.779
412.512
557.44
421.232
483.933
486.021
444.97
473.614
464.367
297.04
419.5
381.9
459.788
484.463
379.859
396.78
380.66
426.557
404.357
459.324
419.572
476.745
363.028
425.62
480.765
421.341
395.498
450.365
416.586
511.026
404.327
308.342
497.176
370.923
437.94
372.614
568.046
387.693
442.207
518.83
376.847
305.148
541.337
477.095
475.924
508.467
411.177
419.747
434.126
490.827
399.883
491.499
421.735
384.863
477.23
556.395
440.598
482.26
388.548
392.821
426.663
433.002
443.795
460.002
370.354
412.409
383.146
460.907
386.349
419.463
349.414
410.932
394.826
428.349
388.248
453.139
380.394
421.328
344.405
467.526
341.903
402.624
346.507
375.8
442.915
404.25
343.193
402.025
)
;

boundaryField
{
    sides
    {
        type            symmetry;
    }
    empty
    {
        type            empty;
    }
    procBoundary2to1
    {
        type            processor;
        value           uniform 413.443;
    }
    procBoundary2to3
    {
        type            processor;
        value           uniform 453.442;
    }
}


// ************************************************************************* //
