/*--------------------------------*- C++ -*----------------------------------*\
  =========                 |
  \\      /  F ield         | OpenFOAM: The Open Source CFD Toolbox
   \\    /   O peration     | Website:  https://openfoam.org
    \\  /    A nd           | Version:  7
     \\/     M anipulation  |
\*---------------------------------------------------------------------------*/
FoamFile
{
    version     2.0;
    format      ascii;
    class       volScalarField;
    location    "0.009";
    object      dsmcSigmaTcRMax;
}
// * * * * * * * * * * * * * * * * * * * * * * * * * * * * * * * * * * * * * //

dimensions      [0 3 -1 0 0 0 0];

internalField   nonuniform List<scalar> 
546
(
6.27126092e-16
6.200531306e-16
6.280665097e-16
6.029277989e-16
6.362103942e-16
6.345791979e-16
6.033046277e-16
6.091637866e-16
6.026593274e-16
6.105125733e-16
6.044257259e-16
5.900323352e-16
5.937228495e-16
7.538402873e-16
6.918119761e-16
6.504902403e-16
8.05372683e-16
7.039772239e-16
5.941563955e-16
6.564208523e-16
6.018442192e-16
5.921063281e-16
6.079150651e-16
5.743137646e-16
6.295899549e-16
6.187902639e-16
6.267193402e-16
5.939468949e-16
5.900971053e-16
5.738693073e-16
7.622856859e-16
6.318551877e-16
6.185494298e-16
6.185354434e-16
5.971872177e-16
6.073193802e-16
6.71604002e-16
6.004972417e-16
5.979789219e-16
7.108731691e-16
6.008124972e-16
6.167732789e-16
5.787185118e-16
6.014782372e-16
6.426247152e-16
6.041067561e-16
6.003649616e-16
5.789417414e-16
6.09788336e-16
5.919087471e-16
6.002817179e-16
6.360964344e-16
6.362911611e-16
6.066405567e-16
6.0952791e-16
6.94198399e-16
6.00268739e-16
6.148368148e-16
6.558865513e-16
6.279718857e-16
6.195884405e-16
6.193463286e-16
5.979316003e-16
5.906886302e-16
6.264931281e-16
6.431238695e-16
6.234880325e-16
5.989308557e-16
6.128351054e-16
6.399093556e-16
6.784236736e-16
6.159860233e-16
6.138164205e-16
6.196051182e-16
6.222148563e-16
6.509323241e-16
5.992250119e-16
6.891834769e-16
6.980338914e-16
6.390246661e-16
5.923971193e-16
6.200194555e-16
5.744202369e-16
6.140332782e-16
6.555437951e-16
5.98775416e-16
5.797535005e-16
5.770314705e-16
6.325290517e-16
5.79232811e-16
6.12576216e-16
5.818201151e-16
6.165864531e-16
6.215116292e-16
6.253476866e-16
6.186367382e-16
6.749288272e-16
6.031233449e-16
6.515204338e-16
6.507393737e-16
6.37486117e-16
6.057305646e-16
5.886812977e-16
6.254162152e-16
5.882399164e-16
6.687964357e-16
6.687964357e-16
6.268385806e-16
6.1926458e-16
6.15198597e-16
6.039706497e-16
6.702877619e-16
5.869328439e-16
6.101595005e-16
5.985235224e-16
5.93214329e-16
6.524271316e-16
5.757765958e-16
6.476049907e-16
6.80149019e-16
6.076488164e-16
5.996806996e-16
6.084447658e-16
6.768846102e-16
5.922556105e-16
5.910697026e-16
5.943015727e-16
5.947371005e-16
6.002874714e-16
6.003891544e-16
6.644990207e-16
6.146613701e-16
6.186789547e-16
6.409852032e-16
6.260292907e-16
5.893955921e-16
7.495532002e-16
6.328084081e-16
5.891069178e-16
6.521730389e-16
5.653888093e-16
6.475219845e-16
5.888480198e-16
5.969337747e-16
5.795840699e-16
5.800388701e-16
6.249208075e-16
6.323130374e-16
5.88478635e-16
6.066085783e-16
6.031759174e-16
5.932328108e-16
5.955363955e-16
6.132146697e-16
6.031343375e-16
6.27776511e-16
6.931313926e-16
5.853389732e-16
5.918291751e-16
6.264829461e-16
5.913786187e-16
6.093042713e-16
6.395350958e-16
6.05287258e-16
6.037517097e-16
6.114346884e-16
5.863995289e-16
6.445564017e-16
6.227588904e-16
6.188361139e-16
6.101054085e-16
5.870644656e-16
6.543992341e-16
6.402160662e-16
6.656173646e-16
5.987935183e-16
6.206016425e-16
5.947571705e-16
6.033319045e-16
5.99650569e-16
5.868335189e-16
6.034971417e-16
5.850263154e-16
5.843187037e-16
5.981115509e-16
5.801048211e-16
6.059633758e-16
6.800276049e-16
6.197059483e-16
5.888533254e-16
6.337986817e-16
6.056036299e-16
6.260066743e-16
5.990845615e-16
5.961554812e-16
6.452814362e-16
5.968825924e-16
6.438681216e-16
6.176261278e-16
6.893032113e-16
6.254111494e-16
5.991648904e-16
6.207929617e-16
6.090549114e-16
6.314828046e-16
6.058877644e-16
5.998601935e-16
5.864515744e-16
6.31828501e-16
6.151582571e-16
6.150241149e-16
6.322575745e-16
6.035237397e-16
6.448023717e-16
6.018406608e-16
5.894573465e-16
6.092174716e-16
6.02434579e-16
5.786315621e-16
5.927205603e-16
5.722919675e-16
6.073273516e-16
6.096266087e-16
6.230402755e-16
6.076755195e-16
6.297287742e-16
6.204145975e-16
6.137246231e-16
6.363550965e-16
6.178103841e-16
6.94971224e-16
6.063347048e-16
6.100097865e-16
6.301383785e-16
6.135437462e-16
5.999678042e-16
6.334138993e-16
6.17922961e-16
6.196901119e-16
6.863721754e-16
5.633408115e-16
6.036533851e-16
6.45748013e-16
5.786788825e-16
6.145323416e-16
6.130323758e-16
6.323130352e-16
6.139143009e-16
5.926751753e-16
6.035725452e-16
6.079005069e-16
6.020727331e-16
6.145753366e-16
5.811820542e-16
6.138899489e-16
5.949112441e-16
6.122790672e-16
5.878794601e-16
6.176283163e-16
6.054880546e-16
6.146895905e-16
5.912965069e-16
6.194241287e-16
5.815841444e-16
6.034277115e-16
6.359834793e-16
6.107245983e-16
5.966664612e-16
6.024694293e-16
6.006618475e-16
5.980671765e-16
6.054020534e-16
6.11059181e-16
6.261372584e-16
6.150734843e-16
5.960575154e-16
5.943956084e-16
6.440934257e-16
5.965284897e-16
5.987947544e-16
6.028561799e-16
6.102428193e-16
6.139476464e-16
6.050900884e-16
5.862901874e-16
5.802131609e-16
6.190211411e-16
6.297915539e-16
6.126339859e-16
5.830878552e-16
5.87859242e-16
6.015987422e-16
6.309624554e-16
6.085790834e-16
6.092942272e-16
5.95435212e-16
6.824441139e-16
5.9979039e-16
5.97520173e-16
6.102520467e-16
6.026019307e-16
5.957171038e-16
5.93925675e-16
6.298657606e-16
6.273092349e-16
6.126432777e-16
6.190760571e-16
6.469324309e-16
5.792479266e-16
5.951638093e-16
5.970556715e-16
6.297160894e-16
6.62637129e-16
5.940535914e-16
6.22039889e-16
6.025069912e-16
6.119197319e-16
6.074881945e-16
6.142482085e-16
5.751708143e-16
6.119207149e-16
6.243615758e-16
5.829465566e-16
6.0025418e-16
5.9867142e-16
5.922357778e-16
6.25794286e-16
6.399011392e-16
6.191420833e-16
5.99840444e-16
5.857636549e-16
5.985640623e-16
5.869784399e-16
6.196718052e-16
6.195204732e-16
6.36169544e-16
6.177587128e-16
6.422312844e-16
6.123406603e-16
5.774339396e-16
6.192269413e-16
6.28593597e-16
6.228742957e-16
6.143052964e-16
6.255684492e-16
6.16905236e-16
6.053683008e-16
5.711632647e-16
6.340187944e-16
6.286485915e-16
5.998160171e-16
6.048420742e-16
6.083417329e-16
6.079016742e-16
6.046362756e-16
6.256922127e-16
6.867178702e-16
5.942066466e-16
6.054369602e-16
6.041649331e-16
6.771485215e-16
6.841251714e-16
6.700379479e-16
7.288358656e-16
7.455212056e-16
6.763864284e-16
6.212019654e-16
7.210611956e-16
6.931694643e-16
8.189615481e-16
6.429607938e-16
7.018633537e-16
6.545329795e-16
6.564646005e-16
7.694063179e-16
6.493726346e-16
7.886740379e-16
6.581417791e-16
6.049311686e-16
6.98996394e-16
6.490165409e-16
6.746043169e-16
7.77304906e-16
6.98997809e-16
7.133850863e-16
8.003972974e-16
6.63866351e-16
5.983056725e-16
6.193720338e-16
7.233854356e-16
6.276046162e-16
6.15337404e-16
6.305105609e-16
7.636011606e-16
6.921611349e-16
7.470507488e-16
6.155249081e-16
6.152442322e-16
6.396159978e-16
6.604899714e-16
7.502362694e-16
6.956065895e-16
6.552618029e-16
7.325882316e-16
6.818258978e-16
7.16133576e-16
6.513623742e-16
6.498788153e-16
6.974612176e-16
6.459468022e-16
6.365651759e-16
6.34966352e-16
6.069249317e-16
7.742538044e-16
6.289150994e-16
7.309484428e-16
6.042703042e-16
6.599484558e-16
6.407972798e-16
5.946373068e-16
5.938211736e-16
7.284282981e-16
6.291583023e-16
6.903875101e-16
6.636534185e-16
6.330283574e-16
5.966574814e-16
6.009671663e-16
5.959431418e-16
7.594918588e-16
6.467866172e-16
5.962596211e-16
7.047586318e-16
6.248381923e-16
6.649690081e-16
6.309868346e-16
6.381783301e-16
5.907457801e-16
6.203755112e-16
5.85240509e-16
6.725638479e-16
6.067647217e-16
6.514300155e-16
6.063462695e-16
6.695538458e-16
6.3154921e-16
6.473201534e-16
6.406159793e-16
6.378668047e-16
6.101251832e-16
6.027462176e-16
5.828467826e-16
6.121834578e-16
6.065150278e-16
6.076571001e-16
5.956047443e-16
6.185525822e-16
5.865237353e-16
6.980898686e-16
7.090442011e-16
5.904413988e-16
6.247231382e-16
6.144905364e-16
5.947944754e-16
6.023032117e-16
6.271424631e-16
6.656728512e-16
6.459293748e-16
6.078247496e-16
6.207385359e-16
5.988616326e-16
5.86712213e-16
6.039598545e-16
5.790893384e-16
5.928428078e-16
6.358831987e-16
5.723984082e-16
6.250623192e-16
6.202185222e-16
7.511805693e-16
5.863195318e-16
6.188292056e-16
6.002740641e-16
6.639816169e-16
6.05407573e-16
7.482982873e-16
5.944559511e-16
6.095513144e-16
6.477803156e-16
5.990442542e-16
6.415084203e-16
6.089907146e-16
6.289424272e-16
6.278688232e-16
5.888304539e-16
6.24915827e-16
5.887241108e-16
6.203560886e-16
5.997462548e-16
5.906454025e-16
5.816510626e-16
6.196508311e-16
5.897805336e-16
6.75949231e-16
6.42531499e-16
6.546591618e-16
6.148563609e-16
5.666554707e-16
6.179174155e-16
6.242552621e-16
6.548682923e-16
5.882018583e-16
6.278655804e-16
5.790478171e-16
6.580128612e-16
6.285241987e-16
6.45149601e-16
5.982088683e-16
6.098359008e-16
6.228996375e-16
6.378541137e-16
6.561898987e-16
6.005396706e-16
6.120804468e-16
6.222269658e-16
6.276323297e-16
6.132543412e-16
6.163461461e-16
7.724206234e-16
5.932807871e-16
6.196918499e-16
6.272071717e-16
6.211037371e-16
6.020354857e-16
6.296218893e-16
6.081679658e-16
6.098171874e-16
6.286584416e-16
5.82828197e-16
5.693625725e-16
6.306662193e-16
6.035846607e-16
6.136075654e-16
5.817292743e-16
6.491700047e-16
5.900849558e-16
)
;

boundaryField
{
    flow
    {
        type            zeroGradient;
    }
    obstacle
    {
        type            zeroGradient;
    }
    frontAndBack
    {
        type            empty;
    }
    procBoundary2to0
    {
        type            processor;
        value           nonuniform List<scalar> 
31
(
6.139196528e-16
6.028910306e-16
6.302684711e-16
6.290803401e-16
5.939651256e-16
6.441284138e-16
6.258415637e-16
6.314060279e-16
6.101236485e-16
6.243650839e-16
6.439316485e-16
6.436094338e-16
6.20445709e-16
7.111685456e-16
7.334566055e-16
6.53503145e-16
6.09040404e-16
7.04848325e-16
7.41110424e-16
8.009467877e-16
7.509286623e-16
8.268863551e-16
7.221655225e-16
8.68821095e-16
6.887784298e-16
7.780341212e-16
6.346435556e-16
6.870072802e-16
6.105306408e-16
6.194671693e-16
6.194671693e-16
)
;
    }
    procBoundary2to3
    {
        type            processor;
        value           nonuniform List<scalar> 
19
(
7.438665951e-16
7.706870888e-16
7.143796412e-16
7.034322303e-16
7.56199091e-16
6.392061539e-16
7.805722246e-16
6.408034176e-16
6.058201155e-16
6.226837646e-16
6.503084226e-16
5.85266612e-16
5.911144141e-16
5.980362529e-16
6.256928054e-16
5.831212426e-16
6.14825493e-16
6.403571987e-16
6.293374543e-16
)
;
    }
}


// ************************************************************************* //
