/*--------------------------------*- C++ -*----------------------------------*\
  =========                 |
  \\      /  F ield         | OpenFOAM: The Open Source CFD Toolbox
   \\    /   O peration     | Website:  https://openfoam.org
    \\  /    A nd           | Version:  7
     \\/     M anipulation  |
\*---------------------------------------------------------------------------*/
FoamFile
{
    version     2.0;
    format      ascii;
    class       volScalarField;
    location    "0.009";
    object      internalEMean;
}
// * * * * * * * * * * * * * * * * * * * * * * * * * * * * * * * * * * * * * //

dimensions      [1 -1 -2 0 0 0 0];

internalField   nonuniform List<scalar> 
546
(
0.3268132089
0.4142270442
0.4137553346
0.413436225
0.4151221493
0.4156469461
0.4147040479
0.4179296792
0.4235547487
0.4225485007
0.4246685544
0.4271163029
0.4228132474
0.4207258358
0.4195380713
0.4140130886
0.4139883293
0.4172479172
0.4214069882
0.4224485095
0.3197757583
0.4138173674
0.4191873581
0.4192252185
0.4224832579
0.4255668927
0.4252154478
0.4225723317
0.420511034
0.4194280071
0.4202452449
0.4153819328
0.4147395143
0.4160870282
0.4158587796
0.4167843
0.4164618295
0.4176872139
0.4163158718
0.4120109485
0.32575495
0.4184435465
0.4187309629
0.4158526546
0.4146497301
0.4140476664
0.4097961869
0.4118657255
0.408295036
0.4098760497
0.4104892583
0.4156909974
0.4154008865
0.4163046143
0.420356493
0.4218449243
0.4165026613
0.4146567236
0.4185737541
0.4202312558
0.3188199747
0.4083489954
0.4120948174
0.4126181213
0.4113833075
0.4131409778
0.4134025935
0.413797135
0.4160429666
0.4123008429
0.4141266675
0.4135224412
0.4116757717
0.4106362969
0.411198072
0.4095655757
0.4129538053
0.4166647071
0.4166808381
0.4166982319
0.3265842473
0.4166010284
0.4206384065
0.4161239908
0.4162401486
0.4161437151
0.4129530785
0.4094483601
0.409521558
0.4085430121
0.4075141876
0.4087893522
0.4141148278
0.4138835397
0.4128755538
0.4138322112
0.4175350033
0.4177434146
0.4143580415
0.4146648199
0.3199405007
0.4150586372
0.4168850658
0.4184970101
0.4170464088
0.4210775692
0.4218302675
0.4238975932
0.4241906293
0.4249548975
0.4214207087
0.4177917204
0.4157388432
0.4202904908
0.4226647614
0.4224825272
0.4213615992
0.420477442
0.4204677544
0.4200939988
0.32363526
0.4197616639
0.4238601032
0.42366876
0.4228011318
0.4196434879
0.4217868191
0.4240874208
0.4213107539
0.4199264268
0.4220703914
0.4276249194
0.4252289436
0.4191921171
0.4147439574
0.4115465321
0.4155103665
0.4141007653
0.4148077794
0.4171570689
0.3244684348
0.4159352198
0.4176252295
0.4157012609
0.4161840879
0.4174489616
0.4156683766
0.41730421
0.4219065248
0.4232722354
0.4225359949
0.4182034008
0.4154192997
0.4158235247
0.4172026419
0.4179002037
0.419708024
0.4154839274
0.4131964053
0.4123242569
0.3200364902
0.4082232701
0.412050614
0.4109318391
0.4128194172
0.4073966638
0.4089350093
0.409264309
0.404961897
0.4061310181
0.4066763387
0.4100907508
0.4115297777
0.4101108484
0.4109740217
0.4129014917
0.4148983524
0.4178864449
0.4187613797
0.4179904645
0.3172223133
0.4059747267
0.4080783136
0.4061146195
0.4095386199
0.4149701967
0.413855241
0.4069691952
0.4122838491
0.4124474786
0.4154471646
0.4126347288
0.4139784828
0.4176393796
0.4174398773
0.4148722959
0.413531855
0.4143088071
0.4144389706
0.4142187348
0.3224354932
0.4193395261
0.4237974187
0.4206552565
0.4185431601
0.4190677575
0.4207025152
0.4230089183
0.418482078
0.418147814
0.4156907658
0.4133506649
0.4079750237
0.4086897698
0.4089480772
0.4107912973
0.4107791719
0.4108806753
0.4096248138
0.4140072995
0.3198513441
0.4070178979
0.4104496025
0.4109691229
0.4083870489
0.4109808868
0.4098412474
0.4104480707
0.4101906921
0.4121461448
0.4128041527
0.4118149281
0.412240551
0.4133596598
0.4126962183
0.40965403
0.4116744395
0.4132449952
0.4107647269
0.4047987793
0.3215630419
0.4113421349
0.4110532307
0.4104453099
0.4077733813
0.4056358855
0.4107979898
0.4126835314
0.4154653912
0.4146395883
0.4158564942
0.4146530354
0.4123001559
0.4111635243
0.4109698318
0.4108488916
0.4106791859
0.4133921311
0.4137073491
0.4165991569
0.3243833953
0.4193430746
0.4195269136
0.4181749493
0.4211980068
0.4198479498
0.4165965227
0.4137688973
0.4116020884
0.4097892229
0.4132572646
0.4111409217
0.4179812743
0.4187614833
0.4171373784
0.4180864965
0.4176198056
0.41491542
0.4142867207
0.4144537006
0.3224374935
0.414232401
0.4130609898
0.4108629923
0.4099504543
0.4097087738
0.4112208552
0.4133203861
0.415160655
0.4157890783
0.4166156482
0.4198136333
0.4158300194
0.4160761785
0.4135987209
0.415678038
0.4170908869
0.4185223358
0.4217895531
0.4216001894
0.3191420374
0.4097440331
0.4101103926
0.4178189905
0.4152973024
0.4192345772
0.4168283718
0.4147693075
0.4147561351
0.4109173413
0.4101192123
0.4120615641
0.4137690943
0.412270083
0.417171254
0.4162348837
0.4163062051
0.4156253645
0.4123165192
0.408719756
0.3221201109
0.4133435525
0.4149108221
0.4123056531
0.412535499
0.4092354158
0.4083502084
0.4124063531
0.4110373376
0.4122992058
0.4118093009
0.4098714617
0.4117922481
0.4094385742
0.408250333
0.4051879556
0.4073909255
0.41184207
0.4148244507
0.415068927
0.3110249075
0.4029622339
0.406607585
0.406912347
0.4085619731
0.4107422972
0.4109270794
0.4104158453
0.4108451109
0.4096696959
0.412840261
0.4123620333
0.4149657114
0.4122662473
0.4120745101
0.4127238901
0.4084057685
0.4025789599
0.4021280622
0.3982254863
0.4266862263
0.4271732453
0.4272018327
0.427247703
0.4274011904
0.4300392045
0.4217619137
0.420646831
0.4153032021
0.4134273624
0.414565204
0.4167961848
0.4211964888
0.4201846053
0.4235842915
0.4269384335
0.4157473415
0.4199521754
0.4185884431
0.4208247648
0.4220831551
0.4200611241
0.4210077421
0.4235708393
0.4221084319
0.4163473923
0.4198219233
0.4149659825
0.4148963423
0.417983604
0.4182777369
0.4185013995
0.4167867723
0.4139489195
0.4161203582
0.4169863096
0.415045543
0.4186964651
0.4198255038
0.4145721973
0.4105317599
0.4074877168
0.4099308716
0.4107901814
0.4125953804
0.4152006311
0.4150681611
0.4126280479
0.4126755165
0.417643942
0.4213345869
0.4226615776
0.4211984564
0.4222436631
0.4216957605
0.4189638842
0.421118463
0.4214819866
0.4257764482
0.4204475631
0.4189399209
0.4212190923
0.4230322006
0.4232261845
0.4217536891
0.4176941108
0.4179841076
0.4151300216
0.414862299
0.4179040154
0.4147762414
0.4107843089
0.4145344198
0.4166439376
0.4171211785
0.4192371191
0.4108201166
0.4108807459
0.4116820974
0.4141128931
0.4179407739
0.4191169754
0.4180781986
0.4201069824
0.42036836
0.4162969924
0.4187086191
0.4192585341
0.4204233483
0.4209353898
0.4140211818
0.4126660813
0.4099696006
0.4092836902
0.4106440661
0.4117902036
0.4139096628
0.4126268458
0.4163619216
0.4171608504
0.4158385653
0.4132117242
0.4143813652
0.4124933664
0.4078722112
0.4083329253
0.4128311566
0.4114113647
0.4095102657
0.4075761136
0.4045636044
0.4113662857
0.4088133558
0.4106514248
0.4130988365
0.4156544383
0.4051618442
0.4054199071
0.4072754525
0.4077842851
0.4084510909
0.4086383108
0.4071562787
0.40792939
0.4094691279
0.4088411868
0.4169213307
0.4186596866
0.4163873569
0.4186985989
0.4162117279
0.4175711223
0.4185388357
0.4148858644
0.4167381492
0.4181422206
0.4151567506
0.4135840888
0.4164863699
0.4174928381
0.4190708974
0.4167048809
0.4155566199
0.4173101416
0.4148598132
0.4144141305
0.4203419707
0.4193885053
0.4169359532
0.4147625264
0.4149816751
0.4166891861
0.4147517811
0.4153143985
0.414939005
0.4172790686
0.4093750798
0.4123470815
0.4149651411
0.4172286076
0.4141473143
0.409620485
0.4107202504
0.4119187702
0.4103403914
0.4136853694
0.4149385793
0.4121719329
0.4105024802
0.4098166762
0.4102414014
0.4117527962
0.4146600092
0.4162187501
0.4128835271
0.4121111244
0.3994928625
0.4022370478
0.4006297245
0.4026548247
0.4040687012
0.4033368218
0.4032897451
0.4025026924
0.4076418894
0.4054790447
)
;

boundaryField
{
    flow
    {
        type            calculated;
        value           nonuniform List<scalar> 
48
(
0.3268132089
0.3197757583
0.32575495
0.3188199747
0.3265842473
0.3199405007
0.32363526
0.3244684348
0.3200364902
0.3172223133
0.3224354932
0.3198513441
0.3215630419
0.3243833953
0.3224374935
0.3191420374
0.3221201109
0.3110249075
0.3110249075
0.4029622339
0.406607585
0.406912347
0.4085619731
0.4107422972
0.4109270794
0.4104158453
0.4108451109
0.4096696959
0.412840261
0.4123620333
0.4149657114
0.4122662473
0.4120745101
0.4127238901
0.4084057685
0.4025789599
0.4021280622
0.3982254863
0.3994928625
0.4022370478
0.4006297245
0.4026548247
0.4040687012
0.4033368218
0.4032897451
0.4025026924
0.4076418894
0.4054790447
)
;
    }
    obstacle
    {
        type            calculated;
        value           nonuniform 0();
    }
    frontAndBack
    {
        type            empty;
    }
    procBoundary2to0
    {
        type            processor;
        value           nonuniform List<scalar> 
31
(
0.3207171298
0.4156770193
0.4187193274
0.4185585376
0.4151933782
0.416550084
0.4184687153
0.4141829747
0.4112140516
0.4103765085
0.4129276265
0.4143214771
0.4171178961
0.4176724739
0.4190490557
0.4220804144
0.4280270839
0.4228106859
0.4201784225
0.4188535259
0.4218960425
0.4247001711
0.4267956827
0.4255597674
0.4274164874
0.4269328375
0.4201365949
0.4221947389
0.4221365702
0.4239633126
0.4239633126
)
;
    }
    procBoundary2to3
    {
        type            processor;
        value           nonuniform List<scalar> 
19
(
0.433968344
0.4306068092
0.414830095
0.42023763
0.4195040678
0.4255619101
0.4146189911
0.4241831397
0.4136438246
0.4088728246
0.4100867817
0.4173246811
0.4117662813
0.4174515135
0.4165528629
0.4151072524
0.4153259884
0.4106509893
0.4068209629
)
;
    }
}


// ************************************************************************* //
