/*--------------------------------*- C++ -*----------------------------------*\
  =========                 |
  \\      /  F ield         | OpenFOAM: The Open Source CFD Toolbox
   \\    /   O peration     | Website:  https://openfoam.org
    \\  /    A nd           | Version:  7
     \\/     M anipulation  |
\*---------------------------------------------------------------------------*/
FoamFile
{
    version     2.0;
    format      ascii;
    class       volScalarField;
    location    "0.009";
    object      linearKE;
}
// * * * * * * * * * * * * * * * * * * * * * * * * * * * * * * * * * * * * * //

dimensions      [1 -1 -2 0 0 0 0];

internalField   nonuniform List<scalar> 
546
(
9.423483705
5.706640403
8.343763444
11.96159398
9.23102282
7.241534842
4.001756045
8.68178374
3.631120658
8.74182887
12.80629144
5.198588602
13.03096877
7.242968823
6.67694854
10.01853345
5.68095377
11.43727306
6.294335914
7.785252699
5.020779778
6.564872204
8.624967623
4.943722392
7.34056454
13.44100225
8.069409872
5.557808968
5.73294854
6.986213098
9.801998943
7.227356901
6.160806141
6.766483441
5.278303567
7.028725086
5.714403846
6.936007406
5.1659636
6.479549635
7.868309278
5.596809657
6.925700886
8.633552019
14.89979473
5.86386261
2.907859032
7.921942885
6.626681021
7.459965635
11.83643263
7.877981743
7.278887442
5.961514748
8.675538646
3.918189321
5.480676707
14.6453123
5.592958153
9.963524565
4.471203214
8.287582902
7.095739631
12.05755914
7.914000706
10.58839694
9.202628961
9.659916715
3.409346063
7.885301658
8.612173425
6.935844748
5.70818719
12.39037154
3.936426287
2.631243511
4.385330073
10.33930823
9.267704694
6.786188003
4.855902735
6.660065627
9.997333
6.762031579
6.460172752
5.960120429
5.830394362
10.27626305
9.316594599
8.474502789
14.70584627
6.184865856
3.94232893
10.21152648
6.504076586
8.712066635
5.159165132
9.411507636
8.944629063
6.381256616
6.732429036
7.539755555
6.797307157
4.188664177
6.632229315
9.730327873
13.19980862
9.550564436
8.15550961
6.290190577
6.695436431
10.31102754
9.064901288
0.3483279841
7.536375412
9.171597666
12.90544256
6.432421518
3.100583249
5.423045705
4.743409787
5.590165212
7.631328702
7.748771799
12.61243421
8.629541232
4.39345374
4.727248616
8.038595161
5.696269685
6.793191
8.370143623
12.23363414
5.812660632
11.42308572
9.265243627
5.712757588
7.771134363
8.866316945
11.22612051
4.075543548
10.79921238
5.409927015
9.650688394
8.184083155
2.174683622
6.003822963
7.076268295
13.94252725
7.738528763
4.587588434
5.497487363
7.990697478
9.440902054
3.868962617
9.754490795
6.820968909
8.096570927
8.246604516
7.546805231
4.999165027
10.5972247
7.676746211
9.769917009
7.209312812
12.58318549
12.22458557
8.887092804
8.218540635
6.922198107
12.56181304
9.035976446
7.369469545
9.618907643
11.65991504
11.05967569
12.73229824
5.591528233
9.412668665
6.924714488
6.717364375
4.677527433
5.387409951
9.901225851
5.20017718
6.698933893
8.661838424
5.583752079
7.09914574
10.35044644
12.35365748
9.699818422
5.809462609
6.377383166
4.580366875
3.553710985
9.66451426
7.350109031
11.56133211
7.311539565
4.93001814
8.453728472
10.71561687
6.500268671
6.630224587
19.37126955
5.240653319
3.822058522
9.586305365
5.171811249
2.819287762
13.43134231
9.424738723
7.776904337
11.29227566
12.20147961
7.43411175
5.429622273
6.197701883
11.17591464
5.035517603
6.872512994
11.16848214
9.617969323
6.26541401
4.548614819
10.53335247
2.810940798
6.095973291
7.393770737
8.730317429
10.53879227
7.129674989
5.846090381
4.196868914
11.67477597
10.46765905
12.31091998
8.349116097
6.684700079
5.467237855
9.093461242
6.374886298
9.506581811
7.995783567
12.52506584
6.481834288
9.250250953
7.378360871
6.320180209
5.939976689
11.00138666
8.016799005
4.636545966
9.384322259
8.500766142
6.015219449
8.157023685
5.905370741
6.313129504
4.183763499
7.823343387
9.594355687
6.310969454
8.578837688
8.825043592
7.281535233
4.472645646
8.611848905
10.50325249
7.417739557
6.299173113
14.74842093
5.525816946
9.132294878
5.515625003
4.603044583
8.568781212
2.315007791
6.90459656
8.228206704
7.376944025
7.181188961
9.594278858
8.509562427
10.25165817
8.677449778
7.238002504
5.825778504
7.012038396
7.94254294
4.842971796
5.880450484
13.73865843
4.572642571
5.882954551
5.240429938
9.578897106
7.173772187
10.11980243
4.242890751
6.916156354
7.231636683
7.868354055
10.53113951
7.2216764
5.888126045
9.623834078
5.829537457
8.490889425
6.077159917
10.1806293
8.901279734
9.413700706
3.924840042
6.232621944
9.838759036
5.25453071
8.735694064
3.938598315
6.749564716
5.641150531
6.532288386
5.539405517
3.799511879
8.96975742
6.091468969
6.804396895
7.675634704
3.581812919
15.25959669
5.053449089
7.659731046
5.729376342
8.494854947
9.745533276
8.343979717
7.118717858
10.50675976
4.651814395
6.641001867
2.842999095
12.00584267
7.389499767
10.13287084
6.500284817
8.200804659
8.582271096
7.955225872
8.508434262
4.616371917
3.815642802
9.206584351
4.416393697
4.39822296
13.64366905
6.655661073
9.241541798
10.17883656
8.969047811
9.06279098
7.911768
8.350498073
5.309922265
10.18419193
10.0093888
3.165179556
3.628529391
10.43281314
9.086128905
10.28524233
9.579359639
6.712094803
7.393722187
11.29256414
8.927770289
7.686358257
4.143661497
11.28445383
6.324621811
10.03921046
2.437176061
6.324341239
1.641334308
8.717295932
5.972869361
9.735697999
14.3589277
6.056548937
3.256304257
10.21891425
4.3906337
7.922917087
9.246253526
8.277442538
3.065198375
4.234405716
3.229320313
5.395604134
9.700734386
4.894336369
13.69898044
4.114756871
7.771490507
6.814329311
4.875834474
3.028709044
9.866937544
9.172516239
9.493016337
5.058014046
12.39136296
12.54501441
9.297542011
8.84913502
2.095683547
6.247632901
10.43916153
5.312375147
10.54346521
4.139269345
12.68573296
7.955881419
6.695493512
7.905742057
6.62687816
8.24071782
3.799065413
7.86972749
13.10873572
10.03094405
5.660053206
12.05702181
7.576229749
10.17340081
6.703256792
5.564683271
7.704235927
7.297289793
7.821115581
5.725880927
3.745761669
7.92612078
6.919358915
8.905212096
5.168973041
9.95583377
7.824806089
7.327662266
12.53037054
9.390987095
6.992601748
6.465999345
6.075195539
6.289650589
7.62162868
7.705082424
6.665379804
8.740668627
5.948681786
6.570552438
8.519536314
4.838414707
10.51497938
16.46253257
5.177690682
12.50698686
8.303683334
6.424356192
6.73772724
8.802222107
7.851844768
13.79474375
6.118563781
3.613664924
7.67432927
10.44141195
8.426095148
4.726506065
1.996928967
11.19606919
5.534633503
9.912202633
8.435728404
10.35048302
7.980637037
6.01869209
1.738118265
6.494223447
7.407657303
9.113417486
7.315709912
4.634460525
6.806381129
5.888619236
10.85519273
7.332872903
6.498760591
7.182886431
11.14878455
7.688913464
6.477925557
2.744959892
6.400303793
7.493519022
4.359032299
12.10840039
6.287161612
6.563786219
11.46532577
8.604452282
5.591971714
5.2460641
13.44672079
3.815473054
5.458225472
10.43387756
10.67466934
9.3003443
4.963517624
8.138984571
9.279144136
8.804853938
4.199727098
6.845147783
10.15949515
8.61935547
10.35800777
9.602408727
10.89906822
9.407607463
6.911557848
8.725182645
11.76899616
5.380300248
6.752543557
8.279744116
10.77889515
5.436889954
7.941117374
13.64293036
10.1450666
9.582339376
7.690695858
11.12110085
7.642986771
)
;

boundaryField
{
    flow
    {
        type            zeroGradient;
    }
    obstacle
    {
        type            calculated;
        value           nonuniform 0();
    }
    frontAndBack
    {
        type            empty;
    }
    procBoundary2to0
    {
        type            processor;
        value           nonuniform List<scalar> 
31
(
4.597250468
9.431645838
4.58441276
9.069258832
9.372601148
7.769824274
7.011143783
14.89498417
9.269230484
6.456845274
10.23670235
7.636420771
9.549161767
10.3481315
9.206476648
8.815460098
7.688638561
8.165267313
8.001384608
6.809404527
7.658170089
7.556592093
6.483907395
5.415906747
8.617245734
7.220701019
5.771938912
6.463909884
7.751974069
6.361030384
6.361030384
)
;
    }
    procBoundary2to3
    {
        type            processor;
        value           nonuniform List<scalar> 
19
(
8.446364651
5.828602461
6.365247234
12.76629658
9.089119369
4.710312817
9.919207113
8.302912526
9.06939436
7.542049098
6.53729288
6.502732073
9.744696545
8.71876407
14.27999773
6.68611379
10.09083343
9.558679142
7.652627238
)
;
    }
}


// ************************************************************************* //
