/*--------------------------------*- C++ -*----------------------------------*\
  =========                 |
  \\      /  F ield         | OpenFOAM: The Open Source CFD Toolbox
   \\    /   O peration     | Website:  https://openfoam.org
    \\  /    A nd           | Version:  7
     \\/     M anipulation  |
\*---------------------------------------------------------------------------*/
FoamFile
{
    version     2.0;
    format      ascii;
    class       volScalarField;
    location    "0.009";
    object      linearKEMean;
}
// * * * * * * * * * * * * * * * * * * * * * * * * * * * * * * * * * * * * * //

dimensions      [1 -1 -2 0 0 0 0];

internalField   nonuniform List<scalar> 
546
(
0.6032024254
0.6104652372
0.6172817502
0.6142014787
0.6079777152
0.5947543419
0.623990236
0.6177976617
0.6323747722
0.6421518082
0.6330381259
0.6394031747
0.6356934204
0.6440156902
0.667529455
0.6629945829
0.6591529418
0.6854897305
0.6796212642
0.6737373219
0.5867274432
0.6039813924
0.6227869246
0.6139717645
0.6195220992
0.6188559815
0.6243989574
0.6312056822
0.6192913094
0.631978418
0.6494245109
0.6522021477
0.6467473781
0.6649801316
0.667157219
0.6498107458
0.6633189757
0.6700930667
0.6690359431
0.6712285869
0.5936741661
0.6081622783
0.5988478614
0.5971871739
0.6086699312
0.6130839166
0.6211871896
0.6106423745
0.6248465159
0.632426063
0.6186847331
0.635937316
0.6494187611
0.6444821581
0.634202221
0.6365850882
0.6472291635
0.6810907608
0.6905165822
0.6625749356
0.6024837789
0.6091566108
0.592625032
0.6010628923
0.5984828584
0.6119983216
0.6225976945
0.599713972
0.6097947418
0.63534084
0.6252678578
0.6399136323
0.6479355882
0.6518478931
0.6487169434
0.6665945864
0.6562995627
0.6830762306
0.6702261178
0.684317321
0.5979920522
0.6062968781
0.5974821668
0.6235764689
0.6188291633
0.6209357741
0.6408879472
0.6484102933
0.6368630387
0.6181519326
0.635613819
0.6281334081
0.6271434968
0.6489895867
0.6479557979
0.6435094258
0.6471336196
0.6689384593
0.683149245
0.6668064095
0.5771122107
0.5980602594
0.6053755001
0.6184238558
0.6118514173
0.6101740858
0.6306528342
0.6252815175
0.6235460694
0.62566844
0.6410662561
0.6499419616
0.6338274216
0.643382542
0.6480793092
0.646747784
0.6570368058
0.6627669643
0.6696917955
0.670168151
0.5904275215
0.6087350085
0.6102601541
0.6073636072
0.6023285964
0.6353440989
0.6293376481
0.6229969456
0.628032004
0.6321768558
0.6230832901
0.6472105929
0.6412997856
0.6401062555
0.6595793228
0.6702154612
0.6685259174
0.6778171446
0.6706456025
0.6737554668
0.5890487515
0.6078906042
0.600188525
0.5969743531
0.6098657507
0.6211788657
0.6144040859
0.6204308498
0.6364450337
0.6300424396
0.6452705691
0.6385216934
0.6320862914
0.6577164145
0.6530643968
0.6805806433
0.6748426406
0.6662610569
0.6743816354
0.6650015636
0.5895462296
0.5938651837
0.6160451713
0.6079471499
0.617665241
0.6238114782
0.6131402779
0.6129071343
0.6202278811
0.6360170996
0.6412187292
0.6609028232
0.6600451122
0.6614355636
0.6534243418
0.664107493
0.6494129268
0.654114018
0.6643137575
0.6766449763
0.5856919083
0.6124826611
0.6342409276
0.6172319805
0.6296481666
0.6432273128
0.6239711557
0.6256391635
0.6209520038
0.6294314478
0.6332452606
0.6324041467
0.6463509767
0.6673868112
0.6508622237
0.6431709101
0.6434092823
0.6586864502
0.6546200016
0.6554475485
0.6022258066
0.6266920938
0.6098242806
0.6263385732
0.6213661238
0.6133480816
0.6081541695
0.612929124
0.6225131138
0.6366579072
0.6254309398
0.6379728145
0.6595338253
0.636943118
0.6456937551
0.6458525717
0.6473133646
0.6712938816
0.6642846236
0.6789831145
0.570223658
0.6001615479
0.6166978009
0.6200619366
0.6103521233
0.6204472264
0.6244462692
0.6223878062
0.6173400868
0.6371491154
0.6373466189
0.6289364985
0.6318335515
0.6484369368
0.6315309757
0.6289454273
0.6316414712
0.6587372872
0.6456157518
0.6599156796
0.5808155733
0.6154109728
0.6143398218
0.6109480062
0.6107052881
0.614998912
0.630133061
0.6392553474
0.6146275497
0.6502164915
0.6444950823
0.6443598375
0.6558437454
0.6492341264
0.6393028169
0.6441013462
0.6586238095
0.6702829728
0.6733237223
0.679119716
0.6001372432
0.6076825271
0.6144559019
0.6071768874
0.6218782069
0.61134406
0.6097229968
0.6063225719
0.624654848
0.643244194
0.6443645275
0.6352459251
0.6571683543
0.6575990303
0.6514237683
0.6612776786
0.672492112
0.6616963783
0.6693113168
0.6633612492
0.5950932394
0.6048518626
0.6201929509
0.6117540329
0.6410413301
0.6266732116
0.6159200487
0.619710959
0.6319421618
0.6600269283
0.6536533906
0.6402745726
0.6589112819
0.6593585834
0.6592160777
0.6453029508
0.6533649921
0.6658719132
0.6666325966
0.6695450424
0.5987691749
0.6180013621
0.620486152
0.5911762172
0.6340808732
0.6369371816
0.6238381308
0.6379879986
0.6374290647
0.6524524421
0.6408313057
0.6514327497
0.6536668709
0.6492164659
0.6680279551
0.6479228181
0.6566944958
0.6663251259
0.6651039413
0.6625808045
0.6006145299
0.6333397547
0.6244897188
0.6068579142
0.6108385941
0.6271491582
0.6289277381
0.6242289255
0.6404610387
0.6314648525
0.6356290681
0.6399903451
0.6579237631
0.6448879013
0.6333850068
0.653098044
0.6462273123
0.645935807
0.6686587775
0.6799681728
0.5970799359
0.6158819588
0.6121093164
0.6065536742
0.6023257148
0.6105451968
0.6024604373
0.619286453
0.6228159663
0.637875131
0.6343645737
0.6226493282
0.6274043291
0.6204778732
0.6274645263
0.6179518715
0.6138163133
0.6179333661
0.62446361
0.6346162528
0.671333858
0.6773940788
0.6773532893
0.7036681788
0.6940474304
0.7083764838
0.6684569608
0.6816684022
0.6774810878
0.6992282469
0.6902784171
0.6969367952
0.6752520562
0.6993898092
0.7111082948
0.7182076423
0.6721702416
0.6831368841
0.6838405614
0.6765637159
0.7037162172
0.6918300614
0.7040269688
0.7055427411
0.6991193256
0.6987202182
0.6823338879
0.6778938389
0.6821078883
0.695521733
0.6961185407
0.699150324
0.691214275
0.7088389687
0.717035961
0.7084852542
0.6958587724
0.670943461
0.6805635011
0.6854353502
0.6935767397
0.6796334756
0.7002499849
0.7056910851
0.7000159192
0.7005838405
0.6571047564
0.6641832726
0.6575616497
0.6773214144
0.6749504168
0.6961603407
0.6979003291
0.6869066969
0.6936293033
0.7062777468
0.6760076234
0.6534346132
0.66101395
0.6863507175
0.7015490309
0.7085947973
0.6757219071
0.6863436055
0.711460412
0.7094689246
0.666620229
0.6787662848
0.6856474823
0.6894828285
0.691560379
0.7073296057
0.7018608785
0.7173901726
0.7113570637
0.7116365219
0.6888999594
0.6795038192
0.6840763545
0.6902510106
0.6921313561
0.7022115029
0.7087744008
0.7205496991
0.7283949516
0.7131793115
0.6650589369
0.6846724259
0.7041331025
0.6914419326
0.6991926356
0.706940677
0.7095905014
0.7127264193
0.7131602247
0.7142953641
0.6549681129
0.6729071536
0.6722804123
0.6813659572
0.6855182476
0.7050344466
0.7027367488
0.7133615616
0.7157589057
0.7211971724
0.6710857019
0.6621487304
0.6767011666
0.6759172834
0.6950624148
0.6727774024
0.6983852474
0.6887265344
0.7133729448
0.7211942784
0.663424337
0.6798042521
0.6772842862
0.6806422516
0.6701711465
0.6766436977
0.7040704257
0.7132876194
0.7007818801
0.7135649374
0.6767334165
0.6888007822
0.6937289432
0.6937785289
0.6956566254
0.6950336341
0.7006205031
0.6973952129
0.6874102976
0.7105995875
0.6644652875
0.6653240663
0.673793435
0.6665207194
0.677396515
0.6865224503
0.6906561491
0.7196594659
0.6985954856
0.7084965795
0.6512996695
0.6731581614
0.6731158104
0.6772244811
0.6830163525
0.6783312935
0.6834301319
0.7087673341
0.7142587998
0.7173757224
0.6649439814
0.6563048397
0.6577201216
0.6693635177
0.6768767116
0.6797593649
0.6888111017
0.6918078323
0.7043582107
0.6855832402
0.66580139
0.6955035164
0.6654783733
0.6835199173
0.6686616896
0.6853719902
0.6819136309
0.6626388332
0.6739650385
0.676717372
0.6407592749
0.6341885767
0.6431424782
0.6430897254
0.6324006318
0.6402141678
0.6372074907
0.639557879
0.6304960513
0.6444482897
)
;

boundaryField
{
    flow
    {
        type            calculated;
        value           nonuniform List<scalar> 
48
(
0.6032024254
0.5867274432
0.5936741661
0.6024837789
0.5979920522
0.5771122107
0.5904275215
0.5890487515
0.5895462296
0.5856919083
0.6022258066
0.570223658
0.5808155733
0.6001372432
0.5950932394
0.5987691749
0.6006145299
0.5970799359
0.5970799359
0.6158819588
0.6121093164
0.6065536742
0.6023257148
0.6105451968
0.6024604373
0.619286453
0.6228159663
0.637875131
0.6343645737
0.6226493282
0.6274043291
0.6204778732
0.6274645263
0.6179518715
0.6138163133
0.6179333661
0.62446361
0.6346162528
0.6407592749
0.6341885767
0.6431424782
0.6430897254
0.6324006318
0.6402141678
0.6372074907
0.639557879
0.6304960513
0.6444482897
)
;
    }
    obstacle
    {
        type            calculated;
        value           nonuniform 0();
    }
    frontAndBack
    {
        type            empty;
    }
    procBoundary2to0
    {
        type            processor;
        value           nonuniform List<scalar> 
31
(
0.6188016363
0.6104349179
0.6064839794
0.6035188059
0.6172600961
0.607054271
0.6145812352
0.6302919414
0.6352656534
0.6517830387
0.6440840356
0.6287597445
0.643997719
0.6549627491
0.6623762756
0.6413019888
0.667123334
0.6722254243
0.6797819416
0.6715618604
0.6734256495
0.678680004
0.672279551
0.7196303191
0.71533714
0.6990833838
0.6686258468
0.6602887015
0.6862399115
0.6881019394
0.6881019394
)
;
    }
    procBoundary2to3
    {
        type            processor;
        value           nonuniform List<scalar> 
19
(
0.7108741136
0.7271852824
0.7146104925
0.6987136873
0.6921587203
0.7128302659
0.7315452508
0.7208055136
0.7267152693
0.7249588866
0.7029012972
0.7015200922
0.718436008
0.7119014327
0.7076351001
0.7343720687
0.6973043803
0.6783534662
0.6433251211
)
;
    }
}


// ************************************************************************* //
