/*--------------------------------*- C++ -*----------------------------------*\
  =========                 |
  \\      /  F ield         | OpenFOAM: The Open Source CFD Toolbox
   \\    /   O peration     | Website:  https://openfoam.org
    \\  /    A nd           | Version:  7
     \\/     M anipulation  |
\*---------------------------------------------------------------------------*/
FoamFile
{
    version     2.0;
    format      ascii;
    class       volScalarField;
    location    "0.009";
    object      linearKE;
}
// * * * * * * * * * * * * * * * * * * * * * * * * * * * * * * * * * * * * * //

dimensions      [1 -1 -2 0 0 0 0];

internalField   nonuniform List<scalar> 
546
(
0.9884547502
0.6622503596
0.7597426682
0.7940041943
0.5083259508
0.4586396978
0.3119535612
0.4645069774
0.4557389765
0.4867233369
0.33254976
1.308147993
0.4702925534
0.6120091163
0.4209752056
1.112354664
0.4650175313
0.7550400371
0.6304752742
0.5081993174
0.3055411119
0.6329496958
0.8187624645
0.8151419866
0.957977699
0.5807756434
0.3385482059
0.8130300193
0.9645668379
0.9918745913
0.9977518727
0.8623699959
0.3098798951
0.5947206382
0.4040679571
0.4444697313
0.5949720381
0.4137494016
0.7021143286
0.4464676309
0.5856058309
0.6106761823
0.3369725574
0.437838498
1.025892489
0.3992042211
0.4914802657
0.52283143
0.6360366294
0.7462982512
0.1609075057
1.110709782
0.4090703137
1.089519934
0.5208903685
0.8226994615
1.169875706
0.4520278673
0.8136281277
0.5372024906
0.7188427308
0.7161016059
0.1880556879
0.8238344185
0.7400119368
0.4744944678
0.464692342
0.8076674307
0.3625424846
0.1416737257
0.5828397352
0.5108431714
0.05544616938
0.8275623927
1.039510497
0.6898913337
0.9319325628
0.6242414659
0.308175405
0.5354197895
0.8459127982
0.9265387055
0.8552055212
0.4590134805
1.121223073
0.3827182849
0.5945041441
0.8309892283
0.3486256881
0.9091190555
0.9110114227
0.4001393382
0.6334421841
0.7831418489
0.9084143933
0.8020047419
0.8547498755
0.9212794221
0.2597654372
0.3381764359
0.5182678175
0.5541897543
0.2134823242
0.459624578
0.6075772365
1.126687762
1.046992325
0.4560671626
0.6322576335
0.5771938492
0.5101458855
0.7303027335
0.3353865333
0.5284600068
0.8590726991
0.3626353663
0.7988334906
0.6492673339
0.4374156727
0.3593374049
0.5774295386
0.6069603004
1.295210224
0.7738394317
0.6445684802
0.6115278776
0.7921727797
0.8134979028
0.494129588
0.2670344536
0.7468812312
0.5440984099
0.5778289644
0.4154198281
0.4939896827
0.3949771407
1.740337332
0.4683082111
0.3668435848
1.146312738
0.6071636336
0.3085133055
0.2253700475
0.8888059556
0.7261509233
0.4292561629
0.9835719131
0.08767683416
0.7908591636
0.55692864
0.9479369644
1.080589308
0.3926208223
1.061555289
0.9206448176
1.463235749
0.7687634653
0.2897427674
0.5281639579
0.9349645318
0.6075586451
1.101950021
0.3340856629
1.280667107
0.3106707523
0.5084003424
0.5984425861
0.7175232155
0.5630560302
0.991451977
0.3268154654
0.9863238964
1.064703487
0.3856402702
0.3082160696
0.8952889447
0.6079505019
0.4974258407
0.4049247902
0.4488376642
0.680873053
0.4776547122
0.5873532009
0.9694658425
0.435795971
1.449658726
0.9375075166
0.1953328856
0.726293394
0.681890795
0.6173510771
0.458723588
1.07702472
1.130318004
1.19093913
0.8837358156
0.6224614137
1.108728191
0.9387266377
0.8447220703
0.8406948102
0.4729401098
0.7102268568
0.9201611024
0.1122589808
0.2727677086
0.720504559
0.838980378
0.1033005697
0.5552654065
0.3863908902
0.507191316
1.379982485
0.9555060356
0.8311453386
0.4281830719
0.5437662534
0.4040991378
0.6590468036
0.6105599398
0.2435769777
0.729686505
0.6246308898
0.6108002777
0.4278861879
0.4870068748
0.5299247743
0.5715744338
0.8046486711
0.9455431915
0.4236818328
0.1841442637
0.8539013271
1.05526963
0.5146591161
0.393959104
0.6845768518
0.612186535
0.6441503202
0.5776418641
0.4280992539
0.8851870211
0.510266239
0.5338386798
0.6345663246
0.4221164652
0.5289598285
0.2037863494
0.5938500013
0.514798068
0.516892208
0.7152757563
0.1102239283
0.2063960566
0.3827572524
1.435087299
0.8818880846
1.13469275
0.3812627379
0.3755447537
0.4514371106
0.3235565193
0.893857757
0.9804182845
0.5841470337
0.5470179238
0.4983605972
0.6544808559
1.065433025
0.5802431536
1.109718655
0.3395560061
0.5368627768
0.8262280082
0.685419317
0.4901381089
0.776276017
0.62500772
0.3483447414
0.801661635
0.4763009091
0.2122844264
0.2034829108
1.21995165
0.5710112434
0.59434511
0.2870208683
0.4747686994
0.8733321672
0.2765891197
0.719766826
0.8096918366
0.6136567421
0.5624579976
0.5188752533
0.5518957094
0.8979425869
1.086361049
0.5120508478
0.6906823609
0.492610682
0.7369082077
0.7385034353
1.287808629
0.7685937594
0.58267291
0.7743933498
0.7909071671
0.4692764939
0.4949304606
0.2588227488
0.8170765449
0.6584689182
0.6378284691
0.897094115
0.7072604958
0.7241325478
0.7615891541
0.5747298778
0.7375043223
0.4889960669
0.3178137229
0.8022630778
0.4624486372
0.6271291151
0.08875134242
0.6982514874
0.404374074
0.09302963192
1.037998998
1.051195579
0.6438988118
0.5445488406
0.5285192696
0.487461314
0.9283569899
0.9845571035
0.8987506671
1.316264434
0.9526353432
0.588000636
0.8556084749
0.4349167885
0.7778801143
0.1736105854
0.7596432121
0.6414789865
0.3935237303
0.701468707
0.3443687143
0.3246650744
0.9933305671
0.3831069147
0.5743302662
1.194077608
1.072266601
0.8912858852
0.6752023932
0.635715352
0.340360324
0.395613983
0.6023107118
0.06627619769
0.6288063701
0.5083048932
1.186482823
0.7890221629
0.784185771
0.6475989714
0.8096250409
0.6791190708
0.7212513459
1.082517838
1.006501633
0.3876084167
0.9376335061
0.4968552651
0.6458799364
0.06329895427
0.4475118912
0.6369246527
0.5628310184
0.6974924534
0.4749872617
0.470007305
0.7201788489
1.164852341
1.355597381
0.6215228531
0.385958445
0.4938665599
0.4025610876
0.4784345683
1.004844745
0.5726370828
1.006192725
0.2323384275
0.5088209129
0.7196560479
0.7626655867
0.3880140671
0.2799171222
0.559333527
1.016133197
0.5213605794
0.6110203959
0.6854606972
1.272019489
0.6016778015
0.7248176666
0.6790003414
0.4279238311
0.4487575392
0.6763716226
0.5665640787
0.6822571646
0.8282419296
0.4388392778
0.3894251162
0.9305450423
0.5087892816
0.4575797325
0.2123252011
0.4277089699
0.4527010621
0.765667799
0.6386827766
0.7260978089
0.8681049636
0.9844312325
0.5258154593
0.8598047239
1.009442201
0.6151485688
0.4252581731
0.8825436091
0.7785241864
0.8304190679
1.031412369
0.5462392906
1.378957496
0.8468691885
0.5691396117
0.9329602819
0.6647319174
0.2470926213
0.8310063692
0.2719903682
0.3870953423
0.6590365094
0.4596162104
0.6437035008
0.7369286597
0.3588925697
0.8985671754
0.9239682615
0.4628441425
0.4703684903
0.7745290416
0.4049569287
0.2193628758
0.7780726678
0.209960878
0.7402364252
0.6945900087
0.5833431427
0.2473978165
0.78443867
0.8066046024
1.200301634
0.5160335487
0.6450690188
0.7815789074
1.867495666
0.3115866661
0.682166746
0.2615654805
0.4054597583
0.3194587072
0.6379490022
0.7680217974
0.5780775048
0.6497196265
0.6518537427
0.8012584786
0.552994965
0.7253354988
1.126643983
0.4594214901
0.2511292805
0.3956758589
0.6818324897
0.6984766352
0.8152582477
0.7735742396
0.2572641667
0.5680454918
0.5076000799
0.9554838409
0.8282808915
0.5650211352
0.5189013177
0.7526308557
0.827519538
0.7355414616
0.3089505148
0.5208139537
0.2402651456
0.6847156048
0.642982927
0.5383533425
1.047917545
0.4570174924
0.7152788988
0.5248108283
1.001995748
1.134855896
0.4442148153
0.3074604981
0.8581966083
0.5412786333
0.553653735
0.7410992361
0.4227782461
0.5067494216
0.5834155173
0.5265037415
0.6483460244
0.4452256213
0.2188786381
0.8305199651
0.5176921989
0.5138956225
0.2917055966
0.5077258088
0.7717578104
0.4936420607
0.7277597959
0.6229990094
0.3456635615
1.17337736
0.3008483913
0.5478948259
0.5782107194
0.3684115254
0.6969466943
)
;

boundaryField
{
    flow
    {
        type            zeroGradient;
    }
    obstacle
    {
        type            calculated;
        value           nonuniform 0();
    }
    frontAndBack
    {
        type            empty;
    }
    procBoundary2to0
    {
        type            processor;
        value           nonuniform List<scalar> 
31
(
0.3137302743
0.5978922244
0.6867771807
0.6906271452
0.7202620534
0.5856366497
0.8748180169
0.9244183962
0.4845654233
0.2268482456
0.6665074018
0.5538727863
0.02800676158
0.4018598536
0.5251740371
0.9201371166
0.5543369339
0.4248353539
0.8362611929
0.8829400095
0.3938876098
0.8184262385
1.287203367
0.4988799779
0.9799287793
0.6612282247
0.2339944415
0.4008138533
0.5951756758
0.5997681157
0.5997681157
)
;
    }
    procBoundary2to3
    {
        type            processor;
        value           nonuniform List<scalar> 
19
(
0.9318533505
0.7394574906
0.4523800897
0.248263531
1.152275885
1.060575052
0.5551142049
0.6766920298
0.9277813552
0.8507267468
0.3459819533
0.5689934869
0.488568796
1.073240501
0.4959742278
0.932608769
0.4836964841
0.3795300415
0.7215595238
)
;
    }
}


// ************************************************************************* //
