/*--------------------------------*- C++ -*----------------------------------*\
  =========                 |
  \\      /  F ield         | OpenFOAM: The Open Source CFD Toolbox
   \\    /   O peration     | Website:  https://openfoam.org
    \\  /    A nd           | Version:  7
     \\/     M anipulation  |
\*---------------------------------------------------------------------------*/
FoamFile
{
    version     2.0;
    format      ascii;
    class       volVectorField;
    location    "0.009";
    object      momentum;
}
// * * * * * * * * * * * * * * * * * * * * * * * * * * * * * * * * * * * * * //

dimensions      [1 -2 -1 0 0 0 0];

internalField   nonuniform List<vector> 
546
(
(0.01021241924 -0.0005240282566 0.0001309983147)
(0.006472586788 -0.0004094860255 9.22521753e-05)
(0.00820300411 -0.0002527788694 -0.0005842242773)
(0.0121252045 0.0002396462363 0.001185359022)
(0.009758400086 -0.0001029612997 -0.0005487739717)
(0.007301753784 0.0003536200797 -2.559760912e-05)
(0.004596170147 4.671480403e-05 -0.0005825967961)
(0.009500284035 -1.336663263e-05 -0.0001772644378)
(0.003713332444 -0.0002404527893 6.681643152e-05)
(0.00964403279 -0.0001265842245 -0.0003725958844)
(0.01214096012 -0.000939929622 -1.366029268e-05)
(0.005890634841 -0.0003007823584 -0.0004428313235)
(0.01381322973 0.0003672430372 0.0001914998549)
(0.007815131572 -0.0004902442131 -0.0002281704351)
(0.007152440038 -0.0005223320411 -0.0005237308055)
(0.01046173406 -0.0007185685599 -0.0001368904439)
(0.006165105037 -0.000589372825 5.030075341e-05)
(0.01218746974 0.000182156692 -0.0008446197373)
(0.006991503134 0.0002517493275 -5.088254484e-05)
(0.00752177706 -3.59789577e-05 -2.911863201e-05)
(0.005298849853 -0.0004250697201 0.000129897306)
(0.00737763653 -0.0002805999053 -0.0001376933357)
(0.009813881174 -0.0003805109739 0.0004435483368)
(0.005832925756 -0.000782768558 3.743456628e-05)
(0.00779070968 0.0002819693017 2.751689696e-05)
(0.01412858878 -0.0002884626408 -0.0006051495111)
(0.008765124835 0.0003309269253 -0.000358427862)
(0.006342981615 0.0005101467151 0.0001334407809)
(0.005783772169 -0.0001136178374 -0.0003634730648)
(0.008189930976 -9.979290083e-05 -5.854348087e-05)
(0.01041659139 0.0004843245397 0.0001970296404)
(0.007203810108 -0.0009866079251 -0.000689577257)
(0.006508471607 -1.613577195e-06 -0.0003320228391)
(0.007318011019 -0.0001998156633 0.0005985569018)
(0.005832803366 -0.0007005504098 -0.0001106250229)
(0.007777985058 0.0002040493536 -0.0001477704035)
(0.006294560841 -0.0004127917216 4.091856922e-05)
(0.007200879879 0.0001004605558 -0.0001408815585)
(0.00533802146 0.0002635393719 -0.0002063349362)
(0.006893750313 0.0005630481986 0.0004189935003)
(0.008889379541 0.0006804533619 -0.0003497190226)
(0.005620011553 -0.0003749971302 -0.0005259722834)
(0.007488083746 -4.007017906e-05 0.0004101982394)
(0.008890249051 0.0003988308578 -0.0006662779905)
(0.01542589993 0.0001580242356 0.0006429090393)
(0.006114705955 0.0005656643361 -0.0002788179521)
(0.003208448498 2.450054003e-05 0.0001088030473)
(0.008616136186 0.0001476098301 -0.0002262938415)
(0.007481508451 -8.471355798e-05 5.418648217e-05)
(0.007749265291 -0.0006882487935 -0.0002133541575)
(0.01242142679 -0.000165799686 -0.0005341335428)
(0.008446597689 0.0004815915278 0.0005390690603)
(0.007125069512 -0.0008034222538 -0.00127055818)
(0.005780753897 9.812860326e-05 -3.456897787e-05)
(0.009348484885 0.0002321903109 6.238048697e-05)
(0.004306700738 0.0004038438396 2.445639186e-05)
(0.006043210526 0.0007473033028 -0.0001031483207)
(0.01560360521 0.0009301192779 -0.0003437191379)
(0.006137445462 0.0003995310213 0.0004626035142)
(0.01019385249 0.0001773070143 -0.0003848328282)
(0.004988959069 -0.0002422061834 0.0001201731581)
(0.009194542242 0.0003416436702 -0.000242060538)
(0.008079153131 -0.000381519247 0.0007866979036)
(0.01209021914 -0.001010505472 -0.001260160311)
(0.008596194595 0.000546428855 -0.000255636237)
(0.01071189195 0.0008762005604 0.0003009303495)
(0.009864611969 -1.017878595e-05 0.0002209801281)
(0.01053002649 -0.0005047971066 -0.000348405358)
(0.003836627379 0.0006256999774 -0.0003771294917)
(0.008879947805 0.000421722543 -2.256156775e-05)
(0.009376173796 0.0004505137601 -6.492263768e-05)
(0.007175836031 0.0003940869451 0.0003049416047)
(0.006094671939 0.0001799767733 0.0002221860552)
(0.01258104747 0.0004551873584 0.0004387680018)
(0.00465700078 -9.618940451e-05 -0.0002096232317)
(0.00262714773 -0.0001920794714 0.0004959839306)
(0.005051138423 -0.0002396585757 0.0002528184305)
(0.0112344899 -0.0009419543202 0.0003778165108)
(0.009934833105 6.2272933e-06 0.001124917198)
(0.007581645897 -0.0002247642005 -5.313832817e-05)
(0.005543673248 -4.758397045e-05 -0.0001005130084)
(0.007045388807 0.0001426471605 -0.0001212882211)
(0.009994584507 -0.0001617823775 -0.001047923209)
(0.006905960908 -0.0005673437727 0.0007371461855)
(0.006584062732 -0.0001205074624 -0.0005656225374)
(0.006310383853 -0.0001227084199 -0.0002770021495)
(0.005792749366 0.0002137026839 0.0004938337349)
(0.01141471999 0.0002360458364 5.330305412e-06)
(0.009769605096 0.0008472922228 0.0002269747817)
(0.009487894688 -0.0004702193292 0.0003252097263)
(0.01585343496 -0.0004091144272 -0.000614300233)
(0.006723257703 0.0004918719075 0.0001492202191)
(0.004568177021 1.824056114e-05 -0.0001035217645)
(0.01002810674 -0.0007856033734 -3.125914978e-05)
(0.007101724418 -0.0003660182065 0.0003808724909)
(0.009564087915 -6.095077633e-05 0.0001635435924)
(0.005677226769 0.0003783964948 0.000453268228)
(0.009703416266 0.001176689703 -2.699942018e-05)
(0.00955881194 0.000728829867 -0.001153240164)
(0.006422783473 0.0002652685545 -2.787255503e-05)
(0.007536148521 0.0006392549993 0.0003304327516)
(0.008346420305 -0.0005313122753 -0.0002019702807)
(0.006910116264 -0.0005370011556 -0.000591582211)
(0.004703127023 0.0002631596022 0.0003089735534)
(0.007479414847 -7.274926126e-05 -0.0001636294615)
(0.009754864931 0.0007464299227 5.264134159e-05)
(0.01337453884 -0.001534153533 -0.0009466397131)
(0.009956388014 -5.261176926e-05 -5.188660617e-07)
(0.008087371304 -0.001088882407 0.0002927337111)
(0.006922542999 0.0004542744464 0.0002774659139)
(0.006991779328 -0.000565315645 4.22364584e-05)
(0.01063006802 0.0002690832385 -0.0004356416812)
(0.01045693889 -0.0002863420419 6.275452751e-05)
(0.0005673971182 5.206746912e-05 -0.0001127199004)
(0.007846819373 0.0004184879001 0.0005732629247)
(0.01017295609 0.0003319762832 -0.0002149010344)
(0.01374901852 -0.0006247691118 -0.000706212519)
(0.006416939621 0.0004706719763 0.0001974080744)
(0.003988355331 -0.0006086689922 0.0002145430678)
(0.005490139716 0.0003619438048 7.114706485e-05)
(0.005666681965 -2.26234136e-05 0.0004244362362)
(0.006359258018 -0.0001982555047 -0.0001057174746)
(0.00767835088 0.0004996165367 -0.0002673860682)
(0.008445285453 0.0004231583052 0.0008494060482)
(0.01267357052 -9.035106831e-05 -0.000702758285)
(0.009767553658 0.0001033131023 0.0002019528964)
(0.00500319536 0.0003100707063 -7.912942762e-05)
(0.005446595528 -0.0006643088711 -0.0003172168897)
(0.008692677305 -0.0001743389349 0.0001074463823)
(0.005653421277 0.0006147384701 0.0001031693919)
(0.007954562127 0.0001959427547 -0.0005429070011)
(0.008626522757 0.0002126897566 -0.0007998954141)
(0.01235745405 0.0006760281783 -0.000225556939)
(0.006969713107 -0.0005919762533 0.0001078822348)
(0.01178213384 -0.0008298813527 -3.592006944e-05)
(0.009828314157 0.0007972695024 -0.0003677812209)
(0.005640643007 0.0001708637201 -0.0004037470884)
(0.008316252117 9.410964142e-05 -0.0006176966262)
(0.009577119964 0.0007469817259 0.0006066613462)
(0.01251346257 0.000301833777 9.432706139e-05)
(0.004296597287 0.0005597892978 -0.0001362291303)
(0.01170590414 -0.0004928215162 0.0004010345499)
(0.005978630304 0.000173087854 6.179862573e-05)
(0.0100600743 -3.619930293e-05 0.0003670904781)
(0.008660929072 0.0001668329359 0.0008365309305)
(0.002518004764 0.0002669629316 -0.0001363856469)
(0.006765678202 -0.0003245053901 -0.000276161485)
(0.007552148228 -0.0004394020322 -0.0003538771366)
(0.01493004666 0.0007997427065 -3.015406942e-05)
(0.008319595411 0.0003722250466 5.115156417e-05)
(0.00511106067 0.000222637415 -8.486598288e-05)
(0.005950393551 9.827860415e-05 0.0001015718803)
(0.00883893246 -0.0002677373775 -0.0002903104221)
(0.01034608916 0.0003738424025 4.120191863e-05)
(0.00415545283 0.0001650653058 0.0002560739324)
(0.01085815558 0.0001426324468 0.0003837814649)
(0.007671173342 -7.439587602e-05 0.0003240061388)
(0.008636635067 0.0002414803283 -0.0004232479806)
(0.00876191488 2.725684634e-05 2.786792069e-05)
(0.008018149243 0.000403679065 0.0003646888196)
(0.005380686915 -0.000221296211 -0.0003595856397)
(0.01065718431 -0.0003957176939 -0.0003628100062)
(0.008519422991 -0.0003034108783 0.0001742755812)
(0.009874066356 -2.777182768e-05 -0.0002260161665)
(0.008247483093 -5.744249532e-05 -6.210077731e-05)
(0.01254388758 0.0006848219889 -0.001573172193)
(0.01207213525 8.867528967e-05 -0.0006044426949)
(0.009421011454 0.000806853841 8.912777819e-05)
(0.008279725939 0.0003919204263 0.0007948512575)
(0.007232096599 -0.0001109838758 -5.29049193e-05)
(0.01227087024 3.610565029e-06 -0.0005212241821)
(0.009795669903 -0.000345317975 -0.0001508030463)
(0.008302242436 -0.0001132503367 0.0003701898815)
(0.009867942975 6.251255736e-05 -0.0001308674779)
(0.01213497559 0.0001779874228 -0.000891906877)
(0.01158538368 0.0006650586265 0.0002960606149)
(0.01243875363 -0.0002646995487 -0.0004616947511)
(0.006404097562 0.0001220963829 -0.0002572370312)
(0.00971259759 0.000143504897 0.0004171409779)
(0.007661920744 0.0007927414465 0.0007797099192)
(0.00744958724 0.001035881018 -0.0002493393235)
(0.005085329428 0.0003790045046 0.0004227070395)
(0.005491395357 0.0004077503112 0.000229392628)
(0.01008095478 -0.0007083156459 0.0007511576476)
(0.006188790542 -0.0002046354726 0.0002662666193)
(0.007018586401 3.371888794e-05 -0.0001235617692)
(0.009570924655 0.0003114918962 -1.214060561e-05)
(0.005641187747 0.0001717403409 -0.000330355445)
(0.007713873678 -0.0002054735293 0.0007717649167)
(0.01040878919 0.0005336255399 0.0004344151094)
(0.01368378295 0.0002321348016 0.001057394648)
(0.01016150777 -0.0009776717158 -0.0004187577203)
(0.006045364972 -0.0003369291243 -0.0003419144212)
(0.006397712805 -0.0003779993459 -0.0001630382464)
(0.005354387848 -0.000132677571 -0.0004592863846)
(0.004345002489 -3.102205971e-05 -6.275267068e-05)
(0.01032062205 0.0007327411288 0.0004230441033)
(0.008609480657 0.0003674206958 0.0001907559943)
(0.01170120022 -0.0005983752332 0.0006507915079)
(0.007795919754 -0.000209357499 -0.0009518337)
(0.005250812134 0.0002861158331 -0.0008539665029)
(0.008677268337 -0.0004284361002 0.0001225647897)
(0.0104620587 0.000399918304 0.001198327829)
(0.006777491886 -0.0003300378176 -0.000615044921)
(0.006720736866 -6.055666748e-05 -0.0003379180068)
(0.01979804319 -0.0008974246643 -0.001406851545)
(0.005300212686 -0.0001076985082 0.001377135953)
(0.0037584553 -0.000546069775 -0.0002581904872)
(0.01046785281 -0.001429769068 0.000260395919)
(0.005759436921 0.0002853817572 0.0004259091515)
(0.003283681797 0.0001102764696 -9.132412656e-05)
(0.01420558847 -0.0001215750716 -0.000164686594)
(0.009887860864 6.254152818e-05 0.000254742177)
(0.00811671984 0.0005113080989 -0.0002478671047)
(0.01131954168 -0.0002377538224 0.001485433997)
(0.01286786878 -6.779184326e-07 -0.0001780169906)
(0.008120876792 -0.0005352656842 -0.001041953879)
(0.005598974459 0.0006054276044 0.0001807038656)
(0.006837344819 -0.0003859206811 0.0001631597653)
(0.01164198888 -0.0002606103797 0.0001832756924)
(0.005279887349 -3.163868828e-05 -0.0004298382273)
(0.006683581089 0.0002888950711 -0.0006013240899)
(0.01152370013 -0.0004247250283 -0.0006166768964)
(0.009361745559 -7.409402959e-05 -0.000780304857)
(0.006797934047 -1.772459312e-05 0.0002102213171)
(0.005069320799 0.0003729679454 -4.550138324e-05)
(0.01110551097 -4.168584351e-05 0.0002570169732)
(0.002774415823 -2.210682431e-05 -0.0001679278128)
(0.006083044787 -0.0004669062901 0.0003944774638)
(0.007823572013 -0.0009409767926 7.790291754e-05)
(0.009431624013 5.747978107e-05 -0.0005801089241)
(0.0106806391 5.139600249e-05 -0.0002003683054)
(0.007850525047 0.000225838351 -0.0004632086325)
(0.005984646446 0.0006061494659 -0.000431112478)
(0.004814367876 -0.0001009701642 0.000188852614)
(0.01235959646 -0.0001524721572 -3.693992738e-05)
(0.01112510485 -0.0001939943053 -0.001148919722)
(0.01263396721 0.0008807428934 -0.0002902532005)
(0.009666592151 -0.0003326862733 -5.339872503e-05)
(0.006660191519 0.0004349118499 0.0009241334105)
(0.006046070069 0.0004007477632 -0.0005553144742)
(0.009614372353 0.0002836698506 0.0004852372342)
(0.006832923836 -6.048728669e-05 0.0003514237553)
(0.009661651082 -0.0003153408112 0.0001692245373)
(0.008570335135 0.0002616941467 0.0004454240645)
(0.01225443447 -0.0005381091708 0.0003855164417)
(0.007174508654 0.00045094197 0.0007323462607)
(0.01018199196 0.0004417895855 -0.0004719987331)
(0.008470427954 0.0002802562182 -0.0003239992011)
(0.00688181909 3.757740164e-05 -0.0001868220801)
(0.006752888996 -0.0003180423013 0.0001713875349)
(0.01155639699 -0.0003535020778 -0.0002171568172)
(0.008710876413 0.0008116680575 0.001050191461)
(0.004752123293 7.743692338e-07 0.0001003433488)
(0.01055385666 0.0002219625889 -0.0008298605197)
(0.009823183729 -0.0002933354644 0.0003134360166)
(0.006745368486 0.0005228967655 -0.0001018201768)
(0.008750151246 -0.0003040331556 0.0005696082046)
(0.006280677662 -0.0007681154192 -8.997792754e-05)
(0.006590728557 0.0004731429659 0.0001591209071)
(0.004838598719 -0.0002148914093 -0.0002878388938)
(0.008009714395 0.0005113496821 -0.0003362691049)
(0.009838623436 -0.0005030293983 4.177086081e-05)
(0.007351490308 -8.610141336e-05 0.0002727370883)
(0.009305120813 -0.0009271838686 -6.521370847e-05)
(0.009496528926 0.0009856606692 -0.0003347075798)
(0.007192634978 0.0003300456907 -0.0001287298745)
(0.00454306661 0.0003532867007 -0.0002409039987)
(0.009648479231 -0.0003800754471 -0.0002993378446)
(0.01095800285 -0.000108774793 -0.000151896741)
(0.008594534603 8.464893531e-05 0.0005151318101)
(0.005879759429 -0.0005141617315 0.0001213019931)
(0.01614230029 0.0003148129991 0.0003806694528)
(0.006172247895 -0.0002686377846 -8.964725227e-05)
(0.01008383501 -0.0006665628096 6.456639017e-05)
(0.006287338804 -0.000189791835 2.970039741e-05)
(0.004583963051 0.0002866760965 0.0002161774862)
(0.009021730173 -0.0005946272216 0.0003092119625)
(0.002593597314 -6.254146548e-05 0.0002451786623)
(0.007554893211 -0.0007551672448 0.0002775940312)
(0.008264307206 0.0002166211779 -0.0001114893068)
(0.007420793601 -0.0001784219085 -0.0002662752808)
(0.007321806604 0.0001307519734 0.0001027453979)
(0.01033799083 0.0003507100537 0.0005966626617)
(0.008823271864 -0.001089595283 0.0001027828773)
(0.01024716693 0.0002065835975 -0.0002268743747)
(0.009341671836 -5.744053714e-05 -0.0002776163076)
(0.007802202165 0.000159273506 -0.000376903152)
(0.00626396961 -0.0004740757402 8.727607273e-05)
(0.007287260889 -0.000468042679 -0.0001102167026)
(0.008066304659 -0.0006516820796 -0.0004076307875)
(0.005368212103 -0.0002246084127 0.0001172962872)
(0.005945839633 -5.061541868e-05 0.0003315008768)
(0.0139151883 0.0004785710287 1.871327496e-05)
(0.005415472188 3.854401423e-05 -0.0002813492957)
(0.005790197441 -0.0001568194599 -0.0002303652583)
(0.005258284872 -0.0007885928123 0.0002522317165)
(0.009887068374 0.001325188006 -9.931706571e-06)
(0.007620328687 0.0003816307002 8.208208316e-05)
(0.01067891985 0.0002078100751 -0.0005560143036)
(0.005335521986 0.0002234940906 -1.129948893e-05)
(0.007568692788 0.0006582575679 0.0002573087173)
(0.007447257401 -0.0001096405319 7.879025641e-05)
(0.008943008563 -0.0003233843043 -0.0006191090147)
(0.01036597975 0.0003230541403 -0.0006978988896)
(0.007813345348 6.533447787e-05 0.0001717379193)
(0.006404310244 -0.0004325572717 -0.0003237563861)
(0.01015873218 0.0004637025429 0.0001195767321)
(0.00563940323 0.000540886954 0.0003083197823)
(0.008992389507 9.401615598e-05 -0.0005745532691)
(0.006337895922 0.0002242770764 4.606606493e-05)
(0.01050185942 0.0001673117538 0.0003363676422)
(0.009585935035 -6.067145954e-05 0.0005219009785)
(0.01061194109 -6.105161694e-05 0.0005283561238)
(0.004207680727 6.066077024e-05 -0.0004476276323)
(0.006160585381 -0.0003536646927 0.0004279217217)
(0.01087341438 -0.0001329489211 1.612037327e-05)
(0.005970174546 -0.0001590404775 -0.0006472436167)
(0.009698280509 0.0005047353864 -0.0003834228466)
(0.004548063628 0.0001815746141 -0.000688590789)
(0.00748217749 0.0001877547221 6.03562414e-08)
(0.006560220464 -9.155651352e-05 3.785161058e-06)
(0.006873784813 0.0003216120896 0.0002757375416)
(0.005676442202 -0.0001773242517 -5.071763549e-05)
(0.004529552911 1.660317505e-05 0.000296156684)
(0.009183936356 -0.0002456146617 -3.622546702e-05)
(0.006533963699 -0.0005622637915 -0.0004517878956)
(0.007179968367 -0.0006108131587 0.0003573818937)
(0.008214529134 0.00071606941 -0.0003338287461)
(0.004007681924 0.000665321767 -0.0002769602685)
(0.01635456308 -0.000960923393 -0.0005927924486)
(0.005697798714 0.0005015457848 -0.0004355744787)
(0.008137243958 0.0001292798378 -3.617331915e-05)
(0.005952774706 0.0003201775447 0.0001314813756)
(0.00949612009 -0.0009308631727 0.0004433562284)
(0.01002546157 -8.919100822e-05 0.0008046972051)
(0.008741033706 -0.00030740693 -0.0005364085095)
(0.008128743426 -0.0008260794992 0.0002430396896)
(0.01009377132 -2.973286052e-05 0.0002679728671)
(0.005093093192 0.0002641585182 -0.000341849977)
(0.007458075111 -0.0003726916861 0.0005054264393)
(0.003185712487 -0.000753992133 9.469982634e-05)
(0.01319393076 0.0007486203625 0.0008319769652)
(0.00801210708 -0.0001933833879 -0.0002361044638)
(0.01063881285 7.73148673e-05 -6.399742273e-05)
(0.008248748034 -0.0002318823986 0.00062274094)
(0.00885129913 0.0007896772334 -0.0002368995514)
(0.009116336147 0.001072041959 0.0002223089816)
(0.009065600891 4.367176751e-05 0.0004470868322)
(0.00933077882 -0.0002679886697 -0.0002203209595)
(0.004996453327 -0.0001863860072 0.0002146089521)
(0.003751101253 0.000329070737 -0.0002116346623)
(0.01059541367 0.0002195803352 0.0002559593015)
(0.004925941819 -0.000430666281 -2.280619698e-05)
(0.00486459601 0.0001846894197 -0.0005162851647)
(0.01429743228 0.00027944806 -0.001055213306)
(0.006288941407 0.000437153904 9.908781202e-05)
(0.009862317438 -0.0001433310922 -0.0004080940722)
(0.01013501323 0.0005349734748 -0.0007026988879)
(0.009733807168 -7.408187583e-05 -0.0008752975664)
(0.009918270879 -0.0003970452859 -0.001170557171)
(0.008393689154 0.0004011439098 -0.001339076914)
(0.009139423253 3.953509509e-05 0.0004925976863)
(0.006084179687 -0.0005009241492 -0.0001463662718)
(0.0108395462 0.0002205946161 0.0001998345535)
(0.01050815751 0.0003799773345 0.001358442567)
(0.003760221751 -0.000351241638 -0.0004009391706)
(0.003663692593 -0.0001705567336 -0.0002501022864)
(0.01055056539 -0.0002522948081 -0.0001485750009)
(0.008763882228 0.000426078943 0.000357875488)
(0.01042663298 -0.00110300097 -0.0005968425792)
(0.009740370014 0.000341134365 -0.0001039071403)
(0.006709072434 -0.0001600573738 0.001310588733)
(0.007072344317 -0.0003903341464 -0.000535393363)
(0.01201032436 -0.0005987483743 -0.0001479686192)
(0.01006151023 0.000161536995 -0.0001582271192)
(0.008252603312 -0.0002956163441 -0.0006067427021)
(0.004267923877 2.315040876e-05 0.0006462683944)
(0.01138811934 0.001047769035 7.566604733e-05)
(0.006560241501 -4.934187869e-05 0.0004906455295)
(0.01014166177 0.000937150234 -0.0007387797299)
(0.002569390398 -0.0005100546357 -0.0003012491014)
(0.007303975846 0.0007362714338 0.0003712923145)
(0.001765438875 0.0001859053304 0.000226195753)
(0.008275374871 0.0003792802686 6.715259246e-05)
(0.006377338762 0.0005711280521 -1.521083438e-05)
(0.01044611652 -0.0005703153347 8.081502509e-06)
(0.01618719892 0.0003556684369 -0.0006355770793)
(0.006762103863 0.0007672838848 0.0005805665577)
(0.003484159767 -1.91108695e-05 0.0005543892797)
(0.01042986005 -0.0007644977567 0.000238290751)
(0.004991867171 0.0001178656934 -0.000336237485)
(0.008113236654 -5.968333683e-05 -0.000221496195)
(0.009886990017 5.763971214e-05 0.0001380643465)
(0.008067735869 0.0001044697077 0.0001001444322)
(0.0034098246 0.0002837462048 -0.0003623205377)
(0.0052193412 0.0002374082342 0.0003166638101)
(0.003556440082 6.435133121e-05 -0.0002363948919)
(0.005451559128 -0.0004153211387 -6.473135594e-05)
(0.00993987375 -1.206015951e-05 0.0002986113568)
(0.005762019755 -8.447781622e-05 0.0001680954207)
(0.01454616027 -0.0004626330842 0.0003308827266)
(0.004221633909 0.0002272296177 6.340034702e-05)
(0.009600542818 -0.0003892160798 -0.0002650798003)
(0.007544421675 -0.0002131752363 0.0002803570771)
(0.004859417215 1.286287881e-05 0.0004053500821)
(0.003658337884 -4.293729357e-05 -0.000141769745)
(0.01051968965 -0.0006465720992 0.0003548717591)
(0.009664026898 0.0003381701228 0.0001004387745)
(0.009984902188 0.0002957428462 -0.0001467183915)
(0.005220664698 -0.0005718831031 -0.0006004900019)
(0.01242280931 0.0006668386113 -0.0007435535278)
(0.01323872455 0.000458867554 0.0009197068175)
(0.009873135482 -0.0002590194522 0.0006478108413)
(0.008686747103 -8.074211261e-05 -0.0005273588151)
(0.00252196642 -2.462308692e-05 -0.000143369829)
(0.006756377535 0.0005398159657 -0.0001440918377)
(0.01074725294 0.0002448500277 0.0002034699682)
(0.006175654613 -5.947097762e-07 0.0006189414712)
(0.01134387358 -0.0007281025274 -3.145908527e-05)
(0.004487811415 0.0001533411695 0.000172613246)
(0.01260013991 0.0003276692795 -0.0008118740085)
(0.008330771441 -0.0004308520755 -6.615323866e-06)
(0.007646192476 6.492905329e-05 -0.0005670051781)
(0.008766847241 0.0003647278537 0.0001149240895)
(0.007780229642 -0.0006968802793 -0.0003803997547)
(0.008808774021 0.0001588134085 -0.0001555181367)
(0.004467211694 0.0001498992057 0.0006775445783)
(0.009390397313 0.0002161674456 -6.76306926e-05)
(0.01366260671 0.001103609169 -0.0005548992422)
(0.01179124341 -0.0007806051029 -0.0002070628114)
(0.005106481419 0.0004402303553 0.0007767908227)
(0.01230433141 -0.0003836557995 0.000330864725)
(0.008193445974 0.0008212972624 0.0005724529422)
(0.0113519556 0.0004723654058 -0.0003050068126)
(0.007184730017 0.0005257464473 3.31105726e-06)
(0.005861962581 -0.0008457098722 -0.0002453019004)
(0.00768173689 0.0004195987031 -0.0003606913439)
(0.007903067549 9.03777785e-05 -0.0002057585191)
(0.008587445219 -0.0006382960914 7.622460688e-05)
(0.006281827079 0.0004003928894 -1.566747914e-06)
(0.003747990571 0.0002920904115 0.0003009812787)
(0.008833468403 6.305201558e-06 -0.0008278589494)
(0.007844120322 -0.0004741621916 0.0002775825445)
(0.009903291067 0.001463827176 0.001083314258)
(0.005043794755 -0.0002148813062 3.299301661e-05)
(0.01027114131 -0.0005099147397 0.001150036366)
(0.007993703172 -0.000603134829 0.0001669680147)
(0.008898452412 -0.0004320032366 0.0009902733656)
(0.01310793601 -0.0008994534594 -0.0002196273704)
(0.01038653322 0.0001975474475 -0.0001200063914)
(0.008059879724 -0.0008244542519 0.000806778453)
(0.007532076175 -0.0002306535239 0.0003584257439)
(0.006757811805 8.894684878e-05 -0.0001466699069)
(0.007489217131 -0.0002892697303 0.0005266954903)
(0.008727492098 0.000181451258 -0.0003025724903)
(0.007927675427 -0.0001575292494 -0.001264857635)
(0.006976552544 0.000812451336 -0.0004166362325)
(0.009343821609 0.0001620556328 0.0003814470204)
(0.006277903911 9.682207904e-05 0.0002151416249)
(0.006532489004 0.0003708526551 2.055180789e-05)
(0.008860809016 0.0002174450597 0.0001186701835)
(0.005399489026 4.518499256e-05 -5.358899252e-05)
(0.0110433179 -0.0002908233755 -0.0006849637633)
(0.01654767118 -0.0003478063423 0.0003509231074)
(0.005045684895 5.747092654e-05 -0.0009803643633)
(0.01321095337 0.0003204392766 -0.0005363814895)
(0.008867508779 0.0002976282294 -0.0006872996701)
(0.006419496038 -0.0006552668071 0.0004979314996)
(0.00720103015 -0.0008685522617 -2.738096515e-05)
(0.009772212254 -0.0001067835251 -0.001293310993)
(0.008244706837 -2.106918478e-05 0.0003951575228)
(0.01385352278 0.0002611513953 0.0009635928731)
(0.006776345007 -0.0009459560878 -5.871765899e-05)
(0.004324049721 9.229118024e-05 -0.0003759288905)
(0.008205841652 1.127378436e-05 -0.0006253270333)
(0.01100607624 -2.778793658e-05 -2.241804085e-05)
(0.009273520114 0.0003183693847 -0.0004011978738)
(0.00568106442 0.0002640832522 0.000299661366)
(0.001930250087 0.0001393237227 7.19135208e-06)
(0.01197326758 -0.0005293508042 -0.0004298117831)
(0.006362989204 5.579323687e-05 0.0007528621288)
(0.009544364642 3.854528553e-05 0.0001941300597)
(0.009222257586 -0.001085592682 -0.0002755580408)
(0.01033388865 -0.0006502336235 -0.0002705366931)
(0.008556709058 0.0008062683457 0.0004154078127)
(0.006713465318 -0.0002257051749 0.0003107795008)
(0.00220845367 0.0001608716072 -2.466923623e-05)
(0.00684705946 -0.0004249632004 4.805640145e-05)
(0.00807749505 0.00106378832 -0.0003377472508)
(0.009929190822 0.0008358983372 -0.0001774158745)
(0.008116686478 -8.923797107e-05 1.526054906e-05)
(0.005283167957 0.0006740829229 -0.0003321090902)
(0.00727430014 -0.0006883927379 0.0003963908912)
(0.006195673333 -0.000170205168 0.0003927901792)
(0.011126757 -0.0006781253149 0.0002550649423)
(0.007937248503 -0.0005860603781 -0.0001582227197)
(0.007085505992 -0.0004718147802 4.716398155e-05)
(0.007782057356 -2.071184657e-05 -0.0002589229212)
(0.01181617723 -4.798226097e-05 0.0003334703707)
(0.008376796294 0.0001004389998 0.0002258615341)
(0.006906956227 0.0002165628389 5.630799436e-05)
(0.002786254669 -2.198675253e-05 -0.0001205388763)
(0.006743177601 -5.19005262e-05 -0.0001512842155)
(0.007894320111 0.0002951720383 0.0004087109222)
(0.004631742548 -7.969299001e-05 0.0001324906272)
(0.01213497285 2.917965687e-06 0.0004069942267)
(0.007255992371 -0.0001397703345 0.0004674222913)
(0.006107054643 -0.0002542580979 0.000193271456)
(0.01079986326 -0.0006418159026 0.001299157516)
(0.009150595216 0.0001944048437 0.0002561470839)
(0.006838774569 -0.0003018819331 -0.0001867529587)
(0.005381987033 0.0005066980009 0.0001821718665)
(0.01454670854 -0.0009045707887 0.0005558923575)
(0.003979414012 -0.0006132833915 -5.011541115e-06)
(0.005858001669 -0.0005832748871 0.0001808765766)
(0.01092027106 -0.0004564846656 -0.0001368557013)
(0.009853697066 0.000544195394 0.0007822017152)
(0.009595941706 -0.0001159871853 -0.0001845636354)
(0.005266725533 0.0002428309357 0.0003747480946)
(0.009195819265 -0.0005809526539 -0.0004353053791)
(0.009854679393 -0.0004284005569 0.0007939392434)
(0.009156208249 0.0003276227612 0.001251817028)
(0.004557757825 -0.0002437404322 0.0003126192864)
(0.006908220204 -0.0003884678814 6.187909366e-05)
(0.01030021156 -0.0002767953152 -4.55115669e-06)
(0.008438804144 -1.811918358e-05 -0.0008103241205)
(0.01047671843 0.0005251412312 -0.0002265263473)
(0.01081861619 -0.0005116620002 0.0002286587597)
(0.01190753526 0.000895776591 0.000395820951)
(0.01037612534 -0.001193666843 0.0004483780944)
(0.007091320065 0.0001588385402 0.0002609202971)
(0.008713044455 0.0005417714464 0.0001945183364)
(0.01231310186 0.0002982639223 -0.0005054318072)
(0.005694563383 0.0002858470743 0.0003354974934)
(0.006907612949 -0.0009425538636 0.0005838314275)
(0.008801974258 0.0005513430678 -9.752818891e-05)
(0.01023770378 -0.0002873115998 0.0001968666204)
(0.00565178853 0.000293928866 0.0003332926793)
(0.008541580767 -0.0008294199108 -0.0009645491497)
(0.01407386483 -0.0002646343189 -0.0008197119458)
(0.01022599353 0.0003806011315 -0.001005245382)
(0.009166284744 -0.0002580595731 0.0001755526314)
(0.008355083035 0.0001798297707 -0.000565257754)
(0.01118008944 -0.0007059664568 -0.0004402988687)
(0.007925357261 0.0007411244443 0.0002016783175)
)
;

boundaryField
{
    flow
    {
        type            zeroGradient;
    }
    obstacle
    {
        type            calculated;
        value           nonuniform 0();
    }
    frontAndBack
    {
        type            empty;
    }
    procBoundary2to0
    {
        type            processor;
        value           nonuniform List<vector> 
31
(
(0.004592447688 -0.0003629268564 6.361225015e-06)
(0.01019056888 -0.0002669871044 -0.0002746162099)
(0.00495680926 0.0005120330287 0.0001735858357)
(0.00959579174 0.0005977242657 0.0004304206517)
(0.01000085104 0.000831102468 0.0005052066532)
(0.008298000872 0.0002398622842 -6.60870121e-05)
(0.007635335626 -0.0003118271669 0.0006977786945)
(0.01509873845 0.0007342670533 -0.0003145229021)
(0.009737562501 0.0004003395047 -0.0001365196355)
(0.006856243391 -0.0003434457163 0.0002013330329)
(0.01081830974 0.0004211005344 0.0001671848569)
(0.007927496181 0.0003327256888 -8.750993058e-05)
(0.00984743243 -2.008985458e-05 -0.0002186918478)
(0.01083038244 -0.0009102559161 0.0004590045854)
(0.009677386989 -0.0003882460446 -0.0003489122099)
(0.01036180478 -4.514146006e-05 -0.0003044264775)
(0.008078009053 -5.528422651e-05 0.0002829187228)
(0.008859631636 -0.0001051309638 0.000449397943)
(0.008858183881 0.0005597031641 0.0003795548644)
(0.00748021839 2.851139358e-06 -0.0001692363074)
(0.008131799266 0.0002790355855 -6.499769019e-05)
(0.007997400632 0.0003715460583 0.0003723309462)
(0.006186627191 -0.000419667021 0.0001532908426)
(0.005808601554 -0.0002479401753 0.0001443354151)
(0.00950406728 0.0001025797781 -0.0004520470149)
(0.007121514649 0.0004754886964 0.0003597985469)
(0.005848332849 0.0003692075161 0.0003470303713)
(0.006976714963 -0.000114332885 -0.0001934392178)
(0.008109773404 0.0008136006616 0.0006640109733)
(0.00687094727 -0.0002036905622 0.0002463819071)
(0.00687094727 -0.0002036905622 0.0002463819071)
)
;
    }
    procBoundary2to3
    {
        type            processor;
        value           nonuniform List<vector> 
19
(
(0.009045471498 0.0001104637317 0.0001780148203)
(0.005933366352 -0.0007330382095 -0.0006168056822)
(0.005983646935 0.0006450687338 0.0007773125025)
(0.01282675379 -0.0005016704897 -0.001076705216)
(0.01028822814 -0.0002702376103 0.0004384135433)
(0.004905777094 0.0002121127239 0.0007536089755)