/*--------------------------------*- C++ -*----------------------------------*\
  =========                 |
  \\      /  F ield         | OpenFOAM: The Open Source CFD Toolbox
   \\    /   O peration     | Website:  https://openfoam.org
    \\  /    A nd           | Version:  7
     \\/     M anipulation  |
\*---------------------------------------------------------------------------*/
FoamFile
{
    version     2.0;
    format      ascii;
    class       volVectorField;
    location    "0.009";
    object      momentum;
}
// * * * * * * * * * * * * * * * * * * * * * * * * * * * * * * * * * * * * * //

dimensions      [1 -2 -1 0 0 0 0];

internalField   nonuniform List<vector> 
546
(
(-0.0005706065653 -0.000986140679 0.0005795849409)
(0.0009486913296 0.0008418459401 0.00055432168)
(-0.0003226023946 0.0001103794499 -0.0001763300788)
(0.000266466985 -1.979766968e-05 -0.0001925187856)
(-7.224752397e-05 5.562553388e-05 9.337823489e-05)
(-0.0001360825755 6.616256683e-05 7.5631795e-05)
(0.0001122842161 0.0003047035371 -3.49680149e-05)
(-6.944218144e-06 -0.0003920750419 -7.378618242e-05)
(0.0002199391893 -0.0008704478148 0.0001821123867)
(0.0002180125899 0.0004396095845 -0.0008211470174)
(-5.632996884e-05 -2.344760176e-05 -0.0004249616672)
(-0.00125354719 -0.0003113547578 0.001367166263)
(0.0005036361176 -0.0002892011474 -0.0001875382379)
(-0.0006550818817 0.0001606178811 7.476629966e-05)
(-8.498558805e-05 -0.000179859244 -0.0003970575697)
(-0.0007765716123 -0.0006412416219 -0.0003319598414)
(-2.093651734e-05 0.0002808876403 6.013604653e-05)
(0.001328950215 -0.0005740330037 -0.0004444917571)
(-0.0004650532167 0.000361273097 9.726688291e-05)
(0.0001438722934 -0.0001282998048 0.0002543549514)
(-0.0002096844668 3.004745472e-05 -0.0004394154397)
(0.0004541504037 -0.0003168750467 -0.0002082014122)
(-0.0001354381393 0.000402784657 -7.507056885e-05)
(3.622881887e-05 1.964852605e-05 0.0001954718487)
(-0.0001483720396 0.001000028185 0.0003890531127)
(-0.0001673612396 -0.0005596300193 -0.0001907819317)
(0.000414601192 -2.738634857e-06 0.0005156035997)
(0.0001257612054 -2.21862018e-05 0.0001588992614)
(0.001013358189 -0.0002043349667 -0.0002958484718)
(-0.0002449035936 0.0001266258301 0.0004217881815)
(-0.0001282442823 -0.000203295479 -0.0003146476044)
(-2.161250995e-05 6.114601394e-05 -0.0007461358878)
(0.0003481334675 -0.0003770658919 0.0004854478892)
(-0.000420324792 0.000496177062 -0.0008254640054)
(-9.486454766e-05 0.0005309465984 0.000377987375)
(0.0004002104249 0.0003455605082 0.0001149710653)
(-7.415839546e-06 -0.0006572271335 0.001256734506)
(-0.0001322355565 0.0003522695303 -0.0002243347497)
(-0.0002901160884 6.765925945e-05 0.0008196733535)
(-0.0002967172092 -0.0003425252717 0.0001275738997)
(-0.0004618836338 0.0001347864658 0.0004045290382)
(-0.0004639922625 0.0001939789421 0.0003285865073)
(0.0002403140072 0.0003031317283 0.0004391151471)
(-0.0002597225201 0.000619851621 -7.406273776e-05)
(-0.0007322028278 0.0006260140538 -0.0004565779388)
(0.0004111676257 0.0004342835328 -2.487233891e-05)
(0.0004188838529 -0.0005026850198 4.187450746e-05)
(-0.0006543556638 1.648377281e-05 1.009454534e-06)
(-0.0001630130935 0.0007148468994 -0.000301047599)
(-0.0002060390889 0.0006306832996 -0.0001661013233)
(-0.0001969069033 -0.0001243324417 0.000268158125)
(-0.0005890421063 0.0004025923936 -0.0007118927788)
(-3.147240132e-06 0.0006390282729 3.260994134e-05)
(0.001003806192 -0.000642204077 0.0004670540483)
(0.0002814181689 8.519797052e-05 0.0001793398771)
(-0.0001613648556 0.0003542475335 0.001120358119)
(-0.0003960305393 0.001380788784 0.0005667173919)
(8.444167443e-05 3.351396453e-05 9.666069157e-05)
(-2.156394803e-05 0.000607034574 0.001179311522)
(0.0006101823945 0.0001242645605 -0.0002829807484)
(0.000286970286 0.0001531639332 0.0008608153882)
(0.0006123092521 -0.0001838554873 -0.0002098393139)
(3.421937644e-06 0.000231243647 -0.0002274057537)
(-0.001085543403 -0.000221999803 0.0001829180028)
(-0.0003866979137 0.0004857389139 -9.084692612e-05)
(6.037277701e-05 6.207338352e-06 0.0002584825153)
(0.0005046193627 0.0005044804864 0.0007148819504)
(-3.253283347e-05 -0.0002267420738 -0.0005287815451)
(-0.0003614224885 7.192704259e-05 0.0001952755005)
(9.571951379e-05 -0.0001761682252 0.0002650317005)
(7.902280118e-05 -0.0003782090159 0.0001688506938)
(-4.560480537e-05 0.0004115313618 0.0004465013096)
(0.0002293416316 -0.000177255221 5.06376369e-05)
(-0.0009582300258 -0.0006838399687 -0.0003988951094)
(0.0008541758637 0.0007385015523 0.0009264948484)
(0.0007188241108 -0.0004429977838 -0.0004053441425)
(-0.0004295728848 0.000236575823 0.0003945725257)
(-0.0006516793261 -0.0008028604823 0.0002208835186)
(-0.0005146386189 -0.0001445745266 -0.0002531432262)
(0.0003474818436 0.0003164173273 3.866522566e-05)
(-0.0002445901581 -0.0006445795168 0.0008234844657)
(-0.001248144017 -0.0005136402951 6.343735823e-05)
(-0.0003095824028 -0.0008712935602 -7.901353153e-05)
(0.0006895392837 -0.0004942647051 1.110885006e-05)
(-0.0007663234044 -0.0004211574062 -0.000197338896)
(3.100110387e-05 -0.0002329003715 -0.0001340241637)
(0.0003685576707 0.0007591650624 0.0001112513046)
(0.0005377137833 0.001052116688 0.0003719112102)
(-0.00030659603 0.0003788512215 -9.23331839e-05)
(0.0002335503524 0.0003373434334 1.786679688e-05)
(0.0006822995101 -0.0001811156109 -0.0001886911436)
(0.0003439338481 -0.0001792327242 -0.0002348278316)
(0.0009177909256 -0.0002707420311 -0.000116742675)
(0.00129950753 0.00018261556 -3.975774529e-05)
(0.0003857110177 0.0002787287239 -0.0001572022568)
(-0.0005068424095 0.0001236008201 9.953911173e-05)
(-0.000616252379 0.0005230557585 -8.788180758e-05)
(0.0008790407021 -0.00151077705 0.000507715288)
(7.164933801e-05 -0.0001340369874 -0.0003756847807)
(-0.0002737186947 -9.220237753e-05 -9.224459631e-05)
(0.0005114672689 -0.0004204385222 0.0005161628627)
(-0.0004013811055 0.0001038347204 -0.0006540742796)
(-0.0005789109155 -0.0002879613156 -3.047580051e-05)
(-0.0003536957359 0.00085660575 -4.115601311e-05)
(-0.0008443469955 -2.742045164e-05 0.0001601856587)
(-0.0005407940498 0.0001175902646 0.0004110431866)
(-0.0006187659182 2.554008312e-05 0.0002618980611)
(-0.0003229127456 -0.0001938347281 -0.0005729695225)
(-7.962033753e-05 0.0002220936173 0.000489425541)
(-0.0002689011091 -0.0008671593999 -4.1676285e-05)
(-0.0002244322371 0.0003470760104 0.0005100531232)
(2.694708435e-05 -0.0006508212241 0.00121342029)
(0.00039777663 -8.169473699e-05 -5.588138469e-05)
(0.0004017336632 -0.0003442638168 -0.0003028184602)
(-0.0005355258385 0.001256544302 -5.369239074e-05)
(-0.0003557799295 2.047022826e-05 -0.0003672414919)
(0.0006343411234 -0.0004966753365 0.0001645271357)
(0.0003269441295 -0.0001464462916 -0.0007662901429)
(0.000200216596 -0.0001763688856 -0.0002950470391)
(-0.0001776582647 -0.0003940905895 -7.28769606e-05)
(0.000379081817 -0.0005607447977 -0.0006243623383)
(0.0002235551986 8.648325751e-05 0.0002250879706)
(-0.0001136987423 0.0001339545253 -0.0001176930164)
(0.001164990192 0.000590409736 7.882366044e-05)
(0.000211063206 -0.000543285794 -5.406535578e-05)
(-5.393338067e-05 -0.0002668006904 -0.0001209555192)
(0.0002502153678 -0.0007103528782 -0.0004006285699)
(-0.000509409392 -0.0003023180341 7.153615374e-05)
(0.000589218378 -4.828767128e-05 -7.424786228e-05)
(-0.0001465518483 0.0006579608697 -0.0004603688535)
(0.0003464542214 -8.241475601e-05 -0.0002451289033)
(0.0002843576519 0.0005094797431 0.0007442691057)
(-0.0001670245918 0.0003614864327 -0.0003098774247)
(-0.0002104739061 -0.0003855738043 0.0001015462172)
(-8.001569515e-05 0.0007233861134 -0.0003541082886)
(1.562171987e-05 -0.0003458422448 -4.023373597e-05)
(-0.0006822517843 -0.000797264902 -0.0007002031493)
(-0.0001090549614 -0.0001060313531 -0.0007446169407)
(2.025964114e-05 0.0009470624701 -0.0004252429726)
(-0.000271670314 0.00052123639 6.575193567e-05)
(0.000225957979 0.0005876896994 6.280048048e-05)
(-1.527776153e-05 -0.0001022369642 0.000572827537)
(2.107494569e-05 4.375074409e-06 -0.0006942046781)
(0.0004765391398 0.0009513874806 -0.0007714534362)
(9.651922287e-05 0.0007924372004 0.0004855989402)
(-0.0006538186272 0.0002588989153 7.439566466e-05)
(-0.0002200383301 -0.0008139908897 0.0002563017595)
(-0.0001561160004 6.74956947e-05 -0.0002366163545)
(0.0004008990084 9.161946275e-05 -0.0001852622731)
(0.0001670513604 0.0001889196443 -0.0001462320285)
(0.0003608062327 -0.0003059873449 -0.001194201781)
(-0.0009561998417 0.0003678495959 -7.077698841e-05)
(0.0005327339654 0.0004370663894 0.0005945558547)
(0.0009320499048 0.0001983038325 0.001094725544)
(-0.0001938351437 0.0006294905045 -0.0001336297838)
(0.000123554063 0.0002035387206 0.001058432881)
(-0.001154405878 0.0003820193911 0.0001340835546)
(0.0002060560923 -0.0002845399201 -0.0001779054484)
(-0.0004007267017 -4.230818484e-05 1.027860286e-05)
(-0.0002162824731 -0.0002732355428 -0.0003543416481)
(-0.0001578935198 -5.698076813e-05 0.0001444017805)
(0.0001715010239 0.0005469302704 0.0003518033647)
(8.646197993e-05 -0.0004598503061 0.0002810321572)
(0.001153223114 0.0006968638615 -0.0001222067735)
(-0.0005908791064 -2.478444805e-05 4.906333626e-05)
(-9.432267352e-05 -1.765024904e-05 0.0002684934433)
(-0.0005177435962 -0.0002121128619 0.0003680639055)
(0.0001122112596 0.0006157841638 0.0005799153212)
(-0.0009102238322 -0.000650552587 -4.118143924e-05)
(5.523198959e-05 0.0005536053475 0.0002397084037)
(-2.723496742e-06 1.266595479e-07 -0.0004955275066)
(-0.0005274431418 -0.001024028883 0.0006266238029)
(0.0002333957722 -0.001048711806 0.0009477263987)
(-0.0002894928119 -0.0001686039339 -0.0003071125295)
(-6.636746804e-05 -0.0003272713653 0.0006147301693)
(0.0002936404359 -0.0005903474553 0.0001904317688)
(-0.0003948652943 0.0002844295131 0.0003023588387)
(-2.708645696e-05 -7.659532474e-05 -0.000432454971)
(-0.0004616373059 0.0004844876584 6.618706077e-05)
(-7.710866311e-05 -0.0003182059306 -0.0007033429403)
(-0.0002834165968 -0.0002974245831 0.0001299550966)
(-0.0004503456228 0.0003310681665 0.0002960592346)
(0.0001357297076 -0.0004634808698 -0.000770186265)
(0.0006420444031 -7.175140192e-05 -0.0007654570117)
(0.0003091979939 0.000166285599 -0.0001245596912)
(7.093095719e-05 0.0006123655433 0.0003729186217)
(-0.0002569702135 0.0003629600582 0.0004995193547)
(0.0001405299151 -0.0002739852485 0.0002966282075)
(-0.0002358203348 -0.0007744694656 -0.0008332582918)
(-0.0005361187542 0.0002239282076 -0.0004723766865)
(-0.0001013404614 4.96673248e-05 -0.0001233862777)
(-0.0004690462541 -0.000290302092 -0.0001985902828)
(0.0002160575819 0.001405199912 0.00138722813)
(0.000799967422 -0.0001136303156 0.0005085060486)
(0.0004953426133 0.0007807783127 0.0005074666216)
(-0.0002371981703 0.0001232426856 0.000741021307)
(-0.0004556716486 0.0007743054635 -6.9380565e-05)
(0.000871799558 -0.0007056509736 0.0002806503333)
(0.0001943294758 0.0005888082132 -0.0001867080184)
(1.522010201e-05 -0.0006655528176 -0.0003321736332)
(-0.0004777565913 -0.0002961757021 -0.0005252946647)
(0.0005962451145 0.0008423205022 -0.0002303012639)
(-0.0004916314825 -0.0005052130877 -0.0001250597582)
(-0.001050517628 -0.0007732665349 -0.0005767620422)
(-0.0004094206054 0.0001878156972 -9.666693074e-05)
(-0.0001420980307 7.578514041e-05 0.0004499085603)
(-0.0008239850246 0.0006238870593 0.0008625087797)
(-0.0001854553462 -0.0009818058822 0.0007893565524)
(8.064751142e-05 -0.0002671742194 7.664475661e-05)
(-0.0007791049803 -0.0005938782719 0.0006307669337)
(0.0005499104109 -0.0002978094215 0.0001752038805)
(-0.0007802190526 0.00039352844 -0.0002955232484)
(-0.0004241127354 -9.559373412e-05 0.0007221350902)
(2.445125115e-05 -0.0004368570402 -0.000468025019)
(1.544163881e-05 -0.0003161206905 2.051525151e-05)
(0.0002874915448 6.414515089e-05 -0.0007949091923)
(-5.783127545e-05 -0.0007246512837 0.0005681021483)
(-0.0002691114844 -5.857506453e-05 -0.0003916557476)
(0.0001108124103 0.0002048404707 -0.0001506436333)
(0.0009352682454 -0.0001937209255 -0.0007046018299)
(-1.613261365e-05 0.0005020612456 3.481911946e-05)
(0.0004765587549 0.0005565996179 -0.0003615642451)
(-0.0002369967601 -0.0002785826393 0.0002037623326)
(0.0003016505502 0.0002742670505 -0.0006148935014)
(-0.0005279247302 -0.0001269812099 -0.0004399369217)
(-0.0005633049077 -0.000495102119 0.0003875292565)
(3.176797573e-06 0.000680046338 0.000399047916)
(0.0007876335869 -0.0001314431806 0.0003872870139)
(0.0001020856925 -2.804223897e-06 0.0001435853921)
(-0.000151412229 0.0003945128001 0.0007979578332)
(-6.00017588e-05 0.0002322286223 0.00030961052)
(-8.776495231e-05 -0.0002121573914 -0.0002271268654)
(0.000123655947 0.0007791361574 8.948501729e-05)
(-0.0006760640662 -0.0001548484654 0.0006611514629)
(-0.0001968809737 0.000398685643 -0.0001580156253)
(0.0001133043206 0.0004703675154 0.000164245695)
(-0.0001688982157 0.0002279246995 0.0004956015369)
(-0.0003570282395 4.33131047e-06 0.0006567005376)
(6.884513901e-05 0.0004230514364 0.000348337775)
(-0.0003133413162 -5.879721318e-05 0.0009164501747)
(-9.151900655e-05 -0.0006557967675 -0.000183280239)
(0.0009671428175 0.0003735026159 -0.0001953078749)
(-0.000356777846 0.0002539141693 -0.0004870126832)
(6.454032429e-05 -3.718369625e-05 0.0005064164906)
(-0.000771927439 0.000271061395 -0.0007689649973)
(-3.021148444e-05 -0.0004639219466 0.0006887094004)
(0.0003347911429 0.0009321799024 0.0003624384549)
(0.0004242261196 -0.0003170504232 0.0004410743597)
(-0.0001867637857 -0.0007901710407 9.99305427e-05)
(-5.4421919e-05 0.0003061092548 0.0001319013888)
(-9.668897952e-05 -0.0001472075062 0.0002214449854)
(-4.560795288e-05 -0.00133596052 0.0005163467555)
(0.0002233347402 -0.0002216045069 -0.00017402095)
(1.793901857e-05 -4.120531636e-05 2.97546356e-05)
(0.0001010808379 -0.0002745391055 -0.000111928673)
(0.001346324882 0.001402061244 -0.0004275039696)
(-0.0008098902565 0.0006340259742 0.0005340051358)
(0.0009142777647 -0.0002056882076 -0.001114771454)
(-0.0003545212293 -4.981513257e-05 -0.0005038530795)
(0.0001090456814 -0.0007740867679 0.0001282201105)
(0.0003001343346 0.0002222403686 2.457171288e-05)
(-0.0003966720564 0.0002762938871 0.0003010495491)
(0.0002273182039 0.000504324163 0.001092769641)
(-6.453046445e-05 -0.001158265745 -0.0005900109522)
(0.0002522227894 0.0004946991634 -0.001104470736)
(8.925486197e-05 0.0001106590623 0.000191688005)
(-6.98235325e-05 0.0008335633521 -2.962097194e-05)
(-6.147170458e-05 -0.0001519965897 3.993681885e-05)
(0.0009735631696 0.000993297427 0.0009491287173)
(-0.0007069664534 -0.001143572077 0.0002413167464)
(-0.0006509781454 0.001376331105 -0.0004176166357)
(-0.0004051151733 0.000483197874 -0.0001294153945)
(-0.0003106486963 0.0005799272004 -0.0004355306871)
(-0.000673897547 0.0001089716698 0.001045403889)
(0.0004523392467 0.0001951765188 -0.0002563229164)
(0.0001597442736 -0.000295412355 -0.0002158976778)
(-0.0003977994259 1.116955754e-05 -0.0002139523558)
(-0.0002248782835 -0.0007215422856 -0.0001976723859)
(9.064853452e-05 -0.0004935037476 -0.0001080737236)
(0.0002202179375 0.000183802666 0.0005975032845)
(-0.0001693829108 -0.0003094609691 0.0004300821526)
(0.0002311387897 7.467001252e-05 0.0002235344088)
(0.0006630023082 7.084613294e-05 -0.0001223009391)
(0.0006836059835 0.0008116864178 2.184941071e-06)
(0.0006224131787 -9.856124856e-05 -2.343746432e-05)
(0.0006212580729 -0.0001827641338 0.0003283053879)
(0.0001985633918 -6.398132673e-05 -8.302006109e-06)
(0.0003500472703 0.0004445463289 -0.000754397346)
(-4.771932421e-05 0.0003021114813 0.0008115579847)
(0.0002905832113 -1.820311581e-05 -0.0002517482449)
(0.001297463024 0.000188803991 -0.0002036168169)
(0.0002575444693 -0.0008489430577 -0.0005192769566)
(-0.0003782472937 0.0003464931804 -0.0004072391977)
(0.0006929297716 6.089900035e-05 0.0005028683029)
(-0.0001780202765 0.0009991129911 -0.0001407862183)
(-1.202381285e-05 -0.0001680733054 -7.430534876e-06)
(-0.0003685968013 0.0002575723271 -2.418035466e-05)
(0.000567682133 -3.831342178e-05 0.00013655065)
(0.0006075400552 -2.613069939e-05 0.0002396815678)
(-0.0005946929576 -1.190098063e-05 0.0001043502018)
(-0.0004557601982 -0.0008573875409 -4.357222341e-05)
(0.0001080333322 -0.0003688475858 5.080451781e-05)
(0.0004077337338 0.000111896375 -9.590559138e-05)
(0.0002389101016 -0.0005100374453 0.0006521668336)
(-0.0007635482135 -9.31252017e-06 -0.0004051672107)
(-8.185692918e-05 -0.0002487219961 0.0003467025695)
(-0.0001082772758 0.0002785112624 -0.0007159804999)
(0.001080422656 -0.000113631871 -0.000310903406)
(0.0006162897023 0.0007013236706 0.0001543377279)
(0.0002400937354 0.0003200352657 0.0001102562982)
(-0.0001444042061 0.000340679882 -0.0003428419692)
(7.264728251e-05 -0.0004329295698 -0.0002042119665)
(-2.792534089e-07 -0.0002283848629 -0.000195375786)
(-0.0005227947085 0.0007952799121 -5.091995833e-05)
(-2.204406392e-05 0.001279473414 0.000320651529)
(-0.0005643647761 -0.000528861886 -0.0006964714749)
(0.0009633899652 -0.0002735314041 -0.0002879010322)
(0.001102961525 0.0004638237618 0.0003357299862)
(-0.0003308125492 -0.0006405601284 -0.0003639216018)
(0.0007883019776 0.001040167471 1.657646206e-05)
(-0.0009550025839 0.0001802475952 0.0006864182201)
(0.0002787901515 0.0004314443496 0.0004340916785)
(1.364825422e-05 -0.00089372952 -0.0002975756299)
(-0.0001478207522 0.0002239452359 -0.0001748900882)
(0.000693724297 -0.0008287937397 -0.0002735267905)
(0.0002620554626 7.826501376e-05 -0.0001529526478)
(-5.042201925e-05 -0.001003430196 -3.025417639e-05)
(0.0003758898043 0.0001621461925 -0.00031178541)
(0.0001426654562 0.0002752047154 8.267617534e-05)
(5.736518009e-06 -0.000401253702 8.087971941e-05)
(-0.0005286862878 0.0002671532359 0.001129309828)
(-0.0004238308394 0.0004937247972 -0.0009086006321)
(0.000243593708 -0.0003427222436 5.564086224e-05)
(-1.487710601e-05 -9.256660847e-05 3.597891338e-05)
(0.0007360389813 -0.0002131677149 0.0001775826886)
(-0.0001125984718 -0.0001741149129 -0.001312069636)
(0.0004744767511 -0.0005310131309 0.0003281025093)
(2.949295997e-05 0.001234942518 7.529089106e-05)
(-0.0007067675045 -0.0004618957238 -0.001186293658)
(-0.0003666538827 -0.0009644183728 -0.0008194611855)
(-0.0002865827705 -0.0001667956189 0.0005199906162)
(-0.0001107350271 -0.0001084993602 -0.0002376188705)
(-0.000698215578 5.700027151e-06 -0.000102123906)
(-0.0009635130151 0.0001920016199 -0.0004694784235)
(-0.000728740756 0.0001548770478 0.0001748365428)
(-0.0005658038248 -0.0004177701719 0.0006607538154)
(-4.070434633e-05 0.0002486677744 0.0001953705521)
(0.0003518405704 0.0002626250988 0.0002890448088)
(-0.0004059674346 -0.000248775988 0.0006806241072)
(0.0003548486844 -9.091426557e-05 9.079346193e-05)
(1.611650347e-05 -0.0008392195788 2.339643553e-05)
(-0.0006669514156 0.0001197847321 -0.00117483209)
(0.0002228150333 8.885818134e-05 6.895372173e-05)
(-4.984960366e-05 0.0001410721339 7.600098678e-05)
(-0.0005943613406 -0.0005745081203 -1.369506772e-05)
(-0.0004338268847 0.0006736003626 -0.000179161348)
(0.000387858892 0.0007422915889 0.0004061038474)
(-0.0004422572868 6.84549809e-05 0.0005038045385)
(-0.0009264853377 -0.0004106893074 -0.0003838900266)
(-0.0003872721421 -0.0001584371629 0.0005925786061)
(-0.0001151130534 0.0001727773539 0.0002382895093)
(-4.20566989e-05 -0.0002501898922 0.0003222195791)
(-0.0001525920415 -7.843089452e-05 0.0001762106386)
(-0.001092391356 -0.0004492725707 0.0001899250632)
(-0.0001373516382 0.0002054816354 -0.0002523697978)
(0.0006851307495 0.0001835953774 0.0005838432431)
(-0.0004547214394 -0.0001594565265 -8.776798962e-05)
(0.0004728662546 0.0007622637799 3.509491493e-05)
(0.0005334878369 -0.0003970319926 -0.0007614130058)
(0.0001223886996 0.000273532099 -0.0003352765826)
(0.000239611068 0.0001482666515 -0.0002533811243)
(0.0004785348964 0.0005009023243 0.001161842992)
(-0.0008062535604 -0.0006118349382 0.0003238347493)
(0.0001264539568 0.0001937573983 -0.001273393773)
(-0.0001295739944 0.0002234052054 9.978966632e-06)
(0.0003331788045 0.0006101238674 -0.0002680820179)
(0.0001661315461 -0.0001948052257 0.0002906920832)
(0.0004878572371 -0.000181520471 -0.0001299823285)
(-3.633387971e-05 0.0001670721606 -6.84835908e-05)
(0.000566887855 3.439138454e-05 7.951429738e-05)
(0.0003010717455 -0.0002347030055 -0.000347081722)
(0.0005990928968 -0.0001365159013 -9.826525902e-05)
(0.0005351816471 7.927351632e-05 -0.0005175593941)
(-0.0001779923379 -0.0003160838121 0.0005144497533)
(-0.0002485061212 -0.0004270829276 -0.0003320871684)
(-0.0002988299667 -0.0006823459857 -0.0002443898879)
(0.0001045220467 0.0001693308608 0.0006532536192)
(-0.0004107173697 -0.0003608222947 0.001024379723)
(-0.0005272470239 0.0001938824178 -0.0004980041751)
(-0.0005312657392 -0.0001751678803 -0.0001117086934)
(0.0008221021063 -1.895733227e-05 0.0007256224257)
(-0.0007951433049 -0.0001753922555 -0.0004684829228)
(0.0004959539815 -0.0002708737214 8.060746587e-06)
(0.0005018259399 -0.0001560073324 -0.0009251716661)
(-0.0004183414779 7.389653713e-05 -0.0008495722273)
(-0.0009255432013 -0.0005843767401 -0.0004436993059)
(-0.0001209406241 0.0003408721421 -0.0003601024724)
(0.0005543755707 0.0001090857866 0.0003573021029)
(-2.428427399e-06 1.121333679e-05 -8.34334848e-05)
(-0.0005068503088 -0.000435918874 5.579182122e-05)
(0.0003748392452 -0.0005916479476 2.77000497e-05)
(-0.0003196610205 0.000177011498 -0.0001301442288)
(0.0004859536508 0.0003166840519 -0.0002509513094)
(-0.001195768782 -0.0001313417628 0.0001161208841)
(-0.0004900814095 0.0007133446211 0.0004778223081)
(0.0001406690836 -0.0008234419697 0.0001258368487)
(-0.0001398646238 -0.000157314265 0.0005913792495)
(-0.0002282269891 -0.0001846442323 -0.0001966473619)
(-0.0008040629986 -0.0001012573829 0.0007988771441)
(0.0001079494407 6.671352778e-05 0.0002612211362)
(0.0001920167347 -0.0002095154738 0.000181403781)
(-0.0001170483589 0.0001458460669 0.0003516038725)
(0.0002728061383 -0.0007601663335 0.0002560249563)
(-0.000482304477 0.0002343575299 -0.0003882054731)
(-0.0003425782228 -0.0009298801045 0.0001971200027)
(-0.0001348942699 -0.000408010485 -0.0006630551164)
(0.0001446298083 -0.0001446348346 3.123588439e-05)
(-0.0001852330974 0.0001370299545 0.0001655060851)
(-1.784119076e-05 0.0004646806825 0.0002197831451)
(-0.0001505087243 0.0009886709977 -0.0001968894644)
(0.0002295283918 -0.000229308128 0.0002332815856)
(5.807264781e-05 -0.0005076248932 -0.0005307389521)
(-0.0004601314403 6.826881963e-05 -3.021854266e-05)
(-0.0001551864552 0.0005307745962 -0.0003370725595)
(2.470160011e-05 -7.463383044e-05 0.0002347876632)
(-0.00024975425 7.308779292e-05 0.000204355966)
(0.0001147552411 1.34689924e-05 -0.0006340927457)
(-0.0008838353543 0.0008246059317 0.0001710052091)
(0.0009210201998 5.639137593e-05 6.245052028e-05)
(-0.0006381442484 -0.0005383210619 -0.0006435882357)
(-0.000216862325 0.0003721870918 -0.0001144414923)
(-0.0005175856063 0.0009971472704 0.000313935812)
(-0.0002012122683 -0.0001293985012 0.0008893078158)
(-0.0001757093091 -7.438580532e-05 2.627966505e-05)
(0.0002842523899 7.350697514e-07 0.0003089598721)
(-0.001291185523 -0.0003599343803 0.0006344876682)
(-3.062521823e-05 -0.001152370399 -0.0002464735706)
(-3.89021821e-05 0.0006497706664 0.0003927110472)
(-0.0002977944945 -0.0003514689556 0.0002964317589)
(5.409376917e-06 -0.0004422261246 -0.0003476802903)
(-0.0004217587733 -0.001155887412 0.0009741073436)
(-0.0002530352338 -0.0001222371875 -0.0007082451418)
(0.0007879859441 -0.0001148894928 -0.000410395614)
(0.0007038758986 -0.0002902963873 0.0009586299893)
(-0.0004400574867 0.0002434840867 0.0004279772597)
(0.0001196434551 -0.0001992403383 -0.0004727130215)
(-0.001110775844 0.0007403748995 -0.001204744941)
(2.446467778e-05 0.000241730003 7.281653225e-05)
(0.0007063140228 -0.0003234372834 0.0002910861712)
(0.001055071739 -0.000808426901 -0.0007043272362)
(-0.000111665478 0.0006752258346 -0.0004300884596)
(0.0009618952424 0.0001531306754 -0.0003646954374)
(0.0001378113105 -0.0002049427098 0.0002013373043)
(5.635364892e-06 -0.0003182010672 0.0001659965051)
(-0.0007330200582 2.845603932e-05 0.0007757752922)
(0.0001461062898 -0.0005969955901 -0.0002042139463)
(-0.0004220844403 0.000598196758 0.0006824200514)
(0.0001095154735 -0.0007415245477 -0.0004451480869)
(0.0007299271237 -0.0003065445746 0.0003340826961)
(-0.000159235522 -0.0008821205742 0.0001088988592)
(-5.164925702e-05 -0.0005063366572 9.124145176e-05)
(0.0001590973382 -0.0004242607339 -4.031628301e-05)
(-0.0003366257947 -9.109662248e-05 0.0001137116356)
(-0.0003627848669 -0.000233399414 -0.0003682439612)
(-4.802647714e-05 -0.0003721992576 0.0004591396536)
(5.560058404e-05 -0.0001374046178 -0.0002487797868)
(0.0001804007561 -0.0004434684233 -0.0003217175476)
(-0.0008191965618 -0.0004883553 -0.0005738715781)
(0.0003007206716 -9.672460256e-05 0.001299432881)
(0.000653773237 0.0001731741878 0.0002618747867)
(-0.0001087672396 -0.0001799816846 -0.0005856277499)
(-1.506732767e-05 -4.293729354e-05 4.529363656e-05)
(0.0002129294753 0.000615472763 -2.726649446e-05)
(0.001812570729 -0.0005917906085 6.214441972e-06)
(-0.0001854515713 0.0001696092153 7.596520523e-05)
(-0.00100243127 -0.001137487397 -0.0003491941584)
(-0.0001019429934 -0.0005022969075 -2.465520604e-05)
(1.483181678e-05 0.0002607856687 -0.000302209469)
(0.0001838466855 -0.0001580786856 0.0003840127879)
(-0.0003624315079 -0.0008540718244 -7.563411442e-05)
(-0.0002946162689 -0.0002807276417 -0.0002493478656)
(-0.0001855559299 -4.972817616e-05 -1.628124239e-06)
(0.000337615412 0.0001226265119 -0.0004877107603)
(0.0003336524875 0.001069261172 0.0001841165167)
(-0.0002817723743 0.0007018288975 3.342222842e-05)
(0.0002506544528 -0.000246927745 -0.0003654880691)
(8.745452527e-05 0.000227546662 -0.000363840921)
(-0.0005350416903 0.0003718853684 0.0001648279452)
(0.0001724930085 0.0001269878475 -0.0002437145416)
(-0.0001526224691 -0.000132612021 -0.000194370017)
(0.0004782691528 8.229743557e-05 -0.0003842430417)
(-0.0009846333996 0.0007611622353 -0.0002058889822)
(-1.251769169e-05 -0.0003823326873 0.0008071238057)
(0.0005372127007 0.0008400688204 0.0008903535816)
(-0.0002447885427 0.0006613161359 -0.0003354110115)
(0.0004554688458 -0.0001722034123 -1.357227714e-05)
(-0.0006862192879 0.0006099580556 0.0001309204751)
(-0.001136854425 6.128196583e-05 0.0001269152098)
(-0.0009434269024 0.0002260907833 4.524344015e-05)
(-0.0003126010729 0.001427638779 0.001024793258)
(0.0004483986476 -0.0006621911136 0.0002269693372)
(0.0004255332642 -0.0003253829383 -3.593014297e-05)
(0.0002862227915 -0.0001772265976 0.0001231485517)
(0.0002535796723 -0.0004356574298 0.0004044836779)
(0.000697982202 -0.001492523121 0.0001902857796)
(-3.611188466e-05 0.0002844759633 5.48172355e-05)
(8.32342513e-05 -0.0002452211182 -0.0003803432293)
(-0.0005070511759 -0.0002131831437 -0.0002943648041)
(-0.0001859468674 -0.0003654828864 -0.0002799260403)
(-0.0003229473099 -0.0007475010258 -0.000502622212)
(0.000106379559 0.0003955493398 -0.0001808585354)
(-0.0003399536854 0.0001934481969 0.0009218936683)
(0.000376120534 0.0003219503384 -1.012927023e-05)
(-0.0003702519359 -0.0001046678206 -0.0002642003811)
(-0.0007321138223 -0.0007659808103 0.0003414860857)
(-4.779128878e-05 0.0008069507529 0.001406048144)
(-0.0003502194744 0.001216311852 0.001104602486)
(-0.0002786066185 0.0007017437149 -0.0006500932201)
(0.0001597541516 0.0002822359914 -0.0002066380976)
(4.318997465e-05 -0.000375020675 0.0001117964221)
(0.000292371841 0.000141597855 0.0005886907889)
(-0.0002860639891 0.0001213492826 0.0002936436949)
(0.0004786882757 0.0001027885145 -0.0002932105112)
(0.0005560452389 0.0004549554665 0.0001039130688)
(-0.0004316886816 -0.0001927043258 6.751241504e-05)
(7.882526321e-06 -0.0001311311101 -0.0004599421349)
(0.0001808150746 -4.708281708e-05 0.0002378131582)
(-0.0005987403789 0.000125772592 0.0003312489392)
(0.001000617606 -0.0004396979408 0.0004142957105)
(0.0001116805638 -0.0004744908598 -0.000114921821)
(-3.314202243e-05 0.000407183537 0.0002081321739)
(-0.0004686305352 0.0002563565901 0.0002618507501)
(-0.0007101465745 -0.0001521146136 2.766918263e-05)
(-3.384293996e-05 -0.0001119750873 -0.0001137035744)
(0.0001186589904 0.0002081219454 0.0001917903727)
(0.0001469032834 -0.0006025817392 0.0002323780751)
(6.00011505e-06 -0.0002225841303 -0.0003627240177)
(-0.0001553652663 -0.0004305969917 0.0006799793397)
(-0.0003924076032 -8.972309217e-05 -0.0001674522172)
(0.0008538903821 0.0001886274132 1.673423306e-05)
(-0.0001225889802 -0.0003492241047 0.0001984608185)
(-0.0002022526644 -0.0001465206634 -0.0003467277998)
(-0.0003027001958 -0.0006435554044 -0.0002779182539)
(0.0006205287292 0.0003279233239 -0.0002339507263)
(0.0001344747503 0.0001422603717 0.0005037850546)
(0.0006531238866 0.0002883788241 0.0005091188029)
)
;

boundaryField
{
    flow
    {
        type            zeroGradient;
    }
    obstacle
    {
        type            calculated;
        value           nonuniform 0();
    }
    frontAndBack
    {
        type            empty;
    }
    procBoundary2to0
    {
        type            processor;
        value           nonuniform List<vector> 
31
(
(-6.822983753e-05 0.0003152626147 0.0001653376254)
(0.0002715615679 -0.0005540582693 -0.0004668641838)
(0.0004516852222 0.0007718283777 0.0001948962337)
(0.0006403321737 -0.0003113040472 -0.0001007929511)
(0.0005333071987 0.000615164016 0.0003954916874)
(5.210620699e-05 -0.0001609096679 6.504305572e-05)
(0.0006097676949 0.0007585375489 -0.0002031719324)
(0.0008219960107 0.0007648955629 0.0005403648593)
(0.000216122864 -0.0001559316875 0.0002465870129)
(-0.0004322061107 -0.0001936339049 0.0003771322162)
(0.0006332461951 -0.001061980373 -0.000297892105)
(9.66168296e-05 0.000156406751 5.03771077e-05)
(8.338429734e-05 0.0001068784604 -8.223466634e-05)
(0.0001990568021 -0.0001176937739 -0.0008167989356)
(0.0002136345902 -0.0001459014665 0.0002815770064)
(-0.0009406031311 -0.0002275076428 0.0008760869688)
(0.0002043663531 -0.0004462833724 0.0008711642136)
(0.0002947172159 5.903530537e-05 0.0007759765219)
(-0.000617250896 -0.0003879299123 -3.744753384e-06)
(0.0002428971552 0.0007025562849 0.0003667874225)
(0.0006293294992 0.0003655042183 6.971786013e-05)