/*--------------------------------*- C++ -*----------------------------------*\
  =========                 |
  \\      /  F ield         | OpenFOAM: The Open Source CFD Toolbox
   \\    /   O peration     | Website:  https://openfoam.org
    \\  /    A nd           | Version:  7
     \\/     M anipulation  |
\*---------------------------------------------------------------------------*/
FoamFile
{
    version     2.0;
    format      ascii;
    class       volScalarField;
    location    "0.009";
    object      overallT;
}
// * * * * * * * * * * * * * * * * * * * * * * * * * * * * * * * * * * * * * //

dimensions      [1 2 -2 0 0 0 0];

internalField   nonuniform List<scalar> 
546
(
297.563839
304.3811256
299.167527
299.8700275
300.5767861
300.3947025
300.0866974
301.457696
302.9213123
302.6071547
302.9041436
303.0985796
302.2258466
302.3650042
302.2200219
300.4002068
300.0664125
300.5577522
301.8379152
302.1349521
292.1083448
303.0573686
299.65236
299.3427653
300.0335523
301.3858153
301.317788
300.2630343
300.5397673
300.7801143
302.2264401
300.0489111
301.1271014
300.2019347
299.8498724
299.9828764
300.2823724
300.5359397
300.8994078
299.5749277
294.5959232
303.3955468
299.2984918
299.8963648
299.7932965
298.8854885
298.9962038
299.091224
298.890119
298.7922281
298.7552414
299.1582247
298.8974185
299.762892
300.7342301
301.1901703
301.1002847
300.9070118
299.962762
301.3165557
293.4399287
302.3180014
299.1495137
299.6108653
299.1366266
299.6111611
299.997702
300.1964465
301.007329
300.0802326
300.332445
299.9382848
299.7379959
298.8019182
299.5172185
299.71939
299.7454661
300.7257888
302.2514261
301.8229691
297.5032512
305.4444455
301.7279751
301.6490677
302.0950236
302.1768244
301.3975313
301.1703514
299.8744551
299.1713047
298.8678434
300.6688044
300.8368426
300.4441476
299.9159025
300.8335094
303.2641798
303.2657027
302.2710058
302.6162709
293.8582279
306.2558135
301.8689722
302.265717
301.9180093
302.2742744
302.1882666
301.8054298
301.2140457
301.7866333
301.1544136
298.4949331
298.626653
301.4142552
302.3436259
301.7047285
300.845684
300.894993
299.7646967
299.8045246
295.8385842
305.5029922
300.9421518
301.1484469
301.2079959
300.0042772
300.6136959
301.951187
301.2136833
301.3320932
301.8851897
303.4254186
302.4034557
300.4587117
298.9874338
299.5088552
300.5232754
300.0455
300.6446503
302.3295392
296.0180933
304.3000829
299.2612639
299.6143129
299.5484303
299.5889073
299.440361
299.9301189
300.780732
301.2956929
300.8592282
298.8941557
299.0319291
299.8685945
300.6245877
299.4614821
300.0408782
299.2663427
298.9078505
299.1716032
291.2566763
300.9933377
298.184677
297.9007763
298.3536718
297.5047427
298.2475253
298.1748898
297.8574718
297.0757663
297.4553827
298.6584881
299.53433
298.403208
297.5283409
297.3952209
298.0201412
297.8951588
297.4903724
297.8487222
293.891109
302.483272
297.945585
298.8889196
299.9014856
301.2401239
300.8956592
298.7961453
299.5190986
299.5975006
300.1958442
298.4201809
297.3269325
298.2658472
300.247772
299.9035039
299.5827877
300.5725426
301.1025327
299.9105623
292.2719812
303.1763038
299.2785654
299.8675977
298.2620229
297.8423688
298.9753997
299.8066264
299.2011308
299.4795951
298.7750065
299.0808024
299.0247455
298.8416274
298.5943514
298.7639644
299.0825722
299.0763105
298.7726591
299.6178869
293.0184886
302.2114995
297.8097516
297.7861417
297.5236482
299.4487449
299.3963983
298.3700533
298.2123478
298.884144
299.372652
299.1577154
300.395764
301.4744362
301.5867018
299.8640412
300.0078036
300.6504207
300.7567291
298.8389109
293.2791786
301.2848358
297.7410302
297.7385016
298.7634417
296.8187379
298.1691294
299.1965344
299.6380609
298.7438951
299.8636936
300.3930294
299.3029703
297.7170626
299.5637874
299.6517478
298.6872492
298.9598424
299.3687903
299.4988623
293.8632749
304.5371547
300.0687087
300.4689827
301.1481203
301.1278043
300.5172834
298.7568884
299.0595006
299.9327418
299.2765667
298.8508942
299.3395057
299.0631714
298.4010629
299.6327507
300.2379382
299.5920939
298.7998661
299.6654899
294.0559261
304.1421835
299.0786794
298.6298998
297.2182399
297.1196243
297.8317643
297.6822491
297.3712084
297.9948592
298.0117124
299.0912823
300.2751026
301.0042287
299.5703549
300.6919607
299.7179216
299.5561342
300.4756824
299.1095167
292.257393
301.64483
297.0071716
298.773916
298.4056201
298.4001954
297.9846313
297.9647539
298.2643435
297.6652493
296.3365817
296.3855277
296.4248966
295.7426249
297.5789991
297.1038205
298.0157716
297.3140908
296.2894006
296.8556764
294.7813555
303.6595743
298.9794121
299.1326176
299.4792945
299.8607202
299.6514332
300.0706791
299.7859943
299.4485283
299.9356647
298.5682893
298.3160665
297.8086232
295.96526
296.7362961
296.9004905
297.4955707
299.7500292
298.7625939
291.9684532
301.27437
298.9774618
298.8716412
299.6993897
298.841915
298.7802878
298.5935998
299.2890352
297.4049115
298.1313196
297.3443019
298.615884
298.3553678
298.9725966
299.6694458
298.6828213
297.9814182
297.6467771
297.6605785
306.0293227
309.0891401
309.7950354
311.9196388
314.3047411
314.9005219
302.3013316
301.9584239
302.1321369
303.2514113
302.3529819
305.2751007
306.253696
307.6165646
310.1577729
308.9584095
300.0264489
301.8944824
301.5756912
302.4964563
302.5167403
303.5872551
303.6441014
305.7661412
306.1039037
306.8767301
300.9468878
301.7736565
300.0941502
301.343975
301.9703328
303.5330541
302.6136935
303.3137847
305.7349674
304.950374
301.7261542
303.5168538
303.8775108
302.2076045
301.1955591
300.5388153
302.126012
302.6632336
302.3319026
304.9983095
302.3719332
302.8030111
302.2301246
301.2629958
301.6609458
303.1717094
303.447353
303.5737875
302.5963224
302.6227975
299.8651511
300.7737177
302.6807321
302.5898631
301.0683055
302.3954857
303.3456241
302.7602771
302.5050089
301.9710007
302.8946325
300.5609676
300.384501
300.165784
300.1073063
298.9430921
300.5851665
301.3497437
301.0825591
303.0590407
299.0344257
300.0953455
300.1003087
301.0364351
299.7816089
300.5481748
300.5410966
301.6971556
302.8886978
301.5551545
298.782809
299.4103556
299.3529226
301.0055537
299.6501163
299.4913128
299.2041727
298.3892207
296.6542289
297.7692477
299.6570508
298.3985901
299.9925606
299.4347989
299.0827425
298.6701729
299.0236908
299.076165
300.4125145
301.0392521
299.1903021
298.8014274
297.7121172
297.8856862
297.9500985
299.3825996
298.5698772
300.0028793
299.1108453
299.7291789
298.4725916
299.5017265
300.1101557
300.2315327
299.4165229
300.2179327
299.9416524
301.0531972
302.1779734
302.7787773
299.9603382
300.7397191
300.9280062
299.6460956
300.6364402
301.2948472
301.8014351
299.4422719
299.847373
300.2990478
299.3239571
298.849223
300.6998739
301.3764197
300.7796247
299.904354
299.0876118
299.7467507
297.9876529
297.7583476
299.0725733
298.9232613
298.4415984
298.3534533
298.2820035
299.5791356
298.7477763
298.7351598
298.7351098
299.6753594
297.228785
298.6039715
299.803137
299.7224002
299.4659065
298.6569635
299.3703999
300.9357362
300.5520554
300.8877207
298.4746024
298.8288607
299.28755
298.3262999
298.6312681
298.4543102
299.5946171
299.844316
299.2209672
299.8674498
297.783131
298.6342726
298.1931052
298.0995739
298.6115887
298.7540953
298.6736513
297.6870929
298.5405361
297.3474015
)
;

boundaryField
{
    flow
    {
        type            calculated;
        value           nonuniform List<scalar> 
48
(
297.563839
292.1083448
294.5959232
293.4399287
297.5032512
293.8582279
295.8385842
296.0180933
291.2566763
293.891109
292.2719812
293.0184886
293.2791786
293.8632749
294.0559261
292.257393
294.7813555
291.9684532
291.9684532
301.27437
298.9774618
298.8716412
299.6993897
298.841915
298.7802878
298.5935998
299.2890352
297.4049115
298.1313196
297.3443019
298.615884
298.3553678
298.9725966
299.6694458
298.6828213
297.9814182
297.6467771
297.6605785
297.783131
298.6342726
298.1931052
298.0995739
298.6115887
298.7540953
298.6736513
297.6870929
298.5405361
297.3474015
)
;
    }
    obstacle
    {
        type            calculated;
        value           nonuniform 0();
    }
    frontAndBack
    {
        type            empty;
    }
    procBoundary2to0
    {
        type            processor;
        value           nonuniform List<scalar> 
31
(
295.0192659
305.0598163
301.6404989
302.4441202
301.1709887
301.8887778
302.4023836
301.6766936
301.608574
301.6987908
302.1328021
301.2359877
300.6872491
301.7150319
301.7885124
302.7981744
304.1940888
302.4207629
301.861531
301.9045639
308.6251434
310.6838429
313.7568598
315.6207776
314.5238516
317.9807694
303.6437384
303.8528612
304.255556
304.9636649
304.9636649
)
;
    }
    procBoundary2to3
    {
        type            processor;
        value           nonuniform List<scalar> 
19
(
318.2882937
315.1728488
309.1313542
307.9053103
305.9737575
305.6347775
301.5533017
305.5481521
301.0003206
297.1383229
299.6618076
301.2238814
301.0554903
300.1371639
298.0939113
299.3184923
301.2736618
300.5049412
297.7389414
)
;
    }
}


// ************************************************************************* //
