/*--------------------------------*- C++ -*----------------------------------*\
  =========                 |
  \\      /  F ield         | OpenFOAM: The Open Source CFD Toolbox
   \\    /   O peration     | Website:  https://openfoam.org
    \\  /    A nd           | Version:  7
     \\/     M anipulation  |
\*---------------------------------------------------------------------------*/
FoamFile
{
    version     2.0;
    format      ascii;
    class       volScalarField;
    location    "0.009";
    object      rhoM;
}
// * * * * * * * * * * * * * * * * * * * * * * * * * * * * * * * * * * * * * //

dimensions      [1 -3 0 0 0 0 0];

internalField   nonuniform List<scalar> 
546
(
5.948892263e-06
4.080829287e-06
4.427198864e-06
6.571024508e-06
5.53358202e-06
3.874007286e-06
2.974446132e-06
5.464641352e-06
2.00594431e-06
5.948892263e-06
6.433143174e-06
3.52763771e-06
8.02377724e-06
4.496139531e-06
4.01188862e-06
5.879951596e-06
3.665519044e-06
6.986334752e-06
4.080829287e-06
4.01188862e-06
2.974446132e-06
4.427198864e-06
6.01783293e-06
3.874007286e-06
4.496139531e-06
7.954836573e-06
5.118271776e-06
3.874007286e-06
3.043386799e-06
5.118271776e-06
5.948892263e-06
3.942947953e-06
4.01188862e-06
4.358258196e-06
3.52763771e-06
4.634020865e-06
3.874007286e-06
4.01188862e-06
2.974446132e-06
3.942947953e-06
5.602522687e-06
3.043386799e-06
4.427198864e-06
4.980390442e-06
8.508028151e-06
3.52763771e-06
2.00594431e-06
5.118271776e-06
4.565080198e-06
4.427198864e-06
7.124216086e-06
4.980390442e-06
3.942947953e-06
3.043386799e-06
5.464641352e-06
2.628076555e-06
3.52763771e-06
8.992279062e-06
3.596578377e-06
5.53358202e-06
2.974446132e-06
5.602522687e-06
4.911449774e-06
6.639965176e-06
5.187212443e-06
5.948892263e-06
5.948892263e-06
6.01783293e-06
2.490195221e-06
5.326760018e-06
5.464641352e-06
4.080829287e-06
3.52763771e-06
6.848453417e-06
2.905505464e-06
1.452752732e-06
3.043386799e-06
6.639965176e-06
5.811010928e-06
4.565080198e-06
3.458697042e-06
4.01188862e-06
5.464641352e-06
3.942947953e-06
3.596578377e-06
3.52763771e-06
3.043386799e-06
6.917394084e-06
5.53358202e-06
5.811010928e-06
9.130160396e-06
3.942947953e-06
2.905505464e-06
5.395700685e-06
4.149769955e-06
5.53358202e-06
3.389756375e-06
5.53358202e-06
5.602522687e-06
3.52763771e-06
4.496139531e-06
4.980390442e-06
3.942947953e-06
2.905505464e-06
4.496139531e-06
5.395700685e-06
7.470585662e-06
5.395700685e-06
4.565080198e-06
4.080829287e-06
3.942947953e-06
6.01783293e-06
6.502083841e-06
4.842509107e-07
4.427198864e-06
5.948892263e-06
7.954836573e-06
3.458697042e-06
2.974446132e-06
2.905505464e-06
3.52763771e-06
3.942947953e-06
4.149769955e-06
4.980390442e-06
6.986334752e-06
6.01783293e-06
3.112327466e-06
3.458697042e-06
5.049331109e-06
2.974446132e-06
5.049331109e-06
4.911449774e-06
6.571024508e-06
4.496139531e-06
6.708905843e-06
5.602522687e-06
2.905505464e-06
4.911449774e-06
5.53358202e-06
7.53952633e-06
2.421254554e-06
6.986334752e-06
3.596578377e-06
5.464641352e-06
4.911449774e-06
1.521693399e-06
4.080829287e-06
4.496139531e-06
8.576968818e-06
4.980390442e-06
3.043386799e-06
3.52763771e-06
5.256153111e-06
6.086773598e-06
2.421254554e-06
6.433143174e-06
4.565080198e-06
4.980390442e-06
4.911449774e-06
4.496139531e-06
3.043386799e-06
5.948892263e-06
4.911449774e-06
5.464641352e-06
5.118271776e-06
6.917394084e-06
6.433143174e-06
5.602522687e-06
4.565080198e-06
3.942947953e-06
6.295261839e-06
5.740404021e-06
4.980390442e-06
5.464641352e-06
6.917394084e-06
6.502083841e-06
6.433143174e-06
3.874007286e-06
5.395700685e-06
4.496139531e-06
4.496139531e-06
3.043386799e-06
2.974446132e-06
5.53358202e-06
3.942947953e-06
3.942947953e-06
5.53358202e-06
3.043386799e-06
4.496139531e-06
5.53358202e-06
8.092717908e-06
5.811010928e-06
3.458697042e-06
3.458697042e-06
3.458697042e-06
3.043386799e-06
6.086773598e-06
5.53358202e-06
6.433143174e-06
4.496139531e-06
3.043386799e-06
4.911449774e-06
5.948892263e-06
3.874007286e-06
3.596578377e-06
1.099822337e-05
3.112327466e-06
2.074884977e-06
6.364202506e-06
3.458697042e-06
2.00594431e-06
8.02377724e-06
5.464641352e-06
4.565080198e-06
6.155714265e-06
7.193156754e-06
4.911449774e-06
3.043386799e-06
4.080829287e-06
6.364202506e-06
3.043386799e-06
3.52763771e-06
6.502083841e-06
4.911449774e-06
3.942947953e-06
3.043386799e-06
6.502083841e-06
1.452752732e-06
3.389756375e-06
4.427198864e-06
5.395700685e-06
5.948892263e-06
4.496139531e-06
3.458697042e-06
2.974446132e-06
7.055275419e-06
6.433143174e-06
7.263763661e-06
6.01783293e-06
3.596578377e-06
3.52763771e-06
5.53358202e-06
4.080829287e-06
5.395700685e-06
4.842509107e-06
6.433143174e-06
4.496139531e-06
6.086773598e-06
5.118271776e-06
4.01188862e-06
3.942947953e-06
6.571024508e-06
5.187212443e-06
2.559135888e-06
6.502083841e-06
5.948892263e-06
4.149769955e-06
5.049331109e-06
3.52763771e-06
3.942947953e-06
3.043386799e-06
4.427198864e-06
5.53358202e-06
4.496139531e-06
5.602522687e-06
5.53358202e-06
3.874007286e-06
2.490195221e-06
6.01783293e-06
6.086773598e-06
5.464641352e-06
2.974446132e-06
9.54547064e-06
3.596578377e-06
5.879951596e-06
3.874007286e-06
2.421254554e-06
5.049331109e-06
1.521693399e-06
4.496139531e-06
4.496139531e-06
4.01188862e-06
4.01188862e-06
5.948892263e-06
5.049331109e-06
5.602522687e-06
5.464641352e-06
4.496139531e-06
3.665519044e-06
3.942947953e-06
4.427198864e-06
3.112327466e-06
3.181268133e-06
7.401644995e-06
3.458697042e-06
2.974446132e-06
2.974446132e-06
5.53358202e-06
4.427198864e-06
6.01783293e-06
3.52763771e-06
4.427198864e-06
4.01188862e-06
5.464641352e-06
5.464641352e-06
4.496139531e-06
3.874007286e-06
5.948892263e-06
2.974446132e-06
5.049331109e-06
3.596578377e-06
5.811010928e-06
5.53358202e-06
6.502083841e-06
2.421254554e-06
3.389756375e-06
6.433143174e-06
3.596578377e-06
5.811010928e-06
2.905505464e-06
4.496139531e-06
4.080829287e-06
3.874007286e-06
3.043386799e-06
2.974446132e-06
4.911449774e-06
3.874007286e-06
4.01188862e-06
4.911449774e-06
2.421254554e-06
9.476529973e-06
3.389756375e-06
4.496139531e-06
3.458697042e-06
6.01783293e-06
5.53358202e-06
4.842509107e-06
4.980390442e-06
5.395700685e-06
2.974446132e-06
4.496139531e-06
2.00594431e-06
8.092717908e-06
4.496139531e-06
6.01783293e-06
5.53358202e-06
5.049331109e-06
5.395700685e-06
5.53358202e-06
5.464641352e-06
2.974446132e-06
2.00594431e-06
6.639965176e-06
2.974446132e-06
2.905505464e-06
8.092717908e-06
3.043386799e-06
5.602522687e-06
5.602522687e-06
5.740404021e-06
6.279904467e-06
5.031485695e-06
5.283737897e-06
3.645218647e-06
6.314997008e-06
5.9905861e-06
2.499026087e-06
2.026899908e-06
5.559959955e-06
4.535826328e-06
5.78028847e-06
5.677896352e-06
3.619261318e-06
3.645218647e-06
6.902232869e-06
5.916870199e-06
4.85968191e-06
2.446548794e-06
6.192943924e-06
3.614193194e-06
5.566904052e-06
1.509445719e-06
4.560583107e-06
1.020731465e-06
4.185603542e-06
3.698266581e-06
6.039173698e-06
9.714850656e-06
4.081867159e-06
1.984530714e-06
5.709160344e-06
3.162153504e-06
4.342416144e-06
5.686681616e-06
4.185603512e-06
2.071171803e-06
3.470962463e-06
2.096560767e-06
3.026328777e-06
5.669356168e-06
3.710696357e-06
8.696787769e-06
2.24334918e-06
6.342364303e-06
4.405153683e-06
2.662680672e-06
2.429840939e-06
6.011038811e-06
5.63010314e-06
5.528091723e-06
3.068824107e-06
6.684193491e-06
7.600971845e-06
5.831998656e-06
4.551520496e-06
1.553378863e-06
4.026115799e-06
6.080699725e-06
4.011723974e-06
6.945857498e-06
2.640336237e-06
6.755824582e-06
4.63272423e-06
4.665950111e-06
5.28689197e-06
4.807568425e-06
5.067237357e-06
2.935858553e-06
6.122800739e-06
7.724519118e-06
7.492520841e-06
2.515742848e-06
6.803932302e-06
4.738608631e-06
6.829049478e-06
4.216059536e-06
3.401777314e-06
4.053799817e-06
4.574564789e-06
5.102591264e-06
3.710696357e-06
2.012594278e-06
5.283737897e-06
4.738608631e-06
5.947311271e-06
2.588964772e-06
5.900803402e-06
4.543109545e-06
5.700246287e-06
7.228386338e-06
6.066520045e-06
5.103116774e-06
4.632724263e-06
4.228242928e-06
4.919206233e-06
5.769438399e-06
4.581269135e-06
4.053799817e-06
5.207548762e-06
3.543560996e-06
3.497312001e-06
4.886492378e-06
3.184670963e-06
6.269705784e-06
9.177993101e-06
2.736396573e-06
7.497078312e-06
5.102080207e-06
3.519026376e-06
4.1103259e-06
6.137648213e-06
4.671599213e-06
7.599228252e-06
4.155584408e-06
2.716629376e-06
4.80756839e-06
6.177543995e-06
5.452068183e-06
3.659312721e-06
9.922653569e-07
6.850648591e-06
4.0968196e-06
4.849147567e-06
5.466949921e-06
5.800944489e-06
4.955000191e-06
3.956930651e-06
1.467929276e-06
3.941580816e-06
4.747723027e-06
5.851416597e-06
4.671599245e-06
3.256812131e-06
4.300901448e-06
3.671550997e-06
6.213515409e-06
4.581269135e-06
4.053799789e-06
4.504421542e-06
6.661621487e-06
5.209544347e-06
4.0968196e-06
1.520194358e-06
4.082925831e-06
4.626472637e-06
2.662680691e-06
6.594327035e-06
4.612770449e-06
3.026328797e-06
5.528091685e-06
5.209544311e-06
4.528337126e-06
3.112529861e-06
8.383827336e-06
2.202576857e-06
3.327905427e-06
6.108358888e-06
4.962758461e-06
5.137405542e-06
3.047428314e-06
5.638032217e-06
5.749527396e-06
5.283737897e-06
2.624487182e-06
3.671551023e-06
5.546509045e-06
4.442898838e-06
5.661050839e-06
6.475211968e-06
7.016489721e-06
6.137648213e-06
3.808564188e-06
4.632724263e-06
6.780071561e-06
3.230681872e-06
3.771982481e-06
4.998052174e-06
5.38240731e-06
3.096471962e-06
5.102591264e-06
7.778752457e-06
5.749527396e-06
4.704865321e-06
4.81126715e-06
5.947311271e-06
4.363491336e-06
)
;

boundaryField
{
    flow
    {
        type            zeroGradient;
    }
    obstacle
    {
        type            calculated;
        value           nonuniform 0();
    }
    frontAndBack
    {
        type            empty;
    }
    procBoundary2to0
    {
        type            processor;
        value           nonuniform List<scalar> 
31
(
2.490195221e-06
5.948892263e-06
3.043386799e-06
5.464641352e-06
5.948892263e-06
4.7719022e-06
4.427198864e-06
8.230599242e-06
5.395700685e-06
4.01188862e-06
6.086773598e-06
4.427198864e-06
5.464641352e-06
6.086773598e-06
5.811010928e-06
6.502083841e-06
4.634020865e-06
5.118271776e-06
5.53358202e-06
4.427198864e-06
4.567672097e-06
4.599968169e-06
3.040388738e-06
3.280169976e-06
5.506442143e-06
3.845698382e-06
3.054179423e-06
4.123460662e-06
4.574564758e-06
3.969061455e-06
3.969061455e-06
)
;
    }
    procBoundary2to3
    {
        type            processor;
        value           nonuniform List<scalar> 
19
(
5.364394658e-06
3.278041767e-06
3.129529358e-06
7.077671757e-06
6.108751527e-06
2.830709781e-06
5.960239139e-06
4.917062651e-06
5.364394696e-06
4.768550219e-06
4.246961997e-06
3.725373801e-06
5.290138442e-06
6.034495312e-06
9.537100575e-06
4.172705781e-06
5.737470449e-06
6.034495355e-06
3.725373774e-06
)
;
    }
}


// ************************************************************************* //
