/*--------------------------------*- C++ -*----------------------------------*\
  =========                 |
  \\      /  F ield         | OpenFOAM: The Open Source CFD Toolbox
   \\    /   O peration     | Website:  https://openfoam.org
    \\  /    A nd           | Version:  7
     \\/     M anipulation  |
\*---------------------------------------------------------------------------*/
FoamFile
{
    version     2.0;
    format      ascii;
    class       volScalarField;
    location    "0.009";
    object      rhoM;
}
// * * * * * * * * * * * * * * * * * * * * * * * * * * * * * * * * * * * * * //

dimensions      [1 -3 0 0 0 0 0];

internalField   nonuniform List<scalar> 
546
(
6.086773598e-06
3.942947953e-06
6.986334752e-06
5.464641352e-06
4.080829287e-06
3.942947953e-06
3.043386799e-06
3.458697042e-06
3.181268133e-06
4.01188862e-06
3.043386799e-06
7.055275419e-06
2.559135888e-06
3.942947953e-06
5.049331109e-06
5.326760018e-06
4.427198864e-06
6.155714265e-06
4.496139531e-06
3.596578377e-06
3.389756375e-06
4.980390442e-06
4.01188862e-06
9.407589305e-06
4.496139531e-06
5.326760018e-06
2.490195221e-06
3.942947953e-06
5.948892263e-06
5.049331109e-06
6.364202506e-06
6.433143174e-06
4.01188862e-06
4.01188862e-06
2.974446132e-06
5.326760018e-06
2.905505464e-06
2.974446132e-06
3.874007286e-06
2.00594431e-06
5.53358202e-06
5.464641352e-06
3.52763771e-06
3.942947953e-06
5.740404021e-06
2.421254554e-06
3.52763771e-06
2.421254554e-06
3.389756375e-06
3.942947953e-06
2.00594431e-06
6.433143174e-06
2.974446132e-06
4.980390442e-06
4.911449774e-06
5.948892263e-06
6.01783293e-06
4.980390442e-06
5.395700685e-06
3.458697042e-06
5.811010928e-06
4.980390442e-06
2.00594431e-06
5.395700685e-06
6.433143174e-06
4.427198864e-06
3.52763771e-06
6.639965176e-06
2.421254554e-06
1.937003643e-06
4.911449774e-06
5.948892263e-06
1.037442489e-06
5.464641352e-06
6.986334752e-06
4.01188862e-06
5.326760018e-06
3.596578377e-06
2.974446132e-06
4.565080198e-06
4.427198864e-06
5.53358202e-06
5.395700685e-06
3.942947953e-06
7.885895906e-06
4.01188862e-06
4.427198864e-06
6.086773598e-06
3.596578377e-06
5.049331109e-06
4.427198864e-06
3.942947953e-06
4.01188862e-06
4.01188862e-06
6.433143174e-06
5.879951596e-06
5.395700685e-06
5.948892263e-06
2.974446132e-06
3.043386799e-06
3.942947953e-06
1.937003643e-06
2.490195221e-06
2.559135888e-06
6.433143174e-06
6.086773598e-06
5.395700685e-06
2.905505464e-06
4.565080198e-06
4.565080198e-06
6.086773598e-06
4.980390442e-06
2.974446132e-06
4.080829287e-06
4.496139531e-06
3.458697042e-06
5.53358202e-06
3.665519044e-06
2.00594431e-06
3.043386799e-06
5.53358202e-06
4.427198864e-06
7.124216086e-06
5.879951596e-06
3.52763771e-06
2.905505464e-06
4.842509107e-06
3.52763771e-06
3.596578377e-06
2.490195221e-06
6.571024508e-06
3.458697042e-06
4.496139531e-06
2.974446132e-06
4.080829287e-06
3.458697042e-06
6.502083841e-06
4.080829287e-06
3.458697042e-06
3.665519044e-06
4.842509107e-06
2.974446132e-06
2.00594431e-06
4.565080198e-06
3.942947953e-06
2.974446132e-06
6.086773598e-06
4.842509107e-07
6.986334752e-06
5.118271776e-06
5.464641352e-06
6.295261839e-06
3.52763771e-06
6.986334752e-06
4.980390442e-06
7.055275419e-06
3.458697042e-06
2.974446132e-06
2.905505464e-06
5.53358202e-06
5.049331109e-06
7.055275419e-06
3.52763771e-06
5.049331109e-06
2.905505464e-06
3.942947953e-06
5.53358202e-06
5.464641352e-06
6.086773598e-06
5.049331109e-06
3.043386799e-06
3.942947953e-06
5.811010928e-06
2.490195221e-06
3.52763771e-06
7.885895906e-06
4.565080198e-06
3.458697042e-06
4.565080198e-06
3.112327466e-06
2.974446132e-06
4.358258196e-06
4.149769955e-06
6.01783293e-06
4.496139531e-06
5.464641352e-06
7.53952633e-06
2.490195221e-06
4.496139531e-06
3.942947953e-06
3.942947953e-06
3.043386799e-06
5.464641352e-06
6.986334752e-06
4.980390442e-06
5.464641352e-06
5.464641352e-06
7.401644995e-06
6.224654932e-06
3.942947953e-06
5.948892263e-06
4.496139531e-06
6.639965176e-06
6.086773598e-06
2.00594431e-06
2.974446132e-06
3.389756375e-06
5.879951596e-06
2.421254554e-06
4.080829287e-06
3.596578377e-06
3.043386799e-06
7.885895906e-06
4.911449774e-06
5.464641352e-06
2.974446132e-06
6.364202506e-06
4.358258196e-06
6.086773598e-06
4.358258196e-06
1.521693399e-06
6.433143174e-06
4.427198864e-06
4.565080198e-06
3.874007286e-06
3.874007286e-06
5.049331109e-06
6.364202506e-06
6.433143174e-06
8.092717908e-06
3.942947953e-06
2.559135888e-06
5.049331109e-06
4.565080198e-06
4.496139531e-06
3.942947953e-06
3.596578377e-06
4.565080198e-06
3.52763771e-06
6.01783293e-06
2.974446132e-06
5.948892263e-06
2.974446132e-06
5.326760018e-06
5.049331109e-06
5.049331109e-06
4.01188862e-06
3.52763771e-06
3.874007286e-06
3.52763771e-06
4.01188862e-06
7.124216086e-06
1.521693399e-06
1.452752732e-06
4.01188862e-06
8.02377724e-06
3.596578377e-06
8.02377724e-06
3.389756375e-06
3.942947953e-06
4.565080198e-06
3.458697042e-06
4.911449774e-06
5.879951596e-06
3.942947953e-06
4.01188862e-06
2.421254554e-06
6.086773598e-06
6.708905843e-06
5.53358202e-06
5.464641352e-06
4.358258196e-06
3.52763771e-06
4.911449774e-06
4.427198864e-06
4.911449774e-06
6.571024508e-06
4.427198864e-06
4.427198864e-06
4.01188862e-06
3.389756375e-06
2.628076555e-06
2.974446132e-06
7.954836573e-06
3.458697042e-06
5.53358202e-06
3.112327466e-06
4.496139531e-06
5.464641352e-06
2.905505464e-06
3.942947953e-06
6.01783293e-06
3.458697042e-06
4.911449774e-06
4.496139531e-06
2.905505464e-06
5.879951596e-06
5.811010928e-06
5.671463354e-06
3.52763771e-06
3.112327466e-06
5.395700685e-06
5.53358202e-06
8.439087484e-06
4.496139531e-06
3.52763771e-06
5.049331109e-06
5.53358202e-06
4.427198864e-06
3.665519044e-06
2.00594431e-06
4.496139531e-06
5.049331109e-06
4.01188862e-06
6.01783293e-06
5.948892263e-06
4.496139531e-06
5.948892263e-06
4.01188862e-06
4.496139531e-06
4.565080198e-06
3.043386799e-06
6.01783293e-06
4.01188862e-06
6.986334752e-06
5.53191578e-07
6.01783293e-06
2.974446132e-06
5.53191578e-07
6.77951275e-06
7.53952633e-06
5.464641352e-06
4.080829287e-06
5.049331109e-06
4.01188862e-06
4.911449774e-06
6.364202506e-06
6.917394084e-06
7.53952633e-06
6.433143174e-06
4.427198864e-06
5.395700685e-06
4.080829287e-06
4.842509107e-06
2.974446132e-06
5.464641352e-06
4.01188862e-06
4.01188862e-06
5.464641352e-06
3.458697042e-06
3.043386799e-06
7.262097421e-06
4.496139531e-06
3.942947953e-06
4.911449774e-06
8.645909486e-06
5.118271776e-06
4.358258196e-06
3.112327466e-06
2.905505464e-06
3.068824107e-06
4.599968169e-06
1.085604028e-06
3.717877166e-06
3.230681895e-06
4.80756839e-06
3.540147611e-06
6.50034861e-06
1.970790395e-06
5.739988352e-06
3.63956823e-06
4.8148613e-06
4.125992774e-06
7.290437293e-06
3.230681872e-06
4.80756839e-06
4.095300975e-06
3.425168311e-06
2.04093358e-06
3.472928749e-06
4.709928318e-06
2.659004953e-06
6.225059723e-06
3.717877166e-06
3.817917805e-06
4.289775436e-06
6.594327035e-06
8.177260506e-06
4.714851128e-06
4.03969365e-06
2.56920811e-06
2.155856365e-06
4.125992774e-06
4.738608664e-06
3.671550997e-06
5.251645407e-06
2.429840939e-06
3.494829161e-06
3.519026376e-06
4.1103259e-06
1.998463987e-06
2.587373891e-06
4.704865321e-06
5.248974326e-06
4.772839418e-06
3.254189527e-06
3.540147611e-06
7.059319195e-06
4.644707943e-06
4.677090805e-06
4.781056477e-06
5.174747783e-06
2.677939528e-06
3.645218672e-06
4.258786933e-06
5.399077245e-06
5.067237323e-06
4.053799817e-06
3.026328777e-06
5.314487896e-06
2.56920811e-06
4.528337157e-06
2.026925825e-06
3.134852914e-06
2.643445985e-06
2.736396592e-06
5.136422506e-06
3.634150931e-06
5.982514369e-06
5.031959041e-06
3.63956823e-06
4.599968169e-06
5.283737933e-06
4.08292586e-06
4.185603512e-06
4.216059536e-06
6.108358847e-06
4.053799817e-06
6.685641568e-06
3.614193218e-06
6.20877634e-06
5.677896352e-06
4.777006444e-06
5.904657134e-06
3.817917805e-06
1.553378863e-06
6.594327035e-06
2.935858533e-06
3.096471941e-06
3.614193169e-06
2.569208092e-06
3.522040011e-06
4.704865386e-06
4.738608664e-06
5.87412788e-06
5.325361345e-06
5.067237323e-06
3.634150931e-06
5.630103178e-06
3.118060536e-06
1.998464e-06
5.03148573e-06
2.026925811e-06
4.373559906e-06
5.433258714e-06
4.73385249e-06
2.984994295e-06
5.032419334e-06
5.63010314e-06
7.228386437e-06
4.139184227e-06
3.736933118e-06
5.139455687e-06
1.020555862e-05
2.643445985e-06
5.472793145e-06
3.540147611e-06
4.053799789e-06
3.519026352e-06
4.606458551e-06
3.710696357e-06
4.599968169e-06
5.718328226e-06
2.551828662e-06
5.947311271e-06
3.919414282e-06
5.067237323e-06
5.591389966e-06
3.166615168e-06
3.047428314e-06
2.640336237e-06
5.534634303e-06
4.632724263e-06
6.049974216e-06
3.744734387e-06
2.218603602e-06
4.37371369e-06
4.053799789e-06
5.067262322e-06
4.606458551e-06
3.63956823e-06
4.025188556e-06
5.067314528e-06
5.686681536e-06
5.140525152e-06
3.771982508e-06
5.274792768e-06
2.516209667e-06
3.519026399e-06
4.03969365e-06
3.068824086e-06
5.677896352e-06
2.533657282e-06
6.197047352e-06
4.185603542e-06
5.472793145e-06
6.386771632e-06
2.58587054e-06
3.026328777e-06
6.236121073e-06
5.067288093e-06
4.0968196e-06
5.35587902e-06
4.738608631e-06
3.084315113e-06
4.216059536e-06
4.859681878e-06
4.053799817e-06
4.011723974e-06
2.055162936e-06
4.781056477e-06
4.671599245e-06
5.646187182e-06
2.624487182e-06
4.185603512e-06
6.805024308e-06
4.512083987e-06
4.543109545e-06
5.63010314e-06
2.551295632e-06
6.566136083e-06
3.090522461e-06
3.691402415e-06
3.645218647e-06
3.084315113e-06
4.80756839e-06
)
;

boundaryField
{
    flow
    {
        type            zeroGradient;
    }
    obstacle
    {
        type            calculated;
        value           nonuniform 0();
    }
    frontAndBack
    {
        type            empty;
    }
    procBoundary2to0
    {
        type            processor;
        value           nonuniform List<scalar> 
31
(
3.52763771e-06
4.080829287e-06
6.77951275e-06
4.496139531e-06
4.980390442e-06
5.049331109e-06
5.464641352e-06
8.161658575e-06
3.389756375e-06
2.00594431e-06
4.01188862e-06
3.112327466e-06
9.685018214e-07
2.559135888e-06
2.628076555e-06
6.364202506e-06
4.01188862e-06
3.942947953e-06
6.01783293e-06
5.53358202e-06
3.068824107e-06
3.233784548e-06
5.139455687e-06
4.228242928e-06
6.975416309e-06
4.437207236e-06
1.943872751e-06
1.957239022e-06
3.026328777e-06
4.1103259e-06
4.1103259e-06
)
;
    }
    procBoundary2to3
    {
        type            processor;
        value           nonuniform List<scalar> 
19
(
5.811726664e-06
5.438650873e-06
3.129529358e-06
2.607941113e-06
5.811726664e-06
6.704596014e-06
2.682197348e-06
3.79962999e-06
7.22618424e-06
4.246961997e-06
3.725373774e-06
4.246962027e-06
4.54398686e-06
5.364394658e-06
3.799630044e-06
8.195104418e-06
3.725373774e-06
2.830709781e-06
5.512907089e-06
)
;
    }
}


// ************************************************************************* //
