/*--------------------------------*- C++ -*----------------------------------*\
  =========                 |
  \\      /  F ield         | OpenFOAM: The Open Source CFD Toolbox
   \\    /   O peration     | Website:  https://openfoam.org
    \\  /    A nd           | Version:  7
     \\/     M anipulation  |
\*---------------------------------------------------------------------------*/
FoamFile
{
    version     2.0;
    format      ascii;
    class       volScalarField;
    location    "0.009";
    object      rhoNMean;
}
// * * * * * * * * * * * * * * * * * * * * * * * * * * * * * * * * * * * * * //

dimensions      [0 -3 0 0 0 0 0];

internalField   nonuniform List<scalar> 
546
(
9.103222855e+19
9.171492398e+19
9.12081094e+19
9.016208115e+19
8.941690173e+19
8.784785936e+19
8.813482286e+19
8.691059953e+19
8.792422868e+19
8.76719785e+19
8.438578355e+19
8.442743954e+19
8.424461602e+19
8.299262203e+19
8.438115511e+19
7.990545015e+19
8.090056553e+19
8.401319384e+19
8.075014111e+19
7.86465135e+19
8.979643411e+19
9.192088972e+19
9.406617332e+19
9.132382049e+19
9.024539314e+19
9.016208115e+19
9.093040279e+19
9.219165367e+19
8.81394513e+19
8.743129943e+19
8.748221231e+19
8.764883628e+19
8.547578202e+19
8.490879768e+19
8.642229873e+19
8.090982241e+19
8.09723064e+19
8.247886479e+19
8.070385667e+19
7.906538764e+19
9.231430742e+19
9.437396482e+19
9.143953158e+19
8.941227329e+19
9.00394274e+19
9.094891656e+19
8.992834475e+19
8.757940963e+19
8.894480049e+19
8.782471714e+19
8.542718336e+19
8.709573727e+19
8.712582216e+19
8.511939186e+19
8.268945897e+19
7.913250007e+19
8.102321928e+19
8.368920279e+19
8.227521327e+19
7.862337128e+19
9.362647118e+19
9.378846671e+19
8.865783698e+19
8.915770889e+19
8.87226352e+19
9.122662318e+19
8.939838796e+19
8.400162273e+19
8.448066664e+19
8.660743647e+19
8.648015428e+19
8.601730992e+19
8.688977153e+19
8.423073069e+19
8.315693178e+19
8.420990269e+19
7.985916572e+19
8.334901219e+19
8.199982088e+19
8.162954539e+19
9.271003935e+19
9.261747048e+19
8.953724127e+19
9.142101781e+19
8.96784088e+19
8.958583992e+19
9.293451886e+19
9.06133544e+19
8.827136194e+19
8.60265668e+19
8.692679908e+19
8.473291682e+19
8.210396086e+19
8.429784312e+19
8.19813071e+19
8.164574494e+19
8.210627508e+19
8.340918195e+19
8.335364063e+19
8.196047911e+19
9.065038195e+19
9.109934098e+19
9.170798131e+19
9.240919052e+19
9.203428658e+19
9.003711317e+19
8.993065897e+19
8.941458751e+19
9.025002158e+19
8.601268147e+19
8.819036418e+19
8.757246696e+19
8.213173152e+19
8.541329803e+19
8.431172845e+19
8.434181334e+19
8.191188045e+19
8.298336514e+19
8.279128473e+19
8.322404421e+19
9.308494328e+19
9.491086428e+19
9.48599514e+19
9.255498649e+19
8.984271854e+19
9.219396789e+19
9.035879e+19
8.916696578e+19
8.979411989e+19
9.072212283e+19
8.712350793e+19
8.74706412e+19
8.316387444e+19
8.4943511e+19
8.652643871e+19
8.589234194e+19
8.628344542e+19
8.461951995e+19
8.442975376e+19
8.205999065e+19
9.300163129e+19
9.3374221e+19
9.146035958e+19
9.049764331e+19
9.049995753e+19
9.031250557e+19
9.049070065e+19
8.941458751e+19
8.984040432e+19
9.081006325e+19
9.15367289e+19
8.826441928e+19
8.53253576e+19
8.990057409e+19
8.783628825e+19
8.711425105e+19
8.384888409e+19
8.365911791e+19
8.354803526e+19
8.382111343e+19
9.231893587e+19
9.172649509e+19
9.367506984e+19
9.161541244e+19
9.332330812e+19
9.378615248e+19
9.096743034e+19
8.549198157e+19
8.84680708e+19
8.99862003e+19
9.113868275e+19
9.148813024e+19
9.001165674e+19
9.065038195e+19
9.068509528e+19
8.824127706e+19
8.420758847e+19
8.568174776e+19
8.430015734e+19
8.636444319e+19
9.136084804e+19
9.55287615e+19
9.753982024e+19
9.322842503e+19
9.39574049e+19
9.57624979e+19
9.146498802e+19
9.015051004e+19
9.006025539e+19
8.95302986e+19
8.932896131e+19
8.656115204e+19
8.74914692e+19
8.773909093e+19
8.929193376e+19
8.682034488e+19
8.529064427e+19
8.53785847e+19
8.462646262e+19
8.524435984e+19
9.293220464e+19
9.833359831e+19
9.548941973e+19
9.565372947e+19
9.306874373e+19
9.176815108e+19
9.213611234e+19
8.941921596e+19
9.069203794e+19
8.977097767e+19
8.663983558e+19
8.858609611e+19
8.881520407e+19
8.724153325e+19
8.802836866e+19
8.768123539e+19
8.715822126e+19
8.919242222e+19
8.865089432e+19
8.676017511e+19
9.023845047e+19
9.409857243e+19
9.605640406e+19
9.430222394e+19
9.194171771e+19
9.568381436e+19
9.409394398e+19
9.009728294e+19
9.133770582e+19
9.329785168e+19
9.072906549e+19
9.012736782e+19
8.733873056e+19
8.863700899e+19
8.605202324e+19
8.720219148e+19
8.816722196e+19
8.753312519e+19
8.60265668e+19
8.737575811e+19
9.339273478e+19
9.555190371e+19
9.234902075e+19
9.384632225e+19
9.276789489e+19
9.337653523e+19
9.391806313e+19
9.475812564e+19
8.910448179e+19
9.288129176e+19
9.065038195e+19
8.938450263e+19
9.07938637e+19
9.071055172e+19
8.672314756e+19
8.656115204e+19
8.773677671e+19
8.755858163e+19
8.769512072e+19
8.785017358e+19
9.694737946e+19
9.526031177e+19
9.53065962e+19
9.444339147e+19
9.515385756e+19
9.406154488e+19
9.180055018e+19
9.142101781e+19
9.230505053e+19
9.4626215e+19
9.323768192e+19
8.783397403e+19
9.272855312e+19
9.374681071e+19
8.738038655e+19
8.884760317e+19
8.967378035e+19
8.861618099e+19
8.81602793e+19
8.938913107e+19
9.443182036e+19
9.568612858e+19
9.620220004e+19
9.522097e+19
9.863907559e+19
9.472572653e+19
9.373755383e+19
9.287897754e+19
9.361952851e+19
9.578101167e+19
9.563752992e+19
9.047681532e+19
9.332562235e+19
9.454753145e+19
9.126827917e+19
8.878974763e+19
8.871569253e+19
9.058326952e+19
9.03055629e+19
9.072675127e+19
9.619294315e+19
9.83220272e+19
9.400137511e+19
9.032176246e+19
9.637345245e+19
9.530196776e+19
9.407311599e+19
9.494094916e+19
9.413328575e+19
9.51469149e+19
9.465167144e+19
9.16964102e+19
9.404071688e+19
9.211297013e+19
9.347141832e+19
9.361721429e+19
9.182832084e+19
9.236984874e+19
9.048144376e+19
8.932433286e+19
9.554727527e+19
1.000137233e+20
9.826417166e+19
9.320065437e+19
9.391112046e+19
9.630634002e+19
9.518162823e+19
9.285583532e+19
9.423048307e+19
9.508905935e+19
9.51677429e+19
9.330479435e+19
9.431610927e+19
9.164781154e+19
9.167558221e+19
9.162004088e+19
8.90952249e+19
8.973857856e+19
9.32885948e+19
9.339736322e+19
9.696820745e+19
9.899315152e+19
9.662107418e+19
9.688952391e+19
9.571621346e+19
9.348761787e+19
9.347604676e+19
9.612583072e+19
9.579026856e+19
9.736393938e+19
9.632948224e+19
9.414022842e+19
9.318676904e+19
9.365887028e+19
9.536676597e+19
9.137936182e+19
8.978717722e+19
8.9190108e+19
9.251564472e+19
9.230273631e+19
7.497940809e+19
7.534123837e+19
7.520693905e+19
7.672925007e+19
7.412428507e+19
7.431968265e+19
8.10713381e+19
8.046427144e+19
7.840308072e+19
7.975110525e+19
7.845821577e+19
7.842144538e+19
7.593101464e+19
7.5697543e+19
7.534032276e+19
7.469086039e+19
7.840519058e+19
8.01813253e+19
7.823355036e+19
7.899949684e+19
8.100583896e+19
7.941451814e+19
8.021976689e+19
7.785607907e+19
7.734003058e+19
7.547280817e+19
8.174251997e+19
7.921089017e+19
7.950502803e+19
8.215293274e+19
8.073364729e+19
8.240575687e+19
7.920267149e+19
8.105363986e+19
7.981632602e+19
7.610628432e+19
8.256930456e+19
8.115643667e+19
8.030558805e+19
8.097454409e+19
8.052830929e+19
7.881338429e+19
7.900409517e+19
7.844388326e+19
7.770852646e+19
7.930831154e+19
7.978935751e+19
7.841349596e+19
7.862205743e+19
8.065682949e+19
8.032058364e+19
8.062640232e+19
8.053458213e+19
7.941217682e+19
7.919725258e+19
8.058268847e+19
8.137325382e+19
7.76254564e+19
7.877275108e+19
8.195139736e+19
8.327410808e+19
8.333390726e+19
7.992674655e+19
7.993168833e+19
8.13762948e+19
7.996653398e+19
8.129429179e+19
8.071681842e+19
8.293566317e+19
8.129700069e+19
8.231665998e+19
8.392782638e+19
8.273586717e+19
8.227315119e+19
8.055331887e+19
8.44132428e+19
8.388379916e+19
8.436238073e+19
8.247416442e+19
8.219324038e+19
8.135682423e+19
8.349981948e+19
8.387888807e+19
8.293168762e+19
8.414247466e+19
8.385152714e+19
8.430880359e+19
8.361409284e+19
8.530908758e+19
8.534193313e+19
8.450374782e+19
8.351665179e+19
8.344056956e+19
8.551461444e+19
8.483770459e+19
8.308195195e+19
8.347969658e+19
8.391808513e+19
8.627917912e+19
8.678824701e+19
8.474490175e+19
8.588752153e+19
8.326136587e+19
8.470485734e+19
8.631414634e+19
8.488835031e+19
8.516810275e+19
8.487448987e+19
8.80945661e+19
8.436270945e+19
8.487860963e+19
8.237449794e+19
8.356649507e+19
8.373412704e+19
8.544695202e+19
8.609344072e+19
8.45201446e+19
8.659087334e+19
8.43413518e+19
8.324122378e+19
8.32191921e+19
8.221339422e+19
8.618672595e+19
8.519022367e+19
8.546414852e+19
8.614045657e+19
8.588805505e+19
8.715676621e+19
8.70868029e+19
8.676453696e+19
8.583367008e+19
8.726531905e+19
8.801023391e+19
8.681705316e+19
8.585229749e+19
8.765486115e+19
8.692618064e+19
8.698606258e+19
8.908113799e+19
8.629033548e+19
8.49144244e+19
8.673632115e+19
8.801749765e+19
9.031949011e+19
8.875850597e+19
8.801366755e+19
8.706320393e+19
8.940162818e+19
8.991466345e+19
8.770582513e+19
8.799449373e+19
8.629629157e+19
8.869071855e+19
9.163412522e+19
8.973625046e+19
9.051787944e+19
8.971309558e+19
8.997921246e+19
8.938488048e+19
8.905492727e+19
9.144465021e+19
9.161030992e+19
9.25944269e+19
9.400973377e+19
9.342121475e+19
8.935980488e+19
9.183811716e+19
9.386329136e+19
9.108018404e+19
9.22818637e+19
9.134914416e+19
9.241102011e+19
9.241038235e+19
8.994388108e+19
9.276037717e+19
9.195062554e+19
9.388185435e+19
9.365751172e+19
9.237991678e+19
9.153025591e+19
9.147091437e+19
9.423125109e+19
9.205197602e+19
9.271949018e+19
8.935301417e+19
9.230200714e+19
)
;

boundaryField
{
    flow
    {
        type            calculated;
        value           nonuniform List<scalar> 
48
(
9.103222855e+19
8.979643411e+19
9.231430742e+19
9.362647118e+19
9.271003935e+19
9.065038195e+19
9.308494328e+19
9.300163129e+19
9.231893587e+19
9.136084804e+19
9.293220464e+19
9.023845047e+19
9.339273478e+19
9.694737946e+19
9.443182036e+19
9.619294315e+19
9.554727527e+19
9.696820745e+19
9.696820745e+19
9.899315152e+19
9.662107418e+19
9.688952391e+19
9.571621346e+19
9.348761787e+19
9.347604676e+19
9.612583072e+19
9.579026856e+19
9.736393938e+19
9.632948224e+19
9.414022842e+19
9.318676904e+19
9.365887028e+19
9.536676597e+19
9.137936182e+19
8.978717722e+19
8.9190108e+19
9.251564472e+19
9.230273631e+19
9.388185435e+19
9.365751172e+19
9.237991678e+19
9.153025591e+19
9.147091437e+19
9.423125109e+19
9.205197602e+19
9.271949018e+19
8.935301417e+19
9.230200714e+19
)
;
    }
    obstacle
    {
        type            calculated;
        value           nonuniform 0();
    }
    frontAndBack
    {
        type            empty;
    }
    procBoundary2to0
    {
        type            processor;
        value           nonuniform List<scalar> 
31
(
9.435313682e+19
9.159921289e+19
9.065269617e+19
8.983577588e+19
9.190237594e+19
8.65148676e+19
8.675554667e+19
8.816953619e+19
8.713970749e+19
8.71628497e+19
8.23099266e+19
8.259457588e+19
8.347166594e+19
8.421915958e+19
8.173599959e+19
7.99633057e+19
8.173831382e+19
8.143052232e+19
8.121067125e+19
8.010215901e+19
7.636185809e+19
7.474010507e+19
7.380722258e+19
7.878290867e+19
7.584884836e+19
7.440876531e+19
7.998211908e+19
7.662228319e+19
7.688908045e+19
7.779502712e+19
7.779502712e+19
)
;
    }
    procBoundary2to3
    {
        type            processor;
        value           nonuniform List<scalar> 
19
(
7.27157545e+19
7.49990272e+19
7.720004281e+19
7.45254226e+19
7.642981162e+19
8.041556879e+19
8.11932774e+19
8.094899655e+19
8.201834647e+19
8.28234737e+19
8.295807711e+19
8.378813209e+19
8.699368683e+19
8.774148356e+19
8.860394374e+19
9.296858274e+19
9.278412621e+19
9.221081604e+19
9.438191857e+19
)
;
    }
}


// ************************************************************************* //
