/*--------------------------------*- C++ -*----------------------------------*\
  =========                 |
  \\      /  F ield         | OpenFOAM: The Open Source CFD Toolbox
   \\    /   O peration     | Website:  https://openfoam.org
    \\  /    A nd           | Version:  7
     \\/     M anipulation  |
\*---------------------------------------------------------------------------*/
FoamFile
{
    version     2.0;
    format      ascii;
    class       volScalarField;
    location    "0.009";
    object      rhoN;
}
// * * * * * * * * * * * * * * * * * * * * * * * * * * * * * * * * * * * * * //

dimensions      [0 -3 0 0 0 0 0];

internalField   nonuniform List<scalar> 
546
(
1.24967977e+20
8.331198464e+19
9.372598272e+19
1.35381975e+20
1.145539789e+20
8.331198464e+19
6.248398848e+19
1.145539789e+20
4.165599232e+19
1.24967977e+20
1.35381975e+20
7.289798656e+19
1.666239693e+20
9.372598272e+19
8.331198464e+19
1.24967977e+20
7.289798656e+19
1.457959731e+20
8.331198464e+19
8.331198464e+19
6.248398848e+19
9.372598272e+19
1.24967977e+20
8.331198464e+19
9.372598272e+19
1.666239693e+20
1.041399808e+20
8.331198464e+19
6.248398848e+19
1.041399808e+20
1.24967977e+20
8.331198464e+19
8.331198464e+19
9.372598272e+19
7.289798656e+19
9.372598272e+19
8.331198464e+19
8.331198464e+19
6.248398848e+19
8.331198464e+19
1.145539789e+20
6.248398848e+19
9.372598272e+19
1.041399808e+20
1.770379674e+20
7.289798656e+19
4.165599232e+19
1.041399808e+20
9.372598272e+19
9.372598272e+19
1.457959731e+20
1.041399808e+20
8.331198464e+19
6.248398848e+19
1.145539789e+20
5.20699904e+19
7.289798656e+19
1.874519654e+20
7.289798656e+19
1.145539789e+20
6.248398848e+19
1.145539789e+20
1.041399808e+20
1.35381975e+20
1.041399808e+20
1.24967977e+20
1.24967977e+20
1.24967977e+20
5.20699904e+19
1.145539789e+20
1.145539789e+20
8.331198464e+19
7.289798656e+19
1.457959731e+20
6.248398848e+19
3.124199424e+19
6.248398848e+19
1.35381975e+20
1.24967977e+20
9.372598272e+19
7.289798656e+19
8.331198464e+19
1.145539789e+20
8.331198464e+19
7.289798656e+19
7.289798656e+19
6.248398848e+19
1.457959731e+20
1.145539789e+20
1.24967977e+20
1.874519654e+20
8.331198464e+19
6.248398848e+19
1.145539789e+20
8.331198464e+19
1.145539789e+20
7.289798656e+19
1.145539789e+20
1.145539789e+20
7.289798656e+19
9.372598272e+19
1.041399808e+20
8.331198464e+19
6.248398848e+19
9.372598272e+19
1.145539789e+20
1.562099712e+20
1.145539789e+20
9.372598272e+19
8.331198464e+19
8.331198464e+19
1.24967977e+20
1.35381975e+20
1.041399808e+19
9.372598272e+19
1.24967977e+20
1.666239693e+20
7.289798656e+19
6.248398848e+19
6.248398848e+19
7.289798656e+19
8.331198464e+19
8.331198464e+19
1.041399808e+20
1.457959731e+20
1.24967977e+20
6.248398848e+19
7.289798656e+19
1.041399808e+20
6.248398848e+19
1.041399808e+20
1.041399808e+20
1.35381975e+20
9.372598272e+19
1.35381975e+20
1.145539789e+20
6.248398848e+19
1.041399808e+20
1.145539789e+20
1.562099712e+20
5.20699904e+19
1.457959731e+20
7.289798656e+19
1.145539789e+20
1.041399808e+20
3.124199424e+19
8.331198464e+19
9.372598272e+19
1.770379674e+20
1.041399808e+20
6.248398848e+19
7.289798656e+19
1.041399808e+20
1.24967977e+20
5.20699904e+19
1.35381975e+20
9.372598272e+19
1.041399808e+20
1.041399808e+20
9.372598272e+19
6.248398848e+19
1.24967977e+20
1.041399808e+20
1.145539789e+20
1.041399808e+20
1.457959731e+20
1.35381975e+20
1.145539789e+20
9.372598272e+19
8.331198464e+19
1.35381975e+20
1.145539789e+20
1.041399808e+20
1.145539789e+20
1.457959731e+20
1.35381975e+20
1.35381975e+20
8.331198464e+19
1.145539789e+20
9.372598272e+19
9.372598272e+19
6.248398848e+19
6.248398848e+19
1.145539789e+20
8.331198464e+19
8.331198464e+19
1.145539789e+20
6.248398848e+19
9.372598272e+19
1.145539789e+20
1.666239693e+20
1.24967977e+20
7.289798656e+19
7.289798656e+19
7.289798656e+19
6.248398848e+19
1.24967977e+20
1.145539789e+20
1.35381975e+20
9.372598272e+19
6.248398848e+19
1.041399808e+20
1.24967977e+20
8.331198464e+19
7.289798656e+19
2.291079578e+20
6.248398848e+19
4.165599232e+19
1.35381975e+20
7.289798656e+19
4.165599232e+19
1.666239693e+20
1.145539789e+20
9.372598272e+19
1.24967977e+20
1.457959731e+20
1.041399808e+20
6.248398848e+19
8.331198464e+19
1.35381975e+20
6.248398848e+19
7.289798656e+19
1.35381975e+20
1.041399808e+20
8.331198464e+19
6.248398848e+19
1.35381975e+20
3.124199424e+19
7.289798656e+19
9.372598272e+19
1.145539789e+20
1.24967977e+20
9.372598272e+19
7.289798656e+19
6.248398848e+19
1.457959731e+20
1.35381975e+20
1.562099712e+20
1.24967977e+20
7.289798656e+19
7.289798656e+19
1.145539789e+20
8.331198464e+19
1.145539789e+20
1.041399808e+20
1.35381975e+20
9.372598272e+19
1.24967977e+20
1.041399808e+20
8.331198464e+19
8.331198464e+19
1.35381975e+20
1.041399808e+20
5.20699904e+19
1.35381975e+20
1.24967977e+20
8.331198464e+19
1.041399808e+20
7.289798656e+19
8.331198464e+19
6.248398848e+19
9.372598272e+19
1.145539789e+20
9.372598272e+19
1.145539789e+20
1.145539789e+20
8.331198464e+19
5.20699904e+19
1.24967977e+20
1.24967977e+20
1.145539789e+20
6.248398848e+19
1.978659635e+20
7.289798656e+19
1.24967977e+20
8.331198464e+19
5.20699904e+19
1.041399808e+20
3.124199424e+19
9.372598272e+19
9.372598272e+19
8.331198464e+19
8.331198464e+19
1.24967977e+20
1.041399808e+20
1.145539789e+20
1.145539789e+20
9.372598272e+19
7.289798656e+19
8.331198464e+19
9.372598272e+19
6.248398848e+19
6.248398848e+19
1.562099712e+20
7.289798656e+19
6.248398848e+19
6.248398848e+19
1.145539789e+20
9.372598272e+19
1.24967977e+20
7.289798656e+19
9.372598272e+19
8.331198464e+19
1.145539789e+20
1.145539789e+20
9.372598272e+19
8.331198464e+19
1.24967977e+20
6.248398848e+19
1.041399808e+20
7.289798656e+19
1.24967977e+20
1.145539789e+20
1.35381975e+20
5.20699904e+19
7.289798656e+19
1.35381975e+20
7.289798656e+19
1.24967977e+20
6.248398848e+19
9.372598272e+19
8.331198464e+19
8.331198464e+19
6.248398848e+19
6.248398848e+19
1.041399808e+20
8.331198464e+19
8.331198464e+19
1.041399808e+20
5.20699904e+19
1.978659635e+20
7.289798656e+19
9.372598272e+19
7.289798656e+19
1.24967977e+20
1.145539789e+20
1.041399808e+20
1.041399808e+20
1.145539789e+20
6.248398848e+19
9.372598272e+19
4.165599232e+19
1.666239693e+20
9.372598272e+19
1.24967977e+20
1.145539789e+20
1.041399808e+20
1.145539789e+20
1.145539789e+20
1.145539789e+20
6.248398848e+19
4.165599232e+19
1.35381975e+20
6.248398848e+19
6.248398848e+19
1.666239693e+20
6.248398848e+19
1.145539789e+20
1.145539789e+20
1.145539789e+20
1.289331604e+20
1.082039934e+20
1.08974506e+20
7.682925005e+19
1.326587145e+20
1.224886559e+20
5.225464384e+19
4.209116205e+19
1.165521201e+20
9.60256797e+19
1.181887304e+20
1.190243928e+20
7.628215471e+19
7.682925005e+19
1.437136064e+20
1.224886559e+20
1.045092884e+20
5.261395256e+19
1.271477674e+20
7.468663977e+19
1.181887296e+20
3.246119826e+19
9.807705606e+19
2.19512143e+19
8.843914303e+19
7.794732648e+19
1.254111452e+20
1.999330197e+20
8.476517826e+19
4.267807987e+19
1.181887304e+20
6.492239607e+19
8.717960539e+19
1.207316795e+20
8.84391424e+19
4.45413291e+19
7.315650138e+19
4.209116176e+19
6.35738837e+19
1.173647204e+20
7.521101025e+19
1.839467889e+20
4.358980239e+19
1.317072849e+20
8.84391424e+19
5.567666177e+19
5.225464384e+19
1.262734853e+20
1.165521201e+20
1.173647204e+20
6.446658021e+19
1.406651915e+20
1.634617601e+20
1.207316795e+20
8.843914303e+19
3.340599706e+19
8.360743015e+19
1.262734861e+20
8.476517826e+19
1.493732795e+20
5.372215018e+19
1.406651925e+20
9.807705606e+19
9.878046435e+19
1.105489288e+20
1.002179919e+20
1.045092884e+20
6.313674307e+19
1.271477674e+20
1.600428006e+20
1.504220205e+20
5.410199672e+19
1.416668588e+20
9.878046435e+19
1.437136064e+20
8.908265883e+19
7.315650138e+19
8.418232409e+19
9.536082619e+19
1.066952004e+20
7.521101025e+19
4.328159738e+19
1.08974506e+20
9.878046435e+19
1.216038217e+20
5.567666177e+19
1.254111452e+20
9.470511396e+19
1.165521193e+20
1.493732785e+20
1.289331595e+20
1.082039942e+20
9.807705674e+19
8.780485781e+19
9.949403591e+19
1.224886559e+20
9.405835892e+19
8.418232409e+19
1.059564735e+20
7.468664028e+19
7.521101076e+19
9.738359478e+19
6.538470358e+19
1.317072849e+20
1.879331776e+20
5.567666177e+19
1.567639326e+20
1.052279051e+20
7.416953098e+19
8.535616032e+19
1.289331604e+20
9.73835941e+19
1.525643094e+20
8.780485781e+19
5.527446439e+19
1.002179912e+20
1.254111452e+20
1.157506948e+20
7.416953048e+19
2.133903993e+19
1.396775905e+20
8.656319476e+19
9.807705538e+19
1.097560715e+20
1.216038217e+20
1.002179912e+20
8.360743015e+19
3.156837153e+19
8.476517884e+19
9.602568036e+19
1.181887304e+20
9.738359478e+19
6.53847045e+19
8.780485781e+19
7.73842496e+19
1.336239873e+20
9.405835892e+19
8.418232352e+19
9.53608249e+19
1.387037596e+20
1.074443004e+20
8.656319476e+19
3.269235179e+19
8.780485658e+19
9.94940352e+19
5.567666217e+19
1.35862074e+20
9.47051146e+19
6.357388413e+19
1.173647196e+20
1.074442996e+20
9.73835941e+19
6.538470404e+19
1.756097156e+20
4.421957151e+19
6.681199412e+19
1.254111461e+20
1.052279051e+20
1.059564728e+20
6.401712024e+19
1.181887304e+20
1.190243928e+20
1.08974506e+20
5.487803575e+19
7.738425015e+19
1.113533235e+20
9.405835892e+19
1.157506956e+20
1.377434147e+20
1.493732795e+20
1.289331604e+20
7.574279594e+19
9.807705674e+19
1.426828929e+20
6.63293568e+19
7.794732648e+19
1.045092877e+20
1.157506948e+20
6.35738837e+19
1.066952004e+20
1.611664505e+20
1.190243928e+20
9.807705538e+19
9.878046435e+19
1.216038217e+20
8.908265883e+19
)
;

boundaryField
{
    flow
    {
        type            zeroGradient;
    }
    obstacle
    {
        type            calculated;
        value           nonuniform 0();
    }
    frontAndBack
    {
        type            empty;
    }
    procBoundary2to0
    {
        type            processor;
        value           nonuniform List<scalar> 
31
(
5.20699904e+19
1.24967977e+20
6.248398848e+19
1.145539789e+20
1.24967977e+20
9.372598272e+19
9.372598272e+19
1.666239693e+20
1.145539789e+20
8.331198464e+19
1.24967977e+20
9.372598272e+19
1.145539789e+20
1.24967977e+20
1.24967977e+20
1.35381975e+20
9.372598272e+19
1.041399808e+20
1.145539789e+20
9.372598272e+19
9.669987032e+19
9.73835941e+19
6.538470404e+19
6.585364336e+19
1.105489288e+20
7.794732648e+19
6.270557261e+19
8.418232352e+19
9.536082555e+19
8.535616032e+19
8.535616032e+19
)
;
    }
    procBoundary2to3
    {
        type            processor;
        value           nonuniform List<scalar> 
19
(
1.121695102e+20
6.730170614e+19
6.730170662e+19
1.458203633e+20
1.233864613e+20
5.608475552e+19
1.233864621e+20
1.009525592e+20
1.12169511e+20
1.009525592e+20
8.973560819e+19
7.851865773e+19
1.121695102e+20
1.233864613e+20
2.019051213e+20
8.973560819e+19
1.233864613e+20
1.233864621e+20
7.851865717e+19
)
;
    }
}


// ************************************************************************* //
