/*--------------------------------*- C++ -*----------------------------------*\
  =========                 |
  \\      /  F ield         | OpenFOAM: The Open Source CFD Toolbox
   \\    /   O peration     | Website:  https://openfoam.org
    \\  /    A nd           | Version:  7
     \\/     M anipulation  |
\*---------------------------------------------------------------------------*/
FoamFile
{
    version     2.0;
    format      ascii;
    class       volScalarField;
    location    "0.0175";
    object      mag(U);
}
// * * * * * * * * * * * * * * * * * * * * * * * * * * * * * * * * * * * * * //

dimensions      [0 1 -1 0 0 0 0];

internalField   nonuniform List<scalar> 
1000
(
3.21402e-15
3.29387e-15
2.86545e-15
3.34643e-15
4.24217e-15
3.74359e-15
2.7711e-15
1.41974e-15
1.12565e-15
2.03187e-15
3.18362e-15
3.19367e-15
2.39566e-15
1.21312e-15
7.00643e-16
1.15862e-15
1.92045e-15
1.92512e-15
2.13938e-15
2.35578e-15
1.22659e-15
1.36445e-15
1.74515e-15
1.39052e-15
9.59635e-16
3.9436e-17
8.62447e-16
5.71e-16
9.65363e-16
1.19765e-16
7.94428e-16
7.66974e-16
1.49941e-15
7.51862e-16
6.45039e-16
2.4989e-16
7.39474e-16
1.40903e-16
5.95387e-16
3.17615e-18
3.56558e-16
1.37283e-16
1.7667e-17
1.173e-16
3.54709e-16
4.62173e-16
9.3922e-17
2.38755e-16
7.0873e-16
1.26988e-16
9.39369e-16
3.65226e-16
4.89619e-16
2.49794e-16
1.30396e-15
1.19482e-16
7.08962e-16
4.6962e-16
1.46535e-15
2.51614e-16
7.25517e-16
3.35656e-16
5.63591e-16
4.76874e-16
2.34973e-16
5.95101e-16
4.64211e-16
1.07067e-15
4.7604e-16
3.60042e-16
5.7539e-16
3.83862e-16
1.04801e-15
8.59553e-16
1.30095e-15
8.22506e-16
2.43639e-16
2.61742e-16
5.56853e-16
2.40114e-16
3.55155e-16
5.69806e-16
1.09575e-16
1.43362e-16
2.2387e-16
4.79542e-16
9.20277e-16
1.21468e-15
1.30018e-15
2.35894e-15
1.17249e-15
4.42471e-16
2.63642e-16
6.68337e-17
5.67399e-16
4.85675e-16
9.52397e-16
1.31267e-16
1.22502e-16
1.37303e-16
1.11665e-15
7.95223e-16
1.29326e-15
2.40624e-16
2.81754e-16
1.03226e-15
1.5508e-15
1.24552e-15
9.26246e-16
1.00685e-16
3.71469e-16
1.42184e-16
1.9761e-16
8.40693e-17
1.77247e-16
6.96243e-16
2.38135e-16
3.68197e-16
1.56105e-17
8.18926e-16
1.06132e-16
1.57709e-16
2.54961e-16
3.29216e-16
5.83628e-17
9.25344e-16
4.58613e-16
3.41711e-16
2.96641e-18
9.07705e-16
3.18759e-16
1.11492e-15
1.57111e-15
9.56852e-16
3.60201e-16
8.64883e-16
2.17239e-15
7.8488e-16
9.96454e-16
2.95846e-15
2.01812e-15
7.67924e-16
1.16538e-15
1.14767e-15
3.30311e-16
1.69664e-16
2.87203e-16
7.13789e-16
1.03118e-15
1.43204e-15
1.29092e-15
1.88743e-15
8.64515e-16
4.73655e-16
2.56422e-16
5.77835e-16
1.24033e-15
1.82532e-15
5.08582e-16
2.59487e-16
5.0069e-16
2.33242e-16
1.20994e-15
1.63745e-15
9.55959e-16
9.66498e-16
1.06687e-15
1.54113e-15
1.54628e-15
1.19673e-15
7.36768e-16
9.37076e-16
1.13834e-16
9.46205e-16
5.96304e-16
1.06018e-15
2.54226e-18
1.51274e-15
4.83674e-16
3.5693e-16
7.26437e-16
2.12177e-16
2.14079e-16
1.4514e-15
1.31309e-15
1.07579e-15
4.49407e-16
2.62014e-16
3.60117e-16
1.12409e-17
2.34275e-16
4.62684e-16
8.17226e-16
2.57131e-17
3.59207e-16
2.38463e-16
8.31322e-16
1.66328e-15
2.11856e-15
1.94413e-15
1.62598e-15
1.6886e-15
1.657e-15
9.59751e-16
8.41542e-16
3.59054e-16
8.173e-16
4.98792e-16
3.43888e-16
1.21978e-15
1.76948e-15
1.21559e-15
1.76752e-15
1.665e-15
2.34921e-15
1.38309e-15
2.02521e-15
1.62148e-15
6.71127e-16
4.26012e-16
1.01551e-15
2.34863e-15
2.45114e-15
2.82053e-15
2.69739e-15
3.08194e-15
2.86084e-15
2.97547e-15
2.97425e-15
3.33996e-15
3.34147e-15
2.75198e-15
2.50808e-15
2.27323e-15
2.26816e-15
2.38859e-15
2.02802e-15
2.1443e-15
2.26282e-15
1.78702e-15
1.54933e-15
1.54933e-15
1.90686e-15
1.90686e-15
1.43015e-15
1.43015e-15
1.54959e-15
1.43015e-15
3.69111e-15
5.71478e-15
5.59626e-15
6.07258e-15
6.42959e-15
6.31015e-15
6.07192e-15
6.07192e-15
5.60484e-15
4.9097e-15
2.7553e-15
8.44146e-16
1.30588e-16
4.73886e-16
1.17449e-15
6.80967e-16
1.09792e-15
1.06782e-15
9.43656e-16
3.92554e-16
1.19915e-15
1.66368e-15
2.02016e-15
2.37379e-15
1.90088e-15
2.13817e-15
1.79174e-15
1.55721e-15
1.20027e-15
1.31734e-15
1.19618e-15
4.86914e-16
5.7428e-16
1.41969e-15
5.9212e-16
1.13004e-16
1.07853e-15
2.13796e-15
3.2049e-15
2.75081e-15
2.02967e-15
1.88575e-15
7.90637e-16
7.29246e-17
7.1843e-16
6.90166e-16
6.7662e-16
1.33743e-15
1.27369e-15
4.17682e-16
4.85881e-16
1.20301e-15
1.43642e-15
9.81153e-16
5.74412e-16
1.19641e-15
4.76848e-16
4.82326e-16
8.33197e-16
9.58791e-16
1.65425e-15
2.28163e-15
1.75953e-15
1.18908e-15
3.54426e-16
7.12111e-16
4.73089e-16
2.36126e-16
1.10011e-15
1.02001e-16
3.35556e-16
2.61254e-16
2.29261e-16
9.51421e-16
2.24003e-15
2.63346e-15
1.53929e-15
1.93734e-15
2.88111e-15
1.62793e-15
9.39126e-16
1.43399e-15
1.07522e-15
1.30747e-15
1.29981e-15
4.66535e-16
1.27966e-16
9.93059e-17
6.06465e-16
9.7417e-16
4.83929e-16
5.89383e-16
8.36519e-16
4.84218e-16
8.40656e-16
7.1501e-16
2.37561e-16
1.2367e-16
9.44589e-16
7.04779e-16
3.58857e-16
1.33035e-16
5.89433e-16
3.58003e-16
9.44265e-16
1.07861e-15
3.64921e-16
1.22936e-16
1.42003e-16
8.47337e-16
5.08211e-16
2.24356e-16
1.37644e-15
1.68078e-15
2.12998e-15
2.49301e-15
1.66733e-15
1.1821e-15
2.33153e-16
8.26292e-18
1.27513e-16
2.29957e-16
3.49069e-16
3.48215e-16
4.71765e-16
3.55236e-16
3.57736e-16
1.20233e-16
5.96748e-16
7.17237e-16
7.10941e-16
7.27936e-16
6.07589e-16
1.10621e-16
4.26738e-16
4.53809e-16
7.08333e-16
1.61592e-17
1.13291e-16
3.84579e-17
6.07461e-16
7.28361e-16
4.81633e-16
4.62378e-16
7.07523e-16
4.61631e-16
2.06878e-17
1.36301e-16
6.2067e-16
4.93563e-16
1.00071e-15
1.02303e-15
3.80418e-16
3.44857e-16
1.53209e-16
3.29016e-17
4.54427e-16
3.33083e-16
1.11582e-16
1.18985e-15
1.89529e-15
2.7277e-15
2.25435e-15
1.67674e-15
1.44044e-14
6.62436e-14
2.53115e-13
9.37925e-13
3.43473e-12
1.23853e-11
4.38702e-11
1.52795e-10
5.22779e-10
1.7572e-09
5.80032e-09
1.87946e-08
5.97552e-08
1.86328e-07
5.69532e-07
1.7055e-06
5.00044e-06
1.43448e-05
4.02336e-05
0.000110241
0.000294848
0.000769167
0.00195613
0.00485161
0.0117651
0.0281054
0.0667517
0.142101
0.227434
0.297604
0.355827
0.407904
0.45713
0.505086
0.552455
0.599509
0.646351
0.693025
0.73956
0.785975
0.832289
0.878516
0.92467
0.970762
1.0168
1.0628
1.10875
1.15468
1.20058
1.24647
1.29234
1.3382
1.38405
1.4299
1.47575
1.5216
1.56746
1.61333
1.65921
1.7051
1.75101
1.79693
1.84287
1.88883
1.9348
1.98079
2.0268
2.07283
2.11886
2.16491
2.21096
2.25702
2.30307
2.34911
2.39512
2.44111
2.48705
2.53294
2.57876
2.62449
2.67009
2.71539
2.75997
2.80256
2.84038
2.8694
2.88507
2.88969
2.88849
2.88589
2.88667
2.88859
2.88872
2.88813
2.88777
2.88774
2.88785
2.88774
2.8876
2.88781
2.88826
2.88827
2.88724
2.88601
2.88559
2.88553
2.88558
2.88567
2.88582
2.88585
2.88543
2.88448
2.88403
2.88387
2.88378
2.8837
2.88377
2.88394
2.88396
2.88304
2.88223
2.88172
2.88128
2.88097
2.88124
2.88231
2.88329
2.88337
2.88333
2.88377
2.88414
2.88452
2.88498
2.88574
2.88609
2.88571
2.8863
2.88983
2.88749
2.85232
2.91496
2.94147
2.90449
2.85855
2.85075
2.85155
2.8529
2.85859
2.88125
2.9176
2.92614
2.92354
2.91211
2.8751
2.85426
2.85044
2.84991
2.85458
2.87972
2.91232
2.91822
2.91939
2.91389
2.88493
2.85377
2.84916
2.84993
2.85424
2.87163
2.90514
2.91498
2.91589
2.91296
2.89915
2.86548
2.85511
2.85438
2.85578
2.86665
2.89842
2.90646
2.89777
2.77027
1.75136
0.208951
0.0145915
0.000973306
6.4945e-05
4.34012e-06
2.90797e-07
1.95466e-08
1.31899e-09
8.94081e-11
6.0911e-12
4.16068e-13
2.84524e-14
1.66673e-15
5.96555e-17
1.82926e-16
5.98535e-16
3.59253e-16
1.19307e-16
6.45529e-16
7.56891e-16
3.23715e-16
4.79075e-16
3.24742e-17
7.54453e-16
9.43986e-16
1.882e-18
3.02171e-16
3.56877e-16
2.36642e-16
5.91276e-17
1.19443e-16
1.78901e-16
1.78901e-16
1.19377e-16
1.79758e-16
1.16407e-16
1.18255e-16
4.61934e-19
3.57801e-16
1.79165e-16
6.01517e-17
2.29665e-16
1.69607e-16
1.54223e-16
5.12705e-18
5.664e-16
1.08894e-15
6.05295e-16
4.24502e-16
2.41493e-16
6.04449e-17
5.37987e-16
1.42929e-15
2.32228e-15
2.97717e-15
2.9775e-15
2.56532e-15
2.14206e-15
1.84846e-15
1.90825e-15
1.3117e-15
1.54893e-15
2.21069e-15
2.38305e-15
2.55694e-15
2.56585e-15
2.32472e-15
2.62438e-15
2.9214e-15
2.91962e-15
3.75397e-15
5.30379e-15
5.71395e-15
4.07089e-15
2.41073e-15
1.72838e-15
3.91492e-16
8.92501e-16
1.51206e-15
1.50284e-15
1.25566e-15
9.59553e-16
7.88881e-16
4.25674e-16
1.184e-16
5.92656e-16
9.54778e-16
1.71932e-15
1.36555e-15
1.83878e-15
2.09009e-15
1.6235e-15
7.75998e-16
5.32603e-16
1.07897e-15
4.19449e-16
9.53505e-16
2.61619e-15
3.69838e-15
3.86967e-15
3.26161e-15
1.8396e-15
2.55271e-15
2.32761e-15
2.24247e-15
2.10351e-15
1.82756e-15
2.26028e-15
1.0883e-15
5.13198e-16
7.10771e-16
6.56592e-16
1.28571e-16
3.60073e-16
8.37619e-16
1.25316e-15
1.66857e-15
1.72467e-15
1.49746e-15
1.25072e-15
1.48994e-15
1.72975e-15
2.61923e-15
3.51842e-15
3.39172e-15
2.79899e-15
2.50263e-15
1.72698e-15
6.55221e-16
3.57141e-16
5.95895e-17
3.57537e-16
4.7665e-16
1.79363e-16
4.71239e-16
5.36042e-16
2.97088e-16
3.07146e-16
8.40645e-16
1.35013e-15
1.66734e-15
1.07149e-15
5.36306e-16
2.38358e-16
1.20433e-16
5.91936e-17
5.91936e-17
1.19377e-16
2.99202e-16
2.99334e-16
1.76393e-16
4.15939e-16
3.57471e-16
5.9451e-16
5.98799e-16
3.57471e-16
2.97948e-16
2.97948e-16
2.97948e-16
2.97948e-16
2.99202e-16
2.97618e-16
2.97618e-16
1.19047e-16
5.3888e-16
7.13095e-16
3.57933e-16
2.39348e-16
4.76056e-16
2.40272e-16
4.15675e-16
2.41328e-16
2.9775e-16
5.34986e-16
2.9478e-16
1.97972e-19
4.15807e-16
8.34188e-16
5.94048e-16
8.30658e-16
7.1877e-16
7.8419e-16
7.94005e-16
8.44876e-16
8.83385e-17
9.53741e-16
1.24195e-15
9.33336e-16
8.11167e-16
2.25352e-15
2.90326e-15
1.57905e-15
5.0299e-16
5.81756e-16
5.43195e-16
1.29574e-15
4.14457e-16
1.99102e-16
1.64048e-15
2.39082e-15
3.30883e-15
3.82057e-15
6.10785e-15
8.22003e-15
7.16554e-15
5.62396e-15
6.18726e-15
5.51035e-15
4.00445e-15
2.82098e-15
1.73045e-15
1.71318e-15
1.96636e-15
1.73324e-15
1.43166e-15
7.14609e-16
5.30539e-17
1.06902e-15
5.44143e-16
2.47069e-16
4.03948e-16
3.18931e-17
3.1367e-16
6.55561e-16
4.21481e-16
7.24497e-16
1.93739e-16
4.58404e-16
6.03823e-17
7.84362e-16
2.21675e-15
2.32671e-15
2.57666e-15
4.08253e-15
4.08369e-15
4.74093e-15
4.3446e-15
3.87215e-15
3.83236e-15
1.60879e-15
1.87381e-15
2.25289e-15
2.32573e-15
1.68292e-15
1.10438e-15
3.55889e-16
1.65826e-16
9.30901e-16
3.06408e-16
8.03268e-17
1.84197e-16
3.17743e-16
1.0541e-15
1.58098e-15
2.41499e-15
2.6775e-15
2.30099e-15
1.99149e-15
1.08662e-15
2.66816e-16
4.44581e-16
9.19854e-16
2.17965e-15
2.07894e-15
2.1016e-15
2.07844e-15
1.8451e-15
1.48209e-15
8.17461e-16
1.45582e-15
1.98721e-15
1.4253e-15
6.29527e-16
8.81021e-16
1.8916e-15
1.79828e-15
2.01301e-16
3.94813e-16
9.29239e-16
3.04848e-16
5.60094e-16
7.98113e-16
1.6398e-16
1.04853e-16
8.0632e-16
5.76348e-16
1.43867e-16
5.28288e-16
3.82725e-16
1.75358e-17
2.173e-16
1.79946e-16
4.01889e-16
9.10822e-16
1.82249e-16
1.40511e-17
3.93456e-16
1.80325e-16
1.08825e-15
1.47821e-15
1.16478e-15
5.4286e-16
1.92544e-16
5.86295e-16
9.19436e-16
4.47064e-16
7.99318e-16
2.36206e-15
2.99306e-15
2.54138e-15
1.16914e-15
4.77364e-16
6.48297e-16
7.8067e-16
2.95064e-16
1.33477e-16
5.68428e-16
1.03909e-15
3.6082e-17
1.01556e-16
5.08711e-16
1.56896e-15
2.0802e-15
3.32463e-15
2.64516e-15
1.5181e-15
1.28347e-15
3.90777e-16
1.09069e-15
4.16913e-16
2.98701e-17
8.58739e-16
1.74579e-15
3.38629e-15
4.10514e-15
3.24496e-15
3.54349e-15
3.79737e-15
3.90471e-15
4.20394e-15
3.66393e-15
3.13905e-15
2.33167e-15
1.60828e-15
1.63655e-15
1.38049e-15
8.2172e-16
2.26523e-16
1.49886e-16
2.69997e-16
6.30928e-16
5.53903e-16
1.20432e-16
4.53105e-16
1.08683e-15
2.47285e-15
2.98906e-15
3.3066e-15
4.54434e-15
3.68157e-15
2.83621e-15
1.73785e-15
1.22062e-15
2.93688e-16
4.93026e-16
9.83523e-16
1.34252e-15
1.89016e-15
1.92528e-15
1.76899e-15
2.08471e-15
2.02981e-15
1.15119e-15
2.31387e-16
4.02365e-16
4.38965e-17
1.06824e-16
1.03601e-15
9.32267e-16
8.82629e-16
2.46214e-15
3.971e-15
4.07459e-15
3.46172e-15
3.04778e-15
3.54232e-15
4.43102e-15
3.25039e-15
2.7887e-15
3.05519e-15
2.57891e-15
2.06162e-15
2.14812e-15
2.33871e-15
1.69126e-15
6.50427e-16
3.72824e-16
7.61906e-16
2.42399e-15
3.73715e-15
4.83772e-15
5.69458e-15
6.4909e-15
6.99283e-15
)
;

boundaryField
{
    sides
    {
        type            calculated;
        value           nonuniform List<scalar> 2(6.99283e-15 3.21402e-15);
    }
    null
    {
        type            empty;
    }
}


// ************************************************************************* //
