/*--------------------------------*- C++ -*----------------------------------*\
  =========                 |
  \\      /  F ield         | OpenFOAM: The Open Source CFD Toolbox
   \\    /   O peration     | Website:  https://openfoam.org
    \\  /    A nd           | Version:  7
     \\/     M anipulation  |
\*---------------------------------------------------------------------------*/
FoamFile
{
    version     2.0;
    format      ascii;
    class       labelField;
    location    "0.007/lagrangian/dsmc";
    object      origId;
}
// * * * * * * * * * * * * * * * * * * * * * * * * * * * * * * * * * * * * * //


5315
(
9463
19955
10599
23033
21558
14355
19109
25097
25937
25912
26017
26400
10380
18116
10555
28941
29062
29563
32095
30120
7511
30674
22408
30960
31190
31224
19896
31468
31679
31768
32198
9359
8026
32679
30351
17484
32741
25561
32952
1284
23992
33145
29758
33482
33486
33571
33608
33685
29254
33881
12507
20378
11591
17345
6902
34278
34302
34304
26960
37196
36646
34661
20892
34675
6718
34703
34719
34737
34742
34779
34785
34832
32141
36813
34951
34975
29049
36294
26379
22184
14451
35180
33764
35273
35297
35317
35441
25359
15101
20194
30387
20642
11475
35743
35804
35844
35869
22813
21323
35932
26025
36081
36170
36199
7260
24964
19534
28415
36256
36313
29131
36391
36454
36613
36693
36670
5605
36697
36703
36707
37757
10521
33501
36803
36839
36840
36851
36893
5161
36915
36916
36955
28809
36997
37028
37043
37577
17690
37142
28284
33836
37233
6145
37298
37311
33296
37382
37477
9568
28453
37618
37619
12484
40591
37725
37732
13401
21239
36001
36600
33659
23931
24373
37916
21623
24505
29232
33411
38027
38057
33320
7731
15020
38118
27586
38198
9694
38223
6816
7099
9378
8905
38288
28528
38299
17460
38329
38339
38344
36935
38459
38475
26439
38494
38523
10973
9293
38561
38576
24247
38659
38687
17985
30310
38743
40850
38795
38800
24544
29864
24780
9825
42631
38883
20862
38893
38900
33784
38902
23300
35999
38952
37765
38979
38994
38997
39002
39008
24794
29651
39035
39097
23342
39856
23635
39232
16328
35199
39309
4266
39334
39353
32603
39402
41512
39409
43267
36510
39434
39451
28675
38637
35462
35941
39493
39494
7836
39554
39557
35260
35798
34647
39592
39599
39615
32186
39624
10748
39657
39661
24335
22650
20570
17640
26522
33303
7089
36210
39762
39768
15896
39793
27673
12462
8380
39848
39902
42711
39886
43105
39897
39920
39926
39929
39933
37375
33973
40647
6373
39595
39979
39999
32785
33432
40008
40054
40064
34750
36463
41309
40133
40157
39077
40178
35875
31971
40246
40249
40257
40258
40188
34278
27674
21032
40280
40285
24731
35627
40308
40310
40312
32722
21135
40349
40357
40360
27503
40365
40376
35748
36216
40384
40388
28170
16116
40711
40444
14284
40460
24964
43720
40466
29528
29731
32352
35054
40492
40496
12533
33385
40528
40531
271
40549
40551
40456
40570
36013
40579
40591
44403
40620
40626
11702
41681
36639
40631
40654
6013
13392
40683
17625
40695
40744
40748
40758
40759
33502
40075
40771
40774
40777
38426
40784
8548
10196
39650
32279
40849
40851
40981
40887
42551
36479
40926
34234
24289
40954
40970
29656
40985
40988
40823
41636
35423
40996
41006
32424
8203
5880
8995
27085
28839
31584
26357
41065
22395
41077
41078
41105
30246
41130
41133
41137
41147
41148
41159
41160
41162
23229
7162
41173
41176
41180
8582
39315
41205
41218
39712
25489
6499
43474
41240
36448
41245
41248
41261
41282
41299
27169
41315
41330
41356
41360
41366
32989
41403
13428
37748
4960
41411
41413
41414
41434
25388
29618
41443
26069
41462
10165
266
38289
23987
41493
33915
41503
41510
38354
41535
41543
39895
41560
41567
41579
33598
5566
41598
41608
40409
41611
40042
41615
33522
39199
41629
41633
41635
41639
9349
41646
41648
6297
19721
41651
41658
41668
39411
41671
9018
41686
41712
8591
41731
41762
41774
27612
45006
41790
41796
41801
41814
41815
41816
19044
33617
37066
22197
41830
36668
41840
41851
41257
28526
31883
43000
7750
41883
41916
41924
41930
20177
31549
41972
41980
42472
41989
8789
41996
42002
15202
23773
38562
40731
42821
33392
34722
41177
35342
10653
42061
9755
42075
34381
23666
39025
28535
42107
42111
28906
43951
24728
35595
42122
42144
42148
33264
42181
42195
42196
6971
32293
34810
36306
35974
42230
6755
42236
42241
42242
11752
44678
42245
38825
23699
40334
42267
42272
21171
35870
42285
42286
15078
6058
9100
42305
36920
39085
40008
37988
42333
42345
10885
42533
43991
9917
34417
40454
34920
42410
26434
32043
9221
43592
12897
42434
45518
42444
32385
6865
22419
42451
42453
32334
24997
36299
14694
42504
42518
19329
42562
42565
10643
42571
42576
42579
42582
42588
42599
42600
42607
25326
13144
42618
10201
42629
31272
35564
44130
42657
7045
40532
40886
42678
42680
42688
42691
42697
41923
42724
42735
42739
42742
36656
42767
42778
22129
22447
42796
42799
42801
42813
42709
26541
42857
36046
42873
36618
47227
42882
12252
42906
42921
42922
43761
42937
42939
42940
42951
42964
42967
42977
12787
42992
6419
11775
43003
43008
33094
26181
43078
27180
40662
20483
43027
43035
43036
35755
35305
37473
35169
5475
16652
45849
43046
32759
46239
40262
11655
34915
43086
43089
6796
37111
34117
38625
42752
12264
11837
42073
43117
43124
7374
43138
43141
42554
43143
43154
43965
43156
43169
43171
43185
43186
5705
43195
43197
44338
43207
43209
37293
27579
28179
43218
43223
43226
18704
40031
43241
43242
27144
39032
43250
43258
43264
34080
32852
43282
43290
18356
45592
13011
39531
9924
7269
43311
43313
34411
41919
43319
12690
6924
28857
42633
43352
30604
43355
43357
43360
43361
43365
43379
37241
29286
41183
43388
43391
11125
11416
20102
29511
38920
43400
36353
33883
44928
43421
47469
7714
43444
43445
43447
12381
19820
21890
41974
47253
9680
43469
43475
43480
43482
43485
40802
40993
28250
43517
34353
43522
36662
26486
25913
43568
18186
24284
12954
43569
43574
43576
38906
13727
43582
28931
43595
12870
43613
38097
39314
42931
39426
45904
43638
34665
43660
43667
29260
15490
39737
43688
43032
46511
43694
43696
31206
35560
43708
38256
43726
43734
5332
38689
46202
35395
43744
37057
47100
34654
43766
36797
32838
43769
43776
43791
29179
43793
43794
23001
46052
43814
6741
43829
31966
44066
43836
43843
43844
32397
615
38536
43854
9524
35888
43865
43869
41926
27908
43873
43880
43882
45556
43890
43892
36154
6021
19119
33068
16799
42425
43905
43913
43915
43916
43917
11274
38248
29757
35741
10454
22339
43946
43947
43956
43963
43970
23460
43974
43976
43978
48216
43986
42517
43966
37289
31247
42111
44023
44028
30474
25587
44039
30375
44052
13987
44057
11817
25298
44064
44068
44074
44077
44090
12116
38498
44101
44110
35701
46948
48218
44113
33990
37262
18833
44138
44140
42953
25308
37042
37567
30909
27045
44161
44163
42014
44171
44177
39246
44181
44189
11606
10468
44204
44214
37025
44221
44223
41910
44228
44234
33399
44237
44242
44243
32051
37105
40063
44245
44251
20895
44266
40532
44276
47389
46906
44291
38314
44302
44303
44307
44312
30976
37458
44322
44323
44331
44337
44347
9815
44355
44359
27645
48403
44365
44366
44371
39164
44390
15693
29545
44399
9890
34772
41293
42297
44434
44436
44437
35735
44439
44442
44448
44449
31403
37771
44454
44458
44460
44463
44467
44472
44473
44491
45559
45755
44495
44497
44506
44507
47997
25744
44523
44525
44526
44527
8768
44529
33657
22946
48748
44546
44547
44548
44556
44561
44568
7131
44586
15062
44602
44608
40183
24793
18021
44615
44631
15425
16898
44632
44644
11370
29547
9443
44650
44651
44653
11473
37700
20525
47364
44681
40125
28776
44688
9894
36255
8992
44714
44715
7187
27086
24207
49309
44718
44729
31586
33540
44747
45722
44770
47415
44788
36744
25663
45425
47577
44811
9893
39354
13886
44819
9869
44833
14412
44837
45720
27314
43608
44850
44854
44855
27712
44861
44866
44868
30142
22173
44874
44880
44883
10058
41884
31427
44890
44895
41549
44799
44897
44907
44913
41984
42229
43328
49299
44917
44927
44928
44932
44944
44948
41526
10339
39848
39060
26742
44952
44955
44964
39343
16705
18230
44978
34873
44983
44990
44991
44993
40566
45008
30603
46359
32389
39395
45017
34454
43341
45028
32284
42113
45033
35457
30776
45250
45037
45043
41073
98
12134
45062
20410
38261
32055
47527
45074
45076
45081
17841
23720
29129
43572
40542
45090
42700
32175
47466
45109
45111
45119
45120
45126
45130
45136
45140
45145
39652
29511
22763
45154
45155
44920
45163
44455
40513
32202
21406
45175
45178
11153
48586
45185
45198
45199
10849
45203
35294
9928
42115
45091
45214
45215
45221
45223
13156
20755
41739
33923
45235
45236
45237
45244
45245
7297
22394
24854
45252
45253
11111
9628
40529
43252
44751
9024
45265
45266
45269
40411
45275
45284
45286
33205
45291
45293
45295
45299
31682
41735
43833
41842
11403
45307
45310
45313
45315
43649
45318
45326
28685
45212
45328
45347
23692
45357
31214
42022
18381
14453
45367
45369
29823
47827
41663
23405
47452
45372
45387
45394
10333
14234
16402
46658
38350
39150
28684
45411
39572
49914
45415
35902
48765
45431
45432
6149
42974
13310
45438
45447
45450
45451
32151
43015
43537
11511
45465
27202
28320
25530
45476
45481
38418
46805
24300
45483
45484
45489
45495
45502
45503
26158
45511
34303
35711
45518
18043
40832
22956
37963
41296
36554
43704
45555
45556
45557
37938
16623
44151
45565
45569
45571
40795
35098
49408
45578
45584
45587
5110
45591
45597
20647
45610
45611
45612
45616
45618
30500
43239
25157
37213
45625
38380
8829
45630
45633
29802
11198
43796
45635
45646
45649
37070
45655
45666
45671
45673
45674
12187
45682
45684
34629
46528
45695
45699
45700
45701
29803
45703
45704
45705
45710
39122
35065
45716
45727
9536
29234
45736
38813
45752
38480
15437
10805
45768
45770
22881
45776
45782
39203
19644
42679
45805
44901
40392
45808
45809
45813
47050
48817
9533
1371
40509
45824
17139
5117
48816
45833
45834
45835
40723
37785
45840
48547
45848
45849
45851
45854
45855
45857
45185
9573
45862
45863
45866
45869
45875
45877
31071
7740
45885
45886
8679
33960
35066
38751
47236
33037
45902
35859
45918
45924
45930
45934
45935
22720
28859
7213
43682
17316
45944
45949
45950
15471
45953
45958
46462
40826
45960
45963
45965
49620
45970
8584
45987
45990
10976
50056
12650
45997
46402
46004
46006
46011
46015
46016
11889
7435
47070
45936
28932
43887
45758
46020
46029
29561
31876
46756
32868
46038
46039
40823
16832
43235
46047
46048
42475
13212
41309
46056
46061
17018
44089
38467
46069
46074
46075
46078
7419
31205
37138
33011
46079
46088
46090
35591
46093
46101
46103
46104
46105
33794
39244
37020
10618
33289
28321
40980
36951
42733
46107
46116
5882
46123
46125
46126
46130
46139
16850
39958
45837
43161
20464
42325
46150
46151
34888
9840
35029
48338
50605
46156
46160
46162
34251
22344
47753
35957
45810
46163
46164
46167
39096
6190
6151
12600
46171
46179
46180
36563
42312
46191
47608
14642
48170
40075
23984
7301
12143
46217
46219
46220
46226
46227
32371
27432
22364
46231
46236
46238
46244
46246
8027
38079
35584
46747
42866
46250
46252
46253
42979
9564
46263
10102
32948
39418
24021
46267
46270
12576
10692
46008
35754
12267
46274
46277
46285
46286
46287
46288
18939
26307
37540
41793
33764
46296
46297
46299
46303
46306
35643
7182
38734
40378
45378
46309
46311
46316
46318
46319
46320
46321
37984
703
32539
9029
46323
46325
46334
46336
46347
46353
41300
43324
43910
19789
45521
25742
45006
46356
46363
46364
32462
27518
40964
44591
50725
46367
46370
46373
13451
39391
43830
45817
22836
46382
46383
46392
30326
13192
41362
10289
46395
46397
46398
46406
46409
46410
9614
37430
44674
51207
46413
46417
36669
30385
18725
44799
42590
46420
46422
33991
43715
41316
7050
46045
33782
4262
46430
46436
46437
46439
46444
46445
46446
2333
33938
46449
46451
46458
35647
12789
11060
35072
31497
46467
46470
46472
35030
45453
46480
41641
31983
48132
43193
46489
46494
7769
44005
45998
44593
46508
46521
46522
46524
42803
46935
45204
36934
46531
46534
46379
35571
29316
44002
23981
43895
20599
46546
28967
36405
14122
17829
42932
43940
45428
51192
46552
46555
46560
46564
29456
36127
23735
22089
46572
46576
12117
51254
46578
46583
46588
31511
22191
20711
34980
46438
46600
46603
46604
46605
46606
22482
46607
46615
46619
41551
22981
7858
38011
43523
46624
46625
46629
46630
46632
13687
24283
47647
43476
37594
46636
11941
33040
46639
46643
40330
42606
46657
46661
46662
27747
42456
46664
46666
46670
46674
46675
46679
8425
35764
40211
23248
46689
11242
26975
27080
31014
46199
46691
46696
46698
46700
46701
9062
37190
43933
47969
48442
37440
46705
46710
46712
46713
46717
46719
46721
46723
46724
41871
46733
38606
44921
45287
41326
32725
46743
46746
46747
14632
46617
48677
39218
31428
36141
51566
46752
30435
10726
46756
46757
46761
46764
11515
45136
10913
46775
46780
37056
9789
39165
46788
46789
26651
25273
38083
20518
28192
37134
13536
42883
9340
26264
49257
10089
46804
46810
46815
8445
46746
39707
32024
29352
49108
44151
51524
46821
46828
46830
46833
43614
33000
12053
31481
27295
36905
46839
46841
46842
46844
43891
46493
48371
46850
25068
12666
43340
46852
46855
46859
46860
46862
46864
40250
46866
46868
46872
46877
46878
46879
46880
46882
46883
43508
49820
49426
46884
46885
46887
46889
46893
46894
46896
46897
46898
46900
46902
46906
43498
16133
27708
31564
50959
12888
46908
46915
39779
8602
46920
46921
46922
46925
46929
26320
26381
7702
45020
48009
49675
38700
46938
46947
46950
39756
26778
50543
46956
46958
46963
24997
13008
19860
46967
46971
46973
46974
46975
10741
29595
37970
42295
25028
46976
46977
46983
46985
12889
10746
45065
41380
8372
46992
46998
47003
43349
47742
47008
28099
46062
43797
30628
47761
12426
47010
47013
47014
35856
40771
41862
45746
47843
48973
41523
51194
51436
31123
47019
47023
7971
12782
34858
15123
47038
47039
47041
43493
40689
41048
36149
47046
47048
47055
47056
47058
25753
13282
30393
34843
41900
47063
47064
47065
43741
29263
38583
31493
48986
37559
47067
47069
47073
47077
47078
11597
36319
44196
47080
47081
47087
47091
47092
47093
47095
47096
26846
46177
50700
47098
47100
47103
47105
47112
47113
47114
38267
43308
34982
8185
47117
40496
36565
50119
19643
51999
47124
47130
11059
20387
35456
12928
35857
40401
44575
47132
47136
47137
47138
47140
47144
47149
47152
40734
10068
42387
47160
47163
47166
47168
40006
31617
26267
45881
31299
47170
47171
47172
47175
47177
31514
38205
46939
48773
44345
9608
47180
31829
9862
18706
43979
47915
38728
37835
47183
47184
47186
47188
47195
38968
40047
48397
33546
6900
43246
47199
47200
47201
47206
13945
38621
40846
31119
45173
44047
47210
47212
47216
8657
35765
27571
52097
47223
47225
47226
47227
47229
12294
22601
19475
20914
47230
47233
47238
46245
38970
10417
47246
47247
47248
47249
47254
47255
47260
47261
39723
46108
41360
50478
22223
19997
47267
47268
39189
22265
43403
47274
47276
47277
47279
33577
46485
27783
34446
47284
47288
47291
34105
39508
48330
48812
51109
33003
47298
47299
47300
47307
47308
47309
47310
30039
36427
42432
51137
51435
36497
47320
47323
34429
41854
27949
20820
47331
47332
47335
47337
30191
41368
38889
49812
46656
33181
47339
47340
47342
47344
47346
47348
47349
35298
42455
21285
47356
47364
8971
35982
49100
49407
6764
47373
47375
47377
47378
4233
40477
38937
5936
47379
47380
48505
27128
47389
19841
42614
42552
34978
39970
47395
47397
47399
38588
45658
41209
48416
27253
49072
45637
45434
47409
47412
44041
47419
47425
47883
6217
27933
46792
47429
47431
47436
47438
41708
39171
10903
47442
47447
47448
47449
47450
47452
43877
44720
16532
48644
49424
47457
47464
47466
47470
43548
47476
47487
10323
44079
24310
48666
51911
47489
47491
46491
47496
47498
47500
47504
12392
39557
30779
48298
47510
47517
47520
47522
47524
47526
47527
47531
38457
45628
48834
47534
47536
47537
47538
47540
13566
43797
43190
47547
47550
15648
32394
10634
36983
47558
47562
38251
47571
47577
37366
46991
24737
46193
47587
14143
19570
40666
40020
47597
47598
47602
30135
50746
40830
45729
47606
47607
47611
47613
47615
47616
194
37861
44557
31001
49615
52397
36729
47622
47624
47626
47628
47629
47631
7353
7163
51005
46344
43233
47637
47642
47646
38494
14663
46288
38588
39349
47647
47651
47652
47655
40331
25801
44270
41564
37908
49924
47791
39680
35955
47658
47663
47668
47675
31523
27224
43383
43265
47676
47680
47683
39581
6066
47566
37439
47690
47692
47693
47696
47699
6029
46566
37067
44157
37551
47701
47703
29863
47244
27814
8216
47713
47714
47715
47719
47721
47725
47727
47728
10568
13452
35462
51933
47729
47731
47732
47735
47739
47741
47742
47743
47744
36103
39300
25911
44472
47752
47757
47758
47759
12479
22951
42429
50822
42751
47763
47765
16464
42647
13532
18390
49752
47771
47772
47776
47777
22707
12576
32913
33178
51231
18542
43677
47778
47788
39045
33570
51568
47792
47793
47797
47799
47800
46794
52658
41342
47801
47802
47804
47807
47809
47811
35279
33505
6430
34379
43327
34452
23834
52108
47812
47816
47817
47819
47821
33481
6122
43787
47831
47832
47833
47834
26644
27787
15703
19058
14153
46064
48427
51066
1976
36862
47852
47853
47854
8395
41226
24441
45745
44630
19612
52803
47860
47861
47864
47867
47868
38692
26456
39944
5447
24800
30335
30983
47878
47880
47881
44260
46281
47654
47885
47886
47887
47894
47896
29680
22596
25832
11685
52172
47902
47904
47906
47907
47908
9040
48123
51100
12703
47919
47921
6193
33403
22230
47924
47925
47926
47929
47930
47938
47940
47941
28380
11978
43232
43559
51029
47943
47948
12890
41107
34939
6629
47961
47964
47965
46315
51453
32527
47971
47976
38623
49458
51014
36088
47981
47984
42663
22684
38789
50352
21383
44372
47985
47989
47995
47999
48000
34480
35165
22475
48005
48007
48010
48011
48013
48014
48015
49164
47704
45045
48017
12528
42530
48022
48025
48028
48030
2400
40811
26602
34734
43581
15048
38194
47004
48032
48034
48036
48044
48045
48046
48047
48048
18931
46043
43901
48052
48058
25083
49417
49974
32996
51471
32156
11940
48061
48065
48068
45224
34620
48503
16962
38153
48316
40369
51784
34048
39358
48072
48076
48078
48084
48085
40198
27928
8377
29651
50372
34687
51408
48086
48088
48092
48095
48096
48098
44470
23414
21210
45978
11938
13322
46741
39987
43648
48100
48103
48104
48106
48109
48111
39837
47884
48463
21677
31175
48118
48119
48126
8703
35259
42327
29695
29813
10186
46892
43634
48130
48131
48133
48134
25119
41862
48141
48144
48145
48147
48149
48150
48151
48155
48157
10882
49691
41455
42683
7562
48159
48160
48163
48172
34698
35782
35053
48175
12351
47622
45189
28188
48184
48187
19571
42860
49438
48192
48197
42610
43510
48200
48201
48205
48206
48207
48208
48209
48210
48211
39036
19266
46165
53059
53264
33811
41454
48215
48216
48217
48223
48225
8740
48709
37423
41422
42124
37614
31153
46131
48229
48230
48231
48233
45836
51302
49973
20697
32805
46626
48241
48242
48244
50411
6375
42985
43416
48247
48256
51620
43607
48258
48259
48262
48265
48267
48268
48272
48275
48277
43238
29386
36855
50214
44703
48283
48286
48287
9569
33150
16999
13388
17665
44714
50280
45743
48470
46495
36988
48288
48291
48294
48299
48300
27358
50525
51314
48305
48309
48312
17983
21593
33762
48038
52043
48314
48315
48318
48319
48320
48325
48326
48329
42341
44521
53148
47194
48331
48332
48340
48341
48342
35248
29401
28487
43790
13277
53135
48344
48345
48346
48348
48349
48350
48352
48353
48354
48356
5663
29088
49774
49674
52806
47687
48357
48360
48362
48364
35576
44623
45339
42701
48366
48368
48371
48374
48376
14022
46682
49818
48378
48383
48385
48386
48388
48390
23529
44887
52128
45923
25663
29617
48392
48393
48399
48400
48401
20491
36163
44255
45085
7711
43750
48402
48405
48406
48409
39398
30681
45089
43982
46890
48420
48423
48424
48425
39155
41656
20261
41175
48431
48432
48433
48435
48436
48437
42731
10895
38873
31318
48439
48442
48443
48444
48446
48449
42930
40372
30919
10979
10059
53035
48450
48452
48456
48457
48458
48459
48461
25369
45233
11269
47717
49962
41249
48464
48467
48468
48469
48471
48472
8061
35007
48237
51434
37480
48476
48479
48480
48481
48485
21164
27877
47548
14083
48486
48489
48492
48495
48499
48500
34233
21760
45779
51022
53061
47858
48502
48504
48508
48510
47477
42331
43989
45740
28269
48513
48514
48516
48517
48522
48524
48525
48526
48527
13185
18301
12651
43665
12837
49897
7372
48531
48532
48536
48540
48542
12021
8787
26393
41672
47804
46509
41962
43462
42208
48545
48547
48548
48552
48553
48554
18796
46302
11203
51854
32652
48620
44372
24724
33382
35219
18398
48558
48559
48562
48564
39923
13323
50522
50455
32740
50140
48568
48572
10494
29928
32678
7958
9660
29174
48581
48582
48584
48585
48586
46440
31289
23804
35228
46224
50961
48587
48589
48595
48596
48597
6762
32032
1585
19471
11386
48602
48604
48609
48610
48613
35610
42979
10478
46394
38258
47005
35126
48618
48622
48624
46720
9462
10488
48643
48629
48630
48631
48637
48638
48641
9945
45561
35181
36262
13311
46771
48645
48646
48648
48649
48651
48652
48653
48654
48655
48656
48657
45584
42159
8683
38917
43476
34983
45757
39337
42463
48665
48666
48669
38083
14314
13245
40312
48647
34410
32884
11334
12533
38008
48673
48678
48679
48680
48681
6955
17292
45612
41820
12132
43756
50928
48684
48685
48686
8111
38120
51001
51744
35578
31859
25809
36231
48687
48688
48690
48691
48693
48694
48699
48700
12783
32431
42323
34238
50333
45278
11419
23532
48702
48704
48705
48706
48712
48714
48715
39219
29678
28198
28433
40173
10724
39893
33096
49086
48716
48717
48718
48719
48720
48721
48722
48723
48727
48728
48729
28844
40021
50055
45206
41419
48731
48733
48734
48737
33745
44147
26183
31727
52352
50080
48739
48740
48741
48748
48749
48751
10767
45462
50950
26186
12557
48758
48759
48760
13635
6677
32456
40105
31991
48765
48766
48768
48775
48777
48778
48779
48780
23314
40473
39916
48345
23659
50519
50712
46024
48783
48785
48786
48788
48790
32671
23874
31250
45942
51386
41223
38726
48792
48796
48797
48798
48799
23633
12893
46891
51247
52485
46578
46599
43308
27403
48803
48804
48806
48807
48808
48810
48813
48814
26282
28546
33672
53901
48817
48818
48820
48824
48825
48826
16036
12472
48861
43839
43322
12349
48828
48831
48833
48835
48836
48838
48840
48841
41036
11843
36095
51382
35102
32583
48843
48845
48846
48847
48848
48849
48850
48851
48852
22603
50288
45535
46296
53299
48434
48854
48856
48857
48858
48859
48861
48862
48863
21260
42743
51497
46779
47521
53700
48864
48865
48866
48869
48871
48874
41527
35562
45827
13390
13233
50212
42722
45896
11975
43560
11024
44647
53388
28955
48882
48885
48886
48887
48889
48890
35470
14769
24375
35559
38616
35571
7305
53783
48893
48896
48897
48899
48904
20487
39033
36098
51256
6301
47970
48907
48909
48910
48911
48912
48913
48916
48918
48919
50688
38114
50374
43636
52525
8001
7837
48920
48921
48926
48927
48929
48930
48931
14139
43839
45927
39215
44414
43650
48934
48935
48936
48938
48940
48941
36432
17618
18722
44127
12706
34003
39080
10771
48944
48945
48949
48953
48954
12882
40264
34419
31570
50183
50221
42349
41637
53844
48959
48960
48961
48962
48964
48966
48968
39983
40657
47650
38867
47796
53156
44483
48969
48970
48975
34914
36187
36830
50623
51215
43547
52839
8465
48979
48980
48985
48988
44614
22347
39463
48993
48994
12344
26915
14039
39592
48083
50037
10124
42335
48997
48998
49000
49004
49006
49007
49008
49011
49012
49013
49014
49015
35822
5443
40254
9495
46480
36431
11297
51977
50167
38746
49018
49019
49022
49023
49025
25673
34941
36472
29877
46268
25457
33780
38102
49026
49028
49030
49031
49032
49035
49038
14351
50475
30279
39786
34068
10585
49039
49043
49044
49045
6969
14095
45433
38645
47557
35784
51028
53721
54091
49049
49052
49055
49057
49058
49059
49061
49062
49063
49064
13072
17966
33607
30055
31625
13778
49071
49075
49076
49077
29354
47833
15768
13457
14858
8545
49079
49080
49085
49087
49090
49091
49093
43484
7190
43121
51332
52575
34822
49094
49096
49098
49102
49103
49104
31843
756
50356
51759
49105
49106
49107
49108
49110
49111
49112
49113
49114
49116
43129
16337
41825
41800
54107
49120
49121
49124
49125
49126
9544
35182
47083
39050
49076
44195
49131
49132
49133
49134
49137
49138
49139
49142
49143
49145
49146
49147
49148
19966
32170
45995
40413
49149
49152
49153
49154
49155
49156
5235
42630
39694
45418
48075
49159
49160
49161
49164
15584
42704
39092
40820
23096
44581
26654
52144
49478
52674
35037
49168
49169
49170
49171
49172
49173
49174
29869
48831
45208
24644
453
38462
21417
4918
49177
49182
49183
49184
49185
49187
49188
38160
38900
37541
31436
41264
39327
50593
49192
49193
49194
49197
49201
49202
49203
45287
44075
50005
43736
53063
11499
47416
49311
47753
14371
47374
15733
49205
49206
49208
45100
11490
36518
47718
30484
42788
52486
43376
43716
52502
49214
49215
49217
49219
49220
49223
12631
47793
37799
34112
49226
49229
49230
49232
49233
49236
49237
49238
49239
24612
47381
13118
42480
24580
21802
22679
34331
53284
47383
49241
49243
49244
49245
49246
49247
49248
49251
49252
49253
49254
49257
49258
49259
49260
26737
43374
35636
49893
26241
50461
12310
31029
49263
49264
49265
49267
29220
37973
45200
47049
22666
43631
48178
54529
49268
49270
49272
49276
49277
49278
49279
33621
6609
32577
28457
43542
36534
51898
32217
33026
53239
47699
51738
35939
49281
49283
49284
49286
49288
30593
43792
10367
47844
50341
12402
42870
52734
53549
7881
9724
49289
49290
49291
49292
49293
49295
49296
49297
49298
49299
49301
49302
49305
49306
49307
49308
49309
49310
13127
49300
44055
25079
9702
30402
37269
33124
44927
48219
7421
29332
49313
49315
49318
49320
49323
12024
28326
26552
13035
41653
46303
44958
32119
49324
49326
49327
13043
32731
46241
50177
39378
54333
40899
48372
11928
34347
49329
49330
49331
49333
49337
49338
49340
49342
49343
35526
49272
39413
46134
49345
49346
49348
49349
49350
49351
49352
49353
49354
12989
40132
50631
37893
48760
49357
49358
49359
49362
49364
49365
49367
29524
25161
44322
48066
40078
53023
49368
49370
49371
49373
49374
49375
49377
49379
49380
49381
28354
46255
28343
52580
49386
49387
49391
49392
49393
49394
12028
12805
9561
26741
47728
37733
51037
50268
38050
23407
34474
54391
12489
49395
49397
49399
49400
49401
49402
49403
49405
49406
49407
23073
36914
45599
51355
31006
14237
52225
48373
29977
41562
49409
49411
49412
49414
49415
49416
8392
42019
5660
14261
30868
35894
30460
42105
41427
37909
49420
49422
49423
49425
49430
49431
34758
45883
49836
44794
49433
49434
49437
49438
49439
49440
49441
48942
49742
44038
22597
36955
49443
49444
49445
49446
49448
49451
49453
49454
37637
40579
23212
52419
5693
45640
28258
49456
49457
49458
49460
49461
49462
49463
49464
49465
49466
49467
49468
34532
10143
38504
41675
32229
39054
33692
44665
49470
49471
49473
49475
49476
49478
49479
49480
13463
39197
44188
14329
40340
47794
25967
31244
46553
9817
46495
49481
49482
49483
49484
49485
49486
49487
49490
38577
12125
15037
40877
45071
49494
49497
49498
49499
49500
49501
49502
49504
49505
49506
17539
37772
38388
38373
47842
49508
49510
49511
49512
49513
49514
49515
49516
49520
49521
49522
49523
49524
49525
12636
47034
45080
5067
32878
41708
52089
54030
49526
49527
49532
49533
49534
49535
49536
49538
32277
39757
42407
41015
49713
52305
33398
52530
52717
42862
54144
49541
49542
49543
49545
49546
49547
41069
35818
25348
33853
42483
45231
54286
44356
40520
46396
49549
49550
49551
49553
49555
9180
48787
26922
39817
20038
40368
37183
26506
39772
41080
37145
48266
25023
36524
31041
49556
49558
49560
49561
49562
49563
49564
49565
31568
40801
10053
51544
46605
10480
49590
5440
11161
45072
37083
34377
16516
22862
54761
49567
49570
49573
49574
49575
49577
49578
49579
49580
13005
14128
26834
42975
48607
10408
50098
50993
47740
22715
23657
38472
49581
49584
49585
38230
7710
14566
37445
41838
1563
43358
51300
38779
19388
49054
12152
43502
49587
49589
49591
49592
49594
49595
49596
49597
49598
49599
49600
49601
49602
49603
22111
7857
42758
8624
29477
37670
46621
53962
32937
49604
49605
49608
49609
49610
49611
23493
37328
6038
13133
29812
36777
49613
49614
49616
49617
49618
49621
49623
49625
49626
49627
49628
49629
34492
35052
40630
14446
44466
18576
51518
10135
52853
44278
28285
50338
11187
54585
45307
22675
44258
49630
49633
49634
49636
32727
48221
39852
52030
16747
22272
48018
10766
49638
49640
49641
49642
49646
49647
49648
49649
49650
49651
49652
49653
49654
49655
49656
26569
46404
11583
7908
31034
13512
45554
28957
32541
39812
52163
35176
49657
49659
49660
49662
49663
49664
49666
13414
16555
8095
11050
27292
13347
49668
49670
49673
49674
49675
49676
49680
49681
49683
37446
34279
10742
11276
44516
15422
47450
49644
51974
28319
54572
50539
49686
49687
49689
49690
49691
49692
49694
10327
47012
36454
34049
13071
47204
34632
51107
10504
49696
49697
49699
49700
49701
50538
54762
49703
49704
49705
49706
49708
49710
49715
41746
38503
21011
39771
11183
13243
38018
38622
37833
19466
48591
52693
54515
49716
49717
49720
49721
49722
49723
49724
30379
42093
37753
43875
50654
10267
36286
5242
20688
47607
43963
49726
49728
49730
49732
49733
49734
49735
49736
49737
8103
37616
39461
26674
35889
23610
47618
50117
51707
50582
53030
43326
48414
38714
54625
46009
49738
49739
49740
49741
49742
49747
49748
49749
49981
13789
21498
40667
51616
45180
44334
49751
49752
49753
49755
49756
49757
49758
49759
49760
49761
49762
49764
49765
27138
25415
30879
31404
13115
45511
34028
49426
40519
36342
10239
12115
41447
54916
55116
49767
49768
49769
49770
49771
49775
49776
49777
49779
12346
40009
43498
5982
38036
53977
52078
49780
49781
49782
49783
49784
49786
49789
49790
49791
49792
49793
49794
28704
34178
24178
13869
46921
27014
24613
12809
42503
34329
53353
53506
47143
43349
49795
49796
49797
49798
49799
49800
49801
49802
49803
49804
49805
48778
25955
29196
17263
46181
49807
49810
49811
49812
49813
49814
49815
49816
49817
49818
49819
29950
40207
40592
33939
38621
41978
53857
40045
25403
24508
41968
41822
11984
49821
49822
49824
49825
49826
49827
49830
49831
49832
49833
49834
49835
49836
49837
43783
43642
39189
13423
43726
30611
20776
51416
52420
39452
44980
8599
54029
47315
47835
49607
49545
37068
42576
46916
49838
49839
49840
49841
49842
49844
49845
49846
49847
49848
49849
49850
14072
26249
44917
50487
32713
53457
30223
47573
34455
44184
7901
34550
49851
49852
49853
49855
49856
39649
9350
19970
8576
1037
39356
49859
49860
49861
49862
49863
49864
49865
49866
49867
49868
43868
9954
10937
43799
49684
52586
42001
42510
49870
49871
49872
49873
49874
49875
49877
49878
49879
49880
13441
39726
13085
11040
50873
43843
9784
47396
14136
54272
55188
49881
49882
49883
49884
49885
49886
49887
49888
49889
49890
16293
10147
45558
22874
42193
33266
32906
51026
45346
34502
52084
49893
49894
49895
49896
49897
49898
49899
49900
49901
49902
49903