/*--------------------------------*- C++ -*----------------------------------*\
  =========                 |
  \\      /  F ield         | OpenFOAM: The Open Source CFD Toolbox
   \\    /   O peration     | Website:  https://openfoam.org
    \\  /    A nd           | Version:  7
     \\/     M anipulation  |
\*---------------------------------------------------------------------------*/
FoamFile
{
    version     2.0;
    format      ascii;
    class       Cloud<dsmcParcel>;
    location    "0.007/lagrangian/dsmc";
    object      positions;
}
// * * * * * * * * * * * * * * * * * * * * * * * * * * * * * * * * * * * * * //

5315
(
(0.2214850962 0.1522511182 0.3892574519 0.2370063337) 250 498 1
(0.5140458271 0.1470049519 0.09597213453 0.2429770865) 368 697 2
(0.2306116993 0.3846941503 0.341714607 0.04297954332) 483 924 1
(0.004526211739 0.4977368941 0.04151742097 0.4562194732) 170 341 1
(0.4110633221 0.2944683389 0.2709892208 0.0234791181) 197 395 1
(0.07114290593 0.464428547 0.4413985538 0.02302999322) 523 1016 2
(0.007639182643 0.07263512909 0.4235452796 0.4961804087) 87 174 1
(0.1561221186 0.4219389407 0.20351931 0.2184196307) 114 228 2
(0.5846234143 0.01139647215 0.2076882928 0.1962918207) 631 1224 2
(0.008134915992 0.495932542 0.3621269665 0.1338055755) 79 158 1
(0.01508032843 0.4924598358 0.06462835282 0.427831483) 560 1088 2
(0.2329856294 0.3835071853 0.1409052245 0.2426019608) 434 853 2
(0.3833924686 0.116151043 0.1921527227 0.3083037657) 203 406 1
(0.6541107668 0.1402313678 0.0327132488 0.1729446166) 451 863 2
(0.3642988453 0.2304475734 0.08740300397 0.3178505773) 318 636 1
(0.5280988367 0.05300224858 0.2359505816 0.1829483331) 173 344 1
(0.07393073079 0.2679935348 0.1950410998 0.4630346346) 125 250 1
(0.3416220985 0.07145146039 0.3291889507 0.2577374903) 126 250 1
(0.3398412023 0.3300793989 0.3019566575 0.02812274141) 102 205 1
(0.284900617 0.1118607103 0.2456889812 0.3575496915) 585 1136 1
(0.3042928086 0.11504595 0.2328076457 0.3478535957) 137 235 2
(0.2468319395 0.282990352 0.09359367823 0.3765840303) 0 0 1
(0.7329795748 0.1335102126 0.02669340153 0.1068168111) 332 665 1
(0.2074493949 0.2159833678 0.1802919347 0.3962753025) 73 146 1
(0.08242205485 0.04731614014 0.4114728324 0.4587889726) 260 520 1
(0.2924823948 0.04411072231 0.3096480803 0.3537588026) 273 546 1
(0.02847837202 0.485760814 0.4361958624 0.04956495159) 283 527 1
(0.1406086831 0.04215160291 0.3875440556 0.4296956585) 150 300 1
(0.0991213347 0.08259633797 0.3678429947 0.4504393326) 189 378 1
(0.8574588684 0.01287054649 0.07127056578 0.05840001929) 77 152 1
(0.4337075607 0.1786395099 0.1045067098 0.2831462197) 329 658 1
(0.1171818023 0.4414090988 0.1505467938 0.2908623051) 318 597 1
(0.07494047308 0.1793825642 0.2831471993 0.4625297635) 561 1090 1
(0.1387598163 0.3046275734 0.4306200919 0.1259925185) 108 217 2
(0.2593889129 0.08236992186 0.3703055435 0.2879356217) 94 186 1
(0.3985302741 0.06906401295 0.23167085 0.3007348629) 136 272 1
(0.1821301898 0.09447483208 0.314460073 0.4089349051) 425 845 1
(0.5151864741 0.2424067629 0.1840305302 0.05837623269) 34 66 2
(0.2694836236 0.2241273079 0.1411308803 0.3652581882) 299 558 2
(0.2741493109 0.3629253445 0.03618886419 0.3267364804) 131 260 2
(0.5228327292 0.1514568614 0.08712677406 0.2385836354) 601 1166 1
(0.03852816975 0.4807359151 0.1202286891 0.3605072261) 117 235 1
(0.508798563 0.01690376403 0.2456007185 0.2286969545) 573 1114 2
(0.6598592829 0.06125588633 0.1088144722 0.1700703585) 191 382 1
(0.8584711202 0.0005444871268 0.07076443989 0.07021995276) 357 712 1
(0.02331819353 0.08595269064 0.4883409032 0.4023882126) 521 1015 2
(0.01378266034 0.2560903884 0.4931086698 0.2370182814) 571 1107 1
(0.07391252363 0.2837572736 0.4630437382 0.1792864645) 450 880 2
(0.04505365322 0.3677751057 0.1096980677 0.4774731734) 275 511 2
(0.007921304663 0.3081107073 0.1879286403 0.4960393477) 360 720 1
(0.4349747442 0.1035331107 0.2825126279 0.1789795172) 501 977 2
(0.5255612826 0.08158124626 0.1556381124 0.2372193587) 176 313 2
(0.5039817397 0.2480091301 0.1303802073 0.1176289228) 465 908 2
(0.5485332372 0.2257333814 0.1599440817 0.06578929976) 468 914 2
(0.6734271124 0.01192605672 0.1632864438 0.1513603871) 73 147 2
(0.005574149052 0.4972129255 0.4716598503 0.02555307517) 443 864 2
(0.1009602479 0.449519876 0.3614206604 0.08809921565) 391 782 2
(0.479022364 0.1615950272 0.260488818 0.09889379083) 448 874 1
(0.1059599458 0.4355857332 0.01143429387 0.4470200271) 495 965 1
(0.7001253576 0.06796392753 0.1499373212 0.08197339365) 36 73 2
(0.4545425103 0.2727287449 0.04275685193 0.2299718929) 111 223 1
(0.2649583545 0.3045656047 0.06295521807 0.3675208228) 352 665 2
(0.02531627683 0.4873418616 0.05552926743 0.4318125942) 597 1159 2
(0.2303398826 0.3848300587 0.2839259435 0.1009041152) 60 81 1
(0.2737390748 0.3631304626 0.3539079467 0.009222515897) 58 77 1
(0.08231865857 0.1807534501 0.2780872206 0.4588406707) 112 224 1
(0.3022826177 0.1275066971 0.221351994 0.3488586911) 568 1104 1
(0.2177519765 0.3911240117 0.233724771 0.1573992408) 271 540 2
(0.1250246815 0.4374876593 0.1203364873 0.3171511719) 454 869 1
(0.6357194484 0.1286871911 0.1821402758 0.05345308472) 57 112 1
(0.07217508231 0.4639124588 0.01295857738 0.4509538815) 181 363 1
(0.03373556498 0.4831322175 0.4718662057 0.01126601182) 141 243 1
(0.5033625921 0.2002767812 0.04804192277 0.2483187039) 255 471 2
(0.8079184808 0.0960407596 0.05325320371 0.04278755588) 279 559 2
(0.1406738804 0.13016243 0.2995006298 0.4296630598) 447 874 1
(0.1113166972 0.157315034 0.4443416514 0.2870266174) 336 670 1
(0.6523757396 0.04051687182 0.1738121302 0.1332952584) 331 660 1
(0.4228931348 0.2885534326 0.2766772199 0.01187621268) 270 540 2
(0.3520998087 0.3239500956 0.2942839519 0.02966614371) 451 863 1
(0.07722843548 0.2456106699 0.2157751124 0.4613857823) 266 493 2
(0.007430291236 0.4962848544 0.008078663636 0.4882061907) 155 311 1
(0.5392024726 0.06626613857 0.2303987637 0.1641326251) 94 186 1
(0.3617157963 0.3191421019 0.2901939251 0.02894817674) 179 356 2
(0.05597989722 0.4720100514 0.2223037013 0.2497063501) 138 276 2
(0.4937305565 0.07633392873 0.2531347218 0.176800793) 37 72 1
(0.5131465671 0.2434267165 0.01912351435 0.2243032021) 99 196 2
(0.4007594615 0.2408586879 0.05876158131 0.2996202692) 392 784 1
(0.08708197992 0.45645901 0.4093758772 0.04708313287) 548 1048 1
(0.1571225413 0.3640780998 0.05736062959 0.4214387294) 254 469 2
(0.3039791839 0.2044613985 0.1435490096 0.3480104081) 328 617 2
(0.4384243703 0.162384983 0.1184028318 0.2807878148) 196 353 2
(0.8073603646 0.08625856446 0.01006125321 0.09631981768) 238 437 2
(0.175362617 0.09029788449 0.322020807 0.4123186915) 455 889 1
(0.1659245905 0.02427031133 0.3927673934 0.4170377047) 166 293 2
(0.5956452239 0.1233515564 0.07882583167 0.202177388) 149 259 2
(0.5117539909 0.06943829198 0.1746847126 0.2441230046) 111 183 2
(0.3363957003 0.1148368394 0.3318021498 0.2169653104) 347 692 1
(0.7556633582 0.02525553923 0.09691278168 0.1221683209) 90 141 2
(0.06030071852 0.4698496407 0.02871401678 0.441135624) 511 996 1
(0.3710356813 0.3144821594 0.1176893998 0.1967927596) 513 997 2
(0.2284619223 0.08809731868 0.3857690388 0.2976717202) 89 179 2
(0.3570223444 0.1813235183 0.3214888278 0.1401653094) 513 997 1
(0.1092467269 0.3973826564 0.04799398011 0.4453766366) 150 300 1
(0.00504001617 0.4974799919 0.4648350937 0.03264489821) 444 869 1
(0.277465581 0.1710025332 0.3612672095 0.1902646764) 36 73 2
(0.2449796248 0.3775101876 0.257303814 0.1202063736) 562 1074 1
(0.3195547908 0.3402226046 0.3282795671 0.01194303748) 416 793 1
(0.3286022838 0.08622515664 0.3356988581 0.2494737015) 153 307 2
(0.5611169061 0.219441547 0.0359381114 0.1835034356) 128 256 2
(0.5885960295 0.07063541134 0.2057019853 0.1350665739) 577 1119 1
(0.4181346022 0.2909326989 0.004508984221 0.2864237147) 317 634 2
(0.07568082468 0.4621595877 0.2352066863 0.2269529013) 411 823 1
(0.6832112345 0.0147389022 0.1583943827 0.1436554805) 514 999 1
(0.4446923065 0.2776538467 0.2134237785 0.06423006826) 54 108 2
(0.01528470637 0.05010244891 0.4422551979 0.4923576468) 15 30 1
(0.5639678885 0.06624258284 0.1517734729 0.2180160558) 504 964 2
(0.6632304749 0.03371431174 0.1346704508 0.1683847626) 439 838 2
(0.6594378558 0.1651068475 0.1702810721 0.005174224616) 357 715 2
(0.4052811152 0.1767084613 0.2973594424 0.1206509811) 579 1123 1
(0.2562409778 0.2852341277 0.08664538345 0.3718795111) 23 7 2
(0.1727906257 0.4136046871 0.1166396676 0.2969650196) 328 617 1
(0.08801843525 0.4559907824 0.3034263076 0.1525644748) 136 272 2
(0.1029315176 0.4485342412 0.05098688648 0.3975473547) 319 598 1
(0.6121882576 0.1939058712 0.139713588 0.05419228319) 575 1115 2
(0.2517926991 0.02784162683 0.3462620236 0.3741036504) 278 556 1
(0.9158462922 0.03925241939 0.04207685392 0.00282443453) 237 472 1
(0.256633597 0.3716832015 0.01224147973 0.3594417218) 177 355 1
(0.1816470922 0.4091764539 0.4075306384 0.001645815467) 256 473 1
(0.1378967817 0.4310516091 0.3348331618 0.09621844728) 600 1164 2
(0.6838091898 0.1580954051 0.118620629 0.03947477611) 299 558 1
(0.1307419541 0.4346290229 0.1398598677 0.2947691552) 247 495 1
(0.1843670191 0.3009012138 0.4078164905 0.1069152767) 404 809 2
(0.1076582497 0.4461708752 0.1613553238 0.2848155514) 558 1083 2
(0.3959769384 0.3020115308 0.1773148997 0.1246966312) 460 899 1
(0.3864075594 0.1311971485 0.3067962203 0.1755990718) 610 1184 2
(0.3528500036 0.2550895374 0.3235749982 0.06848546074) 157 315 2
(0.007286724064 0.3118430623 0.496356638 0.1845135756) 366 730 1
(0.05954873849 0.4702256308 0.01943992261 0.4507857081) 47 94 2
(0.6174907142 0.1230794347 0.0681752082 0.1912546429) 554 1059 2
(0.3952258953 0.3023870524 0.2115255211 0.09086153121) 147 295 1
(0.7533115936 0.1233442032 0.07408068895 0.04926351426) 530 1032 1
(0.3725840726 0.3137079637 0.1131987215 0.2005092422) 487 948 2
(0.1264591516 0.225481325 0.4367704242 0.2112890992) 490 956 2
(0.4961413479 0.251929326 0.1625304003 0.0893989257) 591 1147 2
(0.3867918952 0.2009475929 0.1056564595 0.3066040524) 402 765 2
(0.1309242594 0.02803380146 0.4345378703 0.4065040688) 308 617 2
(0.3331037636 0.3334481182 0.1587346807 0.1747134375) 626 1212 2
(0.04241085074 0.2786969369 0.2000976377 0.4787945746) 505 984 1
(0.6502777715 0.1748611143 0.005417696985 0.1694434173) 432 825 1
(0.1199636122 0.4400181939 0.165233097 0.2747850969) 333 667 1
(0.02224595361 0.4888770232 0.3717314491 0.1171455741) 142 282 2
(0.5195815079 0.240209246 0.04495596132 0.1952532847) 148 297 1
(0.03738055352 0.4813097232 0.3223286922 0.1589810311) 216 432 2
(0.2182113483 0.3908943259 0.1168064437 0.2740878821) 595 1137 1
(0.1326643049 0.4336678475 0.2202532036 0.2134146439) 150 300 2
(0.09753419571 0.4512329021 0.3039977024 0.1472351998) 108 214 2
(0.2781285924 0.0378847562 0.3609357038 0.3230509476) 451 882 2
(0.05762644874 0.4711867756 0.4039308334 0.06725594224) 444 868 2
(0.03232455608 0.3413243893 0.483837722 0.1425133326) 102 205 2
(0.1303683643 0.2570315041 0.1777843138 0.4348158179) 154 308 1
(0.4853695942 0.1079893214 0.2573152029 0.1493258814) 564 1097 2
(0.3530040997 0.3234979501 0.250978624 0.07251932613) 263 487 1
(0.2598896964 0.3700551518 0.3434879229 0.02656722886) 111 220 2
(0.09148285394 0.4159086276 0.03834994544 0.454258573) 397 755 2
(0.5385068072 0.147109448 0.2307465964 0.08363714838) 621 1205 2
(0.1878642908 0.05524693192 0.3508209227 0.4060678546) 185 331 2
(0.3024165386 0.3487917307 0.01051918418 0.3382725465) 196 353 1
(0.1657404966 0.4171297517 0.3329958307 0.08413392096) 126 213 1
(0.08238245245 0.4588087738 0.2393084567 0.219500317) 126 213 1
(0.5386207475 0.2192146431 0.2306896262 0.01147498317) 195 388 1
(0.05357289053 0.4732135547 0.3570864543 0.1161271004) 191 383 1
(0.2547257521 0.2828161087 0.372637124 0.08982101528) 98 197 2
(0.3250827658 0.2792105795 0.3374586171 0.0582480376) 229 459 2
(0.01836778292 0.4908161085 0.3281467739 0.1626693347) 285 568 2
(0.550970496 0.1395586973 0.08495605471 0.224514752) 272 505 2
(0.6600162691 0.1699918655 0.08115819608 0.08883366939) 559 1085 2
(0.1649566513 0.4175216743 0.2243658378 0.1931558365) 210 381 1
(0.0009426595331 0.4995286702 0.00678688649 0.4927417837) 85 168 2
(0.6531553173 0.0813364213 0.09208592007 0.1734223414) 473 923 1
(0.8335834961 0.08320497838 0.08320825193 3.27354747e-06) 321 640 1
(0.01077144871 0.4946142756 0.2290561315 0.2655581441) 235 471 1
(0.2046504646 0.3976747677 0.08974996529 0.3079248024) 419 798 1
(0.4261124419 0.1757726823 0.1111710967 0.286943779) 131 262 1
(0.1219498535 0.4390250732 0.08849913014 0.3505259431) 535 1042 1
(0.8416700091 0.07916499545 0.03439369269 0.04477130277) 124 246 2
(0.3981463447 0.2804570862 0.02046974142 0.3009268277) 461 900 1
(0.1489532591 0.4255233705 0.08525224711 0.3402711234) 532 1035 2
(0.09738977438 0.03522948545 0.4160756274 0.4513051128) 179 359 1
(0.227114539 0.3864427305 0.03244283752 0.353999893) 605 1174 2
(0.1592533423 0.4203733289 0.4000791389 0.02029418994) 453 883 2
(0.1357994249 0.4321002875 0.321350235 0.1107500525) 377 755 1
(0.1345664993 0.1394954312 0.4327167504 0.2932213192) 119 238 2
(0.4279928949 0.2860035525 0.09148237204 0.1945211805) 24 46 2
(0.2508232958 0.3745883521 0.1985085318 0.1760798203) 283 527 1
(0.1628350929 0.008688901943 0.4185824535 0.4098935516) 168 334 1
(0.4472832978 0.2763583511 0.0399570099 0.2364013412) 622 1188 1
(0.6888367493 0.1555816253 0.005450231076 0.1501313943) 98 194 2
(0.2312008483 0.3843995759 0.1490992735 0.2353003023) 477 931 2
(0.1905594108 0.4047202946 0.1556615718 0.2490587227) 595 1137 1
(0.6824441165 0.1587779418 0.02641298225 0.1323649595) 454 887 2
(0.5302738545 0.07153502681 0.2348630728 0.163328046) 466 908 1
(0.2968183611 0.3515908195 0.05701466557 0.2945761539) 51 102 2
(0.5200916533 0.2399541734 0.1926614968 0.04729267656) 236 472 2
(0.5324772155 0.2337613923 0.1728917075 0.0608696848) 622 1204 2
(0.04880570997 0.475597145 0.2446985853 0.2308985597) 65 128 2
(0.02999285057 0.4850035747 0.221758955 0.2632446197) 325 648 2
(0.306571278 0.2655786409 0.08113572005 0.346714361) 471 919 1
(0.2547065121 0.372646744 0.3014157733 0.07123097065) 597 1141 1
(0.005372610899 0.4973136946 0.04125338504 0.4560603095) 440 860 2
(0.4371845262 0.2814077369 0.2095191055 0.07188863146) 37 72 2
(0.04181328707 0.03377255046 0.445320806 0.4790933565) 397 755 2
(0.01193652134 0.3178042483 0.176227491 0.4940317393) 164 289 2
(0.02099236514 0.05692985195 0.4325739655 0.4895038174) 326 652 1
(0.135298953 0.4323505235 0.2569768732 0.1753736504) 503 980 2
(0.1695883745 0.1210619686 0.2941438442 0.4152058127) 470 899 2
(0.004697811877 0.487467158 0.4976510941 0.01018393602) 503 978 1
(0.2116294732 0.3941852634 0.216790928 0.1773943354) 651 1243 1
(0.05498975197 0.1958718657 0.2766332584 0.472505124) 221 442 1
(0.001036254192 0.07038875777 0.4290931151 0.4994818729) 385 731 2
(0.06918571759 0.4654071412 0.07330295726 0.3921041839) 477 913 1
(0.03448808737 0.4827559563 0.08448928942 0.3982666669) 117 195 1
(0.01224036755 0.1059392176 0.3879405986 0.4938798162) 200 400 1
(0.148809826 0.06520838737 0.425595087 0.3603866996) 230 458 1
(0.05586391702 0.3343356296 0.1377324119 0.4720680415) 169 299 2
(0.4660821073 0.05151728874 0.2154416576 0.2669589463) 163 287 2
(0.4730667637 0.2634666181 0.1318830487 0.1315835694) 198 357 1
(0.08389392253 0.4580530387 0.3147945327 0.143258506) 75 151 1
(0.4876735495 0.2561632253 0.1411927915 0.1149704337) 195 390 2
(0.1664042103 0.4167978949 0.1875725107 0.2292253841) 278 557 1
(0.3665485962 0.3167257019 0.176113059 0.1406126428) 198 397 1
(0.6342349 0.18288255 0.1764212365 0.006461313525) 547 1062 2
(0.05449943828 0.2442217136 0.4727502809 0.2285285673) 288 577 2
(0.1244335487 0.2133744944 0.4377832257 0.2244087312) 112 225 2
(0.2524662813 0.3737668594 0.07957682495 0.2941900344) 405 771 1
(0.3240947991 0.3379526005 0.1013189239 0.2366336766) 193 387 1
(0.2065867379 0.3737617348 0.02294489631 0.3967066311) 91 182 1
(0.5448041301 0.1783196101 0.2275979349 0.04927832481) 549 1066 1
(0.1120593319 0.09202451214 0.3519458219 0.4439703341) 551 1071 1
(0.127711951 0.3480411521 0.08810287242 0.4361440245) 597 1159 1
(0.7975901558 0.09175825362 0.009446668478 0.1012049221) 149 298 1
(0.219928454 0.390035773 0.09148898362 0.2985467894) 154 308 2
(0.7617566533 0.1191216734 0.007801122364 0.111320551) 226 453 1
(0.655701178 0.157722076 0.01442733502 0.172149411) 574 1115 1
(0.04115088777 0.4584299849 0.4794245561 0.02099457125) 352 705 2
(0.1172956277 0.4413521861 0.4094341249 0.03191806121) 53 106 2
(0.3842988391 0.2233702556 0.08448032483 0.3078505804) 92 184 1
(0.2947941725 0.1361136208 0.2164892929 0.3526029137) 285 570 1
(0.2839837233 0.3580081383 0.1073396303 0.2506685081) 356 673 1
(0.3591454601 0.32042727 0.1003949633 0.2200323066) 69 136 2
(0.06974278003 0.46512861 0.2082960577 0.2568325523) 382 765 1
(0.4615693845 0.1550829006 0.2692153078 0.1141324072) 251 500 1
(0.8136903645 0.09315481774 0.01937582598 0.07377899176) 373 746 2
(0.2264755974 0.3867622013 0.09161723353 0.2951449678) 472 903 1
(0.09565066551 0.2723092544 0.4521746672 0.1798654128) 284 569 2
(0.01504248874 0.4924787556 0.3273750846 0.165103671) 550 1069 2
(0.3593069442 0.00904407578 0.3203465279 0.3113024521) 428 2645 2
(0.05478611871 0.4726069406 0.1571341608 0.3154727798) 169 299 1
(0.4538852146 0.2596967623 0.2730573927 0.01336063037) 297 592 1
(0.2351991929 0.3824004035 0.0383208216 0.3440795819) 434 853 2
(0.4228953731 0.1417112079 0.1468411056 0.2885523135) 284 568 1
(0.7148854236 0.1076511378 0.03490615044 0.1425572882) 468 896 2
(0.3782381336 0.3108809332 0.01433980587 0.2965411273) 354 706 2
(0.3802032641 0.3098983679 0.1375974765 0.1723008914) 272 542 2
(0.6306497463 0.1112112339 0.07346389293 0.1846751269) 417 834 1
(0.06238456626 0.4688077169 0.2316155129 0.2371922039) 137 235 1
(0.718431579 0.1020927261 0.1407842105 0.03869148438) 171 343 2
(0.1381137895 0.3935481984 0.03739490686 0.4309431052) 45 51 2
(0.2320302694 0.04531553825 0.338669327 0.3839848653) 339 679 1
(0.6277226197 0.09194133261 0.09419735756 0.1861386902) 176 313 2
(0.04243091352 0.4787845432 0.4179808439 0.06080369937) 560 1088 2
(0.615611482 0.1383310239 0.192194259 0.05386323506) 508 988 1
(0.7602503516 0.1198748242 0.01596242498 0.1039123992) 352 705 1
(0.7564272936 0.1217863532 0.005656090927 0.1161302623) 522 1017 1
(0.1702910732 0.09084901503 0.4148544634 0.3240054484) 187 372 1
(0.5761963835 0.06134618902 0.1505556192 0.2119018083) 470 917 1
(0.05737396655 0.3990120435 0.4713130167 0.07230097325) 249 499 2
(0.3320497646 0.2459406112 0.3339751177 0.08803450653) 310 621 2
(0.3580115404 0.3209942298 0.1754849856 0.1455092442) 292 585 1
(0.1128778882 0.1080600483 0.4435610559 0.3355010075) 159 318 2
(0.119813919 0.4400930405 0.3475027865 0.09259025402) 35 71 1
(0.6413539905 0.1793230047 0.1592778515 0.02004515321) 440 39 2
(0.2141108949 0.190887536 0.2020570165 0.3929445525) 488 934 2
(0.01296941052 0.2084727997 0.285042495 0.4935152947) 71 142 1
(0.3317980144 0.3341009928 0.2426431853 0.09145780751) 157 315 1
(0.0705137177 0.4647431412 0.06619476104 0.3985483801) 415 830 2
(0.6084533072 0.07073478972 0.1250385567 0.1957733464) 206 412 1
(0.7769873644 0.1115063178 0.04310617825 0.06840013953) 101 200 2
(0.3562224939 0.1500708118 0.1718179412 0.321888753) 153 306 1
(0.2603688496 0.2744059376 0.3698155752 0.09540963764) 509 990 1
(0.02664586565 0.4866770672 0.05823959065 0.4284374765) 149 298 2
(0.09454106271 0.4527294686 0.2672229437 0.185506525) 284 566 2
(0.5237171949 0.04084319468 0.1972982079 0.2381414025) 187 335 2
(0.6047386564 0.1433617589 0.05426891291 0.1976306718) 461 882 2
(0.2461904704 0.1409855367 0.3769047648 0.2359192281) 546 1060 1
(0.2847566764 0.1305013946 0.2271202672 0.3576216618) 131 223 2
(0.01255416958 0.4937229152 0.1715622165 0.3221606987) 558 1085 2
(0.7301039196 0.05372290947 0.08122513073 0.1349480402) 250 500 1
(0.1056327662 0.4471836169 0.1734656499 0.273717967) 591 1145 2
(0.786429818 0.02150678737 0.08527830361 0.106785091) 624 1192 2
(0.156547405 0.4217262975 0.1214241196 0.3003021779) 395 788 2
(0.6145767646 0.1113789869 0.08133263079 0.1927116177) 115 191 2
(0.3378395705 0.3310802147 0.05510062448 0.2759795903) 287 535 1
(0.1141083244 0.05442355996 0.3885222778 0.4429458378) 246 492 1
(0.002237569978 0.498881215 0.4433323235 0.05554889147) 345 690 2
(0.4495290452 0.1045313946 0.2752354774 0.1707040827) 213 427 2
(0.2258333763 0.3870833119 0.1611434809 0.2259398309) 243 487 1
(0.1376235365 0.4311882317 0.3426279524 0.08856027933) 560 1070 1
(0.2175278862 0.006921941272 0.3912360569 0.3843141156) 124 249 2
(0.07346718167 0.4632664092 0.2541905426 0.2090758665) 448 876 2
(0.1083150613 0.4458424694 0.3597936997 0.08604876969) 562 1093 1
(0.3419633197 0.2045327807 0.1244855594 0.3290183401) 229 419 2
(0.839674629 0.0323688121 0.08016268548 0.04779387338) 265 531 2
(0.1267623629 0.4366188185 0.4068859088 0.02973290976) 285 571 1
(0.7440735878 0.1174118905 0.01055131566 0.1279632061) 310 581 2
(0.3444044257 0.1897071089 0.3277977872 0.1380906783) 234 466 1
(0.1292494581 0.435375271 0.3694866907 0.06588858021) 135 270 2
(0.2149447556 0.1062021644 0.3925276222 0.2863254578) 22 45 2
(0.09937230038 0.4503138498 0.3791790273 0.07113482252) 134 266 2
(0.8046061801 0.028271421 0.09769690993 0.06942548893) 371 740 1
(0.09864256314 0.4506787184 0.1471584842 0.3035202342) 61 122 2
(0.1166424578 0.2928433242 0.148835447 0.4416787711) 208 416 1
(0.3283911705 0.1418757616 0.1939286532 0.3358044147) 250 461 2
(0.1454714934 0.4272642533 0.363484067 0.06378018634) 279 556 2
(0.8498187596 0.02162776936 0.07509062022 0.05346285087) 626 1215 2
(0.6152224386 0.1016846967 0.1923887807 0.09070408395) 467 910 1
(0.4467607309 0.1584315535 0.1181880811 0.2766196345) 648 1238 2
(0.4725201852 0.08781542368 0.1759244837 0.2637399074) 153 306 1
(0.6433612042 0.1783193979 0.03277702004 0.1455423778) 301 563 1
(0.03224815323 0.1527125066 0.4838759234 0.3311634167) 370 738 1
(0.04158112077 0.4792094396 0.1259141793 0.3532952603) 366 730 2
(0.3293847899 0.1393620206 0.1959455844 0.3353076051) 198 396 1
(0.408894179 0.288990149 0.006562761511 0.2955529105) 195 351 2
(0.8657495673 0.05893882911 0.008186387247 0.06712521636) 347 694 1
(0.7323133016 0.1338433492 0.08985232458 0.04399102464) 351 703 1
(0.588666795 0.2056666025 0.07809166213 0.1275749404) 279 518 1
(0.1517927263 0.4039208413 0.4241036368 0.02018279557) 454 888 2
(0.5446158331 0.1086419453 0.1190501381 0.2276920835) 374 709 2
(0.001423501065 0.1933798863 0.4992882495 0.3059083631) 92 185 2
(0.3083578759 0.04764231849 0.3458210621 0.2981787436) 371 743 2
(0.04510191042 0.4774490448 0.02679223673 0.4506568081) 524 1020 2
(0.309971043 0.1355224369 0.3450144785 0.2094920416) 439 2656 2
(0.4680542094 0.2659728953 0.08094713541 0.1850257599) 93 187 1
(0.6744910031 0.1627544985 0.06758496377 0.09516953469) 523 1016 2
(0.2291890186 0.3854054907 0.1420124634 0.2433930273) 256 510 2
(0.009113905388 0.4954430473 0.230133664 0.2653093833) 524 1018 2
(0.3597216836 0.2869481857 0.03319097247 0.3201391582) 306 612 1
(0.08523998436 0.2156578951 0.4573800078 0.2417221127) 271 540 1
(0.009281005173 0.4953594974 0.4761630205 0.01919647688) 30 60 2
(0.4910178473 0.07663258472 0.1778584916 0.2544910764) 71 103 2
(0.3271426879 0.1821672359 0.1542614201 0.3364286561) 535 1041 1
(0.03558193142 0.4822090343 0.08886276114 0.3933462731) 552 1073 2
(0.06900563084 0.1152671095 0.4654971846 0.3502300751) 563 1095 2
(0.5562137029 0.02862879279 0.1932643557 0.2218931485) 51 63 2
(0.02773432333 0.4861328383 0.05106439558 0.4350684428) 77 115 1
(0.6060311814 0.1969844093 0.151682681 0.04530172826) 517 1005 2
(0.6468503786 0.1765748107 0.004029302878 0.1725455078) 231 463 1
(0.2478840802 0.351668109 0.02438985094 0.3760579599) 62 124 1
(0.9367856645 0.005435270701 0.02617189703 0.03160716773) 511 995 1
(0.0136259874 0.3791684058 0.4931870063 0.1140186005) 232 462 1
(0.3487625587 0.3256187207 0.2363991557 0.08921956497) 335 670 2
(0.4034437728 0.2982781136 0.00642510039 0.2918530132) 232 464 2
(0.6699458495 0.07905776558 0.08596930967 0.1650270753) 462 884 2
(0.1512031747 0.4243984127 0.06235683699 0.3620415757) 153 267 1
(0.3462359688 0.3268820156 0.2345825044 0.09229951121) 137 274 2
(0.2665400963 0.3667299519 0.1478268039 0.218903148) 59 116 2
(0.2459105908 0.1652898655 0.3770447046 0.2117548391) 128 257 2
(0.1756097065 0.4121951468 0.05629850588 0.3558966409) 212 385 1
(0.4512282611 0.1444901989 0.2743858694 0.1298956705) 44 89 2
(0.338951004 0.330524498 0.2659041602 0.06462033777) 154 306 2
(0.8700793536 0.04276637884 0.02219394433 0.06496032318) 293 547 2
(0.07841905305 0.3636756676 0.4607904735 0.09711480588) 336 673 2
(0.3990593577 0.1465926267 0.3004703211 0.1538776944) 297 592 1
(0.3130669191 0.3434665404 0.1271807831 0.2162857573) 410 818 2
(0.3508971965 0.3245514018 0.1742047215 0.1503466803) 318 634 2
(0.544472123 0.2277639385 0.1420966939 0.08566724461) 595 1156 1
(0.09067285548 0.429157139 0.4546635723 0.02550643323) 451 879 1
(0.6673571779 0.1629004089 0.003421002154 0.1663214111) 291 582 1
(0.178581977 0.4107090115 0.02818173804 0.3825272735) 551 1069 2
(0.3359816086 0.3320091957 0.1923916304 0.1396175653) 252 505 1
(0.3235559408 0.2429155314 0.3382220296 0.09530649822) 506 987 2
(0.2471858805 0.05320294525 0.3232041145 0.3764070598) 104 208 1
(0.05897879417 0.4705106029 0.1857838354 0.2847267675) 145 290 2
(0.1643285493 0.4178357253 0.01355084586 0.4042848795) 321 603 1
(0.2975521485 0.08583299808 0.3512239257 0.2653909277) 540 439 1
(0.1969903069 0.4015048466 0.0668569847 0.3346478619) 165 330 2
(0.3010346034 0.3494826983 0.2979802437 0.05150245466) 69 99 1
(0.8165260311 0.09173698446 0.001922158038 0.08981482643) 375 711 1
(0.3683483186 0.3158258407 0.1818612428 0.1339645979) 375 748 2
(0.2411390131 0.3794304934 0.2860765061 0.09335398733) 640 1222 1
(0.4997436422 0.1047299997 0.2501281789 0.1453981792) 376 750 1
(0.4167324908 0.04984796944 0.2417857852 0.2916337546) 188 376 1
(0.6161385653 0.1919307173 0.1438670935 0.04806362387) 213 426 2
(0.4134251786 0.2932874107 0.06977492559 0.2235124851) 241 483 1
(0.102910077 0.4485449615 0.1030291013 0.3455158602) 328 617 1
(0.1314889434 0.3146574163 0.4342555283 0.119598112) 134 266 1
(0.47638539 0.02300399089 0.261807305 0.2388033141) 507 989 2
(0.3581766887 0.2281496095 0.09276204618 0.3209116556) 392 784 1
(0.333434457 0.3332827715 0.1232644087 0.2100183628) 485 946 2
(0.4052081064 0.1816959885 0.1156999583 0.2973959468) 532 1035 1
(0.4407626246 0.2796186877 0.0096739792 0.2699447085) 189 378 2
(0.4758691231 0.256440036 0.005625402462 0.2620654384) 218 397 2
(0.06745660182 6.165477594e-05 0.4662100443 0.4662716991) 211 422 1
(0.3748507398 0.3102710212 0.3125746301 0.002303608908) 317 632 1
(0.1431596239 0.4284201881 0.0296431664 0.3987770217) 239 438 1
(0.5719726636 0.2140136682 0.1831392129 0.0308744553) 372 742 2
(0.07164412716 0.1822005799 0.2819773565 0.4641779364) 351 702 1
(0.4682984166 0.2593698517 0.006480939954 0.2658507917) 126 213 2
(0.06622645519 0.445113384 0.02177338838 0.4668867724) 163 326 1
(0.8971894505 0.05140527475 0.01099137367 0.04041390108) 309 616 2
(0.6625855089 0.1466447475 0.1687072455 0.02206249804) 620 759 1
(0.2665145324 0.118781875 0.3667427338 0.2479608588) 223 447 2
(0.1321928656 0.1084997568 0.4339035672 0.3254038104) 258 514 1
(0.2409180748 0.113570239 0.2659707236 0.3795409626) 345 690 1
(0.02992671127 0.4850366444 0.3561324557 0.1289041887) 30 60 2
(0.0840307347 0.4579846326 0.4179071784 0.04007745429) 368 736 2
(0.2887483879 0.355625806 0.3171306123 0.03849519374) 562 1093 1
(0.3090133314 0.001200705567 0.3442926287 0.3454933343) 155 310 1
(0.3270274645 0.3228488462 0.3364862677 0.01363742157) 227 455 2
(0.2987170269 0.3506414866 0.1435226029 0.2071188837) 51 63 1
(0.2911815241 0.2238906062 0.1305186317 0.3544092379) 9 18 1
(0.02262531517 0.4886873424 0.0224192488 0.4662680936) 129 259 1
(0.05867840478 0.4706607976 0.2269577178 0.2437030798) 344 686 2
(0.1636916024 0.04538569066 0.3727685081 0.4181541988) 58 116 1
(0.001415136128 0.4992924319 0.1783730107 0.3209194212) 571 1091 1
(0.4965298818 0.2517350591 0.1333910881 0.118343971) 647 1251 2
(0.4369157061 0.2815421469 0.2600803807 0.02146176627) 15 1293 2
(0.1576275631 0.07968567754 0.4211862185 0.3415005409) 56 110 1
(0.2636780748 0.3681609626 0.04232667759 0.325834285) 132 262 2
(0.2630492768 0.3584994518 0.00997590984 0.3684753616) 178 317 2
(0.3677227367 0.2421231444 0.07401548731 0.3161386317) 125 250 1
(0.0825100378 0.2568290137 0.2019159674 0.4587449811) 227 415 2
(0.2200014562 0.01815279753 0.3899992719 0.3718464744) 353 707 2
(0.364542403 0.3177287985 0.1324932146 0.1852355839) 416 832 2
(0.2620810143 0.3689594929 0.16882952 0.2001299729) 404 806 2
(0.02689168052 0.249509706 0.2370444538 0.4865541597) 218 397 2
(0.4276844289 0.2861577855 0.2146615224 0.07149626311) 47 95 1
(0.4792554765 0.2562833426 0.00408891918 0.2603722617) 397 794 1
(0.8160053648 0.09199731762 0.0895900424 0.002407275213) 175 351 1
(0.6450942217 0.1774528891 0.1069797533 0.07047313579) 4 1282 2
(0.4064142423 0.2967928788 0.03371941695 0.2630734619) 500 279 2
(0.08684596116 0.2989568239 0.1576201955 0.4565770194) 342 684 1
(0.4941604989 0.03634385051 0.2165759 0.2529197505) 612 1169 2
(0.07544455642 0.4622777218 0.1975381684 0.2647395533) 603 1170 2
(0.7848923193 0.1075538403 0.068235181 0.03931865933) 523 1000 1
(0.4380374974 0.2809812513 0.1763686538 0.1046125975) 435 831 1
(0.7902055214 0.00673083235 0.09816640695 0.1048972393) 412 824 1
(0.4400269814 0.2799865093 0.05221745642 0.2277690529) 374 709 1
(0.05356635064 0.2879796982 0.4732168247 0.1852371265) 197 392 1
(0.7639887549 0.02928106577 0.1180056226 0.08872455681) 186 370 1
(0.1868992262 0.4065503869 0.1170596916 0.2894906953) 212 385 1
(0.5179010307 0.01891709639 0.2221323882 0.2410494846) 72 144 1
(0.1192611449 0.1009412234 0.4403694275 0.3394282041) 66 133 2
(0.3482936355 0.1655935731 0.3258531822 0.1602596092) 137 272 1
(0.2499721519 0.2611601542 0.375013924 0.1138537698) 369 736 1