/*--------------------------------*- C++ -*----------------------------------*\
  =========                 |
  \\      /  F ield         | OpenFOAM: The Open Source CFD Toolbox
   \\    /   O peration     | Website:  https://openfoam.org
    \\  /    A nd           | Version:  7
     \\/     M anipulation  |
\*---------------------------------------------------------------------------*/
FoamFile
{
    version     2.0;
    format      ascii;
    class       vectorField;
    location    "0.007/lagrangian/dsmc";
    object      U;
}
// * * * * * * * * * * * * * * * * * * * * * * * * * * * * * * * * * * * * * //


6918
(
(542.1411379 1053.339574 -503.5857038)
(-332.3560515 574.72663 704.0831383)
(592.8154661 173.500676 -494.3945272)
(-262.4489991 596.3855932 -97.19228888)
(953.6917128 956.1376186 -241.0125337)
(834.215756 -187.607853 117.6360666)
(218.4929198 -357.3975652 -670.7029869)
(-50.5055719 525.250482 120.2941319)
(260.7367144 899.348633 717.9201721)
(558.0088666 583.0853152 89.81622603)
(273.7219053 141.0208806 288.0358028)
(159.3295869 497.9176966 365.6714048)
(-235.5242094 194.3682294 -20.53129017)
(1690.92489 388.7568718 -306.5768826)
(1357.736415 590.1061926 -968.7494206)
(299.035923 657.0083323 -37.28018355)
(239.003798 326.2086756 227.6394079)
(-225.9525221 934.8044541 -226.9250466)
(1337.786034 553.552469 -106.9247538)
(175.4025065 -19.48539684 12.72943517)
(1049.754948 152.6512738 181.373613)
(-180.3844314 1158.285601 -1504.554491)
(128.679721 -51.85299592 180.6705388)
(587.4310967 -240.9747142 -562.1055564)
(823.8572069 820.8536064 66.02199544)
(234.4421888 245.8523938 128.2311593)
(908.3909204 507.3875987 -23.36264782)
(975.2439165 318.9977561 -1225.613905)
(-391.611777 1076.390983 44.09625932)
(2065.513885 -104.337938 12.78547758)
(-67.3952885 347.8740957 12.00257988)
(2564.983794 -96.96212691 373.2612113)
(477.0343859 -205.2746619 14.82585881)
(-329.6339407 -208.7959781 355.0118907)
(786.340436 -244.5621534 -682.0487861)
(365.6177206 92.43055723 637.719099)
(1248.283894 1021.549882 1381.878606)
(1130.082795 479.3424481 -678.1577605)
(-226.6327372 112.0191876 -771.6609325)
(774.5317028 540.4979286 -619.1101092)
(1930.281248 1195.660242 -192.7159475)
(978.9892839 1176.969576 102.5656957)
(1504.008095 384.9483456 510.2138892)
(650.0174449 318.2943282 718.466525)
(849.7711371 353.4633496 506.3721723)
(391.9413561 956.0416042 388.5862059)
(416.0036619 777.9058529 -507.9661475)
(-100.0140943 478.2358374 734.0577003)
(236.8515923 650.1046601 -195.3380681)
(-143.5133895 95.86357594 -1077.745325)
(-900.5257957 354.2693324 96.6642749)
(213.5912864 -363.211921 204.8567189)
(1088.721528 1358.614391 -62.69836826)
(823.8306895 528.4328523 -333.8355136)
(186.3375284 -11.00039267 341.3172997)
(947.4874445 257.771471 -145.4039853)
(766.6624798 902.5972284 -1009.180401)
(1021.151452 749.5492361 -1017.365572)
(622.1553154 -275.4801459 -400.4150403)
(-147.8004434 591.138472 -661.3245112)
(966.6377922 -330.642589 -845.6131777)
(1028.321754 243.7158438 173.7473328)
(448.736995 -53.68816574 -378.4459238)
(516.6690884 815.6953934 65.64407291)
(805.5612271 -67.80596126 220.7018915)
(1079.060251 1361.888295 25.88392928)
(1084.731434 550.8358964 344.6378813)
(490.366606 700.6356193 -659.2638012)
(364.673044 679.7836868 -603.7572659)
(66.02901705 226.5023415 1022.125095)
(28.22234879 197.7497186 308.2651582)
(721.921824 148.067944 523.0224324)
(58.42625405 452.0357039 -82.52234528)
(-506.7379338 763.04782 -453.8192117)
(-326.2118537 789.7562089 -661.0275171)
(1573.648224 -760.2316284 317.1721499)
(1199.424611 -1095.753166 -422.7308272)
(2408.942692 994.1044439 -211.5483547)
(778.6087662 348.9431783 -491.2670605)
(321.0870416 -242.9613713 -496.1915544)
(108.4628718 822.133354 78.67281021)
(-404.5715615 426.5258068 109.0707834)
(1873.681661 -27.20890343 220.7588349)
(1411.064163 -520.264204 -311.225088)
(1290.687188 76.85426348 -176.2244626)
(-582.7983261 170.3025411 214.675737)
(1451.845058 719.9070525 -842.2594174)
(1069.198918 311.8913513 650.783414)
(1112.144144 500.7684626 343.3515713)
(288.1444736 1018.36811 -234.9766471)
(-151.1269897 -133.9213649 2.300381213)
(700.9477901 184.5884891 -536.3140807)
(304.730766 360.6074259 -510.2057776)
(174.8766947 237.2177792 218.9897907)
(695.7491776 359.6808921 -578.3443749)
(165.9006247 852.6464559 -23.11929385)
(351.1204445 -262.7311706 -260.9753542)
(-103.7575246 845.8010522 612.1983787)
(952.9924267 690.8854153 647.9195736)
(-152.4802464 831.2777975 -125.3737948)
(1717.342316 619.4133832 -487.3301591)
(584.9894096 290.7235835 94.06371824)
(-0.2362119034 1582.675892 -384.8215306)
(170.2783858 338.0639259 368.4307075)
(-13.94977541 476.0440712 35.29562041)
(783.8868498 -472.568958 -792.6686204)
(350.6905133 2.785301175 -191.0651206)
(973.1863005 279.1237997 -114.546957)
(134.3388718 -290.2298472 -1110.066286)
(954.0374916 101.7680068 359.7645146)
(594.4923632 465.1003977 1022.461257)
(138.7993135 881.9257461 -436.3782127)
(1273.130439 -609.0713599 -1253.355402)
(1076.135755 -17.51264945 928.7682355)
(1758.698221 -540.7022439 -1210.398764)
(203.1368944 221.4781794 -358.6548888)
(1639.087206 405.7704535 -47.96407124)
(1270.008105 425.8250593 14.59748688)
(-151.1885639 284.2034887 -248.6055363)
(-536.5331142 679.1822559 -509.1995757)
(1039.361269 556.7341381 26.85234064)
(1489.696988 -315.5921732 74.49051521)
(885.1542032 481.9554289 -44.47264741)
(199.8097677 -250.7907701 26.89903479)
(332.7268215 -452.9120082 761.2430495)
(1628.524723 -338.7295559 377.028862)
(191.9093717 822.9051783 -371.3315007)
(635.7847145 407.9873925 98.77358694)
(1695.10125 265.0794127 -134.7624662)
(501.0095339 -23.81371975 207.2405531)
(819.2609336 496.9046273 196.2521767)
(1981.217411 879.6857044 -3.354473309)
(558.9277765 323.4644929 3.086688688)
(216.2636504 500.1281237 562.3834703)
(-387.3958077 235.0489097 -168.6007557)
(635.1394439 305.3106392 728.0707943)
(1607.286345 561.2710916 -863.0630079)
(1872.504293 -77.01679858 -208.1000514)
(1419.138524 -811.3030818 431.9242094)
(611.3631101 258.7614752 260.7263981)
(-369.0712459 270.3733938 765.1843469)
(137.1419449 405.9051318 -21.90889562)
(146.6766076 736.8896607 -24.90297486)
(1259.196832 102.1780962 -534.5950101)
(-271.8506498 448.3137983 329.5808946)
(1577.476645 20.80677301 1043.1559)
(435.7313623 628.7754753 751.4287889)
(1121.634824 -371.4039977 -121.5420714)
(512.0476288 531.4253305 233.2755374)
(180.7630069 331.5746469 103.9640075)
(1334.541914 649.3085008 212.3748516)
(-247.0634154 218.0714405 439.2064944)
(68.29331713 350.2738633 -780.1048986)
(-409.8133206 1142.264695 -254.0083402)
(882.127342 -320.1150153 -359.2332997)
(831.9496203 164.8552914 -422.1543611)
(-246.7562188 752.4315368 549.0800365)
(1509.834991 108.7294682 607.5540331)
(-509.2280492 1312.457954 -443.4585736)
(993.5593497 -307.7663424 285.0132145)
(936.244984 897.8119432 -125.3608864)
(605.7433666 240.1161671 48.41817739)
(870.6577482 749.1991783 416.5252159)
(812.6218903 1082.975692 669.9919951)
(435.7132424 717.1864973 362.7440696)
(1505.036992 157.3348569 -87.72889092)
(1590.158691 30.15872228 361.0269262)
(572.0990908 486.0188152 -823.6003972)
(1807.922973 158.8647575 66.39879147)
(968.2637642 81.39014338 626.8786568)
(168.6732391 -157.849306 -587.5607073)
(1096.406475 338.1018261 254.1252001)
(122.4867503 -237.2460107 -817.0201581)
(-333.3597129 209.6186953 -990.9254441)
(-155.4397405 938.2600732 0.8505005809)
(136.6900789 -164.9131627 76.87572782)
(556.9219533 1542.526356 -586.4470914)
(209.0552923 -168.659194 -1348.21796)
(255.2274632 274.1804577 -258.6821354)
(1313.728204 509.7724524 27.71778453)
(548.996396 191.738845 -53.69350416)
(1673.095216 365.1162105 -301.760978)
(245.0243208 1004.281363 372.7716202)
(830.1449755 351.4426729 -84.00537233)
(703.7053265 1039.821142 171.2157116)
(682.3359919 1348.835601 1003.565999)
(235.3263075 827.4474812 -956.2166208)
(-1117.110043 1052.63383 289.9846094)
(1733.005729 -181.487186 -1422.650539)
(-90.70401797 311.1292881 208.1169229)
(514.8930759 612.5622817 519.6553083)
(906.5458522 224.7651744 -214.5739174)
(164.6586292 -9.517162648 -255.535234)
(781.9385513 -276.9245631 320.8274526)
(1321.070655 625.6048901 -634.6628757)
(281.2402403 494.7037614 93.90348858)
(1826.975958 -451.7920102 898.1007053)
(90.88771527 686.1617555 -736.3335849)
(1232.481347 414.6170518 105.0575417)
(1953.291535 1368.318411 -158.6471474)
(826.620895 1198.841598 -432.5298636)
(1678.025838 1126.629528 440.9937357)
(522.2753981 309.0783942 365.1855847)
(1454.042415 539.8743248 -434.4272985)
(1308.976874 264.9906482 107.0197978)
(1082.147723 231.9956754 -187.0964842)
(526.5839864 365.6502293 151.5013751)
(1507.201761 1044.576904 -712.4754209)
(1890.396676 209.4735251 121.6819804)
(545.3873022 181.255519 -564.14941)
(945.8302412 -3.79735996 702.117664)
(307.1050583 755.7886342 5.538111459)
(906.1779262 326.6827223 413.1324343)
(861.6683947 1622.756624 269.5854508)
(1097.440804 404.787755 196.0563415)
(1548.012729 -365.9413421 159.7968802)
(134.6783867 728.0344603 800.4619018)
(166.689066 839.5939445 134.6194009)
(1890.332803 490.5708704 -274.1361278)
(1338.371024 -167.651599 184.9525317)
(704.6768878 111.6702978 -430.1463697)
(410.7415398 -23.08203592 -19.18778266)
(426.7784644 549.8941017 -259.9234538)
(-232.1234276 1031.789274 -205.2912708)
(1587.411478 226.407502 -862.3488223)
(1463.176695 -406.9903294 468.1629413)
(1121.489524 135.184749 242.0293346)
(101.797985 1296.917874 123.9356267)
(314.9773086 443.9671506 -661.2443523)
(1645.945523 848.3488868 25.60102472)
(527.6577922 -467.2835156 455.3295664)
(1231.487838 291.6775907 -95.24099672)
(1674.323409 482.854119 -226.2659122)
(785.426112 225.8650922 733.2713718)
(1508.220045 -155.6998623 -143.6218197)
(-656.2313561 1126.467674 178.0452681)
(320.9008038 714.4017828 306.3336682)
(246.6173785 12.94780818 102.2872411)
(1282.901797 899.0667213 -963.6248722)
(-622.2593674 64.06378143 -377.2049575)
(771.2429362 555.0273944 -955.1839023)
(1224.371103 1213.324103 -289.0749178)
(498.0530006 -689.3430551 517.1134431)
(860.9740719 1006.759064 451.1407728)
(1516.207978 -210.161109 713.9903219)
(1234.097839 -445.9270433 -344.0062471)
(896.7436654 -243.0240378 159.3090959)
(2110.770367 -135.9477775 -347.1957741)
(477.7321478 273.2436927 1281.3219)
(214.3183446 386.6431489 -371.0382438)
(656.3747623 -174.0777375 -150.3751516)
(-409.6008901 489.1377687 -693.408697)
(1111.276791 943.8418579 -478.9304884)
(693.2799239 79.38139546 298.7481083)
(484.1593644 490.6682091 -435.8682307)
(512.8219605 88.1847764 -443.9265959)
(1239.556188 19.87533776 -264.999269)
(1964.168995 911.74342 -647.2792367)
(750.1706623 274.3211644 733.7850867)
(1712.896908 887.4169382 671.8036393)
(194.2507362 303.0245476 -14.29727963)
(532.5016501 604.2264427 356.516397)
(274.7250488 274.003906 954.8453581)
(1741.946979 723.2067777 285.01477)
(1334.774308 -263.1356064 -233.897482)
(978.8756625 -1496.662103 235.0323828)
(1131.809884 825.5987486 830.0624038)
(85.97920779 -48.49949511 -422.818406)
(-564.6729032 146.8317994 91.56581629)
(1363.976321 198.1103529 -640.603443)
(880.9802747 939.0790478 969.9779604)
(930.4157861 -225.2301283 755.4671117)
(133.2106776 265.9487735 162.3171145)
(-54.97189757 37.09939811 -232.7726933)
(-89.89565516 1233.552533 -73.50995808)
(1474.472199 361.9943966 629.4761117)
(602.6731022 363.1970778 636.1723926)
(1111.005188 795.3525387 136.8184779)
(-518.3937287 27.55891351 -100.5069691)
(939.3983327 40.82099142 -840.9343094)
(2016.568697 312.3108672 -554.4035887)
(284.8573073 537.3461852 -21.94295616)
(733.2354773 86.8498913 -1139.70754)
(1202.042752 -34.10761067 284.5133904)
(717.855505 1095.572122 -79.81143263)
(307.0104273 749.1168992 -143.4907652)
(338.1374959 -9.26632833 291.5946243)
(1117.234496 1409.364879 1783.021194)
(-439.6218949 222.4567507 -489.5103546)
(1036.526016 355.6066559 -1117.121364)
(203.3228913 208.4089544 277.4640089)
(410.1092658 10.62408335 329.6045114)
(621.899447 660.9075487 125.5764988)
(810.359799 226.0319562 -422.7339145)
(1185.535205 -340.6426649 -258.0198576)
(918.2918439 1016.581057 -490.8742114)
(956.3791696 257.2152045 287.1054547)
(915.0111996 48.84595858 -874.4526428)
(-75.0548407 -101.6706611 338.1380435)
(-45.12249148 -14.01351778 -900.2575917)
(1832.908571 436.8273949 -70.97727544)
(846.4122273 247.4554732 601.9077348)
(886.2874656 533.5312153 -158.0093025)
(1227.597224 191.416383 -499.0949495)
(1812.682611 183.0703159 87.60242581)
(1222.157868 -369.1491191 21.04608746)
(1202.129568 -726.3790462 -75.17601507)
(1745.65476 218.1234665 623.2240826)
(630.3971308 948.6781802 -750.4407909)
(422.2059376 508.9850083 261.5254848)
(1166.797003 266.69269 1097.945391)
(-124.2734238 631.6568684 898.0215538)
(-203.5725652 -573.346716 -416.015236)
(1151.831614 554.1180098 42.94501335)
(1178.862162 169.3671708 -568.2348267)
(1577.534281 221.7809935 135.2200173)
(710.3427122 1217.916139 45.94208169)
(1495.260477 519.9447175 329.2543648)
(816.2477231 823.6005823 -642.1637269)
(950.0822186 -381.1625089 -1332.134719)
(1318.672207 -257.2920276 -63.18614147)
(1461.130725 326.3377563 -175.5504928)
(895.9740276 -362.0194925 451.6197282)
(1811.77612 -55.52025387 -467.2693293)
(1677.263976 -74.4124785 414.1627676)
(1368.536584 185.5955909 -326.0207957)
(1700.88668 -591.9327349 237.6124671)
(981.3424855 -452.4231846 278.0738069)
(951.4396361 89.13239356 79.82271789)
(180.9113374 764.2047749 -690.6653927)
(753.5077543 -922.9768651 -880.3097416)
(929.2814231 737.5397103 1.892488456)
(346.6501078 -114.6501193 -248.7797516)
(209.9466274 309.7780519 534.9559818)
(-389.1245344 752.4563349 -250.9891915)
(1832.741612 165.7253683 -12.1065487)
(1361.334747 469.5891984 414.1953585)
(1120.152284 550.2501465 -348.5271662)
(693.1939282 752.209703 -313.4595371)
(1162.466299 328.5464626 -101.2993177)
(1159.871678 1021.605382 877.9648294)
(327.3174294 412.596752 -453.9182131)
(1507.727899 389.6872302 177.3803897)
(620.8550622 749.286554 -299.287786)
(2147.635261 528.1213925 146.3477273)
(921.9117915 854.4881922 570.4487585)
(298.849583 354.5156579 216.2607447)
(1983.022529 576.4253383 433.0444767)
(586.6102644 200.0708875 -446.912129)
(1410.037548 1053.49246 822.5501626)
(-237.7783795 703.1881253 264.1406547)
(1298.417603 444.4011275 -595.9343335)
(317.6086954 8.954364686 -549.2522081)
(303.5587936 507.13967 254.1834758)
(815.6354997 438.4710017 114.1510572)
(2714.401773 625.5940455 -23.82321131)
(497.6334273 402.0083788 104.9570888)
(1158.9056 261.2566565 1272.446242)
(-443.3791952 306.2992227 390.457161)
(248.5633827 613.0586701 -863.9142263)
(718.8059383 506.2974182 -1189.149807)
(1384.545429 174.7937759 -506.5587399)
(1343.163084 253.5879379 472.3073372)
(1271.008164 -168.6676837 57.19958921)
(1310.678083 101.1599577 203.8534704)
(1269.233518 306.7685383 -189.3318743)
(1643.960281 -200.2597594 -346.8103552)
(1029.008782 -823.032853 -17.23851897)
(1611.875248 130.0838745 -299.5339251)
(1461.235074 -370.2741588 -26.38251325)
(1566.920094 163.1855725 42.71433115)
(1303.945468 173.1529732 62.94713973)
(68.3498414 566.8806476 -580.0230199)
(1663.641498 1279.174643 -85.40731871)
(66.3671298 765.4742874 -568.4381864)
(-228.4342081 198.675796 109.1027145)
(828.6074922 990.4806398 -526.0845809)
(248.2122896 1346.527766 16.47052638)
(487.1163665 382.5008215 -503.4368428)
(765.3054129 -65.94691739 -565.3121831)
(1026.4326 102.852117 484.7422801)
(1355.498021 847.3426754 321.6917106)
(746.2194722 683.7164707 -347.2330267)
(-217.7112075 158.504788 442.0248418)
(1570.672467 -216.7473827 292.4820557)
(1220.327934 264.1172069 90.12687713)
(1032.996836 -29.87227004 -88.05625959)
(1592.267182 -452.9226906 76.36120599)
(142.2456201 499.9429911 -353.946578)
(-156.3001482 -476.8380576 640.8251533)
(-493.5044236 -92.89643169 395.9768689)
(165.2197114 1574.528398 1212.799901)
(1414.334113 -774.3958947 -529.5282266)
(-254.4244139 -10.3020088 -431.7979522)
(678.7472576 650.7102173 -329.9592789)
(1400.84893 127.0875169 -270.7002585)
(-323.6304178 300.4437372 -425.5673756)
(192.8378853 242.0318705 244.747833)
(961.4370941 -202.862408 54.56887897)
(937.9378821 -70.29648281 249.0838221)
(1550.464583 115.6790239 -506.6642016)
(841.4922192 730.6010445 299.9977466)
(899.513044 1347.398255 -814.8785603)
(1254.147609 -643.3398922 1266.460688)
(1265.507021 -16.19930525 -244.9445054)
(1862.596356 -156.4460675 282.2527697)
(1567.693071 370.6451434 -428.7442489)
(1565.447824 1095.082606 116.0253169)
(858.1606261 431.4327387 634.7278393)
(1057.976146 668.830583 969.3499463)
(417.445764 140.4058519 119.8429114)
(1131.233393 -69.63870512 639.3502909)
(1144.796511 660.8808862 -136.9751316)
(-149.092385 671.3269183 -19.61880067)
(1465.087281 171.3537709 -379.3210599)
(56.67529813 4.909777073 -506.4499877)
(328.5686488 344.2439901 322.0394387)
(1090.813248 135.4785596 448.6509081)
(906.374691 880.8154348 167.080325)
(1301.65763 105.9378351 82.74702148)
(694.6446398 308.9828369 568.5028644)
(-482.8327262 622.4298165 154.4387705)
(536.4803141 192.23217 -23.04290225)
(1214.650974 -322.3050479 -285.8859715)
(2022.057352 339.372129 -120.8152023)
(460.8011377 -1074.014898 -148.9890294)
(1287.600861 835.9488293 347.781357)
(1377.784372 -24.94277248 -151.9702262)
(2194.243769 -15.00498434 350.4488755)
(1923.462151 -235.3655137 -89.61506915)
(1550.594123 575.6341364 -859.6827268)
(1676.424979 -320.8957529 285.1194339)
(1062.936866 -303.4692235 -148.0140446)
(1192.199595 884.1133255 120.7879399)
(750.8993646 358.6462574 -643.1706565)
(1297.010794 -71.71535189 555.2585215)
(1837.205829 -502.6094286 -1131.376713)
(1890.460928 -810.7153668 -523.5167767)
(752.2835065 103.5589461 630.3470734)
(695.4413331 -67.58240195 608.4701408)
(552.3962704 177.6242814 23.54030962)
(301.730993 -14.15670836 1324.690032)
(1424.884392 206.2288692 -382.688988)
(1699.510633 -299.2550608 -185.8578688)
(146.3224759 499.0416171 -557.6659887)
(2036.992455 1073.863386 94.35313794)
(1171.548059 -177.6044708 660.1344624)
(-233.8123004 995.6283565 565.1374797)
(224.7522877 643.9696204 388.2506111)
(19.14545539 537.7847775 -500.6283983)
(1597.194858 348.5291022 14.37129747)
(1738.957256 -729.4038073 522.8350441)
(1881.718283 936.4511258 611.4455021)
(1600.124377 114.9189828 405.0425287)
(1551.845233 133.0191721 -14.22706312)
(1322.025905 -447.010754 787.8577032)
(1465.461624 366.5945951 -134.69157)
(1948.795225 453.8237138 585.3757531)
(1435.694381 483.1514437 212.5432874)
(1738.165728 179.4153482 -121.7045485)
(1670.045882 -381.0598122 475.6346209)
(2065.226876 -28.76979504 -98.47036133)
(518.5258013 839.2459467 -1022.70791)
(1825.224357 72.10479974 -125.3832221)
(1624.007959 -2.997026636 -54.12628338)
(1691.912371 530.4552222 117.0675435)
(1232.161501 -923.3232007 -363.7361946)
(1043.90886 6.518437645 -37.92674666)
(765.1584912 912.7385277 1164.034842)
(729.9418791 773.3707094 411.819696)
(551.7404532 225.7416369 -692.9202489)
(874.1463442 -424.3907724 -121.9667416)
(658.6251546 -225.3185951 309.349063)
(1023.311805 1006.946554 78.96631154)
(657.0718356 399.4922329 101.2588586)
(189.5751366 -127.5621187 49.55477441)
(1013.62678 -280.2029241 683.6997842)
(1638.86975 951.0074652 1041.211796)
(1135.064244 425.5658972 833.5534207)
(708.8084876 -47.8824582 -216.5482357)
(734.7658127 1160.385542 -118.2669337)
(2339.286514 505.8748037 954.4001524)
(1120.949913 -361.2014771 426.2783708)
(1628.438332 491.1124341 224.3961455)
(1676.217948 55.3308157 20.04831746)
(626.2828418 1382.373946 207.5660185)
(951.6552622 -503.6801331 83.50234566)
(1672.950967 359.4699399 -49.13314457)
(1200.809713 216.9064569 1109.254146)
(1258.843889 339.8635958 102.4863577)
(1428.229478 191.2138665 99.46648322)
(1520.105632 -59.24830863 19.23798702)
(984.8383328 -233.0751201 -226.4372321)
(1800.567667 82.98134685 524.7110593)
(1298.044625 396.855191 248.6300259)
(1281.844291 -98.62279491 -138.4455089)
(2085.0972 224.9077774 -119.875757)
(1653.358331 159.4531649 -207.9517437)
(1617.09357 -138.080314 -210.865307)
(1897.467233 479.7436918 546.1169204)
(1077.720898 98.59744779 445.5823272)
(-155.3000639 512.4195297 -2.481259191)
(886.9843767 203.0287485 46.32201356)
(-167.8045885 210.2897476 -294.5253)
(345.5643084 648.0823891 -268.4430887)
(268.1494553 -279.674183 -600.3715161)
(742.3873257 240.2955239 -121.7461083)
(1006.067411 333.1294408 236.7362564)
(886.7930328 586.4442116 37.00584864)
(1287.185979 1360.157065 585.4183728)
(596.9764765 809.402127 -295.9240018)
(769.2741454 36.07246262 829.3597619)
(-213.0513774 -296.3234631 734.7353951)
(-307.6465062 338.7495407 745.0696534)
(371.0295032 1159.201688 213.6555275)
(862.4484223 180.4378264 524.6376181)
(2078.742095 69.64934004 -417.583626)
(1848.717073 -473.692472 -32.91628745)
(928.1611479 1652.483245 -740.760962)
(1450.097419 66.17907768 42.03921636)
(1504.431152 61.25708516 -403.9531969)
(1361.485006 323.8351957 411.381561)
(1512.502933 661.8322321 -231.3613531)
(1534.478716 112.6877107 -35.82587597)
(1870.741164 189.2109173 -154.3516747)
(870.8299606 392.7286147 599.1025461)
(1780.486603 -131.1349557 -115.1017635)
(1658.156692 -479.703386 -373.6749482)
(1515.300036 269.4547308 307.1424779)
(1179.124797 -41.1834504 -455.8096344)
(2079.848946 19.50521302 -490.5125042)
(261.51681 -167.4972446 280.3495303)
(1818.464798 -452.554376 241.3069642)
(1669.883095 -715.4972512 -121.0611002)
(1677.227365 -564.4260435 26.83936209)
(1039.658909 177.2729625 475.7820402)
(1388.128044 254.3344256 153.715222)
(1044.292564 54.42555757 42.66001915)
(205.6980839 510.188057 219.2674755)
(-276.3905913 601.4464904 -137.7975815)
(1915.092052 -582.2695007 -24.31168184)
(1588.161657 646.5404051 297.7095278)
(-200.3673739 234.8522123 291.9924286)
(242.6899654 186.8346951 567.608467)
(848.0785561 -221.5479951 20.11046251)
(1201.712839 113.2103559 -894.2790177)
(1825.708205 906.6240398 97.02213386)
(-552.8365632 480.825405 -424.6031755)
(1084.820966 -459.9306224 190.2006512)
(1134.503209 555.8000512 245.2047863)
(1366.814009 -520.2078236 15.43552191)
(1648.483035 116.1884162 -458.4594497)
(1381.041835 90.91269474 785.0356564)
(881.7789545 1569.788383 -699.0814381)
(945.5047158 -239.1490657 -199.6543531)
(1337.070708 -58.43115687 -636.3262005)
(916.5434936 113.9044587 -268.4880436)
(746.8747012 1585.210806 661.0635344)
(1571.900871 -73.89694856 -25.01873806)
(1322.925065 -124.9505369 -181.6549489)
(1047.776725 -1193.85489 258.5930806)
(1453.553103 468.3904007 -8.518948165)
(1323.176902 102.813112 304.3873665)
(1413.438117 194.6993617 245.8039961)
(1513.823855 202.7679413 215.9005839)
(1144.332351 -21.75875663 48.89228887)
(1768.572981 -93.76539144 50.18956937)
(984.9601336 -346.9222472 -7.251925231)
(1871.219165 -350.1484359 77.10052299)
(1689.425497 -489.0863876 178.5976671)
(1366.512484 -175.5610886 -36.23457468)
(1894.309251 -298.2342826 -56.10151226)
(1653.616949 -696.8849973 -333.1025614)
(1625.053429 -403.2874811 206.7415944)
(1678.473413 -84.4898965 -233.3736922)
(1255.628613 -391.7892256 -424.8016223)
(582.337424 1007.601257 31.53301903)
(1069.904686 -404.0675311 -146.9247096)
(848.7260075 839.5665066 -8.643626195)
(1492.978511 1276.878017 865.4909564)
(396.4880078 399.0699427 -447.2830727)
(-513.2266578 212.1315403 -715.541864)
(1239.526017 -201.2578955 -694.5974794)
(-114.591439 692.4315822 -337.7433246)
(2342.710268 751.0849008 -318.4643252)
(54.61561646 446.0207574 -591.7982485)
(453.4944571 -24.89807186 214.6098581)
(-104.905833 -30.36823239 -729.9468883)
(1363.547977 286.2778239 -62.51096275)
(965.6302892 342.0196192 -80.19252709)
(1267.413841 362.2852069 -588.311815)
(593.9845686 33.90099673 -1073.342222)
(1915.179788 -398.970895 593.4437401)
(1295.744859 899.3744091 170.8751705)
(1100.508355 83.64766358 -117.8450166)
(816.6487644 230.8769916 226.8448993)
(1295.994164 281.8200986 276.5003755)
(44.39944871 530.7232329 164.7310929)
(979.7297874 673.1458477 1699.54137)
(922.3661924 131.2126645 -235.3472621)
(2412.407751 -207.8356267 310.8436001)
(1649.161206 142.4562617 666.4638317)
(812.9629166 -399.2822011 -535.5997948)
(1836.93375 536.019036 1.110187635)
(1546.312776 -235.8882773 81.18966312)
(1312.580946 -263.2192726 -222.826828)
(1695.281973 -105.612609 6.810749189)
(1607.176144 -254.843011 -139.2704102)
(879.7645395 1423.886929 304.4284195)
(1734.755138 439.0506746 -353.2753478)
(960.8187823 59.51205108 411.735913)
(2057.106176 -225.7614312 138.5514276)
(1547.827995 144.3812268 -223.9251397)
(1715.206033 -41.95781898 -155.2955741)
(1616.287174 292.0716763 90.91819914)
(1547.014723 -159.6703868 -292.0062907)
(1804.944012 93.57455076 227.7869198)
(492.7978765 579.9180074 769.167064)
(1170.873067 -154.6447407 -158.559347)
(2011.125265 -254.8851287 -162.4695456)
(1794.366636 -380.7256558 141.7039173)
(1754.125174 79.80187336 -431.2173467)
(1636.167784 19.44787072 -531.4875492)
(1754.886999 -27.55570515 74.5221388)
(1564.930677 56.79739137 61.64908667)
(1740.340936 167.7558315 275.8836877)
(1825.930071 -89.09112851 -79.01828379)
(2109.292975 -313.2582594 597.9024493)
(622.513274 1094.856984 454.4587577)
(295.0697491 1184.382522 -559.3844725)
(631.1546953 284.3926106 -559.9991802)
(-799.4663084 821.9313846 -356.2854125)
(602.0837192 95.34422295 -643.9418349)
(1590.302704 251.541696 -148.2428947)
(987.0928457 1052.949477 -451.8517872)
(84.61433429 752.6567045 450.9184963)
(-501.0886473 554.4942352 234.0336595)
(482.968599 500.7765255 -981.2985959)
(284.6960384 754.1310712 107.7975594)
(-474.5750407 506.1357858 532.7369369)
(1002.943058 1156.925285 -73.20360419)
(454.0342569 627.7784273 -83.57503933)
(1089.993779 569.1884206 642.8133516)
(-325.3907771 890.9576744 -697.4820533)
(-996.6762465 177.8768689 -246.3005846)
(234.783589 583.4596393 -348.2931896)
(952.6688353 789.8440839 -581.9641974)
(634.3338111 1447.418853 -186.3096793)
(837.4386873 517.1643493 -56.51723767)
(1586.874735 944.4779915 462.19147)
(1469.45228 -154.7095933 -1057.372872)
(1237.852858 78.57606864 1001.766012)
(910.9528839 -49.3134954 313.8896784)
(1744.489573 -354.4675973 7.915943235)
(1326.301537 672.3453376 591.2411013)
(717.7784981 516.0770772 202.5048028)
(1791.979077 52.98102691 98.84999521)
(1208.364153 115.2050923 -65.51425152)
(1867.563748 -10.46410952 -39.78512909)
(181.2488877 755.6515647 127.2142496)
(1902.861378 -126.9155627 319.287101)
(1201.50371 -39.47093886 -33.78657242)
(1258.286108 -200.2766536 261.0943086)
(1937.683749 -54.76245849 -207.4460638)
(1544.901404 53.07132928 109.0058235)
(1627.305618 107.8909323 -380.2538273)
(1534.381403 293.0019773 101.497888)
(1674.313416 322.5062742 119.7611243)
(1693.113228 52.673641 292.5495186)
(1476.516502 8.954564704 -212.9853986)
(1484.637472 274.4356084 79.18469997)
(954.7705633 62.62683185 54.56080855)
(1626.770307 260.5353905 76.82807327)
(1945.897246 -48.85416622 211.8221651)
(1059.613093 553.7054757 -52.58311359)
(1540.364615 -164.7431693 81.23888879)
(-585.2896616 745.254496 127.1295921)
(1357.061351 -458.4865153 286.2859762)
(241.8024035 -12.18040703 335.4352555)
(-409.9453446 960.0987996 -204.327926)
(-309.2198389 422.0715683 471.5335992)
(185.8464147 446.4108594 106.6500506)
(-134.8079886 345.2443011 327.4055747)
(1755.823956 130.1298174 365.4848112)
(1657.866325 653.6698807 178.5844362)
(1468.58007 251.687108 -534.2011239)
(800.7240829 349.2221027 87.27548824)
(990.4984347 -104.6372277 33.43015144)
(-270.8110128 1095.84118 578.7986803)
(272.3286898 -13.28546502 1087.62447)
(625.0266388 1851.26746 -579.1731408)
(1912.762482 139.7355639 670.4147004)
(864.3723132 529.9827072 500.5413764)
(619.3882206 -309.5497585 613.6004619)
(1943.692413 -384.8911819 -49.779901)
(1572.994821 285.7117254 -154.7484083)
(1397.039731 -200.6954002 -1184.428531)
(1714.769693 124.0832237 149.1910409)
(1882.789556 758.2677478 10.60531731)
(1036.694088 -18.49921401 51.70205849)
(1437.44849 293.8518918 315.3856228)
(1693.811155 122.3595856 271.4335263)
(914.582562 -149.8286989 73.4571362)
(1168.635561 -369.2890007 -475.5900445)
(1589.555984 -86.7539653 -253.3348319)
(1930.604385 263.3241181 -115.5695929)
(2401.781425 199.2205175 144.1610865)
(1909.597694 263.4715246 -212.2275444)
(1726.520049 430.4778459 -537.0159883)
(1716.683914 451.894774 212.2216529)
(1890.601789 94.91195046 -294.8788639)
(1873.641833 -26.91149075 -203.2289636)
(1855.277441 -13.5533169 61.46404141)
(1465.262986 43.84953306 -445.8813614)
(1443.747664 -153.2720012 -116.9385331)
(1595.739152 164.2718807 -109.8970078)
(1449.150267 -46.65139509 239.1679798)
(1757.775994 -176.7353133 118.1672779)
(1758.878157 408.995473 702.0161325)
(1829.726137 -299.2529885 -232.7599158)
(1794.51098 128.867165 42.47702135)
(1857.542389 391.8756739 -128.8443381)
(1813.895883 261.6105152 -135.820732)
(1320.481738 337.9298985 -299.0091891)
(1201.329929 197.8513667 22.20139837)
(1794.434889 210.8057301 -613.1568812)
(1484.487833 -251.5963093 623.3637947)
(2153.629256 91.39075993 194.5249298)
(1424.435891 67.05664785 -94.10357972)
(2096.269378 -263.1710066 303.3896278)
(-186.4124384 -277.9370927 -143.164936)
(1214.616708 -194.2108551 -707.6283295)
(1067.888493 1561.436384 252.049508)
(60.24318637 901.4713395 118.2228938)
(1107.374877 -271.5503111 -58.40133699)
(1397.648932 797.0892456 -751.1465413)
(447.3283966 63.49052803 -174.9275658)
(41.15714904 1011.792047 -362.6202229)
(-84.13197506 686.6140959 -259.620228)
(1119.783912 146.1457498 -24.97689739)
(1091.398989 1109.077422 92.64291275)
(1046.966299 468.1897711 698.7314941)
(1540.186581 -417.0142039 618.4998619)
(1393.928367 -396.1268096 402.9249754)
(-63.11685896 299.0284472 -42.74593218)
(575.7912259 960.4216792 -1521.48443)
(470.8001761 557.5651415 632.7684095)
(75.87039787 -830.1930128 -530.6829525)
(226.9261625 719.9934686 149.1288066)
(1536.225727 -63.91416559 137.5041469)
(1040.791165 -393.3614444 -16.95615694)
(1592.515233 695.7695332 225.4304483)
(-166.3200918 713.2436076 -357.9633187)
(16.81319833 1032.579679 -7.549546363)
(694.3399657 152.666993 -684.0884362)
(202.6569432 -947.7049994 13.54421014)
(1221.024702 151.6338491 911.0677795)
(1724.356651 586.8627405 99.80569687)
(1642.059524 162.3451997 302.5700952)
(1390.563211 989.4147969 -158.117126)
(1765.087249 -74.38360712 56.87612309)