/*--------------------------------*- C++ -*----------------------------------*\
  =========                 |
  \\      /  F ield         | OpenFOAM: The Open Source CFD Toolbox
   \\    /   O peration     | Website:  https://openfoam.org
    \\  /    A nd           | Version:  7
     \\/     M anipulation  |
\*---------------------------------------------------------------------------*/
FoamFile
{
    version     2.0;
    format      ascii;
    class       volScalarField;
    location    "0.15/fluid";
    object      p;
}
// * * * * * * * * * * * * * * * * * * * * * * * * * * * * * * * * * * * * * //

dimensions      [1 -1 -2 0 0 0 0];

internalField   nonuniform List<scalar> 
200
(
0.000999999999999999
0.000999999999999999
0.000999999999999999
0.000999999999999999
0.000999999999999999
0.000999999999999999
0.000999999999999998
0.000999999999999997
0.000999999999999997
0.000999999999999999
0.00100000000000001
0.00100000000000008
0.00100000000000052
0.00100000000000307
0.00100000000001809
0.00100000000010656
0.00100000000062716
0.00100000000368684
0.00100000002165019
0.00100000012700819
0.00100000074442463
0.00100000436013081
0.00100002552272271
0.00100014944673852
0.00100086752529978
0.00100545308470165
0.00101546334238793
0.00101882678877074
0.001019179716617
0.00101933580481824
0.00101848449041036
0.00101329994650232
0.00100838705869178
0.00100847300438979
0.00100870000182329
0.00101038799687227
0.00101251363632919
0.00101354570897902
0.00101255065843571
0.00100871755725258
0.00099878517093333
0.000995744089557728
0.000993525420141788
0.000995188991725961
0.00100163512474608
0.00100580470831531
0.0010047607166288
0.00100603392750594
0.00100931228401461
0.00101193812303455
0.00100912141327336
0.00100361625008321
0.00100179193963978
0.000999568689790508
0.000998272730607663
0.000999426017480002
0.00100018423014306
0.000999032719461491
0.000997410844071254
0.000997651005921662
0.000999050481934139
0.00100341794066834
0.00101139183894445
0.00101340297559274
0.00101433743421051
0.00101339958122984
0.00101094468904105
0.00100912001746543
0.00101131275484264
0.00101382212986283
0.00101208924920199
0.00100961062707041
0.00100274574953011
0.000997297189253377
0.000992332530908339
0.000993630792713737
0.000996850660865882
0.00100409163087038
0.00100892023377887
0.00101354491987709
0.00101541329711359
0.00101439436869847
0.00101266317322784
0.00100519013141562
0.000992272559142991
0.000984744317181881
0.000986199379402622
0.000986262830485805
0.000986327925190421
0.000986605062124122
0.000989882151321598
0.000992903881385156
0.000992543698742991
0.000992285461623665
0.000994154188957058
0.000995099517026336
0.000992746426240999
0.000989854224570689
0.000989786732608773
0.000990228541438004
0.000991544827162593
0.00100317753657056
0.00102701314918372
0.00103802044034101
0.00103378533485886
0.0010264135719745
0.00101195297769689
0.00100686525586401
0.000998882111540866
0.000993490040458625
0.000999211967661229
0.00100438680089898
0.000999739652310214
0.000996655618387946
0.00100124582490423
0.00100550664895789
0.00100245402408972
0.00100249517566659
0.00100278057721545
0.00100088508521625
0.000995881430938456
0.000992098433552666
0.000995357268374401
0.000997797753297601
0.00099862970572222
0.00099605682875676
0.000994442912332562
0.000995050440571088
0.000997888264380479
0.00100174389851958
0.00100170325170216
0.00100211315468053
0.00100303133611021
0.00100336426791242
0.00100089556531803
0.000998710898540402
0.00100007823843412
0.0010008362709193
0.00100020089284503
0.000999839832643063
0.00100126862628964
0.00100319251820572
0.00100279558216993
0.00100247737860172
0.00100116447676466
0.000998807185160817
0.000997041674217532
0.000997631910934145
0.000999945089714432
0.00100310359733037
0.00100288413382553
0.00100354774655506
0.00100473090994768
0.00100620945587071
0.00100740381567509
0.00100694752265767
0.00100692011512835
0.00100546059777852
0.00100171510432988
0.000998491081402448
0.000994757566926728
0.00099437796765614
0.000996890315712382
0.00100054629029413
0.00100264593898464
0.0010020659806643
0.00100013908992188
0.00099910148328022
0.000996351399117692
0.000990772420809685
0.000988567849673294
0.000987707833250957
0.000989957379787468
0.00099699174925338
0.00100209576846033
0.000999877571697301
0.000996746973601598
0.000990340895612492
0.000987981232587933
0.000986575890308363
0.000985253125780997
0.000984858968168982
0.00098794558318302
0.000999981314806533
0.00101117528835458
0.00100900108563722
0.00100813070315979
0.00100573202415136
0.00100031233950139
0.000994625944654124
0.000995928645519241
0.000999161437201371
0.00100705272531394
0.00100870448428041
0.00100783780184712
0.00100360989501617
0.00100511363003508
0.00101123812987871
0.00101293087758361
0.001086817718037
)
;

boundaryField
{
    fluidSide
    {
        type            zeroGradient;
    }
    fluidBound
    {
        type            codedFixedValue;
        value           uniform 0.00100344967201737;
        name            HPCFluidP;
    }
    nullDims
    {
        type            empty;
    }
}


// ************************************************************************* //
