/*--------------------------------*- C++ -*----------------------------------*\
  =========                 |
  \\      /  F ield         | OpenFOAM: The Open Source CFD Toolbox
   \\    /   O peration     | Website:  https://openfoam.org
    \\  /    A nd           | Version:  7
     \\/     M anipulation  |
\*---------------------------------------------------------------------------*/
FoamFile
{
    version     2.0;
    format      ascii;
    class       volVectorField;
    location    "0.15/fluid";
    object      U;
}
// * * * * * * * * * * * * * * * * * * * * * * * * * * * * * * * * * * * * * //

dimensions      [0 1 -1 0 0 0 0];

internalField   nonuniform List<vector> 
200
(
(3.60388335417037e-15 0 0)
(3.32861463163864e-15 0 0)
(3.0947494233814e-15 0 0)
(3.02599667584028e-15 0 0)
(3.13360917058069e-15 0 0)
(3.22944246005897e-15 0 0)
(3.70812706723705e-15 0 0)
(4.42215428700994e-15 0 0)
(4.41329107514856e-15 0 0)
(2.82132001371263e-15 0 0)
(-7.33281261948329e-15 0 0)
(-7.11917493550189e-14 0 0)
(-4.44030448527865e-13 0 0)
(-2.64772743341001e-12 0 0)
(-1.56381348093335e-11 0 0)
(-9.21470253383967e-11 0 0)
(-5.42324410760875e-10 0 0)
(-3.18817308076244e-09 0 0)
(-1.87218724968588e-08 0 0)
(-1.09829597096714e-07 0 0)
(-6.43736751284479e-07 0 0)
(-3.77039221353939e-06 0 0)
(-2.20704269208984e-05 0 0)
(-0.000129226318665471 0 0)
(-0.000749955357591172 0 0)
(-0.00470635467618274 0 0)
(-0.0133024568073704 0 0)
(-0.0159809267878528 0 0)
(-0.0168031787806784 0 0)
(-0.0164903742298281 0 0)
(-0.015577466187263 0 0)
(-0.0113791320489482 0 0)
(-0.00803877957936449 0 0)
(-0.00638609530985285 0 0)
(-0.00725758279332587 0 0)
(-0.00966774100178725 0 0)
(-0.0110918946838473 0 0)
(-0.0108806843736767 0 0)
(-0.0105195628210156 0 0)
(-0.00810660647074651 0 0)
(0.000326047143843534 0 0)
(0.00576858178773367 0 0)
(0.00450676084369433 0 0)
(0.00273007852253381 0 0)
(-0.000836289326287468 0 0)
(-0.00276244184983977 0 0)
(-0.00537981584546011 0 0)
(-0.00717575389122774 0 0)
(-0.00692678259427049 0 0)
(-0.0080593988280264 0 0)
(-0.00884571297760013 0 0)
(-0.00541351312620016 0 0)
(8.11022577582171e-05 0 0)
(0.00146435668903174 0 0)
(0.00031764902227116 0 0)
(-0.000454280292097663 0 0)
(0.000717326422673378 0 0)
(0.00201950748170341 0 0)
(0.00122385087913082 0 0)
(0.00120762297666546 0 0)
(0.00132620512953202 0 0)
(-0.00203597995622728 0 0)
(-0.0100055522836297 0 0)
(-0.012986601974068 0 0)
(-0.011622273067958 0 0)
(-0.0100828811273504 0 0)
(-0.0100784747380029 0 0)
(-0.00946014763374346 0 0)
(-0.0091514763789271 0 0)
(-0.0100343077191023 0 0)
(-0.0111596135036014 0 0)
(-0.00981047482814235 0 0)
(-0.0024476612683907 0 0)
(0.00566162927248277 0 0)
(0.00428944497737645 0 0)
(0.00406362484625695 0 0)
(0.00388873677209831 0 0)
(-0.00147538512871036 0 0)
(-0.00978328373722289 0 0)
(-0.0114632778809008 0 0)
(-0.0122396935031299 0 0)
(-0.0129710189000955 0 0)
(-0.0117275128782199 0 0)
(-0.00422655397781636 0 0)
(0.00869524621699993 0 0)
(0.0100054420014657 0 0)
(0.012777554027838 0 0)
(0.0142818581013576 0 0)
(0.0117902106585384 0 0)
(0.0090443856064036 0 0)
(0.0088023371492897 0 0)
(0.00890731180290355 0 0)
(0.00646135101493652 0 0)
(0.00419773405775017 0 0)
(0.00536572737283799 0 0)
(0.00588950411586437 0 0)
(0.00669336772121593 0 0)
(0.00672813148193318 0 0)
(0.00875043568523569 0 0)
(0.0102252149837836 0 0)
(0.00784636035847081 0 0)
(-0.00421958411603347 0 0)
(-0.0247887334859138 0 0)
(-0.0278729666026774 0 0)
(-0.0301296663686336 0 0)
(-0.0260648247456016 0 0)
(-0.0103442889895943 0 0)
(0.000322133428535123 0 0)
(-0.00178029657419068 0 0)
(0.000540952638023403 0 0)
(0.00324869786249319 0 0)
(0.00105216185183259 0 0)
(-0.00247650249760772 0 0)
(-0.000813982043147482 0 0)
(0.000743424875951287 0 0)
(-0.000892316302248176 0 0)
(-0.00430495607716938 0 0)
(-0.00478721185019143 0 0)
(-0.00146402292408662 0 0)
(0.00241606980120385 0 0)
(0.00278874952168835 0 0)
(0.00326594990681925 0 0)
(0.00484095191943874 0 0)
(0.00516083005967682 0 0)
(0.00270607256612092 0 0)
(0.000810821453528653 0 0)
(0.00143475566974426 0 0)
(0.00374426634318561 0 0)
(0.00436756519408609 0 0)
(0.00179535025013238 0 0)
(-0.00249338891104333 0 0)
(-0.00534518670034531 0 0)
(-0.00241607138707615 0 0)
(-0.000205776929341229 0 0)
(-0.000624186196209816 0 0)
(-0.00105718441599756 0 0)
(-7.85027325719975e-05 0 0)
(0.000570004996420339 0 0)
(5.65206460213679e-07 0 0)
(-0.000646390272831926 0 0)
(-0.00160978979051745 0 0)
(-0.00169782543113211 0 0)
(-0.0024564910344125 0 0)
(-0.00264608203395632 0 0)
(-0.00121691283647492 0 0)
(0.00194645159945557 0 0)
(0.00191423114242815 0 0)
(0.00179182981982469 0 0)
(0.000437744801463674 0 0)
(-0.00198244428673189 0 0)
(-0.0037406514936624 0 0)
(-0.00351611193462138 0 0)
(-0.00310482533944456 0 0)
(-0.00398807397254578 0 0)
(-0.00563769606559563 0 0)
(-0.00756519027185098 0 0)
(-0.00806502406551411 0 0)
(-0.00565309200026849 0 0)
(0.000364159989313299 0 0)
(0.00457147927353978 0 0)
(0.00270674667332321 0 0)
(0.00245244298209813 0 0)
(0.00151481023234855 0 0)
(0.00125169779450733 0 0)
(0.000950446655613737 0 0)
(-0.000740145234960827 0 0)
(-0.00248937901052848 0 0)
(-0.00146534810441417 0 0)
(0.00278351624330378 0 0)
(0.00993109181360889 0 0)
(0.0118885765528893 0 0)
(0.00993863681161119 0 0)
(0.00654866369121596 0 0)
(0.00171890689299738 0 0)
(0.00135074319317799 0 0)
(0.000237785946354947 0 0)
(0.00105620093332088 0 0)
(0.00738943662523424 0 0)
(0.0122972943794731 0 0)
(0.0129126639766614 0 0)
(0.0121600246446239 0 0)
(0.0116181237121068 0 0)
(0.00942609559539394 0 0)
(0.000941563062485595 0 0)
(-0.00587592957953882 0 0)
(-0.0110980160671718 0 0)
(-0.00908290896108073 0 0)
(-0.00338309602885253 0 0)
(0.00335857124672347 0 0)
(0.00177112144725294 0 0)
(0.00203358363475724 0 0)
(0.0018444970141289 0 0)
(-0.00425398803361327 0 0)
(-0.00848616534219028 0 0)
(-0.00803775823382991 0 0)
(-0.00439417296951347 0 0)
(-0.00225576529311826 0 0)
(-0.00769336811242539 0 0)
(-0.0132585432167526 0 0)
(0.0528670770998268 0 0)
)
;

boundaryField
{
    fluidSide
    {
        type            zeroGradient;
    }
    fluidBound
    {
        type            codedFixedValue;
        value           uniform (-0.0159152412818609 0.00462541890610223 -0.007925196713073);
        name            HPCFluidU;
    }
    nullDims
    {
        type            empty;
    }
}


// ************************************************************************* //
