/*--------------------------------*- C++ -*----------------------------------*\
  =========                 |
  \\      /  F ield         | OpenFOAM: The Open Source CFD Toolbox
   \\    /   O peration     | Website:  https://openfoam.org
    \\  /    A nd           | Version:  7
     \\/     M anipulation  |
\*---------------------------------------------------------------------------*/
FoamFile
{
    version     2.0;
    format      ascii;
    class       scalarField;
    location    "0.0075/lagrangian/dsmc";
    object      Ei;
}
// * * * * * * * * * * * * * * * * * * * * * * * * * * * * * * * * * * * * * //


302707
(
1.60619e-21
1.36991e-21
5.34955e-22
1.75397e-21
2.27517e-22
3.64989e-23
9.70376e-22
1.65318e-21
2.23698e-21
1.80821e-21
2.01605e-21
3.52424e-22
5.0024e-22
3.41322e-21
3.32937e-21
1.03578e-21
5.55046e-22
1.13174e-21
1.15733e-21
2.0713e-21
5.14316e-22
3.47778e-21
1.54397e-21
2.7592e-21
4.18854e-21
2.04642e-22
1.38472e-21
4.10224e-22
1.30103e-22
1.11242e-21
3.63421e-21
7.0976e-22
1.52834e-21
8.09421e-23
4.22628e-21
7.6427e-22
6.26907e-23
4.55315e-21
6.05934e-22
7.02956e-22
2.10974e-22
3.01912e-23
1.20851e-21
9.5385e-23
3.91125e-22
4.38641e-21
1.59259e-21
2.55609e-22
1.20839e-21
9.30371e-23
3.8388e-22
6.09959e-22
1.07506e-21
2.0532e-21
2.00176e-21
1.61928e-21
3.94353e-23
1.34619e-23
1.02391e-23
1.36426e-21
5.6289e-22
1.38944e-21
7.29825e-22
1.21481e-21
6.17655e-23
2.02888e-21
1.73446e-21
2.25221e-21
7.95139e-22
3.04543e-21
9.86414e-22
3.78643e-21
5.20178e-21
1.18594e-21
9.42721e-22
2.77894e-21
4.34136e-21
5.2615e-22
3.05722e-21
6.58256e-22
3.22603e-21
4.45664e-22
8.67589e-21
3.89609e-21
3.34331e-21
5.55807e-22
1.86389e-21
1.52877e-22
1.09844e-21
3.54497e-22
1.07e-22
1.42982e-21
2.94737e-21
6.84428e-22
1.89872e-21
4.88226e-21
9.20407e-22
3.57853e-21
2.46752e-21
1.08632e-21
2.17011e-21
9.59652e-22
3.07807e-21
1.34889e-21
3.45617e-22
1.51164e-21
2.92693e-22
1.18512e-21
9.94395e-22
3.04024e-22
2.03298e-21
3.97129e-21
7.88044e-22
1.86177e-21
2.12622e-22
1.07931e-21
2.24918e-21
9.71499e-22
1.21497e-22
1.03149e-21
7.00501e-23
6.36197e-21
1.43451e-21
3.98262e-21
1.11261e-21
3.36435e-21
1.67998e-22
2.29091e-22
3.00216e-22
6.63119e-22
6.86355e-22
3.75648e-22
2.28299e-21
1.21936e-22
7.24818e-22
2.87974e-21
5.55127e-22
1.04203e-21
1.24674e-21
9.0833e-22
3.54721e-21
1.39658e-21
8.36749e-22
2.39279e-21
8.72607e-22
3.41407e-21
9.39577e-22
4.44579e-21
7.61044e-22
2.71874e-21
2.63103e-21
3.2317e-21
5.10609e-21
3.55539e-22
3.79818e-22
3.04015e-21
8.64863e-22
2.86131e-21
2.50765e-21
6.85225e-22
7.22847e-23
1.5483e-22
2.80586e-23
2.36791e-21
1.29726e-21
1.275e-21
1.00052e-21
1.29999e-21
2.14801e-21
5.0346e-23
4.22611e-22
3.44863e-22
2.22605e-21
9.78683e-22
5.20964e-22
1.27415e-21
1.72405e-21
1.87331e-22
4.88558e-22
1.85448e-22
5.86392e-22
1.16668e-21
4.93128e-21
1.13835e-21
1.20344e-22
1.82007e-21
6.42305e-23
7.65371e-21
3.4321e-21
3.39197e-22
3.65392e-21
2.81207e-21
3.05964e-21
8.65634e-22
5.25305e-21
1.24753e-22
1.43477e-21
8.18394e-22
1.17703e-21
1.7022e-21
2.76528e-21
2.23132e-21
9.00678e-23
1.577e-21
2.45047e-21
4.4083e-22
3.84032e-22
1.85955e-21
6.58416e-22
4.96331e-21
6.59983e-23
1.81879e-21
3.36547e-22
1.59462e-21
5.40074e-22
5.29155e-22
1.38633e-22
3.22456e-22
2.99245e-21
5.56814e-21
3.70723e-22
9.81465e-22
5.34233e-22
3.33139e-21
8.32487e-22
1.45399e-21
1.76828e-22
1.68122e-21
7.86804e-22
3.81901e-22
2.12476e-21
2.14674e-23
9.81422e-22
4.07569e-21
9.50269e-22
3.61642e-21
1.28759e-22
5.15901e-21
3.61749e-22
2.12306e-21
6.94397e-22
6.20265e-22
1.90988e-21
2.11707e-21
3.86738e-21
1.49223e-21
9.07837e-22
6.10276e-21
9.65341e-22
3.10515e-22
2.79925e-21
2.29366e-22
3.76368e-21
5.63436e-22
5.82895e-22
1.65945e-21
1.5926e-21
4.02793e-22
1.74196e-22
7.96011e-22
8.38961e-22
4.84488e-21
1.0307e-21
1.33932e-21
1.85667e-21
1.21045e-21
1.43191e-21
9.55996e-23
1.81342e-21
2.35065e-21
3.26436e-22
9.5001e-22
1.45389e-22
3.91856e-22
3.49665e-21
3.29169e-22
4.26441e-21
1.58126e-21
5.51412e-21
6.41391e-22
1.11078e-21
5.69464e-22
1.47987e-22
5.20679e-21
1.00878e-21
8.65484e-22
1.14751e-21
5.59881e-22
2.11473e-21
2.06785e-21
1.78316e-21
4.86107e-22
7.3053e-22
4.01479e-21
1.148e-21
2.54636e-21
6.75325e-23
2.99689e-21
2.28712e-21
1.1712e-21
2.07393e-21
2.31118e-21
2.2612e-22
2.61133e-22
5.92893e-21
1.3865e-21
2.40147e-21
2.78247e-21
8.29658e-22
3.5096e-22
2.74106e-22
5.1117e-22
5.86517e-21
3.81954e-23
6.914e-22
4.89709e-22
1.25256e-22
6.42438e-21
3.56222e-21
3.14171e-21
2.61475e-21
1.90931e-21
1.05191e-21
8.64672e-22
1.82835e-21
5.66849e-22
6.01238e-22
4.93477e-22
1.29935e-21
2.6798e-22
2.68118e-22
4.14134e-21
3.88139e-21
1.41836e-21
1.68117e-21
5.91758e-21
4.14574e-21
1.57227e-21
9.50593e-23
4.06188e-22
6.19073e-21
3.11021e-22
1.16525e-21
2.35496e-21
6.50073e-21
6.69239e-22
5.09446e-21
9.81252e-22
6.11616e-22
6.99674e-22
2.64436e-22
1.80772e-21
4.98037e-23
4.91425e-22
1.24302e-22
1.74595e-21
5.16795e-22
1.65984e-21
7.05441e-22
7.43952e-22
5.67972e-21
5.86831e-22
2.34329e-22
2.44669e-22
1.9496e-21
1.0391e-21
4.90626e-22
1.51854e-21
1.45298e-22
9.62678e-22
1.35524e-21
2.31328e-22
5.83736e-21
1.16208e-21
4.63518e-22
1.29063e-21
5.06068e-21
2.50497e-23
1.28331e-21
1.59437e-21
7.00404e-22
2.33162e-21
3.35138e-22
1.2389e-22
5.88469e-21
3.95798e-22
3.25835e-22
1.76518e-21
4.88653e-23
9.85893e-22
3.23631e-21
6.14449e-22
2.04784e-21
3.42723e-21
2.89512e-22
1.96328e-21
3.74603e-22
5.75359e-22
3.28324e-21
9.88456e-22
9.52872e-22
4.99787e-21
3.63498e-21
2.67829e-22
1.06395e-21
7.53219e-22
2.81783e-21
1.7188e-21
3.40234e-22
1.21368e-21
1.69594e-21
1.13116e-21
1.73104e-21
4.30353e-22
1.5274e-21
3.37158e-23
9.93015e-22
2.97725e-21
3.00113e-22
3.31808e-22
1.72983e-21
9.42573e-22
1.40505e-22
2.29026e-21
1.30764e-21
3.6904e-22
1.46934e-21
3.05855e-21
2.6476e-21
4.66646e-22
3.80659e-22
1.31473e-22
1.68493e-21
5.79163e-21
1.3631e-21
5.31322e-21
1.58865e-21
2.65345e-21
7.106e-22
1.21796e-21
1.95403e-21
4.32447e-21
9.41986e-21
2.15334e-21
5.25096e-21
2.91632e-22
6.18439e-22
3.49837e-21
1.98531e-22
9.32446e-22
1.13941e-21
7.16665e-22
4.38459e-21
4.94013e-23
1.78297e-21
2.99216e-23
7.10258e-22
4.47112e-22
3.63689e-22
2.09953e-22
5.15474e-21
4.08372e-22
3.03603e-21
1.04797e-21
5.5235e-22
2.61757e-22
3.32851e-21
1.27819e-21
1.13645e-21
1.39234e-21
1.08186e-21
1.13775e-21
2.33127e-22
2.04452e-22
3.79954e-21
2.82429e-21
2.99245e-21
5.21042e-22
3.28968e-22
4.71285e-22
1.511e-23
1.86938e-21
1.51008e-21
3.34056e-23
9.1338e-22
1.44129e-21
3.16329e-21
6.21285e-21
3.45461e-21
1.01136e-21
5.64588e-21
7.73999e-22
3.59163e-21
2.63726e-21
1.38821e-21
1.51528e-21
1.15678e-21
2.84214e-21
3.8722e-21
7.23357e-22
1.98758e-21
3.22052e-21
1.69223e-21
1.28132e-21
7.2357e-22
5.59787e-21
1.37192e-21
1.70022e-22
2.4172e-22
3.57823e-21
1.84236e-22
2.85299e-21
2.94486e-21
7.77606e-22
2.5077e-21
3.79992e-21
1.14903e-21
1.62869e-21
1.24648e-21
1.94056e-21
9.43219e-22
2.21523e-21
3.17071e-22
1.92583e-21
5.40939e-22
1.1702e-21
1.89086e-22
3.10286e-22
7.91243e-22
9.43873e-25
1.15289e-22
1.43257e-21
3.06307e-22
6.99794e-22
2.39699e-21
4.38087e-22
2.77748e-21
2.43768e-21
1.81424e-21
3.87171e-21
1.57448e-21
8.59086e-22
2.42924e-21
6.40939e-22
1.48278e-21
4.86775e-23
6.40927e-22
8.12745e-22
1.00449e-21
1.46804e-22
1.27475e-21
6.46889e-21
2.45729e-21
2.07358e-21
3.86763e-21
3.36442e-21
4.65839e-23
1.15476e-21
8.074e-22
2.41645e-21
6.54061e-22
9.57921e-22
1.20689e-21
1.37464e-21
9.03079e-22
2.37768e-22
3.03765e-21
2.33244e-22
6.42206e-23
4.18408e-21
3.62423e-21
2.98101e-22
3.20671e-22
2.11143e-21
1.41809e-21
2.99956e-21
2.46121e-21
1.84814e-21
1.26345e-21
1.44441e-21
2.81304e-21
3.45277e-22
1.03751e-21
1.17456e-22
4.13887e-22
1.54668e-21
3.1966e-22
1.85887e-21
1.44638e-21
5.67866e-21
3.39271e-21
7.42653e-21
1.05939e-21
1.16457e-21
1.47636e-21
1.55863e-21
4.16108e-22
1.68578e-22
2.15344e-21
4.6686e-21
2.88469e-21
4.04487e-22
1.59085e-22
3.73488e-22
1.1179e-21
8.2481e-22
1.03115e-21
3.10915e-21
3.06688e-21
2.8843e-22
4.80706e-22
1.92579e-21
5.42231e-21
2.69508e-22
2.2908e-22
1.13611e-22
1.97971e-23
5.42738e-22
2.25571e-21
4.27958e-21
1.7008e-21
1.64605e-21
1.32584e-23
2.03559e-22
2.84266e-21
3.50817e-22
1.31174e-21
6.59827e-22
2.19813e-21
1.08647e-22
2.47507e-22
4.53339e-22
1.38635e-21
4.62081e-21
2.02291e-21
1.27821e-21
1.60911e-21
1.57458e-21
7.62037e-21
1.39818e-21
9.73629e-22
7.56353e-22
2.46701e-21
7.03524e-22
4.55554e-21
7.68222e-22
9.64676e-22
3.93405e-21
1.55656e-21
9.23314e-22
2.01158e-21
2.40656e-21
2.82161e-22
5.75203e-21
1.03642e-21
8.22089e-22
2.54129e-21
4.97115e-21
4.80918e-21
1.76922e-22
2.73331e-21
2.04382e-21
1.60742e-22
8.04512e-22
7.02701e-22
3.1535e-21
1.09975e-21
5.05412e-22
1.92539e-22
7.99591e-22
6.79028e-22
4.7761e-21
2.03944e-21
1.16234e-21
4.5425e-21
3.86533e-21
2.31542e-21
2.4915e-21
3.61252e-21
3.656e-21
3.85487e-21
9.72011e-22
5.32572e-22
8.94591e-23
7.11738e-22
2.76918e-21
2.17802e-21
7.35504e-22
1.53083e-21
3.0154e-21
7.73162e-22
1.81137e-21
3.43898e-22
1.18184e-21
1.35981e-21
1.46404e-22
5.02337e-22
1.76594e-22
7.07664e-22
5.05608e-21
4.34967e-21
2.97854e-21
6.98117e-22
1.93999e-21
8.32444e-22
4.33319e-23
3.60829e-21
8.69991e-22
1.06095e-21
1.782e-22
1.77456e-21
1.54588e-22
6.3008e-22
9.85188e-24
3.12746e-21
3.00525e-21
5.62184e-21
2.7829e-22
4.22062e-22
1.89327e-21
1.43595e-21
2.09034e-21
9.63904e-22
2.0079e-21
8.3117e-22
1.61182e-22
7.9818e-22
1.84731e-21
2.31781e-21
3.71873e-22
5.56982e-23
7.49556e-22
1.88606e-21
8.55307e-22
3.38524e-21
2.52117e-21
5.13964e-22
3.73951e-21
2.87232e-21
1.03293e-21
3.42973e-21
2.76809e-21
4.56806e-22
2.21482e-21
1.63952e-21
2.3479e-22
2.9821e-21
1.03713e-21
1.26035e-21
5.31406e-25
4.40487e-21
5.77521e-22
5.35917e-22
2.30756e-22
1.74822e-22
5.49227e-22
5.50575e-22
4.78285e-21
1.59333e-21
3.57337e-22
4.06856e-21
6.59275e-22
9.38321e-22
1.63312e-21
5.2924e-22
3.9803e-21
2.36036e-21
1.00024e-21
3.61966e-22
1.46426e-21
2.66034e-21
6.69527e-22
3.62098e-21
2.83775e-22
2.45022e-22
1.96295e-22
1.60855e-21
1.95428e-21
1.18727e-21
3.64623e-21
3.06195e-21
5.02613e-21
6.95028e-22
1.73991e-21
1.32576e-21
9.06703e-22
3.12536e-21
2.078e-21
6.42162e-22
7.95581e-22
3.325e-21
1.49524e-21
6.92235e-22
1.12582e-21
1.14562e-22
3.11142e-21
4.08805e-22
5.30047e-22
2.34215e-21
1.59072e-21
3.64856e-21
3.01454e-22
1.31129e-21
7.74438e-22
2.04962e-21
2.06446e-22
1.45392e-21
6.73532e-22
3.07307e-21
3.5902e-23
9.61048e-22
1.69222e-21
2.43322e-21
9.07316e-22
2.41483e-21
1.38512e-21
1.88595e-21
1.04967e-22
2.23819e-22
8.3589e-23
3.10607e-21
1.6181e-21
3.70793e-21
9.42639e-22
2.40896e-21
4.72932e-22
2.83515e-22
7.66219e-22
4.74223e-22
1.96894e-21
1.62953e-21
2.19099e-21
2.87139e-22
4.16861e-22
1.31517e-21
1.62044e-21
4.64071e-22
3.26091e-21
1.51896e-21
3.58362e-21
2.78621e-21
1.51672e-21
3.42862e-21
2.80103e-21
5.04049e-22
3.35741e-23
7.04241e-22
5.27849e-21
5.34328e-22
6.00924e-22
1.04886e-21
1.97959e-21
1.40626e-21
1.61234e-21
2.97326e-21
4.15083e-21
1.30638e-24
8.1925e-22
3.41256e-22
3.34131e-21
7.19739e-21
1.26042e-21
1.31459e-21
2.06735e-21
1.47326e-21
2.81044e-21
1.03686e-21
3.30772e-22
5.39804e-22
1.89316e-21
7.15168e-22
4.74662e-21
1.84144e-22
6.18636e-22
2.60342e-21
4.17699e-21
2.52951e-22
4.70156e-23
1.63823e-21
2.31992e-22
1.50481e-21
3.5167e-21
4.66081e-21
3.54508e-22
5.16298e-22
2.32662e-22
9.59289e-22
1.56433e-22
1.02989e-21
9.33981e-22
1.19513e-21
1.2779e-21
2.9055e-22
5.54677e-22
8.08531e-23
1.10593e-21
2.93042e-21
2.90532e-21
2.44429e-21
1.38016e-21
9.36291e-23
3.84101e-21
3.43131e-23
2.83685e-21
4.51947e-21
2.76463e-22
1.44754e-21
2.48158e-21
7.93195e-22
1.21989e-21
5.56936e-22
9.08856e-24
4.44859e-21
1.17518e-21
1.31102e-21
1.30754e-21
1.06187e-21
3.99944e-22
6.54738e-22
4.18672e-21
4.35189e-22
8.80354e-22
2.74301e-21
6.8257e-22
5.68678e-22
1.0613e-21
1.48731e-22
2.95479e-21
1.38681e-21
5.12023e-22
1.55654e-22
6.0032e-24
1.19328e-21
2.82023e-21
2.9747e-21
2.60767e-21
2.06412e-21
8.23379e-22
1.37891e-21
2.04682e-24
9.86603e-22
6.00576e-21
2.56277e-22
6.37017e-22
2.53855e-21
1.79695e-21
2.12114e-22
2.90891e-21
9.98857e-22
2.60494e-21
4.67711e-22
7.63379e-22
6.9088e-22
7.98228e-22
3.23953e-22
1.02266e-21
7.42255e-22
5.11895e-22
2.53475e-21
6.4422e-21
1.74536e-21
3.35705e-21
4.0463e-21
2.19845e-21
2.38889e-21
2.78508e-21
4.68675e-21
3.76645e-21
4.91423e-22
2.12897e-22
5.778e-23
3.1555e-21
2.7068e-21
1.52341e-21
9.18871e-22
1.20224e-21
2.00755e-21
3.18641e-21
3.18322e-22
6.81419e-22
1.58681e-22
1.93553e-22
1.82282e-21
5.24353e-23
1.0756e-21
2.34033e-22
2.49367e-21
4.09142e-22
3.80758e-21
4.42534e-22
4.54544e-21
2.67647e-21
1.12763e-21
2.25683e-21
2.24653e-23
1.57735e-22
5.2121e-21
1.41584e-21
2.51812e-21
1.48695e-22
4.11036e-23
4.01607e-21
1.93118e-21
3.05e-21
2.9222e-21
1.52864e-21
6.27006e-22
1.46673e-21
4.97595e-22
1.15937e-21
4.5356e-21
3.10238e-21
2.26734e-21
1.13121e-21
2.51531e-21
2.74528e-21
4.4621e-21
8.83932e-22
1.81853e-21
8.01809e-24
1.26556e-21
7.25901e-22
2.09202e-21
4.80866e-21
3.57703e-21
2.20572e-21
4.71359e-22
4.60654e-22
1.55757e-21
1.65457e-21
1.9429e-22
1.83063e-21
2.19491e-21
3.09167e-21
2.77812e-21
4.58405e-22
3.43381e-22
3.50748e-23
1.09565e-20
7.95702e-22
2.85498e-22
5.34736e-22
3.64927e-22
2.93612e-22
8.53418e-22
3.94672e-21
1.01067e-21
2.10885e-21
9.42853e-22
6.19714e-23
1.24466e-21
6.89517e-22
7.84505e-22
1.30092e-21
8.67274e-22
1.30771e-21
7.7717e-23
1.49541e-21
1.53856e-22
8.98015e-22
1.05572e-21
1.97387e-21
6.1617e-22
3.52564e-21
1.48803e-23
2.8592e-22
4.48135e-21
2.75442e-23
3.42727e-21
3.01881e-21
3.09788e-21
3.21497e-21
1.46233e-20
2.2979e-21
2.66972e-21
3.69763e-21
9.85117e-22
4.36029e-22
2.97417e-21
4.18486e-22
5.02221e-21
7.62529e-22
6.9294e-21
2.91661e-22
1.98417e-21
5.81534e-22
3.23518e-21
1.50836e-23
3.57818e-22
3.24728e-21
9.80185e-22
1.93502e-22
2.1373e-21
1.51762e-21
1.02126e-21
9.34255e-22
1.04078e-21
8.9529e-22
1.45421e-21
4.07377e-22
8.28857e-22
5.97244e-21
3.16851e-21
9.81191e-22
5.8359e-22
2.39115e-21
2.07878e-21
1.6713e-22
3.4347e-21
1.56332e-21
2.33478e-21
1.94407e-21
5.02969e-22
1.09525e-21
5.55193e-22
5.52415e-21
1.3974e-21
6.66154e-22
1.23191e-21
1.9365e-22
1.23335e-21
2.49124e-21
2.46925e-21
9.24826e-22
5.39704e-22
1.62637e-22
1.50308e-21
1.03081e-21
4.6357e-22
4.05089e-21
4.82062e-22
3.48131e-22
1.14311e-21
1.29953e-21
1.23114e-21
1.37151e-21
6.64809e-23
4.49405e-22
1.40701e-21
1.41036e-21
3.57614e-21
1.09894e-22
6.34546e-21
1.76503e-21
2.24373e-21
1.68329e-22
3.31703e-21
6.89609e-22
2.75709e-21
3.94291e-21
2.47371e-21
2.35876e-21
2.744e-21
1.49057e-21
2.70512e-22
5.23965e-24
1.12745e-21
9.53092e-22
4.17327e-21
4.10004e-22
8.60472e-22
6.66436e-22
3.40032e-21
4.07657e-22
5.97225e-22
2.46437e-21
3.86883e-21
3.28224e-22
1.42019e-21
4.25706e-21
6.44204e-21
1.60521e-21
2.02721e-21
9.58049e-22
3.28167e-21
2.70078e-21
3.10796e-21
5.97933e-21
1.32897e-21
5.30069e-21
2.82816e-21
7.90453e-22
1.03612e-22
1.05887e-21
3.56596e-21
5.67291e-22
4.76442e-21
4.13985e-22
4.55112e-21
2.31933e-21
1.29846e-21
4.7179e-22
2.89086e-21
5.40967e-22
4.70681e-22
4.06891e-21
1.46537e-21
2.60088e-21
2.36489e-22
1.01716e-21
8.05564e-22
6.1815e-22
1.61502e-21
3.41969e-21
6.26344e-21
2.35458e-22
2.59805e-22
1.41281e-21
5.35916e-22
9.05946e-22
1.02989e-21
1.09521e-22
1.48357e-22
2.20219e-21
2.49938e-22
6.76652e-23
3.21184e-21
1.43302e-21
1.86882e-21
4.24525e-21
1.05024e-22
7.12781e-23
1.74267e-21
2.45007e-21
2.56448e-21
1.55733e-21
4.1e-21
6.2098e-22
2.07579e-22
5.90817e-21
4.53202e-22
1.83383e-21
3.61053e-21
5.39714e-21
1.60783e-21
2.87016e-22
6.35491e-23
1.67769e-21
9.56796e-22
3.98906e-21
1.7677e-23
3.75809e-21
2.75481e-21
1.53612e-21
3.24078e-23
2.44561e-21
2.78406e-22
3.84862e-22
1.2789e-21
1.48305e-21
5.61148e-22
3.23616e-21
7.81555e-22
9.79706e-21
1.48206e-21
3.04541e-21
2.92956e-21
8.42707e-22
1.52747e-21
9.74428e-22
2.80107e-21
3.86655e-22
1.65762e-21
8.57446e-22
2.24018e-21
1.00632e-21
6.70835e-23
3.36526e-21
5.26095e-22
6.77794e-22
3.05822e-21
9.84727e-23
1.28515e-21
3.07259e-21
3.71914e-21
2.43898e-23
2.99132e-21
3.74785e-22
3.71927e-21
1.1268e-21
1.24098e-21
1.76945e-21
1.79331e-22
7.99602e-22
6.2609e-22
1.38717e-21
3.74944e-21
2.43609e-21
1.0004e-21
1.518e-21
1.81445e-21
7.84889e-22
3.62765e-22
1.09382e-21
9.41872e-23
3.25538e-21
9.64442e-22
4.88921e-21
7.32748e-22
3.08088e-23
1.5064e-21
6.37628e-22
1.24255e-21
1.31792e-22
2.19807e-21
2.23925e-21
1.00059e-21
1.79522e-21
1.59694e-21
4.30368e-23
1.09195e-21
1.28772e-21
1.6163e-22
2.2745e-21
1.81913e-21
6.11918e-23
2.11799e-21
5.87163e-21
9.10664e-22
4.68077e-21
1.10118e-21
1.61596e-21
1.53366e-21
4.8613e-22
6.38338e-21
7.71909e-22
6.10534e-22
8.50003e-22
2.19374e-21
5.83479e-22
1.50593e-21
3.89196e-21
7.34907e-22
2.49297e-23
1.21899e-21
7.1449e-23
2.64487e-22
3.13027e-21
1.88893e-21
1.82047e-22
4.50514e-21
1.14602e-21
1.13172e-21
1.05158e-21
1.97634e-21
7.0724e-22
1.57574e-21
8.73693e-22
5.47924e-22
5.81465e-22
1.4826e-22
9.50677e-22
5.31625e-22
2.55763e-22
9.3457e-22
4.97606e-22
9.77296e-22
2.53982e-21
3.86067e-22
1.98803e-21
1.24016e-21
1.50318e-21
5.44515e-22
1.75681e-21
2.00417e-21
3.34732e-21
1.7804e-21
1.8816e-21
8.35683e-22
2.01225e-22
1.3776e-21
4.80853e-24
2.59602e-21
2.79982e-21
3.91698e-22
2.06507e-21
2.30694e-21
1.63756e-21
1.28036e-21
1.35864e-21
3.28274e-21
2.40614e-21
1.60855e-21
1.59119e-21
2.38267e-21
4.34393e-21
6.2271e-23
5.20483e-21
4.15691e-21
5.31223e-21
2.82989e-22
3.05771e-22
2.28118e-21
4.81843e-22
2.21591e-21
2.90324e-21
1.63273e-21
4.73339e-21
1.62639e-22
1.00578e-21
3.07717e-21
1.09254e-21
1.50584e-21
6.60617e-22
1.89098e-22
1.23057e-21
3.26704e-21
3.78408e-21
3.7194e-22
2.89818e-21
1.10413e-21
2.07575e-21
1.12091e-21
3.10175e-21
2.89633e-21
5.46626e-21
3.49226e-22
2.02391e-22
1.09935e-22
1.62908e-21
1.34821e-22
8.1996e-21
1.80481e-21
5.13051e-22
5.81947e-22
6.08653e-22
5.21342e-22
5.1948e-21
4.59104e-21
1.60659e-21
3.96661e-22
6.79729e-21
1.05143e-21
1.93074e-22
5.32858e-21
1.55994e-21
2.46971e-21
4.26285e-22
3.18763e-21
1.07883e-21
3.06338e-23
1.30056e-21
2.22401e-22
1.22504e-23
9.7016e-22
3.9951e-22
1.79242e-21
1.28132e-22
7.31826e-21
1.16826e-21
8.33084e-22
6.47196e-21
4.74756e-22
1.6749e-21
1.13221e-21
1.50539e-21
8.74041e-21
7.06519e-22
3.63984e-22
5.84131e-23
3.54131e-21
1.02316e-22
1.21085e-22
1.9622e-22
3.30202e-21
6.84715e-22
1.6409e-21
8.21819e-22
3.32871e-21
4.38513e-21
2.34922e-21
6.29779e-21
7.1739e-22
3.24971e-21
2.40615e-21
5.36116e-22
4.43903e-21
3.28783e-22
1.16412e-21
4.87166e-22
4.81244e-21
1.38151e-23
2.06211e-22
1.8792e-21
1.14121e-21
2.05502e-21
6.20372e-23
7.49588e-22
7.21983e-22
5.72619e-21
1.61813e-21
1.5568e-22
2.9293e-22
6.07106e-22
6.22289e-22
1.42227e-21
2.976e-21
1.14438e-21
1.24484e-21
3.54704e-21
4.66067e-22
5.26299e-22
4.62513e-22
4.83382e-21
1.23022e-21
6.5439e-21
1.37813e-21
8.33741e-22
1.13186e-21
3.51951e-22
7.57718e-22
3.03444e-21
2.59999e-21
2.84969e-22
3.7473e-22
2.24461e-21
1.01164e-21
1.54703e-21
1.18754e-21
3.50183e-21
5.49615e-21
5.71713e-21
5.16134e-21
1.31559e-22
4.63725e-22
1.76529e-21
3.34575e-21
1.36781e-21
1.57644e-23
8.02614e-22
1.15798e-21
1.36209e-21
1.3418e-21
8.51993e-23
1.90588e-21
2.06113e-21
6.2369e-21
2.88471e-22
1.65304e-22
4.57974e-22
1.75917e-21
2.87826e-21
7.89548e-22
5.74055e-22
1.0193e-22
3.86469e-21
1.26632e-21
1.71306e-22
5.33437e-21
9.88914e-24
2.98734e-21
4.97508e-21
2.21175e-21
7.28676e-22
1.20069e-21
1.32488e-21
8.36276e-21
4.6631e-22
2.35444e-21
5.3054e-22
8.62318e-22
5.40049e-23
8.74342e-22
5.02554e-21
1.88004e-21
2.7283e-22
1.44327e-22
4.11696e-22
2.66527e-21
8.02503e-22
3.21999e-22
1.03854e-21
1.2666e-21
3.23438e-21
1.43023e-21
3.54254e-21
2.54824e-22
2.24297e-21
6.18782e-21
1.38582e-22
6.63967e-22
1.58419e-21
2.8274e-21
6.40745e-22
2.32154e-21
4.30349e-22
1.60146e-21
8.16629e-23
7.25792e-22
1.30906e-21
1.9117e-22
5.80117e-22
1.71319e-21
6.17526e-23
7.62117e-23
2.56657e-21
1.30456e-21
2.76507e-21
4.33704e-22
7.72975e-22
4.46768e-22
3.6239e-22
3.73319e-22
1.76821e-21
3.79779e-21
1.52635e-21
2.841e-21
1.89416e-21
3.80727e-21
2.41529e-22
2.16636e-21
2.6467e-21
2.2829e-21
1.29539e-21
6.96039e-22
2.06416e-21
1.03337e-21
3.41504e-22
7.87249e-21
4.85122e-21
7.81608e-21
8.11442e-22
3.13744e-21
1.07618e-21
1.60808e-21
1.23025e-21
1.45229e-21
4.10706e-22
5.66228e-21
3.57089e-21
1.04994e-21
6.63444e-21
2.81149e-21
1.05362e-22
7.62102e-21
8.06354e-22
9.28438e-22
3.10589e-22
8.20023e-22
1.33115e-21
1.80759e-21
3.58927e-21
4.94019e-21
4.8168e-21
5.10341e-22
2.50092e-21
2.07633e-21
3.31956e-21
1.03584e-21
2.76402e-21
4.38313e-22
4.09578e-21
2.88695e-21
1.68234e-22
1.07352e-21
1.6948e-22
2.61077e-21
1.76794e-21
2.24688e-21
4.60214e-21
4.82471e-21
5.92954e-22
2.38769e-22
1.76872e-21
1.39306e-21
5.28953e-21
6.52539e-21
2.18354e-21
5.07401e-22
5.08993e-22
4.70156e-21
4.63081e-22
6.56366e-22
7.38978e-22
7.98847e-22
5.32022e-22
1.29088e-21
1.2378e-22
5.76276e-22
2.32417e-22
1.62049e-21
3.3882e-22
9.97026e-22
9.78115e-23
1.6398e-22
1.77258e-21
9.15545e-22
1.22529e-21
1.72192e-21
4.79205e-22
2.77744e-22
6.68976e-21
9.1933e-22
4.78865e-21
1.20151e-21
6.34963e-22
1.48745e-21
5.41635e-22
3.41501e-21
1.6574e-21
1.55561e-21
1.60232e-21
1.23486e-22
2.77561e-21
9.22079e-22
1.53096e-21
1.49445e-22
2.20247e-21
8.14897e-23
2.08797e-21
3.89094e-21
7.05996e-22
9.64259e-22
1.70768e-21
6.6522e-22
2.62027e-22
3.80918e-23
2.36833e-21
8.52924e-21
3.18933e-21
2.16465e-21
2.08219e-21
1.52226e-21
1.30186e-21
6.4813e-22
1.1716e-21
5.5663e-22
3.03105e-21
5.72158e-23
6.48954e-22
8.91815e-23
1.2388e-21
9.43281e-22
3.35058e-21
2.24385e-21
1.02426e-21
1.35612e-21
9.16706e-22
1.09029e-21
3.1012e-21
1.78932e-21
2.06107e-22
1.5867e-22
2.19907e-22
2.01971e-21
1.18284e-21
3.34194e-21
4.81149e-21
1.04933e-21
3.20937e-21
8.10078e-23
6.53362e-22
9.57307e-22
3.86281e-21
3.00576e-21
2.5484e-21
7.09949e-21
9.64905e-21
5.09431e-21
5.5175e-21
2.33886e-22
2.04444e-21
3.77555e-22
2.61619e-21
5.8588e-21
2.21991e-21
3.16224e-21
1.33146e-21
3.10682e-21
1.30454e-21
1.67143e-22
1.55128e-21
6.62041e-23
8.06287e-22
3.42748e-21
1.18481e-21
5.7852e-23
2.44419e-21
3.38776e-21
1.56339e-21
4.52385e-22
1.90407e-21
3.40956e-21
5.2692e-22
8.87769e-22
5.52984e-22
2.37152e-21
6.39413e-22
2.16024e-23
2.08868e-21
1.70766e-21
4.25729e-21
1.54851e-21
2.03921e-22
3.03286e-22
1.72066e-21
1.86893e-22
2.75301e-21
2.63551e-21
1.39961e-21
1.95629e-21
3.9399e-21
8.26738e-22
1.13119e-21
6.04092e-22
1.13894e-21
2.91283e-21
1.45048e-21
5.60253e-21
2.13603e-22
5.87382e-22
1.84717e-21
5.70222e-23
5.0035e-22
3.64654e-21
2.09303e-22
4.63267e-22
3.6069e-23
1.84638e-21
1.53202e-21
4.37461e-21
1.09679e-21
1.32214e-21
3.11431e-22
8.53861e-23
2.57028e-22
3.24234e-22
8.59967e-22
1.58645e-21
3.77701e-22
5.36367e-22
2.44007e-21
2.67249e-21
3.58538e-21
3.04503e-21
6.12258e-22
6.66607e-21
2.96244e-21
6.06619e-22
1.1859e-21
2.06629e-22
1.60743e-22
9.46564e-22
7.1474e-22
1.70264e-21
5.80337e-22
7.52927e-22
1.18818e-22
3.98069e-21
6.93602e-22
1.70783e-21
3.77391e-21
2.44838e-21
9.32019e-22
3.10736e-21
1.71763e-21
1.3729e-21
2.48033e-21
2.34118e-21
1.67359e-21
3.15295e-21
4.62229e-21
4.91585e-21
3.85322e-21
1.16835e-21
1.13426e-21
1.27103e-21
1.02495e-21
1.03749e-22
2.53456e-21
1.94201e-21
1.6158e-21
3.24322e-22
3.19913e-21
1.00128e-21
1.07218e-21
2.63705e-22
2.1968e-21
1.34606e-22
2.34578e-22
2.66904e-21
8.7058e-23
2.25831e-21
1.20244e-21
2.25007e-21
4.49291e-22
5.54401e-22
5.37742e-21
1.33867e-21
5.08265e-22
3.57147e-21
6.80856e-22
5.83703e-22
5.07835e-22
2.95997e-21
2.99766e-22
5.55647e-21
2.95247e-21
8.21943e-23
1.34891e-21
1.59577e-21
2.73766e-22
7.71826e-22
1.16248e-21
3.53912e-22
1.13937e-21
4.03375e-22
8.36825e-22
2.36663e-21
2.49254e-21
1.23542e-21
9.2262e-22
4.30702e-22
1.74252e-21
3.43288e-22
3.62635e-21
1.26517e-21
1.43617e-23
9.93263e-22
1.24975e-21
2.15856e-21
7.55422e-22
2.38533e-21
1.19639e-21
1.72389e-21
2.14031e-23
7.64351e-22
1.54471e-21
2.67763e-21
9.96112e-23
1.71676e-21
5.02793e-21
1.03382e-21
3.81066e-22
1.63363e-21
1.33699e-21
1.26732e-21
1.63679e-21
2.21716e-21
1.30797e-22
1.02391e-21
2.20957e-21
1.02377e-22
1.93093e-22
2.12218e-21
1.0471e-21
1.11937e-21
5.23413e-22
6.95045e-22
3.09285e-21
2.68432e-22
5.64709e-22
2.02736e-22
3.48644e-21
9.6091e-22
2.91232e-21
5.76471e-22
1.02211e-22
5.91807e-24
4.11957e-23
2.01974e-21
3.38551e-22
3.2226e-21
4.68709e-22
2.01808e-21
5.8882e-22
1.39383e-21
9.11214e-22
4.09489e-21
1.41161e-21
5.01844e-21
1.27117e-21
3.51293e-22
2.52546e-21
2.49106e-21
2.31594e-21
1.14087e-21
1.1888e-21
1.82596e-22
1.04415e-21
3.94233e-22
1.16016e-21
5.61527e-21
2.34361e-21
8.12236e-22
4.04911e-21
9.13069e-22
1.13866e-21
1.31934e-21
1.20013e-21
2.02726e-22
5.7377e-21
1.99551e-21
1.18066e-21
6.51763e-23
3.5534e-22
1.10474e-21
6.10706e-22
2.81389e-21
1.3452e-21
2.8772e-21
2.83125e-22
1.88517e-21
2.24602e-21
3.29236e-21
1.54674e-21
5.40122e-22
2.9525e-21
1.77816e-21
3.80639e-22
1.94412e-21
1.01172e-21
4.67467e-21
6.56442e-21
1.24226e-21
1.12601e-21
3.46708e-21
1.82673e-22
3.72663e-21
4.02859e-22
4.34833e-23
6.97273e-22
2.44503e-21
3.49989e-22
2.00954e-22
1.614e-22
9.11623e-24
1.33726e-21
7.6852e-22
9.13428e-22
1.25093e-21
3.31181e-21
1.92485e-22
5.07761e-22
6.99888e-23
1.34137e-21
5.11373e-22
4.50431e-22
8.36241e-22
1.36334e-21
2.56504e-21
8.95621e-23
9.85109e-22
1.61061e-21
1.20219e-21
1.86536e-21
1.6295e-21
1.60841e-21
3.23171e-22
3.35681e-21
5.79973e-22
1.49028e-21
1.40352e-21
3.5627e-22
1.92716e-23
3.50097e-21
2.71959e-22
1.11823e-21
1.09785e-21
3.03212e-21
1.89968e-22
3.21753e-21
1.46442e-21
2.05254e-21
9.3917e-22
6.54843e-23
1.72325e-21
2.29814e-22
4.02558e-21
7.43709e-22
3.96989e-22
3.65433e-22
2.9202e-23
7.94003e-22
1.84307e-21
1.01702e-21
7.65826e-23
1.0612e-21
2.7205e-21
2.12709e-22
2.30278e-21
1.76088e-22
1.0936e-21
6.8769e-22
1.90705e-21
2.53418e-21
7.36868e-22
1.76094e-21
1.08349e-22
1.18139e-21
2.15496e-22
1.55552e-21
2.59985e-21
3.26257e-21
9.95054e-22
1.82627e-21
3.29751e-21
1.98059e-22
5.55903e-21
2.95997e-22
6.56204e-22
3.20777e-21
6.25372e-22
4.32184e-22
3.51793e-22
9.77931e-22
1.37174e-21
2.1479e-21
6.35384e-23
2.54977e-21
2.41623e-22
2.06751e-21
6.99371e-23
1.78564e-21
1.04048e-21
2.76592e-23
2.40051e-22
8.41964e-22
1.41931e-21
4.17516e-24
1.51491e-21
2.0902e-21
3.5777e-22
1.01644e-21
7.08974e-22
8.28125e-22
3.34363e-24
1.31222e-22
4.8261e-21
1.78245e-21
1.88603e-22
1.25142e-21
1.21893e-21
5.44739e-22
9.22292e-22
1.37883e-21
7.00211e-22
1.47939e-21
1.24731e-21
6.59053e-22
3.59369e-22
1.10902e-22
7.82553e-22
1.94306e-23
6.08675e-22
2.15659e-21
3.14105e-21
7.30147e-22
1.85657e-21
1.17874e-22
2.10002e-21
2.04318e-21
2.70109e-21
1.57647e-21
1.27274e-21
2.3e-21
5.33924e-21
9.22013e-22
5.58848e-22
2.4694e-23
8.78661e-23
9.38433e-22
2.86545e-21
9.49148e-23
7.36591e-22
6.76603e-22
1.47336e-21
6.68903e-22
1.98459e-21
6.49277e-22
1.08613e-21
3.06877e-22
6.81194e-21
9.78591e-21
1.88468e-22
1.40387e-21
1.54001e-21
9.95734e-22
6.72221e-22
1.18192e-22
2.24082e-21
2.2313e-21
2.37272e-21
2.68185e-22
2.98268e-21
5.64832e-21
1.17393e-22
3.57217e-21
1.34306e-21
9.01319e-22
9.80271e-26
1.00373e-21
1.3364e-21
1.41149e-21
8.15251e-22
2.43407e-21
1.2795e-21
8.0191e-22
3.50172e-21
1.03385e-21
2.20917e-21
1.00469e-22
2.23657e-21
1.33608e-21
1.74379e-21
1.86524e-21
8.08724e-22
4.80356e-21
2.72849e-21
4.17843e-21
1.50238e-21
1.02456e-21
8.97723e-22
6.73863e-22
3.71324e-22
2.70233e-21
5.16928e-21
9.56631e-22
8.33913e-22
2.70022e-21
1.98492e-21
3.73447e-21
8.71669e-22
5.47603e-22
7.66765e-22
1.6903e-21
9.40157e-23
1.94763e-21
2.4151e-21
5.06651e-21
5.49478e-22
7.36249e-22
7.96973e-24
1.04496e-20
4.75602e-21
6.60562e-22
3.5652e-22
1.88056e-21
1.01646e-22
1.21551e-22
3.56753e-21
7.54934e-22
1.53291e-21
3.58839e-22
2.23794e-21
2.52582e-21
9.49427e-23
1.02937e-21
6.53403e-22
8.88271e-21
2.6265e-21
4.54744e-22
1.33284e-21
4.14461e-23
5.99829e-22
5.59271e-21
3.85958e-21
3.56722e-22
2.23257e-21
1.28626e-22
3.73675e-21
1.94953e-22
6.64227e-22
4.58332e-23
9.65173e-22
1.59589e-21
1.4215e-22
1.12541e-22
4.38893e-22
8.44754e-22
9.91099e-22
3.37893e-21
4.11635e-22
3.19763e-21
4.74305e-21
8.92937e-22
4.02098e-21
2.69811e-21
4.50663e-22
1.95852e-21
3.49616e-21
5.44998e-22
1.6318e-21
2.31242e-21
1.54746e-21
7.25426e-22
6.17683e-21
1.96884e-21
1.0078e-21
4.87749e-22
2.57729e-21
2.39709e-21
3.39775e-22
1.44512e-22
2.80133e-21
5.10882e-21
2.11852e-21
3.66859e-21
1.86477e-21
2.21943e-22
1.05972e-21
1.96962e-22
1.85537e-21
1.22999e-21
1.29176e-21
8.44718e-22
1.62851e-21
3.12864e-21
1.54858e-21
9.97351e-23
3.96495e-21
2.02835e-21
2.60332e-21
5.55431e-21
2.97976e-23
1.91233e-21
4.36406e-21
5.99352e-22
1.47673e-21
8.08939e-22
3.82877e-21
2.1555e-21
6.02629e-23
1.5506e-22
2.73862e-23
2.08711e-21
1.98865e-22
1.19461e-21
4.90175e-22
2.99323e-22
6.53385e-22
4.82309e-21
1.77518e-21
3.28155e-21
3.52512e-21
4.34837e-21
5.07095e-23
6.63608e-22
2.55012e-22
5.02527e-21
4.48945e-21
1.75067e-21
1.86562e-21
2.3991e-21
4.81618e-22
4.99847e-22
3.32624e-21
1.54387e-21
8.96142e-23
4.23566e-21
2.13785e-21
4.32437e-22
9.15807e-22
1.48452e-22
2.79598e-21
5.20928e-23
2.08413e-21
4.83167e-21
6.66349e-21
4.77313e-21
2.89613e-21
1.59347e-21
2.22123e-22
8.26675e-22
1.42119e-21
9.98504e-22
9.14239e-22
5.3616e-22
2.13314e-22
1.3226e-22
1.80022e-21
2.70329e-21
3.82574e-21
1.49559e-21
1.22223e-21
1.81276e-21
1.37102e-21
3.8433e-21
7.43859e-22
1.6957e-22
7.4445e-21
8.15797e-22
1.62156e-21
7.09814e-22
2.97039e-21
2.44634e-22
3.09906e-22
2.28014e-21
1.58888e-21
9.89045e-22
1.19096e-21
5.9516e-21
2.04249e-21
5.51262e-21
7.1812e-22
1.56909e-22
1.38293e-21
2.19645e-22
1.26608e-21
3.5257e-22
1.53303e-21
1.97489e-21
6.90443e-23
3.81432e-21
3.64992e-22
2.6304e-22
3.22605e-22
1.20534e-21
3.78888e-21
2.43077e-21
3.64053e-21
8.18487e-22
3.71853e-22
1.86962e-21
6.1897e-22
1.07373e-22
8.49066e-22
3.28842e-22
1.70235e-21
1.03734e-21
2.5195e-21
5.0693e-22
3.49594e-22
4.54526e-21
1.48859e-21
3.12582e-21
2.40559e-21
3.48883e-21
5.6955e-21
4.40312e-21
4.63277e-22
8.89836e-22
1.14868e-21
1.09319e-21
1.41928e-21
6.70235e-22
3.72143e-21
2.54311e-21
1.23791e-20
5.19554e-21
8.93183e-22
4.00708e-22
2.89425e-22
1.09481e-21
4.81476e-22
1.34195e-21
1.5319e-21
1.15778e-22
5.63957e-21
2.02455e-21
2.07745e-21
1.87868e-21
2.18634e-22
2.18925e-21
1.19556e-22
1.82856e-21
1.53702e-21
2.63707e-21
9.01718e-22
8.92409e-22
1.82781e-21
9.39777e-22
4.81397e-22
5.42697e-21
1.5295e-21
1.58044e-21
3.63265e-23
1.45081e-22
1.3435e-21
2.11804e-21