/*--------------------------------*- C++ -*----------------------------------*\
  =========                 |
  \\      /  F ield         | OpenFOAM: The Open Source CFD Toolbox
   \\    /   O peration     | Website:  https://openfoam.org
    \\  /    A nd           | Version:  7
     \\/     M anipulation  |
\*---------------------------------------------------------------------------*/
FoamFile
{
    version     2.0;
    format      ascii;
    class       volScalarField;
    location    "0.00324";
    object      dsmcSigmaTcRMax;
}
// * * * * * * * * * * * * * * * * * * * * * * * * * * * * * * * * * * * * * //

dimensions      [0 3 -1 0 0 0 0];

internalField   nonuniform List<scalar> 
125
(
1.02464e-15
1.00024e-15
9.94451e-16
9.76222e-16
1.0044e-15
9.882e-16
9.85742e-16
9.72292e-16
9.94414e-16
1.00839e-15
1.00029e-15
1.00543e-15
1.0446e-15
1.02571e-15
1.01168e-15
1.01362e-15
1.00588e-15
9.80661e-16
9.99625e-16
1.02e-15
9.99257e-16
1.00527e-15
1.01718e-15
9.98748e-16
1.00593e-15
9.99213e-16
1.01634e-15
9.91019e-16
1.04315e-15
9.72717e-16
9.96292e-16
1.00609e-15
9.89245e-16
9.85254e-16
1.01832e-15
9.92179e-16
9.92116e-16
1.05423e-15
9.98745e-16
1.0063e-15
9.9732e-16
9.90387e-16
1.01472e-15
9.68447e-16
9.98804e-16
1.01874e-15
1.0012e-15
9.98755e-16
1.00589e-15
9.83024e-16
9.90546e-16
9.97573e-16
1.0001e-15
1.02319e-15
1.02215e-15
1.00819e-15
1.00289e-15
1.03166e-15
1.02371e-15
9.97849e-16
9.83084e-16
9.88337e-16
9.98659e-16
9.73906e-16
9.74892e-16
9.79484e-16
1.00549e-15
9.83159e-16
9.85781e-16
1.03166e-15
1.00495e-15
9.88154e-16
9.9841e-16
1.00304e-15
1.01921e-15
9.78108e-16
9.98472e-16
9.88265e-16
9.94802e-16
9.80219e-16
9.69169e-16
9.86037e-16
9.92594e-16
1.00206e-15
9.76162e-16
1.03763e-15
1.03246e-15
9.85505e-16
1.0043e-15
9.81784e-16
9.84184e-16
1.00878e-15
1.00102e-15
9.80245e-16
9.95115e-16
9.88273e-16
9.75807e-16
9.82149e-16
9.88812e-16
1.00186e-15
9.95278e-16
9.85541e-16
9.62736e-16
9.75388e-16
9.83376e-16
9.93597e-16
9.98511e-16
9.775e-16
1.01301e-15
9.94389e-16
9.88716e-16
9.79617e-16
1.00786e-15
9.9452e-16
9.83665e-16
1.00142e-15
9.99082e-16
9.7025e-16
9.81233e-16
9.71937e-16
1.01709e-15
1.00033e-15
9.88621e-16
9.80457e-16
9.7568e-16
)
;

boundaryField
{
    sides
    {
        type            symmetry;
    }
    empty
    {
        type            empty;
    }
    procBoundary0to1
    {
        type            processor;
        value           uniform 1.00056e-15;
    }
}


// ************************************************************************* //
