/*--------------------------------*- C++ -*----------------------------------*\
  =========                 |
  \\      /  F ield         | OpenFOAM: The Open Source CFD Toolbox
   \\    /   O peration     | Website:  https://openfoam.org
    \\  /    A nd           | Version:  7
     \\/     M anipulation  |
\*---------------------------------------------------------------------------*/
FoamFile
{
    version     2.0;
    format      ascii;
    class       volVectorField;
    location    "0.00324";
    object      momentum;
}
// * * * * * * * * * * * * * * * * * * * * * * * * * * * * * * * * * * * * * //

dimensions      [1 -2 -1 0 0 0 0];

internalField   nonuniform List<vector> 
125
(
(0.141373 -0.183229 -0.0729016)
(-0.0156662 0.0934278 0.0868073)
(-0.0171836 0.274638 0.104702)
(0.0815125 -0.0718836 -0.0437147)
(0.0925671 -0.0183452 0.00569322)
(0.00190871 0.15418 -0.119593)
(0.0163625 0.000563888 -0.030266)
(-0.0136829 -0.308259 0.106299)
(-0.0784814 0.0188312 0.010758)
(0.536829 0.144845 -0.217738)
(0.245377 -0.00514597 0.0611819)
(-0.132673 0.0464043 0.205146)
(0.143971 0.0366556 0.0791897)
(-0.0285476 -0.13873 -0.134527)
(-0.0160237 -0.152253 -0.00950256)
(0.0358029 0.106981 -0.0384685)
(0.0537523 0.0658071 0.0135923)
(0.0355791 0.0318941 0.209579)
(-0.487412 0.172129 -0.281521)
(0.107962 -0.136223 0.0574217)
(-0.0842248 -0.0884577 0.0783311)
(0.147753 -0.0814648 -0.0316285)
(-0.0208751 0.0814888 0.127621)
(0.1627 0.144735 -0.131407)
(-0.0879893 0.181872 -0.0284279)
(-0.0867702 0.103634 0.0861443)
(0.0636716 0.169045 0.0591629)
(0.0633288 -0.160842 0.106352)
(0.169361 -0.0677431 -0.24036)
(-0.232134 -0.113055 0.017435)
(-0.0627546 0.00130801 0.0244021)
(0.0279089 0.174865 -0.126697)
(-0.139623 0.192358 -0.249798)
(-0.130225 -0.00280459 0.0479927)
(0.113283 -0.0314399 -0.0415595)
(-0.146886 0.120299 0.0668277)
(-0.0670562 0.0916444 0.0317438)
(-0.0767125 0.159917 -0.198219)
(-0.255284 0.296184 0.0499802)
(0.155338 -0.0142715 -0.0742351)
(-0.11269 0.3251 -0.0588547)
(0.000221382 0.251747 -0.0123743)
(0.0675618 0.100909 -0.0733085)
(0.0599037 -0.231798 0.133804)
(0.147527 -0.0452347 0.0230131)
(-0.0952893 0.0197598 -0.0214518)
(-0.0314975 -0.152106 0.0493301)
(-0.176492 0.175322 0.245075)
(0.27676 0.00101569 -0.203304)
(0.00846687 0.07077 -0.0824338)
(0.00486431 0.0175071 0.00746181)
(-0.0810099 0.0959291 0.0481305)
(0.174086 -0.194974 0.0541526)
(-0.114647 -0.067127 -0.0289005)
(0.21706 -0.0250855 -0.149432)
(0.0907726 0.168829 -0.198282)
(0.0930071 -0.0750784 -0.07459)
(0.098262 -0.14785 -0.145473)
(0.0925108 -0.172806 -0.0308751)
(0.029847 -0.0196388 -0.0875718)
(-0.0890684 0.0668195 -0.0479128)
(0.175608 -0.0155921 -0.0351354)
(-0.0717303 -0.0875774 0.0555409)
(0.186216 -0.0285276 0.0714774)
(-0.00383761 -0.298209 -0.0624039)
(0.191381 -0.00598582 0.024892)
(0.0318368 -0.119109 0.00851475)
(-0.0311233 0.256977 -0.0183892)
(-0.015092 -0.253197 -0.0124507)
(0.121388 0.115023 0.225943)
(0.0936079 -0.127733 0.0250231)
(-0.166442 -0.107082 -0.139237)
(0.0208939 -0.0970738 0.0388273)
(0.0829162 0.0374157 0.0426858)
(-0.190873 -0.0906285 0.0232502)
(-0.0599225 -0.115297 -0.0357801)
(-0.0154029 -0.162061 -0.0414771)
(0.071733 -0.09274 -0.115032)
(0.00702789 -0.00531876 0.107178)
(0.0204373 -0.0319137 -0.107582)
(-0.0446695 0.163355 0.073005)
(0.00233788 0.234567 0.123528)
(0.0431807 0.109508 0.237601)
(0.113469 0.189963 0.183604)
(0.193357 -0.205874 -0.191732)
(-0.395258 0.140252 -0.169583)
(0.237257 0.0606846 0.0500095)
(-0.260511 0.111963 0.153076)
(-0.0653969 -0.108575 0.101629)
(-0.207481 -0.05494 -0.0633882)
(0.200983 -0.138201 0.163291)
(-0.0342421 -0.169394 -0.0506786)
(-0.132129 0.0513172 0.175436)
(-0.0623662 0.0869603 -0.104871)
(0.176275 0.00151324 0.176688)
(0.175407 -0.0246336 0.12268)
(0.198471 0.0729163 0.300343)
(-0.113687 0.0605465 0.0724074)
(-0.00288173 0.0578636 -0.033653)
(0.305617 0.0153731 0.176711)
(-0.0878909 -0.237478 0.0486541)
(0.171452 0.0956246 -0.298187)
(0.375429 -0.0972838 -0.131238)
(0.120746 -0.0448241 -0.0485022)
(0.0710423 0.139314 0.0996206)
(0.102995 0.143417 0.137536)
(5.6057e-05 -0.109977 -0.234201)
(-0.0970758 0.0100101 -0.0978893)
(0.064235 0.327804 -0.254231)
(0.173701 -0.221677 -0.129078)
(0.0874456 0.224563 -0.0128486)
(0.0535348 -0.241827 -0.0931563)
(-0.070803 -0.104561 0.210243)
(0.129367 0.158546 0.0374848)
(0.0283218 -0.0288563 -0.175013)
(-0.0436761 -0.0488724 -0.0848891)
(0.0162307 -0.0906765 -0.152264)
(0.152261 -0.0437943 0.0375236)
(-0.0170631 -0.0876479 -0.111339)
(0.19028 -0.238067 0.0672234)
(0.376365 -0.042914 -0.0803376)
(0.111413 -0.00674231 0.151784)
(0.146176 0.0307924 0.104549)
(0.393059 0.200273 0.106235)
(0.30355 0.161842 0.0810885)
)
;

boundaryField
{
    sides
    {
        type            symmetry;
    }
    empty
    {
        type            empty;
    }
    procBoundary0to1
    {
        type            processor;
        value           uniform (0.185927 0.109275 -0.069305);
    }
}


// ************************************************************************* //
