/*--------------------------------*- C++ -*----------------------------------*\
  =========                 |
  \\      /  F ield         | OpenFOAM: The Open Source CFD Toolbox
   \\    /   O peration     | Website:  https://openfoam.org
    \\  /    A nd           | Version:  7
     \\/     M anipulation  |
\*---------------------------------------------------------------------------*/
FoamFile
{
    version     2.0;
    format      ascii;
    class       Cloud<dsmcParcel>;
    location    "0.008/lagrangian/dsmc";
    object      positions;
}
// * * * * * * * * * * * * * * * * * * * * * * * * * * * * * * * * * * * * * //

6920
(
(0.243488092 0.3546674625 0.02358849153 0.378255954) 458 877 2
(0.2699138808 0.3650430596 0.05693043584 0.3081126238) 518 1007 2
(0.3504813367 0.2214638872 0.3247593317 0.1032954445) 443 867 2
(0.4248729311 0.2875635345 0.2014609278 0.08610260665) 485 944 2
(0.5057310565 0.1613991197 0.08573535203 0.2471344717) 447 874 1
(0.2934985692 0.3532507154 0.1667002094 0.186550506) 468 914 2
(0.2497135925 0.103229347 0.3751432037 0.2719138567) 474 926 2
(0.02229078392 0.009122469638 0.4797321384 0.488854608) 457 875 2
(0.2785467693 0.2645190882 0.09620752721 0.3607266154) 456 891 1
(0.06905255114 0.2084139022 0.4654737244 0.2570598222) 477 932 2
(0.4500949091 0.2136715362 0.0612810093 0.2749525455) 479 916 2
(0.4751605237 0.2624197381 0.04153407774 0.2208856604) 458 895 2
(0.400832375 0.02883793655 0.270745876 0.2995838125) 459 2617 1
(0.1517787001 0.3930816266 0.42411065 0.03102902333) 463 905 2
(0.5510061514 0.2244969243 0.182404709 0.04209221532) 463 904 2
(0.07438250624 0.4628087469 0.04082450822 0.4219842387) 496 965 2
(0.4197077518 0.1345927719 0.2901461241 0.1555533522) 459 895 1
(0.006106345309 0.4969468273 0.11643019 0.3805166374) 463 904 2
(0.07328462315 0.4633576884 0.1737994942 0.2895581942) 458 895 2
(0.6080571304 0.1959714348 0.1777755575 0.01819587733) 509 973 1
(0.1990523827 0.4004738087 0.3970456417 0.003428166999) 519 1011 1
(0.1469865056 0.3040999207 0.1224068265 0.4265067472) 468 896 2
(0.08263228963 0.413350467 0.4586838552 0.04533338819) 469 916 2
(0.3377958295 0.1391610309 0.3311020852 0.1919410543) 449 878 2
(0.434547601 0.2827261995 0.256556818 0.02616938145) 487 932 1
(0.4389454637 0.2805272682 0.04045036927 0.2400768989) 450 861 1
(0.2295231162 0.2281074541 0.3852384419 0.1571309878) 459 897 2
(0.08086197785 0.4595690111 0.05631306752 0.4032559436) 473 923 2
(0.1308112533 0.4345943733 0.3085266543 0.126067719) 468 896 1
(0.02722832667 0.4863858367 0.4331795793 0.05320625734) 465 909 1
(0.180403482 0.2310272173 0.1787710417 0.409798259) 443 1301 1
(0.07506972617 0.1590542792 0.3034108577 0.4624651369) 455 889 1
(0.2562496849 0.3718751576 0.3125297008 0.05934545679) 469 914 2
(0.1823545647 0.4088227177 0.2804203971 0.1284023206) 478 934 1
(0.20207214 0.39896393 0.2417766365 0.1571872935) 487 950 2
(0.4891395857 0.2554302072 0.09119013624 0.1642400709) 446 873 1
(0.456992501 0.01363510288 0.2578686466 0.2715037495) 447 1305 1
(0.2290924829 0.1314320998 0.3854537585 0.2540216588) 506 987 2
(0.4123956935 0.2938021532 0.1790098402 0.114792313) 508 990 2
(0.09893985123 0.4505300744 0.1404525981 0.3100774763) 449 878 1
(0.1690500506 0.138971933 0.2765030418 0.4154749747) 595 1137 2
(0.01057166602 0.494714167 0.4219848084 0.07272935858) 449 1307 2
(0.2206335184 0.3896832408 0.2354668529 0.1542163879) 468 915 1
(0.7799979971 0.1100010014 0.02202300745 0.08797799398) 488 934 1
(0.5397549233 0.0828535701 0.1472689683 0.2301225383) 448 1306 1
(0.4588966494 0.2131050344 0.2705516753 0.05744664095) 448 877 2
(0.1063481538 0.4468259231 0.07117295567 0.3756529674) 485 944 2
(0.1161761564 0.2514622555 0.4419119218 0.1904496663) 499 971 1
(0.09548062653 0.4522596867 0.05129010654 0.4009695802) 518 1007 2
(0.8643427479 0.06782862603 0.03582126089 0.03200736514) 447 872 2
(0.2763093145 0.3618453427 0.3284204738 0.03342486894) 459 2617 2
(0.8015576972 0.09922115139 0.05383705804 0.04538409334) 454 869 1
(0.2241357719 0.387932114 0.2877720143 0.1001600998) 475 927 2
(0.3103615469 0.3448192265 0.2964799803 0.04833924627) 457 875 1
(0.4358081128 0.2820959436 0.1725184822 0.1095774614) 489 954 1
(0.05693817208 0.4235987181 0.04793219588 0.471530914) 467 912 1
(0.3823820418 0.3088089791 0.1484052828 0.1604036963) 495 963 2
(0.2624017883 0.3687991059 0.3302887691 0.03851033676) 459 897 1
(0.2434327132 0.1491897369 0.3782836434 0.2290939066) 448 877 2
(0.6738576217 0.07201375853 0.1630711892 0.09105743064) 457 894 2
(0.2277385061 0.05378458392 0.3323461631 0.386130747) 479 2619 1
(0.07530198212 0.4623490089 0.02052794563 0.4418210633) 467 912 2
(0.6035010715 0.1513563858 0.04689307845 0.1982494642) 479 916 2
(0.5940361108 0.2029819446 0.04099072636 0.1619912182) 459 2617 2
(0.5616157831 0.1049445137 0.1142475947 0.2191921084) 467 894 2
(0.8822832167 0.01645165631 0.04240673533 0.05885839164) 552 1073 1
(0.03030028192 0.484849859 0.1671954707 0.3176543883) 448 877 1
(0.4055597726 0.2682063928 0.02901372093 0.2972201137) 440 1298 1
(0.01882610419 0.4416712601 0.04891568779 0.4905869479) 458 877 2
(0.2822889957 0.3588555021 0.3515725149 0.007282987262) 474 923 2
(0.204201581 0.3978992095 0.08005591034 0.3178432991) 443 1301 2
(0.1801561703 0.4099219148 0.2132588926 0.1966630223) 549 1068 1
(0.8598562003 0.06224659693 0.007825302907 0.07007189983) 478 915 2
(0.3417524188 0.3025141266 0.02660966401 0.3291237906) 499 954 2
(0.3984062168 0.3007968916 0.0963708923 0.2044259993) 499 2621 2
(0.240578122 0.379710939 0.08315215487 0.2965587841) 508 988 2
(0.6900649786 0.04923723612 0.1549675107 0.1057302746) 453 886 2
(0.7991529093 0.1004235453 0.009052168002 0.09137137734) 445 868 2
(0.389625615 0.1793603006 0.3051871925 0.1258268919) 468 915 2
(0.5967754005 0.2016122997 0.1964044144 0.005207885361) 476 930 1
(0.4188103903 0.07863927132 0.2119555336 0.2905948049) 468 914 1
(0.164696538 0.417651731 0.3053323458 0.1123193852) 466 910 2
(0.1372778971 0.4313610514 0.3581526307 0.07320842075) 444 868 2
(0.2452674328 0.3773662836 0.2143495038 0.1630167798) 467 912 2
(0.02707898231 0.4640950678 0.02236544106 0.4864605088) 457 875 2
(0.1895390507 0.4052304746 0.2139186789 0.1913117958) 457 893 2
(0.2540214727 0.3729892636 0.09392536533 0.2790638983) 519 992 1
(0.154683786 0.2454499422 0.422658107 0.1772081648) 466 911 2
(0.2646381608 0.09204269527 0.2756382243 0.3676809196) 619 1182 2
(0.434472471 0.2743948053 0.2827637645 0.008368959185) 458 893 1
(0.4121330372 0.2939334814 0.03956499692 0.2543684845) 449 1307 2
(0.1017436862 0.4016594029 0.04746875402 0.4491281569) 505 966 2
(0.3929671813 0.1809249757 0.1225914336 0.3035164094) 458 895 1
(0.6614669088 0.02210298952 0.1471635561 0.1692665456) 479 2619 1
(0.6605940056 0.1415019672 0.02820103006 0.1697029972) 496 949 2
(0.07389302247 0.139331612 0.4630534888 0.3237218767) 476 927 1
(0.4799166536 0.2600416732 0.0620089825 0.1980326907) 448 877 1
(0.2645763618 0.3677118191 0.1449258623 0.2227859568) 457 891 2
(0.3911530235 0.3044234882 0.02659655949 0.2778269287) 458 893 2
(0.138292494 0.1027334772 0.430853753 0.3281202758) 459 895 1
(0.2210945629 0.3894527185 0.3658440005 0.02360871804) 477 913 1
(0.1553628776 0.1371927863 0.4223185612 0.2851257749) 466 908 1
(0.3754493081 0.01117907867 0.3010962673 0.3122753459) 447 1305 1
(0.1550769602 0.4224615199 0.2364687972 0.1859927227) 488 953 1
(0.8302057414 0.03801113889 0.08489712931 0.04688599042) 448 877 2
(0.5537239954 0.02668993816 0.2231380023 0.1964480641) 464 904 1
(0.3030142828 0.2378423253 0.3484928586 0.1106505333) 478 931 1
(0.02782366228 0.1596077084 0.4860881689 0.3264804604) 459 897 2
(0.3990387042 0.2978373255 0.3004806479 0.002643322404) 456 889 1
(0.3901384822 0.1283490313 0.3049307589 0.1765817276) 509 990 1
(0.127800567 0.4360997165 0.1225805458 0.3135191707) 456 873 1
(0.02736904906 0.4863154755 0.4190070727 0.0673084028) 447 874 2
(0.03720170895 0.22343011 0.4813991455 0.2579690355) 545 1061 2
(0.03175054542 0.4841247273 0.2913395527 0.1927851746) 465 906 2
(0.3723848633 0.04746331566 0.3138075683 0.2663442527) 499 971 1
(0.083993988 0.2628000146 0.458003006 0.1952029914) 444 869 2
(0.008160738943 0.4959196305 0.2549125127 0.2410071179) 459 2617 2
(0.1404361366 0.07007863176 0.3597033 0.4297819317) 492 959 1
(0.5917066198 0.1182482864 0.08589840372 0.2041466901) 449 1307 1
(0.6418261631 0.04483853961 0.1342483789 0.1790869185) 464 888 2
(0.4336155406 0.1269869897 0.15620524 0.2831922297) 509 2622 1
(0.1811430934 0.4094284533 0.3312719177 0.07815653566) 527 1027 1
(0.03303257014 0.1041124511 0.3793712638 0.4834837149) 443 1301 1
(0.09271308335 0.4536434583 0.250258639 0.2033848193) 443 867 1
(0.1809088398 0.4095455801 0.3040877817 0.1054577984) 459 895 2
(0.353536958 0.323231521 0.1113669428 0.2118645782) 444 868 2
(0.437361627 0.2132271109 0.2813191865 0.06809207562) 477 929 1
(0.7216782716 0.1391608642 0.04604039412 0.09312047008) 469 897 1
(0.6265720842 0.1867139579 0.03427713921 0.1524368187) 459 2617 2
(0.3220126238 0.2370919005 0.1019017877 0.3389936881) 459 2617 1
(0.2246810559 0.07920446905 0.308455003 0.3876594721) 475 927 1
(0.1307043658 0.1931186054 0.4346478171 0.2415292117) 517 1005 1
(0.338458577 0.07332389767 0.3307707115 0.2574468138) 36 70 1
(0.07104226774 0.367108377 0.4644788661 0.09737048916) 466 908 1
(0.7724940093 0.000712563733 0.1130404316 0.1137529953) 506 986 1
(0.1427689593 0.4286155203 0.2501541448 0.1784613756) 449 878 1
(0.05046820725 0.4747658964 0.3243323242 0.1504335721) 464 904 2
(0.3914175015 0.3042912493 0.2436091624 0.06068208691) 477 929 2
(0.1724769664 0.4137615168 0.04210123507 0.3716602817) 465 908 2
(0.262577872 0.3340270876 0.368711064 0.03468397641) 478 931 1
(0.02839177478 0.4858041126 0.3380094677 0.1477946449) 448 874 2
(0.6125101737 0.1937449132 0.1344420969 0.05930281629) 459 895 2
(0.1216582399 0.43917088 0.2312545797 0.2079163004) 487 948 2
(0.4226808793 0.02730900497 0.2613505554 0.2886595604) 449 1307 1
(0.3373810769 0.04487396694 0.3313094616 0.2864354946) 474 923 1
(0.4369796214 0.26002482 0.2815101893 0.02148536929) 449 876 1
(0.2244465717 0.3877767141 0.0275493735 0.3602273406) 447 1305 2
(0.552056644 0.07416256261 0.1498091154 0.223971678) 477 931 1
(0.2029840192 0.3985079904 0.3685116435 0.02999634687) 495 947 1
(0.2849901113 0.3575049443 0.06122125322 0.2962836911) 451 881 2
(0.7381959261 0.1309020369 0.00592832265 0.1249737143) 486 948 2
(0.4411650649 0.2195923534 0.2794174675 0.0598251141) 498 972 2
(0.004763122248 0.4976184389 0.1421137122 0.3555047267) 446 872 2
(0.3930000595 0.3034999703 0.1909978615 0.1125021088) 468 914 2
(0.8975103987 0.02339254901 0.02785225163 0.05124480064) 457 875 2
(0.1409970607 0.01985976143 0.4295014697 0.4096417082) 458 896 2
(0.32108091 0.339459545 0.113954228 0.225505317) 487 948 2
(0.1502535807 0.3606784492 0.06419476047 0.4248732096) 529 1011 2
(0.50784693 0.246076535 0.1165804888 0.1294960462) 508 988 2
(0.672432975 0.09693535844 0.1637835125 0.06684815404) 468 912 1
(0.3635449825 0.3182275087 0.1657956777 0.152431831) 457 893 2
(0.2721699585 0.3639150207 0.3486287424 0.01528627839) 453 885 2
(0.646507661 0.1767461695 0.06573457325 0.1110115962) 496 967 2
(0.2097838222 0.3951080889 0.1806816908 0.2144263982) 489 2620 2
(0.2737658538 0.3631170731 0.03917270972 0.3239443634) 457 891 2
(0.2675833766 0.1822641237 0.183944188 0.3662083117) 458 895 1
(0.183981414 0.408009293 0.1742930573 0.2337162357) 479 935 1
(0.2296226895 0.3851886553 0.1449971125 0.2401915427) 478 915 1
(0.3013351761 0.2941888272 0.349332412 0.05514358473) 528 1026 1
(0.1777033263 0.4111483369 0.1685807315 0.2425676053) 649 2636 2
(0.9457907735 0.01331333299 0.02710461324 0.01379128025) 588 1140 1
(0.2511087901 0.3254920054 0.04895359958 0.374445605) 449 1307 1
(0.008088036281 0.4959559819 0.1848392537 0.3111167282) 467 894 1
(0.1305941468 0.4347029266 0.1692629076 0.265440019) 495 963 2
(0.844171546 0.001899108395 0.0760151186 0.07791422699) 459 878 2
(0.6126319432 0.1936840284 0.1275423563 0.06614167206) 455 889 2
(0.1292908736 0.1008556934 0.3344988698 0.4353545632) 529 2624 1
(0.258387674 0.370806163 0.07081061319 0.2999955498) 469 2618 2
(0.6130021348 0.1324871175 0.1934989326 0.06101181511) 503 978 1
(0.7145096519 0.1277430487 0.142745174 0.01500212529) 474 923 1
(0.3410013848 0.203139034 0.1263602736 0.3294993076) 472 921 1
(0.2617837995 0.3691081002 0.1317327694 0.2373753308) 484 945 1
(0.01077995501 0.4946100225 0.1932121081 0.3013979144) 499 954 1
(0.1537460617 0.343769464 0.4231269691 0.07935750519) 499 973 2
(0.4861599212 0.2569200394 0.2312522797 0.02566775968) 448 877 1
(0.408229735 0.2958851325 0.1149678583 0.1809172742) 499 973 1
(0.2348508636 0.3825745682 0.2104549518 0.1721196164) 599 1144 1
(0.4725307198 0.2637346401 0.1792712539 0.08446338621) 449 878 1
(0.09465811867 0.05844609598 0.3942248447 0.4526709407) 489 2620 1
(0.4320486928 0.01086123442 0.2731144192 0.2839756536) 558 1067 2
(0.5361572378 0.1106855765 0.1212358046 0.2319213811) 456 891 1
(0.2017859165 0.3991070418 0.1777461097 0.2213609321) 473 921 2
(0.1527399555 0.4236300223 0.1256296152 0.2980004071) 498 971 2
(0.2077693003 0.3961153499 0.2370757326 0.1590396173) 459 2617 2
(0.6905325608 0.1547337196 0.152169642 0.002564077658) 558 1083 2
(0.6020718568 0.0296341768 0.1693298948 0.1989640716) 449 2616 1
(0.6049371888 0.1873201224 0.01021128315 0.1975314056) 499 954 2
(0.3188696871 0.3405651564 0.2128356877 0.1277294688) 446 1304 2
(0.04168356799 0.479158216 0.2999868367 0.1791713793) 446 873 1
(0.2111758075 0.3944120963 0.3017218185 0.0926902778) 527 1008 1
(0.03738377329 0.4813081134 0.2650400265 0.2162680868) 465 890 1
(0.1356805551 0.1751094758 0.2570502467 0.4321597225) 444 1302 1
(0.716578128 0.141710936 0.1105387017 0.03117223428) 487 950 2
(0.6493699724 0.08457497785 0.1753150138 0.09074003595) 509 992 2
(0.8274700924 0.08626495378 0.0809583811 0.005306572678) 453 883 2
(0.7007185531 0.1496407234 0.101117363 0.04852336047) 461 901 1
(0.3406615289 0.3296692356 0.318435881 0.01123335456) 477 932 1
(0.3569055339 0.3215472331 0.002672539308 0.3188746938) 448 876 2
(0.06273905774 0.4686304711 0.04308695403 0.4255435171) 606 1176 2
(0.1399126607 0.1322636024 0.2977800672 0.4300436697) 448 876 1
(0.5416543805 0.121692519 0.2291728097 0.1074802908) 455 887 1
(0.1245996689 0.1280140093 0.3096861562 0.4377001656) 457 893 1
(0.2813392327 0.3445604005 0.3593303836 0.0147699831) 509 992 2
(0.3521899691 0.3239050154 0.08633328095 0.2375717345) 458 877 1
(0.6175445223 0.1912277389 0.04975565999 0.1414720789) 489 952 2
(0.436183161 0.01199296127 0.2819084195 0.2699154582) 489 954 2
(0.2852738201 0.3573630899 0.1325396388 0.2248234511) 508 972 1
(0.3595218452 0.3202390774 0.1929798722 0.1272592052) 526 1022 2
(0.09150690915 0.316248152 0.1379983934 0.4542465454) 477 913 2
(0.1808752906 0.04437411159 0.3651882431 0.4095623547) 451 881 1
(0.2008990026 0.3995504987 0.2984926315 0.1010578672) 466 892 1
(0.7109912996 0.09697360457 0.1445043502 0.04753074565) 536 1041 1
(0.262027419 0.3689862905 0.1654538331 0.2035324574) 444 868 2
(0.02479743262 0.4876012837 0.2706668977 0.216934386) 459 878 1
(0.2014488366 0.2954742347 0.103801347 0.3992755817) 440 860 1
(0.8984041845 0.05079790775 0.0006677210864 0.05013018666) 608 1180 2
(0.2129740284 0.2889231855 0.3935129858 0.1045898003) 559 1087 2
(0.127593794 0.436203103 0.05827827662 0.3779248264) 496 965 2
(0.05591653749 0.4720417313 0.134791423 0.3372503083) 466 908 2
(0.356128114 0.04867429571 0.2732616473 0.321935943) 486 948 1
(0.0009469772615 0.2932733892 0.4995265114 0.2062531222) 456 892 2
(0.4973245461 0.251337727 0.05863169968 0.1927060273) 444 868 2
(0.7258117509 0.1370941246 0.08530475042 0.05178937414) 455 890 1
(0.3326648439 0.3336675781 0.2790143041 0.05465327402) 449 876 2
(0.5337735565 0.2331132217 0.1318718669 0.1012413549) 508 990 2
(0.1021806639 0.09731656896 0.3515930991 0.448909668) 459 2617 1
(0.2710679775 0.05426121594 0.3644660113 0.3102047953) 449 876 1
(0.6449105901 0.06353789671 0.1140068082 0.1775447049) 529 1011 2
(0.4902055008 0.2257527352 0.02914451435 0.2548972496) 475 909 2
(0.8321882114 0.05394804542 0.02995784888 0.0839058943) 446 872 1
(0.5401757285 0.2299121358 0.08808634266 0.1418257931) 489 954 1
(0.6469941165 0.05472647099 0.1217764708 0.1765029418) 578 1123 1
(0.05035233126 0.4748238344 0.3187406614 0.156083173) 466 892 1
(0.5237516226 0.2381241887 0.173249578 0.06487461068) 458 893 2
(0.2150251694 0.3924874153 0.3880308571 0.004456558157) 486 930 1
(0.7019769378 0.1490115311 0.09334323402 0.05566829706) 477 913 1
(0.04708092259 0.04257331678 0.4338862219 0.4764595387) 474 907 2
(0.4491137188 0.2754431406 0.0682351571 0.2072079835) 546 1063 1
(0.1082746831 0.4458626585 0.008577514151 0.4372851443) 507 988 2
(0.5081895367 0.2459052317 0.1704766818 0.07542854989) 546 1062 2
(0.07872606995 0.460636965 0.4027098694 0.05792709565) 519 2623 2
(0.3581737614 0.3209131193 0.09404864735 0.226864472) 608 1181 1
(0.5681353401 0.1757901636 0.04014216632 0.2159323299) 445 1303 1
(0.3083206567 0.3458396717 0.1562675128 0.1895721589) 528 1028 2
(0.338563755 0.3307181225 0.2970773954 0.03364072714) 453 883 2
(0.008867175511 0.4202096808 0.4955664122 0.07535673141) 472 919 1
(0.4505547458 0.2747226271 0.0006507816738 0.2740718454) 500 974 2
(0.3111845431 0.1150159384 0.22939179 0.3444077284) 445 1303 1
(0.04201607553 0.004212505298 0.4747794569 0.4789919622) 461 882 2
(0.1928963307 0.4035518347 0.1162928744 0.2872589603) 509 973 1
(0.184490959 0.4077545205 0.1204504209 0.2873040996) 455 889 2
(0.3561597852 0.2365153996 0.08540470782 0.3219201074) 447 874 1
(0.1493441858 0.4253279071 0.4218221552 0.003505751924) 446 872 2
(0.646332216 0.176833892 0.033319439 0.143514453) 607 1176 2
(0.2228294895 0.3207020352 0.06788322006 0.3885852553) 589 2630 1
(0.08859902383 0.4557004881 0.2520224063 0.2036780818) 518 1009 2
(0.7359363211 0.1320318395 0.106542468 0.02548937149) 587 1138 2
(0.1068053325 0.4465973337 0.2519584303 0.1946389035) 569 1087 1
(0.384206571 0.2631296474 0.3078967145 0.04476706711) 578 1124 2
(0.1924336163 0.2079120255 0.4037831918 0.1958711663) 618 1197 1
(0.8571937877 0.0662348202 0.07140310616 0.005168285959) 469 914 1
(0.1514947111 0.2588027851 0.1654498593 0.4242526444) 488 952 1
(0.4797875187 0.2601062406 0.1637733485 0.09633289215) 469 916 1
(0.3554941514 0.3222529243 0.2799403445 0.04231257986) 458 877 1
(0.1513408291 0.09580768559 0.3285218998 0.4243295854) 448 1306 1
(0.3140265036 0.3429867482 0.2733849321 0.06960181616) 448 876 2
(0.4758572363 0.1768448807 0.2620713818 0.08522650114) 444 869 2
(0.8205380027 0.08973099863 0.07922233698 0.01050866166) 498 971 2
(0.6053263538 0.1158888407 0.1973368231 0.08144798239) 539 1049 2
(0.072558171 0.4637209145 0.01407277663 0.4496481379) 568 1102 2
(0.04709336397 0.2027373964 0.2737159217 0.476453318) 527 1008 2
(0.3025959811 0.3487020094 0.2303398366 0.1183621728) 555 1080 1
(0.4564739615 0.2547226905 0.01704032875 0.2717630193) 468 914 1
(0.295102666 0.2014340079 0.352448667 0.1510146591) 446 873 2
(0.1783567168 0.3994960693 0.01132557232 0.4108216416) 456 891 1
(0.1404856275 0.4297571863 0.3858806634 0.04387652287) 448 876 2
(0.3853001798 0.01874314109 0.288606769 0.3073499101) 448 876 1
(0.5529175481 0.1708943976 0.223541226 0.05264682834) 447 872 1
(0.7517551568 0.1163132069 0.00780921467 0.1241224216) 499 2621 1
(0.4565050707 0.1293166299 0.2717474647 0.1424308347) 447 875 2
(0.08304054483 0.4584797276 0.11482252 0.3436572076) 449 1307 2
(0.4312822859 0.0118787665 0.2724800906 0.2843588571) 486 948 1
(0.003162426628 0.4984187867 0.2334014102 0.2650173765) 498 969 2
(0.6687173074 0.07495689403 0.1656413463 0.09068445227) 554 1075 1
(0.3683118036 0.04933440207 0.2665096961 0.3158440982) 441 1299 1
(0.3362674411 0.3144813813 0.0173848982 0.3318662795) 536 1043 1
(0.3882391171 0.1862874876 0.3058804415 0.1195929538) 499 973 2
(0.4082364315 0.2958817842 0.09065200799 0.2052297762) 487 950 2
(0.6447382233 0.1776308884 0.1562279887 0.02140289962) 462 903 1
(0.3048951247 0.3475524377 0.2913881641 0.05616427354) 482 922 1
(0.4492562216 0.1620204231 0.1133514661 0.2753718892) 474 907 2
(0.5430985602 0.1998572482 0.02859347166 0.2284507199) 483 924 2
(0.3883553627 0.273476674 0.3058223186 0.03234564459) 456 889 1
(0.04841625125 0.3615205248 0.1142713496 0.4757918744) 513 999 1
(0.2348467711 0.3825766145 0.04083951035 0.3417371041) 588 1143 1
(0.1313144774 0.02801407731 0.406328684 0.4343427613) 493 943 2
(0.197922695 0.4010386525 0.1319208396 0.269117813) 445 871 1
(0.150828655 0.4245856725 0.1291891492 0.2953965233) 489 954 1
(0.342526394 0.328736803 0.05411873778 0.2746180652) 535 1041 2
(0.5165456052 0.1883216719 0.2417271974 0.0534055255) 459 895 1
(0.2818964461 0.3590517769 0.2986577411 0.0603940358) 519 2623 2
(0.591597782 0.03201038248 0.204201109 0.1721907265) 448 877 2
(0.05369918027 0.4731504099 0.3274780328 0.1456723771) 502 978 2
(0.1888555017 0.4055722492 0.2623993216 0.1431729276) 474 926 1
(0.2470053007 0.08695115573 0.2895461939 0.3764973496) 464 888 2
(0.277059895 0.3614700525 0.2928310998 0.06863895264) 468 914 2
(0.6909674413 0.06978981455 0.1545162793 0.0847264648) 478 931 1
(0.8167494381 0.09162528096 0.03357466067 0.05805062029) 490 956 1
(0.2264461051 0.3867769475 0.0205949694 0.3661819781) 488 952 2
(0.1251174068 0.4374412966 0.339805654 0.09763564263) 457 894 1
(0.6851835193 0.04145232619 0.1159559142 0.1574082404) 447 1305 1
(0.04317490583 0.02816381911 0.450248728 0.4784125471) 453 885 1
(0.2690756339 0.06643572317 0.365462183 0.2990264599) 499 971 1
(0.2977678293 0.3511160853 0.1225685732 0.2285475121) 477 929 2
(0.04214313368 0.08087132148 0.3980571117 0.4789284332) 452 883 1
(0.54213864 0.06950231091 0.22893068 0.1594283691) 487 948 1
(0.2952087797 0.1436417144 0.3523956102 0.2087538958) 529 1028 1
(0.1405968927 0.2103553034 0.4297015537 0.2193462503) 448 874 1
(0.372706382 0.2997775922 0.313646809 0.01386921684) 487 951 2
(0.1741837837 0.4129081082 0.1371702183 0.2757378898) 475 925 2
(0.4279748345 0.2860125828 0.1512921845 0.1347203983) 458 893 2
(0.5462124629 0.1247703587 0.2268937686 0.1021234099) 597 1160 2
(0.1241799695 0.4379100153 0.3945650466 0.04334496871) 609 1182 1
(0.2538496452 0.2598221579 0.3730751774 0.1132530195) 578 1121 1
(0.775404066 0.112297967 0.0734620923 0.03883587472) 487 950 2
(0.4748064741 0.262596763 0.2153182243 0.04727853867) 469 914 2
(0.6735792555 0.1632103722 0.07177916065 0.09143121159) 484 942 2
(0.1497286082 0.2554715153 0.4251356959 0.1696641806) 445 871 2
(0.3041904464 0.0747332445 0.2731715323 0.3479047768) 479 2619 1
(0.5573107766 0.2213446117 0.1108067866 0.1105378251) 459 897 1
(0.032375933 0.4838120335 0.1669659749 0.3168460586) 447 874 2
(0.08930833885 0.4553458306 0.4053896901 0.04995614046) 495 947 1
(0.9168780163 0.040962272 0.0005987198744 0.04156099187) 469 2618 1
(0.223844863 0.3880775685 0.1673195758 0.2207579927) 456 889 2
(0.09945279126 0.4502736044 0.05694629322 0.3933273111) 496 968 1
(0.390439596 0.07850225024 0.304780202 0.2262779518) 479 933 1
(0.5651038767 0.2174480616 0.1194957747 0.09795228697) 444 868 2
(0.6665816652 0.1643180369 0.00239113056 0.1667091674) 508 972 2
(0.08302881931 0.4584855903 0.2872364396 0.1712491508) 509 973 1
(0.5367519329 0.2316240335 0.02194223613 0.2096817974) 472 922 1
(0.5216501418 0.2391749291 0.1302523674 0.1089225617) 575 1099 1
(0.5086845158 0.2456577421 0.07477400441 0.1708837377) 468 915 1
(0.01943313592 0.3485771461 0.490283432 0.1417062859) 568 1105 2
(0.7627062021 0.118646899 0.07319035942 0.04545653953) 589 1125 1
(0.7276198412 0.1057999064 0.1361900794 0.03039017307) 442 862 1
(0.5923291281 0.1365706959 0.06726473999 0.2038354359) 489 2620 1
(0.06732286073 0.023135689 0.4663385696 0.4432028806) 488 953 2
(0.343998897 0.1253241286 0.3280005515 0.2026764229) 455 890 2
(0.5984568902 0.2007715549 0.08838075573 0.1123907992) 473 921 2
(0.2984877536 0.1787343654 0.1720217578 0.3507561232) 447 1305 1
(0.08526757887 0.4257496284 0.03161658221 0.4573662106) 446 1304 1
(0.3148705705 0.06170087476 0.3425647147 0.28086384) 469 914 1
(0.4572628646 0.03338870683 0.2379798609 0.2713685677) 507 988 1
(0.2978164893 0.3510917553 0.2089218179 0.1421699375) 483 924 1
(0.07479703323 0.4626014834 0.2349789342 0.2276225492) 562 1092 2
(0.7162607878 0.1140009846 0.1418696061 0.02786862156) 457 894 2
(0.04805142932 0.07940264902 0.4759742853 0.3965716363) 517 1005 1
(0.1841648884 0.4079175558 0.3303485231 0.07756903276) 447 872 2
(0.2648452655 0.3675773673 0.2980677345 0.06950963279) 458 895 2
(0.1795011983 0.05024751398 0.4102494008 0.3600018869) 514 999 1
(0.05350002111 0.3840689209 0.0891810686 0.4732499894) 486 930 2
(0.5557083063 0.1296478774 0.09249796942 0.2221458469) 445 1303 1
(0.8072795267 0.09636023665 0.06728016104 0.02908007561) 448 874 2
(0.05756842733 0.1182913037 0.3529244826 0.4712157863) 459 878 2
(0.4355555243 0.2822222378 0.1630186058 0.119203632) 548 1048 1
(0.2111526868 0.3944236566 0.06351274923 0.3309109074) 449 2616 2
(0.01469874813 0.2603075127 0.2323431132 0.4926506259) 479 2619 1
(0.08968626169 0.4245791883 0.03057768083 0.4551568692) 567 1102 1
(0.337482118 0.331258941 0.1444174523 0.1868414887) 518 1007 2
(0.3761055425 0.3119472287 0.2933881655 0.01855906325) 477 931 2
(0.6897536602 0.1551231699 0.005851971411 0.1492711985) 488 952 2
(0.4245064522 0.1519242911 0.2877467739 0.1358224828) 446 870 1
(0.7708180786 0.1145909607 0.009295789664 0.105295171) 471 919 2
(0.02782058335 0.3309151443 0.4860897083 0.155174564) 119 238 2
(0.569620146 0.03768925161 0.1775006754 0.215189927) 458 895 1
(0.3020482281 0.348975886 0.04113674368 0.3078391423) 443 1301 2
(0.5565366232 0.2195289888 0.2217316884 0.002202699615) 503 981 2
(0.07016357792 0.1900106862 0.2749075248 0.464918211) 469 2618 1
(0.08680633722 0.3927005286 0.4565968314 0.06389630276) 448 874 1
(0.4137029145 0.2931485428 0.1061892424 0.1869593004) 453 885 2
(0.6707526423 0.1646236788 0.03266306301 0.1319606158) 498 971 2
(0.3639934207 0.006287249423 0.3117160402 0.3180032896) 489 2620 1
(0.3617872937 0.04313127559 0.2759750776 0.3191063532) 495 947 2
(0.9090967092 0.008478666263 0.03697297915 0.04545164541) 488 952 1
(0.6522197271 0.1681966802 0.005693456218 0.1738901364) 453 885 1
(0.1684528296 0.1252643429 0.4157735852 0.2905092423) 508 991 2
(0.2237615534 0.3881192233 0.1678790571 0.2202401662) 585 1136 2
(0.06306157377 0.3769762336 0.4684692131 0.09149297949) 547 1062 1
(0.4908392144 0.2545803928 0.01884189012 0.2357385027) 538 1029 1
(0.7358675185 0.1320662407 0.09174155595 0.04032468478) 529 2624 2
(0.2225778012 0.3887110994 0.1323595388 0.2563515605) 458 896 1
(0.4959999204 0.003738239979 0.2482617998 0.2520000398) 606 1176 1
(0.6544995763 0.1727502118 0.06912182749 0.1036283843) 619 1199 2
(0.3427551929 0.1137491311 0.2148732724 0.3286224035) 447 1305 1
(0.141587631 0.2991871101 0.4292061845 0.1300190744) 568 1102 1
(0.237141038 0.07179304965 0.381429481 0.3096364313) 614 1189 1
(0.6140497022 0.01208582041 0.1808893285 0.1929751489) 456 873 2
(0.4846485718 0.2576757141 0.06595069303 0.1917250211) 498 972 1
(0.6322382509 0.1838808746 0.1509781049 0.03290276968) 496 967 2
(0.1867263493 0.1282770204 0.2783598049 0.4066368253) 462 902 1
(0.05370231934 0.4731488403 0.2606734872 0.2124753531) 465 909 1
(0.1113504412 0.4443247794 0.3615924057 0.08273237364) 489 952 2
(0.4629197766 0.2685401117 0.2381583285 0.03038178321) 495 947 1
(0.505841786 0.05352794859 0.247079107 0.1935511584) 497 970 2
(0.117455049 0.4412724755 0.4187856923 0.02248678319) 499 971 2
(0.07066688259 0.4646665587 0.1254220055 0.3392445532) 518 1009 2
(0.6107388012 0.1946305994 0.008872418686 0.1857581807) 458 877 1
(0.7236832361 0.1381583819 0.09227160036 0.04588678158) 513 997 2
(0.5772864193 0.1183873158 0.2113567904 0.09296947459) 469 914 1
(0.5353704675 0.2323147663 0.1072892138 0.1250255525) 478 915 1
(0.1726390046 0.4136804977 0.317561927 0.09611857067) 487 932 1
(0.1066717276 0.4270824207 0.4466641362 0.01958171552) 484 945 2
(0.02729155682 0.416941159 0.0694130626 0.4863542216) 59 78 2
(0.03929455772 0.4803527211 0.08595095431 0.3944017668) 509 973 1
(0.8602504216 0.06987478918 0.01852078287 0.05135400631) 458 895 2
(0.3402876672 0.3298561664 0.2081833479 0.1216728185) 548 1048 1
(0.3462800186 0.3268599907 0.1926322717 0.134227719) 449 2616 2
(0.3535124758 0.2241710734 0.09907268867 0.3232437621) 488 952 1
(0.009458664166 0.4952706679 0.3314690589 0.163801609) 571 1107 2
(0.04955862255 0.4184310233 0.4752206887 0.0567896654) 515 1004 2
(0.2257960615 0.002112218319 0.3849897509 0.3871019693) 569 1087 2
(0.581890962 0.209054519 0.1614161942 0.04763832482) 627 1214 2
(0.04226008109 0.1374750431 0.3413949164 0.4788699595) 638 1237 1
(0.08736288284 0.4563185586 0.04328490728 0.4130336513) 609 1182 1
(0.2699567774 0.3650216113 0.1527723537 0.2122492576) 556 1079 2
(0.3730188515 0.3134905742 0.2754606823 0.03802989191) 579 1125 1
(0.1062313019 0.2428059003 0.2040784488 0.446884349) 637 1217 2
(0.2050170089 0.261384322 0.1361071736 0.3974914956) 598 1161 1
(0.02050166006 0.48974917 0.08462886156 0.4051203084) 479 2619 2
(0.08115322366 0.3973369605 0.4594233882 0.06208642765) 489 952 1
(0.4935960237 0.1116062088 0.1415957794 0.2532019881) 458 895 1
(0.4706318015 0.1166751045 0.2646840993 0.1480089947) 449 878 2
(0.3211121417 0.3394439292 0.1129020255 0.2265419036) 447 874 2
(0.5368563557 0.2315718222 0.01136083293 0.2202109892) 515 1004 1
(0.3956053937 0.1925915295 0.3021973031 0.1096057736) 478 934 2
(0.07749662146 0.229992028 0.2312596613 0.4612516893) 455 871 2
(0.4276175716 0.2065338407 0.07965737351 0.2861912142) 465 908 1
(0.169917004 0.4088960826 0.006145415402 0.415041498) 448 1306 1
(0.2291391118 0.04678890121 0.3386415429 0.3854304441) 485 946 1
(0.6304614109 0.1731328745 0.01163642007 0.1847692946) 534 1039 1
(0.20044449 0.399777755 0.1452752828 0.2545024722) 37 72 2
(0.3624644877 0.06658419952 0.2521835566 0.3187677562) 468 896 2
(0.07847665326 0.1929909222 0.2677707511 0.4607616734) 465 908 1