/*--------------------------------*- C++ -*----------------------------------*\
  =========                 |
  \\      /  F ield         | OpenFOAM: The Open Source CFD Toolbox
   \\    /   O peration     | Website:  https://openfoam.org
    \\  /    A nd           | Version:  7
     \\/     M anipulation  |
\*---------------------------------------------------------------------------*/
FoamFile
{
    version     2.0;
    format      ascii;
    class       Cloud<dsmcParcel>;
    location    "0.008/lagrangian/dsmc";
    object      positions;
}
// * * * * * * * * * * * * * * * * * * * * * * * * * * * * * * * * * * * * * //

5356
(
(0.6496302287 0.05726983982 0.1751848857 0.1179150458) 272 542 1
(0.4472260818 0.2763869591 0.1134921514 0.1628948077) 462 902 2
(0.8711018265 0.06444908676 0.004897525791 0.05955156097) 438 837 1
(0.06074602885 0.4696269856 0.003531841731 0.4660951438) 81 123 1
(0.2288470699 0.1952341714 0.1903422937 0.385576465) 454 887 1
(0.6045212841 0.04738987202 0.1977393579 0.1503494859) 394 789 2
(0.1771071614 0.04220480391 0.3692416154 0.4114464193) 334 668 1
(0.4653263728 0.09814055429 0.1691962593 0.2673368136) 213 426 1
(0.1751948362 0.4124025819 0.01285787373 0.3995447082) 428 817 1
(0.6885332767 0.02673178598 0.1290015757 0.1557333616) 262 485 2
(0.2840136714 0.2563169304 0.1016762339 0.3579931643) 335 670 1
(0.4720725351 0.2639637324 0.09766897021 0.1662947622) 454 888 1
(0.3243140437 0.1587317666 0.3378429781 0.1791112115) 401 800 1
(0.6487718161 0.04936970458 0.1262443874 0.175614092) 490 955 1
(0.2786293791 0.0647358775 0.2959494329 0.3606853104) 227 415 2
(0.1081003255 0.4459498373 0.08312013954 0.3628296977) 22 42 2
(0.5302820712 0.06435686772 0.2348589644 0.1705020967) 623 1209 2
(0.3210801474 0.1171983107 0.2222616156 0.3394599263) 231 423 2
(0.1461640798 0.4269179601 0.3967835788 0.03013438124) 190 341 1
(0.5004970821 0.1997437526 0.2497514589 0.05000770634) 504 980 1
(0.2155639972 0.3922180014 0.2823707914 0.10984721) 71 103 1
(0.1565421946 0.1085801304 0.3131487723 0.4217289027) 96 153 2
(0.05846171506 0.4707691425 0.4626094166 0.00815972588) 248 497 1
(0.1138855582 0.06593374918 0.4430572209 0.3771234717) 386 773 2
(0.1903532154 0.0621504107 0.3426729816 0.4048233923) 489 935 2
(0.9058765136 0.007913034847 0.03914870835 0.0470617432) 484 944 1
(0.3785295836 0.1490545183 0.3107352082 0.1616806899) 192 382 1
(0.1108333126 0.2666413654 0.1779419783 0.4445833437) 79 118 2
(0.2615711745 0.3692144127 0.2709932753 0.09822113746) 260 520 2
(0.4722675995 0.2638662003 0.1255901161 0.1382760842) 138 276 2
(0.3523452971 0.1185846491 0.2052427023 0.3238273514) 333 666 1
(0.08311250169 0.06799346838 0.4584437492 0.3904502808) 263 527 2
(0.0002514310601 0.4998742845 0.4358080584 0.06406622604) 49 59 1
(0.3100945927 0.3267120878 0.3449527037 0.01824061589) 12 25 2
(0.3160878698 0.3419560651 0.2254977054 0.1164583597) 253 507 1
(0.186142951 0.4069285245 0.000850826805 0.4060776977) 310 581 1
(0.2343919705 0.3828040148 0.2207993456 0.1620046692) 618 1181 1
(0.3774520037 0.3112739982 0.1359951765 0.1752788217) 332 664 2
(0.07369828513 0.4631508574 0.1826801005 0.280470757) 212 425 1
(0.5211553664 0.2394223168 0.1512578454 0.08816447141) 473 924 1
(0.6822940368 0.05966427181 0.09918870979 0.1588529816) 370 701 2
(0.2016461541 0.399176923 0.173843423 0.2253335) 456 892 1
(0.07493915063 0.4625304247 0.01147424096 0.4510561837) 311 583 1
(0.8109232788 0.0945383606 0.08424719379 0.01029116681) 393 747 1
(0.07216773186 0.4639161341 0.4488138714 0.01510226266) 541 1052 2
(0.2000878808 0.2933677346 0.3999560596 0.106588325) 513 997 1
(0.0658029378 0.4670985311 0.1932846193 0.2738139118) 255 510 2
(0.1569323508 0.4215338246 0.1595645613 0.2619692633) 480 199 2
(0.2080666471 0.3703563247 0.02561035172 0.3959666765) 151 302 1
(0.2984043026 0.3507978487 0.1008893266 0.2499085221) 208 414 2
(0.360644363 0.2807428582 0.3196778185 0.03893496028) 63 127 2
(0.2811804467 0.3594097767 0.2670003967 0.09240937993) 584 1116 1
(0.3028719029 0.2838203258 0.3485640485 0.06474372277) 187 375 2
(0.642064028 0.1239390762 0.05502890985 0.178967986) 620 1202 1
(0.2386943966 0.3140047193 0.3806528017 0.0666480824) 541 1053 2
(0.5029600951 0.2485199525 0.2130525569 0.03546739558) 197 395 1
(0.4390131707 0.2804934147 0.0239981718 0.2564952429) 507 986 2
(0.3593018592 0.183302878 0.1370461924 0.3203490704) 298 596 1
(0.3049727672 0.3475136164 0.08363690964 0.2638767067) 210 418 2
(0.3175712633 0.001212798963 0.3400015694 0.3412143683) 148 257 2
(0.12708133 0.436459335 0.3239980865 0.1124612485) 257 475 1
(0.3384628519 0.3307685741 0.2241240883 0.1066444857) 130 260 2
(0.008057505214 0.4959712474 0.1918877032 0.3040835442) 528 1010 1
(0.2465608666 0.3767195667 0.1935512059 0.1831683608) 186 373 1
(0.6009729008 0.04229357271 0.1995135496 0.1572199769) 342 682 1
(0.05450149247 0.07068175318 0.4020675006 0.4727492538) 66 132 1
(0.0009180984858 0.4995409508 0.005645388371 0.4938955624) 334 669 1
(0.02927433981 0.4853628301 0.3451981112 0.1401647189) 399 796 2
(0.7758432233 0.1120783883 0.1037964337 0.008281954684) 456 891 2
(0.6902176483 0.1548911759 0.1111432461 0.04374792979) 255 511 1
(0.2816217839 0.2896486596 0.359189108 0.06954044846) 373 747 2
(0.2366727485 0.3816636257 0.2336565834 0.1480070423) 68 136 2
(0.3786022686 0.1238228714 0.3106988657 0.1868759942) 453 886 2
(0.01786079655 0.4910696017 0.4417556931 0.04931390867) 397 795 1
(0.3907134056 0.3046432972 0.07120398244 0.2334393147) 570 1108 1
(0.474049531 0.1229471214 0.2629752345 0.1400281131) 441 863 2
(0.4115757935 0.2942121033 0.07039710709 0.2238149962) 641 1224 1
(0.5123242383 0.04143150215 0.2024063787 0.2438378808) 216 432 1
(0.02044117718 0.0976058832 0.3921735282 0.4897794114) 592 1149 1
(0.05796614001 0.47101693 0.3476611272 0.1233558028) 26 13 1
(0.2765051867 0.002112229994 0.3596351767 0.3617474067) 192 345 2
(0.1331129129 0.3114312022 0.1220123413 0.4334435435) 41 43 2
(0.2002117343 0.2274018358 0.172492297 0.3998941328) 632 1207 2
(0.07538660164 0.01840551963 0.4439011795 0.4623066992) 450 879 1
(0.443078212 0.278460894 0.240932454 0.03752843998) 528 1010 1
(0.4055443063 0.1474942349 0.2972278468 0.1497336119) 547 1062 1
(0.1020208224 0.3007055878 0.148284001 0.4489895888) 184 368 1
(0.2960103127 0.135984227 0.3519948437 0.2160106167) 30 58 1
(0.3259063336 0.0861145308 0.3370468332 0.2509323024) 138 274 1
(0.08310769664 0.2026855367 0.255760615 0.4584461517) 67 134 1
(0.7364908869 0.127703124 0.004051432513 0.1317545565) 256 512 1
(0.2985918498 0.09900949388 0.2516945812 0.3507040751) 285 570 1
(0.0583451889 0.374408602 0.4708274056 0.09641880357) 626 1215 2
(0.4282819997 0.1995340269 0.2858590001 0.08632497326) 352 705 2
(0.2823054031 0.134431987 0.2244153114 0.3588472984) 447 1305 1
(0.1966116554 0.362964035 0.0387301373 0.4016941723) 276 552 1
(0.2001135165 0.3999432418 0.3970187658 0.002924475942) 408 814 2
(0.672816188 0.163591906 0.1557466935 0.007845212466) 647 1236 1
(0.03730760929 0.2542127501 0.2271334452 0.4813461954) 101 163 2
(0.2859811281 0.357009436 0.2956357112 0.06137372474) 407 812 2
(0.5833259887 0.2083370056 0.1345000047 0.07383700091) 467 912 2
(0.2020352728 0.3463886936 0.3989823636 0.05259367003) 521 1015 2
(0.1804297602 0.3015495683 0.1082355516 0.4097851199) 248 496 1
(0.04019183496 0.1185245709 0.3613795116 0.4799040825) 180 360 1
(0.4188831262 0.2905584369 0.1421037427 0.1484546942) 545 1058 2
(0.3120395688 0.3439802156 0.1220934145 0.221886801) 249 496 2
(0.7765201293 0.1117399353 0.07381101988 0.03792891545) 458 896 1
(0.2727045982 0.3636477009 0.05901383808 0.3046338628) 279 559 2
(0.7771811674 0.0369301118 0.07447930448 0.1114094163) 270 501 2
(0.1292456033 0.4353771984 0.3228768333 0.112500365) 113 227 1
(0.1016698522 0.4491650739 0.3660458871 0.0831191868) 169 336 2
(0.1760523623 0.3045388604 0.1074349585 0.4119738189) 257 475 2
(0.2198193516 0.3900903242 0.09126721956 0.2988231046) 150 298 2
(0.3812076863 0.3093961568 0.09311164989 0.216284507) 71 142 2
(0.01145492927 0.2482239056 0.2460486297 0.4942725354) 270 540 1
(0.1810528386 0.3466427803 0.06283080039 0.4094735807) 172 305 2
(0.2966706771 0.2626566918 0.08900796971 0.3516646615) 493 943 2
(0.421186557 0.2894067215 0.05460630282 0.2348004187) 572 1112 1
(0.1305034849 0.4347482576 0.2243903171 0.2103579405) 210 421 1
(0.699733711 0.1501331445 0.0003898814651 0.149743263) 469 916 1
(0.8423440479 0.03862681295 0.04020116311 0.07882797605) 173 307 2
(0.6639064291 0.03364887213 0.1343979133 0.1680467854) 117 234 1
(0.3114183773 0.3442908114 0.02581351183 0.3184772995) 291 583 1
(0.8047818795 0.08339654546 0.09760906023 0.01421251477) 224 446 1
(0.3696094757 0.153170904 0.1620243582 0.3151952622) 278 517 2
(0.8404743235 0.07976283826 0.03813027586 0.0416325624) 197 392 2
(0.3349758136 0.3325120932 0.226084024 0.1064280691) 318 636 2
(0.4897959645 0.2551020177 0.1094956634 0.1456063543) 504 980 2
(0.07798301764 0.2723256246 0.1886828666 0.4610084912) 419 839 1
(0.4748301204 0.03211060964 0.2304743302 0.2625849398) 203 406 1
(0.1138676845 0.3921653645 0.05090079329 0.4430661578) 334 668 1
(0.005261961118 0.4973690194 0.2664472396 0.2309217799) 163 324 2
(0.2391331234 0.3804334383 0.208331086 0.1721023523) 310 620 2
(0.01072639934 0.4946368003 0.2275105361 0.2671262642) 439 859 2
(0.1081779102 0.4459110449 0.4426845069 0.003226537966) 195 391 1
(0.9376734263 0.03116328685 0.00984208043 0.02132120642) 309 616 2
(0.4285738953 0.2857130524 0.0391130263 0.2466000261) 322 644 2
(0.351004831 0.1714203148 0.1530772697 0.3244975845) 115 230 1
(0.3577629271 0.2127619616 0.1083565749 0.3211185365) 246 453 2
(0.3258923088 0.3370538456 0.1474183587 0.1896354869) 457 875 1
(0.3894675911 0.3052662044 0.149277902 0.1559883024) 481 939 1
(0.1091869962 0.4454065019 0.3491599652 0.09624653672) 622 1188 1
(0.4429862458 0.2785068771 0.004327594924 0.2741792822) 243 447 1
(0.2923941325 0.3538029338 0.1815639759 0.1722389579) 556 1063 1
(0.6841086014 0.05408847644 0.1579456993 0.1038572229) 331 663 2
(0.3967363945 0.3016318027 0.1403414931 0.1612903096) 648 1238 1
(0.6471810283 0.1764094858 0.08816452913 0.08824495671) 266 532 2
(0.4995053585 0.1032988388 0.1469484819 0.2502473207) 179 318 2
(0.07441877063 0.4627906147 0.2080987642 0.2546918505) 73 147 1
(0.140121792 0.429939104 0.07570877802 0.354230326) 170 301 1
(0.1459350256 0.4270324872 0.08239352626 0.3446389609) 254 508 2
(0.8671080815 0.01404966849 0.05239629077 0.06644595926) 268 536 1
(0.5375244325 0.1664858944 0.06475188937 0.2312377838) 149 259 2
(0.6216878293 0.06299953618 0.1891560854 0.1261565492) 196 393 2
(0.1786464048 0.4106767976 0.1296104341 0.2810663635) 458 895 2
(0.1804028808 0.4097985596 0.3226451809 0.08715337867) 86 133 1
(0.2518174711 0.2809051881 0.3740912645 0.09318607639) 117 235 2
(0.2835291691 0.3582354155 0.3403896863 0.01784572919) 12 24 2
(0.07102799229 0.4644860039 0.01223589855 0.4522501053) 372 742 2
(0.04929272068 0.01220998161 0.4631436581 0.4753536397) 619 1182 2
(0.3954321219 0.302283939 0.1530479352 0.1492360039) 295 588 2
(0.0193708482 0.4903145759 0.4696804478 0.02063412813) 260 481 1
(0.05553934198 0.3650427784 0.472230329 0.1071875506) 492 957 1
(0.4418324976 0.09680007653 0.2790837512 0.1822836746) 263 527 2
(0.5773454048 0.2113272976 0.1463596352 0.0649676624) 17 34 2
(0.3178440428 0.3256262741 0.3410779786 0.01545170454) 89 179 2
(0.1143631133 0.2521004245 0.4428184434 0.1907180189) 259 516 1
(0.2656256585 0.1275806196 0.3671871708 0.2396065512) 71 143 2
(0.2915909188 0.1157679507 0.3542045406 0.2384365899) 357 712 1
(0.890765682 0.05461715899 0.04469839279 0.009918766199) 350 701 1
(0.2619793433 0.3690103283 0.07218325377 0.2968270746) 267 535 1
(0.5000294869 0.2499852566 0.09487577695 0.1551094796) 190 378 2
(0.2529222286 0.3735388857 0.345649154 0.02788973175) 372 744 2
(0.2161854322 0.3919072839 0.1978282856 0.1940789983) 270 538 2
(0.4319553813 0.2166449757 0.06737733366 0.2840223094) 269 538 1
(0.3372362368 0.3313818816 0.2567725521 0.07460932954) 311 583 1
(0.3761922047 0.1112202682 0.3119038977 0.2006836294) 389 776 1
(0.2295992396 0.3852003802 0.05290918742 0.3322911928) 319 638 1
(0.138477248 0.3642145059 0.06654687015 0.430761376) 228 417 2
(0.7383066959 0.002443380741 0.1284032713 0.130846652) 556 1081 1
(0.4375654771 0.01433855355 0.2668787079 0.2812172615) 410 781 2
(0.2990854111 0.3504572945 0.3109577524 0.03949954209) 255 511 1
(0.7901517407 0.02184878057 0.1049241297 0.08307534909) 463 905 2
(0.3602681234 0.194945189 0.1249207492 0.3198659383) 461 882 2
(0.05095092736 0.4745245363 0.0001149690144 0.4744095673) 154 309 1
(0.1636726831 0.4181636584 0.4154935904 0.002670068065) 331 662 2
(0.1838921001 0.4080539499 0.03705245405 0.3710014959) 429 849 2
(0.242802789 0.3785986055 0.286292069 0.09230653645) 265 530 2
(0.1457056329 0.4271471836 0.3909634102 0.0361837734) 398 796 2
(0.512481966 0.1216313716 0.243759017 0.1221276454) 106 210 1
(0.5996650752 0.2001674624 0.04893957844 0.1512278839) 503 981 1
(0.7834494214 0.1082752893 0.05984621536 0.04842907394) 622 1204 2
(0.6247335022 0.1876332489 0.1057182456 0.08191500329) 441 863 1
(0.06221788387 0.4688910581 0.02949500473 0.4393960533) 462 884 1
(0.4261909618 0.2863502226 0.2869045191 0.0005542964799) 556 1082 2
(0.01025406599 0.08032457754 0.4145483895 0.494872967) 595 1137 2
(0.05630880713 0.4718455964 0.3267172423 0.1451283541) 158 316 2
(0.2794024869 0.3602987566 0.1148104696 0.245488287) 37 72 2
(0.8062331411 0.09688342946 0.04273173562 0.05415169383) 128 217 1
(0.06189196448 0.4690540178 0.3429356094 0.1261184084) 136 233 1
(0.7532420065 0.06517897445 0.05820002231 0.1233789968) 623 1190 2
(0.2321781488 0.3839109256 0.3437871104 0.04012381516) 653 1255 2
(0.2953516928 0.07395667911 0.3523241536 0.2783674745) 543 1054 1
(0.3459380898 0.3270309551 0.2243077968 0.1027231584) 233 466 2
(0.07368126629 0.3405550398 0.4631593669 0.1226043271) 454 885 1
(0.311068416 0.2118178044 0.1326479876 0.344465792) 450 879 1
(0.4247321787 0.114867187 0.1727667237 0.2876339106) 195 390 1
(0.05739592109 0.4713020395 0.1127923068 0.3585097327) 241 483 1
(0.7084297096 0.1457851452 0.1257448742 0.02004027103) 398 757 1
(0.1080665381 0.445966731 0.3857005146 0.06026621634) 274 546 2
(0.1604910699 0.419754465 0.3627621979 0.05699226717) 552 1074 1
(0.06079831083 0.4696008446 0.4116615672 0.05793927736) 203 407 1
(0.02582362884 0.4870881856 0.03948117057 0.447607015) 535 1023 1
(0.1400524885 0.1548850922 0.4299737557 0.2750886635) 399 796 1
(0.02870732586 0.4856463371 0.3667314905 0.1189148465) 233 464 2
(0.02853963007 0.3230406616 0.485730185 0.1626895234) 183 364 1
(0.57075904 0.124755172 0.21462048 0.08986530798) 251 503 2
(0.1675567616 0.4162216192 0.2602107462 0.156010873) 258 516 2
(0.1386226453 0.2924599488 0.4306886774 0.1382287286) 630 1222 2
(0.4363134253 0.2818432873 0.1853401159 0.09650317149) 522 1017 1
(0.1208210068 0.4395894966 0.2693603387 0.1702291579) 64 89 1
(0.6149703566 0.1925148217 0.08046237385 0.1120524479) 138 277 1
(0.08861189986 0.4556940501 0.1273204864 0.3283735637) 409 816 2
(0.06848477776 0.4657576111 0.1226587619 0.3430988492) 216 433 1
(0.7021881404 0.1489059298 0.08174085454 0.06716507525) 490 937 1
(0.641617972 0.179191014 0.164422113 0.01476890104) 189 378 2
(0.3161131117 0.3419434441 0.179949905 0.1619935391) 95 191 1
(0.4406430541 0.2796784729 0.1382258058 0.1414526671) 4 6 2
(0.47029864 0.238139572 0.26485068 0.02671110801) 295 591 2
(0.5550149427 0.1149773609 0.1075151678 0.2224925287) 38 37 2
(0.2857816546 0.2950769333 0.3571091727 0.0620322394) 207 412 1
(0.6506820606 0.1746589697 0.05761726216 0.1170417075) 76 153 1
(0.7077134369 0.1262193101 0.01992397142 0.1461432816) 540 1050 1
(0.3031862425 0.3484068788 0.2376582949 0.1107485838) 385 770 2
(0.0968227848 0.2286375557 0.4515886076 0.2229510519) 115 228 1
(0.3436318511 0.1778391105 0.3281840745 0.150344964) 174 346 1
(0.2896092545 0.01002200154 0.3551953728 0.3451733712) 335 671 2
(0.5989527747 0.2005236127 0.08831685531 0.1122067574) 253 507 1
(0.3421225593 0.02394634698 0.3289387204 0.3049923734) 349 699 2
(0.0536878663 0.0859208865 0.4731560669 0.3872351804) 497 967 1
(0.02945255527 0.005519129581 0.4852737224 0.4797545928) 76 150 1
(0.1930766497 0.4034616752 0.2962801227 0.1071815524) 641 1224 1
(0.5782885607 0.2108557197 0.1189728234 0.09188289627) 295 551 1
(0.1243099891 0.4277893407 0.4378450055 0.01005566471) 390 781 2
(0.3451022899 0.327448855 0.194262327 0.133186528) 590 1145 2
(0.3279854542 0.3360072729 0.09198240648 0.2440248664) 281 560 2
(0.6349949025 0.1825025487 0.006876835604 0.1756257131) 392 784 2
(0.4151322989 0.2924338506 0.148477781 0.1439560696) 214 389 1
(0.9902500325 0.004874983731 0.0004750966107 0.00439988712) 86 173 1
(0.09015447526 0.2452937707 0.4549227624 0.2096289917) 34 69 2
(0.1486256971 0.1281551403 0.2975320111 0.4256871515) 622 1188 2
(0.1583621029 0.4208189485 0.01958389336 0.4012350552) 353 707 1
(0.07894267591 0.3860416529 0.07448700918 0.460528662) 631 1223 1
(0.4133450668 0.2933274666 0.06575449309 0.2275729735) 139 279 2
(0.6429851338 0.02746510719 0.1510423259 0.1785074331) 644 1230 2
(0.4368412736 0.2815793632 0.09289768603 0.1886816772) 293 587 1
(0.06016930215 0.4699153489 0.4675949 0.002320448937) 326 650 2
(0.2810617832 0.3594691084 0.2574203005 0.1020488079) 65 130 2
(0.4161979282 0.2919010359 0.2485355807 0.04336545518) 132 262 2
(0.3877286468 0.3061356766 0.2754425437 0.0306931329) 98 197 1
(0.7739807248 0.1130096376 0.09515488797 0.01785474965) 166 293 1
(0.5603539493 0.1216266591 0.09819636621 0.2198230253) 170 301 2
(0.6093787309 0.1953106345 0.122746987 0.07256364753) 301 600 2
(0.7086192763 0.1456903618 0.09018633442 0.05550402741) 493 943 1
(0.1403531727 0.05382089193 0.3760025217 0.4298234137) 95 151 2
(0.6935803252 0.1446712697 0.1532098374 0.008538567694) 156 310 1
(0.04975598363 0.4751220082 0.1306703717 0.3444516365) 95 188 2
(0.3312641446 0.1191428168 0.3343679277 0.2152251109) 164 329 2
(0.4725505361 0.003464136828 0.263724732 0.2602605951) 460 899 2
(0.3342496742 0.02470975556 0.3328751629 0.3081654073) 595 1156 2
(0.2063499039 0.3968250481 0.09327296284 0.3035520852) 521 996 1
(0.4361553543 0.1171715029 0.2819223229 0.1647508199) 488 953 2
(0.3642398035 0.3178800982 0.1168741383 0.20100596) 366 730 2
(0.00635300589 0.1407982492 0.3560252478 0.4968234971) 607 1160 2
(0.5434251046 0.2282874477 0.06839752822 0.1598899195) 471 919 2
(0.0474740808 0.4762629596 0.4546729467 0.02159001285) 548 1064 2
(0.3284117113 0.3357941444 0.1294308066 0.2063633378) 481 939 1
(0.007585634552 0.4962071827 0.009068793539 0.4871383892) 512 995 2
(0.139579115 0.1317710093 0.4302104425 0.2984394332) 153 307 2
(0.08451698922 0.4577415054 0.339473433 0.1182680724) 155 271 1
(0.3386364227 0.3306817887 0.2439470693 0.0867347194) 227 415 1
(0.5421558858 0.1231922493 0.2289220571 0.1057298078) 334 666 1
(0.1918776046 0.4040611977 0.08436581045 0.3196953873) 368 737 1
(0.2854597212 0.3572701394 0.03465909604 0.3226110434) 490 239 2
(0.348197754 0.325901123 0.06872793659 0.2571731864) 517 989 1
(0.1911763389 0.1745560414 0.4044118306 0.2298557892) 92 185 2
(0.3331581973 0.0674625352 0.3334209014 0.2659583662) 226 450 1
(0.3157587605 0.3421206197 0.1491450164 0.1929756034) 145 251 1
(0.2799184807 0.1198260856 0.2402146741 0.3600407597) 626 1214 1
(0.7071676536 0.0006443264465 0.1457718468 0.1464161732) 37 35 2
(0.3559849631 0.2776194228 0.3220075184 0.0443880956) 215 428 1
(0.1600442484 0.4199778758 0.329807937 0.09016993879) 79 159 2
(0.08206261299 0.4589686935 0.3450990546 0.1138696389) 302 602 2
(0.4066911411 0.1148298368 0.2966544294 0.1818245926) 359 716 1
(0.2300959605 0.06780418934 0.3849520197 0.3171478304) 373 744 1
(0.5209408821 0.2395295589 0.0441919079 0.195337651) 176 350 2
(0.04666861626 0.4766656919 0.169084164 0.3075815279) 556 1063 1
(0.671912772 0.05702057247 0.164043614 0.1070230415) 237 472 1
(0.2755707244 0.3622146378 0.1151442102 0.2470704276) 229 419 1
(0.09285607657 0.4535719617 0.3408771939 0.1126947678) 276 513 1
(0.2447543141 0.377622843 0.3641284037 0.01349443924) 5 10 2
(0.5582282192 0.09828686251 0.1225990279 0.2208858904) 213 387 2
(0.1632676771 0.4183661614 0.3517473266 0.0666188348) 195 388 2
(0.6051673419 0.06033400819 0.1370823209 0.197416329) 89 178 1
(0.2623750002 0.3688124999 0.04877882107 0.3200336788) 111 222 2
(0.6698126303 0.1650936849 0.04044956301 0.1246441219) 396 793 1
(0.3679258472 0.01776460575 0.2982724706 0.3160370764) 569 1087 2
(0.5069568831 0.2465215585 0.1480709682 0.09845059027) 278 557 1
(0.198041515 0.4009792425 0.231448998 0.1695302445) 421 803 1
(0.04680176317 0.3615818864 0.115017232 0.4765991184) 430 821 2
(0.2817593554 0.2159279394 0.3591203223 0.1431923829) 296 590 1
(0.2441194233 0.352214302 0.02572598633 0.3779402883) 316 632 1
(0.06243286172 0.4687835691 0.2206025343 0.2481810348) 464 888 1
(0.1909090457 0.4045454772 0.1526138877 0.2519315894) 190 380 2
(0.299294984 0.350352508 0.1851433397 0.1652091684) 172 345 1
(0.09175037976 0.4541248101 0.1935585878 0.2605662223) 298 596 2
(0.2634448894 0.3682775553 0.1449790989 0.2232984564) 193 386 2
(0.04983998478 0.4750800076 0.01868563423 0.4563943734) 445 1303 2
(0.04977408976 0.4751129551 0.02068102245 0.4544319327) 193 387 1
(0.007646538693 0.4961767307 0.01783271068 0.47834402) 231 423 1
(0.6712782488 0.1643608756 0.08974224878 0.0746186268) 83 167 1
(0.3848392729 0.3075803635 0.2342305396 0.07334982389) 525 1023 1
(0.223601673 0.3881991635 0.36956476 0.01863440354) 244 486 2
(0.2021711839 0.3989144081 0.259479481 0.1394349271) 232 425 1
(0.1582333174 0.4208833413 0.367707749 0.05317559228) 164 328 2
(0.4158153111 0.1072057037 0.1848866408 0.2920923445) 375 711 2
(0.4536571581 0.2731714209 0.0496651473 0.2235062736) 531 1033 2
(0.1229427888 0.2941435338 0.4385286056 0.1443850718) 182 365 2
(0.2426160203 0.3786919899 0.1391005043 0.2395914856) 478 915 1
(0.2954238019 0.1228262238 0.3522880991 0.2294618753) 277 555 2
(0.2778876253 0.1782046752 0.3610561874 0.1828515122) 383 767 2
(0.01417202124 0.4929139894 0.4870448733 0.005869116085) 611 1167 1
(0.236396269 0.1658390312 0.3818018655 0.2159628343) 333 667 2
(0.0441501014 0.2953157361 0.4779249493 0.1826092132) 67 135 2
(0.8595061511 0.03610381661 0.03414310785 0.07024692445) 14 1292 1
(0.6291105256 0.1854447372 0.08494726173 0.1004974755) 289 579 1
(0.1427006648 0.4229107414 0.005738926202 0.4286496676) 254 469 2
(0.6130229696 0.02844265702 0.1934885152 0.1650458582) 310 618 1
(0.1829144197 0.3104239769 0.4085427901 0.09811881321) 339 678 2
(0.4815580644 0.09278633519 0.2592209678 0.1664346326) 352 702 1
(0.3220643174 0.2236522483 0.3389678413 0.115315593) 200 401 2
(0.4097696261 0.06222112229 0.2328940647 0.295115187) 513 999 1
(0.3016100206 0.3491949897 0.08758127961 0.2616137101) 149 299 1
(0.6743342442 0.1628328779 0.16282438 8.497871123e-06) 283 566 2
(0.1463978392 0.4268010804 0.2685818236 0.1582192568) 163 324 2
(0.5874794829 0.2062602586 0.06501722925 0.1412430293) 86 133 1
(0.2476223255 0.3761888373 0.3285196732 0.04766916409) 92 185 1
(0.4901795931 0.01888598228 0.2360242212 0.2549102034) 557 1083 1
(0.1133425805 0.3160287977 0.4433287097 0.127299912) 493 962 2
(0.5094759856 0.2452620072 0.120521836 0.1247401712) 205 371 1
(0.720513122 0.139743439 0.0004393267285 0.1393041122) 581 1126 2
(0.8386667639 0.07911169923 0.001554918803 0.08066661804) 397 794 1
(0.2731497721 0.1691427808 0.363425114 0.1942823332) 110 221 2
(0.06605374917 0.4669731254 0.05687438868 0.4100987367) 570 1089 1
(0.333300911 0.1465157931 0.3333495445 0.1868337514) 194 386 1
(0.02210826905 0.4227485016 0.06619736386 0.4889458655) 380 760 1
(0.350034571 0.0797721429 0.2452105716 0.3249827145) 229 419 2
(0.238155959 0.3599926129 0.0209294076 0.3809220205) 338 676 1
(0.4585876386 0.0615618418 0.2091443389 0.2707061807) 61 83 2
(0.4833483384 0.2583258308 0.1125284323 0.1457973985) 465 908 2
(0.2393298658 0.3803350671 0.179746355 0.2005887121) 277 555 1
(0.1635820395 0.1645749599 0.4182089803 0.2536340203) 288 577 2
(0.1758997601 0.2049310679 0.4120501199 0.2071190521) 369 739 2
(0.164136656 0.417931672 0.1635792572 0.2543524147) 100 200 2
(0.6350495335 0.1824752333 0.0133660389 0.1691091944) 270 541 1
(0.6458807489 0.04074517662 0.1363144489 0.1770596255) 598 1143 2
(0.4876395698 0.2561802151 0.2326991396 0.02348107556) 250 461 1
(0.2900570498 0.3549714751 0.2623331213 0.09263835373) 583 1114 1
(0.7799748941 0.110012553 0.02340425072 0.08660830224) 650 859 2
(0.2047641087 0.004578625818 0.3930393198 0.3976179456) 567 1102 1
(0.2506297836 0.3746851082 0.249541541 0.1251435672) 575 1099 1
(0.3215870564 0.3392064718 0.1790435947 0.1601628771) 417 795 1
(0.5586189404 0.1329768043 0.08771372553 0.2206905298) 611 1167 2
(0.3737731958 0.2170532315 0.09606017059 0.3131134021) 463 886 2
(0.8668030513 0.02486926647 0.06659847433 0.04172920786) 162 322 1
(0.03590490916 0.4820475454 0.1125211961 0.3695263493) 496 967 2
(0.3078733157 0.3460633422 0.19121805 0.1548452922) 560 1089 1
(0.1288138856 0.3801753755 0.05541768166 0.4355930572) 337 674 1
(0.2739405098 0.3630297451 0.1322885144 0.2307412307) 406 810 2
(0.2653214059 0.1562208398 0.3673392971 0.2111184573) 15 31 2
(0.2722213269 0.308314195 0.05557514156 0.3638893365) 289 539 2
(0.6255613093 0.1484566991 0.1872193453 0.03876264625) 324 646 1
(0.02463818268 0.2624757276 0.2252051811 0.4876809087) 527 1026 1
(0.2476548742 0.3550569866 0.3761725629 0.02111557632) 407 812 1
(0.5362096405 0.2318951797 0.1484434854 0.08345169435) 126 252 2
(0.5398737566 0.2300631217 0.1222651965 0.1077979252) 298 596 2
(0.05747573887 0.4712621306 0.003451947113 0.4678101835) 326 652 2
(0.7628312557 0.04422653652 0.07435783565 0.1185843722) 194 388 1
(0.3581129955 0.2357228688 0.3209435023 0.08522063346) 530 1032 2
(0.1939707462 0.4030146269 0.05072531385 0.3522893131) 270 501 1
(0.2925022878 0.3347270258 0.3537488561 0.01902183028) 312 625 2
(0.6987094785 0.07569103459 0.1506452608 0.07495422616) 386 773 2
(0.616557632 0.191721184 0.1670724402 0.02464874379) 210 381 1
(0.1655826718 0.4172086641 0.2650643538 0.1521443104) 168 297 1
(0.1182720987 0.4408639506 0.03601064322 0.4048533074) 362 722 2
(0.1218779767 0.4390610117 0.1771341322 0.2619268795) 218 437 1
(0.08671056723 0.4566447164 0.2162117833 0.2404329331) 639 1239 1
(0.5535894515 0.1339398213 0.2232052743 0.08926545299) 212 425 2
(0.4883110352 0.221269117 0.2558444824 0.03457536537) 85 171 2
(0.2666940061 0.1255871105 0.2410658865 0.3666529969) 175 350 1
(0.1319337357 0.4340331321 0.4145712738 0.01946185835) 289 578 2
(0.2491780641 0.05773330869 0.3176776592 0.3754109679) 251 463 2
(0.1663263187 0.2038211202 0.2130157204 0.4168368406) 536 1025 2
(0.3787473321 0.3106263339 0.1169342142 0.1936921197) 348 697 1
(0.08565341911 0.1411377016 0.4571732904 0.3160355888) 591 1145 1
(0.4291022189 0.2854488906 0.1830920889 0.1023568016) 189 378 2
(0.1094417591 0.4452791204 0.1579909688 0.2872881516) 497 967 2
(0.1941151211 0.4029424395 0.1459756739 0.2569667656) 79 159 2
(0.07895449266 0.4605227537 0.113075855 0.3474468986) 254 509 1
(0.3240796942 0.3379601529 0.1028752287 0.2350849242) 540 1050 2
(0.5387106232 0.2306446884 0.1778231318 0.05282155664) 262 525 1
(0.09799315727 0.4510034214 0.06126406381 0.3897393576) 230 461 1
(0.4383354034 0.2808322983 0.2655539352 0.01527836313) 355 710 2
(0.7150784941 0.1124002938 0.142460753 0.03006045915) 617 1195 1
(0.3137073121 0.343146344 0.2738816356 0.06926470837) 412 825 1
(0.0256529578 0.007782501386 0.4871735211 0.4793910197) 103 207 2
(0.1744960778 0.4127519611 0.3800389399 0.0327130212) 596 1155 2
(0.2154193985 0.3315885651 0.3922903007 0.06070173567) 112 225 2
(0.1655482521 0.02600389216 0.3912219818 0.417225874) 573 1113 1
(0.5069825333 0.149200798 0.09730793533 0.2465087333) 393 786 1
(0.1069711174 0.08416221406 0.3623522272 0.4465144413) 228 417 2
(0.3218014316 0.3390992842 0.2043764912 0.134722793) 349 696 2
(0.2042802174 0.378511611 0.01934828029 0.3978598913) 398 796 1
(0.1593572133 0.4168328633 0.4203213933 0.003488530012) 594 1154 2
(0.5789559415 0.1992885576 0.2105220292 0.01123347166) 346 690 1
(0.4594576895 0.2702711553 0.1943673509 0.0759038044) 2 1280 2
(0.4026219303 0.2413925433 0.05729649154 0.2986890348) 477 913 2
(0.4363231097 0.1966394365 0.2818384451 0.08519900867) 14 26 1
(0.02531659442 0.4873417028 0.2084222152 0.2789194876) 258 514 2
(0.3711973941 0.314401303 0.07396286167 0.2404384413) 578 1121 2
(0.8199246738 0.0900376631 0.02280519122 0.06723247188) 144 249 1
(0.09590391606 0.219077169 0.2329708729 0.452048042) 514 1001 1
(0.7088918345 0.1455540827 0.01151411664 0.1340399661) 404 808 2
(0.2620865172 0.3689567414 0.02522617917 0.3437305622) 380 760 2
(0.149272114 0.425363943 0.2992743124 0.1260896307) 294 588 2
(0.5873964498 0.2063017751 0.05872686028 0.1475749148) 11 1289 2
(0.5826717589 0.1164883524 0.2086641205 0.09217576815) 211 423 2
(0.2172528887 0.2042425494 0.1871310062 0.3913735556) 257 514 1
(0.4399183042 0.2800408479 0.210386712 0.06965413587) 586 1136 2
(0.8545060185 0.07274699076 0.03034343523 0.04240355553) 643 1228 1
(0.1467606818 0.3975132467 0.4266196591 0.02910641237) 267 535 2
(0.5755470809 0.1295828748 0.08264358471 0.2122264595) 232 464 1
(0.5098113221 0.1199358814 0.245094339 0.1251584576) 533 1038 2
(0.483668457 0.04155456853 0.2581657715 0.216611203) 456 892 2
(0.1993893358 0.4003053321 0.3218734321 0.07843189999) 269 538 2
(0.8491240648 0.0754379676 0.03873525387 0.03670271373) 522 1016 2
(0.05614718191 0.3701115344 0.1018148747 0.471926409) 62 124 1
(0.5025008915 0.1920908069 0.05665874735 0.2487495543) 253 467 2
(0.1465865249 0.01931497063 0.4267067375 0.4073917669) 477 929 1
(0.2604610544 0.3697694728 0.2432045458 0.126564927) 63 126 2
(0.7105378828 0.06427712027 0.08045393833 0.1447310586) 139 279 1
(0.3086706509 0.2079723387 0.1376923358 0.3456646745) 366 693 2
(0.01060555809 0.486457169 0.494697221 0.008240051958) 508 991 2
(0.5665424867 0.2167287567 0.05125533437 0.1654734223) 396 790 2