/*--------------------------------*- C++ -*----------------------------------*\
  =========                 |
  \\      /  F ield         | OpenFOAM: The Open Source CFD Toolbox
   \\    /   O peration     | Website:  https://openfoam.org
    \\  /    A nd           | Version:  7
     \\/     M anipulation  |
\*---------------------------------------------------------------------------*/
FoamFile
{
    version     2.0;
    format      ascii;
    class       volScalarField;
    location    "0.00144";
    object      dsmcSigmaTcRMax;
}
// * * * * * * * * * * * * * * * * * * * * * * * * * * * * * * * * * * * * * //

dimensions      [0 3 -1 0 0 0 0];

internalField   nonuniform List<scalar> 
125
(
1.00535e-15
9.80934e-16
9.95091e-16
9.95399e-16
9.87057e-16
9.58409e-16
1.01273e-15
9.75825e-16
1.04046e-15
1.0001e-15
9.78558e-16
9.7886e-16
9.62344e-16
1.00347e-15
9.8925e-16
9.70107e-16
9.8506e-16
9.67914e-16
9.75936e-16
1.00414e-15
9.69657e-16
9.85168e-16
9.72935e-16
9.67749e-16
9.96541e-16
9.99466e-16
9.7353e-16
9.69338e-16
9.91419e-16
9.76278e-16
9.78914e-16
9.83556e-16
9.76156e-16
9.74844e-16
9.6241e-16
9.65985e-16
9.73002e-16
1.02846e-15
1.00759e-15
9.7288e-16
9.79539e-16
1.02113e-15
1.00532e-15
9.88815e-16
9.67719e-16
9.83101e-16
9.88041e-16
9.87814e-16
9.88107e-16
9.8194e-16
9.97925e-16
9.7761e-16
1.00294e-15
9.81908e-16
1.00676e-15
9.72114e-16
9.65226e-16
1.00624e-15
9.82886e-16
9.7888e-16
9.69294e-16
9.84532e-16
9.73301e-16
9.75168e-16
9.5456e-16
9.7415e-16
1.00413e-15
9.78832e-16
9.67686e-16
9.72936e-16
9.75917e-16
9.95166e-16
9.75625e-16
9.91466e-16
1.01089e-15
9.60548e-16
9.91168e-16
9.68144e-16
9.55557e-16
9.66544e-16
9.75093e-16
9.96699e-16
9.67437e-16
9.9887e-16
9.72895e-16
9.6206e-16
1.05184e-15
9.7766e-16
9.7649e-16
9.7994e-16
9.5061e-16
1.02018e-15
9.51219e-16
9.55955e-16
9.86479e-16
1.01825e-15
9.46384e-16
9.7686e-16
9.66327e-16
9.73906e-16
9.63826e-16
9.66042e-16
9.79886e-16
9.53525e-16
9.63146e-16
9.49394e-16
9.65973e-16
9.40651e-16
9.62448e-16
9.84867e-16
9.78812e-16
9.48627e-16
9.60904e-16
9.41747e-16
9.96778e-16
9.45248e-16
9.69143e-16
9.52672e-16
9.51505e-16
9.81438e-16
9.48883e-16
9.39265e-16
9.10134e-16
9.62919e-16
9.27624e-16
)
;

boundaryField
{
    sides
    {
        type            symmetry;
    }
    empty
    {
        type            empty;
    }
    procBoundary1to0
    {
        type            processor;
        value           uniform 9.90716e-16;
    }
    procBoundary1to2
    {
        type            processor;
        value           uniform 9.07309e-16;
    }
}


// ************************************************************************* //
