/*--------------------------------*- C++ -*----------------------------------*\
  =========                 |
  \\      /  F ield         | OpenFOAM: The Open Source CFD Toolbox
   \\    /   O peration     | Website:  https://openfoam.org
    \\  /    A nd           | Version:  7
     \\/     M anipulation  |
\*---------------------------------------------------------------------------*/
FoamFile
{
    version     2.0;
    format      ascii;
    class       volScalarField;
    location    "0.00144";
    object      dsmcRhoN;
}
// * * * * * * * * * * * * * * * * * * * * * * * * * * * * * * * * * * * * * //

dimensions      [0 -3 0 0 0 0 0];

internalField   nonuniform List<scalar> 
125
(
218
281
256
262
238
287
254
240
243
238
266
253
245
240
233
243
245
270
287
248
256
250
260
235
254
276
265
254
225
254
246
294
264
247
261
230
248
231
288
266
258
231
270
225
249
243
273
251
231
260
242
256
259
249
250
260
245
272
224
239
245
274
235
235
212
270
240
224
216
239
206
227
248
224
205
178
213
197
199
189
195
213
178
183
199
173
179
180
191
200
185
191
150
180
179
173
178
159
159
158
148
167
162
155
120
135
133
133
135
129
140
135
117
139
132
140
123
122
133
149
126
145
126
115
133
)
;

boundaryField
{
    sides
    {
        type            symmetry;
    }
    empty
    {
        type            empty;
    }
    procBoundary1to0
    {
        type            processor;
        value           uniform 238;
    }
    procBoundary1to2
    {
        type            processor;
        value           uniform 114;
    }
}


// ************************************************************************* //
