/*--------------------------------*- C++ -*----------------------------------*\
  =========                 |
  \\      /  F ield         | OpenFOAM: The Open Source CFD Toolbox
   \\    /   O peration     | Website:  https://openfoam.org
    \\  /    A nd           | Version:  7
     \\/     M anipulation  |
\*---------------------------------------------------------------------------*/
FoamFile
{
    version     2.0;
    format      ascii;
    class       volScalarField;
    location    "0.00144";
    object      internalE;
}
// * * * * * * * * * * * * * * * * * * * * * * * * * * * * * * * * * * * * * //

dimensions      [1 -1 -2 0 0 0 0];

internalField   nonuniform List<scalar> 
125
(
983.99
1239.64
1233.69
1174.01
1112.91
1217.38
1167.59
1122.26
1016.38
1095.92
1073.98
1223.09
1077.58
1128.49
1071.7
1036.94
1009.68
1158.07
1108.14
1078.82
1209.6
1122.12
1179.03
957.689
1094.39
1181.09
1201.34
1079.27
996.677
1092.35
1061.75
1142.43
1010.08
1014.55
1155.11
1021.45
1145.9
1015.11
1361.37
1265.86
1043.35
936.626
1161.15
1041.61
1129.96
1039.61
1164.27
1031.6
978.018
1164.17
1031.07
1182.73
1194.72
1062.03
1131.18
1150.34
1063.78
1265.14
971.911
917.671
1083.86
1119.3
939.098
959.373
940.819
1133.62
1106.06
987.305
907.269
1015.58
898.256
1081.28
1003.84
926.974
985.33
796.913
796.12
791.457
766.481
817.004
819.621
818.038
672.439
693.604
717.791
727.274
711.689
659.475
783.235
825.802
668.405
753.985
520.294
767.998
638.092
686.773
598.978
552.016
501.991
589.998
535.46
556.152
552.137
571.803
420.072
467.51
566.615
491.856
455.648
443.4
450.939
516.685
404.315
505.252
446.393
423.833
407.685
434.081
379.18
519.146
433.203
476.96
393.898
346.402
387.538
)
;

boundaryField
{
    sides
    {
        type            symmetry;
    }
    empty
    {
        type            empty;
    }
    procBoundary1to0
    {
        type            processor;
        value           uniform 987.792;
    }
    procBoundary1to2
    {
        type            processor;
        value           uniform 347.791;
    }
}


// ************************************************************************* //
