/*--------------------------------*- C++ -*----------------------------------*\
  =========                 |
  \\      /  F ield         | OpenFOAM: The Open Source CFD Toolbox
   \\    /   O peration     | Website:  https://openfoam.org
    \\  /    A nd           | Version:  7
     \\/     M anipulation  |
\*---------------------------------------------------------------------------*/
FoamFile
{
    version     2.0;
    format      ascii;
    class       volScalarField;
    location    "0.00144";
    object      linearKE;
}
// * * * * * * * * * * * * * * * * * * * * * * * * * * * * * * * * * * * * * //

dimensions      [1 -1 -2 0 0 0 0];

internalField   nonuniform List<scalar> 
125
(
1508.2
1611.89
1712.04
1663.12
1674.39
1651.82
1593.13
1564.92
1694.73
1718.47
1451.7
1677.43
1650.09
1633.56
1665.95
1703
1649.57
1703.06
1764.81
1770.39
1779.93
1547.49
1679.41
1719.97
1547.15
1592.8
1484.4
1612.54
1831.16
1457.72
1554.38
1867.13
1827.51
1796.38
1583.61
1545.35
1758.6
1664.65
1581.9
1626.28
1710.28
1780.73
1674.88
1931.09
1685.91
1495.17
1540.03
1710.26
1665.53
1804.18
1422.74
1709.65
1745.4
1485.52
1623.53
1570.23
1688.57
1714.82
1723.66
1710.52
1376.88
1605.63
1878.4
1667.45
1642.91
1711.58
1500.51
1257.77
1546.22
1367.83
1503.64
1441.17
1454.9
1231.71
1491.88
1356.99
1543.76
1375.86
1264.38
1298.09
1150.23
1285.37
925.85
1327.51
1196.4
1100.36
1150.71
1087.32
1173.93
1157.02
1127.31
1083.23
1104.52
1159.95
1148.06
1023.14
716.562
1065.74
806.739
1053.43
952.5
891.097
886.67
871.575
900.062
849.947
796.691
883.132
876.878
828.128
889.576
866.365
850.917
944.675
878.223
757.104
848.932
932.879
902.821
736.776
746.061
738.602
883.419
739.813
831.361
)
;

boundaryField
{
    sides
    {
        type            symmetry;
    }
    empty
    {
        type            empty;
    }
    procBoundary1to0
    {
        type            processor;
        value           uniform 1608.13;
    }
    procBoundary1to2
    {
        type            processor;
        value           uniform 777.104;
    }
}


// ************************************************************************* //
