/*--------------------------------*- C++ -*----------------------------------*\
  =========                 |
  \\      /  F ield         | OpenFOAM: The Open Source CFD Toolbox
   \\    /   O peration     | Website:  https://openfoam.org
    \\  /    A nd           | Version:  7
     \\/     M anipulation  |
\*---------------------------------------------------------------------------*/
FoamFile
{
    version     2.0;
    format      ascii;
    class       volVectorField;
    location    "0.00144";
    object      momentum;
}
// * * * * * * * * * * * * * * * * * * * * * * * * * * * * * * * * * * * * * //

dimensions      [1 -2 -1 0 0 0 0];

internalField   nonuniform List<vector> 
125
(
(0.128816 0.000898152 0.0322483)
(0.00778679 -0.0851449 0.00871039)
(-0.0298346 -0.0114892 0.183625)
(-0.0270274 -0.0304681 0.179766)
(-0.0362303 0.191092 0.0564129)
(-0.093803 0.227349 0.0551396)
(-0.046047 0.0280392 -0.0632339)
(-0.0858596 0.125387 0.0193104)
(0.125737 -0.0645344 0.250986)
(-0.0726811 -0.137407 0.0617835)
(0.171466 -0.0819728 0.124967)
(-0.135275 0.129319 -0.000854013)
(-0.0897037 -0.0305735 -0.199322)
(-0.0172721 -0.0696793 -0.151521)
(-0.271793 0.00381609 0.1249)
(-0.0333647 0.0626173 -0.117585)
(0.191163 -0.124892 0.107258)
(0.356631 -0.050304 -0.149115)
(0.0698992 0.0614905 0.104194)
(-0.282783 0.249653 0.244792)
(-0.306243 -0.328057 -0.179099)
(0.0764937 -0.0399983 0.00791268)
(-0.0354993 0.0231698 -0.0388332)
(-0.0748444 0.0405933 -0.0450743)
(0.00827232 -0.00814588 -0.0262905)
(-0.0343702 -0.212321 0.0832281)
(-0.17228 0.2232 0.0753751)
(-0.0448231 -0.227639 0.285689)
(0.054295 -0.117692 0.216067)
(-0.0129465 -0.0269293 0.0554622)
(0.242711 -0.182188 0.138636)
(0.048166 -0.333893 -0.165191)
(-0.212312 -0.00936938 -0.0425706)
(0.0266801 0.208921 -0.15055)
(-0.0421774 -0.156621 -0.133574)
(0.0524288 0.221655 0.053807)
(0.130789 -0.0766295 0.037757)
(0.0696092 0.0871965 -0.0613877)
(-0.019561 -0.0191789 -0.157484)
(0.0699481 0.0759165 0.0483877)
(0.0841837 -0.0821572 -0.0221907)
(-0.0610119 -0.242956 -0.107288)
(0.0293832 0.121665 -0.0219331)
(-0.277771 -0.0340139 -0.0063346)
(-0.0440223 0.0150703 -0.0658731)
(-0.0376168 0.179846 0.0181559)
(0.0866764 -0.0330539 -0.252799)
(-0.00687068 -0.0636859 -0.223149)
(0.0841777 0.103814 -0.00237495)
(0.477662 -0.223993 0.134876)
(0.177078 0.16177 -0.0152872)
(-0.067845 0.290644 0.0515026)
(0.0973671 0.115217 -0.0930326)
(0.0560597 -0.109193 -0.0987578)
(-0.0916584 -0.0692185 -0.0502431)
(0.0810707 -0.119178 0.152458)
(-0.217881 0.112988 0.148235)
(0.204362 0.0216142 0.00547731)
(-0.0161982 -0.045622 -0.00461234)
(0.0832357 -0.105437 -0.0379461)
(0.0716799 0.065704 0.198854)
(-0.0976372 0.321661 -0.214436)
(0.0665345 0.265704 0.0285462)
(0.208959 0.0292313 0.228581)
(0.263863 -0.039577 0.0792737)
(0.0681094 0.08203 0.318511)
(0.146124 -0.0797046 -0.101982)
(0.220189 0.00498601 -0.162661)
(0.273053 0.168401 0.0882836)
(0.0928972 -0.117659 -0.141854)
(0.170756 -0.157077 -0.227598)
(0.289886 0.162182 0.324622)
(0.394384 0.0292211 -0.228632)
(0.134166 -0.168831 -0.0754255)
(0.399311 -0.0126556 0.123835)
(0.244676 0.1796 0.0379139)
(0.374065 0.165539 -0.219511)
(0.467511 -0.0255867 -0.0774967)
(0.59264 -0.0206041 0.0191921)
(0.577717 0.0316363 -0.192502)
(0.479514 -0.275625 0.0864922)
(0.527516 0.168299 0.192525)
(0.486751 -0.0987718 -0.0636415)
(0.394269 0.0111118 0.111402)
(0.503481 -0.0986456 0.0621783)
(0.548028 0.0456432 0.0432518)
(0.579292 -0.236764 0.176286)
(0.610861 -0.0936047 -0.00247457)
(0.68407 0.0792916 -0.0175241)
(0.67376 0.21172 -0.107507)
(0.747202 0.0475922 0.0851207)
(0.749811 0.00628981 0.00603007)
(0.585553 0.0511953 -0.0521482)
(0.827848 0.0237111 -0.0375115)
(0.786861 0.0303306 0.000186985)
(0.716644 0.0163235 0.0764535)
(0.526966 -0.0782283 -0.144635)
(0.770552 0.315848 0.0138603)
(0.591881 -0.112264 -0.0081646)
(0.880345 0.0057045 0.0192509)
(0.76532 0.137271 -0.20977)
(0.821396 0.15086 -0.0744753)
(0.568249 0.274999 -0.0715236)
(0.627858 0.0348929 0.000537165)
(0.762955 -0.205844 -0.0256978)
(0.800496 0.105106 -0.0467693)
(0.720272 -0.103535 0.0067528)
(0.812367 -0.163769 0.0422665)
(0.865628 0.00129659 0.0897614)
(0.823167 -0.0961169 0.0419356)
(0.973364 0.0389383 0.0232016)
(0.79357 -0.0543406 0.108371)
(0.859488 0.152825 -0.0168379)
(0.982578 0.0762217 -0.00365482)
(0.925862 0.0895865 0.0914278)
(0.81678 0.0760832 -0.000342567)
(0.93296 -0.0934439 0.0137953)
(1.11578 -0.0403617 -0.0649716)
(0.858261 -0.162004 -0.0427811)
(0.818794 0.0403119 0.053887)
(0.725655 0.128727 -0.00327126)
(0.756444 -0.051864 0.0239298)
(0.970409 0.0338739 0.0327947)
(0.810565 -0.0918626 0.0820996)
(0.7435 0.0051266 0.0187533)
)
;

boundaryField
{
    sides
    {
        type            symmetry;
    }
    empty
    {
        type            empty;
    }
    procBoundary1to0
    {
        type            processor;
        value           uniform (-0.0447853 -0.0957948 -0.0120742);
    }
    procBoundary1to2
    {
        type            processor;
        value           uniform (0.743042 -0.0343721 -0.0653853);
    }
}


// ************************************************************************* //
