/*--------------------------------*- C++ -*----------------------------------*\
  =========                 |
  \\      /  F ield         | OpenFOAM: The Open Source CFD Toolbox
   \\    /   O peration     | Website:  https://openfoam.org
    \\  /    A nd           | Version:  7
     \\/     M anipulation  |
\*---------------------------------------------------------------------------*/
FoamFile
{
    version     2.0;
    format      ascii;
    class       volScalarField;
    location    "0.00144";
    object      rhoN;
}
// * * * * * * * * * * * * * * * * * * * * * * * * * * * * * * * * * * * * * //

dimensions      [0 -3 0 0 0 0 0];

internalField   nonuniform List<scalar> 
125
(
8.57143e+22
8.35714e+22
8.92857e+22
8.85714e+22
8.71429e+22
9.28571e+22
9.03571e+22
8.35714e+22
9.07143e+22
9.46429e+22
8.17857e+22
9.03571e+22
8.89286e+22
9.42857e+22
9.21429e+22
9.14286e+22
8.96429e+22
8.35714e+22
9.64286e+22
9.39286e+22
9.07143e+22
8.75e+22
9.21429e+22
9e+22
8.92857e+22
9.25e+22
8.42857e+22
8.17857e+22
9.53571e+22
8.07143e+22
8.60714e+22
9.5e+22
9.32143e+22
9.42857e+22
9.17857e+22
8.71429e+22
9.64286e+22
9e+22
8.92857e+22
8.85714e+22
9.17857e+22
9.35714e+22
8.89286e+22
9.89286e+22
8.82143e+22
8.5e+22
8.5e+22
8.75e+22
8.85714e+22
9.53571e+22
8.03571e+22
9.07143e+22
9.35714e+22
8.53571e+22
8.39286e+22
8.42857e+22
8.92857e+22
9.28571e+22
8.75e+22
8.96429e+22
8e+22
8.82143e+22
9.85714e+22
8.64286e+22
8.39286e+22
8.21429e+22
8.5e+22
7.35714e+22
8.42857e+22
8.71429e+22
7.85714e+22
7.75e+22
7.71429e+22
7.57143e+22
8.21429e+22
7.21429e+22
9.03571e+22
8e+22
7.07143e+22
7.32143e+22
6.92857e+22
7.5e+22
6e+22
7.60714e+22
7.07143e+22
7.03571e+22
6.46429e+22
6.14286e+22
6.92857e+22
6.64286e+22
6.46429e+22
5.96429e+22
6.21429e+22
5.96429e+22
6.21429e+22
6.14286e+22
4.32143e+22
6.07143e+22
4.89286e+22
5.96429e+22
6.07143e+22
5.14286e+22
4.96429e+22
5.03571e+22
5.17857e+22
5.10714e+22
4.64286e+22
5e+22
5.35714e+22
4.75e+22
5.28571e+22
4.75e+22
4.5e+22
4.85714e+22
4.57143e+22
4.60714e+22
5.10714e+22
5.07143e+22
4.67857e+22
4.32143e+22
4.42857e+22
4.21429e+22
5.17857e+22
4.89286e+22
4.39286e+22
)
;

boundaryField
{
    sides
    {
        type            symmetry;
    }
    empty
    {
        type            empty;
    }
    procBoundary1to0
    {
        type            processor;
        value           uniform 9.82143e+22;
    }
    procBoundary1to2
    {
        type            processor;
        value           uniform 4.28571e+22;
    }
}


// ************************************************************************* //
