/*--------------------------------*- C++ -*----------------------------------*\
  =========                 |
  \\      /  F ield         | OpenFOAM: The Open Source CFD Toolbox
   \\    /   O peration     | Website:  https://openfoam.org
    \\  /    A nd           | Version:  7
     \\/     M anipulation  |
\*---------------------------------------------------------------------------*/
FoamFile
{
    version     2.0;
    format      ascii;
    class       volScalarField;
    location    "0.006";
    object      dsmcRhoNMean;
}
// * * * * * * * * * * * * * * * * * * * * * * * * * * * * * * * * * * * * * //

dimensions      [0 -3 0 0 0 0 0];

internalField   nonuniform List<scalar> 
1000
(
340.887
344.52
342.381
342.397
339.608
340.954
339.462
339.073
338.773
337.262
337.094
340.213
338.372
335.778
334.887
334.39
335.833
336.287
336.338
336.062
335.737
337.275
337.571
336.105
335.581
336.373
338.689
335.502
336.305
338.059
339.157
338.902
335.736
336.269
338.382
339.824
338.903
338.086
336.77
334.988
334.128
335.422
333.868
334.613
335.214
336.753
335.705
336.151
337.91
340.198
336.673
337.951
338.028
338.418
339.226
335.418
338.632
339.398
338.249
336.841
335.71
336.155
336.592
335.134
332.876
332.575
330.065
332.376
335.608
336.281
336.559
336.054
337.045
337.624
339.809
338.993
339.351
335.225
336.234
338.945
337.615
335.31
334.752
332.742
335.676
335.781
335.925
336.11
336.214
336.821
338.294
342.418
341.591
339.83
340.202
341.257
338.586
340.142
339.094
338.899
339.694
341.308
340.705
340.917
341.147
338.243
338.974
339.55
340.1
339.72
341.083
340.954
340.057
340
338.899
336.332
338.456
337.48
338.047
338.061
337.618
337.721
337.996
338.948
339.071
339.661
338.46
338.01
338.587
338.387
340.061
340.237
341.533
342.57
343.875
343.461
342.012
341.954
339.823
339.284
340.332
340.204
339.203
338.407
339.15
339.907
339.707
340.278
339.115
337.366
338.043
335.841
335.681
335.915
337.015
335.948
336.01
333.917
332.717
332.196
333.693
334.663
333.931
334.091
332.842
332.327
335.85
331.363
333.219
333.285
333.266
332.913
334.138
334.106
335.748
333.632
331.706
332.749
336.077
334.779
334.165
335.186
333.865
333.29
334.427
335.013
334.505
334.813
336.244
339.076
337.973
338.597
337.745
337.499
334.787
335.285
336.317
336.748
338.786
337.946
336.486
335.934
337.301
335.681
336.362
335.938
333.888
334.919
333.713
332.812
333.519
332.233
332.882
332.782
330.124
330.287
330.001
330.235
330.136
328.586
326.978
325.217
323.896
323.346
324.168
321.835
321.934
322.426
322.64
323.112
321.816
320.219
320.7
321.843
323.571
322.756
320.231
320.486
319.261
321.788
320.717
320.026
320.754
320.011
318.983
321.017
320.657
321.072
321.592
320.959
320.045
321.232
323.214
323.26
321.933
321.668
320.848
323.033
318.868
319.318
317.573
318.259
320.355
320.002
316.897
313.066
312.961
314.654
316.869
315.009
314.954
315.609
315.186
318.385
318.968
315.272
317.549
316.783
317.992
315.959
314.731
312.879
311.076
311.16
311.865
312.642
311.274
310.81
310.149
312.712
312.911
312.424
311.154
312.745
311.517
311.013
309.678
307.845
308.943
307.317
309.292
308.144
303.85
305.403
305.546
305.605
305.372
304.469
303.754
302.675
301.487
301.787
299.52
298.965
298.147
297.67
298.684
299.358
296.833
298.118
294.37
296.02
296.487
296.69
296.439
295.695
294.518
293.549
291.611
293.727
292.46
289.874
289.661
290.156
288.681
290.325
289.917
289.988
289.504
289.332
289.923
288.822
288.645
287.164
286.764
286.502
286.207
286.018
288.14
282.29
282.1
280.617
282.496
283.4
281.361
280.169
280.004
280.339
278.4
278.549
277.676
276.053
274.489
274.053
273.737
272.963
271.805
271.228
270.579
269.714
267.502
268.676
269.548
268.897
269.856
266.172
267.826
267.357
267.466
265.447
262.405
262.503
260.971
263.572
261.158
263.49
260.946
260.271
259.851
259.616
258.467
257.473
256.29
256.773
254.108
252.656
254.106
253.559
253.094
254.128
252.513
250.778
249.052
249.189
249.349
248.785
248.309
247.59
245.512
242.444
243.148
241.943
242.345
243.533
241.177
241.295
240.734
239.263
239.11
237.417
236.541
234.495
233.236
234.095
232.695
232.52
230.214
230.174
231.478
232.785
231.841
229.559
228.363
226.705
227.188
225.955
224.724
224.526
223.767
223.345
221.918
221.08
220.95
220.35
220.308
217.675
217.286
216.933
215.011
214.495
214.34
212.585
212.63
212.989
214.166
213.013
210.13
211.157
207.41
205.176
205.223
204.842
203.15
201.913
201.267
201.715
202.257
199.582
198.568
197.523
196.534
194.487
194.033
194.678
191.766
191.197
190.4
189.781
189.152
188.167
186.398
187.964
187.033
185.431
185.324
185.41
184.12
181.519
181.929
180.77
179.087
179.13
178.383
177.065
175.6
175.518
173.594
173.537
171.872
171.387
169.653
169.198
169.485
167.419
167.885
168.655
167.686
170.907
169.672
169.932
168.567
169.228
168.278
168.433
168.676
168.208
167.529
168.198
167.481
167.952
167.236
168.02
167.57
168.082
166.829
169.292
170.6
168.229
168.503
170.671
168.487
167.955
169.64
168.087
167.542
167.044
166.382
167.068
167.163
166.837
168.097
166.986
166.54
166.484
166.714
166.573
165.531
167.319
166.141
165.467
166.498
166.763
167.285
167.948
167.568
167.192
167.032
166.941
166.888
167.245
166.969
165.778
165.725
166.2
167.271
164.98
164.661
165.224
164.343
166.688
167.539
167.723
166.41
165.608
164.754
165.56
164.817
164.772
164.258
164.576
166.513
164.949
164.219
163.807
165.446
166.357
166.627
165.96
165.715
165.651
166.009
167.339
166.686
166.657
165.2
165.474
164.056
163.077
163.272
162.761
161.146
160.575
162.124
162.384
161.678
162.512
163.254
162.694
161.43
163.137
164.024
164.389
162.721
162.645
162.041
162.695
164.126
164.891
164.102
164.318
165.339
165.289
162.68
164.609
166.479
165.214
163.889
163.519
163.319
167.155
165.857
165.342
162.713
163.466
162.881
161.872
163.082
162.733
163.573
163.083
162.673
161.502
163.619
163.317
162.831
162.436
163.342
162.211
159.286
160.655
161.977
162.615
161.921
162.76
163.492
162.563
163.142
163.753
161.352
162.996
161.881
161.802
160.305
161.907
161.044
161.321
161.202
161.942
162.538
161.932
162.03
161.814
161.988
162.603
162.391
161.751
162.058
160.502
161.203
161.103
159.608
159.123
160.202
160.614
160.144
159.945
159.533
159.784
159.529
159.97
160.556
159.579
159.649
159.659
160.43
161.668
160.697
162.048
162.377
161.94
161.95
159.37
158.76
156.961
156.856
157.584
159.175
159.473
157.085
156.374
157.999
158.228
157.028
158.41
157.092
157.651
155.546
156.312
155.795
156.255
157.298
156.83
157.226
157.031
155.464
156.123
154.194
154.963
154.698
155.287
156.763
154.631
155.656
158.26
157.156
154.028
155.992
156.664
154.556
155.467
156.247
155.439
153.401
153.575
152.634
154.183
152.662
152.68
150.467
150.343
150.089
149.202
149.706
149.754
149.517
148.787
149.801
149.334
149.424
149.214
148.034
147.369
147.2
146.071
145.49
144.541
144.387
143.015
141.809
141.174
141.266
140.718
140.464
137.931
139.599
140.504
140.862
140.931
139.736
139.559
139.397
138.44
138.706
135.861
137.327
136.396
137.541
137.436
137.308
137.091
137.844
136.057
136.053
136.131
135.171
134.475
135.539
134.304
133.291
132.9
132.365
131.41
131.262
130.396
131.21
130.253
128.119
128.045
127.586
127.433
128.492
129.038
129.644
129.436
128.073
126.969
128.685
127.023
125.795
125.099
123.946
124.426
123.883
122.65
124.053
122.562
121.189
121.335
121.185
118.183
118.715
118.778
118.957
118.33
118.801
118.96
117.711
118.176
118.088
116.872
117.463
115.876
116.187
115.929
117.068
116.69
115.144
113.261
112.94
112.995
112.546
112.537
112.898
111.137
112.474
111.754
112.04
111.685
113.336
112.277
112.723
112.291
111.353
112.396
111.025
110.493
109.394
109.296
108.846
109.779
108.68
106.669
107.879
107.696
106.149
105.775
105.919
105.628
105.144
104.385
103.541
102.5
102.467
103.155
102.993
99.2365
97.872
100.235
98.746
98.9125
99.6917
98.0313
96.8907
97.768
97.9823
98.6273
98.4322
95.8713
94.5948
95.8133
97.8767
97.7048
97.8068
98.4897
97.538
98.3963
98.7577
98.4345
98.8302
98.133
98.4323
98.482
99.2912
99.694
100.422
97.8925
95.71
97.538
98.063
97.705
97.235
97.7737
97.352
97.342
95.5337
96.4272
96.9195
95.7127
97.721
97.9443
97.2642
96.1672
95.3673
95.1238
97.9257
96.7645
96.8992
96.6037
98.0392
97.7237
97.7993
98.7748
97.9952
98.826
97.9517
97.3853
99.3578
98.9827
99.6405
98.2008
99.6127
97.9822
98.3537
97.9908
98.5623
96.9933
99.1233
97.4435
98.6213
99.1433
97.0188
97.332
96.9158
96.2033
97.7697
97.8717
98.2433
96.2413
96.5933
98.142
98.6035
98.6513
97.686
98.7028
98.3972
98.3948
98.5248
98.1612
99.9487
99.6108
99.3367
98.6585
97.6455
98.1513
100.667
100.112
100.604
98.8393
99.308
99.0178
98.4148
98.8373
99.3352
97.8628
96.4483
95.8537
96.2655
97.743
98.3552
96.2737
)
;

boundaryField
{
    sides
    {
        type            symmetry;
    }
    empty
    {
        type            empty;
    }
}


// ************************************************************************* //
