/*--------------------------------*- C++ -*----------------------------------*\
  =========                 |
  \\      /  F ield         | OpenFOAM: The Open Source CFD Toolbox
   \\    /   O peration     | Website:  https://openfoam.org
    \\  /    A nd           | Version:  7
     \\/     M anipulation  |
\*---------------------------------------------------------------------------*/
FoamFile
{
    version     2.0;
    format      ascii;
    class       volScalarField;
    location    "0.006";
    object      dsmcRhoN;
}
// * * * * * * * * * * * * * * * * * * * * * * * * * * * * * * * * * * * * * //

dimensions      [0 -3 0 0 0 0 0];

internalField   nonuniform List<scalar> 
500
(
200
248
207
245
261
250
244
252
276
291
282
266
266
257
277
264
287
282
302
294
328
318
313
335
337
292
308
308
308
313
329
326
361
339
353
362
345
350
360
356
325
359
357
388
359
371
390
378
377
398
376
386
380
401
417
401
407
400
411
416
410
433
447
429
422
421
447
417
440
456
482
479
448
489
487
472
487
447
478
483
498
503
515
514
479
465
491
532
527
539
503
515
599
513
499
553
542
586
559
559
567
550
599
568
566
596
573
629
614
563
589
612
573
630
611
634
605
659
602
621
625
636
621
617
667
661
649
588
610
631
602
594
623
637
640
623
538
624
607
635
635
610
627
611
596
604
636
590
613
577
628
612
637
639
633
596
657
618
641
647
636
653
585
635
610
579
625
653
620
638
641
627
652
623
661
623
652
666
638
640
641
544
592
664
662
633
642
631
629
626
627
655
620
649
606
593
655
648
622
591
602
589
596
632
640
585
608
624
648
656
644
612
595
626
595
626
644
647
628
639
616
606
629
594
669
671
634
598
626
650
610
635
609
605
608
631
665
583
627
618
631
621
653
600
645
599
624
636
601
610
588
621
646
626
612
642
630
651
594
620
689
652
633
661
627
634
696
591
639
627
628
649
596
607
618
615
636
635
643
593
616
663
576
654
641
636
653
618
592
600
639
612
633
668
627
563
575
640
630
673
596
620
630
615
612
616
611
652
689
630
625
663
615
638
603
647
613
611
631
648
632
598
637
606
658
631
612
630
608
612
625
627
643
661
671
607
607
669
629
642
641
603
631
610
668
681
632
592
587
647
633
604
607
616
606
616
635
588
634
625
588
612
593
575
599
637
602
644
606
650
602
622
624
646
645
599
587
656
600
649
594
598
604
584
597
673
612
609
614
575
569
593
555
544
583
567
611
573
553
570
541
545
565
534
563
549
553
516
536
469
505
499
541
489
522
523
485
489
485
474
507
506
480
443
503
427
494
443
454
452
438
472
446
433
435
397
427
427
438
455
397
419
443
405
440
374
394
375
382
413
402
396
354
399
359
379
358
368
381
337
373
351
337
352
344
311
348
302
323
304
318
319
319
282
316
332
295
306
315
303
309
332
278
300
305
277
307
279
291
260
260
289
244
269
256
276
230
234
223
217
)
;

boundaryField
{
    sides
    {
        type            zeroGradient;
    }
    empty
    {
        type            empty;
    }
}


// ************************************************************************* //
