/*--------------------------------*- C++ -*----------------------------------*\
  =========                 |
  \\      /  F ield         | OpenFOAM: The Open Source CFD Toolbox
   \\    /   O peration     | Website:  https://openfoam.org
    \\  /    A nd           | Version:  7
     \\/     M anipulation  |
\*---------------------------------------------------------------------------*/
FoamFile
{
    version     2.0;
    format      ascii;
    class       volScalarField;
    location    "0.006";
    object      dsmcRhoN;
}
// * * * * * * * * * * * * * * * * * * * * * * * * * * * * * * * * * * * * * //

dimensions      [0 -3 0 0 0 0 0];

internalField   nonuniform List<scalar> 
1000
(
328
323
312
321
350
359
350
360
357
324
365
329
345
308
329
323
369
321
332
334
322
350
334
364
309
352
344
328
323
391
347
346
338
347
339
320
313
393
338
337
348
346
324
311
311
339
307
301
308
358
334
321
313
337
373
324
345
377
324
352
330
327
374
369
334
353
341
346
316
360
308
327
340
340
360
335
325
345
348
378
329
354
345
328
338
342
327
361
326
344
329
338
341
370
324
343
333
334
359
327
354
353
338
365
355
314
346
304
319
352
315
316
336
345
350
353
357
300
348
330
341
344
354
331
341
356
332
353
351
341
317
305
313
323
329
317
299
358
317
343
288
339
335
309
323
327
315
321
311
301
335
288
313
309
318
337
328
310
299
325
357
320
294
305
302
311
289
313
279
323
339
294
298
310
313
314
303
271
305
305
310
332
274
292
303
287
277
308
309
318
294
251
280
315
287
268
304
279
304
309
304
315
278
269
302
305
292
289
250
308
290
287
280
266
289
290
285
289
283
283
277
280
267
267
315
275
249
281
277
276
270
274
240
235
265
268
234
259
270
269
264
255
287
248
248
238
219
250
255
237
248
240
265
244
270
254
240
270
232
252
236
237
242
243
235
264
262
248
253
239
267
238
251
253
237
250
241
215
265
239
247
240
219
250
231
236
246
229
241
198
232
235
213
264
215
207
236
214
239
260
214
233
226
222
248
237
226
201
220
214
230
205
216
208
245
224
217
234
202
233
227
201
214
199
217
212
199
214
228
234
214
223
234
198
218
188
207
212
229
201
204
222
224
212
176
221
211
197
200
206
189
222
208
210
225
196
217
206
216
201
171
196
207
177
176
194
180
190
186
210
182
211
222
167
228
203
190
193
213
189
186
192
185
165
187
186
183
184
177
181
212
162
194
226
159
170
184
185
169
193
177
184
168
206
191
185
188
185
183
183
180
171
170
171
160
185
176
180
193
173
219
164
172
172
168
180
156
187
199
160
177
170
176
173
196
154
177
176
146
193
165
151
185
184
146
183
141
151
162
184
175
152
154
161
155
171
157
163
168
171
171
165
144
171
174
155
167
176
174
178
151
175
152
181
179
153
177
163
162
169
177
195
169
167
143
178
182
164
164
158
181
153
175
175
168
200
180
163
156
174
157
174
165
172
168
164
167
177
174
153
190
183
172
193
167
157
156
182
163
190
161
191
183
172
170
182
136
155
176
175
182
171
187
186
165
170
169
176
161
178
171
148
160
167
168
194
177
166
158
173
186
175
167
163
173
166
159
174
168
176
186
161
166
180
164
181
162
153
181
153
175
162
166
174
166
155
155
188
161
164
173
172
162
164
165
154
171
169
189
154
170
161
160
168
191
191
170
170
179
165
191
178
169
168
169
174
185
155
167
160
185
172
179
189
159
156
182
186
195
151
150
178
155
174
185
171
148
177
158
189
168
176
186
157
170
171
178
174
185
178
175
161
177
147
143
177
161
161
167
135
187
190
170
198
185
154
177
166
188
186
164
167
158
191
167
174
162
166
166
164
159
177
152
151
161
174
159
186
185
147
167
159
180
159
189
182
169
178
168
155
195
165
167
156
159
171
185
147
193
169
160
163
190
180
180
155
179
182
165
195
172
178
164
179
169
198
169
179
159
190
176
198
186
181
191
167
179
181
190
208
196
177
201
213
221
203
186
179
220
209
202
219
225
187
227
241
221
215
191
204
228
241
209
209
206
233
231
237
219
220
241
237
244
268
241
221
229
228
219
251
193
246
264
251
222
241
232
237
231
248
222
232
248
203
273
239
222
238
247
238
268
257
248
246
236
285
238
225
221
246
256
230
242
243
231
268
220
231
257
258
234
253
265
259
271
227
232
281
235
242
224
258
218
246
247
236
251
227
244
246
228
228
246
232
243
250
260
231
227
223
238
249
257
253
265
236
242
249
220
250
237
247
258
242
250
259
240
243
259
231
219
249
245
270
248
231
261
239
218
233
256
253
256
259
241
249
252
264
246
272
240
249
219
249
246
241
248
229
235
203
211
262
202
242
197
190
190
167
167
135
115
102
116
100
105
95
96
91
113
80
89
102
107
73
109
106
102
82
116
102
103
92
94
110
103
88
108
100
93
108
92
97
84
84
80
93
101
105
111
91
100
82
82
114
69
118
105
105
88
103
118
108
94
86
107
81
86
96
83
109
77
92
108
83
103
102
85
108
88
106
92
109
105
100
99
106
97
95
110
105
101
105
104
92
102
105
97
100
97
109
83
95
97
85
84
106
97
93
95
104
)
;

boundaryField
{
    sides
    {
        type            symmetry;
    }
    empty
    {
        type            empty;
    }
}


// ************************************************************************* //
