/*--------------------------------*- C++ -*----------------------------------*\
  =========                 |
  \\      /  F ield         | OpenFOAM: The Open Source CFD Toolbox
   \\    /   O peration     | Website:  https://openfoam.org
    \\  /    A nd           | Version:  7
     \\/     M anipulation  |
\*---------------------------------------------------------------------------*/
FoamFile
{
    version     2.0;
    format      ascii;
    class       volScalarField;
    location    "0.006";
    object      iDofMean;
}
// * * * * * * * * * * * * * * * * * * * * * * * * * * * * * * * * * * * * * //

dimensions      [0 -3 0 0 0 0 0];

internalField   nonuniform List<scalar> 
1000
(
8.36692e+20
8.17158e+20
7.9245e+20
8.07258e+20
8.28058e+20
8.17525e+20
8.28092e+20
8.24692e+20
8.90133e+20
8.68875e+20
8.54242e+20
8.56767e+20
8.34583e+20
8.27975e+20
8.49325e+20
8.372e+20
8.692e+20
8.67092e+20
8.61567e+20
8.91925e+20
8.64858e+20
8.92317e+20
8.88283e+20
8.84183e+20
8.62e+20
8.65533e+20
8.6265e+20
8.59675e+20
8.23783e+20
8.0835e+20
7.83442e+20
7.83483e+20
7.83e+20
7.81758e+20
8.06917e+20
8.01575e+20
7.80225e+20
8.30192e+20
8.23175e+20
8.387e+20
8.27975e+20
8.25425e+20
7.96625e+20
8.27858e+20
8.14733e+20
8.52775e+20
8.65992e+20
8.55192e+20
8.40725e+20
8.62042e+20
8.5385e+20
8.4905e+20
8.61467e+20
8.59225e+20
8.5795e+20
8.81692e+20
8.793e+20
8.60308e+20
8.68183e+20
8.61933e+20
8.66483e+20
8.38158e+20
8.44133e+20
8.21375e+20
7.95525e+20
8.26617e+20
8.14667e+20
7.97817e+20
8.22933e+20
8.20375e+20
8.46667e+20
8.56808e+20
8.38892e+20
8.26333e+20
8.3975e+20
8.78383e+20
8.85408e+20
8.92692e+20
8.81908e+20
8.92e+20
9.10642e+20
9.09183e+20
9.27333e+20
8.96817e+20
8.64358e+20
8.59725e+20
8.89867e+20
8.45958e+20
8.22e+20
8.03183e+20
8.357e+20
8.09875e+20
8.10083e+20
8.04542e+20
8.04533e+20
7.99842e+20
8.04525e+20
7.79992e+20
7.56242e+20
7.83017e+20
8.08392e+20
7.93342e+20
8.09367e+20
7.83275e+20
8.368e+20
8.59467e+20
8.42567e+20
8.39642e+20
8.95358e+20
8.79183e+20
9.25733e+20
8.92517e+20
8.76492e+20
8.69283e+20
8.753e+20
8.87533e+20
8.53842e+20
8.79908e+20
8.65158e+20
8.89725e+20
8.82867e+20
9.06267e+20
9.04692e+20
8.607e+20
8.97442e+20
8.87817e+20
9.06242e+20
8.47033e+20
8.66867e+20
8.74308e+20
8.39417e+20
8.77392e+20
8.49067e+20
8.29975e+20
8.4315e+20
8.6275e+20
8.81942e+20
8.79908e+20
8.75733e+20
8.75083e+20
8.8075e+20
8.76808e+20
8.8e+20
8.41667e+20
8.32342e+20
8.111e+20
8.22692e+20
7.99317e+20
8.16733e+20
8.32633e+20
8.12592e+20
8.29608e+20
8.18758e+20
8.34867e+20
8.50992e+20
8.23167e+20
8.30258e+20
8.26433e+20
8.01375e+20
8.01192e+20
8.03933e+20
7.86475e+20
8.09075e+20
7.95883e+20
8.40517e+20
8.46225e+20
8.63625e+20
8.47e+20
8.361e+20
8.53625e+20
8.29617e+20
8.7365e+20
8.60333e+20
8.505e+20
8.44983e+20
8.74192e+20
8.48692e+20
8.1175e+20
8.13433e+20
8.5755e+20
8.54133e+20
8.31217e+20
8.46892e+20
8.06958e+20
8.21033e+20
8.31842e+20
8.76208e+20
8.42167e+20
8.51283e+20
8.40233e+20
8.31975e+20
8.242e+20
8.19033e+20
8.31083e+20
8.32733e+20
8.51475e+20
8.14942e+20
8.38775e+20
8.29325e+20
8.76817e+20
8.36975e+20
8.26833e+20
8.30333e+20
8.57058e+20
8.46658e+20
8.2345e+20
8.30558e+20
8.43933e+20
8.37233e+20
8.50708e+20
8.40883e+20
8.442e+20
8.54967e+20
9.02092e+20
8.85875e+20
8.72392e+20
8.605e+20
8.77442e+20
8.62142e+20
8.65467e+20
8.59025e+20
8.49892e+20
8.23892e+20
8.48825e+20
8.25775e+20
8.597e+20
8.93758e+20
8.74158e+20
8.76008e+20
8.74508e+20
8.62917e+20
8.70417e+20
8.68383e+20
8.39358e+20
8.42108e+20
8.36717e+20
7.9875e+20
8.36625e+20
8.32842e+20
8.6135e+20
8.48125e+20
8.53992e+20
8.59133e+20
8.378e+20
8.822e+20
8.4445e+20
8.59533e+20
8.72525e+20
8.6345e+20
8.25108e+20
8.515e+20
8.64367e+20
8.33592e+20
8.16783e+20
8.27333e+20
8.26492e+20
8.569e+20
8.50925e+20
8.494e+20
8.11508e+20
8.28875e+20
8.20675e+20
8.14075e+20
8.27558e+20
8.11667e+20
8.59375e+20
8.249e+20
8.24875e+20
8.56783e+20
7.91425e+20
7.89617e+20
7.816e+20
8.12e+20
8.17658e+20
8.11242e+20
7.91492e+20
7.848e+20
7.91017e+20
7.93608e+20
8.23025e+20
8.15908e+20
7.93008e+20
7.96767e+20
7.85542e+20
7.75717e+20
8.09433e+20
8.22092e+20
8.36633e+20
8.30675e+20
8.04008e+20
7.87217e+20
8.31733e+20
8.71242e+20
8.58258e+20
8.48033e+20
8.46633e+20
8.55417e+20
8.75767e+20
8.56e+20
8.40875e+20
8.17775e+20
8.40825e+20
8.45883e+20
8.18333e+20
8.082e+20
8.12108e+20
8.245e+20
8.49117e+20
8.33217e+20
8.17383e+20
8.50183e+20
8.17642e+20
8.437e+20
8.29733e+20
8.25425e+20
8.46858e+20
8.04308e+20
8.55783e+20
8.424e+20
8.22025e+20
8.64392e+20
8.438e+20
8.36217e+20
8.28067e+20
7.95358e+20
7.95058e+20
8.08008e+20
8.01e+20
7.65442e+20
8.00708e+20
7.9595e+20
7.93458e+20
7.90325e+20
7.61042e+20
7.60017e+20
7.7535e+20
7.85033e+20
7.42117e+20
7.59292e+20
7.75092e+20
7.81792e+20
7.7705e+20
7.74867e+20
8.19342e+20
8.18158e+20
8.24117e+20
8.14217e+20
8.24867e+20
8.27217e+20
8.46133e+20
8.17475e+20
8.0315e+20
7.92267e+20
7.96842e+20
7.78133e+20
7.56592e+20
7.72508e+20
7.82192e+20
7.89458e+20
7.98825e+20
7.891e+20
7.80575e+20
7.40708e+20
7.53842e+20
7.63825e+20
7.62517e+20
7.47025e+20
7.50117e+20
7.67258e+20
7.94225e+20
7.8425e+20
7.74958e+20
7.56358e+20
7.46317e+20
7.4425e+20
7.27967e+20
7.32217e+20
7.57142e+20
7.59125e+20
7.31017e+20
7.15475e+20
7.25992e+20
7.61392e+20
7.675e+20
7.44942e+20
7.42025e+20
7.3825e+20
7.48492e+20
7.62217e+20
7.17142e+20
7.20042e+20
7.08417e+20
7.07292e+20
7.20042e+20
7.10233e+20
7.29225e+20
7.39283e+20
7.37583e+20
7.12525e+20
7.341e+20
7.18267e+20
7.05725e+20
6.99417e+20
7.218e+20
7.258e+20
6.96917e+20
6.87375e+20
7.22917e+20
6.95183e+20
6.73608e+20
6.75075e+20
6.98442e+20
6.88117e+20
6.91908e+20
6.83142e+20
6.60792e+20
6.98967e+20
6.57108e+20
6.59592e+20
6.98167e+20
7.112e+20
6.76175e+20
6.61492e+20
6.65892e+20
6.72392e+20
6.65717e+20
6.20767e+20
6.30633e+20
6.4045e+20
6.40692e+20
6.41667e+20
6.46725e+20
6.28417e+20
6.34717e+20
6.44842e+20
6.21467e+20
6.34983e+20
6.40633e+20
6.44833e+20
6.34608e+20
6.30383e+20
6.20567e+20
6.48442e+20
6.30358e+20
6.2505e+20
6.17167e+20
6.2055e+20
5.91967e+20
5.86983e+20
6.02142e+20
5.99333e+20
6.164e+20
5.93267e+20
6.10617e+20
6.2995e+20
6.05433e+20
5.82833e+20
6.13417e+20
6.08475e+20
6.04358e+20
5.93392e+20
5.61442e+20
5.59258e+20
5.68367e+20
5.63633e+20
5.70475e+20
6.13367e+20
6.23925e+20
5.831e+20
6.01008e+20
5.71308e+20
5.61333e+20
5.59e+20
5.67542e+20
5.69317e+20
5.64275e+20
5.57658e+20
5.70092e+20
5.54142e+20
5.49792e+20
5.85475e+20
5.54142e+20
5.50517e+20
5.56942e+20
5.73883e+20
5.53025e+20
5.40333e+20
5.33058e+20
5.39975e+20
5.43317e+20
5.55358e+20
5.35192e+20
5.17667e+20
5.365e+20
5.39792e+20
5.269e+20
5.24333e+20
5.10892e+20
5.13575e+20
4.89275e+20
4.892e+20
5.14875e+20
5.19467e+20
5.14258e+20
5.07483e+20
5.19517e+20
5.08258e+20
5.02117e+20
5.20075e+20
4.88375e+20
4.9965e+20
4.99083e+20
4.81025e+20
4.9115e+20
4.9965e+20
5.08375e+20
5.05517e+20
5.09508e+20
4.78383e+20
4.83792e+20
4.72192e+20
4.88867e+20
4.69208e+20
4.7505e+20
4.5885e+20
4.79483e+20
4.78283e+20
4.89308e+20
4.78717e+20
4.82117e+20
4.65483e+20
4.8505e+20
4.65308e+20
4.74942e+20
4.81883e+20
4.79e+20
4.76933e+20
4.72808e+20
4.61458e+20
4.581e+20
4.61975e+20
4.538e+20
4.53475e+20
4.78708e+20
4.62442e+20
4.48592e+20
4.66133e+20
4.39783e+20
4.2455e+20
4.37508e+20
4.42825e+20
4.42417e+20
4.30242e+20
4.15667e+20
4.26833e+20
4.18783e+20
4.14933e+20
4.20308e+20
4.10467e+20
4.07933e+20
4.52275e+20
4.25017e+20
4.07267e+20
3.97267e+20
4.21025e+20
4.1465e+20
4.14358e+20
4.06492e+20
4.17933e+20
4.18217e+20
3.93692e+20
3.78e+20
3.88242e+20
3.87308e+20
3.85967e+20
3.8555e+20
3.71133e+20
3.9205e+20
3.84717e+20
3.69625e+20
3.75383e+20
3.66108e+20
3.6455e+20
3.81475e+20
3.61542e+20
3.53567e+20
3.63725e+20
3.59992e+20
3.45917e+20
3.63217e+20
3.69408e+20
3.7725e+20
3.40717e+20
3.45392e+20
3.52125e+20
3.648e+20
3.417e+20
3.44058e+20
3.62742e+20
3.43508e+20
3.33992e+20
3.44992e+20
3.296e+20
3.33358e+20
3.29058e+20
3.137e+20
3.14075e+20
3.19092e+20
3.44458e+20
3.38433e+20
3.47817e+20
3.36367e+20
3.36733e+20
3.245e+20
3.31967e+20
3.34525e+20
3.29242e+20
3.26208e+20
3.33583e+20
3.36967e+20
3.33325e+20
3.27e+20
3.35742e+20
3.30883e+20
3.21792e+20
3.15458e+20
3.28492e+20
3.3125e+20
3.056e+20
3.22383e+20
3.11492e+20
3.12583e+20
3.27225e+20
3.24375e+20
3.31267e+20
3.22433e+20
3.32892e+20
3.32458e+20
3.17908e+20
3.06658e+20
3.08217e+20
3.0185e+20
3.12383e+20
3.036e+20
3.12842e+20
3.02742e+20
3.06592e+20
3.16883e+20
3.101e+20
3.20925e+20
3.17292e+20
3.15475e+20
3.19842e+20
3.3205e+20
3.36375e+20
3.42792e+20
3.39908e+20
3.359e+20
3.46592e+20
3.20325e+20
3.26908e+20
3.07667e+20
3.22283e+20
3.23883e+20
3.11358e+20
2.89408e+20
3.06292e+20
3.09517e+20
2.99392e+20
2.90725e+20
3.01492e+20
3.04492e+20
2.93375e+20
2.97075e+20
2.91483e+20
3.03333e+20
3.16367e+20
3.06792e+20
2.90767e+20
2.92225e+20
2.89817e+20
2.73333e+20
2.69675e+20
2.83883e+20
2.732e+20
2.82708e+20
2.87e+20
2.96317e+20
2.88508e+20
2.94708e+20
3.00475e+20
2.82383e+20
3.01308e+20
2.96483e+20
3.08558e+20
2.86567e+20
3.05358e+20
3.13217e+20
2.92983e+20
2.94192e+20
3.0155e+20
3.13867e+20
2.85933e+20
2.93658e+20
2.85258e+20
2.79842e+20
2.8135e+20
2.96758e+20
3.1575e+20
3.07958e+20
2.9245e+20
3.10167e+20
3.06575e+20
2.94133e+20
2.99592e+20
3.03933e+20
2.84392e+20
2.74633e+20
2.8255e+20
2.98275e+20
2.91058e+20
2.87042e+20
2.83367e+20
2.86608e+20
2.96575e+20
2.8935e+20
2.70917e+20
2.61883e+20
2.8325e+20
3.00092e+20
2.833e+20
2.77408e+20
2.62525e+20
2.489e+20
2.79483e+20
2.96717e+20
2.91083e+20
2.87092e+20
2.80858e+20
2.90283e+20
2.74583e+20
2.81833e+20
2.9365e+20
3.05092e+20
3.05158e+20
3.09925e+20
3.09133e+20
3.005e+20
2.86292e+20
2.9695e+20
2.94992e+20
2.92842e+20
2.97292e+20
2.98375e+20
2.84983e+20
2.85742e+20
2.92392e+20
2.94167e+20
2.6775e+20
2.74692e+20
2.96742e+20
2.91975e+20
2.85275e+20
2.605e+20
2.68825e+20
2.84258e+20
2.91217e+20
2.894e+20
2.81775e+20
2.90217e+20
3.03075e+20
2.85892e+20
2.71158e+20
2.75758e+20
2.60717e+20
2.71933e+20
2.79742e+20
2.67958e+20
2.69333e+20
2.51417e+20
2.67758e+20
2.64092e+20
2.53342e+20
2.65e+20
2.45542e+20
2.50183e+20
2.60483e+20
2.49925e+20
2.63233e+20
2.59283e+20
2.57367e+20
2.611e+20
2.59183e+20
2.63742e+20
2.43675e+20
2.50817e+20
2.529e+20
2.60742e+20
2.45667e+20
2.55417e+20
2.58708e+20
2.35608e+20
2.38467e+20
2.4785e+20
2.22033e+20
2.19075e+20
2.42342e+20
2.47558e+20
2.47917e+20
2.18942e+20
2.16767e+20
2.32342e+20
2.40725e+20
2.38817e+20
2.44375e+20
2.50267e+20
2.24658e+20
2.42875e+20
2.30975e+20
2.26383e+20
2.23692e+20
2.36342e+20
2.31133e+20
2.27725e+20
2.26183e+20
2.12142e+20
2.15425e+20
2.27275e+20
2.39417e+20
2.36758e+20
2.37892e+20
2.39183e+20
2.26483e+20
2.27175e+20
2.20992e+20
2.36267e+20
2.23283e+20
2.203e+20
2.22517e+20
2.29383e+20
2.38283e+20
2.55842e+20
2.48742e+20
2.5585e+20
2.487e+20
2.4855e+20
2.59858e+20
2.43425e+20
2.34017e+20
2.26933e+20
2.32825e+20
2.40633e+20
2.37917e+20
2.4305e+20
2.33042e+20
2.38592e+20
2.39108e+20
2.48175e+20
2.37217e+20
2.22883e+20
2.22758e+20
2.21725e+20
2.18892e+20
2.27358e+20
2.29317e+20
2.30408e+20
2.2225e+20
2.24467e+20
2.23208e+20
2.2705e+20
2.2465e+20
2.12933e+20
2.26508e+20
2.31375e+20
2.3315e+20
2.20333e+20
2.39233e+20
2.17833e+20
2.32817e+20
2.297e+20
2.197e+20
2.208e+20
2.18517e+20
2.16633e+20
2.35817e+20
2.22992e+20
2.44025e+20
2.43992e+20
2.31092e+20
2.29675e+20
2.39267e+20
2.38733e+20
2.38417e+20
2.2715e+20
2.34217e+20
2.53633e+20
2.38733e+20
2.35825e+20
2.35258e+20
2.32617e+20
2.26808e+20
2.30767e+20
2.35192e+20
2.26825e+20
2.40683e+20
2.31592e+20
2.29158e+20
2.24283e+20
2.41233e+20
2.34342e+20
2.49783e+20
2.38575e+20
2.36508e+20
2.45583e+20
2.34217e+20
2.40917e+20
2.34608e+20
2.13717e+20
2.17608e+20
2.36642e+20
2.488e+20
2.2945e+20
2.12325e+20
2.22358e+20
2.273e+20
2.08208e+20
2.08783e+20
2.29008e+20
2.34175e+20
2.38217e+20
2.54883e+20
2.47175e+20
2.38242e+20
2.49017e+20
2.56333e+20
2.5895e+20
2.46167e+20
2.52883e+20
2.48908e+20
2.46417e+20
2.43608e+20
2.46033e+20
2.40925e+20
2.3475e+20
2.44625e+20
2.37975e+20
2.30425e+20
2.49917e+20
2.61625e+20
2.47708e+20
2.37167e+20
2.367e+20
2.33492e+20
2.25875e+20
2.31358e+20
2.26783e+20
2.19467e+20
2.15092e+20
2.18333e+20
2.11808e+20
2.14917e+20
2.29025e+20
2.21e+20
2.27633e+20
2.23475e+20
2.42267e+20
2.54425e+20
2.26625e+20
2.30942e+20
2.24767e+20
2.24742e+20
2.4545e+20
2.41758e+20
2.54425e+20
2.3475e+20
2.37925e+20
2.34558e+20
2.1675e+20
2.19383e+20
2.61958e+20
2.58375e+20
2.70792e+20
2.715e+20
2.6205e+20
2.649e+20
2.7205e+20
2.67075e+20
2.75692e+20
2.6485e+20
2.69567e+20
2.78658e+20
2.53742e+20
2.68042e+20
2.55833e+20
2.429e+20
2.60617e+20
2.66075e+20
2.73108e+20
2.6885e+20
2.48642e+20
)
;

boundaryField
{
    sides
    {
        type            symmetry;
    }
    empty
    {
        type            empty;
    }
}


// ************************************************************************* //
