/*--------------------------------*- C++ -*----------------------------------*\
  =========                 |
  \\      /  F ield         | OpenFOAM: The Open Source CFD Toolbox
   \\    /   O peration     | Website:  https://openfoam.org
    \\  /    A nd           | Version:  7
     \\/     M anipulation  |
\*---------------------------------------------------------------------------*/
FoamFile
{
    version     2.0;
    format      ascii;
    class       volScalarField;
    location    "0.006";
    object      internalT;
}
// * * * * * * * * * * * * * * * * * * * * * * * * * * * * * * * * * * * * * //

dimensions      [1 2 -2 0 0 0 0];

internalField   nonuniform List<scalar> 
1000
(
184.836
310.14
309.508
311.497
190.887
189.908
309.005
301.83
296.667
187.845
281.621
282.548
186.898
288.943
284.292
271.576
278.426
272.175
259.459
259.488
261.196
266.792
181.335
266.848
266.891
261.26
161.229
254.917
253.531
259.751
249.449
161.131
217.071
243.532
255.224
253.526
162.172
253.792
253.227
165.432
259.731
257.647
168.27
252.411
249.211
252.42
254.254
175.767
255
191.064
141.125
281.124
192.793
295.532
298.316
202.844
202.871
158.524
213
311.769
310.133
208.52
300.217
318.958
326.483
335.525
242.101
330.388
322.253
226.702
321.964
323.366
320.745
323.941
316.634
307.513
220.574
223.777
311.352
309.962
313.937
316.473
221.602
220.795
220.111
300.324
297.922
300.543
300.735
296.85
294.394
291.68
288.112
196.667
237.544
241.241
283.003
272.897
273.881
191.247
277.181
277.546
295.016
300.22
308.227
313.185
316.752
320.84
243.408
273.237
290.307
303.881
300.941
291.192
386.222
386.618
385.487
392.516
270.735
242.119
335.027
242.894
339.953
340.075
339.975
242.68
242.042
240.484
333.386
334.995
197.282
333.162
333.027
322.277
165.977
295.089
206.807
206.879
288.681
254.167
306.249
305.332
295.231
296.658
216.72
282.784
290.058
278.718
271.555
266.52
191.487
264.857
265.775
267.7
191.137
227.297
302.025
242.701
183.765
245.63
270.786
202.313
279.182
280.335
277.486
198.96
190.536
262.945
263.625
261.599
251.761
179.895
245.333
246.69
176.668
240.538
177.637
239.56
239.319
239.105
184.922
185.675
147.074
257.017
261.392
251.555
171.987
242.123
174.183
243.162
249.032
248.617
146.682
197.461
270.197
271.178
200.91
273.192
271.907
271.941
297.097
302.175
226.984
289.104
282.353
245.669
243.902
189.376
153.724
190.639
268.165
268.433
273.419
270.434
197.596
198.661
199.956
201.104
285.85
213.42
285.921
286.063
288.102
289.25
286.437
287.692
286.808
215.702
291.165
220.139
285.813
286.332
277.75
208.911
279.548
281.167
286.688
285.915
287.993
303.086
348.288
367.016
369.452
284.843
371.207
271.644
346.357
348.293
245.611
235.608
291.971
203.854
262.54
254.093
255.163
256.333
258.306
260.741
261.633
269.131
269.502
271.286
274.091
273.781
199.033
277.205
281.012
271.943
272.482
271.909
271.203
271.481
268.8
265.264
258.227
254.975
250.276
249.954
249.361
249.659
258.702
127.302
266.551
271.837
272.326
272.719
271.621
271.463
271.443
201.351
275.633
278.544
279.388
274.875
204.607
277.602
277.08
209.087
210.739
283.509
169.462
284.869
285.25
284.611
206.466
276.337
272.893
291.258
291.363
288.877
289.557
286.412
286.783
285.776
275.138
264.456
267.473
210.944
279.925
279.315
279.409
278.444
279.33
280.527
213.737
281.987
170.981
270.462
205.537
270.155
206.64
272.759
275.979
207.404
276.569
208.08
276.096
277.976
280.391
211.916
274.467
163.603
262.688
258.737
191.315
252.51
252.141
253.031
255.536
261.585
264.155
264.537
267.738
268.087
198.846
264.974
197.449
264.409
268.798
279.497
277.184
277.666
279.746
214.759
279.243
209.249
206.824
204.81
263.046
257.641
263.786
266.052
266.622
203.475
263.582
264.117
201.36
268.935
273.097
272.528
273.499
278.774
286.248
285.449
285.145
287.07
290.022
284.152
213.366
215.722
216.246
218.71
283.816
284.803
218.407
288.168
219.416
292.351
218.33
218.48
221.016
292.751
294.435
295.998
220.893
294.777
220.08
297.177
299.61
225.49
174.282
215.079
291.795
219.094
288.972
218.237
291.638
222.514
286.989
289.415
277.563
213.596
280.501
283.102
283.57
286.744
288.856
294.107
214.55
271.202
261.125
264.679
264.432
262.677
261.345
275.864
278.46
205.19
205.296
279.877
281.493
284.512
286.229
291.029
290.258
206.454
287.542
204.641
299.194
298.508
214.821
306.364
306.399
305.383
304.657
306.237
303.907
285.443
277.143
199.792
155.892
269.725
260.638
262.469
277.398
280.459
279.44
301.337
302.643
169.761
169.289
253.732
301.809
304.791
303.162
229.945
310.467
305.567
311.375
318.777
314.269
297.993
212.824
209.831
283.845
205.99
283.526
287.46
292.335
299.405
299.525
295.889
316.408
342.298
280.343
207.817
286.046
167.504
295.162
295.22
298.912
217.93
289.554
286.376
285.509
214.183
280.854
320.822
328.45
334.626
331.478
320.85
295.917
213.988
291.906
292.271
220.112
282.598
280.425
214.591
283.8
286.547
297.372
294.668
287.517
283.957
279.385
280.242
164.17
275.039
270.708
275.899
138.783
210.443
284.353
283.167
274.716
162.378
279.834
208.011
273.62
271.985
201.823
272.091
310.559
317.681
318.579
322.984
241.13
280.604
276.926
157.146
228.578
246.075
270.848
197.521
192.557
240.648
231.803
231.815
256.95
267.297
265.807
196.66
196.809
265.282
265.907
199.026
247.034
240.171
258.266
255.748
189.769
249.182
192.302
254.419
229.91
225.771
232.941
256.252
258.089
257.769
257.815
256.827
256.722
194.344
155.647
252.211
193.681
250.004
250.906
253.191
261.42
259.825
262.286
262.312
262.036
261.209
261.159
260.732
198.363
262.096
269.004
273.876
209.075
276.914
164.265
210.303
276.616
274.751
274.171
206.629
275.578
275.658
275.019
209.397
286.338
295.433
295.711
296.638
301.808
223.551
302.882
313.327
314.872
189.478
302.028
302.172
294.251
224.593
301.608
302.142
226.847
299.772
219.035
287.71
286.889
287.372
227.126
310.256
315.24
315.804
240.177
230.425
334.9
325.912
269.274
265.458
261.406
282.929
289.507
290.302
293.511
291.375
290.042
289.039
213.794
211.332
281.718
203.45
159.915
276.618
278.608
203.377
279.941
281.095
210.877
280.897
280.954
169.585
284.189
213.302
284.969
284.021
289.704
217.306
290.211
288.84
288.37
282.149
211.562
286.694
289.963
295.095
285.103
273.593
224.33
294.603
285.834
286.362
289.713
291.412
291.506
291.406
298.835
299.523
292.726
287.5
253.003
201.574
282.928
214.119
220.61
221.489
298.703
180.673
297.495
208.273
353.083
310.535
303.507
292.146
296.73
294.174
303.447
302.818
302.916
303.619
303.658
300.668
298.826
299.758
302.309
299.011
290.177
294.313
294.228
224.739
279.352
274.712
288.7
294.705
295.734
296.224
293.744
294.648
298.154
236.816
308.961
308.981
309.773
308.907
229.266
225.707
221.095
282.247
267.689
266.8
267.057
206.012
274.934
281.356
285.99
296.521
294.981
293.56
290.386
290.282
217.627
212.172
207.108
266.129
267.185
280.969
222.912
295.745
293.38
283.697
284.472
287.19
289.658
295.135
227.848
302.684
221.282
291.641
289.664
219.077
220.202
291.981
219.717
295.474
308.508
304.753
293.885
282.719
293.124
294.561
294.553
295.674
208.437
256.35
211.115
293.365
294.569
170.31
302.048
304.902
221.451
229.412
233.883
314.024
310.567
307.784
305.397
300.129
274.704
274.782
272.062
270.909
271.053
271.403
270.907
205.04
202.089
276.859
162.385
273.241
454.633
206.128
276.077
209.64
230.642
285.031
220.981
220.943
219.51
282.007
281.979
216.499
214.379
282.141
290.188
219.466
222.019
287.046
279.662
208.073
277.397
276.774
273.782
267.428
198.795
270.713
198.643
198.589
198.072
268.664
202.049
159.264
272.915
270.782
270.707
281.766
216.341
296.273
221.561
303.764
306.7
308.629
313.173
245.409
335.965
377.216
390.316
347.668
320.616
322.011
320.244
321.731
248.573
325.141
325.274
328.131
334.545
327.108
327.82
332.257
337.083
252.97
343.545
328.06
314.866
242.331
241.354
326.899
343.846
350.399
329.178
332.029
241.629
324.675
309.353
307.814
306.977
300.301
221.73
294.521
299.771
301.089
308.342
335.754
217.229
302.805
301.209
298.983
211.149
210.942
296.734
284.328
161.899
266.053
152.326
261.694
258.897
194.124
271.366
270.569
188.846
261.469
255.963
183.036
266.948
266.751
262.697
261.547
260.722
182.683
230.46
213.52
184.725
263.402
181.543
256.94
257.62
264.213
262.808
254.203
253.476
176.467
253.304
226.812
227.602
246.666
256.879
172.226
258.004
171.433
252.928
174.53
129.252
251.715
250.922
249.995
249.254
159.596
242.393
237.048
156.32
250.812
250.683
250.249
251.009
252.156
252.259
247.357
160.219
160.583
172.622
244.301
255.964
226.718
227.39
249.018
256.764
294.491
300.047
191.353
176.566
289.111
288.958
184.676
181.201
282.755
267.567
255.174
253.246
250.531
176.61
355.208
354.499
353.319
348.713
351.506
370.992
372.914
189.699
269.738
270.15
276.516
)
;

boundaryField
{
    sides
    {
        type            calculated;
        value           nonuniform List<scalar> 2(276.516 184.836);
    }
    empty
    {
        type            empty;
    }
}


// ************************************************************************* //
