/*--------------------------------*- C++ -*----------------------------------*\
  =========                 |
  \\      /  F ield         | OpenFOAM: The Open Source CFD Toolbox
   \\    /   O peration     | Website:  https://openfoam.org
    \\  /    A nd           | Version:  7
     \\/     M anipulation  |
\*---------------------------------------------------------------------------*/
FoamFile
{
    version     2.0;
    format      ascii;
    class       volScalarField;
    location    "0.006";
    object      internalT;
}
// * * * * * * * * * * * * * * * * * * * * * * * * * * * * * * * * * * * * * //

dimensions      [1 2 -2 0 0 0 0];

internalField   nonuniform List<scalar> 
1000
(
396.876
378.589
385.824
403.934
400.721
394.231
397.583
390.706
402.534
408.398
401.066
391.81
396.144
394.369
397.996
395.754
392.591
383.753
380.307
374.416
371.235
374.486
374.84
366.037
383.847
401.612
383.501
393.399
400.31
411.871
416.118
410.174
404.303
409.841
411.281
415.116
419.215
410.731
408.481
400.793
398.927
414.681
406.423
390.316
385.413
381.262
367.689
380.257
385.859
370.939
378.008
380.973
397.905
397.147
388.535
384.986
378.428
376.825
380.475
377.655
377.201
371.654
383.002
394.927
404.103
395.471
407.235
411.742
414.703
400.031
402.824
398.33
394.561
389.545
387.083
380.653
370.034
371.296
371.707
377.754
374.412
361.315
369.349
363.278
372.129
362.784
379.317
391.774
389.474
379.703
405.812
414.762
399.384
397.283
390.078
392.252
398.705
428.709
414.684
416.771
433.71
418.666
413.053
419.255
409.364
398.508
402.586
382.909
380.799
370.962
385.604
382.844
380.248
389.259
383.219
374.585
387.755
382.769
362.139
368.033
374.399
370.714
368.064
364.974
368.141
373.664
369.185
384.076
375.818
369.677
368.903
373.583
388.796
404.55
399.037
390.067
369.908
371.373
369.727
374.319
383.955
387.667
355.685
370.514
381.47
396.935
401.917
411.376
414.853
419.95
420.63
407.429
391.485
405.335
416.406
405.512
395.458
408.816
419.672
419.218
417.789
424.172
424.215
409.096
404.121
404.113
406.489
386.726
394.017
387.488
393.952
402.714
397.063
401.499
390.244
391.674
414.693
406.934
391.82
386.256
397.649
398.28
396.663
405.315
406.913
395.696
396.226
396.274
382.489
383.124
381.709
403.579
397.827
389.288
415.705
410.4
405.804
401.867
400.988
396.806
403.936
393.765
402.249
392.556
396.503
383.486
388.522
376.747
382.052
370.288
377.597
370.474
379.707
380.022
382.037
384.413
372.226
390.091
379.156
386.329
384.025
381.041
390.653
391.576
403.978
395.317
386.524
379.048
367.42
375.552
362.83
371.407
382.146
401.81
411.498
410.579
398.54
401.041
385.485
393.642
377.275
379.876
394.255
374.902
382.44
375.285
381.268
378.154
366.02
374.847
378.364
393.448
382.759
400.832
387.055
382.881
381.525
378.309
377.866
389.39
400.115
409.72
400.8
398.73
381.303
383.393
392.903
390.178
388.515
406.457
400.797
414.911
408.779
408.342
401.603
405.569
408.893
414.679
405.858
403.344
404.876
417.144
423.607
424.139
424.798
410.72
407.351
413.406
402.646
397.332
398.003
388.616
391.361
397.49
394.604
386.329
375.479
381.703
381.798
401.872
407.717
393.361
393.801
400.768
403.574
411.715
416.586
415.598
410.187
388.243
381.439
378.033
384.691
381.898
383.822
388.333
378.758
384.141
374.522
384.853
382.945
373.623
385.265
392.991
389.965
388.825
393.807
396.598
395.792
413.64
407.686
388.96
398.038
402.518
405.801
412.597
413.936
421.777
412.472
395.022
392.94
385.619
386.267
372.821
354.674
367.486
375.476
355.881
354.854
360.303
367.165
385.582
387.225
372.5
367.642
387.374
373.62
383.369
372.478
372.485
380.958
384.966
385.055
378.65
381.953
394.909
374.314
366.272
369.857
371.675
383.117
380.326
381.936
382.216
377.018
377.812
378.282
383.703
390.006
392.916
376.459
376.726
384.563
382.427
388.28
362.317
368.052
367.47
386.618
385.758
382.593
379.936
382.826
378.681
371.328
369.625
372.148
383.311
384.96
385.076
363.501
377.196
390.145
372.213
363.792
389.703
385.42
377.594
383.011
380.601
385.36
380.139
373.591
370.055
369.516
378.186
371.564
387.224
387.963
376.691
378.718
362.286
361.365
365.027
366.335
372.761
383.169
379.873
371.436
364.466
367.228
343.205
361.433
377.627
348.811
356.297
349.935
357.899
354.432
369.335
373.523
370.461
365.652
370.866
358.145
364.879
368.575
366.561
361.669
352.252
351.759
343.77
359.962
351.693
345.018
338.053
345.753
341.414
348.07
358.276
361.675
349.126
356.307
363.2
357.472
363.405
354.307
366.868
349.564
336.195
338.622
350.592
360.7
362.563
348.344
351.714
355.783
366.596
339.444
343.467
343.015
349.043
334.792
334.724
327.876
334.219
334.709
354.634
344.538
331.916
337.307
335.288
335.35
338.407
347.437
342.024
320.145
318.597
333.747
335.099
331.775
318.048
326.503
336.204
331.502
336.229
341.889
338.68
342.038
351.427
339.659
334.216
327.216
332.746
335.586
336.504
335.473
343.957
345.066
335.286
347.689
345.04
337.423
334.171
333.381
344.468
324.327
334.01
345.746
338.533
349.08
351.446
355.232
353.253
357.253
362.027
350.336
360.886
360.181
349.279
355.37
352.211
358.897
344.321
369.031
377.678
374.477
366.095
382.161
367.924
382.548
388.892
376.76
367.047
369.828
378.269
369.327
396.358
381.961
372.104
344.33
376.476
379.728
384.324
382.139
396.868
397.508
381.59
396.887
396.141
392.21
391.442
404.856
413.646
415.092
413.267
421.78
397.019
411.069
433.728
435.97
438.115
426.665
427.045
429.587
412.896
422.15
408.812
446.892
449.299
454.706
464.469
489.72
484.851
456.934
456.746
458.357
464.285
474.85
475.468
489.681
457.124
480.816
473.243
436.766
474.888
467.354
453.744
459.1
471.528
498.461
495.117
452.356
470.715
454.075
451.929
431.098
427.652
456.411
462.402
453.078
464.14
452.071
419.264
434.252
444.309
465.51
491.025
471.873
458.698
467.796
427.54
448.687
432.773
472.45
467.948
430.103
464.982
476.235
495.469
471.588
451.97
429.114
443.564
433.659
423.449
428.974
418.507
415.722
427.494
392.906
409.615
419.986
420.893
410.904
431.692
450.864
474.356
476.091
438.93
428.587
440.476
445.85
417.07
401.389
427.12
403.363
410.06
432.852
440.079
445.415
436.355
456.559
442.397
426.758
427.252
452.626
463.855
436.559
466.056
476.829
461.199
437.239
452.885
446.848
454.381
436.517
432.918
437.74
455.803
455.032
432.162
419.63
428.295
441.739
448.859
468.342
432.255
421.404
438.614
427.62
446.383
445.627
413
434.316
446.783
475.499
464.444
440.749
432.02
418.073
411.192
429.164
421.852
402.276
414.949
397.037
398.472
405.996
402.35
395.229
385.913
393.16
399.522
410.62
433.358
474.449
429.225
428.563
409.916
434.73
423.811
401.533
414.538
416.738
393.516
367.597
390.576
410.022
423.564
416.952
438.494
440.989
417.499
422.975
442.522
398.96
397.061
397.675
390.77
433.889
430.768
401.862
381.01
375.499
378.084
398.084
404.381
364.341
386.271
404.642
379.167
382.883
383.183
399.157
397.282
375.7
391.284
428.62
399.617
376.184
379.396
400.112
386.014
375.094
345.153
372.257
365.401
371.806
372.827
387.891
420.235
400.225
401.695
413.831
400.413
419.102
396.024
405.787
414.58
401.27
395.362
404.656
421.614
419.891
428.401
385.2
390.013
393.24
380.126
402.867
428.084
427.157
410.267
414.923
401.137
416.805
422.891
425.958
442.439
452.785
446.343
440.459
456.499
431.761
429.352
422.678
414.402
426.617
432.608
434.572
433.408
487.196
473.49
440.26
443.709
432.089
411.237
421.112
409.355
404.81
416.706
405.561
412.991
419.023
440.033
425.855
404.102
411.763
385.405
391.148
388.441
341.225
344.291
337.093
349
373.241
409.917
432.884
417.112
417.584
386.817
380.676
402.632
417.417
400.296
424.545
429.741
407.756
391.825
389.238
388.206
396.318
387.325
400.07
367.577
399.924
424.947
413.793
430.89
426.482
463.681
428.802
422.947
404.024
424.014
429.848
421.597
428.937
443.737
444.903
441.439
438.809
427.509
420.872
397.359
404.132
410.014
430.886
393.796
402.595
381.016
386.571
394.27
379.879
397.154
415.746
418.866
434.049
426.994
418.784
432.001
426.154
444.229
441.513
417.369
423.144
404.59
393.27
406.028
399.775
412.5
421.409
422.177
410.56
413.925
419.867
464.866
448.528
447.171
475.73
450.576
411.068
395.096
384.469
390.498
404.359
385.619
389.021
388.221
399.719
414.208
403.578
414.341
420.085
398.616
367.316
391.936
382.454
369.551
388.533
375.605
374.573
359.766
365.171
381.934
395.229
422.764
357.399
357.754
386.488
389.102
418.195
421.202
408.782
425.475
424.008
422.567
403.734
434.102
426.958
413.836
402.022
396.314
423.869
421.749
397.419
405.17
411.271
412.642
437.973
416.246
413.484
410.649
405.387
391.275
355.982
390.103
396.023
420.885
360.925
338.906
372.797
374.976
392.698
388.043
377.723
356.459
339.03
361.683
332.373
355.065
378.332
389.404
372.114
376.351
365.727
329.299
348.546
350.536
)
;

boundaryField
{
    sides
    {
        type            symmetry;
    }
    empty
    {
        type            empty;
    }
}


// ************************************************************************* //
