/*--------------------------------*- C++ -*----------------------------------*\
  =========                 |
  \\      /  F ield         | OpenFOAM: The Open Source CFD Toolbox
   \\    /   O peration     | Website:  https://openfoam.org
    \\  /    A nd           | Version:  7
     \\/     M anipulation  |
\*---------------------------------------------------------------------------*/
FoamFile
{
    version     2.0;
    format      ascii;
    class       volScalarField;
    location    "0.006";
    object      internalEMean;
}
// * * * * * * * * * * * * * * * * * * * * * * * * * * * * * * * * * * * * * //

dimensions      [1 -1 -2 0 0 0 0];

internalField   nonuniform List<scalar> 
1000
(
2.29231
2.13564
2.11064
2.25101
2.29064
2.22488
2.27279
2.22431
2.47349
2.4496
2.3651
2.31735
2.28232
2.2541
2.33349
2.28722
2.35567
2.29705
2.26192
2.30535
2.2164
2.30679
2.29854
2.2342
2.28412
2.39963
2.28378
2.33465
2.27647
2.29834
2.25049
2.21846
2.18536
2.21178
2.29098
2.29703
2.25793
2.35391
2.32123
2.32049
2.28015
2.3629
2.23504
2.23062
2.16768
2.24446
2.1981
2.24489
2.23942
2.20742
2.22811
2.23296
2.36631
2.35566
2.30115
2.34323
2.29707
2.23793
2.2803
2.2471
2.25625
2.15039
2.23185
2.2393
2.21921
2.25669
2.29023
2.26768
2.3559
2.26548
2.3544
2.35603
2.28493
2.22211
2.24392
2.30816
2.26172
2.2881
2.26296
2.3261
2.3537
2.26773
2.36443
2.24904
2.22045
2.15309
2.33013
2.2879
2.21006
2.10529
2.34115
2.31884
2.23344
2.20649
2.16645
2.16582
2.21434
2.30837
2.16487
2.2528
2.42033
2.29288
2.30783
2.26697
2.36475
2.36439
2.34162
2.21944
2.35368
2.25145
2.46423
2.3588
2.30075
2.3359
2.31557
2.29503
2.28554
2.32503
2.16284
2.26046
2.28183
2.31926
2.29868
2.16854
2.28073
2.29012
2.30963
2.2458
2.24897
2.23121
2.13768
2.26274
2.27886
2.31788
2.32258
2.32315
2.2521
2.25581
2.23515
2.26123
2.33446
2.34648
2.16073
2.15277
2.19187
2.22253
2.28259
2.26993
2.33899
2.41382
2.35953
2.33334
2.21271
2.33606
2.44622
2.30433
2.26656
2.33233
2.32167
2.31862
2.31863
2.30293
2.36935
2.24765
2.34483
2.36071
2.42342
2.26121
2.27419
2.28338
2.25618
2.42878
2.35819
2.35729
2.27635
2.36366
2.42958
2.28034
2.2002
2.28659
2.34465
2.28537
2.31901
2.25786
2.3063
2.27225
2.39665
2.30381
2.24774
2.22225
2.19228
2.29622
2.24931
2.23342
2.38971
2.41231
2.28295
2.32692
2.29567
2.40182
2.33388
2.24755
2.30569
2.32255
2.31744
2.17992
2.22761
2.19488
2.20812
2.17457
2.19188
2.15902
2.24105
2.36654
2.33632
2.31507
2.21111
2.36286
2.25658
2.30813
2.27729
2.23557
2.22185
2.2945
2.30289
2.3461
2.38479
2.28738
2.2219
2.26719
2.16135
2.23167
2.29084
2.32821
2.39215
2.37153
2.19754
2.31619
2.21627
2.34064
2.20887
2.23949
2.33825
2.16826
2.32908
2.18771
2.26228
2.27772
2.1817
2.1351
2.22407
2.34768
2.20258
2.26007
2.21058
2.18452
2.25687
2.22224
2.21567
2.18138
2.28943
2.3212
2.2524
2.27788
2.13649
2.27447
2.23739
2.2218
2.2979
2.22064
2.18471
2.23869
2.29139
2.30489
2.24906
2.21597
2.21525
2.26439
2.22349
2.29162
2.28043
2.28359
2.32996
2.30002
2.27478
2.29499
2.31176
2.38762
2.30892
2.2053
2.16289
2.2313
2.3538
2.35504
2.31008
2.25791
2.21726
2.30764
2.25611
2.33278
2.30169
2.28324
2.29954
2.264
2.25162
2.30815
2.37109
2.4361
2.35936
2.1907
2.23868
2.13376
2.24055
2.18746
2.18706
2.27023
2.10299
2.26939
2.17795
2.1839
2.28507
2.17634
2.22399
2.24647
2.14112
2.13406
2.19661
2.19299
2.09138
2.28639
2.24009
2.13051
2.17162
2.11469
2.12907
2.2084
2.24323
2.16077
2.16201
2.11362
2.12066
2.06853
2.06618
2.10872
2.00318
2.09066
2.11045
2.02648
2.02639
2.10455
2.072
2.1378
2.11782
2.04904
1.97485
2.02323
1.99245
2.07006
2.02994
2.05407
2.07521
2.07439
1.9689
1.97048
2.01399
2.07874
1.9303
1.89665
1.95898
2.0378
2.07414
2.03464
1.99421
1.96918
1.93702
1.89863
1.91209
2.00551
2.0438
1.98281
1.85937
1.88804
2.02129
2.02619
1.99674
1.85592
1.87571
1.89873
2.0343
1.90974
1.90173
1.85803
1.86919
1.88228
1.82059
1.8607
1.89924
1.95171
1.89352
1.95144
1.80238
1.83762
1.88372
1.85465
1.82274
1.87486
1.82887
1.88437
1.83808
1.76983
1.79586
1.83285
1.77465
1.76754
1.7426
1.72514
1.79285
1.75652
1.76652
1.81551
1.85935
1.69108
1.65015
1.67796
1.70041
1.71307
1.642
1.65375
1.64219
1.61198
1.62667
1.53224
1.56794
1.65461
1.55273
1.52856
1.53392
1.58279
1.57774
1.61801
1.62546
1.58703
1.63679
1.61383
1.54535
1.55455
1.57891
1.49795
1.46552
1.46422
1.45535
1.4628
1.47421
1.48247
1.50038
1.41288
1.39112
1.44574
1.46205
1.49474
1.48154
1.35313
1.37559
1.42504
1.39089
1.43114
1.50022
1.58014
1.4071
1.39484
1.33549
1.35855
1.39191
1.42048
1.36904
1.37004
1.36964
1.44273
1.2985
1.30358
1.38636
1.33522
1.27233
1.28691
1.29893
1.27594
1.24848
1.30499
1.28429
1.2449
1.29316
1.23874
1.1984
1.25332
1.29466
1.24405
1.1588
1.12363
1.18325
1.13183
1.12043
1.13044
1.17084
1.19354
1.16134
1.20584
1.19956
1.17394
1.22799
1.18479
1.17156
1.15148
1.08656
1.12819
1.15751
1.18094
1.1707
1.20979
1.13955
1.11977
1.13335
1.16443
1.09293
1.09588
1.056
1.14019
1.07083
1.12822
1.14259
1.1267
1.12171
1.17679
1.14105
1.15819
1.18842
1.1971
1.15344
1.1779
1.14738
1.10455
1.13332
1.10337
1.12351
1.13786
1.17807
1.16957
1.20501
1.11144
1.12003
1.11122
1.16942
1.18772
1.119
1.05322
1.08971
1.09356
1.0579
1.15003
1.08231
1.04787
1.07505
1.10458
1.06759
1.05398
1.11066
1.13601
1.13704
1.07078
1.14506
1.14368
1.06593
1.02144
1.08507
1.10596
1.10598
1.09993
1.08061
1.0745
1.09172
1.10671
1.12976
1.10727
1.07374
1.12459
1.07217
1.00778
1.05997
1.01594
1.06716
1.12656
1.15956
1.20959
1.15185
1.15604
1.11072
1.15023
1.08119
1.10273
1.18907
1.12749
1.12902
1.08867
1.09401
1.08905
0.992146
1.02839
1.01329
0.999494
1.09169
1.10163
1.19684
1.14967
1.05153
1.05445
1.04058
1.04364
0.979815
0.963029
1.05103
1.07562
1.04254
1.04773
1.04777
0.95767
0.964652
0.967565
1.05562
1.12283
0.99548
1.02083
1.0059
0.922563
1.01355
0.969084
1.08041
1.04158
0.988392
1.06715
1.04515
1.04888
1.0034
0.94179
0.925367
0.929634
0.93654
0.884966
0.907914
0.915494
0.889936
0.947082
0.860598
0.89206
0.927307
0.964781
0.954153
1.02155
1.05794
1.09994
1.1391
0.970599
0.967205
0.935527
0.991928
0.932504
0.86274
0.853326
0.852873
0.876164
0.894608
0.883216
0.927031
0.91721
0.924643
0.907259
0.858715
0.89466
0.988517
0.98238
0.876277
0.940176
0.95398
0.870231
0.813978
0.887526
0.84274
0.886774
0.864843
0.885554
0.871822
0.927306
0.943852
0.842441
0.872833
0.876592
0.940929
0.887951
0.987248
0.934627
0.852306
0.890772
0.890166
0.967178
0.87961
0.837232
0.855259
0.863102
0.923527
0.951459
0.960701
0.918437
0.844029
0.880428
0.908268
0.85656
0.83197
0.870616
0.779473
0.755448
0.7919
0.828466
0.794113
0.764694
0.76908
0.790466
0.840675
0.865613
0.887316
0.775972
0.837989
0.849185
0.850198
0.811607
0.727688
0.712267
0.804032
0.806043
0.738657
0.774069
0.794966
0.848779
0.790339
0.853118
0.893947
0.879304
0.891033
0.946772
0.85139
0.823674
0.785943
0.801048
0.883572
0.870823
0.824734
0.784788
0.738723
0.745787
0.803513
0.821179
0.673428
0.732473
0.828901
0.764239
0.754022
0.689077
0.740743
0.779589
0.755285
0.781708
0.833736
0.800609
0.787052
0.748769
0.748959
0.734826
0.675091
0.647929
0.718876
0.675912
0.691289
0.647075
0.716979
0.766127
0.699946
0.734845
0.701458
0.691545
0.753622
0.683258
0.737383
0.742056
0.712923
0.712616
0.724013
0.767622
0.70632
0.741756
0.672495
0.702011
0.666894
0.670241
0.719492
0.696262
0.703183
0.701956
0.635974
0.606652
0.697292
0.722702
0.728998
0.668707
0.677546
0.715895
0.731948
0.752589
0.728373
0.741772
0.65552
0.694797
0.680231
0.676071
0.671066
0.707117
0.777357
0.744347
0.687423
0.649798
0.642574
0.645204
0.695994
0.66905
0.664789
0.688041
0.634082
0.647672
0.639244
0.717697
0.656404
0.614552
0.632504
0.610285
0.643411
0.68604
0.585927
0.608085
0.578734
0.598815
0.669544
0.688835
0.699314
0.653439
0.671162
0.642561
0.625222
0.67555
0.671517
0.659311
0.700765
0.736239
0.667727
0.602869
0.598554
0.594196
0.598862
0.607911
0.633323
0.584656
0.613583
0.658476
0.637599
0.675369
0.661394
0.68158
0.670493
0.675548
0.650274
0.644932
0.709888
0.633979
0.689384
0.703624
0.674759
0.672858
0.661933
0.639329
0.685138
0.611682
0.680787
0.690602
0.687386
0.624365
0.664974
0.627927
0.636238
0.618244
0.614209
0.695374
0.685164
0.681897
0.704916
0.685672
0.655697
0.688194
0.691897
0.695586
0.733573
0.667262
0.669387
0.626421
0.654911
0.65684
0.689339
0.679364
0.688025
0.715727
0.663817
0.688401
0.680001
0.685835
0.673781
0.730497
0.81708
0.713691
0.602516
0.606471
0.603273
0.561268
0.582796
0.609626
0.62888
0.638418
0.703315
0.706767
0.663742
0.712262
0.743354
0.712565
0.624199
0.684209
0.657161
0.628634
0.653391
0.637939
0.622976
0.583015
0.616668
0.627442
0.628683
0.729368
0.645485
0.611757
0.632767
0.635792
0.674068
0.656768
0.652876
0.666099
0.642386
0.627441
0.608512
0.634729
0.633445
0.654282
0.613332
0.622772
0.653904
0.705344
0.698011
0.633867
0.655669
0.640264
0.679492
0.705289
0.690071
0.721248
0.656946
0.642652
0.576411
0.583703
0.59976
0.761113
0.643756
0.633532
0.698708
0.678331
0.718116
0.728757
0.696402
0.678402
0.619858
0.673052
0.639369
0.621947
0.70005
0.68772
0.62396
0.677093
0.671761
0.620839
0.64688
0.601672
)
;

boundaryField
{
    sides
    {
        type            symmetry;
    }
    empty
    {
        type            empty;
    }
}


// ************************************************************************* //
