/*--------------------------------*- C++ -*----------------------------------*\
  =========                 |
  \\      /  F ield         | OpenFOAM: The Open Source CFD Toolbox
   \\    /   O peration     | Website:  https://openfoam.org
    \\  /    A nd           | Version:  7
     \\/     M anipulation  |
\*---------------------------------------------------------------------------*/
FoamFile
{
    version     2.0;
    format      ascii;
    class       volScalarField;
    location    "0.006";
    object      linearKE;
}
// * * * * * * * * * * * * * * * * * * * * * * * * * * * * * * * * * * * * * //

dimensions      [1 -1 -2 0 0 0 0];

internalField   nonuniform List<scalar> 
1000
(
0.386021
0
0
0
0
0.470738
0.17997
0.0454872
0.0108038
0.167925
0.203919
0.381117
0.639773
0.12888
0.626229
0.0471131
0.369484
0.189676
0
0.116629
0
0
0
0
0.0083024
0.198884
0.648831
0
0.631977
0.302248
0.125027
0.148866
0.199618
0.312327
0.237628
0.404613
0.454975
0.271225
0.80893
0.223533
0.106415
0.476952
0.303433
0.194064
0.313206
0.0728565
0
0.00466
0.358585
0.322698
0.510621
0.0746911
0.23678
0
0.0678912
0
0.179974
0.64933
0
0
0.291868
0.267453
0.0564311
0.199046
0.305834
0.387874
0.390586
0.594528
0.69432
0.0451505
0.0763803
0.52467
0.151609
0.0823903
0.262828
0.648619
0.209177
0.723301
0.0993612
0.419053
0.237372
0.0949223
0.172183
0.953493
0
0.553955
0.31484
0.207511
0.860211
0.438049
0.0781804
0.366652
0.0465414
0.102358
0.417181
0.544762
0.0723856
0.213857
0
0.125356
0
0.678909
0.899511
0.309838
0
0
0.118352
0.285802
0.176944
0.317586
0.294086
1.10695
0.221569
0.627841
0.162514
0.0261732
0.48085
0.282994
0.648855
0.0445278
0.700551
0.468793
0.122606
0.155688
0.583053
0
0.351854
0.0169094
0
0.920056
0
0.537804
0
0.219987
0.385641
0.458146
0.504709
0.659138
0.423187
0.525969
0.36813
0.765529
0.306778
0.828337
0.310155
0.256861
0.187823
0.912321
0
0.59476
0.23567
1.26595
0.299287
0.150757
0.361917
0.275178
0.384998
0
0
0.411855
0.397576
0.11127
0.0984657
1.20553
0.0944701
0.231413
0.0521406
0.256277
0.0274201
0.442385
0.211185
0.0766896
0.495839
0.361616
0.0199133
0.431739
0.418219
0
0.202723
0.218015
0.170236
0.359723
0.313399
0.0319999
0.125388
0.308012
0.671916
0.11917
0.0688467
0.106468
0
1.2745
0.210678
0.746507
0.039229
0.180209
0.101909
0.813424
0.360273
0.0634674
0.77641
0.337826
0.606703
0.428252
0.0950181
0.324413
0.769342
0
1.23915
0.255283
0
0
0.160945
0.188727
0.0202512
0.492665
0.587075
0.498759
0.171791
0.059047
0.110475
0.166361
0.249692
0
0.225659
0.722118
0.350904
0.134865
0.397682
0.402878
0.390015
0.600159
0.442201
0.209922
0.160729
0.743852
0.0352389
0.0600056
0.176769
0.504676
0.801265
0.837045
0.180131
0.566195
0.463625
0
0.22589
0.712356
0.362971
0.672418
0.359988
0.932724
0.56574
0.0835119
0.376814
0.782139
1.48369
0.383445
0.197
0.107137
0.260034
0.288959
0.246228
0.252887
0.17418
0.722733
0.712605
0.663012
0.385011
0.368803
0.178676
0
1.24594
0.732603
0.449358
0.173787
1.12342
0.109494
0.365972
0.225813
0.810081
0.0687274
0.69714
0.397604
0.632296
0.0857548
0.42835
0.340332
0.34645
0.0563799
0
0.151522
0.548995
0.320631
0.0162922
0.342422
0.39073
0.227504
0.0914562
0.532329
0.252391
0.861745
0.811693
0.514758
0.639527
0.390449
0.473859
0.870351
0.170256
0.294721
0.513399
0.246883
0.290061
0.288747
0.284791
0.980125
0.534762
0
0.269445
0.402114
0.750655
0.463045
0.411727
0.113157
0.16389
0.526701
0.2464
0.130183
0.582763
0.423251
0.278239
0.0642915
0.204643
0.65411
0.611695
0.387758
0.132422
0.448747
0.309179
1.189
0.758573
0.0536414
0.675687
0.349778
0.886034
0.158742
0
0.931431
0.320854
0.0911935
0.379919
0.159457
0.414888
0.115377
0.767905
0.525178
0.103064
0.733959
0.322485
0.250966
0.182181
0.104628
0.680813
0.771137
0.14007
0.0746617
0.508745
0
0.32341
0.163612
0.37579
0.114336
0
0.04998
1.18519
0.234684
1.06598
0.0457567
0.171278
0.352984
0.59648
0.775647
0.421797
0.14806
0.815534
0.0976724
0.255166
0.288165
0.0558195
0.0824611
0.311963
0.718401
0.485723
0.446027
0.285448
0.699776
0.0379454
0.12336
0.344627
0.620334
0.363515
0.266295
0.597984
0.377582
0.554976
0.449147
0.218814
0.264137
0.354182
0.352236
0.263786
0.473099
1.12265
0.172887
0.473813
0.670136
1.1996
0.506242
0.0847561
0.47462
0.5231
0.489265
0.906384
0.41872
0.185598
0.396443
0.0992917
0.353723
0.644141
0.493086
0.131974
0.523386
0.733052
0.973228
0.0493887
0.166155
0.164896
0.769471
0.598163
0.1075
0.394019
0
0.427257
0.703611
0.374611
0.134672
0.517442
0.28718
0.268803
0.527589
0.271019
0.434217
0.428791
0.648962
0.345003
0.265621
0.833567
0.22392
0.0352112
0.25512
0.679669
0.436422
0.0704385
0.229078
0.102565
0.215674
0.409697
0.215973
0.345194
0.270271
0.645408
0.44155
0.343092
0.259459
0.404431
0.948655
0.0900795
0.104461
0.141242
0.125683
0.420141
0.555152
1.10878
0.372398
0.706504
0.504138
0.349552
0.139128
0.495231
0.0858208
0.245997
0.106743
0.372196
0.627196
0.639992
0.183706
0.433805
0.452058
0.433889
0.115914
0.279527
0.712479
0.22797
0.291499
0.21945
0.251827
0.212208
0.670478
0.0492928
0.524564
0.325483
0.24808
0.0421319
0
0.620048
0.198416
0.085057
0.24875
0
0.119347
0.0137333
0.725256
0.367922
0.354548
0.222491
0.0189917
1.23523
0.383849
0.354959
1.33755
0.301041
0.660896
0.44543
0.312913
0.0161999
0.393071
0
0.554448
0.0299329
0
0.608967
0.0671107
0.0806166
0.86901
0.968143
0
0.82994
0.334844
0.109464
0.555016
0.181565
0.334835
0.172019
0.287487
0.153129
0.798603
2.08931
0.64752
0.418443
0.47666
0.593507
0.747653
0.433597
0.183656
0.714915
0.790118
0.254432
0.130099
0.590381
1.15767
0.949263
0.275394
0.0854007
0.453719
0.167993
0.240277
0.412843
0.389722
0.490712
0.415724
0.142088
0.0602545
0
0.127828
0.339263
0.13077
0.232854
0.540884
0.560159
0
0.933346
0.964711
0.516793
0.925755
0.109998
1.4208
0.127808
0.801913
0.35337
0.452392
0.676276
0.927554
0.304569
0.351988
0.475574
0.0489629
0.0552616
0.0654978
0.668256
0.431358
0.331923
0.0771838
0.617687
1.01901
0.377483
0
0.571957
1.21649
0.269402
1.31878
1.14831
0.131046
0.297995
1.26259
0.701126
0.505718
0.731165
0.554445
0.136975
0.2863
0.455929
0.528577
0
0.584293
0.329674
0.999965
0.504021
0.421545
0.0144736
0.419267
0.469798
0.210662
0.34425
0.119277
0.237432
0.377699
0.1615
0.39866
0.352394
0.277263
0.228385
0.115346
0.0712595
0.999659
0.166488
0.074001
0.720134
0.416191
0.260348
0.471002
0.351406
0
0.703325
0.240079
0.735538
0.0504223
0.583064
0.854285
0.0127812
0.285539
0.0973123
0.177218
0.427761
1.4245
0
0.165696
0.775479
0.285458
0.14554
0.456376
0.315268
0.326627
0.292398
0.403965
0.78276
0.294977
0.306229
0.184165
0.38437
0.250397
0
0.229198
0.249383
0.521019
0.178724
0.655841
0.394562
0.47921
0.712699
0.0474844
0.432391
0.34577
1.14437
0.0476431
0.873624
0.382217
0.566033
0.954821
0.568335
0.645601
1.27537
0
0.190407
0.246519
0.149482
0.0246466
0
0.0460641
0.448245
0.279605
0.688863
0.397586
0.535416
0.680311
0.0709724
0.206968
0.383741
0.392849
0.467544
0.830873
0.157974
0.858149
0.148652
0.0715571
0.386722
0.0447326
0.292104
0.950261
0.271937
0.130153
0.122734
0.129902
1.01619
0.943845
0.0644435
0.600499
0.573607
0.1394
0.0843008
0.873581
0.206114
0.323217
0.719333
0.483397
0
0.201547
0.911107
0
0.718507
0.267432
0.297886
0.352452
0.462736
0.263346
0.719748
0.0860921
0.413301
0.222551
0.662089
0.131904
0.475922
1.04554
0.330068
1.25335
1.13609
0.181454
0.243143
0.234915
0.130443
0.216924
0.321697
0.14926
0.216287
0.600859
0.390796
0.0401416
0.471082
0.293648
0.0192503
0.313795
0.286067
0.16549
0.521015
0.0284396
0.134715
0
0.448437
0
0.00269136
0.309344
1.12319
0.370635
1.14623
0.300792
0.113662
0.442321
0.461576
0.859808
0.703033
0.534486
0
0.187543
0.348803
0.605424
0.679894
0.951071
0.38145
0.279096
0.682293
0.206145
0.0425928
0.402194
1.0696
0
0.12304
0.15967
0.135437
0.409165
0.242856
0.237131
0.363979
0.195476
0.453245
0.672789
0.31933
0.623701
0.630501
0.474532
0.0840096
0.132383
0.0889591
0.864824
0.578291
0.337587
0.213863
0.249332
0.117167
0
0.779531
0.122883
0.138899
0.316323
0
0.690158
0.194819
0.213083
0.263921
0.453816
0.282458
0.164492
0.341595
0.746002
0.206161
0.183804
0.452911
1.06875
1.12514
0.179598
0.217868
0
0.462514
0.145094
0.157588
0.015161
0.21971
0.314402
0.387062
0.0962172
0.596662
0.172677
0.631547
0.110329
0.179032
0.305582
0.392644
0.332038
0.480803
0.756536
0.0548804
0
0.458449
0.51103
0.189683
0.540455
0
0.0976927
0.647232
0.170036
0
0.374499
0
0.411058
0.572466
0.386975
0.0854066
0.264595
0.526108
0.165423
0.24755
0.239872
0.127496
0.331037
0.586258
0.557672
0.98543
0.267838
0.339407
0.0812224
0.101393
0.399261
0.388452
0.679805
0.181083
0.491019
0.597543
0.177685
0.363065
0.336379
0.0719932
0.0967539
0.474334
0.41321
0.314229
0
0.282431
0.141619
0.0376929
0.291942
0.0682715
0.183085
0.378432
0.0557281
0.0675087
0.0354623
0.185285
0.211504
0.262307
0.615487
0.411264
0.263353
0.276841
0
0
0.324966
0
0.2781
0
0.183311
0.227005
0.339337
0
0.101276
0.0372958
0
0.425606
0.127885
0.195187
0.458728
0.00804624
0.0767939
0.300721
0.284549
0.0158102
0.525113
0.0670319
0.251376
0.161227
0.433516
0.690917
0
0
0.0692913
0.295743
0.1145
0.0565199
0.0567183
0
0.214211
0.157864
0.00598846
0.147976
0.41665
0.129133
0.30968
0
0.21685
0.397118
0.211477
0.0344401
0
)
;

boundaryField
{
    sides
    {
        type            zeroGradient;
    }
    empty
    {
        type            empty;
    }
}


// ************************************************************************* //
