/*--------------------------------*- C++ -*----------------------------------*\
  =========                 |
  \\      /  F ield         | OpenFOAM: The Open Source CFD Toolbox
   \\    /   O peration     | Website:  https://openfoam.org
    \\  /    A nd           | Version:  7
     \\/     M anipulation  |
\*---------------------------------------------------------------------------*/
FoamFile
{
    version     2.0;
    format      ascii;
    class       volScalarField;
    location    "0.006";
    object      linearKEMean;
}
// * * * * * * * * * * * * * * * * * * * * * * * * * * * * * * * * * * * * * //

dimensions      [1 -1 -2 0 0 0 0];

internalField   nonuniform List<scalar> 
1000
(
7.87299
7.87167
7.843
7.83331
7.84861
7.86166
7.84705
7.85628
7.8573
7.87589
7.81628
7.87785
7.86262
7.86104
7.89368
7.88838
7.86774
7.84826
7.88934
7.86499
7.87809
7.91984
7.9178
7.85432
7.86535
7.89644
7.88997
7.84529
7.85016
7.86772
7.89317
7.88715
7.83372
7.86251
7.90734
7.89147
7.87855
7.8518
7.87132
7.85504
7.84843
7.88738
7.83119
7.87345
7.85159
7.86631
7.84882
7.85668
7.86737
7.87881
7.81718
7.8437
7.86973
7.85031
7.88748
7.84078
7.85587
7.86306
7.85488
7.85558
7.82581
7.81573
7.81496
7.85055
7.84482
7.85017
7.83644
7.84801
7.8737
7.88606
7.88509
7.87107
7.87645
7.84096
7.86465
7.83917
7.86603
7.80758
7.82364
7.89841
7.87722
7.8857
7.85129
7.83564
7.87317
7.85002
7.82432
7.84234
7.85122
7.83866
7.85781
7.8641
7.84186
7.85062
7.87851
7.88402
7.85716
7.85462
7.87871
7.84427
7.82451
7.83929
7.83453
7.87326
7.87148
7.83884
7.84448
7.81417
7.86572
7.84296
7.87727
7.8495
7.81033
7.85458
7.87334
7.7985
7.85261
7.80726
7.85406
7.85014
7.83928
7.83881
7.8159
7.83498
7.82179
7.84894
7.84354
7.86011
7.84618
7.85603
7.83524
7.84846
7.84044
7.83387
7.84552
7.84991
7.82354
7.84922
7.84309
7.77794
7.82202
7.83927
7.80966
7.79621
7.82351
7.83411
7.85658
7.87858
7.82961
7.82832
7.86432
7.81174
7.79559
7.8046
7.78953
7.82258
7.83333
7.8045
7.79329
7.79533
7.8019
7.83887
7.78492
7.79255
7.78095
7.76414
7.82411
7.75614
7.80016
7.80628
7.76875
7.77458
7.78844
7.76482
7.78091
7.77156
7.76415
7.75461
7.77415
7.77373
7.75391
7.77139
7.73135
7.70404
7.73878
7.76043
7.74162
7.71264
7.69844
7.73496
7.70855
7.7321
7.73533
7.73391
7.68939
7.69902
7.71421
7.70342
7.74153
7.73181
7.67026
7.70092
7.71878
7.67926
7.68061
7.65787
7.66188
7.67191
7.65722
7.67301
7.6558
7.63349
7.64167
7.63852
7.62567
7.6189
7.61949
7.6003
7.62317
7.61007
7.608
7.61856
7.58449
7.5398
7.5609
7.52324
7.56593
7.60272
7.55738
7.56931
7.55012
7.53225
7.54783
7.522
7.51937
7.55666
7.51183
7.4995
7.451
7.48545
7.4648
7.45599
7.46315
7.46609
7.42298
7.47864
7.42302
7.43469
7.41447
7.40947
7.40284
7.41772
7.41869
7.36746
7.38865
7.3726
7.40448
7.40815
7.34445
7.33383
7.33758
7.31271
7.35772
7.36672
7.28789
7.28024
7.26537
7.29604
7.31086
7.26939
7.25484
7.28157
7.23005
7.24501
7.28544
7.22073
7.24524
7.24176
7.22072
7.21015
7.16384
7.16437
7.10268
7.12963
7.12747
7.12315
7.09429
7.08158
7.06272
7.10336
7.1042
7.10895
7.08059
7.06071
7.06699
7.05271
7.03572
6.98047
6.98921
6.96611
6.98781
6.99183
6.9493
6.94571
6.92117
6.93284
6.92521
6.88051
6.87971
6.88188
6.82766
6.907
6.84569
6.81422
6.81602
6.77082
6.75421
6.78201
6.76471
6.79385
6.69353
6.7406
6.72122
6.71023
6.6958
6.72413
6.70023
6.64705
6.61889
6.6543
6.63239
6.56596
6.57187
6.59522
6.55475
6.54013
6.52654
6.50849
6.49869
6.51856
6.49801
6.49044
6.46535
6.44285
6.45507
6.44815
6.433
6.41389
6.45307
6.3842
6.38002
6.34213
6.39138
6.39232
6.30876
6.27418
6.26624
6.27875
6.26133
6.2552
6.26223
6.19191
6.18885
6.13515
6.14219
6.17609
6.13699
6.11459
6.10248
6.09105
6.06239
6.06661
6.06089
6.05556
6.04123
6.00026
6.03015
6.01787
6.00869
5.9657
5.89969
5.9031
5.88955
5.89394
5.8444
5.88822
5.83611
5.81277
5.83503
5.82209
5.77074
5.76597
5.74838
5.73669
5.71004
5.68126
5.67684
5.68669
5.66736
5.67499
5.66252
5.61898
5.56748
5.55441
5.57969
5.57778
5.54097
5.50611
5.50643
5.45855
5.46473
5.41679
5.39262
5.41132
5.36868
5.37634
5.36317
5.35335
5.33498
5.33419
5.30512
5.28281
5.2329
5.253
5.22598
5.23234
5.192
5.16778
5.1626
5.15531
5.13102
5.10815
5.09809
5.06917
5.06295
5.02923
4.99881
4.98761
4.95359
4.94727
4.94245
4.91815
4.90919
4.8821
4.89248
4.84169
4.81023
4.82305
4.7814
4.76838
4.76271
4.72586
4.70661
4.71939
4.71756
4.68458
4.64625
4.67393
4.59979
4.56393
4.55066
4.54337
4.51746
4.47477
4.485
4.46658
4.46109
4.43483
4.40592
4.40272
4.3677
4.33362
4.30239
4.3121
4.26985
4.2588
4.22
4.20482
4.20084
4.2015
4.16628
4.1715
4.14881
4.10928
4.12639
4.10534
4.07515
4.02494
4.02628
4.03477
3.98894
3.96401
3.9556
3.94249
3.90871
3.92376
3.87878
3.86479
3.83948
3.82586
3.78725
3.75732
3.76933
3.72817
3.72663
3.73613
3.70481
3.7565
3.73135
3.7224
3.69828
3.70103
3.69049
3.69653
3.67641
3.66911
3.6606
3.67067
3.65311
3.64366
3.63769
3.63414
3.62845
3.62611
3.5987
3.61751
3.63682
3.5803
3.59931
3.62645
3.59217
3.58315
3.59041
3.55232
3.53723
3.51601
3.51933
3.52599
3.53176
3.50307
3.51336
3.48939
3.47645
3.4752
3.48302
3.46482
3.46948
3.45517
3.45247
3.43392
3.44428
3.43104
3.41071
3.42513
3.42098
3.41818
3.4099
3.39857
3.37539
3.37878
3.36698
3.35899
3.34543
3.33504
3.33751
3.31915
3.30838
3.31087
3.28188
3.30539
3.30052
3.3026
3.29025
3.27552
3.25177
3.24558
3.23346
3.23372
3.23257
3.21857
3.23342
3.19669
3.18366
3.18172
3.18754
3.20007
3.19194
3.17639
3.16782
3.17433
3.182
3.17757
3.15517
3.14039
3.1282
3.13323
3.10615
3.09588
3.08865
3.07492
3.05532
3.04825
3.04083
3.03428
3.02678
3.0122
3.0329
3.03185
2.99274
3.00462
3.0091
2.99745
2.98447
2.98032
2.96661
2.97084
2.98365
2.98014
2.96608
2.96613
2.97063
2.9697
2.92207
2.92946
2.95793
2.93419
2.91182
2.89264
2.88158
2.91427
2.89644
2.89072
2.86225
2.85531
2.84967
2.82459
2.84558
2.83064
2.83177
2.82943
2.80354
2.78169
2.78615
2.78392
2.76451
2.76254
2.75972
2.73593
2.70791
2.71645
2.71436
2.71993
2.70317
2.70848
2.71658
2.71177
2.70147
2.69907
2.66592
2.67593
2.64905
2.64328
2.62933
2.64316
2.63165
2.62159
2.61969
2.61843
2.62273
2.61118
2.59947
2.58134
2.58273
2.58708
2.57228
2.57048
2.56004
2.54237
2.53084
2.52201
2.50618
2.49464
2.49015
2.47768
2.47169
2.47084
2.46347
2.47065
2.4553
2.45797
2.45785
2.44677
2.43758
2.41922
2.4228
2.42976
2.39968
2.41101
2.40734
2.38477
2.38621
2.35941
2.36246
2.33153
2.32736
2.3242
2.3245
2.32471
2.30449
2.2807
2.28792
2.28173
2.26365
2.26658
2.24484
2.25652
2.23664
2.23665
2.229
2.22333
2.21922
2.21313
2.2084
2.20052
2.18222
2.18129
2.16215
2.1555
2.14345
2.13965
2.14512
2.14672
2.14457
2.1492
2.14577
2.11243
2.11719
2.10467
2.08992
2.10007
2.09794
2.09045
2.06575
2.06254
2.04533
2.05221
2.04924
2.03854
2.00688
2.00749
1.98972
1.98376
1.98106
1.98646
1.96644
1.95661
1.95017
1.93865
1.93612
1.92559
1.89945
1.89934
1.89878
1.88386
1.8733
1.84421
1.84173
1.83549
1.82411
1.81056
1.79978
1.7825
1.79041
1.7626
1.76834
1.76486
1.77403
1.77895
1.76068
1.75058
1.73545
1.71786
1.71716
1.68881
1.69316
1.69316
1.69311
1.69682
1.68211
1.67837
1.68233
1.65701
1.65005
1.64452
1.62898
1.61319
1.61997
1.61479
1.60198
1.58663
1.58168
1.56506
1.56482
1.55069
1.54367
1.54219
1.518
1.50689
1.49711
1.48583
1.48502
1.47683
1.47423
1.46033
1.44135
1.43558
1.45873
1.44206
1.41796
1.41112
1.39246
1.3956
1.39634
1.38555
1.39015
1.38436
1.36384
1.35987
1.35684
1.32354
1.31262
1.30852
1.28978
1.29703
1.28436
1.27401
1.27053
1.26607
1.26252
1.24925
1.24109
1.23365
1.22927
1.22365
1.22759
1.21781
1.19407
1.16329
1.15731
1.16122
1.14206
1.13126
1.1354
1.10825
1.11615
1.10142
1.09355
1.08187
1.09245
1.07712
1.06623
1.0639
1.05779
1.04723
1.0371
1.02487
1.01969
1.02117
1.00088
1.00886
0.996783
0.974298
0.964324
0.953557
0.942328
0.944479
0.936428
0.931055
0.925224
0.918972
0.900183
0.884834
0.87811
0.871874
0.866359
0.846443
0.828765
0.832042
0.824031
0.816019
0.822334
0.814269
0.798033
0.797732
0.786038
0.781892
0.779617
0.767604
0.754161
0.754494
0.772968
0.767631
0.760186
0.75809
0.752828
0.755943
0.755522
0.756938
0.76439
0.759733
0.757211
0.748729
0.746516
0.747977
0.7601
0.747982
0.737699
0.752142
0.762077
0.753291
0.747417
0.755094
0.756642
0.755785
0.747814
0.741414
0.744283
0.740084
0.752393
0.763604
0.755635
0.756701
0.752598
0.746833
0.762743
0.752236
0.756158
0.751914
0.763363
0.757627
0.752625
0.762136
0.761549
0.758853
0.7613
0.763025
0.766654
0.756792
0.763264
0.760243
0.771293
0.755863
0.760508
0.756138
0.767064
0.763783
0.765815
0.752226
0.761675
0.761759
0.759524
0.756531
0.747621
0.754813
0.766484
0.781672
0.77052
0.756505
0.75186
0.751041
0.7528
0.760661
0.760938
0.766935
0.763208
0.758172
0.757645
0.757136
0.763951
0.763354
0.767007
0.767713
0.763415
0.761432
0.763796
0.763352
0.764477
0.756413
0.76798
0.758911
0.752349
0.768234
0.776344
0.762599
0.76088
0.755163
0.753209
0.759696
0.762885
0.749287
)
;

boundaryField
{
    sides
    {
        type            symmetry;
    }
    empty
    {
        type            empty;
    }
}


// ************************************************************************* //
