/*--------------------------------*- C++ -*----------------------------------*\
  =========                 |
  \\      /  F ield         | OpenFOAM: The Open Source CFD Toolbox
   \\    /   O peration     | Website:  https://openfoam.org
    \\  /    A nd           | Version:  7
     \\/     M anipulation  |
\*---------------------------------------------------------------------------*/
FoamFile
{
    version     2.0;
    format      ascii;
    class       volScalarField;
    location    "0.006";
    object      linearKEMean;
}
// * * * * * * * * * * * * * * * * * * * * * * * * * * * * * * * * * * * * * //

dimensions      [1 -1 -2 0 0 0 0];

internalField   nonuniform List<scalar> 
1000
(
3.44935
3.36377
3.31176
3.36678
3.37325
3.42494
3.45398
3.37278
3.50151
3.50783
3.46143
3.35257
3.35115
3.43601
3.43623
3.40951
3.4966
3.43642
3.37967
3.43268
3.40919
3.41789
3.42559
3.48779
3.38694
3.40835
3.3866
3.47647
3.39567
3.40583
3.36066
3.36672
3.34198
3.3325
3.39168
3.3848
3.34148
3.45729
3.46603
3.39516
3.39609
3.37683
3.30971
3.40874
3.42216
3.40217
3.40677
3.34485
3.38525
3.38467
3.505
3.40659
3.47431
3.37018
3.40382
3.52865
3.39483
3.39341
3.4103
3.3921
3.3876
3.36089
3.35993
3.41886
3.36611
3.48957
3.36429
3.34317
3.39182
3.41964
3.4874
3.45458
3.39067
3.33644
3.3478
3.37463
3.38116
3.42556
3.33898
3.38289
3.42225
3.46115
3.48318
3.39027
3.41298
3.34401
3.47585
3.43859
3.3195
3.30516
3.4302
3.352
3.34941
3.33107
3.36232
3.35684
3.38558
3.39606
3.35006
3.35922
3.40372
3.36538
3.36855
3.37285
3.461
3.43473
3.42296
3.37325
3.45652
3.40423
3.55475
3.5142
3.39957
3.41267
3.45485
3.47262
3.37372
3.44884
3.39125
3.48982
3.45379
3.48627
3.49983
3.37774
3.46565
3.37609
3.48231
3.44424
3.43341
3.40407
3.33345
3.42241
3.42107
3.36979
3.43082
3.42398
3.47565
3.45874
3.44014
3.48608
3.5049
3.46206
3.40598
3.387
3.37866
3.41937
3.42038
3.35511
3.47319
3.5231
3.38758
3.41239
3.36497
3.41259
3.52685
3.3767
3.44598
3.52932
3.3766
3.41075
3.45639
3.37135
3.44542
3.45371
3.56899
3.57683
3.53202
3.47438
3.44099
3.56978
3.47185
3.49042
3.4982
3.4535
3.46655
3.51986
3.4481
3.49051
3.46216
3.49853
3.48525
3.40582
3.47408
3.45475
3.38868
3.42662
3.53659
3.45385
3.47569
3.45522
3.47408
3.46866
3.49263
3.43265
3.48813
3.51392
3.43167
3.49718
3.46858
3.54038
3.48125
3.41989
3.37796
3.50387
3.43534
3.33945
3.39627
3.41167
3.41061
3.44513
3.42368
3.3839
3.42342
3.53433
3.51997
3.40226
3.42291
3.48344
3.4761
3.43559
3.45159
3.45773
3.44902
3.37792
3.43409
3.48506
3.45208
3.46644
3.43778
3.39255
3.36001
3.45302
3.41982
3.40287
3.49675
3.41613
3.38756
3.38443
3.32592
3.42213
3.41493
3.34909
3.36654
3.31665
3.43291
3.34603
3.39974
3.44134
3.40248
3.262
3.41322
3.39333
3.3317
3.31485
3.3527
3.39526
3.45089
3.40136
3.41327
3.29894
3.36561
3.37846
3.35726
3.38397
3.39216
3.43418
3.39851
3.32444
3.4739
3.37452
3.42967
3.376
3.40389
3.46909
3.31278
3.35009
3.34266
3.43095
3.45577
3.46303
3.3906
3.321
3.40133
3.46477
3.38539
3.44583
3.42571
3.46766
3.35175
3.36825
3.36963
3.36928
3.50224
3.46046
3.40191
3.42264
3.45251
3.44397
3.41978
3.49276
3.376
3.31061
3.42382
3.30914
3.37465
3.41069
3.4374
3.44073
3.40625
3.31054
3.36568
3.23363
3.29649
3.28781
3.33657
3.38761
3.32528
3.44455
3.31418
3.31492
3.34397
3.33057
3.35918
3.36201
3.28003
3.21707
3.27021
3.2546
3.19356
3.30511
3.30188
3.20556
3.26022
3.18989
3.19486
3.26048
3.28467
3.0874
3.08487
3.20515
3.14899
3.05254
3.04695
3.157
3.14465
3.11336
3.06792
3.14434
3.09455
3.16653
3.12404
3.13526
3.15871
3.11485
3.13826
3.08452
3.1211
3.15337
3.0925
3.1691
3.22589
3.10788
2.97024
3.05964
3.01422
2.96889
2.95852
2.98811
3.00231
3.07362
3.05499
3.02185
2.981
2.98193
2.94313
2.9783
2.97808
3.03181
2.98616
3.00476
2.95557
2.90829
2.98883
3.0226
2.93055
2.89048
2.86989
2.93962
3.00786
2.8637
2.91885
2.96099
2.95613
2.95948
2.9166
2.90508
2.89757
2.88702
2.87585
2.80164
2.81503
2.79937
2.79001
2.89486
2.79772
2.70365
2.75906
2.8248
2.78943
2.7344
2.71251
2.77138
2.81456
2.75966
2.72153
2.65586
2.76944
2.66025
2.66846
2.63526
2.72147
2.59555
2.60025
2.55126
2.59732
2.57266
2.58351
2.54972
2.55742
2.56721
2.55378
2.57747
2.57025
2.51975
2.48365
2.44741
2.50586
2.49538
2.50494
2.47609
2.45316
2.48871
2.52878
2.54356
2.42019
2.4307
2.43539
2.38364
2.37348
2.35296
2.32346
2.34921
2.3037
2.3561
2.36234
2.29349
2.22925
2.29709
2.30119
2.32768
2.29374
2.28315
2.22399
2.2194
2.28343
2.22484
2.29839
2.31708
2.22882
2.31265
2.23597
2.22921
2.20502
2.19367
2.22809
2.20619
2.17376
2.21203
2.17067
2.15643
2.23797
2.09394
2.12868
2.11778
2.10091
2.05226
2.05171
2.08496
2.05097
2.08739
2.10054
2.02661
2.00872
2.05268
2.02934
2.05027
2.05161
1.98659
1.95118
1.94576
1.91171
1.941
1.9627
1.99827
1.99296
1.96758
1.93564
1.92427
1.95567
1.88814
1.93544
1.92965
1.89804
1.94099
1.9659
2.00978
2.02341
2.00525
1.91222
1.90244
1.94225
1.98419
1.90337
1.93826
1.8495
1.92749
1.84057
1.90105
1.92873
1.88148
1.88852
1.97821
1.9118
1.92193
1.97175
1.94217
1.9319
1.88187
1.85503
1.89113
1.93343
1.87247
1.81012
1.86836
1.88999
1.89595
1.95657
1.80104
1.79497
1.85412
1.84547
1.85346
1.81314
1.80108
1.79213
1.74751
1.76691
1.81014
1.74476
1.75212
1.82984
1.81171
1.78424
1.764
1.80393
1.82822
1.77296
1.79888
1.79533
1.88679
1.75219
1.72029
1.75152
1.74072
1.71368
1.81334
1.74116
1.81681
1.78004
1.74836
1.807
1.74188
1.74237
1.79479
1.73244
1.71713
1.77732
1.81256
1.67722
1.73232
1.80926
1.78094
1.68648
1.71566
1.71983
1.78626
1.6899
1.72702
1.78212
1.78026
1.77278
1.72783
1.7438
1.72174
1.65985
1.61158
1.64091
1.59968
1.68786
1.66964
1.77278
1.78583
1.74722
1.63577
1.67233
1.66229
1.65406
1.62832
1.64916
1.69452
1.69388
1.67937
1.7291
1.71388
1.638
1.59921
1.6347
1.64188
1.52865
1.58318
1.52949
1.57589
1.64331
1.60428
1.65691
1.65241
1.61021
1.63502
1.59773
1.57581
1.54494
1.45053
1.54583
1.54208
1.57242
1.52318
1.493
1.50632
1.49231
1.57588
1.52239
1.51318
1.54795
1.54357
1.58483
1.54726
1.61975
1.63993
1.63556
1.51944
1.6205
1.5787
1.56801
1.54403
1.48438
1.41152
1.51956
1.45118
1.44105
1.4027
1.4807
1.4725
1.47149
1.45563
1.45375
1.50215
1.49568
1.45016
1.42839
1.42732
1.39428
1.39394
1.40567
1.41908
1.38643
1.38584
1.46108
1.48734
1.39458
1.48027
1.41424
1.38368
1.4206
1.40813
1.46177
1.35996
1.40029
1.4599
1.38971
1.39123
1.41093
1.42498
1.30627
1.39182
1.33711
1.31642
1.35286
1.34494
1.37584
1.36253
1.33215
1.34859
1.37297
1.31684
1.33207
1.35197
1.31608
1.34751
1.27709
1.31058
1.33579
1.33472
1.30524
1.32633
1.28788
1.30012
1.28787
1.26952
1.27347
1.35609
1.24741
1.26187
1.19326
1.15071
1.24852
1.32164
1.26155
1.26083
1.26058
1.28026
1.19162
1.1873
1.22296
1.23579
1.30386
1.34796
1.32065
1.30932
1.25689
1.26678
1.24286
1.26115
1.30195
1.26811
1.23418
1.26694
1.28104
1.2916
1.23247
1.23345
1.24873
1.22111
1.25379
1.13015
1.12932
1.19804
1.2541
1.21745
1.22009
1.18389
1.24471
1.2034
1.17335
1.12433
1.05047
1.12993
1.12239
1.12276
1.10384
1.06554
1.12931
1.1085
1.0911
1.1433
1.10782
1.12938
1.17063
1.13868
1.1382
1.09986
1.15101
1.13369
1.07243
1.09407
1.05308
1.06237
1.10013
1.11551
1.03607
1.0917
1.10101
1.06202
1.05894
1.0752
0.989681
1.01777
1.0474
1.08583
1.09359
1.01187
1.0103
1.06389
1.08076
1.08253
1.10388
1.14999
1.04741
1.07248
1.02756
1.03961
1.00271
0.999243
1.00737
1.00633
0.972741
0.93747
0.943218
0.994113
1.05331
1.00714
0.984375
1.0072
0.974057
1.00151
0.955788
1.01999
1.01952
0.97611
0.972761
0.970844
0.959018
0.974501
0.969481
0.971071
0.968517
0.965805
1.05518
1.09367
1.05079
1.01209
0.97473
0.999257
1.00167
1.01168
0.983495
0.988
0.98347
1.02314
1.00155
0.939395
0.978782
0.972738
0.90959
0.950931
0.984027
0.946834
0.9577
1.00001
0.937884
0.943556
0.930002
0.950894
0.985932
0.987235
0.995661
0.920949
0.959834
0.916591
0.934087
1.0007
1.01331
1.05247
0.996039
0.993026
1.01046
0.938195
0.991137
1.00692
0.993589
1.02303
0.986394
0.989476
1.00389
0.961163
0.994181
1.04008
1.01251
0.98284
1.02167
1.023
0.992592
1.03216
1.05172
1.00693
1.05943
1.02262
0.992849
0.978764
0.972522
0.992041
1.02712
1.04473
1.00525
1.09833
0.998706
0.996721
1.02153
0.937039
0.997767
1.01483
1.07556
0.98436
0.939693
0.972152
0.975418
0.948309
0.969711
1.03143
1.03895
0.993271
1.03323
1.05324
1.00356
1.05478
1.0432
1.01363
0.968092
1.00165
1.00357
0.978191
0.966577
0.968589
0.998824
0.969639
0.993353
0.956447
0.921877
0.995059
1.01849
1.02543
1.02797
1.03112
1.03399
1.02891
1.06947
1.03784
0.987429
0.98945
0.971305
0.910604
0.897837
0.989377
0.998177
1.01323
1.01535
1.04666
1.0895
1.00399
0.994609
0.992949
1.00691
1.02285
1.0019
1.06186
1.00219
0.953859
0.943696
0.955168
0.933769
1.04173
1.028
1.02536
0.978923
0.965475
0.976856
1.01294
1.01796
1.00495
1.02825
0.979424
1.03485
0.954123
1.01844
0.985904
0.922432
0.964163
0.99822
1.02931
1.00769
0.995779
)
;

boundaryField
{
    sides
    {
        type            symmetry;
    }
    empty
    {
        type            empty;
    }
}


// ************************************************************************* //
