/*--------------------------------*- C++ -*----------------------------------*\
  =========                 |
  \\      /  F ield         | OpenFOAM: The Open Source CFD Toolbox
   \\    /   O peration     | Website:  https://openfoam.org
    \\  /    A nd           | Version:  7
     \\/     M anipulation  |
\*---------------------------------------------------------------------------*/
FoamFile
{
    version     2.0;
    format      ascii;
    class       volScalarField;
    location    "0.006";
    object      linearKE;
}
// * * * * * * * * * * * * * * * * * * * * * * * * * * * * * * * * * * * * * //

dimensions      [1 -1 -2 0 0 0 0];

internalField   nonuniform List<scalar> 
1000
(
7.5894
8.09663
7.06982
7.25211
8.09054
8.64372
8.10322
8.30954
7.7795
7.88479
8.03636
7.55865
8.12641
6.94427
8.01071
7.68527
8.28278
6.77867
7.37263
7.39429
7.54983
8.50237
7.76147
9.02082
7.25273
7.89654
8.26165
6.71513
7.36066
9.86381
8.07315
8.24053
7.48276
7.94603
7.7135
7.52802
7.26531
8.94511
7.98799
7.59984
7.80512
8.75301
6.8656
7.76572
7.09084
8.30601
6.90976
7.02046
7.09781
7.98638
7.74903
7.81517
7.16738
7.62091
8.81562
7.92995
8.1429
9.0224
7.58633
8.71141
7.86955
7.52636
8.9652
8.4032
8.44854
8.30648
8.32386
7.96541
7.32286
8.27087
7.51886
7.543
7.60064
7.78141
9.15398
7.68324
7.40904
8.18718
8.24518
8.60082
7.38893
7.68453
8.54296
7.47014
7.78909
7.79549
7.81795
8.68853
7.15451
8.69768
7.87686
7.9037
7.63462
8.05496
6.98308
7.47149
7.87393
7.84254
9.31105
7.5877
7.57502
8.6241
7.35507
8.35309
7.52229
7.77468
7.74366
7.50421
7.28823
8.46873
7.26244
7.69186
7.49401
8.46943
8.31684
8.40359
8.4808
7.30834
7.53371
7.23214
7.58874
7.87668
8.12116
7.53657
8.35756
7.89805
7.70344
8.08989
7.74573
7.8374
6.31261
7.40869
7.26111
7.54686
7.20242
6.63192
6.75712
8.15793
7.10945
7.59799
6.4739
7.51953
7.3818
6.93416
7.15605
7.52557
7.45632
7.15533
6.86393
6.85029
7.29397
6.23631
7.42188
6.87135
7.27186
7.56398
7.96324
7.45467
6.5265
7.51402
8.51226
6.74749
6.31138
6.81114
6.39407
6.72573
6.78879
6.88075
5.73721
7.2719
7.56034
6.27192
7.10621
6.94272
6.88324
6.87933
7.36924
6.466
6.97024
7.00595
6.84419
7.58371
6.51901
6.54329
6.96211
6.90664
5.67968
7.13856
7.11016
6.71772
6.3307
5.33888
6.07372
7.07886
5.94116
6.418
6.68435
6.40799
6.46104
6.40606
7.06476
6.65343
5.70162
5.86076
6.27883
6.63903
6.37114
6.87122
5.22533
6.81058
6.2987
6.01737
6.06974
6.58725
6.11654
6.52625
5.86442
6.06337
6.30791
6.36519
5.90156
6.26537
5.26794
5.72945
6.45138
6.20161
5.93557
5.52604
5.89975
5.51775
5.66474
5.95361
5.7129
4.923
5.77704
6.32896
5.43064
5.64999
5.73769
6.1173
4.95188
5.32513
6.63551
5.46196
4.66929
5.67232
4.71393
5.18654
5.89949
4.71442
5.4367
5.59459
5.80944
5.4174
6.16773
5.37373
5.17035
5.49184
4.95046
5.1187
5.13257
5.35482
5.2713
5.44126
5.02616
5.71194
5.68964
5.39018
5.45721
4.77749
5.54553
5.42627
5.43478
5.48566
5.01212
5.19267
5.42913
4.31437
5.94173
6.0411
5.01318
5.24823
4.38723
5.7261
4.71868
4.88682
5.16273
5.00722
5.40593
4.10619
4.86004
4.66269
4.68566
5.43756
5.05616
4.6126
5.38882
4.30373
5.05721
5.47943
4.96089
4.76639
4.71823
4.73182
5.26735
5.17465
4.72647
4.45775
4.83381
4.55916
4.96845
4.54487
4.73882
4.56161
5.20965
4.62559
4.11962
5.04143
4.60959
4.8155
4.98036
4.09688
5.16641
4.20702
4.38701
4.13898
4.47284
4.05886
5.36633
5.14715
4.53546
4.97434
5.34974
4.07544
4.57616
4.55432
4.40163
4.79048
5.08503
4.56197
4.44707
4.68928
4.6106
4.30029
3.89399
4.09266
4.3329
4.59913
4.67462
4.33674
3.9179
5.00386
4.44137
4.70547
4.7756
4.2128
5.03184
4.44266
4.712
4.20751
3.96584
4.21373
4.64808
3.74294
3.89165
4.26225
3.83879
4.05188
4.33277
4.73161
3.81637
4.45341
5.05977
3.66975
5.02213
4.58326
3.85458
4.35137
4.7964
4.3702
3.62589
4.14566
4.22304
3.72534
3.80501
4.16217
4.40147
3.87149
3.64116
3.98767
4.97409
3.71784
4.25872
4.59483
3.55805
3.77463
3.74172
4.29893
3.77754
3.78899
3.10556
3.93341
4.11766
4.53653
4.21071
4.03147
4.12618
4.38961
4.18839
3.88122
3.89801
3.70782
3.71025
3.7446
3.65939
4.62756
3.85132
4.29523
3.95204
3.82271
4.1885
3.545
3.87523
3.74142
3.64514
4.29837
3.63429
4.72424
4.67204
3.63874
3.70304
3.67938
3.81285
3.62084
4.67711
3.45003
3.46175
3.54913
2.98995
4.07709
3.58302
2.98058
4.12635
3.82995
3.20011
4.21399
3.05963
3.33151
3.96368
3.9999
4.15073
3.31639
2.9666
3.71315
3.74853
4.08662
3.79213
3.58618
3.83746
3.66523
4.23176
3.30421
2.74741
3.90258
3.89837
3.67624
3.5501
4.1665
3.85158
3.88314
3.39493
3.99452
3.56774
4.10987
4.26899
3.85087
3.8808
3.42038
3.85263
4.12972
3.80594
3.95509
3.66621
3.51435
3.16099
4.04832
4.17471
3.65797
3.14723
3.99219
4.5128
3.3503
3.9857
3.75845
3.8052
4.77132
4.0154
3.51692
3.64575
3.76408
3.52846
3.8347
3.8773
3.71801
3.70249
3.8963
3.78609
4.05762
3.47328
3.52214
4.0778
3.85498
3.8398
3.85402
3.82225
3.69279
3.57559
4.21311
3.29607
4.41504
3.42416
3.9424
3.66467
4.12183
4.3183
3.98524
3.02005
3.288
3.768
3.79276
3.88604
4.05847
3.97176
3.99736
3.63341
3.65738
3.62865
4.08411
3.97983
3.9323
3.58138
3.24482
3.41387
3.71712
3.2879
4.55283
4.05101
3.50063
3.77609
3.91595
4.08136
4.07688
3.61995
3.8455
4.16887
3.3951
3.44452
4.17796
3.74271
3.98768
4.61619
3.85114
3.31488
3.80588
3.50817
3.93989
3.64104
3.52472
3.85425
3.44742
3.70827
3.76871
3.62111
3.92236
3.793
3.12145
3.53452
4.32521
3.504
3.56758
3.71894
4.22648
3.71403
3.56668
3.85504
3.98815
4.05297
3.56741
4.08959
3.35614
4.13461
4.0104
3.73189
3.47493
4.40925
3.9175
3.52783
3.88117
4.10248
3.2459
4.56834
3.97805
3.79034
4.10532
3.61579
3.77185
3.85857
3.83913
4.25135
3.57166
4.01216
3.60815
3.56558
4.49634
3.68442
3.2224
4.30035
3.81205
4.35507
3.82522
3.11372
3.8237
3.65659
3.54848
4.33985
3.65154
3.23505
4.27498
3.61484
4.41907
3.58667
3.78913
3.97322
3.39071
3.92174
3.73206
4.0161
4.12575
3.9872
3.89435
3.83761
3.38331
4.04174
3.31627
3.26226
3.90033
3.46024
3.236
3.62715
2.75758
4.37584
4.16905
3.79658
4.58971
4.56942
3.63621
3.86832
3.6871
4.49482
4.26242
3.42304
4.17435
3.98416
4.36399
3.76221
4.33736
3.40354
3.58088
3.43715
3.41098
3.91862
4.18328
3.10124
3.08077
3.41996
3.81524
3.08731
4.70845
3.98904
3.26839
3.87569
3.88385
4.23239
3.68198
3.9056
3.6921
3.36907
3.81607
3.93155
3.96896
3.88079
3.43099
4.07472
3.78563
3.81951
4.03953
4.22662
3.35877
4.17109
3.50324
3.24224
3.75368
4.42832
4.28328
3.88887
3.73664
3.46116
4.28267
3.86776
3.96717
3.81609
3.76322
3.24193
3.90445
3.46122
4.4404
3.79886
4.34917
3.42962
3.86791
3.78801
3.62299
3.80558
3.75661
4.33676
3.04281
3.77556
3.72836
3.53937
4.19807
3.50829
3.49206
4.11165
4.42053
4.07062
3.83973
3.44416
3.41446
4.45825
4.35779
4.01986
4.15126
4.34131
3.85056
4.03126
4.23169
3.75147
3.61088
3.59403
3.52686
3.88641
4.27793
3.76422
3.89489
3.86562
4.22802
4.06173
4.19345
3.55096
4.28315
4.10979
4.18681
4.1312
4.52131
4.35183
3.96901
4.23075
3.91078
3.77818
4.04079
3.55146
4.21772
4.51983
4.08541
3.74916
4.02008
3.92044
4.29023
3.74674
4.43556
4.08943
3.54199
3.86565
3.6706
4.87795
4.25986
3.58703
4.10819
3.97831
4.10058
4.3461
4.05569
4.15966
4.09569
4.12896
4.93784
4.06659
3.67683
3.97977
4.2209
4.39463
3.71372
4.066
4.10376
3.62069
4.68854
3.4086
3.77274
4.17976
4.38376
3.77898
3.8733
4.48723
4.40983
4.95801
3.94029
4.01129
4.55261
3.65894
4.53011
3.72459
4.07795
3.63792
3.73081
3.9795
3.92362
3.76546
3.69609
4.38157
4.46916
4.3307
3.79671
4.05089
3.72341
4.44688
4.47232
4.42416
3.95861
3.73079
3.99229
3.86531
4.12701
4.30904
4.09497
4.54842
4.11588
4.10941
4.35045
3.66026
3.75089
4.01162
4.1861
4.61361
3.97094
4.03592
4.69717
4.1533
4.05649
4.48191
4.08863
3.40873
4.34001
3.86525
4.45876
3.87201
3.79695
4.51954
4.00102
3.82272
3.98313
4.74931
4.61336
4.48853
4.58669
4.45467
4.16763
4.03237
4.98446
4.41138
5.1603
4.10968
4.37807
3.35718
4.31398
4.1958
3.92822
4.4476
3.83047
3.82422
3.43985
3.38346
4.67083
3.26962
3.92274
3.19287
2.62305
2.82136
2.79901
2.51248
1.52568
1.48925
0.972943
1.16608
0.914181
0.874428
0.651942
0.70564
0.714582
0.755541
0.557056
0.768887
0.844845
0.796097
0.517055
0.85209
0.812506
0.793099
0.582922
0.951199
0.774254
0.746846
0.70397
0.821716
0.923269
0.698511
0.685098
0.761868
0.839725
0.74619
0.8717
0.713195
0.844962
0.702991
0.665209
0.665585
0.754591
0.795944
0.667572
0.922548
0.692659
0.847525
0.547779
0.610238
0.874732
0.520143
0.902788
0.801778
0.775223
0.591775
0.838125
1.01342
0.766918
0.791192
0.644
0.868817
0.614197
0.59695
0.691346
0.682666
0.961453
0.535293
0.621579
0.884208
0.680934
0.885797
0.74557
0.536192
0.845576
0.659555
0.869591
0.668416
0.944827
0.911312
0.742155
0.69745
0.834613
0.682474
0.72609
0.758437
0.801374
0.841727
0.867697
0.857405
0.828846
0.688989
0.720178
0.645014
0.92995
0.681722
0.754463
0.593737
0.681114
0.734141
0.648015
0.616649
0.798195
0.7965
0.683651
0.741209
0.831033
)
;

boundaryField
{
    sides
    {
        type            symmetry;
    }
    empty
    {
        type            empty;
    }
}


// ************************************************************************* //
