/*--------------------------------*- C++ -*----------------------------------*\
  =========                 |
  \\      /  F ield         | OpenFOAM: The Open Source CFD Toolbox
   \\    /   O peration     | Website:  https://openfoam.org
    \\  /    A nd           | Version:  7
     \\/     M anipulation  |
\*---------------------------------------------------------------------------*/
FoamFile
{
    version     2.0;
    format      ascii;
    class       volScalarField;
    location    "0.006";
    object      linearKE;
}
// * * * * * * * * * * * * * * * * * * * * * * * * * * * * * * * * * * * * * //

dimensions      [1 -1 -2 0 0 0 0];

internalField   nonuniform List<scalar> 
1000
(
3.79774
2.18501
4.74518
2.76642
2.28643
2.9065
3.51485
3.83933
3.19256
7.24889
3.57329
4.86257
1.91295
5.89989
3.12304
3.9818
1.58265
3.62256
5.17454
6.33277
1.87805
2.69029
1.14303
3.99735
2.1511
3.43562
3.65095
2.10968
5.3757
4.1279
2.00287
2.65609
1.73408
2.31463
2.77717
4.71928
2.48033
3.85389
3.58043
7.76222
3.34539
3.23744
3.39776
2.86228
3.44866
2.61258
2.92741
3.1021
3.83807
3.77744
4.37268
2.81917
3.54799
5.23669
4.71812
3.90316
2.51752
2.52152
3.03992
2.90416
2.31715
2.75606
4.06518
1.19299
2.64266
2.73455
2.95027
3.51795
2.29971
2.29036
2.43869
4.86561
4.20983
4.98186
2.7788
3.38555
2.1627
1.18066
1.36038
1.67143
4.567
4.60128
1.82814
6.92798
4.2598
3.41242
4.42971
4.35201
4.29488
5.51117
3.92931
3.56449
2.04673
2.29456
2.71324
2.90647
3.63057
2.99522
2.30281
2.92323
3.69592
1.94137
4.40014
4.65939
6.13047
0.95761
3.85032
4.84173
4.98455
2.41502
2.36323
4.36444
2.17838
3.01752
2.98257
1.87118
3.01831
3.87839
2.86891
3.0272
2.92537
2.68618
2.54902
3.80874
3.92779
2.28769
3.64248
2.86995
3.48638
3.77607
4.12856
3.95661
3.43736
2.87704
2.1672
4.1296
1.85867
3.17344
4.41099
2.8431
2.26986
4.05176
4.04802
2.49972
4.30695
2.49518
4.52573
2.39837
3.71654
3.04273
2.80518
3.34695
3.18828
3.01539
4.4364
3.23808
1.80968
4.12654
3.46197
3.37285
1.48987
5.55843
3.61225
1.15152
2.81896
2.80677
2.47724
5.64561
1.62716
3.30442
1.77814
5.04135
2.15761
4.06512
2.85442
5.62883
2.84176
4.43128
3.83196
5.06138
2.59374
2.86912
6.49004
2.97972
3.92843
4.20417
4.86548
3.9575
3.45612
4.47297
2.57063
2.63712
4.27093
4.55773
2.02228
2.44179
3.38144
3.69411
2.79211
2.77698
2.63037
0.885416
5.49398
2.95242
2.65692
5.038
5.02452
3.31449
4.06268
4.4132
3.24578
3.39908
2.65813
3.19949
4.44726
4.07179
2.92392
4.12503
3.75291
3.26605
3.70859
4.65772
3.90192
3.11243
4.02587
2.20064
4.06993
3.5435
2.77427
3.90457
2.62052
4.906
3.00686
2.88161
2.82516
4.0895
4.00917
5.15981
6.30979
5.86623
2.16724
1.47102
4.98845
3.01007
3.92988
3.35748
4.03284
2.69716
3.09663
2.3521
2.59416
2.03697
2.71413
2.91805
1.75883
2.94784
4.33801
3.58845
2.10647
2.75947
1.59846
2.83901
5.31385
2.35678
3.04843
3.70165
2.33253
3.13986
2.65174
4.07659
3.83876
2.42671
3.55499
4.44085
1.71846
2.18997
3.1431
3.45145
1.81832
2.59503
2.16626
4.61646
2.42931
2.31181
3.24602
3.41106
2.37137
4.05985
2.33234
3.79167
3.32355
3.07867
1.97045
2.38668
2.9888
3.36314
3.51689
2.45024
2.7388
3.30836
6.16701
4.68718
3.5896
2.7517
2.85298
3.62898
1.54846
3.78654
1.06571
3.33106
2.24892
2.93235
2.47363
2.60428
3.00351
1.11263
1.97902
1.53182
2.0653
3.45134
3.63289
1.64845
2.77715
3.89904
1.87239
1.27146
1.98701
1.48822
4.47725
2.0074
3.51197
2.46484
2.95529
2.35494
1.48756
2.42453
3.78807
2.48907
2.04133
4.04487
2.84429
2.97191
3.25416
2.28691
3.21657
3.77954
4.08014
2.86666
1.91955
1.38633
0.908825
1.81694
3.20572
1.20269
2.35676
2.7077
1.32811
1.45764
1.47197
2.36518
2.30542
2.6104
1.29601
0.862468
1.12023
1.93336
1.06373
3.0504
1.78603
1.51304
1.62002
2.83147
2.27937
1.67599
2.46204
1.51877
2.95617
2.20829
2.24398
1.97921
1.93652
1.24981
2.22759
2.83956
0.923175
2.37951
2.4506
1.81038
2.31803
2.22299
1.8334
3.32631
3.09364
1.98053
1.66843
2.25376
1.13451
0.906494
0.842759
1.10401
1.4103
2.35398
0.717684
1.88043
3.16763
2.76114
3.99735
0.940929
2.03899
2.09289
3.29468
2.27423
2.17313
1.93128
1.70829
1.72442
3.56418
2.94827
0.741649
2.65123
1.63892
1.00254
1.12201
1.17426
2.39709
1.3896
3.64066
2.72297
2.70535
2.82866
2.07314
1.13841
3.02066
1.34809
0.999515
1.40979
1.94763
1.98169
2.10502
1.65454
1.03748
2.08334
1.68604
2.16251
1.50593
3.6056
1.884
2.52565
2.65951
2.62727
2.57352
1.88028
2.09494
1.97544
2.93724
1.44278
1.74991
2.88163
3.48403
1.35317
1.34598
1.63423
2.91029
4.25861
2.41577
3.48482
2.39958
1.51216
1.06831
2.99533
1.53541
0.423507
2.44185
2.46895
4.23231
1.58353
2.20886
2.45254
2.78556
0.799611
2.72079
1.76728
0.652433
1.60192
1.69339
3.13795
0.66613
2.10656
2.63918
1.17392
1.8952
1.53667
1.80274
2.07201
2.98991
2.44848
2.35134
2.02386
1.40158
2.56396
1.14152
0.882001
2.55789
2.32632
1.86148
1.52312
4.29141
2.62195
1.91705
0.69436
2.87954
1.57241
0.982399
1.2996
2.42667
2.06925
3.32815
1.86137
1.79567
0.588116
2.0934
1.9187
1.10421
2.73098
1.51562
2.32319
1.45726
1.87753
1.39105
2.4893
1.29161
0.697166
2.18482
1.88933
2.33111
3.11021
3.76907
2.78373
1.76203
2.03576
2.31571
2.16253
1.46942
2.05357
2.12648
3.15159
1.95046
1.40104
1.59138
3.94411
1.99698
1.84297
1.68826
2.40678
2.0617
3.13356
1.30554
2.80955
0.766342
2.55119
2.61907
1.84853
1.64575
2.01616
2.08303
3.43198
1.93105
1.81689
1.99239
1.99376
0.900666
2.52078
1.39947
2.47915
1.52961
2.20331
1.48437
2.83761
1.69423
2.67411
1.26602
1.11202
2.65439
3.05913
1.79275
2.0765
2.95227
2.3471
2.96039
3.18121
1.47849
1.74467
3.11027
1.7233
1.68376
2.53044
2.51363
1.96049
3.77671
2.26891
1.59415
0.872583
1.77797
2.27871
1.13189
1.74704
1.67048
1.73645
1.81758
1.12931
1.11772
0.478731
1.16799
2.38482
1.39397
1.90562
1.87779
1.44462
1.67306
0.891672
1.02407
2.38776
3.0262
2.09419
3.49301
1.72967
2.208
4.39236
1.29224
1.4859
0.896519
2.28382
0.929529
1.86953
2.89347
4.07561
1.64168
1.69942
1.53958
0.707528
1.46791
1.11156
2.18578
3.4086
0.472384
2.39968
2.31201
2.80143
1.16705
1.46847
3.14248
1.40062
2.56495
2.2839
1.28898
2.30898
1.7869
1.37808
0.98102
1.45261
2.00468
2.47087
1.82574
1.26913
0.385128
1.81986
2.64907
1.93037
1.99374
2.48294
2.2922
3.20297
2.10249
1.11724
3.08183
1.19079
2.50071
2.68578
1.69634
1.83953
1.44471
0.0290057
2.73801
0.884642
1.73475
1.36758
1.22492
2.08346
2.15676
2.69811
3.29896
0.694003
1.94953
1.96846
1.46889
3.26941
1.23921
0.953409
1.99442
1.94411
1.28372
3.09351
2.57087
2.6182
1.09478
3.63836
1.70857
1.82643
1.72571
0.984154
0.743055
1.03935
1.17046
1.20694
3.28837
0.865323
1.65104
2.79856
0.443426
2.92368
3.47157
2.13806
2.64864
0.299225
2.21632
1.75893
1.79301
1.19638
2.52894
4.15884
1.67813
1.5057
4.2187
2.10513
2.80233
3.63852
3.14961
2.40344
2.20967
1.71801
2.57179
0.918511
3.35352
2.43892
1.8387
1.9734
2.18865
2.49132
1.43598
1.32156
0.897606
1.04493
1.34194
1.58114
2.51054
1.75332
1.21699
1.36479
1.01541
3.51418
1.48276
1.79165
3.55349
2.79334
1.53749
1.69613
2.18345
2.03435
1.17669
2.13453
1.60385
4.7107
0.191705
1.93574
0.870947
1.88627
1.82521
2.49616
3.58627
1.30649
5.07159
0.588361
1.82577
2.43787
2.43213
2.15733
0.267527
1.04653
2.38491
1.35199
2.26396
1.33215
3.21002
1.84664
1.59744
1.19825
3.75699
1.69717
2.02324
2.81034
0.891289
2.66788
1.14806
1.89498
1.94328
3.18704
0.997297
1.56727
2.14225
1.89829
1.18958
3.13129
2.39428
2.50951
2.81266
1.68763
0.248778
0.892039
2.68999
1.38371
1.50902
2.9083
3.93429
0.639568
1.15292
1.8591
0.245985
0.526012
1.87192
1.13059
2.3612
2.20027
0.113587
0.904386
0.749423
1.10133
0.687277
0.129866
1.68576
2.14424
1.46467
0.815756
0.895517
1.76938
1.62301
2.86976
1.37097
1.1965
0.605719
0.316619
0
1.05094
1.11443
1.47414
1.13128
0.899772
0.921353
0.773434
1.70301
0.137974
0.670673
1.0738
1.78807
0.138586
1.56753
1.64696
0.375926
1.2628
0
0.146253
0.48268
0.43357
1.33251
0.636162
0.308522
0.740007
1.26885
0.471606
0.906902
0.692876
1.60584
0.565869
1.32941
1.0546
0.962142
1.04951
1.41421
1.71285
0.928771
0.287606
0.929833
0.608263
0.890668
0.740272
0.518334
1.44732
0.890121
0.660266
0.174968
0.933288
1.66867
0.286819
1.66348
0.736682
0.941597
2.8702
1.29666
0.758066
1.09219
0.824148
1.20654
1.81649
1.04919
0.779394
1.27318
0.827809
1.00904
0.451833
1.07732
0.0953149
0.354368
2.56576
0.239987
1.16697
1.30653
0.711033
1.08076
1.10298
1.18721
0.50299
1.75132
1.71348
0.262876
1.25411
0.422422
1.50458
1.17067
0.240817
0.91174
1.02671
1.10818
0.666807
1.21855
1.37653
1.06674
0.751941
0.663823
0.724163
0.202016
0.106633
0.81018
2.28057
0.599075
1.46566
0.486112
0.696446
1.2461
0.666357
0.0422511
1.62939
1.50486
0.771524
1.09015
0.594782
0.530481
0.488875
1.2784
0.00475489
1.01465
1.72323
0.349291
1.34769
0.408321
1.23362
0.56481
0.830437
0.447282
1.78958
1.03192
0.245071
0.345623
1.23266
1.68387
0.452636
0.890982
1.58605
1.3881
0.867669
1.51959
0.602784
1.76942
1.1037
0.686672
2.13159
1.55189
1.03671
0.979752
2.02944
0.856584
1.59681
)
;

boundaryField
{
    sides
    {
        type            symmetry;
    }
    empty
    {
        type            empty;
    }
}


// ************************************************************************* //
