/*--------------------------------*- C++ -*----------------------------------*\
  =========                 |
  \\      /  F ield         | OpenFOAM: The Open Source CFD Toolbox
   \\    /   O peration     | Website:  https://openfoam.org
    \\  /    A nd           | Version:  7
     \\/     M anipulation  |
\*---------------------------------------------------------------------------*/
FoamFile
{
    version     2.0;
    format      ascii;
    class       volVectorField;
    location    "0.006";
    object      momentum;
}
// * * * * * * * * * * * * * * * * * * * * * * * * * * * * * * * * * * * * * //

dimensions      [1 -2 -1 0 0 0 0];

internalField   nonuniform List<vector> 
1000
(
(0.00122111 8.149e-05 -0.00116709)
(0.000250978 -0.000594174 0.00140459)
(-0.00031902 0.000460147 -1.27216e-05)
(-0.000466492 -0.000403206 -9.8572e-05)
(-0.000944945 -0.00072737 2.69118e-05)
(-8.65804e-05 0.000330408 0.000174034)
(-0.00128573 -0.000733598 -6.24474e-06)
(-0.000725342 -0.000278757 -0.000108017)
(-0.000158631 -0.000408809 4.81458e-05)
(0.000156579 0.000521626 -0.000178112)
(-0.000684961 -0.000434709 0.000524818)
(-0.000422382 0.000692132 -0.00015679)
(0.000739431 -0.00067824 0.000405419)
(0.000225213 0.000698994 -0.000171262)
(-0.000237794 0.000545949 0.000870114)
(-0.000299557 8.12296e-05 -0.000706295)
(-4.60836e-05 -0.000256407 0.000183961)
(-0.000258061 0.000264241 0.000161101)
(-0.000261514 -0.000238734 0.000501431)
(0.000621235 -0.000316082 0.00136866)
(-0.000233759 0.000462119 0.000826163)
(-0.000260551 0.000417883 0.00121458)
(0.000629933 9.15289e-05 7.44932e-05)
(4.34214e-05 0.000893138 0.000191199)
(-0.000199427 0.000231811 1.00179e-05)
(0.00016535 -0.00072207 0.00113981)
(-0.00110112 0.0012677 -0.000530432)
(0.000324373 -4.62435e-05 -0.000354043)
(-4.13857e-05 5.35561e-05 0.000403602)
(-0.000663604 0.000544132 6.71813e-05)
(0.000155808 0.000272948 0.000270916)
(-0.00075237 -0.000123671 -0.000213944)
(0.00075406 -0.000665996 -0.000151677)
(-0.00047262 0.000444629 0.0003725)
(-0.000239053 -0.000333576 -1.22854e-05)
(-0.000385121 0.000153428 -0.000450805)
(0.000490044 -0.000331915 -0.000362114)
(0.00045301 -0.000566384 0.000651744)
(0.000893597 0.000675596 -0.000195667)
(0.000772508 -0.000340179 -0.000674988)
(0.000147869 -0.000402644 0.00128424)
(0.000505612 3.67241e-05 0.00013721)
(0.000183034 -2.48044e-06 -0.00087953)
(0.000745136 -0.000138624 0.00036771)
(0.000300283 0.000149674 -3.7746e-05)
(-0.000511637 -0.000428114 -3.32836e-05)
(0.000650973 -0.0015169 0.000213664)
(-1.09494e-05 -0.000378954 -0.000615524)
(-0.000746586 -0.000832662 0.000209166)
(-0.000126394 0.000770669 0.000898776)
(0.000545184 0.000383862 -0.000214084)
(0.000143405 -0.000589798 -0.000539963)
(0.000602245 -0.000841682 0.000247154)
(0.000120316 -0.000253492 -9.30418e-05)
(-0.000178328 -0.00131871 0.00031577)
(-0.000845769 -0.00072556 0.00014674)
(0.000107323 -0.000527063 0.000248426)
(-0.000153651 -8.36768e-05 -0.000477201)
(-0.000589938 -0.000366239 0.000174595)
(0.00030881 -0.00123383 -0.000625607)
(0.000375262 0.0010476 -0.000183695)
(-0.000508657 0.000633367 6.70019e-05)
(0.000126656 -0.001667 -0.000786807)
(-0.000576452 -0.000330759 -0.000399084)
(0.00048026 -0.000443982 -0.000138054)
(-0.000726896 0.000719063 -0.000103985)
(0.000246219 -9.13641e-05 0.000133886)
(0.000487419 0.000985584 0.000140736)
(-0.000185887 -0.000161328 0.00032476)
(-0.00024644 7.40195e-05 -0.000660176)
(0.000490625 -0.000195635 -0.000554801)
(-0.000396277 0.000126689 0.0003363)
(-0.000617964 0.00108351 0.000192518)
(-0.000522864 0.000376254 0.000118218)
(-0.00067708 4.29454e-05 0.000491712)
(0.000202901 -0.000125689 0.000671662)
(-0.000321455 0.0003564 -0.000482975)
(0.000820365 -0.00110893 0.000288702)
(0.00110698 -0.000189524 0.000174907)
(0.000900115 -0.00011949 0.00119895)
(0.000300128 -0.00141441 -0.000246336)
(0.000227999 -0.000507856 -0.000255982)
(0.000380773 0.000786347 -0.000777176)
(0.000474627 -0.000718211 -0.000467177)
(-2.77831e-05 -0.000119174 -0.000353271)
(0.00065773 0.000414672 4.78526e-05)
(0.000556837 1.42797e-05 -0.000249458)
(-0.000436898 -0.00092905 -0.000446642)
(1.24606e-05 0.000573284 -0.000277906)
(-0.000454103 0.000244642 -0.00109762)
(0.000919827 -0.000170448 0.000379743)
(0.000990202 0.00131167 -0.000638102)
(-1.10777e-05 -7.90579e-05 0.000151625)
(0.00103233 -0.000381319 -0.000600221)
(0.000817496 -2.86017e-05 -0.000932074)
(0.000816216 -0.000681592 -0.000159702)
(0.000667771 -9.52796e-05 -8.50521e-05)
(-0.00130715 0.000658729 0.000467557)
(-0.00127509 0.000819544 -0.000637735)
(0.00157605 -0.000197007 0.000317917)
(-0.000441101 -0.000329294 -0.000706035)
(-0.000671747 0.000249152 0.000132028)
(0.000271393 0.00015125 0.000217116)
(0.000123152 0.000658519 -0.000324821)
(0.00041505 -0.000267111 -0.000553554)
(0.000460688 0.000247223 0.000445552)
(6.31236e-05 0.000267967 -1.57936e-05)
(0.000141525 0.000507529 -3.99568e-05)
(-8.95132e-05 0.000131889 0.000381726)
(-0.000897111 -0.000564593 -2.07198e-05)
(0.000343851 -0.00128701 0.000605439)
(-0.000333893 0.000153822 4.10002e-05)
(9.53399e-05 -0.000256264 -0.000966641)
(0.00069702 -1.26309e-05 0.000719674)
(-0.000378371 -0.000374895 0.000570411)
(0.000408242 5.47057e-05 -0.000152219)
(0.000413873 0.000193712 -0.000156358)
(0.000482679 0.000261787 0.000338866)
(0.000497073 0.000909469 -0.000262052)
(-2.30623e-06 7.971e-05 -6.6518e-05)
(0.000649797 -0.000612505 0.000218616)
(-0.000249919 -0.000591768 -0.000833635)
(-7.36636e-06 -0.00100249 -0.000423601)
(0.000455518 0.000688993 0.000495587)
(0.00127322 -0.000132058 0.00100152)
(-5.48709e-05 0.000367585 -0.000715935)
(0.000936459 -0.000301012 9.84752e-05)
(0.000615748 0.00028159 -0.00174412)
(-0.000324669 -0.000600253 0.000275865)
(-0.000140708 -0.000351682 0.000195476)
(1.56515e-05 4.38164e-05 4.7361e-06)
(0.00106616 0.000137944 5.02458e-05)
(0.000309 -0.000413944 0.000293703)
(0.000276 -9.50423e-05 -0.000900491)
(0.000505508 0.000773071 -0.0003504)
(0.000667796 0.000435534 -0.000162073)
(0.00112649 -0.00025019 0.000225042)
(-2.20569e-05 0.000324934 -0.0012336)
(0.0006297 0.000368042 -0.000540587)
(0.000223724 0.000774199 -0.000622079)
(0.000175739 -0.000853651 -2.86508e-05)
(0.000432271 -0.000579147 -0.000282822)
(0.000182403 0.000169608 0.0005688)
(0.000501766 0.000335947 0.000671801)
(0.00130341 -0.000179724 0.000536559)
(0.000362004 -3.61004e-05 0.000682374)
(0.000470806 0.000530208 -0.000177245)
(0.000546101 0.0011216 -6.69209e-05)
(0.00062577 -0.000351148 -1.52116e-05)
(0.00120007 -0.000471233 -0.000516165)
(0.000446931 -3.91616e-05 0.00127944)
(-0.00010624 -0.000662332 0.000811035)
(0.00112548 -2.76992e-06 0.000839176)
(0.00108502 -0.000174738 0.000489504)
(-0.000299831 -0.000434653 -0.000254888)
(0.00155499 0.0014121 -0.000239437)
(0.000660339 0.000330857 0.000576934)
(0.000485552 0.000781722 0.000104937)
(-0.000438085 -0.000223427 0.000511603)
(0.00137349 8.61292e-05 -0.00102593)
(0.000417074 -8.02537e-06 0.000104713)
(0.000239165 -0.000794555 -0.000168052)
(0.000745925 0.00134388 -3.23061e-05)
(0.000573891 0.000320101 0.000294582)
(0.000340414 -0.000206195 -0.000532027)
(0.00104264 -3.64765e-05 -0.000393969)
(0.00167492 -0.000530199 -0.000235634)
(0.00058937 -0.000369693 -0.000789701)
(0.00129003 0.000563189 -0.000449967)
(0.00126592 0.000199517 -0.000805599)
(0.00225693 -0.000989887 0.000119589)
(0.00197478 -0.000500974 0.00102808)
(0.000192118 4.56935e-05 -0.000309892)
(5.28716e-05 0.000632121 9.12559e-05)
(0.00157056 -0.000595681 -6.15947e-05)
(0.00128261 0.000346997 -0.000312999)
(0.00107743 0.000720667 -0.000260529)
(0.00168269 0.000336258 0.00023655)
(0.000961346 6.46968e-05 0.000370246)
(0.00193205 0.000210156 0.000368767)
(0.00148244 -0.000581172 0.000616535)
(0.00108143 -0.00115533 -0.000430804)
(0.000706098 0.000576819 0.000421392)
(0.000673373 -7.55846e-05 -0.000367451)
(0.00223262 0.00023422 2.68418e-05)
(0.00165956 -0.000271571 -0.000373915)
(0.00134307 -0.000314496 -0.000341015)
(0.000431376 0.00112577 -8.97494e-06)
(0.00195163 0.000228297 -0.000127322)
(0.001238 -0.000220096 -2.28885e-05)
(0.00133558 -0.000325369 0.000448762)
(0.0014844 0.00020669 -0.000439822)
(0.00140255 0.000716131 4.46435e-05)
(0.00190254 -0.000131944 0.000943536)
(0.00139825 0.000159239 -0.000312254)
(0.000819803 0.000252339 0.000387836)
(0.00168332 -0.000388643 8.32593e-05)
(0.000844149 0.00041654 -0.000707457)
(0.00133629 0.000100432 0.00049841)
(0.00162954 -0.000202051 -0.00123218)
(0.00171669 0.00017038 3.81012e-05)
(0.00143085 6.47853e-05 0.000695487)
(0.00179644 0.000187361 -0.000118323)
(0.00132291 -0.000772476 0.000349865)
(0.00122095 0.000383602 -0.000459742)
(0.00129144 -0.000677554 5.4666e-06)
(0.00185553 0.000552285 -0.000550016)
(0.00202326 -0.000158267 -0.000688812)
(0.00205421 9.00362e-05 0.000791081)
(0.00262533 0.000430575 -1.58273e-05)
(0.00169919 5.43004e-05 0.000219343)
(0.00122564 -0.000794047 -0.000224997)
(0.00193115 0.000760454 -8.92799e-05)
(0.00103508 -0.000225871 -0.000601006)
(0.00188438 0.000304942 -0.000144791)
(0.00204776 -1.89364e-05 -0.000519506)
(0.00165965 0.00115891 0.000748511)
(0.000949573 -0.000198993 -0.000410359)
(0.00168812 9.28522e-05 0.000231793)
(0.00155247 -0.000169358 0.000929015)
(0.00233936 0.000493257 0.000607967)
(0.00177419 -0.000911403 0.000428964)
(0.00242585 0.000909612 -0.00113266)
(0.00142909 -3.76282e-05 0.000416148)
(0.00161246 -0.0005411 0.000377095)
(0.00202769 0.00012049 0.000451445)
(0.00165637 0.000380924 -0.000597189)
(0.00133635 0.000180195 0.0001104)
(0.00252271 0.000475123 0.000505712)
(0.00185243 0.000423292 0.000626362)
(0.00216093 -3.50954e-05 -0.000469535)
(0.0024006 1.47142e-05 0.000266623)
(0.00222762 -0.00105374 -0.00061112)
(0.00198851 -0.000385538 -0.000154051)
(0.00228211 -3.3835e-06 -0.000721246)
(0.00226644 -0.000253747 -0.00081769)
(0.00177333 -7.21059e-05 -6.56357e-05)
(0.002551 0.000195387 6.90911e-05)
(0.00234005 -0.000315403 -0.000227697)
(0.00265707 -0.000405987 0.000307955)
(0.0017496 -0.000243589 0.000330036)
(0.00136131 -5.51602e-05 -0.000219846)
(0.00220305 0.000431365 0.000319788)
(0.00239572 1.60067e-05 0.00027731)
(0.00178799 -0.000333932 -0.000178963)
(0.00219653 -0.000159455 9.59308e-06)
(0.000896041 0.000963168 0.00012883)
(0.00255886 0.000636622 2.32287e-05)
(0.00212999 -0.00025486 -0.000214986)
(0.0017219 -0.000440549 -0.0011276)
(0.00207658 0.00043942 0.000442052)
(0.00277151 9.09639e-05 0.00112782)
(0.0019702 0.000215207 0.000288936)
(0.00240123 -9.48977e-05 -0.000419453)
(0.00259728 0.000175698 -0.000150604)
(0.00255344 -0.000843347 -0.000121813)
(0.00235624 0.000175538 0.000258688)
(0.00244825 0.000693656 0.00052572)
(0.00233079 -0.000237475 -0.000198865)
(0.00263202 -2.98221e-05 0.000212494)
(0.00240404 -0.000375663 0.000582391)
(0.00263104 -1.4692e-06 -0.000382073)
(0.00258527 0.000892251 -0.000286416)
(0.0020624 0.000900357 -0.00116814)
(0.0030012 0.000233868 0.0006128)
(0.00225118 0.000117177 0.000689644)
(0.00308028 -0.000147569 -0.000415807)
(0.00210398 -0.000183783 -0.000384871)
(0.00297923 -0.000705935 -0.000115443)
(0.00283417 -0.000174204 -0.000449976)
(0.00244238 0.00028589 -0.000148796)
(0.00351597 -0.000734481 2.95144e-05)
(0.00250622 8.53651e-05 -0.000191748)
(0.00297707 -0.000557618 -6.29027e-07)
(0.00266952 0.000497581 -0.000150084)
(0.00253197 0.000662678 0.000163098)
(0.00299092 -0.00116403 -0.000434827)
(0.00224016 6.8718e-05 -8.6735e-05)
(0.00331885 -0.000105313 0.000245056)
(0.00314632 0.000695648 0.000731853)
(0.00288197 0.000393326 0.000286078)
(0.0028623 -0.000204478 5.15558e-05)
(0.00262167 -8.84699e-05 0.000231736)
(0.00227014 5.86117e-05 -8.42762e-05)
(0.00181761 -0.000250193 -0.000319499)
(0.00329268 0.000302345 -5.84451e-05)
(0.00308348 0.000329835 -0.000259305)
(0.00227096 0.000899488 0.000158082)
(0.00354224 -0.000668705 -0.00026252)
(0.00283481 0.000327668 -0.000603811)
(0.00214922 0.000265132 0.000585872)
(0.00182546 -0.000392282 0.00015918)
(0.00262944 -5.50474e-05 0.000146366)
(0.00327728 -0.000351668 -0.000251794)
(0.00257535 0.000308263 -0.000117018)
(0.00289665 -0.000170272 -0.000134989)
(0.00242117 0.000355879 0.000460069)
(0.00252969 0.000109513 0.00014607)
(0.00375078 -0.000548001 0.000505935)
(0.00322956 0.000171688 7.62648e-05)
(0.00297812 0.00075776 0.000372589)
(0.00255957 0.00101715 0.000884163)
(0.00294729 6.3281e-05 -0.000291985)
(0.00294192 -0.000204224 0.000304493)
(0.00355127 7.36844e-06 -7.82641e-05)
(0.00399067 0.000516519 8.26145e-05)
(0.00265038 0.000491013 -0.000390414)
(0.00293435 -0.00113502 -0.00039467)
(0.00255142 0.0008795 -9.01095e-05)
(0.00274862 0.000196896 0.000274449)
(0.00367132 0.000401445 5.0283e-05)
(0.00366686 2.73018e-05 8.35415e-05)
(0.00322194 0.000162978 0.000304236)
(0.00267828 -2.02022e-05 0.000231034)
(0.00324968 0.000393126 0.000541923)
(0.00363671 -0.000127486 -0.000128161)
(0.00270148 0.00050074 -0.00086508)
(0.00290261 0.000194956 -0.000170589)
(0.00364736 5.78702e-05 -0.00052019)
(0.00374656 -0.000359296 0.000139757)
(0.00343611 -0.000191311 0.000186462)
(0.00338285 -0.000274828 0.000344586)
(0.00339993 -0.000491883 0.000962131)
(0.00295934 -3.21187e-05 2.62951e-06)
(0.00286097 0.000678416 0.000409482)
(0.0032351 -0.000541242 0.000165984)
(0.00387916 -0.000623348 0.000529199)
(0.00309356 -0.000521955 -0.000138779)
(0.00273708 0.000268965 6.36707e-06)
(0.00416858 0.000517225 -0.000277829)
(0.00300633 -3.33874e-05 0.000304807)
(0.00345275 -0.000591614 -7.44342e-05)
(0.00430833 -0.000218618 -0.000478876)
(0.00310581 0.000134425 -0.000305213)
(0.00287398 0.000666848 -0.000908531)
(0.00310867 -8.39128e-05 1.07219e-05)
(0.00307494 0.000350934 0.000499772)
(0.00414406 -0.000105389 -3.75381e-05)
(0.00401975 0.000178845 0.000564456)
(0.0035298 -1.38973e-05 -0.000208362)
(0.00397098 -0.000262315 -0.000386257)
(0.00375074 -0.000128705 -0.000916126)
(0.00282755 -0.000119917 -0.000111828)
(0.0034215 -0.000216811 -0.000208973)
(0.0027694 -0.000374084 0.000451711)
(0.00384819 -0.000287104 0.000508561)
(0.00306583 -0.000864398 -0.0002468)
(0.00388359 0.000396044 -2.85267e-05)
(0.00370644 8.09033e-05 0.000670237)
(0.00328176 0.000107343 -4.69114e-05)
(0.00345523 -0.000200585 -0.000742048)
(0.0040637 0.000253905 -0.000426578)
(0.00386082 0.00017888 0.000690011)
(0.00369069 0.000860919 0.000406819)
(0.00443002 0.00047479 0.000122592)
(0.00359819 -0.000107236 0.00033737)
(0.00443625 -9.84831e-05 0.000193169)
(0.00413059 -7.28292e-05 0.000120817)
(0.00354416 -0.00040132 -0.000297841)
(0.00386709 0.000162608 -0.000853103)
(0.00340387 0.000436412 0.000435615)
(0.0031248 -0.000303951 -7.22662e-05)
(0.00353307 -0.000132311 0.000868746)
(0.00275248 -0.000658474 0.000140437)
(0.00316247 0.000466538 0.000404232)
(0.00341851 3.52587e-05 6.4968e-05)
(0.0025773 -0.000419622 0.000541594)
(0.00307028 -0.000186466 0.000225086)
(0.00406106 0.000582473 0.000137885)
(0.00339678 -0.000823732 0.000448207)
(0.00355987 -0.000269119 -4.88812e-05)
(0.00440595 -5.29973e-05 1.578e-05)
(0.0046307 -0.000737046 7.74121e-05)
(0.00288537 0.00029786 -8.98995e-05)
(0.00379895 -3.33692e-06 -0.000101854)
(0.00344902 -0.000133275 0.000183544)
(0.00361148 -0.000439684 0.000141409)
(0.00369222 -1.7389e-05 0.000344935)
(0.0041953 0.00048579 0.000224934)
(0.00372531 -0.000603213 0.000536712)
(0.00367503 -0.000124671 -8.72878e-05)
(0.00412371 -0.000259691 0.000337615)
(0.00411686 -0.000260554 -1.69707e-05)
(0.003585 -0.000218656 -4.71097e-05)
(0.00417595 0.000517155 -7.31764e-05)
(0.00404332 0.000757409 -0.000273322)
(0.00410389 -0.000407519 -0.000295054)
(0.00368226 0.000471079 -0.000295419)
(0.00289651 -0.000632126 0.000465823)
(0.00337512 0.000233879 -0.000249686)
(0.00446948 -0.000446747 -4.89952e-05)
(0.00337048 0.0012061 6.75761e-05)
(0.00410002 -0.00052748 -0.000409404)
(0.00387798 -0.000842597 0.000171894)
(0.00376638 -6.83755e-05 0.000112642)
(0.00305859 0.000163789 -9.9808e-05)
(0.00347857 -0.000224598 -6.3816e-05)
(0.00368448 0.000514577 0.00030021)
(0.00348903 0.000586747 0.000105842)
(0.00337624 7.14293e-05 -4.60099e-05)
(0.00304914 0.000185809 -0.000158509)
(0.00403507 -0.00036956 -0.000625456)
(0.00371337 0.000543092 -0.000307146)
(0.0045687 0.000364608 0.000435928)
(0.00425249 0.000195677 0.000120517)
(0.00366435 0.000375765 0.000535442)
(0.00411498 -0.000103489 -0.000506527)
(0.00435885 -4.92006e-05 2.80861e-05)
(0.00403622 0.000572627 8.58917e-05)
(0.00387327 0.000343277 0.000193714)
(0.00371518 0.000118462 -0.000230997)
(0.00371712 -0.000225188 -9.06579e-05)
(0.00332691 -0.000260228 4.90371e-05)
(0.00346303 0.000377009 -0.000193906)
(0.00339552 0.000113613 0.0003384)
(0.00433519 0.000344701 0.000185708)
(0.00377554 0.000683594 -1.09024e-05)
(0.00388806 0.000186076 0.000681761)
(0.00409177 0.000339866 0.000284151)
(0.00373024 -0.000199893 3.75699e-05)
(0.00422061 0.000297831 -9.82654e-05)
(0.00347183 3.48394e-05 0.000294243)
(0.00375984 -6.19367e-05 0.000758426)
(0.00330754 -0.000144242 0.000502985)
(0.00370515 -0.000108768 -3.40465e-06)
(0.00449598 9.55488e-05 4.51261e-05)
(0.00346654 -0.000405154 0.000276748)
(0.00482294 0.000169346 -2.50067e-05)
(0.00485636 -0.000829795 0.000367801)
(0.00370583 0.000830104 0.000381586)
(0.00363966 0.000270137 0.000156761)
(0.00377786 0.00038577 0.000450505)
(0.00416886 -0.000361208 0.000107)
(0.00377929 -8.39896e-05 0.000636988)
(0.00438906 0.000183733 0.000397779)
(0.00302936 -0.000464866 0.000274917)
(0.0040703 0.000163826 8.12454e-05)
(0.00382514 -0.000104036 0.000304406)
(0.00270757 0.000106064 6.64029e-05)
(0.00450233 -0.000604926 0.000216517)
(0.00377106 8.44983e-05 -0.000149079)
(0.00282015 0.000281729 -0.000217508)
(0.00438005 -2.59013e-05 -0.00047652)
(0.00400998 -8.58351e-05 0.000128824)
(0.00317276 -0.000359729 -0.000253561)
(0.00447206 -0.000117896 -0.000130633)
(0.00325854 -9.49681e-05 -0.000156924)
(0.00375201 -2.51876e-05 4.48733e-05)
(0.00409819 -0.000136171 7.19395e-05)
(0.00423817 -0.000323259 0.000556392)
(0.00357368 -3.06856e-05 -4.69211e-05)
(0.00332737 -0.000613457 0.000465268)
(0.00312459 -0.000250163 0.000369075)
(0.00377988 -3.3139e-05 0.000661512)
(0.00356116 -1.6152e-05 -8.30425e-05)
(0.00456197 -0.000101499 -0.000328132)
(0.00393472 0.000361477 -0.000672008)
(0.00370555 0.0003077 -0.000152669)
(0.00354193 -7.40128e-05 0.000150048)
(0.00304125 -0.000156153 -1.77375e-05)
(0.00432617 0.000617425 0.00023201)
(0.00346397 0.000183059 -0.00062841)
(0.00251952 -0.000153155 -0.000123455)
(0.00396659 0.000113575 0.0001321)
(0.00380872 -0.000598276 -4.38055e-05)
(0.00398467 -0.000148385 0.000123123)
(0.00391261 -0.00042462 0.000125382)
(0.00404498 4.27837e-05 0.000119583)
(0.00421219 0.00012459 -0.000226366)
(0.00416523 0.000401451 -0.000304559)
(0.00382291 -0.000208597 -0.000674609)
(0.00402117 -4.42975e-05 0.000687766)
(0.00365792 0.000140196 -0.000330406)
(0.00445828 0.000312013 -0.000367936)
(0.00422006 -0.000177456 -0.000236103)
(0.00425841 0.000303762 -0.000226477)
(0.00393045 7.17328e-05 -0.00017088)
(0.003857 -0.000411037 -0.000338295)
(0.00388508 -0.000131917 -0.000241024)
(0.00409241 -0.000518766 0.000186811)
(0.00360821 -1.88248e-05 0.000418696)
(0.00413923 -0.000142009 -0.000141861)
(0.00390478 -0.000586152 -9.75412e-05)
(0.00354852 -0.000230219 -0.000437434)
(0.00322449 0.000222902 -2.91742e-05)
(0.00392572 -8.73304e-06 -0.000236294)
(0.0043197 0.00015686 -4.95496e-05)
(0.00354096 -0.000203899 0.000321262)
(0.00309957 6.17851e-05 0.000116767)
(0.00388867 6.14204e-05 5.88378e-05)
(0.00394301 8.36199e-05 0.000413607)
(0.00375669 -4.56411e-05 0.000146191)
(0.00341729 -1.08521e-06 -3.32026e-05)
(0.00347341 0.000106295 -0.000556888)
(0.0037871 0.000323275 9.88337e-05)
(0.00491166 0.000538252 0.000896021)
(0.00429002 0.000564259 -0.000293266)
(0.0033745 -0.000291058 0.000467964)
(0.00403658 -0.00028649 0.000622865)
(0.00398459 0.00022416 0.000566791)
(0.00389149 0.000187004 -0.000318029)
(0.0036888 0.000438991 -0.000502593)
(0.00403388 0.00060376 -0.000153503)
(0.00391425 0.000166177 0.000270197)
(0.00357353 -0.000106424 -1.90731e-05)
(0.00411726 -0.000250421 5.07445e-05)
(0.00398986 0.000292959 -0.000241712)
(0.00435865 -0.000151904 0.000141487)
(0.00358326 0.00019225 -0.00020247)
(0.00345271 0.000247831 -5.39289e-05)
(0.00428143 -0.000141003 0.000217271)
(0.00389394 -0.000112184 -9.74993e-05)
(0.00362042 -0.000466029 0.000751524)
(0.00438865 -0.000378055 -0.00046382)
(0.00413144 -0.000356105 0.000237716)
(0.00348668 -8.07665e-06 0.00016736)
(0.00368368 7.51555e-05 0.00033147)
(0.00449722 0.000508795 0.000865713)
(0.00388017 -0.000135726 0.000193341)
(0.00414089 -0.000171154 0.000446942)
(0.0036395 -0.000329134 -0.000205971)
(0.0035285 0.000452293 -0.000408635)
(0.00346377 0.000177404 -0.000124027)
(0.00474607 -0.000261961 -0.000295897)
(0.00492932 -0.0004436 -0.000146068)
(0.00434339 -0.000261913 0.000421645)
(0.00313274 -0.000229419 -0.00011758)
(0.0033614 0.000217898 0.000235402)
(0.00405382 -0.000562794 0.000306427)
(0.00384629 -0.000197864 -0.000253568)
(0.00444469 -0.000375379 -0.000258047)
(0.00371231 0.000680343 -0.000169414)
(0.00408347 -0.000441076 0.00035385)
(0.00389017 -0.000368258 0.000224618)
(0.00379232 -2.22202e-05 -0.000323113)
(0.00327449 0.000120559 -0.000186467)
(0.00342874 0.000385488 0.000164153)
(0.00398168 0.000262501 -0.000546056)
(0.00407364 0.000484002 0.0004495)
(0.00398511 -4.16815e-05 -0.000233539)
(0.00411065 -0.000513196 0.000379737)
(0.00316516 -5.7224e-05 0.000174482)
(0.00352481 -0.000294415 -0.00054793)
(0.00365915 -0.000227433 -0.00050566)
(0.00295343 -0.000694064 -0.000393253)
(0.00493764 0.000394356 -0.000297887)
(0.00465053 7.83218e-06 -0.000432977)
(0.00361817 0.000158429 1.73915e-05)
(0.00342492 1.08666e-05 3.96404e-05)
(0.00395186 4.32633e-05 -0.000311825)
(0.0035739 0.000389866 -9.55059e-05)
(0.00398071 0.000326372 2.58868e-05)
(0.00366497 0.000405601 -0.000182457)
(0.00395179 -0.000571349 0.000730637)
(0.00468149 7.66222e-05 -0.000348631)
(0.00300186 -0.00085039 0.000424543)
(0.00370755 -3.9481e-05 -0.000675853)
(0.00453445 -0.000334177 -0.000360513)
(0.00347488 2.34434e-05 -0.000630097)
(0.00425114 -1.20047e-06 -0.000410063)
(0.00459736 0.000190747 -0.000453513)
(0.00371266 -0.000484658 -0.000423907)
(0.00336434 0.00020656 0.000420922)
(0.00388623 -0.000614227 -0.000273772)
(0.00404931 0.000133123 0.000184745)
(0.00382836 -0.00072516 0.000198418)
(0.00364161 -1.68094e-05 -0.000345118)
(0.00410379 -9.42916e-05 -5.55562e-05)
(0.00404357 -0.000616854 0.000137797)
(0.00334425 -6.2374e-05 0.000276536)
(0.00378939 -2.93265e-05 -5.2333e-06)
(0.00423655 -0.000124506 0.000295912)
(0.00352846 -0.000134708 -0.000576691)
(0.00386697 0.000185589 -0.00036547)
(0.00405305 -0.000451578 -0.000448956)
(0.00334953 -0.000463526 -4.13954e-05)
(0.00336233 -0.000345451 -0.000473618)
(0.00461382 0.000193571 -0.000186612)
(0.00324962 -0.000171133 0.000331313)
(0.00379014 0.000309286 -0.000338244)
(0.00365685 0.000281279 -8.66596e-05)
(0.00422139 -0.000284112 0.0001001)
(0.00436742 -0.000217619 -0.000123167)
(0.0038184 0.000162138 0.000427038)
(0.00374549 0.000119484 -3.17432e-05)
(0.00400829 -0.000180111 3.76286e-05)
(0.00446922 0.000258093 0.000298592)
(0.00400503 0.000212845 2.8573e-05)
(0.0040664 -0.000123724 -0.00014858)
(0.0036561 1.66345e-05 5.41717e-05)
(0.00432188 -0.000638786 0.000339293)
(0.0042127 -8.16004e-05 0.000479028)
(0.00372177 0.00068874 7.01531e-05)
(0.00341397 -5.31929e-05 6.5098e-06)
(0.00415507 0.000337252 0.000133154)
(0.00380187 -0.00040462 0.000222155)
(0.00355349 -0.000465571 0.00056138)
(0.00350105 -8.12792e-05 0.000564621)
(0.00422643 0.000115614 -0.000254723)
(0.00365499 -0.000200595 -0.000269717)
(0.00470748 5.09382e-05 0.00053031)
(0.00408689 0.000180246 0.000448892)
(0.00404768 0.000349905 -0.000196287)
(0.00380568 -7.689e-05 -8.50364e-05)
(0.00433774 0.000132201 -0.000265874)
(0.00372365 0.000241159 5.04461e-05)
(0.00375674 0.000243027 -0.000446243)
(0.00348336 0.000546062 3.24663e-05)
(0.00438222 -5.44575e-05 -0.000283436)
(0.00346193 0.000687841 0.000202958)
(0.00361804 -0.000108155 0.000235689)
(0.00404851 0.000142052 0.000183354)
(0.00307354 0.000195596 0.000796247)
(0.00457723 8.89578e-05 -0.00048164)
(0.00374888 8.67781e-05 9.95277e-05)
(0.00364211 9.38241e-05 0.000155487)
(0.00429595 0.000597784 -0.000293085)
(0.00409234 -2.69386e-05 -9.95925e-06)
(0.00439214 8.1024e-05 0.000299356)
(0.0040602 6.30788e-06 -6.55738e-05)
(0.00334385 -2.18148e-05 -0.000244999)
(0.00400272 -0.000280229 -7.376e-05)
(0.0034979 -0.000341754 -3.92281e-05)
(0.00382548 3.08465e-06 9.96188e-05)
(0.00438401 -0.000734047 6.64577e-05)
(0.0037383 0.000418167 -0.00018249)
(0.0032825 0.000123553 -5.29038e-05)
(0.00401016 -0.000355489 0.000119214)
(0.00379172 0.00036704 -3.87959e-05)
(0.00439676 0.00054898 -0.000259204)
(0.00380193 0.000208519 0.00025637)
(0.00407079 0.000116745 -0.000458369)
(0.00417469 0.0001101 0.000234631)
(0.00394615 -0.000418032 -3.95217e-06)
(0.00430878 -0.000132611 -1.97117e-05)
(0.00439164 -0.000244062 0.000139726)
(0.00441626 0.000164343 2.32667e-05)
(0.00405359 0.000424175 -0.00010314)
(0.00403848 -1.14313e-05 -0.000199263)
(0.00411009 0.000136083 -0.000203863)
(0.0036491 0.000292449 -1.74562e-05)
(0.003366 0.000129494 -0.00032016)
(0.00395527 -0.000315349 0.000120762)
(0.00331775 8.62914e-05 0.000303682)
(0.0034396 3.70643e-05 -2.96221e-05)
(0.00398588 0.000103908 0.000362548)
(0.00381306 -0.000294928 5.04566e-05)
(0.00332177 6.41613e-05 0.000408727)
(0.00367287 -0.000496864 -0.000107005)
(0.00254294 0.000293114 -0.000291144)
(0.00469062 0.000106007 8.20699e-05)
(0.00426542 4.1891e-05 0.000506219)
(0.00411898 3.43437e-05 -0.000107445)
(0.00448004 -0.000253592 5.3909e-05)
(0.00462472 0.000420079 0.000654824)
(0.00340266 0.000113415 -0.000149648)
(0.00423846 0.000533083 -0.000263562)
(0.00384694 -0.000663737 0.000179703)
(0.00374561 -0.00114148 -0.000468793)
(0.00400316 -0.000149389 -0.000464862)
(0.00332661 0.000270806 0.000462995)
(0.00413501 -0.000150164 0.000136157)
(0.0044246 -0.000532336 -0.000651278)
(0.00417654 -0.000190889 5.89558e-05)
(0.00321436 0.000153589 4.99179e-05)
(0.00457605 0.000672747 5.19233e-05)
(0.00355617 -0.000219192 9.75793e-05)
(0.00358878 -6.40258e-05 -7.38413e-05)
(0.00373758 -0.000281811 -0.000365142)
(0.00338863 -0.000302636 -0.000123715)
(0.00383892 0.000102124 0.000832257)
(0.0039343 0.00024348 -0.000149369)
(0.00344665 0.000399017 -0.000452774)
(0.00296269 -0.00049853 -0.000792157)
(0.00368099 0.000231156 1.65817e-05)
(0.00408813 -0.000228463 0.000390501)
(0.0031616 0.000494065 0.000482087)
(0.00527145 -8.39772e-05 -0.000236372)
(0.0042978 0.0003923 -0.00021492)
(0.00351145 -8.76206e-05 -1.4293e-05)
(0.00368923 0.000232109 -6.48244e-06)
(0.00422012 -0.000372826 -0.000179238)
(0.00458394 -0.00020616 -0.000103212)
(0.00371929 -0.000313549 0.000407288)
(0.00373679 0.000502568 -4.42289e-05)
(0.00432916 -0.000179369 -0.000573623)
(0.00303923 -0.0001576 4.26549e-06)
(0.00444595 0.000273218 -8.52192e-05)
(0.00383408 -0.000127512 -0.000154122)
(0.0043295 -0.000124417 -0.00030657)
(0.00388528 -0.000334512 -4.00091e-05)
(0.00321466 -0.000580989 0.000421514)
(0.00398108 0.000371817 0.000547573)
(0.00388396 0.000348263 0.000381667)
(0.00336788 0.000402978 -0.000200682)
(0.00394966 -0.00026009 0.000748914)
(0.00393729 -9.62677e-06 -0.000250562)
(0.00348542 -0.000272564 -4.70666e-05)
(0.00437015 -0.000451334 0.000252265)
(0.00336423 0.000422179 -4.43729e-05)
(0.00350141 5.09878e-05 0.000461782)
(0.00411133 0.000163749 0.000664631)
(0.00456069 0.000533854 -0.0005483)
(0.00429174 -0.000229811 -0.000108105)
(0.00426055 -9.72928e-05 -0.000210703)
(0.00363969 0.000110104 -6.48289e-05)
(0.00420718 -0.000342814 -0.000476058)
(0.00441131 -7.91904e-05 0.000267585)
(0.00417527 0.000389031 2.74007e-05)
(0.00436154 0.000842046 -8.18186e-05)
(0.00347141 -0.000106931 -0.000217139)
(0.00404465 0.000163989 -0.00013979)
(0.00342131 0.000385121 -0.000283848)
(0.00413548 -0.000809582 0.000116367)
(0.00373079 8.40295e-05 -0.000262436)
(0.00479239 -8.49669e-05 0.000859386)
(0.00407212 0.000187519 -0.00031506)
(0.00430522 -0.000238538 0.000419664)
(0.00325145 -7.3673e-05 0.000415117)
(0.00433556 -0.000193126 0.000512886)
(0.00392113 1.0832e-05 0.000517122)
(0.00381346 -0.00064033 -0.000125846)
(0.00399066 0.000151881 0.000431306)
(0.00415502 -0.000242315 -0.000430269)
(0.00455549 0.000327715 0.000299974)
(0.00353363 -0.000373005 -0.00029386)
(0.00430877 0.000357993 5.62464e-06)
(0.0043543 0.000119748 -9.45434e-05)
(0.00429796 -4.95311e-05 0.00028558)
(0.00467174 -2.41575e-05 0.000108309)
(0.00436675 0.000585764 -0.000222702)
(0.00372672 -0.000593813 -0.000278735)
(0.00478721 -0.000282224 5.23426e-05)
(0.00447573 0.000838025 -0.00020813)
(0.00517781 -0.00039476 8.83803e-07)
(0.00428778 -0.000387681 0.00062007)
(0.00427021 1.65024e-06 -0.000200939)
(0.00421785 0.000492222 -0.000273964)
(0.00541209 -5.51739e-06 -0.000299964)
(0.00491324 0.000250439 0.00100165)
(0.00433353 -0.000357243 -0.000131474)
(0.00491523 0.000524274 -0.000145613)
(0.00508321 -0.000140897 0.000407211)
(0.00378363 0.000316595 0.000101987)
(0.00450998 0.000561774 -0.000182642)
(0.0056404 0.000836026 -8.43424e-05)
(0.00490419 -0.000241257 0.000465681)
(0.00479261 8.4278e-05 -0.000532434)
(0.00428669 7.14491e-05 7.65292e-05)
(0.00421084 -0.000186149 -0.000358228)
(0.00523401 -3.92274e-06 0.000313913)
(0.00571278 -0.000698559 5.92359e-06)
(0.0046181 -1.32493e-05 2.52847e-05)
(0.00485212 0.000738795 0.000254574)
(0.00494966 0.000125848 0.00028054)
(0.0052253 -0.000797895 0.000615163)
(0.00543949 -0.000228598 -0.00023663)
(0.00578146 0.000227084 0.00069606)
(0.00472885 -0.00022573 0.000298507)
(0.00549688 -0.000446012 -7.78407e-05)
(0.00534836 -0.000140286 0.000397497)
(0.00530321 -0.000455692 0.000293488)
(0.00604295 0.000191852 -0.000385372)
(0.0061259 -0.000478149 -7.48264e-07)
(0.00573054 0.000743489 -0.000313083)
(0.00565589 0.0001099 0.000106709)
(0.00531755 0.00023406 -0.000454755)
(0.00546465 0.000341481 0.000305075)
(0.00528361 -0.000266256 0.000758843)
(0.00556482 -0.000208704 -8.66291e-05)
(0.00516401 -5.87289e-05 -0.00023381)
(0.0057783 0.000503676 0.000391702)
(0.00603043 -0.000352232 0.000227396)