/*--------------------------------*- C++ -*----------------------------------*\
  =========                 |
  \\      /  F ield         | OpenFOAM: The Open Source CFD Toolbox
   \\    /   O peration     | Website:  https://openfoam.org
    \\  /    A nd           | Version:  7
     \\/     M anipulation  |
\*---------------------------------------------------------------------------*/
FoamFile
{
    version     2.0;
    format      ascii;
    class       volScalarField;
    location    "0.006";
    object      overallT;
}
// * * * * * * * * * * * * * * * * * * * * * * * * * * * * * * * * * * * * * //

dimensions      [1 2 -2 0 0 0 0];

internalField   nonuniform List<scalar> 
1000
(
156.725
251.421
252.269
257.761
162.928
162.484
254.458
249.404
242.482
161.219
236.925
238.55
164.754
253.048
254.51
254.138
253.215
254.185
250.779
251.563
252.777
245.293
166.104
241.448
241.611
242.958
162.82
246.729
246.931
247.548
245.403
160.229
204.937
236.594
250.887
249.445
163.289
252.702
255.499
170.341
264.373
260.438
171.454
255.311
253.572
251.124
249.335
169.94
243.93
202.998
130.489
254.334
173.807
254.113
255.758
175.161
175.494
135.205
179.257
260.832
261.059
180.655
261.648
269.896
271.851
271.804
197.281
266.558
263.402
187.35
264.196
266.245
269.17
269.633
264.555
256.024
183.574
187.008
260.731
261.251
268.993
269.937
189.836
190.198
191.324
268.184
265.05
264.573
265.016
272.112
281.537
280.723
280.616
196.222
236.105
239.476
290.862
302.151
301.096
210.584
296.971
292.152
290.417
286.267
286.02
289.412
292.193
297.028
259.94
272.175
274.811
278.916
272.006
240.223
304.259
302.512
301.677
303.729
223.898
215.611
299.256
218.313
303.752
303.507
303.81
218.458
218.485
218.453
305.956
307.38
178.81
308.755
308.819
306.812
165.36
295.179
208.713
206.915
284.984
232.604
286.365
284.61
276.499
276.219
203.473
279.134
279.263
279.523
279.457
276.958
198.134
267.919
268.562
268.712
193.089
198.959
250.538
242.01
183.682
245.281
265.803
194.144
268.042
269.707
268.492
194.951
192.852
267.012
267.638
266.929
259.107
188.097
252.685
252.923
184.278
245.892
181.498
247.083
247.04
240.733
182.965
183.504
145.202
253.621
253.979
256.858
185.21
260.663
186.279
259.807
260.65
261.404
151.63
197.167
269.558
268.664
198.834
270.62
270.12
270.061
276.988
280.581
211.872
269.965
267.183
254.465
254.861
197.908
160.938
199.066
279.647
281.956
283.583
282.38
208.799
208.361
208.124
210.054
289.393
214.788
285.423
284.997
283.444
284.383
282.97
280.393
277.959
210.449
278.518
209.342
275.975
276.022
272.542
205.755
270.611
268.514
267.406
266.708
265.875
270.848
288.016
297.964
300.485
233.723
306.753
233.871
298.31
299.894
227.019
224.051
283.219
210.413
270.287
266.624
265.38
267.992
271.115
270.973
272.647
279.074
278.643
278.372
276.057
274.464
199.331
273.778
273.934
270.283
269.063
267.43
265.55
264.69
264.751
265.584
262.52
262.299
265.372
265.973
265.914
265.647
268.892
129.7
270.38
273.914
274.368
274.579
273.264
274.014
273.227
202.524
277.653
280.123
280.746
278.838
206.072
278.414
277.342
209.201
210.913
281.603
169.119
285.563
287.668
288.993
212.518
286.348
283.381
289.238
288.814
286.081
286.051
284.271
284.074
285.729
277.723
273.522
273.578
209.077
277.509
276.868
278.359
279.293
281.127
280.032
212.608
284.922
204.281
282.751
204.769
263.934
205.41
274.308
274.968
206.294
274.672
207.667
276.188
276.164
276.546
208.736
275.127
166.129
269.447
267.322
199.235
264.705
264.853
266.688
267.554
272.908
274.981
274.616
277.243
276.608
204.538
273.807
205.14
274.501
274.741
277.822
271.266
269.716
269.68
205.697
269.973
204.031
205.534
205.616
267.376
267.887
273.724
273.332
273.498
209.034
273.896
271.069
207.359
271.851
272.991
271.67
271.724
273.254
273.3
272.777
271.494
271.769
272.5
269.69
203.727
204.67
204.815
204.621
266.639
267.836
205.253
275.44
211.725
283.074
211.662
211.353
211.512
280.678
281.995
283.366
212.879
284.7
213.683
290.45
293.709
217.012
169.96
208.183
279.502
209.546
278.244
209.66
248.625
205.171
277.183
281.493
276.416
214.73
283.417
286.362
283.944
286.219
288.241
279.085
212.464
281.827
276.838
277.791
276.702
274.784
276.648
274.931
275.271
202.906
204.115
279.434
279.548
270.849
262.872
282.966
286.717
204.639
285.983
204.591
292.197
291.367
210.296
297.141
295.411
293.737
294.57
297.49
295.085
286.591
285.157
204.86
157.237
267.949
256.281
255.698
267.382
268.235
267.655
284.267
284.594
159.854
159.126
268.594
277.978
276.398
274.679
206.678
278.909
280.103
280.276
278.002
280.017
276.968
200.596
199.323
269.254
197.421
269.561
274.927
278.407
283.932
284.291
282.732
298.354
305.409
285.572
213.414
287.844
163.264
289.073
290.157
293.198
214.109
282.802
283.806
283.052
213.107
281.3
300.199
302.998
304.186
300.479
291.015
286.921
217.003
296.722
288.812
217.649
281.276
276.717
216.05
287.113
292.517
303.682
301.225
299.731
297.41
295.104
293.953
172.216
289.734
286.261
285.868
141.436
213.496
287.969
288.931
287.602
170.838
293.084
216.704
291.044
288.863
212.165
284.986
304.052
305.881
294.524
295.215
222.641
273.683
280.144
163.112
251.005
265.407
280.893
204.205
199.818
275.771
279.09
278.752
275.996
273.057
270.755
201.98
202.421
273.214
273.852
204.893
264.579
260.618
268.356
267.758
199.977
259.505
200.179
264.533
239.704
237.38
245.724
270.599
271.92
271.614
271.187
270.364
271.655
205.916
164.368
261.943
200.379
257.685
258.095
259.438
266.084
262.285
262.702
261.475
262.441
260.584
259.992
260.254
199.17
262.364
268.256
269.435
205.365
272.014
166.164
210.132
271.401
269.639
268.541
199.775
266.784
267.101
267.64
204.419
278.417
285.298
288.089
288.855
293.897
218.596
296.769
314.247
315.978
190.977
304.809
302.847
289.527
219.299
294.277
295.032
221.354
289.73
213.448
280.625
279.747
280.092
216.373
295.676
300.579
307.908
236.498
227.242
298.341
290.416
265.842
265.223
263.543
277.624
283.076
283.231
285.244
283.311
282.362
281.363
209.152
209.904
283.45
207.963
165.273
286.948
286.118
207.409
286.92
288.629
215.375
288.95
291.472
174.255
290.871
217.877
289.938
290.334
304.292
227.422
299.91
297.482
296.097
293.559
221.224
293.846
296.345
296.746
299.946
297.204
220.566
281.104
272.473
272.174
272.952
273.714
274.182
272.833
274.35
273.919
268.118
264.658
233.257
189.903
266.448
200.513
202.431
201.96
272.154
165.842
273.477
195.267
358.864
284.38
278.129
266.319
264.719
264.465
274.965
276.641
276.528
274.427
273.76
271.1
270.582
270.77
266.179
265.234
264.762
269.79
270.918
207.739
257.043
250.867
264.004
239.052
267.807
268.18
267.459
268.032
269.731
211.241
268.462
268.117
279.888
284.55
226.897
222.065
222.281
284.965
281.307
281.174
281.587
216.059
276.081
272.165
277.952
286.64
286.592
285.71
281.831
282.538
212.33
211.422
212.968
274.638
276.753
270.426
203.187
268.106
266.384
253.694
252.947
250.123
248.732
259.278
205.949
276.705
204.001
272.729
271.726
204.824
205.664
273.984
204.957
272.254
269.528
268.54
266.368
271.817
274.711
274.572
274.178
274.669
191.575
233.029
197.388
277.167
277.268
160.386
279.273
280.146
204.511
210.853
212.718
282.041
280.321
278.786
279.123
275.873
267.797
267.514
265.705
266.294
271.888
273.676
274.979
202.831
202.102
273.726
162.219
272.292
334.912
204.841
272.794
208.494
232.703
278.049
215.377
213.891
211.51
270.275
266.893
205.173
204.723
268.79
279.394
212.32
213.273
272.05
263.86
196.981
262.003
261.749
261.005
259.383
196.657
267.695
197.178
197.115
196.577
265.419
199.551
157.609
269.776
266.338
265.389
265.474
199.46
269.152
202.705
273.677
274.597
274.406
275.759
210.874
282.835
303.156
304.701
287.754
274.186
274.071
270.684
272.064
209.594
273.701
273.539
275.854
276.551
272.797
271.355
271.899
276.907
209.002
273.556
265.367
259.627
201.637
205.589
275.404
272.207
271.153
276.72
277.964
203.727
279.624
274.995
268.92
270.197
268.138
200.838
271.67
274.507
275.037
277.147
293.745
199.451
279.031
278.087
277.153
197.167
196.906
276.598
269.266
155.829
252.387
149.309
247.899
245.05
180.326
253.512
256.119
178.243
247.119
246.984
178.421
262.453
261.972
259.091
258.338
258.237
180.731
224.61
209.155
179.279
252.329
175.842
246.674
247.059
253.773
253.882
250.773
251.226
176.288
245.241
221.041
222.275
241.315
250.188
168.516
247.299
174.71
263.349
182.219
136.867
270.89
271.7
271.586
270.13
176.704
262.772
258.926
167.841
237.387
236.414
234.406
235.803
237.848
237.4
235.888
157.815
157.908
142.871
225.953
236.476
218.098
217.637
220.103
216.94
221.277
223.474
156.95
154.056
237.542
237.357
157.208
155.883
234.816
230.324
237.749
237.1
234.945
161.73
271.187
271.217
271.774
270.805
269.13
264.354
263.027
156.089
232.43
233.724
237.223
)
;

boundaryField
{
    sides
    {
        type            calculated;
        value           nonuniform List<scalar> 2(237.223 156.725);
    }
    empty
    {
        type            empty;
    }
}


// ************************************************************************* //
