/*--------------------------------*- C++ -*----------------------------------*\
  =========                 |
  \\      /  F ield         | OpenFOAM: The Open Source CFD Toolbox
   \\    /   O peration     | Website:  https://openfoam.org
    \\  /    A nd           | Version:  7
     \\/     M anipulation  |
\*---------------------------------------------------------------------------*/
FoamFile
{
    version     2.0;
    format      ascii;
    class       volScalarField;
    location    "0.006";
    object      overallT;
}
// * * * * * * * * * * * * * * * * * * * * * * * * * * * * * * * * * * * * * //

dimensions      [1 2 -2 0 0 0 0];

internalField   nonuniform List<scalar> 
1000
(
396.772
389.168
395.743
403.226
396.331
400.373
399.931
391.914
388.187
397.232
395.069
383.312
391.015
397.976
393.272
393.748
388.742
381.929
378.843
371.283
375.873
370.953
372.221
373.921
380.807
388.289
380.853
391.621
398.539
408.42
414.525
412.729
408.639
410.781
407.862
410.719
415.661
405.334
407.131
394.597
397.112
402.828
402.668
394.303
395.842
381.536
372.65
375.891
385.626
374.18
385.88
382.851
390.958
385.239
384.151
383.46
371.727
376.685
378.053
378.535
377.207
380.702
383.743
399.146
406.514
402.593
402.004
407.007
404.693
401.231
398.857
391.869
391.015
389.173
385.067
374.009
368.419
369.756
367.528
370.23
366.77
363.781
364.774
362.159
374.609
369.38
376.158
389.776
389.207
389.362
399.794
405.724
399.245
398.482
398.003
399.709
403.173
423.349
422.246
415.111
416.751
412.1
405.615
416.278
402.745
390.568
395.317
385.06
375.305
372.201
376.38
380.847
376.437
383.044
381.831
376.468
383.167
378.711
370.221
372.85
375.286
369.318
369.316
372.833
370.901
369.798
369.862
388.587
379.517
373.193
377.423
375.296
388.97
397.03
394.862
385.207
374.705
374.331
372.066
377.461
379.562
381.103
365.18
380.111
386.569
401.611
400.808
407.37
411.644
412.204
409.098
400.609
394.488
398.472
404.42
397.895
397.145
409.302
410.299
411.814
414.288
415.639
413.812
413.416
404.705
403.236
397.87
391.754
395.666
396.592
399.345
392.085
393.879
394.947
393.203
389.897
401.177
411.718
402.591
390.136
394.999
396.386
395.719
409.208
401.727
396.536
392.138
396.021
389.548
391.355
394.118
404.791
406.036
394.684
408.694
402.354
406.051
402.062
402.277
392.558
402.477
396.786
396.444
393.422
393.441
387.746
391.598
384.577
388.363
382.367
385.77
379.86
383.134
379
382.93
379.515
379.002
385.544
385.088
384.132
385.909
387.765
398.506
387.162
402.129
392.781
378.327
381.259
374.052
374.292
370.034
376.254
380.498
395.447
404.846
400.475
404.964
394.507
385.411
387.308
384.007
379.063
384.748
379.127
377.987
379.57
381.68
379.563
374.464
378.582
383.372
384.274
384.523
395
388.667
390.751
385.401
382.736
383.818
391.242
395.26
401.901
399.137
395.827
393.487
383.749
394.189
388.846
389.787
409.338
411.653
416.111
406.152
409.04
397.065
407.181
409.854
416.636
414.295
404.327
401.27
408.488
416.276
425.033
422.444
410.429
403.315
404.594
393.065
399.334
404.867
387.661
386.819
390.131
389.192
387.522
382.565
378.25
382.488
400.755
401.956
384.397
391.58
394.219
402.933
407.606
407.976
400.938
400.545
389.885
381.742
380.206
379.797
380.884
385.546
385.774
390.3
384.539
375.558
385.447
376.681
376.769
383.944
389.661
392.916
388.911
391.456
393.558
399.448
403.523
402.798
389.023
397.826
403.453
405.496
408.309
407.241
409.265
400.055
397.25
390.221
381.524
381.992
371.965
364.176
364.83
367.879
362.831
358.16
360.549
367.274
379.522
384.197
374.357
379.764
389.824
382.401
385.712
374.648
376.535
387.335
382.663
383.298
384.78
379.973
382.538
378.022
376.07
373.742
371.753
377.999
376.78
380.087
383.262
378.623
386.304
385.352
384.036
381.678
393.227
387.909
380.558
379.391
378.666
380.956
368.721
370.32
372.009
380.508
382.264
384.082
390.608
391.887
386.479
383.47
376.084
372.383
377.272
385.353
372.435
369.232
377.686
384.282
378.36
366.083
377.663
383.609
374.44
382.465
383.996
383.28
378.426
382.76
375.416
374.662
379.787
374.329
385.06
385.193
365.254
369.072
362.506
366.692
362.033
364.138
367.612
388.262
380.287
373.974
371.54
371.003
362.183
374.502
374.518
356.384
363.795
361.461
362.042
360.195
366.757
367.389
372.624
364.802
373.799
359.772
365.545
366.31
370.98
369.679
358.414
356.078
349.284
359.45
355.168
346.498
345.056
349.181
343.494
348.156
356.013
357.633
361.669
359.026
358.719
364.804
358.969
347.865
351.321
348.886
345.708
349.126
356.51
358.118
354.48
351.51
352.697
353.117
356.94
347.171
348.537
344.285
342.484
341.294
337.511
327.416
331.372
335.381
349.411
339.214
336.53
335.934
333.81
337.486
336.862
336.707
340.897
333.208
329.697
330.443
338.391
332.941
322.003
326.537
336.473
336.794
331.77
334.478
334.313
333.359
340.648
337.773
335.153
335.577
339.082
340.031
342.171
345.388
345.518
346.991
339.914
353.954
352.325
347.467
347.509
343.666
349.333
331.377
338.857
350.802
341.462
353.325
357.325
359.303
355.854
360.692
360.188
355.407
355.994
357.466
359.151
365.579
360.442
355.487
346.615
366.362
377.314
376.068
364.511
377.736
373.818
376.83
380.979
376.581
378.164
372.623
374.443
375.648
389.858
380.246
378.466
356.982
380.757
387.274
391.895
384.249
397.141
390.293
391.815
391.503
403.941
397.516
402.045
406.759
409.361
406.962
420.956
422.972
412.437
416.674
430.717
436.821
433.836
431.255
428.864
433.923
430.448
437.103
440.234
443.416
441.243
451.185
446.402
466.698
466.44
451.001
453.071
455.101
462.182
461.808
477.05
489.034
459.122
483.763
474.352
452.733
471.462
474.056
456.895
454.459
459.956
482
492.234
468.882
466.611
459.674
455.56
450.161
445.918
456.631
464.518
463.625
469.291
465.968
455.049
456.654
459.068
462.497
470.841
465.084
455.934
459.732
451.019
460.38
449.278
468.07
473.545
442.188
461.208
471.496
484.201
468.413
448.19
447.685
460.894
454.499
450.04
442.847
432.642
434.917
446.135
426.023
432.476
438.634
429.292
428.297
425.42
446.644
463.189
455.393
440.38
449.587
463.475
449.647
434.736
427.803
443.247
439.971
427.081
442.352
445.435
452.787
446.462
464.569
452.396
450.781
449.929
447.468
452.206
451.13
461.195
461.33
470.744
467.343
462.597
463.681
457.319
460.673
455.831
447.338
464.029
446.479
447.428
433.205
439.477
444.523
446.695
445.361
435.869
435.693
441.821
435.343
436.131
435.647
433.867
438.602
445.02
462.925
442.886
424.171
424.352
425.967
411.725
426.146
422.537
412.367
418.276
419.951
434.766
417.317
408.464
417.424
415.552
416.368
420.889
409.615
426.776
457.72
443.355
425.302
420.486
423.339
428.215
418.508
427.475
419.409
411.408
394.782
407.573
418.786
420.727
414.272
416.08
414.752
398.921
413.308
425.81
403.336
407.075
408.12
399.651
414.494
416.321
406.591
390.47
392.13
400.512
408.307
412.357
407.778
408.264
402.871
390.546
404.319
402.635
399.551
401.16
395.517
396.889
419.758
393.389
387.367
393.454
408.959
388.99
381.591
376.721
377.607
383.455
384.079
392.798
398.28
409.024
408.252
409.396
425.129
420.543
425.938
420.513
411.043
409.853
417.622
405.549
400.422
407.667
415.519
414.752
403.031
399.886
396.839
397.221
405.935
430.177
425.788
412.783
422.385
428.895
416.261
423.016
424.678
442.792
448.001
442.125
434.822
445.007
433.642
437.382
436.319
418.28
425.478
435.411
432.083
416.804
443.623
444.326
421.388
431.764
424.007
414.966
420.803
408.939
400.647
410.069
411.16
418.431
415.518
424.166
432.747
417.879
417.092
397.672
385.434
371.774
356.34
354.187
355.594
358.191
379.761
418.65
428.901
420.506
404.439
388.622
391.816
399.441
409.443
394.391
403.078
405.641
404.208
395.503
405.358
403.883
397.226
395.277
406.319
383.969
409.343
427.645
408.467
412.911
409.636
442.839
421.083
414.851
407.91
411.759
404.124
412.312
403.516
428.243
440.859
449.684
433.614
430.841
412.842
398.719
393.571
398.7
416.462
412.443
399.622
391.878
397.685
401.608
397.127
395.743
411.764
408.374
424.714
425.435
419.396
429.869
426.619
433.014
431.294
420.912
419.793
413.535
389.769
407.466
397.509
416.871
412.899
427.373
406.084
402.753
418.21
439.004
444.626
425.996
439.609
427.028
420.292
411.202
402.008
419.774
430.401
413.172
410.824
394.541
393.939
410.681
404.979
410.043
400.931
384.585
374.182
385.278
383.168
374.662
384.887
378.219
388.619
379.625
380.226
385.456
388.258
395.194
366.713
381.846
404.783
406.186
421.876
431.347
431.13
435.026
429.47
435.522
418.816
422.705
412.372
415.339
421.785
415.521
430.588
415.415
401.763
413.323
411.094
418.414
432.501
406.266
403.373
400.553
403.742
385.542
373.165
410.185
404.468
397.354
374.506
354.711
357.671
362.698
370.216
369.712
370.937
352.283
358.134
354.085
346.082
358.391
368.863
375.596
365.917
359.32
355.762
341.393
349.232
360.171
)
;

boundaryField
{
    sides
    {
        type            symmetry;
    }
    empty
    {
        type            empty;
    }
}


// ************************************************************************* //
