/*--------------------------------*- C++ -*----------------------------------*\
  =========                 |
  \\      /  F ield         | OpenFOAM: The Open Source CFD Toolbox
   \\    /   O peration     | Website:  https://openfoam.org
    \\  /    A nd           | Version:  7
     \\/     M anipulation  |
\*---------------------------------------------------------------------------*/
FoamFile
{
    version     2.0;
    format      ascii;
    class       volScalarField;
    location    "0.006";
    object      p;
}
// * * * * * * * * * * * * * * * * * * * * * * * * * * * * * * * * * * * * * //

dimensions      [1 -1 -2 0 0 0 0];

internalField   nonuniform List<scalar> 
500
(
0.912488
1.08481
1.20207
1.29465
1.3906
1.46967
1.54333
1.61123
1.6527
1.72093
1.77017
1.83324
1.86223
1.92972
1.97687
2.006
2.06753
2.10469
2.1421
2.18812
2.22424
2.27795
2.30515
2.3331
2.3697
2.39623
2.45106
2.47404
2.48126
2.52653
2.57321
2.59537
2.62125
2.65558
2.70066
2.72575
2.74589
2.77662
2.81393
2.81141
2.84094
2.87026
2.91413
2.93757
2.95551
2.96415
2.99012
3.01068
3.0473
3.08263
3.09773
3.09917
3.12854
3.17371
3.15484
3.19066
3.21161
3.22582
3.26289
3.26974
3.28215
3.29511
3.32521
3.33019
3.356
3.36001
3.37984
3.37577
3.40462
3.42728
3.43744
3.44379
3.45591
3.47934
3.50611
3.48664
3.51375
3.52393
3.55023
3.56061
3.58275
3.55683
3.57282
3.59622
3.60852
3.62218
3.62086
3.65622
3.64817
3.654
3.66389
3.66992
3.67608
3.66932
3.65795
3.67843
3.70797
3.68881
3.7188
3.70117
3.72063
3.71996
3.72283
3.73774
3.7252
3.74718
3.74181
3.72577
3.74148
3.73918
3.74657
3.7555
3.77079
3.76071
3.79564
3.76802
3.77218
3.76724
3.77711
3.76645
3.7757
3.76726
3.75116
3.76909
3.77209
3.76148
3.768
3.77001
3.79547
3.76672
3.7606
3.75986
3.77769
3.77964
3.77951
3.76105
3.75377
3.76316
3.76733
3.75569
3.74731
3.74418
3.77129
3.75777
3.77748
3.76123
3.77517
3.76459
3.78582
3.78101
3.76851
3.76635
3.76758
3.75668
3.76066
3.74968
3.74946
3.77051
3.7577
3.75878
3.74556
3.76248
3.75869
3.74244
3.7677
3.76549
3.77647
3.76666
3.7649
3.75605
3.73054
3.74431
3.75513
3.75365
3.75937
3.76049
3.75028
3.75455
3.75579
3.75409
3.77224
3.74783
3.7487
3.76237
3.74345
3.75526
3.77624
3.75155
3.75149
3.75793
3.74309
3.77734
3.75569
3.75578
3.76453
3.76041
3.75361
3.76855
3.74598
3.74633
3.7643
3.76095
3.74813
3.77166
3.74583
3.76619
3.74486
3.77083
3.76936
3.74823
3.77308
3.76761
3.78493
3.77884
3.784
3.77667
3.75292
3.7688
3.77531
3.77433
3.76458
3.76374
3.75608
3.76069
3.78445
3.7768
3.80604
3.77228
3.7779
3.79645
3.75016
3.78513
3.78195
3.76681
3.77334
3.79031
3.76932
3.7664
3.80536
3.772
3.78104
3.75794
3.76687
3.77462
3.75984
3.77321
3.76953
3.7678
3.75484
3.76896
3.73603
3.7388
3.75087
3.76652
3.75803
3.74239
3.7423
3.76305
3.75634
3.76578
3.7745
3.76328
3.74504
3.75256
3.76373
3.74504
3.75808
3.74274
3.7654
3.74348
3.75616
3.7416
3.74486
3.72501
3.74806
3.75504
3.75043
3.74135
3.74336
3.75659
3.73541
3.74728
3.75742
3.745
3.74102
3.76085
3.74278
3.70785
3.69184
3.74979
3.72648
3.73333
3.7695
3.7491
3.73997
3.7354
3.75303
3.75434
3.73946
3.70963
3.72154
3.7473
3.7415
3.73664
3.71171
3.7376
3.74008
3.74331
3.72762
3.73942
3.74048
3.7303
3.73285
3.731
3.75504
3.7302
3.73876
3.72982
3.72366
3.69628
3.7118
3.75199
3.71906
3.7216
3.73033
3.72603
3.73255
3.74774
3.72664
3.74587
3.73058
3.71231
3.72498
3.73133
3.71339
3.73837
3.73357
3.73431
3.71817
3.72894
3.74994
3.72356
3.72035
3.6959
3.74446
3.72548
3.71154
3.71396
3.71976
3.7287
3.7303
3.72286
3.73088
3.72393
3.7153
3.73023
3.73964
3.74558
3.74971
3.74355
3.75246
3.74823
3.74559
3.75167
3.72553
3.74974
3.73736
3.72867
3.75166
3.77245
3.7693
3.73341
3.74946
3.74607
3.74662
3.73281
3.7088
3.72425
3.73173
3.75599
3.7487
3.73973
3.72897
3.73342
3.7422
3.72324
3.74152
3.74855
3.74462
3.73633
3.74605
3.72933
3.74556
3.70328
3.67824
3.71753
3.72181
3.68981
3.71081
3.68875
3.68484
3.68544
3.6968
3.69237
3.6699
3.69706
3.68635
3.67509
3.65057
3.64536
3.6459
3.61108
3.60643
3.61838
3.59473
3.59196
3.58388
3.5918
3.58469
3.5487
3.54285
3.55402
3.5309
3.51475
3.49616
3.50504
3.48069
3.50004
3.49608
3.47968
3.44008
3.42872
3.42013
3.39703
3.39106
3.34699
3.33961
3.33087
3.30763
3.3004
3.27655
3.27758
3.25339
3.25344
3.21647
3.1967
3.16316
3.13358
3.11192
3.09066
3.07865
3.07499
3.04317
3.02388
2.99416
2.95986
2.95057
2.9102
2.87148
2.85995
2.8326
2.79497
2.78451
2.75469
2.72784
2.67617
2.66615
2.62808
2.60816
2.59347
2.5607
2.52385
2.49551
2.44175
2.41974
2.39007
2.35519
2.31759
2.27226
2.22878
2.21157
2.15117
2.09596
2.07036
2.05072
2.01471
1.94817
1.92186
1.84413
1.77267
1.73002
1.67995
1.61904
1.55296
1.4897
1.39857
1.31295
1.22511
1.10224
0.910857
)
;

boundaryField
{
    sides
    {
        type            calculated;
        value           nonuniform List<scalar> 2(0.910857 0.912488);
    }
    empty
    {
        type            empty;
    }
}


// ************************************************************************* //
