/*--------------------------------*- C++ -*----------------------------------*\
  =========                 |
  \\      /  F ield         | OpenFOAM: The Open Source CFD Toolbox
   \\    /   O peration     | Website:  https://openfoam.org
    \\  /    A nd           | Version:  7
     \\/     M anipulation  |
\*---------------------------------------------------------------------------*/
FoamFile
{
    version     2.0;
    format      ascii;
    class       volScalarField;
    location    "0.006";
    object      rhoMMean;
}
// * * * * * * * * * * * * * * * * * * * * * * * * * * * * * * * * * * * * * //

dimensions      [1 -3 0 0 0 0 0];

internalField   nonuniform List<scalar> 
1000
(
1.94531e-05
1.89989e-05
1.84245e-05
1.87688e-05
1.92524e-05
1.90075e-05
1.92531e-05
1.91741e-05
2.06956e-05
2.02013e-05
1.98611e-05
1.99198e-05
1.94041e-05
1.92504e-05
1.97468e-05
1.94649e-05
2.02089e-05
2.01599e-05
2.00314e-05
2.07373e-05
2.0108e-05
2.07464e-05
2.06526e-05
2.05573e-05
2.00415e-05
2.01237e-05
2.00566e-05
1.99874e-05
1.9153e-05
1.87941e-05
1.8215e-05
1.8216e-05
1.82048e-05
1.81759e-05
1.87608e-05
1.86366e-05
1.81402e-05
1.9302e-05
1.91388e-05
1.94998e-05
1.92504e-05
1.91911e-05
1.85215e-05
1.92477e-05
1.89425e-05
1.9827e-05
2.01343e-05
1.98832e-05
1.95469e-05
2.00425e-05
1.9852e-05
1.97404e-05
2.00291e-05
1.9977e-05
1.99473e-05
2.04993e-05
2.04437e-05
2.00022e-05
2.01853e-05
2.004e-05
2.01457e-05
1.94872e-05
1.96261e-05
1.9097e-05
1.8496e-05
1.92188e-05
1.8941e-05
1.85492e-05
1.91332e-05
1.90737e-05
1.9685e-05
1.99208e-05
1.95042e-05
1.92123e-05
1.95242e-05
2.04224e-05
2.05857e-05
2.07551e-05
2.05044e-05
2.0739e-05
2.11724e-05
2.11385e-05
2.15605e-05
2.0851e-05
2.00963e-05
1.99886e-05
2.06894e-05
1.96685e-05
1.91115e-05
1.8674e-05
1.943e-05
1.88296e-05
1.88344e-05
1.87056e-05
1.87054e-05
1.85963e-05
1.87052e-05
1.81348e-05
1.75826e-05
1.82051e-05
1.87951e-05
1.84452e-05
1.88178e-05
1.82111e-05
1.94556e-05
1.99826e-05
1.95897e-05
1.95217e-05
2.08171e-05
2.0441e-05
2.15233e-05
2.0751e-05
2.03784e-05
2.02108e-05
2.03507e-05
2.06351e-05
1.98518e-05
2.04579e-05
2.01149e-05
2.06861e-05
2.05267e-05
2.10707e-05
2.10341e-05
2.00113e-05
2.08655e-05
2.06417e-05
2.10701e-05
1.96935e-05
2.01546e-05
2.03277e-05
1.95164e-05
2.03994e-05
1.97408e-05
1.92969e-05
1.96032e-05
2.00589e-05
2.05051e-05
2.04579e-05
2.03608e-05
2.03457e-05
2.04774e-05
2.03858e-05
2.046e-05
1.95688e-05
1.93519e-05
1.88581e-05
1.91276e-05
1.85841e-05
1.8989e-05
1.93587e-05
1.88928e-05
1.92884e-05
1.90361e-05
1.94106e-05
1.97856e-05
1.91386e-05
1.93035e-05
1.92146e-05
1.8632e-05
1.86277e-05
1.86915e-05
1.82855e-05
1.8811e-05
1.85043e-05
1.9542e-05
1.96747e-05
2.00793e-05
1.96927e-05
1.94393e-05
1.98468e-05
1.92886e-05
2.03124e-05
2.00028e-05
1.97741e-05
1.96459e-05
2.0325e-05
1.97321e-05
1.88732e-05
1.89123e-05
1.9938e-05
1.98586e-05
1.93258e-05
1.96902e-05
1.87618e-05
1.9089e-05
1.93403e-05
2.03718e-05
1.95804e-05
1.97923e-05
1.95354e-05
1.93434e-05
1.91627e-05
1.90425e-05
1.93227e-05
1.9361e-05
1.97968e-05
1.89474e-05
1.95015e-05
1.92818e-05
2.0386e-05
1.94597e-05
1.92239e-05
1.93053e-05
1.99266e-05
1.96848e-05
1.91452e-05
1.93105e-05
1.96214e-05
1.94657e-05
1.9779e-05
1.95505e-05
1.96276e-05
1.9878e-05
2.09736e-05
2.05966e-05
2.02831e-05
2.00066e-05
2.04005e-05
2.00448e-05
2.01221e-05
1.99723e-05
1.976e-05
1.91555e-05
1.97352e-05
1.91993e-05
1.9988e-05
2.07799e-05
2.03242e-05
2.03672e-05
2.03323e-05
2.00628e-05
2.02372e-05
2.01899e-05
1.95151e-05
1.9579e-05
1.94537e-05
1.85709e-05
1.94515e-05
1.93636e-05
2.00264e-05
1.97189e-05
1.98553e-05
1.99748e-05
1.94789e-05
2.05111e-05
1.96335e-05
1.99841e-05
2.02862e-05
2.00752e-05
1.91838e-05
1.97974e-05
2.00965e-05
1.9381e-05
1.89902e-05
1.92355e-05
1.92159e-05
1.99229e-05
1.9784e-05
1.97486e-05
1.88676e-05
1.92713e-05
1.90807e-05
1.89272e-05
1.92407e-05
1.88713e-05
1.99805e-05
1.91789e-05
1.91783e-05
1.99202e-05
1.84006e-05
1.83586e-05
1.81722e-05
1.8879e-05
1.90106e-05
1.88614e-05
1.84022e-05
1.82466e-05
1.83911e-05
1.84514e-05
1.91353e-05
1.89699e-05
1.84374e-05
1.85248e-05
1.82638e-05
1.80354e-05
1.88193e-05
1.91136e-05
1.94517e-05
1.93132e-05
1.86932e-05
1.83028e-05
1.93378e-05
2.02564e-05
1.99545e-05
1.97168e-05
1.96842e-05
1.98884e-05
2.03616e-05
1.9902e-05
1.95503e-05
1.90133e-05
1.95492e-05
1.96668e-05
1.90263e-05
1.87907e-05
1.88815e-05
1.91696e-05
1.9742e-05
1.93723e-05
1.90042e-05
1.97668e-05
1.90102e-05
1.9616e-05
1.92913e-05
1.91911e-05
1.96895e-05
1.87002e-05
1.9897e-05
1.95858e-05
1.91121e-05
2.00971e-05
1.96183e-05
1.9442e-05
1.92526e-05
1.84921e-05
1.84851e-05
1.87862e-05
1.86233e-05
1.77965e-05
1.86165e-05
1.85058e-05
1.84479e-05
1.83751e-05
1.76942e-05
1.76704e-05
1.80269e-05
1.8252e-05
1.72542e-05
1.76535e-05
1.80209e-05
1.81767e-05
1.80664e-05
1.80156e-05
1.90497e-05
1.90222e-05
1.91607e-05
1.89305e-05
1.91782e-05
1.92328e-05
1.96726e-05
1.90063e-05
1.86732e-05
1.84202e-05
1.85266e-05
1.80916e-05
1.75908e-05
1.79608e-05
1.8186e-05
1.83549e-05
1.85727e-05
1.83466e-05
1.81484e-05
1.72215e-05
1.75268e-05
1.77589e-05
1.77285e-05
1.73683e-05
1.74402e-05
1.78388e-05
1.84657e-05
1.82338e-05
1.80178e-05
1.75853e-05
1.73519e-05
1.73038e-05
1.69252e-05
1.7024e-05
1.76035e-05
1.76497e-05
1.69961e-05
1.66348e-05
1.68793e-05
1.77024e-05
1.78444e-05
1.73199e-05
1.72521e-05
1.71643e-05
1.74024e-05
1.77215e-05
1.66735e-05
1.6741e-05
1.64707e-05
1.64445e-05
1.6741e-05
1.65129e-05
1.69545e-05
1.71883e-05
1.71488e-05
1.65662e-05
1.70678e-05
1.66997e-05
1.64081e-05
1.62614e-05
1.67819e-05
1.68748e-05
1.62033e-05
1.59815e-05
1.68078e-05
1.6163e-05
1.56614e-05
1.56955e-05
1.62388e-05
1.59987e-05
1.60869e-05
1.5883e-05
1.53634e-05
1.6251e-05
1.52778e-05
1.53355e-05
1.62324e-05
1.65354e-05
1.57211e-05
1.53797e-05
1.5482e-05
1.56331e-05
1.54779e-05
1.44328e-05
1.46622e-05
1.48905e-05
1.48961e-05
1.49188e-05
1.50364e-05
1.46107e-05
1.47572e-05
1.49926e-05
1.44491e-05
1.47634e-05
1.48947e-05
1.49924e-05
1.47546e-05
1.46564e-05
1.44282e-05
1.50763e-05
1.46558e-05
1.45324e-05
1.43491e-05
1.44278e-05
1.37632e-05
1.36474e-05
1.39998e-05
1.39345e-05
1.43313e-05
1.37935e-05
1.41968e-05
1.46463e-05
1.40763e-05
1.35509e-05
1.42619e-05
1.4147e-05
1.40513e-05
1.37964e-05
1.30535e-05
1.30028e-05
1.32145e-05
1.31045e-05
1.32635e-05
1.42608e-05
1.45063e-05
1.35571e-05
1.39734e-05
1.32829e-05
1.3051e-05
1.29968e-05
1.31953e-05
1.32366e-05
1.31194e-05
1.29656e-05
1.32546e-05
1.28838e-05
1.27827e-05
1.36123e-05
1.28838e-05
1.27995e-05
1.29489e-05
1.33428e-05
1.28578e-05
1.25627e-05
1.23936e-05
1.25544e-05
1.26321e-05
1.29121e-05
1.24432e-05
1.20357e-05
1.24736e-05
1.25502e-05
1.22504e-05
1.21908e-05
1.18782e-05
1.19406e-05
1.13756e-05
1.13739e-05
1.19708e-05
1.20776e-05
1.19565e-05
1.1799e-05
1.20788e-05
1.1817e-05
1.16742e-05
1.20917e-05
1.13547e-05
1.16169e-05
1.16037e-05
1.11838e-05
1.14192e-05
1.16169e-05
1.18197e-05
1.17533e-05
1.18461e-05
1.11224e-05
1.12482e-05
1.09785e-05
1.13662e-05
1.09091e-05
1.10449e-05
1.06683e-05
1.1148e-05
1.11201e-05
1.13764e-05
1.11302e-05
1.12092e-05
1.08225e-05
1.12774e-05
1.08184e-05
1.10424e-05
1.12038e-05
1.11367e-05
1.10887e-05
1.09928e-05
1.07289e-05
1.06508e-05
1.07409e-05
1.05508e-05
1.05433e-05
1.113e-05
1.07518e-05
1.04298e-05
1.08376e-05
1.0225e-05
9.87079e-06
1.01721e-05
1.02957e-05
1.02862e-05
1.00031e-05
9.66425e-06
9.92387e-06
9.73671e-06
9.6472e-06
9.77217e-06
9.54335e-06
9.48445e-06
1.05154e-05
9.88164e-06
9.46895e-06
9.23645e-06
9.78883e-06
9.64061e-06
9.63383e-06
9.45093e-06
9.71695e-06
9.72354e-06
9.15333e-06
8.7885e-06
9.02662e-06
9.00492e-06
8.97372e-06
8.96404e-06
8.62885e-06
9.11516e-06
8.94466e-06
8.59378e-06
8.72766e-06
8.51202e-06
8.47579e-06
8.86929e-06
8.40584e-06
8.22042e-06
8.45661e-06
8.36981e-06
8.04256e-06
8.44479e-06
8.58874e-06
8.77106e-06
7.92166e-06
8.03036e-06
8.18691e-06
8.4816e-06
7.94452e-06
7.99936e-06
8.43374e-06
7.98657e-06
7.76531e-06
8.02106e-06
7.6632e-06
7.75058e-06
7.65061e-06
7.29352e-06
7.30224e-06
7.41888e-06
8.00866e-06
7.86857e-06
8.08674e-06
7.82052e-06
7.82905e-06
7.54462e-06
7.71822e-06
7.77771e-06
7.65487e-06
7.58434e-06
7.75581e-06
7.83448e-06
7.74981e-06
7.60275e-06
7.80599e-06
7.69304e-06
7.48166e-06
7.33441e-06
7.63743e-06
7.70156e-06
7.1052e-06
7.49541e-06
7.24218e-06
7.26756e-06
7.60798e-06
7.54172e-06
7.70195e-06
7.49658e-06
7.73973e-06
7.72966e-06
7.39137e-06
7.12981e-06
7.16604e-06
7.01801e-06
7.26291e-06
7.0587e-06
7.27357e-06
7.03874e-06
7.12826e-06
7.36754e-06
7.20982e-06
7.46151e-06
7.37703e-06
7.33479e-06
7.43632e-06
7.72016e-06
7.82072e-06
7.96991e-06
7.90287e-06
7.80967e-06
8.05826e-06
7.44756e-06
7.60062e-06
7.15325e-06
7.49309e-06
7.53029e-06
7.23908e-06
6.72874e-06
7.12128e-06
7.19626e-06
6.96086e-06
6.75936e-06
7.00968e-06
7.07943e-06
6.82097e-06
6.90699e-06
6.77699e-06
7.0525e-06
7.35552e-06
7.13291e-06
6.76032e-06
6.79423e-06
6.73824e-06
6.355e-06
6.26994e-06
6.60029e-06
6.3519e-06
6.57297e-06
6.67275e-06
6.88936e-06
6.70782e-06
6.85197e-06
6.98604e-06
6.56541e-06
7.00542e-06
6.89324e-06
7.17398e-06
6.66267e-06
7.09958e-06
7.28229e-06
6.81186e-06
6.83996e-06
7.01104e-06
7.2974e-06
6.64795e-06
6.82756e-06
6.63226e-06
6.50632e-06
6.54139e-06
6.89963e-06
7.34119e-06
7.16003e-06
6.79946e-06
7.21137e-06
7.12787e-06
6.8386e-06
6.96551e-06
7.06645e-06
6.61211e-06
6.38522e-06
6.56929e-06
6.93489e-06
6.76711e-06
6.67372e-06
6.58828e-06
6.66364e-06
6.89537e-06
6.72739e-06
6.29881e-06
6.08879e-06
6.58556e-06
6.97713e-06
6.58672e-06
6.44974e-06
6.10371e-06
5.78693e-06
6.49799e-06
6.89866e-06
6.76769e-06
6.67488e-06
6.52996e-06
6.74909e-06
6.38406e-06
6.55263e-06
6.82736e-06
7.09338e-06
7.09493e-06
7.20576e-06
7.18735e-06
6.98663e-06
6.65628e-06
6.90409e-06
6.85856e-06
6.80857e-06
6.91203e-06
6.93722e-06
6.62586e-06
6.64349e-06
6.79811e-06
6.83937e-06
6.22519e-06
6.38658e-06
6.89924e-06
6.78842e-06
6.63264e-06
6.05662e-06
6.25018e-06
6.60901e-06
6.77079e-06
6.72855e-06
6.55127e-06
6.74754e-06
7.04649e-06
6.64698e-06
6.30443e-06
6.41138e-06
6.06166e-06
6.32245e-06
6.50399e-06
6.23003e-06
6.262e-06
5.84544e-06
6.22538e-06
6.14013e-06
5.89019e-06
6.16125e-06
5.70884e-06
5.81676e-06
6.05624e-06
5.81076e-06
6.12017e-06
6.02834e-06
5.98377e-06
6.07058e-06
6.02601e-06
6.13199e-06
5.66544e-06
5.83149e-06
5.87992e-06
6.06224e-06
5.71175e-06
5.93844e-06
6.01497e-06
5.47789e-06
5.54435e-06
5.76251e-06
5.16228e-06
5.09349e-06
5.63444e-06
5.75573e-06
5.76406e-06
5.09039e-06
5.03983e-06
5.40194e-06
5.59686e-06
5.55249e-06
5.68172e-06
5.8187e-06
5.22331e-06
5.64684e-06
5.37017e-06
5.26341e-06
5.20083e-06
5.49494e-06
5.37385e-06
5.29461e-06
5.25876e-06
4.93229e-06
5.00863e-06
5.28414e-06
5.56644e-06
5.50463e-06
5.53098e-06
5.56101e-06
5.26574e-06
5.28182e-06
5.13806e-06
5.4932e-06
5.19134e-06
5.12198e-06
5.17351e-06
5.33316e-06
5.54009e-06
5.94832e-06
5.78324e-06
5.94851e-06
5.78227e-06
5.77879e-06
6.04171e-06
5.65963e-06
5.44089e-06
5.2762e-06
5.41318e-06
5.59472e-06
5.53156e-06
5.65091e-06
5.41822e-06
5.54726e-06
5.55927e-06
5.77007e-06
5.51529e-06
5.18204e-06
5.17913e-06
5.15511e-06
5.08923e-06
5.28608e-06
5.33161e-06
5.35699e-06
5.16731e-06
5.21885e-06
5.18959e-06
5.27891e-06
5.22311e-06
4.9507e-06
5.26632e-06
5.37947e-06
5.42074e-06
5.12275e-06
5.56217e-06
5.06463e-06
5.41299e-06
5.34053e-06
5.10802e-06
5.1336e-06
5.08051e-06
5.03673e-06
5.48274e-06
5.18456e-06
5.67358e-06
5.67281e-06
5.37288e-06
5.33994e-06
5.56295e-06
5.55055e-06
5.54319e-06
5.28124e-06
5.44554e-06
5.89698e-06
5.55055e-06
5.48293e-06
5.46976e-06
5.40834e-06
5.27329e-06
5.36533e-06
5.46821e-06
5.27368e-06
5.59589e-06
5.38451e-06
5.32793e-06
5.21459e-06
5.60868e-06
5.44844e-06
5.80746e-06
5.54687e-06
5.49882e-06
5.70981e-06
5.44554e-06
5.60131e-06
5.45464e-06
4.96891e-06
5.05939e-06
5.50192e-06
5.7846e-06
5.33471e-06
4.93656e-06
5.16983e-06
5.28473e-06
4.84084e-06
4.85421e-06
5.32444e-06
5.44457e-06
5.53854e-06
5.92604e-06
5.74682e-06
5.53912e-06
5.78964e-06
5.95975e-06
6.02059e-06
5.72338e-06
5.87954e-06
5.78712e-06
5.72919e-06
5.66389e-06
5.72028e-06
5.60151e-06
5.45794e-06
5.68753e-06
5.53292e-06
5.35738e-06
5.81056e-06
6.08278e-06
5.75922e-06
5.51413e-06
5.50328e-06
5.42868e-06
5.25159e-06
5.37908e-06
5.27271e-06
5.1026e-06
5.00088e-06
5.07625e-06
4.92454e-06
4.99681e-06
5.32483e-06
5.13825e-06
5.29248e-06
5.19579e-06
5.6327e-06
5.91538e-06
5.26903e-06
5.36939e-06
5.22582e-06
5.22524e-06
5.70671e-06
5.62088e-06
5.91538e-06
5.45794e-06
5.53176e-06
5.45348e-06
5.03944e-06
5.10066e-06
6.09053e-06
6.00722e-06
6.29591e-06
6.31238e-06
6.09266e-06
6.15893e-06
6.32516e-06
6.20949e-06
6.40983e-06
6.15776e-06
6.26742e-06
6.47881e-06
5.89949e-06
6.23197e-06
5.94812e-06
5.64742e-06
6.05934e-06
6.18624e-06
6.34977e-06
6.25076e-06
5.78092e-06
)
;

boundaryField
{
    sides
    {
        type            symmetry;
    }
    empty
    {
        type            empty;
    }
}


// ************************************************************************* //
