/*--------------------------------*- C++ -*----------------------------------*\
  =========                 |
  \\      /  F ield         | OpenFOAM: The Open Source CFD Toolbox
   \\    /   O peration     | Website:  https://openfoam.org
    \\  /    A nd           | Version:  7
     \\/     M anipulation  |
\*---------------------------------------------------------------------------*/
FoamFile
{
    version     2.0;
    format      ascii;
    class       volScalarField;
    location    "0.006";
    object      rhoNMean;
}
// * * * * * * * * * * * * * * * * * * * * * * * * * * * * * * * * * * * * * //

dimensions      [0 -3 0 0 0 0 0];

internalField   nonuniform List<scalar> 
1000
(
4.26109e+20
4.30651e+20
4.27976e+20
4.27996e+20
4.2451e+20
4.26192e+20
4.24327e+20
4.23841e+20
4.23466e+20
4.21577e+20
4.21367e+20
4.25266e+20
4.22966e+20
4.19723e+20
4.18609e+20
4.17988e+20
4.19791e+20
4.20358e+20
4.20422e+20
4.20077e+20
4.19672e+20
4.21594e+20
4.21964e+20
4.20131e+20
4.19477e+20
4.20467e+20
4.23361e+20
4.19377e+20
4.20381e+20
4.22574e+20
4.23946e+20
4.23627e+20
4.1967e+20
4.20336e+20
4.22977e+20
4.2478e+20
4.23628e+20
4.22607e+20
4.20962e+20
4.18735e+20
4.1766e+20
4.19277e+20
4.17336e+20
4.18266e+20
4.19018e+20
4.20942e+20
4.19631e+20
4.20189e+20
4.22388e+20
4.25248e+20
4.20841e+20
4.22439e+20
4.22535e+20
4.23023e+20
4.24032e+20
4.19272e+20
4.2329e+20
4.24247e+20
4.22811e+20
4.21052e+20
4.19637e+20
4.20194e+20
4.2074e+20
4.18918e+20
4.16095e+20
4.15718e+20
4.12581e+20
4.15471e+20
4.1951e+20
4.20351e+20
4.20699e+20
4.20068e+20
4.21307e+20
4.2203e+20
4.24761e+20
4.23741e+20
4.24189e+20
4.19032e+20
4.20292e+20
4.23681e+20
4.22019e+20
4.19138e+20
4.1844e+20
4.15927e+20
4.19595e+20
4.19727e+20
4.19906e+20
4.20137e+20
4.20267e+20
4.21026e+20
4.22867e+20
4.28023e+20
4.26989e+20
4.24788e+20
4.25253e+20
4.26571e+20
4.23233e+20
4.25178e+20
4.23867e+20
4.23624e+20
4.24617e+20
4.26635e+20
4.25881e+20
4.26146e+20
4.26434e+20
4.22804e+20
4.23718e+20
4.24438e+20
4.25125e+20
4.2465e+20
4.26354e+20
4.26193e+20
4.25072e+20
4.25e+20
4.23623e+20
4.20415e+20
4.2307e+20
4.2185e+20
4.22559e+20
4.22576e+20
4.22023e+20
4.22151e+20
4.22495e+20
4.23685e+20
4.23838e+20
4.24576e+20
4.23075e+20
4.22513e+20
4.23234e+20
4.22984e+20
4.25076e+20
4.25296e+20
4.26916e+20
4.28213e+20
4.29844e+20
4.29326e+20
4.27515e+20
4.27442e+20
4.24778e+20
4.24105e+20
4.25415e+20
4.25255e+20
4.24004e+20
4.23009e+20
4.23937e+20
4.24884e+20
4.24634e+20
4.25347e+20
4.23894e+20
4.21708e+20
4.22554e+20
4.19802e+20
4.19601e+20
4.19893e+20
4.21269e+20
4.19935e+20
4.20013e+20
4.17396e+20
4.15896e+20
4.15244e+20
4.17116e+20
4.18329e+20
4.17414e+20
4.17614e+20
4.16053e+20
4.15409e+20
4.19812e+20
4.14204e+20
4.16524e+20
4.16606e+20
4.16582e+20
4.16142e+20
4.17673e+20
4.17632e+20
4.19685e+20
4.1704e+20
4.14633e+20
4.15936e+20
4.20096e+20
4.18474e+20
4.17707e+20
4.18983e+20
4.17331e+20
4.16613e+20
4.18034e+20
4.18767e+20
4.18132e+20
4.18516e+20
4.20305e+20
4.23845e+20
4.22466e+20
4.23247e+20
4.22181e+20
4.21874e+20
4.18483e+20
4.19106e+20
4.20396e+20
4.20935e+20
4.23482e+20
4.22432e+20
4.20607e+20
4.19917e+20
4.21626e+20
4.19601e+20
4.20453e+20
4.19922e+20
4.1736e+20
4.18649e+20
4.17142e+20
4.16015e+20
4.16898e+20
4.15291e+20
4.16103e+20
4.15977e+20
4.12655e+20
4.12859e+20
4.12501e+20
4.12794e+20
4.1267e+20
4.10732e+20
4.08723e+20
4.06522e+20
4.0487e+20
4.04183e+20
4.0521e+20
4.02294e+20
4.02418e+20
4.03033e+20
4.033e+20
4.03889e+20
4.0227e+20
4.00274e+20
4.00875e+20
4.02304e+20
4.04464e+20
4.03446e+20
4.00288e+20
4.00607e+20
3.99077e+20
4.02235e+20
4.00896e+20
4.00033e+20
4.00943e+20
4.00013e+20
3.98729e+20
4.01271e+20
4.00821e+20
4.0134e+20
4.0199e+20
4.01199e+20
4.00056e+20
4.0154e+20
4.04018e+20
4.04075e+20
4.02416e+20
4.02085e+20
4.0106e+20
4.03791e+20
3.98585e+20
3.99148e+20
3.96966e+20
3.97824e+20
4.00444e+20
4.00003e+20
3.96122e+20
3.91332e+20
3.91201e+20
3.93317e+20
3.96086e+20
3.93761e+20
3.93693e+20
3.94511e+20
3.93982e+20
3.97981e+20
3.9871e+20
3.9409e+20
3.96936e+20
3.95978e+20
3.9749e+20
3.94949e+20
3.93414e+20
3.91099e+20
3.88845e+20
3.8895e+20
3.89831e+20
3.90802e+20
3.89093e+20
3.88513e+20
3.87687e+20
3.9089e+20
3.91138e+20
3.9053e+20
3.88942e+20
3.90931e+20
3.89396e+20
3.88766e+20
3.87098e+20
3.84806e+20
3.86179e+20
3.84146e+20
3.86615e+20
3.8518e+20
3.79813e+20
3.81753e+20
3.81932e+20
3.82006e+20
3.81715e+20
3.80586e+20
3.79693e+20
3.78344e+20
3.76859e+20
3.77233e+20
3.744e+20
3.73706e+20
3.72684e+20
3.72087e+20
3.73354e+20
3.74198e+20
3.71041e+20
3.72647e+20
3.67962e+20
3.70025e+20
3.70609e+20
3.70862e+20
3.70549e+20
3.69619e+20
3.68148e+20
3.66936e+20
3.64513e+20
3.67159e+20
3.65575e+20
3.62343e+20
3.62076e+20
3.62695e+20
3.60851e+20
3.62906e+20
3.62396e+20
3.62485e+20
3.6188e+20
3.61665e+20
3.62404e+20
3.61028e+20
3.60806e+20
3.58955e+20
3.58455e+20
3.58128e+20
3.57758e+20
3.57522e+20
3.60175e+20
3.52863e+20
3.52625e+20
3.50772e+20
3.5312e+20
3.54249e+20
3.51701e+20
3.50212e+20
3.50004e+20
3.50424e+20
3.48e+20
3.48187e+20
3.47095e+20
3.45066e+20
3.43111e+20
3.42566e+20
3.42172e+20
3.41204e+20
3.39756e+20
3.39034e+20
3.38223e+20
3.37142e+20
3.34377e+20
3.35845e+20
3.36935e+20
3.36121e+20
3.37319e+20
3.32714e+20
3.34783e+20
3.34196e+20
3.34333e+20
3.31809e+20
3.28006e+20
3.28128e+20
3.26214e+20
3.29464e+20
3.26447e+20
3.29363e+20
3.26183e+20
3.25339e+20
3.24814e+20
3.2452e+20
3.23084e+20
3.21841e+20
3.20363e+20
3.20966e+20
3.17635e+20
3.1582e+20
3.17632e+20
3.16949e+20
3.16368e+20
3.1766e+20
3.15641e+20
3.13472e+20
3.11315e+20
3.11486e+20
3.11687e+20
3.10981e+20
3.10386e+20
3.09487e+20
3.0689e+20
3.03055e+20
3.03935e+20
3.02428e+20
3.02931e+20
3.04417e+20
3.01471e+20
3.01618e+20
3.00918e+20
2.99079e+20
2.98887e+20
2.96771e+20
2.95676e+20
2.93119e+20
2.91545e+20
2.92619e+20
2.90868e+20
2.9065e+20
2.87768e+20
2.87717e+20
2.89347e+20
2.90982e+20
2.89801e+20
2.86949e+20
2.85454e+20
2.83381e+20
2.83985e+20
2.82443e+20
2.80905e+20
2.80657e+20
2.79709e+20
2.79181e+20
2.77398e+20
2.7635e+20
2.76188e+20
2.75437e+20
2.75385e+20
2.72094e+20
2.71607e+20
2.71167e+20
2.68764e+20
2.68119e+20
2.67924e+20
2.65731e+20
2.65787e+20
2.66236e+20
2.67708e+20
2.66266e+20
2.62663e+20
2.63946e+20
2.59263e+20
2.5647e+20
2.56528e+20
2.56053e+20
2.53937e+20
2.52391e+20
2.51583e+20
2.52144e+20
2.52821e+20
2.49477e+20
2.4821e+20
2.46904e+20
2.45668e+20
2.43109e+20
2.42542e+20
2.43347e+20
2.39707e+20
2.38996e+20
2.38e+20
2.37226e+20
2.36439e+20
2.35209e+20
2.32997e+20
2.34954e+20
2.33792e+20
2.31788e+20
2.31655e+20
2.31762e+20
2.3015e+20
2.26898e+20
2.27411e+20
2.25963e+20
2.23858e+20
2.23913e+20
2.22979e+20
2.21331e+20
2.195e+20
2.19398e+20
2.16993e+20
2.16921e+20
2.1484e+20
2.14234e+20
2.12066e+20
2.11497e+20
2.11857e+20
2.09273e+20
2.09856e+20
2.10819e+20
2.09607e+20
2.13633e+20
2.1209e+20
2.12415e+20
2.10709e+20
2.11536e+20
2.10348e+20
2.10541e+20
2.10845e+20
2.1026e+20
2.09411e+20
2.10247e+20
2.09351e+20
2.0994e+20
2.09045e+20
2.10025e+20
2.09462e+20
2.10102e+20
2.08537e+20
2.11615e+20
2.1325e+20
2.10287e+20
2.10629e+20
2.13339e+20
2.10609e+20
2.09944e+20
2.1205e+20
2.10109e+20
2.09427e+20
2.08805e+20
2.07977e+20
2.08835e+20
2.08954e+20
2.08547e+20
2.10122e+20
2.08733e+20
2.08175e+20
2.08105e+20
2.08393e+20
2.08217e+20
2.06914e+20
2.09149e+20
2.07676e+20
2.06833e+20
2.08122e+20
2.08454e+20
2.09106e+20
2.09935e+20
2.09461e+20
2.0899e+20
2.0879e+20
2.08677e+20
2.0861e+20
2.09057e+20
2.08711e+20
2.07222e+20
2.07156e+20
2.0775e+20
2.09088e+20
2.06225e+20
2.05827e+20
2.0653e+20
2.05429e+20
2.0836e+20
2.09424e+20
2.09654e+20
2.08012e+20
2.0701e+20
2.05943e+20
2.0695e+20
2.06021e+20
2.05965e+20
2.05323e+20
2.05721e+20
2.08141e+20
2.06186e+20
2.05274e+20
2.04758e+20
2.06808e+20
2.07947e+20
2.08284e+20
2.0745e+20
2.07143e+20
2.07064e+20
2.07512e+20
2.09174e+20
2.08357e+20
2.08322e+20
2.065e+20
2.06842e+20
2.0507e+20
2.03846e+20
2.0409e+20
2.03451e+20
2.01433e+20
2.00718e+20
2.02655e+20
2.0298e+20
2.02097e+20
2.03141e+20
2.04067e+20
2.03368e+20
2.01788e+20
2.03921e+20
2.0503e+20
2.05486e+20
2.03401e+20
2.03306e+20
2.02551e+20
2.03369e+20
2.05158e+20
2.06114e+20
2.05127e+20
2.05397e+20
2.06674e+20
2.06611e+20
2.0335e+20
2.05761e+20
2.08099e+20
2.06518e+20
2.04861e+20
2.04399e+20
2.04149e+20
2.08944e+20
2.07321e+20
2.06678e+20
2.03391e+20
2.04333e+20
2.03601e+20
2.0234e+20
2.03853e+20
2.03416e+20
2.04467e+20
2.03853e+20
2.03341e+20
2.01877e+20
2.04524e+20
2.04146e+20
2.03539e+20
2.03045e+20
2.04178e+20
2.02764e+20
1.99108e+20
2.00819e+20
2.02472e+20
2.03268e+20
2.02402e+20
2.0345e+20
2.04365e+20
2.03204e+20
2.03928e+20
2.04691e+20
2.0169e+20
2.03745e+20
2.02351e+20
2.02253e+20
2.00382e+20
2.02384e+20
2.01305e+20
2.01651e+20
2.01503e+20
2.02427e+20
2.03172e+20
2.02415e+20
2.02538e+20
2.02267e+20
2.02486e+20
2.03254e+20
2.02989e+20
2.02189e+20
2.02572e+20
2.00627e+20
2.01504e+20
2.01379e+20
1.99511e+20
1.98903e+20
2.00253e+20
2.00767e+20
2.0018e+20
1.99932e+20
1.99416e+20
1.9973e+20
1.99411e+20
1.99962e+20
2.00696e+20
1.99474e+20
1.99561e+20
1.99574e+20
2.00538e+20
2.02085e+20
2.00871e+20
2.0256e+20
2.02972e+20
2.02425e+20
2.02438e+20
1.99213e+20
1.9845e+20
1.96201e+20
1.9607e+20
1.9698e+20
1.98968e+20
1.99342e+20
1.96356e+20
1.95467e+20
1.97498e+20
1.97786e+20
1.96285e+20
1.98012e+20
1.96365e+20
1.97064e+20
1.94433e+20
1.9539e+20
1.94743e+20
1.95319e+20
1.96623e+20
1.96038e+20
1.96532e+20
1.96289e+20
1.9433e+20
1.95153e+20
1.92743e+20
1.93703e+20
1.93372e+20
1.94109e+20
1.95953e+20
1.93289e+20
1.9457e+20
1.97825e+20
1.96445e+20
1.92535e+20
1.9499e+20
1.9583e+20
1.93195e+20
1.94334e+20
1.95309e+20
1.94298e+20
1.91751e+20
1.91969e+20
1.90793e+20
1.92729e+20
1.90827e+20
1.9085e+20
1.88084e+20
1.87929e+20
1.87612e+20
1.86503e+20
1.87133e+20
1.87192e+20
1.86896e+20
1.85984e+20
1.87252e+20
1.86668e+20
1.8678e+20
1.86517e+20
1.85043e+20
1.84211e+20
1.84e+20
1.82589e+20
1.81863e+20
1.80677e+20
1.80484e+20
1.78769e+20
1.77261e+20
1.76467e+20
1.76583e+20
1.75897e+20
1.7558e+20
1.72414e+20
1.74499e+20
1.7563e+20
1.76077e+20
1.76164e+20
1.7467e+20
1.74449e+20
1.74246e+20
1.73051e+20
1.73383e+20
1.69826e+20
1.71659e+20
1.70496e+20
1.71926e+20
1.71795e+20
1.71635e+20
1.71364e+20
1.72305e+20
1.70071e+20
1.70066e+20
1.70164e+20
1.68964e+20
1.68093e+20
1.69424e+20
1.6788e+20
1.66614e+20
1.66126e+20
1.65457e+20
1.64262e+20
1.64077e+20
1.62995e+20
1.64013e+20
1.62816e+20
1.60149e+20
1.60056e+20
1.59483e+20
1.59291e+20
1.60616e+20
1.61298e+20
1.62055e+20
1.61795e+20
1.60091e+20
1.58711e+20
1.60856e+20
1.58779e+20
1.57243e+20
1.56374e+20
1.54933e+20
1.55532e+20
1.54854e+20
1.53313e+20
1.55067e+20
1.53202e+20
1.51486e+20
1.51668e+20
1.51481e+20
1.47729e+20
1.48394e+20
1.48473e+20
1.48697e+20
1.47913e+20
1.48502e+20
1.48701e+20
1.47138e+20
1.4772e+20
1.4761e+20
1.4609e+20
1.46829e+20
1.44845e+20
1.45234e+20
1.44912e+20
1.46336e+20
1.45863e+20
1.4393e+20
1.41577e+20
1.41176e+20
1.41244e+20
1.40683e+20
1.40671e+20
1.41123e+20
1.38922e+20
1.40593e+20
1.39693e+20
1.4005e+20
1.39607e+20
1.41671e+20
1.40346e+20
1.40904e+20
1.40363e+20
1.39191e+20
1.40496e+20
1.38782e+20
1.38116e+20
1.36743e+20
1.3662e+20
1.36057e+20
1.37224e+20
1.3585e+20
1.33337e+20
1.34849e+20
1.3462e+20
1.32686e+20
1.32219e+20
1.32399e+20
1.32036e+20
1.3143e+20
1.30481e+20
1.29426e+20
1.28125e+20
1.28084e+20
1.28944e+20
1.28742e+20
1.24046e+20
1.2234e+20
1.25294e+20
1.23432e+20
1.23641e+20
1.24615e+20
1.22539e+20
1.21113e+20
1.2221e+20
1.22478e+20
1.23284e+20
1.2304e+20
1.19839e+20
1.18244e+20
1.19767e+20
1.22346e+20
1.22131e+20
1.22259e+20
1.23112e+20
1.21923e+20
1.22995e+20
1.23447e+20
1.23043e+20
1.23538e+20
1.22666e+20
1.2304e+20
1.23103e+20
1.24114e+20
1.24618e+20
1.25527e+20
1.22366e+20
1.19638e+20
1.21923e+20
1.22579e+20
1.22131e+20
1.21544e+20
1.22217e+20
1.2169e+20
1.21678e+20
1.19417e+20
1.20534e+20
1.21149e+20
1.19641e+20
1.22151e+20
1.2243e+20
1.2158e+20
1.20209e+20
1.19209e+20
1.18905e+20
1.22407e+20
1.20956e+20
1.21124e+20
1.20755e+20
1.22549e+20
1.22155e+20
1.22249e+20
1.23469e+20
1.22494e+20
1.23532e+20
1.2244e+20
1.21732e+20
1.24197e+20
1.23728e+20
1.24551e+20
1.22751e+20
1.24516e+20
1.22478e+20
1.22942e+20
1.22489e+20
1.23203e+20
1.21242e+20
1.23904e+20
1.21804e+20
1.23277e+20
1.23929e+20
1.21274e+20
1.21665e+20
1.21145e+20
1.20254e+20
1.22212e+20
1.2234e+20
1.22804e+20
1.20302e+20
1.20742e+20
1.22677e+20
1.23254e+20
1.23314e+20
1.22107e+20
1.23379e+20
1.22996e+20
1.22994e+20
1.23156e+20
1.22701e+20
1.24936e+20
1.24514e+20
1.24171e+20
1.23323e+20
1.22057e+20
1.22689e+20
1.25834e+20
1.25141e+20
1.25755e+20
1.23549e+20
1.24135e+20
1.23772e+20
1.23019e+20
1.23547e+20
1.24169e+20
1.22329e+20
1.2056e+20
1.19817e+20
1.20332e+20
1.22179e+20
1.22944e+20
1.20342e+20
)
;

boundaryField
{
    sides
    {
        type            symmetry;
    }
    empty
    {
        type            empty;
    }
}


// ************************************************************************* //
