/*--------------------------------*- C++ -*----------------------------------*\
  =========                 |
  \\      /  F ield         | OpenFOAM: The Open Source CFD Toolbox
   \\    /   O peration     | Website:  https://openfoam.org
    \\  /    A nd           | Version:  7
     \\/     M anipulation  |
\*---------------------------------------------------------------------------*/
FoamFile
{
    version     2.0;
    format      ascii;
    class       volScalarField;
    location    "0.006";
    object      rhoN;
}
// * * * * * * * * * * * * * * * * * * * * * * * * * * * * * * * * * * * * * //

dimensions      [0 -3 0 0 0 0 0];

internalField   nonuniform List<scalar> 
1000
(
4.1e+20
4.0375e+20
3.9e+20
4.0125e+20
4.375e+20
4.4875e+20
4.375e+20
4.5e+20
4.4625e+20
4.05e+20
4.5625e+20
4.1125e+20
4.3125e+20
3.85e+20
4.1125e+20
4.0375e+20
4.6125e+20
4.0125e+20
4.15e+20
4.175e+20
4.025e+20
4.375e+20
4.175e+20
4.55e+20
3.8625e+20
4.4e+20
4.3e+20
4.1e+20
4.0375e+20
4.8875e+20
4.3375e+20
4.325e+20
4.225e+20
4.3375e+20
4.2375e+20
4e+20
3.9125e+20
4.9125e+20
4.225e+20
4.2125e+20
4.35e+20
4.325e+20
4.05e+20
3.8875e+20
3.8875e+20
4.2375e+20
3.8375e+20
3.7625e+20
3.85e+20
4.475e+20
4.175e+20
4.0125e+20
3.9125e+20
4.2125e+20
4.6625e+20
4.05e+20
4.3125e+20
4.7125e+20
4.05e+20
4.4e+20
4.125e+20
4.0875e+20
4.675e+20
4.6125e+20
4.175e+20
4.4125e+20
4.2625e+20
4.325e+20
3.95e+20
4.5e+20
3.85e+20
4.0875e+20
4.25e+20
4.25e+20
4.5e+20
4.1875e+20
4.0625e+20
4.3125e+20
4.35e+20
4.725e+20
4.1125e+20
4.425e+20
4.3125e+20
4.1e+20
4.225e+20
4.275e+20
4.0875e+20
4.5125e+20
4.075e+20
4.3e+20
4.1125e+20
4.225e+20
4.2625e+20
4.625e+20
4.05e+20
4.2875e+20
4.1625e+20
4.175e+20
4.4875e+20
4.0875e+20
4.425e+20
4.4125e+20
4.225e+20
4.5625e+20
4.4375e+20
3.925e+20
4.325e+20
3.8e+20
3.9875e+20
4.4e+20
3.9375e+20
3.95e+20
4.2e+20
4.3125e+20
4.375e+20
4.4125e+20
4.4625e+20
3.75e+20
4.35e+20
4.125e+20
4.2625e+20
4.3e+20
4.425e+20
4.1375e+20
4.2625e+20
4.45e+20
4.15e+20
4.4125e+20
4.3875e+20
4.2625e+20
3.9625e+20
3.8125e+20
3.9125e+20
4.0375e+20
4.1125e+20
3.9625e+20
3.7375e+20
4.475e+20
3.9625e+20
4.2875e+20
3.6e+20
4.2375e+20
4.1875e+20
3.8625e+20
4.0375e+20
4.0875e+20
3.9375e+20
4.0125e+20
3.8875e+20
3.7625e+20
4.1875e+20
3.6e+20
3.9125e+20
3.8625e+20
3.975e+20
4.2125e+20
4.1e+20
3.875e+20
3.7375e+20
4.0625e+20
4.4625e+20
4e+20
3.675e+20
3.8125e+20
3.775e+20
3.8875e+20
3.6125e+20
3.9125e+20
3.4875e+20
4.0375e+20
4.2375e+20
3.675e+20
3.725e+20
3.875e+20
3.9125e+20
3.925e+20
3.7875e+20
3.3875e+20
3.8125e+20
3.8125e+20
3.875e+20
4.15e+20
3.425e+20
3.65e+20
3.7875e+20
3.5875e+20
3.4625e+20
3.85e+20
3.8625e+20
3.975e+20
3.675e+20
3.1375e+20
3.5e+20
3.9375e+20
3.5875e+20
3.35e+20
3.8e+20
3.4875e+20
3.8e+20
3.8625e+20
3.8e+20
3.9375e+20
3.475e+20
3.3625e+20
3.775e+20
3.8125e+20
3.65e+20
3.6125e+20
3.125e+20
3.85e+20
3.625e+20
3.5875e+20
3.5e+20
3.325e+20
3.6125e+20
3.625e+20
3.5625e+20
3.6125e+20
3.5375e+20
3.5375e+20
3.4625e+20
3.5e+20
3.3375e+20
3.3375e+20
3.9375e+20
3.4375e+20
3.1125e+20
3.5125e+20
3.4625e+20
3.45e+20
3.375e+20
3.425e+20
3e+20
2.9375e+20
3.3125e+20
3.35e+20
2.925e+20
3.2375e+20
3.375e+20
3.3625e+20
3.3e+20
3.1875e+20
3.5875e+20
3.1e+20
3.1e+20
2.975e+20
2.7375e+20
3.125e+20
3.1875e+20
2.9625e+20
3.1e+20
3e+20
3.3125e+20
3.05e+20
3.375e+20
3.175e+20
3e+20
3.375e+20
2.9e+20
3.15e+20
2.95e+20
2.9625e+20
3.025e+20
3.0375e+20
2.9375e+20
3.3e+20
3.275e+20
3.1e+20
3.1625e+20
2.9875e+20
3.3375e+20
2.975e+20
3.1375e+20
3.1625e+20
2.9625e+20
3.125e+20
3.0125e+20
2.6875e+20
3.3125e+20
2.9875e+20
3.0875e+20
3e+20
2.7375e+20
3.125e+20
2.8875e+20
2.95e+20
3.075e+20
2.8625e+20
3.0125e+20
2.475e+20
2.9e+20
2.9375e+20
2.6625e+20
3.3e+20
2.6875e+20
2.5875e+20
2.95e+20
2.675e+20
2.9875e+20
3.25e+20
2.675e+20
2.9125e+20
2.825e+20
2.775e+20
3.1e+20
2.9625e+20
2.825e+20
2.5125e+20
2.75e+20
2.675e+20
2.875e+20
2.5625e+20
2.7e+20
2.6e+20
3.0625e+20
2.8e+20
2.7125e+20
2.925e+20
2.525e+20
2.9125e+20
2.8375e+20
2.5125e+20
2.675e+20
2.4875e+20
2.7125e+20
2.65e+20
2.4875e+20
2.675e+20
2.85e+20
2.925e+20
2.675e+20
2.7875e+20
2.925e+20
2.475e+20
2.725e+20
2.35e+20
2.5875e+20
2.65e+20
2.8625e+20
2.5125e+20
2.55e+20
2.775e+20
2.8e+20
2.65e+20
2.2e+20
2.7625e+20
2.6375e+20
2.4625e+20
2.5e+20
2.575e+20
2.3625e+20
2.775e+20
2.6e+20
2.625e+20
2.8125e+20
2.45e+20
2.7125e+20
2.575e+20
2.7e+20
2.5125e+20
2.1375e+20
2.45e+20
2.5875e+20
2.2125e+20
2.2e+20
2.425e+20
2.25e+20
2.375e+20
2.325e+20
2.625e+20
2.275e+20
2.6375e+20
2.775e+20
2.0875e+20
2.85e+20
2.5375e+20
2.375e+20
2.4125e+20
2.6625e+20
2.3625e+20
2.325e+20
2.4e+20
2.3125e+20
2.0625e+20
2.3375e+20
2.325e+20
2.2875e+20
2.3e+20
2.2125e+20
2.2625e+20
2.65e+20
2.025e+20
2.425e+20
2.825e+20
1.9875e+20
2.125e+20
2.3e+20
2.3125e+20
2.1125e+20
2.4125e+20
2.2125e+20
2.3e+20
2.1e+20
2.575e+20
2.3875e+20
2.3125e+20
2.35e+20
2.3125e+20
2.2875e+20
2.2875e+20
2.25e+20
2.1375e+20
2.125e+20
2.1375e+20
2e+20
2.3125e+20
2.2e+20
2.25e+20
2.4125e+20
2.1625e+20
2.7375e+20
2.05e+20
2.15e+20
2.15e+20
2.1e+20
2.25e+20
1.95e+20
2.3375e+20
2.4875e+20
2e+20
2.2125e+20
2.125e+20
2.2e+20
2.1625e+20
2.45e+20
1.925e+20
2.2125e+20
2.2e+20
1.825e+20
2.4125e+20
2.0625e+20
1.8875e+20
2.3125e+20
2.3e+20
1.825e+20
2.2875e+20
1.7625e+20
1.8875e+20
2.025e+20
2.3e+20
2.1875e+20
1.9e+20
1.925e+20
2.0125e+20
1.9375e+20
2.1375e+20
1.9625e+20
2.0375e+20
2.1e+20
2.1375e+20
2.1375e+20
2.0625e+20
1.8e+20
2.1375e+20
2.175e+20
1.9375e+20
2.0875e+20
2.2e+20
2.175e+20
2.225e+20
1.8875e+20
2.1875e+20
1.9e+20
2.2625e+20
2.2375e+20
1.9125e+20
2.2125e+20
2.0375e+20
2.025e+20
2.1125e+20
2.2125e+20
2.4375e+20
2.1125e+20
2.0875e+20
1.7875e+20
2.225e+20
2.275e+20
2.05e+20
2.05e+20
1.975e+20
2.2625e+20
1.9125e+20
2.1875e+20
2.1875e+20
2.1e+20
2.5e+20
2.25e+20
2.0375e+20
1.95e+20
2.175e+20
1.9625e+20
2.175e+20
2.0625e+20
2.15e+20
2.1e+20
2.05e+20
2.0875e+20
2.2125e+20
2.175e+20
1.9125e+20
2.375e+20
2.2875e+20
2.15e+20
2.4125e+20
2.0875e+20
1.9625e+20
1.95e+20
2.275e+20
2.0375e+20
2.375e+20
2.0125e+20
2.3875e+20
2.2875e+20
2.15e+20
2.125e+20
2.275e+20
1.7e+20
1.9375e+20
2.2e+20
2.1875e+20
2.275e+20
2.1375e+20
2.3375e+20
2.325e+20
2.0625e+20
2.125e+20
2.1125e+20
2.2e+20
2.0125e+20
2.225e+20
2.1375e+20
1.85e+20
2e+20
2.0875e+20
2.1e+20
2.425e+20
2.2125e+20
2.075e+20
1.975e+20
2.1625e+20
2.325e+20
2.1875e+20
2.0875e+20
2.0375e+20
2.1625e+20
2.075e+20
1.9875e+20
2.175e+20
2.1e+20
2.2e+20
2.325e+20
2.0125e+20
2.075e+20
2.25e+20
2.05e+20
2.2625e+20
2.025e+20
1.9125e+20
2.2625e+20
1.9125e+20
2.1875e+20
2.025e+20
2.075e+20
2.175e+20
2.075e+20
1.9375e+20
1.9375e+20
2.35e+20
2.0125e+20
2.05e+20
2.1625e+20
2.15e+20
2.025e+20
2.05e+20
2.0625e+20
1.925e+20
2.1375e+20
2.1125e+20
2.3625e+20
1.925e+20
2.125e+20
2.0125e+20
2e+20
2.1e+20
2.3875e+20
2.3875e+20
2.125e+20
2.125e+20
2.2375e+20
2.0625e+20
2.3875e+20
2.225e+20
2.1125e+20
2.1e+20
2.1125e+20
2.175e+20
2.3125e+20
1.9375e+20
2.0875e+20
2e+20
2.3125e+20
2.15e+20
2.2375e+20
2.3625e+20
1.9875e+20
1.95e+20
2.275e+20
2.325e+20
2.4375e+20
1.8875e+20
1.875e+20
2.225e+20
1.9375e+20
2.175e+20
2.3125e+20
2.1375e+20
1.85e+20
2.2125e+20
1.975e+20
2.3625e+20
2.1e+20
2.2e+20
2.325e+20
1.9625e+20
2.125e+20
2.1375e+20
2.225e+20
2.175e+20
2.3125e+20
2.225e+20
2.1875e+20
2.0125e+20
2.2125e+20
1.8375e+20
1.7875e+20
2.2125e+20
2.0125e+20
2.0125e+20
2.0875e+20
1.6875e+20
2.3375e+20
2.375e+20
2.125e+20
2.475e+20
2.3125e+20
1.925e+20
2.2125e+20
2.075e+20
2.35e+20
2.325e+20
2.05e+20
2.0875e+20
1.975e+20
2.3875e+20
2.0875e+20
2.175e+20
2.025e+20
2.075e+20
2.075e+20
2.05e+20
1.9875e+20
2.2125e+20
1.9e+20
1.8875e+20
2.0125e+20
2.175e+20
1.9875e+20
2.325e+20
2.3125e+20
1.8375e+20
2.0875e+20
1.9875e+20
2.25e+20
1.9875e+20
2.3625e+20
2.275e+20
2.1125e+20
2.225e+20
2.1e+20
1.9375e+20
2.4375e+20
2.0625e+20
2.0875e+20
1.95e+20
1.9875e+20
2.1375e+20
2.3125e+20
1.8375e+20
2.4125e+20
2.1125e+20
2e+20
2.0375e+20
2.375e+20
2.25e+20
2.25e+20
1.9375e+20
2.2375e+20
2.275e+20
2.0625e+20
2.4375e+20
2.15e+20
2.225e+20
2.05e+20
2.2375e+20
2.1125e+20
2.475e+20
2.1125e+20
2.2375e+20
1.9875e+20
2.375e+20
2.2e+20
2.475e+20
2.325e+20
2.2625e+20
2.3875e+20
2.0875e+20
2.2375e+20
2.2625e+20
2.375e+20
2.6e+20
2.45e+20
2.2125e+20
2.5125e+20
2.6625e+20
2.7625e+20
2.5375e+20
2.325e+20
2.2375e+20
2.75e+20
2.6125e+20
2.525e+20
2.7375e+20
2.8125e+20
2.3375e+20
2.8375e+20
3.0125e+20
2.7625e+20
2.6875e+20
2.3875e+20
2.55e+20
2.85e+20
3.0125e+20
2.6125e+20
2.6125e+20
2.575e+20
2.9125e+20
2.8875e+20
2.9625e+20
2.7375e+20
2.75e+20
3.0125e+20
2.9625e+20
3.05e+20
3.35e+20
3.0125e+20
2.7625e+20
2.8625e+20
2.85e+20
2.7375e+20
3.1375e+20
2.4125e+20
3.075e+20
3.3e+20
3.1375e+20
2.775e+20
3.0125e+20
2.9e+20
2.9625e+20
2.8875e+20
3.1e+20
2.775e+20
2.9e+20
3.1e+20
2.5375e+20
3.4125e+20
2.9875e+20
2.775e+20
2.975e+20
3.0875e+20
2.975e+20
3.35e+20
3.2125e+20
3.1e+20
3.075e+20
2.95e+20
3.5625e+20
2.975e+20
2.8125e+20
2.7625e+20
3.075e+20
3.2e+20
2.875e+20
3.025e+20
3.0375e+20
2.8875e+20
3.35e+20
2.75e+20
2.8875e+20
3.2125e+20
3.225e+20
2.925e+20
3.1625e+20
3.3125e+20
3.2375e+20
3.3875e+20
2.8375e+20
2.9e+20
3.5125e+20
2.9375e+20
3.025e+20
2.8e+20
3.225e+20
2.725e+20
3.075e+20
3.0875e+20
2.95e+20
3.1375e+20
2.8375e+20
3.05e+20
3.075e+20
2.85e+20
2.85e+20
3.075e+20
2.9e+20
3.0375e+20
3.125e+20
3.25e+20
2.8875e+20
2.8375e+20
2.7875e+20
2.975e+20
3.1125e+20
3.2125e+20
3.1625e+20
3.3125e+20
2.95e+20
3.025e+20
3.1125e+20
2.75e+20
3.125e+20
2.9625e+20
3.0875e+20
3.225e+20
3.025e+20
3.125e+20
3.2375e+20
3e+20
3.0375e+20
3.2375e+20
2.8875e+20
2.7375e+20
3.1125e+20
3.0625e+20
3.375e+20
3.1e+20
2.8875e+20
3.2625e+20
2.9875e+20
2.725e+20
2.9125e+20
3.2e+20
3.1625e+20
3.2e+20
3.2375e+20
3.0125e+20
3.1125e+20
3.15e+20
3.3e+20
3.075e+20
3.4e+20
3e+20
3.1125e+20
2.7375e+20
3.1125e+20
3.075e+20
3.0125e+20
3.1e+20
2.8625e+20
2.9375e+20
2.5375e+20
2.6375e+20
3.275e+20
2.525e+20
3.025e+20
2.4625e+20
2.375e+20
2.375e+20
2.0875e+20
2.0875e+20
1.6875e+20
1.4375e+20
1.275e+20
1.45e+20
1.25e+20
1.3125e+20
1.1875e+20
1.2e+20
1.1375e+20
1.4125e+20
1e+20
1.1125e+20
1.275e+20
1.3375e+20
9.125e+19
1.3625e+20
1.325e+20
1.275e+20
1.025e+20
1.45e+20
1.275e+20
1.2875e+20
1.15e+20
1.175e+20
1.375e+20
1.2875e+20
1.1e+20
1.35e+20
1.25e+20
1.1625e+20
1.35e+20
1.15e+20
1.2125e+20
1.05e+20
1.05e+20
1e+20
1.1625e+20
1.2625e+20
1.3125e+20
1.3875e+20
1.1375e+20
1.25e+20
1.025e+20
1.025e+20
1.425e+20
8.625e+19
1.475e+20
1.3125e+20
1.3125e+20
1.1e+20
1.2875e+20
1.475e+20
1.35e+20
1.175e+20
1.075e+20
1.3375e+20
1.0125e+20
1.075e+20
1.2e+20
1.0375e+20
1.3625e+20
9.625e+19
1.15e+20
1.35e+20
1.0375e+20
1.2875e+20
1.275e+20
1.0625e+20
1.35e+20
1.1e+20
1.325e+20
1.15e+20
1.3625e+20
1.3125e+20
1.25e+20
1.2375e+20
1.325e+20
1.2125e+20
1.1875e+20
1.375e+20
1.3125e+20
1.2625e+20
1.3125e+20
1.3e+20
1.15e+20
1.275e+20
1.3125e+20
1.2125e+20
1.25e+20
1.2125e+20
1.3625e+20
1.0375e+20
1.1875e+20
1.2125e+20
1.0625e+20
1.05e+20
1.325e+20
1.2125e+20
1.1625e+20
1.1875e+20
1.3e+20
)
;

boundaryField
{
    sides
    {
        type            symmetry;
    }
    empty
    {
        type            empty;
    }
}


// ************************************************************************* //
