/*--------------------------------*- C++ -*----------------------------------*\
  =========                 |
  \\      /  F ield         | OpenFOAM: The Open Source CFD Toolbox
   \\    /   O peration     | Website:  https://openfoam.org
    \\  /    A nd           | Version:  7
     \\/     M anipulation  |
\*---------------------------------------------------------------------------*/
FoamFile
{
    version     2.0;
    format      ascii;
    class       volScalarField;
    location    "0.006";
    object      translationalT;
}
// * * * * * * * * * * * * * * * * * * * * * * * * * * * * * * * * * * * * * //

dimensions      [1 2 -2 0 0 0 0];

internalField   nonuniform List<scalar> 
500
(
232.338
248.592
258.1
265.004
272.067
277.363
282.11
286.318
290.263
292.569
293.456
298.311
302.617
302.773
303.09
305.282
307.975
306.917
309.268
312.988
313.009
313.423
313.804
314.081
317.583
319.27
322.882
321.149
321.065
323.425
324.275
324.983
325.024
327.267
324.812
327.775
325.131
323.955
324.278
328.14
328.213
327.638
329.656
328.887
331.199
328.324
331.518
331.248
332.173
332.72
332.522
330.797
329.497
331.814
333.036
335.48
334.306
333.131
334.134
333.766
333.881
333.076
337.818
340.357
343.788
338.89
335.947
336.238
341.479
343.289
343.566
345.294
341.298
344.337
346.256
342.121
340.56
341.896
340.77
341.513
341.994
341.515
343.222
343.933
342.271
340.838
340.601
344.218
345.766
347.018
344.084
345.014
343.626
344.557
348.828
347.51
345.795
342.683
344.905
347.041
344.647
344.505
344.866
344.492
344.853
344.59
344.474
343.941
342.667
342.82
342.893
343.523
345.855
346.453
347.561
346.082
345.296
346.663
349.611
347.233
345.708
348.022
347.598
347.35
347.363
345.766
342.894
344.531
350.579
351.354
353.436
349.632
350.735
350.046
344.815
344.31
347.046
346.248
346.752
350.586
353.639
352.605
353.442
353.412
349.349
346.828
349.529
349.192
347.741
349.906
350.394
351.828
348.482
347.287
348.513
349.085
345.158
346.122
348.166
349.572
349.964
348.409
349.724
351.215
350.93
348.705
350.173
348.968
350.148
348.655
346.495
346.627
346.173
345.986
345.976
347.752
347.944
347.139
349.78
347.908
346.374
349.068
350.611
349.791
348.019
349.975
345.333
344.882
346.14
345.429
345.086
347.903
348.54
348.877
350.697
350.663
350.898
351.768
352.952
351.955
351.681
353.648
352.797
350.364
349.361
349.512
347.438
347.607
346.992
345.392
345.657
347.489
348.536
348.961
351.728
352.163
352.65
347.517
346.997
349.03
346.619
345.574
344.277
344.493
344.411
347.786
346.037
350.538
350.72
348.204
347.403
349.54
351.15
349.209
349.205
348.024
348.145
346.656
348.249
350.723
352.172
351.502
348.005
350.141
351.034
350.909
351.164
351.848
353.006
352.267
355.424
353.584
348.179
348.134
345.671
342.402
343.279
345.965
344.674
343.503
342.819
343.983
343.292
345.224
347.206
348.831
349.764
349.5
346.107
346.409
348.405
346.788
348.885
348.39
348.958
346.828
349.9
353.136
352.845
350.974
347.046
343.966
342.732
341.963
345.464
345.215
347.843
346.432
345.407
344.399
345.569
345.813
346.924
347.279
351.163
351.319
349.998
346.99
347.694
344.812
347.315
348.784
348.807
345.363
345.065
345.691
347.754
346.821
346.317
344.248
344.953
346.37
348.414
349.354
349.702
347.706
346.299
345.148
344.035
345.671
348.699
348.407
346.869
346.035
345.98
347.55
345.937
348.717
351.642
347.952
344.027
345.267
343.516
345.031
344.924
347.257
348.533
347.659
348.287
348.928
349.48
346.666
346.264
345.989
347.062
342.745
344.335
342.49
342.483
345.653
343.381
346.279
347.723
346.457
347.621
347.049
345.398
348.905
348.449
348.221
347.222
347.324
347.514
346.198
343.735
345.77
342.876
342.144
345.433
346.293
348.719
347.497
348.154
351.946
350.662
351.356
349.479
348.055
348.765
347.946
348.59
344.976
344.658
341.534
341.599
338.795
342.508
341.333
344.084
342.431
343.095
344.902
347.68
348.072
346.011
346.975
346.192
347.215
349.239
350.613
349.485
350.023
349.564
349.052
346.426
342.908
341.946
343.221
342.955
345.075
346.832
344.901
344.946
346.233
344.584
342.543
345.509
347.732
351.464
347.534
346.519
348.102
349.322
348.241
345.21
345.257
344.235
340.691
337.971
337.31
336.622
335.494
336.573
335.825
336.438
336.033
337.237
337.797
338.105
338.51
338.19
339.855
338.66
338.554
338.257
338.325
338.04
336.738
336.579
336.043
332.805
334.797
334.988
333.617
332.385
330.787
326.791
328.697
327.571
326.601
329.595
327.856
328.085
324.306
323.834
323.081
321.96
323.947
324.81
322.965
321.474
320.559
318.04
317.598
319.632
317.763
315.943
317.124
315.885
312.15
313.598
310.199
307.66
308.173
305.305
303.802
302.297
299.619
297.095
294.29
292.591
289.022
284.801
281.364
280.106
274.137
267.59
261.021
249.821
231.382
)
;

boundaryField
{
    sides
    {
        type            calculated;
        value           nonuniform List<scalar> 2(231.382 232.338);
    }
    empty
    {
        type            empty;
    }
}


// ************************************************************************* //
