/*--------------------------------*- C++ -*----------------------------------*\
  =========                 |
  \\      /  F ield         | OpenFOAM: The Open Source CFD Toolbox
   \\    /   O peration     | Website:  https://openfoam.org
    \\  /    A nd           | Version:  7
     \\/     M anipulation  |
\*---------------------------------------------------------------------------*/
FoamFile
{
    version     2.0;
    format      ascii;
    class       volVectorField;
    location    "0.006";
    object      UMean;
}
// * * * * * * * * * * * * * * * * * * * * * * * * * * * * * * * * * * * * * //

dimensions      [0 1 -1 0 0 0 0];

internalField   nonuniform List<vector> 
1000
(
(0.188273 22.1804 -27.9547)
(0.446531 27.9527 -19.7455)
(0.183735 29.7259 -14.7647)
(0.319979 3.63808 -1.51235)
(0.339722 -1.74714 -0.255945)
(0.00737709 8.84792 4.83846)
(-0.118301 -3.984 33.9256)
(-0.299011 -1.57259 44.6282)
(0.0453173 23.6571 23.8148)
(-0.319525 -0.415602 9.26687)
(-0.590969 -12.6036 -7.7679)
(-0.70433 -14.8478 -0.487075)
(-1.17534 -3.82804 11.9326)
(-1.34917 -3.96666 -18.076)
(-0.995295 13.0037 -18.9537)
(-0.958477 20.8824 -18.7223)
(-0.0709664 35.7174 -28.0581)
(0.0285782 41.3802 -9.36034)
(-0.111681 29.2379 0.680299)
(-1.04102 44.2737 15.6842)
(-1.80018 22.9662 31.5957)
(-0.816455 -7.96158 33.2275)
(-0.648367 -7.49025 40.9893)
(-0.16761 10.2204 38.3689)
(-0.280347 -3.81632 24.135)
(-0.346143 -6.53845 27.2654)
(0.136307 -5.66358 -1.51657)
(0.0668545 -4.06297 8.43181)
(-0.271963 -11.5088 22.559)
(-0.448242 -10.4916 24.0394)
(-0.284703 -18.1978 19.4473)
(0.267338 -3.51718 21.8958)
(0.659049 4.98719 23.7247)
(1.01989 7.75618 13.2591)
(1.30054 13.6237 10.6956)
(0.819842 -1.07765 2.45583)
(0.822501 3.02478 -16.0888)
(0.529471 7.08149 -18.3882)
(-0.14655 13.3725 -13.1537)
(-0.168283 14.8583 -14.1451)
(-1.28201 7.31076 -11.4726)
(-0.458605 -6.35337 -9.95155)
(0.0775177 19.2222 -24.0298)
(0.391612 13.7605 -20.4252)
(0.220848 23.3503 -44.6079)
(0.739925 38.12 -41.4543)
(0.969622 40.3648 -43.5201)
(1.40598 34.8568 -54.7997)
(1.37131 40.9823 -36.5592)
(1.42128 42.5289 -26.7675)
(1.03455 52.6346 -44.1169)
(1.09877 45.5604 -30.4257)
(1.05178 49.493 -18.9296)
(0.427145 31.7495 -17.8971)
(0.416701 38.9768 -13.622)
(0.0933487 53.77 -26.8649)
(0.247314 67.044 -22.0502)
(0.547875 51.4317 -34.8322)
(0.669629 39.9818 -31.4915)
(0.331171 17.9557 -22.6287)
(0.843155 10.4544 -14.194)
(1.08527 -0.919585 -21.2425)
(1.16749 -10.8631 -4.34394)
(1.39946 -2.77222 -1.36881)
(1.88324 -19.2614 8.75721)
(2.24 8.58184 15.0153)
(2.24133 -1.43469 15.9959)
(2.36329 -16.9689 21.0819)
(2.76866 0.821137 2.81508)
(3.29702 -20.4641 -5.96699)
(3.15038 -34.1193 -14.936)
(2.9178 -39.2954 -7.87288)
(2.37949 -37.5436 -9.12608)
(2.76607 -29.2056 -5.6076)
(2.8051 -33.6395 0.757942)
(2.65105 -29.8668 19.5757)
(3.05167 -30.4774 18.7238)
(2.91932 -35.2205 20.0457)
(3.82165 -23.432 15.1888)
(4.7479 -0.4591 30.0018)
(4.28545 -6.34029 32.5112)
(3.52736 -13.5625 42.152)
(3.65216 -2.93653 29.7026)
(2.83191 -16.351 54.6805)
(1.70066 -27.6406 61.1738)
(1.48068 -5.79487 40.2136)
(1.08883 -13.2225 51.4144)
(1.33529 -22.7376 55.9596)
(0.906152 -10.838 27.2022)
(1.02614 -8.40743 36.8301)
(0.260856 -11.4336 20.2871)
(0.568734 1.39182 2.02065)
(0.624741 6.7299 -8.99486)
(1.41418 19.2806 -11.2811)
(1.27084 15.982 -4.68897)
(1.6466 20.6485 -11.3063)
(2.02811 14.2542 -3.17763)
(2.2529 24.1372 -5.91922)
(2.69925 21.069 -3.35819)
(2.16143 2.20728 16.1299)
(2.64838 15.9718 28.0015)
(2.43983 13.8235 39.159)
(2.33754 -7.25841 32.8387)
(1.8034 -24.87 27.6651)
(1.49088 -13.0807 28.2827)
(1.54256 -19.3259 14.7071)
(1.20139 -12.6493 38.6573)
(1.55618 -19.6989 30.5633)
(1.52666 -16.4007 27.8467)
(1.44011 -17.3002 22.5097)
(1.34384 -9.0473 21.2874)
(1.07331 -18.5063 17.545)
(1.1746 -24.1834 3.52627)
(1.26872 -14.2403 -0.273025)
(1.11907 -15.2751 -2.84669)
(1.43301 0.965626 10.78)
(1.83166 5.6651 35.7209)
(1.49195 7.73361 46.6751)
(1.55131 7.24191 50.6106)
(1.37087 18.5708 45.675)
(1.6297 26.7626 31.4515)
(1.88121 37.5354 36.889)
(2.21828 54.8105 7.69911)
(2.30962 25.6435 -12.4759)
(2.06882 7.26756 -10.7976)
(2.07685 0.448363 3.13984)
(2.33195 -21.1904 15.392)
(2.50704 -28.6567 12.1022)
(2.7395 -11.4413 17.8874)
(2.95382 -4.75471 19.5576)
(2.80498 -9.97583 15.8359)
(2.08578 -9.07603 12.0684)
(2.18444 -4.23112 0.472266)
(2.19502 -2.42108 7.75253)
(2.83874 -12.1084 25.106)
(3.06782 -25.3705 22.4449)
(2.65943 -48.7511 -2.41816)
(3.06051 -49.8731 -21.1756)
(3.44352 -62.6654 -34.2705)
(3.27794 -53.5822 -41.4399)
(3.51648 -71.5518 -41.2658)
(3.48177 -56.3345 -30.0289)
(2.78292 -31.88 -31.5584)
(2.82628 -29.134 -32.0629)
(2.20131 -27.2512 -32.7462)
(2.26688 -45.9075 -4.63676)
(2.56838 -35.2932 5.42814)
(2.63191 -23.0228 7.34257)
(2.83553 -32.064 3.03817)
(2.58811 -36.9953 -6.07924)
(2.65216 -29.1497 -14.237)
(3.12819 -24.8371 -20.3227)
(3.20664 -10.9589 -15.3161)
(2.98213 6.47428 -26.6354)
(2.75326 12.3703 -56.8313)
(3.41753 22.2746 -49.6115)
(3.21364 36.3616 -30.7214)
(3.4652 42.6661 -25.5895)
(4.09244 48.5104 -13.318)
(4.2403 59.9502 -12.9285)
(4.35134 51.7079 -14.0965)
(4.60964 55.3194 -22.4407)
(3.8722 58.7886 -20.655)
(4.2218 44.4484 -21.9553)
(5.06406 59.2933 -29.788)
(5.79692 56.8222 -40.9253)
(5.96552 25.6692 -42.806)
(5.80977 13.6021 -26.4999)
(5.71379 0.692695 -23.9822)
(5.12362 8.46212 -31.1282)
(5.87125 6.28053 -31.6384)
(5.21128 7.06198 -25.7336)
(5.89706 21.5837 -17.7892)
(6.60913 32.9361 -16.1502)
(6.72525 18.9227 -22.3847)
(5.96633 8.35557 3.23293)
(5.2535 -11.8527 2.15609)
(5.56428 -16.2412 -4.5323)
(5.56074 -23.7543 -23.0519)
(4.90953 -28.044 -17.754)
(4.48489 -25.1721 -9.13627)
(4.65615 -21.9288 2.88185)
(4.14517 -29.4655 8.06891)
(3.67704 -36.3937 11.2289)
(3.99632 -6.41835 15.0859)
(4.23199 -13.4942 20.9777)
(3.51221 -6.75282 16.7153)
(4.015 1.29783 12.8795)
(2.83721 4.33992 -3.21895)
(2.63715 14.2389 -6.74355)
(2.72138 27.3669 4.2213)
(3.53807 25.9098 7.41078)
(3.61415 16.0376 -2.34484)
(3.15846 20.1198 -10.7874)
(3.53766 15.3403 14.1059)
(3.87887 31.5045 19.3809)
(3.77678 18.6614 5.90662)
(3.76132 11.6594 -16.0351)
(3.81463 9.29195 -24.2021)
(4.28787 3.16998 -12.6976)
(4.56193 10.7531 -4.33456)
(5.03173 23.3019 -0.0974142)
(4.91622 15.6732 0.601515)
(4.56012 6.50884 -25.7488)
(5.08828 17.228 -8.68803)
(5.82958 28.1164 10.9188)
(4.73757 24.5121 22.1639)
(4.52543 15.2769 16.9233)
(4.29539 21.2072 16.6356)
(3.92067 22.7133 8.26475)
(3.91059 31.9022 27.0323)
(3.74235 22.1956 19.3104)
(3.6396 6.06318 32.9286)
(3.07853 1.22431 -5.52512)
(2.87458 -12.2408 4.61167)
(2.74661 -18.1311 -0.289634)
(2.33909 -22.6181 -6.68932)
(2.5373 -14.3747 -23.9149)
(2.55982 -3.80869 -16.57)
(2.55052 -19.6598 -14.9321)
(2.85509 -25.5909 -10.4463)
(2.19683 -23.8687 -2.75788)
(2.18107 -21.1569 -5.14276)
(1.70688 -7.90877 -4.39174)
(1.9898 3.40217 -24.916)
(2.3623 -7.32188 -17.197)
(3.00635 -0.254814 -10.8901)
(2.81125 9.14843 -10.2838)
(2.68633 8.63858 -19.4186)
(2.88635 19.7507 -25.7253)
(2.91645 28.7582 -15.1654)
(2.79692 51.0844 -24.7744)
(2.53289 20.127 -20.1706)
(2.39211 10.9084 -12.4217)
(2.03376 18.5027 -13.5427)
(2.28774 17.9067 12.7168)
(2.73359 0.942324 -16.7819)
(2.01673 8.37583 -19.7119)
(1.34738 13.6169 -8.80464)
(0.418212 10.398 20.5784)
(0.963847 6.63396 16.343)
(1.21048 12.5099 5.26631)
(1.49073 3.05335 -0.904249)
(0.937956 17.7868 2.85476)
(0.645202 12.4887 23.1395)
(0.974027 -4.68427 13.5726)
(1.04147 4.32269 0.717176)
(1.0948 6.82833 -17.3756)
(1.00293 -19.5909 4.85365)
(1.24846 -16.8233 18.9264)
(1.70681 -12.2808 14.2302)
(1.87549 -29.0485 -3.83165)
(2.46573 -12.1492 -9.93191)
(2.36516 -19.5313 -18.5483)
(2.84865 -36.3362 -10.3813)
(2.93878 -23.9096 8.21145)
(2.68757 -28.1045 5.7584)
(2.6242 -16.1125 5.92233)
(3.13372 -15.6406 1.42573)
(3.75761 -8.6335 -3.07246)
(3.61528 -7.82044 -4.59433)
(4.76798 1.59393 -27.395)
(4.88034 8.4158 -10.8778)
(4.85329 6.20121 -28.8601)
(5.66395 -17.0152 -38.1287)
(5.00928 -13.5113 -38.895)
(5.12213 -23.261 -44.144)
(5.22724 -10.2673 -31.365)
(4.81657 -16.8754 -22.7703)
(5.13694 -14.6382 -14.7252)
(5.24549 -14.1526 -16.7421)
(5.57491 -10.7081 -7.15096)
(6.18522 -14.2232 -11.9882)
(5.91146 -10.7486 -7.09679)
(5.91154 -15.3553 -4.24834)
(6.14842 -5.79004 -19.3804)
(6.18027 -19.7954 -17.6302)
(6.14845 -24.9268 -13.1421)
(6.46503 -14.9799 -16.5849)
(6.37729 -30.161 -16.3152)
(7.19681 -46.1911 0.231864)
(7.24546 -37.3082 -9.13149)
(7.29707 -20.5289 -17.4327)
(7.46629 -7.73808 -13.1027)
(7.62964 -5.53049 -20.8944)
(7.16418 -19.0254 -19.3589)
(7.61375 -34.6369 -18.631)
(7.77319 -36.3361 -1.55874)
(7.51331 -49.4835 12.6002)
(8.19955 -58.0265 6.80239)
(8.6749 -57.8371 9.05474)
(8.10858 -60.4 3.70884)
(7.88248 -59.4507 18.3513)
(8.82833 -56.0524 21.9009)
(9.39195 -34.2886 18.9249)
(9.29374 -26.7422 32.6099)
(9.02109 -35.4007 29.6356)
(8.84253 -44.9607 36.1819)
(9.469 -40.5021 28.7078)
(9.86756 -21.8023 20.7458)
(10.1912 -10.7099 16.8579)
(9.19971 -11.0508 37.6027)
(9.56045 -8.54785 23.2485)
(9.53943 10.8793 19.5679)
(9.83371 20.9893 10.8204)
(9.79887 22.4481 -6.45759)
(10.0115 13.365 -7.86523)
(10.4421 5.4853 1.83859)
(10.5022 2.4475 -22.1437)
(10.9047 -4.46336 -0.902554)
(10.5865 5.77366 -13.4484)
(11.7226 -1.57206 -10.1709)
(11.3544 8.05232 -22.6656)
(11.5273 -0.763614 -45.3834)
(12.0137 -32.7503 -45.3636)
(11.6315 -26.0696 -34.3978)
(13.0705 -19.533 -24.0706)
(12.5466 -48.2636 -31.4751)
(12.9216 -30.5874 -46.7349)
(13.5295 -39.954 -37.7706)
(12.5337 -10.6801 -26.5317)
(13.0591 -15.0545 -40.8332)
(13.2085 -31.724 -56.2838)
(13.1 -23.1965 -58.6038)
(13.9908 -16.4375 -50.4445)
(14.9593 -15.7735 -33.6093)
(15.3722 -3.86835 -24.6791)
(16.6821 9.61996 -19.8869)
(18.3392 18.6217 -15.4435)
(18.1062 34.7858 -10.4675)
(18.4522 15.0021 -19.8708)
(18.9638 23.992 -5.88844)
(19.3947 12.7554 8.91679)
(19.9083 -8.87148 12.3953)
(20.6141 6.12225 11.4999)
(20.6981 10.1635 7.20023)
(20.9544 -8.11629 25.4565)
(21.877 -16.1713 -3.44134)
(22.1285 -5.3517 0.248368)
(21.9874 -7.83105 -0.311476)
(21.8715 -2.33993 5.66068)
(22.201 -1.74513 -4.53069)
(22.7249 4.70459 0.184057)
(21.7525 11.0331 -6.17242)
(22.6712 -6.01351 7.11935)
(22.7876 -31.507 -8.34078)
(23.4444 -10.51 -17.0352)
(23.222 -4.58678 -5.71125)
(23.6115 -15.2206 -4.33323)
(23.3989 -4.21487 -7.42336)
(24.9048 13.8236 -26.7421)
(25.6318 20.9749 -15.7597)
(26.8913 39.0666 -17.0331)
(27.2614 30.8197 2.48867)
(28.7213 24.2994 6.70708)
(29.4624 33.7773 -1.17754)
(29.0803 25.4091 -14.7926)
(29.4117 22.0018 -21.9546)
(29.2982 15.3218 -29.5052)
(29.8551 28.758 -41.794)
(30.235 37.5311 -23.1568)
(31.4036 42.4901 -14.7763)
(34.012 57.0683 -12.5246)
(34.5705 39.0765 -5.98144)
(34.4958 31.4074 0.367017)
(35.1751 16.7476 3.78658)
(36.6342 20.1344 -3.2626)
(37.0796 20.9456 7.47872)
(36.203 8.82548 1.45751)
(36.0957 -5.61656 -19.5775)
(37.1777 3.4817 -5.95882)
(37.8551 6.03303 -21.2736)
(38.8933 -0.116915 -7.68421)
(40.5283 -4.50449 -5.4921)
(41.7883 -0.697331 -14.7041)
(42.679 -9.28121 -29.8208)
(43.1613 -12.2224 -20.1818)
(42.0487 -9.68618 -17.8255)
(42.3309 -35.137 -18.0286)
(44.5313 -33.9001 -1.04761)
(46.3495 -24.8886 15.9711)
(47.1444 -23.579 23.7698)
(46.0081 -4.56027 25.8889)
(45.4882 -8.21008 39.7083)
(46.9321 -16.0659 30.9581)
(47.6759 -15.4147 18.4322)
(48.5338 -22.3862 18.3948)
(48.1252 -30.6805 22.8997)
(48.0158 -35.6643 23.9552)
(51.6975 -35.5012 33.8378)
(52.052 -45.2348 30.8096)
(52.6116 -49.3182 8.82171)
(53.1027 -47.3916 -3.31782)
(52.5848 -43.3802 -5.54109)
(54.3029 -35.4026 -16.2906)
(54.3737 -28.9089 -8.37705)
(54.2329 -36.2283 -32.6449)
(55.6528 -27.8556 -19.0461)
(58.6455 -16.3926 1.67135)
(58.0308 -19.7441 -17.3017)
(60.6601 -15.8526 -30.1681)
(62.1319 -17.214 -18.6958)
(63.3881 -10.7195 -13.9934)
(62.729 -17.5939 -9.11677)
(62.8447 -13.7322 -0.416979)
(66.0771 8.84931 -4.52041)
(67.1338 9.96277 -7.41117)
(64.4884 -6.33562 -16.5374)
(67.9696 -5.07487 -12.7466)
(70.8642 10.493 -1.02008)
(71.3437 18.8326 -5.40256)
(69.3306 21.2273 -3.1087)
(71.1113 15.172 -13.2837)
(71.7098 1.97349 -19.1405)
(73.8407 -4.68375 -20.944)
(77.8857 -0.309197 -20.7172)
(74.7056 7.42664 -11.1319)
(80.0417 4.87013 -10.8051)
(80.3324 4.24191 -8.73964)
(76.7403 15.2412 -3.8495)
(76.0479 15.5474 -11.2054)
(80.9405 19.0528 -16.0085)
(84.0618 17.8838 -31.0287)
(84.7855 21.0745 -35.3024)
(84.9603 8.71887 -44.0569)
(86.4916 -7.99064 -22.257)
(93.1281 -2.35918 -21.4677)
(92.2705 9.34523 -14.5229)
(91.3926 5.02387 -22.3392)
(92.7397 8.26072 -29.4385)
(92.8604 16.0472 -27.7192)
(93.2051 6.85702 -14.7217)
(96.8771 6.84103 -32.4708)
(96.4994 11.5217 -17.2611)
(96.4828 3.54443 -7.25896)
(100.471 12.7536 -2.12901)
(99.0318 27.5904 9.43024)
(99.0519 16.8777 5.21524)
(98.5168 13.4974 -3.22241)
(101.353 11.7667 -8.34346)
(102.817 22.8206 7.52312)
(105.634 24.4625 -5.08545)
(102.185 23.8221 -4.03494)
(105.676 34.277 -7.95054)
(107.459 0.114808 -9.91834)
(110.413 -1.55598 -24.4695)
(109.963 20.3516 -12.1662)
(115.292 -3.8299 0.169183)
(116.188 14.7187 -8.29161)
(113.847 12.6474 -10.3724)
(115.226 1.97166 -21.5579)
(113.399 12.8658 -20.538)
(118.239 10.8076 -7.58408)
(116.048 3.07284 -3.92815)
(113.853 -8.55998 -5.47121)
(119.318 10.426 2.07805)
(125.71 11.9608 2.74795)
(120.513 17.6302 9.73311)
(122.473 7.74446 9.81597)
(123.936 0.43786 13.4024)
(127.091 14.0421 2.60277)
(135.582 24.8356 -34.8055)
(136.518 32.4005 -31.2759)
(134.641 18.0689 -24.1624)
(136.08 24.6439 -8.39112)
(134.57 12.3651 -10.2846)
(125.211 24.7048 -4.21243)
(124.081 18.6474 -3.33207)
(133.229 22.2821 -13.9448)
(130.721 12.2194 -13.5455)
(138.614 -6.31512 -13.9868)
(142.903 -9.59633 -5.45876)
(145.05 -17.5788 -22.6491)
(144.117 -23.4474 -14.8651)
(144.486 -7.60507 -27.1336)
(145.92 7.20378 -15.3192)
(148.55 -2.60027 -16.8912)
(146.023 -3.65593 -15.1834)
(151.406 -2.25514 -14.3044)
(152.852 -22.5411 -7.72436)
(145.121 -14.6557 -10.9127)
(153.682 -0.243794 -16.1848)
(156.773 0.469712 -13.2125)
(156.808 1.4472 -14.7307)
(153.365 2.666 -3.92844)
(159.971 -11.9141 -3.7403)
(164.906 -11.7258 12.8585)
(168.136 -0.739574 -7.29242)
(166.479 -3.9929 -3.09221)
(166.753 -13.3869 -1.37812)
(163.629 -12.6128 3.36359)
(170.796 4.76782 9.154)
(178.419 6.00829 6.47335)
(173.108 3.11098 -2.82698)
(172.644 6.31281 -2.00942)
(177.555 11.927 8.78888)
(178.771 7.63562 -2.77127)
(184.886 6.53692 -0.704926)
(185.555 0.586865 2.37953)
(196.475 10.678 1.39876)
(196.874 4.25958 -11.0793)
(186.873 -5.36042 -12.9427)
(184.165 -12.2396 -8.23353)
(184.968 3.12661 -12.7287)
(185.796 12.3952 -2.57443)
(181.09 -8.87979 6.78251)
(183.924 -4.91571 14.737)
(184.985 -15.7442 -0.119389)
(177.729 -6.09813 -7.98703)
(188.388 6.68444 3.38515)
(182.869 -2.83955 3.90698)
(182.287 0.384678 -16.5105)
(187.664 -5.70489 -17.2472)
(184.355 -3.88663 -12.3096)
(179.817 -10.0896 -22.3751)
(175.938 -3.23174 -30.9284)
(174.976 -12.6264 0.47243)
(172.036 -8.98246 -13.4151)
(182.756 -9.59101 -11.6318)
(179.751 -11.2376 -17.4861)
(183.833 -13.8724 -29.0056)
(175.805 -8.58961 -1.20151)
(182.355 -15.1219 0.887772)
(180.222 -22.7658 -22.7792)
(185.724 -1.67325 2.95258)
(177.541 10.013 -11.1213)
(177.122 16.5884 5.34177)
(171.684 1.7584 4.33096)
(175.562 16.6688 -0.331784)
(172.574 -5.1218 0.541613)
(177.007 -13.3695 -15.6615)
(170.001 2.47408 -12.0482)
(175.566 10.3466 -6.27834)
(171.235 0.397748 -16.1361)
(168.59 -11.2942 -10.2135)
(168.389 10.5391 -24.0363)
(167.96 -3.25693 -25.2509)
(167.559 -6.66607 -8.24143)
(170.035 -5.63609 -7.65666)
(170.519 1.10046 -16.2012)
(167.744 -11.8116 -6.01529)
(169.743 0.501992 -13.431)
(169.28 -7.04794 -6.39764)
(159.23 6.9229 -15.0728)
(162.789 -5.2769 -17.0336)
(166.255 -3.18541 -6.39127)
(157.235 -13.5739 -15.4806)
(166.789 -7.63041 -25.698)
(171.784 9.66457 -15.909)
(165.383 8.87493 -25.4183)
(161.736 2.46455 -8.14442)
(160.358 2.62568 1.02221)
(164.471 9.82296 6.16588)
(169.766 20.4787 6.50695)
(164.501 23.2405 -2.24506)
(166.369 -1.44308 3.38625)
(167.011 7.26837 0.982126)
(162.952 11.2399 19.6589)
(166.443 12.8004 10.0267)
(166.312 27.2763 13.2516)
(149.103 12.9505 11.7811)
(157.951 0.709248 5.9231)
(163.394 -23.8792 12.2878)
(167.119 8.91162 19.586)
(156.006 25.8227 6.56341)
(157.3 24.8597 1.11857)
(154.663 25.2591 -12.0875)
(157.359 25.5637 -13.6012)
(151.588 31.5837 -4.32616)
(150.09 32.6008 -7.61428)
(157.697 26.6826 -6.07081)
(162.724 23.6835 5.53255)
(156.725 -7.96146 2.19818)
(155.871 0.56048 -15.1143)
(154.991 15.4292 -1.42358)
(154.086 34.723 10.1342)
(158.804 29.2769 4.92987)
(148.528 1.40893 -6.45833)
(149.744 22.7723 24.3567)
(155.666 22.1343 17.274)
(152.326 29.5942 20.2074)
(155.853 33.0114 -0.0986534)
(154.466 14.7894 14.0865)
(146.163 1.43977 16.3526)
(151.737 7.95969 4.85904)
(154.14 11.249 -6.70727)
(148.697 -0.0518444 -1.90676)
(149.107 2.48248 9.25431)
(155.174 6.0224 8.20728)
(145.87 3.37799 27.0311)
(142.273 28.8615 20.8988)
(137.82 11.7207 7.94659)
(152.325 0.344042 23.4478)
(148.772 -3.49289 24.5608)
(145.207 12.0892 26.6086)
(139.143 7.44289 20.1608)
(147.072 16.9714 7.95118)
(145.076 7.4872 15.8417)
(136.473 17.8688 7.99728)
(140.973 8.23161 2.06643)
(143.246 5.36343 28.6914)
(137.777 -3.21689 41.0426)
(145.523 -7.31737 34.9344)
(142.441 -11.2798 26.1991)
(143.862 -5.08091 20.9984)
(150.999 4.22424 34.4414)
(149.611 9.98771 26.4991)
(146.485 -6.69252 29.9457)
(134.325 -2.03523 37.5798)
(135.954 11.75 54.118)
(131.525 34.246 20.1483)
(135.428 14.6374 37.5187)
(133.953 -5.7083 30.0243)
(139.94 22.2052 18.8693)
(135.597 38.6252 26.2754)
(133.572 28.0023 29.6886)
(135.305 32.9349 21.6511)
(135.371 44.7747 31.8602)
(131.759 30.6182 10.0434)
(130.61 4.08887 21.975)
(131.4 20.7211 14.6075)
(133.386 30.6861 44.3878)
(129.368 25.7072 48.0925)
(130.934 35.8553 23.6034)
(132.702 11.9472 7.37413)
(133.397 4.01945 24.4378)
(126.748 3.06056 42.7175)
(123.991 8.16616 59.3627)
(132.227 -13.3571 48.8944)
(124.937 -13.352 46.6182)
(129.07 -20.5266 24.2672)
(128.001 -29.2496 27.4646)
(120.962 -14.5692 11.3884)
(123.29 -13.2717 8.56321)
(118.991 16.5564 38.6773)
(122.559 -12.9347 22.9665)
(117.384 -35.0798 5.37332)
(117.502 -20.9351 15.1173)
(121.802 -10.1827 14.6893)
(126.208 5.60526 38.3219)
(125.436 7.95341 6.17935)
(127.407 2.61569 -12.5052)
(123.336 -24.727 7.45851)
(126.123 -9.33263 10.4483)
(121.568 1.44101 19.1955)
(126.191 -3.41599 14.2097)
(124.158 14.5074 23.8902)
(119.022 -5.44612 30.7452)
(121.166 -19.729 9.96922)
(116.782 -14.1171 10.1491)
(116.556 -2.77644 1.81902)
(115.848 16.1447 10.9808)
(114.255 22.5365 31.2524)
(108.79 18.4615 18.1052)
(106.776 36.6812 26.7112)
(105.175 26.8661 35.7496)
(105.873 30.9501 49.071)
(107.032 25.9965 43.4805)
(102.15 42.1745 19.3459)
(111.182 45.2112 22.4597)
(108.643 21.733 34.6458)
(115.629 37.9447 9.49738)
(109.038 33.1985 52.5023)
(107.91 -2.62327 26.57)
(112.153 -23.6007 14.774)
(120.392 -15.6023 -20.4164)
(113.436 -9.99708 -12.6059)
(112.367 -9.17208 8.92181)
(114.216 -10.137 -35.1117)
(116.966 -11.0437 -35.8956)
(112.308 24.4444 -39.5828)
(109.804 15.2894 4.22307)
(112.383 10.9781 -11.9573)
(110.011 2.89353 -21.8485)
(111.887 12.393 -23.6347)
(105.994 -14.6657 17.481)
(101.642 -11.5693 26.4739)
(102.666 8.51596 10.8375)
(108.45 18.0715 1.22773)
(107.078 27.4441 -4.23369)
(107.418 20.4872 12.635)
(115.058 21.6105 -2.58438)
(115.942 15.5009 23.3004)
(110.185 -6.28177 2.12906)
(113.215 25.9096 -5.93683)
(109.892 22.2743 -3.03532)
(108.721 35.4881 -12.6547)
(104.092 25.4135 -25.7928)
(105.582 14.0968 -17.2739)
(102.82 49.845 -28.2906)
(99.5798 45.9835 -15.0544)
(104.384 53.5735 -11.5421)
(97.9458 44.175 9.56066)
(98.2602 28.2542 -0.846603)
(93.4921 31.2884 -13.8452)
(98.7131 24.1976 -36.0039)
(91.9505 52.9789 -12.3849)
(89.0974 50.3349 -8.88993)
(94.9249 29.8909 -39.337)
(94.9167 44.3522 -19.158)
(91.2931 42.2398 -2.42144)
(87.7261 17.314 -12.5567)
(94.3815 18.9658 -39.9274)
(91.2399 -17.6227 -14.7636)
(93.7916 33.7276 -7.21282)
(94.8071 11.2816 -13.8366)
(91.3713 -0.745492 -20.0546)
(86.1681 0.139916 -27.1917)
(80.9406 1.65196 -17.0771)
(83.2196 0.200308 -15.2644)
(86.5883 14.5082 -4.17489)
(81.358 16.8651 7.50805)
(82.8505 21.7646 -10.3948)
(86.6177 26.1255 -12.4676)
(83.8894 33.6124 -31.6845)
(81.5647 35.3265 -13.8485)
(87.0086 36.9562 -38.3411)
(90.3981 55.3527 -44.9397)
(88.1457 50.0327 -9.40369)
(82.9449 59.196 -10.8117)
(83.2057 51.6741 -14.0267)
(82.7802 71.6577 16.0147)
(82.2897 67.5914 15.2644)
(81.0612 61.364 12.3597)
(79.1957 54.6741 -4.75249)
(80.542 60.409 11.8674)
(85.8565 59.7344 14.486)
(87.8666 77.2895 -1.35714)
(81.0407 56.356 10.2982)
(76.0331 44.9844 9.98016)
(79.115 42.9792 18.3473)
(81.3137 18.9132 16.7472)
(82.8287 23.4478 26.888)
(85.3949 19.4355 39.6159)
(74.3835 44.024 40.4765)
(68.475 33.201 16.8274)
(68.2843 7.73038 17.3746)
(67.0202 8.00493 9.59006)
(68.5321 3.74911 56.0903)
(65.6308 5.21891 44.4894)
(68.5191 19.9448 28.2883)
(66.2179 9.71862 24.4845)
(62.6526 12.0344 18.0861)
(58.875 5.8015 25.146)
(57.8648 13.5958 40.0231)
(56.2655 37.2392 14.8379)
(54.9303 51.0558 1.69144)
(55.7169 53.4624 17.2999)
(58.4873 67.0842 0.693037)
(55.1101 51.0416 7.93443)
(55.6466 39.3749 -9.4561)
(56.613 69.912 -10.6404)
(55.7575 90.6546 -20.4558)
(54.225 95.9905 -4.02325)
(55.4596 100.29 -15.4694)
(54.1857 83.9134 -36.8694)
(52.4285 57.3834 -32.7453)
(52.4804 52.9648 -9.84861)
(57.4171 59.8344 -8.16379)
(53.9182 76.1592 -28.9354)
(48.9355 39.6737 -14.8341)
(48.5773 48.1658 -21.2038)
(47.1423 52.049 -16.1571)
(50.8805 19.1418 -6.78011)
(48.5462 44.5568 -29.9828)
(44.3351 26.5007 -15.6835)
(43.5955 61.7905 -25.5854)
(42.1975 55.5762 -12.3943)
(42.6152 42.7136 -14.2036)
(41.1969 33.9192 -36.7931)
(39.0601 -8.59042 -1.15142)
(40.5483 -39.0378 -10.4114)
(41.9694 -23.5881 -19.5339)
(41.5833 -27.0913 -3.21003)
(43.9212 -27.1552 13.0624)
(41.8228 -31.016 20.3828)
(39.0819 -42.7364 47.5139)
(39.2032 -62.2016 52.4168)
(38.2579 -32.674 24.8323)
(41.7012 -30.5363 12.6575)
(36.3655 -9.92139 21.264)
(35.7234 -14.8616 43.5149)
(36.6763 1.92962 26.7756)
(34.4437 -20.8704 16.2454)
(35.7898 -10.1544 36.5209)
(33.6146 -24.8814 4.65749)
(32.6943 -37.5488 25.4279)
(33.4352 -41.0024 3.57384)
(29.9932 -33.5804 25.8154)
(28.6901 -25.9726 33.6647)
(28.0292 -40.2102 24.558)
(27.3365 -42.0577 60.804)
(25.8064 -18.8822 27.4298)
(24.9848 -19.5125 31.4759)
(25.6119 -43.8656 40.6419)
(23.5864 -40.8707 28.2676)
(22.5099 -39.0769 50.7951)
(20.4163 -48.7636 56.2675)
(20.3403 -71.0204 41.3483)
(16.4579 -46.6367 35.4266)
(16.2918 -49.1379 -2.67334)
(17.9064 -54.3469 -7.39937)
(16.9142 -56.5262 7.26188)
(16.3749 -61.0465 -0.242819)
(15.9088 -49.3512 -8.53416)
(14.5457 -12.1341 27.5355)
(12.5382 -27.1658 20.7645)
(10.6376 -16.2199 7.53795)
(9.2396 -35.2064 24.6802)
(8.93531 -42.1635 32.87)
(9.57463 -50.3434 45.708)
(7.19784 -43.1587 25.7468)
(6.39838 -44.1122 15.8084)
(5.26781 -17.8984 -3.95035)
(3.02176 -3.88011 34.1937)
(2.33594 22.3048 20.1663)
(3.39575 49.9331 42.4226)
(4.05049 44.0075 54.9216)
(3.14249 48.1231 45.2879)
(2.23762 65.8118 34.5531)
(1.57551 41.5172 21.7444)
(1.81711 20.769 43.0769)
(0.391168 62.9074 40.9966)
(-0.203995 35.0624 21.0651)
(-0.582568 55.1065 52.6584)
(-1.64819 36.6998 35.9078)
(-1.91564 36.0204 49.542)
(-0.522839 5.77767 66.2307)
(0.120041 30.5632 53.5809)
(-0.480099 -5.1738 43.3953)
(-0.246393 1.1248 39.3247)
(-2.66418 0.345784 30.0645)
(-3.31773 -3.39397 19.3534)
(-2.81336 23.8797 52.0358)
(-2.32014 46.8077 42.5246)
(-2.10209 18.3558 51.2103)
(-3.00651 -2.74521 56.599)
(-3.39028 5.83583 26.3948)
(-3.59102 -5.51092 36.3946)
(-3.92158 -6.51358 50.1259)
(-4.92051 -7.01905 78.7909)
(-4.43728 -6.42883 79.6047)
(-3.2082 -7.38561 93.9436)
(-2.47508 2.08216 71.5305)
(-3.34698 21.921 82.3055)
(-4.38289 29.7906 94.0102)
(-5.15812 11.2361 83.6974)
(-6.27586 -15.9318 89.9558)
(-6.8363 -25.8607 76.5926)
(-6.51785 -23.3453 80.4948)
(-4.87322 -27.3155 83.173)
(-4.46202 -53.8175 84.0454)
(-4.22841 -49.6374 63.7131)
(-5.14742 -34.9571 53.9178)
(-5.99404 -43.0858 34.1648)
(-6.10099 -71.1778 57.5697)
(-6.30331 -62.4599 59.8406)
(-5.80641 -74.7939 44.6993)
(-5.86167 -62.2652 36.6353)
(-6.32665 -87.7927 18.3108)
(-5.35433 -85.2481 -5.83901)
(-5.73944 -88.0704 -23.0821)
(-7.45264 -54.2946 9.40159)
(-7.64055 -52.1966 13.874)
(-7.32483 -50.85 29.2271)
(-7.4251 -39.2489 -12.1676)
(-7.12645 3.04334 -20.1118)
(-7.66697 9.79237 -23.5061)
(-7.97222 21.7911 -15.2961)
(-5.7892 17.5297 4.37288)
(-5.09855 34.197 6.19884)
(-5.02251 22.5647 39.1368)
(-5.40395 44.716 43.6787)
(-3.62803 46.8601 10.6024)
(-3.56415 40.7038 -5.71942)
(-2.51721 7.08571 1.61581)
(-3.53308 -2.43663 -20.4016)
(-3.38788 -10.5602 -9.19911)
(-2.00924 27.97 -2.99808)
(-1.62618 44.8894 -22.0832)
(-0.935611 61.0485 -52.2624)
(-0.607132 18.3694 -65.154)
(0.131885 0.378481 -94.5952)
(-0.168532 -13.228 -91.6121)
(-0.0320728 20.3024 -72.2338)
(0.0875101 -18.8425 -74.841)
(-0.382107 -24.0179 -67.165)
(-0.663617 15.3969 -79.6361)
(-0.805236 -1.5832 -86.3488)
(-1.26032 -10.9092 -67.7181)
(-1.6193 -7.46567 -19.4161)
(-1.85898 -10.8685 -29.9787)
(-2.78195 9.85544 -35.6024)
(-3.5735 38.9314 -19.4103)
(-1.81566 24.9489 -23.0118)
(-1.44647 28.3526 -16.693)
(-1.7949 9.59236 -18.0223)
(-1.52767 1.42583 31.3031)
(-1.03214 17.5157 22.2666)
(0.257259 -9.72449 13.5591)
(-0.345478 -45.8568 -20.4846)
(-1.95871 -47.1394 -29.8026)
(-2.41988 -64.5734 -14.4607)
(-2.88916 -52.351 -8.7408)
(-3.75434 -19.0107 12.9003)
(-3.82511 -43.2839 30.3787)
(-4.44412 -16.1283 21.8571)
(-5.17863 -27.3115 30.9293)
(-5.11815 -24.937 32.2411)
(-6.67381 17.3399 -3.16928)
(-6.03824 30.9052 -0.865404)
(-6.44534 41.5086 -31.7419)
(-6.53454 50.6789 -16.7047)
(-5.79384 29.4838 -7.12278)
(-5.43934 81.4267 -32.8601)
(-6.08485 58.7362 -16.9121)
(-5.94191 53.313 -11.9938)
(-7.97035 36.833 7.62968)
(-8.52804 23.7268 7.43431)
(-7.22505 40.5157 -18.0839)
(-4.90914 39.28 -13.2441)
(-5.90714 51.0543 -3.12913)
(-7.27275 19.2624 20.8676)
(-6.23748 13.9216 -3.9327)
(-5.60169 24.2352 5.09557)
(-7.2793 19.2205 8.78666)
(-7.13476 25.3407 0.380509)
(-6.25724 52.3944 15.9726)
(-6.61563 42.9423 29.5655)
(-5.62637 48.0832 33.8455)
(-5.19685 33.7353 8.78237)
(-6.72329 38.7386 35.8295)
(-6.24526 19.1975 19.5609)
(-6.21927 35.1422 -20.1215)
(-5.1847 60.8375 -24.5529)
(-6.46294 47.3616 -14.1776)
(-7.59729 25.9386 -13.6661)
(-7.8792 33.6362 -17.3183)
(-7.7313 70.8725 4.39464)
(-7.09641 65.0099 -20.9032)
(-7.02975 22.6134 -9.00469)
(-8.24378 10.776 -4.48)
(-9.06794 23.7561 -38.4687)
(-8.83291 22.0016 -69.3637)
(-8.71851 26.1769 -30.4098)
(-9.49934 14.3235 0.572364)
(-9.58129 48.1442 6.70226)
(-8.40761 81.7192 -10.3858)
(-6.61763 50.8656 -8.23662)
(-5.2184 27.4566 29.8126)
(-3.8829 16.7539 33.654)
(-3.82378 43.0274 30.1901)
(-4.38312 46.868 27.4018)
(-4.97331 31.4527 24.3091)
(-5.14637 12.0806 13.0768)
(-4.86842 -10.9721 -18.7282)
(-3.59708 -2.32136 -34.9502)
(-3.26588 -7.13108 4.29051)
(-3.20205 15.1896 -20.7964)
(-2.52492 -7.77008 -1.63782)
(-3.62107 20.945 -16.0098)
(-2.45569 17.2495 -21.2772)
(-1.85987 0.537327 -32.9644)
(-1.70801 13.8034 -34.269)
(-1.43103 33.695 -46.5403)
(-0.753472 63.803 -36.0708)
(-0.295179 84.7308 -27.0983)
(1.19994 78.0486 -44.6116)
(0.799803 60.4622 -27.2687)
(1.13108 55.4403 -28.5545)
(1.22184 52.8835 -24.6213)
(0.775688 35.993 -35.0068)
(2.04195 19.1504 -53.1276)
(0.974262 -1.32799 -90.661)
(0.76399 -0.616696 -92.6681)
(1.13916 -6.38054 -69.3571)
(1.95116 0.493915 -59.0565)
(3.61675 9.74873 -40.9193)
(4.26493 -7.77838 -27.6851)
(4.84941 -21.5156 -40.345)
(6.24422 -22.973 -5.93957)
(5.65616 -16.5475 -8.78373)
(5.50501 -22.5797 3.18496)
(6.29139 -24.9596 -22.0945)
(6.92721 -22.9476 15.005)
(5.90964 -40.7632 12.6918)
(4.79764 -35.3629 14.7817)
(4.50092 -43.2964 18.9034)
(4.2353 -59.6636 -6.43518)
(3.92393 -38.0366 -14.0199)
(3.03943 -49.4366 -24.3525)
(2.69335 -43.1923 -19.4148)
(2.8772 -61.7109 -9.32451)
(2.64672 -58.9081 -40.805)
(1.70183 -58.1279 -32.1652)
(1.48883 -84.8657 -32.9736)
(0.798701 -107.594 -13.0526)
(0.263128 -112.189 18.4927)
(0.433123 -98.4248 35.3556)
(0.0805634 -117.632 64.2463)
)
;

boundaryField
{
    sides
    {
        type            symmetry;
    }
    empty
    {
        type            empty;
    }
}


// ************************************************************************* //
