/*--------------------------------*- C++ -*----------------------------------*\
  =========                 |
  \\      /  F ield         | OpenFOAM: The Open Source CFD Toolbox
   \\    /   O peration     | Website:  https://openfoam.org
    \\  /    A nd           | Version:  7
     \\/     M anipulation  |
\*---------------------------------------------------------------------------*/
FoamFile
{
    version     2.0;
    format      ascii;
    class       volVectorField;
    location    "0.00144";
    object      U;
}
// * * * * * * * * * * * * * * * * * * * * * * * * * * * * * * * * * * * * * //

dimensions      [0 1 -1 0 0 0 0];

internalField   nonuniform List<vector> 
500
(
(4.99404e-13 0 0)
(5.82425e-13 0 0)
(5.00735e-13 0 0)
(4.73806e-13 0 0)
(4.51106e-13 0 0)
(4.09679e-13 0 0)
(3.64477e-13 0 0)
(4.37724e-13 0 0)
(4.88275e-13 0 0)
(3.99084e-13 0 0)
(3.54339e-13 0 0)
(1.93071e-13 0 0)
(4.71213e-14 0 0)
(-1.21832e-13 0 0)
(-5.50607e-14 0 0)
(1.03021e-13 0 0)
(3.6173e-13 0 0)
(5.33205e-13 0 0)
(4.36338e-13 0 0)
(2.16022e-13 0 0)
(-7.33943e-15 0 0)
(1.40199e-13 0 0)
(4.38113e-13 0 0)
(5.4067e-13 0 0)
(5.11806e-13 0 0)
(6.0259e-13 0 0)
(5.06543e-13 0 0)
(4.71368e-13 0 0)
(5.50309e-13 0 0)
(6.25697e-13 0 0)
(4.92503e-13 0 0)
(4.91852e-13 0 0)
(5.6609e-13 0 0)
(5.87266e-13 0 0)
(6.481e-13 0 0)
(7.50581e-13 0 0)
(7.20138e-13 0 0)
(5.07198e-13 0 0)
(2.9084e-13 0 0)
(1.13619e-13 0 0)
(9.30828e-14 0 0)
(-8.80984e-14 0 0)
(-2.05364e-13 0 0)
(-2.44308e-13 0 0)
(-1.31775e-13 0 0)
(-6.11971e-14 0 0)
(8.64184e-14 0 0)
(2.05602e-13 0 0)
(3.49444e-13 0 0)
(5.48249e-13 0 0)
(4.38691e-13 0 0)
(2.93969e-13 0 0)
(2.89854e-13 0 0)
(3.19087e-13 0 0)
(2.66358e-13 0 0)
(2.62317e-13 0 0)
(9.68215e-14 0 0)
(2.49223e-13 0 0)
(3.05981e-13 0 0)
(3.3522e-13 0 0)
(4.24612e-13 0 0)
(3.12603e-13 0 0)
(2.0494e-13 0 0)
(2.54864e-13 0 0)
(3.55806e-13 0 0)
(2.65177e-13 0 0)
(2.46168e-13 0 0)
(2.7941e-13 0 0)
(4.56475e-13 0 0)
(5.25761e-13 0 0)
(3.85153e-13 0 0)
(2.47898e-13 0 0)
(-6.51251e-14 0 0)
(-7.79395e-14 0 0)
(-5.06176e-14 0 0)
(7.02061e-15 0 0)
(-1.26459e-13 0 0)
(-1.0472e-13 0 0)
(-1.17598e-13 0 0)
(-1.35037e-15 0 0)
(-1.15483e-13 0 0)
(-2.08115e-13 0 0)
(-1.30538e-13 0 0)
(-7.79339e-14 0 0)
(-2.77695e-14 0 0)
(4.55462e-14 0 0)
(-3.24329e-14 0 0)
(-2.49298e-13 0 0)
(-2.07689e-13 0 0)
(-1.07222e-13 0 0)
(-8.92325e-14 0 0)
(-1.61704e-13 0 0)
(-3.26303e-13 0 0)
(-2.82604e-13 0 0)
(-2.60679e-13 0 0)
(-1.66014e-13 0 0)
(2.23878e-13 0 0)
(9.44523e-14 0 0)
(-2.06573e-13 0 0)
(-3.43381e-13 0 0)
(-2.70946e-13 0 0)
(2.53032e-14 0 0)
(1.08687e-13 0 0)
(1.10972e-13 0 0)
(2.28174e-13 0 0)
(3.05651e-13 0 0)
(1.08837e-13 0 0)
(-5.6088e-14 0 0)
(-4.3354e-14 0 0)
(-4.58871e-14 0 0)
(7.12813e-14 0 0)
(-7.11039e-14 0 0)
(-1.19053e-13 0 0)
(-2.35018e-13 0 0)
(-3.23885e-13 0 0)
(-1.92372e-13 0 0)
(-1.12432e-13 0 0)
(-5.52838e-14 0 0)
(-7.59853e-14 0 0)
(-1.8268e-13 0 0)
(-1.83065e-13 0 0)
(-4.26448e-13 0 0)
(-4.42405e-13 0 0)
(-4.80693e-13 0 0)
(-2.45868e-13 0 0)
(-1.4373e-13 0 0)
(-1.34754e-13 0 0)
(-2.35484e-13 0 0)
(-1.63907e-13 0 0)
(-1.46539e-13 0 0)
(4.20366e-14 0 0)
(2.09089e-13 0 0)
(2.07206e-13 0 0)
(2.45383e-13 0 0)
(3.28058e-13 0 0)
(3.61539e-13 0 0)
(2.93481e-13 0 0)
(1.57871e-13 0 0)
(3.09052e-14 0 0)
(-1.6538e-13 0 0)
(-1.61994e-13 0 0)
(-1.52213e-13 0 0)
(-4.40209e-14 0 0)
(-9.80557e-14 0 0)
(-2.61672e-13 0 0)
(-4.34749e-13 0 0)
(-1.92019e-13 0 0)
(1.10353e-13 0 0)
(2.46535e-13 0 0)
(4.02424e-13 0 0)
(1.84512e-13 0 0)
(-2.85118e-14 0 0)
(-2.83974e-13 0 0)
(-2.41647e-14 0 0)
(2.25684e-13 0 0)
(2.77446e-13 0 0)
(1.03932e-13 0 0)
(1.45938e-13 0 0)
(2.05433e-13 0 0)
(3.35698e-13 0 0)
(5.19127e-13 0 0)
(4.89994e-13 0 0)
(4.32274e-13 0 0)
(3.41125e-13 0 0)
(1.94554e-14 0 0)
(-5.72753e-15 0 0)
(6.14833e-13 0 0)
(4.05208e-12 0 0)
(1.92549e-11 0 0)
(7.99724e-11 0 0)
(3.15677e-10 0 0)
(1.21807e-09 0 0)
(4.61452e-09 0 0)
(1.71656e-08 0 0)
(6.26403e-08 0 0)
(2.24184e-07 0 0)
(7.86549e-07 0 0)
(2.70437e-06 0 0)
(9.10883e-06 0 0)
(3.00425e-05 0 0)
(9.69822e-05 0 0)
(0.000306281 0 0)
(0.000945813 0 0)
(0.00285447 0 0)
(0.00841529 0 0)
(0.0242244 0 0)
(0.0680737 0 0)
(0.186779 0 0)
(0.500933 0 0)
(1.31726 0 0)
(3.42068 0 0)
(8.92482 0 0)
(22.5676 0 0)
(40.9912 0 0)
(55.106 0 0)
(65.6873 0 0)
(74.6212 0 0)
(82.8618 0 0)
(90.8433 0 0)
(98.7451 0 0)
(106.627 0 0)
(114.502 0 0)
(122.369 0 0)
(130.225 0 0)
(138.07 0 0)
(145.905 0 0)
(153.729 0 0)
(161.544 0 0)
(169.352 0 0)
(177.154 0 0)
(184.95 0 0)
(192.742 0 0)
(200.531 0 0)
(208.316 0 0)
(216.1 0 0)
(223.882 0 0)
(231.662 0 0)
(239.441 0 0)
(247.219 0 0)
(254.995 0 0)
(262.77 0 0)
(270.543 0 0)
(278.313 0 0)
(286.08 0 0)
(293.843 0 0)
(301.6 0 0)
(309.351 0 0)
(317.095 0 0)
(324.829 0 0)
(332.551 0 0)
(340.254 0 0)
(347.921 0 0)
(355.511 0 0)
(362.93 0 0)
(369.98 0 0)
(376.368 0 0)
(381.64 0 0)
(385.401 0 0)
(387.898 0 0)
(388.968 0 0)
(389.23 0 0)
(389.251 0 0)
(388.945 0 0)
(388.556 0 0)
(388.32 0 0)
(388.086 0 0)
(387.894 0 0)
(387.813 0 0)
(387.813 0 0)
(387.853 0 0)
(387.887 0 0)
(387.916 0 0)
(387.942 0 0)
(388.01 0 0)
(388.126 0 0)
(388.252 0 0)
(388.303 0 0)
(388.331 0 0)
(388.352 0 0)
(388.409 0 0)
(388.515 0 0)
(388.621 0 0)
(388.637 0 0)
(388.607 0 0)
(388.572 0 0)
(388.577 0 0)
(388.622 0 0)
(388.682 0 0)
(388.679 0 0)
(388.634 0 0)
(388.573 0 0)
(388.536 0 0)
(388.52 0 0)
(388.52 0 0)
(388.473 0 0)
(388.4 0 0)
(388.332 0 0)
(388.316 0 0)
(388.312 0 0)
(388.293 0 0)
(388.226 0 0)
(388.18 0 0)
(388.15 0 0)
(388.134 0 0)
(388.116 0 0)
(388.107 0 0)
(388.097 0 0)
(388.106 0 0)
(388.177 0 0)
(388.415 0 0)
(387.851 0 0)
(388.773 0 0)
(391.589 0 0)
(389.551 0 0)
(388.132 0 0)
(386.522 0 0)
(385.304 0 0)
(385.118 0 0)
(385.97 0 0)
(387.429 0 0)
(389.082 0 0)
(389.711 0 0)
(390.11 0 0)
(390.626 0 0)
(390.674 0 0)
(390.189 0 0)
(389.412 0 0)
(387.512 0 0)
(385.947 0 0)
(385.408 0 0)
(385.426 0 0)
(385.802 0 0)
(386.954 0 0)
(389.374 0 0)
(389.614 0 0)
(386.427 0 0)
(350.689 0 0)
(150.468 0 0)
(11.4519 0 0)
(0.664594 0 0)
(0.0377192 0 0)
(0.00213781 0 0)
(0.000121225 0 0)
(6.87783e-06 0 0)
(3.90466e-07 0 0)
(2.21837e-08 0 0)
(1.26155e-09 0 0)
(7.21831e-11 0 0)
(4.43554e-12 0 0)
(4.58939e-13 0 0)
(2.34489e-13 0 0)
(3.17359e-13 0 0)
(2.38083e-13 0 0)
(1.67226e-13 0 0)
(2.65325e-13 0 0)
(2.52718e-13 0 0)
(1.59685e-13 0 0)
(7.47417e-14 0 0)
(1.04303e-13 0 0)
(1.84009e-13 0 0)
(1.40276e-13 0 0)
(5.03632e-14 0 0)
(1.39097e-13 0 0)
(1.56144e-13 0 0)
(2.81834e-14 0 0)
(6.12621e-14 0 0)
(1.09038e-13 0 0)
(3.41975e-14 0 0)
(2.03391e-14 0 0)
(5.98773e-14 0 0)
(1.39642e-14 0 0)
(-5.10823e-14 0 0)
(1.32969e-14 0 0)
(5.99036e-14 0 0)
(-7.66231e-15 0 0)
(-6.30227e-14 0 0)
(-1.48346e-14 0 0)
(8.35145e-14 0 0)
(1.67862e-15 0 0)
(-7.0976e-14 0 0)
(3.99822e-14 0 0)
(1.25125e-13 0 0)
(2.46362e-14 0 0)
(-9.87389e-14 0 0)
(-7.05375e-14 0 0)
(-1.37389e-14 0 0)
(-1.04577e-13 0 0)
(-7.03872e-14 0 0)
(-1.15108e-13 0 0)
(-2.30221e-13 0 0)
(-3.35953e-13 0 0)
(-3.14338e-13 0 0)
(-1.67419e-13 0 0)
(-1.33341e-13 0 0)
(-2.34707e-13 0 0)
(-2.10021e-13 0 0)
(-1.70113e-13 0 0)
(-1.66368e-13 0 0)
(-1.49899e-13 0 0)
(-1.49956e-13 0 0)
(-1.64827e-13 0 0)
(-3.13419e-13 0 0)
(-3.20533e-13 0 0)
(-2.99574e-13 0 0)
(-3.17004e-13 0 0)
(-4.53162e-13 0 0)
(-5.81257e-13 0 0)
(-6.41284e-13 0 0)
(-5.70052e-13 0 0)
(-5.04066e-13 0 0)
(-6.00479e-13 0 0)
(-6.04697e-13 0 0)
(-5.37458e-13 0 0)
(-4.45207e-13 0 0)
(-3.919e-13 0 0)
(-3.44897e-13 0 0)
(-2.82135e-13 0 0)
(-2.3946e-13 0 0)
(-2.46394e-13 0 0)
(-1.41705e-13 0 0)
(-8.0154e-14 0 0)
(-1.82669e-13 0 0)
(-1.40144e-13 0 0)
(-6.8432e-14 0 0)
(-1.04242e-13 0 0)
(-1.92196e-13 0 0)
(-2.23664e-13 0 0)
(-2.07514e-13 0 0)
(-1.97538e-13 0 0)
(-1.85719e-13 0 0)
(-1.38407e-13 0 0)
(-2.26199e-13 0 0)
(-2.22239e-13 0 0)
(-3.10647e-13 0 0)
(-2.50107e-13 0 0)
(-1.973e-13 0 0)
(-1.1248e-13 0 0)
(-6.63381e-14 0 0)
(-1.88872e-14 0 0)
(-8.27283e-14 0 0)
(-1.16899e-13 0 0)
(-3.52344e-14 0 0)
(1.16421e-13 0 0)
(2.00704e-13 0 0)
(2.81206e-13 0 0)
(2.13286e-13 0 0)
(1.26831e-13 0 0)
(-8.75305e-15 0 0)
(-8.80769e-14 0 0)
(-6.42895e-14 0 0)
(-1.48436e-13 0 0)
(-2.14117e-13 0 0)
(-1.52581e-13 0 0)
(-2.88059e-14 0 0)
(5.87046e-14 0 0)
(4.39485e-14 0 0)
(3.35382e-14 0 0)
(1.68217e-13 0 0)
(3.08595e-13 0 0)
(3.62452e-13 0 0)
(2.68167e-13 0 0)
(5.5082e-14 0 0)
(8.64485e-14 0 0)
(1.08564e-13 0 0)
(-5.60813e-14 0 0)
(-1.81451e-13 0 0)
(-2.30888e-13 0 0)
(-1.02903e-13 0 0)
(4.37103e-14 0 0)
(1.15749e-13 0 0)
(1.35514e-13 0 0)
(-1.47238e-14 0 0)
(-1.31395e-14 0 0)
(1.17081e-13 0 0)
(1.31874e-13 0 0)
(8.78376e-14 0 0)
(1.10685e-13 0 0)
(4.11167e-14 0 0)
(-7.09717e-14 0 0)
(-1.42379e-13 0 0)
(-1.19311e-13 0 0)
(-4.48471e-14 0 0)
(-1.07457e-13 0 0)
(-2.57314e-14 0 0)
(3.02687e-14 0 0)
(2.31718e-14 0 0)
(3.90533e-14 0 0)
(-6.09908e-14 0 0)
(4.03088e-14 0 0)
(1.27157e-13 0 0)
(1.9097e-14 0 0)
(2.62887e-14 0 0)
(-4.85124e-14 0 0)
(-1.31205e-13 0 0)
(-1.04193e-13 0 0)
(-1.06718e-13 0 0)
(3.10111e-14 0 0)
(9.27965e-14 0 0)
(-1.13153e-15 0 0)
(-1.362e-13 0 0)
(-1.68651e-13 0 0)
(-1.44312e-13 0 0)
(-1.76107e-14 0 0)
(6.2318e-14 0 0)
(-5.79996e-14 0 0)
(-9.11061e-14 0 0)
(-5.0657e-14 0 0)
(-1.66068e-14 0 0)
(5.59605e-15 0 0)
(-3.42417e-14 0 0)
(-1.24795e-14 0 0)
(-9.52741e-15 0 0)
(1.1231e-13 0 0)
(2.63518e-13 0 0)
(2.51575e-13 0 0)
(4.96625e-14 0 0)
(3.74642e-14 0 0)
(1.54123e-13 0 0)
(2.10066e-13 0 0)
(2.32784e-13 0 0)
)
;

boundaryField
{
    sides
    {
        type            zeroGradient;
    }
    empty
    {
        type            empty;
    }
}


// ************************************************************************* //
