/*--------------------------------*- C++ -*----------------------------------*\
  =========                 |
  \\      /  F ield         | OpenFOAM: The Open Source CFD Toolbox
   \\    /   O peration     | Website:  https://openfoam.org
    \\  /    A nd           | Version:  7
     \\/     M anipulation  |
\*---------------------------------------------------------------------------*/
FoamFile
{
    version     2.0;
    format      ascii;
    class       scalarField;
    location    "0.0036/lagrangian/dsmc";
    object      Ei;
}
// * * * * * * * * * * * * * * * * * * * * * * * * * * * * * * * * * * * * * //


19688
(
3.67877e-21
2.99658e-22
2.55871e-20
4.347e-21
2.42317e-21
5.07025e-21
2.97421e-21
2.52101e-20
6.32709e-21
3.40157e-20
9.17228e-21
4.19811e-21
2.44744e-20
8.49675e-22
3.15158e-21
8.71793e-21
8.92982e-22
2.16206e-20
1.04094e-20
2.53231e-21
1.2409e-20
1.82829e-21
2.94125e-20
3.28946e-21
1.71066e-20
8.43458e-22
4.72143e-21
9.54614e-21
6.17408e-21
1.00488e-20
1.85593e-21
8.47825e-21
1.70041e-20
1.25775e-20
1.89864e-21
3.79709e-21
1.19047e-20
3.90125e-21
7.13247e-21
1.9192e-20
4.09316e-21
2.62065e-20
1.88512e-20
5.74207e-22
5.66445e-21
6.3364e-21
3.50598e-21
1.06747e-20
9.46353e-22
5.41297e-21
1.30397e-21
2.498e-20
1.02279e-20
3.32021e-21
8.711e-21
9.06462e-21
1.47968e-20
2.1625e-20
1.13005e-20
5.8694e-21
2.01639e-20
1.95666e-21
1.94372e-20
4.53104e-23
5.69202e-21
5.77334e-20
3.05088e-21
2.62857e-20
1.99731e-21
1.7304e-21
1.73915e-22
1.77278e-21
3.03045e-21
1.68889e-20
9.20386e-21
3.773e-21
1.16286e-20
8.03295e-21
4.88357e-21
5.48764e-21
1.92765e-20
2.00209e-21
1.06193e-20
6.33445e-21
1.34934e-20
5.86306e-21
4.02637e-21
7.78183e-21
3.3985e-20
4.12442e-21
7.47464e-21
2.10533e-20
1.26093e-20
1.38427e-20
1.12498e-20
1.37006e-20
5.49664e-21
5.18643e-21
6.82699e-20
3.41541e-20
1.62538e-20
2.72406e-21
6.55293e-21
3.11091e-20
1.04484e-19
1.08027e-20
7.87302e-21
4.43364e-22
4.22667e-21
2.02472e-20
2.96408e-22
8.07126e-21
7.79577e-21
5.44576e-21
8.46714e-21
1.79027e-20
1.02824e-21
1.1974e-20
2.00411e-20
1.50328e-21
1.85362e-21
6.61692e-21
3.37538e-20
1.34336e-21
2.14381e-22
4.1101e-21
5.74291e-21
1.237e-21
1.3388e-20
4.66845e-20
6.91196e-21
1.54053e-20
8.98286e-21
1.91424e-20
2.52486e-21
1.50239e-20
1.91945e-20
2.28855e-20
2.30584e-20
2.9482e-20
4.32558e-21
1.95695e-20
2.55902e-20
7.13052e-21
1.05558e-20
3.72772e-21
8.9502e-22
1.71919e-21
6.53073e-21
3.76443e-21
2.9087e-22
1.82744e-20
1.08839e-20
9.12674e-21
1.31408e-20
2.04604e-21
4.14714e-21
2.9795e-20
1.95412e-20
1.8033e-20
2.73373e-21
2.37355e-20
1.49416e-20
1.03637e-22
4.94358e-21
5.52405e-22
4.00519e-21
2.02591e-20
4.48593e-21
1.77245e-21
2.76104e-20
1.45148e-21
3.3209e-20
5.50493e-21
1.46484e-20
9.70171e-22
1.01064e-20
3.48959e-21
1.32567e-20
1.31103e-21
5.15548e-21
1.6986e-20
3.30098e-21
5.5964e-21
7.2411e-21
3.33414e-21
1.22521e-21
6.72697e-21
8.98187e-21
1.91722e-20
6.50737e-21
2.56348e-20
1.11673e-20
1.99846e-21
4.61313e-21
7.05194e-21
4.88419e-21
2.15325e-20
2.17527e-21
6.14822e-21
6.80758e-21
6.27064e-21
9.63097e-21
1.59753e-20
3.43097e-21
4.50576e-21
8.49945e-22
7.89508e-22
2.40095e-20
1.16224e-21
7.30557e-22
2.84191e-20
3.4537e-21
5.63652e-21
1.11442e-21
4.97697e-22
7.67908e-22
2.22357e-20
6.3879e-21
5.56086e-21
2.84058e-20
2.05857e-21
9.16163e-21
3.01376e-20
3.49894e-22
6.03036e-21
6.96013e-21
2.35827e-21
1.73245e-21
1.01557e-20
1.42769e-21
3.01401e-21
1.13269e-20
3.12625e-21
4.1537e-21
7.96453e-22
1.92892e-20
3.61697e-21
1.74285e-20
3.85424e-21
1.36237e-20
4.16807e-21
1.33642e-20
1.62147e-20
1.97835e-20
3.83177e-20
2.94866e-20
1.1714e-21
3.33203e-21
6.048e-21
4.98505e-21
4.07797e-20
1.55372e-20
2.10999e-21
1.14232e-20
1.55165e-20
1.6512e-20
1.30018e-21
1.6192e-20
2.22414e-20
3.32626e-20
1.26934e-20
1.28936e-20
4.1481e-21
2.98585e-20
4.1833e-21
2.78313e-21
1.08864e-20
2.7831e-22
3.35233e-21
8.55988e-21
3.58671e-20
2.08071e-20
3.0394e-21
1.89098e-20
1.74028e-21
7.49088e-23
2.58859e-20
6.27088e-21
2.11485e-20
1.08116e-20
9.29197e-21
2.92941e-20
4.28881e-22
5.95032e-21
1.60646e-20
2.05521e-20
4.99041e-21
1.13346e-21
1.32805e-20
2.54007e-20
1.03821e-20
2.45503e-22
2.01633e-20
2.53436e-20
2.54802e-21
1.91512e-20
5.93723e-21
2.11605e-21
3.69e-21
2.3926e-20
5.42409e-21
5.15256e-21
1.06102e-20
1.64366e-20
9.8275e-21
9.40428e-22
5.37216e-22
2.0018e-21
1.73489e-21
1.86822e-20
1.46455e-20
1.32979e-20
5.43015e-22
2.09179e-21
1.8849e-20
1.48124e-20
8.66916e-21
3.25856e-21
1.45685e-20
6.39647e-21
7.74088e-21
1.86296e-20
2.32094e-21
9.90253e-22
1.74253e-20
4.45065e-21
1.0224e-20
1.04529e-21
1.10734e-20
9.35671e-21
1.1259e-20
2.24984e-20
1.16151e-20
5.42352e-21
5.07674e-21
1.87999e-21
2.34889e-22
1.82987e-21
8.39847e-22
1.31406e-20
6.65129e-21
2.64485e-21
4.28876e-21
6.03227e-21
8.62391e-21
3.4866e-21
7.72127e-22
1.74905e-20
1.09363e-21
1.5769e-20
2.66171e-20
9.39355e-21
1.07104e-20
1.72152e-20
5.71862e-21
2.41156e-21
1.94507e-20
6.88746e-22
7.46051e-21
4.44844e-21
2.50597e-23
1.00134e-20
3.89914e-21
6.14901e-21
2.56603e-20
1.74418e-20
2.86155e-20
9.22182e-21
4.42777e-21
7.51965e-21
5.92282e-21
4.91046e-21
1.14794e-20
2.86447e-21
1.01228e-20
7.65449e-22
1.25563e-21
4.34636e-21
3.67396e-20
1.57041e-20
4.24074e-21
6.80685e-21
2.61639e-21
1.95811e-21
4.71549e-21
1.37811e-20
6.9255e-22
2.54242e-20
4.71989e-21
7.99548e-21
2.05112e-20
3.20262e-20
4.66879e-21
4.55922e-21
2.08798e-20
2.2387e-21
5.1627e-21
1.11864e-20
1.02933e-20
4.2084e-21
8.85205e-21
6.92561e-21
7.35002e-20
1.71275e-20
4.72674e-20
1.25527e-20
7.46673e-21
1.51402e-20
1.92215e-21
7.83538e-21
1.58075e-21
6.64805e-21
4.00517e-21
5.20298e-21
2.50201e-21
4.03721e-20
2.74584e-21
5.51156e-21
5.99706e-21
7.80861e-21
1.74474e-21
2.30298e-22
1.58112e-20
6.75647e-21
1.59837e-20
3.34011e-22
1.03248e-21
1.16446e-20
2.4435e-20
8.11517e-21
2.20747e-22
5.08686e-21
2.28685e-20
1.64501e-20
1.16793e-20
4.67806e-22
5.55583e-21
2.95401e-20
3.06004e-22
4.80088e-20
4.21821e-21
4.36728e-22
6.02345e-22
2.21736e-21
2.23015e-20
6.29859e-21
8.6261e-21
3.05899e-21
3.44365e-21
2.29745e-21
2.72786e-20
2.14901e-20
3.04065e-20
1.17598e-20
2.32215e-20
1.62061e-20
1.0161e-20
1.4365e-20
6.12316e-21
1.88641e-20
1.0933e-21
1.52738e-20
3.4534e-20
9.5287e-21
8.17075e-21
2.07193e-22
8.14995e-21
2.08104e-21
1.91725e-20
1.56232e-20
1.69274e-20
2.27377e-20
1.00964e-20
1.00856e-20
2.6335e-20
1.61616e-20
1.79738e-20
1.15384e-20
6.95366e-22
1.53373e-21
2.2896e-20
1.939e-20
1.30134e-21
2.08239e-22
9.44268e-21
1.28341e-21
7.70138e-21
2.20469e-21
2.4381e-21
3.38987e-21
1.52351e-20
1.28987e-20
3.63187e-20
1.98936e-20
3.19276e-21
1.53692e-20
1.62869e-20
6.52776e-21
4.18769e-20
3.86509e-21
1.87194e-21
1.34762e-20
1.63085e-20
3.5047e-20
1.02603e-20
1.26785e-20
2.30765e-21
3.35048e-21
6.29448e-21
4.72595e-20
3.84505e-20
1.76036e-20
5.1957e-21
2.52013e-20
5.18993e-21
1.98072e-20
1.61935e-21
2.82352e-21
1.4512e-20
4.96898e-20
7.62721e-22
3.62841e-20
4.3425e-22
1.95362e-21
1.48475e-21
5.19877e-21
1.6099e-21
6.11102e-20
1.43547e-20
3.53299e-21
3.18635e-21
1.46435e-21
1.99189e-21
7.77752e-21
2.37342e-21
1.44552e-20
1.70194e-20
1.80636e-21
1.00435e-20
3.65559e-21
1.45581e-20
1.31881e-20
3.30374e-20
1.4584e-20
3.46418e-21
4.62737e-21
6.2984e-21
5.34923e-21
1.43926e-20
4.06075e-21
1.77298e-20
9.45653e-22
1.71173e-20
2.16305e-21
2.63305e-21
2.0226e-20
4.54018e-21
9.60089e-21
4.62992e-21
2.82613e-20
1.89535e-20
4.33909e-21
5.70788e-21
2.56956e-20
2.83732e-21
5.11979e-21
4.69304e-21
6.82243e-21
5.77946e-21
3.27347e-21
4.20098e-21
1.62275e-22
1.33341e-20
2.86964e-20
4.1275e-20
4.79595e-21
7.40147e-21
5.55656e-22
8.98042e-21
3.58975e-23
1.04675e-21
2.19792e-21
8.51167e-21
1.20635e-20
1.83742e-20
2.51546e-21
4.35654e-21
8.37077e-21
2.87194e-21
8.4611e-21
1.26998e-20
1.25708e-20
1.22563e-20
3.10311e-21
3.82655e-21
2.08843e-20
1.04406e-20
9.69596e-21
1.5189e-21
5.17098e-21
9.07609e-21
4.75549e-23
1.88744e-22
1.58499e-21
3.92235e-21
2.59009e-21
1.55614e-20
4.62352e-21
1.07286e-20
1.30098e-20
4.41086e-21
1.23381e-20
2.66689e-20
9.34155e-22
1.63851e-20
8.38762e-21
4.39541e-20
2.92546e-20
1.70105e-20
9.10948e-21
9.99359e-21
3.15671e-20
1.57428e-20
9.23525e-21
4.97892e-21
6.16878e-21
6.0268e-21
6.96439e-22
2.56794e-20
1.05259e-21
1.14438e-21
1.94589e-20
9.60594e-21
2.40005e-21
9.3103e-21
1.14383e-20
1.32896e-20
2.89271e-21
9.22587e-21
1.93589e-20
1.01821e-20
1.88635e-20
9.31196e-21
1.28333e-20
5.05157e-22
6.01663e-21
4.24001e-23
3.415e-20
3.03846e-24
8.81885e-22
1.35216e-21
1.85368e-20
9.76569e-21
8.27893e-21
3.08149e-21
2.87591e-20
3.22994e-21
2.19082e-20
2.06784e-20
2.24762e-20
2.22627e-20
6.47932e-21
9.05623e-21
1.95141e-21
2.20891e-20
5.1888e-20
7.57718e-23
1.19988e-20
1.5373e-20
1.11344e-21
1.27739e-20
3.55876e-21
2.44381e-20
7.73355e-21
1.9083e-21
1.516e-20
1.23174e-20
2.08044e-20
8.16474e-21
1.3814e-20
1.54774e-21
1.24493e-20
1.11047e-20
8.14467e-21
2.11311e-21
9.39574e-22
7.10692e-21
2.20287e-20
7.76851e-21
6.3523e-20
1.58937e-20
9.7933e-21
3.21542e-21
1.50393e-20
1.57665e-20
1.82739e-23
1.26311e-20
3.17988e-22
2.07192e-21
1.67876e-20
6.39207e-21
6.6615e-21
9.45078e-21
1.36876e-20
1.4928e-20
4.34963e-21
3.79087e-20
2.3027e-21
1.26216e-20
1.06264e-21
5.86559e-21
2.36586e-21
2.41087e-20
5.64026e-21
4.49164e-21
1.48957e-20
2.64586e-21
3.12133e-21
1.27694e-20
6.38314e-21
4.27695e-21
1.82883e-21
1.72947e-20
1.62302e-20
2.05071e-20
1.10645e-20
2.08645e-20
2.61244e-21
9.42312e-21
3.48368e-21
9.83123e-21
2.77604e-20
4.01791e-21
7.85307e-21
4.70992e-21
1.09461e-20
2.14456e-20
1.37714e-20
5.8143e-21
9.77026e-21
5.95004e-22
2.64626e-20
3.97209e-21
4.58959e-20
3.12521e-21
2.00297e-21
6.70435e-21
1.12486e-20
7.07822e-21
8.91806e-21
1.69728e-20
6.31385e-21
8.84771e-22
1.23e-23
1.03003e-20
1.47054e-20
1.62762e-21
1.68097e-20
6.65837e-21
1.90699e-20
9.18572e-21
1.67028e-20
1.46556e-20
3.56419e-21
1.31437e-20
3.22023e-20
1.44713e-20
2.63898e-20
2.74259e-21
1.06522e-20
7.6187e-21
4.26257e-20
6.55197e-21
4.182e-21
8.65319e-21
6.73282e-21
8.79162e-21
5.26946e-21
4.72018e-21
1.91522e-20
2.05733e-21
5.90296e-21
1.29764e-21
4.17378e-21
9.66651e-21
1.13481e-21
1.14486e-20
1.88987e-20
2.74645e-20
1.02488e-20
2.12949e-21
2.57315e-20
6.49053e-21
2.89846e-20
1.25218e-20
2.31053e-20
2.92969e-20
3.4419e-20
6.74788e-21
7.89976e-20
1.02333e-20
8.56197e-21
3.10858e-21
2.47664e-21
4.69422e-21
2.83824e-20
2.09568e-20
1.03231e-20
5.24733e-21
2.14658e-20
2.437e-20
2.14937e-20
2.80167e-20
6.30828e-21
9.21104e-23
2.02112e-21
2.51408e-20
3.93434e-21
4.66856e-21
2.73043e-20
1.38746e-20
3.37884e-21
3.93739e-21
6.74309e-22
3.62462e-21
1.30437e-20
7.92655e-23
1.5256e-20
5.3371e-21
3.37305e-21
7.55339e-21
5.88332e-21
8.01279e-21
4.44549e-21
6.2099e-21
1.54586e-20
1.35983e-21
1.50827e-20
1.44454e-20
3.7541e-21
3.84455e-21
2.44096e-20
5.91412e-22
4.83578e-22
5.50754e-21
6.7334e-21
6.86143e-21
1.03356e-20
1.98767e-20
1.51872e-20
1.70556e-21
3.6507e-21
3.84219e-20
3.49775e-21
1.0597e-20
3.83981e-20
1.79463e-20
1.88183e-20
1.10975e-20
3.46916e-20
6.68938e-21
1.17088e-20
2.86466e-21
1.92117e-20
2.88564e-21
2.56919e-20
6.89014e-21
8.89796e-21
4.14326e-21
1.13535e-20
2.72039e-20
6.31237e-21
1.02311e-20
9.84438e-22
7.48568e-21
6.78107e-22
1.08717e-20
1.34961e-22
2.15745e-20
1.81957e-20
1.608e-20
9.05216e-21
1.35597e-20
7.17069e-21
2.00689e-20
4.05043e-21
2.2978e-20
9.51735e-21
8.44627e-21
1.33915e-20
7.23957e-21
6.64129e-20
1.75388e-20
4.52265e-21
7.37176e-21
3.67964e-21
2.28309e-20
1.08555e-21
2.90236e-20
9.83573e-21
1.76113e-20
1.98168e-20
3.76887e-22
5.90987e-21
2.44977e-20
1.93496e-21
5.03087e-21
7.16531e-21
7.23191e-21
1.07734e-20
1.03548e-20
2.31661e-21
5.38434e-21
1.4098e-20
1.50619e-20
1.03419e-21
2.15425e-20
1.29926e-21
8.81362e-22
2.21501e-20
8.77055e-21
1.20162e-20
1.34566e-20
1.66597e-20
3.7153e-21
7.0243e-21
3.17967e-20
2.31999e-21
9.51418e-21
2.01111e-20
8.83736e-21
4.14753e-21
2.42949e-20
2.73745e-20
1.05818e-20
6.06884e-20
6.45096e-21
4.5459e-21
1.26465e-20
1.464e-21
3.34236e-21
3.20229e-20
1.2928e-20
2.974e-20
8.75006e-21
5.17752e-21
8.80119e-21
1.28906e-20
3.35675e-20
3.32844e-21
1.86091e-20
9.12895e-22
1.28875e-20
4.35162e-21
1.1184e-20
5.05488e-22
1.9668e-20
1.99157e-20
7.83362e-22
5.3673e-21
9.57816e-21
2.79216e-20
1.14188e-20
5.7958e-20
8.66806e-23
6.78647e-21
4.85433e-20
1.80605e-20
1.33434e-20
4.44376e-21
1.45685e-20
1.84155e-20
1.33763e-20
8.18977e-22
8.33157e-21
9.76261e-21
2.02612e-20
8.23793e-21
2.09099e-20
8.31354e-21
1.08898e-21
3.28562e-21
1.30751e-21
1.77336e-21
5.96618e-21
8.1756e-21
1.41219e-20
2.18243e-20
1.73214e-20
5.57106e-20
8.46094e-21
1.62832e-20
2.03033e-20
1.47352e-20
6.60468e-21
7.64915e-21
3.62019e-21
1.68965e-21
5.81762e-21
5.14829e-21
4.37431e-21
8.20768e-21
2.04185e-20
4.48351e-20
8.29245e-21
5.69317e-21
2.73123e-21
2.88279e-21
8.37616e-21
5.78089e-21
1.95224e-20
7.32767e-21
1.55221e-20
4.96189e-22
1.28287e-21
4.28312e-21
3.7811e-21
2.31211e-20
7.13341e-22
1.56914e-20
2.95649e-21
1.42487e-20
4.93252e-21
5.91368e-21
1.01702e-20
3.99035e-22
5.48777e-22
5.76971e-21
3.83878e-21
1.45094e-20
8.91467e-22
6.90036e-21
9.75384e-21
2.09544e-22
1.51902e-21
1.5828e-20
1.06891e-20
1.43629e-20
1.53529e-20
8.62445e-21
6.05983e-21
1.40792e-20
6.26949e-22
5.01395e-22
1.46208e-20
2.67248e-21
1.5551e-21
8.4469e-21
1.19686e-20
3.88236e-22
7.26587e-21
1.64618e-20
1.017e-20
6.83331e-21
1.89784e-20
2.11494e-21
3.56041e-21
1.00359e-20
2.56763e-21
2.48871e-20
9.05887e-21
3.62977e-21
8.65976e-21
3.44585e-20
1.74898e-20
4.34522e-22
3.72276e-21
4.0547e-21
6.94364e-21
1.73094e-20
2.74529e-21
7.66028e-21
6.98562e-21
1.34072e-20
1.67368e-21
6.56943e-21
2.22479e-20
1.64365e-20
1.43918e-21
5.59433e-21
1.82364e-20
2.87107e-21
8.71807e-22
3.46098e-21
1.68327e-20
9.04339e-21
2.66679e-21
7.13555e-21
3.48687e-21
2.26897e-20
3.52474e-20
4.92523e-20
4.2138e-21
8.48971e-22
1.83962e-20
1.46527e-20
2.21112e-21
1.36056e-20
5.26291e-21
3.15054e-20
1.89079e-20
2.29695e-20
3.39303e-21
8.64507e-22
3.67379e-21
2.60278e-20
8.79931e-21
4.16034e-21
2.62556e-21
6.77557e-22
2.1215e-20
2.24208e-20
4.60934e-21
1.96446e-20
1.24564e-20
1.22225e-21
2.20323e-21
8.52438e-21
1.08754e-21
1.57843e-21
3.95154e-21
1.7781e-20
1.14292e-20
2.18529e-21
3.96062e-20
1.27893e-20
1.46156e-20
1.37236e-20
5.05579e-21
1.43785e-20
4.74984e-21
4.18388e-21
1.0079e-20
1.60502e-20
1.94879e-21
2.25975e-21
1.03143e-20
1.1245e-21
1.00135e-21
4.25842e-21
1.81584e-21
1.2118e-20
4.99566e-21
2.10308e-20
5.63374e-21
8.69041e-22
7.37506e-21
1.41987e-21
4.16895e-21
1.47168e-20
1.43203e-20
3.46887e-20
2.01357e-20
1.77574e-20
1.09117e-20
6.65341e-21
7.53028e-21
5.15848e-21
3.269e-20
1.65818e-20
3.6451e-21
1.1076e-20
8.76156e-21
1.80363e-21
1.34829e-20
1.67392e-20
6.32789e-21
4.43644e-22
3.41801e-21
1.4347e-20
5.43051e-21
5.58142e-21
2.44434e-20
5.54041e-21
5.80947e-21
1.70081e-21
7.21779e-21
6.59068e-20
1.35263e-21
3.31408e-20
5.92043e-21
9.21436e-21
5.58562e-22
2.10365e-20
2.60675e-21
1.60746e-20
5.54706e-21
2.67619e-20
5.97449e-21
6.02881e-20
9.67017e-21
1.57372e-20
2.29562e-21
7.59624e-21
3.86409e-22
3.18022e-21
2.5877e-21
1.95136e-20
5.14739e-21
5.95134e-21
4.35132e-21
4.58535e-20
9.90218e-22
4.13664e-21
6.54043e-21
9.81556e-21
1.51552e-20
4.53242e-22
4.39132e-21
1.39208e-20
9.89619e-21
7.21891e-21
1.2074e-21
6.23405e-21
5.12086e-22
1.4418e-20
6.91046e-21
1.73541e-21
2.24343e-21
1.78521e-21
1.95562e-20
6.49848e-20
6.1034e-21
1.08738e-21
1.18542e-20
1.9699e-20
1.1917e-20
1.80182e-21
2.53704e-20
1.4687e-20
1.25968e-20
1.97012e-21
8.99897e-21
2.16395e-20
1.58359e-20
2.32934e-20
2.03869e-22
1.32708e-20
1.05691e-21
2.50881e-21
6.92596e-21
2.88223e-21
6.80869e-23
6.01173e-21
7.45169e-21
4.80886e-21
1.78558e-20
1.30688e-20
7.84036e-21
1.28636e-20
7.41061e-21
1.25026e-21
7.96639e-21
2.38599e-20
1.94357e-21
1.40268e-20
8.41494e-22
2.70854e-21
1.18344e-21
1.06409e-20
1.68174e-20
4.07925e-21
2.99374e-21
1.65483e-20
1.2455e-21
3.44579e-21
2.19606e-20
1.20172e-21
8.86657e-21
5.3794e-20
6.24571e-22
2.26513e-20
1.40978e-20
1.67646e-20
7.77081e-21
1.94616e-22
7.20915e-21
1.32408e-20
1.12473e-21
3.60612e-20
3.97016e-21
8.86738e-21
7.07986e-21
5.72002e-22
1.62774e-21
2.12204e-21
2.03059e-20
3.23576e-21
4.62469e-21
2.09626e-20
4.23547e-20
5.17203e-21
1.3009e-21
4.36275e-21
2.6897e-22
1.1745e-20
4.91743e-21
8.79766e-21
5.16682e-21
5.15969e-20
1.58745e-20
3.73954e-21
4.49268e-20
3.91079e-21
2.77784e-20
8.60369e-21
1.04149e-20
1.05636e-20
4.34289e-21
6.26542e-21
5.3823e-21
9.12489e-21
5.09694e-21
3.94574e-20
8.72591e-21
1.19218e-20
1.48857e-20
8.23529e-22
2.80842e-21
1.60818e-20
4.55322e-21
1.39455e-20
7.07347e-20
2.98667e-20
6.22053e-21
2.13214e-20
3.07862e-21
1.63919e-20
1.03924e-20
3.70959e-21
2.76771e-20
8.36402e-22
6.86552e-21
2.35293e-20
1.23867e-20
8.59035e-21
1.95998e-22
1.51438e-20
9.3317e-21
5.70213e-22
6.60695e-21
4.88363e-23
3.97391e-21
3.21249e-21
1.29813e-20
3.17656e-20
1.17286e-21
2.30182e-21
2.10333e-20
4.02005e-21
6.85145e-21
4.74174e-21
6.40709e-21
2.02244e-20
1.09367e-21
7.04475e-22
2.23742e-20
3.4839e-20
8.86568e-21
7.90335e-21
1.80816e-20
3.48902e-20
2.92048e-21
1.30857e-21
1.27532e-20
2.64167e-22
2.38868e-21
1.47912e-20
1.19519e-20
4.83842e-21
1.8264e-20
6.55185e-21
1.78738e-21
1.55658e-20
1.51986e-20
8.74544e-21
3.67519e-20
2.92958e-20
5.35274e-21
1.68387e-20
4.3317e-21
3.60405e-21
1.29806e-20
4.27171e-22
1.81204e-21
8.51162e-21
1.85173e-20
5.23726e-21
2.5368e-21
1.36831e-20
1.19033e-20
1.03716e-20
4.32349e-22
2.85409e-20
1.88085e-20
7.7754e-22
8.06187e-21
6.86858e-21
1.57437e-20
1.43433e-20
1.48302e-21
4.31551e-21
5.47009e-22
3.56473e-22
2.36423e-20
1.9404e-20
1.45961e-20
2.7342e-20
4.88474e-21
4.26247e-21
6.45862e-21
1.83568e-20
1.79094e-20
1.45458e-21
9.73548e-21
1.26276e-20
7.08999e-21
2.3037e-21
1.44785e-20
2.97552e-21
1.08032e-20
8.13137e-21
7.93128e-20
2.40385e-21
1.93194e-20
9.49761e-21
1.0705e-20
9.75096e-21
4.22954e-20
5.05208e-21
8.90431e-21
1.14451e-21
1.18224e-20
1.55456e-21
1.31445e-22
1.46825e-20
3.5578e-21
8.83052e-23
6.92473e-21
1.02591e-20
2.22284e-20
5.4601e-22
1.60688e-20
1.50396e-20
2.96163e-21
1.18478e-20
9.04643e-21
4.18297e-21
2.2708e-21
6.3382e-21
3.4552e-20
9.7745e-21
3.28766e-20
3.51957e-21
2.64648e-20
2.19428e-22
4.52077e-21
2.08422e-21
3.48478e-20
1.8195e-20
2.5314e-20
7.82793e-22
6.14746e-21
8.3097e-21
1.83058e-20
5.49548e-20
2.2539e-21
3.80239e-21
8.97962e-21
6.73093e-22
2.07861e-20
3.17492e-21
5.12066e-20
2.69851e-20
2.20587e-22
3.49207e-21
1.90301e-20
1.3444e-20
5.15294e-22
4.48614e-21
1.7752e-20
4.86566e-21
1.52244e-20
5.86246e-21
2.87938e-20
2.89216e-20
8.16097e-22
2.42841e-21
4.83366e-21
1.16124e-20
4.89892e-21
7.05541e-21
8.59635e-21
1.16977e-21
1.2247e-20
1.53391e-20
4.03148e-22
1.51712e-20
7.08258e-21
4.01243e-21
9.09916e-21
4.86174e-21
1.18384e-21
1.38265e-22
4.21111e-20
4.88534e-21
1.23067e-20
3.58515e-20
8.13427e-21
3.50492e-20
9.48071e-21
1.80279e-21
1.08064e-20
6.45883e-21
6.3561e-21
6.00231e-22
5.60585e-21
2.8436e-22
2.81282e-20
2.25582e-21
6.81677e-21
3.37923e-21
1.79484e-20
9.39803e-21
2.55149e-20
6.80919e-21
3.53618e-20
2.62517e-22
4.24311e-21
7.19678e-21
3.47594e-22
5.01909e-22
8.78245e-21
1.07488e-21
3.73338e-21
2.50235e-20
3.10776e-21
7.18219e-21
1.61868e-20
8.32548e-21
4.97292e-21
9.93339e-21
1.24376e-20
3.87688e-20
9.99887e-21
2.55159e-21
2.97426e-21
1.28346e-20
1.95188e-20
2.57648e-20
6.13705e-21
2.37364e-20
2.78389e-20
2.85069e-21
3.21722e-21
1.80408e-20
7.90777e-21
3.13102e-21
9.28911e-21
7.6903e-21
3.58594e-21
2.38041e-20
3.50154e-20
5.02782e-21
5.52952e-21
1.15678e-21
1.44642e-21
1.35123e-20
5.81987e-21
4.13469e-21
2.36143e-20
4.06769e-21
9.76937e-21
5.59366e-21
1.15991e-20
1.96311e-21
4.95451e-21
2.36506e-21
2.34706e-22
1.62696e-20
2.28309e-20
5.25648e-22
2.6732e-22
2.8257e-21
5.11564e-21
2.00003e-20
3.99828e-21
6.32943e-21
4.65424e-21
7.75958e-23
7.26239e-20
5.14824e-21
3.2637e-20
5.7915e-21
8.33672e-21
2.27763e-20
1.82834e-21
4.45202e-21
1.87218e-20
8.87987e-22
1.36597e-20
7.59153e-21
3.0453e-21
7.65536e-22
1.61697e-20
2.56627e-20
1.02146e-20
3.58034e-21
1.78592e-22
4.89451e-21
5.53889e-22
2.5939e-20
4.60264e-21
1.15436e-20
7.61862e-21
1.64841e-20
1.92831e-22
2.42065e-20
8.71738e-21
1.76906e-21
2.993e-21
7.91574e-21
9.25901e-21
2.45954e-21
2.76205e-20
1.11912e-20
2.13196e-21
1.0846e-20
9.15304e-21
2.42205e-20
2.54368e-20
1.89078e-20
8.91246e-21
1.00892e-20
8.9636e-23
6.65131e-23
7.21763e-21
1.5141e-20
4.13316e-20
6.19389e-21
1.66381e-20
1.33196e-20
1.23759e-20
1.03706e-20
8.4278e-21
1.58687e-20
5.20959e-22
4.92842e-20
2.31314e-20
3.4274e-21
4.28782e-21
1.88919e-20
1.72382e-20
1.72369e-20
1.9977e-20
8.45531e-22
2.83533e-21
5.85412e-21
6.72489e-21
4.44008e-21
5.91291e-21
1.10055e-20
1.54762e-20
8.16319e-21
1.05856e-20
1.62219e-20
3.94706e-20
1.22004e-20
1.0848e-20
9.28614e-21
6.4992e-22
9.28629e-21
3.2578e-21
1.30868e-20
1.11982e-20
4.23202e-21
1.08804e-20
1.68605e-20
1.06698e-20
2.35215e-21
2.34873e-20
1.0387e-22
2.76734e-21
5.27583e-21
1.54148e-21
9.11875e-21
2.40293e-20
3.61111e-20
2.17348e-20
2.71381e-22
2.09828e-20
3.34748e-21
8.79696e-23
9.95642e-22
1.09515e-21
2.69851e-20
5.90872e-21
9.83631e-23
5.71302e-20
7.24915e-21
1.05489e-20
5.4114e-21
3.86219e-21
9.76493e-22
1.57291e-20
1.96908e-20
4.87858e-21
4.07129e-21
5.97604e-21
8.04838e-22
1.73975e-20
1.07378e-20
1.53222e-20
4.36128e-21
2.18865e-20
7.11473e-21
3.44404e-21
1.722e-22
1.24541e-20
1.07525e-20
6.14061e-21
1.75496e-20
6.01018e-20
2.26984e-20
7.57704e-22
2.37812e-20
1.50335e-20
1.27816e-20
9.4866e-21
5.71295e-21
1.01193e-20
1.44539e-20
3.59435e-21
5.64923e-21
4.01891e-21
7.77508e-21
9.43601e-22
6.57326e-21
1.79759e-20
2.38752e-21
2.82668e-21
7.84945e-21
5.62498e-21
3.10231e-20
3.84776e-20
8.7956e-21
2.17449e-20
5.36298e-21
1.5222e-20
5.36045e-22
1.23734e-20
2.02895e-21
7.51103e-21
9.01501e-22
5.58129e-21
3.83749e-20
1.34899e-20
1.49192e-20
9.89401e-21
6.83933e-22
1.6287e-20
3.80742e-20
4.23846e-21
1.04516e-20
9.87533e-21
1.31675e-21
9.04625e-21
1.7996e-20
1.22625e-22
2.83032e-21
8.34464e-21
5.56065e-21
1.96563e-20
1.11576e-20
2.35192e-20
4.3704e-21
5.66582e-21
5.44768e-21
8.14705e-21
6.399e-21
6.11976e-20
1.94908e-20
3.48597e-20
2.28325e-21
1.35465e-20
1.8213e-20
3.81663e-20
2.25581e-20
2.00867e-21
6.06565e-21
1.9326e-20
6.74884e-21
1.76023e-20
3.95715e-20
1.09175e-20
2.60142e-20
6.41581e-22
2.3113e-20
2.60343e-21
4.58444e-21
1.37672e-20
2.05687e-20
8.18268e-21
1.65143e-20
6.6754e-21
1.31312e-20
3.07741e-20
1.60067e-21
8.23023e-21
1.34773e-20
1.05957e-20
1.391e-20
1.02477e-20
3.11937e-20
1.79875e-20
1.15286e-20
3.93142e-20
5.22764e-21
4.65818e-21
2.5458e-20
1.52553e-21
4.01939e-21
2.46627e-21
7.85758e-22
7.28167e-22
5.20116e-22
3.96188e-21
3.61195e-21
2.12214e-20
1.30153e-20
7.99335e-22
2.15506e-20
3.27591e-21
1.90374e-20
5.85268e-22
4.6292e-21
1.63188e-20
1.56797e-20
2.69886e-20
2.6357e-20
3.19467e-20
7.36853e-21
2.04638e-20
2.10214e-20
2.82892e-21
3.20884e-21
1.61852e-20
6.84142e-22
4.98835e-21
3.90398e-21
8.2031e-21
3.24883e-21
7.06111e-22
1.20076e-21
1.18198e-20
3.05184e-21
1.31692e-20
1.36053e-20
8.02505e-21
9.51334e-21
1.50935e-20
1.08832e-20
3.31198e-21
1.56933e-20
6.60916e-21
4.84649e-21
1.23908e-20
1.4524e-21
4.68046e-21
6.20475e-21
2.4309e-21
7.12183e-23
1.64603e-20
1.19939e-19
1.81128e-21
1.56862e-20
8.31141e-21
4.47163e-21
7.91794e-21
8.93171e-21
1.21248e-21
1.89381e-20
1.56366e-20
6.38871e-21
4.54256e-21
3.51494e-20
2.56858e-21
6.83866e-21
2.72323e-21
7.60032e-21
1.10406e-20
5.81115e-21
2.2949e-20
1.81267e-22
1.36754e-21
3.74119e-21
1.28468e-20
3.16145e-21
1.95512e-20
5.57266e-21
2.23428e-20
3.09202e-21
3.22189e-21
9.30735e-21
2.23324e-21
1.44866e-20
3.35053e-20
1.23089e-21
4.64232e-21
1.06473e-20
2.64032e-21
5.5326e-21
2.58358e-20
3.09941e-21
5.09424e-21
1.27315e-20
5.95304e-21
3.52479e-20
8.67284e-22
4.32459e-20
4.86543e-21
3.47535e-22
5.59795e-21
2.09216e-20
9.67666e-22
4.49852e-21
3.80346e-21
1.65085e-21
3.24353e-21
1.43723e-20
2.02078e-20
1.62155e-20
1.04398e-20
9.81603e-21
3.09851e-20
2.9901e-21
3.07891e-20
1.13397e-20
1.914e-20
9.64719e-21
2.79474e-20
5.27879e-23
1.59102e-20
1.75714e-20
1.26953e-20
3.32301e-20
3.53486e-21
3.80552e-21
1.95143e-20
7.77595e-22
9.47696e-20
1.50504e-20
1.49417e-20
1.10795e-20
7.66621e-21
2.18291e-20
2.78639e-20
2.28755e-21
4.29239e-21
1.08817e-20
8.57753e-21
2.23044e-21
9.11918e-21
2.19111e-20
5.59726e-21
1.03807e-20
8.52058e-22
2.10088e-21
9.47728e-21
1.78868e-20
1.47614e-20
2.52683e-20
1.95672e-21
1.18218e-20
1.07596e-20
8.62148e-23
2.09617e-20
4.85625e-21
4.93794e-22
2.17562e-22
1.36531e-20
1.59983e-21
2.53749e-21
1.59027e-20
2.10986e-20
1.30262e-21
3.92843e-20
1.90295e-20
1.52774e-20
1.57906e-20
2.3064e-20
4.12316e-21
1.07216e-20
4.5922e-21
4.58722e-21
1.25004e-20
2.74823e-21
3.62751e-20
1.7924e-20
4.0779e-21
3.21642e-21
1.07658e-20
7.49216e-21
1.11806e-20
4.79645e-21
5.12428e-22
1.69269e-20
3.82794e-21
3.41709e-21
7.80506e-21
3.39115e-21
7.83981e-21
6.67454e-21
4.15239e-21
8.00852e-21
6.75569e-22
9.73463e-21
4.52268e-21
9.25911e-21
7.71631e-21
4.03742e-21
8.43024e-24
7.94903e-21
2.27971e-20
4.96283e-21
8.87084e-22
2.2964e-21
1.35443e-21
1.18185e-20
6.2756e-21
2.74751e-21
9.01395e-21
1.47807e-22
6.44703e-21
1.10551e-20
2.66254e-22
7.72545e-22
4.70058e-21
2.91015e-21
7.81128e-21
3.5245e-21
3.50074e-21
5.76528e-21
1.11019e-20
2.52198e-21
1.71471e-20
4.4478e-21
2.49138e-20
1.929e-20
3.04912e-20
6.32037e-21
2.52979e-22
9.21951e-21
2.20309e-22
1.1237e-20
1.03352e-20
5.468e-20
2.34549e-20
7.70082e-21
3.37877e-21
5.21771e-21
2.70453e-20
2.69312e-21
8.2518e-21
7.21841e-21
8.13044e-21
1.17591e-20
6.82008e-21
3.00504e-22
9.02362e-21
5.95535e-21
2.09304e-21
3.37336e-21
3.9983e-20
1.52674e-20
8.2473e-21
1.00976e-21
4.54393e-21
2.49706e-20
4.04828e-21
4.90189e-21
1.51787e-20
4.36761e-20
1.38717e-20
2.8855e-22
5.10307e-20
8.28686e-21
2.1309e-21
1.20883e-20
5.27007e-20
8.15078e-21
2.06368e-20
2.88111e-21
1.09722e-21
2.17733e-21
3.08333e-22
1.90352e-20
2.17201e-21
3.32501e-21
1.70628e-20
6.85419e-21
2.46487e-21
3.74812e-21
1.58716e-20
4.00754e-21
2.06525e-20
3.55503e-21
1.18462e-21
1.20151e-21
1.21581e-21
3.96846e-21
7.87616e-21
4.27395e-21
1.24265e-20
6.80065e-21
2.1063e-20
5.49091e-21
1.03402e-21
5.5315e-22
1.67826e-20
2.1144e-20
1.2937e-21
2.70901e-21
1.21436e-21
2.24986e-22
4.31865e-21
7.99347e-22
1.09375e-21
5.11242e-21
6.06478e-21
6.65357e-21
6.87146e-21
2.04569e-21
8.96653e-21
6.01092e-21
7.32273e-21
3.00542e-21
5.82916e-21
2.18611e-20
5.26469e-21
8.42995e-22
6.24198e-21
3.96214e-21
4.75053e-20
3.01216e-20
4.69424e-21
9.06453e-21
1.85277e-20
3.23811e-21
2.77088e-21
9.83343e-21
3.7627e-21
9.9841e-21
2.92392e-21
1.84619e-21
4.74008e-21
1.93818e-20
2.16209e-20
2.47831e-21
3.34206e-21
3.94668e-22
6.33723e-21
4.8759e-21
4.43116e-21
1.64362e-20
8.8712e-22
2.06213e-21
2.35976e-20
1.00204e-20
1.40981e-21
7.99078e-21
1.34319e-21
2.38264e-21
8.03777e-21
1.57853e-20
2.72803e-21
1.6668e-20
2.15354e-20
4.9821e-20
1.56031e-20
2.04957e-21
4.40539e-20
4.9329e-21
1.17043e-20
6.35151e-21
1.38481e-21
3.18659e-20
2.77679e-20
5.50412e-21
1.43417e-20
9.12097e-21
5.28816e-21
4.16922e-22
2.20474e-20
5.46607e-21
3.2746e-20
2.19588e-21
9.80866e-22
2.86086e-20
2.61066e-21
4.21518e-21
1.38502e-20
9.859e-21
1.15889e-20
5.85515e-21
3.24832e-21
3.19977e-20
1.03355e-20
3.78663e-22
1.71992e-20
4.65723e-21
1.14278e-20
6.19508e-21
1.86881e-20
1.06734e-20
4.88197e-21
2.43629e-21
3.12439e-20
3.11079e-21
6.76884e-22
3.24901e-20
1.38708e-23
9.80041e-22
8.08084e-21
9.58263e-21
4.40153e-21
5.08764e-20
3.5322e-21
1.45247e-20
1.54695e-20
1.54148e-20
5.4693e-22
2.0069e-21
7.86401e-21
1.45964e-20
1.20482e-21
2.30454e-21
2.5654e-20
1.39346e-20
3.31456e-21
1.5108e-20
6.91374e-21
2.23521e-20
7.92122e-22
8.35336e-22
3.5663e-20
2.26241e-21
7.66329e-21
5.3337e-20
1.38133e-20
3.03333e-20
2.12917e-20
2.22192e-20
4.10845e-21
1.36381e-21
2.05066e-21
9.03114e-21
7.55794e-21
2.00649e-20
2.42232e-20
7.77583e-22
1.89164e-21
2.06231e-20
6.88045e-21
2.65514e-21
1.65225e-20
4.25371e-21
7.40009e-21
6.61992e-21
2.3724e-20
7.56466e-21
1.13138e-20
5.43557e-21
1.30446e-20
5.56466e-20
8.551e-21
7.30879e-21
7.23738e-21
1.21193e-21
3.02128e-20
4.21065e-21
4.26236e-21
9.87912e-22
1.96486e-20
3.15785e-21
7.91631e-21
1.63185e-20
1.07861e-21
5.3334e-21
6.63351e-21
1.09961e-20
2.31629e-21
2.83606e-21
1.06709e-20
5.48902e-21
8.06273e-22
1.59001e-21
2.99414e-21
1.91853e-21
1.15397e-20
1.18271e-20
1.88522e-21
1.2458e-20
2.13801e-21
6.21923e-20
1.78106e-20
7.64596e-21
6.64481e-21
5.76792e-21
7.22604e-21
3.305e-22
9.56619e-21
1.32972e-23
7.8532e-21
1.3674e-21
1.19026e-20
2.83181e-21
1.09423e-20
1.53544e-20
2.59313e-21
1.48814e-21
2.4362e-20
6.85412e-21
1.1129e-20
1.00015e-21
2.46834e-21
5.7854e-20
2.46103e-20
2.76768e-21
1.61918e-20
9.75235e-21
1.32191e-20
2.83942e-21
3.69813e-21
1.44992e-20
1.29281e-20
5.75362e-21
4.30919e-20
2.74534e-20
1.41371e-20
2.92835e-22
8.82967e-21
4.1148e-22
5.58593e-21
1.2267e-20
4.41107e-20
3.95977e-20
1.52185e-20
2.34284e-21
2.67835e-21
1.09831e-20
2.23526e-20
1.8818e-21
1.71611e-20
2.2581e-20
3.90968e-22
5.57838e-20
1.77742e-21
1.79321e-21
1.73609e-20
1.671e-20
2.57291e-21
3.74752e-21
1.67685e-20
1.54462e-21
2.20138e-21
3.04289e-20
1.20772e-20
1.12985e-20
1.7507e-20
4.98985e-21
4.00072e-20
1.83859e-20
7.53605e-22
1.03577e-21
1.94742e-20
1.58687e-20
1.10322e-20
1.16933e-20
1.4131e-20
9.60736e-21
1.18232e-20
9.22328e-21
1.94136e-21
1.97017e-21
6.56555e-21
2.18582e-21
4.99906e-21
2.964e-20
4.76906e-21
7.40339e-21
1.31246e-20
1.00641e-21
3.51644e-22
5.34864e-21
2.76273e-22
1.80816e-20
1.5547e-20
4.49845e-21
3.16438e-20
1.28913e-21
1.09856e-20
1.27274e-20
2.47135e-20
3.79106e-20
7.35168e-21
3.44879e-21
1.42149e-20
1.40849e-20
3.18347e-20
9.26066e-20
5.00265e-21
1.75372e-22
7.58786e-21
4.94645e-21
1.72289e-20
2.1985e-20
2.73997e-21
8.44818e-23
1.39479e-20
5.31541e-21
1.58335e-20
4.42328e-21
1.35628e-20
1.85842e-21
4.06449e-21
7.22417e-21
3.08981e-21
4.15975e-21
1.71131e-20
7.15274e-21
4.83386e-21
8.89657e-21
1.26072e-20
1.42682e-20
2.45304e-20
7.52832e-21
2.65923e-20
1.57913e-22
2.1282e-20
2.72671e-22
1.00235e-20
6.07207e-21
7.41025e-21
2.44793e-20
8.89029e-21
4.21651e-20
2.24113e-20
2.47287e-21
2.82756e-20
1.00898e-20
2.20588e-21
1.41407e-20
1.26126e-20
5.11573e-21
1.06373e-20
4.50264e-21
3.90025e-21
1.06339e-20
4.99858e-21
5.7194e-20
9.87925e-22
3.37169e-20
1.03321e-20
2.07054e-20
2.5782e-20
7.83259e-21
4.96545e-21
1.38264e-20
2.09003e-20
7.03871e-22