/*--------------------------------*- C++ -*----------------------------------*\
  =========                 |
  \\      /  F ield         | OpenFOAM: The Open Source CFD Toolbox
   \\    /   O peration     | Website:  https://openfoam.org
    \\  /    A nd           | Version:  7
     \\/     M anipulation  |
\*---------------------------------------------------------------------------*/
FoamFile
{
    version     2.0;
    format      ascii;
    class       labelField;
    location    "0.02/lagrangian/dsmc";
    object      origId;
}
// * * * * * * * * * * * * * * * * * * * * * * * * * * * * * * * * * * * * * //


280138
(
0
13
18
19
29
40
41
44
55
57
61
67
69
71
74
75
76
78
82
83
85
86
87
88
93
95
97
99
100
103
105
106
110
113
118
122
123
128
129
131
133
135
139
148
149
151
156
160
164
168
171
172
174
176
185
188
189
201
212
224
226
234
235
238
239
241
242
244
249
256
258
260
265
266
267
270
274
277
281
283
285
287
291
292
294
301
304
305
307
315
316
324
331
334
335
337
339
348
351
353
354
359
360
366
382
386
388
392
393
405
410
430
434
440
441
442
446
447
450
453
456
462
465
466
472
473
474
483
486
488
500
506
507
508
517
522
526
531
534
540
546
549
550
566
567
576
579
582
587
588
590
593
594
599
609
617
618
629
635
636
637
640
646
647
654
656
657
662
676
681
683
684
698
706
708
710
714
715
717
726
735
737
740
741
746
748
753
757
763
764
765
767
773
777
782
788
790
795
796
804
806
808
822
823
827
835
843
845
859
865
866
868
871
879
887
889
891
893
902
904
907
910
915
916
920
923
924
926
927
929
932
935
940
947
948
953
958
960
961
964
969
970
971
975
984
985
996
998
1006
1015
1017
1021
1031
1034
1037
1038
1042
1049
1050
1052
1058
1059
1061
1071
1075
1078
1083
1084
1086
1092
1106
1107
1113
1114
1118
1121
1123
1127
1131
1135
1137
1153
1175
1181
1187
1195
1196
1197
1199
1205
1206
1208
1209
1210
1213
1215
1219
1221
1223
1225
1227
1230
1235
1237
1242
1246
1250
1256
1258
1259
1260
1263
1264
1272
1274
1289
1290
1300
1302
1306
1311
1322
1325
1330
1332
1338
1341
1344
1345
1348
1349
1351
1366
1372
1373
1375
1379
1380
1383
1393
1400
1410
1411
1413
1417
1422
1428
1432
1434
1442
1448
1453
1454
1455
1463
1465
1466
1467
1470
1473
1481
1484
1487
1489
1490
1492
1493
1498
1507
1509
1510
1513
1514
1536
1544
1549
1550
1551
1552
1554
1558
1562
1568
1571
1588
1595
1599
1604
1608
1609
1612
1616
1621
1625
1628
1629
1644
1646
1647
1650
1654
1657
1662
1666
1667
1668
1669
1671
1672
1679
1683
1686
1688
1697
1704
1707
1708
1711
1712
1722
1724
1726
1734
1736
1737
1739
1740
1746
1748
1751
1755
1759
1762
1764
1766
1772
1776
1777
1778
1786
1787
1790
1794
1797
1808
1822
1826
1833
1836
1841
1845
1849
1850
1851
1868
1869
1871
1872
1875
1879
1885
1889
1890
1891
1898
1902
1905
1906
1911
1917
1919
1931
1933
1934
1935
1938
1945
1951
1955
1971
1973
1976
1978
1985
1987
1992
1998
2000
2010
2018
2019
2024
2025
2038
2039
2053
2056
2059
2069
2078
2083
2084
2087
2088
2091
2100
2104
2105
2106
2113
2115
2126
2129
2138
2143
2146
2154
2155
2159
2160
2161
2162
2170
2172
2173
2178
2180
2183
2189
2200
2201
2202
2209
2215
2217
2225
2233
2236
2237
2241
2242
2244
2247
2250
2257
2260
2263
2265
2272
2274
2275
2276
2279
2285
2286
2291
2292
2302
2307
2314
2319
2320
2323
2328
2333
2336
2343
2345
2350
2365
2366
2371
2373
2375
2383
2386
2390
2392
2395
2397
2399
2405
2411
2412
2417
2419
2423
2424
2425
2428
2431
2433
2445
2449
2454
2464
2480
2481
2486
2488
2491
2493
2507
2513
2518
2520
2521
2525
2528
2541
2544
2547
2555
2557
2558
2560
2562
2567
2582
2583
2597
2602
2605
2609
2614
2617
2620
2626
2631
2633
2635
2636
2639
2640
2641
2645
2653
2654
2657
2664
2665
2680
2683
2684
2687
2693
2695
2696
2697
2699
2703
2705
2707
2724
2727
2732
2744
2750
2751
2754
2756
2770
2771
2773
2779
2782
2784
2787
2789
2791
2794
2798
2805
2823
2824
2831
2833
2837
2838
2843
2846
2847
2849
2852
2853
2864
2874
2875
2885
2893
2894
2898
2912
2917
2919
2921
2922
2925
2937
2938
2940
2941
2943
2947
2950
2961
2978
2986
2993
3004
3006
3008
3010
3019
3024
3030
3031
3034
3047
3051
3054
3058
3060
3064
3068
3070
3075
3077
3079
3082
3086
3088
3097
3113
3115
3119
3125
3126
3137
3141
3143
3148
3149
3150
3153
3155
3157
3169
3171
3172
3175
3179
3182
3184
3186
3188
3202
3205
3206
3212
3215
3219
3225
3226
3230
3231
3243
3245
3246
3249
3250
3268
3274
3276
3282
3286
3288
3292
3293
3296
3299
3300
3302
3304
3308
3309
3311
3314
3323
3326
3328
3329
3331
3334
3337
3341
3346
3347
3350
3355
3357
3360
3361
3369
3371
3375
3376
3380
3381
3389
3391
3395
3406
3412
3420
3424
3432
3433
3436
3445
3448
3452
3453
3455
3457
3461
3469
3477
3495
3498
3499
3503
3505
3513
3517
3535
3541
3542
3543
3544
3545
3547
3548
3559
3563
3564
3565
3566
3572
3573
3574
3579
3584
3587
3599
3601
3607
3609
3617
3620
3625
3632
3633
3636
3637
3639
3648
3649
3650
3653
3670
3681
3685
3686
3688
3691
3692
3693
3698
3699
3704
3709
3720
3725
3728
3730
3737
3738
3752
3757
3764
3766
3767
3768
3773
3774
3778
3782
3785
3797
3806
3819
3825
3832
3838
3841
3847
3849
3851
3852
3853
3858
3862
3864
3869
3874
3876
3880
3885
3894
3895
3902
3903
3910
3912
3915
3920
3929
3931
3936
3939
3940
3944
3948
3950
3953
3957
3960
3972
3978
3981
3984
3991
3994
3995
3998
4008
4009
4010
4012
4017
4018
4019
4020
4023
4025
4026
4031
4032
4034
4035
4048
4056
4057
4061
4064
4066
4067
4069
4072
4078
4080
4081
4088
4089
4093
4094
4097
4098
4100
4101
4103
4106
4107
4108
4114
4121
4128
4132
4135
4137
4142
4147
4152
4158
4159
4173
4178
4179
4188
4194
4198
4199
4200
4204
4214
4217
4221
4227
4235
4245
4247
4248
4258
4261
4269
4285
4287
4291
4295
4300
4303
4304
4306
4308
4320
4321
4329
4331
4334
4341
4345
4347
4348
4349
4352
4353
4355
4356
4372
4377
4382
4396
4406
4417
4419
4420
4421
4448
4450
4461
4462
4472
4476
4478
4481
4483
4488
4489
4499
4503
4507
4511
4517
4520
4527
4534
4536
4539
4543
4551
4553
4556
4561
4567
4568
4570
4574
4577
4579
4584
4600
4603
4604
4616
4621
4624
4638
4642
4652
4658
4660
4666
4667
4671
4677
4682
4699
4702
4710
4711
4719
4721
4722
4726
4727
4729
4734
4735
4738
4739
4740
4746
4747
4749
4752
4758
4767
4776
4778
4779
4782
4787
4790
4791
4796
4798
4799
4811
4812
4813
4817
4818
4821
4825
4826
4828
4835
4836
4845
4847
4848
4850
4851
4852
4857
4861
4862
4866
4872
4876
4879
4880
4884
4887
4889
4892
4893
4897
4902
4905
4907
4913
4915
4920
4921
4923
4924
4926
4928
4930
4938
4941
4963
4967
4970
4974
4981
4989
4992
4993
4996
4999
5004
5005
5006
5007
5011
5012
5013
5018
5022
5024
5027
5030
5031
5036
5040
5044
5046
5048
5055
5056
5057
5065
5066
5074
5077
5078
5081
5083
5089
5090
5091
5096
5097
5103
5105
5109
5114
5120
5123
5126
5129
5132
5133
5144
5156
5163
5172
5175
5191
5194
5196
5200
5207
5210
5211
5218
5219
5220
5223
5226
5235
5245
5250
5255
5267
5271
5273
5287
5289
5294
5296
5300
5303
5306
5311
5312
5314
5315
5317
5321
5325
5327
5328
5330
5332
5337
5342
5354
5360
5362
5363
5364
5368
5372
5373
5380
5387
5388
5390
5403
5404
5407
5411
5416
5430
5432
5433
5446
5451
5452
5458
5460
5461
5465
5468
5471
5476
5478
5483
5491
5498
5502
5506
5510
5513
5517
5528
5530
5535
5541
5544
5546
5547
5548
5552
5560
5565
5567
5569
5570
5574
5576
5578
5585
5592
5608
5614
5621
5628
5629
5648
5651
5653
5667
5670
5671
5673
5674
5676
5679
5682
5695
5696
5697
5703
5706
5716
5718
5727
5733
5741
5749
5754
5755
5756
5757
5769
5772
5778
5782
5786
5789
5790
5798
5801
5807
5808
5816
5818
5821
5823
5825
5826
5829
5831
5839
5845
5846
5851
5860
5870
5876
5877
5878
5879
5880
5882
5884
5900
5906
5917
5918
5919
5921
5933
5935
5937
5940
5944
5945
5951
5966
5976
5977
5983
5987
5995
6001
6004
6006
6009
6017
6020
6025
6027
6032
6034
6037
6050
6052
6057
6060
6086
6095
6107
6113
6115
6118
6120
6126
6136
6139
6144
6148
6149
6156
6158
6159
6160
6162
6176
6187
6188
6191
6193
6202
6207
6208
6212
6214
6221
6245
6246
6247
6250
6255
6257
6264
6268
6271
6274
6280
6282
6283
6284
6286
6289
6291
6297
6309
6314
6319
6320
6325
6326
6330
6334
6335
6338
6342
6346
6351
6355
6358
6359
6364
6372
6373
6376
6377
6379
6382
6383
6384
6388
6396
6398
6414
6417
6421
6422
6431
6432
6433
6434
6437
6445
6452
6466
6467
6468
6474
6478
6484
6485
6490
6493
6494
6498
6499
6500
6505
6506
6507
6508
6515
6519
6524
6529
6539
6542
6544
6548
6550
6555
6557
6566
6570
6571
6579
6588
6594
6608
6609
6612
6613
6616
6620
6625
6626
6629
6632
6640
6641
6647
6650
6652
6670
6671
6672
6674
6680
6683
6689
6693
6695
6696
6701
6704
6707
6710
6713
6718
6722
6725
6727
6728
6734
6739
6741
6743
6748
6749
6750
6754
6757
6759
6760
6761
6763
6765
6774
6782
6783
6806
6807
6810
6812
6814
6818
6823
6824
6833
6835
6841
6842
6855
6857
6858
6859
6866
6867
6870
6871
6879
6882
6892
6896
6899
6904
6905
6907
6909
6910
6916
6919
6920
6924
6937
6943
6947
6949
6955
6957
6967
6978
6980
6981
6983
6989
6999
7003
7006
7008
7010
7012
7014
7018
7020
7021
7029
7038
7039
7044
7046
7047
7050
7056
7059
7060
7066
7067
7068
7069
7088
7089
7090
7097
7106
7110
7111
7112
7113
7115
7119
7121
7122
7137
7144
7145
7149
7154
7156
7157
7160
7163
7167
7190
7191
7196
7197
7198
7201
7202
7206
7217
7226
7233
7238
7239
7242
7248
7249
7250
7251
7252
7261
7262
7265
7266
7271
7279
7282
7283
7289
7294
7297
7305
7310
7312
7320
7325
7326
7331
7336
7339
7343
7344
7350
7355
7359
7369
7372
7375
7377
7379
7380
7385
7388
7390
7391
7392
7393
7401
7407
7410
7412
7413
7416
7419
7439
7447
7450
7452
7458
7460
7461
7462
7463
7468
7470
7478
7480
7482
7485
7492
7494
7498
7501
7503
7504
7506
7507
7510
7512
7519
7521
7524
7526
7527
7531
7532
7533
7538
7546
7551
7552
7561
7570
7583
7585
7593
7594
7603
7604
7608
7612
7613
7616
7617
7619
7623
7627
7637
7640
7641
7645
7649
7650
7652
7663
7666
7683
7685
7691
7698
7702
7704
7705
7706
7712
7722
7726
7728
7729
7735
7743
7744
7751
7758
7764
7765
7768
7771
7774
7776
7777
7787
7792
7799
7802
7803
7804
7805
7806
7809
7812
7813
7823
7824
7827
7829
7832
7836
7838
7839
7842
7845
7846
7863
7877
7880
7883
7889
7896
7905
7907
7911
7917
7921
7924
7928
7930
7944
7950
7953
7954
7957
7958
7961
7962
7964
7965
7966
7970
7975
7977
7982
7983
7984
7996
7998
8002
8004
8005
8006
8007
8008
8009
8011
8012
8015
8023
8031
8034
8036
8038
8040
8044
8048
8050
8061
8062
8063
8066
8070
8073
8075
8083
8099
8105
8113
8118
8121
8126
8131
8137
8152
8156
8159
8165
8167
8171
8177
8181
8186
8190
8196
8197
8199
8211
8213
8216
8222
8236
8237
8238
8240
8241
8243
8248
8254
8257
8258
8261
8267
8274
8281
8282
8286
8288
8292
8295
8300
8304
8305
8308
8309
8313
8326
8327
8329
8336
8340
8342
8350
8352
8356
8361
8363
8366
8370
8373
8377
8378
8393
8403
8410
8415
8422
8433
8438
8443
8444
8446
8447
8448
8461
8463
8471
8474
8475
8481
8490
8491
8497
8502
8509
8515
8525
8528
8531
8532
8538
8539
8543
8549
8550
8551
8557
8558
8564
8565
8569
8573
8587
8590
8596
8598
8599
8606
8609
8612
8614
8615
8618
8623
8626
8627
8631
8632
8637
8641
8642
8646
8649
8651
8655
8657
8664
8674
8675
8678
8686
8687
8690
8693
8696
8698
8699
8701
8703
8706
8709
8719
8722
8723
8727
8729
8730
8732
8733
8736
8737
8738
8741
8744
8745
8747
8756
8758
8773
8774
8784
8786
8792
8795
8796
8798
8799
8800
8810
8813
8814
8818
8819
8821
8822
8831
8833
8836
8840
8846
8850
8851
8853
8855
8859
8860
8863
8865
8866
8870
8871
8872
8875
8877
8880
8882
8897
8898
8899
8911
8918
8920
8923
8924
8928
8936
8950
8956
8958
8959
8963
8964
8965
8967
8971
8972
8980
8984
8988
8989
8993
8995
8996
8997
9002
9007
9012
9014
9016
9018
9020
9023
9024
9029
9030
9031
9046
9047
9049
9055
9059
9060
9063
9067
9069
9074
9075
9077
9078
9080
9085
9086
9089
9091
9100
9111
9112
9116
9118
9121
9123
9131
9138
9139
9145
9146
9155
9158
9161
9163
9172
9179
9180
9181
9186
9189
9192
9193
9196
9203
9204
9205
9206
9207
9211
9219
9222
9226
9240
9242
9246
9249
9251
9254
9262
9263
9267
9269
9271
9280
9282
9286
9287
9289
9290
9296
9298
9303
9311
9315
9316
9319
9320
9325
9330
9333
9338
9339
9347
9358
9362
9369
9372
9382
9383
9391
9396
9402
9403
9411
9418
9425
9429
9430
9431
9438
9440
9449
9451
9453
9457
9466
9472
9475
9480
9483
9485
9490
9493
9494
9495
9501
9503
9511
9514
9516
9522
9523
9531
9543
9557
9560
9566
9567
9568
9569
9571
9575
9576
9584
9586
9591
9601
9616
9617
9620
9626
9627
9638
9649
9654
9656
9662
9667
9676
9677
9678
9685
9688
9692
9694
9698
9702
9703
9709
9710
9711
9715
9716
9718
9722
9725
9735
9741
9742
9747
9750
9751
9756
9761
9764
9766
9776
9783
9796
9797
9800
9801
9802
9805
9818
9819
9821
9828
9829
9831
9839
9844
9848
9849
9855
9868
9873
9874
9877
9879
9882
9883
9891
9895
9903
9904
9908
9910
9911
9918
9924
9925
9926
9930
9935
9938
9942
9947
9949
9958
9973
9977
9986
9989
9994
9996
9999
10004
10006
10007
10010
10012
10020
10025
10027
10028
10034
10037
10040
10041
10046
10052
10054
10055
10057
10058
10060
10070
10073
10075
10077
10078
10089
10093
10111
10119
10121
10122
10123
10126
10131
10132
10142
10151
10155
10159
10174
10177
10188
10189
10192
10194
10209
10210
10213
10217
10229
10238
10239
10257
10258
10259
10264
10267
10273
10275
10276
10288
10290
10295
10304
10307
10309
10314
10318
10322
10326
10327
10328
10334
10341
10342
10343
10344
10368
10373
10380
10383
10384
10389
10391
10393
10394
10395
10401
10402
10404
10410
10413
10422
10428
10430
10431
10433
10439
10440
10444
10448
10450
10451
10453
10454
10456
10458
10460
10461
10463
10468
10475
10479
10480
10482
10483
10484
10487
10488
10490
10497
10508
10510
10511
10515
10518
10519
10523
10524
10526
10529
10534
10535
10537
10540
10541
10545
10547
10551
10555
10558
10559
10564
10574
10579
10580
10585
10588
10589
10592
10595
10597
10600
10602
10603
10606
10610
10611
10614
10621
10628
10630
10631
10634
10644
10646
10647
10656
10660
10671
10672
10674
10675
10682
10683
10687
10694
10695
10701
10702
10704
10707
10711
10712
10716
10717
10718
10720
10723
10725
10728
10734
10744
10746
10747
10755
10756
10763
10770
10781
10784
10788
10794
10795
10798
10802
10812
10814
10821
10822
10823
10832
10836
10837
10842
10846
10854
10867
10871
10879
10882
10885
10895
10898
10901
10903
10910
10925
10930
10934
10935
10937
10949
10961
10966
10970
10978
10980
10982
10985
10991
10994
11001
11002
11013
11016
11022
11026
11029
11032
11033
11034
11038
11044
11047
11058
11060
11062
11067
11068
11070
11073
11079
11085
11087
11089
11090
11093
11099
11100
11105
11109
11114
11115
11117
11119
11124
11128
11131
11132
11134
11135
11139
11140
11147
11150
11152
11156
11162
11166
11172
11173
11176
11183
11189
11197
11199
11200
11202
11205
11207
11213
11214
11215
11216
11217
11224
11227
11228
11231
11237
11239
11240
11242
11250
11251
11252
11257
11266
11268
11269
11270
11275
11276
11282
11286
11288
11294
11306
11309
11317
11327
11331
11343
11344
11346
11348
11355
11357
11359
11360
11362
11364
11366
11382
11384
11389
11390
11393
11398
11401
11404
11405
11411
11417
11430
11431
11433
11441
11448
11449
11455
11456
11467
11470
11471
11483
11489
11491
11496
11497
11500
11502
11511
11518
11526
11531
11541
11543
11544
11549
11551
11558
11564
11565
11567
11568
11573
11579
11580
11583
11587
11588
11590
11598
11604
11608
11611
11614
11617
11629
11635
11644
11650
11656
11659
11661
11672
11677
11683
11691
11692
11693
11698
11704
11708
11717
11718
11722
11728
11730
11734
11736
11741
11746
11754
11756
11759
11764
11771
11772
11780
11784
11787
11788
11793
11805
11806
11813
11817
11830
11846
11847
11858
11881
11888
11898
11905
11921
11926
11927
11942
11944
11946
11947
11950
11953
11961
11963
11968
11977
11981
11985
11988
11997
11999
12002
12017
12040
12041
12051
12058
12068
12071
12077
12088
12093
12097
12098
12099
12106
12112
12119
12122
12132
12140
12144
12147
12157
12161
12163
12173
12181
12192
12197
12199
12201
12206
12207
12209
12212
12224
12226
12228
12231
12232
12235
12239
12244
12247
12249
12253
12257
12267
12269
12272
12273
12274
12291
12300
12301
12313
12315
12323
12333
12335
12337
12341
12345
12356
12357
12358
12366
12367
12379
12385
12387
12389
12390
12393
12397
12400
12405
12407
12408
12410
12416
12427
12436
12444
12447
12450
12452
12453
12454
12460
12466
12467
12474
12476
12478
12481
12483
12484
12492
12493
12494
12496
12500
12508
12511
12514
12515
12519
12521
12522
12524
12527
12528
12533
12536
12540
12542
12544
12548
12554
12558
12560
12561
12577
12582
12584
12588
12592
12593
12597
12598
12604
12613
12616
12617
12623
12631
12636
12639
12642
12646
12647
12649
12655
12657
12658
12661
12667
12668
12674
12676
12678
12681
12685
12687
12692
12695
12701
12706
12714
12716
12718
12719
12728
12730
12731
12734
12748
12762
12764
12766
12777
12778
12790
12791
12793
12798
12802
12804
12808
12810
12812
12816
12826
12830
12833
12842
12843
12849
12866
12867
12877
12878
12892
12897
12900
12903
12904
12905
12907
12911
12913
12918
12926
12927
12929
12933
12934
12947
12954
12960
12962
12966
12972
12973
12976
12977
12978
12981
12986
12990
12993
12994
12998
13002
13007
13012
13019
13020
13029
13030
13033
13035
13045
13051
13057
13060
13061
13063
13066
13067
13072
13083
13085
13086
13087
13088
13093
13095
13097
13108
13109
13112
13113
13115
13120
13124
13125
13129
13130
13131
13133
13143
13148
13150
13151
13153
13156
13163
13170
13179
13185
13186
13192
13193
13195
13196
13204
13208
13222
13226
13228
13246
13248
13250
13251
13252
13253
13260
13264
13266
13268
13273
13275
13279
13288
13289
13293
13295
13297
13302
13310
13311
13312
13313
13317
13318
13321
13324
13325
13326
13330
13332
13333
13341
13350
13355
13368
13371
13374
13375
13376
13382
13383
13386
13388
13396
13397
13400
13404
13409
13419
13420
13421
13431
13438
13443
13444
13445
13450
13454
13456
13457
13469
13470
13475
13477
13479
13480
13488
13490
13491
13502
13512
13517
13521
13522
13523
13524
13526
13528
13533
13535
13539
13548
13549
13551
13558
13562
13573
13575
13577
13584
13591
13597
13598
13600
13604
13609
13611
13612
13613
13618
13631
13634
13635
13640
13643
13644
13650
13653
13657
13659
13664
13666
13674
13677
13686
13693
13695
13697
13698
13699
13701
13702
13706
13708
13709
13710
13712
13718
13721
13722
13724
13734
13737
13739
13741
13746
13748
13751
13752
13753
13755
13756
13757
13758
13766
13767
13773
13793
13794
13795
13800
13801
13805
13810
13814
13817
13821
13822
13831
13835
13836
13842
13845
13856
13857
13858
13867
13870
13871
13878
13880
13882
13883
13887
13891
13895
13899
13905
13909
13911
13913
13923
13924
13925
13926
13933
13938
13944
13945
13950
13960
13963
13968
13971
13973
13981
13985
13990
13992
13996
14006
14019
14020
14024
14029
14032
14033
14036
14040
14047
14055
14057
14058
14060
14061
14062
14063
14068
14071
14074
14082
14084
14090
14095
14103
14104
14105
14107
14116
14118
14120
14125
14136
14140
14146
14152
14153
14160
14162
14169
14177
14178
14184
14187
14192
14195
14199
14204
14206
14208
14211
14212
14215
14222
14229
14230
14233
14235
14236
14239
14243
14245
14247
14250
14260
14261
14271
14281
14292
14301
14303
14305
14306
14313
14320
14322
14324
14331
14333
14342
14349
14356
14365
14366
14367
14380
14388
14394
14395
14396
14398
14405
14418
14426
14438
14440
14445
14450
14452
14455
14456
14457
14464
14475
14477
14485
14486
14490
14492
14493
14495
14498
14507
14509
14510
14512
14520
14525
14526
14529
14532
14538
14539
14547
14551
14552
14554
14564
14568
14571
14574
14576
14582
14588
14598
14599
14601
14602
14603
14610
14613
14614
14617
14623
14629
14638
14642
14646
14647
14648
14652
14653
14667
14668
14673
14678
14685
14694
14696
14697
14700
14706
14708
14709
14717
14721
14727
14729
14732
14734
14737
14740
14746
14749
14755
14756
14758
14762
14766
14767
14788
14790
14800
14810
14820
14830
14834
14838
14843
14845
14855
14856
14861
14866
14869
14872
14877
14881
14885
14889
14893
14899
14902
14904
14918
14920
14926
14929
14936
14941
14948
14951
14952
14961
14969
14972
14975
14976
14987
14989
14990
14991
14993
14997
15004
15009
15011
15012
15016
15022
15038
15045
15047
15048
15049
15050
15054
15059
15062
15066
15068
15079
15085
15096
15108
15112
15113
15118
15124
15125
15127
15136
15139
15157
15160
15161
15166
15167
15170
15172
15174
15176
15185
15199
15210
15212
15213
15218
15222
15225
15226
15231
15232
15237
15239
15245
15250
15252
15254
15259
15262
15264
15265
15270
15272
15273
15280
15284
15291
15293
15295
15298
15299
15301
15305
15308
15312
15317
15318
15322
15326
15333
15335
15337
15345
15348
15357
15358
15363
15366
15369
15373
15374
15378
15383
15388
15391
15393
15397
15401
15414
15417
15431
15432
15439
15450
15451
15456
15459
15473
15475
15482
15484
15489
15503
15506
15507
15508
15512
15514
15515
15518
15523
15527
15529
15530
15533
15534
15538
15539
15540
15541
15542
15546
15549
15554
15562
15567
15572
15573
15574
15587
15590
15591
15593
15594
15602
15607
15614
15615
15623
15625
15627
15629
15638
15644
15652
15653
15657
15662
15663
15664
15670
15673
15674
15676
15683
15687
15692
15696
15703
15706
15720
15721
15724
15727
15728
15736
15737
15739
15743
15752
15756
15763
15766
15778
15781
15785
15793
15796
15808
15817
15822
15828
15829
15843
15847
15851
15852
15855
15863
15867
15876
15887
15889
15891
15892
15893
15896
15899
15904
15919
15926
15935
15936
15938
15941
15942
15944
15950
15951
15958
15961
15967
15969
15978
15979
15982
15985
16000
16002
16005
16006
16007
16008
16014
16029
16042
16053
16066
16069
16071
16075
16087
16088
16089
16094
16098
16109
16110
16113
16114
16119
16120
16128
16131
16133
16136
16138
16143
16145
16152
16154
16157
16170
16172
16178
16179
16181
16183
16186
16188
16190
16192
16194
16202
16203
16209
16211
16217
16224
16225
16231
16235
16237
16238
16239
16243
16244
16246
16250
16254
16255
16257
16262
16263
16264
16271
16281
16283
16286
16287
16292
16295
16297
16303
16304
16305
16307
16309
16314
16316
16331
16332
16333
16335
16336
16337
16338
16343
16344
16353
16360
16362
16363
16367
16375
16397
16400
16419
16420
16426
16432
16438
16439
16442
16452
16453
16463
16464
16468
16470
16472
16475
16476
16477
16480
16483
16484
16485
16488
16497
16501
16502
16503
16516
16519
16521
16522
16530
16533
16535
16537
16538
16540
16542
16543
16544
16551
16554
16560
16565
16566
16567
16574
16576
16577
16586
16591
16595
16598
16600
16603
16608
16619
16621
16630
16634
16637
16639
16640
16645
16648
16653
16660
16661
16664
16665
16666
16667
16668
16669
16671
16673
16674
16678
16690
16691
16699
16704
16705
16708
16711
16713
16721
16730
16735
16736
16744
16746
16762
16772
16778
16783
16785
16788
16791
16793
16802
16803
16808
16810
16811
16818
16827
16831
16836
16838
16840
16844
16852
16857
16860
16862
16865
16868
16874
16881
16883
16884
16893
16901
16903
16904
16909
16910
16911
16935
16941
16952
16955
16957
16964
16965
16966
16978
16981
16985
16987
16988
16989
16994
16997
16999
17001
17009
17018
17023
17033
17037
17040
17044
17046
17063
17072
17076
17078
17079
17092
17094
17098
17099
17100
17102
17103
17104
17109
17111
17118
17119
17121
17123
17139
17142
17143
17150
17154
17156
17166
17167
17170
17171
17173
17174
17180
17181
17182
17188
17189
17192
17196
17201
17202
17203
17205
17206
17207
17208
17217
17218
17221
17226
17228
17229
17232
17237
17238
17239
17240
17251
17268
17270
17271
17272
17275
17277
17279
17280
17282
17284
17292
17297
17299
17302
17303
17306
17309
17312
17313
17327
17329
17331
17333
17338
17348
17352
17353
17359
17363
17365
17366
17370
17382
17393
17397
17398
17399
17405
17406
17410
17411
17416
17424
17430
17435
17437
17438
17443
17446
17450
17458
17464
17465
17468
17469
17470
17471
17472
17477
17486
17487
17491
17492
17493
17496
17498
17504
17514
17526
17534
17536
17540
17554
17555
17556
17558
17559
17561
17567
17572
17574
17577
17583
17584
17585
17587
17588
17593
17598
17606
17609
17610
17614
17617
17622
17632
17633
17635
17637
17638
17639
17640
17646
17651
17657
17663
17670
17675
17685
17689
17691
17693
17694
17698
17709
17711
17713
17717
17718
17719
17720
17727
17731
17738
17744
17745
17748
17750
17754
17757
17758
17760
17765
17768
17769
17770
17772
17781
17788
17789
17797
17799
17802
17803
17818
17825
17829
17836
17848
17850
17857
17858
17859
17860
17865
17869
17870
17892
17893
17894
17897
17905
17906
17912
17916
17919
17920
17923
17926
17930
17933
17942
17949
17961
17963
17967
17973
17974
17976
17982
17987
17991
17993
17995
17997
18005
18006
18010
18016
18019
18021
18023
18025
18029
18031
18034
18053
18057
18062
18067
18069
18071
18073
18075
18076
18079
18084
18086
18089
18091
18092
18094
18095
18097
18102
18116
18122
18126
18129
18133
18138
18139
18151
18154
18157
18159
18168
18169
18171
18176
18177
18185
18191
18198
18203
18205
18207
18219
18231
18236
18253
18254
18255
18265
18266
18269
18273
18274
18279
18283
18289
18297
18299
18300
18304
18309
18310
18315
18319
18322
18327
18329
18331
18332
18338
18344
18346
18348
18354
18355
18358
18363
18368
18376
18381
18385
18389
18390
18391
18397
18400
18404
18405
18407
18413
18422
18424
18426
18427
18428
18433
18438
18439
18445
18447
18449
18450
18454
18456
18457
18458
18459
18461
18469
18480
18483
18498
18499
18503
18513
18515
18518
18520
18521
18525
18527
18535
18538
18539
18547
18550
18551
18553
18554
18557
18560
18561
18563
18565
18567
18576
18578
18579
18580
18581
18588
18589
18591
18594
18595
18597
18618
18619
18620
18621
18624
18626
18632
18634
18639
18645
18651
18652
18656
18661
18668
18672
18674
18675
18676
18684
18686
18688
18690
18691
18693
18699
18709
18712
18722
18726
18731
18742
18754
18758
18759
18763
18778
18783
18788
18800
18806
18823
18824
18826
18827
18829
18831
18832
18840
18843
18845
18846
18856
18859
18865
18871
18872
18875
18881
18885
18888
18890
18892
18896
18899
18902
18903
18904
18909
18912
18923
18928
18935
18941
18950
18953
18962
18976
18980
18983
18992
18995
18998
19005
19007
19010
19012
19013
19014
19016
19020
19021
19025
19028
19029
19033
19037
19038
19048
19055
19056
19057
19062
19063
19068
19080
19084
19087
19094
19095
19099
19107
19112
19115
19121
19122
19124
19127
19134
19137
19143
19146
19150
19152
19156
19157
19158
19164
19166
19169
19170
19176
19186
19187
19191
19193
19197
19198
19201
19204
19208
19211
19214
19215
19228
19231
19243
19247
19254
19257
19260
19261
19262
19263
19264
19268
19272
19274
19283
19284
19285
19290
19295
19306
19311
19319
19321
19323
19324
19334
19339
19340
19341
19342
19346
19347
19348
19350
19354
19361
19362
19365
19366
19375
19380
19389
19391
19406
19410
19413
19414
19416
19423
19427
19431
19433
19435
19436
19441
19442
19446
19447
19448
19456
19457
19462
19469
19471
19475
19479
19481
19483
19484
19486
19495
19496
19500
19504
19507
19515
19516
19524
19526
19533
19534
19536
19542
19548
19552
19553
19556
19557
19558
19560
19561
19566
19577
19582
19584
19586
19588
19592
19593
19607
19630
19638
19639
19641
19643
19647
19649
19650
19651
19654
19656
19658
19663
19665
19673
19674
19680
19684
19689
19690
19693
19698
19700
19703
19707
19720
19722
19723
19728
19729
19734
19738
19739
19747
19748
19762
19772
19773
19775
19776
19779
19785
19789
19790
19800
19802
19806
19808
19812
19816
19817
19818
19821
19822
19826
19847
19849
19855
19870
19874
19879
19882
19887
19898
19900
19906
19913
19914
19915
19918
19920
19921
19929
19930
19934
19939
19941
19942
19949
19952
19953
19964
19970
19971
19980
19982
19987
19990
19991
19994
19996
19998
20004
20006
20008
20011
20019
20024
20025
20036
20041
20043
20047
20048
20053
20056
20059
20061
20062
20068
20075
20079
20080
20084
20085
20094
20100
20101
20105
20107
20115
20122
20124
20131
20135
20136
20144
20148
20149
20151
20154
20155
20161
20165
20169
20170
20175
20184
20191
20193
20203
20204
20206
20208
20212
20216
20218
20219
20223
20225
20227
20234
20247
20250
20252
20254
20263
20269
20276
20280
20282
20283
20288
20290
20292
20294
20299
20300
20301
20310
20312
20314
20334
20335
20340
20341
20346
20347
20349
20352
20353
20355
20356
20362
20364
20365
20366
20370
20371
20372
20376
20383
20393
20404
20411
20417
20418
20422
20425
20430
20432
20433
20434
20436
20438
20440
20445
20457
20463
20466
20472
20476
20478
20481
20483
20493
20496
20501
20508
20517
20522
20530
20531
20532
20540
20547
20548
20552
20553
20557
20567
20573
20577
20579
20582
20590
20591
20596
20600
20602
20605
20612
20618
20620
20634
20640
20641
20645
20646
20649
20651
20656
20657
20665
20666
20672
20673
20675
20686
20687
20688
20689
20690
20694
20695
20698
20701
20708
20709
20723
20736
20740
20746
20750
20754
20764
20765
20770
20772
20780
20782
20785
20786
20788
20790
20794
20802
20808
20809
20810
20812
20815
20816
20825
20828
20843
20845
20854
20861
20862
20863
20865
20889
20890
20891
20893
20895
20898
20903
20905
20916
20921
20929
20932
20938
20939
20941
20945
20949
20952
20953
20954
20958
20966
20971
20978
20985
20993
20995
20996
20997
20998
21005
21040
21043
21046
21047
21051
21066
21073
21079
21085
21086
21087
21088
21094
21102
21103
21104
21115
21122
21123
21128
21136
21140
21149
21153
21154
21156
21158
21163
21165
21169
21170
21173
21175
21181
21186
21194
21200
21201
21210
21215
21218
21219
21220
21222
21224
21229
21234
21238
21242
21243
21262
21269
21274
21279
21283
21284
21301
21311
21313
21321
21325
21327
21328
21330
21339
21350
21351
21355
21364
21367
21368
21370
21376
21377
21383
21387
21388
21389
21390
21393
21394
21396
21400
21406
21408
21418
21419
21433
21439
21440
21441
21451
21460
21467
21472
21474
21488
21495
21497
21499
21506
21507
21508
21509
21513
21515
21523
21528
21530
21535
21539
21542
21547
21549
21551
21553
21558
21559
21561
21562
21573
21576
21579
21584
21586
21600
21621
21642
21648
21651
21653
21654
21658
21662
21665
21671
21673
21674
21675
21676
21680
21684
21688
21691
21694
21700
21701
21705
21720
21722
21729
21733
21739
21753
21769
21777
21782
21784
21786
21787
21792
21796
21797
21798
21800
21802
21804
21811
21815
21819
21820
21821
21837
21842
21852
21855
21857
21865
21868
21869
21880
21882
21885
21893
21894
21909
21916
21917
21918
21919
21922
21930
21937
21946
21947
21950
21951
21957
21967
21968
21973
21974
21978
21980
21998
22006
22022
22025
22028
22029
22036
22038
22042
22043
22051
22052
22057
22058
22059
22061
22064
22069
22073
22075
22076
22080
22097
22112
22123
22134
22137
22138
22143
22146
22156
22158
22167
22168
22169
22171
22174
22176
22186
22187
22191
22194
22195
22199
22208
22209
22218
22226
22229
22233
22236
22246
22258
22259
22263
22268
22270
22273
22275
22280
22281
22290
22291
22296
22298
22304
22311
22312
22319
22320
22338
22339
22341
22343
22347
22349
22355
22357
22358
22362
22363
22365
22368
22371
22385
22387
22394
22395
22402
22404
22405
22407
22412
22413
22416
22427
22430
22432
22435
22437
22439
22440
22442
22443
22446
22456
22457
22459
22467
22468
22491
22494
22495
22498
22499
22501
22506
22511
22516