/*--------------------------------*- C++ -*----------------------------------*\
  =========                 |
  \\      /  F ield         | OpenFOAM: The Open Source CFD Toolbox
   \\    /   O peration     | Website:  https://openfoam.org
    \\  /    A nd           | Version:  7
     \\/     M anipulation  |
\*---------------------------------------------------------------------------*/
FoamFile
{
    version     2.0;
    format      ascii;
    class       volScalarField;
    location    "0.001";
    object      internalEMean;
}
// * * * * * * * * * * * * * * * * * * * * * * * * * * * * * * * * * * * * * //

dimensions      [1 -1 -2 0 0 0 0];

internalField   nonuniform List<scalar> 
1000
(
0.172168
0.201365
0.232915
0.306756
0.268973
0.197173
0.153803
0.162806
0.152776
0.153039
0.187719
0.239089
0.168095
0.170203
0.217973
0.144495
0.262791
0.270925
0.214668
0.315144
0.318156
0.245342
0.332804
0.254177
0.174929
0.222506
0.257157
0.289062
0.244781
0.249233
0.262478
0.268882
0.323143
0.267504
0.331014
0.293364
0.306351
0.287464
0.260869
0.358402
0.285072
0.341498
0.357772
0.292244
0.231225
0.33391
0.289191
0.384241
0.211454
0.163482
0.168431
0.215448
0.283736
0.222556
0.208449
0.284229
0.249862
0.219142
0.195658
0.21848
0.303857
0.261831
0.186726
0.237579
0.237839
0.301987
0.322002
0.482582
0.37548
0.304991
0.337981
0.328719
0.387495
0.356114
0.33743
0.420428
0.415463
0.382011
0.356381
0.376853
0.478523
0.345628
0.427672
0.337897
0.355049
0.317938
0.365343
0.310926
0.357238
0.292163
0.286246
0.22798
0.289566
0.280671
0.239043
0.200589
0.154802
0.23616
0.29374
0.230526
0.228992
0.282289
0.186853
0.238484
0.263042
0.311039
0.398043
0.40567
0.358308
0.325698
0.355221
0.365704
0.255615
0.296476
0.5115
0.406205
0.357201
0.40837
0.343406
0.26929
0.319092
0.307764
0.43382
0.338751
0.326894
0.392807
0.389931
0.251364
0.31719
0.321956
0.38466
0.296755
0.265028
0.355599
0.340784
0.386777
0.370206
0.386486
0.321366
0.24428
0.386668
0.390368
0.42732
0.391008
0.263247
0.224859
0.340439
0.353048
0.352026
0.250205
0.240037
0.388623
0.299593
0.246252
0.23281
0.253215
0.166018
0.169637
0.244259
0.297667
0.351766
0.400385
0.227341
0.224832
0.192161
0.230468
0.269697
0.225533
0.267588
0.245252
0.270498
0.231642
0.188686
0.187499
0.235857
0.271777
0.287871
0.266617
0.277205
0.197392
0.293389
0.161978
0.201814
0.262955
0.199308
0.210133
0.233851
0.184286
0.211137
0.232521
0.227128
0.291322
0.390534
0.328582
0.306079
0.340418
0.331385
0.297524
0.299652
0.276787
0.335502
0.335743
0.369883
0.315875
0.300077
0.27469
0.360575
0.402051
0.324601
0.362728
0.387411
0.397414
0.360082
0.360251
0.441595
0.358027
0.367297
0.360162
0.334939
0.37648
0.466989
0.344071
0.326663
0.319653
0.346984
0.339135
0.341767
0.420605
0.426131
0.315293
0.392267
0.408325
0.393668
0.397826
0.346242
0.312436
0.293934
0.276741
0.33475
0.367627
0.314321
0.314339
0.330767
0.330403
0.177286
0.168568
0.163345
0.302609
0.363665
0.185967
0.337326
0.317369
0.225421
0.172221
0.209637
0.277064
0.33481
0.34088
0.303116
0.293447
0.27679
0.199833
0.2047
0.310605
0.28899
0.315924
0.343973
0.405778
0.353312
0.345618
0.349065
0.385897
0.326797
0.284218
0.240355
0.211974
0.278938
0.234298
0.198503
0.242029
0.249945
0.216478
0.279884
0.320468
0.357355
0.369289
0.320025
0.424806
0.259415
0.281978
0.258718
0.324057
0.349787
0.23423
0.223982
0.259803
0.369854
0.274507
0.233427
0.311978
0.300851
0.2566
0.276054
0.239401
0.207237
0.365632
0.296432
0.353298
0.348075
0.330304
0.370261
0.307394
0.308078
0.267617
0.228391
0.335765
0.252239
0.286432
0.314293
0.341871
0.330225
0.302452
0.372755
0.298023
0.254064
0.299166
0.317825
0.317724
0.290496
0.250269
0.228022
0.272326
0.378404
0.230476
0.262797
0.224509
0.243074
0.279734
0.287903
0.354292
0.3798
0.426792
0.354477
0.254525
0.251374
0.257419
0.289414
0.291501
0.361176
0.413784
0.45342
0.422981
0.352881
0.418679
0.300392
0.240155
0.261229
0.375201
0.324805
0.245781
0.226807
0.218218
0.277247
0.25301
0.228417
0.262059
0.381661
0.334238
0.288485
0.304891
0.399804
0.330131
0.445209
0.314763
0.276714
0.252459
0.198284
0.379306
0.335223
0.345781
0.288716
0.302228
0.276404
0.417129
0.211132
0.328099
0.334822
0.24868
0.297825
0.432119
0.425229
0.366755
0.387197
0.363168
0.327762
0.243895
0.251336
0.336755
0.410348
0.314768
0.312942
0.244256
0.274393
0.259996
0.22787
0.20693
0.237461
0.225746
0.345936
0.435339
0.334122
0.453398
0.474855
0.332663
0.2481
0.309459
0.335071
0.289048
0.331512
0.382494
0.38531
0.354825
0.417848
0.376018
0.268922
0.269265
0.334712
0.291439
0.299105
0.501884
0.390949
0.347885
0.353985
0.248795
0.359093
0.290739
0.261753
0.308091
0.376
0.230174
0.240269
0.236026
0.2676
0.230138
0.24231
0.32412
0.307262
0.407597
0.29073
0.266893
0.2813
0.241817
0.391769
0.361855
0.321216
0.332081
0.288584
0.277186
0.318948
0.341669
0.237926
0.322545
0.380327
0.369754
0.422456
0.413986
0.291819
0.309907
0.25752
0.295925
0.252548
0.156362
0.269024
0.39897
0.35673
0.321161
0.304148
0.215975
0.259297
0.21268
0.236885
0.199902
0.279821
0.293189
0.245017
0.282665
0.302935
0.334845
0.285317
0.376351
0.441613
0.42651
0.42372
0.333808
0.343452
0.259642
0.315357
0.409243
0.339134
0.228959
0.286303
0.392667
0.335962
0.393098
0.348488
0.380333
0.375192
0.281814
0.326331
0.35198
0.319108
0.428295
0.315338
0.255859
0.292585
0.346461
0.314808
0.244369
0.267439
0.320505
0.282367
0.254344
0.272481
0.344103
0.256231
0.352831
0.26801
0.280315
0.324729
0.302069
0.216065
0.211883
0.293066
0.273008
0.33041
0.325152
0.263723
0.199613
0.422023
0.404216
0.320798
0.337637
0.290643
0.329087
0.507907
0.338419
0.375731
0.377914
0.244704
0.234851
0.27721
0.256177
0.311912
0.250989
0.258226
0.222319
0.27447
0.312141
0.306432
0.369889
0.314909
0.373247
0.325593
0.236813
0.183906
0.200228
0.234996
0.299585
0.224756
0.238861
0.220823
0.322085
0.378778
0.299968
0.237938
0.298493
0.279936
0.350264
0.356445
0.422656
0.318524
0.37938
0.350914
0.249602
0.249035
0.23367
0.296997
0.302988
0.341047
0.3005
0.25774
0.251353
0.349896
0.338599
0.407702
0.407028
0.387003
0.53444
0.389029
0.308267
0.420392
0.380635
0.410053
0.310503
0.314539
0.251988
0.313564
0.391322
0.381239
0.299116
0.335967
0.307982
0.289378
0.310809
0.320662
0.410362
0.415736
0.301227
0.342195
0.397093
0.446586
0.425045
0.338243
0.449152
0.402748
0.302942
0.361992
0.329843
0.406417
0.284242
0.242382
0.359285
0.449082
0.345902
0.345801
0.371922
0.395155
0.386173
0.452195
0.398183
0.340491
0.297674
0.334519
0.313836
0.311531
0.311772
0.320064
0.247432
0.237545
0.260406
0.259919
0.219717
0.316619
0.264758
0.241078
0.248956
0.262243
0.250191
0.293564
0.307989
0.362094
0.214199
0.231182
0.204419
0.263869
0.247053
0.301788
0.258086
0.293485
0.270563
0.279527
0.435923
0.423255
0.269239
0.362338
0.426717
0.408481
0.441996
0.395478
0.263637
0.297216
0.265655
0.230319
0.224447
0.226777
0.223159
0.389337
0.342986
0.339696
0.404189
0.373111
0.383839
0.246707
0.2646
0.194896
0.241678
0.318368
0.338976
0.319182
0.36818
0.347966
0.38351
0.378792
0.385392
0.319023
0.38536
0.441182
0.475271
0.500643
0.523522
0.556323
0.488729
0.534846
0.3238
0.309016
0.333025
0.251165
0.228792
0.316922
0.310111
0.315874
0.337508
0.244437
0.274129
0.301958
0.287721
0.338673
0.493576
0.277487
0.312104
0.26453
0.263053
0.202448
0.221284
0.229822
0.299353
0.422289
0.354779
0.374244
0.332617
0.293662
0.311943
0.33907
0.301226
0.275297
0.368914
0.288657
0.358015
0.291474
0.313172
0.449441
0.443239
0.33692
0.330283
0.367384
0.455041
0.489466
0.347006
0.298287
0.262001
0.252762
0.369554
0.350096
0.402348
0.382323
0.486145
0.338214
0.441477
0.256269
0.26358
0.268349
0.333186
0.294946
0.365073
0.463456
0.424492
0.310362
0.357432
0.275488
0.269907
0.30409
0.368494
0.342552
0.336249
0.364311
0.261382
0.295563
0.358938
0.40515
0.362153
0.227707
0.185423
0.132564
0.1955
0.210173
0.312977
0.219265
0.201919
0.301178
0.378859
0.309795
0.388674
0.28088
0.193098
0.245528
0.311991
0.311686
0.282204
0.362419
0.28577
0.469179
0.383815
0.30116
0.229045
0.326987
0.266417
0.324788
0.369856
0.430676
0.344544
0.470993
0.450376
0.324052
0.380464
0.324787
0.448594
0.473031
0.423576
0.512596
0.41456
0.334646
0.498182
0.374568
0.48708
0.418359
0.368355
0.378722
0.453502
0.395981
0.484964
0.482945
0.362446
0.369819
0.271764
0.238627
0.241542
0.243117
0.295873
0.407246
0.312334
0.237018
0.228086
0.415154
0.385108
0.308551
0.343881
0.343675
0.319019
0.310869
0.477268
0.385149
0.358743
0.328963
0.302502
0.412722
0.419194
0.432058
0.306593
0.292562
0.314355
0.307869
0.330125
0.288033
0.403682
0.310044
0.298814
0.300315
0.422071
0.400368
0.304184
0.330661
0.310703
0.226962
0.229455
0.277007
0.296953
0.427498
0.413868
0.342928
0.28755
0.347609
0.382628
0.475688
0.443528
0.28344
0.284362
0.371118
0.413253
0.364973
0.382175
0.41773
0.3589
0.368651
0.531322
0.383537
0.399949
0.456745
0.371066
0.356393
0.279765
0.255986
0.289172
0.286629
0.322674
0.326449
0.356493
0.26131
0.289167
0.332252
0.287999
0.345139
0.341322
0.318883
0.37201
0.213109
0.246905
0.271482
0.305419
0.235017
0.193306
0.232502
0.135454
0.127635
0.148783
0.201946
0.262342
0.235661
0.232456
0.237071
0.241782
0.31652
0.267939
0.276756
0.251759
0.216493
0.221498
0.315977
0.358174
0.274046
0.326929
0.294879
0.290959
0.297235
0.314693
0.269186
0.175858
0.203703
0.222451
0.197881
0.125177
0.122227
0.188054
0.231647
0.249807
0.221321
0.18757
0.206984
0.19197
0.276309
0.247707
0.177238
0.207909
0.239204
0.237447
0.263083
0.287437
0.329408
0.385013
0.2687
0.291446
0.381001
0.190624
0.196275
0.209393
0.229709
0.213342
0.299862
0.299296
0.272404
0.17015
0.221988
0.194454
0.142718
0.20184
0.103067
0.167424
0.124886
0.165505
0.160577
0.180927
)
;

boundaryField
{
    sides
    {
        type            calculated;
        value           nonuniform List<scalar> 2(0.180927 0.172168);
    }
    empty
    {
        type            empty;
    }
}


// ************************************************************************* //
