/*--------------------------------*- C++ -*----------------------------------*\
  =========                 |
  \\      /  F ield         | OpenFOAM: The Open Source CFD Toolbox
   \\    /   O peration     | Website:  https://openfoam.org
    \\  /    A nd           | Version:  7
     \\/     M anipulation  |
\*---------------------------------------------------------------------------*/
FoamFile
{
    version     2.0;
    format      ascii;
    class       volScalarField;
    location    "0.001";
    object      internalE;
}
// * * * * * * * * * * * * * * * * * * * * * * * * * * * * * * * * * * * * * //

dimensions      [1 -1 -2 0 0 0 0];

internalField   nonuniform List<scalar> 
1000
(
0.0437292
0.195985
0.245953
0.18604
0.0318829
0.0413046
0.120418
0.0145507
0.0430624
0.137606
0.39882
0
0.10293
0.302929
0.0979857
0.0323701
0.146298
0.0777971
0.258752
0.0830773
0.508623
0.121076
0.190503
0.158687
0.126538
0.133807
0
0.163302
0.273401
0.332184
0.224444
0.349043
0.257442
0.156625
0.0382918
0.629937
0.230697
0.627563
0.381625
0.100923
0
0.708507
0.0599136
0.184774
0.147625
0.210668
0.330126
0.475806
0.164976
0.589917
0.343077
0.353231
0.532803
0.0485028
0.0649232
0.0969863
0.259281
0.17043
0.160915
0.473603
0.0135953
0.062062
0.105074
0.398228
0
0.472357
0.370096
0.328363
0.212271
0.0358305
0.322216
0.288875
0.0650072
0.285195
0.236016
0.310366
0.711055
0.338301
0.126893
0.504571
0.897041
0.497237
0.44339
0.814969
0.172863
0.00405855
0.0429704
0.673846
0.206835
0
0.146686
0
0.818475
0.166855
0.136173
0.575836
0
0.504756
0.164648
0
0.280035
0.0633946
0.0725766
0.546721
0.736568
0.702464
0.309819
0.113773
0.287759
0.0694772
0.35265
0.676955
0.126392
0.100493
0.258803
0.152863
0.2906
0
0.826129
0.452214
0.237609
0.0888914
0.304551
0.0102492
0.370349
0.0255166
0.488422
0.637085
0.893834
0.24676
0.347849
0.708891
1.17542
0.270429
0
0.0617513
0.0131327
0.793078
0.0271516
0.129906
0.671766
0.170448
0
0.0664292
0.231908
0.0765976
0.250521
0.668068
0.172846
0.342845
0.119601
0.780602
0.157079
0
0.222303
0.61603
0.00630725
0.063947
0.234214
0.458277
0.359668
0.23759
0.166449
0.196923
0.401249
0
0.0540551
0.168964
0.851015
0.504773
0.100769
0.410459
0.15671
0.0227728
0.377321
0
0.219225
0.300572
0.714602
0
0.213999
0.261661
0.115494
0.720139
0.220763
0
0.333133
0.281462
0.209667
0.428084
0.393229
0.70137
0.0977583
0.0312686
0.439284
0.453449
0.460245
0.0511831
0.133196
0.0214462
0.191414
1.00711
0.0398139
1.12974
0.189267
0.32171
0.275001
0.0381719
0.727344
0.11547
0.106402
0.28956
0.803814
0.834478
0.475264
0.483322
0.18077
0
0.0473864
0.27322
0.423506
0.559255
0.734455
0.399242
0.501322
0.0786555
0.09342
0.463073
0.0549347
0.294789
0.513007
0.970305
0.178489
0.133859
0.759157
0.299407
0.13514
0.331446
0.0906007
0.17698
0.409161
0.225266
0.166069
1.31394
0.137459
0.0170898
0.103968
0.265153
0.139932
0
0.470701
0.0959672
0
0.0871153
0.28772
0.21505
0.0820615
0.551691
0.369482
0.100146
0.24662
0.154128
0.508171
0.313256
0.499818
0.553642
0.0682458
0.381127
0.159256
0.820501
0.382201
0.308984
0.192868
0.490759
0.301563
0.0217081
0.219558
0.180131
0.0135229
0.171363
0.299361
0.101197
0.258618
0.382242
0.41894
0.13174
0.72968
0.579186
0.192268
0
0.39917
1.18685
0.29566
0.347443
0.370279
0.460735
0.138652
0.106439
0.226278
0.0826892
0.288811
0.53726
0.0198007
0.816091
0.381703
0.668786
0.42167
0.521822
0.233175
0.37594
0.127918
0
0.764469
0.414394
0.142268
0.263928
0.422332
0.920628
0.404529
0.407005
0.459127
0.306307
0.626787
0.315551
0.159897
0.0582551
0.32578
0.172806
0.418252
0.289718
0.0777176
0.59859
0.636257
0.171278
0
0.592499
0.0948902
0.517207
0.418592
0.13939
0.930322
0.766477
0.75661
0.156452
0.333844
0.156118
0.0181057
0.0114477
0.400451
0.281358
0.186613
0.118661
0.133786
0.118048
0.48924
0.107791
0.774143
0.0922051
0
0.0282273
0.46521
0
0.180454
0.914315
0.142626
0.168061
0.744328
0.263321
0.478954
0.12716
0
0.379607
0.964586
0.067273
0.476079
0.0902554
0.0502543
0.232053
0.426324
1.27266
0.432955
0.210524
0.0327387
0.560733
0.326661
1.02836
0.144469
0.103182
1.00978
0.085595
0.147629
0.573305
0.338677
0.342597
0.0615834
0.0126962
4.28414e-05
0.822242
0.831348
0.76916
0.127361
0.102555
0.714352
0.0898876
0.772068
0.371248
0.304896
0.0574282
0.21592
0.482041
0.348332
0.372629
0.364274
0.408728
0.0841704
0.380054
0.0890073
0.0354147
0.0834775
0.566008
0.18781
0.0735221
0.570012
0.139393
0.110989
0.0150507
0.258354
0.258253
0.576967
0.314411
0
0.122426
0.489763
0.0998184
0.595975
0.200102
0.0778271
0.445847
0
0.412183
0.292639
0.249349
0.186838
0.161981
0.0663304
0.216789
0.769202
0.848273
0.357716
0.414287
0.269227
0.0874199
0
0.747986
0.0519412
0.515284
0.302517
0.107503
0.308217
0.0636039
0.0845092
0.0552856
0.28838
0.489083
0.216297
0.0385121
0.232447
0.50568
0.579195
0.344125
0.187806
0.0813567
0.0917527
0.335859
0.0747587
0.227199
0.260892
0
0.273221
0.139794
0.261821
0.105498
0.480788
0.863027
0.424724
0.41512
0.80252
0.360186
0.823055
0.318363
0.163489
0.0588925
0.396272
0.226657
0
0.206143
0.191134
0.423978
0.185985
0.0294796
0.00153982
0.303441
0.148695
0.339902
0.312644
0.250899
0.297724
0.254876
0.0862169
0.312317
0.713792
0.114182
0.348269
0.331837
0.284231
1.20941
0.0562695
0.562623
0.11551
0.225327
0.620467
0.542308
0.48017
0.130962
0.0888857
0.0562429
0.198633
0.382995
0.510595
0.243475
0.293766
0.0481761
0.288221
0.361131
0.726479
0.234889
0.345998
0.296412
0.206315
0.0133842
0
0.572636
0.173254
0.525886
0.44534
0.34977
0.602184
0.105285
0.0497907
0.553598
0.0972206
0.0882602
0.102135
0.222022
0.136683
0.232476
0.132457
0.776123
0.205505
0.86682
0.310351
0.242628
0.311833
0.329726
0.534343
0.716107
0.228909
0
0.820555
0.287707
0.31494
0.616873
0
0.584382
0.0933837
0
0.398269
0.30417
0.297661
0.646536
0.320425
0.382797
0.482763
0.372424
0.0103515
0.326423
0.20057
0.570021
0.228993
0.0881611
0.128611
0.105863
0.247337
0.183929
0.359362
0.0943288
0.159881
0.379726
0.113188
0.270032
0.707358
0.682715
0.0787997
0.147914
0.12742
0.0439045
0.124517
0.647899
0.203399
0.878288
0.379172
0.423642
0.633289
0.00833318
0.638438
0.0122377
0.0879672
0.0896581
0.741628
0.373965
0.45544
0.312098
0.350403
0.0816073
0.281351
0.236233
0.0386051
0.102822
1.07867
0.0890478
0.197326
0.13265
1.13848
0.454096
0
0.617556
0.160034
0.256099
0.22909
0.359348
0.382507
0.542959
0.162944
0
0.82535
0.351265
0.158882
0.26844
0.503749
0.603725
0.0579466
0.0210094
0.10865
0.467489
0.185694
0.381488
0.255787
0.358123
0.523878
0.198131
0.196184
0.277261
0.121791
0.196137
0.150029
0
0.687046
0.0347031
0.211932
0.154486
0
1.16961
0.285697
0.300545
0.0538902
0.214241
0.78441
0.494771
0.130341
0.529072
0.611212
0.308097
0.20922
0.506181
0.495401
0.330498
0.0255212
0.287432
0.158007
0.468836
0.407085
0.573145
0.193552
0.508864
0.0344417
0.114281
0.446715
0.148454
0.36443
0.549161
0.185562
0.300946
0.0952753
0.17507
0.263716
0.291384
0.120939
0.409862
0.184752
0.738816
0.429248
0.387507
0.246428
0.49667
0.343712
0.227219
0.0495294
0.127703
0.627029
0.671503
0.538223
0
0.624018
0.376752
0.0119463
0.19667
0
0.477764
0.548476
0.804343
0.332539
0.559733
0.391125
0.0793141
0.0123646
0.226745
1.10418
0.164967
0.211268
0.612842
0.0899664
0.176476
0.162662
0.244972
0.299814
0.888508
0.330276
0.589827
0.291104
0.571651
0.824377
0.354717
0
0
0.0779042
0.203234
0.189122
0.774564
0.463698
0.164424
0.336923
0.749725
0.317514
0.66578
0.233686
0.556305
0.162168
0.214766
0.433625
0.639945
0.284857
0.11135
0.117034
0.0641057
0.0472848
0.00384512
0.0632674
0.274189
0.313343
0.247241
0.191794
0.172049
0.685248
0.211969
0.498483
0.0373416
0.0461063
0.692306
0.456418
0.62724
0
0.174543
0
0.192635
0.189785
0.183665
0.130523
0
0.276502
0.336385
0.366131
0.40727
0.118069
0.620227
0.467848
0.245306
0.104832
0.550415
0.130285
0.878211
0.826151
0.877693
0.0202546
0.00480417
0.1183
0.234627
1.37732
0.137236
0.300709
0.102837
0.143009
0.279296
0.657457
0.41084
0.0665332
0.187973
0.524366
0.322075
0.209471
0.65978
0.330676
0.848598
0.375479
0.119804
0.7529
0.0230915
0.358929
0.613062
0.581727
0.29467
0.345812
0
1.5297
0.169518
0.0516597
0.265401
0.521844
0.0859323
0.257735
0.228107
0.22339
0.157015
0.285141
0.0741715
0.137279
0.21896
0.516975
0.416751
0.0348768
0.53914
0.189518
0.43263
0.426475
0.366483
0.204822
0.318024
0
0.0684141
0.0885996
0.0937113
0.143982
0.235964
0.311151
0.0424858
0.264537
0.23308
0.121759
0.973927
0.447607
0.558251
0.348415
0.42332
0.68194
0.302202
0.130398
0.254956
0.448828
0.684636
0.69403
0.107271
0.29886
0.15333
0.427731
0.303431
0.105622
0.208276
0.426089
0.609224
0.451697
0.47225
0.720485
0.207209
0.383378
0.478395
0.938065
0.460991
0.266469
0.211501
0.639563
0
0.0828471
0.277146
0.384979
0.197752
0.160074
0.279803
0.0589127
0.262546
0.435098
0.936506
0.41742
0.122984
0.108875
0.324469
0.186812
0.00796703
0.122721
0.651564
0.178584
0.543735
0.598345
0.200203
0
0.191887
0.196199
0.226315
0.89259
0.0992477
0.271073
0.0906345
0.0100594
0.0324793
0.189333
0.150165
0.0737783
0.262085
0.12259
0.436831
0.0933633
0.342951
0.100352
0.851666
0.0339696
0.630542
0.239233
0.139821
0.017476
0.390033
0.0773386
0
0.157955
0.0252564
0.120631
0.0224864
0.474358
0.351455
0.129307
0.282348
0.0634717
0.624393
0.180258
0.206683
0.185617
0
0.0132618
0.173403
0.0390681
0.366384
0
0.143465
0.104427
0
0.100508
0.324246
0.270796
0.313612
0.160663
0.582881
0.378152
0.088067
0.266376
0
0.195804
0.658199
0
0.14242
0
0.061286
0.322168
0.403088
)
;

boundaryField
{
    sides
    {
        type            zeroGradient;
    }
    empty
    {
        type            empty;
    }
}


// ************************************************************************* //
