/*--------------------------------*- C++ -*----------------------------------*\
  =========                 |
  \\      /  F ield         | OpenFOAM: The Open Source CFD Toolbox
   \\    /   O peration     | Website:  https://openfoam.org
    \\  /    A nd           | Version:  7
     \\/     M anipulation  |
\*---------------------------------------------------------------------------*/
FoamFile
{
    version     2.0;
    format      ascii;
    class       volScalarField;
    location    "0.001";
    object      linearKEMean;
}
// * * * * * * * * * * * * * * * * * * * * * * * * * * * * * * * * * * * * * //

dimensions      [1 -1 -2 0 0 0 0];

internalField   nonuniform List<scalar> 
1000
(
0.302135
0.273027
0.314251
0.445521
0.380069
0.316298
0.328178
0.416308
0.337719
0.295278
0.271543
0.304142
0.276445
0.276488
0.324933
0.301858
0.420642
0.425819
0.355874
0.456362
0.413848
0.378997
0.417936
0.380117
0.37701
0.397058
0.496321
0.474037
0.508926
0.43107
0.515135
0.461743
0.529601
0.458707
0.534778
0.489604
0.427297
0.400775
0.37089
0.473732
0.378655
0.42493
0.436493
0.421963
0.360303
0.426145
0.455947
0.511689
0.348621
0.325248
0.343922
0.400343
0.360049
0.357096
0.30099
0.341478
0.306807
0.32801
0.318105
0.35146
0.389653
0.387847
0.403392
0.456443
0.448763
0.477297
0.478522
0.641661
0.541937
0.542365
0.479184
0.442935
0.533286
0.668095
0.56562
0.480429
0.473711
0.470866
0.566809
0.573019
0.586018
0.471052
0.515076
0.47798
0.53551
0.49221
0.467161
0.507913
0.585161
0.510324
0.580189
0.510417
0.533844
0.415226
0.524065
0.430678
0.345056
0.500265
0.571862
0.457625
0.472753
0.519805
0.454468
0.385264
0.363098
0.38458
0.416692
0.570789
0.415933
0.46367
0.486181
0.418424
0.358372
0.41751
0.512577
0.592175
0.502859
0.460272
0.460539
0.459001
0.449766
0.382174
0.485443
0.526272
0.50856
0.613634
0.537759
0.410189
0.424216
0.503748
0.574466
0.457924
0.381502
0.38931
0.406192
0.567419
0.467568
0.547607
0.511237
0.513462
0.539787
0.593474
0.549535
0.559073
0.400767
0.398121
0.409
0.463554
0.440018
0.448692
0.418644
0.426093
0.428471
0.388736
0.494751
0.481245
0.354835
0.377383
0.383858
0.40049
0.397488
0.390689
0.330185
0.301939
0.356662
0.374259
0.426405
0.306549
0.365323
0.422128
0.447155
0.449952
0.447586
0.461173
0.445981
0.364433
0.476306
0.348285
0.37812
0.457906
0.444924
0.303027
0.319444
0.386065
0.390167
0.336203
0.473872
0.376026
0.342037
0.431872
0.445109
0.520365
0.465622
0.495477
0.455236
0.487192
0.544933
0.402576
0.513696
0.495193
0.497589
0.51414
0.585806
0.566067
0.543633
0.500158
0.49624
0.429278
0.449501
0.46653
0.502495
0.552664
0.45524
0.414646
0.486249
0.505861
0.505235
0.575595
0.617889
0.530785
0.551932
0.444542
0.509076
0.47523
0.609355
0.658298
0.606557
0.599847
0.685175
0.624506
0.570731
0.503459
0.561247
0.534011
0.527786
0.456318
0.540707
0.578694
0.552523
0.587214
0.476144
0.480962
0.421859
0.41072
0.320807
0.361334
0.458869
0.499418
0.337522
0.301451
0.372146
0.41109
0.427377
0.38695
0.395213
0.440241
0.457234
0.53236
0.477173
0.417117
0.420213
0.338486
0.339327
0.398345
0.390605
0.424305
0.381206
0.502364
0.451515
0.452882
0.527553
0.593561
0.498249
0.605025
0.517788
0.461814
0.704643
0.559216
0.412586
0.492299
0.457291
0.462511
0.478672
0.53599
0.519946
0.531384
0.52151
0.468777
0.358528
0.47908
0.445388
0.433794
0.43387
0.442319
0.438195
0.387391
0.570942
0.491002
0.519664
0.505697
0.440623
0.37389
0.476548
0.438887
0.383295
0.49166
0.418764
0.535857
0.444995
0.610078
0.653114
0.405325
0.441294
0.54571
0.519845
0.455322
0.410826
0.442842
0.503529
0.611255
0.46597
0.490353
0.447618
0.464095
0.418269
0.441015
0.477065
0.526333
0.492849
0.456745
0.473577
0.444192
0.464319
0.432528
0.466237
0.380941
0.4141
0.502521
0.472423
0.534811
0.504575
0.533376
0.513433
0.442339
0.513027
0.468385
0.505703
0.498393
0.571464
0.578304
0.503171
0.543486
0.449626
0.509199
0.430067
0.40087
0.396939
0.476765
0.382238
0.340962
0.345283
0.405945
0.435367
0.424075
0.438122
0.467078
0.387889
0.443632
0.4346
0.447005
0.477883
0.501311
0.573009
0.612779
0.508769
0.485516
0.430905
0.605871
0.51667
0.470523
0.491957
0.552951
0.411513
0.468269
0.357305
0.484854
0.447214
0.486895
0.517929
0.524529
0.595467
0.595728
0.725028
0.690087
0.607803
0.540718
0.550695
0.671716
0.646601
0.543215
0.440493
0.437946
0.51429
0.630414
0.554291
0.525372
0.46946
0.431019
0.480863
0.527558
0.49679
0.548316
0.560628
0.544063
0.485202
0.4898
0.5213
0.481574
0.577379
0.588085
0.568179
0.631143
0.618731
0.497684
0.475024
0.55245
0.513113
0.443878
0.480221
0.580177
0.52029
0.48992
0.597868
0.536125
0.588093
0.501204
0.362046
0.408385
0.483676
0.362928
0.385286
0.415711
0.423664
0.355526
0.383903
0.403985
0.431754
0.481202
0.476462
0.471782
0.454336
0.411388
0.436447
0.47169
0.438368
0.431308
0.449053
0.469158
0.444171
0.376891
0.383751
0.42333
0.545764
0.455794
0.527296
0.495267
0.410223
0.422958
0.426335
0.386405
0.479842
0.424312
0.503955
0.583081
0.481532
0.428586
0.565625
0.442325
0.469162
0.433341
0.457296
0.461673
0.511009
0.468927
0.385872
0.500731
0.430145
0.521218
0.438442
0.47307
0.445695
0.512706
0.533649
0.502191
0.354125
0.420903
0.464815
0.440868
0.463725
0.420254
0.469137
0.620226
0.51372
0.494659
0.442012
0.51506
0.520113
0.478929
0.462875
0.448871
0.5744
0.580388
0.447834
0.403677
0.410804
0.486361
0.575287
0.386694
0.451742
0.451178
0.498484
0.486254
0.558026
0.584001
0.495006
0.560479
0.525669
0.517323
0.493776
0.601213
0.459295
0.417753
0.480195
0.41561
0.40653
0.46595
0.439125
0.401699
0.49606
0.49162
0.478436
0.475043
0.429759
0.562481
0.693275
0.495614
0.494819
0.457591
0.346312
0.424461
0.456999
0.502125
0.477093
0.449645
0.506687
0.473494
0.58648
0.505205
0.519292
0.565426
0.538108
0.69667
0.616448
0.541509
0.379319
0.388902
0.418996
0.477999
0.474013
0.418033
0.407044
0.544464
0.638185
0.511276
0.369464
0.424161
0.346362
0.485027
0.425283
0.471175
0.511371
0.591125
0.539943
0.497698
0.490661
0.464253
0.537782
0.552199
0.568796
0.514471
0.568286
0.529199
0.554739
0.516783
0.56235
0.565158
0.633618
0.628207
0.58178
0.467834
0.544451
0.488539
0.466837
0.481189
0.554034
0.439148
0.568686
0.675261
0.621227
0.497325
0.504718
0.438871
0.399829
0.434163
0.484712
0.474802
0.568124
0.45031
0.529464
0.534036
0.492274
0.521835
0.470962
0.502849
0.587227
0.499946
0.557459
0.630405
0.498637
0.441245
0.432784
0.590247
0.471085
0.467917
0.476479
0.534248
0.470537
0.537142
0.47442
0.50077
0.629302
0.447617
0.443796
0.421166
0.396779
0.45898
0.468132
0.424575
0.372191
0.40262
0.440937
0.38139
0.432918
0.392627
0.433026
0.435403
0.495568
0.498027
0.489063
0.526991
0.466102
0.367751
0.378558
0.373524
0.505552
0.375087
0.472793
0.486849
0.470651
0.450038
0.347314
0.477817
0.541678
0.368552
0.484936
0.424571
0.404724
0.516183
0.516224
0.499034
0.41225
0.450844
0.463345
0.36879
0.398345
0.447675
0.509963
0.522306
0.446309
0.509294
0.399877
0.531841
0.510586
0.53118
0.422793
0.39838
0.494375
0.521959
0.592348
0.575063
0.49514
0.433666
0.383872
0.385088
0.409363
0.441287
0.518633
0.560704
0.545157
0.521351
0.564223
0.475602
0.48405
0.52347
0.536825
0.554633
0.446836
0.447605
0.5477
0.51483
0.526038
0.539722
0.490377
0.57974
0.48467
0.568946
0.592732
0.621147
0.443312
0.496045
0.513203
0.490343
0.480966
0.385365
0.433096
0.502142
0.497677
0.512244
0.460749
0.437746
0.45338
0.519653
0.528747
0.552177
0.444566
0.491712
0.457986
0.442263
0.486341
0.576558
0.567172
0.526358
0.435457
0.431295
0.479373
0.549868
0.604301
0.540154
0.597763
0.587597
0.551459
0.644001
0.599968
0.587642
0.606531
0.603609
0.429758
0.483871
0.418642
0.451435
0.415309
0.373593
0.390371
0.384939
0.437047
0.47988
0.410399
0.407693
0.377477
0.399258
0.482317
0.530491
0.540549
0.52597
0.512648
0.495322
0.551077
0.60258
0.553118
0.558517
0.447242
0.389723
0.422978
0.393208
0.408825
0.489307
0.460405
0.420307
0.536448
0.541491
0.505635
0.580665
0.464703
0.428081
0.470957
0.546794
0.547143
0.459212
0.558005
0.416414
0.478416
0.429681
0.449713
0.461339
0.559473
0.55104
0.640397
0.617679
0.608921
0.559485
0.618939
0.671876
0.493831
0.595723
0.513059
0.551129
0.595518
0.625502
0.635384
0.508922
0.433632
0.500113
0.458226
0.566837
0.602574
0.580248
0.610126
0.69354
0.664699
0.532835
0.520329
0.413372
0.457955
0.417511
0.418126
0.459435
0.363298
0.442291
0.533213
0.419856
0.317285
0.405698
0.464972
0.641014
0.535617
0.517508
0.519483
0.561125
0.518151
0.51024
0.463481
0.570851
0.605194
0.465983
0.566175
0.547576
0.657011
0.60148
0.529575
0.44239
0.545617
0.553241
0.53112
0.54006
0.498053
0.574474
0.519123
0.565269
0.482026
0.525915
0.489374
0.531571
0.413108
0.464664
0.486856
0.545042
0.577488
0.588605
0.518584
0.532272
0.559665
0.514575
0.520668
0.599402
0.509063
0.505064
0.609202
0.58554
0.520379
0.516697
0.469635
0.531801
0.480106
0.494193
0.518798
0.501488
0.603018
0.486153
0.495811
0.422385
0.530132
0.541075
0.467186
0.475854
0.446263
0.475085
0.435152
0.519822
0.548816
0.478549
0.532854
0.558434
0.431932
0.472044
0.458977
0.430309
0.363737
0.406557
0.413948
0.434152
0.343977
0.277598
0.293382
0.343758
0.388901
0.34882
0.402974
0.392884
0.474366
0.470062
0.497531
0.411302
0.382911
0.371396
0.359472
0.354226
0.419512
0.475703
0.433842
0.479741
0.48226
0.418959
0.451548
0.517384
0.552448
0.386864
0.479947
0.454584
0.448561
0.298472
0.2774
0.320388
0.329065
0.368303
0.352845
0.357795
0.397174
0.406733
0.475887
0.403458
0.304828
0.323367
0.405547
0.48781
0.497083
0.382923
0.330976
0.313577
0.29124
0.29668
0.252229
0.224313
0.216786
0.227894
0.251389
0.235955
0.26553
0.275056
0.238057
0.186819
0.229174
0.254912
0.214714
0.248193
0.222283
0.215476
0.182573
0.245186
0.202975
0.190575
)
;

boundaryField
{
    sides
    {
        type            calculated;
        value           nonuniform List<scalar> 2(0.190575 0.302135);
    }
    empty
    {
        type            empty;
    }
}


// ************************************************************************* //
