/*--------------------------------*- C++ -*----------------------------------*\
  =========                 |
  \\      /  F ield         | OpenFOAM: The Open Source CFD Toolbox
   \\    /   O peration     | Website:  https://openfoam.org
    \\  /    A nd           | Version:  7
     \\/     M anipulation  |
\*---------------------------------------------------------------------------*/
FoamFile
{
    version     2.0;
    format      ascii;
    class       volVectorField;
    location    "0.001";
    object      momentum;
}
// * * * * * * * * * * * * * * * * * * * * * * * * * * * * * * * * * * * * * //

dimensions      [1 -2 -1 0 0 0 0];

internalField   nonuniform List<vector> 
1000
(
(-0.000235032 -0.000165921 -0.000106429)
(2.69167e-05 -0.000118533 4.69721e-05)
(-0.000567844 0.000237293 -1.73794e-05)
(-5.60679e-05 0.000470373 -0.000491365)
(-0.000768215 0.000185905 0.000156388)
(-0.0006684 -0.00048826 -0.00112328)
(-0.00081133 0.000147774 2.8773e-05)
(-0.000864041 0.000338823 0.000333983)
(-0.000745258 0.000817362 -0.00111298)
(5.58021e-05 -0.000528062 -0.000287702)
(-0.000249273 0.000432863 -5.31671e-05)
(0 0 0)
(-0.000713809 -0.000294601 0.000359958)
(-0.000308138 -2.4742e-07 0.000198211)
(-0.00014736 -0.000150608 0.000378736)
(-0.000340198 0.000418022 0.000122859)
(-5.31169e-05 -0.000232089 0.000169461)
(-0.00064619 3.15872e-06 0.000204326)
(-0.00106686 -0.000517812 0.000232328)
(-0.000578403 -0.000313851 0.000783928)
(-0.00101917 0.00110134 9.07169e-05)
(-0.000672 -0.000458396 9.6375e-05)
(-0.000946633 0.000458329 0.000706561)
(-0.000208021 0.000713834 0.000831302)
(0.000192589 -0.000827691 -0.000302192)
(8.72776e-05 0.000450647 0.000354744)
(0 0 0)
(-0.00117032 -0.000479897 0.000393624)
(0.000239584 -1.77948e-05 -0.000153017)
(-0.000712307 0.000688525 0.000172644)
(-0.000419252 -0.000741681 -0.000943381)
(-0.00114652 -9.46515e-05 -0.00117125)
(0.000490539 0.000819772 0.00135446)
(0.000262739 2.6647e-05 -0.00012188)
(-0.000384316 9.38971e-05 0.000329691)
(-0.000112895 0.000467146 -0.000310489)
(0.000467642 -0.000102705 -0.000109426)
(-0.000964631 -4.69537e-06 0.000674632)
(0.000594714 -0.000122057 0.000152209)
(0.000352609 -0.000281626 0.000362977)
(0 0 0)
(5.78537e-06 -0.000437392 0.000271875)
(-0.000591524 1.31737e-05 0.00121818)
(0.00111087 -0.000357282 0.000310345)
(-1.86835e-06 0.000125208 0.000751043)
(0.00021459 0.000467953 0.00014376)
(-0.000689277 -0.000608379 -0.00104273)
(-0.00111633 0.000233316 -0.000239301)
(0.000183289 0.000365031 0.000186095)
(0.00104329 -0.000283688 -0.000397078)
(-0.000331986 0.000949152 -0.000453679)
(-0.000704193 0.000322558 -0.000240362)
(0.000668034 3.55559e-05 -4.82328e-05)
(7.58224e-05 -0.000372011 0.000302429)
(0.000850981 -0.000698133 8.96413e-05)
(-0.000886757 9.79993e-05 6.00575e-05)
(-0.000263646 -0.000738057 0.000267641)
(0.000178926 -0.000459506 -9.56668e-06)
(-9.07279e-05 -0.00103515 -0.000539487)
(-0.0010217 -0.00099479 0.000320214)
(-0.000190995 0.000410042 0.000642169)
(-0.000262798 0.000644401 4.49761e-05)
(0.000242083 0.00075542 -0.000103426)
(-0.000595636 -7.49504e-05 0.000785205)
(0 0 0)
(0.00035811 0.000579875 -0.000715112)
(-0.000332457 0.000189085 0.000373517)
(-0.00176748 0.00103613 0.00139907)
(6.48618e-05 -5.55655e-05 0.000254567)
(-0.000515986 8.31943e-05 -9.9928e-05)
(-4.05323e-05 0.000162508 -0.00027771)
(0.000226536 -0.000277602 -0.000237445)
(8.95257e-05 -8.92627e-06 -5.33384e-05)
(-0.000287171 -0.000304133 -2.64738e-05)
(-1.10652e-05 -0.000445707 0.000863074)
(-0.000936096 0.000297384 0.000239852)
(0.000459976 -0.000587235 -0.000451781)
(0.00031117 -0.00111418 0.000138771)
(-0.000971184 -0.000303436 0.000753493)
(-0.000293893 0.00101302 0.00124378)
(-0.000735025 -0.00169559 0.00148889)
(-0.000645009 -0.00139771 -0.0012517)
(0.000142607 0.00111437 0.000435793)
(-0.000214256 0.00092448 -0.000530068)
(-0.000482196 -9.95022e-05 0.00105855)
(0.000220241 8.19876e-05 -8.58739e-06)
(-0.000343118 -0.000317442 0.00036917)
(0.00175062 -0.000347407 -0.00122725)
(0.000317345 7.04415e-05 -0.000489216)
(0 0 0)
(-0.000375337 0.000598096 0.000217561)
(0 0 0)
(0.00111055 0.000750232 0.000796521)
(0.000183976 -0.000714683 0.000138601)
(-0.000242132 0.000833533 -0.000217431)
(-0.00104305 0.000947669 0.000451016)
(0 0 0)
(3.03799e-05 0.000380357 0.001426)
(0.000381116 0.000106837 0.000361108)
(0 0 0)
(-0.000511803 -0.000804729 0.000743828)
(0.000102473 0.0005173 0.000341317)
(5.24495e-05 0.000147728 0.00174641)
(0.00151189 0.000828957 -0.00105657)
(-0.000901139 -0.000364642 -3.5976e-06)
(0.000490327 -0.000997634 9.15685e-05)
(0.000546174 0.00144105 -0.000594048)
(-0.00055519 -3.9464e-05 0.000329522)
(-0.000144597 -0.000519564 -0.00077805)
(-0.000260955 -0.00012131 -8.1265e-05)
(9.13779e-05 -0.00116338 0.000479724)
(-0.000559572 0.000409325 0.000739708)
(-0.000142118 -0.000582474 -0.00030326)
(0.000201568 2.74519e-05 2.48827e-05)
(-0.000299184 0.000389802 5.32198e-05)
(7.12412e-05 3.05292e-05 0.000142383)
(0.00048705 0.000181976 -7.47422e-05)
(0 0 0)
(0.000695723 0.000465138 -0.000246181)
(-0.000538928 -0.000550317 0.000982614)
(0.000686165 -0.000152182 0.00064197)
(-0.000401294 -0.000539761 -3.31001e-05)
(-3.045e-05 -0.000290373 0.000476881)
(-0.000451571 -0.000101851 -0.000534706)
(0.000608784 -0.000371933 -0.000621922)
(-9.39774e-05 -2.46143e-06 0.000638594)
(0.000285874 -0.00038971 0.000341155)
(-0.000795453 -0.000319689 0.000207258)
(-0.000229803 -0.00155995 -0.000304431)
(0.00019906 -0.00021299 -0.000791113)
(-0.000194288 0.000256815 4.91978e-05)
(0.000154489 -0.00274947 -0.000194846)
(0.000420668 0.00109925 0.000306037)
(-2.94675e-05 -2.99669e-05 -0.000329931)
(0 0 0)
(-0.000252465 -0.000753556 -0.000339084)
(-0.000125162 -7.66372e-05 -8.44548e-05)
(-0.00117547 3.82637e-05 0.000464258)
(-0.000277293 0.000671955 -0.000258361)
(0.000492188 0.00155804 -0.00148547)
(0.000878181 0.000274818 0.00126182)
(0.000674778 -0.000377388 0.0005403)
(0 0 0)
(0.000413102 0.000878033 -0.000455745)
(-0.00023781 0.000131945 -0.000477738)
(0.000253732 -0.000368793 -0.000359876)
(-6.12804e-05 -8.99132e-05 0.00100248)
(0.000756481 0.000154274 0.000280425)
(-5.64783e-06 0.000614864 -0.000302704)
(0.000306421 0.000172084 0.000833355)
(-0.00043461 -0.000430812 -0.000272742)
(-0.000158457 -0.000301232 -0.00102582)
(7.44893e-06 0.000402566 0.00024987)
(0 0 0)
(-3.26707e-05 0.000682531 0.00119635)
(0.000309446 -0.000366052 0.000319781)
(0.000666217 0.00027286 0.000148721)
(0.0003043 -0.000380353 2.35588e-05)
(0.00123817 0.000491017 0.00114497)
(0.0026 0.000648664 0.000502406)
(-0.000518624 -0.00111735 0.000614791)
(-0.00024687 0.000247377 -0.000436469)
(0.00137316 0.000366499 0.00105567)
(-0.000114662 -0.000321057 -0.000537454)
(0.000214526 -0.00017792 -0.000581291)
(0 0 0)
(0.000261813 0.000251722 0.000596807)
(-0.000327963 -0.000813974 -0.000131974)
(-0.000203313 -0.000443304 -0.000861016)
(-0.000268675 0.000580947 0.000262004)
(-2.9673e-05 -0.000113098 5.16091e-05)
(-0.000222875 0.000194917 -0.000454808)
(-0.00015707 -0.000425125 -0.000920943)
(0.000182403 0.000350859 -0.000350222)
(-2.3922e-06 -0.000289997 -0.000285756)
(0 0 0)
(0.000461556 -0.000515241 -7.35354e-05)
(0.000485808 4.72518e-05 0.000209076)
(0.000510122 -0.000111557 -0.000360793)
(0 0 0)
(0.000729495 -0.00094456 -0.000742091)
(-0.000305755 -4.4851e-05 -0.000795002)
(0.000610395 0.000161644 0.000608995)
(-6.30909e-05 5.5038e-05 -0.000655438)
(-0.000462812 0.000515954 0.000220585)
(0 0 0)
(-0.000555305 -0.000826881 -0.00078209)
(-0.000521459 -0.000984414 -0.000374053)
(0.00130667 -0.000197499 -0.000882585)
(0.000768903 -0.000468019 0.000453831)
(0.000682572 0.000625553 0.00136767)
(-0.000552481 -0.000590339 -0.000982307)
(-0.000115101 -0.000324919 -7.97009e-05)
(-7.58502e-05 0.000130882 0.000704172)
(-0.000241609 -6.98954e-05 0.000126145)
(3.68095e-05 0.000200957 3.30534e-05)
(-0.000286016 0.000562881 5.84412e-05)
(0.000144558 8.73266e-05 -1.78994e-06)
(6.924e-05 -0.000408845 -0.000740634)
(7.08559e-05 0.000123737 -0.000274135)
(7.38113e-05 0.000306894 0.000125012)
(-0.00122436 -0.000412979 -0.000242437)
(-0.000280925 0.000651432 0.000636307)
(0.000695904 0.000712183 7.27174e-05)
(-0.000192546 -0.000933738 0.000402949)
(-0.000260581 0.00152633 -0.000911511)
(-0.000635781 -0.00054987 -0.000304972)
(-0.000575769 0.000115876 -0.000641265)
(-0.000823558 0.000199371 0.000554524)
(-9.17964e-05 -0.000780924 -0.000924938)
(0.000154513 -0.000158366 0.000457896)
(0.000524187 -6.42529e-05 -0.000322198)
(0.000821069 0.000730241 0.000510213)
(-7.85215e-05 0.000324199 0.000191146)
(-0.000216792 0.00148598 -0.000346555)
(-0.00070176 0.000228989 -0.000194939)
(0.000767098 0.000590231 -0.000563039)
(0 0 0)
(0.000153988 -0.000730057 -0.00118771)
(-0.000260723 0.000501273 0.000748046)
(2.88424e-05 0.00132569 -0.000966808)
(-0.000337214 -0.000634835 -0.00134227)
(0.00115553 -0.000202125 -0.000556404)
(-0.00052918 -0.00109267 0.000657383)
(0.000311084 0.000390877 -0.00024754)
(-0.000209042 -0.00028843 -0.000537491)
(-0.000320924 0.000563268 -0.000415115)
(6.22014e-06 -0.000308618 -0.000170405)
(0.000255548 0.000332634 -0.000103949)
(0.000425639 6.90769e-05 -0.00119682)
(5.77784e-05 0.000251527 -0.000664144)
(-0.000190851 -0.00116372 -0.00125625)
(-0.000215994 0.000482956 0.000123761)
(0.000335946 -0.00047775 -2.12373e-05)
(0.00137015 0.000426999 -0.000554797)
(-0.000312246 -0.000318764 0.000920204)
(-0.000140208 -0.000685924 0.00123879)
(-8.63135e-05 0.00038018 0.000814135)
(-0.000281359 0.000783859 -1.03476e-05)
(2.08326e-05 -0.0001099 0.000468603)
(0.00100873 0.00122228 -0.000749684)
(-0.000717146 -0.000265379 0.000986492)
(0.00102461 -0.000151597 0.000229768)
(0.000402635 0.000200682 -0.00142296)
(0.000777302 0.00107177 0.000559482)
(-0.000202505 -0.000224288 0.000428178)
(0.000100935 0.000541782 0.000359836)
(-0.000757138 0.00103751 -0.000457207)
(0.000359264 -0.000143901 -0.000676509)
(0 0 0)
(-0.000670686 -0.000681339 -0.00115974)
(0.000237405 0.000632744 6.82536e-05)
(0 0 0)
(0.000492525 0.000266566 0.00023292)
(0.00023231 -0.000237001 -0.000508956)
(-3.10365e-05 7.02273e-05 -0.000391782)
(0.00010111 -0.000140254 0.000317635)
(-0.0007005 -0.00155919 0.00103532)
(0.000106234 -6.05965e-05 0.000708866)
(2.259e-06 0.000382706 -0.000156964)
(0.000913686 -0.000111961 -0.000687119)
(0.000419383 -0.000149377 -0.000525735)
(0.000397132 -0.000524188 -0.00042129)
(0.00131398 0.000223698 -0.00188142)
(0.000718179 -0.000546416 -0.000626335)
(-0.000910786 -0.000692495 0.00106152)
(-0.00045634 0.000337729 -0.000355942)
(-0.000636679 -0.000838562 0.000394851)
(-0.00069534 2.40824e-05 0.000638828)
(0.000290152 0.000490046 -0.000646197)
(0.000787176 1.77947e-05 -0.000988516)
(-7.53253e-05 -0.00185312 2.06155e-05)
(0.000181513 0.000259216 -0.000438538)
(0.00109005 -0.000782767 -0.000464666)
(0.00042539 0.000734443 4.0549e-05)
(0.000228252 -0.00045664 -0.000409947)
(-0.000824786 -0.000428104 1.82181e-05)
(7.17307e-05 -0.000288159 -0.000228761)
(-0.000184521 -0.000802564 0.000481253)
(0.00107894 0.000473644 0.00107111)
(0.000606973 -0.00146074 -0.000668081)
(-6.835e-05 -0.000192819 0.000294507)
(-7.55232e-05 -0.000544903 -6.23417e-05)
(-0.000784927 8.36828e-05 1.87616e-06)
(0.000184812 -0.000514997 -0.000929547)
(-0.000242014 -0.000100574 0.000605358)
(-0.000200037 -0.000759261 -0.000169987)
(-0.00065074 -0.00130203 0.000167682)
(-0.000368936 -0.000466903 0.000225529)
(0 0 0)
(-0.000505803 0.000379289 0.00167322)
(0.000837969 -0.00102772 -0.000125298)
(0.000555033 9.47034e-05 0.000415168)
(-0.000104038 0.000466793 -0.000855317)
(-0.000295 0.000169004 -0.000544269)
(-0.000190955 -0.00183448 0.0012296)
(4.66088e-06 6.84382e-05 0.000654378)
(-0.00012043 -0.000329482 -0.000153341)
(0.000673313 0.000524469 -0.000991455)
(0.000250886 -0.000598246 0.000126098)
(0.000218659 0.00024754 -1.19077e-05)
(-0.000826351 -0.000927093 -0.000446065)
(-0.000369418 0.000715156 0.000366527)
(0.000820012 1.20067e-06 -0.00187352)
(-7.1504e-05 -6.74396e-05 -0.000379717)
(-0.000323827 0.000748867 0.000201329)
(-0.000208596 -0.000101894 -0.00135704)
(0.00102045 -4.42078e-05 -0.000602513)
(-0.000707043 -0.000190596 0.000250684)
(0.000522417 0.000671594 0.000165323)
(-7.68228e-05 -0.000121992 0.000433587)
(0 0 0)
(0.000568454 -3.7715e-05 -0.000180549)
(-0.000147449 -0.000183618 0.000306794)
(0.000381523 -0.000426954 -5.33803e-05)
(0.000481745 0.000998976 0.000189261)
(-0.000450724 0.000470375 -0.000303698)
(0.00031244 0.000493954 -0.000416929)
(0.00071046 -0.000784572 -0.000662918)
(0.000412496 -0.00126376 -0.000529169)
(-0.00032329 -0.000135415 0.000255598)
(0.000297091 0.000411197 -0.000251599)
(0.000174269 -2.86847e-05 0.000177772)
(-0.00103111 -0.000932353 -0.000664547)
(-0.000114887 -6.14121e-05 -0.000473274)
(0.000146528 -0.000266041 -0.000175369)
(-0.00124357 -1.1477e-05 1.43095e-05)
(0.000145348 0.000496007 -0.000413872)
(-0.000165718 -0.000520559 -0.000738685)
(-0.00102652 0.000301419 -0.000289995)
(8.40404e-05 -0.000430539 -0.000367329)
(-0.00208978 -0.000644447 0.000177562)
(0.000154944 0.000977396 0.000584379)
(0.000103983 0.000795203 2.35382e-05)
(0 0 0)
(0.000562376 -0.000461426 -0.00031831)
(0.000444552 0.000497937 0.000388398)
(-0.000233427 0.000266098 -0.000754241)
(9.43314e-05 0.000212024 2.22238e-05)
(-0.00100682 -0.00056714 -0.000330676)
(-0.000367798 -0.000352243 0.000294491)
(0.0010329 -0.000891702 0.0010194)
(0.000705166 0.000183775 0.000173057)
(-0.000235103 -2.32835e-05 -0.000569709)
(-0.000209809 -0.000283055 -0.00013677)
(-0.000260711 -0.000572063 -0.000152924)
(-0.000200962 -7.3462e-05 0.000764348)
(7.71799e-06 0.000767487 3.71668e-05)
(-0.000388586 -0.00101417 -0.00086644)
(-0.000261541 0.000424243 -0.000122069)
(0.000736718 0.000394517 -8.91623e-05)
(0.000338494 -0.000389244 0.000363596)
(0.000418249 9.00198e-05 -3.34245e-05)
(0.000397419 0.000201249 0.000143862)
(0.000332173 -0.000359714 -0.000487894)
(0.00101974 0.000162604 -0.000264506)
(0.00171881 -4.68869e-05 -0.000602854)
(0.000125618 -0.000249606 -6.98782e-05)
(0 0 0)
(0.000609584 0.000163421 0.000234456)
(-0.00108833 -0.00146332 0.0008961)
(0 0 0)
(-0.0013496 0.000721911 -0.000279081)
(-0.00152485 0.000332753 -0.00145889)
(-0.000262131 0.000619166 -0.000560435)
(0.00058608 -0.000735434 0.000180325)
(-0.00019181 0.000323581 -7.83707e-05)
(-0.000797575 -0.000271467 -0.000528225)
(0.000492908 -0.000322178 0.000774991)
(-0.000434208 -0.000820915 0.000759596)
(0 0 0)
(-0.00115725 -5.06172e-05 7.16796e-05)
(-0.00123195 0.000677869 0.000389539)
(-0.000254986 -0.000247765 0.000520045)
(0.000844946 0.00108689 0.00185374)
(-0.000443144 -0.000365554 -0.000123538)
(2.66396e-05 -0.00011564 0.000448754)
(-0.000272317 0.00116758 -0.000663198)
(-0.000370441 0.00016223 -0.000400604)
(0.000920043 -0.0011173 0.000149984)
(-0.000558599 -0.000664592 0.000207809)
(0.00124097 -0.000194405 0.00116554)
(0.000139881 -0.000114656 0.000233699)
(6.25447e-05 -0.000254945 -0.000230004)
(0.00118475 0.000643637 -0.000240486)
(-0.000170843 -9.75118e-05 3.62174e-07)
(-0.000489123 0.000195462 -3.68391e-05)
(-0.00108186 0.000214262 0.000445905)
(-0.00042257 -0.000277833 -2.87085e-05)
(-0.000339538 -0.000795566 -0.000204902)
(4.25802e-05 -0.000864393 0.000151481)
(-0.000258608 -0.000167162 4.70359e-05)
(-0.00174821 0.000412083 2.61685e-06)
(-0.000425292 0.000475856 0.000716516)
(0.000472752 -0.000438196 -0.000480102)
(5.41116e-05 0.000428045 0.000588015)
(-6.12317e-05 0.000603507 -1.6912e-05)
(-0.00124466 -0.00108896 0.00143425)
(0.00153943 -0.00065465 1.49067e-05)
(0.000507269 7.43284e-05 0.00131633)
(0.000237846 -0.000176417 -0.000187646)
(0.000990256 0.000517668 0.000587788)
(0.000887096 0.000352011 -0.000123273)
(-0.000352546 0.000757437 -0.000594583)
(-0.000161232 0.000532993 0.00104228)
(-0.000711474 -3.59756e-05 0.00078954)
(0.000479127 4.84106e-05 -0.000594692)
(0.000454777 5.22779e-05 0.000125692)
(-0.00109614 -0.000385369 -0.000205946)
(0.000231032 0.000253534 -0.00089616)
(-0.000650936 0.000234829 0.000574432)
(-0.000880775 -0.000534729 0.00100273)
(-0.000969787 -0.000155117 -0.00111167)
(-1.93909e-05 -0.000364691 -0.000581837)
(-0.000352556 0.00011428 -0.000125736)
(-0.000452196 0.000720725 -6.29562e-05)
(0.000191526 -0.000230066 -0.000302133)
(-0.000145306 -0.000197329 0.000117754)
(0.00017316 0.000280339 0.00035589)
(0.000414954 0.00172939 0.00131686)
(0.000138149 -0.000262912 0.00100365)
(-0.000139951 0.000645389 0.000485902)
(-0.00077518 0.00128329 -0.000475966)
(-0.000218612 -0.000441122 4.66511e-05)
(0.000989569 0.000713548 -2.23369e-05)
(0.000516178 -0.000284079 0.000529841)
(0.000163401 -0.000322295 -0.000658007)
(1.02699e-05 0.000316262 0.00010334)
(-0.000859088 -0.000483357 0.000860537)
(0.0010234 -5.58585e-05 0.00021961)
(0 0 0)
(-8.14582e-05 0.000866475 -3.32805e-05)
(0.000964995 0.000503636 -0.00135378)
(0.000614099 0.000278659 -0.000205501)
(0.000387957 -0.000985592 0.000948104)
(-0.000566902 -0.000208118 0.000178792)
(-6.18385e-05 -0.000400381 -0.000405283)
(4.29987e-06 0.000736936 0.00100352)
(0 0 0)
(-0.000695317 0.000152242 -0.00123004)
(-0.00149026 0.000348749 -0.000349066)
(0.000183103 -0.000397148 0.000273009)
(0.000108579 0.000833575 -0.000675131)
(0.000797116 0.000328415 -5.3031e-05)
(0.000291696 -0.000170647 0.000252279)
(0.00033938 0.000138375 -0.000332884)
(0.000560225 -0.000513045 -0.000234651)
(0.000256804 -5.20225e-05 0.00131601)
(-0.000383269 3.75288e-05 0.00115641)
(0.000476451 -0.000432291 0.000290138)
(-0.000353531 -1.12139e-05 0.000774898)
(0.000492781 -0.000265244 0.000366936)
(0 0 0)
(-0.0014979 0.00107947 -0.000284616)
(-0.000440418 -3.02471e-05 0.000201912)
(-0.000137149 -0.000148436 -0.000344846)
(0.000628319 0.00104271 -0.000436886)
(-0.000569615 0.000834985 9.1859e-05)
(0.000378111 -0.000594533 0.0014534)
(-0.00037153 -0.000240706 0.000354968)
(0.000238157 0.000472942 0.000193578)
(0.000774211 -1.22324e-05 0.000105748)
(0.000343726 -0.000172006 -0.000823366)
(0.000612853 -0.000127348 -0.000141443)
(-0.0013635 -0.000950827 0.000210926)
(-0.000562593 -8.83182e-05 3.9037e-05)
(0.000497678 0.000255433 -2.81118e-05)
(0.000829626 0.000403081 0.000417744)
(0.0002299 -0.000211128 2.2366e-06)
(-0.000468547 -0.000548282 0.000831978)
(-0.000274139 -0.000655013 -0.000263827)
(-0.000326743 -0.000993906 -0.000302823)
(-0.000139411 -0.00073096 0.000630489)
(0.000238556 -0.000531287 1.88379e-05)
(0.000522622 -0.000326823 -7.70929e-05)
(-0.000784098 0.00024284 0.00063854)
(-0.000245501 -7.38313e-05 -0.000251306)
(0 0 0)
(0.000431457 -0.000936768 0.000145024)
(0.00096102 -0.00108466 0.000248726)
(-0.000541409 7.47045e-05 0.000851173)
(0.000660173 -0.000236739 -2.89555e-05)
(-0.000205924 0.00040224 5.57726e-05)
(0.000838413 -0.000719158 0.000708494)
(0.000221092 0.000176323 0.000491974)
(-0.00112133 0.000993613 1.0089e-06)
(0.000109187 8.10142e-05 -0.000655919)
(-0.000686319 -0.000428344 0.000371471)
(-0.000313902 -0.000489459 -0.000510106)
(0.0018449 0.000426833 0.00114527)
(0.000432074 -0.000209033 -0.00100226)
(-0.000186459 0.000513485 -3.81833e-05)
(-0.000879965 -0.000918241 0.00054416)
(-0.00049365 -0.000444147 0.000481902)
(0 0 0)
(0.00057397 -0.000389514 0.00180838)
(0.000424038 -0.000521115 0.00101624)
(0.00134554 0.000153872 0.00135972)
(0.00052084 -0.000205589 -0.00036427)
(-0.000873198 0.00018708 0.000148198)
(8.22568e-05 -0.000237425 0.000142905)
(-3.42607e-06 -0.000486246 7.67893e-05)
(-0.000549009 -0.00025266 0.00100539)
(-0.000296361 0.000516422 -0.000122445)
(0.000685477 -0.000429849 0.000315776)
(-0.000182712 0.000413796 0.000361267)
(0.000723011 0.000226313 4.78233e-05)
(0.000547302 0.00062861 -0.000305436)
(-0.000331528 -0.000477085 0.000546506)
(-0.000986571 4.85152e-06 -0.000197298)
(-0.000260632 0.00147784 0.000720198)
(0.000464042 -0.00138247 0.000880371)
(0.00142492 0.000310582 0.000550464)
(0.000871671 0.00037832 -0.000198984)
(3.13333e-06 0.000487687 0.000365152)
(-0.00141521 0.000490343 -0.000691647)
(-0.00024938 0.000151192 -6.00017e-06)
(-0.000127738 -6.78869e-06 -0.000787555)
(-9.00875e-05 0.000842724 0.000269601)
(0.000577831 0.000114583 0.000823167)
(0.000405355 1.48226e-05 -3.19716e-05)
(-0.000375122 -0.000292743 0.000303496)
(0.000946625 -0.000283842 -0.00109619)
(-0.000765547 -0.000448972 -0.000160445)
(5.46503e-05 -8.77339e-05 -0.000883488)
(-5.48846e-05 -0.000115069 0.000896763)
(0.000815392 -0.00026514 0.000499969)
(-0.001031 0.000814448 -0.000536302)
(-0.000407169 -0.000924931 0.000347468)
(0.00025912 0.00144618 -0.0013303)
(0.000195272 0.000240887 0.000328902)
(0.000359055 0.000653301 -0.000776858)
(0.000137531 -0.000425888 0.000571226)
(0.000675875 0.000340652 -0.000191891)
(0.000313571 -0.000701077 -0.00155452)
(8.28289e-05 -0.000977478 -0.000968213)
(-0.000243738 0.000935845 -0.000578347)
(-1.25463e-05 -0.0009774 0.000410499)
(-0.0010944 -0.000493149 0.000506497)
(0.000315291 0.000410382 0.00016032)
(0 0 0)
(0.00061966 -0.000711844 0.00050942)
(9.06252e-05 -0.000290433 0.00146159)
(-0.000631421 -0.000299082 -5.49259e-05)
(0.000111655 -0.000640632 -0.000207192)
(-0.00118506 0.000141267 -0.00102909)
(4.43272e-05 -0.000422724 -0.000542984)
(0.000104407 -0.0001208 -0.000418996)
(-0.000146716 -9.66096e-05 0.000154203)
(0.000338346 0.000316912 0.00143116)
(-0.000297605 0.000897316 -0.000955863)
(-0.000136835 0.000116306 3.54888e-05)
(-0.000200292 -5.52731e-05 4.17993e-05)
(-0.000750548 0.00129851 -0.000619536)
(0.000390837 3.72482e-05 -0.000418161)
(-0.00124801 7.22444e-05 -0.00070526)
(-0.000537014 -0.000307523 -0.000197883)
(0.000241062 -0.000408514 0.000502046)
(0.00102112 0.00119653 0.000280623)
(-6.06871e-05 -2.73892e-05 0.000105571)
(-0.00069805 0.00062658 0.000399831)
(0.000373154 -0.000127521 0.000288793)
(-0.000158778 -0.000608123 -0.000377136)
(0.000469329 0.000391247 -4.71801e-05)
(0.000649794 0.000266703 0.0011151)
(0.000504733 0.000343648 0.000619103)
(-0.000424668 0.000371184 -0.000197541)
(0 0 0)
(0.000959387 -2.15596e-05 -0.000517143)
(0.00142303 0.000505249 0.000360025)
(-0.000829491 0.00196175 0.000265107)
(-0.000816608 0.000829395 0.000883925)
(0 0 0)
(0.00163778 -0.000238307 0.000996408)
(0.00030101 -0.000610444 -0.000933775)
(0 0 0)
(-0.000315382 -0.000360449 -0.000200969)
(-0.000554126 -0.000280367 -9.70575e-05)
(-0.000599931 -0.000593675 -0.000235271)
(-6.09969e-05 -0.000110538 -0.0011577)
(-0.000654 0.000222033 -0.00120313)
(-0.000434097 -2.64759e-06 -0.000882026)
(0.000607993 -0.001041 0.000195347)
(-8.99023e-05 3.67129e-05 -0.000382849)
(-0.000483426 0.000109944 0.000137815)
(-0.000179335 -0.000434865 0.00140942)
(-0.000569668 -0.000497797 -0.000313766)
(0.000119803 0.00171627 -0.000182254)
(-0.000367973 0.000345085 0.00076175)
(-0.000295836 0.000495603 -0.000304469)
(-0.000215299 0.00156418 -0.000604033)
(0.000193521 5.86348e-05 0.000637887)
(0.00044329 -0.000921782 0.000479759)
(-0.000209161 -7.73385e-05 -0.000128969)
(0.000260315 0.000392134 -0.00043563)
(0.000590551 -9.67633e-05 -0.000279861)
(-0.000343285 -0.000369222 -0.00170725)
(-0.000206692 0.000129854 -0.000653622)
(0.000399391 0.000959597 0.000217192)
(-5.33097e-05 0.000683958 0.000167367)
(0.000616433 -0.000635652 -0.000779871)
(0.00104207 -0.000176995 -6.58266e-05)
(-7.10224e-05 -0.000244809 0.000248559)
(-0.000707611 9.36294e-05 -0.000277829)
(0.000237843 -0.00208251 -1.33499e-05)
(-0.000513434 0.000347429 -0.000269186)
(-0.000326537 -0.00184695 0.000106048)
(-0.000226794 0.000683405 -0.000457322)
(0.000112166 -8.08059e-05 0.000690658)
(0.000750555 -0.000583979 -0.000440988)
(0.00141259 -0.000283367 -0.000234781)
(0.000420418 -0.000257476 -0.000902357)
(0.000412498 -0.00157191 4.07198e-05)
(0.000401282 -0.00019171 -0.000109449)
(-0.00151005 -0.000218513 -0.000146261)
(-0.000385046 -0.000211229 -7.90449e-06)
(-0.000222518 0.000479344 -1.89486e-05)
(-0.000842928 -0.000383047 0.000158702)
(-3.33479e-05 0.00024652 0.00031633)
(0.000211882 0.000463392 -0.000283491)
(0.000869059 0.000497274 -0.000210177)
(0.000249537 0.000519012 0.000571161)
(-5.90427e-05 -0.000140854 0.000852722)
(0.000953761 -0.000350201 -0.000555047)
(0.00138483 0.00156032 -0.000123088)
(0.000341333 -0.000241979 0.000935734)
(-0.000195717 0.000367444 -5.50847e-06)
(0.000447907 -0.000284717 -0.000496688)
(0.000192534 0.00071663 0.00077075)
(0.000394503 -0.000174773 0.000505251)
(0.000323433 0.000961234 -0.00053719)
(0.000368655 2.04181e-05 -0.000708742)
(0.000223995 -3.20804e-05 -0.00106074)
(0.0015785 -0.00100112 0.000868248)
(0 0 0)
(0.000260197 0.000342871 -0.00190058)
(0.000497044 -0.000384451 0.000569047)
(0.000183538 5.72837e-06 0.000562267)
(-0.00172226 0.00132485 0.000123075)
(-1.16087e-05 -0.000294297 -7.11353e-05)
(-0.000159171 0.000299254 -0.000638416)
(-9.81078e-05 0.000446886 -0.000194259)
(-0.000154976 0.000379194 0.000551213)
(0 0 0)
(0.000113819 -0.000646293 -0.000503865)
(-0.000116419 0.000957693 0.00062438)
(-0.0002133 0.000661447 -0.00103863)
(-7.23399e-05 9.25989e-06 0.00016029)
(-0.000925624 -0.000292529 -9.24082e-05)
(0.00149698 0.00153496 0.000661881)
(0.00010465 0.000981419 0.00163938)
(4.26191e-05 0.000709363 -0.00127405)
(-6.09476e-05 0.000401192 -0.000475947)
(0.000835718 -0.000367605 -0.00028678)
(0.000586603 0.000236953 -3.15763e-05)
(-0.000557217 -0.000159755 -0.000108766)
(0.000940545 0.00105806 -0.000982848)
(4.16228e-05 -0.000235053 -0.000682213)
(0.000979132 -0.000179394 1.09962e-05)
(0.00015613 0.00172094 -0.000672616)
(0.000299597 -0.000424106 0.000418531)
(0.000463987 -0.00102413 -0.000539576)
(0.000581285 -0.000110979 -0.00042453)
(0.000265546 -0.000268613 0.00107866)
(-0.000572921 3.22616e-05 -0.000712229)
(0 0 0)
(-0.0012445 0.000501136 -0.000622406)
(-0.000145931 -8.14929e-05 -0.000380282)
(0.000621601 -0.000361369 9.76029e-05)
(0.000592251 -0.000419121 0.000104226)
(0 0 0)
(-0.00121216 0.000205247 -0.000386619)
(0.000230155 0.000992793 -0.00138854)
(-0.000332062 -0.000371034 -0.000353235)
(-0.000509912 -0.000379377 0.000436068)
(-0.000392495 0.0003527 0.000292036)
(0.000312377 0.00038928 0.000673704)
(0.000641562 0.00125808 0.000208938)
(0.000841225 0.000559018 -5.36306e-05)
(0.000614849 -0.000410337 -7.71385e-06)
(-0.000706798 -0.000260425 0.00024076)
(7.99145e-05 -0.000756743 0.000186302)
(5.21562e-05 -0.000101913 -0.000197142)
(-0.000187421 0.000210769 -0.00106769)
(0.000393471 6.54379e-05 0.000213116)
(-0.000185431 -0.000445532 -0.000466541)
(0.00103183 -0.000223958 -0.000386426)
(-0.000288069 0.000623117 0.000257703)
(0.000713205 0.000280402 0.000893681)
(-0.000645974 0.000466582 0.000440973)
(0.00121714 -0.00133763 0.00133621)
(0.00103551 -0.00100145 6.70858e-05)
(0.000195681 -0.000325054 -0.000737913)
(0.000399114 0.00025235 4.37157e-05)
(0.000148734 0.000354467 0.000651543)
(-0.000421515 0.000684242 0.000151745)
(-0.000711578 -0.000449117 -0.000357638)
(-0.000428127 -0.000824648 0.000547527)
(-0.000104881 3.42774e-05 0.000258147)
(-0.000205034 0.00158088 -0.000448673)
(0.00026453 -8.61293e-06 3.06313e-05)
(0.000105188 0.000434624 -0.000171208)
(-0.000655927 0.000552048 -0.000445218)
(-0.0010701 -0.000101115 0.000335669)
(-6.58534e-06 0.000299622 0.00093285)
(-0.00106727 -0.000449332 0.000125672)
(7.84391e-05 0.000301208 5.05162e-06)
(-0.000799116 0.000493515 -4.53621e-05)
(0.000572077 0.000455286 0.000260289)
(-3.03376e-06 0.00017931 0.00130421)
(0.00185593 0.00109267 -0.000974555)
(0.000264883 -2.7587e-05 -0.000448121)
(-0.000101685 0.000837423 0.000105683)
(-0.000319663 0.000133565 -0.000145285)
(-0.000925616 -0.000731178 -6.59947e-06)
(0.000731427 0.00045535 -9.17207e-06)
(-0.000541297 -0.000571988 0.000244955)
(-0.000712444 -0.000271594 6.36941e-05)
(0.000815958 -8.02899e-05 -0.000982673)
(3.28758e-05 0.00049083 0.00111667)
(0.000172074 0.000177945 0.000142192)
(0 0 0)
(0.00133855 7.85539e-06 -0.000151877)
(-0.000264048 0.000550407 0.00177287)
(4.62164e-05 -0.000680196 0.00045156)
(0.000124417 -0.00058331 -0.000374798)
(0 0 0)
(0.00126663 -0.000918285 0.000377164)
(-9.74952e-05 0.000260752 0.000794364)
(-0.000467389 -9.98156e-05 -0.000207776)
(-0.000376085 0.000438109 0.000394449)
(-0.000219945 0.000608643 0.000683887)
(-8.82176e-05 0.000979553 -0.000140872)
(-0.000376166 0.000343353 0.000485361)
(0.000187827 0.000428457 -0.000550646)
(0.000380998 -0.000782296 0.000692465)
(-0.000858107 0.000585633 -0.00193514)
(-0.000291853 -0.00028031 -0.000219576)
(0.000808644 -0.000820061 0.00144637)
(-6.51965e-06 0.000626331 0.00027278)
(-3.78126e-05 -0.000936456 -0.00050154)
(-0.000181407 0.000189208 0.000815333)
(5.82447e-05 0.000207127 0.000682044)
(0.000140402 -0.000204743 0.000339502)
(-0.000559912 0.000312804 -0.000987741)
(-0.000651014 -0.000876173 -6.63875e-05)
(0.0014097 0.00107937 4.28008e-05)
(2.43987e-05 -8.53767e-05 -5.29775e-05)
(-0.000455977 0.000589503 -0.000162718)
(0.000201969 -0.00109465 3.44719e-05)
(-3.60733e-05 0.00120894 -0.000542225)
(1.09072e-05 -0.00102684 -0.000139186)
(0 0 0)
(0 0 0)
(-0.000567029 0.000603755 0.000140852)
(-0.000263127 0.000421158 0.000272326)
(0.00062853 0.00063769 5.46126e-05)
(-0.000327385 -0.000685145 0.00095704)
(-0.000324675 -0.000427738 0.0010307)
(-0.000938113 0.0010139 0.000174027)
(0.00059058 -0.000290477 0.00247185)
(0.000451771 0.000113236 0.000321144)
(-0.00042805 0.000690608 -0.000937785)
(-0.000649538 0.000376824 0.000911965)
(-8.76752e-05 6.75634e-05 -0.000520116)
(7.29859e-05 -0.000641726 0.00052411)
(0.000216642 0.000861273 -0.00024772)
(-0.000143975 -8.67948e-05 -2.47832e-05)
(0.000909632 0.000391479 0.00036278)
(6.42853e-05 -7.46892e-05 0.000874846)
(0.000406939 8.36048e-05 0.000205129)
(0.00117035 -0.000341581 -0.000169773)
(4.58599e-05 0.000293564 0.000149972)
(0.00017793 -0.000285676 2.92599e-05)
(-0.000415439 -0.000193032 0.000881379)
(0.000191093 0.000167899 -0.000120434)
(0.000256748 -3.86895e-05 0.000533687)
(1.62403e-05 0.000488877 2.33516e-05)
(-0.000181995 -0.000208605 0.000160969)
(-0.000882207 0.000417344 0.000720231)
(0.00028244 0.000190222 -3.97684e-05)
(-0.000587587 0.000217285 -0.000387914)
(0.00101919 0.0010629 0.00263905)
(-0.000502329 -0.000726863 -0.00115837)
(0.000592013 0.000865485 5.02918e-05)
(-8.34827e-05 0.000224977 -0.000182011)
(-6.81664e-05 -0.000838784 -0.00029916)