/*--------------------------------*- C++ -*----------------------------------*\
  =========                 |
  \\      /  F ield         | OpenFOAM: The Open Source CFD Toolbox
   \\    /   O peration     | Website:  https://openfoam.org
    \\  /    A nd           | Version:  7
     \\/     M anipulation  |
\*---------------------------------------------------------------------------*/
FoamFile
{
    version     2.0;
    format      ascii;
    class       volScalarField;
    location    "0.00072";
    object      dsmcRhoN;
}
// * * * * * * * * * * * * * * * * * * * * * * * * * * * * * * * * * * * * * //

dimensions      [0 -3 0 0 0 0 0];

internalField   nonuniform List<scalar> 
125
(
81
77
70
66
63
72
74
72
81
79
63
66
77
86
74
72
63
71
68
75
83
71
75
68
77
80
58
69
66
75
70
57
79
79
71
74
79
51
71
71
80
74
64
72
77
68
66
71
86
70
78
90
79
69
74
85
67
58
80
73
81
79
58
69
79
86
76
66
73
71
64
86
59
85
81
88
71
73
99
75
64
71
83
78
76
70
79
72
66
97
68
63
70
75
70
59
68
72
72
74
71
63
86
74
82
67
71
78
81
70
73
69
73
76
78
78
99
69
66
81
82
69
64
79
64
)
;

boundaryField
{
    sides
    {
        type            symmetry;
    }
    empty
    {
        type            empty;
    }
    procBoundary3to2
    {
        type            processor;
        value           uniform 68;
    }
}


// ************************************************************************* //
