/*--------------------------------*- C++ -*----------------------------------*\
  =========                 |
  \\      /  F ield         | OpenFOAM: The Open Source CFD Toolbox
   \\    /   O peration     | Website:  https://openfoam.org
    \\  /    A nd           | Version:  7
     \\/     M anipulation  |
\*---------------------------------------------------------------------------*/
FoamFile
{
    version     2.0;
    format      ascii;
    class       volScalarField;
    location    "0.00072";
    object      dsmcRhoN;
}
// * * * * * * * * * * * * * * * * * * * * * * * * * * * * * * * * * * * * * //

dimensions      [0 -3 0 0 0 0 0];

internalField   nonuniform List<scalar> 
125
(
84
82
67
63
77
57
60
72
83
73
72
66
85
84
84
93
61
72
54
65
70
71
57
83
73
86
68
70
56
69
81
66
71
59
74
72
66
72
78
69
66
75
78
81
62
68
72
72
81
78
83
81
76
77
77
77
77
67
94
60
84
82
70
86
58
69
72
79
74
72
74
63
56
69
74
75
82
92
85
74
60
71
83
89
63
79
66
86
75
72
72
74
66
85
71
85
51
68
78
63
68
70
77
81
79
77
82
83
74
58
80
89
75
79
83
75
68
84
65
73
64
63
80
67
74
)
;

boundaryField
{
    sides
    {
        type            symmetry;
    }
    empty
    {
        type            empty;
    }
    procBoundary3to2
    {
        type            processor;
        value           uniform 68;
    }
}


// ************************************************************************* //
