/*--------------------------------*- C++ -*----------------------------------*\
  =========                 |
  \\      /  F ield         | OpenFOAM: The Open Source CFD Toolbox
   \\    /   O peration     | Website:  https://openfoam.org
    \\  /    A nd           | Version:  7
     \\/     M anipulation  |
\*---------------------------------------------------------------------------*/
FoamFile
{
    version     2.0;
    format      ascii;
    class       volScalarField;
    location    "0.00072";
    object      dsmcSigmaTcRMax;
}
// * * * * * * * * * * * * * * * * * * * * * * * * * * * * * * * * * * * * * //

dimensions      [0 3 -1 0 0 0 0];

internalField   nonuniform List<scalar> 
125
(
6.98895e-16
7.15619e-16
7.13544e-16
7.19814e-16
7.24462e-16
7.56042e-16
7.06138e-16
7.10854e-16
7.08382e-16
7.32568e-16
7.17014e-16
6.7826e-16
7.18905e-16
6.83844e-16
6.92348e-16
7.17828e-16
6.71386e-16
7.01571e-16
6.88363e-16
7.09482e-16
7.12012e-16
6.93943e-16
7.02441e-16
7.07136e-16
7.40742e-16
7.0209e-16
6.8003e-16
6.91388e-16
7.08386e-16
6.98878e-16
6.76965e-16
7.18385e-16
7.01788e-16
6.99528e-16
7.11605e-16
7.18997e-16
6.79494e-16
6.87949e-16
6.93948e-16
7.4629e-16
7.03241e-16
7.00453e-16
6.87726e-16
7.07041e-16
6.89026e-16
6.95515e-16
7.11194e-16
7.108e-16
7.178e-16
6.82079e-16
6.69069e-16
6.84999e-16
6.87887e-16
7.10698e-16
6.99808e-16
7.23031e-16
7.44153e-16
7.06099e-16
6.95704e-16
6.99319e-16
7.24487e-16
7.07107e-16
6.90179e-16
7.44275e-16
7.07042e-16
6.92967e-16
6.9767e-16
6.91174e-16
7.19245e-16
6.92916e-16
6.9263e-16
7.12559e-16
7.11186e-16
7.05978e-16
7.01515e-16
6.75565e-16
7.11999e-16
7.13498e-16
6.90592e-16
7.40873e-16
7.00317e-16
6.75735e-16
6.80057e-16
6.99814e-16
7.31131e-16
6.98318e-16
7.3851e-16
6.97899e-16
6.78456e-16
6.77256e-16
6.84953e-16
7.03988e-16
6.90492e-16
7.11434e-16
7.36427e-16
6.73574e-16
6.94114e-16
7.21485e-16
7.10467e-16
6.9354e-16
7.15585e-16
6.74245e-16
6.70007e-16
6.99718e-16
7.10777e-16
6.94536e-16
6.90757e-16
6.84194e-16
7.38555e-16
7.18133e-16
7.1969e-16
7.07865e-16
6.9244e-16
6.8896e-16
6.89835e-16
6.82104e-16
7.16417e-16
6.74372e-16
6.98059e-16
7.09889e-16
7.21075e-16
7.0904e-16
6.94479e-16
7.19036e-16
7.02962e-16
)
;

boundaryField
{
    sides
    {
        type            symmetry;
    }
    empty
    {
        type            empty;
    }
    procBoundary3to2
    {
        type            processor;
        value           uniform 7.1368e-16;
    }
}


// ************************************************************************* //
