/*--------------------------------*- C++ -*----------------------------------*\
  =========                 |
  \\      /  F ield         | OpenFOAM: The Open Source CFD Toolbox
   \\    /   O peration     | Website:  https://openfoam.org
    \\  /    A nd           | Version:  7
     \\/     M anipulation  |
\*---------------------------------------------------------------------------*/
FoamFile
{
    version     2.0;
    format      ascii;
    class       volScalarField;
    location    "0.00072";
    object      linearKE;
}
// * * * * * * * * * * * * * * * * * * * * * * * * * * * * * * * * * * * * * //

dimensions      [1 -1 -2 0 0 0 0];

internalField   nonuniform List<scalar> 
125
(
200.365
220.259
141.279
140.612
177.486
157.263
148.632
191.612
199.751
146.557
142.226
151.833
170.452
184.467
189.417
226.542
134.627
146.221
84.3481
164.775
142.042
158.132
119.496
172.655
166.859
195.09
148.333
156.945
142.377
160.021
168.174
155.502
145.614
114.711
165.506
149.701
153.315
145.832
189.358
149.151
154.07
185.247
148.477
183.342
120.926
164.183
162.782
168.423
184.274
145.67
198.867
177.552
149.629
170.174
161.465
153.028
171.664
142.692
225.111
113.475
192.207
196.452
168.194
232.079
131.21
149.726
163.821
135.031
178.643
163.988
182.487
141.886
100.424
149.468
138.464
170.181
198.925
181.003
170.44
160.577
124.29
165.541
187.649
181.558
135.007
210.669
148.561
171.472
147.613
156.331
150.096
160.417
133.85
218.367
133.525
180.86
118.296
134.067
191.855
141.065
127.224
151.878
174.236
181.931
195.283
152.604
164.419
188.108
165.461
129.92
202.518
229.451
165.495
155.104
170.537
160.408
169.002
164.452
159.538
146.238
128.273
130.581
189.382
167.689
159.082
)
;

boundaryField
{
    sides
    {
        type            symmetry;
    }
    empty
    {
        type            empty;
    }
    procBoundary3to2
    {
        type            processor;
        value           uniform 147.187;
    }
}


// ************************************************************************* //
