/*--------------------------------*- C++ -*----------------------------------*\
  =========                 |
  \\      /  F ield         | OpenFOAM: The Open Source CFD Toolbox
   \\    /   O peration     | Website:  https://openfoam.org
    \\  /    A nd           | Version:  7
     \\/     M anipulation  |
\*---------------------------------------------------------------------------*/
FoamFile
{
    version     2.0;
    format      ascii;
    class       volScalarField;
    location    "0.009";
    object      dsmcRhoNMean;
}
// * * * * * * * * * * * * * * * * * * * * * * * * * * * * * * * * * * * * * //

dimensions      [0 -3 0 0 0 0 0];

internalField   nonuniform List<scalar> 
1000
(
16.3083
15.734
15.7332
16.1776
16.6129
16.4237
16.7739
16.7211
17.5328
17.1709
17.0919
17.0617
16.8912
16.7561
17.0296
16.8797
17.7587
17.6884
17.5597
17.9292
17.5162
17.641
17.3537
17.4138
17.0474
16.8906
16.8453
17.0582
16.3092
15.967
15.7244
15.8272
16.0312
16.1571
16.3786
16.3159
16.0463
16.4466
16.1674
16.7659
16.1477
16.2079
16.0449
16.4017
16.4467
16.7259
17.0159
16.7876
16.5529
16.5661
16.7093
16.6092
16.8049
17.2994
17.1583
17.3848
17.502
17.2697
17.2176
17.2606
17.3464
17.0202
16.8818
16.5388
16.5282
16.982
16.7879
16.5821
17.2714
16.9912
17.1644
17.0712
16.8339
16.9086
16.5681
17.4132
17.5177
17.6807
17.6234
17.7127
17.8953
17.8468
18.1464
18.2914
17.6981
17.6437
17.8392
17.125
16.7216
16.4343
16.6237
16.4338
16.4128
16.2877
16.2192
15.901
16.1926
16.231
15.5762
15.973
16.6594
16.2516
16.2937
16.1158
17.1028
17.5843
17.0809
17.2224
17.6647
17.1799
17.8466
17.6506
17.1576
17.0061
17.0716
17.3996
16.8394
17.0396
16.9701
17.2501
16.931
17.2096
17.482
17.0824
17.543
17.2628
17.5448
16.9853
17.3357
17.7492
17.1737
17.5514
17.1668
16.9236
17.1926
17.5062
17.5923
17.4383
17.5568
17.9643
17.8773
17.6584
17.9133
16.9227
16.753
16.4418
16.8084
16.3537
16.3471
16.4531
16.2678
16.6968
16.4643
16.399
16.4721
16.4174
16.66
16.2822
15.6858
15.669
15.7308
15.4437
15.9733
15.9114
16.3919
16.285
16.4694
16.6637
16.3128
16.6204
16.3422
17.1641
16.6058
16.7678
16.6608
16.9979
16.6257
16.133
16.2498
16.4608
16.5544
15.8932
16.1784
15.7403
15.8532
16.0444
16.7882
16.1781
16.4477
16.2237
16.1033
16.1724
16.3274
16.3442
16.1882
16.3627
16.1803
16.4176
16.5144
16.9792
16.3733
16.2093
16.3002
16.6036
16.4116
16.0759
16.3828
16.4818
16.2141
16.5978
16.3457
16.6908
16.685
17.4626
17.1437
17.0751
17.0181
17.127
16.785
17.0351
17.1839
16.5339
16.1571
16.689
16.3567
17.2487
17.4
16.9283
16.9316
17.1332
17.2296
17.1069
16.9887
16.3951
16.7556
16.529
16.1268
16.6586
16.0248
16.5494
16.2253
16.4532
16.4223
16.3078
16.9234
16.3907
16.6397
16.563
16.55
16.1124
16.4956
16.8571
16.0293
15.8149
16.0587
16.0843
16.2602
16.3092
16.1028
15.8702
15.7854
15.7652
15.7096
15.6176
15.2396
15.6607
15.6157
15.4118
15.6608
15.2298
15.0601
14.7094
15.3463
15.4329
15.2991
15.0404
14.8096
14.9757
15.0461
15.7406
15.4789
15.0899
15.2586
14.5987
14.5678
14.9527
15.2622
15.3944
15.3397
15.0052
14.5067
15.2911
15.6368
15.5766
15.5884
15.6412
15.84
15.9996
15.7296
15.6862
14.9582
15.4279
15.4189
15.0466
14.9529
15.0577
15.3571
15.7981
15.4077
14.9761
15.288
14.9663
15.2062
15.0738
14.8394
15.3231
14.659
15.1851
15.3418
15.1028
15.5626
15.1252
15.0191
15.0129
14.4517
14.2722
14.703
14.6582
14.0272
14.7488
14.6286
14.6608
14.686
14.4007
14.1833
14.2828
14.4114
13.861
14.0617
14.1076
14.3738
14.3223
14.2666
14.891
14.9633
14.9357
14.703
14.7598
14.545
15.0204
14.7469
14.7441
14.3231
14.4331
14.2816
13.7832
13.7793
13.9393
14.2303
14.4279
14.3096
14.2308
13.6781
13.8097
13.9733
13.9161
13.6456
13.7268
13.9789
14.4279
14.1459
13.8484
13.5986
13.3793
13.7507
13.4849
13.4676
13.9038
13.6497
13.4187
12.949
13.2889
13.6997
13.7239
13.1678
13.3643
13.2662
13.3511
13.5441
12.9869
12.8433
12.7337
12.8224
12.9591
12.8827
13.0146
13.031
12.999
12.7438
13.2768
13.1132
12.717
12.904
13.4373
13.3324
12.6867
12.5294
13.1589
12.7399
12.4429
12.2784
12.8812
12.6472
12.4749
12.4491
12.1338
12.7689
12.2287
12.4076
12.7428
12.8286
12.5377
12.3198
12.4096
12.309
12.2121
11.7502
11.838
12.1126
12.0581
12.0517
12.1336
11.9526
11.9344
12.2377
12.1724
11.9929
12.2773
12.3567
12.169
11.9533
11.8159
12.1497
11.7959
12.0367
11.9028
12.1641
11.5172
11.257
11.5372
11.4632
11.7804
11.5106
11.7101
11.866
11.541
11.3882
11.89
11.8598
11.4921
11.3571
11.0266
10.8878
11.0879
11.068
10.974
11.6553
11.8267
11.2263
11.5192
11.1839
11.0193
10.9651
11.1256
11.2041
11.0259
10.8716
11.1328
11.0544
10.9866
11.4698
10.8696
10.9529
10.9672
11.3071
10.9407
10.8439
10.72
10.9207
10.7496
10.8133
10.6408
10.4756
11.0899
10.7749
10.8994
10.7066
10.4192
10.3384
10.2271
10.2438
10.4977
10.8682
10.7262
10.4692
10.5447
10.4143
10.2239
10.4459
10.0263
10.2726
10.4237
10.0238
9.95433
9.91156
10.2727
10.1202
10.4154
9.90267
9.88333
9.70211
9.93433
9.73667
9.66433
9.54467
9.67233
9.76944
9.86722
9.61444
9.78833
9.75056
10.0112
9.80856
9.76111
9.844
9.92467
9.79244
9.84667
9.45067
9.56822
9.748
9.81444
9.59522
10.0082
9.81844
9.64733
9.97622
9.44622
9.18
9.42033
9.68089
9.62944
9.45522
9.11044
9.38422
9.31133
9.10989
9.12367
9.11611
9.03122
9.57944
9.19767
8.75822
8.90178
9.06989
8.98044
8.98978
9.10067
9.29222
9.26778
8.79867
8.39667
8.55944
8.69489
8.80656
8.60444
8.67156
8.98767
8.58156
8.46478
8.23633
8.29944
8.27144
8.72856
8.27178
7.86122
8.42533
8.36133
7.98222
8.15011
8.05889
8.43378
8.00278
8.03067
8.10533
8.15644
7.78978
7.94544
8.306
8.16233
7.84344
7.89144
7.74344
7.96489
7.68244
7.41244
7.57633
7.39233
7.90567
7.68489
7.93922
7.81622
7.58256
7.469
7.54078
7.43256
7.55422
7.70311
7.82767
7.95711
8.01678
7.609
7.64111
7.556
7.35722
7.328
7.49133
7.37944
7.07567
7.34278
7.23756
7.28933
7.15722
7.36133
7.53633
7.246
7.16322
7.12644
7.09311
7.05456
7.13678
6.897
7.09556
6.74311
6.78578
6.62622
6.66067
6.72867
6.66211
6.77789
6.78167
6.72456
7.017
7.32189
7.17122
7.23956
7.10022
6.86922
7.06267
6.76144
7.012
6.78756
6.86544
7.05244
6.88422
6.466
6.70056
6.69544
6.39567
6.42989
6.51267
6.55122
6.30211
6.31989
6.15333
6.30867
6.50978
6.46478
6.22444
6.43256
6.40689
6.277
6.14733
6.38111
6.13567
6.275
6.33644
6.58078
6.46311
6.41644
6.39389
6.25011
6.24111
6.03256
6.242
6.16933
6.44544
6.83
6.34889
6.50944
6.37856
6.51911
6.23089
6.33767
6.12267
6.235
6.30211
6.35222
6.55633
6.57467
6.30289
6.54067
6.48089
6.39567
6.49567
6.66033
6.30233
6.13256
6.28522
6.57578
6.69789
6.37678
6.28656
6.459
6.52811
6.54544
6.00744
5.798
6.08122
6.402
6.35189
6.12167
6.11289
5.965
6.34344
6.40811
6.44078
6.40022
6.23844
6.59567
6.093
6.12389
6.54478
6.56511
6.43922
6.58433
6.63144
6.515
6.27689
6.42644
6.34544
6.25178
6.27967
6.32644
6.23289
6.344
6.39122
6.279
6.06656
6.15989
6.55944
6.42844
6.52233
5.99522
6.09278
6.14822
6.307
6.48833
6.354
6.40033
6.40644
6.14222
6.04156
6.34178
6.16756
6.23522
6.26267
5.99744
6.09156
5.92589
6.04722
5.92433
5.88844
6.16611
5.95456
5.87078
6.08589
5.75867
5.87689
5.85
5.82744
6.219
6.00256
6.05189
5.94778
6.18522
5.94089
5.94911
5.84111
5.91478
5.95867
5.65022
5.661
5.91511
5.731
5.58244
5.682
5.74178
5.79722
5.214
5.23833
5.53167
5.70089
5.70611
5.67467
5.85878
5.50633
5.76611
5.72356
5.45722
5.40689
5.52078
5.55956
5.56822
5.47833
5.433
5.29411
5.49633
5.60656
5.59133
5.513
5.68511
5.43811
5.63089
5.32422
5.64356
5.561
5.30522
5.22256
5.164
5.31478
5.675
5.73456
5.65522
5.54056
5.50822
5.62867
5.4
5.26267
5.15011
5.375
5.46767
5.53444
5.55089
5.36622
5.37656
5.38578
5.57244
5.36856
5.16133
5.07522
5.20822
5.18867
5.18056
5.10667
5.10922
4.94367
4.90989
4.95133
5.17756
5.27444
5.05367
5.30733
5.20944
5.36233
5.00311
5.26911
4.90011
5.20078
5.13611
4.78689
4.85456
4.90933
4.94556
5.36856
5.188
5.27978
5.26089
5.04411
5.13489
5.09756
5.20511
5.192
5.17856
5.28289
5.41633
5.17478
5.06433
5.00811
4.97011
4.78
4.91856
5.07667
4.96567
5.06678
4.92133
4.92722
4.95833
5.14989
5.08322
5.24244
5.02767
5.08011
5.14456
5.08911
5.24378
4.98167
4.85511
4.81067
5.05367
5.32933
5.15722
4.82344
5.11189
5.07256
4.73322
4.78522
5.05944
4.97478
5.15267
5.12867
5.01256
5.011
5.05822
5.36889
5.22733
5.04
5.27878
5.297
5.20733
5.13589
5.11822
5.04456
5.03556
5.05589
5.05578
4.918
5.16467
5.37678
4.894
4.64222
4.90633
4.93478
4.75044
4.72389
4.60322
4.676
4.63044
4.787
4.46578
4.66044
4.69089
4.67233
4.59444
4.76644
4.997
5.02067
4.66011
4.68078
4.71022
4.72878
4.963
4.78122
4.90878
4.78978
4.79944
4.58333
4.47444
4.56378
5.13056
5.15933
5.32122
5.35033
5.20644
5.35478
5.46422
5.35422
5.27244
5.05744
5.23733
5.45033
5.19378
5.27067
5.21056
5.06467
5.22844
5.10089
5.10733
5.34078
5.14156
)
;

boundaryField
{
    sides
    {
        type            symmetry;
    }
    empty
    {
        type            empty;
    }
}


// ************************************************************************* //
