/*--------------------------------*- C++ -*----------------------------------*\
  =========                 |
  \\      /  F ield         | OpenFOAM: The Open Source CFD Toolbox
   \\    /   O peration     | Website:  https://openfoam.org
    \\  /    A nd           | Version:  7
     \\/     M anipulation  |
\*---------------------------------------------------------------------------*/
FoamFile
{
    version     2.0;
    format      ascii;
    class       volScalarField;
    location    "0.009";
    object      linearKE;
}
// * * * * * * * * * * * * * * * * * * * * * * * * * * * * * * * * * * * * * //

dimensions      [1 -1 -2 0 0 0 0];

internalField   nonuniform List<scalar> 
1000
(
1.97201
2.96638
2.86776
2.70932
1.60112
4.48735
2.73741
3.00069
2.85966
4.39675
3.09271
3.76642
2.28568
3.69585
4.29997
3.61036
6.91061
3.99503
3.00109
4.51422
3.2121
3.24943
4.53903
2.802
3.20946
2.34839
2.09852
2.19844
3.03834
2.66301
4.73598
4.64097
4.12646
1.74731
2.98422
5.45221
4.80766
3.90573
3.71794
4.99204
5.4456
2.71567
3.06322
2.59201
4.2657
1.50724
5.55108
4.87644
3.03744
2.91132
3.89549
1.57533
4.23737
3.62984
4.96696
2.32294
2.50029
2.93613
1.29727
3.049
4.783
2.65299
2.64393
2.48406
4.44972
3.25107
4.35077
1.74018
4.07401
3.56384
4.11373
1.82091
3.02394
4.68063
4.6262
2.59508
1.783
3.48721
3.61493
3.06251
4.20754
3.80251
4.66464
4.41132
4.42519
3.03055
4.64339
3.52893
4.3082
1.75299
1.53269
2.75172
5.24217
4.93314
4.51173
2.57808
3.83993
1.41879
3.55188
2.35442
2.04227
4.00602
2.31078
1.87729
2.60523
3.47066
2.74718
2.99355
4.93223
2.55279
3.69433
6.10965
3.62096
2.15821
2.17651
3.60278
2.55893
2.86502
3.49794
2.75566
3.03423
3.87646
3.22521
3.86519
4.08062
3.86686
3.35293
2.58423
5.18912
1.84261
3.72723
3.8729
3.94319
4.21869
2.86213
4.9512
4.96144
2.25662
1.86024
3.95389
4.36247
3.14545
2.16869
3.44423
5.06459
1.60106
2.20296
3.02642
3.55197
2.70221
2.68395
2.51052
2.29511
2.08941
4.19213
3.93868
3.61455
3.64778
3.46147
2.81078
2.39741
3.96439
7.05706
2.21987
3.12636
3.50635
3.28834
2.44136
2.50793
5.09533
3.28477
4.07229
3.24084
3.68267
2.88101
2.0673
4.00103
1.73027
3.31849
5.08296
4.7213
1.74666
4.16299
2.63279
1.46483
2.03669
2.39327
1.66625
4.09487
3.629
1.71719
1.77961
2.12488
2.17749
2.10794
2.76363
4.70232
2.80125
2.6814
4.53068
2.95522
2.95186
3.60125
2.74922
2.00366
2.60101
2.44835
4.46588
1.71059
3.16914
3.28889
2.76467
2.6602
2.46863
2.46887
2.57296
3.92691
1.8756
2.23533
3.07221
3.40401
1.89229
2.06768
1.43739
2.42712
3.1103
2.21753
2.05959
2.96285
2.51067
2.41794
2.27038
1.64032
3.40539
3.37228
1.81812
4.33249
3.0247
2.94637
1.43034
1.86727
1.95499
2.99893
2.51067
2.68766
2.51185
2.87839
1.4739
1.5514
2.65956
4.18
3.6801
2.52458
1.36164
1.33964
2.16562
1.85663
2.42659
2.92989
2.52594
2.58625
1.69438
2.77855
1.20336
0.925473
2.31369
2.10204
1.65534
2.36912
1.92465
2.77016
2.56062
1.98513
0.592886
1.41187
3.48469
2.09072
2.78678
2.06239
1.61451
2.8382
3.15034
0.494419
1.92418
1.55708
3.16256
0.862766
2.15359
3.41806
1.57035
2.70045
5.0774
1.18229
2.05993
1.31047
1.02151
1.75544
2.16465
2.04319
2.61831
0.855404
2.09659
1.41996
1.81337
3.03914
2.31992
1.38113
2.28881
2.48069
1.48982
1.06086
1.92326
2.14007
1.56919
2.09532
2.23725
3.12138
3.00656
2.16171
2.78387
1.66639
1.34756
1.90448
1.10953
2.43222
2.98676
1.7361
2.07885
1.67342
2.33121
2.45468
2.08604
2.58698
1.04118
2.54487
2.84516
3.31445
1.33515
0.717736
4.45547
2.43062
2.21777
1.31092
2.37329
2.78103
0.670047
1.9058
2.53099
4.54003
1.65156
4.79141
0.707575
1.23882
2.29865
2.25557
1.45327
2.19779
1.93134
1.07102
1.51387
2.1089
2.06798
1.4979
3.4866
1.69283
4.11961
1.18158
3.60176
1.01026
2.02772
2.16553
0.911282
2.61525
1.69911
1.56156
1.95522
1.39057
2.49506
1.44669
2.19005
3.01159
2.2159
1.85991
3.50457
1.1348
1.60874
1.38726
4.17171
2.58765
3.41736
1.82927
1.15791
1.87127
1.84382
1.12101
0.845118
1.36435
1.77885
2.22173
2.00558
1.48158
1.6349
1.63862
0.7129
3.05379
2.45843
0.966582
1.51399
2.76428
1.75556
1.36474
0.498119
1.02893
0.653052
1.87179
1.78442
0.824203
2.8677
0.638282
2.13924
2.59869
2.03885
1.49531
2.75524
2.10573
1.60225
1.73318
1.26572
2.34847
3.23741
2.90553
0.345765
1.65234
2.53355
2.30418
3.7499
1.54811
2.56584
1.98978
1.67923
1.98944
3.82454
1.78478
2.71678
3.66668
1.92854
1.9741
1.92947
3.33611
0.773892
1.51211
1.93461
1.84015
1.17534
1.55759
2.40448
3.08268
1.10487
3.02312
1.71392
1.19347
1.10094
2.56029
3.9107
1.84059
2.25668
1.26309
1.53787
3.55482
0.743166
1.91127
1.73209
2.07874
1.71402
2.19463
4.16895
2.37633
2.05321
3.01151
1.5154
3.28342
1.39543
3.50502
2.3354
3.34194
2.25429
2.53615
1.20867
2.84694
4.02719
1.27065
1.77086
2.50663
1.31954
3.64967
3.2947
1.36486
1.31195
1.42894
2.06899
1.63347
2.93319
1.57659
1.66514
2.25975
3.14706
2.5619
1.94289
0.983078
2.44476
1.07643
2.18589
3.08656
2.60532
2.78636
1.46171
0.481448
3.57037
2.48084
1.78186
1.28974
2.53858
1.73175
4.17604
1.47049
2.56503
1.64037
1.25251
1.23392
2.17913
2.54805
1.04145
2.45896
1.78717
1.96897
1.38174
1.37868
2.63588
1.8444
3.03397
2.16688
2.04429
2.46485
2.38452
3.40007
1.78053
3.52508
1.05358
1.19782
2.06825
1.42199
1.10894
1.5417
0.55087
0.970153
3.5518
1.20666
2.60329
1.15144
1.59274
0.755811
2.56346
2.50209
2.9553
1.4741
2.28925
1.97819
1.39722
3.24217
2.20666
1.82275
2.43093
2.75294
4.02856
3.40524
2.37461
1.01068
0.981956
1.27129
1.38753
1.64818
2.21664
1.88275
1.86886
0.618479
1.5433
1.91614
2.10153
1.119
1.3997
0.880362
1.7098
1.05192
3.83015
2.14473
3.6747
2.12458
2.50915
1.39719
2.5681
2.28266
1.79553
0.738522
1.86083
3.40299
1.08715
1.14185
1.20561
2.1857
3.1376
2.48759
1.28779
2.1924
3.07785
2.41074
2.11221
2.52193
0.900738
1.44394
1.96106
2.19916
1.748
2.59212
2.8371
2.0458
3.81739
1.91262
2.2705
1.02744
0.649286
1.65127
2.76809
2.0145
1.92122
3.84109
2.78814
2.29138
0.949797
2.30523
2.02633
2.68747
1.69711
2.49354
1.58782
2.40032
2.68961
2.2819
1.04813
0.439162
3.63269
1.69418
1.6868
1.3977
1.99816
1.59195
3.75551
2.25432
1.74612
1.07143
0.5777
3.76685
1.82921
2.00802
0.794585
1.53
0.99374
2.12727
1.21534
1.7648
1.24006
1.18861
1.23417
1.26979
1.6964
0.97959
3.03013
1.15094
1.61229
4.41707
2.26447
3.82076
1.46416
1.13031
1.96975
0.873253
1.31862
3.64002
4.847
3.39197
2.60652
1.22404
1.33651
4.52831
2.06096
1.15365
2.0098
1.03125
1.29332
2.28564
1.62432
1.81405
0.639747
1.506
1.20192
0.940826
2.44331
3.48758
2.2687
1.04366
0.914819
3.78447
1.86956
2.23869
2.98446
1.6341
1.6655
1.7323
2.48944
1.90144
1.37631
2.72508
2.90568
1.12001
1.47155
1.52519
0.364924
1.88666
2.57015
1.28703
2.94257
1.43466
0.952879
2.06073
2.92222
3.09304
2.00156
1.76772
1.18298
1.03764
1.08796
1.2458
0.576901
2.79944
4.4513
1.71245
2.02732
1.73053
1.68873
2.77904
2.89106
1.66946
2.5706
1.98065
1.72358
1.04261
4.4568
3.30397
0.846724
0.639608
1.08025
1.79196
0.819188
2.83575
1.27042
3.34128
1.10222
2.30023
2.32855
2.28545
1.47005
0.860603
2.82836
0.766613
3.57275
2.24864
2.97214
1.4558
1.03707
1.59293
2.12759
1.37742
0.456593
1.33003
3.60373
0.903131
1.41055
3.2919
1.5134
3.0648
1.17425
2.24863
2.21439
3.25422
1.37554
4.35432
2.06376
2.5633
2.13644
1.44376
0.937946
3.11079
0.641309
3.201
1.51979
1.44198
0.983783
2.05041
3.91623
1.002
1.00545
1.55267
1.77213
3.65998
0.941127
1.25917
0.893929
1.45364
1.37726
2.06074
2.53298
1.83277
2.03228
1.67466
1.97074
1.23137
1.49689
1.63262
1.44598
1.95843
3.36469
1.32599
1.78504
2.62384
2.42437
3.20981
2.1409
1.26467
1.34361
1.15362
0.827233
0.966496
2.90311
1.79742
1.95688
1.37992
1.00812
3.27926
0.715715
0.778454
1.81679
0.746356
3.02398
1.40592
1.10485
0.808521
1.74298
1.96058
2.80858
2.46356
1.92882
1.78836
0.287251
1.50636
2.33276
1.39116
1.09469
2.76816
2.24535
2.92282
1.0604
2.77314
2.05486
3.17654
3.25672
2.06591
0.263142
0.615186
0.772225
3.178
3.83535
1.73939
0.122993
1.5374
2.82002
4.67045
2.41259
3.27212
0.963272
1.4093
1.83001
1.49531
2.06448
3.62049
2.36445
1.79746
0.8014
2.25853
1.84635
1.81057
1.3518
1.83155
0.851346
0.502059
1.954
1.3048
1.13439
1.16804
4.33015
2.42295
2.08736
2.79816
2.92425
3.60901
2.63162
1.46432
1.05839
1.43525
1.50333
0.939759
5.50598
0.52471
2.72902
2.51426
2.98856
2.16086
1.01231
0.715931
2.06596
0.912631
2.60841
3.00528
1.855
0.507437
3.18084
1.86306
3.41797
0.215201
2.46733
2.10871
4.17064
1.5338
0.239317
0.909238
0.569288
3.16707
1.34833
0.654572
1.618
3.1515
1.06079
3.23097
1.41403
1.49574
1.49005
2.72556
1.73924
1.23455
2.77757
2.96176
2.43024
0.676281
2.91204
0.999427
2.6618
1.78272
2.12657
1.45336
1.80551
3.55223
2.04444
2.03317
2.37235
2.24969
3.12902
2.37365
3.17712
2.32513
1.26297
3.61673
2.54167
0.939394
0.911052
2.07021
2.00449
1.28211
1.18062
2.30164
1.50457
0.735725
1.94985
1.28337
1.43458
0.565851
0.504064
0.565652
1.31163
0.341118
0.595938
1.60022
0.316608
)
;

boundaryField
{
    sides
    {
        type            symmetry;
    }
    empty
    {
        type            empty;
    }
}


// ************************************************************************* //
