/*--------------------------------*- C++ -*----------------------------------*\
  =========                 |
  \\      /  F ield         | OpenFOAM: The Open Source CFD Toolbox
   \\    /   O peration     | Website:  https://openfoam.org
    \\  /    A nd           | Version:  7
     \\/     M anipulation  |
\*---------------------------------------------------------------------------*/
FoamFile
{
    version     2.0;
    format      ascii;
    class       volVectorField;
    location    "0.009";
    object      momentumMean;
}
// * * * * * * * * * * * * * * * * * * * * * * * * * * * * * * * * * * * * * //

dimensions      [1 -2 -1 0 0 0 0];

internalField   nonuniform List<vector> 
1000
(
(6.166e-06 0.000457781 0.000177332)
(8.29897e-06 0.000565551 0.000137707)
(1.43449e-05 0.000494684 -5.85783e-05)
(2.47399e-05 0.000111086 -0.000131821)
(2.38532e-05 -1.35304e-05 -8.5479e-05)
(2.84006e-05 0.000146632 0.000122247)
(2.82672e-05 -7.82557e-05 0.000447048)
(2.4594e-05 5.12647e-05 0.000422634)
(2.64339e-05 0.000340206 0.000328979)
(2.31623e-05 9.16373e-05 1.04619e-05)
(2.91781e-05 -5.63789e-05 -0.000427916)
(3.34232e-05 -0.000215985 -0.00016505)
(3.14163e-05 -0.000166598 0.000166399)
(3.3214e-05 -0.000144249 -0.000217789)
(3.60951e-05 -7.87915e-06 -0.000446374)
(3.00598e-05 0.000172608 -0.00036882)
(2.96165e-05 0.000427372 -0.00068822)
(2.5856e-05 0.000472852 -0.000434682)
(2.11093e-05 0.000449061 -0.000129029)
(2.12349e-05 0.000741977 7.50556e-05)
(1.51092e-05 0.000551959 0.000302728)
(2.06598e-05 0.000136519 0.000478147)
(1.06575e-05 1.98804e-06 0.00073856)
(8.70972e-06 0.000227102 0.000744476)
(6.38886e-06 8.33342e-05 0.000664064)
(6.86659e-06 -2.45781e-05 0.000618607)
(1.19866e-05 -3.45218e-05 0.000156896)
(2.35561e-05 -0.000115177 0.000284443)
(2.50516e-05 -0.000235946 0.000386602)
(3.16385e-05 -0.000249915 0.000391999)
(3.23007e-05 -0.000251207 0.000234026)
(3.31125e-05 -9.25719e-05 0.000403498)
(2.66991e-05 9.35378e-05 0.000412835)
(3.21367e-05 0.000110603 0.000352306)
(3.27236e-05 0.000388069 0.000103359)
(2.19865e-05 0.000174694 8.73979e-05)
(1.75259e-05 8.29915e-05 -0.000155208)
(1.81368e-05 0.000351994 -0.000163494)
(1.03764e-05 0.000329384 -0.000181717)
(1.39964e-05 0.000259704 -0.000171338)
(5.08355e-06 0.000212674 -0.0002432)
(6.68095e-06 2.41805e-05 -0.000198691)
(1.541e-05 0.000230164 -0.000479703)
(1.81601e-05 0.00031079 -0.00063227)
(1.29166e-05 0.000562464 -0.000944057)
(1.26594e-05 0.000874256 -0.000893049)
(9.39301e-06 0.00102354 -0.000819692)
(1.02451e-06 0.000905817 -0.000859098)
(1.83742e-06 0.000890215 -0.000473605)
(9.05003e-06 0.000589867 -0.00040208)
(5.43308e-06 0.000655538 -0.000593873)
(1.47336e-05 0.000368901 -0.000478043)
(2.13022e-05 0.000755481 -0.000412334)
(1.51013e-05 0.000583195 -0.000458689)
(1.26316e-05 0.000799663 -0.000414712)
(1.37069e-05 0.000925537 -0.000322)
(1.88849e-05 0.00117283 -0.000336928)
(2.14848e-05 0.000994573 -0.000648768)
(3.20391e-05 0.000780998 -0.000662995)
(3.2114e-05 0.000424493 -0.000266703)
(1.87718e-05 0.000289842 -0.000210205)
(1.64456e-05 -3.18505e-06 -0.000325469)
(1.62015e-05 -0.000167589 -4.55274e-05)
(2.41116e-05 -0.000286341 -5.98334e-05)
(2.56962e-05 -0.000412696 0.0001226)
(2.81324e-05 0.000192499 0.000324686)
(3.3575e-05 -5.52662e-05 0.000226735)
(3.64744e-05 -0.000195386 0.000256813)
(3.80516e-05 7.97781e-05 2.1094e-05)
(3.42702e-05 3.55482e-05 -3.89234e-05)
(3.10872e-05 -0.000214021 -0.00015912)
(3.10968e-05 -0.000379699 -0.000103858)
(3.96225e-05 -0.00036968 2.93613e-05)
(3.60369e-05 -0.000360753 0.000119261)
(3.07709e-05 -0.000575074 0.000165413)
(3.25717e-05 -0.000607753 0.00063438)
(3.69291e-05 -0.000630871 0.000453566)
(3.7404e-05 -0.000736218 0.000431291)
(3.78407e-05 -0.000841496 0.000362345)
(4.81517e-05 -0.000314866 0.000483937)
(4.60192e-05 -0.000204322 0.000542552)
(4.1128e-05 -0.000314734 0.000744688)
(4.00358e-05 -0.000160603 0.000465358)
(4.19269e-05 -0.000374436 0.000841434)
(3.13212e-05 -0.000617207 0.000891685)
(3.46998e-05 -0.000314196 0.000627534)
(2.71476e-05 -0.000303586 0.000871615)
(2.7712e-05 -0.000265267 0.000713977)
(1.41988e-05 -0.000227709 0.000281521)
(1.76723e-05 -0.000168774 0.000437034)
(1.89105e-05 -0.000292322 0.000293476)
(2.95072e-05 -6.65825e-05 -1.54798e-05)
(3.08232e-05 0.000180087 -0.0002274)
(2.89206e-05 0.00023795 -0.000255995)
(2.1381e-05 0.000218349 -0.000113507)
(1.43553e-05 0.000412738 -0.000294858)
(2.0423e-05 0.000287941 -0.000195403)
(1.76995e-05 0.000396815 -4.47705e-05)
(2.31364e-05 0.000296707 0.000117294)
(2.56549e-05 9.02415e-05 0.000451855)
(2.87679e-05 0.000136095 0.000702191)
(2.41328e-05 0.000185534 0.00066809)
(2.81244e-05 -0.000176825 0.000631763)
(3.0196e-05 -0.000378834 0.000618968)
(3.96468e-05 -0.000229565 0.000728323)
(3.96276e-05 -0.000402205 0.000651741)
(3.39445e-05 -0.000533648 0.000803322)
(3.72236e-05 -0.000403291 0.000574186)
(3.66291e-05 -0.000418091 0.000502244)
(3.50393e-05 -0.000368102 0.000552945)
(4.18388e-05 -0.000304864 0.000475397)
(3.09359e-05 -0.000554472 0.000334564)
(2.71667e-05 -0.00059337 0.000125428)
(3.24416e-05 -0.000192347 0.000208555)
(2.82584e-05 -0.000100082 0.000173581)
(2.79977e-05 3.62345e-05 0.000334418)
(3.31624e-05 -1.82627e-05 0.000714974)
(3.00266e-05 0.000187636 0.000701149)
(3.80251e-05 0.000170363 0.000732276)
(3.99348e-05 0.000339948 0.000774003)
(4.22749e-05 0.000436452 0.000537074)
(4.69418e-05 0.000631745 0.000508013)
(4.09204e-05 0.000766111 0.00012219)
(4.03959e-05 0.000286761 -0.000151406)
(3.90291e-05 3.60931e-05 -0.000139643)
(4.01912e-05 -3.82767e-05 5.76223e-06)
(4.4473e-05 -0.00044012 -1.89034e-05)
(4.28104e-05 -0.000393745 7.08704e-05)
(4.24017e-05 -0.000126291 0.000340737)
(3.95534e-05 0.000164882 0.000597624)
(3.99216e-05 2.24875e-06 0.000488711)
(3.46994e-05 -2.38541e-05 0.000364309)
(4.07883e-05 4.39078e-05 2.20102e-05)
(3.68044e-05 0.000181302 0.000130928)
(4.11536e-05 -0.000115392 0.000308897)
(3.63929e-05 -0.000302922 0.000436127)
(2.71685e-05 -0.000646838 0.000200905)
(3.08977e-05 -0.000812574 -6.5462e-05)
(3.81892e-05 -0.0011191 -0.000293194)
(3.87966e-05 -0.000931568 -0.000500283)
(3.13358e-05 -0.00126652 -0.000404392)
(2.83376e-05 -0.00117791 -0.000426058)
(2.46337e-05 -0.000987441 -0.000369875)
(2.76858e-05 -0.000693225 -0.000406849)
(2.14886e-05 -0.000649855 -0.000547084)
(2.47623e-05 -0.000761706 -0.000225421)
(3.60412e-05 -0.000828235 -1.36281e-05)
(3.36394e-05 -0.00060334 6.69609e-05)
(4.14404e-05 -0.000603298 3.21162e-05)
(4.71994e-05 -0.000813928 3.56781e-05)
(5.19907e-05 -0.00072185 -0.000129114)
(5.75193e-05 -0.000662445 -0.000418918)
(6.56563e-05 -0.000363212 -0.000324381)
(6.75064e-05 -3.36883e-05 -0.00034128)
(6.30257e-05 1.92349e-05 -0.000809628)
(6.2743e-05 0.000255018 -0.000939671)
(5.99316e-05 0.000352182 -0.000859238)
(6.30278e-05 0.000440451 -0.000675007)
(7.25072e-05 0.000763981 -0.000407912)
(7.49378e-05 0.000899457 -0.000493249)
(7.9307e-05 0.000910313 -0.000640025)
(8.56517e-05 0.00111441 -0.00086853)
(7.12923e-05 0.001034 -0.000894445)
(6.59566e-05 0.000935132 -0.00073984)
(7.07014e-05 0.00118168 -0.000655563)
(8.20302e-05 0.00116254 -0.000744778)
(8.29196e-05 0.000569571 -0.000604872)
(7.17691e-05 0.00037443 -0.000385407)
(7.88291e-05 0.000203412 -0.000449239)
(7.30451e-05 0.000435767 -0.00052094)
(7.07204e-05 0.000293638 -0.00060326)
(6.55252e-05 0.000298309 -0.000379275)
(7.34056e-05 0.000468971 -0.000221065)
(8.26066e-05 0.000423236 -0.000133298)
(8.64818e-05 0.00033204 -0.000265978)
(8.55243e-05 0.00018048 6.3205e-05)
(8.79286e-05 -7.30568e-05 4.22718e-05)
(9.20624e-05 -8.38979e-05 -0.000194196)
(9.81942e-05 -0.000285059 -0.000437361)
(9.64084e-05 -0.000184057 -0.000371464)
(9.4251e-05 -0.00012198 -0.000267316)
(0.000105098 1.80369e-05 -8.189e-05)
(0.000100293 -0.000189116 0.000157867)
(0.000105142 -0.000412158 0.000206012)
(0.000108059 4.63586e-06 0.000310451)
(0.000117217 -4.0078e-05 0.000239964)
(0.000115418 0.000105248 0.000209079)
(0.00012627 0.000226323 0.000159798)
(0.000121493 0.00010028 -9.95484e-05)
(0.000130403 0.000327326 -0.000129344)
(0.000132287 0.00052 0.000143347)
(0.000137526 0.000463861 0.000376186)
(0.000144582 0.000335341 0.000272207)
(0.000151099 0.00032063 0.000142119)
(0.000159377 0.00014122 0.00052217)
(0.000162724 0.000213814 0.000508997)
(0.000161908 -0.000110525 0.000178617)
(0.000162943 1.54044e-05 -0.000178459)
(0.000171657 4.29384e-05 -0.000399168)
(0.000169362 0.000113617 -0.000430784)
(0.000168672 0.000311341 -0.000233421)
(0.000168664 0.000536222 -8.95567e-05)
(0.000163875 0.00039343 -0.000166387)
(0.000166681 0.00019074 -0.000491552)
(0.000172872 0.000297425 -0.000191369)
(0.000186633 0.000356311 0.000122774)
(0.000188379 0.000361395 0.000361581)
(0.000198083 0.000284 0.000286706)
(0.000189662 0.000358345 0.000179621)
(0.000194657 0.000305333 0.000117817)
(0.000193855 0.000556323 0.000276068)
(0.000193474 0.000443112 0.000235868)
(0.000193985 0.000129974 0.000486948)
(0.00019732 6.25303e-05 -3.69803e-07)
(0.000199276 -0.00027333 4.37457e-06)
(0.00020958 -0.000287036 -2.48103e-05)
(0.000205355 -0.000416831 7.49986e-05)
(0.000204612 -0.000331693 -0.000333747)
(0.000212638 -0.000360007 -0.00020938)
(0.000222608 -0.000439293 -0.000407608)
(0.000225774 -0.000573145 -0.000386007)
(0.000230139 -0.000477074 3.66102e-05)
(0.00023309 -0.000402519 -5.46288e-05)
(0.000240222 -0.000212783 -2.02439e-05)
(0.000246402 -0.000126262 -0.000520383)
(0.000248057 -0.00012882 -0.000454999)
(0.00025212 5.72984e-05 -0.000330271)
(0.000259871 0.000246827 -0.000369138)
(0.000262211 0.000388488 -0.000451944)
(0.000260652 0.000618449 -0.000643685)
(0.000258612 0.0005731 -0.000391462)
(0.000269057 0.000909304 -0.000542952)
(0.000276366 0.000421791 -0.000401535)
(0.000274997 0.00029819 -0.000277841)
(0.000275945 0.000337749 -0.000122455)
(0.00027604 0.000409257 0.000281382)
(0.000282494 0.000124099 -0.000190461)
(0.000275919 0.000197846 -0.000359624)
(0.000279846 0.000281689 -0.000213807)
(0.000287938 0.000253467 0.000121785)
(0.000301908 0.000134615 0.000288941)
(0.000307271 0.00017781 0.000221582)
(0.000310658 -0.000128495 3.24695e-05)
(0.000317676 6.23743e-06 0.000100983)
(0.000315124 -9.89613e-05 0.00029386)
(0.000321487 -0.000423972 0.00019397)
(0.000323004 -8.93582e-05 2.69804e-05)
(0.000336839 -2.02084e-05 -0.000302745)
(0.000343524 -0.000427739 -0.000114661)
(0.000346213 -0.000322364 0.000107667)
(0.000348857 -0.000227265 0.000207069)
(0.000340942 -0.0005386 6.00829e-05)
(0.000347972 -0.000447373 0.000133369)
(0.000346375 -0.000486269 -0.000165096)
(0.00035968 -0.000398703 3.18809e-05)
(0.000369869 -0.00024065 0.000265806)
(0.000372275 -0.000325377 0.000218937)
(0.000378014 -0.000242301 0.000159393)
(0.000386837 -0.000323646 0.000139368)
(0.000386216 -0.000184506 1.13007e-05)
(0.000390455 -5.38135e-05 -3.91221e-05)
(0.000406062 2.05592e-05 -0.000316358)
(0.000409756 6.39502e-05 -0.000168936)
(0.000411912 -7.15898e-05 -0.000304506)
(0.000427306 -0.000339748 -0.000419179)
(0.000432742 -0.000236075 -0.000507259)
(0.000437919 -0.000376631 -0.000660751)
(0.000443062 -0.000191858 -0.000521411)
(0.000444899 -0.000297314 -0.000488897)
(0.000454085 -0.000295991 -0.000404497)
(0.000457939 -0.000364618 -0.000444297)
(0.000460282 -0.00021407 -0.000295772)
(0.000472848 -0.000283879 -0.000333684)
(0.00048299 -0.000216971 -0.000164846)
(0.000498829 -0.000341397 -8.59731e-05)
(0.000502037 -0.000169649 -0.000335819)
(0.000507139 -0.000194428 -0.000234647)
(0.000516597 -0.000299086 -0.000113027)
(0.000523345 -0.000262325 -0.000259996)
(0.00052985 -0.000397887 -0.000245247)
(0.000540463 -0.000553469 -0.000103326)
(0.000542636 -0.000393007 -0.000180269)
(0.000552825 -0.000314806 -0.00024056)
(0.000554325 -8.76089e-05 -0.000280742)
(0.000568994 -2.25165e-06 -0.000400795)
(0.000564791 -0.000258698 -0.000417762)
(0.000578203 -0.000379186 -0.000376539)
(0.000582095 -0.000454625 -0.000186287)
(0.000590783 -0.000596552 9.78277e-06)
(0.000598035 -0.000661393 -3.58526e-05)
(0.000604278 -0.000754153 2.32501e-05)
(0.000606032 -0.00085604 -6.71481e-05)
(0.000603457 -0.000929017 0.000268882)
(0.000617413 -0.00084806 0.000236041)
(0.000622254 -0.000526923 0.000304467)
(0.000631361 -0.000427455 0.000393171)
(0.000635137 -0.000526222 0.000375453)
(0.000639265 -0.000697663 0.000541363)
(0.000646612 -0.000596929 0.00031883)
(0.000651753 -0.000289314 0.000208137)
(0.000665885 -0.000128615 0.000287517)
(0.000672587 -0.000210998 0.000627209)
(0.000680782 -0.000160755 0.000333961)
(0.000691641 3.32595e-05 0.000229281)
(0.000700888 7.48694e-05 7.54026e-05)
(0.000700228 0.000152054 -0.000107177)
(0.000707098 -2.94222e-06 -0.000109221)
(0.000717717 9.06298e-06 0.000163544)
(0.000716981 -1.10556e-05 -0.000156925)
(0.000711347 -0.000120948 -6.09691e-06)
(0.000721704 -6.9512e-05 -0.000269994)
(0.000739367 -0.000179071 -0.000177085)
(0.000741853 5.57463e-05 -0.000302087)
(0.000746147 3.50871e-06 -0.000646948)
(0.000759712 -0.000483988 -0.000466152)
(0.000761335 -0.00033486 -0.000375167)
(0.000766614 -0.000189171 -0.000274201)
(0.000767791 -0.00067462 -0.00045678)
(0.000767153 -0.000501307 -0.0006188)
(0.000783057 -0.000629976 -0.000476729)
(0.000788723 -0.000302613 -0.000321793)
(0.000792537 -0.000320637 -0.000497094)
(0.000796991 -0.000532896 -0.000697282)
(0.000807056 -0.000297049 -0.000709035)
(0.000820056 -0.000209813 -0.000650805)
(0.000833194 -0.000237216 -0.000436654)
(0.000837301 -8.52353e-06 -0.000335511)
(0.00084758 0.000114385 -0.000256171)
(0.000857292 0.000200398 -0.000189008)
(0.000866472 0.000332101 -0.000180455)
(0.000868651 8.5666e-05 -0.000353881)
(0.000875431 0.00030506 -0.000200372)
(0.000886171 5.18245e-05 0.00010211)
(0.000888605 -0.000168707 5.51649e-05)
(0.000903604 -6.48938e-05 6.0247e-05)
(0.000907598 2.64361e-05 -3.67598e-05)
(0.000913216 -7.99068e-05 0.000247431)
(0.00090976 -0.000288675 -2.62119e-05)
(0.000924489 -0.000244833 1.05864e-06)
(0.00092865 -0.00021107 7.1982e-05)
(0.000930143 -7.11191e-05 0.000101488)
(0.00093471 -0.000110191 -6.42248e-05)
(0.000945701 5.06414e-05 2.85144e-06)
(0.000954867 6.21259e-05 -0.000226199)
(0.000966869 -8.75082e-05 -0.000113619)
(0.000980798 -0.000424309 -0.000211005)
(0.00100008 -0.000245847 -0.000321227)
(0.00100449 -0.000111704 -0.000179568)
(0.00100575 -0.00028452 -0.000117544)
(0.00101136 -0.00011692 -6.3562e-05)
(0.00101269 5.60207e-05 -0.00047616)
(0.00101427 0.000172293 -0.000248063)
(0.00103009 0.000350624 -0.000230528)
(0.00103883 0.000270745 -3.60292e-05)
(0.00104632 0.000241569 0.000159262)
(0.00105236 0.00036852 -8.23085e-05)
(0.00106434 0.000268209 -0.000304637)
(0.00107243 0.000186882 -0.00028632)
(0.00108048 0.000142894 -0.000370317)
(0.0011015 0.000256584 -0.000519513)
(0.00111135 0.000450802 -0.000293137)
(0.00111876 0.000444627 -0.000215985)
(0.0011294 0.000561951 -0.000256833)
(0.00113693 0.000429795 -0.000221074)
(0.0011363 0.000346503 -1.03752e-05)
(0.00113744 0.000133719 0.000108989)
(0.00114219 0.00035131 -3.75404e-05)
(0.00115143 0.000209422 5.54722e-05)
(0.00115912 4.07734e-05 1.15673e-05)
(0.00117397 -9.5422e-05 -0.000270148)
(0.00117372 -2.98263e-05 -0.000104712)
(0.00117914 1.25229e-05 -0.000321033)
(0.00118885 -3.41136e-05 -0.000133615)
(0.0011933 -6.66657e-05 -0.000123196)
(0.00120918 3.9891e-05 -0.000216942)
(0.00121263 -0.000107739 -0.000309396)
(0.00122142 -0.00015894 -0.000213464)
(0.00123183 -7.32817e-05 -0.000213785)
(0.00123565 -0.000468509 -0.000201081)
(0.00123986 -0.000446939 -2.52684e-05)
(0.0012445 -0.000393105 0.00010381)
(0.00124999 -0.000289236 0.000154976)
(0.00126097 -2.45969e-05 0.000247909)
(0.00126492 -7.48606e-05 0.00041795)
(0.00127116 -0.000162168 0.000323652)
(0.00127846 -0.000172665 0.0001337)
(0.0012887 -0.000142646 0.000169549)
(0.00129848 -0.000199753 0.000213483)
(0.00130578 -0.000310914 0.000248314)
(0.00130974 -0.000352654 0.000349367)
(0.00131244 -0.000439924 0.000315247)
(0.00132045 -0.000490234 8.33613e-05)
(0.00133099 -0.000487116 -0.00017067)
(0.0013327 -0.000456023 -0.000137047)
(0.00134364 -0.000364839 -0.000228016)
(0.00136033 -0.000283675 -0.00010812)
(0.00136964 -0.000403202 -0.000392989)
(0.00138023 -0.000309554 -0.000300954)
(0.00138949 -7.5931e-05 -7.37343e-05)
(0.00139716 -0.000156991 -0.000262474)
(0.00141188 -0.000247746 -0.000366658)
(0.00141754 -0.000229698 -0.00021248)
(0.00142794 -0.000162744 -0.000217812)
(0.00143983 -0.0001748 -0.000121861)
(0.00144731 -3.77021e-05 -4.78552e-05)
(0.00146043 0.000219804 -0.000141178)
(0.0014668 0.000160225 -0.000168403)
(0.00148176 -5.45077e-05 -0.000277938)
(0.00149275 2.01017e-05 -0.000175653)
(0.00149715 0.000209208 -0.000115147)
(0.0015103 0.000252765 -0.000142004)
(0.00152167 0.000285044 -0.00012989)
(0.00154044 0.000263341 -0.000187341)
(0.00155347 7.9885e-05 -0.000279963)
(0.00156541 4.70216e-05 -0.000338461)
(0.00157687 0.000126476 -0.00021889)
(0.00158822 0.000228447 -0.000156073)
(0.00159368 0.000196185 -0.000243473)
(0.001599 9.82649e-05 -9.56813e-05)
(0.00160278 0.000226923 -7.95888e-05)
(0.00161189 0.000227779 -0.000146009)
(0.00161869 0.000254418 -0.00023102)
(0.00162874 0.000208095 -0.00036676)
(0.00163461 0.000266589 -0.000265416)
(0.00164101 0.000194013 -0.000482616)
(0.00165145 -5.6844e-05 -0.000258326)
(0.00165863 6.0645e-05 -0.000255359)
(0.00167027 0.000181653 -0.00012763)
(0.00167131 8.09854e-05 -0.000198832)
(0.00167849 0.000136271 -0.000286058)
(0.00168452 0.000209183 -0.0002482)
(0.0016899 4.98317e-05 -0.000157969)
(0.00170286 7.90849e-05 -0.000230756)
(0.00170653 7.76144e-05 -0.000216288)
(0.00172161 -0.000128156 -6.47214e-05)
(0.0017244 2.57513e-05 -6.9545e-05)
(0.00172684 0.000201153 0.00010736)
(0.00174011 9.16948e-05 9.67289e-05)
(0.00173345 7.99488e-05 -7.75546e-06)
(0.00174251 0.000107751 -0.00011053)
(0.00175156 0.000182112 8.92988e-05)
(0.00175807 0.000183242 -0.00012227)
(0.00175857 0.000226202 -5.38285e-05)
(0.00176551 0.000280605 -0.000104013)
(0.00176946 -3.67911e-05 -9.83026e-05)
(0.00177779 -9.89832e-05 -0.000204014)
(0.00178519 0.000143485 -0.00010339)
(0.00178969 -7.0877e-05 2.76969e-05)
(0.00179868 9.64753e-05 -7.50934e-05)
(0.00181013 7.03298e-05 -0.000135448)
(0.00182279 3.95604e-05 -0.000125045)
(0.00183835 9.82273e-05 -0.000194334)
(0.00184963 5.83694e-05 -9.23997e-05)
(0.00185814 -6.95072e-05 6.28832e-05)
(0.00187348 -0.000134617 7.14008e-06)
(0.00188416 1.45258e-05 -2.89208e-05)
(0.00188869 7.66377e-05 3.34872e-07)
(0.00189195 5.10521e-05 0.000159683)
(0.0019017 -2.3848e-05 0.000111682)
(0.00190962 -7.45092e-05 0.000198382)
(0.00191469 7.90277e-05 0.000136374)
(0.00193034 0.0001451 -0.000219034)
(0.0019388 0.000183197 -0.000237389)
(0.00194068 7.26821e-05 -0.000180424)
(0.0019509 5.26703e-05 -4.51423e-05)
(0.0019525 -3.91637e-05 -6.67373e-05)
(0.00196228 5.05172e-05 -7.63735e-05)
(0.00197266 -5.62458e-05 -2.53508e-05)
(0.00197549 7.06862e-05 -0.000109022)
(0.00198064 -0.000108847 -3.82349e-05)
(0.00199632 -0.000145117 -7.13623e-05)
(0.00200875 -0.000101547 6.29179e-05)
(0.00202101 -0.000178578 -0.000123801)
(0.00202357 -0.000331819 -7.5696e-06)
(0.00203025 -0.000183167 -0.000198312)
(0.00203576 4.061e-05 -0.000198796)
(0.00204221 -1.50067e-05 -0.000169185)
(0.00205143 -0.00013229 -0.000127152)
(0.00206563 -0.000102571 -9.18413e-05)
(0.00207569 -0.000267776 -0.000129488)
(0.00209044 -0.000191572 -0.000149053)
(0.00209383 -4.25545e-05 -0.000203181)
(0.00209969 -8.26275e-05 -0.000205459)
(0.00210595 -5.35063e-06 -0.000262792)
(0.00210979 -1.92975e-05 -0.000119623)
(0.00211157 -0.000137241 -0.000144604)
(0.00212088 -0.000116563 2.16699e-05)
(0.00212784 -1.49003e-05 -0.000159135)
(0.00213299 -0.000102315 -0.000135028)
(0.00213186 -4.22786e-05 -0.000101425)
(0.00213682 -1.9267e-05 -7.33534e-05)
(0.00214662 5.76151e-05 -2.82007e-05)
(0.00215498 4.99785e-05 -8.94386e-05)
(0.00216214 3.07554e-05 -0.000155895)
(0.00216608 0.000133495 -3.84085e-05)
(0.00217294 0.000166353 -5.0903e-05)
(0.00217886 0.000133086 -9.32295e-05)
(0.00219181 0.000165865 -7.48113e-05)
(0.00220103 4.65301e-05 -5.73552e-05)
(0.00221718 7.24508e-05 -8.28395e-05)
(0.00221916 -1.43605e-05 -0.000169103)
(0.0022072 -5.95819e-05 -0.000173334)
(0.00219914 2.8143e-05 -0.000202569)
(0.00219453 0.00018225 -0.000174951)
(0.00218624 0.000128165 -9.38536e-05)
(0.00217515 -3.97974e-05 7.13532e-05)
(0.00217668 7.01241e-05 9.88885e-05)
(0.00216548 -0.000139921 2.41188e-05)
(0.00216203 -2.71393e-05 -0.000131503)
(0.0021526 0.000168029 -8.64462e-05)
(0.00214828 0.000105681 -6.07136e-05)
(0.00214175 7.56141e-05 -0.000181807)
(0.00212709 7.46503e-05 -0.000146581)
(0.00211803 3.18484e-05 -0.000125911)
(0.00210012 -7.26974e-05 -0.000256087)
(0.00209277 -2.45009e-05 -0.00035642)
(0.00208808 -2.98881e-05 2.17133e-05)
(0.00208332 -1.68088e-05 -9.18176e-05)
(0.00207292 5.08571e-05 -0.000229077)
(0.00206585 -3.48728e-06 -0.000257753)
(0.00206015 4.1142e-05 -0.000325721)
(0.00204975 5.26283e-05 -5.05227e-05)
(0.00203583 -6.9132e-05 -1.28442e-05)
(0.00202461 -4.80183e-05 -0.000197174)
(0.0020107 9.87131e-05 4.24746e-05)
(0.0020027 0.000172965 -0.000188405)
(0.00199428 0.000222806 -4.60551e-07)
(0.00198679 0.00011571 1.33107e-05)
(0.00199186 0.000158139 1.63736e-06)
(0.00198123 6.82445e-05 -7.61823e-05)
(0.00197532 -0.00012198 -0.000181655)
(0.00197184 3.63275e-05 -8.09658e-05)
(0.0019617 0.00014391 -1.84031e-05)
(0.00194966 -4.01433e-05 -5.88225e-05)
(0.00194423 -0.000104494 -3.48812e-05)
(0.00193831 3.05299e-05 -0.000109714)
(0.00193132 -1.76204e-05 -0.000203105)
(0.00192728 -2.0834e-05 9.87883e-06)
(0.00191744 2.84725e-06 -5.58472e-05)
(0.00191002 4.66985e-05 -0.000166716)
(0.00189886 7.00604e-06 -5.98172e-05)
(0.0018934 -7.13857e-06 -0.000107204)
(0.00188728 -3.05164e-05 -6.22806e-05)
(0.00187685 7.16606e-05 -0.000189964)
(0.00186398 -5.74246e-05 -0.000161351)
(0.00185997 -4.17645e-05 -4.96851e-05)
(0.00184705 -6.33163e-05 -0.000174547)
(0.00184499 -1.17752e-05 -0.000196794)
(0.00184257 6.58632e-05 -0.000122188)
(0.00183654 5.68161e-05 -0.000215267)
(0.00183099 -5.23902e-05 -7.2986e-05)
(0.00182581 -1.58736e-05 -8.60633e-05)
(0.00182049 7.28161e-05 -6.15355e-05)
(0.00181557 0.000144139 -2.99741e-05)
(0.00181301 0.00011949 -0.000119671)
(0.00180719 -4.92678e-06 -2.54092e-05)
(0.00179858 8.19968e-05 -0.000118643)
(0.00178259 5.32289e-05 0.000109359)
(0.00178824 0.00013639 -9.14889e-08)
(0.00178505 0.000186647 -7.98264e-06)
(0.00178024 9.70957e-05 1.63985e-05)
(0.00178041 4.52869e-05 -5.7868e-05)
(0.00176796 -0.000202593 2.26443e-05)
(0.00175958 -4.65839e-05 5.91661e-05)
(0.00175277 0.000167114 3.34908e-05)
(0.00174449 9.92356e-05 -1.15421e-05)
(0.00172447 0.00020597 -6.21678e-05)
(0.00172852 0.000183872 -0.000181278)
(0.00172133 0.000200325 -9.1248e-05)
(0.00171343 0.00018059 -5.1028e-05)
(0.00170433 0.000194186 -0.000116414)
(0.00169637 0.00014346 -8.62618e-05)
(0.00169177 -8.11056e-05 -9.27646e-05)
(0.00167912 -9.31892e-05 -0.000132769)
(0.00166786 9.75009e-05 -9.99953e-05)
(0.0016551 0.000256088 -1.74821e-05)
(0.00164658 0.000180798 -5.61112e-05)
(0.00164285 -3.44428e-06 -0.000132699)
(0.0016427 0.000142403 0.000138769)
(0.00164217 0.000131443 7.5102e-05)
(0.00164126 0.000141919 5.60976e-05)
(0.00163195 0.00012072 -6.6959e-05)
(0.00161829 -2.56309e-05 3.22874e-05)
(0.00161552 6.79031e-05 -2.7391e-05)
(0.00160707 8.59128e-05 2.51502e-05)
(0.0016048 6.57761e-05 1.3563e-05)
(0.00160304 -5.81969e-05 1.01843e-05)
(0.00159654 -2.83543e-05 2.08861e-05)
(0.00159332 -6.14187e-05 9.46013e-05)
(0.0015895 4.31939e-06 0.000206641)
(0.0015852 0.00020014 0.000148523)
(0.0015844 0.000133923 2.86823e-05)
(0.0015824 -2.97856e-05 8.56482e-05)
(0.00156975 -3.08813e-05 0.000156006)
(0.00156447 2.24104e-05 6.91581e-05)
(0.00155646 5.96913e-05 0.000122455)
(0.00154172 0.000144106 1.50573e-06)
(0.00153608 3.20637e-05 7.6909e-05)
(0.00153193 0.000131474 2.78989e-05)
(0.00152342 0.000165211 -3.74805e-05)
(0.00151283 0.000127942 0.000141941)
(0.00149894 5.16215e-05 0.000237734)
(0.00150586 -1.82252e-05 6.77036e-05)
(0.0015039 -2.68367e-05 4.83499e-05)
(0.00149403 -1.87917e-05 0.000127655)
(0.00148524 1.98867e-05 0.000153159)
(0.00147747 1.89465e-05 0.000103991)
(0.0014778 -5.81195e-05 0.000210712)
(0.00146394 -8.94351e-05 0.000217799)
(0.00145614 1.54327e-05 0.000281233)
(0.00144661 0.000188774 0.000103237)
(0.00143944 7.83515e-05 0.000111326)
(0.00143081 -8.1886e-06 0.00014813)
(0.00142482 0.000139767 6.21415e-05)
(0.00141255 0.000144766 0.000104283)
(0.00139545 0.000141877 9.96942e-05)
(0.00139103 0.000191954 8.53256e-05)
(0.00138004 0.000365417 0.000143073)
(0.00137119 0.00021296 4.23834e-05)
(0.00136414 1.71314e-05 9.4677e-05)
(0.00135042 0.000136457 5.53008e-05)
(0.00134426 0.000138194 0.000305948)
(0.0013428 0.000104135 0.000213087)
(0.00133235 0.000192168 0.000131383)
(0.00132325 7.80701e-05 5.47416e-05)
(0.00131157 4.24778e-05 0.000107864)
(0.00129757 1.19428e-06 0.000232783)
(0.0012874 -2.66406e-05 0.000279079)
(0.00127781 -0.000103026 0.000172431)
(0.00127307 -5.9614e-05 0.000209833)
(0.00127615 -0.000123752 0.000157694)
(0.0012742 -0.000179381 0.000160147)
(0.00125573 -6.9296e-05 5.33089e-05)
(0.00125772 -0.000135136 9.23695e-06)
(0.00123816 9.88147e-05 0.000119651)
(0.00123199 -7.62649e-05 -4.16624e-05)
(0.00122221 -0.000220528 5.06763e-05)
(0.00122459 -0.000195074 0.000114838)
(0.00121485 -0.000150773 0.000157875)
(0.00121043 -4.42019e-05 0.000203615)
(0.00120267 9.29591e-05 -1.40893e-05)
(0.00119239 7.0335e-05 -5.23553e-05)
(0.00118654 -6.45819e-05 6.71189e-06)
(0.00118336 -3.04682e-05 -9.13283e-06)
(0.00117464 1.98635e-05 -2.03969e-06)
(0.00116489 3.59726e-05 -9.78633e-06)
(0.00116123 4.04305e-05 7.76084e-05)
(0.00114815 -6.27737e-05 0.00014174)
(0.00115043 -0.000165753 0.000108523)
(0.00114851 -0.000112105 9.76416e-06)
(0.00114203 -7.8989e-05 3.13331e-05)
(0.00113457 6.50549e-05 4.35189e-05)
(0.00113295 0.000103834 0.000155434)
(0.00112705 9.46869e-05 8.98618e-05)
(0.00112386 0.000230957 8.39855e-05)
(0.00112182 0.000246213 0.000143812)
(0.00110789 0.000137713 0.000178573)
(0.00110217 0.000151729 0.000214377)
(0.00109535 0.0002321 0.000158982)
(0.00109402 0.000242656 0.000252073)
(0.00109128 0.000199026 0.000271477)
(0.00108155 0.000248982 0.000128465)
(0.00107533 0.000172584 0.000244651)
(0.00107028 -4.82339e-05 8.19362e-05)
(0.00106885 -8.33385e-05 2.20472e-05)
(0.00106587 -0.000103929 -5.55717e-05)
(0.00106273 -2.61438e-05 9.87319e-05)
(0.00106123 1.51319e-05 0.000120342)
(0.00105589 5.74056e-05 -0.000114223)
(0.00105356 6.99754e-05 -7.64431e-05)
(0.00105135 0.000236761 -0.000164637)
(0.00104335 0.000178761 0.000105028)
(0.00104509 0.000148621 3.99443e-05)
(0.00103558 4.50169e-05 3.6558e-05)
(0.00103429 0.000168846 -4.90885e-05)
(0.00102751 4.29064e-05 0.000131288)
(0.00102646 4.7146e-06 0.000203284)
(0.00101532 -1.28841e-05 0.000163797)
(0.00101095 8.7117e-05 0.000147662)
(0.000998567 0.000175074 0.000104346)
(0.000995587 0.000127386 0.000244128)
(0.000992157 0.000186208 0.000143661)
(0.000987058 0.000111451 0.000231597)
(0.000986535 -3.50498e-05 0.000112904)
(0.000979186 0.000130284 8.22607e-05)
(0.000978081 0.000138844 0.000110174)
(0.000977989 0.000156519 1.88792e-05)
(0.000963432 0.000273073 -6.13624e-05)
(0.00095306 0.000227754 -8.59903e-05)
(0.000948077 0.000346274 -0.000132704)
(0.00094517 0.000255504 -8.95122e-06)
(0.000937757 0.000246154 -5.37195e-05)
(0.000935862 0.000232833 7.60702e-05)
(0.000927459 0.00015343 6.71749e-05)
(0.000926193 0.000134278 -5.68071e-05)
(0.000920184 5.60914e-05 -0.000132292)
(0.000919648 0.000255579 4.24237e-05)
(0.000919879 0.000310277 5.88989e-05)
(0.000916181 0.000238653 -0.000112579)
(0.000916256 0.000238098 -2.90055e-05)
(0.000910864 0.000180353 5.1972e-05)
(0.000915973 6.25229e-05 2.94328e-05)
(0.000916099 0.000122755 -5.79167e-05)
(0.000915058 -2.13658e-05 -1.02266e-06)
(0.000915636 0.000184311 6.96858e-05)
(0.000913591 7.62346e-05 4.24808e-05)
(0.000904856 3.21725e-05 6.08682e-05)
(0.000894756 1.55952e-05 -1.20836e-05)
(0.000889154 4.68312e-05 -3.0925e-07)
(0.000888791 4.12126e-05 1.37521e-06)
(0.000880146 9.00535e-05 5.75989e-05)
(0.000877438 5.29878e-05 6.36725e-05)
(0.00087925 0.000104411 -7.81435e-05)
(0.000878323 0.000199285 -0.000119759)
(0.000872396 0.00027198 -0.000189261)
(0.000873562 0.000174155 -0.00012694)
(0.000872567 0.000194512 -0.000219142)
(0.000872908 0.000348167 -0.000201019)
(0.000867708 0.000213863 5.3472e-05)
(0.000865844 0.000339424 3.96418e-05)
(0.000856623 0.000296625 9.01346e-05)
(0.00084706 0.000401674 0.000237586)
(0.000841858 0.000321677 0.000126699)
(0.000842037 0.000311471 0.000158877)
(0.000837916 0.000260566 4.90114e-05)
(0.000840128 0.000321836 0.000160897)
(0.000842727 0.000259061 0.000142319)
(0.000837099 0.000335398 7.90025e-05)
(0.000834016 0.00026667 0.000201441)
(0.000839252 0.000304954 9.36956e-05)
(0.000835455 0.000221884 7.45961e-05)
(0.000832914 0.000106199 0.000143159)
(0.000827663 0.000161325 0.000119384)
(0.000823968 0.000108617 0.000182169)
(0.000817858 0.000205079 0.000206281)
(0.000809472 0.000161165 5.67568e-05)
(0.000808229 2.72963e-05 0.000131476)
(0.000806464 2.83909e-06 -3.83313e-06)
(0.000809816 3.48696e-05 0.000201033)
(0.00081296 2.15351e-06 0.000286898)
(0.0008136 6.19118e-05 0.000223286)
(0.000811609 -2.01405e-06 0.000158134)
(0.000812913 7.23357e-05 2.82841e-05)
(0.000806939 8.66512e-05 7.20173e-05)
(0.000800969 0.000162772 0.000190854)
(0.000799465 0.000312368 2.8636e-05)
(0.000792457 0.00033487 3.9575e-05)
(0.000790799 0.00029315 0.000103101)
(0.000791768 0.000287653 1.52373e-06)
(0.000780363 0.000215516 7.42757e-05)
(0.000774254 0.000279764 -9.23582e-05)
(0.000774361 0.000339296 -5.49353e-05)
(0.000767929 0.000499016 -9.30287e-05)
(0.000758679 0.000518085 -6.60353e-06)
(0.000756561 0.000499687 -7.08707e-05)
(0.000752328 0.00039159 -0.000198732)
(0.000743593 0.000319076 -0.00011448)
(0.000742099 0.000184526 -5.29054e-05)
(0.000741136 0.000298764 -7.77693e-05)
(0.00073928 0.00031886 -8.78309e-05)
(0.000738519 0.000210031 -1.60752e-05)
(0.000735171 0.000248158 -0.000164247)
(0.000730597 0.000228009 -0.000130617)
(0.00072987 7.9639e-05 -5.06718e-05)
(0.000731916 0.000260714 -0.000174815)
(0.000724783 9.4867e-05 -8.03355e-05)
(0.000727142 0.00030463 -0.000143179)