/*--------------------------------*- C++ -*----------------------------------*\
  =========                 |
  \\      /  F ield         | OpenFOAM: The Open Source CFD Toolbox
   \\    /   O peration     | Website:  https://openfoam.org
    \\  /    A nd           | Version:  7
     \\/     M anipulation  |
\*---------------------------------------------------------------------------*/
FoamFile
{
    version     2.0;
    format      ascii;
    class       volScalarField;
    location    "0.009";
    object      p;
}
// * * * * * * * * * * * * * * * * * * * * * * * * * * * * * * * * * * * * * //

dimensions      [1 -1 -2 0 0 0 0];

internalField   nonuniform List<scalar> 
1000
(
2.29784
2.24527
2.23248
2.2732
2.28516
2.24255
2.29032
2.27399
2.32603
2.28413
2.29742
2.23758
2.24875
2.27372
2.26469
2.2636
2.30859
2.28092
2.27198
2.29755
2.29393
2.25623
2.26914
2.31955
2.26917
2.25804
2.27506
2.34841
2.24313
2.22384
2.26557
2.25927
2.23495
2.24361
2.24425
2.25304
2.24444
2.29459
2.26914
2.27827
2.24605
2.25533
2.24722
2.25728
2.24989
2.24319
2.24006
2.22722
2.22283
2.21987
2.28261
2.27781
2.28684
2.25509
2.2916
2.31515
2.22998
2.24059
2.24629
2.24375
2.23969
2.2412
2.24635
2.26612
2.27575
2.31323
2.24909
2.24979
2.27684
2.27038
2.29492
2.28367
2.28658
2.27684
2.23653
2.25058
2.2632
2.27352
2.24649
2.27632
2.27482
2.27176
2.29106
2.27492
2.27565
2.24974
2.2848
2.27836
2.23263
2.20986
2.26855
2.24827
2.26355
2.25704
2.28155
2.22791
2.2687
2.29779
2.25533
2.26452
2.30048
2.27584
2.26131
2.2746
2.30261
2.31257
2.26646
2.269
2.30293
2.28232
2.35725
2.32697
2.23066
2.25739
2.27544
2.28483
2.25127
2.31074
2.26166
2.3114
2.28167
2.29063
2.31073
2.26504
2.29904
2.22663
2.27696
2.24636
2.26018
2.26392
2.22043
2.24809
2.25308
2.24611
2.29497
2.26756
2.27786
2.26177
2.2468
2.28941
2.29679
2.26243
2.25382
2.21092
2.22686
2.23904
2.26324
2.2421
2.28261
2.30777
2.22616
2.25934
2.25949
2.26353
2.29628
2.22551
2.27143
2.26382
2.20264
2.24205
2.28704
2.24127
2.26089
2.26171
2.28648
2.2949
2.26855
2.3078
2.25304
2.29301
2.24843
2.2543
2.26429
2.24263
2.23236
2.26368
2.23273
2.25805
2.26186
2.27359
2.26757
2.21068
2.2192
2.21714
2.18603
2.20985
2.25161
2.20337
2.25877
2.22759
2.22966
2.23982
2.26918
2.21745
2.24369
2.23318
2.22439
2.24775
2.26305
2.27907
2.25685
2.20827
2.20582
2.24058
2.22654
2.15413
2.21389
2.19771
2.19381
2.2235
2.18333
2.18079
2.20609
2.2395
2.23658
2.20751
2.21573
2.21555
2.22065
2.21487
2.23472
2.18928
2.20865
2.17362
2.19739
2.25291
2.20795
2.20397
2.19352
2.18904
2.15943
2.18386
2.19417
2.16246
2.2449
2.1699
2.18683
2.16998
2.14053
2.18604
2.17334
2.17827
2.139
2.10668
2.17179
2.14027
2.13413
2.14787
2.14596
2.10393
2.16059
2.15544
2.08802
2.11201
2.14297
2.13883
2.14284
2.13985
2.11552
2.095
2.1
2.11937
2.10013
2.1022
2.07946
2.08673
2.10968
2.06263
2.13351
2.10859
2.11743
2.06277
2.08911
2.11906
2.058
2.06789
2.05147
2.1083
2.10598
2.11199
2.07264
2.0409
2.07346
2.06159
2.05367
2.07533
2.08816
2.07818
2.01397
2.0328
2.00602
2.04761
2.05825
2.06144
2.05419
2.05407
2.06354
2.06521
2.05102
2.09577
2.0109
1.98522
2.05973
1.99841
2.01534
2.02902
2.06404
2.09139
2.04615
1.98384
2.01472
1.96998
1.99
1.96886
1.96533
2.00823
1.97666
2.00303
1.96617
1.95748
1.99076
1.95583
1.96745
1.98491
1.93358
1.91846
1.95173
1.93559
1.90827
1.98366
1.97921
1.92916
1.93996
1.91814
1.89747
1.92196
1.95647
1.87082
1.87309
1.91916
1.8898
1.84674
1.85394
1.88783
1.89849
1.87067
1.83981
1.86696
1.82483
1.86809
1.85484
1.89135
1.84935
1.84642
1.85492
1.80363
1.80858
1.8247
1.80754
1.84373
1.85445
1.83306
1.75611
1.77721
1.76666
1.76264
1.74201
1.7497
1.74908
1.79811
1.7705
1.75513
1.72786
1.70256
1.74167
1.75249
1.73593
1.77717
1.72509
1.75475
1.70987
1.69757
1.75102
1.7398
1.68742
1.68151
1.66392
1.70292
1.7209
1.66561
1.66206
1.6856
1.68757
1.69228
1.68437
1.66629
1.65294
1.6349
1.63256
1.63876
1.63918
1.60699
1.62492
1.68512
1.6479
1.58738
1.60794
1.6549
1.62373
1.59558
1.58283
1.61286
1.63408
1.59788
1.5754
1.52767
1.60747
1.56115
1.56582
1.56438
1.58535
1.53879
1.51045
1.51113
1.52843
1.50982
1.51119
1.49691
1.52398
1.5252
1.51343
1.52389
1.5577
1.49423
1.49405
1.49056
1.4893
1.50491
1.51564
1.49817
1.47283
1.49006
1.50962
1.49206
1.4505
1.45998
1.49263
1.444
1.40802
1.41275
1.39952
1.41224
1.38292
1.39673
1.38765
1.35575
1.34155
1.38831
1.40957
1.38741
1.37169
1.35355
1.33851
1.33774
1.36265
1.32035
1.36574
1.38988
1.32444
1.38892
1.35732
1.34513
1.30766
1.31556
1.35861
1.3244
1.29631
1.32523
1.33079
1.31932
1.34531
1.25315
1.28043
1.26293
1.28308
1.25752
1.25087
1.25615
1.25297
1.25343
1.26111
1.2406
1.2373
1.28148
1.23807
1.26933
1.26931
1.20104
1.17362
1.18774
1.18745
1.19137
1.22031
1.22876
1.2128
1.19204
1.17421
1.16574
1.1849
1.14123
1.17685
1.18176
1.16004
1.18236
1.17924
1.20783
1.22704
1.23468
1.17928
1.1766
1.18704
1.20236
1.18177
1.17887
1.13818
1.17612
1.16357
1.17241
1.17574
1.15659
1.18468
1.23354
1.19607
1.19131
1.20756
1.20794
1.19993
1.19614
1.16494
1.18802
1.2157
1.20781
1.15255
1.1905
1.19144
1.19466
1.24051
1.16028
1.14525
1.17639
1.20876
1.196
1.17241
1.16007
1.16894
1.15067
1.14688
1.16484
1.12333
1.12874
1.17363
1.17517
1.13337
1.14963
1.15835
1.16732
1.13895
1.16737
1.15655
1.20731
1.11622
1.09596
1.11726
1.12866
1.1229
1.15682
1.14684
1.17531
1.12893
1.12538
1.14018
1.11424
1.12709
1.17219
1.11473
1.07992
1.16666
1.17945
1.09552
1.12447
1.13821
1.14207
1.10166
1.11694
1.11442
1.13658
1.09434
1.11796
1.15041
1.15373
1.13155
1.10182
1.12251
1.1353
1.09003
1.06717
1.09356
1.05454
1.09921
1.09649
1.13627
1.15675
1.12044
1.06529
1.08567
1.06842
1.08308
1.08355
1.1069
1.13937
1.13428
1.10369
1.14544
1.13914
1.08547
1.0763
1.09786
1.09587
1.03983
1.07126
1.04109
1.08555
1.07507
1.08518
1.12406
1.10934
1.07407
1.06231
1.08717
1.10213
1.09076
1.02309
1.08486
1.04196
1.06009
1.03096
1.02574
1.00836
1.01772
1.06
1.03079
1.02389
1.05896
1.07912
1.08592
1.05513
1.07931
1.08324
1.07793
1.05004
1.1233
1.09465
1.07868
1.1016
1.05966
1.01368
1.06586
1.02979
1.02151
1.01964
1.03136
1.04204
1.02009
1.0199
0.990369
1.0239
1.03326
1.02124
1.00383
1.0175
1.00648
1.02783
1.04458
1.03374
1.01182
1.00956
1.06482
1.07923
1.0342
1.06426
1.02706
1.02178
1.00768
1.00022
1.01819
0.998833
1.02625
1.09014
1.01206
1.02902
1.02144
1.01419
0.997232
1.02831
0.967328
0.999204
1.00079
0.986091
1.00969
1.02567
0.987597
1.00566
1.01149
0.973334
0.995614
1.02059
0.99564
0.991184
0.966471
0.993035
1.02908
0.99201
0.984305
1.01095
0.979426
0.992215
0.953007
0.936689
0.93273
0.991876
0.953024
0.948492
0.935639
0.91482
0.967678
0.986361
0.9724
0.988584
0.971645
1.00521
0.940202
0.934089
0.97129
0.954175
0.971155
0.997454
0.997973
0.990459
0.950093
0.962032
0.935358
0.924918
0.945299
0.934081
0.94206
0.970883
0.958325
0.951188
0.962966
0.957432
0.985901
0.95395
0.996884
0.910343
0.903223
0.911389
0.951193
0.969727
0.957199
0.940679
0.953544
0.912961
0.904537
0.909788
0.881365
0.926759
0.904361
0.879421
0.894629
0.877599
0.918934
0.90536
0.908522
0.922015
0.886899
0.895524
0.932242
0.900587
0.900042
0.874294
0.900494
0.934264
0.915455
0.915215
0.894561
0.910721
0.889671
0.887035
0.876592
0.879319
0.915434
0.887212
0.879734
0.884882
0.865799
0.860718
0.862878
0.893396
0.895128
0.846809
0.841112
0.865065
0.886434
0.886781
0.882409
0.91696
0.877771
0.884687
0.875033
0.851333
0.8511
0.831061
0.839986
0.851818
0.825436
0.835215
0.798174
0.856611
0.902798
0.850113
0.833656
0.863242
0.829056
0.867786
0.810176
0.860082
0.883623
0.831381
0.84572
0.831163
0.822198
0.826911
0.83694
0.821609
0.80611
0.807192
0.8441
0.835088
0.831931
0.81864
0.804117
0.822975
0.820498
0.849417
0.819851
0.797521
0.814738
0.844823
0.816223
0.785826
0.792191
0.809342
0.779639
0.791117
0.787314
0.780318
0.782411
0.789845
0.770954
0.794727
0.81761
0.81293
0.840961
0.803985
0.821829
0.763884
0.798121
0.760109
0.790621
0.798775
0.787634
0.809419
0.778059
0.785386
0.839184
0.803535
0.781269
0.785489
0.792779
0.809084
0.749306
0.772804
0.781056
0.768361
0.796504
0.786985
0.783866
0.769679
0.772434
0.774091
0.735125
0.760462
0.781591
0.765498
0.773291
0.754808
0.761493
0.749834
0.759984
0.76905
0.792501
0.80013
0.795189
0.813236
0.772625
0.760033
0.752053
0.74522
0.776749
0.745717
0.776733
0.747486
0.712923
0.749213
0.735178
0.716216
0.717375
0.766141
0.748939
0.751219
0.752977
0.739039
0.716674
0.732951
0.753543
0.742839
0.710382
0.732237
0.724791
0.69778
0.70788
0.704837
0.710183
0.70752
0.700571
0.710797
0.677328
0.7175
0.729448
0.698427
0.705678
0.731446
0.733704
0.730488
0.733604
0.716719
0.71712
0.705154
0.701834
0.657345
0.649489
0.670002
0.684243
0.66685
0.685235
0.704031
0.709417
0.660509
0.67223
0.693151
0.697172
0.682096
0.672952
0.697384
0.667912
0.646173
0.615574
0.643176
0.634359
0.685627
0.678645
0.682213
0.659944
0.646336
0.668462
0.679688
0.677642
0.667879
0.667225
0.664897
0.67355
0.648531
0.663694
0.656978
0.624656
0.630249
0.62809
0.632128
0.63683
0.644959
)
;

boundaryField
{
    sides
    {
        type            symmetry;
    }
    empty
    {
        type            empty;
    }
}


// ************************************************************************* //
