/*--------------------------------*- C++ -*----------------------------------*\
  =========                 |
  \\      /  F ield         | OpenFOAM: The Open Source CFD Toolbox
   \\    /   O peration     | Website:  https://openfoam.org
    \\  /    A nd           | Version:  7
     \\/     M anipulation  |
\*---------------------------------------------------------------------------*/
FoamFile
{
    version     2.0;
    format      ascii;
    class       volScalarField;
    location    "0.009";
    object      translationalT;
}
// * * * * * * * * * * * * * * * * * * * * * * * * * * * * * * * * * * * * * //

dimensions      [1 2 -2 0 0 0 0];

internalField   nonuniform List<scalar> 
1000
(
408.212
413.433
411.099
407.101
398.517
395.592
395.583
394.004
384.362
385.394
389.428
379.956
385.705
393.133
385.285
388.519
376.628
373.591
374.856
371.261
379.417
370.542
378.832
385.911
385.643
387.314
391.282
398.856
398.472
403.511
417.426
413.561
403.904
402.31
396.983
400.069
405.237
404.209
406.627
393.691
402.983
403.145
405.775
398.725
396.332
388.555
381.401
384.372
389.054
388.225
395.775
397.324
394.255
377.666
386.938
385.821
369.139
375.885
377.981
376.613
374.071
381.498
385.51
396.968
398.91
394.645
388.139
393.078
381.927
387.124
387.359
387.565
393.53
390.123
391.091
374.448
374.302
372.543
369.308
372.329
368.284
368.79
365.781
360.325
372.524
369.42
371.064
385.45
386.827
389.573
395.365
396.357
399.562
401.473
407.545
405.928
405.917
410.15
419.492
410.74
400.069
405.717
402.085
408.913
390.058
381.018
384.427
381.695
377.704
384.887
382.672
381.952
376.664
384.572
386.162
380.445
387.325
392.888
386.117
388.204
390.433
385.622
382.943
384.15
379.68
373.692
375.997
383.161
377.728
369.538
374.586
371.089
380.246
384.517
386.734
375.27
375.129
375.767
370.762
369.223
372.217
371.192
364.518
378.512
385.103
394.539
390.103
397.207
404.546
406.37
396.466
392.035
397.597
399.894
403.88
392.736
395.004
402.815
406.832
414.554
421.211
420.456
410.073
411.816
404.124
408.274
399.067
401.24
400.144
399.704
398.606
380.51
395.048
387.488
388.19
385.83
389.076
405.503
403.268
400.165
396.846
402.987
397.407
408.089
399.499
399.037
388.565
394.58
397.872
397.799
401.142
401.248
402.65
393.067
401.55
395.409
398.29
396.658
397.015
388.881
399.338
394.696
392.061
390.963
393.058
388.217
391.513
386.316
391.997
388.118
386.984
378.541
383.065
371.552
377.97
374.555
377.209
374.78
383.298
376.687
376.772
383.622
396.04
377.338
389.214
378.412
367.635
377.197
375.337
370.162
363.112
369.853
374.186
382.129
388.163
380.338
392.865
377.393
386.996
382.694
388.07
383.564
377.358
374.266
371.796
378.311
371.58
375.703
375.665
378.309
379.474
370.45
377.394
386.907
386.619
385.256
381.803
380.125
380.62
382.452
385.423
389.477
387.309
389.976
395.324
386.039
391.41
387.744
394.691
401.121
407.341
406.284
394.396
397.806
389.722
398.33
401.328
407.871
405.514
388.73
387.936
391.843
393.694
409.134
408.427
402.111
396.391
391.106
380.376
392.49
400.631
387.959
381.354
383.422
381.78
380.471
377.428
373.967
377.772
387.082
389.482
372.802
387.021
384.789
390.48
390.395
389.39
383.535
384.748
383.781
381.804
381.349
379.147
378.415
383.702
379.702
390.665
382.16
371.298
375.507
370.608
374.633
379.521
383.047
387.633
389.437
384.583
382.568
394.135
389.661
391.982
381.23
382.707
385.9
387.59
389.86
393.316
391.033
385.921
394.127
380.91
373.567
376.489
367.296
367.584
362.869
362.53
366.464
363.483
360.323
364.403
371.646
374.075
370.635
376.294
379.116
380.265
379.249
368.001
370.229
375.461
373.185
371.965
372.849
366.294
366.963
369.858
369.294
362.504
361.069
362.612
367.185
368.122
368.676
366.961
376.518
373.438
370.316
366.156
378.863
382.563
370.097
370.303
367.281
371.267
364.527
363.381
369.534
368.113
371.573
374.927
383.51
381.299
378.332
378.799
370.935
367.499
364.384
371.147
357.602
362.155
366.105
364.824
363.325
358.094
362.502
371.804
364.358
369.252
371.512
373.48
362.756
374.33
371.093
366.631
364.762
364.726
369.864
365.622
355.676
358.034
355.582
355.206
352.794
359.749
358.188
372.605
366.347
364.518
366.458
363.825
363.867
377.572
362.736
353.705
354.772
359.778
355.127
355.362
356.684
356.978
365.354
359.982
366.464
349.13
355.364
355.507
363.243
362.379
354.764
353.711
347.315
348.077
345.564
338.808
340.341
341.292
338.283
344.339
349.77
349.917
355.639
356.172
349.542
356.69
348.577
339.483
340.481
341.798
349.326
351.613
353.66
345.508
342.583
351.311
348.001
345.457
344.878
348.779
347.908
339.816
334.016
338.691
333.626
328.759
333.003
334.198
339.487
332.406
337.821
337.885
337.78
342.196
334.78
332.896
337.402
343.475
333.963
328.887
336.468
335.84
328.8
325.303
331.893
335.624
327.518
326.657
330.341
328.635
329.767
331.91
328.462
335.287
344.122
344.697
340.642
351.272
343.442
345.018
344.908
354.465
350.65
351.64
353.403
345.482
352.287
345.063
344.24
354.292
342.332
352.005
356.977
353.286
353.591
355.398
352.619
355.011
351.941
357.122
359.725
361.317
356.54
348.001
344.628
351.565
358.768
360.255
355.861
361.438
361.795
361.744
359.839
359.239
368.911
360.887
358.026
364.738
369.889
357.006
362.095
354.949
370.17
374.916
374.16
370.01
376.589
367.055
371.631
360.597
377.417
367.543
378.149
378.167
376.076
369.412
389.51
383.163
378.863
381.133
385.176
401.066
388.961
394.779
389.073
390.435
397.996
401.175
408.676
397.623
399.726
409.189
392.326
398.827
402.953
398.34
403.717
407.01
407.648
401.27
409.511
417.968
404.511
419.985
412.96
411.068
417.107
418.175
413.293
402.826
413.375
414.65
428.766
428.105
413.219
417.117
416.467
415.383
407.53
409.687
414.845
409.919
420.238
434.303
436.777
427.444
425.525
424.585
430.243
425.765
422.679
416.748
431.458
435.181
427.09
432.12
443.551
434.411
431.873
444.054
452.627
442.794
429.765
442.958
447.678
452.606
450.768
446.167
434.175
442.581
453.092
440.364
441.128
437.223
426.996
438.712
422.249
440.404
456.871
442.178
449.927
464.12
467.236
455.199
452.546
445.952
454.196
460.855
445.603
462.737
459.432
458.804
460.828
468.952
467.548
466.297
470.215
459.854
457.67
467.233
458.278
455.128
474.399
492.303
469.342
477.767
466.117
486.863
475.132
463.596
480.539
465.377
473.636
467.775
480.365
472.586
469.063
461.293
462.423
461.834
457.992
463.943
450.721
463.684
470.077
457.73
464.295
460.079
449.746
446.172
451.971
453.959
445.458
452.173
440.913
444.062
443.946
457.696
468.262
445.497
437.516
445.131
450.704
453.621
453.462
434.671
439.181
459.603
468.052
444.366
448.868
434.688
448.89
443.443
444.326
441.959
445.946
437.404
447.502
451.24
441.544
447.061
441.914
429.962
421.078
436.95
438.892
436.001
440.452
438.529
433.706
427.063
428.624
436.123
427.761
437.891
443.384
434.416
438.887
459.881
450.31
435.454
429.928
442.811
439.922
429.493
429.468
436.94
433.005
436.447
425.81
431.221
430.629
433.764
415.629
414.018
430.617
418.369
424.822
425.492
429.061
440.255
442.75
447.004
433.215
431.52
441.934
443.794
453.085
443.702
432.99
447.692
435.237
441.852
438.136
435.744
426.586
433.865
431.981
434.789
430.71
445.097
454.924
450.23
433.41
437.687
446.697
439.971
450.79
447.344
470.534
465.197
453.074
450.485
450.249
450.512
453.44
461.844
444.511
442.93
451.964
456.047
436.123
437.732
443.207
436.527
445.384
436.798
451.531
466.52
440.491
438.102
439.916
441.685
446.49
440.859
441.533
460.352
454.018
469.159
466.312
448.195
422.153
422.835
420.913
421.519
424.563
434.475
448.038
457.992
460.524
433.428
436.075
429.516
443.338
442.632
429.748
438.274
439.234
440.482
441.104
452.221
450.214
435.326
442.426
446.67
442.479
458.524
466.065
451.11
444.703
449.103
466.04
459.067
447.129
444.021
442.348
438.841
449.414
440.43
450.574
476.703
483.059
459.163
460.092
452.872
448.726
428.708
432.571
455.349
456.498
425.867
430.146
435.837
429.866
436.81
420.957
438.86
440.315
446.852
451.234
445.563
447.936
446.044
446.625
442.168
444.355
447.755
438.133
427.546
438.32
437.968
461.074
453.496
457.979
439.848
419.918
437.371
444.695
467.791
427.508
422.255
419.917
428.215
424.62
419.896
438.393
434.331
438.715
436.163
422.388
425.357
427.154
414.356
419.81
406.631
411.709
408.355
401.878
396.423
388.221
399.319
398.975
407.872
407.069
401.449
407.319
399.013
402.491
393.051
413.46
440.41
431.918
430.754
445.508
449.923
451.09
444.318
441.202
424.764
426.454
403.757
413.807
424.28
420.505
416.506
408.187
409.371
410.638
416.08
426.347
427.137
398.179
407.776
411.599
403.999
390.062
389.112
416.454
402.705
387.168
381.088
371.437
357.357
359.661
361.669
360.377
366.674
366.997
382.224
367.807
358.033
361.763
364.82
365.294
357.327
349.234
356.741
358.581
345.458
363.425
)
;

boundaryField
{
    sides
    {
        type            symmetry;
    }
    empty
    {
        type            empty;
    }
}


// ************************************************************************* //
