/*--------------------------------*- C++ -*----------------------------------*\
  =========                 |
  \\      /  F ield         | OpenFOAM: The Open Source CFD Toolbox
   \\    /   O peration     | Website:  https://openfoam.org
    \\  /    A nd           | Version:  7
     \\/     M anipulation  |
\*---------------------------------------------------------------------------*/
FoamFile
{
    version     2.0;
    format      ascii;
    class       volScalarField;
    location    "0.00036/particle";
    object      iDofMean;
}
// * * * * * * * * * * * * * * * * * * * * * * * * * * * * * * * * * * * * * //

dimensions      [0 -3 0 0 0 0 0];

internalField   nonuniform List<scalar> 
600
(
1.66984057879268e+22
1.83344146174624e+22
1.9212424059638e+22
1.91200335189946e+22
1.89182492284829e+22
1.95170661745852e+22
1.76936819580117e+22
1.758473877333e+22
1.95178302848752e+22
1.83065488126643e+22
1.89050949699697e+22
1.74085376950063e+22
1.89358459840669e+22
1.89422059810054e+22
1.87671038210947e+22
2.00440264791271e+22
1.87636925006483e+22
1.83421621070449e+22
1.94370545168395e+22
1.85437112810259e+22
1.87059744279988e+22
1.83286044383269e+22
1.92196786565463e+22
1.65795173952425e+22
1.79424576557881e+22
1.7823964764681e+22
1.75287638702588e+22
1.82415274508151e+22
1.77143096869061e+22
1.72412153766047e+22
1.90940099796912e+22
1.76259385172192e+22
1.81164215424024e+22
1.8745708740834e+22
1.70382123265044e+22
1.77758103113504e+22
1.71449016339511e+22
1.71412087223267e+22
1.55249210676915e+22
1.80903852745315e+22
1.8333280784193e+22
1.8391997060458e+22
1.80631211176602e+22
1.94102545715148e+22
1.81301366206188e+22
1.75407179287054e+22
1.7155706212086e+22
1.79432211377697e+22
1.88528960300728e+22
1.82032878025864e+22
1.85878983807522e+22
1.86293239743761e+22
1.92012619195902e+22
1.88137843888281e+22
1.86979341977477e+22
1.80188438532233e+22
1.85659359919525e+22
1.88227117595678e+22
1.81736245371949e+22
1.92804521914532e+22
1.85852978540698e+22
1.78494277325123e+22
1.92369886118881e+22
1.82931813796165e+22
1.79949008518639e+22
1.85378781756205e+22
1.90423879142102e+22
1.82079997311339e+22
1.75940791837647e+22
1.7293352864221e+22
1.94219441824201e+22
1.96305994707436e+22
1.91575099842408e+22
1.87857478985308e+22
1.78817713622764e+22
1.68897339060222e+22
1.87652046099766e+22
1.8620184589709e+22
1.91594153271387e+22
1.80556235329806e+22
1.7711729045686e+22
1.76273854612518e+22
1.79826334042637e+22
1.80392668700512e+22
1.87937950620014e+22
1.8000741776916e+22
1.68131500288194e+22
1.81463260666992e+22
1.79259700222392e+22
1.80399182226225e+22
1.91611333690443e+22
1.81975335320664e+22
1.66912456008091e+22
1.8006053897892e+22
1.87573853210713e+22
1.74036750546006e+22
1.78340016050396e+22
1.82499651162252e+22
1.75985349222358e+22
1.83796495595114e+22
1.87323163758302e+22
1.7984832230747e+22
1.74988575482017e+22
1.85434330966087e+22
1.78865355817833e+22
1.76623344923302e+22
1.9026250451746e+22
1.83940467953325e+22
1.78366130388213e+22
1.73805202389157e+22
1.85036977778385e+22
1.80180567649479e+22
1.88099699676105e+22
1.89362831371088e+22
1.94491075582626e+22
1.80215874741054e+22
1.77154556346551e+22
1.79814245545318e+22
1.75975659922318e+22
1.77616413832511e+22
1.71660422863982e+22
1.90939148017456e+22
1.92054895484427e+22
1.73483273558083e+22
1.80307999934041e+22
1.85355844737056e+22
1.90696006077602e+22
1.75566458712247e+22
1.69393747470809e+22
1.814533362026e+22
1.78523689220948e+22
1.83014797819221e+22
1.85885091067697e+22
1.84458695379003e+22
1.79389340323804e+22
1.78122251878281e+22
1.80720459505826e+22
1.77507987376911e+22
1.79595858465091e+22
2.00811527122694e+22
1.97639466130377e+22
1.75401061680791e+22
1.72241511339951e+22
1.72064198727343e+22
1.65203671644907e+22
1.6993524642546e+22
1.77001707402342e+22
1.77421704622104e+22
1.6224597958632e+22
1.76374776836648e+22
1.87019849280863e+22
1.83655592912556e+22
1.77287162947514e+22
1.85727456014971e+22
1.94874477009823e+22
1.87272788638504e+22
1.92443668475987e+22
1.8155354895691e+22
1.75904497663547e+22
1.89962836445919e+22
1.75009231719697e+22
1.77051932898492e+22
1.87039800020185e+22
1.82397047637867e+22
1.90711764636659e+22
1.74384610187226e+22
1.67049788927127e+22
1.78949043417079e+22
1.79956441506445e+22
1.79454830320447e+22
1.80504992970947e+22
1.77931714772012e+22
1.80757374309491e+22
1.83264697678634e+22
1.63999632003086e+22
1.76652322946476e+22
1.89452409068701e+22
1.74466927434273e+22
1.77407511691225e+22
1.81771219096631e+22
1.81304602466596e+22
1.79807160665581e+22
1.92806737324224e+22
1.89697575459257e+22
1.8685712306045e+22
1.77060992214012e+22
1.88029848713932e+22
1.95355064290822e+22
1.94273561902841e+22
1.90680328570127e+22
1.82894727657406e+22
1.84636929255353e+22
1.84972775610782e+22
1.77415881718074e+22
1.64942200834338e+22
1.6819533535467e+22
1.87913600376448e+22
1.84196525058542e+22
1.76306337486932e+22
1.74346641928451e+22
1.86786627372672e+22
1.78517318740187e+22
1.7971297305207e+22
1.99028324708054e+22
1.85403476827386e+22
1.74293174821741e+22
1.77843373480135e+22
1.76067756355819e+22
1.71541784997976e+22
1.81132681657966e+22
1.9132144039216e+22
1.8351232736056e+22
1.81227382820648e+22
2.00022795259886e+22
1.81633980006351e+22
1.92017881594615e+22
1.74432014763874e+22
1.79795898742928e+22
1.75264147259507e+22
1.75888637611992e+22
1.69387744177371e+22
1.74165892205062e+22
1.65445104821965e+22
1.64905372391637e+22
1.63138002666458e+22
1.75479538754737e+22
1.88605200922382e+22
1.90955337278589e+22
1.84919970495967e+22
1.83914276347567e+22
1.88180472922093e+22
1.81499278745679e+22
1.76731333098039e+22
1.85314690977135e+22
1.97341570295246e+22
1.75537697361928e+22
1.7160342667843e+22
1.80955946852579e+22
1.83251216333191e+22
1.99499747939008e+22
1.88585063690739e+22
1.81533710219941e+22
1.86874139114314e+22
1.8836632888893e+22
1.85866593720566e+22
1.98428019111746e+22
1.89445505972687e+22
1.80653904524839e+22
1.77672169961092e+22
1.86653378636679e+22
1.71783299272224e+22
1.82430839591076e+22
1.76349754817024e+22
1.83094804244367e+22
1.8134362944544e+22
1.77598560360775e+22
1.92482261888194e+22
1.86643870372086e+22
1.80051770433414e+22
1.7836402889794e+22
1.83287402429623e+22
1.76171966840267e+22
1.75348966823166e+22
1.793695923533e+22
1.83345905307912e+22
1.87203775007332e+22
1.89864071039893e+22
1.79809415337818e+22
1.8969260691341e+22
1.8581410015731e+22
1.71610975785293e+22
1.73209105208994e+22
1.70238921692447e+22
1.68165613575183e+22
1.75206782934819e+22
1.75199496022704e+22
1.66965256490326e+22
1.74995447512299e+22
1.68168239292091e+22
1.69337275874597e+22
1.79751711809797e+22
1.7072912659547e+22
1.55086804066688e+22
1.52266832266383e+22
1.47658910599911e+22
1.51439289833803e+22
1.36313010599712e+22
1.26330237244973e+22
1.23482056582305e+22
1.24017778054622e+22
1.27561452239492e+22
1.2082545915191e+22
1.09923846554922e+22
1.07634149021479e+22
1.06011103503979e+22
9.87639660898501e+21
9.83673337487732e+21
9.98487445738769e+21
1.07479539068526e+22
8.65776560499601e+21
8.60674673242876e+21
8.86954529686422e+21
9.74652600433488e+21
9.82787125294018e+21
9.83173126452197e+21
9.74357783130594e+21
9.47639132915874e+21
9.02934962573567e+21
9.56011841493467e+21
9.20863101698155e+21
8.99891194203783e+21
1.02356107068917e+22
1.00251109256342e+22
1.20269983801716e+22
1.14975473459637e+22
1.24794949457703e+22
1.22440281568447e+22
1.22509338132717e+22
1.14641377563077e+22
1.15389196298466e+22
1.21386113756292e+22
1.1351891385187e+22
9.77737295206686e+21
7.13273393840724e+21
5.40455447132624e+21
5.45187778635247e+21
4.52207851685504e+21
5.02658537367167e+21
4.7482043360703e+21
4.5721666713003e+21
5.28876129463578e+21
5.20336951666139e+21
5.32421167777224e+21
5.21804013284677e+21
4.83470693015327e+21
5.54470602683152e+21
5.87310494356312e+21
5.89137066396966e+21
5.65315289507061e+21
5.73463655649945e+21
5.75173583830706e+21
5.2534771642065e+21
5.42335497491114e+21
4.35282338037192e+21
4.81379432548547e+21
5.81058730641827e+21
5.06719292847274e+21
5.63796155343249e+21
5.89002841162545e+21
5.36548571754156e+21
5.86766857967508e+21
5.52954723292872e+21
4.58376381499752e+21
5.59616432807395e+21
5.37656484938452e+21
6.04312688018681e+21
5.29876603897354e+21
5.57124997720532e+21
4.9247674308766e+21
5.24743287307885e+21
5.19922370881583e+21
5.05369298708137e+21
6.01115563041228e+21
5.51269264792546e+21
5.6409327288749e+21
5.64078025809949e+21
5.03764063917138e+21
5.41011091053738e+21
4.81341376264378e+21
5.23994997193364e+21
4.65927087680715e+21
5.4281583298974e+21
5.3487745006155e+21
4.92689784060283e+21
4.71779841784679e+21
5.84247105936097e+21
5.00729315131806e+21
5.491889873572e+21
3.65943551100594e+21
4.31354009003528e+21
4.82813091743592e+21
5.80481931707036e+21
5.18528710454149e+21
5.55550478390057e+21
5.60953574601024e+21
4.83364519321325e+21
5.61150321100407e+21
5.86636107203232e+21
5.03354579648125e+21
5.39759305429892e+21
5.60183001147258e+21
5.43642499842136e+21
5.06824867694445e+21
4.93977850605028e+21
5.34370079154207e+21
5.65632920751118e+21
5.76854062117877e+21
6.07086565245343e+21
4.90847246619764e+21
5.04733589866612e+21
5.1369531812241e+21
5.65439700219725e+21
4.58772516827434e+21
5.6799005953026e+21
4.89646906256716e+21
5.55053452855752e+21
5.41235602812889e+21
4.43515762256519e+21
4.38846932567331e+21
4.89492097113071e+21
4.96720289644723e+21
5.88574193684347e+21
4.90897166279317e+21
5.24342030255406e+21
5.01686581007857e+21
5.30810567811515e+21
5.71048708686807e+21
4.84301700948954e+21
4.88343059305692e+21
5.02123514515669e+21
4.76523572284153e+21
5.71193503756045e+21
5.74799178772135e+21
5.12542964457875e+21
5.86301344974945e+21
4.79915941301473e+21
5.80227504818919e+21
5.23490084801494e+21
4.72822202663783e+21
5.84745833831159e+21
5.07852445904075e+21
5.34929047232525e+21
5.98715159660877e+21
5.1277349092269e+21
5.16911068176584e+21
5.70222399656349e+21
5.83770060684024e+21
4.14056300513503e+21
5.07289270994423e+21
5.2745117662308e+21
5.36993839818483e+21
5.0376460318805e+21
6.03336561483874e+21
4.5873726855303e+21
4.96198628564757e+21
5.25626675191919e+21
4.39107333369456e+21
4.0339321545734e+21
5.92969324839149e+21
5.67996383045837e+21
5.62725619794068e+21
6.17713128276615e+21
6.23195158930996e+21
5.56831728942293e+21
4.70987918137466e+21
5.85160155685122e+21
5.37056756479402e+21
5.92826447387184e+21
5.91577914837165e+21
4.6161037113547e+21
6.0446899179611e+21
5.05856762736985e+21
4.87812408036663e+21
5.0929293767444e+21
4.93490500977308e+21
5.09251555843627e+21
4.91199252145888e+21
5.2933834980045e+21
5.16430194890994e+21
5.03425733542228e+21
6.4028378052528e+21
5.49543176102122e+21
4.93324254552154e+21
5.32760907179835e+21
5.54524574607294e+21
4.66688375494044e+21
5.11097031067266e+21
5.30619985296101e+21
5.42052905727546e+21
4.88702422666509e+21
6.00300083822814e+21
6.59362903389497e+21
5.85720406536259e+21
5.00817668237011e+21
4.77422425701109e+21
5.51294820747723e+21
5.05101275938568e+21
5.3190307579471e+21
5.51535683393866e+21
5.24940753537913e+21
4.70096280312432e+21
5.66467915758101e+21
5.17881648339691e+21
5.45536205840347e+21
5.31211989660558e+21
5.00374465491703e+21
4.91595721110289e+21
4.56724921122129e+21
5.41539368166062e+21
6.11081420381682e+21
6.46535640067815e+21
4.48125040849957e+21
4.90738443607574e+21
5.01186405330638e+21
5.58685038898e+21
4.7934869968488e+21
5.61478707682709e+21
5.23957711045388e+21
4.71207155230566e+21
5.13434401677329e+21
4.5459971191399e+21
4.69194935183829e+21
5.08217100965105e+21
5.10813977312981e+21
5.37342583226515e+21
5.65428106788897e+21
5.56068186269285e+21
5.58972246460078e+21
6.46223885120305e+21
5.90907810297498e+21
4.92597591016957e+21
5.26509933382115e+21
5.53916556536425e+21
5.19521730195445e+21
5.06431269011087e+21
4.60966094298981e+21
4.74602320754919e+21
5.39158023009978e+21
5.20386621656955e+21
5.2357608451036e+21
5.24957439473604e+21
5.57968235599602e+21
5.71126727302856e+21
6.20134631737848e+21
5.2441673481344e+21
4.93044604322569e+21
4.84789766785277e+21
5.33017761552922e+21
5.73183983631457e+21
4.88289793580529e+21
5.06126920194388e+21
5.44390676724161e+21
5.17533127053966e+21
4.95845015122048e+21
3.86940277372305e+21
5.25887450048139e+21
5.88625275610068e+21
5.22952677936628e+21
4.49658697849567e+21
4.59409189543098e+21
5.32292285202567e+21
5.35985157966881e+21
5.45538945636506e+21
5.82182449712224e+21
5.69269136137605e+21
5.64583655756267e+21
6.46997422790815e+21
5.78037116518879e+21
6.0261840760852e+21
5.5809233184757e+21
6.41364758795375e+21
5.80822848406432e+21
5.22714910773456e+21
5.69824443716866e+21
5.07207761494876e+21
4.69914956767585e+21
5.05942786139645e+21
5.34452735747903e+21
4.88664812708595e+21
5.48954893688751e+21
4.85104595685005e+21
4.79161853243486e+21
4.64588155940853e+21
5.13504338992642e+21
5.69092513815592e+21
5.01757059089264e+21
5.79282955534349e+21
6.01610940201404e+21
5.43421878865684e+21
5.54455965936641e+21
4.95661193169421e+21
5.73867660303569e+21
4.55679412235348e+21
3.96234450008884e+21
5.46495991465476e+21
5.65278784142398e+21
5.92690260440635e+21
5.27393357663612e+21
4.67523843946845e+21
5.01556921946156e+21
5.18366540412445e+21
4.87939117519685e+21
5.64119900709362e+21
5.32418564726546e+21
4.58686233087852e+21
5.1365089435593e+21
5.22703480406216e+21
5.75056221656472e+21
5.79640787561397e+21
6.29040154875747e+21
)
;

boundaryField
{
    DSMCSide
    {
        type            symmetry;
    }
    DSMCBound
    {
        type            calculated;
        value           uniform 1.66984057879268e+22;
    }
    nullDims
    {
        type            empty;
    }
}


// ************************************************************************* //
