/*--------------------------------*- C++ -*----------------------------------*\
  =========                 |
  \\      /  F ield         | OpenFOAM: The Open Source CFD Toolbox
   \\    /   O peration     | Website:  https://openfoam.org
    \\  /    A nd           | Version:  7
     \\/     M anipulation  |
\*---------------------------------------------------------------------------*/
FoamFile
{
    version     2.0;
    format      ascii;
    class       volScalarField;
    location    "0.00036/particle";
    object      iDof;
}
// * * * * * * * * * * * * * * * * * * * * * * * * * * * * * * * * * * * * * //

dimensions      [0 -3 0 0 0 0 0];

internalField   nonuniform List<scalar> 
600
(
1.736e+22
1.88e+22
1.80800000000001e+22
1.99999999999998e+22
1.84e+22
1.744e+22
1.64000000000001e+22
2.00799999999998e+22
1.864e+22
1.816e+22
1.68000000000001e+22
1.86399999999998e+22
1.96000000000004e+22
2.032e+22
1.784e+22
1.88800000000001e+22
1.91999999999998e+22
1.832e+22
1.768e+22
1.94400000000001e+22
1.75199999999999e+22
1.792e+22
1.84e+22
1.92000000000001e+22
1.91199999999998e+22
2.056e+22
1.64e+22
1.68000000000001e+22
1.78399999999999e+22
1.552e+22
1.768e+22
1.79200000000001e+22
1.95999999999998e+22
1.864e+22
1.864e+22
1.78400000000001e+22
1.67199999999999e+22
1.68000000000004e+22
2.048e+22
1.48000000000001e+22
1.984e+22
1.82399999999999e+22
1.856e+22
1.832e+22
1.68000000000001e+22
1.78399999999999e+22
1.808e+22
1.64800000000001e+22
1.848e+22
1.71199999999999e+22
1.768e+22
2.056e+22
1.94400000000001e+22
1.83999999999998e+22
1.88e+22
1.67200000000001e+22
1.928e+22
1.97599999999998e+22
1.84e+22
1.632e+22
1.95200000000001e+22
1.75999999999999e+22
1.88000000000004e+22
1.68e+22
1.75200000000001e+22
2.08e+22
1.98399999999998e+22
1.784e+22
1.872e+22
1.84800000000001e+22
1.92799999999998e+22
1.776e+22
1.82400000000001e+22
1.768e+22
1.86399999999998e+22
1.696e+22
1.76e+22
1.87200000000001e+22
1.91199999999998e+22
1.928e+22
1.92000000000001e+22
1.944e+22
1.67999999999999e+22
1.664e+22
1.872e+22
1.61600000000001e+22
1.85599999999998e+22
1.95200000000004e+22
2.024e+22
1.90400000000001e+22
1.776e+22
1.84799999999998e+22
1.736e+22
1.792e+22
1.73600000000001e+22
1.75199999999999e+22
1.728e+22
1.78400000000001e+22
1.816e+22
1.92799999999998e+22
1.67200000000004e+22
1.87999999999996e+22
1.91200000000004e+22
1.87199999999996e+22
1.76800000000004e+22
1.69599999999999e+22
1.78400000000004e+22
1.91999999999993e+22
1.80000000000004e+22
1.75199999999996e+22
1.69600000000004e+22
2.03999999999995e+22
1.84800000000004e+22
1.77599999999999e+22
1.97600000000004e+22
1.64799999999994e+22
1.65600000000004e+22
1.87199999999996e+22
1.73600000000004e+22
1.78399999999996e+22
1.77600000000004e+22
1.95199999999998e+22
1.90400000000004e+22
1.87999999999993e+22
1.59200000000003e+22
1.66400000000004e+22
1.87999999999996e+22
1.68000000000004e+22
1.83199999999996e+22
1.87200000000004e+22
1.96799999999998e+22
1.66400000000004e+22
1.91999999999993e+22
1.84000000000004e+22
1.83999999999996e+22
1.84000000000004e+22
1.71999999999996e+22
1.85600000000004e+22
1.83199999999998e+22
1.90400000000004e+22
1.72799999999993e+22
1.86400000000004e+22
1.63999999999996e+22
2.00800000000004e+22
1.77599999999996e+22
1.71200000000004e+22
1.71199999999999e+22
1.92800000000004e+22
1.50399999999994e+22
1.70400000000004e+22
1.86400000000004e+22
1.87999999999996e+22
1.74400000000004e+22
1.89599999999996e+22
1.80000000000004e+22
1.95199999999998e+22
1.91200000000004e+22
1.91999999999993e+22
1.76000000000004e+22
1.75199999999996e+22
1.80800000000004e+22
1.89599999999996e+22
1.93600000000004e+22
1.77599999999999e+22
1.71200000000004e+22
1.72799999999993e+22
1.75200000000004e+22
1.74399999999996e+22
1.72800000000004e+22
1.68799999999996e+22
1.85600000000007e+22
1.79999999999996e+22
1.84000000000004e+22
1.68799999999994e+22
1.76000000000004e+22
1.84000000000004e+22
1.69599999999996e+22
1.92800000000004e+22
1.90399999999996e+22
1.85600000000007e+22
1.91999999999996e+22
1.86400000000004e+22
1.68799999999994e+22
1.84800000000004e+22
1.66399999999996e+22
1.86400000000004e+22
1.89599999999998e+22
1.94400000000001e+22
2.05599999999998e+22
1.73600000000004e+22
1.79199999999993e+22
2.00000000000004e+22
1.81599999999996e+22
1.64000000000004e+22
1.71999999999996e+22
1.89600000000007e+22
1.86399999999996e+22
1.59200000000003e+22
1.79199999999993e+22
2.00800000000004e+22
1.88800000000004e+22
1.75199999999996e+22
1.87200000000004e+22
1.90399999999996e+22
1.68000000000006e+22
1.67999999999996e+22
1.83200000000004e+22
1.89599999999993e+22
1.71200000000004e+22
1.85599999999996e+22
1.96000000000004e+22
1.78399999999999e+22
1.69600000000001e+22
1.92799999999998e+22
1.77600000000004e+22
1.77599999999993e+22
1.73600000000004e+22
1.71999999999996e+22
1.83200000000004e+22
1.75999999999996e+22
1.87200000000007e+22
1.85599999999996e+22
1.84800000000004e+22
1.75999999999993e+22
1.74400000000004e+22
1.79200000000004e+22
1.75999999999996e+22
1.67200000000004e+22
1.80799999999996e+22
1.79200000000007e+22
1.93599999999996e+22
1.96000000000004e+22
1.77599999999993e+22
1.72000000000004e+22
1.69599999999996e+22
2.05600000000004e+22
1.79999999999999e+22
1.74400000000001e+22
1.84799999999998e+22
1.72000000000004e+22
2.11999999999992e+22
1.74400000000004e+22
1.64799999999996e+22
1.79200000000004e+22
2.00799999999995e+22
1.91200000000007e+22
1.88799999999996e+22
1.73600000000004e+22
1.85599999999993e+22
1.79200000000004e+22
1.82400000000004e+22
1.91199999999996e+22
1.64800000000004e+22
1.75999999999996e+22
1.78400000000006e+22
2.02399999999995e+22
2.07200000000004e+22
1.69599999999994e+22
1.72000000000004e+22
1.91199999999996e+22
1.76800000000004e+22
1.58399999999999e+22
1.73600000000001e+22
1.84799999999998e+22
1.88800000000004e+22
1.95999999999993e+22
1.84800000000004e+22
1.86399999999996e+22
1.88800000000004e+22
1.61599999999996e+22
1.93600000000007e+22
1.98399999999995e+22
1.68800000000004e+22
1.61599999999994e+22
1.84800000000004e+22
1.58400000000003e+22
1.80799999999996e+22
1.58400000000003e+22
1.48799999999997e+22
1.55200000000006e+22
1.68799999999996e+22
1.56800000000003e+22
1.65599999999994e+22
1.64000000000004e+22
1.39199999999997e+22
1.34400000000003e+22
1.36799999999999e+22
1.60800000000001e+22
1.15999999999999e+22
1.06400000000002e+22
1.30399999999995e+22
1.20000000000003e+22
1.03199999999998e+22
9.5200000000002e+21
1.07999999999998e+22
1.04000000000004e+22
8.95999999999979e+21
9.04000000000019e+21
1.02399999999996e+22
7.84000000000017e+21
1.00000000000002e+22
1.02400000000002e+22
9.27999999999965e+21
8.71999999999993e+21
9.36000000000048e+21
9.43999999999992e+21
9.19999999999938e+21
8.40000000000018e+21
9.2000000000002e+21
9.5200000000002e+21
1.04799999999993e+22
8.88000000000045e+21
1.03999999999999e+22
1.09600000000006e+22
1.0479999999999e+22
1.04800000000002e+22
1.27200000000003e+22
1.25600000000003e+22
1.35199999999995e+22
1.13599999999999e+22
1.26400000000006e+22
1.27199999999999e+22
1.32799999999991e+22
1.19200000000003e+22
6.96000000000015e+21
5.84000000000012e+21
4.4800000000001e+21
4.95999999999981e+21
3.19999999999997e+21
5.76000000000029e+21
5.91999999999995e+21
5.19999999999965e+21
5.12000000000011e+21
4.5600000000001e+21
4.8000000000001e+21
4.87999999999967e+21
5.8400000000003e+21
6.95999999999994e+21
4.80000000000024e+21
6.1599999999994e+21
4.96000000000011e+21
5.60000000000012e+21
5.04000000000011e+21
5.59999999999979e+21
5.51999999999995e+21
5.8400000000003e+21
5.11999999999996e+21
4.79999999999968e+21
5.28000000000011e+21
6.00000000000013e+21
4.40000000000009e+21
5.44000000000012e+21
5.43999999999979e+21
5.83999999999995e+21
5.44000000000028e+21
5.19999999999996e+21
4.79999999999968e+21
4.96000000000011e+21
6.24000000000013e+21
5.20000000000011e+21
6.95999999999953e+21
4.88000000000025e+21
5.27999999999996e+21
4.96000000000025e+21
4.87999999999953e+21
5.12000000000011e+21
6.00000000000013e+21
5.04000000000011e+21
5.03999999999981e+21
5.51999999999995e+21
4.40000000000022e+21
4.95999999999996e+21
5.59999999999962e+21
5.52000000000012e+21
5.36000000000011e+21
5.52000000000012e+21
6.00000000000013e+21
5.03999999999981e+21
4.07999999999997e+21
4.32000000000022e+21
6.07999999999995e+21
4.3999999999997e+21
6.16000000000013e+21
4.32000000000009e+21
4.96000000000011e+21
4.71999999999968e+21
5.76000000000029e+21
5.11999999999996e+21
5.68000000000029e+21
5.83999999999943e+21
5.52000000000012e+21
5.52000000000012e+21
4.4800000000001e+21
4.47999999999983e+21
5.43999999999996e+21
5.36000000000027e+21
6.47999999999995e+21
4.4799999999997e+21
5.28000000000011e+21
6.64000000000014e+21
4.00000000000008e+21
5.76000000000012e+21
4.87999999999982e+21
4.95999999999996e+21
5.9200000000003e+21
6.95999999999994e+21
4.4799999999997e+21
4.7200000000001e+21
4.4800000000001e+21
4.6400000000001e+21
4.3999999999997e+21
6.00000000000031e+21
6.39999999999995e+21
4.64000000000024e+21
4.55999999999956e+21
5.68000000000012e+21
4.00000000000008e+21
5.36000000000011e+21
5.2799999999998e+21
5.67999999999995e+21
5.44000000000028e+21
6.47999999999995e+21
3.99999999999973e+21
5.12000000000011e+21
4.08000000000009e+21
6.56000000000014e+21
5.36000000000011e+21
4.39999999999983e+21
6.07999999999995e+21
4.80000000000024e+21
5.03999999999996e+21
6.55999999999956e+21
5.68000000000012e+21
6.16000000000013e+21
4.08000000000021e+21
5.03999999999951e+21
5.28000000000027e+21
5.35999999999996e+21
6.00000000000031e+21
5.03999999999951e+21
5.04000000000011e+21
4.08000000000021e+21
4.63999999999996e+21
5.59999999999979e+21
6.39999999999995e+21
5.28000000000027e+21
4.79999999999996e+21
4.79999999999968e+21
4.80000000000024e+21
4.79999999999996e+21
5.36000000000011e+21
5.52000000000012e+21
6.31999999999976e+21
5.51999999999995e+21
6.80000000000035e+21
5.43999999999996e+21
5.83999999999961e+21
5.20000000000011e+21
4.8000000000001e+21
5.04000000000026e+21
4.79999999999953e+21
5.44000000000028e+21
5.59999999999995e+21
5.76000000000029e+21
5.51999999999946e+21
5.12000000000011e+21
5.68000000000029e+21
5.19999999999996e+21
4.47999999999983e+21
5.11999999999996e+21
5.12000000000026e+21
5.67999999999995e+21
5.27999999999964e+21
5.20000000000027e+21
5.51999999999995e+21
5.36000000000011e+21
4.32000000000009e+21
5.2799999999998e+21
6.23999999999995e+21
4.88000000000025e+21
5.51999999999995e+21
5.67999999999962e+21
4.6400000000001e+21
6.88000000000015e+21
4.88000000000025e+21
6.23999999999939e+21
4.96000000000025e+21
4.63999999999996e+21
5.04000000000026e+21
5.51999999999946e+21
5.20000000000011e+21
6.00000000000031e+21
5.83999999999995e+21
4.31999999999984e+21
4.71999999999996e+21
4.08000000000021e+21
5.35999999999996e+21
5.75999999999961e+21
4.96000000000025e+21
4.87999999999996e+21
5.60000000000012e+21
4.96000000000011e+21
6.47999999999975e+21
6.55999999999995e+21
5.8400000000003e+21
5.35999999999996e+21
3.91999999999974e+21
4.8800000000001e+21
5.36000000000011e+21
6.00000000000031e+21
4.47999999999956e+21
5.36000000000027e+21
5.19999999999996e+21
4.80000000000024e+21
4.55999999999956e+21
5.44000000000012e+21
5.68000000000029e+21
5.91999999999995e+21
5.83999999999978e+21
4.23999999999997e+21
5.76000000000029e+21
5.03999999999996e+21
5.03999999999966e+21
5.60000000000029e+21
4.79999999999996e+21
5.28000000000011e+21
4.7200000000001e+21
5.51999999999979e+21
5.27999999999996e+21
4.64000000000024e+21
4.95999999999996e+21
5.27999999999964e+21
6.24000000000013e+21
5.68000000000012e+21
4.72000000000024e+21
5.59999999999946e+21
4.88000000000025e+21
5.03999999999996e+21
5.20000000000027e+21
4.95999999999952e+21
5.68000000000012e+21
5.52000000000028e+21
5.99999999999995e+21
4.79999999999982e+21
5.59999999999995e+21
4.56000000000023e+21
4.15999999999997e+21
4.71999999999968e+21
6.16000000000031e+21
5.35999999999996e+21
4.96000000000011e+21
6.40000000000014e+21
5.51999999999979e+21
5.75999999999995e+21
5.12000000000026e+21
6.31999999999995e+21
5.27999999999964e+21
6.40000000000014e+21
6.08000000000013e+21
4.72000000000024e+21
4.95999999999952e+21
6.64000000000034e+21
3.91999999999997e+21
5.20000000000027e+21
5.99999999999942e+21
5.60000000000012e+21
5.20000000000027e+21
3.83999999999997e+21
5.43999999999979e+21
4.63999999999996e+21
6.64000000000034e+21
4.87999999999996e+21
5.27999999999964e+21
4.96000000000025e+21
5.43999999999996e+21
4.96000000000011e+21
6.00000000000013e+21
5.51999999999979e+21
5.59999999999995e+21
5.12000000000026e+21
4.79999999999996e+21
5.27999999999964e+21
4.96000000000011e+21
5.52000000000012e+21
4.80000000000024e+21
5.67999999999945e+21
5.44000000000028e+21
4.71999999999996e+21
5.36000000000027e+21
4.63999999999955e+21
5.84000000000012e+21
5.9200000000003e+21
4.79999999999996e+21
5.03999999999981e+21
4.63999999999996e+21
6.56000000000033e+21
5.03999999999996e+21
4.55999999999969e+21
5.9200000000003e+21
5.99999999999995e+21
)
;

boundaryField
{
    DSMCSide
    {
        type            symmetry;
    }
    DSMCBound
    {
        type            zeroGradient;
    }
    nullDims
    {
        type            empty;
    }
}


// ************************************************************************* //
