/*--------------------------------*- C++ -*----------------------------------*\
  =========                 |
  \\      /  F ield         | OpenFOAM: The Open Source CFD Toolbox
   \\    /   O peration     | Website:  https://openfoam.org
    \\  /    A nd           | Version:  7
     \\/     M anipulation  |
\*---------------------------------------------------------------------------*/
FoamFile
{
    version     2.0;
    format      ascii;
    class       volScalarField;
    location    "0.00036/particle";
    object      internalE;
}
// * * * * * * * * * * * * * * * * * * * * * * * * * * * * * * * * * * * * * //

dimensions      [1 -1 -2 0 0 0 0];

internalField   nonuniform List<scalar> 
600
(
78.0878463815913
84.4243426134205
65.2467382684177
74.5611937002405
73.3195960449531
68.4113612925936
61.4294268329246
63.7804683717747
51.3899938567309
85.6201800226585
73.69954872008
74.0479734859095
98.1654475901269
79.7485221714688
74.0708196172793
78.1380162525957
77.0369136506359
104.577692174115
92.2386476535228
88.0208586506178
108.642744387094
75.2786066015432
126.419743176079
105.22289043563
113.248228755731
118.014738641296
107.371839292977
108.37359795084
94.112969531187
110.765032696365
125.914228866928
111.24523840788
93.4236776534851
121.104727518927
109.447066220737
109.841060695391
115.24724426812
112.097589505737
112.758379972341
100.482806377212
113.467205109254
122.332844320729
111.074763643853
140.235260520029
104.61464749007
109.754553245098
134.17053976108
111.533465473569
114.042271732697
123.877383558569
101.395735116153
117.902673620094
126.70971930989
105.762018856508
98.0226653754509
110.233016896433
120.062355490693
124.306601327346
107.782721846162
137.405518807679
123.378412936745
118.538584198748
109.899478454887
118.911863476798
107.978497316861
124.245541162962
112.221411566963
108.365080919209
113.488045057952
122.091305838641
130.733139220278
112.753211570061
115.21866077111
117.920499013624
109.559923386024
105.490166655218
103.549444974365
120.445193490607
115.162337118687
114.851717176078
123.20585125466
108.276355905665
94.9276827121881
120.511588861646
112.265716751954
126.243212195177
106.83964435701
108.294484151205
105.578759579332
123.840279883252
137.296109064817
106.750526372624
86.6770967209346
115.868614423675
102.049994636787
90.4724917223105
118.226514394691
111.582595846691
122.807853032233
102.340241075053
111.505790211966
120.547354494257
103.525288686153
125.963382094408
100.193406131571
132.957470652641
123.202737458556
140.106453165906
109.018570229998
103.664929007047
121.852614725444
112.507017341976
120.113436359768
103.713401359385
111.741076667868
93.0889033302012
103.349395909998
111.318055321284
104.396400219061
116.740015859532
110.692696017168
104.128165870812
107.060198373391
124.602730913348
111.789134572552
115.61886817207
99.3863225492629
128.261291951848
113.412274284552
125.248521823399
109.277768301993
122.710171269302
128.848898126563
89.4873711861533
97.6331871744524
115.250794974244
118.817795350075
113.402527011811
109.781325471667
130.512674616937
90.8926965762356
88.7666407642518
109.603576759749
109.343217560662
98.5124771529826
101.592258277031
124.110028368643
101.00861358312
109.624940759285
107.312680818042
102.009770044059
120.210169683418
114.920975580266
119.716989490527
115.529749925542
117.797061407776
97.8877070264018
128.924575861411
116.6094306493
105.89883075283
98.1109327909907
92.3378413988553
114.896254114085
124.327123040134
103.686321983672
123.92753083126
120.62127152143
134.242430332569
111.526114073001
120.222375818105
118.252231961615
95.3921069491843
125.34996977693
105.093919676348
104.780888738799
94.9331207781985
117.006515443505
103.108210156501
107.722147724156
99.1078213180915
107.60749791486
114.887218720064
110.581088347727
109.711079811453
114.486497317385
112.026273597688
127.206675571337
121.993632552968
112.564306675407
115.005298463361
102.449628920685
105.871659841755
109.908761815402
102.558680812638
118.672108332265
109.061498491395
101.194115502078
108.40715200453
116.030611988137
115.475747194237
111.65679739821
109.165137786266
109.742011294255
114.166215850011
105.639916437805
112.402432839438
83.4646221249673
114.272054248569
125.805659590554
117.238007048063
129.912714821751
106.3327152299
100.590773566357
124.591277127925
106.202196739376
124.746385302811
124.113830906556
113.491488425569
115.277266204613
87.5322865767244
107.859804381624
102.114437995038
123.650017653107
100.504209710915
128.626356888159
105.376252999682
110.093462003401
121.059803249541
106.505061598762
117.89478771671
112.597335336656
105.93803764946
135.741833419028
100.61668712253
123.445283170245
111.643480532293
112.396659516782
121.870138067847
118.915450872147
99.6990723268198
121.004880127545
129.18503006641
100.166010211223
116.81222487425
102.884468885571
108.96810627143
131.951638057967
123.95187935181
108.661454682692
105.552002061796
117.769622078669
124.501955707388
123.570032496115
119.822975009119
107.129157972392
111.196969596931
115.286084393229
112.166512265193
109.902910851661
103.891157128652
104.765465222744
108.821306752801
99.6401802131179
110.039472902954
122.640012920208
106.680001881437
95.8771233769796
122.680771094785
131.56854837268
96.2538154526228
93.796283794681
122.477905643153
109.001986479729
109.228959579598
93.9381569951655
104.78438922807
100.700575774113
97.3249712557703
110.031339837283
108.984526191723
88.3155219727041
94.7987921450882
87.9131431702086
86.3890176293845
85.7944479690733
69.0156179070153
82.1445261398499
60.5427017914793
66.6971979888039
51.4671037686918
69.3266201967018
56.7013045216419
59.0897255782736
52.4796231092532
47.0506546766401
46.9156438948284
44.1438320102655
40.9103616106597
52.2103055134293
48.8966465682457
44.3780915936248
53.4514818273161
38.0209258763716
40.0583424401585
34.4815718323603
47.9092181703257
41.2808435894975
42.1948787207556
45.3798610780682
34.9934120034818
49.559517790349
41.9326374510135
45.5021895301837
46.1480005442866
40.7599920617319
40.0895162885624
41.2748189803225
47.2502468349549
39.2644410734232
45.9156698136817
42.9720147078144
35.8812794680299
41.6158262539476
34.1528175442637
18.7117226408923
10.1216555212967
8.05272268513117
10.3995437023823
9.50191497914577
8.45558358500224
14.4049046046848
8.40634093932686
10.0075124877728
12.8025605345512
10.1931514246066
10.4349861267677
10.3444242112157
8.37929746870552
11.1320578503581
10.4542315663977
10.9843232000758
15.1721485194405
11.24619760889
16.0160226849244
8.70466629456509
8.71298674870803
13.7179382677119
11.7719223026952
12.7589108898448
9.88317678715112
14.4150450857282
9.91743390561851
9.89448165322302
11.9833314741535
9.99840377291138
9.41875155705991
16.7363920267564
11.8667702004659
13.8502599705998
10.6471921492485
11.0381424473346
7.64776605576378
13.1661826919983
12.1333264287504
8.49762546618584
12.7359799498718
12.1374812060873
11.3404813540721
12.8909285376529
8.09241389484185
12.86826613503
13.8385824288888
6.99952936446235
11.374761499663
10.4604563199344
9.48762970586397
8.11332839834921
13.4620801429172
10.6133660635061
12.9962474345152
9.38439118683919
12.1695169553247
10.417932817932
9.47904377280395
11.2540984392448
9.99467685076248
9.56959018672773
9.38225905200443
14.1438652049769
14.0736968216165
13.1047286487937
10.0941977942706
10.0988555292076
12.1909742004019
10.9982335878426
14.2855574983291
8.22743697370857
12.6329628142684
9.06618016735074
9.11604604661627
9.4970428597472
11.2613857688516
7.19755346590243
8.9345279642914
10.5225779263525
11.9165353942457
12.1720343640597
10.904300654778
12.1980001772383
13.7744618854247
8.99878626877068
12.1175941588399
10.3521691865315
8.07369701152434
12.3270050066428
9.56451555092311
8.28205583963034
7.18677169403689
9.77817646192048
12.715630652203
15.1732645880773
9.01304440236232
12.9591129703314
8.10884765522764
10.772342360691
9.36627033016388
8.52626085840266
13.5367986741572
11.4152429002661
8.76951761287927
13.061759413497
11.2505756879969
11.6590640800803
8.80967731484408
10.1845611725363
8.61474252787679
12.9066551321122
10.7563638122978
11.3859095932406
10.7854181361756
15.4479262520552
9.11227144268122
8.51629695238127
10.7608042290728
12.9765482414936
11.8179952532705
11.3786025884468
8.30791857990725
9.37632588357827
13.1461599516799
9.7254884115295
13.5845168494997
9.4974288484121
13.8237354112534
9.01019954616841
9.95881125236265
7.91119230918677
9.48376404462324
15.9133145498446
9.35310975403697
11.5100120250799
9.8311728566278
9.72979001966976
10.2524588077895
10.0147247186449
9.63744568676319
9.3699014439395
10.8114267792706
9.37463935806461
9.05324108567399
11.3442755969717
12.3258656767979
13.3915380211536
9.92201188859953
12.7212420828609
10.8070814671539
7.3762718370042
13.3265573150152
12.7261870082224
12.9865989193145
11.1332899071076
8.78383273164292
9.53053226598241
16.1559174322903
10.9833746877583
10.7679336863597
9.43909725675261
10.4044131542982
10.9058694386762
12.9546002018521
10.9395215787725
11.2002529889983
11.9307242297302
11.9456587377592
9.81607959688548
8.62950709157793
8.55597551932676
10.3883653740957
12.7130611036751
11.2515662446567
10.1032020358263
9.7860923910747
13.8156996829249
10.5125174249739
10.3436057501763
8.27045855037484
11.5379787482221
13.6307298648569
11.8297338917156
7.76626875521283
10.8430175583291
12.227656075778
10.43741896184
12.8198388268066
9.47248219618695
14.2520561834331
12.7040357223655
8.21759688723693
9.22730858722078
9.4872955541778
12.0647348776471
13.05599059325
8.3463775603502
9.60461311298772
17.0448522250715
10.2423843491174
16.9246930614662
10.3632550897219
6.2005840000382
11.9096846252822
10.8292842535336
10.5991234415522
9.49233412669434
11.9263151600396
11.5302740079482
11.0327683270322
13.0732766650685
11.4344300018423
8.79373269176152
12.6687554181425
10.8000651568239
10.3189457938718
8.89647050373858
11.2100595136866
9.53675201928257
10.8265151242949
10.443365183112
13.7394160959745
9.91116616329476
11.536530837023
13.4837177177671
12.0813422310355
8.74538586179133
11.5086959618329
12.5898078937961
13.5161974242155
11.7849979044451
10.5590478751267
10.9875987165191
14.1916329548644
13.5002035551171
13.9000983685482
12.6488763298309
9.65914049490725
10.3031102261101
15.3478659269552
11.8690005433794
11.216698577443
11.2582354297759
11.442518288853
11.8647265434976
11.315430585292
8.74288636026428
10.7367402353824
7.76620081765966
12.012357917134
12.3619194292686
16.1718233822595
11.478674804169
12.5112728144817
6.80345869120868
8.13659291888039
10.1068578665651
12.6105634318411
7.65710636602674
10.966117626814
11.3678508239719
11.2887490600444
12.004920943949
6.69057244230254
11.708775946327
12.4209311843948
13.4585390327377
11.5565170718048
13.6370103878222
10.837639141823
11.3796696558044
12.857475313899
11.6254356568377
9.89445277180429
)
;

boundaryField
{
    DSMCSide
    {
        type            symmetry;
    }
    DSMCBound
    {
        type            zeroGradient;
    }
    nullDims
    {
        type            empty;
    }
}


// ************************************************************************* //
