/*--------------------------------*- C++ -*----------------------------------*\
  =========                 |
  \\      /  F ield         | OpenFOAM: The Open Source CFD Toolbox
   \\    /   O peration     | Website:  https://openfoam.org
    \\  /    A nd           | Version:  7
     \\/     M anipulation  |
\*---------------------------------------------------------------------------*/
FoamFile
{
    version     2.0;
    format      ascii;
    class       volScalarField;
    location    "0.00036/particle";
    object      internalE;
}
// * * * * * * * * * * * * * * * * * * * * * * * * * * * * * * * * * * * * * //

dimensions      [1 -1 -2 0 0 0 0];

internalField   nonuniform List<scalar> 
600
(
103.888357676056
108.778324514836
120.491433521729
102.04336709064
118.354571851155
121.458706004637
107.657748093725
105.190251327859
122.277056138205
109.382962360258
125.373667964459
95.053694522989
123.967394523485
103.583507910227
112.430205424351
133.178565771185
106.10371997656
121.539693117255
128.515566797432
105.643226155101
103.146853764006
133.294964651656
110.67399892984
111.905576075096
118.371101203698
130.399497704831
106.149690113549
106.971067809991
114.730488341026
116.820959801418
136.645573188947
110.422451944034
102.819625031597
102.269463235678
110.586268002522
108.85623930292
111.309231511399
96.1719223137161
92.2348916678624
125.510405807703
116.397617392591
118.565335287674
111.602972118849
124.239504881965
121.940127820535
103.800234769294
112.734429117342
102.071937786767
123.735580923152
116.409505118721
115.508816042808
107.709236150916
121.392280889365
142.98916602627
105.744269104765
101.640966518152
126.128622148745
94.31421954897
120.600274083538
121.792787298637
110.126147298388
106.488070542643
110.846057991597
124.891198931093
115.630626342737
113.023183396171
110.194996836381
111.154797302335
130.685704840443
107.774513972006
128.659011983478
124.669696747116
130.906407363567
112.703663810662
108.029080317516
136.029706172284
99.2960570593701
114.348404089903
127.586600996231
127.423093345345
109.945950691396
110.067294292564
105.047435239179
119.125660187254
112.439053576653
118.037222738569
104.687757614089
108.58058149025
92.1803171510644
116.429334844286
114.508033100834
135.423340915468
95.8731602253236
114.393784350162
123.345865370332
100.523162740212
95.0875311397391
130.405205478532
109.079699038795
112.551498165342
121.804230604383
113.823847686671
104.001016189179
124.67882540081
103.343043236482
119.640452384893
114.139891470107
128.30130832704
111.524793025758
121.378262820617
114.481922625649
131.211051462824
110.857806210727
111.830978849032
109.740245155696
103.264467076706
128.326444489573
113.28395585783
103.076938395222
107.3782399598
94.0048441799115
118.017827441583
123.628892387521
98.8543196626969
106.77972276956
124.039808445972
99.1283118440525
119.815991544521
107.652378529997
112.902787034521
122.398424606658
98.890390551012
98.7822285513073
121.828241237569
112.571205130774
120.206255196975
110.828526363895
108.718742998774
102.244272364721
116.25763407549
125.990944185486
93.9310082687163
97.0959039055928
81.39781130192
103.945765490357
107.125943538625
107.295175526165
92.2104628428142
90.7296660276487
132.464383715137
112.097253250691
119.851180403437
116.423515751619
95.9544028667592
109.765967037819
127.397301457084
111.743847069458
124.199994027308
126.546122572973
119.21407564453
110.553594620267
110.559965504278
105.619270096356
99.3365990008561
118.63405422785
127.722956109641
104.75033710118
115.43775956257
108.283891221628
92.2279522588869
125.629062371488
111.875630734425
110.72240375325
107.711129277574
106.358145504078
115.508810528381
120.829546507914
112.062230503031
107.322016996645
119.924341939085
103.742266825467
119.396431282987
108.123874262179
109.575031590944
126.369663087697
97.9383191712502
108.628113452224
133.184277247975
112.948615172499
113.537825781561
119.474153012406
110.51718143381
127.670788708513
102.653880123053
114.516066336351
102.205153788834
124.558675114718
114.03294540781
116.801372712699
112.455498174333
120.226821757857
98.3893710633016
114.894548557823
120.138944819321
109.318922918057
110.13972363079
121.330123370633
118.451888560702
102.888530313993
109.285733544961
107.634961738829
111.709671222626
112.271764211035
138.366200151154
134.050475351196
124.056933649301
111.752038613913
110.972506949091
125.273230624709
97.634774006403
102.421860047881
116.922077453746
106.816148936282
99.6494081884617
94.5220726030853
112.729421066919
125.829411076342
109.67515490162
112.163180223756
126.392036673824
116.349891076961
104.799699747862
106.030961990949
112.084235305255
113.717039192049
109.875268049583
110.911528168265
113.296946327648
124.807673598914
118.485457098476
122.206343170985
113.860965623954
124.163964997406
110.630756545069
114.694102914407
128.161892608834
123.089728956282
109.438287327797
109.040562424951
106.278022584095
93.8577315859429
108.298183210865
116.441033046834
119.950705627949
121.53391730765
104.879114807285
120.342570416606
102.637286176686
106.338567931087
107.116418690956
108.879162509252
122.236162067668
95.02555092902
114.918270144161
100.405429208673
124.053262162501
107.985722384326
111.084935230323
116.68399611495
115.484865584011
94.5679172223465
103.727658179234
99.3044530209682
107.976662210956
118.680136750271
106.786426231681
85.8264750461982
115.872880705516
94.6340422996224
98.883323887204
110.605246591457
92.9442204657132
90.4288902044064
79.2565772200261
75.1118991733267
70.4802825457717
60.0398380011033
77.5110456048909
58.6846147693837
64.1162554036546
58.3871519788461
63.9158796764265
46.7482899946058
52.1211716773982
56.7646105832359
43.9638558482122
48.0559663522588
43.5100323167781
55.4570860361564
41.5087782501532
40.4365899990406
36.7981497053351
40.4613779652112
46.703165960912
48.9478561380898
54.6552676333417
41.7353888364859
39.042750159839
60.5768922015315
38.2766214574074
43.3181579874268
41.370702791364
46.1440773926107
40.6352258187311
42.7516381718831
45.5970523269846
36.1443340087933
40.6894046452915
47.5132153396416
32.5460263308964
43.6541666022327
41.229804219076
38.3884373658892
32.5589462619449
20.4699124983654
9.84270099093102
8.75951859181997
11.1382529551159
10.1815283475088
11.047307430847
9.95289725758791
9.96916716392373
8.10248470606611
10.1913523808461
9.43680388085598
11.2268448364467
12.4522638306712
11.5553514360479
12.843103215819
11.7892455849066
12.3734030223251
10.3213133589288
11.3736160894016
11.1218221976355
13.5200321615163
11.2465155121135
11.2638893848308
12.2019578906868
10.7818320057188
10.4269968963937
11.9964161054686
11.3727394771703
8.30469049395031
11.1528994170859
9.65751569698347
12.672973726984
11.843791043227
8.77613515902038
9.36912306927799
12.9486644580327
10.6155014512427
11.865633181723
12.9401044251296
11.9895735458629
12.9928226037835
17.9755875401461
10.4163833706673
15.0074719220669
9.19938325939352
10.038498456218
8.60093744949291
8.364206057213
11.3776856200679
10.020600734528
12.5193380291154
10.5275013982127
9.41337675207956
10.2776910192652
8.64937110478582
9.23519520158367
8.08709105668758
10.0881801989232
8.79110528838678
14.0725203768702
11.0623719685482
12.6748111164058
14.6416505399482
12.877030163975
8.49996317137392
12.1256972099725
10.1240236763787
11.334588838539
11.7621020437719
9.5505808700234
10.7957081544777
11.5245046255253
11.4411905807911
10.8961013164265
11.3315990259421
11.8419960576269
9.33642864206233
11.990820524255
9.15219161283073
11.3583854163601
12.0909902652448
12.9337090466464
10.9899218381025
9.23588533148417
9.03927562976138
10.9397994658327
10.5053692345769
9.97933231570816
10.4475765321025
9.46931311354755
13.096313429214
12.7666907084666
9.79689766406913
10.5367358992706
9.45151010712935
9.22776337630148
9.68003584579532
10.2567262581685
15.1201088151477
9.37928447739233
12.8649745239979
11.7471934960637
12.3243430686655
11.8354651208132
9.02553950163817
14.4192055416955
10.6378603224688
13.412276895451
12.3697103443252
10.4813893133094
10.566016654681
10.2713301905726
11.7365193649618
9.37117335646608
14.6060666908723
10.7079452695337
12.7469667633838
10.3120007713184
12.6372542157276
9.29466076144614
12.0764220449568
10.922936624544
8.56975780951739
7.71787059913604
11.162930908508
10.9010811940755
12.3794852984048
9.65517108736065
15.1531521006092
9.02254585119591
6.34415981806357
12.4124032480527
9.27258622007692
14.7647883723718
10.0400382092466
10.1269363518821
11.719187548571
12.3843992400175
12.7954071322422
11.9038832033049
11.4752730239567
10.834314009391
8.47454416052879
11.7031901497842
10.9694493680724
10.5368298010613
13.0011181202088
11.3512294637514
11.8600685153076
14.0515009687581
10.6248551984793
9.99847062091018
10.1583202518519
10.0233855391405
9.9175339022095
9.46344178441055
13.353375056019
15.2044563252203
12.6809417465994
11.0569359020867
10.5699623897843
11.7868051289065
12.4589660711643
11.5541213670617
11.7037598666151
13.1574973416771
11.3208962066643
12.7497427808645
10.3043606892701
12.6536771140233
12.1554269623133
12.4634567919843
10.7238461797572
10.5947997442979
11.338779443652
10.4881737632141
13.8652764685748
8.67601291341832
7.88471125581521
10.4190111463302
12.3303540268583
7.92246115838474
10.4409572787527
9.90914396213972
9.66515309680064
9.56546326351786
9.08975397827016
11.2737694444212
10.5475741811034
11.5488487516742
10.9754618723411
10.1115021500665
12.2169202197815
10.0309051409967
13.8522706830668
12.6624875278622
12.2084632328337
10.6601555061247
10.1715792110492
11.9158275635239
8.13785241064639
11.4064430555259
10.4667359247519
10.8469836799412
13.9320131709115
10.1455763649469
9.95127911775948
14.0147641150565
11.3454706625013
13.0593749609042
9.07323526188399
7.10870831318231
14.1169670222237
9.39273108550719
15.9609016433431
7.5620784487022
13.1745323105155
13.0641979647857
9.66452186265568
8.97552345888242
10.3456250700176
9.87710868903422
12.5379738290305
11.4451965149228
7.40006449088777
8.50214487525492
10.0325826249575
12.2216074861115
10.5781745336893
13.3887325984702
13.711933419876
11.4282382042748
11.6698670875788
13.6438181846845
14.175576624518
16.6232083683843
13.6792341681549
10.8429543254937
11.1669377866623
11.4909851841442
10.4101897981123
8.82753293748059
8.52440693999921
13.3501847681028
9.73614801177729
13.3884410869794
11.0720655365568
9.99201991154308
8.78098039828574
11.6574352937522
13.8592019122154
8.49088225829176
11.3062567270825
13.68749203094
9.1650609860562
11.3616589588365
8.51674843214088
9.70017682491156
11.4225537437089
9.71155654522488
10.9971285990442
12.0991142888339
10.9536606709672
10.492490982275
8.60152027198451
12.6456171704663
10.4705612797634
12.5674655733562
17.6744072771402
7.45578148315799
10.355514863236
11.8523781634136
11.1169137295734
11.5186808089623
11.1582945387912
13.1696141115091
)
;

boundaryField
{
    DSMCSide
    {
        type            symmetry;
    }
    DSMCBound
    {
        type            zeroGradient;
    }
    nullDims
    {
        type            empty;
    }
}


// ************************************************************************* //
