/*--------------------------------*- C++ -*----------------------------------*\
  =========                 |
  \\      /  F ield         | OpenFOAM: The Open Source CFD Toolbox
   \\    /   O peration     | Website:  https://openfoam.org
    \\  /    A nd           | Version:  7
     \\/     M anipulation  |
\*---------------------------------------------------------------------------*/
FoamFile
{
    version     2.0;
    format      ascii;
    class       volScalarField;
    location    "0.00036/particle";
    object      internalE;
}
// * * * * * * * * * * * * * * * * * * * * * * * * * * * * * * * * * * * * * //

dimensions      [1 -1 -2 0 0 0 0];

internalField   nonuniform List<scalar> 
600
(
100.330112859042
128.152919820724
107.944678459441
123.852629812
113.709915892714
110.423943874476
97.448777296917
114.341258444047
107.131554682837
116.506301729636
95.0663695968747
113.542799543152
130.633034112243
127.317244763975
99.5155893357817
116.959623531141
114.941182332086
110.038964037479
112.742421927648
127.613631046287
102.608779124842
118.084375216555
116.844651130795
126.829050262685
120.928004519024
139.385038510609
108.741747568156
112.849785867583
102.339903066349
97.6507352457935
124.0210524311
115.638568483768
123.724104040123
112.4508236305
100.355535418712
119.591837449543
115.108073684211
102.747266255615
121.854627764444
88.0642311170285
129.451364296826
103.281548073191
107.291245003172
121.795042623281
107.427300601026
107.105304365531
103.328300836973
98.2152879887431
124.876014533654
102.162315018836
102.402034775382
113.838969302155
111.080729295907
119.474479528658
134.810954268668
113.797837511042
116.665740649153
111.580790747224
113.102036037268
111.230354126409
114.234722576955
96.7664389105745
110.46537552675
100.381887691956
115.1248317377
132.160802257156
123.731022161167
113.672475333113
112.704595914313
125.585421979641
137.234667433628
110.586206777944
127.015539561008
102.373744166838
120.12458695628
106.023433395734
104.652805648194
120.543894768876
106.01601549124
108.894605587535
106.717729212315
122.13315362629
112.347062519101
105.789687212245
121.837486120162
97.3793279721506
109.51730813906
124.512044878796
128.270837163153
122.220146060408
110.863950351854
112.596673516309
105.368772614429
108.852754446631
110.269248959727
103.810226015492
106.878161098393
116.153152309647
114.234463935162
119.00157219838
100.27573466732
115.624549002125
117.918920849496
114.943360099688
117.462846824009
117.620481894606
110.233391331644
121.843342337686
105.642221102846
124.504632861929
108.556500616988
127.807715190265
114.251926170685
115.239441952472
126.798829654632
89.311106438715
116.718203583461
112.590528369595
93.8112241247611
103.318156959602
123.295397921173
120.87096848029
119.481341778586
127.776593205716
96.836192852516
95.0020365748836
101.175693087074
101.858285701663
109.053201710993
113.842308857957
122.767039293339
113.181820827382
128.389009332335
113.831791057513
124.94046909649
114.96523444109
112.207412160192
127.404843465911
105.320468980144
132.738588014391
107.034395629692
109.028294365388
99.8259230539713
117.433360368216
107.176806840208
113.127157798827
108.557543225624
130.854489940099
93.1486273507663
118.947653530281
107.656541005073
115.906708125843
101.081997554242
121.495987596429
107.458803884441
131.444484519507
119.903390172851
116.502747060115
112.805017953387
106.539921196569
110.637048592452
108.971398875392
118.988855340326
93.7396677644898
107.634619088056
106.242757854039
108.494218074662
105.761539271242
116.898325978093
109.303294825307
124.713374393339
108.948911748067
105.336610244872
91.1607311136325
109.0444187324
115.310379955633
114.263504486973
119.938475089531
119.584525439994
110.228130227166
122.11700006361
105.418126841658
114.120893016157
110.621807662514
81.3561115644496
102.069774828814
108.982072257785
117.321975658282
130.878360413877
105.015622870781
107.081254630831
111.756005229797
110.117626532512
107.425906484262
116.171522277103
125.918474749413
113.864047391049
91.135159170587
121.713920944104
132.045082572344
118.337091920289
112.21136045513
115.214854190138
108.214355997305
115.79214580492
113.820996844467
101.669677792001
108.304994041019
103.833606245619
112.879973794969
117.083261015368
109.114751055629
94.8468580959312
121.719911901943
115.961619184907
122.848222433549
112.445355716081
103.529143197559
122.465946392502
107.346858564118
123.752749588987
115.948499444236
118.519527740286
96.6229083409221
108.134550894298
120.420608642431
122.031164535457
117.816300210143
110.910651963607
121.73904373699
127.923505578178
116.797452595829
112.627906215415
100.275058299102
105.032246752691
132.582262247905
114.693157967964
102.680481276236
120.084137756
108.238299517579
122.519893250487
114.99575289025
102.594680227889
105.353769738077
135.244283762221
120.150999169695
116.964030728617
99.9130844854
106.176677618715
105.968567621959
119.843450107421
120.917968731907
106.509137175784
107.306376967536
118.331338018186
128.4376142884
126.485689985252
93.6440236349042
120.676375470905
118.932030111611
116.621730330337
89.1909764821155
108.895217490897
128.86950461244
119.076169828872
127.964576439598
117.892249359228
118.707883016508
115.259846600005
99.3701257529811
110.96946946296
139.236594038445
97.2425103705446
90.0250704693245
112.776727529861
103.64550370466
104.210944625691
96.9376555293912
86.9350363485168
89.1315489902946
101.933043848714
81.8644117099201
97.5841900162298
94.2872744112273
81.203632431182
76.3583181394885
73.6983123674235
94.2358566060008
54.9460114069334
53.9854811040641
65.4019702984976
60.0467372854328
47.642812361322
47.7734291665414
54.2899662914309
46.6922727704401
48.1337080266493
41.1154777847467
43.7879498332045
40.2535282849313
50.3348974280068
51.4057308528802
48.6958916750545
40.1126613854733
35.0695518276304
45.8748843194804
42.6764481879717
42.6470356145348
38.6068051475687
44.5525672785667
45.1647409247375
43.9730225325508
39.8628920510167
47.5742171164374
44.4415256497128
40.6018397345014
50.7614787218904
40.1216466045996
48.809984398525
40.0215542771538
36.1611386666124
44.6117706173694
44.7392680376164
37.9205907074865
19.5843375571384
12.5197345541619
9.20237389539953
8.44721523790183
7.64378840290598
10.6665249926437
13.5579468333346
10.6343804015713
10.389527059308
11.2410337385237
9.00731594654114
9.39040144216006
10.8160571489325
11.5537507137917
8.71134028066049
11.8083304889614
10.1751353625729
13.542259177187
9.71111528963987
9.67287704363138
11.4287846309659
11.4917615447124
12.7431377734227
9.99609999793122
12.6502003298204
15.4655984294304
8.33877726597341
8.44548411888017
11.1382108378248
13.7852907782986
9.58834251929728
9.63826480595325
9.26614781623574
9.96254235916501
13.3359784140765
10.4056423797001
15.4447486578922
11.3067455893794
9.8763219945673
9.16699936782951
9.98851025134067
12.4974982632548
10.263735651725
11.2011690102445
10.8598881576977
10.925101698987
10.9308900332899
8.71118714064314
12.1334919180471
10.9599380136402
12.0979798451035
12.0291119231624
12.6316048514066
9.99605828076788
10.9607891915523
10.4165827794112
13.9698837213858
8.97130157421762
12.6823685373427
11.1394302980963
11.0618567533921
9.19994362562771
10.720163931082
9.08162947275392
13.4212943436678
11.2762488532493
11.1902986193706
9.09822818721894
8.84825509948989
11.9577651261729
10.6199432701692
10.9650455528519
13.6398525442143
9.61275430938173
10.58712530229
12.6280729674488
10.5281438701926
14.360980130618
8.386491164393
9.20560717469179
9.85104914753669
12.685206041892
9.90187096556288
10.4532402279614
10.3271291864469
8.20923633394344
9.68993740847969
12.6859492221119
13.4861408153684
10.3062496367754
8.92493311913069
13.210237744985
8.04591359338674
11.974851729533
14.3357606115205
12.9385571824724
10.7068658962692
11.1608967665054
6.59619195467349
12.9130351969717
7.76293607647372
12.5164991154855
10.8038415233882
7.36085032760088
10.8269015508984
8.62969510656298
12.4174822222292
15.6004721675276
15.0362045554608
13.8551536448915
8.87031871857161
8.24152065543863
11.0911612291499
11.4544858564366
13.152998331755
11.1951536011296
12.5548228698744
9.87330547893875
10.3349792509797
12.1138610231943
16.3954448833875
10.7213176047727
9.10385850470293
9.84632742630352
9.58202617414627
9.77293568105746
11.3916521425173
13.1426503743843
14.0524444543922
10.8584452265148
12.170757033565
12.4965926821127
10.2161989952569
10.2054295330549
9.87684043406993
11.1148806712381
11.9207305647923
9.24115086078518
12.3121584848498
10.7965077604748
11.9404284835421
10.5212327942701
10.5137409703026
10.5356581510364
9.16464742841141
12.5078983655484
9.68488193693157
13.5087144438743
9.21784122504984
11.2411679915773
10.9945057575389
10.6550979108099
8.94396042528185
9.73369992254679
13.0901998721732
10.8345003306964
10.9632428024344
12.9196810668501
10.150844068663
16.5534090243109
12.6134280079363
13.0981933834111
10.2352368946819
9.43451947615722
12.4792709917749
14.148086310615
11.8431321484664
15.5733263068499
12.3418901189488
9.71260378498779
10.7127395743378
8.80267755852541
11.5710257811211
13.3182603546062
8.78816832587732
10.828975223242
12.1789052049042
9.6624064082948
13.5539538154494
14.1348857995258
13.582482724598
11.0500238962543
7.3716457697083
9.98019207758172
10.6759547086547
15.3005648738965
10.9928488813188
13.9370526488016
9.08658923425858
8.90819920332228
10.8320086509788
10.8723639167645
9.78799286399254
11.2579939198131
11.5505721426252
9.03768697221272
11.778213783771
12.4034267331433
9.22961793448052
10.8763611335954
8.7727221778125
11.8051129644033
10.1760752636646
12.7109231837019
10.8114324810789
9.57479553589238
10.0409222180043
12.7313022388565
13.85603807161
11.2102685379521
7.66781539610204
13.4068656242805
9.04844534889709
10.6369389405336
11.1020386244795
11.9881579940631
13.4810874790747
11.957079960946
12.5619102989091
10.5151493505498
12.2590572913735
7.69672847998235
8.74191767732548
9.02722830219471
15.511506598771
10.2248427697992
12.0595840741024
12.9600470891856
12.5711139098197
18.35559143236
10.5075625622772
13.3453684569622
14.5515262712641
11.7220688018399
13.7341639112828
7.79687885845577
8.63687738846946
14.5576081425146
7.49675140876094
11.4985212287448
11.3892384834391
12.8485138469375
12.1866486595054
7.54734753516269
10.2599006735703
10.2301691432593
13.6322489104077
10.6540986689311
9.33254568138807
8.96436080117918
10.4702945559965
9.08957206174878
14.1444544467437
10.5457309078355
11.0312078104927
11.5917331440387
8.63425826354116
10.356214661173
9.45511523644935
11.7965720840869
10.6898246679522
12.8395731471438
11.1420412562122
10.5265978302247
11.6582199736575
11.1486809127238
10.571041900559
12.4500574118715
10.1436736498241
9.03733235654669
10.2669315369623
14.9643395491354
8.37544917404332
10.3450355696614
11.5549917929631
12.6991770527202
)
;

boundaryField
{
    DSMCSide
    {
        type            symmetry;
    }
    DSMCBound
    {
        type            zeroGradient;
    }
    nullDims
    {
        type            empty;
    }
}


// ************************************************************************* //
