/*--------------------------------*- C++ -*----------------------------------*\
  =========                 |
  \\      /  F ield         | OpenFOAM: The Open Source CFD Toolbox
   \\    /   O peration     | Website:  https://openfoam.org
    \\  /    A nd           | Version:  7
     \\/     M anipulation  |
\*---------------------------------------------------------------------------*/
FoamFile
{
    version     2.0;
    format      ascii;
    class       volScalarField;
    location    "0.00036/particle";
    object      linearKE;
}
// * * * * * * * * * * * * * * * * * * * * * * * * * * * * * * * * * * * * * //

dimensions      [1 -1 -2 0 0 0 0];

internalField   nonuniform List<scalar> 
600
(
151.125020094932
170.073030076614
191.11870271113
185.617275586624
183.788287641707
177.872503653718
163.496597787136
162.00017164294
167.264965507153
155.33217604384
205.495045748189
158.0644280237
191.275593807813
181.706227964933
176.899597065926
190.371618004223
186.505951566664
174.502395458305
184.276627299304
148.028472793956
155.723591316906
193.762931107016
171.002948340647
191.963505299994
196.48620494636
175.285991975917
179.246752304994
164.562671608251
145.097049322599
159.97448634859
186.173480427737
148.13729309979
156.289183127858
175.153236800758
149.429358709054
178.474334101017
177.784263803324
152.783215560303
135.794545040051
189.155260634541
183.672922337434
167.377456141361
171.680319281391
189.306677431468
172.709542493005
162.417641337955
169.547998401975
188.180171123396
178.847815414121
190.415146414378
169.125663557377
158.086374050628
178.906659174382
204.283892968485
181.540704654967
151.749893578281
190.251068554098
153.595081762347
165.465705579711
184.339001046431
178.121487816959
150.874714262391
173.006899807148
177.388523145586
154.734055467109
181.221218355201
175.722476728327
178.531362461064
189.324665007593
153.060247724078
171.66159788959
157.865119369209
175.68989861711
172.442156681686
180.882685257249
162.691425557103
152.280462828315
180.179649542348
177.861991895041
175.104928439557
151.362777553368
152.709406157681
163.357136099288
179.752832028787
177.939277085108
168.144546673657
176.588919092516
164.214149694262
150.679558643389
178.592388219016
180.132031627644
178.374264263419
169.843703376095
173.6420137414
184.655528411589
151.601676864546
162.160963238976
163.332579126686
176.32053050076
186.302308269231
175.907053249669
163.839427864356
176.243855404358
165.988740831638
166.268333988871
173.34579476593
152.217858630056
173.037637110253
159.351022334468
166.034518560972
164.239190489914
170.346289688986
189.391751847833
171.91699413904
167.05721623591
151.013288745022
188.76381028914
164.774152025516
152.562927839769
173.864421644416
156.169791565873
187.149345006188
174.539799251461
163.683584180551
146.523604026518
170.595395401953
167.121348338004
186.51016692025
146.957557111109
189.224153014632
185.084870901082
169.865482847969
164.589482518334
191.552046239959
168.170089406446
164.159441502024
146.294248509066
172.750114343391
171.414488559569
195.688489536496
186.512194186489
158.46935415522
156.179779110279
151.368811480844
172.369494018515
174.870156478567
161.378881570943
162.846468525126
149.985004728126
185.641615888719
163.678902565441
182.890493225551
158.650920640974
169.620501886402
182.088584485772
182.063094890497
173.459268023284
168.463142768715
167.986822564258
152.312161513878
153.051700904694
163.14427842412
152.333706135198
151.110937616758
151.417509277132
159.555421756281
153.66007384478
174.625276944997
177.983664330305
164.306419651008
196.754306932608
172.217432490712
151.295501413989
157.281137947844
155.741370004982
161.933670074348
172.534163697205
144.848276192053
162.171927005948
185.437458733897
158.255143177419
181.232897254362
167.61255017357
166.564058107689
190.08876702581
150.352568601435
178.422326072137
187.862195536585
174.099002415258
172.149030463637
171.679094497123
158.720523561311
174.465222826651
167.08988440848
142.774106753836
144.596261614479
174.275163455136
161.725695823892
178.474258891057
165.079396091651
178.521630124845
153.245014280567
157.421436828386
182.500478457605
171.809105518364
155.761675785742
177.00173737137
162.458993169507
149.344866578828
150.586855153393
151.631153269188
167.502568405788
151.346258829724
190.447828225835
192.513427886301
177.599273803504
162.764225462399
172.101978510155
163.318164080574
169.199699888916
140.707652584967
170.100819758027
151.054234562854
138.29110370188
156.653279006304
189.36216167424
176.172177245864
174.184869928989
184.303826400165
196.324935985466
183.200982816495
170.574533110293
165.209619111241
144.652866817129
174.064620043763
164.045847859786
173.256112960701
164.282800406072
164.342412382698
169.258519552926
176.743012129256
181.995388941176
187.107003462635
176.078397058711
170.14644055932
183.544614462641
192.378072784197
163.641034022687
150.546127095536
144.120493358493
162.204632296745
156.980888465443
181.942747007149
176.097576697281
192.27179884467
150.249373472995
181.096644095332
174.585250374515
162.025340960254
156.473440185073
166.21303622621
188.334019390968
152.687301663499
144.49429583897
179.130727241776
185.940893563387
173.061638379194
175.969031345454
167.109022128909
185.081555927206
156.426198992356
166.581576787895
144.041473905244
161.982995482778
174.780833277919
167.745267535923
125.857874579019
165.632642577024
142.575530051573
165.904044463618
159.107379239856
142.015933052347
145.137220199871
127.69076980866
123.76997257009
122.591406174417
103.900397548393
111.121061530805
90.7210568695426
87.0829135137883
101.852501648509
103.105147432619
73.1483757456906
88.4727118497796
97.8744025677108
76.4369708728646
100.56678623877
81.0676648217739
112.880204958606
86.4276073205502
85.2244100432537
77.6760325926265
77.0737648078436
87.2074018422798
86.1296544000821
102.427305219211
81.8086256234784
79.9094074931192
79.5006539792521
87.4533657255718
86.8113319070998
85.5142620873546
74.3697820288815
78.3425798294004
88.9559541149703
82.0480244292882
80.4410129384527
87.8144928480412
89.34170600652
61.6838194235869
93.0343687332509
79.0367769106637
99.9051094575934
64.1945612885344
35.1099571148418
14.6614058669097
16.8013221408376
18.7051411103283
14.7197091699816
12.788755763997
18.632614289681
16.7736187950936
16.5518724868808
16.3502910208556
18.1359111601515
14.960535542833
17.8191382028514
19.1032680516528
13.8238949241655
15.3935739399168
20.996116811542
16.460112284191
15.1103103620341
18.4627691074711
16.3122024547785
16.6001622255674
16.2838196683502
19.3862224993798
20.2213216523373
13.0803280046359
17.6940899875485
13.6854812885909
16.4068006236729
16.5071045374408
16.0811213518443
17.1042325682017
18.9681909040844
17.0617293252884
16.1373785836124
20.424530444442
13.1328882059372
13.4262721357368
17.1046631695471
15.6295006842236
16.1897085194592
17.095884456316
14.7250761892437
18.2068548024885
11.9305331144932
15.4847916565093
15.4149784537672
16.8300425788627
18.4744177815905
14.9283612738197
16.6087492326273
16.0805473988456
14.5465516416311
20.3344513653423
9.86786455010206
15.2905463584779
16.9395604729619
16.2588560380434
16.3135616838698
20.870538864441
16.0058034975441
15.1452123176333
18.7976561639047
15.6111602159922
14.7624612681059
14.959705771911
17.0761486169965
14.5740383136277
16.5112637383863
14.2357097055072
20.2269301957284
16.5263032543759
14.5614996191933
17.5476339964759
16.8926833609342
13.039773370264
18.1872591263542
19.4490355068534
14.0582769356202
16.7742909398125
17.3910635973537
19.8472201793273
13.5924812886156
12.362742522854
11.571953834662
14.0174579916233
14.7912103441069
17.6042363499286
11.1024772717549
15.4998892571688
18.8920167493829
16.6414870103306
19.1594409460032
19.343200751557
12.9858642863847
14.8486670092422
14.6062197833681
16.9542936921241
16.7915182436648
12.9800313351969
14.9030721911906
14.9814058857778
14.8397495856468
16.5047282163475
11.6428799026165
22.1790942671382
14.3265761485071
17.5171771452829
17.3359237672266
15.0769259220637
17.0602518589309
15.4548565348513
15.0178802289447
14.9553920559185
16.0778916937832
17.1206071525431
17.664220505445
15.5975638411889
18.2058557418648
14.5568470974085
16.3055924565592
15.9660213851314
12.6061368386507
13.5288517614107
19.4546890617134
16.5181433198684
21.4361759771298
17.7964257346884
24.0624298115922
15.7849001381714
13.4033406496409
21.1403816136865
15.3705840803294
18.1265943385948
15.7346288214511
17.2431419504846
17.1768313757205
15.2348254502552
13.6567304313914
13.7967520230758
14.7678316535428
15.2098981418038
14.4878210292559
14.8429760992511
13.5371445039482
15.0100797346991
20.9917427593171
16.1696240694943
13.902182551672
18.4455996551526
13.3569700529971
16.526448433851
14.2132726483086
15.9515778015024
16.5707910007951
11.7356830067763
22.6925137764944
17.6944815029388
18.1368721345322
15.6278560959532
19.8989029042528
16.6935234875204
15.3025994575537
17.8355205884045
16.3640253604944
19.0257551980015
14.3360583144972
21.1615511590558
13.0047877526349
18.9260700946615
20.4450471680941
14.4067320279975
12.0938867559382
15.571285306491
16.6883666338136
16.388894888013
21.8923099327717
12.2669405104036
15.3295992803852
15.726035487256
17.3277585174365
13.6037667801547
18.574120518567
23.3872993549156
15.5624086580693
18.1586315586636
12.4466749322949
13.6779513817194
18.5966700358572
14.0110488630199
18.087974362373
20.1149811111255
18.8827046731833
14.1911744467266
17.6195827262095
17.4735867729216
16.3564662179583
14.731053114062
14.3071562848961
18.6211102999875
15.4498605611282
17.5293553393037
15.4490403626955
14.9480099779785
18.7910658623377
18.492741948792
15.1632902628271
19.6811514774883
16.0744031248799
19.6400619033142
13.9987743356193
14.2237628014041
17.0719060961095
15.3890337740372
17.2213902546891
10.8350271060613
20.0939229525467
17.334417661244
11.7068977661904
17.1253320238119
13.161926524116
16.5507875510752
13.5947208800713
17.5065524324196
11.4316855333869
12.7230478858217
18.3064465877532
18.0301529227775
18.0257349022561
16.7366507231352
21.4979803595679
17.1714773586094
20.7461074617233
14.6821072231027
19.5090774145632
19.3142210758065
16.2266387129285
21.5412504262813
19.0486667895429
18.207748996303
18.1403819747454
14.8130966224853
12.9263746591111
16.9976638140594
14.5428218373218
19.8799063482346
15.2003187547242
11.5562660098699
14.3877212778276
16.4287027472408
19.9615140654036
16.7438592618208
20.5704969318179
18.162341432897
15.7317115988862
18.2739732811153
12.1519784293696
16.7729898460034
17.9368951143431
11.4294634931671
18.0723633162479
16.8939674248791
17.4391085443152
19.3188411815143
14.524521749104
18.1795900297753
16.3494515617943
16.5595358852096
15.5018758615018
16.8008199082094
14.1516324727941
16.2987879492113
14.0537449367873
17.3673402446797
20.4927628075309
18.8438031932299
)
;

boundaryField
{
    DSMCSide
    {
        type            symmetry;
    }
    DSMCBound
    {
        type            zeroGradient;
    }
    nullDims
    {
        type            empty;
    }
}


// ************************************************************************* //
