/*--------------------------------*- C++ -*----------------------------------*\
  =========                 |
  \\      /  F ield         | OpenFOAM: The Open Source CFD Toolbox
   \\    /   O peration     | Website:  https://openfoam.org
    \\  /    A nd           | Version:  7
     \\/     M anipulation  |
\*---------------------------------------------------------------------------*/
FoamFile
{
    version     2.0;
    format      ascii;
    class       volScalarField;
    location    "0.00036/particle";
    object      linearKE;
}
// * * * * * * * * * * * * * * * * * * * * * * * * * * * * * * * * * * * * * //

dimensions      [1 -1 -2 0 0 0 0];

internalField   nonuniform List<scalar> 
600
(
175.599585974166
179.48591116403
183.447375062815
169.893687324402
169.12972949878
155.957550193496
165.446129551735
168.023643881364
167.592835962599
163.775811186114
180.17015820763
171.169521827803
183.510429843061
149.002763155531
159.466173898753
149.738025665245
176.558674881685
160.548391249877
159.355578275967
199.178880904232
164.07331549922
185.013870867507
167.624861449213
170.485742757835
164.278720921561
153.237547829255
153.862656466664
175.210132183093
164.661685850741
154.95579571707
182.345050842128
180.33074357322
156.952240498747
130.67920278822
181.298789144393
184.535344198598
179.790757428501
176.620883178001
182.366055128592
157.493830753733
187.595414777841
167.615055943362
166.847003249212
174.506746616832
175.760456362379
167.882625094663
185.087263489097
162.056937084437
155.584498330061
169.400647665064
187.849498974924
177.65133938147
164.201737553487
187.688112935492
167.071268476933
170.708048350913
183.415125798751
179.636734808965
167.62259253252
166.624533355622
162.517012188679
177.78978698295
161.000192419527
171.720118889677
149.699238178729
172.792922657385
172.603525889366
178.553407083089
177.654563238039
157.915852223008
194.527361975291
187.962402765695
161.808937302659
160.797068974445
185.511697189683
153.050862218432
150.936362744788
179.242620289134
159.184556108882
134.424424211466
164.971493229421
176.053199540891
187.791174506172
152.361994258959
181.345661999803
181.819446362454
169.463705727091
170.782335638179
177.785991774993
172.524461843229
181.083258273816
159.52074116867
170.054114756242
147.511954705329
190.981566130343
186.005275351656
170.415987882004
170.569604887605
164.893575737385
163.590221645353
183.639788734852
185.434685589725
188.162091981842
160.825618299939
168.763971326965
143.403827591045
168.074565051257
179.33022147875
176.522805104076
165.974075049104
138.91884956918
178.782984082575
154.724062805856
194.251270751893
173.301172332966
170.945151726341
151.397264851023
171.426482464665
141.186058346092
176.325892378014
173.697892829869
188.68834855001
177.001746740084
155.809597268106
153.007612460925
194.123070006127
215.98388786538
175.707820605466
165.489578901877
160.728828338957
171.460668184245
161.065448849428
184.287242852251
145.640351355416
150.84384648324
173.944159537888
149.480432471076
151.704299406535
145.426808588592
144.345221902386
160.577915178485
164.472436984963
174.097606344035
172.215863341477
145.89156153173
198.851050055756
151.351719518116
183.611635251594
160.24618474018
178.191327633775
165.308939086285
184.195779513402
181.762514324821
168.104331306817
178.212166446746
164.279964521923
162.328647486698
166.258265289959
156.186858434069
178.278950280313
174.396787582451
142.476970680001
167.075903700094
154.476528602272
155.052401979918
157.920497207726
184.696725439394
145.512309004752
167.321164431422
173.19913040576
175.742151680912
157.708905624395
152.512690104786
156.925615252603
181.487817967538
156.672879337287
186.043958336132
162.363600984443
156.025505418552
190.844189345485
157.160258940899
189.992153964403
176.120416269647
180.430041396021
159.407561220988
158.068268621529
168.662596659871
152.339886728989
184.550414267549
203.810153376802
143.554342841626
164.528969524913
149.219573661543
158.345944822339
166.610788504133
166.720607376253
190.76986815293
166.424630338664
158.588177549886
140.618520449665
163.025926936981
173.390623513479
168.317350851762
176.025526030314
197.731065501535
166.496187557464
164.244246686256
166.400662991677
160.80624305325
169.32212104482
193.170437900665
163.727671575455
158.479706885288
166.816370421711
185.347830016419
179.516629380123
155.169701417898
176.980701347446
151.212137826739
186.496121095726
185.619188236296
154.737518076751
131.656505980397
170.501330712763
154.208862842467
148.752658739526
171.45300714478
168.776423563956
154.815378267967
196.8183998803
192.030904735378
171.534106894726
170.244778247329
153.395063434107
189.16240295672
171.395182922374
172.140359482849
176.872591286391
172.791816724687
197.367206766805
175.820725981466
166.649902412721
174.626421631112
166.2496742715
154.477826394656
185.760540820549
175.530677035411
172.265903964937
152.349947366265
160.786950714087
168.579457583242
171.139929813593
176.386565250568
173.114132673905
163.55958188971
161.953134725421
175.775281514725
185.114813937085
153.65078413697
154.429591929073
160.991805588415
166.778894167465
174.325206985961
172.442401153308
187.393386801479
144.00715266379
158.622372240172
180.749869603054
182.963751913737
149.687703480702
188.779579284757
144.30645810808
176.794254675416
143.375222552282
170.261297426457
162.775861749415
146.988805676437
168.172363693959
123.672867344511
126.734531202162
142.80638860992
125.542125795469
135.120520096506
136.075984318005
131.358133553472
125.755535487105
111.049042898415
116.344723886002
114.149127488256
100.10986128226
105.026848454177
112.435329882468
76.3400769813633
88.5814785268931
103.321332361014
84.2040165090577
82.3372643588509
74.8864338613739
79.8767972654776
95.7151851963604
92.9563829783307
91.9852441434773
72.7775705425661
93.652687153071
77.7651507918159
84.5864337374883
69.3886694580423
80.4148880752227
93.9842259706506
80.8708627100616
82.9874984991822
73.5692597467725
74.616050674959
79.7039715250849
91.677627573419
93.6557103039653
75.4619596066792
82.8143105716803
70.8564257652059
96.3720535804179
100.397336228228
94.4460209109929
77.4181817805098
80.0147887456167
44.2611024385729
17.5444142988494
14.9102047891706
16.4676517150327
15.4588523769996
19.7897216261132
16.7189764003995
16.1453404803673
14.0412092130195
16.971406368585
10.7398887486579
13.5297446100525
18.4112300456392
16.7954096528753
19.8840540091427
16.5887865633009
17.2648324743097
15.8272835364772
16.09488863964
16.9889788115599
14.0613045604676
17.396237755668
16.7835763534057
18.8787936331805
20.8148148187077
16.0114429474679
13.9806500998913
15.8728707987624
17.8082752536665
12.5332058464519
17.2281955958865
15.1830228246541
15.3677241496734
16.3385560213789
17.2655959938888
13.5963391835801
17.7061773571004
20.1506468202002
16.4302418452151
20.7113125841881
14.7831260094909
16.5120531335867
16.0982440051857
14.3245509917643
17.4365032425023
17.729060611198
24.2667734894179
17.0615122094204
12.4163298465021
11.5423611188548
16.7624478604376
14.2886068586507
20.368081588727
10.9106697678284
14.7026005107466
19.3541310297843
15.7244768383635
19.6678063516356
19.4863886591061
11.6565342168456
14.6834290727343
17.4275466938879
15.5529530962936
15.9674234719328
17.047697937547
11.8931193908582
20.9051765039461
13.3127610908743
17.3664141439942
17.416316685434
17.0414841358373
16.300325561223
14.5091819337474
10.4910816404884
18.5165389227977
18.1570251381298
14.7843432374353
19.4349574452207
17.3521249571939
16.1140016275753
18.1920664318386
17.2839022369944
14.1604093856709
16.5533072637418
15.750177067113
16.0675524913241
13.429791538431
8.19925422181334
16.2749563155293
15.7540292470622
15.0177492914403
16.2213738376423
18.6567475006696
14.5302833432459
13.7486415679426
18.3560820377992
21.2113798454923
20.0975459548816
13.8532827163671
17.8379106885487
12.4344626872238
11.4087247114619
17.0845558425316
13.4820587810097
15.3045173341657
13.4651878788913
22.8226340940149
14.580806697447
16.4224283522125
17.1550623409675
18.8643282737351
15.7364661023274
19.0420213446901
12.9892284912155
15.763128599431
14.3235558026286
15.1236398776009
15.6309339273115
18.1227124796162
16.9605317338342
14.3286446037795
16.0905932913519
12.3851316003902
17.264053037532
16.0875387917353
20.0509862436775
17.5811945997827
14.2586010184412
19.2103728621133
21.2098267758715
17.4458463926558
17.3673300476866
11.3425376527249
20.3409763112676
18.2106256707818
12.7665997942726
17.0754519045044
18.835955365707
14.8413554729575
14.0117747172332
17.3787118012702
15.2022453528136
10.3830940127013
14.0198268384809
15.4458450951313
16.6416519916447
16.0145358502662
15.4031537114804
16.8165045798041
15.3003325754886
16.4375307886451
18.6739707798955
15.5315601755766
11.9085413654451
21.3760384715223
20.6269951140401
16.7803493612481
14.375644352259
14.9119906153409
16.8470349059278
18.2522286609358
19.0322105555308
15.2458285989475
18.3473253629417
14.6507930089888
15.600673760009
20.4969304494584
19.1897399569062
17.9317853607702
16.0481539794475
13.574672870592
15.9567748190213
12.4396266669778
17.863534634105
14.3311910727934
18.8058970028086
19.2213840220198
17.1919788310539
18.4667351005748
16.7270119278654
23.2568335244969
17.8665025452075
14.8611726334698
15.558164948601
15.3396302210321
14.7844456143107
14.8379753927459
13.1031144811024
16.6305995830489
13.9427095505126
19.8454482005484
15.1737861721914
11.4353704645726
19.4168477160821
16.0794098417696
18.3853511539825
15.7652349576802
20.0881154777022
18.1443806864139
14.6845753945091
16.1718151412151
16.3889941255034
19.2946409886599
13.1310990297493
18.2637546298358
16.0643553391681
19.3593770406878
15.4712295371501
15.9513363340699
18.689501165017
18.0237820040089
11.9577557187291
18.9201748408608
18.2052459275206
18.1172967591231
15.9821790913637
13.9546878436122
17.9150841353619
18.6479474886929
12.5854346614796
14.7551370120319
19.0983935000245
19.8701156049098
14.8655041366411
13.4452690714364
21.8777717690365
16.6700354972048
16.3202092765401
14.6854517199655
17.9873499018387
17.2486448954045
18.2915215118396
23.1927221119616
20.3486591210557
14.6532931455151
18.9540508337343
20.1101399393153
16.4774451315199
18.4956083221055
14.3533550202945
18.2080409987684
18.1295822381016
12.8624255283202
17.2571975460793
10.725193351576
17.069512432925
16.8527503896309
17.266057063925
16.2298331078238
17.5864416717808
15.4607533907398
20.2541673057088
15.8875454083366
16.497531541773
18.0304992175404
19.1460191833166
10.0880618889133
19.8288696487812
18.1930793324279
18.9868089047211
13.1418641884899
15.3554763747034
14.1951331017755
18.8770277852629
14.6876080923989
17.4978028014669
15.6920687400512
17.9286090302472
18.4109087461782
13.4300422624178
16.6202920896528
20.3594796487336
17.1829059373181
12.3442120254238
17.3460226492257
17.1172936342237
)
;

boundaryField
{
    DSMCSide
    {
        type            symmetry;
    }
    DSMCBound
    {
        type            symmetry;
    }
    nullDims
    {
        type            empty;
    }
}


// ************************************************************************* //
