/*--------------------------------*- C++ -*----------------------------------*\
  =========                 |
  \\      /  F ield         | OpenFOAM: The Open Source CFD Toolbox
   \\    /   O peration     | Website:  https://openfoam.org
    \\  /    A nd           | Version:  7
     \\/     M anipulation  |
\*---------------------------------------------------------------------------*/
FoamFile
{
    version     2.0;
    format      ascii;
    class       volScalarField;
    location    "0.00036/particle";
    object      linearKE;
}
// * * * * * * * * * * * * * * * * * * * * * * * * * * * * * * * * * * * * * //

dimensions      [1 -1 -2 0 0 0 0];

internalField   nonuniform List<scalar> 
600
(
145.05612912606
189.853463591472
154.90638224203
185.045343610283
163.42571182517
158.387355450606
152.282530452293
187.26437194215
179.206592071968
166.337457659218
149.911824295045
174.49057943143
186.383187152773
182.078244982724
163.841628048434
183.400166012941
173.258262623596
184.171548308418
167.171281290973
184.669881601347
166.237286149091
161.155729120908
150.642010633126
186.235572424455
184.482420401654
210.091072095376
162.458818688619
158.347266656642
162.771171250089
143.697068723349
158.255876321691
169.244291622974
186.850953381441
173.203956313976
185.731862217446
172.136612077552
165.196268263206
154.664518031173
202.223476015167
145.018544937154
181.631462968096
178.343270188727
183.853220861798
170.300118879739
163.958754025823
172.468584465888
173.536971380262
160.756387117161
171.502396981468
181.299153901135
181.630851023827
186.539051578952
190.642362226639
182.741837194128
180.603750851113
139.095959616921
194.153318783424
194.56892579353
158.125147561445
137.783382834983
182.452220480629
164.719539801758
190.59814839981
159.672253313681
162.179552156894
187.957147310216
191.974817566142
158.332513045589
187.664248820342
187.58347558817
188.869855766263
174.93425845943
158.810341816276
150.848204499733
172.6696642021
168.007525160089
150.31728211453
171.568058183565
192.129522168028
195.585857015067
169.440071508489
188.008012585444
158.16527170161
152.120232838359
173.000630172929
143.403902180642
160.535914664968
180.059792898335
189.756761004288
173.128505422874
171.277492322505
165.216076765655
169.250976891722
161.065260452833
163.81805167195
173.640353759493
185.178690065135
176.256344791398
171.87523709777
185.703751244958
147.98742585443
183.181309845427
171.823823853448
176.049564242764
169.375443878618
156.462801007191
178.137250873361
186.268848000802
159.75349583757
158.649829539318
153.487305234297
176.919683135004
173.775811145436
168.441426179953
185.262756375439
160.97405414723
141.377686330224
155.597884906732
171.211257051825
163.924353461588
174.952353869602
177.83919495208
169.375044728167
180.131925392119
158.240967596606
149.459833711837
178.509806540317
153.219117770486
157.686568289927
171.224737709932
183.224045794597
143.371332725756
175.336379561274
176.907838141989
171.062086558348
173.767596391085
162.269547741816
157.101360216428
179.461310767362
188.99698327932
147.184478927904
179.304358014324
145.879386446577
188.089182864068
156.177182257846
156.241634289922
153.378104552007
171.107169733035
139.390264442673
150.947639175478
174.308892499503
167.628176920026
162.49607919485
178.64665792733
168.995567234595
162.605714672572
164.196817634778
181.026805626225
149.430427855315
171.489451939943
160.480498999234
181.258725119787
187.217689441107
153.868080739788
160.676477008286
184.634804586847
153.027725286981
139.459918520682
161.00328212868
156.287635876114
186.756277248493
177.60732106223
167.96579593381
158.712708894846
175.515500622732
183.402495344043
160.145464915855
184.102983102884
171.512592652305
163.558990687583
170.00343491167
164.423437324292
150.656919505125
165.196388442055
176.709228309194
161.345938113238
176.20468769636
169.274245441538
202.886265748777
153.635349776751
173.563222215397
188.431773075217
160.119199649919
155.997039366839
149.680512037548
182.857096061602
168.11495887112
151.958956671645
158.692267338831
184.783592078741
161.516448795252
151.847623430859
172.707829068088
179.857542199165
153.717422654637
147.01849561942
182.766802769026
173.837569914332
151.867979569996
177.123871769023
179.20898168275
168.317857146886
173.309934584785
159.237902724037
176.514189599481
168.481605957155
181.978364610045
170.954221256025
192.877466409598
147.069697901552
178.591034998779
159.603757310851
161.739903048741
165.678043999969
165.088096976787
145.311772718188
161.944735676696
157.519135168366
164.205523079984
156.304723603234
192.124565492988
191.18029960297
158.155314482767
148.33271302914
177.234892038007
195.154489039346
161.419710550952
178.982686142486
165.938634972606
153.420082151822
193.950665752638
165.423841400821
160.536516795736
158.715629200024
174.699578368973
188.685797638813
192.629171814945
147.091827197744
163.136908614755
160.76564646443
168.763740219606
171.553413132942
153.946828485888
163.803790713135
167.91426684097
186.961391722424
176.333347013262
153.553884950131
153.554432266733
180.52401767241
170.958598675679
138.462176831123
156.025748900455
165.744646361782
167.374655225026
168.967711017113
171.250851024141
175.414938073822
175.091931279436
149.042297801401
185.44579527138
184.174350067624
145.381718536398
147.097439114025
164.016105843302
144.16927235304
167.434486459446
136.028118226563
143.444298709308
151.630460649888
147.941197684055
132.267674387913
155.597280252152
148.333904477117
127.367755263601
114.667427441696
115.056874495854
137.356850536441
95.7651282094285
83.2169254337648
117.666164756555
103.52271393213
81.768540125188
70.6058007209864
91.5530494750242
89.1791897373282
88.6004615619782
87.5067909464806
91.6795554023479
68.5452012853494
78.9740665222515
96.9586819241927
81.8159352827661
82.3710967434633
80.6997865116527
96.6467634035902
76.8287276131304
68.9154416601533
76.8872852246172
89.5761010978581
96.2959725375736
88.9112167354184
86.703469785139
80.8291816781487
75.2122855521692
72.4566996744889
83.0754124398923
90.6724942428521
85.6469397334541
70.8433312597949
92.4209105629774
79.4428630356478
83.6463760086669
73.842183879106
34.8806984976281
19.0294620345316
13.8288784939108
12.8061204364495
10.4394783862756
16.3997937802742
20.4094931519505
17.1335324793818
14.0353105229771
14.644004290838
15.1675572175077
14.2750650617816
19.4838689661014
25.2688788385027
13.5045531858171
19.6287525439922
18.8560137738943
19.4986567468322
17.0083097831859
16.3477856510489
19.3322667694423
20.8444389882212
13.9193398731971
14.7167243404094
15.4122083394644
17.1588673582824
13.9726697041728
13.5099808845533
14.9887730590337
17.2249214617127
18.6744592637234
15.9858701007296
15.5511339248897
17.542633081353
17.7693992538849
17.5300044807779
22.8526901250575
14.3327458421437
16.4247990654954
15.4749892811167
16.6704643159083
13.8202057279067
17.0373906785677
18.7812340787463
16.2857002124244
17.6372860281019
12.4312781600214
13.4634364011711
20.2552437878166
15.0189844191791
17.912208930491
15.1054392378873
20.2870618341492
16.4085521571262
12.7144166831063
12.8984479911259
16.2595609786037
14.7965316983149
18.764118116026
11.2387367733622
15.0560168594064
14.3933845253775
18.2044908201117
15.3750534183794
18.0091330742785
17.1836706098953
16.778805501842
16.5635681081058
11.4310666864761
13.3913595122992
16.5060597938298
17.0573196770998
18.7852967761983
11.4510024505297
17.8442909016654
21.287986163736
11.0937448183614
20.5606313829205
15.6847955293347
15.7440649853324
21.0090611962981
20.143347663255
12.7719597607735
11.6432258911486
15.0790549567131
16.2022666714619
12.0588322943931
20.3501924383364
17.7502740159131
12.9132301981787
14.6027810282062
15.4745236762191
10.1983413707539
16.2189675882615
16.9779058045834
18.070338324219
16.1374509831726
18.8033139887392
12.371522036787
13.9383044946106
11.2413049998429
18.9360434972847
17.8621332099402
12.9082427813325
20.4485191053356
15.9139812335264
15.2192600043889
20.6223147385879
19.8949447005535
16.4042160262589
11.8139462720833
16.3974141296936
16.060905831452
15.498774260877
16.5676917446577
15.3911312997637
16.8011577090691
12.339225937971
15.3805139765249
19.777457253279
17.4179238273372
12.5829648408935
13.1847976465847
17.163985347903
14.4001170424175
16.4482897252182
17.0350936972074
17.1126927710567
17.8007432004614
17.393989186335
21.2649092063374
15.3240458174158
20.9959151488059
14.5919180641635
13.3227873183924
15.4543708100903
16.8263948548259
20.320171228149
14.5977266835895
18.7949137335882
18.8639440386468
14.3953128989589
14.9628362036357
14.6235769983981
14.0577230039553
14.9404057580033
19.9612219822342
16.3335024644322
15.7272477439003
15.3952892774454
14.2742826593183
15.9916328468937
15.5899377228599
18.6225178270642
16.4660908474962
16.9938301256863
16.6477107520296
16.647872308097
12.6090443403733
19.2535970052928
13.2500035956332
21.1742612607926
17.8537139141607
15.0930460765204
16.3655905294207
18.0986356972435
13.7883869497338
19.5018360243045
21.8124236467264
11.7139411503796
13.0347725915898
13.2371630724143
17.083554836129
19.6101169910189
17.9401371621236
16.1283036528376
14.8144120251805
14.511584615787
20.8464251381886
21.5229822149474
15.4482092006635
16.9689429447987
12.5126002853651
15.0348820792929
19.1998629901619
17.0793764068046
13.0351642231629
15.5550093975309
14.8200581894277
18.5189996060551
14.0639507957776
14.277041357221
15.5107718194757
20.5502079796694
17.8527838387107
9.99264319796275
21.8464359625111
16.3575274140025
14.89626533378
17.9158346026567
13.7358470375833
17.5433562559353
13.8800358927832
17.8064016880429
16.5911898073195
13.9934356231833
13.9412404959442
18.1783004085373
20.6720999002171
18.2600153449095
14.138802637818
15.5718245986946
15.665071281242
13.0706470160674
16.9077889047863
17.1659303090156
16.261648786296
16.7695814011897
17.6021544178938
14.0673700893208
15.1221101182672
14.4188799334496
12.3985759823759
15.0179223363956
20.9109627201194
16.2908276389755
12.7522694535461
20.0187734419074
19.0147150195884
16.8726972543764
20.8539014657422
17.0328258519629
15.9034962013279
20.4659033486587
18.4215726572104
14.1521014388586
16.1488356907602
19.8243965978681
11.8526682875311
16.6374770135007
23.2688887576401
17.4818259517953
15.1223382524464
11.375199232856
18.6323962607835
13.9601379442939
23.6309422064845
15.0226557502938
16.4512091214198
17.6925764470248
17.7114936584969
13.3656306857721
19.1233147959785
17.930201403828
16.842522839096
16.0748623099244
15.7014397781248
17.8432209087882
16.37337484682
14.9108520141251
13.1526285573424
16.6793122017012
17.8261100865941
13.8152462914418
18.8637458708743
15.8523167987537
24.2516609344202
17.5553502502089
13.9218174815312
14.305851681225
15.1202558915912
22.2075349660575
15.4322592741177
16.4490325290561
21.5425192551616
15.2937146507863
)
;

boundaryField
{
    DSMCSide
    {
        type            symmetry;
    }
    DSMCBound
    {
        type            zeroGradient;
    }
    nullDims
    {
        type            empty;
    }
}


// ************************************************************************* //
