/*--------------------------------*- C++ -*----------------------------------*\
  =========                 |
  \\      /  F ield         | OpenFOAM: The Open Source CFD Toolbox
   \\    /   O peration     | Website:  https://openfoam.org
    \\  /    A nd           | Version:  7
     \\/     M anipulation  |
\*---------------------------------------------------------------------------*/
FoamFile
{
    version     2.0;
    format      ascii;
    class       volVectorField;
    location    "0.00036/particle";
    object      momentum;
}
// * * * * * * * * * * * * * * * * * * * * * * * * * * * * * * * * * * * * * //

dimensions      [1 -2 -1 0 0 0 0];

internalField   nonuniform List<vector> 
600
(
(-0.00517393027535641 -0.00106051321753046 -6.53623130287158e-05)
(0.000767906199832386 -0.0192703371963418 -0.01199817744999)
(0.0138794256473352 -0.0159735424438582 -0.0149023765734333)
(-0.0102928501970878 0.00100474331915537 -0.00966481085946006)
(-0.00927904856998229 0.00291795260835164 -0.020204888380796)
(-0.000123374139240579 0.0264985190603675 0.0077034992848401)
(0.0165222282046885 -0.00833855999814704 0.0102917742174841)
(0.0210941338311021 -0.0163271782916131 0.0115171069813246)
(0.0116874865070588 0.0197504646392659 -0.0104887319302272)
(0.0132477940392135 0.00024338964210615 0.00882326996838739)
(-0.00464994412284563 -0.0100639610252829 0.00972613214151404)
(0.0163108540307262 -0.00540952167153376 -0.0309724922060714)
(-0.00492015931321814 -0.00437056988813442 0.0172842236892498)
(0.00830669450604822 0.000752299051178394 0.0170499607809542)
(0.00687346502462085 0.0175820497541458 0.0089848763979885)
(0.0115127082324363 -0.000812816587222962 0.00381363651848129)
(-0.0192287481491948 -0.00756434255424007 0.0259345523050458)
(0.0103222639743789 -0.0123412831729033 -0.043984153261546)
(-0.00570475161645631 -0.00551232687049102 -0.00906001525587946)
(-0.00484297753622473 0.0137573678165859 -0.010880450980536)
(0.00421113461695335 -0.0284849857910405 0.00725297245711161)
(0.0185227016604976 -0.0115434464743888 0.00297006159591706)
(-0.00980641590190757 0.00986623413384949 0.0152652918823638)
(-0.00496881918036303 0.00146150184147145 -0.00376598296947144)
(-0.00166761069921457 0.00266030287523744 -0.017811743575941)
(-0.0263590191067768 0.0196037918203042 0.0176722576144429)
(0.0384433828711213 -0.00528408135675943 -0.00261781274068579)
(0.00720904263473056 0.0114048974185576 -0.0147864428220916)
(0.00273695986548749 -0.00799161885865212 0.0157760340168201)
(-0.0053520363100795 -0.0188189382551361 0.00942819934598316)
(-0.0172658813088805 -7.74866471753971e-05 0.00322268014905539)
(0.0156864409383183 0.00494227128940663 -0.0118923373448745)
(-0.0100949090580824 -0.00857536178309866 -0.00142391560529159)
(-0.00355952372373226 -0.011399568146063 0.00716695877698358)
(-0.0206811133264397 -0.000157998625861001 0.00056534820627869)
(0.0101158173094612 0.00488162280340982 -0.0112934268666362)
(0.00102251479538548 -0.0151045047817468 0.0207032924518207)
(-0.00453731460295333 -0.00579433171450327 -0.00484464708004098)
(-0.0152094092663121 0.00657622462731084 0.013966274514746)
(0.000872556901467366 -0.00748845594917022 -0.0145901188215758)
(-0.0088360070607444 0.00457403544699853 0.00438852746833387)
(0.018595110727611 0.00846755732537923 0.00622041907787772)
(-0.016893959380068 -0.0189807298883933 0.00724450244531352)
(-0.00188203068979514 0.0160703646593304 -0.00994412460798796)
(0.0072319634137623 -0.00877733943959802 -0.00346367463421495)
(0.0257157341214223 0.0158489520692336 0.00804296502662747)
(-0.0135907286757546 0.00555215782313306 0.0106874422163737)
(0.0206942160820733 -0.0130644349675553 0.0018517966148855)
(0.000779764811130586 0.00399603609062435 -0.00154538024881772)
(0.00211831915201662 -0.0219097172360531 -0.000869700375805526)
(0.000916116735811931 0.00722211142454042 -0.00888575698271606)
(0.0117097598063962 -0.00892380066112676 0.00314296681203033)
(0.0124304206918379 0.0216801154132784 0.029569496740344)
(-0.00160981432263034 0.0246035304886433 -0.00916462841834188)
(-0.0195006710907186 -0.00216970539800462 -0.0170084688203212)
(-0.00600857279341041 0.0166650655602896 -0.0195012268163294)
(0.022105202378097 -0.00114999049850117 -0.000297219687698384)
(-0.0256250300410389 0.000676974399468717 0.0100601262437452)
(0.00883156525577219 0.0218668976297358 -0.000976880822981674)
(-0.00476858666457595 0.00543487752957778 -0.00652355246638172)
(-0.00432965845938021 -0.0251921797044139 -0.0124522623962595)
(0.0111814755618715 0.0168684554684319 -0.035864391079358)
(0.0282953075752435 0.00091510237318495 -0.0054086558767765)
(-0.00289558547361329 -0.0155206372029386 0.0154212964999329)
(0.00674457334115973 -0.0193088320709836 -0.0207699376224188)
(0.00493397150814251 -0.0275937800850258 -0.0233969763846405)
(0.00034496919857804 0.00428178032681834 -0.00654160853240758)
(-0.00685461933483287 -0.00834382442274482 -0.000726112346184005)
(-0.0213087436388833 0.0146665304698456 0.010866957561541)
(0.00333293555033061 0.00624622030326951 0.0139487106321273)
(0.00968198969145675 -0.00524835788453242 0.0102318150049939)
(0.0162299134899182 -0.00785345859860252 0.00125292360313023)
(0.00337054881396636 -0.0092667687619543 0.00289714181324849)
(0.00177930748968248 -0.0047615989878807 0.0109826782536987)
(0.0206718374665087 -0.0164707312005571 0.0192569311737705)
(0.00972066069824685 -0.000292146202917472 -0.0391557723158398)
(0.0131022138250807 0.00338804680414487 -0.00672742585793032)
(-0.0283609573787471 -0.0178802473781195 0.0168405002482932)
(-0.0289710870726919 -0.00354117602121598 0.0251111254013357)
(0.00850205338179189 -0.00649790207509884 -0.00583370376735885)
(-0.00499485525791795 0.00441415711389945 -0.0175253279221068)
(0.0179191247480987 0.0434885874807629 -0.0239562234759156)
(-0.00196386762267908 -0.000337849276828282 -0.0341988912331564)
(0.00265060440671856 0.00223964248325494 0.0155969998101013)
(-0.00655324292412183 0.0261598040499929 -0.00264208406215358)
(-0.00075222893193331 -0.00252019744496914 0.0108458914580541)
(-0.0106659765831239 -0.0165881369294045 0.00796933795390394)
(-0.0132129670003723 -0.0017713864346524 -0.00795356786003054)
(0.00258818291634606 -0.00717452246696021 0.00543482370534688)
(0.00747284170576042 -0.0118416838839523 -0.0229757815513926)
(-0.00109813764193307 0.0200102795049044 -0.0132908331410314)
(-0.00504955196402885 0.0102713978084367 0.0101227329919862)
(0.0130248360667031 0.0251202409402075 0.0119707636216126)
(-0.0200635527416694 0.00146306633959434 0.0244507347691873)
(0.00342584612842838 0.00190991055167493 -0.011133117809771)
(0.0103549481026757 0.0017889120871634 -0.0133234066684666)
(-0.00805684920201728 0.0219645176330112 0.00378663283407754)
(-0.0414509192678783 0.00771826968326765 -0.00963563059605008)
(0.0219558536108254 0.0159188102790248 0.0174445279829853)
(-0.00879213595301393 0.00433840044741079 0.00204027594427608)
(0.000733849108346263 -0.000348528150004277 -0.0174508149741451)
(-0.0254758265481514 0.0118686982112531 0.00651023487118332)
(-0.0113645279039162 0.0213529413634559 0.0133529029111076)
(0.0237534734463766 0.00505063202131276 0.00774892051283196)
(0.0170059337771723 -0.0157149956886559 0.00394864342128693)
(-0.00286170759749224 0.0120178822492581 0.0145684820339588)
(-0.0132843177360645 0.0122349719420587 0.0161776927764566)
(0.00510900904377747 -0.0182825399598437 -0.0202608898999218)
(-0.0214172477296027 -0.027545530535844 0.00171761872850306)
(0.00228599203708165 -0.0105783567467826 -0.000907894280093672)
(-0.0115951848189443 -0.00785886165821433 0.011505047573249)
(-0.021163305062383 0.0285431160359508 -0.0275743236390466)
(-0.0221804454365242 0.0202060773178192 -0.000199624850221116)
(0.0106843412991498 -0.024926346692729 -0.00367759107802924)
(0.0081910256296193 0.00940659123328557 -0.0100873367501275)
(0.0178793277899722 -0.00742933442789675 -0.000830347518562946)
(-0.0157724596981084 -0.00861091017541815 -0.014087832664339)
(0.0294055894982367 0.0213383786806395 -0.0141822141841902)
(-0.0181082878841026 0.00884228509324162 0.00721142115109573)
(-0.0155849007329402 0.0150547881264821 0.000786771006086781)
(0.00985591525847307 0.0155092229892047 0.00814226292301296)
(0.0156735065004272 -0.0151533017767401 0.0078425315890514)
(0.0150169116460459 0.00514807124144404 -0.0141986401924891)
(-0.019473106430723 -0.0106082398935531 -0.00760597642617746)
(-0.00368717896465464 -0.013484000936771 -0.00281211720883736)
(0.00801546638580343 -0.0120447732188997 -0.00598265398824956)
(0.0259595879673602 -0.00717129579735876 -0.0294552461226049)
(0.0159359744838933 0.0103790243887866 0.0161244340561267)
(0.0228202202447355 0.0112242786780073 -0.0095104851207772)
(-0.00646475521818176 -0.0192697490200513 0.00143111931276516)
(0.000871224705955692 -0.0133838540174895 -0.00914685645416093)
(-0.00484718386044646 0.00147697607787744 0.0126974650843565)
(-0.0134348404622503 0.00431930886462751 0.0101164938539835)
(0.023627928084213 -0.0141415902002027 0.00178414522106708)
(-0.005447948895091 -0.0181446107938547 0.0163746267422301)
(0.0127214921173315 0.0141026883739002 -0.00601522399208793)
(-0.0304164496459245 -0.00637178903684503 -0.0320869204696041)
(0.0166911708085127 -0.000654121287439572 0.0195197950534222)
(-0.00625542453466668 -0.0058309420226385 0.00449670046533731)
(-0.0199589959946296 0.00718214450469331 -0.00927837209630386)
(0.000253854088188733 0.0116883908516298 -0.0178539544903785)
(0.0136719040838873 0.0245143209467585 -0.0137040590538938)
(0.00364485422832676 -0.016067065932037 -0.00336147194911396)
(-0.00876692872753965 0.00169546727019326 0.00120721664559852)
(-0.0141877768177911 0.0182998746581573 0.0341528035078393)
(0.00863232499849334 -0.0171592676029133 -0.00629777654547554)
(0.0263214480366314 -0.0282818755124041 -0.00977711557121069)
(-0.000886440535025326 -0.00266393853832301 0.0229309159816019)
(-0.012556231647248 0.00160043980341293 0.0123920554389251)
(0.00753192998212488 -0.00665914962483456 -0.000999638359076594)
(-0.0167255324769624 0.0186832603032246 -0.00806986164124164)
(-0.0275982429319054 -0.0144987843616154 -0.00837912498946525)
(-0.0279408714339686 0.0125735952097771 0.0188405335411208)
(0.00585446400029973 -0.00787907045459534 -0.0229974934380855)
(0.0041472958194691 -0.00835305251060382 0.0107095301985297)
(0.00988409768729464 -0.00639931420999567 0.0199052674617717)
(-0.00553079288486189 0.0131445530249965 0.0151611359136904)
(0.0178703447406376 0.00886311539166565 0.019707361697641)
(-0.0164075730700626 -0.00154147562501219 0.00421907227840935)
(-0.00872658690994115 0.0148374020981775 -0.0141311504493511)
(0.00735617259687693 -0.0111225517737621 0.00520178608277743)
(0.00620786899608465 -0.0112159573630121 0.0128366790332705)
(0.0100366829954662 0.00553232822470784 -0.011050697824534)
(0.00359001984565357 0.0118286677684589 0.0165468155308047)
(-0.00618007070868519 -0.00495662862869838 -0.00692379981217825)
(0.00854601357138323 -0.03969254415149 0.0313409118937888)
(-0.00112939236313596 0.007776789878918 -0.000159829934785901)
(0.00624916935364478 0.00711553503446765 -0.0166025096755128)
(0.0277488462046567 -0.0238877577061308 0.00691448223156683)
(-0.00614508350268965 0.0192533575351947 0.00836122954148145)
(0.0284930017982062 -0.0071277338568033 0.00218564583571501)
(0.00668050148222437 -0.0172792882564963 0.0057683967279084)
(-3.88394906090074e-05 0.0293352655469995 -0.00204384896907287)
(0.017619941028144 0.0211341374172668 -0.00672867392407838)
(0.00428621136458671 0.0123533988499101 -0.0166099512964646)
(-0.0177141385453478 -0.020214776223447 -0.0215850635019486)
(0.00622120115653829 -0.00553415974238734 0.0118184815377694)
(0.00716889002916841 0.00594668193830122 0.0124301583024392)
(0.00731949018478787 -0.000393600393834784 0.0142829898015519)
(-0.00757764645983742 0.0050082616688375 -0.0245927736242623)
(-0.00650188053960678 0.0136603972698057 -0.0020938882117097)
(-0.00896615061397166 -0.00445517267211985 -0.00548824021891412)
(0.00161917502369734 -0.00183527425663897 -0.00172985835045904)
(0.0082484561299519 0.015989658239345 0.0125035391165974)
(-0.0209217697024118 -0.0117361898769368 -0.0143529227774245)
(0.0170052548798418 -0.00256150198032092 -0.00898355176423876)
(-0.00117728160388741 -0.00293826719599866 0.0120083746000487)
(0.00402854174355084 0.0318395238796002 0.00634075711685874)
(-0.00618410778049367 0.00925782939452124 0.00108550633571432)
(-0.00967527063450923 -0.0186826286660953 -0.0270347817706584)
(0.00105944411328328 -0.0163757952696676 0.00268018120459614)
(0.0213702248739676 -0.0107631459632116 -0.0169544235905372)
(0.0132520267826034 0.0102929454283513 0.000821516809914635)
(0.0168818925592704 -0.0154915606121318 0.0115084293489592)
(-0.00693868008761789 -0.00214942904211267 -0.000831328320946095)
(-0.0251095324804364 -0.00628521319927845 -0.0217047949866112)
(-0.0208367546054394 0.00123770440122732 0.0241234572560728)
(0.016185876424867 -0.0128227521297943 -0.00901771665384309)
(0.0117973406547768 0.00230369672072806 -0.00513286618797349)
(-0.00357633972049457 0.00623528234568571 -0.00169330981632388)
(-0.00891884585838423 -0.000591551941826061 0.00172362641564231)
(0.00032997784080805 0.00959578783788344 0.0166266259350325)
(0.0132988719081578 -0.00242970377961776 -0.00314805299835982)
(0.00183032938461576 -0.0111613677060338 -0.00432669856993081)
(0.0149110899280778 0.00510774852405931 0.0142751190942848)
(-0.0135400510420659 -0.0244701059885465 0.0119395167343584)
(0.0159021516866113 0.00780843312726056 0.00784368774690095)
(-0.00265760666106282 -0.00119016182609895 -0.00710592892965316)
(0.00310164645986098 0.0145965757804614 -0.00521543525182024)
(-0.00917129410075065 0.0171714156283144 0.00108766842426729)
(-0.0101411667163112 -0.00469766126299531 0.00440491616948267)
(-0.020839541805135 -0.0167590096360942 -0.00994165137761162)
(0.00455361951050704 0.0113333314025681 -0.0311284210468755)
(0.00872311606915534 0.00749040976119127 0.00584903881159915)
(0.000653090418800745 -0.000761526667023354 0.0165447294328339)
(0.0100924150035961 -0.00707516163299657 0.0352864799629564)
(-0.00517267337421054 -0.00653777280378259 -0.024489363049634)
(0.00823010253806641 -0.00144993999555192 -0.02950261036718)
(0.0134194794887935 -0.00396090841208458 -0.0143023981490246)
(-0.028626335454102 -0.014928283412869 0.0131300054018911)
(0.0159573496695662 -0.0218268664545889 -0.0267762597148777)
(0.00864458092621684 -0.0123342287156697 -0.00314824335777445)
(0.0277874037601879 -0.0109082837799874 0.00532689273438069)
(0.00977973832792574 -0.0108035282090135 3.40539295684284e-05)
(0.00430264482870073 -0.0143212243574058 0.0016159719865356)
(-0.00112798449307547 -0.0129007979537013 0.00138551212170511)
(-0.00989804118620025 -0.0220363057714972 -0.0357653371067907)
(0.0141655465182188 -0.000369164774170699 -0.00791454224823442)
(-0.0043841594877102 -0.0106093705922399 0.0121446697188348)
(-0.0204405235331296 -0.0027820335599416 -0.0204827968827397)
(-0.0103367284281642 -0.00355409149854468 0.00621590337768202)
(0.00634360333102853 -0.00112812945188274 -0.0104639008635746)
(0.0009996049941869 0.00988855035375051 0.0194905695591193)
(-0.0148183060076599 -0.0016282072658077 0.00101592736445129)
(0.00734232785266802 -0.00440439346258038 0.00274030047086494)
(0.00104564275620055 -0.00241837329511482 -0.00899098664876729)
(0.0115870543583268 -0.00115251425580603 -0.0125565101918078)
(-0.00786662010973134 0.000205086392597075 -0.0106021165725053)
(0.0284248584641468 0.0126382767909518 -0.0137835192233645)
(-0.0277118814934431 -0.000428729942653589 -0.00878147508171213)
(0.0167377205869951 -0.0299744515821861 -0.00235521042149814)
(-0.00551908656206872 0.0044491079456387 0.00915175111307482)
(0.00467676162506053 -0.00287705191997466 0.0172287642182992)
(0.0136970215313315 0.0149294956229058 0.00477134963555254)
(0.031583967231123 0.0175347897986388 -0.00321869384224293)
(0.0102628938691654 0.00366165878269764 -0.0131158104559908)
(0.0149707802917229 -0.011242635607101 0.0164814184601398)
(0.0144067846718087 -0.00688493233381642 0.00392920876495353)
(0.00655616636111704 0.0123233984993928 -0.0250682432326049)
(0.0212719721338615 -0.011491617493329 -0.021624396532719)
(0.023853728319749 0.000993416839152823 0.00646941926501549)
(-0.0229235069846854 0.0228996867312456 0.0148325837671684)
(0.00206093210684987 -0.00722605852930415 0.00381099351724201)
(0.00648505610298687 0.00458052973589759 -0.0216833063323299)
(-0.0176184117382156 0.0154335350214347 -0.0223730138557745)
(-0.0121879089356324 -0.00130449073486954 0.0310573328968499)
(-0.00245977112303769 0.000669679753863575 -0.0272989060877271)
(0.0023045992670767 0.0182901167772946 0.0147181896482191)
(0.0334262432925229 -0.0050424454005507 -0.0101562078526935)
(0.0287269761589553 0.0119640572657925 0.00890429576554074)
(0.0102390949572074 0.00418633038404078 0.00702091064540123)
(0.00227843877918191 0.0102616344152114 -0.0113007328876298)
(0.00321769195570399 -0.0187959199467769 0.0182957417624145)
(-0.0143796097244054 0.00704375542387693 -0.0031697392134125)
(0.0038978950088678 -0.0140780447904108 0.0101533517012556)
(0.00959797482807359 0.00732643719434197 -0.00223937859788579)
(0.0049563833847508 0.0145432852543431 0.000415415912696668)
(-0.0119658872418633 -0.0128951107641471 -0.0057474459506485)
(0.0147180135848402 0.00692095077854526 -0.0113565389242486)
(0.00623556462183492 0.00528711703949189 -0.0200961302444524)
(-0.0048550734517961 0.00894852297987712 0.00301393012996983)
(-0.00466697401916834 -0.0132763230118568 0.0134318200129357)
(0.00682219040763408 -0.000499055918615508 -0.0204445678516461)
(0.0204559760883584 0.00694831783975257 -0.00720131382919012)
(-0.0227937994283796 0.0115990386835147 -0.00814441371566784)
(0.0187944565607754 -0.000225964509043115 0.000917468319447229)
(-0.000708377800253212 0.0104722797548575 4.22219610658298e-05)
(-0.00603202224231149 -0.0216110742110602 -0.00208303635683354)
(0.0263078793378654 0.0158268126881044 -0.00930589473654499)
(0.0381657822588741 0.013423318757014 0.00415204596803689)
(0.036763165424379 0.0111351601397544 0.0247553702971075)
(0.0141255856336411 0.0117203384711458 0.00179600225050663)
(0.0396169082204308 -0.0120838858823827 0.00718418330043908)
(0.0346786641950174 -0.00195963373069736 -0.00166780392233627)
(0.0512785862916862 -0.00824249649675788 -0.00306574277401289)
(0.0372259870773074 0.0137846096684151 -0.00593443736330515)
(0.0835472100499136 0.00663779741120158 0.000943954051415586)
(0.0750711994181585 -0.00749528670497303 -0.00244130516722456)
(0.0602424457856638 -0.00379233256339922 -0.0147522457795366)
(0.0523578694815436 -0.00179215694464002 0.0103341641871212)
(0.0700433407136916 -0.0147489035048357 0.00383208874743203)
(0.081972202673864 -0.00350408278318026 -0.0136489229742947)
(0.0768065957595678 0.00524999336483066 0.000854679171424051)
(0.0729260814683328 -0.00116213742757526 -0.00748124442335595)
(0.065604211856138 0.00346367690930634 -0.00924246989497732)
(0.0888093841824197 -0.00175154803019079 -0.00923566108024648)
(0.0836874871650998 0.0108702430508776 0.0100798572780563)
(0.0871561478572405 -0.00395989822513003 -0.0129425143656143)
(0.0992223841468861 0.00182648655731193 -0.000408905865899943)
(0.0715258753318131 -0.0116303604722875 0.00253887561754325)
(0.0823648123210754 -0.00273037392858321 0.00698675547995502)
(0.112980394289286 -0.00177386731694236 -0.0150553776137124)
(0.0832846969424088 0.0143007974469727 0.00812576750472539)
(0.0875840323735284 -0.00956985312277414 0.000497966919436186)
(0.0796679211280909 -0.00633767981982642 0.00615222893980551)
(0.0937284994705599 0.00795009120219367 0.0100636713678724)
(0.0816635887139935 -0.00418992197524411 0.00616481768887321)
(0.0577494946111161 -0.00807273142984803 -0.00630770224667803)
(0.0720479546951181 0.00399960266802285 0.00178997577781692)
(0.09555890001109 -0.00531376473581492 0.00414327029438978)
(0.108266155484114 -0.013280777552746 0.019684899635802)
(0.0932832707282525 -0.000760770766773855 0.0178322387549591)
(0.103850565723837 -0.00703799714874042 -0.00680647646789578)
(0.0919854323533796 0.00836826843741048 -0.00273736459634482)
(0.0937586086142165 0.00130843556826467 0.0107267518644575)
(0.0857666889108391 -0.00750596624125451 0.0104931894171418)
(0.123133006104171 -0.00601848584354029 -0.0150873524710639)
(0.110052405106985 -0.00993242980204839 0.00511314298438716)
(0.124943466502472 0.0124219464921653 0.00886190656226091)
(0.0992788366883887 -0.00581349028188693 0.00684858270993211)
(0.1309992825874 0.0100350229889892 -0.0061366214321309)
(0.0996874074784201 -0.00487350390398213 0.00336704914691475)
(0.116863601249596 0.00124767268853325 -0.00857817902122225)
(0.09823217097057 0.00858420725140117 -0.00183506261674816)
(0.0382262078718083 0.00153880714354633 -0.00094309040374133)
(0.00281348096154408 -0.0027708171537807 -0.004476526097894)
(0.00400810688383378 0.00419442142863027 -0.00506798618354751)
(0.000506272031818153 -0.00274525464383622 -0.00675098704835078)
(-0.00277767216086992 0.00347554175115631 -0.000494079654157811)
(0.000275130826700941 0.000333107379451112 -0.000780431468108087)
(-0.00259768344886669 0.00427351869214075 -0.00524176718923691)
(-0.000720873595844834 -0.00563072031560802 -0.00309321658203477)
(-0.00455743458672328 -0.00196535263331516 0.00215779914691015)
(0.000592911776537837 -0.00803321656196583 -0.00181991612652058)
(-0.00404448431175905 0.00150763015291656 -0.00363624896855892)
(0.00246315996019208 0.00303021642134246 0.00812080145401969)
(-0.0031297999424479 0.00566644962283856 -0.00247986585139372)
(0.00793934014813186 -0.00371713372565127 0.00174729705722057)
(-0.00103976045008892 0.00500102605000897 -0.00103259261059445)
(0.00803381772985041 0.00134736892554153 -0.000911226358373093)
(0.00293914743432059 0.00583104599501293 -0.0025302395142871)
(0.00326664177407518 -0.00452479494224343 -0.00134200060786129)
(0.00251350664160707 0.00802924626475226 -0.00327711032974373)
(-0.00252016031669227 -0.00474035035850739 0.0044448016675958)
(0.00423680908948331 0.00766727474499586 -0.00513926476983193)
(0.00330191578659687 -0.00431542355319863 -0.00320355255964648)
(-0.000520980025029596 -0.00501539206737216 -0.000414233844644844)
(0.000234862937069049 -0.00482651817852583 0.000381310068795908)
(-0.00113580870630697 -0.00708284478144001 0.0064447363582757)
(-0.00281231404480758 0.00435457412974705 -0.00143146815669202)
(-0.00178823114940801 -0.000539020271758711 -0.00290038937079038)
(-0.00460499144386409 -0.00500019320214618 0.00295879966615575)
(0.00910497285640134 0.00180990599194122 0.00314366241172681)
(-0.00397107010123681 0.00546050740920657 0.00060583148258361)
(0.0056163951109443 -0.00495096142062384 0.00148069854387632)
(-0.00132870139714161 0.00625807670955751 -0.00456425294932032)
(0.00637124332103089 -0.00300011048848208 -0.000589144335728484)
(-0.0021457053644863 -0.00346792219499456 0.00572825446069678)
(0.00234946855097362 -0.00253323687909264 -0.00389764670185488)
(0.00535401399270703 -0.00192265427773532 0.00348495017963221)
(-0.00201812758750221 0.00105538358101265 0.00355338405779489)
(-0.00437883561432473 -0.00272008564880176 0.00368712424706602)
(0.00401278119054309 0.00170051791940509 0.00227079850370198)
(-0.00592114875120812 -0.00510981232527209 0.00361759173821639)
(0.00207294377460392 -0.00607447305897744 -0.00353159690830789)
(0.000832758077979657 -0.00119522810069003 -0.00279028954177778)
(0.00277836855491521 0.00321335659566055 -0.00121651938062401)
(0.00145107377403531 -0.00290379330666082 0.0021542314036042)
(-0.00574144336193153 0.00294812948557719 -0.0046731462648715)
(-0.0107831162359462 0.00366840193359221 0.00750745825905716)
(-0.00281039479971775 -0.00015542115189193 -0.00260947032173948)
(0.0005563074984422 0.00260104482758229 -0.00550730657763987)
(0.00380110917086523 -0.000327081607897616 -0.00277133999006623)
(0.00181512612199524 -0.0021172090151019 0.00247669025552615)
(0.00618717137654394 0.000586040361350355 -0.0032515393764742)
(0.000224569575996459 0.00104807103601538 -0.00530706030661979)
(0.00416233109576403 -0.00186347845502126 0.000587106675927568)
(0.00628022455793207 0.000924872488725302 0.00331437733023189)
(0.00345016028633224 0.00694199620493413 -0.00298661549574605)
(-0.00374036233780091 0.00494562758661546 -0.00550329153945293)
(-0.00370819033872632 -0.00106553135870923 0.00457706597377258)
(0.00551870056365351 0.00699182866589141 -0.00768751149277393)
(0.00167220780494593 -0.00807889601177194 0.00132712902714865)
(-0.00128336835475603 0.00288424951800571 0.00494133307742716)
(-0.00977803202952694 -0.00230685528944969 0.00244223407061657)
(-0.00469470264140638 -0.00189469701505682 -0.000979700581215447)
(-0.000740617329486584 0.00386093396236046 -0.00188152160297081)
(-0.00440703585610202 -0.00381509074664267 0.00661619005601839)
(0.00445402513483259 0.00609163972538358 0.00101967108965628)
(1.57694652340168e-05 -0.00139591623412732 -0.00529829280278847)
(-0.000617819417391593 -0.0059419991102796 -0.00353399683680473)
(0.000539925445038733 -0.00228754883319661 0.00342597210916849)
(0.00654777005992902 0.000854671108472349 0.00267268382807705)
(-0.000409225136190469 -0.00665458408831279 -0.000123203556437213)
(0.000968282954001962 -0.000332873860301445 -0.000739225772360187)
(-0.000942577472900476 -0.00123993390323314 0.000539874841256766)
(0.00197074592198811 -0.00676250391413461 -0.00327911836158313)
(0.00333875777815188 -0.00357934002103287 0.00104799450592425)
(-0.010422257922807 -0.00568544483620496 0.00368615713449918)
(0.0103875538541726 0.0109312657054536 0.0022908784088925)
(-0.00232423077092389 0.000120815658651933 0.00226965585407133)
(0.00561788521123773 -0.00272393455615157 0.00536975954862553)
(-0.00138472143042721 0.00254137998383224 -0.00280057755702564)
(0.00169293908609001 -0.00665724592213877 -0.0037285315570939)
(0.00359223431730129 0.00521741931174095 -0.000573657448764969)
(-0.00360993595742759 -0.00357463629604885 0.00214346935473145)
(0.00657420137204841 0.00579590312158505 0.00243252943420335)
(0.00286856369750537 0.00388369236566475 -0.00120601966070752)
(-0.00453798782927715 -0.00520383506957394 -0.00418111642092812)
(-0.002956697762923 0.00370226331303681 -0.0044499979845239)
(0.00185888981709435 -0.00280821668061702 -0.00771949764314585)
(0.0128975635475341 -0.00211165067952147 0.00254745614136131)
(-0.000259670599984959 0.00884700545525453 0.00265552608196188)
(-0.00377319202752656 0.0020487118550858 -0.00940351779510068)
(0.00379430290861382 0.00504337084354731 -0.00499556470337304)
(-0.00574058370550734 -0.00193199151814863 0.00122112584817787)
(-0.00132952663677171 -0.00178727809936819 -0.00258687449069994)
(0.0104251595034145 0.00291383523970398 0.00298135663857078)
(-0.00690451304052129 -0.00191781177793627 -0.00415718715290633)
(0.000509312476216557 -0.00275033516321179 0.00338623114390408)
(-0.00240904616989488 -0.00236043227507515 0.00192988689260191)
(-0.00777350197734258 0.00121048222689368 -6.64086955815841e-05)
(0.0021667042583259 0.00287341116270721 0.00481718696052103)
(0.00100916779952799 0.00497215515275887 0.000535549041125219)
(-0.00324643264106815 0.00116136133420226 0.00520394285902352)
(0.00951766830303841 0.000946533965202358 0.000757325882501101)
(-0.00357872502508472 0.00556415478967771 -0.0066865790922618)
(0.0043591996313855 -0.00184982933830812 0.00312882089327572)
(-0.00054945404571576 0.0057410811786732 0.00382964206454048)
(4.56960568612679e-05 0.00139912320859142 -0.00504107220798702)
(-0.00126413080722123 -0.00383714060176718 -0.000146549466797407)
(0.000372983611815879 0.00498405020979258 0.0127637568685429)
(-0.000587858925848229 0.000422280816137782 0.00568026513662365)
(0.00459720976234857 0.00404984216241543 -0.00461924710057033)
(0.000167990993378477 -0.00761083281865794 -0.0021115095511407)
(0.00413364729524781 0.00360192278955857 -0.00275954123522429)
(0.00034333233489847 0.00307264119780939 -0.00315846206757061)
(-0.00447405022654786 0.00280266275430175 -0.00942899597030214)
(-0.00143515070464223 -0.00354018147076316 -0.000597953613352009)
(-0.00746972103321561 -0.00473396164856686 -0.0070372326098554)
(0.00849033502793877 -0.00495385327283831 0.0109793470247541)
(-0.00487579386760237 0.000606616173056383 0.00489187216136993)
(-0.000806384798619205 -0.00551996045405622 0.000347815426899567)
(0.00044697423639161 0.00273709654566608 -0.0026441191022388)
(-0.00242936964695501 2.22235407354679e-05 0.0070238288570599)
(-0.00351579834142274 0.000181775393364493 -0.00398529094477131)
(0.00490514923753807 -0.00399736487561428 -0.00364273339894857)
(0.00578517338556903 0.00483670426708444 -0.00353088945746244)
(-0.00207144331216565 -0.00416985547172884 0.00763207462780661)
(0.000424045610973561 -0.00450428497202337 -0.00127941511843158)
(0.00168153662312273 3.22386596982639e-05 0.000721170885789701)
(0.00200220954198977 -0.00229135296679067 0.00140827989032232)
(0.00664330717182743 -0.00231152105968392 0.00571459892699807)
(-0.0042683223006674 -0.00982872811247885 0.00105254540837638)
(0.00627884385280125 -0.00557585806589908 -0.00743921916794637)
(0.00180176518351404 -0.00436088062758433 -0.00571863679819077)
(0.00275859694232719 -0.0101002000822732 0.00355688145474661)
(-0.000608284602414882 -0.000148424795929959 0.00411906198078853)
(0.00410516510151559 0.00415993698013244 -0.000715115534848722)
(0.00591168498969342 0.00101510972716328 0.00238727103730024)
(0.00037042749547697 0.00182963158621627 0.00265604474041284)
(-0.000902552568860948 0.00090395603368221 0.0110147072653232)
(-0.00119233005386818 -0.00335254163032335 0.000684386666571337)
(-0.00514201947347317 -0.000806058268054523 0.00267652522574416)
(0.0046677618725719 0.00302658344720075 -0.00567643534191696)
(0.00625374019848315 -0.00507296641837439 0.00651284118739884)
(0.00607352766441121 -0.0028667901183639 0.00508205614637526)
(-0.00760361348172865 0.00219702325212669 -0.00491336530180668)
(-0.00245102292532269 0.00857275803313957 0.00700087649845898)