/*--------------------------------*- C++ -*----------------------------------*\
  =========                 |
  \\      /  F ield         | OpenFOAM: The Open Source CFD Toolbox
   \\    /   O peration     | Website:  https://openfoam.org
    \\  /    A nd           | Version:  7
     \\/     M anipulation  |
\*---------------------------------------------------------------------------*/
FoamFile
{
    version     2.0;
    format      ascii;
    class       volScalarField;
    location    "0.00036/particle";
    object      translationalT;
}
// * * * * * * * * * * * * * * * * * * * * * * * * * * * * * * * * * * * * * //

dimensions      [1 2 -2 0 0 0 0];

internalField   nonuniform List<scalar> 
600
(
870.059784993356
895.301072534196
941.073193497961
974.8219962473
917.654388207424
833.45420876846
947.213651868747
897.431218663384
797.692517311978
847.397782873584
1031.91896189843
894.282570868374
947.90614799947
935.099006615811
914.514741984696
886.817989527143
955.563512769642
897.137276259093
896.273582461141
818.579940380479
823.739957000282
983.748197648864
925.099163300724
1033.93821509527
999.811570052293
901.203524652531
956.722219052931
906.60773160367
829.403560851689
871.889129812837
884.190378968568
804.30588848122
843.193758995759
979.980582506322
825.045835358052
951.609368543016
969.82252779531
851.072910484122
921.794506261838
947.249853444669
946.381742829522
922.982510282226
923.589977349879
942.708807459027
894.276768008681
927.403201428889
927.434270106603
1005.69675283825
913.821983239562
937.76359725152
881.463178048708
901.669494089229
880.368901518558
918.573914006222
962.939970694847
827.437094076372
933.527116845813
868.02507669298
872.302994290079
934.268227617422
924.308879331379
828.47544294681
872.798052168754
965.632460558682
833.292836279471
895.468603067858
909.705591258369
943.513901482807
967.789419736437
860.970916700174
819.946185144694
779.482754306969
868.959143026839
966.323265131107
939.840827174702
860.649832463609
819.88140167309
930.089482283354
892.724056365783
882.481834625985
855.559222211744
841.262546679805
849.696518793682
926.546268998507
944.839846479785
916.939981997646
985.273932905879
852.139294198575
879.658597468385
915.856876419665
932.41487043419
913.258014587597
962.276895672499
908.542959991649
929.850740799282
871.91472144943
958.575631588598
833.635996236527
981.355456738524
920.8417344508
879.864557532826
872.562817323333
979.244046145398
863.69327689956
882.035902161221
918.728658064197
834.709586271289
872.504678738726
890.040282951879
894.094371578262
863.747196542504
900.307687400906
963.366706632757
859.626054517978
832.864231623854
888.57702755026
943.668433035827
878.95136793556
861.824694895981
933.148375204476
914.797412176336
921.355750050134
848.838555395589
893.195505846945
838.646161422807
878.359108173895
872.190054878319
958.202524766877
875.792085216013
950.333913847339
936.647028198085
969.833869911723
885.585836184279
896.692148469756
918.584542686331
867.048180992664
808.987750275471
913.005705738342
960.927460611863
887.070183667506
894.498769260829
880.546478622618
893.891924627349
949.89777464756
959.810786003065
959.337733261866
901.347777242185
938.64358052411
889.303825612728
905.905120750199
855.258593456829
929.495350099056
878.780849806
914.368650348678
890.449525771661
941.034270070837
861.028178758851
848.096596147164
878.526097381332
792.218527156179
854.812785915902
898.164391907018
803.713462386227
841.843770256215
794.384636523402
823.227253663594
897.906998764544
953.662983308804
937.928371031176
921.861305629043
942.318746959724
930.604343589033
817.558760126032
848.397035461285
935.740760500461
879.657936545195
855.019977535163
820.448862394316
857.571795474489
938.257577951113
896.880976284154
873.447384511159
893.26671717122
870.286540423612
932.634688711372
869.976336764107
912.463924328169
902.919974050132
866.552891138495
847.292055404614
868.641643539664
866.402735926665
882.951466597761
875.718545049236
851.20849737549
871.02654530206
847.773027576463
894.249814066779
938.089284709961
915.225438644844
902.500042221321
880.022645294397
851.617525366724
846.748911081908
886.656468886584
869.217264844682
931.193316636862
855.127210300409
837.815956542035
821.627251559982
801.899301272819
920.432126715568
841.686544923664
862.421323986597
962.951228522842
900.4075369327
916.201873022669
883.784012639842
880.926078128415
967.714119543009
853.956920463429
910.913181034448
847.010569295038
878.49499292973
942.100146941386
961.206094766028
866.79961881548
929.297940244706
949.469322953758
931.855352306868
907.68812872074
929.366478524616
944.689091309251
778.830869550762
881.458913972065
923.916159652117
953.152262413805
863.718129035178
857.592042012071
866.057662486747
856.782812441013
953.728159223775
905.044102198684
900.265897564364
909.05878048759
896.369390847377
921.65161150222
861.753796056644
834.199686409573
773.345768152296
937.218488174969
834.831251085366
972.122935481364
927.220930233198
964.892459455789
867.740679830405
863.704665510803
924.010599075874
879.954275490531
858.477097836765
879.543649733663
981.503109245641
872.030026234873
778.302693104427
947.780804518886
942.253687773194
863.01250789407
912.760276436757
880.017543688877
918.457271659425
872.985581046894
918.174744693055
819.546497092827
934.401310400095
909.783895363727
957.809976943742
847.183832703599
871.781551635639
884.48301146508
909.274285779509
810.462361326227
853.072221687777
880.362540436603
845.620886175656
870.328506465568
786.868047156179
705.356175294809
758.017096543271
719.605464510935
685.744970145934
736.923983848659
747.108569682833
610.534664100229
709.619118370442
696.191496427583
672.309305498993
758.540120420939
737.978609003808
732.130640917142
702.917755120229
726.95224620131
648.585659581069
621.92994290104
641.538647575996
719.961190589609
709.905687959996
728.533667374892
694.200260523818
583.953532950178
760.964760091242
720.312793131746
621.269985574203
602.555223491455
582.028311775401
529.902885030443
482.433107522201
493.111373277714
425.865581688506
475.160046340971
467.786140912446
511.892039201136
421.598665567396
516.834445571191
461.831948270558
425.470433110479
288.516975040385
325.997371037111
332.368812117706
325.937118169036
251.736571572226
344.40411277788
305.481902159632
321.204041620876
300.967488055592
357.503765883112
283.169324859683
272.617520925521
286.397737859963
248.070058786462
260.567248036419
333.610868901508
283.014660682941
273.450889104586
357.767567432524
293.615071567879
292.037835564031
288.086495647187
326.323859423924
315.108481944786
245.502860408
280.602315721381
266.751255440468
343.560116359603
271.366649794596
282.728396573997
274.4165628681
329.472593711335
308.927732048121
307.412475076096
327.918108165546
266.008799795267
259.060963967735
260.922105190962
284.054008169724
263.385446929193
282.051200490151
282.244912821237
291.47298582819
256.22381411452
281.301664497294
325.317763158066
331.797527209309
317.18522941876
281.778188475996
308.597349644124
302.613651004098
269.983387517737
334.767008244895
263.219669484301
290.677426553454
318.5445124827
283.371644123565
310.864086849488
354.532249447396
278.442041890561
296.246244310965
309.606327666181
258.514620286196
278.55098550676
274.818661649255
276.685975618454
250.382184562186
323.750362079661
270.819006397548
338.583289532022
270.466971805559
260.408729263717
294.363340080064
311.474607241142
259.864513809181
352.186799012474
307.688101996604
319.173842854481
273.968726044546
291.467646655422
355.976025526557
264.205374339015
266.925700414162
245.17278707414
269.899928357128
253.77876770416
299.453123712407
228.363709642993
289.942417385967
311.941157537717
306.172671741425
319.524550191576
356.061145012848
273.123784162092
274.900541049654
291.322011184869
293.745197017636
287.901804264313
254.622201138447
243.982837229001
264.493204218429
233.461477964243
302.146758897167
266.39671659957
338.511091834273
269.828898100876
299.693154933835
300.568813886222
280.488824783091
310.736484878185
262.386880766993
261.45195573642
308.903629075432
262.02979837048
332.613141421365
306.902273065542
292.816253204364
304.406722744859
296.164961879235
318.822662298921
268.874843237239
306.464328664196
312.63123863244
316.760905560983
270.07385516136
340.686682453471
314.098199197444
315.238174523051
285.271283416589
302.124383455935
313.888461695672
285.212945467246
276.016882147136
255.787361846383
344.630174843566
275.021452383842
302.115066142648
271.530366348508
233.222529741156
275.189422567142
259.783002052084
312.674395852677
253.755909545527
266.080240270872
283.46446594461
303.253244382141
274.346191446547
280.749415780135
316.824625943809
242.681749650263
325.632445562599
274.767696341342
292.342236843606
287.120790763567
246.366583683771
354.218497347835
256.944865968408
282.779077765378
300.817733550538
372.936851064573
302.702990884319
286.29333253749
306.158054200922
296.744242201428
318.467890461389
344.614339748299
329.755330490387
255.870707600102
331.481028038037
340.697134958602
270.338964867655
236.211073958862
360.689133323786
299.19693787655
256.574168789122
301.612586241618
306.571635436405
300.960347979523
292.336181994771
279.834633277807
277.635132005997
334.64417689091
405.505351655831
318.717487996392
327.346488412531
257.245005411237
265.572017404284
324.416247904292
283.228130332431
325.274433193934
335.758414305128
302.143838114382
265.04987545836
248.712288501646
302.455720635319
306.575348360151
267.652485298184
265.261106826382
316.594986899704
298.493469057558
329.876325765929
317.612332530529
304.709332889572
324.967235042511
326.514193185884
294.975226819567
333.251642875709
283.164023654828
270.198167053005
272.161807976971
300.228345745091
292.236001299741
306.798675089091
262.496348006503
250.738502441576
326.053890446025
299.416673391549
239.246559815837
333.761181654643
298.480393056214
280.133568961771
243.428032851119
282.968476982161
266.818519494274
264.225056606634
325.340691039076
313.83887371633
325.375978958069
273.569464672633
324.478852837049
277.465732952141
296.55862044821
271.179346088957
319.114637532324
310.67981140645
243.651198179592
347.815186976325
357.507959195309
287.645165799115
318.029890191921
311.507401903416
280.299428023045
289.614941599069
296.753122916616
350.401951052095
283.351577759725
235.145986509103
291.205676931612
340.233732516645
284.295759856768
324.150851006004
316.848210469477
268.217832225093
294.453260214895
297.819676630177
281.00026068901
292.927219869052
302.401426878265
292.267510701302
315.533071056675
277.257468592039
296.583824949624
316.752818276806
324.628808922517
337.092043501625
321.804539176066
310.174271677027
247.468854611845
321.771604320846
283.286465980719
300.896364973868
274.285883693793
285.706395460322
346.485850271069
274.015541530035
)
;

boundaryField
{
    DSMCSide
    {
        type            symmetry;
    }
    DSMCBound
    {
        type            calculated;
        value           uniform 870.059784993356;
    }
    nullDims
    {
        type            empty;
    }
}


// ************************************************************************* //
