/*--------------------------------*- C++ -*----------------------------------*\
  =========                 |
  \\      /  F ield         | OpenFOAM: The Open Source CFD Toolbox
   \\    /   O peration     | Website:  https://openfoam.org
    \\  /    A nd           | Version:  7
     \\/     M anipulation  |
\*---------------------------------------------------------------------------*/
FoamFile
{
    version     2.0;
    format      ascii;
    class       volScalarField;
    location    "0.1";
    object      alpha.water;
}
// * * * * * * * * * * * * * * * * * * * * * * * * * * * * * * * * * * * * * //

dimensions      [0 0 0 0 0 0 0];

internalField   nonuniform List<scalar> 
2268
(
1
1
1
1
1
1
1
1
1
1
1
1
1
1
1
0.998374
0.994637
0.978357
0.792816
0.222473
0.00493156
0.00157018
0.00124059
1
1
1
1
1
1
1
1
1
1
1
1
1
0.999992
0.999967
0.999889
0.945195
0.654716
0.243873
0.072676
0.0122114
0.00102609
0.000687433
1
1
1
1
1
1
1
1
1
1
1
1
1
1
1
0.989257
0.7587
0.25118
0.0227486
0.010447
0.0102746
0.00346993
0.000484832
1
1
1
1
1
1
1
1
1
1
1
1
1
1
1
0.899664
0.428128
0.0493899
0.00382309
0.00235456
0.00191862
0.00209524
0.000454159
1
1
1
1
1
1
1
1
1
1
1
1
1
1
1
0.697122
0.142191
0.00446904
0.00171809
0.00100724
0.000369598
0.000241567
0.000213929
1
1
1
1
1
1
1
1
1
1
1
1
1
1
0.976494
0.483498
0.0317805
0.00184105
0.000757705
0.00039369
0.00020155
7.91158e-05
4.8842e-05
1
1
1
1
1
1
1
1
1
1
1
1
1
1
0.930615
0.324311
0.00600168
0.00129514
0.000385814
0.000169558
0.000107047
4.33861e-05
2.23515e-05
1
1
1
1
1
1
1
1
1
1
1
1
1
1
0.864352
0.202136
0.00273732
0.000775485
0.000213419
7.99475e-05
4.48254e-05
1.95285e-05
9.76126e-06
2.42601e-18
8.81973e-19
2.74806e-19
1.96457e-20
2.43245e-22
5.38635e-24
5.66356e-25
4.37707e-26
1.92727e-27
7.13525e-29
2.41611e-30
7.18861e-32
1.82452e-33
3.82343e-35
6.29204e-37
7.49187e-39
5.59811e-41
1.56454e-43
6.50238e-44
1.4802e-17
3.9856e-17
2.33151e-17
1.85184e-18
2.16572e-20
4.1063e-22
3.42316e-23
2.22273e-24
8.6466e-26
2.94781e-27
9.29345e-29
2.56844e-30
6.01426e-32
1.14638e-33
1.67147e-35
1.68066e-37
9.59339e-40
1.97765e-42
6.50238e-44
1.32243e-15
2.32187e-15
9.79573e-16
5.71007e-17
8.45734e-19
1.79941e-20
1.10628e-21
5.26727e-23
1.8448e-24
5.8316e-26
1.67489e-27
4.20064e-29
8.87792e-31
1.50708e-32
1.89911e-34
1.54582e-36
7.13031e-39
1.52375e-41
9.07882e-43
5.03734e-14
7.51642e-14
2.64774e-14
1.25887e-15
2.19333e-17
5.88924e-19
2.45426e-20
9.03491e-22
2.87163e-23
8.36415e-25
2.18906e-26
4.97003e-28
9.38822e-30
1.38589e-31
1.46979e-33
1.12384e-35
6.0331e-38
1.8949e-40
1.71282e-41
1.10449e-12
2.07802e-12
5.96449e-13
2.19867e-14
3.74029e-16
1.05697e-17
3.71451e-19
1.20524e-20
3.54935e-22
9.55803e-24
2.29182e-25
4.7075e-27
7.97093e-29
1.07902e-30
1.09275e-32
9.74828e-35
5.87994e-37
2.17337e-39
2.30362e-40
4.89538e-11
6.69621e-11
1.09304e-11
2.67164e-13
4.625e-15
1.30383e-16
4.31548e-18
1.31916e-19
3.66691e-21
9.23956e-23
2.06005e-24
3.89702e-26
6.35058e-28
8.24783e-30
9.81541e-32
8.85531e-34
5.8107e-36
2.17571e-38
2.63758e-39
1.16717e-09
6.23132e-10
6.24001e-11
1.50146e-12
3.62364e-14
1.16991e-15
3.78829e-17
1.13495e-18
3.09994e-20
7.62116e-22
1.64159e-23
3.14669e-25
5.06588e-27
6.71792e-29
8.05382e-31
7.47144e-33
4.9539e-35
1.86261e-37
2.66923e-38
2.88461e-09
1.22674e-09
1.05171e-10
3.42905e-12
1.40817e-13
5.60966e-15
1.97804e-16
6.25492e-18
1.77046e-19
4.49811e-21
9.96785e-23
1.94306e-24
3.26709e-26
4.38217e-28
4.77804e-30
4.38639e-32
2.8881e-34
1.17271e-36
2.41555e-37
1
1
1
1
1
1
1
1
1
1
1
1
1
1
0.70171
0.0778247
0.00130483
0.00036924
0.000105481
3.79528e-05
1.73599e-05
6.96863e-06
3.08207e-06
1
1
1
1
1
1
1
1
1
1
1
1
1
0.994465
0.407122
0.00590778
0.000732507
0.00018735
5.83789e-05
1.68364e-05
5.72352e-06
1.92746e-06
4.93097e-07
1
1
1
1
1
1
1
1
1
1
1
1
1
0.880811
0.183833
0.00123008
0.000278941
7.81833e-05
2.84275e-05
8.23376e-06
2.30687e-06
7.14933e-07
1.22454e-07
1
1
1
1
1
1
1
1
1
1
1
1
1
0.718086
0.0624053
0.000437689
9.68652e-05
3.15522e-05
1.08856e-05
3.12733e-06
8.05795e-07
2.24153e-07
5.06531e-08
1
1
1
1
1
1
1
1
1
1
1
1
1
0.518641
0.0113785
0.000161834
3.72202e-05
1.18669e-05
3.58865e-06
9.45996e-07
2.32705e-07
5.8969e-08
1.56766e-08
1
1
1
1
1
1
1
1
1
1
1
1
0.988303
0.332347
0.000843283
9.16559e-05
1.61101e-05
4.11308e-06
1.11608e-06
2.64186e-07
6.10796e-08
1.48592e-08
4.21713e-09
1
1
1
1
1
1
1
1
1
1
1
1
0.918026
0.204935
0.000402308
4.2401e-05
5.7931e-06
1.41128e-06
3.42685e-07
7.19401e-08
1.55658e-08
4.02868e-09
1.39328e-09
1
1
1
1
1
1
1
1
1
1
1
1
0.83876
0.116621
0.000173142
1.43578e-05
1.87324e-06
4.77643e-07
1.02027e-07
1.91761e-08
4.21812e-09
1.32201e-09
6.26435e-10
1
1
1
1
1
1
1
1
1
1
1
1
0.745934
0.058509
6.12238e-05
3.95297e-06
5.40114e-07
1.51102e-07
2.95213e-08
5.32164e-09
1.3934e-09
5.84813e-10
2.81684e-10
1
1
1
1
1
1
1
1
1
1
1
1
0.643367
0.0237399
1.69462e-05
9.176e-07
1.64132e-07
4.27741e-08
8.53636e-09
1.76698e-09
6.18764e-10
2.82594e-10
1.05778e-10
0.999999
0.999999
0.999999
0.999999
0.999999
0.999999
0.999999
0.999999
0.999999
0.999999
0.999999
1
0.533134
0.00641986
4.30342e-06
1.80722e-07
5.27359e-08
1.11374e-08
2.55186e-09
7.24226e-10
3.07267e-10
1.17348e-10
3.04389e-11
0.999995
0.999996
0.999996
0.999997
0.999997
0.999997
0.999997
0.999996
0.999996
0.999995
0.999995
0.999999
0.417285
0.000419762
1.23514e-06
4.01138e-08
1.45468e-08
3.27863e-09
9.30298e-10
3.3121e-10
1.35232e-10
3.7034e-11
6.76218e-12
0.999972
0.999974
0.999979
0.999982
0.999983
0.999983
0.999982
0.999979
0.999975
0.99997
0.999971
0.999989
0.305665
5.12159e-05
2.0825e-07
1.11213e-08
2.75969e-09
1.51828e-09
4.30056e-10
1.53043e-10
4.67231e-11
8.76657e-12
1.23601e-12
0.99984
0.999856
0.999881
0.999897
0.999903
0.999902
0.999894
0.999879
0.999858
0.999832
0.999833
0.9999
0.217698
2.25473e-05
-7.02174e-08
2.81141e-09
1.30004e-09
1.28811e-09
2.30397e-10
6.24589e-11
1.20667e-11
1.64604e-12
1.96101e-13
0.999128
0.999254
0.999389
0.999472
0.999507
0.999501
0.999457
0.999375
0.999256
0.999105
0.998976
0.999074
0.164105
9.07299e-06
2.31854e-08
2.82716e-09
4.04105e-09
8.10564e-10
1.06092e-10
1.88645e-11
2.35112e-12
2.61959e-13
2.70481e-14
0.86834
0.900625
0.922175
0.936255
0.942505
0.941116
0.933346
0.919667
0.900717
0.877249
0.857893
0.871766
0.125022
-7.25475e-07
-3.59896e-09
1.22245e-09
1.76047e-09
2.93776e-10
3.40749e-11
3.84311e-12
3.67868e-13
3.63395e-14
3.21913e-15
0.183134
0.231819
0.266493
0.293742
0.306932
0.303639
0.286892
0.260305
0.22873
0.196191
0.171694
0.196985
0.0578134
-1.28992e-06
1.56483e-12
2.08623e-09
1.625e-10
5.24492e-11
6.82962e-12
5.6457e-13
4.93896e-14
4.46476e-15
3.4081e-16
-1.49113e-09
-9.46675e-10
-4.50226e-09
-2.57371e-08
-3.47394e-08
-1.64512e-08
-4.96e-09
-1.06734e-09
-1.24162e-10
-7.58885e-12
6.65013e-43
2.82185e-13
0.00343248
2.20176e-05
-9.67581e-10
3.01928e-10
1.37575e-11
5.67123e-12
9.0378e-13
6.87614e-14
5.85739e-15
4.90572e-16
3.24783e-17
-3.53831e-09
-3.94798e-09
-5.56633e-09
-1.07449e-08
-1.42767e-08
-1.14501e-08
-6.38741e-09
-2.98276e-09
-5.84594e-10
-3.22296e-11
4.86547e-12
3.12772e-11
8.58409e-12
-1.57558e-27
-8.04809e-11
1.78845e-12
1.6908e-12
6.56152e-13
9.22162e-14
7.24951e-15
6.05455e-16
4.76455e-17
2.73888e-18
-1.82106e-24
-2.94175e-23
-6.07775e-22
-4.24524e-21
-4.07668e-20
0
-6.97511e-42
-1.92332e-31
-2.46185e-29
9.40065e-13
3.87064e-11
4.88195e-10
1.0322e-09
7.58586e-10
-9.80848e-13
1.63573e-12
2.05448e-13
6.29821e-14
7.46245e-15
6.2972e-16
5.28397e-17
3.99908e-18
1.99531e-19
-3.49399e-24
-1.03886e-22
-2.75723e-21
-4.50484e-20
-4.73956e-19
-2.56183e-18
-2.60969e-35
-2.58458e-26
-6.06166e-18
9.32514e-14
4.66562e-11
9.53846e-10
2.51894e-09
2.36782e-09
5.3385e-18
6.29431e-14
8.40663e-15
2.69282e-15
3.86927e-16
4.12288e-17
3.77062e-18
2.83452e-19
1.22351e-20
-3.43597e-24
-1.97989e-22
-7.05361e-21
-1.70053e-19
-2.86707e-18
-3.49995e-17
-3.16773e-16
-2.14451e-15
-1.07845e-14
-3.9766e-14
-1.01599e-13
-1.44151e-13
-3.10862e-14
3.69154e-21
4.76633e-13
3.74888e-15
5.701e-16
1.29815e-16
1.84805e-17
1.93352e-18
2.08236e-19
1.65039e-20
6.17697e-22
0
-6.99699e-43
-1.33862e-30
-2.16225e-28
-1.99364e-26
-1.30523e-24
3.09448e-21
1.02965e-17
9.18365e-16
7.28667e-15
1.69765e-14
2.37785e-14
2.61291e-14
1.99154e-14
4.79309e-15
5.18786e-16
5.95922e-17
8.03772e-18
1.11622e-18
1.03687e-19
9.51847e-21
7.44525e-22
2.6785e-23
0
-2.09376e-33
-5.6123e-31
-6.186e-29
-3.873e-27
-1.82854e-25
-6.50956e-24
-9.1672e-23
1.39816e-19
1.12781e-17
1.07137e-16
3.63935e-16
6.04877e-16
4.54819e-16
7.40853e-17
3.04242e-17
3.27165e-18
3.74412e-19
5.83087e-20
5.71053e-21
4.79451e-22
2.91952e-23
1.30973e-24
-1.77837e-33
-1.61347e-31
-7.92549e-30
-2.20214e-28
-3.81484e-27
-2.15507e-26
-5.11297e-26
1.50889e-26
8.85217e-25
1.74022e-21
1.58268e-19
1.91299e-18
5.9363e-18
7.97083e-18
4.11517e-18
3.51e-19
8.96402e-20
1.29358e-20
2.36603e-21
2.58022e-22
2.3005e-23
1.38878e-24
6.34608e-26
0
3.43436e-37
7.58626e-36
3.33335e-35
2.05993e-33
1.64626e-31
1.39232e-30
2.00635e-29
1.11245e-27
3.89676e-25
7.68175e-23
3.6611e-21
4.23687e-20
1.16181e-19
1.27257e-19
5.13162e-21
3.00316e-21
3.65888e-22
7.62828e-23
9.48627e-24
9.22397e-25
6.28228e-26
2.73525e-27
-9.90931e-41
-1.03031e-38
-3.38847e-38
2.61884e-51
-3.82389e-36
-1.9159e-34
-2.45395e-32
-3.20771e-31
3.24191e-31
7.25544e-28
2.39408e-25
1.4564e-23
2.37246e-22
8.30984e-22
1.0265e-21
1.63837e-22
9.64691e-23
8.87288e-24
1.94698e-24
2.87276e-25
3.11863e-26
2.407e-27
1.0262e-28
-5.4489e-43
-3.60564e-41
-1.07243e-39
-4.3864e-38
-7.56624e-37
-1.64404e-37
-1.53232e-35
1.4537e-35
4.75605e-34
3.89845e-31
6.78036e-29
2.39214e-27
8.82692e-26
1.59729e-24
6.93225e-24
9.63381e-24
1.00032e-24
2.77801e-25
3.86455e-26
7.13143e-27
8.90944e-28
7.69497e-29
3.36274e-30
1.48167e-64
0
-2.92101e-50
-1.75601e-47
-2.09932e-45
1.20321e-42
-1.86529e-41
-1.09028e-38
-3.27782e-37
2.01596e-34
8.9159e-32
3.80482e-30
1.80315e-28
5.79794e-27
3.86987e-26
6.66145e-26
1.86337e-26
5.06588e-27
6.27692e-28
1.43452e-28
2.13775e-29
2.08693e-30
9.67582e-32
-6.86278e-52
-1.19344e-49
-4.08327e-48
-2.0106e-49
-4.32672e-47
-4.43223e-45
-1.08683e-42
-1.47958e-41
3.14256e-41
6.267e-38
2.63742e-35
1.38473e-33
3.50146e-32
1.20598e-30
3.94599e-29
3.06838e-28
5.65586e-28
5.58212e-29
1.49161e-29
2.32039e-30
4.40753e-31
4.95019e-32
2.50574e-33
-9.61931e-54
-1.18717e-51
-5.52354e-50
-7.79506e-49
-1.1052e-48
-6.70748e-47
-5.22756e-47
-8.98271e-45
1.17623e-44
3.09804e-42
6.79743e-39
1.32485e-36
4.18705e-35
1.70889e-33
9.96112e-32
1.27719e-30
3.05208e-30
1.04438e-30
1.76605e-31
3.42539e-32
7.81681e-33
1.02613e-33
5.85034e-35
1.63707e-60
0
4.0904e-56
9.23602e-55
-6.06635e-54
-2.03873e-54
1.97832e-51
2.84608e-50
-1.91672e-47
3.11784e-45
1.02746e-42
3.57142e-40
1.4923e-38
4.00689e-37
1.458e-35
7.60419e-34
9.59126e-33
2.24742e-32
1.89211e-33
6.20749e-34
1.16746e-34
1.85118e-35
1.2228e-36
-9.47458e-63
-3.52483e-61
-2.50212e-59
-1.39081e-74
-3.60474e-57
-1.05004e-56
-3.40051e-54
-7.90148e-52
-1.32545e-50
5.05296e-49
3.52346e-47
7.31799e-44
9.16675e-42
3.27728e-40
1.3828e-38
1.35543e-36
3.23146e-35
1.04399e-34
3.19493e-35
8.82265e-36
1.73036e-36
2.92727e-37
2.28393e-38
-2.23908e-66
-6.77156e-64
-7.71239e-62
-4.33945e-60
-1.08932e-58
-9.71046e-60
-2.22433e-57
-9.8639e-56
1.731e-55
2.64746e-52
9.46202e-51
3.77429e-48
2.16545e-45
1.14857e-43
3.90368e-42
1.87481e-40
1.46753e-38
2.40153e-37
6.27807e-37
8.07169e-38
2.51102e-38
4.73733e-39
3.80748e-40
-7.05692e-71
-1.74849e-68
1.96693e-68
-4.1119e-81
9.73195e-65
-9.55531e-65
-3.0889e-64
-5.52942e-61
-1.19829e-59
5.61641e-56
2.33529e-54
8.68038e-53
5.9875e-50
3.38972e-47
1.72458e-45
8.77303e-44
1.43144e-41
6.63228e-40
2.99244e-39
9.46635e-40
3.7142e-40
6.96381e-41
6.73957e-42
-6.97528e-76
-2.80846e-73
-3.57485e-71
6.70515e-72
-5.99532e-71
-3.52465e-68
-1.8684e-65
-7.82957e-64
-1.769e-63
1.05076e-59
4.95866e-58
2.10918e-56
1.68064e-54
4.52117e-51
6.49748e-49
3.44326e-47
3.04411e-45
3.90499e-43
6.63619e-42
1.54191e-41
3.00515e-42
8.8159e-43
1.13316e-43
-1.18952e-80
-9.51016e-78
-2.46982e-75
-3.11015e-73
-2.04311e-72
-7.64799e-71
-1.83358e-70
-4.81262e-68
4.78201e-66
3.32238e-63
1.63272e-61
7.9828e-60
4.12469e-58
6.16336e-56
8.34863e-53
1.02973e-50
7.16206e-49
1.60914e-46
1.3651e-44
8.60144e-44
2.57131e-44
1.18523e-44
1.64198e-45
-1.38668e-84
-1.05786e-81
-2.97441e-79
-3.88143e-77
0
5.8542e-79
-2.29103e-75
-4.09221e-73
-4.36715e-72
1.5655e-67
1.0776e-65
6.83886e-64
4.37104e-62
2.74753e-60
2.99699e-58
1.67705e-54
3.41447e-52
1.41371e-49
2.48212e-47
2.52081e-46
2.74854e-46
1.20979e-46
2.09134e-47
-5.35168e-90
-6.04357e-87
-2.38498e-84
-5.37844e-82
-6.60325e-80
-1.22428e-81
-5.11512e-79
-1.61334e-76
-1.72632e-76
7.59675e-72
6.96499e-70
5.98346e-68
5.16945e-66
4.43411e-64
3.86593e-62
4.60702e-60
2.88012e-56
9.82325e-54
5.4867e-51
4.2104e-49
2.14967e-48
1.04916e-48
2.94973e-49
-9.11548e-95
-7.13839e-92
-2.39014e-89
-2.2098e-87
-5.32135e-85
-8.22974e-83
-5.03398e-82
-2.0001e-81
5.61031e-82
5.58618e-77
9.75207e-75
1.4969e-72
2.10433e-70
3.06098e-68
4.4144e-66
6.62886e-64
1.11719e-61
6.72343e-58
1.61137e-54
6.72763e-52
9.80332e-51
8.19819e-51
4.0247e-51
0
0
-8.81961e-105
-4.28714e-102
-2.29289e-99
-1.32083e-96
-7.08503e-94
-7.27592e-89
-4.4776e-86
-8.29003e-86
1.40099e-82
1.08175e-79
5.40013e-77
2.42167e-74
1.18651e-71
5.15412e-69
2.34657e-66
1.84593e-63
3.8973e-58
8.23553e-55
3.32074e-53
5.1033e-53
5.46483e-53
-2.08645e-113
-3.32688e-111
-9.62112e-109
-6.95236e-110
-1.53765e-106
-2.50856e-103
-3.6065e-100
-1.24892e-95
-2.87748e-94
-7.73472e-94
-5.44041e-92
-1.12148e-91
-1.01534e-88
-8.54625e-86
-6.72249e-83
-4.99121e-80
-3.52363e-77
-2.37336e-74
9.43021e-64
1.89472e-58
5.7891e-56
4.53488e-55
5.55783e-54
1.41648e-06
3.44599e-07
4.09641e-08
3.23127e-09
1.74171e-06
1.00202e-06
1.12611e-07
5.49953e-09
2.82083e-07
4.45228e-07
2.354e-07
1.59731e-08
7.37453e-09
1.73309e-08
3.69613e-08
1.50293e-08
3.54489e-09
1.63898e-09
9.60369e-10
1.56482e-09
1.40575e-09
1.16793e-09
8.45348e-10
5.10237e-10
4.88763e-10
5.26484e-10
4.29385e-10
2.16389e-10
2.3722e-10
1.91896e-10
1.32014e-10
5.80828e-11
9.81994e-11
5.58623e-11
2.91416e-11
1.1049e-11
2.72277e-11
1.27078e-11
5.44253e-12
1.81405e-12
5.30691e-12
2.38123e-12
9.13511e-13
2.74472e-13
8.7584e-13
3.94016e-13
1.37568e-13
3.79604e-14
1.41259e-13
5.88391e-14
1.8353e-14
4.74352e-15
2.24744e-14
7.8127e-15
2.15434e-15
5.33762e-16
3.36086e-15
8.99099e-16
2.21857e-16
5.40126e-17
3.91487e-16
8.69563e-17
2.00517e-17
4.9182e-18
3.5895e-17
7.21536e-18
1.60267e-18
4.00642e-19
2.71139e-18
5.28132e-19
1.15562e-19
3.00044e-20
1.71748e-19
3.39045e-20
7.49447e-21
2.08221e-21
8.86626e-21
1.85778e-21
4.28814e-22
1.33105e-22
4.0344e-22
8.73567e-23
2.16385e-23
7.83141e-24
2.13208e-23
4.177e-24
1.01793e-24
4.28954e-25
1.15694e-24
2.14627e-25
5.1522e-26
2.2236e-26
5.66496e-26
1.05087e-26
2.53252e-27
1.12028e-27
2.49253e-27
4.66885e-28
1.15812e-28
5.4318e-29
9.89144e-29
1.87959e-29
4.88193e-30
2.50388e-30
3.53743e-30
6.85801e-31
1.89312e-31
1.0966e-31
1.13856e-31
2.26662e-32
6.76433e-33
4.55562e-33
3.29915e-33
6.80294e-34
2.26483e-34
1.77943e-34
8.61272e-35
1.85487e-35
7.15824e-36
6.68523e-36
2.02918e-36
4.62059e-37
2.11864e-37
2.4264e-37
4.34215e-38
1.12024e-38
6.26212e-39
8.14436e-39
8.50887e-40
2.59396e-40
1.93009e-40
2.58872e-40
1.65023e-41
5.51017e-42
5.46234e-42
7.67514e-42
2.98239e-43
1.26554e-43
1.37387e-43
2.06983e-43
5.54575e-45
2.77394e-45
3.16035e-45
4.99424e-45
1.05752e-46
5.64387e-47
7.30959e-47
1.18267e-46
1.81701e-48
1.00865e-48
1.55304e-48
2.67233e-48
2.81656e-50
2.0047e-50
3.15246e-50
5.66435e-50
4.80641e-52
3.42466e-52
5.69556e-52
1.11917e-51
7.73274e-54
6.43184e-54
7.60706e-54
1.63634e-53
6.03922e-54
6.19301e-54
6.217e-54
6.33311e-54
1.21711e-09
1.5178e-10
2.92724e-11
5.73802e-12
5.27588e-13
2.5483e-14
1.05195e-15
4.11109e-17
1.45199e-18
4.55016e-20
1.25025e-21
2.95936e-23
5.87491e-25
9.37065e-27
1.10727e-28
8.48323e-31
4.26501e-33
1.19005e-35
1.93541e-36
1.18203e-09
1.39786e-10
4.19585e-11
1.02773e-11
1.09976e-12
5.85127e-14
2.60474e-15
1.10021e-16
4.19049e-18
1.41643e-19
4.21875e-21
1.09454e-22
2.43328e-24
4.5362e-26
6.85925e-28
7.96516e-30
6.39963e-32
2.62499e-34
2.42233e-35
4.67998e-10
8.76066e-11
4.46961e-11
9.00003e-12
7.24289e-13
4.05492e-14
2.05434e-15
9.35973e-17
3.76427e-18
1.33369e-19
4.14856e-21
1.12589e-22
2.63988e-24
5.24927e-26
8.6118e-28
1.11595e-29
1.06299e-31
6.29394e-34
2.68484e-35
1.41249e-09
1.38391e-10
2.72464e-11
3.32725e-12
2.53568e-13
1.59103e-14
8.82993e-16
4.30971e-17
1.84713e-18
6.95242e-20
2.29313e-21
6.58704e-23
1.63101e-24
3.43748e-26
6.03632e-28
8.51682e-30
9.03296e-32
6.23257e-34
9.85362e-36
6.76435e-10
1.03677e-10
1.0659e-11
9.45126e-13
7.19005e-14
4.69639e-15
2.66186e-16
1.32179e-17
5.76849e-19
2.21224e-20
7.4379e-22
2.18157e-23
5.53595e-25
1.19985e-26
2.17649e-28
3.19427e-30
3.56754e-32
2.66659e-34
2.36169e-36
2.04198e-10
2.94574e-11
2.73295e-12
2.38169e-13
1.83729e-14
1.21186e-15
6.91295e-17
3.44711e-18
1.50816e-19
5.79229e-21
1.94903e-22
5.71938e-24
1.45226e-25
3.15125e-27
5.72687e-29
8.42613e-31
9.44675e-33
7.12954e-35
5.02196e-37
5.80425e-11
6.08145e-12
5.71848e-13
5.22184e-14
4.09342e-15
2.72151e-16
1.56261e-17
7.82728e-19
3.43367e-20
1.32039e-21
4.444e-23
1.3036e-24
3.30819e-26
7.17669e-28
1.30522e-29
1.92511e-31
2.16833e-33
1.64962e-35
9.85e-38
1.32081e-11
1.1885e-12
1.10851e-13
1.01987e-14
8.01455e-16
5.34331e-17
3.0758e-18
1.54308e-19
6.77311e-21
2.60404e-22
8.75772e-24
2.56639e-25
6.50754e-27
1.41172e-28
2.57165e-30
3.80888e-32
4.32302e-34
3.32998e-36
1.72288e-38
2.41933e-12
2.11434e-13
1.97072e-14
1.79618e-15
1.40093e-16
9.30468e-18
5.34152e-19
2.67239e-20
1.16961e-21
4.48311e-23
1.50309e-24
4.39199e-26
1.11109e-27
2.40765e-29
4.38971e-31
6.52648e-33
7.46422e-35
5.8218e-37
2.68102e-39
3.85457e-13
3.36474e-14
3.16768e-15
2.85828e-16
2.20464e-17
1.45242e-18
8.28105e-20
4.11675e-21
1.79091e-22
6.82538e-24
2.27621e-25
6.61929e-27
1.66813e-28
3.60637e-30
6.57547e-32
9.80843e-34
1.13004e-35
8.92035e-38
3.76832e-40
5.56534e-14
4.85297e-15
4.62197e-16
4.1272e-17
3.14223e-18
2.04729e-19
1.15572e-20
5.69263e-22
2.45532e-23
9.28376e-25
3.07385e-26
8.88273e-28
2.22731e-29
4.80006e-31
8.74779e-33
1.30898e-34
1.51945e-36
1.21399e-38
4.96415e-41
7.31834e-15
6.41783e-16
6.16749e-17
5.43658e-18
4.07712e-19
2.62061e-20
1.46101e-21
7.11364e-23
3.03585e-24
1.13687e-25
3.73188e-27
1.07047e-28
2.66853e-30
5.72997e-32
1.04362e-33
1.56691e-35
1.83362e-37
1.48382e-39
6.01257e-42
8.72032e-16
7.81149e-17
7.5568e-18
6.55732e-19
4.83407e-20
3.05872e-21
1.68062e-22
8.07425e-24
3.40426e-25
1.26104e-26
4.10007e-28
1.1666e-29
2.89009e-31
6.18254e-33
1.12565e-34
1.6969e-36
2.00392e-38
1.64437e-40
6.70058e-43
9.36389e-17
8.75535e-18
8.51149e-19
7.25468e-20
5.24906e-21
3.26426e-22
1.76503e-23
8.35693e-25
3.47764e-26
1.27341e-27
4.099e-29
1.15665e-30
2.8477e-32
6.07107e-34
1.10571e-35
1.67538e-37
1.99953e-39
1.66643e-41
6.89467e-44
9.0152e-18
9.03972e-19
8.80909e-20
7.36511e-21
5.22571e-22
3.19089e-23
1.69657e-24
7.91199e-26
3.24864e-27
1.17574e-28
3.7472e-30
1.04891e-31
2.56773e-33
5.45962e-35
9.95774e-37
1.51881e-38
1.83537e-40
1.5566e-42
6.5516e-45
7.84359e-19
8.59542e-20
8.3596e-21
6.85913e-22
4.77225e-23
2.86059e-24
1.49551e-25
6.87066e-27
2.78447e-28
9.96538e-30
3.1466e-31
8.74407e-33
2.1303e-34
4.52283e-36
8.27347e-38
1.27274e-39
1.56081e-41
1.35012e-43
5.7794e-46
6.67288e-20
7.58032e-21
7.28889e-22
5.84862e-23
3.99454e-24
2.35404e-25
1.21123e-26
5.48681e-28
2.197e-29
7.78381e-31
2.43774e-32
6.73323e-34
1.63476e-35
3.47105e-37
6.3804e-39
9.92233e-41
1.23807e-42
1.09498e-44
4.76831e-47
5.59026e-21
6.37599e-22
5.97139e-23
4.63447e-24
3.09067e-25
1.78057e-26
9.02063e-28
4.03901e-29
1.60119e-30
5.62496e-32
1.75007e-33
4.81236e-35
1.16637e-36
2.48152e-38
4.59407e-40
7.24143e-42
9.21994e-44
8.35859e-46
3.70385e-48
4.47804e-22
5.13668e-23
4.72289e-24
3.55949e-25
2.28038e-26
1.26352e-27
6.26188e-29
2.75739e-30
1.08048e-31
3.77347e-33
1.16932e-34
3.20797e-36
7.77747e-38
1.66173e-39
3.10631e-41
4.9774e-43
6.48644e-45
6.04299e-47
2.72388e-49
3.37097e-23
3.92695e-24
3.58617e-25
2.6465e-26
1.64186e-27
8.80896e-29
4.21733e-30
1.79342e-31
6.87731e-33
2.37808e-34
7.31396e-36
2.0023e-37
4.86871e-39
1.04763e-40
1.98339e-42
3.24111e-44
4.33693e-46
4.162e-48
1.90591e-50
2.3717e-24
2.82639e-25
2.58372e-26
1.88276e-27
1.14478e-28
6.00518e-30
2.79688e-31
1.15737e-32
4.33051e-34
1.45813e-35
4.38965e-37
1.19187e-38
2.89953e-40
6.27483e-42
1.20364e-43
2.01042e-45
2.76989e-47
2.74382e-49
1.2733e-51
1.55551e-25
1.90749e-26
1.75854e-27
1.27498e-28
7.65374e-30
3.95312e-31
1.80923e-32
7.35756e-34
2.70215e-35
8.91803e-37
2.6404e-38
7.0729e-40
1.70154e-41
3.66971e-43
7.09481e-45
1.20964e-46
1.71665e-48
1.75659e-50
8.25579e-53
9.48831e-27
1.20463e-27
1.12892e-28
8.20282e-30
4.89328e-31
2.50405e-32
1.13307e-33
4.5535e-35
1.65295e-36
5.39274e-38
1.58072e-39
4.19387e-41
1.00193e-42
2.15991e-44
4.21217e-46
7.31665e-48
1.06712e-49
1.12628e-51
5.36496e-54
5.36812e-28
7.11116e-29
6.82879e-30
5.00959e-31
2.98993e-32
1.52514e-33
6.85919e-35
2.73713e-36
9.86757e-38
3.19606e-39
9.31255e-41
2.45998e-42
5.86783e-44
1.26957e-45
2.50319e-47
4.4334e-49
6.64662e-51
7.23548e-53
3.49159e-55
2.81737e-29
3.92381e-30
3.89126e-31
2.90343e-32
1.7456e-33
8.9292e-35
4.01289e-36
1.59777e-37
5.74387e-39
1.85365e-40
5.38672e-42
1.42112e-43
3.39327e-45
7.38391e-47
1.4745e-48
2.66674e-50
4.11348e-52
4.62036e-54
2.25632e-56
1.37507e-30
2.02607e-31
2.09031e-32
1.59771e-33
9.74008e-35
5.02566e-36
2.26887e-37
9.05611e-39
3.2597e-40
1.05198e-41
3.05851e-43
8.07894e-45
1.93504e-46
4.24188e-48
8.58983e-50
1.58772e-51
2.52081e-53
2.92148e-55
1.44222e-57
6.26443e-32
9.8129e-33
1.0603e-33
8.358e-35
5.19892e-36
2.721e-37
1.2402e-38
4.98478e-40
1.80356e-41
5.8411e-43
1.70418e-44
4.51837e-46
1.08785e-47
2.4062e-49
4.94641e-51
9.34934e-53
1.52812e-54
1.82697e-56
9.10802e-59
2.67817e-33
4.47321e-34
5.09153e-35
4.16473e-36
2.65864e-37
1.41881e-38
6.5596e-40
2.66609e-41
9.73221e-43
3.1735e-44
9.31762e-46
2.48558e-47
6.02727e-49
1.34716e-50
2.81408e-52
5.44192e-54
9.15771e-56
1.12915e-57
5.67906e-60
1.08126e-34
1.92748e-35
2.32228e-36
1.98192e-37
1.30527e-38
7.13656e-40
3.36134e-41
1.3869e-42
5.12527e-44
1.68784e-45
5.00016e-47
1.34497e-48
3.29073e-50
7.4423e-52
1.58112e-53
3.12964e-55
5.42258e-57
6.89304e-59
3.49412e-61
4.13635e-36
7.88887e-37
1.00998e-37
9.03566e-39
6.16783e-40
3.46982e-41
1.67152e-42
7.02617e-44
2.63686e-45
8.79437e-47
2.63502e-48
7.16116e-50
1.77074e-51
4.05702e-53
8.77271e-55
1.77796e-56
3.17174e-58
4.15487e-60
2.12064e-62
1.50311e-37
3.08185e-38
4.20588e-39
3.96015e-40
2.81315e-41
1.63458e-42
8.0821e-44
3.47211e-45
1.32706e-46
4.49373e-48
1.36475e-49
3.75411e-51
9.39505e-53
2.18295e-54
4.80744e-56
9.97863e-58
1.83258e-59
2.47267e-61
1.26954e-63
5.21444e-39
1.15416e-39
1.6841e-40
1.67462e-41
1.24229e-42
7.48035e-44
3.80811e-45
1.67679e-46
6.5434e-48
2.25477e-49
6.95431e-51
1.93934e-52
4.91835e-54
1.15997e-55
2.60306e-57
5.53448e-59
1.04618e-60
1.4532e-62
7.49859e-65
1.72366e-40
4.1585e-41
6.50964e-42
6.85729e-43
5.32861e-44
3.33478e-45
1.75275e-46
7.93014e-48
3.1667e-49
1.11264e-50
3.49099e-52
9.88323e-54
2.54281e-55
6.09183e-57
1.39355e-58
3.03516e-60
5.90404e-62
8.43777e-64
4.37198e-66
5.432e-42
1.4452e-42
2.43752e-43
2.72864e-44
2.22727e-45
1.45249e-46
7.90105e-48
3.68123e-49
1.5072e-50
5.40903e-52
1.72898e-53
4.97518e-55
1.29978e-56
3.16499e-58
7.38257e-60
1.6471e-61
3.29606e-63
4.84359e-65
2.51801e-67
1.63846e-43
4.85234e-44
8.86922e-45
1.05866e-45
9.10144e-47
6.19953e-48
3.49769e-49
1.6814e-50
7.07021e-52
2.59554e-53
8.4628e-55
2.47763e-56
6.5776e-58
1.62869e-59
3.87435e-61
8.85353e-63
1.82197e-64
2.75121e-66
1.43393e-68
4.73215e-45
1.57591e-45
3.14463e-46
4.01767e-47
3.6477e-48
2.60092e-49
1.52486e-50
7.57568e-52
3.27637e-53
1.23191e-54
4.10134e-56
1.22265e-57
3.30033e-59
8.3125e-61
2.01669e-62
4.71925e-64
9.98293e-66
1.54795e-67
8.08304e-70
1.22973e-46
4.96288e-47
1.08923e-47
1.496e-48
1.43832e-49
1.07578e-50
6.56515e-52
3.37569e-53
1.50339e-54
5.79557e-56
1.97182e-57
5.98927e-59
1.64454e-60
4.21414e-62
1.04264e-63
2.49779e-65
5.42854e-67
8.63745e-69
4.51591e-71
2.97829e-48
1.51741e-48
3.6948e-49
5.48086e-50
5.59587e-51
4.39898e-52
2.79878e-53
1.49127e-54
6.84616e-56
2.7082e-57
9.42253e-59
2.91761e-60
8.15179e-62
2.12545e-63
5.3621e-65
1.31454e-66
2.93353e-68
4.78588e-70
2.50394e-72
6.92936e-50
4.50901e-50
1.22991e-50
1.98007e-51
2.15292e-52
1.78226e-53
1.1839e-54
6.54428e-56
3.09978e-57
1.25921e-58
4.4828e-60
1.41563e-61
4.02579e-63
1.0681e-64
2.74707e-66
6.88865e-68
1.5774e-69
2.63646e-71
1.38019e-73
1.55601e-51
1.30154e-51
4.01831e-52
7.05876e-53
8.19803e-54
7.16071e-55
4.97356e-56
2.85546e-57
1.39675e-58
5.83103e-60
2.12534e-61
6.84826e-63
1.98292e-64
5.35421e-66
1.4037e-67
3.59887e-69
8.44931e-71
1.44542e-72
7.3043e-75
3.09897e-53
3.50298e-53
1.25104e-53
2.426e-54
3.0462e-55
2.83617e-56
2.07064e-57
1.23925e-58
6.27863e-60
2.69758e-61
1.00768e-62
3.31593e-64
9.78336e-66
2.69012e-67
7.19169e-69
1.88513e-70
4.5353e-72
7.93274e-74
3.02505e-76
6.19274e-54
3.54164e-54
6.66153e-55
8.57653e-56
8.43619e-57
6.69948e-58
4.64916e-59
2.73964e-60
1.37787e-61
6.08398e-63
2.34221e-64
7.90933e-66
2.38798e-67
6.71256e-69
1.83653e-70
4.93899e-72
1.22173e-73
2.1928e-75
2.92136e-76
)
;

boundaryField
{
    leftWall
    {
        type            zeroGradient;
    }
    rightWall
    {
        type            zeroGradient;
    }
    lowerWall
    {
        type            zeroGradient;
    }
    atmosphere
    {
        type            inletOutlet;
        inletValue      uniform 0;
        value           nonuniform List<scalar> 
46
(
0
0
0
0
0
0
0
0
0
0
0
0
0
0
0
0
0
0
0
0
5.7891e-56
4.53488e-55
5.55783e-54
6.03922e-54
6.19301e-54
6.217e-54
6.33311e-54
6.19274e-54
3.54164e-54
6.66153e-55
8.57653e-56
8.43619e-57
6.69948e-58
4.64916e-59
2.73964e-60
1.37787e-61
6.08398e-63
2.34221e-64
7.90933e-66
2.38798e-67
6.71256e-69
1.83653e-70
4.93899e-72
1.22173e-73
2.1928e-75
2.92136e-76
)
;
    }
    defaultFaces
    {
        type            empty;
    }
}


// ************************************************************************* //
