/*--------------------------------*- C++ -*----------------------------------*\
  =========                 |
  \\      /  F ield         | OpenFOAM: The Open Source CFD Toolbox
   \\    /   O peration     | Website:  https://openfoam.org
    \\  /    A nd           | Version:  7
     \\/     M anipulation  |
\*---------------------------------------------------------------------------*/
FoamFile
{
    version     2.0;
    format      ascii;
    class       volScalarField;
    location    "0.006";
    object      mag(U);
}
// * * * * * * * * * * * * * * * * * * * * * * * * * * * * * * * * * * * * * //

dimensions      [0 1 -1 0 0 0 0];

internalField   nonuniform List<scalar> 
1000
(
586.703
244.614
201.55
201.724
203.446
204.127
204.323
204.312
204.261
204.257
204.307
204.42
204.517
204.531
204.522
204.487
204.462
204.462
204.48
204.559
204.642
204.672
204.676
204.666
204.661
204.675
204.73
204.802
204.873
204.916
204.934
204.952
204.989
205.031
205.075
205.146
205.247
205.345
205.418
205.465
205.503
205.552
205.643
205.789
205.95
206.084
206.181
206.262
206.357
206.496
206.676
206.902
207.18
207.484
207.794
208.113
208.464
208.892
209.468
210.295
211.438
212.589
213.168
213.335
213.358
213.337
213.279
213.115
212.767
212.235
211.465
210.482
209.329
208.06
206.729
205.377
204.024
202.68
201.349
200.027
198.712
197.401
196.09
194.778
193.463
192.144
190.822
189.495
188.164
186.829
185.491
184.149
182.804
181.456
180.106
178.754
177.4
176.044
174.687
173.329
171.971
170.611
169.251
167.891
166.53
165.169
163.808
162.447
161.085
159.724
158.362
157.001
155.64
154.278
152.917
151.555
150.194
148.833
147.472
146.111
144.75
143.389
142.028
140.667
139.307
137.946
136.586
135.225
133.865
132.505
131.144
129.784
128.424
127.064
125.704
124.344
122.984
121.624
120.265
118.905
117.545
116.185
114.825
113.465
112.105
110.745
109.385
108.024
106.664
105.303
103.943
102.582
101.221
99.8597
98.4983
97.1367
95.7749
94.4128
93.0505
91.6879
90.325
88.9618
87.5983
86.2345
84.8703
83.5058
82.1409
80.7756
79.4099
78.0438
76.6772
75.3102
73.9427
72.5748
71.2063
69.8373
68.4678
67.0977
65.727
64.3557
62.9837
61.6111
60.2378
58.8638
57.4891
56.1135
54.7372
53.36
51.9819
50.6029
49.2229
47.842
46.46
45.0769
43.6927
42.3073
40.9206
39.5327
38.1434
36.7528
35.361
33.968
32.5744
31.1808
29.7882
28.3978
27.0109
25.6277
24.2453
22.8547
21.4362
19.9521
18.3357
16.471
14.1534
11.038
6.87198
3.05175
1.20063
0.477792
0.191989
0.0777446
0.0316888
0.0129872
0.00534568
0.00220709
0.000912853
0.000377734
0.000156188
6.4462e-05
2.65302e-05
1.08793e-05
4.44214e-06
1.80498e-06
7.29556e-07
2.93218e-07
1.17146e-07
4.65123e-08
1.83523e-08
7.19695e-09
2.80433e-09
1.08445e-09
4.17571e-10
1.5844e-10
5.94992e-11
2.17761e-11
7.54851e-12
2.26057e-12
3.73412e-13
3.40694e-13
7.2155e-13
1.21787e-12
2.50571e-12
6.10095e-12
1.55681e-11
4.05933e-11
1.04293e-10
2.70542e-10
7.01691e-10
1.81582e-09
4.67156e-09
1.19495e-08
3.03438e-08
7.65427e-08
1.91869e-07
4.78088e-07
1.1844e-06
2.91824e-06
7.15373e-06
1.74561e-05
4.2426e-05
0.000102783
0.000248433
0.000599729
0.00144769
0.0034989
0.0084781
0.0206228
0.0504206
0.12404
0.307385
0.768385
1.9443
4.81244
9.13055
12.7626
15.4078
17.4538
19.1678
20.702
22.1437
23.5425
24.9259
26.3075
27.6925
29.0818
30.4746
31.8694
33.265
34.6606
36.0557
37.4498
38.843
40.2351
41.6262
43.0162
44.4054
45.7936
47.1809
48.5675
49.9532
51.3382
52.7225
54.1062
55.4892
56.8716
58.2535
59.6348
61.0155
62.3958
63.7757
65.1551
66.5341
67.9126
69.2909
70.6687
72.0463
73.4235
74.8004
76.177
77.5533
78.9294
80.3052
81.6808
83.0562
84.4313
85.8062
87.1809
88.5555
89.9298
91.304
92.678
94.0519
95.4256
96.7992
98.1726
99.546
100.919
102.292
103.665
105.038
106.411
107.783
109.156
110.529
111.901
113.273
114.646
116.018
117.39
118.762
120.134
121.506
122.878
124.25
125.622
126.994
128.366
129.738
131.11
132.482
133.853
135.225
136.597
137.969
139.34
140.712
142.084
143.456
144.828
146.2
147.571
148.943
150.315
151.687
153.059
154.431
155.803
157.175
158.547
159.919
161.291
162.663
164.036
165.408
166.78
168.152
169.525
170.897
172.27
173.642
175.015
176.387
177.76
179.132
180.505
181.878
183.251
184.624
185.997
187.37
188.743
190.116
191.489
192.862
194.235
195.609
196.982
198.355
199.729
201.102
202.476
203.85
205.223
206.597
207.971
209.345
210.718
212.092
213.466
214.84
216.214
217.588
218.962
220.336
221.711
223.085
224.459
225.833
227.207
228.581
229.955
231.33
232.704
234.078
235.452
236.826
238.2
239.574
240.948
242.322
243.695
245.069
246.443
247.816
249.19
250.563
251.936
253.309
254.682
256.055
257.427
258.8
260.172
261.544
262.915
264.287
265.658
267.029
268.4
269.77
271.14
272.509
273.878
275.246
276.613
277.98
279.344
280.707
282.066
283.42
284.764
286.092
287.389
288.632
289.783
290.797
291.632
292.268
292.72
293.033
293.258
293.429
293.56
293.65
293.698
293.718
293.722
293.72
293.71
293.702
293.697
293.693
293.686
293.667
293.616
293.544
293.491
293.462
293.446
293.439
293.433
293.424
293.405
293.365
293.322
293.293
293.276
293.267
293.26
293.252
293.233
293.19
293.137
293.106
293.095
293.096
293.12
293.183
293.237
293.268
293.287
293.302
293.321
293.35
293.381
293.401
293.409
293.408
293.398
293.386
293.383
293.385
293.398
293.41
293.412
293.408
293.383
293.351
293.334
293.329
293.328
293.329
293.329
293.319
293.289
293.257
293.241
293.233
293.23
293.228
293.223
293.209
293.198
293.194
293.198
293.225
293.28
293.317
293.336
293.34
293.337
293.329
293.327
293.332
293.355
293.374
293.38
293.379
293.362
293.346
293.341
293.343
293.357
293.368
293.37
293.361
293.328
293.303
293.293
293.293
293.303
293.313
293.315
293.306
293.269
293.241
293.23
293.229
293.237
293.252
293.26
293.26
293.254
293.253
293.259
293.291
293.327
293.347
293.352
293.346
293.325
293.315
293.317
293.335
293.361
293.375
293.378
293.359
293.331
293.32
293.322
293.337
293.354
293.361
293.358
293.324
293.292
293.284
293.287
293.301
293.319
293.326
293.32
293.275
293.242
293.233
293.237
293.253
293.281
293.301
293.303
293.28
293.271
293.28
293.303
293.325
293.352
293.364
293.346
293.307
293.298
293.307
293.322
293.341
293.372
293.384
293.353
293.312
293.301
293.311
293.317
293.335
293.366
293.359
293.305
293.274
293.275
293.281
293.29
293.322
293.359
293.352
293.349
293.429
293.763
294.172
289.996
291.09
295.43
297.444
296.652
292.718
290.799
290.67
290.819
291.219
292.501
294.937
295.95
295.915
295.376
293.748
291.557
291.025
290.984
291.375
293.063
295.05
295.431
295.471
295.037
293.344
291.624
291.336
291.443
291.897
293.397
294.754
295
294.943
294.569
293.23
291.961
291.745
291.775
292.174
293.55
294.507
294.663
294.652
294.263
292.99
292.105
292.007
292.088
292.483
293.615
294.31
294.425
294.342
294.007
293.009
292.377
292.31
292.362
292.705
293.661
294.14
294.227
294.194
293.843
292.925
292.524
292.496
292.552
292.876
293.669
294.034
294.066
293.979
293.684
292.972
292.678
292.652
292.699
292.97
293.617
293.879
293.921
293.874
293.582
292.966
292.775
292.752
292.797
293.051
293.598
293.801
293.803
293.736
293.493
293.02
292.872
292.86
292.91
293.113
293.545
293.699
293.718
293.677
293.456
293.063
292.956
292.938
292.975
293.175
293.546
293.654
293.654
293.607
293.417
293.1
293.002
292.998
293.042
293.195
293.49
293.577
293.579
293.547
293.39
293.127
293.055
293.04
293.067
293.217
293.48
293.595
293.79
294.277
295.637
298.633
302.447
305.776
308.487
310.81
313.048
315.288
317.265
319.04
320.765
322.485
324.221
325.998
327.836
329.81
332.133
334.327
336.2
337.821
337.486
321.937
216.139
73.3956
54.0487
53.3463
54.6356
56.267
57.6817
59.0164
60.3775
61.7512
63.1204
64.4867
65.853
67.2192
68.5848
69.9497
71.3142
72.6782
74.0418
75.405
76.7677
78.13
79.492
80.8536
82.2148
83.5758
84.9364
86.2967
87.6568
89.0166
90.3762
91.7355
93.0947
94.4536
95.8124
97.1711
98.5296
99.888
101.246
102.605
103.963
105.321
106.679
108.037
109.395
110.753
112.111
113.469
114.827
116.185
117.544
118.902
120.26
121.619
122.977
124.336
125.694
127.053
128.412
129.771
131.13
132.489
133.848
135.207
136.566
137.925
139.285
140.644
142.003
143.362
144.721
146.08
147.439
148.797
150.155
151.513
152.87
154.226
155.582
156.936
158.288
159.639
160.987
162.333
163.677
165.016
166.352
167.684
169.011
170.333
171.651
172.964
174.272
175.578
176.882
178.187
179.495
180.81
182.132
183.459
184.779
186.067
187.282
188.37
189.272
189.961
190.415
190.675
190.817
190.848
190.845
190.776
190.477
189.702
188.694
187.861
187.23
186.75
186.386
186.102
185.853
185.605
185.339
185.073
184.849
184.687
184.575
184.485
184.405
184.329
184.233
184.102
183.972
183.866
183.784
183.744
183.72
183.691
183.635
183.534
183.42
183.355
183.333
183.326
183.316
183.299
183.268
183.198
183.112
183.068
183.044
183.042
183.063
183.08
183.08
183.02
182.893
182.814
182.805
182.852
182.969
183.016
183.02
182.755
183.156
228.455
523.744
)
;

boundaryField
{
    sides
    {
        type            calculated;
        value           nonuniform List<scalar> 2(523.744 586.703);
    }
    null
    {
        type            empty;
    }
}


// ************************************************************************* //
