/*--------------------------------*- C++ -*----------------------------------*\
  =========                 |
  \\      /  F ield         | OpenFOAM: The Open Source CFD Toolbox
   \\    /   O peration     | Website:  https://openfoam.org
    \\  /    A nd           | Version:  7
     \\/     M anipulation  |
\*---------------------------------------------------------------------------*/
FoamFile
{
    version     2.0;
    format      ascii;
    class       volVectorField;
    location    "0.006";
    object      U;
}
// * * * * * * * * * * * * * * * * * * * * * * * * * * * * * * * * * * * * * //

dimensions      [0 1 -1 0 0 0 0];

internalField   nonuniform List<vector> 
1000
(
(7.5364e-13 0 0)
(7.79867e-13 0 0)
(7.00558e-13 0 0)
(5.84204e-13 0 0)
(4.10192e-13 0 0)
(2.91767e-13 0 0)
(3.35024e-13 0 0)
(3.51153e-13 0 0)
(2.39916e-13 0 0)
(1.58133e-13 0 0)
(2.14636e-13 0 0)
(2.34874e-13 0 0)
(1.54543e-13 0 0)
(1.1647e-13 0 0)
(4.78026e-14 0 0)
(-1.13062e-14 0 0)
(4.62493e-14 0 0)
(7.09634e-14 0 0)
(9.79876e-14 0 0)
(1.08912e-13 0 0)
(1.38272e-13 0 0)
(1.16438e-13 0 0)
(1.4014e-13 0 0)
(1.59103e-13 0 0)
(8.89625e-14 0 0)
(2.30856e-14 0 0)
(-6.57374e-14 0 0)
(-6.30248e-14 0 0)
(1.02425e-13 0 0)
(8.67537e-14 0 0)
(1.02623e-13 0 0)
(2.0347e-13 0 0)
(2.34859e-13 0 0)
(1.47741e-13 0 0)
(1.16489e-13 0 0)
(1.55345e-13 0 0)
(1.18163e-13 0 0)
(8.59547e-14 0 0)
(9.11125e-14 0 0)
(5.54222e-14 0 0)
(6.21524e-14 0 0)
(1.02421e-13 0 0)
(9.44461e-14 0 0)
(8.87446e-14 0 0)
(5.7795e-14 0 0)
(3.69691e-14 0 0)
(-1.60049e-15 0 0)
(-6.78942e-14 0 0)
(-6.3493e-15 0 0)
(1.13433e-13 0 0)
(3.76738e-14 0 0)
(-7.54655e-14 0 0)
(-9.64847e-14 0 0)
(-2.07947e-14 0 0)
(-5.31396e-14 0 0)
(-1.12784e-13 0 0)
(-1.534e-13 0 0)
(-2.35953e-13 0 0)
(-1.90274e-13 0 0)
(-1.78816e-13 0 0)
(-1.14446e-13 0 0)
(-6.35724e-14 0 0)
(-8.04582e-14 0 0)
(-8.41018e-14 0 0)
(-1.19456e-13 0 0)
(-1.62308e-13 0 0)
(-1.63339e-13 0 0)
(-1.46231e-13 0 0)
(-1.59923e-13 0 0)
(-1.06325e-13 0 0)
(-3.50477e-14 0 0)
(1.81202e-14 0 0)
(2.58715e-14 0 0)
(6.23966e-14 0 0)
(6.52028e-14 0 0)
(8.85956e-14 0 0)
(1.87456e-14 0 0)
(-1.13579e-14 0 0)
(3.03371e-14 0 0)
(1.106e-13 0 0)
(1.24674e-13 0 0)
(1.27283e-13 0 0)
(3.72754e-14 0 0)
(-5.01722e-14 0 0)
(-9.13024e-14 0 0)
(-9.46343e-14 0 0)
(-1.17402e-13 0 0)
(-1.80462e-13 0 0)
(-2.08002e-13 0 0)
(-1.29083e-13 0 0)
(-8.88289e-14 0 0)
(-8.27176e-14 0 0)
(-2.25553e-14 0 0)
(2.18816e-14 0 0)
(-5.71215e-14 0 0)
(-4.1914e-14 0 0)
(-7.26486e-14 0 0)
(-4.19697e-14 0 0)
(-3.24834e-14 0 0)
(-1.0024e-13 0 0)
(-1.40663e-13 0 0)
(-1.67511e-13 0 0)
(-2.01976e-13 0 0)
(-2.17315e-13 0 0)
(-2.76069e-13 0 0)
(-2.55971e-13 0 0)
(-1.94251e-13 0 0)
(-1.46755e-13 0 0)
(-2.68314e-13 0 0)
(-2.58874e-13 0 0)
(-2.00195e-13 0 0)
(-1.86986e-13 0 0)
(-2.598e-13 0 0)
(-2.8147e-13 0 0)
(-2.90122e-13 0 0)
(-2.57826e-13 0 0)
(-2.55843e-13 0 0)
(-2.57772e-13 0 0)
(-2.01214e-13 0 0)
(-1.38684e-13 0 0)
(-5.59904e-14 0 0)
(1.40424e-14 0 0)
(7.71796e-14 0 0)
(4.75505e-14 0 0)
(-1.6585e-14 0 0)
(-8.17e-14 0 0)
(-8.0274e-14 0 0)
(-7.11911e-14 0 0)
(-7.54734e-14 0 0)
(-9.01324e-14 0 0)
(2.76716e-15 0 0)
(-3.54733e-14 0 0)
(-7.45075e-15 0 0)
(-8.02614e-14 0 0)
(-1.36055e-13 0 0)
(-2.43636e-13 0 0)
(-2.80439e-13 0 0)
(-3.03039e-13 0 0)
(-2.0686e-13 0 0)
(-1.98883e-13 0 0)
(-1.90047e-13 0 0)
(-1.7181e-13 0 0)
(-1.2448e-13 0 0)
(-1.01739e-13 0 0)
(-1.49659e-14 0 0)
(-6.41176e-14 0 0)
(-6.08971e-14 0 0)
(-1.60808e-13 0 0)
(-2.09398e-13 0 0)
(-2.25589e-13 0 0)
(-1.65816e-13 0 0)
(-9.68697e-14 0 0)
(-1.38097e-13 0 0)
(-5.7667e-14 0 0)
(-1.39334e-13 0 0)
(-1.46197e-13 0 0)
(-2.65262e-14 0 0)
(-1.05939e-13 0 0)
(-1.62306e-13 0 0)
(-1.09772e-13 0 0)
(-1.27497e-13 0 0)
(-1.72395e-13 0 0)
(-1.86838e-13 0 0)
(-1.98826e-13 0 0)
(-2.39367e-13 0 0)
(-1.96462e-13 0 0)
(-1.22336e-13 0 0)
(7.54358e-15 0 0)
(1.07779e-13 0 0)
(5.47332e-14 0 0)
(4.42082e-14 0 0)
(3.82085e-14 0 0)
(4.12743e-14 0 0)
(2.73781e-14 0 0)
(9.65474e-14 0 0)
(1.24084e-13 0 0)
(1.25931e-13 0 0)
(9.29361e-14 0 0)
(1.39203e-13 0 0)
(5.7036e-14 0 0)
(2.08199e-14 0 0)
(-1.21637e-15 0 0)
(1.30654e-14 0 0)
(5.13762e-14 0 0)
(5.6422e-14 0 0)
(5.69531e-14 0 0)
(6.24947e-14 0 0)
(4.47161e-14 0 0)
(-9.19382e-14 0 0)
(-7.51357e-14 0 0)
(-4.46964e-14 0 0)
(-6.04163e-14 0 0)
(3.03598e-14 0 0)
(7.34855e-14 0 0)
(1.58411e-13 0 0)
(1.43707e-13 0 0)
(8.63625e-14 0 0)
(6.32427e-14 0 0)
(1.63089e-13 0 0)
(1.40126e-13 0 0)
(1.04535e-13 0 0)
(1.24587e-13 0 0)
(2.1854e-13 0 0)
(3.90188e-13 0 0)
(3.68772e-13 0 0)
(2.7575e-13 0 0)
(2.17655e-13 0 0)
(1.7938e-13 0 0)
(1.53367e-13 0 0)
(1.20211e-13 0 0)
(8.60292e-14 0 0)
(9.05604e-15 0 0)
(1.21593e-15 0 0)
(-2.65746e-14 0 0)
(2.60243e-14 0 0)
(1.62028e-13 0 0)
(7.17576e-14 0 0)
(6.93426e-15 0 0)
(3.31959e-14 0 0)
(-7.95992e-15 0 0)
(-1.11585e-13 0 0)
(-1.66636e-13 0 0)
(-2.00701e-13 0 0)
(-2.50023e-13 0 0)
(-1.98975e-13 0 0)
(-2.11873e-13 0 0)
(-1.60006e-13 0 0)
(-1.6655e-13 0 0)
(-1.04898e-13 0 0)
(-1.09144e-13 0 0)
(-3.94306e-14 0 0)
(-8.25656e-14 0 0)
(-3.17725e-14 0 0)
(4.44665e-14 0 0)
(1.41577e-14 0 0)
(4.78534e-14 0 0)
(7.82539e-15 0 0)
(-5.36556e-14 0 0)
(-3.75105e-14 0 0)
(-1.35379e-14 0 0)
(3.92476e-14 0 0)
(1.26504e-13 0 0)
(1.15959e-13 0 0)
(4.91335e-14 0 0)
(1.22299e-13 0 0)
(1.00981e-13 0 0)
(7.67564e-14 0 0)
(1.48608e-13 0 0)
(1.99327e-13 0 0)
(1.2353e-13 0 0)
(4.59747e-14 0 0)
(3.23213e-14 0 0)
(7.24783e-15 0 0)
(6.4297e-14 0 0)
(2.70372e-13 0 0)
(8.16542e-13 0 0)
(2.93753e-12 0 0)
(9.05877e-12 0 0)
(2.50491e-11 0 0)
(6.97195e-11 0 0)
(1.90867e-10 0 0)
(5.18338e-10 0 0)
(1.39558e-09 0 0)
(3.73139e-09 0 0)
(9.91853e-09 0 0)
(2.6252e-08 0 0)
(6.91807e-08 0 0)
(1.8159e-07 0 0)
(4.75046e-07 0 0)
(1.23948e-06 0 0)
(3.22812e-06 0 0)
(8.40023e-06 0 0)
(2.18638e-05 0 0)
(5.69848e-05 0 0)
(0.000148908 0 0)
(0.000390589 0 0)
(0.00102955 0 0)
(0.00272977 0 0)
(0.00728583 0 0)
(0.0195856 0 0)
(0.0530432 0 0)
(0.144755 0 0)
(0.398198 0 0)
(1.10521 0 0)
(3.12201 0 0)
(7.99098 0 0)
(13.4149 0 0)
(17.0704 0 0)
(19.5563 0 0)
(21.4343 0 0)
(22.9942 0 0)
(24.3893 0 0)
(25.7063 0 0)
(26.996 0 0)
(28.2874 0 0)
(29.5951 0 0)
(30.9238 0 0)
(32.2718 0 0)
(33.6349 0 0)
(35.0081 0 0)
(36.3873 0 0)
(37.7696 0 0)
(39.1533 0 0)
(40.5374 0 0)
(41.9214 0 0)
(43.305 0 0)
(44.6882 0 0)
(46.0708 0 0)
(47.453 0 0)
(48.8346 0 0)
(50.2156 0 0)
(51.5962 0 0)
(52.9763 0 0)
(54.3559 0 0)
(55.735 0 0)
(57.1136 0 0)
(58.4918 0 0)
(59.8695 0 0)
(61.2469 0 0)
(62.6238 0 0)
(64.0004 0 0)
(65.3766 0 0)
(66.7525 0 0)
(68.1281 0 0)
(69.5034 0 0)
(70.8783 0 0)
(72.253 0 0)
(73.6274 0 0)
(75.0016 0 0)
(76.3756 0 0)
(77.7493 0 0)
(79.1228 0 0)
(80.4961 0 0)
(81.8693 0 0)
(83.2422 0 0)
(84.615 0 0)
(85.9876 0 0)
(87.36 0 0)
(88.7323 0 0)
(90.1045 0 0)
(91.4765 0 0)
(92.8484 0 0)
(94.2201 0 0)
(95.5918 0 0)
(96.9633 0 0)
(98.3348 0 0)
(99.7061 0 0)
(101.077 0 0)
(102.449 0 0)
(103.82 0 0)
(105.191 0 0)
(106.562 0 0)
(107.932 0 0)
(109.303 0 0)
(110.674 0 0)
(112.045 0 0)
(113.415 0 0)
(114.786 0 0)
(116.157 0 0)
(117.527 0 0)
(118.898 0 0)
(120.268 0 0)
(121.639 0 0)
(123.009 0 0)
(124.379 0 0)
(125.75 0 0)
(127.12 0 0)
(128.491 0 0)
(129.861 0 0)
(131.231 0 0)
(132.602 0 0)
(133.972 0 0)
(135.342 0 0)
(136.713 0 0)
(138.083 0 0)
(139.454 0 0)
(140.824 0 0)
(142.195 0 0)
(143.565 0 0)
(144.935 0 0)
(146.306 0 0)
(147.677 0 0)
(149.047 0 0)
(150.418 0 0)
(151.788 0 0)
(153.159 0 0)
(154.53 0 0)
(155.9 0 0)
(157.271 0 0)
(158.642 0 0)
(160.013 0 0)
(161.384 0 0)
(162.755 0 0)
(164.126 0 0)
(165.497 0 0)
(166.868 0 0)
(168.239 0 0)
(169.61 0 0)
(170.981 0 0)
(172.353 0 0)
(173.724 0 0)
(175.095 0 0)
(176.467 0 0)
(177.838 0 0)
(179.21 0 0)
(180.582 0 0)
(181.953 0 0)
(183.325 0 0)
(184.697 0 0)
(186.069 0 0)
(187.441 0 0)
(188.813 0 0)
(190.185 0 0)
(191.557 0 0)
(192.929 0 0)
(194.301 0 0)
(195.673 0 0)
(197.046 0 0)
(198.418 0 0)
(199.79 0 0)
(201.163 0 0)
(202.535 0 0)
(203.908 0 0)
(205.281 0 0)
(206.653 0 0)
(208.026 0 0)
(209.399 0 0)
(210.772 0 0)
(212.145 0 0)
(213.518 0 0)
(214.891 0 0)
(216.264 0 0)
(217.637 0 0)
(219.01 0 0)
(220.383 0 0)
(221.756 0 0)
(223.129 0 0)
(224.502 0 0)
(225.875 0 0)
(227.248 0 0)
(228.622 0 0)
(229.995 0 0)
(231.368 0 0)
(232.741 0 0)
(234.114 0 0)
(235.487 0 0)
(236.861 0 0)
(238.234 0 0)
(239.607 0 0)
(240.979 0 0)
(242.352 0 0)
(243.725 0 0)
(245.098 0 0)
(246.471 0 0)
(247.843 0 0)
(249.216 0 0)
(250.588 0 0)
(251.96 0 0)
(253.332 0 0)
(254.704 0 0)
(256.076 0 0)
(257.447 0 0)
(258.819 0 0)
(260.19 0 0)
(261.561 0 0)
(262.932 0 0)
(264.302 0 0)
(265.673 0 0)
(267.043 0 0)
(268.412 0 0)
(269.782 0 0)
(271.151 0 0)
(272.519 0 0)
(273.887 0 0)
(275.255 0 0)
(276.621 0 0)
(277.987 0 0)
(279.351 0 0)
(280.713 0 0)
(282.072 0 0)
(283.425 0 0)
(284.769 0 0)
(286.097 0 0)
(287.394 0 0)
(288.636 0 0)
(289.787 0 0)
(290.802 0 0)
(291.637 0 0)
(292.273 0 0)
(292.726 0 0)
(293.039 0 0)
(293.258 0 0)
(293.419 0 0)
(293.537 0 0)
(293.615 0 0)
(293.653 0 0)
(293.668 0 0)
(293.67 0 0)
(293.669 0 0)
(293.668 0 0)
(293.668 0 0)
(293.67 0 0)
(293.671 0 0)
(293.667 0 0)
(293.64 0 0)
(293.571 0 0)
(293.507 0 0)
(293.473 0 0)
(293.461 0 0)
(293.458 0 0)
(293.458 0 0)
(293.456 0 0)
(293.441 0 0)
(293.393 0 0)
(293.337 0 0)
(293.304 0 0)
(293.289 0 0)
(293.283 0 0)
(293.279 0 0)
(293.275 0 0)
(293.264 0 0)
(293.228 0 0)
(293.156 0 0)
(293.097 0 0)
(293.068 0 0)
(293.058 0 0)
(293.059 0 0)
(293.075 0 0)
(293.124 0 0)
(293.172 0 0)
(293.21 0 0)
(293.247 0 0)
(293.296 0 0)
(293.353 0 0)
(293.397 0 0)
(293.42 0 0)
(293.428 0 0)
(293.426 0 0)
(293.41 0 0)
(293.399 0 0)
(293.398 0 0)
(293.409 0 0)
(293.436 0 0)
(293.45 0 0)
(293.451 0 0)
(293.437 0 0)
(293.393 0 0)
(293.361 0 0)
(293.351 0 0)
(293.35 0 0)
(293.355 0 0)
(293.358 0 0)
(293.355 0 0)
(293.325 0 0)
(293.273 0 0)
(293.243 0 0)
(293.231 0 0)
(293.228 0 0)
(293.227 0 0)
(293.223 0 0)
(293.199 0 0)
(293.15 0 0)
(293.121 0 0)
(293.113 0 0)
(293.124 0 0)
(293.189 0 0)
(293.274 0 0)
(293.316 0 0)
(293.332 0 0)
(293.334 0 0)
(293.326 0 0)
(293.321 0 0)
(293.324 0 0)
(293.352 0 0)
(293.39 0 0)
(293.408 0 0)
(293.411 0 0)
(293.397 0 0)
(293.368 0 0)
(293.355 0 0)
(293.355 0 0)
(293.372 0 0)
(293.397 0 0)
(293.405 0 0)
(293.403 0 0)
(293.368 0 0)
(293.321 0 0)
(293.3 0 0)
(293.295 0 0)
(293.303 0 0)
(293.319 0 0)
(293.325 0 0)
(293.319 0 0)
(293.278 0 0)
(293.227 0 0)
(293.202 0 0)
(293.194 0 0)
(293.194 0 0)
(293.198 0 0)
(293.2 0 0)
(293.196 0 0)
(293.186 0 0)
(293.184 0 0)
(293.195 0 0)
(293.249 0 0)
(293.32 0 0)
(293.361 0 0)
(293.378 0 0)
(293.377 0 0)
(293.349 0 0)
(293.324 0 0)
(293.319 0 0)
(293.333 0 0)
(293.376 0 0)
(293.407 0 0)
(293.419 0 0)
(293.415 0 0)
(293.374 0 0)
(293.346 0 0)
(293.34 0 0)
(293.351 0 0)
(293.381 0 0)
(293.399 0 0)
(293.4 0 0)
(293.372 0 0)
(293.307 0 0)
(293.275 0 0)
(293.27 0 0)
(293.283 0 0)
(293.316 0 0)
(293.335 0 0)
(293.336 0 0)
(293.3 0 0)
(293.225 0 0)
(293.185 0 0)
(293.172 0 0)
(293.174 0 0)
(293.193 0 0)
(293.231 0 0)
(293.247 0 0)
(293.24 0 0)
(293.226 0 0)
(293.234 0 0)
(293.27 0 0)
(293.318 0 0)
(293.362 0 0)
(293.395 0 0)
(293.398 0 0)
(293.348 0 0)
(293.305 0 0)
(293.303 0 0)
(293.326 0 0)
(293.356 0 0)
(293.397 0 0)
(293.427 0 0)
(293.422 0 0)
(293.359 0 0)
(293.321 0 0)
(293.322 0 0)
(293.34 0 0)
(293.355 0 0)
(293.38 0 0)
(293.408 0 0)
(293.373 0 0)
(293.28 0 0)
(293.248 0 0)
(293.26 0 0)
(293.277 0 0)
(293.299 0 0)
(293.342 0 0)
(293.367 0 0)
(293.291 0 0)
(293.22 0 0)
(293.228 0 0)
(293.348 0 0)
(293.908 0 0)
(293.744 0 0)
(287.412 0 0)
(291.583 0 0)
(296.551 0 0)
(298.992 0 0)
(298.218 0 0)
(292.44 0 0)
(289.867 0 0)
(289.722 0 0)
(289.827 0 0)
(290.19 0 0)
(291.569 0 0)
(295.455 0 0)
(297.37 0 0)
(297.42 0 0)
(296.731 0 0)
(294.161 0 0)
(290.629 0 0)
(289.886 0 0)
(289.793 0 0)
(290.13 0 0)
(292.254 0 0)
(296.059 0 0)
(296.861 0 0)
(296.993 0 0)
(296.5 0 0)
(293.688 0 0)
(290.397 0 0)
(289.871 0 0)
(289.994 0 0)
(290.527 0 0)
(292.812 0 0)
(295.884 0 0)
(296.48 0 0)
(296.461 0 0)
(295.997 0 0)
(293.679 0 0)
(290.746 0 0)
(290.234 0 0)
(290.211 0 0)
(290.669 0 0)
(293.118 0 0)
(295.68 0 0)
(296.097 0 0)
(296.16 0 0)
(295.667 0 0)
(293.15 0 0)
(290.709 0 0)
(290.406 0 0)
(290.494 0 0)
(291.038 0 0)
(293.367 0 0)
(295.534 0 0)
(295.931 0 0)
(295.837 0 0)
(295.342 0 0)
(293.165 0 0)
(291.122 0 0)
(290.875 0 0)
(290.913 0 0)
(291.379 0 0)
(293.609 0 0)
(295.372 0 0)
(295.673 0 0)
(295.699 0 0)
(295.188 0 0)
(292.841 0 0)
(291.258 0 0)
(291.095 0 0)
(291.135 0 0)
(291.625 0 0)
(293.72 0 0)
(295.297 0 0)
(295.512 0 0)
(295.382 0 0)
(294.869 0 0)
(292.868 0 0)
(291.513 0 0)
(291.347 0 0)
(291.389 0 0)
(291.812 0 0)
(293.681 0 0)
(295.007 0 0)
(295.211 0 0)
(295.186 0 0)
(294.694 0 0)
(292.699 0 0)
(291.612 0 0)
(291.471 0 0)
(291.484 0 0)
(291.942 0 0)
(293.762 0 0)
(294.893 0 0)
(295.002 0 0)
(294.89 0 0)
(294.404 0 0)
(292.676 0 0)
(291.756 0 0)
(291.64 0 0)
(291.731 0 0)
(292.15 0 0)
(293.741 0 0)
(294.739 0 0)
(294.868 0 0)
(294.831 0 0)
(294.403 0 0)
(292.766 0 0)
(291.97 0 0)
(291.852 0 0)
(291.869 0 0)
(292.297 0 0)
(293.862 0 0)
(294.681 0 0)
(294.756 0 0)
(294.688 0 0)
(294.256 0 0)
(292.805 0 0)
(292.071 0 0)
(291.976 0 0)
(292.075 0 0)
(292.455 0 0)
(293.793 0 0)
(294.505 0 0)
(294.567 0 0)
(294.523 0 0)
(294.155 0 0)
(292.822 0 0)
(292.196 0 0)
(292.092 0 0)
(292.11 0 0)
(292.49 0 0)
(293.805 0 0)
(294.381 0 0)
(294.431 0 0)
(294.396 0 0)
(294.051 0 0)
(292.836 0 0)
(292.196 0 0)
(292.131 0 0)
(292.201 0 0)
(292.53 0 0)
(293.66 0 0)
(294.209 0 0)
(294.277 0 0)
(294.253 0 0)
(293.997 0 0)
(292.951 0 0)
(292.383 0 0)
(292.302 0 0)
(292.32 0 0)
(292.601 0 0)
(293.67 0 0)
(294.211 0 0)
(294.228 0 0)
(293.484 0 0)
(284.451 0 0)
(204.863 0 0)
(31.4673 0 0)
(2.21586 0 0)
(0.147291 0 0)
(0.00976018 0 0)
(0.000647319 0 0)
(4.29934e-05 0 0)
(2.86061e-06 0 0)
(1.90708e-07 0 0)
(1.27387e-08 0 0)
(8.52221e-10 0 0)
(5.6965e-11 0 0)
(3.65125e-12 0 0)
(1.56427e-13 0 0)
(-9.21192e-14 0 0)
(-1.37953e-13 0 0)
(-1.25304e-13 0 0)
(-4.01716e-14 0 0)
(-9.23015e-14 0 0)
(-1.11023e-13 0 0)
(-9.26914e-14 0 0)
(-2.00525e-14 0 0)
(6.75776e-14 0 0)
(1.19411e-13 0 0)
(4.97701e-14 0 0)
(3.88748e-14 0 0)
(1.1845e-13 0 0)
(2.37228e-13 0 0)
(3.39323e-13 0 0)
(3.38302e-13 0 0)
(3.48223e-13 0 0)
(2.69313e-13 0 0)
(1.32856e-13 0 0)
(3.77955e-14 0 0)
(2.31086e-14 0 0)
(1.01938e-13 0 0)
(1.77828e-13 0 0)
(1.70524e-13 0 0)
(2.31307e-13 0 0)
(2.73306e-13 0 0)
(2.9263e-13 0 0)
(3.13668e-13 0 0)
(3.71526e-13 0 0)
(3.59548e-13 0 0)
(4.41916e-13 0 0)
(5.02297e-13 0 0)
(4.48339e-13 0 0)
(3.03663e-13 0 0)
(2.58605e-13 0 0)
(2.06663e-13 0 0)
(1.31054e-13 0 0)
(2.02149e-13 0 0)
(1.94741e-13 0 0)
(1.99298e-13 0 0)
(2.13936e-13 0 0)
(2.64181e-13 0 0)
(2.68453e-13 0 0)
(1.6588e-13 0 0)
(9.29641e-14 0 0)
(1.34897e-13 0 0)
(8.33962e-14 0 0)
(3.50232e-14 0 0)
(6.38544e-14 0 0)
(1.33088e-13 0 0)
(1.47595e-13 0 0)
(1.90628e-13 0 0)
(1.4534e-13 0 0)
(9.023e-14 0 0)
(9.70628e-14 0 0)
(2.59461e-14 0 0)
(-5.03621e-14 0 0)
(1.98136e-14 0 0)
(6.08241e-14 0 0)
(7.89705e-14 0 0)
(-4.56864e-14 0 0)
(3.49553e-14 0 0)
(1.35339e-13 0 0)
(2.13529e-13 0 0)
(2.97564e-13 0 0)
(1.82534e-13 0 0)
(1.54908e-13 0 0)
(1.3666e-13 0 0)
(-2.32819e-15 0 0)
(-3.35187e-14 0 0)
(7.12443e-14 0 0)
(1.1149e-13 0 0)
(1.28715e-13 0 0)
(2.1637e-13 0 0)
(3.37694e-13 0 0)
(4.10966e-13 0 0)
(3.19229e-13 0 0)
(2.4439e-13 0 0)
(1.72804e-13 0 0)
(1.15987e-13 0 0)
(1.59934e-13 0 0)
(2.89488e-13 0 0)
(2.15994e-13 0 0)
(1.42286e-13 0 0)
(2.16232e-13 0 0)
(1.53257e-13 0 0)
(1.35293e-13 0 0)
(2.16687e-13 0 0)
(2.69471e-13 0 0)
(1.91729e-13 0 0)
(1.30241e-13 0 0)
(2.93671e-13 0 0)
(3.86409e-13 0 0)
(3.61957e-13 0 0)
(2.39001e-13 0 0)
(1.61958e-13 0 0)
(1.53359e-13 0 0)
(2.29968e-13 0 0)
(2.85108e-13 0 0)
(2.78017e-13 0 0)
(3.02594e-13 0 0)
(3.54488e-13 0 0)
(3.79617e-13 0 0)
(3.81537e-13 0 0)
(4.05943e-13 0 0)
(3.16345e-13 0 0)
(2.47161e-13 0 0)
(2.48296e-13 0 0)
(1.67239e-13 0 0)
(2.24467e-13 0 0)
(1.43094e-13 0 0)
(7.61371e-14 0 0)
(7.7669e-14 0 0)
(4.27127e-14 0 0)
(7.18093e-14 0 0)
(8.23669e-14 0 0)
(2.81327e-14 0 0)
(3.07407e-14 0 0)
(1.15e-13 0 0)
(1.98332e-13 0 0)
(2.50257e-13 0 0)
(1.4197e-13 0 0)
(1.01864e-13 0 0)
(8.91962e-14 0 0)
(8.6098e-14 0 0)
(6.42618e-14 0 0)
(4.78238e-14 0 0)
(1.12596e-13 0 0)
(1.40777e-13 0 0)
(9.6524e-15 0 0)
(-4.73036e-14 0 0)
(7.61023e-15 0 0)
(-3.27969e-14 0 0)
(-1.20465e-13 0 0)
(-1.09751e-13 0 0)
(-2.47874e-13 0 0)
(-2.76202e-13 0 0)
(-2.28415e-13 0 0)
(-2.96581e-13 0 0)
(-2.33075e-13 0 0)
(-2.86465e-13 0 0)
(-2.90072e-13 0 0)
(-3.2424e-13 0 0)
(-3.89238e-13 0 0)
(-5.37557e-13 0 0)
(-6.64051e-13 0 0)
(-5.89152e-13 0 0)
(-5.27362e-13 0 0)
(-5.04988e-13 0 0)
(-5.26398e-13 0 0)
(-5.02936e-13 0 0)
(-4.84644e-13 0 0)
(-5.36914e-13 0 0)
(-5.39045e-13 0 0)
)
;

boundaryField
{
    sides
    {
        type            zeroGradient;
    }
    empty
    {
        type            empty;
    }
}


// ************************************************************************* //
