/*--------------------------------*- C++ -*----------------------------------*\
  =========                 |
  \\      /  F ield         | OpenFOAM: The Open Source CFD Toolbox
   \\    /   O peration     | Website:  https://openfoam.org
    \\  /    A nd           | Version:  7
     \\/     M anipulation  |
\*---------------------------------------------------------------------------*/
FoamFile
{
    version     2.0;
    format      ascii;
    class       scalarField;
    location    "0.02/lagrangian/dsmc";
    object      Ei;
}
// * * * * * * * * * * * * * * * * * * * * * * * * * * * * * * * * * * * * * //


265951
(
2.10637e-21
1.3669e-21
3.40683e-21
1.65575e-21
1.46912e-21
1.70315e-21
1.37791e-21
7.56611e-22
3.12318e-22
1.43223e-21
3.52508e-21
2.51763e-22
8.82392e-22
5.68484e-21
3.23379e-23
4.36765e-22
6.86647e-22
3.56181e-21
4.36699e-21
5.09584e-21
2.39154e-21
3.17183e-21
1.03275e-21
2.59488e-21
4.00483e-21
1.40525e-21
2.22585e-21
1.85377e-21
3.03911e-21
1.70004e-22
1.27038e-20
1.44742e-21
8.71348e-22
2.5598e-21
1.32665e-21
1.56286e-22
1.89154e-21
1.64551e-21
9.47583e-22
2.06078e-22
9.82106e-22
2.88774e-23
2.71441e-21
2.95116e-21
8.85662e-23
5.88026e-22
4.40809e-21
4.76799e-22
1.1e-21
4.92906e-22
8.37788e-22
2.47691e-21
1.37352e-21
7.57041e-22
5.18127e-21
7.10789e-22
1.7576e-21
8.80263e-22
1.68688e-21
2.02673e-21
9.17822e-22
8.59729e-22
2.79114e-22
6.43021e-22
5.75381e-21
1.32608e-22
8.62237e-23
1.12376e-21
2.92699e-21
1.97776e-21
3.5038e-21
2.86108e-21
8.04098e-22
7.40914e-22
1.59461e-21
6.63683e-22
9.54567e-22
2.05307e-21
1.27038e-21
1.89935e-21
2.77765e-22
2.02598e-21
4.95179e-23
2.48561e-22
8.8819e-22
2.8917e-21
2.61684e-21
1.27567e-21
7.35878e-22
8.00911e-23
5.89932e-21
1.3115e-22
1.36875e-21
7.45142e-22
1.17126e-21
2.09185e-21
2.07138e-21
1.71253e-21
1.14513e-21
1.0149e-21
8.51987e-22
1.8731e-21
4.25891e-22
3.04359e-21
9.23385e-22
1.36859e-21
1.81329e-21
3.5199e-21
9.79787e-22
6.10862e-22
6.59189e-21
2.69948e-22
2.01678e-21
4.89205e-21
1.6495e-21
8.84455e-22
9.00485e-22
1.33007e-22
2.08975e-21
1.12797e-21
4.84936e-23
2.74844e-22
4.24117e-23
5.68774e-22
3.63224e-21
4.71901e-23
6.287e-22
9.55536e-22
6.39971e-22
2.15675e-21
8.5425e-22
1.0512e-21
1.54469e-21
2.0626e-22
3.18022e-22
7.29743e-22
2.25609e-22
2.01969e-21
1.72438e-21
1.47067e-21
4.30712e-21
4.94472e-21
1.8794e-21
6.90448e-22
1.05565e-21
9.24027e-23
2.62223e-21
1.31361e-21
2.34976e-21
1.63863e-21
5.89529e-21
3.21751e-21
1.13438e-21
4.57229e-21
7.57487e-22
3.48445e-21
2.88028e-22
7.07138e-22
2.42431e-21
2.41344e-22
1.55026e-22
9.16026e-22
3.34409e-22
1.02827e-21
1.46305e-21
4.47844e-22
1.31688e-21
2.3644e-21
1.35168e-21
1.45553e-21
1.21474e-21
1.17718e-22
2.83641e-21
2.10395e-21
1.67894e-21
3.69614e-21
1.12348e-21
1.04287e-22
1.2998e-21
2.38565e-21
5.02648e-22
1.01283e-21
2.65437e-21
8.19937e-22
1.91652e-22
8.87328e-22
1.1854e-21
4.42331e-22
2.02532e-21
1.24003e-21
6.46169e-22
2.5991e-21
3.75736e-21
6.8263e-22
6.20793e-22
4.20053e-21
1.64349e-21
8.78961e-22
1.40417e-22
8.84574e-22
5.91599e-22
2.73507e-21
2.71611e-21
3.13833e-23
7.37295e-22
2.6865e-21
2.08266e-21
4.41978e-21
2.00235e-21
1.25527e-21
1.54214e-21
1.8606e-21
7.15741e-21
1.24462e-21
2.9761e-21
1.51953e-21
2.20804e-21
4.73214e-22
2.04469e-21
8.23033e-22
3.25524e-21
4.02904e-21
1.76344e-22
2.56274e-21
5.89832e-22
9.34353e-21
1.15008e-21
6.31502e-22
9.61888e-22
7.50126e-22
5.83845e-22
3.28236e-22
3.07106e-21
4.21143e-21
3.80115e-21
2.16991e-21
1.07763e-21
1.06878e-22
8.00833e-22
4.00908e-24
5.70653e-21
1.87586e-21
2.93556e-21
1.14866e-21
1.73212e-21
3.24745e-21
8.64054e-22
8.82885e-23
1.41111e-22
2.33819e-21
5.66489e-22
2.96244e-22
1.24757e-21
8.5057e-22
2.89506e-22
4.1306e-21
5.64169e-23
4.98194e-22
6.08436e-22
3.1465e-21
3.61453e-22
1.47464e-21
2.43274e-21
1.37369e-21
1.28916e-21
2.25919e-21
7.21771e-22
4.10001e-22
2.6771e-22
7.44322e-22
3.65363e-21
4.6622e-22
5.68763e-22
8.74769e-22
8.80572e-23
2.14965e-21
3.13779e-21
1.44395e-21
2.34332e-21
2.30968e-22
8.71324e-22
1.23942e-21
2.35714e-22
2.38418e-21
5.94647e-22
2.03205e-21
3.30294e-21
1.27651e-21
6.20289e-22
6.77066e-22
2.80703e-21
1.08207e-21
8.96219e-22
7.30174e-22
2.41316e-21
2.45925e-21
7.88303e-22
6.31191e-22
2.17156e-22
2.06124e-21
2.10812e-21
9.74408e-22
2.87734e-21
1.54385e-21
1.23215e-22
7.91841e-22
2.08217e-21
1.40515e-21
2.97139e-22
3.94082e-22
2.72281e-21
1.31978e-21
5.77422e-21
3.4914e-22
3.29529e-22
8.79385e-24
6.34849e-22
1.91696e-21
2.50311e-21
1.38785e-21
2.63013e-21
2.06882e-21
1.2724e-21
8.95386e-22
9.08195e-22
2.15953e-21
3.21759e-22
3.64267e-22
3.1552e-21
7.16204e-23
3.00617e-21
2.60079e-21
1.19066e-21
2.09184e-21
6.70875e-22
5.82137e-22
4.33045e-22
1.20914e-21
3.00548e-21
2.6687e-21
1.75561e-21
1.60929e-21
2.25038e-21
1.81797e-22
2.19049e-22
7.51152e-22
4.94939e-21
1.57525e-21
6.22435e-22
3.84975e-22
3.96121e-22
2.51153e-21
5.31382e-22
2.69466e-21
1.15678e-22
8.31037e-22
7.70887e-22
2.63723e-21
1.34018e-21
2.8328e-21
2.42893e-21
4.18165e-22
1.38252e-21
4.50403e-22
2.16579e-21
8.75475e-22
9.06588e-23
4.0995e-22
5.14748e-21
1.25133e-22
1.47125e-22
5.79531e-22
1.42038e-21
1.99629e-21
1.78302e-22
2.10926e-22
1.80452e-21
7.21013e-22
5.11394e-22
1.31955e-21
4.10586e-21
1.26117e-22
1.71938e-21
1.58104e-21
3.38689e-21
3.58424e-22
1.40802e-21
7.04861e-21
4.90226e-22
6.03831e-22
3.37279e-21
7.54466e-22
4.57175e-21
1.81595e-22
2.32648e-21
1.68139e-22
7.94217e-22
4.07195e-21
1.15438e-21
5.10696e-22
4.53966e-21
2.47858e-21
8.96257e-24
1.42059e-21
9.46648e-22
2.73834e-21
6.60707e-22
8.79546e-22
4.68618e-22
1.39407e-21
1.01475e-21
1.15125e-21
3.17351e-22
1.20392e-21
2.15119e-21
2.00491e-22
2.05427e-21
4.46569e-23
1.49012e-21
3.59619e-21
1.43856e-21
9.39089e-22
1.89849e-21
1.03189e-21
1.21838e-21
2.02693e-21
6.95228e-21
2.51017e-22
1.11676e-21
1.18317e-21
6.15618e-22
2.75786e-22
1.16953e-22
3.2241e-21
2.78797e-22
5.67674e-23
3.58399e-22
1.0327e-21
4.67889e-22
2.06287e-21
5.62694e-22
1.03791e-21
2.56705e-21
5.65285e-22
4.5869e-22
1.14966e-21
1.31035e-22
1.44841e-21
7.67225e-22
1.85428e-22
4.45922e-22
7.37142e-22
6.855e-22
5.87132e-21
2.29433e-21
3.33583e-21
4.84656e-22
6.2556e-21
1.01153e-21
5.17835e-21
2.66925e-21
1.73571e-21
3.83755e-21
3.54458e-22
1.69655e-21
8.21444e-22
3.96534e-21
1.3804e-21
8.46389e-23
7.16196e-21
9.83835e-23
1.69497e-21
3.19578e-21
2.78132e-23
1.35077e-21
1.98097e-21
2.21427e-22
4.12907e-21
8.95566e-22
2.37303e-21
1.4847e-21
7.44675e-22
5.11797e-22
1.36484e-21
1.37785e-21
2.60601e-21
8.62821e-22
3.33956e-21
4.93966e-22
3.91002e-22
2.04307e-22
1.00742e-21
6.97846e-22
8.08792e-22
6.23318e-22
6.69059e-22
3.65523e-21
1.1766e-22
4.52867e-22
2.83258e-21
1.06282e-21
3.97267e-21
5.39548e-22
7.57185e-21
3.6629e-23
3.50384e-21
3.69298e-21
1.04313e-21
2.99778e-21
7.58696e-22
1.80187e-21
3.70224e-21
3.69838e-22
6.66864e-22
4.52341e-22
9.15936e-22
6.90698e-22
1.29541e-22
1.66255e-22
1.25706e-22
1.38377e-21
4.67152e-21
1.43572e-21
9.66063e-22
5.86008e-22
2.74898e-22
8.01404e-23
1.8186e-21
1.30554e-21
1.19154e-21
2.03323e-22
4.56734e-22
5.02336e-23
5.90706e-21
2.86997e-22
2.69007e-21
5.16908e-21
3.71016e-22
1.24743e-21
1.18121e-21
1.48617e-21
7.9716e-22
1.73149e-21
2.37501e-21
3.06096e-21
8.41213e-22
2.22563e-21
1.43301e-21
2.08895e-22
2.37168e-21
1.67762e-21
2.23433e-21
8.25392e-22
1.2303e-21
2.02489e-23
4.52477e-21
1.64843e-21
5.2119e-22
8.37823e-22
1.15098e-21
1.90967e-21
3.88725e-21
1.64948e-21
4.09193e-21
2.92238e-21
3.12128e-21
7.16841e-21
4.45511e-22
1.46884e-21
1.97611e-21
4.67572e-22
1.82379e-21
1.63366e-22
1.31148e-21
7.55282e-23
1.08858e-22
4.61052e-22
8.71735e-22
9.46229e-22
2.11869e-21
8.81732e-23
6.42495e-22
2.88994e-21
2.48899e-22
1.9385e-21
3.75767e-21
6.41216e-22
2.48407e-23
1.49899e-22
1.41583e-21
3.36319e-22
1.45193e-23
6.24048e-23
1.78527e-21
2.11125e-25
2.88099e-21
3.94457e-21
2.09101e-22
4.51788e-21
3.48964e-22
7.28638e-22
1.98084e-22
1.5328e-22
1.01737e-22
3.15601e-22
1.33466e-21
1.13788e-21
7.99902e-22
1.3344e-21
4.9678e-21
1.32628e-21
1.32277e-21
6.65655e-22
2.18702e-21
4.41261e-21
1.34382e-21
3.75449e-21
2.01758e-21
1.66678e-21
3.8299e-21
1.79834e-21
1.15441e-21
1.63257e-21
4.40421e-21
2.9065e-21
1.35965e-21
1.71416e-21
1.64422e-21
9.25999e-23
3.10913e-22
7.07494e-22
1.15105e-21
1.9867e-22
7.19342e-22
6.84805e-22
4.87197e-21
1.72174e-21
3.69254e-21
2.15903e-21
2.45732e-21
8.99257e-22
1.13653e-21
7.21503e-21
1.48737e-21
2.43346e-21
2.67868e-21
2.24534e-21
1.09583e-21
1.44368e-21
6.41722e-22
8.99877e-23
2.01249e-21
1.05474e-22
1.23031e-21
7.87085e-21
7.0036e-23
8.15232e-22
8.41375e-22
2.39289e-21
6.47088e-22
2.9849e-21
3.18163e-22
3.15794e-22
2.78218e-21
2.35084e-21
1.04752e-21
2.00635e-21
3.8778e-22
4.25632e-21
4.0743e-21
1.74498e-21
3.07994e-22
3.0061e-21
2.46931e-21
5.18946e-22
6.13197e-21
7.95315e-23
6.63354e-22
1.39891e-24
4.10361e-22
1.90901e-21
6.80194e-22
1.46218e-21
1.40293e-21
7.90091e-22
2.80286e-21
1.31348e-21
1.04019e-22
1.45381e-21
1.77771e-21
1.66523e-21
4.76738e-21
1.51438e-21
1.59565e-22
1.437e-21
1.23752e-21
1.64992e-21
4.26552e-22
8.86692e-22
6.42895e-22
6.63258e-22
5.51158e-22
9.7121e-22
4.19483e-21
3.80808e-21
3.35583e-22
6.54295e-22
5.26875e-21
7.27907e-22
2.80587e-22
4.90392e-22
3.3388e-22
2.30423e-22
3.55306e-22
1.19042e-20
1.13077e-21
3.00506e-21
5.30037e-21
2.8649e-22
1.28328e-25
2.84274e-23
5.25538e-21
4.92481e-22
1.43451e-21
4.2616e-21
2.77047e-22
1.53724e-21
4.52988e-22
7.64654e-21
4.82283e-22
1.38657e-21
1.10091e-21
6.92524e-22
3.62884e-22
3.35489e-21
1.19736e-22
1.32404e-21
6.93474e-22
1.74371e-21
7.69908e-22
3.58281e-22
1.77196e-21
1.09815e-21
8.7776e-22
2.21073e-22
2.55667e-21
1.16198e-21
1.19581e-22
1.0087e-21
1.15093e-21
1.9665e-21
6.37213e-22
3.85094e-22
7.32881e-22
2.48589e-21
1.23742e-21
5.28254e-21
1.62417e-21
3.30456e-22
3.59244e-22
1.76156e-22
6.87765e-21
1.16655e-21
5.56797e-23
8.51618e-22
2.65709e-22
5.39997e-22
9.19078e-22
3.631e-22
2.21734e-21
4.42811e-22
2.53731e-22
4.03378e-21
1.80412e-21
6.92812e-22
8.81808e-22
4.86353e-22
6.1779e-22
2.22336e-21
1.44408e-21
5.3681e-22
1.51795e-21
3.53245e-21
1.22524e-22
9.79084e-23
2.12192e-21
1.18503e-21
3.36755e-23
5.46781e-22
1.83838e-21
6.38412e-22
1.19615e-23
1.53708e-21
1.47045e-22
4.04131e-21
3.17082e-21
1.94321e-21
8.70972e-22
1.04075e-21
4.72909e-21
2.08508e-21
1.78891e-21
1.18658e-21
8.30555e-22
3.29101e-22
1.22525e-21
9.55247e-22
1.63383e-21
5.34834e-22
6.19612e-22
2.05511e-21
1.04693e-22
3.5773e-22
2.83297e-21
3.12047e-23
4.87318e-21
5.50369e-23
1.86629e-21
1.46046e-21
5.6213e-22
2.10521e-22
3.61977e-21
3.49449e-22
6.22907e-22
5.51661e-22
6.07792e-21
6.45745e-22
1.88035e-21
1.26899e-21
8.37801e-22
2.07758e-21
6.04147e-22
1.3706e-21
8.38292e-22
2.01644e-21
2.80472e-21
2.92471e-21
3.50752e-22
1.5367e-21
2.48049e-21
7.1353e-22
3.29077e-21
1.156e-21
2.14337e-21
8.00867e-22
2.55258e-21
1.29721e-21
5.27621e-22
8.40552e-22
3.47352e-21
1.5796e-21
8.45949e-22
5.3612e-21
1.12269e-21
1.80391e-21
1.92987e-21
7.55751e-23
1.55853e-22
1.34378e-22
8.76081e-22
3.84653e-22
2.22343e-21
4.29651e-21
1.81136e-21
4.90191e-22
4.0978e-22
4.73214e-22
5.17072e-21
1.18889e-21
1.77491e-21
6.0359e-22
3.44291e-21
8.43505e-22
3.82147e-21
1.40606e-21
9.22157e-22
2.58444e-21
1.67234e-21
1.43402e-21
8.03004e-22
1.47986e-22
2.25435e-21
8.46416e-23
2.84296e-21
9.88252e-22
1.8179e-21
1.89469e-22
3.74117e-21
2.10005e-21
5.14325e-22
6.71202e-22
3.46777e-22
1.21274e-21
3.03611e-22
2.11172e-21
4.55177e-21
1.89988e-21
8.77889e-22
4.51119e-21
1.61803e-21
8.62747e-22
6.32313e-22
7.1826e-22
3.90791e-22
3.20057e-21
7.47409e-21
2.74735e-21
6.06772e-22
9.21185e-22
1.1343e-21
6.41056e-22
3.3573e-21
2.51794e-21
3.29479e-21
4.48671e-21
2.81679e-22
5.22604e-21
1.75332e-21
4.98174e-21
5.30493e-22
7.56203e-22
1.91086e-21
2.36296e-21
5.56152e-22
2.29455e-21
8.05627e-22
1.24636e-21
5.78259e-21
9.72216e-22
1.25961e-21
7.135e-21
2.35793e-22
6.97454e-22
3.05973e-22
2.71676e-22
3.52764e-22
7.64501e-22
4.40757e-22
8.68306e-21
2.74085e-21
7.7291e-22
1.173e-21
3.61742e-21
5.37051e-22
1.11752e-21
9.93675e-22
9.34284e-22
3.16869e-21
6.44667e-22
1.12283e-21
5.14042e-21
7.55837e-22
5.00593e-21
8.14048e-22
7.73961e-22
6.01088e-22
5.83716e-22
2.33428e-22
2.79092e-21
1.3021e-21
2.11819e-21
9.39795e-23
6.67914e-21
2.71702e-21
8.30286e-22
2.11504e-23
3.17424e-22
5.29602e-22
5.09548e-22
1.24562e-21
4.47138e-22
9.14699e-22
3.18359e-21
4.76198e-21
4.29446e-22
2.60029e-21
1.38617e-21
2.79478e-22
7.21626e-23
6.34275e-22
1.05008e-21
3.71379e-21
7.35451e-22
6.31898e-21
3.41769e-21
1.61433e-21
9.46738e-22
1.6981e-21
3.92175e-21
7.15406e-22
1.51647e-21
2.91777e-21
2.89912e-22
7.50506e-22
1.87921e-22
6.44725e-22
1.25015e-21
2.12673e-25
2.91925e-21
1.36476e-21
1.03003e-21
6.7326e-22
1.77358e-21
1.07118e-21
5.00637e-21
1.77898e-21
3.61675e-21
3.43926e-21
2.70115e-22
1.85182e-21
3.07036e-21
6.67004e-22
2.46084e-21
6.36408e-21
4.46224e-21
5.19411e-21
1.54446e-21
1.36895e-21
5.95848e-21
2.55077e-21
1.74001e-21
2.54504e-21
1.60195e-21
1.43521e-22
3.90536e-22
2.25198e-21
5.59275e-22
1.05175e-22
3.02391e-22
1.1523e-22
7.52565e-22
6.28813e-24
4.09143e-21
1.35543e-21
1.46007e-21
3.84436e-21
7.22685e-22
5.9583e-22
3.61034e-21
8.31221e-23
1.42201e-22
6.16051e-22
2.71476e-22
4.12863e-22
1.62629e-21
2.77758e-21
4.77963e-21
3.96054e-22
6.04815e-21
8.99028e-22
2.06236e-21
3.75395e-21
2.12486e-22
4.1939e-21
5.83639e-21
9.38055e-22
1.00487e-21
1.25364e-21
6.05098e-21
5.08632e-22
6.37456e-22
8.58572e-22
1.54564e-22
4.88962e-23
1.51854e-21
1.30121e-21
1.165e-22
2.0065e-21
2.67083e-21
2.37756e-23
2.9465e-22
9.31823e-22
1.68546e-21
1.5731e-21
1.62073e-22
1.81717e-21
1.4559e-21
8.75874e-22
2.76912e-22
7.91827e-23
6.55352e-22
2.19133e-22
7.57709e-22
1.2198e-21
8.42028e-22
2.11986e-22
5.02142e-22
1.41176e-21
1.82034e-21
1.79249e-21
6.60967e-23
2.82966e-21
7.42444e-22
2.95143e-21
3.85056e-23
3.53509e-21
2.75596e-21
1.52292e-20
1.75668e-21
1.05604e-21
2.77735e-22
1.20017e-21
5.26616e-22
6.67569e-22
1.93135e-22
1.66658e-21
1.61012e-21
1.93467e-21
2.9231e-22
1.88071e-22
1.73951e-21
1.0475e-21
3.62517e-22
5.71513e-22
1.55032e-21
6.86829e-21
3.90842e-21
1.36965e-21
4.71689e-22
3.28826e-21
4.88206e-22
1.31988e-21
4.18385e-21
8.61222e-21
6.51591e-22
3.48643e-21
2.55013e-21
8.7459e-23
5.19342e-22
7.31971e-22
1.24165e-21
2.29372e-22
1.8507e-21
1.63926e-21
9.75305e-22
2.70648e-21
3.89019e-22
5.14361e-21
4.42533e-22
2.41951e-21
3.53785e-21
9.53382e-23
1.08722e-21
6.25713e-22
2.39419e-21
1.48746e-22
6.91428e-22
4.81118e-21
4.00877e-23
1.11014e-22
3.24096e-22
1.46918e-23
3.84965e-22
1.7802e-23
1.11921e-21
3.77151e-21
1.59787e-21
1.1221e-21
1.23914e-21
2.19952e-21
1.08232e-21
2.75132e-21
9.51976e-22
8.82951e-21
2.19925e-21
2.8589e-22
4.40927e-21
4.2507e-21
7.49219e-22
5.18817e-22
3.88812e-22
2.65472e-21
1.675e-21
6.16866e-22
1.12015e-21
6.42839e-22
2.4206e-21
1.90118e-21
2.95327e-22
3.25653e-21
8.86141e-22
5.56889e-22
5.19227e-22
2.67211e-21
1.50061e-21
4.66991e-22
7.24105e-22
3.02006e-21
7.46095e-22
4.2632e-23
2.02077e-21
4.82141e-22
9.88343e-22
2.4915e-21
1.95765e-21
4.00813e-21
1.68757e-22
7.9043e-22
2.18046e-21
4.15529e-21
3.85404e-22
8.62503e-22
6.16269e-21
5.85499e-22
8.43796e-22
5.15885e-21
1.74857e-21
1.55319e-21
9.98005e-22
3.32929e-21
8.12327e-22
1.21934e-21
4.37783e-22
2.36027e-22
1.09689e-21
1.441e-22
3.12738e-21
1.54395e-21
1.15924e-21
1.68983e-22
4.90133e-22
1.58584e-21
2.3098e-21
3.3492e-22
3.04762e-22
5.34992e-21
6.11514e-21
3.31165e-21
5.75224e-22
1.40586e-21
3.22177e-22
1.46969e-21
7.44466e-22
8.15503e-22
3.74409e-22
7.71589e-22
3.43023e-21
3.0044e-21
1.60685e-22
3.06636e-21
3.35071e-22
1.90409e-21
3.5119e-22
1.31461e-21
2.41925e-21
3.22929e-22
1.4357e-21
4.28547e-21
4.76264e-21
1.67299e-22
2.14841e-21
3.25848e-21
3.35795e-22
3.91333e-21
1.19658e-21
2.36235e-22
1.08025e-21
1.67441e-21
1.04351e-22
2.2733e-21
7.55917e-22
3.23493e-21
9.94922e-22
1.17949e-21
2.52637e-22
4.97493e-21
3.5141e-21
1.21277e-21
3.73967e-21
3.13998e-21
2.72873e-21
1.39741e-21
2.08536e-21
1.16962e-21
8.48933e-22
9.49068e-22
1.05725e-21
1.17596e-21
7.21311e-22
1.55786e-21
1.58202e-21
5.82797e-22
3.2095e-22
1.75384e-21
1.72959e-23
6.07871e-21
1.85543e-21
4.15075e-21
2.53794e-21
7.46964e-22
1.7425e-21
9.235e-22
2.35894e-22
9.9531e-22
3.76864e-22
9.11807e-22
1.57805e-21
6.90319e-22
6.3423e-22
3.35e-21
8.0781e-21
1.41047e-21
4.08031e-21
6.34281e-22
1.68947e-21
2.28254e-21
3.48742e-21
3.72986e-22
2.01919e-21
2.26738e-21
4.03587e-21
6.40035e-21
7.36937e-22
1.55874e-21
8.91462e-23
2.45012e-21
1.13603e-21
1.61424e-22
4.11888e-21
1.37603e-22
1.79804e-21
1.22146e-21
1.8339e-22
1.90416e-21
4.98379e-22
1.45643e-22
4.2827e-22
1.95149e-21
2.09566e-21
1.63522e-21
7.64934e-22
1.65707e-21
8.05443e-23
2.59577e-23
5.52106e-23
5.64574e-21
8.15583e-23
1.09341e-21
5.6253e-22
2.06357e-21
3.78059e-22
6.86753e-22
3.22364e-21
1.57698e-21
2.67747e-21
1.74925e-21
7.39643e-22
2.34179e-21
1.63881e-21
1.38019e-21
1.31911e-22
4.65416e-22
3.40695e-21
1.66405e-22
9.41717e-22
1.07159e-21
5.23335e-23
4.14102e-21
7.88697e-23
6.1692e-21
1.02247e-21
1.67165e-21
1.08555e-21
2.07143e-21
4.25386e-21
2.597e-21
1.39778e-21
1.5255e-21
2.88144e-21
1.0891e-22
4.65644e-22
2.0416e-22
1.71711e-22
2.25321e-21
4.99366e-21
1.2638e-21
1.44906e-21
1.89841e-21
7.8782e-22
1.50212e-21
1.27252e-22
2.12797e-21
1.08727e-21
1.4802e-22
1.75752e-22
1.24297e-21
1.065e-22
3.82004e-23
1.25738e-21
1.33686e-22
4.08063e-22
5.18013e-22
6.73825e-22
2.10893e-21
2.51462e-23
4.62618e-21
3.29359e-21
1.08061e-21
3.31984e-22
7.05606e-22
4.44434e-22
1.21297e-21
2.66292e-21
8.47497e-22
1.16747e-21
9.02476e-22
4.11132e-21
3.25118e-21
2.21235e-21
1.9646e-21
7.7009e-23
4.11935e-22
2.52047e-21
7.19493e-21
1.01624e-21
2.5717e-21
1.55077e-21
7.43357e-22
2.98381e-22
4.53955e-21
6.20978e-22
1.18667e-21
1.80829e-21
6.62467e-22
1.25371e-23
2.7372e-21
6.56955e-21
2.36953e-21
3.89431e-21
9.58137e-22
2.22054e-21
4.59458e-23
2.93133e-21
9.70802e-22
1.47736e-21
4.36141e-21
7.56707e-23
3.91545e-22
2.45639e-21
3.03326e-22
1.31597e-21
1.24878e-21
7.11111e-22
7.47856e-22
1.59034e-22
7.47181e-22
6.46053e-21
1.34543e-21
3.68904e-21
4.64285e-22
1.09618e-21
1.06314e-21
1.15116e-20
9.49382e-22
7.80337e-22
3.33591e-21
1.86432e-22
1.68195e-22
7.72074e-22
8.02076e-22
9.25208e-22
2.77292e-21
9.4915e-22
8.34887e-22
8.41977e-22
1.58024e-21
1.4923e-21
2.64107e-21
4.77261e-22
2.51781e-21
1.07318e-21
2.52039e-22
2.61153e-22
2.32075e-21
1.71943e-21
2.33711e-21
4.20072e-21
1.97897e-21
2.19376e-22
2.54455e-22
6.58798e-23
4.81288e-21
4.45764e-21
1.06344e-21
4.43469e-21
2.85347e-21
1.26825e-22
3.59747e-22
1.16479e-22
2.95895e-22
8.3131e-22
1.20879e-21
2.10875e-22
3.29365e-22
5.56695e-22
5.55902e-22
3.03093e-21
7.05297e-22
1.05074e-21
2.6235e-22
3.93452e-21
7.45303e-22
1.90058e-21
5.02985e-21
1.78296e-22
3.20363e-21
1.68554e-21
2.49654e-21
2.91049e-21
7.43328e-22
2.73455e-21
2.79533e-21
2.68399e-21
5.77819e-21
1.43121e-21
1.87457e-21
1.54746e-22
1.92208e-21
1.74295e-22
5.02429e-22
2.11237e-21
2.82509e-21
5.28292e-22
2.58809e-21
8.35335e-21
3.40666e-22
4.98039e-21
2.43654e-21
7.65734e-22
5.36477e-22
4.09483e-21
5.07247e-22
2.81573e-21
1.96374e-22
6.70337e-21
1.76682e-21
5.1449e-21
2.79767e-21
2.57407e-22
7.32741e-22
3.84492e-22
5.70344e-22
4.75371e-21
1.27819e-21
8.77396e-22
1.31795e-22
1.42372e-21
1.01974e-21
4.46089e-22
4.01986e-21
1.48017e-22
4.29185e-22
4.32761e-22
1.59383e-21
1.63121e-21
3.29142e-21
5.91762e-22
9.62673e-22
2.75055e-21
6.54582e-22
1.21433e-22
1.81238e-21
4.3193e-21
2.14556e-21
7.21801e-22
5.99311e-22
4.29819e-22
1.44014e-22
2.68529e-22
3.18865e-21
6.15235e-22
1.26257e-22
2.20142e-21
3.91933e-21
2.99978e-22
3.44399e-21
2.22213e-22
4.23442e-22
4.50765e-22
8.89502e-22
9.34592e-23
2.21627e-23
3.09932e-21
4.08051e-21
8.90563e-22
1.1715e-21
5.73337e-23
1.58682e-21
8.65709e-22
6.51909e-22
1.64671e-21
7.11124e-22
1.33412e-22
5.15182e-21
8.54976e-22
1.51673e-21
2.93298e-21
1.7885e-21
1.5752e-22
3.62936e-21
5.7565e-21
3.18823e-22
2.25882e-21
2.56265e-22
1.23187e-21
1.61267e-21
2.11686e-21
2.72772e-21
2.79192e-21
9.37333e-22
3.0295e-21
1.9132e-21
3.60009e-21
1.39171e-22
6.91074e-21
1.04929e-21
2.38817e-21
2.33894e-21
1.06409e-21
1.40877e-21
4.2613e-21
2.9124e-22
1.21606e-21
2.16467e-21
7.50197e-22
1.07462e-20
2.23661e-21
2.93064e-22
7.86862e-22
2.25809e-21
1.97474e-21
8.15157e-22
1.10995e-21
1.00184e-22
2.56517e-21
9.5279e-22
8.41129e-22
1.69903e-22
4.77035e-22
2.11139e-23
3.09158e-22
6.41155e-22
1.1411e-22
8.64806e-22
7.23927e-22
5.34364e-21
2.70505e-21
3.469e-21
3.05802e-21
4.02821e-21
6.0133e-22
1.62868e-21
4.66633e-21
4.11963e-21
8.13693e-23
2.67086e-22
1.16787e-22
1.32487e-21
3.00263e-21
3.35755e-21
4.24087e-21
1.379e-21
3.05451e-22
8.28007e-22
1.6667e-22
8.59619e-22
3.75128e-22
4.26358e-22
4.81277e-22
9.6483e-23
3.13583e-22
3.21156e-22
3.36601e-21
4.53023e-22
3.08945e-21
5.84994e-22
9.48555e-22
2.76504e-21
8.17644e-22
3.16099e-22
6.12154e-22
2.65047e-21
3.39749e-21
7.51588e-22
5.53131e-22
1.67487e-22
9.67126e-22
1.78441e-22
1.74961e-22
4.32289e-22
1.16368e-21
1.31548e-21
5.2918e-22
2.05499e-21
1.8491e-22
4.18569e-21
1.13042e-21
4.93711e-22
1.48119e-22
2.55033e-21
4.85863e-22
2.89728e-21
9.43665e-22
1.34451e-21
4.36642e-21
1.55815e-21
3.61799e-22
8.63731e-21
1.37352e-21
3.39593e-21
1.44194e-21
1.10158e-21
2.16317e-21
4.12075e-21
7.1375e-21
1.14638e-20
1.90551e-21
1.22927e-21
3.09713e-21
2.52885e-21
1.5427e-21
4.18076e-21
9.58382e-22
9.05302e-22
1.66665e-21
1.10101e-22
5.75056e-22
5.57558e-21
4.75446e-22
2.25285e-21
1.03958e-21
2.85798e-23
4.95059e-21
2.52881e-21
2.98046e-22
4.83763e-22
7.37841e-22
7.55191e-23
2.90712e-22
3.87781e-21
7.10393e-22
1.57889e-21
5.46299e-22
2.31162e-22
1.47704e-21
5.13101e-22
3.80458e-22
3.87741e-21
1.06045e-21
9.72363e-21
4.2859e-21
4.21084e-22
3.67526e-21
3.64524e-21
1.44701e-21
6.29937e-21
2.08729e-21
1.1107e-21
4.0452e-21
2.05612e-21
1.4602e-22
6.32671e-22
7.01629e-21
1.58195e-21
7.86529e-22
1.42699e-21
1.04445e-21
5.08194e-21
4.26921e-21
4.57252e-21
3.0325e-21
6.79678e-22
3.18074e-21
1.84571e-21
1.88946e-21
1.82091e-22
6.89384e-22
3.58855e-21
5.59059e-21
5.38962e-21
3.56309e-21
2.1939e-22
1.58286e-22
6.56883e-22
1.43925e-21
5.74799e-22
6.30149e-21
2.42746e-21
1.31869e-21
3.17373e-21
7.5854e-21
1.00273e-22
1.37189e-21
1.88617e-21
9.00062e-23
1.15447e-21
3.70932e-21
1.29444e-21
2.60458e-22
4.61296e-23
3.35916e-21
2.93222e-22
1.78956e-21
5.79389e-22
5.48421e-22
3.00727e-22
2.82251e-22
5.53974e-21
8.65889e-23
2.48306e-22
7.91277e-22
2.59743e-22
1.77527e-21
5.71091e-25
1.7561e-21
1.36216e-21
2.46177e-21
7.37321e-22
3.84877e-21
1.23061e-23
6.71722e-22
3.64364e-22
8.27274e-23
3.54249e-21
8.56519e-23
2.05369e-21
6.63586e-22
2.67789e-22
4.8162e-21
1.15325e-21
1.89954e-22
8.45085e-22
2.68059e-22
3.78742e-22
3.36088e-22
2.71254e-21
1.81529e-21
6.79106e-21
1.81861e-21
1.88278e-22
2.9645e-22
7.21071e-22
2.26217e-22
3.27222e-22
1.90311e-21
7.08442e-21
1.1045e-21
7.67477e-22
3.65315e-22
1.59125e-21
2.03336e-21
1.94661e-22
2.13078e-21
1.20163e-21
2.03218e-21
1.1735e-21
3.15926e-21
3.54775e-22
8.32316e-23
1.39048e-21
2.44231e-21
2.273e-21
3.62068e-22
6.35926e-22
1.17775e-22
5.23025e-22
5.75928e-22
7.87692e-22
1.03209e-21
7.66014e-22
5.74749e-22
1.09905e-21
8.0784e-22
1.22626e-22
1.82218e-22
2.50317e-22
9.01526e-22
5.08057e-22
9.97261e-22
3.09844e-21
1.19846e-21
1.67782e-21
7.81609e-21
1.04789e-21
4.64674e-21
3.08139e-21
2.93573e-21
3.14277e-21
1.39948e-21
3.08521e-21
1.68189e-21
7.52665e-23
2.57992e-21
2.31468e-21
1.51024e-21
4.08441e-22
5.59192e-22
1.80631e-21
1.26076e-21
7.2053e-21
4.40942e-21
2.92775e-22
2.45034e-21
1.31154e-21
1.44108e-21
1.49139e-21
2.71897e-22
2.28089e-21
1.92255e-21
3.07745e-21
2.27089e-22
2.54948e-21
2.45007e-22
3.23216e-24
3.35984e-21
6.17143e-22
3.26242e-21
1.22861e-21
2.92535e-22
4.10585e-21
2.26188e-21
7.20336e-22
9.77724e-22
2.14205e-21
1.19731e-21
1.80995e-21
3.39338e-22
6.95401e-22
1.6575e-21
2.95013e-22
7.98874e-22
6.65414e-22
3.1988e-22
1.09887e-21
1.16942e-21
6.64577e-22
7.98944e-22
1.93831e-21
3.14978e-23
4.53124e-22
5.37613e-22
7.70206e-22
1.30345e-22
3.77054e-22
2.15145e-22
1.61304e-21
3.26405e-22
8.91001e-22
1.19297e-21
8.23337e-22
1.21251e-21
2.3913e-21
1.19538e-21
3.04713e-22
2.01674e-21
1.79585e-21
6.29488e-22
2.27945e-22
1.49134e-21
5.55531e-22
1.90535e-21
2.16811e-22
3.27285e-22
9.77264e-22
9.81784e-22
1.47752e-21
4.50713e-22
4.59134e-22
3.61136e-21
3.47449e-22
2.67642e-21
4.84114e-22
3.93977e-23
3.7264e-21
7.93255e-22
1.2612e-21
7.36e-22
1.21302e-21
9.92313e-22
4.8475e-22
3.03176e-21
1.47269e-21
8.48682e-22
2.93524e-21
4.2896e-22
1.32294e-21
1.23941e-21
3.62127e-22
2.26719e-22
7.86525e-24
1.99762e-22
1.19688e-21
4.0173e-22
9.79082e-24
2.80967e-21
8.47202e-22
2.29718e-21
1.91284e-23
3.04525e-21
7.55905e-23
1.33002e-21
1.28421e-21
2.29634e-21
3.46979e-21
1.05473e-21
1.40234e-21
1.74447e-21
1.99956e-23
9.12988e-22
5.82159e-21
5.50457e-22
5.06185e-22
2.96909e-21
2.04393e-22
2.51986e-22
7.35219e-22
1.46415e-21
1.62617e-22
1.92651e-22
2.44117e-21
1.89677e-22
2.85885e-22
5.89418e-21
2.22186e-22
3.95519e-21
5.9025e-22
2.19955e-21
3.65716e-22
1.49157e-21
1.61745e-22
1.90155e-21
6.94441e-23
8.16461e-22
2.5599e-21
5.60886e-21
1.27591e-22
3.84548e-22
8.41287e-22
1.5353e-21
5.0025e-22
2.35427e-22
8.47562e-22
5.15567e-23
6.39587e-22
5.90282e-22
2.67081e-21
1.09699e-21
1.14119e-21
3.929e-22
5.99821e-22
1.40914e-21
4.09059e-22
2.05576e-21
7.8583e-23
2.60729e-22
1.04325e-21
2.29958e-21
8.29182e-22
1.73518e-21
9.37275e-22
3.309e-22
6.47716e-22
9.36857e-22
5.98253e-22
4.88406e-22
4.77824e-22
7.53345e-22
1.86371e-21
2.04413e-21
6.45034e-22
4.21097e-21
3.11242e-21
1.53848e-21
1.19954e-21
1.098e-21
2.17127e-21
1.36139e-21
3.37981e-22
6.65394e-22
2.33116e-21
1.21356e-21
3.26239e-21
2.37326e-21
1.16957e-21
3.28307e-21
7.27542e-23
5.82294e-21
3.19721e-21
5.84023e-21
1.19133e-21
9.25529e-22
2.78196e-21
8.15171e-22
8.44251e-22
6.42703e-22
2.74548e-21
2.70821e-23
8.6049e-22
1.07068e-21
1.19947e-21
6.97512e-23
1.40077e-21
1.49378e-22
1.2793e-21
4.88861e-22
2.65202e-22
1.7543e-21
5.81026e-22
1.82691e-21
8.8897e-22
3.19817e-21
1.21695e-22
1.89707e-23
7.73986e-22
4.56381e-21
2.42759e-21
7.31771e-22
6.75021e-22
4.05319e-21
6.98151e-21
8.85784e-23
3.64103e-22
7.96004e-22
3.39043e-22
2.44465e-22
7.18612e-22
8.56749e-22
4.04909e-23
1.72551e-22
2.13411e-21
5.31002e-22
2.22778e-21
1.87081e-21
5.70245e-21
2.27291e-22
2.1448e-21
3.81878e-21
1.08604e-21
2.73909e-21
1.78232e-22
6.33171e-22
3.89701e-22
9.97103e-22
3.91474e-21
2.46321e-22
7.78202e-23
5.07723e-22
4.48952e-22
4.22877e-21
1.27653e-22
2.01033e-21
6.99716e-22
1.21944e-21
2.90763e-22
2.68245e-21
4.16868e-21
5.13032e-22
5.08467e-21
2.68838e-22
3.9588e-22
6.09492e-22
1.63426e-22
3.82232e-21
2.15535e-22
3.11583e-21
5.45348e-22
6.42613e-22
1.58915e-21
8.25958e-22
4.84584e-21
4.89397e-21
3.68328e-21
1.74374e-21
3.73419e-21
3.14427e-21
1.98124e-22
7.41595e-22
7.19467e-22
1.21781e-22
1.72723e-21
3.65374e-22
1.8104e-21
1.78522e-22
2.97217e-21
6.61415e-22
1.33858e-21
9.96408e-21
3.9736e-21
2.19268e-21
3.0264e-21
1.57856e-21
9.82382e-23
9.65435e-22
6.73936e-21
4.57061e-22
2.34836e-22
4.48652e-22
8.10883e-22
7.97919e-22
4.58571e-21
4.15563e-22
4.20629e-22
1.07743e-21
4.3517e-21
8.94629e-22
1.51679e-21
9.00013e-22
4.04055e-23
1.96353e-21
2.2746e-21
2.76016e-22
3.82229e-22
2.54306e-21
1.53479e-21
1.44131e-21
1.54747e-22
8.51358e-23
1.80496e-22
8.93578e-22
1.72092e-21
7.58017e-22
2.65939e-21
8.27521e-22
1.20221e-22
1.58977e-22
1.91951e-22
4.66985e-22
6.7361e-22
3.19478e-22
1.30564e-23
5.65264e-22
2.13694e-21
8.22813e-22
1.72118e-21
2.89048e-21
1.17254e-21
1.80584e-21
3.25484e-21
5.01179e-22
2.44225e-21
2.63347e-21
8.82421e-23
4.81456e-21
4.53291e-21
1.48769e-22
3.18997e-22
1.0695e-20
3.35438e-22
2.39543e-22
2.2853e-21
1.70957e-21
2.12808e-21
3.71558e-22
5.47895e-22
1.01097e-21
2.00413e-21
3.31817e-22
1.51248e-21
2.76817e-21
4.99153e-22
8.74591e-22
3.52621e-22
1.48085e-21
1.10953e-21
3.85654e-23
1.44739e-21
1.98247e-21
9.09663e-22
4.11633e-21
4.3599e-21
1.10219e-21
1.20188e-21
6.61143e-22
6.99091e-22
6.61216e-22
3.44992e-22
2.60112e-22
2.14649e-22
1.93407e-22
1.95643e-23
2.83625e-22
3.28378e-21
5.97596e-22
2.68295e-22
1.45672e-22
5.63506e-22
1.81523e-21
4.48207e-22
2.00478e-22
9.5125e-22
3.79014e-24
1.64473e-22
5.53093e-22
1.86578e-21
2.05026e-22
4.14694e-22
5.34932e-23
3.87249e-22
8.04185e-22
1.95314e-22
8.01261e-22
1.08816e-21
7.02162e-22
6.46092e-22
7.33584e-22
6.7882e-21
1.18286e-21
1.76256e-21
1.60902e-21
1.75914e-22
9.26523e-22
4.74304e-22
4.60934e-22
4.25996e-22
3.13847e-22
1.32325e-21
5.77866e-22
4.54971e-23
2.31482e-21
2.2846e-21
4.84273e-22
1.42322e-22
5.35326e-22
1.15179e-21
3.45513e-21
7.17261e-22
2.73177e-21
1.40866e-21
2.71424e-22
1.68052e-21
8.71589e-22
3.29617e-21
1.20218e-21
6.33682e-22
1.70244e-22
8.17327e-22
4.25053e-22
1.83516e-21
1.57285e-21
3.68987e-22
2.6319e-22
2.51682e-21
5.95607e-22
2.23738e-21
7.37894e-22
9.70378e-22
6.28112e-21
8.55983e-22
1.06899e-21
2.99754e-21
1.67465e-22
3.63627e-22
2.14313e-21
4.06672e-22
1.67089e-22
1.28525e-21
3.68516e-21
2.78352e-22
5.60137e-22
5.06586e-22
4.07014e-22
3.67324e-21
2.0697e-21
9.13573e-21
6.44561e-22
9.14714e-22
2.38877e-22
3.98528e-22
6.50515e-22
1.7689e-23
1.98738e-21
2.1258e-21
1.28285e-22
3.99504e-21
1.34932e-22
5.96722e-22
4.45267e-22
1.70328e-21
7.7824e-22
1.15986e-21
1.20468e-20
1.22531e-21
3.15149e-22
3.60352e-21
9.85418e-22
5.61479e-22
3.65635e-22
7.695e-22
9.60753e-22
2.51934e-22
1.99417e-21
6.02591e-21
3.21899e-22
1.88501e-21
1.76742e-21
3.23264e-21
7.25652e-21
1.40964e-21
9.79477e-22
2.00456e-23
3.49446e-21
1.24644e-21
5.97679e-21
4.46806e-22
1.10129e-21
4.06382e-21
1.2194e-22
2.54339e-22
4.61778e-22
1.94999e-23
1.58726e-22
6.26382e-22
2.59076e-21
7.40403e-23
1.36503e-21
9.44782e-23
5.34544e-21
4.90403e-22
1.29855e-21
2.31204e-22
6.04039e-24
1.2331e-21
7.32928e-24
5.06238e-22
1.92568e-21
1.71083e-22
5.29542e-22
1.21025e-21
8.97059e-22
3.96435e-22
8.50494e-22
2.19354e-21
2.39964e-21
1.17996e-21
1.8056e-21
1.10252e-21
5.52687e-21
1.62857e-21
3.62431e-21
1.31868e-21
9.27743e-21
4.64111e-22
9.18537e-22
1.28169e-21
2.26967e-21
3.24958e-22
3.20622e-22
8.41816e-22
1.8897e-22
4.32985e-23
1.13881e-21
1.82641e-21
4.3465e-22
1.23249e-21
2.68943e-21
3.63387e-21
4.55469e-22
2.48876e-22
7.69093e-22
1.96339e-21
1.62702e-21
4.27852e-22
4.10537e-21
3.30385e-21
8.04964e-22
1.8356e-22
7.86688e-22
3.77413e-21
1.24816e-21