/*--------------------------------*- C++ -*----------------------------------*\
  =========                 |
  \\      /  F ield         | OpenFOAM: The Open Source CFD Toolbox
   \\    /   O peration     | Website:  https://openfoam.org
    \\  /    A nd           | Version:  7
     \\/     M anipulation  |
\*---------------------------------------------------------------------------*/
FoamFile
{
    version     2.0;
    format      ascii;
    class       volScalarField;
    location    "0.00108/particle";
    object      dsmcRhoNMean;
}
// * * * * * * * * * * * * * * * * * * * * * * * * * * * * * * * * * * * * * //

dimensions      [0 -3 0 0 0 0 0];

internalField   nonuniform List<scalar> 
600
(
209.680178548697
230.745994170427
249.549245516481
231.95556773639
211.482374456057
218.0992669994
238.304264678417
253.355366201692
257.033410149007
245.32378924316
238.290182544634
241.122599886548
226.740433577322
230.724281888624
224.984225254327
225.422380637314
235.663541239708
225.454266913334
226.34918653978
235.630924975787
232.478234423545
230.88254822882
216.40377669266
218.600891281608
231.989313367491
216.533572341852
214.936842959014
219.378236388898
218.518379894203
218.785334910805
224.176944775471
232.852383532932
241.856251858884
214.41899791946
233.55131001613
234.610486500637
230.109734493668
234.638858261021
226.030953277137
231.404924491798
223.213789522899
232.763206781017
231.211193023168
227.369948027754
229.994952982957
234.234693667854
229.721862258582
238.983262639663
222.179118717269
231.861545934259
233.144448746785
220.339828224205
240.64037548433
233.924758612179
233.182425745126
221.922963292442
218.75948365495
228.390604096344
229.898933057589
221.274337089246
234.652633864403
246.437107091413
236.789481066023
234.699357657976
239.773031959429
237.573019337047
243.933865073354
235.447111299439
220.984676037177
219.460947996417
226.258003549183
234.405998845418
235.405622623278
221.184803648698
228.610210246165
217.084705891139
234.440042864346
233.656263233983
222.092209012896
228.305052135364
221.581353682635
211.419760773423
220.965178783727
218.740206360232
224.870033153164
217.987542511906
222.339494886738
219.862997148654
227.23538709134
224.034539150498
229.201927303512
231.773916534788
233.161094492436
243.505064803862
220.451188782944
208.439607893393
224.15878969441
232.112155139626
220.82759598089
220.821408456703
232.239777015563
234.108790370679
221.315576345328
225.020782250761
243.72802265803
240.482572533884
226.222861401646
245.743539377188
226.294610110385
224.265379970125
241.187944497318
225.517531898159
234.128435158941
228.019623564366
231.08151754555
227.20013768279
230.539622379675
217.912291658485
224.683881323084
212.444918841402
227.700368219682
193.902769049477
209.576323294562
227.843873991072
240.770291417443
231.839074478874
223.352894613205
233.095537815089
223.088252738872
218.681753862006
216.780854477807
200.927398608212
216.998402138184
220.050875167318
212.329370970603
241.449136851512
226.158107054325
219.050632441374
243.034564995917
237.756122562329
218.456896772262
228.071351987117
238.260487635448
233.529512667113
231.082552742121
224.07285358384
221.209921039483
218.718087218115
213.170245345664
230.801574359315
222.690881643315
209.285621095697
221.142832585619
225.107494084881
247.717679942234
236.702591245803
241.167777949658
243.82357500253
225.441064206312
226.029151554039
222.584708669101
235.998776241334
233.102369299315
219.680254231669
222.513918746663
231.570780583101
223.247730011601
236.894389082451
235.272499700092
225.683566541453
232.384226047715
226.001026507424
246.205274790892
214.01642484341
217.295715104918
214.545021511653
216.870462186639
226.902489838054
209.889605147252
235.925751794031
216.033624585317
217.301536899945
212.862422025852
221.192118589149
235.587905787072
250.329247435614
231.368392942946
224.099700456609
230.710809019977
229.826081616547
225.894448331269
210.797865859778
223.122056460054
243.321091099595
236.811431603299
233.530724080494
215.716662565917
226.386176092121
220.541929685926
222.643707736133
226.727260535645
236.279240171793
222.194948085553
226.460734209526
225.655210032822
213.94472772636
227.13242488475
224.754718653626
216.272037299364
222.25657422356
228.738485487528
226.561558525368
238.027468308365
228.118859746009
233.830013521861
224.919428248856
232.573831748297
241.589798451372
209.770089025667
215.553438458102
224.914067604482
219.710788599626
220.370891921597
212.780632247838
205.911386972491
205.858841669431
215.520786369491
230.548499383574
233.677886848537
216.962788179316
230.534078766795
237.523303885807
210.763854639839
221.642878809261
214.259703595627
224.39380701406
215.353895458323
207.601239493968
203.012832072473
207.131915755796
212.202838583449
207.287400065301
217.648639308375
207.389125284643
202.390559020734
191.306843872186
192.485804965074
210.537850960396
209.351212881555
188.823381015729
172.528744759766
163.531883312521
172.070547091329
186.012267274293
176.714712728852
191.394321098146
198.025595899099
179.151149285243
169.167496320503
181.334797336204
166.720170425535
154.984505099866
159.535454081896
154.17959850656
152.128239985283
152.362708461353
157.271259008038
147.407192596036
143.525324592937
139.726645855196
152.784135167722
156.088818972427
146.390206975629
152.04428350425
134.090916787158
147.0687112726
143.537178210208
130.845668168049
124.835467216992
129.712056642171
126.815796556864
138.922909886438
119.144652346911
118.299087525419
113.500763511605
118.21797109621
120.954046765272
124.897993030282
117.336924432058
126.15711702806
115.550394073122
115.314218396321
106.283052102027
105.333830606817
122.362094854803
123.322708701331
118.057320798436
118.51353739432
102.399830359901
110.81570761433
117.844892297448
117.275343628954
115.782964130139
110.583206204922
119.018369233703
109.25432936538
107.221416429337
121.058095093818
115.991877831336
109.470950734637
114.012297522819
128.388015960716
120.571965868142
112.42889440434
108.609370614413
125.779398524992
111.30830847559
120.641236949592
108.673824388711
116.491013326744
114.524246885825
123.349993818678
123.98204697449
107.874530420752
103.751847602586
111.939566735359
113.403106934559
113.055261544615
101.779932044109
101.912072513537
107.831714652131
103.027095056329
110.420093654238
112.946939873698
118.754485070509
120.456735856505
120.217586477027
125.001282447005
115.971362699603
122.292383676115
134.422931642333
129.679274930483
134.938157834229
151.520357617489
166.822455786461
152.662212407834
153.840410265151
154.96381605732
167.180019876818
155.487844332253
165.887271141145
160.76462393766
164.151434065359
161.682621296339
153.341597784117
156.905699190807
159.353909878443
162.740611052981
161.213183617903
177.139538091721
174.783628703832
174.639207176783
165.199485907516
168.420545026462
164.998970318985
170.719009644817
150.138646078109
169.235084346799
148.713181396732
131.524265761871
105.298176964729
78.7970048004531
77.1410357428625
62.7983661212697
65.9373143466141
64.3701553731886
68.8202991253107
60.7428470508448
64.241621888059
73.3786736536073
70.8664139155971
56.5104521746914
59.714555481496
64.7324477476581
67.5900866295411
58.9763900279415
68.2903737776082
63.827792028954
65.533462457614
68.1808118689748
61.6353276824083
64.9288512624137
66.3672881087376
77.4640426587642
74.3752591279852
58.2892935174465
64.0652320425169
66.3915556555192
62.9014225531451
67.220717050042
57.052004508854
59.1172653918905
61.4783199945467
55.9812571093669
59.6801718646231
63.6668606694729
69.7709887596647
68.3305023535943
65.6044111803463
71.6494661135316
69.3275441198173
70.9605023005911
69.4781031575483
65.6980153916329
58.9142023700869
66.6517929740614
69.6313734115225
66.2023608691164
60.060288918867
60.4784141198478
70.0851429080016
71.1633958841375
69.3125936957084
72.2719872093861
59.5602389410551
60.6968528295098
57.7965591232605
63.8362670945705
71.995994574995
85.3747819001534
63.9700117648031
60.5057045645286
67.1633894024105
68.9051216126992
61.1973868919773
79.2953846260479
62.2513032817734
67.0654890427645
62.0025450626393
68.711019633305
67.304744276317
62.0831244693934
52.870070504129
63.1328504647926
56.2043886750144
60.8591650253365
57.489829774206
64.1144868191737
66.941382743695
53.5790384056518
76.9284494437159
74.1403417866667
72.1791391782923
67.0866151778971
63.3471421699866
82.0678056325273
81.101944749089
65.5106811306157
68.7675608833277
63.3048110052268
63.2978815144311
81.230442555684
79.7854880065098
71.0971872565463
66.5491865375797
61.8751819082362
64.1429484575041
60.2059899801126
68.1405225255069
65.4050696953511
68.5852262355382
61.9735332999577
61.7056003875707
74.9295156529169
72.307956034945
69.8554602463922
65.5955353346148
67.1112079001097
63.5147139450501
65.8270956318586
73.3538932688665
71.8847153273937
69.0824829590305
67.6124818173691
61.390923176798
61.8136542228665
68.0671848145013
50.2941349445955
43.3228469797508
55.1869160288493
67.3648980022919
71.41049004423
67.607105730129
61.8147905718716
60.1699064094781
63.0842762662855
67.1161474374766
66.7786590236559
63.7455358659705
64.1820418102427
71.1090943626629
59.0084666097109
56.3258905002839
73.6477508178016
63.5625804486289
69.0007681780733
67.8707534380141
74.3892340092089
69.5017490078551
66.9634245259688
63.1134089613412
61.4471355732132
66.1815567116577
64.0538343655556
58.0047708358455
60.9853433760361
66.4494691521565
66.4476268821591
69.9754195218407
61.6337436034563
56.7058628517671
63.7957027449419
67.5581870630048
61.2993675407764
65.5266587016476
69.274088219559
63.3594063174755
61.4102487619384
59.4534376193509
67.624946242177
68.5645651534833
76.1737505564472
77.4556469410815
66.5888670234172
72.9429283123307
73.7739183239233
67.9271376014157
62.7588733868145
64.2797508802234
61.4707748557483
67.8029776805948
70.4368333276481
65.483467272461
69.4058558274517
72.4499200170059
60.263905910967
70.250518017501
57.1594035669277
60.1478747977555
64.5442769099058
70.3229709649268
76.5163136070565
69.0400959198357
64.1458797127676
57.5564265416796
59.2844072777723
71.4637717969905
70.8989468712864
74.0624575347573
60.9064810686376
65.8603703680356
67.5434724386146
63.5374653779925
77.7326327128015
67.8508387735935
64.395255015576
71.5717521016326
71.8201665045305
61.7776105727147
57.5879986900297
64.9466895785132
64.9941376845448
64.8211556758311
55.8303580403756
77.8617907066806
66.261465865411
67.3208805770587
67.6844348570626
67.5647260353398
76.9752554936729
81.5459038803317
68.6594831996921
64.52740988463
64.2456034546367
67.7309534724888
65.8770608931915
73.3624467296819
76.0918299460378
70.8347765462099
64.1883980282285
60.9942124898324
55.3850595199682
54.8252808573995
75.9250588189233
65.4088388977081
59.3066638858975
64.2475141981737
64.6795033658541
63.2404874743682
85.0836985660111
)
;

boundaryField
{
    DSMCSide
    {
        type            symmetry;
    }
    DSMCBound
    {
        type            calculated;
        value           uniform 209.680178548697;
    }
    nullDims
    {
        type            empty;
    }
}


// ************************************************************************* //
