/*--------------------------------*- C++ -*----------------------------------*\
  =========                 |
  \\      /  F ield         | OpenFOAM: The Open Source CFD Toolbox
   \\    /   O peration     | Website:  https://openfoam.org
    \\  /    A nd           | Version:  7
     \\/     M anipulation  |
\*---------------------------------------------------------------------------*/
FoamFile
{
    version     2.0;
    format      ascii;
    class       volScalarField;
    location    "0.00108/particle";
    object      internalEMean;
}
// * * * * * * * * * * * * * * * * * * * * * * * * * * * * * * * * * * * * * //

dimensions      [1 -1 -2 0 0 0 0];

internalField   nonuniform List<scalar> 
600
(
105.561092562958
126.919124493176
130.66076752786
117.754015537891
109.240295808618
112.156002527328
123.084577020506
119.572371315785
125.191383388449
116.924729773253
114.012368027166
127.809808640973
113.933907239627
113.530647837458
112.677612190292
110.228440751714
118.743410314306
114.356262714533
115.248692700026
113.00731435933
112.929527531361
115.714270612921
115.781357072445
109.43860143929
107.734865811153
106.674671099009
113.027918552406
115.325900439651
110.27823011351
109.477477727791
111.911025257522
113.986522107364
112.957776212027
106.245229342717
115.227638328731
120.966745605796
125.706973555512
120.264863641673
120.529498152138
124.694666419722
119.365501962003
117.312584958803
121.158383029043
116.384300969884
110.310333123988
122.352855722676
111.9795816939
127.365456170029
114.013005314726
115.618839238513
115.13471651166
107.583432943516
122.922789893057
121.07279985368
112.709411895171
114.005741315849
103.710191475427
113.355887128212
117.413040411039
114.419861347125
121.068396358805
123.176749589984
117.044135384837
121.658047680618
116.230484920705
117.122047097033
121.145402592779
117.118990329348
116.483868079776
111.785367579137
110.153443256212
115.635195765548
114.354408695642
111.943034065072
115.437026053865
110.470132155208
113.318424010362
115.665553735809
109.443776725382
105.654151948101
106.144663648139
111.01671905745
108.800607620644
106.57516405077
107.544749101808
111.423847821957
114.258834990218
109.258413027363
115.416775895549
108.796311678475
119.911683924253
114.938428782772
116.890515187219
122.347753329359
115.539064700567
109.011970990435
114.487542224771
117.811381377332
108.893893297055
114.961197280573
117.599807543553
112.959451167449
110.608119417691
109.651792391013
118.147171412625
120.362654002778
112.204504682586
130.292443365326
114.132644742867
110.411479803873
116.109206614643
114.991522964647
117.169659020341
118.409271443537
114.218195489915
114.45278696038
122.389814706118
105.572816834433
111.270397578346
104.165011951913
109.960982384962
94.5534957436359
103.924471484672
121.606159440473
111.181841802631
110.040442799702
107.472291840006
114.695760475009
114.689094327661
110.795478735391
116.391251654083
102.86916555207
106.132525828967
105.199078381102
108.700431432691
116.621043252591
101.273201391583
110.524830260472
111.885504312838
115.254895436589
107.310304160405
113.987184027866
117.171922543244
109.086330673846
118.015359405989
111.070518627011
112.605145134536
109.513869013027
107.915750707268
117.424140431632
117.424912214711
108.621487417055
112.23174734792
109.832329462742
118.533241396977
114.284330445743
120.668912873147
120.287109263541
108.504257555706
114.452163550156
106.59952932319
110.653663217172
114.990575881411
113.062248955292
115.703750555687
114.61535508958
112.636027824503
119.149188411685
119.401824103272
113.729096070726
107.734106779688
113.684918563715
122.044208553977
107.07265322466
112.916039995783
108.349011889896
105.081002562949
109.70367657485
106.221547730116
111.34478338522
102.567937662467
98.7764656570664
107.850382239611
103.75972586515
113.85601800562
119.517805906426
106.526203592576
105.702903203963
113.554536766234
111.275639187602
109.207128264268
101.10814561238
108.89675830022
117.380264054197
113.057283786753
107.684075198624
106.99124581367
110.590099906431
111.010774401506
116.717690452122
116.314479128483
117.461089199329
107.876110404205
111.001797562387
107.898956069672
105.938609974122
110.05157287455
112.197083779159
110.839442639517
114.263876872366
114.239355809585
117.347049404418
117.451816950622
113.590635296067
123.920758375791
112.708236465835
119.251149309868
114.093033818946
102.799601963939
108.608810410087
116.473496550776
110.224380692459
106.376331941011
106.927605044044
101.122978652391
96.5628201703825
106.066438828554
112.346956809612
116.585020334925
110.083082998054
115.707413649989
120.436233260499
104.251760515354
109.137871275794
109.033189421478
117.229636146735
103.824926409361
100.185002181961
105.164877210924
102.412558849145
96.1361975977792
98.1883584162834
102.203145141335
94.016414370687
95.9544070842976
87.0088205525472
90.6082421345495
96.7158839409317
96.9558403716908
87.2276433440054
80.4424853984257
74.7332832038192
80.396089523681
87.7571889230964
83.8193704932301
86.6957906181172
82.8048467163862
77.1075033694572
75.1479609753018
80.4271646977294
76.2764917790836
66.8121838502064
69.7260867958926
67.5057510940364
62.9487602116893
64.9741916436543
64.6331207320021
61.511844432258
59.0261042814306
58.7622721040214
68.6089737180515
61.391112594891
58.7402095823299
62.1478804113555
54.4361274440793
58.0263757565206
56.7410551738072
58.9026047899114
47.4679979810695
51.0443200085452
48.9665082922543
52.2295036952047
45.0852027097713
47.2873941608167
43.5893301785015
43.8432282365134
44.3064302976224
43.6265000059877
41.9433145203085
50.8041476817526
45.123460626771
45.5788249612313
40.2374793096988
43.7460353100998
51.5977560291889
49.1797202918568
46.3075519104585
46.0883388403188
39.6716975695013
41.263775965519
43.5512824498968
42.904236615614
41.4894179319723
41.9838073928927
48.1181806667106
41.3528471366992
40.8909560603299
47.6155594456793
40.7233506734298
37.7456762392966
39.5764081066711
47.7263016087154
42.7757857964727
42.9123472809871
41.0536739468164
47.6669954781163
40.5706894506531
44.4952056532656
38.9522381410143
44.0768679121052
44.9794632414792
50.440073160005
46.7193866642054
38.995524680895
36.1265001408037
36.9877967840692
39.285420615075
44.9478197474722
37.7023994225234
38.6330124742541
43.9536798642787
40.0876161539898
37.8543188421664
45.6956806308283
43.7540919878037
43.3848581591544
44.7499412709496
44.0594357938293
40.9956582849062
42.5418253196852
42.8818141677787
40.3301942411286
40.004511149339
44.9686187522788
43.843499754123
39.1759338972623
41.6473411381602
42.665510172913
46.4045202695252
40.4294110127464
45.9713926260786
46.2224817048844
45.5237383768276
45.5080010499054
40.1126527679145
41.5874661883511
41.0725169420974
42.6412985496159
41.9164435475789
47.1719719591351
45.9271304552637
43.9676943478621
44.978257899968
44.0958143356616
44.1361447342732
43.7217681292124
40.2690097947905
43.2004730309709
36.9184242992434
33.1820962463116
26.3613528042267
15.4178539855382
12.8418900671251
11.2842417616317
10.8251802470937
10.2436780935343
10.5362393943528
9.77850343818004
10.4501254435501
13.2071964692787
11.8959806526326
10.9173330802582
11.1410960137368
11.6002948075597
11.6638174833491
9.65406200927455
9.74241432358545
10.6373186624648
11.5388765441015
12.0951955010766
10.1472771393652
10.7487814396015
11.2229013622719
11.6278278616387
10.5661742881656
10.392325682191
11.4669237628627
11.0010748066007
10.0304041565993
11.4282198582298
9.88821347808605
10.1218157172626
10.4706264632026
8.4547752540548
9.76976078449001
10.1397822642388
10.6487327453504
11.5847948645361
12.9357431857768
11.4937538346122
10.5949021054288
12.5520052951544
11.6521287106922
12.0306022699572
10.9624533328256
10.2761733072984
11.5678809964548
10.4372395991137
9.14818912478114
10.2440455548558
10.3063568384738
11.6496623910698
11.5760800381677
12.6234246872977
9.38878046396731
11.3366488221773
10.5764915496297
9.38217906229552
11.9468184028012
12.9114044310451
11.0925723645913
10.3027875954605
10.8482827462427
11.0920766734225
10.1640882668466
12.3706334003438
10.769480677734
12.1600601911144
10.2733485397091
12.1446534824695
11.0851940246746
9.54592960074604
8.60386516737132
9.68346401669624
9.68112799667272
9.30302208690654
9.90623612385164
11.4905947687369
11.2736186658206
8.78674754723297
13.1830878600264
12.4820962204819
12.0904687658102
10.7213999297589
10.9192133791377
12.8232094331057
13.2015091813597
11.406248106957
11.0516924385639
10.3650756897886
10.2442137277392
14.8002888717806
14.2951776637706
12.7048815797789
10.3541038371632
10.0749186737111
11.2585695278309
10.1329161044809
11.9055524218517
9.88413511836703
10.8464677366869
9.09676701343643
12.0259373751002
12.5085876668391
10.739398249606
11.4755364585214
11.6655075029599
9.76093123462107
11.7364366092038
9.67506100003822
11.1155423603433
12.0811634433712
11.8323738923043
11.6855845712533
10.2325745358146
9.98282675760862
11.8956609059319
8.30536446005211
7.44649111650043
9.66479344471421
11.9848637991173
12.8724304392663
11.2989791422351
10.8187312929938
9.83378229279375
9.7235992893158
13.4968270736244
12.031625199116
10.3265541898908
10.0493930827542
11.6230500805837
11.4498921225906
9.61017341500513
11.8548271451048
9.77661710731465
11.6529408467315
12.2936039134323
12.4500481982789
11.023094531923
10.3478263325088
10.1011555343624
10.0241899493904
10.7784589385953
10.6352977347206
9.59431514133765
9.09501501716375
10.8366182010986
9.68304474887971
11.5771733567769
11.6250011721621
8.53610841863686
10.9047830709179
12.2059654163789
10.2186525479291
11.6268336460645
11.4788967920874
10.8178596096972
10.3350685121598
9.29307443553355
12.7067251126752
11.7456798922829
13.8746733632886
13.5999627817268
11.0491459026243
10.9986378062706
13.0566733187808
11.9081363128478
10.4271140598958
10.1080917667716
9.98407123404308
10.595520071929
12.0608501495064
11.3491201384422
11.98028389003
11.9146473499094
10.6382993067923
12.0579772015743
8.90000214982272
10.1835216300585
10.9898593927951
11.3229559969086
11.1861155838826
10.9379790717273
9.84954480243205
12.2197992017926
9.66920663411736
11.2231865866669
11.7346737517867
12.2370913242933
10.2036129643794
11.1393737887002
11.3819832454367
11.4909119274357
13.1294213561612
12.049323927068
11.9946237586717
11.0812589471404
10.9501980700952
9.40543367384492
10.0554645512911
12.4483442776713
9.97464314482145
10.5304830679003
9.67412905906713
13.890977805927
11.6926626780754
10.1890068668303
11.6775512078932
11.8575377492075
12.6051987047466
13.5329272401516
10.9707684535166
10.5254254249827
10.9777450863795
12.997709246182
12.7261636357634
12.483057413507
12.8423340517796
12.3730992926685
10.2337762998843
10.5263851685304
10.2039022670483
9.87574876144333
12.4569102627542
11.8988471904773
10.1985945274546
10.079025688301
11.3340850729235
11.7603299714812
12.8845436487356
)
;

boundaryField
{
    DSMCSide
    {
        type            symmetry;
    }
    DSMCBound
    {
        type            calculated;
        value           uniform 105.561092562958;
    }
    nullDims
    {
        type            empty;
    }
}


// ************************************************************************* //
