/*--------------------------------*- C++ -*----------------------------------*\
  =========                 |
  \\      /  F ield         | OpenFOAM: The Open Source CFD Toolbox
   \\    /   O peration     | Website:  https://openfoam.org
    \\  /    A nd           | Version:  7
     \\/     M anipulation  |
\*---------------------------------------------------------------------------*/
FoamFile
{
    version     2.0;
    format      ascii;
    class       volScalarField;
    location    "0.00108/particle";
    object      internalT;
}
// * * * * * * * * * * * * * * * * * * * * * * * * * * * * * * * * * * * * * //

dimensions      [1 2 -2 0 0 0 0];

internalField   nonuniform List<scalar> 
600
(
844.133556896494
989.425708276234
921.124391604871
928.025040333482
941.135112507545
1065.10569340787
985.854142216349
820.100048818503
840.640306104453
768.135499541048
952.314884273201
949.982523550524
872.384018886828
911.649136621733
831.244440065748
864.341133850542
871.774472890732
831.929895562484
976.183723756449
815.721017022213
976.913953627515
950.94246838576
988.201213381102
803.618030184629
792.252456876707
913.186260081533
828.643476033349
983.261545944027
878.368954636099
904.693263911739
944.201222692686
851.229194054901
779.486992102232
797.672333859795
815.055447052752
888.148338556933
978.356694744193
893.851741587367
977.511212073683
933.41487957894
956.583861661087
928.766843359582
924.680916971879
910.256370334322
854.805521383254
920.324451925947
859.556899200196
962.607368091776
873.749048683417
997.966543683178
849.412491828161
867.498121987259
980.753004807322
993.752471912952
903.768931743871
987.180420617403
889.983137324271
862.120680727937
905.236827440086
1018.61620746692
983.94838016393
814.152442439103
814.082775970711
954.659778091083
885.231578069586
928.014862608327
900.559441249805
867.368340922766
976.474252774152
865.728288283494
894.165147962349
1010.3515598662
828.851908531115
855.311665841291
902.15054818924
946.153059307874
851.22082029412
926.941753005555
927.022933740761
844.736658545926
793.119222677723
996.794577927472
894.9492088806
918.489076082426
770.587789135375
838.251159841562
914.671792496027
949.086231106164
870.084817530178
826.900279492139
918.474412832915
932.400097581124
957.747198402245
973.912615956459
973.150393621382
883.623021697239
880.368272518871
974.399838137302
876.604671610946
933.864219584578
1004.21579874238
916.710658503307
879.261793773447
858.942666440711
869.922247137255
846.64555887115
912.624230949214
948.984646438787
940.98411908871
892.684588086666
825.361128762411
944.060706674288
864.46402948833
899.843344367193
902.622466554888
907.524332315955
995.774370978008
873.065175137441
923.549023871449
841.096218099131
864.762036055595
913.392464450558
890.782824769424
1050.02037436442
781.853663719531
864.188801754017
890.40304206862
871.924461449417
921.926078236474
945.625832838227
962.328185442807
922.173267847421
956.417303128645
784.442330971632
976.697700459833
858.614786365933
810.926697578626
949.616405914066
809.226629160842
853.287275302567
876.897789240579
915.00442418116
916.435986865114
822.691759179026
956.873577874414
836.032270858055
864.479277742033
924.398194489402
860.801135054663
918.625109628703
969.548828503966
996.050591750077
951.827855882826
922.055230134356
889.215132502579
877.595922392503
903.105124711452
894.814193513607
849.401141587193
969.491856405098
852.220905914496
854.897375632352
820.074122693845
931.559668075094
1017.92051670392
819.566602115416
939.530046227302
962.497458460133
1039.4122253939
867.843943725644
783.642601439444
979.837499250683
932.640459715901
1036.95697170807
914.156614130067
921.339289113443
792.355126892288
817.180235608332
992.616581020647
801.382631864314
901.32540010951
779.04698104014
934.029349916715
841.210193238692
876.900026447826
868.770264512601
801.161381385741
820.74771810493
865.533413436854
925.939574892374
822.937194174481
870.74913661224
851.901414520726
851.664298078113
851.881939635523
842.51849334961
935.562235326788
885.000422357447
932.773964280252
933.100260272171
912.427860395544
913.681259360734
798.932217532383
957.767044747777
840.680647532485
966.128228368168
868.098982219769
897.647996426375
945.21621154352
979.326496571125
869.816752896459
1008.58534377791
841.238556696935
866.714707002292
1049.52228991041
893.893542305121
940.65242649835
825.432739317548
879.051878897217
899.802203240631
1021.3411791664
924.734702094137
856.302020595357
924.702634961853
899.845949573024
847.412869652071
902.494075819175
839.924804094957
873.687101312273
951.421835653563
941.57142810986
922.805182466203
947.353432221563
894.021524115866
1033.87159738403
931.349726914788
866.657892258865
906.807330155073
931.92626352631
869.749160675206
862.815150680382
913.398973412407
825.837510598367
834.503994930261
819.860091154853
773.107072770903
844.517608114974
880.804751449456
799.427448059045
823.443519204716
884.548443420325
816.800741267991
878.043989012923
834.140958059003
941.749083551145
820.653877635271
779.858160143257
787.373563136474
879.239478826012
810.703984009624
740.520824694943
710.02737012111
756.804035188665
803.669949178284
729.938064640812
774.456951651388
691.486924485747
815.420592753359
710.596801384659
702.048853189423
948.906642088018
637.706610235108
675.831641833837
707.780479140268
851.564374379231
835.383016213986
652.982332235139
886.543251520656
728.315780333439
670.516924752238
768.286161814283
717.359399794408
635.011970459334
880.004693908304
718.442919059664
629.723908373376
653.119001760921
542.588027589023
616.218878380094
678.879987985988
620.827583239285
744.183202729834
648.450138560273
785.359179679435
671.686862197519
754.984427858168
766.292511107459
742.971632173067
717.383327205192
710.464025986371
658.330975853979
647.44810025484
702.268417253272
683.563370985547
735.412236211726
700.759992290433
707.716857890991
639.994634167313
668.770695066025
644.886124903832
615.521743411982
624.36314812173
687.149533809736
687.194346304759
634.208383282692
726.097625090595
655.382874253188
721.019612203228
617.044061569952
669.157844587355
736.217169004751
779.413904046327
673.720153956853
617.936832551653
693.626732951919
553.037402916354
572.54568705759
710.653356715166
695.069227924185
652.731918017228
742.330916429231
710.900704803431
546.816956494418
791.94404411066
682.310961654543
663.941449072548
706.618293223819
655.005084850609
664.246477589565
630.106522611499
613.607807864841
497.566807425346
561.531280632149
560.149849906033
471.148572475931
504.723275058162
493.527436071472
499.684315501638
504.548811746873
422.678153131546
517.630584808931
524.291955750246
517.082446533324
542.104790696448
494.109571170568
537.925212342097
425.315474987217
495.829715670306
481.367886155843
464.363024170009
513.982131362965
453.675845992506
510.114593550532
499.978220950874
467.886641456343
434.773710748949
510.182673568722
498.150213777337
423.595888671561
510.602266258071
462.434539561946
442.896004139305
323.958467755635
347.836532960566
284.475373210067
291.523997782839
280.801077922114
320.111886264001
343.695206193896
335.786104226797
310.801467402812
340.189723061056
384.098417270606
382.19566999021
342.570659663135
278.301140547729
295.4547802816
265.297841472888
360.815039360752
352.374379257112
330.723072438339
328.957957116784
353.731438768974
240.855771023794
238.114857250182
311.579424311675
381.690760363913
300.929674457131
241.846053715202
367.285325944209
300.403798880582
343.479603517279
319.705717971172
273.531396215592
310.308407259027
276.585549854451
213.903018249268
361.184059038106
325.798233603565
323.396190165609
274.262834378648
344.452049462648
283.324786508931
326.575070757372
366.902520337561
294.042841677967
343.898256375034
298.948235545198
254.101320571784
291.166658705651
268.938058933139
312.773327730233
286.335668891651
248.314666306319
243.675967160365
396.000420426557
358.331571324312
256.186938134021
273.935856156061
250.75787696351
333.928866849669
295.30515353822
311.975712653579
304.052323036568
291.1166140544
281.18403749835
335.131316579894
373.406882199265
277.354052070752
310.19980261885
326.997916005423
258.52602640856
317.848322884093
245.342047715126
320.029412173069
291.773414782882
316.499902082871
308.371039500125
302.560599092464
325.492942361665
318.156215171144
271.244735791993
268.993041154203
327.388315950743
327.230508889479
302.766012827399
282.644914433397
318.399728775038
343.871586953382
284.486376346463
322.159647135142
371.029788623229
318.473306470959
339.651566011422
268.35628133302
290.265459203673
310.626884691708
275.844180792568
345.580144014275
257.394035803391
309.123198069805
223.108159176341
340.673664073706
326.394224432785
280.660141684632
254.572118390253
309.034910108459
243.99087077031
376.267864719292
268.511513135125
274.737442650483
283.275143959356
316.146145349484
306.146698767914
285.795742496874
304.045899526084
360.945197466246
251.863590505353
271.839171181474
300.869869016183
312.843606828871
339.300182967442
294.510058137032
333.428369053065
264.556815884549
257.245263557013
341.606853397281
372.526738519509
264.107351619596
246.883057415929
312.609119163299
351.904319487885
348.378423414713
288.99852318297
311.883713250144
334.367656718975
262.732621618162
320.413558131344
280.663667856903
246.777680456649
282.482475042377
270.696719287989
284.144159603593
319.600705963544
298.976158808726
252.907637191487
323.354191752033
238.315700617799
296.391773292976
376.127520940538
296.118477801162
281.132600514132
352.599871816098
324.124627176361
272.026953488282
302.372952860401
355.827221664271
257.176671361238
282.292534636796
284.453444884502
298.327016131055
277.538038831275
327.216636690951
310.689405705179
257.321181779041
321.575206274295
320.11222356703
287.095506794161
272.404601588461
307.366452882607
254.159301505517
323.208511192403
286.546332582969
292.409097643263
360.155256195195
290.07857806619
295.875423657887
274.680127041587
317.139721621895
289.71297346091
313.580382401533
217.216366581355
327.958375360734
241.378855489758
397.307955177471
280.155470662183
274.301003703088
267.917803851317
271.760672650531
319.783415523714
282.991916669199
278.21842402376
346.125248007487
299.567207442549
352.234173658399
375.584602112602
256.810673092066
290.828499483378
311.049968206338
278.330054969726
417.045016299892
241.369014521913
287.002966997473
290.634631283739
333.364396112379
401.495737437431
266.227307520781
304.044458631829
315.532622627848
343.694113597916
280.079896851425
244.794876474278
334.679097556151
336.896025381586
298.532207884289
405.985084039388
285.044051324354
271.0026954442
344.983842733142
322.139951583708
325.132750639814
260.831564621125
384.341681702261
274.897903029532
355.021826641971
306.09487992345
309.605831664722
358.120031018159
317.087017406353
282.432616092052
)
;

boundaryField
{
    DSMCSide
    {
        type            symmetry;
    }
    DSMCBound
    {
        type            calculated;
        value           uniform 844.133556896494;
    }
    nullDims
    {
        type            empty;
    }
}


// ************************************************************************* //
