/*--------------------------------*- C++ -*----------------------------------*\
  =========                 |
  \\      /  F ield         | OpenFOAM: The Open Source CFD Toolbox
   \\    /   O peration     | Website:  https://openfoam.org
    \\  /    A nd           | Version:  7
     \\/     M anipulation  |
\*---------------------------------------------------------------------------*/
FoamFile
{
    version     2.0;
    format      ascii;
    class       volScalarField;
    location    "0.00108/particle";
    object      overallT;
}
// * * * * * * * * * * * * * * * * * * * * * * * * * * * * * * * * * * * * * //

dimensions      [1 2 -2 0 0 0 0];

internalField   nonuniform List<scalar> 
600
(
885.62528273197
1002.49627953033
931.278323433972
888.048076097464
908.857687652399
955.749170837062
928.557505436709
878.021104192468
894.087595164206
835.048274473124
870.768204373659
944.431262818414
915.441944318054
866.504615004036
942.213616891006
903.53223578982
882.458456597798
913.801667604872
900.181739864818
860.884839078662
926.925402289404
947.208356935939
931.689798280026
886.913872206081
888.683273072168
880.728782296845
913.053072394588
955.524315412869
879.174150810076
906.64196586349
915.159248103636
892.573885706336
879.567231487149
907.103036024498
853.494372336819
957.262235943782
1000.10151294891
937.89250695367
997.506418922329
932.374507583916
990.06454946065
915.079415916234
920.230893117477
936.246083615291
861.742940330672
911.974839035941
920.058403991187
947.327452291712
888.547235349638
906.825342819047
846.534796609797
882.912688272553
934.894982691536
930.104745466238
857.84456605138
937.899289605441
869.784048179911
830.23339403386
958.928145589611
958.437860599293
929.488407313416
878.781212067938
892.700661914518
934.490034087061
896.838937824233
917.021297618974
889.444543036763
912.15593448605
922.774626641655
937.038831081583
856.624676387558
915.359204655327
874.98833910986
928.942840828229
928.036035752073
903.822189222166
854.823756762288
858.767214833486
888.747982972002
851.361677563534
831.216510152819
963.099637812736
847.248303837289
903.203293411989
873.856420782966
874.272011814673
943.443914924661
902.946164519251
893.161307086178
903.499582096756
938.917060370139
927.263275042541
890.973327461242
953.378091814202
943.412827957768
900.803851627401
877.955139429217
925.573695997792
941.154115761672
948.851003157674
906.34738244654
859.987181963604
876.817442826182
910.923928960888
861.631745518817
886.400116719751
902.879408764036
957.947702944902
950.666084567542
873.122633310073
887.110746377014
962.74128104655
897.075716527898
943.645416400136
888.257341993388
923.3126308338
920.76941235469
897.288335382255
895.797676175101
864.565753616267
840.163138714575
892.914197507217
880.943195070318
1004.67876256883
814.301876638411
852.911067681583
843.914924032559
869.411213129406
893.281685604249
902.069887928398
943.432127915098
905.759862477587
899.078064745547
891.584865725273
900.951410710461
851.093991459643
826.118133736067
959.436093791661
846.675592020356
858.422182264743
859.833260069999
888.788241004005
895.599132739712
847.655685487332
952.458980630822
854.936826095538
898.862629455903
908.511288364518
921.367417441222
951.654778364367
905.736524339204
942.94475283202
921.725174687112
890.197296862631
839.23122330989
879.475266509811
907.403267700317
894.627921060355
900.35891991559
915.072366456519
865.245205610733
854.491404203132
919.026628932564
884.470542612042
898.818004285078
810.369129089548
904.044568670457
945.750493177296
941.012291969051
890.336855966912
832.25942932746
894.704259927132
867.754265747159
902.87659445545
926.142267897637
943.160802343617
874.961885535183
913.511676030302
946.55176097751
836.954669098809
852.61490610127
869.333788796365
907.718695227149
867.531999314901
863.541800160677
878.73268788453
864.815844397954
804.302077924464
942.958978869719
904.122825578125
867.289571672651
858.472181197662
918.233239361373
835.676754190171
879.504208557071
867.362825136899
866.018428680111
891.613800916189
917.066177842639
939.092854200092
918.98343080381
906.903832099039
881.253225283141
897.767570557357
854.727438266399
901.686646139048
852.753921929441
911.697623995277
890.246425643839
899.287127484002
900.00809590189
923.75699224032
894.5539266161
905.073078156789
958.766227466309
861.949257652513
962.784307192991
841.722674293252
901.099150998557
869.47465190923
940.928530697721
843.95428913919
927.427915681117
893.729330865461
920.215782360423
826.152652269
901.398532831589
865.746092764111
900.455791976968
917.596156609431
869.048498132306
893.452605485999
876.503852722221
892.984232284586
929.329152217727
913.644933630998
820.800208253012
901.507626195503
913.162663688192
849.579858734425
804.954123361342
860.534821780889
840.088037278918
795.65417738184
856.370812560733
840.987957274135
814.218636778772
882.317054263194
802.768879374827
798.223470083214
868.039655519696
806.980574213917
837.614277849504
830.109216537453
801.243292747478
815.96532654583
766.329873556715
748.370018867438
823.379448452154
800.197436537556
766.063834047178
790.862707677011
744.346936848039
799.155105355759
783.275754537151
744.783227493206
770.153581374168
729.229515534613
723.663773011255
724.112254376872
820.153110103923
704.816677939167
714.712506334757
728.229927875662
776.044274123914
701.867175305949
652.587601815112
770.727263078929
730.938802775529
708.392825610034
734.667701828452
674.153293797387
664.73952444118
719.67335705776
758.243204553095
676.334490599514
642.173615191592
648.573746807063
651.965407632463
653.42190092955
698.369052639827
753.320558380145
667.594425644974
884.564471507553
683.394453483332
692.484976285357
717.966424683392
685.666484787245
634.538648159727
730.604937190424
726.248218674473
609.946072811161
679.467094977233
601.78288977751
722.645248761719
676.87676859739
718.928072885097
700.907897498609
638.926160400469
641.890873434141
616.635939825365
653.204289274277
687.690849273165
655.551837934825
645.565682641956
695.578034660312
667.546367994432
721.364576935112
645.125982545671
675.117871287061
716.211816879821
722.404551158116
666.02244685469
648.987375085679
647.922542346713
614.840733040471
666.579108124622
667.591357106739
716.646643444523
633.732695023131
720.598769160939
746.588280844189
615.969645750735
688.464535094594
649.96860546437
702.884914555735
634.344965413242
624.04032114792
655.606833054265
694.387052303379
601.498150278817
598.274807321309
545.111756467093
582.077402867758
543.126573258909
479.914111432176
470.86206605899
472.116081253783
511.405310543643
482.030154927215
486.510885328108
499.603980226408
504.066618719361
502.425496752631
478.500726295648
491.911439611506
443.185467329142
457.333714485755
462.919638065133
461.337689555757
517.100364742827
449.241642062898
459.847228540793
474.91855878752
488.702185715087
449.226313716533
494.413101721163
479.225867931043
467.780408250555
483.448766615882
490.252706600924
423.475719705354
321.219484048116
342.55944317282
273.010633084745
286.163455578043
292.061778935075
294.203668329733
281.087722155583
312.840575731883
312.618350749421
293.355597244257
340.951223200154
282.049295889997
314.393142606428
278.161130762269
264.638760995728
284.153282006346
324.00940552674
300.383113271253
283.525003850846
300.639942095081
273.290555919801
274.124982113228
227.538727891111
309.93313300459
330.4849826438
310.861356969598
274.526922839499
312.770761413815
263.991583809008
331.121998804766
287.337067290671
277.019770080762
316.62956318745
269.483504973411
265.894352270617
332.020583961181
304.111683902365
300.633801339302
276.226101515329
317.918289820328
300.135600258732
307.272899237802
348.062054880451
263.247254040307
294.927842381003
291.473309494111
281.442160854883
307.608035976998
278.965464523894
285.685469171724
301.126142377209
272.893852350635
294.720682715263
316.476856071025
332.462205662317
262.645530587834
295.123120299583
282.400534356921
308.96656782433
278.239780317606
307.659285578666
287.06673706725
311.635089651718
268.809534033644
298.153978542109
338.536095379404
279.181092144536
312.39065844135
324.136616343862
256.093397857737
293.70616844869
290.702226509656
308.252397583671
287.417764524277
301.36536992297
301.208830130033
310.012952128692
294.041026336978
321.523272740358
278.246658257527
299.865374830541
270.711221579924
324.812576370109
279.143648588022
289.834952847405
306.687907409416
295.014434973129
260.640065224114
306.093869780019
329.353192172289
300.791824007715
321.630390212369
309.809226712435
268.642448503993
270.964827312793
315.345247069911
319.617204603525
286.354614358575
283.616460077749
270.351876730621
322.265200992823
298.659953600963
262.479670731339
303.870433887598
293.435758035052
251.621190211145
332.4372291039
296.364888087031
266.482896593278
286.048055212913
306.714095913179
308.473905137702
309.250420514742
284.410858278601
320.322586222976
290.032147835262
322.447112953629
333.279574087197
323.601449113046
323.011319967937
292.378118600302
318.607382174909
274.512851681083
292.223692693453
317.072551328751
355.291961596785
289.780472350797
245.713923626623
298.19157985
314.510999760345
326.781812911216
283.817854601926
269.023803219895
315.372786383361
296.315215793991
308.229285825846
292.27711676934
268.996935286004
315.201691197408
265.103521713614
293.686091999472
315.690481837443
303.693819451611
263.836834285921
303.065724747578
249.278927636087
273.446525344384
336.752414006527
271.889312897986
286.48517779818
346.342359539558
313.185962961611
277.650523648975
306.82039457937
308.528628851995
293.892694584352
357.372288153417
286.361120835303
342.519042852948
296.181217479826
310.760120069379
297.926743215148
249.563838911239
294.649092384095
324.783647256413
321.725590552378
279.476625693479
270.479663578573
258.086116574356
327.573181231076
290.547033624243
296.984221671801
338.58507058436
289.290628819693
316.17821558809
273.365993981365
308.131817225961
299.578669147401
311.629560926392
279.830495181289
296.227648090524
252.668704321974
346.467685233779
334.859713204933
299.183727980681
285.497062237034
301.787522325603
293.992817611473
331.136594486336
303.973241335505
317.898371706603
284.294317408412
334.314778326512
323.82260802372
287.12149076925
268.740037713349
293.708222440061
280.532572331752
361.964340256282
281.020404099009
318.613590781405
305.845992268469
288.634470526444
320.589369781008
271.834107559737
281.755912572205
315.590792798168
294.689060517468
298.372513135896
287.282342217879
304.979318570893
301.175698594642
309.389449657728
358.390487928105
292.931596112035
295.064965959216
312.699957110951
303.037857753509
285.005590372293
285.460494392266
311.66461910417
308.786725879597
313.420060914821
315.409901526026
302.799813737162
332.015731692904
313.867626997508
271.731605245736
)
;

boundaryField
{
    DSMCSide
    {
        type            symmetry;
    }
    DSMCBound
    {
        type            calculated;
        value           uniform 885.62528273197;
    }
    nullDims
    {
        type            empty;
    }
}


// ************************************************************************* //
