/*--------------------------------*- C++ -*----------------------------------*\
  =========                 |
  \\      /  F ield         | OpenFOAM: The Open Source CFD Toolbox
   \\    /   O peration     | Website:  https://openfoam.org
    \\  /    A nd           | Version:  7
     \\/     M anipulation  |
\*---------------------------------------------------------------------------*/
FoamFile
{
    version     2.0;
    format      ascii;
    class       volScalarField;
    location    "0.00108/particle";
    object      p_Mean;
}
// * * * * * * * * * * * * * * * * * * * * * * * * * * * * * * * * * * * * * //

dimensions      [1 -1 -2 0 0 0 0];

internalField   nonuniform List<scalar> 
600
(
101.573682203767
103.322099755371
121.423980837947
122.675017183068
132.575681753777
102.596934205433
122.3684945668
102.63027445139
111.606493838476
122.153289585361
103.553001005386
119.447326269137
104.264561202144
118.574038314229
116.98810253842
110.131859124636
112.64714201183
107.627624337743
113.447208740439
113.540275007944
117.331049841708
113.514374176216
115.018580000072
109.091807334974
110.915473378532
134.465712829087
93.3529002539712
114.857137344243
110.866571286137
113.085723960274
123.822020729212
120.418538689242
135.236316232201
101.436196337581
108.335741823672
114.451275768798
125.740003303335
101.366501513661
99.9927361364749
103.326333682235
129.238293667992
109.66506524941
131.511346480608
104.151204097002
110.999112289669
112.684719489302
99.2247391184876
120.910444262572
119.75972495183
109.358537916654
110.915060314423
129.966146565251
98.0350978534599
122.215398662043
112.648395839148
101.713012600975
122.832274135263
111.71575545432
105.915105341261
106.945384737663
115.43348351608
110.829636261663
115.311068675718
127.227855904496
110.367174970811
128.127475636093
104.977116326111
97.1411116033527
104.310860787557
111.230471347247
121.056376385344
124.69705498924
101.684733580223
117.930282718357
111.202943145261
109.318960354817
108.222724433196
101.997840499467
101.104709474263
123.269821245401
110.286165028982
107.817620036963
102.984808248366
102.684840506296
109.62636501241
137.101495086598
124.649201031179
98.7768472584236
123.152014204689
95.3446008095416
108.882191609944
119.294075881953
112.952144219379
118.170829752588
111.273289684511
122.824177714207
112.136251107737
102.568537666798
122.199273930962
110.644843530183
119.744978266675
115.315258459277
100.76941490178
111.228274238913
117.19004155195
125.263182148959
124.364225030784
118.321342304739
109.878964736748
128.924261105293
121.122583948027
91.0805077260959
95.7063047454786
106.826306969463
109.004102359742
107.311639235508
123.734672303865
123.171653761427
113.829697313423
107.512265330214
112.555569634331
121.013244027114
101.367768252518
97.9703414443882
104.909921362462
103.642317316917
102.47036177373
109.357816302536
102.964513877465
123.169757276682
117.442378886161
108.612917687659
118.53049200085
111.805409255063
109.194920744718
109.565686173474
123.684502064191
119.322176615384
119.530285456422
113.812413125857
95.6601536725544
115.11559472622
119.213050958973
121.511696459721
120.378914082812
117.876664418045
104.959655278345
103.001488766438
103.97162435339
119.515321326284
101.902037463634
110.275458193562
120.758098428323
114.008964067457
103.050878688934
94.5000042838955
112.746989278152
111.162524791504
107.249257091874
94.7399362840568
116.08234117353
119.520724990619
103.336086825854
126.025864216623
115.365531819052
122.747371310084
120.705303592945
115.24926043526
123.870738224612
105.117690480404
105.996090525957
102.373254881021
108.63453744498
105.455789497954
105.845561727482
116.593698477825
115.032743218658
109.20006743566
111.297182376478
90.1473817864807
100.499349872786
109.089783569046
110.394744534524
103.802297161112
100.772307467915
104.795690119861
120.506346713918
113.77376333199
122.286541878005
123.625599235472
98.9007255135628
136.845354030538
106.780130332259
103.960107734186
135.238410392222
99.5536562133262
111.755176438528
98.5972537712004
102.002149938141
115.850390850082
107.48703774928
108.718760881886
109.594590919336
110.716176822152
110.977044311478
110.51698362835
124.486239208315
97.8004542401582
117.874735883746
116.181030163681
103.484208109358
95.0151276856087
109.998940373766
113.657242240658
104.926792361792
119.046824366288
120.787463673067
111.677731649284
109.21505948366
125.189661137094
96.179613584044
105.00896625831
117.67453497543
108.453793009925
132.291785773957
119.706520269611
110.190567211708
103.280544438322
101.130234476797
114.147335059503
114.478034942011
107.574645474366
97.7103127296291
109.632099681813
108.141335116872
118.897409812448
113.70708168537
108.498167361815
92.8225392685397
91.2799598258267
84.7878734982984
108.095791341718
93.2530304647217
89.3589671464601
80.8039561179549
93.3386379805329
85.0176026871081
81.0533224966863
82.4189919078223
79.3317143767254
80.0688077693399
85.5091376160133
78.6521977987663
77.5310310566058
91.9749452789723
86.8864243801365
66.0187957954884
71.0623419126727
85.053644710327
68.8583283423494
74.4002783695128
75.8443868133969
68.5783812388821
62.254707149844
70.5775027427528
66.1633732197469
63.1089075895103
57.4955841324537
56.2705417605332
62.8544604472748
56.1862370290388
55.6021866872042
51.1410233007761
66.0208998063522
55.6783957216978
55.3325885526675
70.6623902230435
56.068721572176
47.526631402621
59.0034131513887
42.7115101089198
46.12304192837
46.5436147663163
53.2745413416042
47.0648242805923
45.0018294853813
43.9545018441153
44.5546993099718
40.9122311933763
47.7714929090625
46.8238733009997
55.5765306180262
40.6411503182281
39.6120142276904
38.1831966674458
37.4129532726006
39.5176513877811
42.0953931247223
47.7927656360562
39.0343788841126
50.7278762716432
43.5537338287708
46.6046077689977
41.0247656931275
43.6402123278605
45.0313336974424
51.7565142586148
44.2535277491219
48.7128528860325
41.2011972950003
48.9585089093047
43.9026124995671
44.9273683449481
42.8600412522266
31.9697283988627
50.9022585921131
40.1953278441478
41.8354865954124
43.5177538070648
44.8342093803497
38.8627909564223
31.6318593307105
47.0952174789294
34.1642325537389
39.8653919309628
51.8485986426347
38.9608422664245
50.4836664757331
43.6774272253503
33.5684047363739
47.7099445588695
44.2583969377164
46.229774213733
37.0945956108663
30.4139868654493
36.8777684517668
38.6295113931449
43.8391398821967
33.4013160690982
40.5800584219614
31.4383832870876
40.2056372838728
38.899072767183
40.4358677462784
41.2018405408644
52.6198827895221
43.7906467314102
50.824629223264
42.9195586765551
46.738681890298
46.1871475582362
51.7126226744114
38.354905063391
48.5659745976582
40.2735705542005
50.5405061702137
31.716024572608
45.3288295038644
40.040613203051
44.2097717504432
44.1078197011953
49.6614830339447
50.1238796645495
39.986646604592
34.6568821413105
39.9763873869169
44.7011367418702
46.750162245773
41.8372198507081
43.9988531067368
40.2573896395489
37.0500149924077
24.4827641582504
13.2391892235587
12.110618232565
9.58419230780913
10.2391788398542
11.540612210447
10.4833401699436
10.2520242528851
14.898554073557
9.57769664659668
11.2890408470212
9.90699052380021
7.13446330710713
8.96993633486337
11.0589241342719
9.01602972292347
11.1381586302167
9.73462084227157
12.1352121928233
11.6480602304277
10.1791616977892
12.7644827560714
10.0648510965758
11.8663998752981
9.70935913604256
11.0918081720583
8.2139710412437
8.59570498843397
11.6820960392341
7.18246869802835
9.1183869519992
11.089563759199
9.59752428281622
10.4764974868102
11.8478299906561
10.4374810391941
10.5191627757185
13.6583132520424
8.9321152006615
13.479294638582
8.65591484003036
11.0332657830356
11.8838003307436
8.74797634820394
11.0729204261382
10.4483643190555
10.9244681317348
12.4544332426948
9.20685344990298
12.0415571736991
7.34816542269492
11.0546472272483
7.54514066267107
10.0439755894773
8.70842207793698
10.2731215071531
12.4493471803901
11.8416117798164
14.3070574535747
10.2724623320826
11.2482806073006
9.1247004188004
9.62988113923046
11.1309867392518
12.2281549964354
9.10018058007982
10.0263382462779
9.34873539220552
10.0966247669474
12.3132115332808
10.8486102652821
9.19735256328315
11.5992109134055
13.0496179883
8.06038549662649
10.0931221494205
9.57172836684269
8.90439250225839
10.0747796351308
11.5785194425587
11.4903909354098
11.3695002426809
9.57469283621259
11.1427050909275
12.2210831541045
9.22307589283584
10.6724529928652
11.9629717961512
12.0518151355299
9.82152990053066
10.4418837081847
8.90221441099537
12.2325140511052
13.2027085225679
9.51939967719034
11.801910981478
12.7977092180493
12.6828602275104
7.1980563700796
8.72211180944852
14.6623943034898
12.7791711740673
9.46769086416193
14.0958164977812
10.6411312525672
13.0356446607029
11.1268221443543
7.62289473015447
11.7415649830944
8.14382557467717
10.8969039508111
10.9391777862864
9.80622566408728
12.4501300310345
11.5315876056709
10.6123395716868
11.2715921316895
6.98216020356716
10.7682675574676
13.5373948830716
11.9843826854981
10.6941353795797
9.61877141044378
8.52782497359423
11.2494262656602
12.2112493342102
11.3799772845307
10.7752779730164
9.36897885173631
8.75621733751346
9.8773913281053
12.0119009643476
9.55128227339805
8.56003478242856
9.1068472384531
10.2404498398102
13.0104167000336
12.4690716344335
6.9454010002237
10.6115536522774
12.2764941732768
11.3451946087081
14.8385270092874
9.4867071909102
9.39885147520679
11.3960252909152
10.0471075452327
9.58106625380852
10.3614775509932
9.19801436924496
13.0849378974647
9.89311225287813
10.7002123861949
8.53336702933341
13.3613951629603
9.80316435272316
9.93373898661065
14.0404340348688
16.4893117165891
11.1030084645711
11.795237013731
11.906971972368
11.2986558923374
12.0100425915705
11.7566237052205
8.43501475668381
10.38292728514
10.2810404814418
12.9553797513572
8.29868176697142
11.6356838745327
8.88326259069518
8.07502225417699
9.72046672088036
12.3697431379456
10.3254051860119
12.254297488029
9.51359995760074
12.7105140952309
10.1857957785785
9.87577291606241
10.4248485780093
11.4047518284509
13.6844790241995
8.10216869160089
11.4071991785921
13.7697179048146
7.99449968278425
8.81497712046889
13.0647420835022
14.0955052796304
12.4540693596909
11.0742651229099
11.2534186272761
11.0806617427323
11.836411985123
10.7828525987372
13.8350566254259
8.51109561538017
9.05659341227662
11.158687956063
13.6141976867801
12.25051760233
8.78935134270382
11.5759531768585
10.3741420978882
9.97971245493993
12.5369662336544
13.323548264952
12.3193004568654
10.3715008148475
7.99226156048185
8.57036813062494
14.4807156799868
10.6826090415571
9.18932909503041
13.5939933314308
13.6257664388803
9.50192947450021
9.15675816621142
7.90251184976482
10.65313249631
11.2305042090151
11.1008382220461
13.2621230073033
12.000530051405
11.7949810701021
11.1057341435076
)
;

boundaryField
{
    DSMCSide
    {
        type            symmetry;
    }
    DSMCBound
    {
        type            symmetry;
    }
    nullDims
    {
        type            empty;
    }
}


// ************************************************************************* //
