/*--------------------------------*- C++ -*----------------------------------*\
  =========                 |
  \\      /  F ield         | OpenFOAM: The Open Source CFD Toolbox
   \\    /   O peration     | Website:  https://openfoam.org
    \\  /    A nd           | Version:  7
     \\/     M anipulation  |
\*---------------------------------------------------------------------------*/
FoamFile
{
    version     2.0;
    format      ascii;
    class       volScalarField;
    location    "0.00108/particle";
    object      rhoM;
}
// * * * * * * * * * * * * * * * * * * * * * * * * * * * * * * * * * * * * * //

dimensions      [1 -3 0 0 0 0 0];

internalField   nonuniform List<scalar> 
600
(
0.00038316
0.000429659999999999
0.000444540000000002
0.000425939999999996
0.000429659999999999
0.000399899999999999
0.000463140000000002
0.000425939999999996
0.000442679999999999
0.000416639999999999
0.000418500000000002
0.000416639999999996
0.000461280000000009
0.000457559999999999
0.000442679999999999
0.000468720000000002
0.000424079999999996
0.000461279999999999
0.000422219999999999
0.000416640000000002
0.000427799999999996
0.000411059999999999
0.000474299999999999
0.000438960000000002
0.000459419999999995
0.000392459999999999
0.000398039999999999
0.000399900000000002
0.000455699999999995
0.000422219999999999
0.000427799999999999
0.000435240000000002
0.000422219999999996
0.000435239999999999
0.000399899999999999
0.000390600000000002
0.000450119999999996
0.000407340000000008
0.000424079999999999
0.000401760000000002
0.000431519999999999
0.000451979999999995
0.000463139999999999
0.000412919999999999
0.000401760000000002
0.000427799999999996
0.000405479999999999
0.000414780000000002
0.000446399999999999
0.000407339999999996
0.000438959999999999
0.000407339999999999
0.000450120000000002
0.000472439999999995
0.000418499999999999
0.000416640000000002
0.000446399999999999
0.000431519999999996
0.000412919999999999
0.000414779999999999
0.000394320000000002
0.000457559999999995
0.000435240000000009
0.000435239999999999
0.000422220000000002
0.000453839999999999
0.000435239999999996
0.000418499999999999
0.000401759999999999
0.000472440000000002
0.000409199999999996
0.000425939999999999
0.000420360000000002
0.00035898
0.000392459999999996
0.000463139999999999
0.000409199999999999
0.000420360000000002
0.000418499999999996
0.000411059999999999
0.000431520000000002
0.000420359999999999
0.000416639999999996
0.000438959999999999
0.000438959999999999
0.000440820000000002
0.000386879999999997
0.000479880000000009
0.000390599999999999
0.000388740000000002
0.000396179999999999
0.000444539999999996
0.000446399999999999
0.000420359999999999
0.000438960000000002
0.000414779999999996
0.000438959999999999
0.000444540000000002
0.000455699999999999
0.000358979999999997
0.000424080000000008
0.000396179999999991
0.000418500000000008
0.00041849999999999
0.000420360000000008
0.000418499999999996
0.000444540000000009
0.000442679999999983
0.000414780000000008
0.00041849999999999
0.000420360000000008
0.00041291999999999
0.000416640000000008
0.000453839999999996
0.000398040000000008
0.000414779999999984
0.000448260000000009
0.00040547999999999
0.000388740000000008
0.000489179999999988
0.000444540000000009
0.000438959999999996
0.000394320000000008
0.000405479999999984
0.000392460000000008
0.000405480000000008
0.000435239999999989
0.000385020000000008
0.000392459999999991
0.000390600000000008
0.000411059999999996
0.000444540000000009
0.000390599999999985
0.000414780000000008
0.00041105999999999
0.000401760000000008
0.000437099999999989
0.000429660000000009
0.000448259999999996
0.000448260000000009
0.000427799999999983
0.000440820000000009
0.000433379999999989
0.000444540000000009
0.000431519999999989
0.000398040000000008
0.000385019999999997
0.000412920000000008
0.000429659999999983
0.000373860000000008
0.000433380000000009
0.000444539999999989
0.000418500000000008
0.000455699999999989
0.000379440000000008
0.000435239999999996
0.000412920000000008
0.000448259999999982
0.000377580000000008
0.000385019999999991
0.000442680000000009
0.00041663999999999
0.000435240000000009
0.000403619999999996
0.000427800000000009
0.000461279999999982
0.000451980000000009
0.000466859999999988
0.000392460000000008
0.000433379999999989
0.000357120000000013
0.00040547999999999
0.00052080000000001
0.000427799999999983
0.000424080000000008
0.000403620000000008
0.000396179999999991
0.000483600000000009
0.000370139999999991
0.000398040000000014
0.000451979999999989
0.000420360000000008
0.000429659999999983
0.000414780000000008
0.00039803999999999
0.000437100000000009
0.000438959999999996
0.000392460000000002
0.000424079999999996
0.000424080000000008
0.000405479999999984
0.000427800000000009
0.00042221999999999
0.000401760000000008
0.000455699999999989
0.000457560000000016
0.000388739999999991
0.000425940000000009
0.000405479999999984
0.000392460000000008
0.000450120000000009
0.000345959999999992
0.000379440000000008
0.00040733999999999
0.000476160000000016
0.000442679999999989
0.000448260000000009
0.000394319999999985
0.000437100000000009
0.000463139999999988
0.000392460000000008
0.000405479999999996
0.000355260000000002
0.000409199999999996
0.000451980000000009
0.000427799999999983
0.000435240000000009
0.000429659999999989
0.000388740000000008
0.00039989999999999
0.000403620000000014
0.000433379999999989
0.000383160000000008
0.000427799999999983
0.000437100000000009
0.000422220000000008
0.000396179999999991
0.000411060000000008
0.000370139999999991
0.000422220000000015
0.000442679999999989
0.000409200000000008
0.000440819999999983
0.000385020000000008
0.000383159999999991
0.000448260000000009
0.000388739999999997
0.000386880000000002
0.000409199999999996
0.000344100000000007
0.000398039999999985
0.000373860000000008
0.000383159999999991
0.000342240000000007
0.000364559999999992
0.000344100000000013
0.000379439999999991
0.000353400000000008
0.000364559999999986
0.000362700000000008
0.000344100000000007
0.000360839999999992
0.000347820000000008
0.000351539999999992
0.000327360000000012
0.000284579999999994
0.000347820000000008
0.000353399999999987
0.000277140000000007
0.000351539999999992
0.000260400000000006
0.000318059999999998
0.000295740000000003
0.000316199999999998
0.000271560000000007
0.00028457999999999
0.000273420000000007
0.000295739999999994
0.000303180000000007
0.000290159999999994
0.000236220000000009
0.000243659999999995
0.000293880000000007
0.000232499999999992
0.000256680000000006
0.000269700000000007
0.000264119999999995
0.000225060000000005
0.000236219999999995
0.000219480000000008
0.000225059999999995
0.000210180000000005
0.000238079999999992
0.000277140000000007
0.000212039999999996
0.000215760000000005
0.000206459999999999
0.000243660000000002
0.000267839999999999
0.000200880000000005
0.000212039999999992
0.000184140000000004
0.000212039999999996
0.000195300000000005
0.000180419999999996
0.000204600000000008
0.000232499999999995
0.000234360000000006
0.000221339999999992
0.000241800000000006
0.000221340000000005
0.000204600000000005
0.000223199999999992
0.000193439999999999
0.000199020000000011
0.000223199999999999
0.000208319999999986
0.000199020000000005
0.000245520000000006
0.000189720000000004
0.000215759999999986
0.000249240000000013
0.000189719999999999
0.000208320000000011
0.000221339999999979
0.000197160000000005
0.000217620000000005
0.000219480000000005
0.000239939999999992
0.000239939999999999
0.000221340000000012
0.000197159999999999
0.000223199999999985
0.000219480000000005
0.000195300000000005
0.000223200000000005
0.000215760000000005
0.000189719999999993
0.000232499999999999
0.00018600000000001
0.000225059999999999
0.000234359999999985
0.000208320000000005
0.000249240000000006
0.000202740000000005
0.000199019999999987
0.00018228000000001
0.000225059999999999
0.000236220000000013
0.000226919999999979
0.000217620000000005
0.000226920000000005
0.000215760000000005
0.000241799999999992
0.000247379999999999
0.000286440000000015
0.000288299999999998
0.000327359999999978
0.000312480000000007
0.000295740000000007
0.000280860000000007
0.000303180000000007
0.000310619999999989
0.000314339999999998
0.000269700000000015
0.000305039999999998
0.000314339999999979
0.000277140000000007
0.000279000000000007
0.000305040000000007
0.000366419999999975
0.000321780000000017
0.000308759999999998
0.000321780000000017
0.000301319999999971
0.000305040000000007
0.000344100000000007
0.000284580000000007
0.000325499999999988
0.000243659999999999
0.000252960000000014
0.000265979999999999
0.00015065999999999
0.000120900000000002
0.000135780000000003
0.000115320000000002
9.6720000000002e-05
0.000145079999999994
0.000148799999999999
0.000107880000000005
0.000117179999999999
0.000122759999999992
0.000133920000000003
9.8580000000002e-05
0.000115320000000002
0.000124619999999991
0.000119040000000006
0.000113459999999999
0.000100440000000005
0.000141359999999986
0.000133920000000003
0.000139500000000003
0.000133920000000003
0.000128339999999995
0.000130199999999999
0.000132060000000007
0.000111599999999999
0.000122759999999992
9.6720000000002e-05
9.6720000000002e-05
0.000133920000000003
0.000113460000000002
0.000115319999999996
0.000126479999999999
0.000146940000000008
0.000130199999999999
0.000111599999999992
0.000109740000000002
0.000119040000000002
0.000107880000000002
0.00015065999999999
0.000119040000000006
0.000145079999999999
0.000117180000000006
0.000132059999999987
0.000119040000000002
0.000130200000000003
0.000104160000000002
0.000141359999999995
0.000111599999999999
0.000120900000000006
0.000126479999999999
0.000106019999999993
0.000148800000000003
0.000122760000000003
0.000107880000000002
0.000150660000000003
0.000119039999999995
9.29999999999992e-05
0.000106020000000005
0.000132059999999999
0.000139499999999991
0.000132060000000003
0.000113460000000002
0.000135780000000007
0.000122759999999988
0.000113460000000006
0.000115319999999999
0.000113460000000006
0.000145079999999986
9.6720000000002e-05
9.11400000000046e-05
8.55599999999992e-05
0.000133919999999995
0.000106019999999999
0.000133920000000007
0.000124619999999999
0.00014321999999999
0.000120900000000006
0.000124619999999999
0.000115320000000002
0.000120900000000002
0.000124619999999995
0.000117179999999999
0.000150660000000008
0.000133919999999999
0.00014507999999999
0.000124620000000003
0.000109740000000002
0.000132060000000007
0.000120899999999988
0.000159960000000008
0.000119039999999999
0.000111600000000006
0.000128339999999987
0.000128340000000003
0.000156240000000008
0.000117179999999999
0.000122759999999995
0.000120899999999999
0.000120900000000006
0.000128339999999999
0.000128339999999991
0.000102300000000005
9.85799999999991e-05
0.000102300000000002
0.000154380000000003
0.000124619999999995
0.000128339999999999
0.000130200000000007
0.000122759999999999
0.000137639999999991
0.000133920000000003
0.000107880000000002
0.000145080000000007
9.85799999999904e-05
0.000122760000000006
0.000122759999999999
0.000130200000000007
0.000122759999999988
0.000117180000000002
0.000115320000000006
0.000115319999999999
0.000113459999999996
9.67199999999991e-05
0.000135780000000007
0.000111599999999999
0.000115319999999992
0.000126480000000006
0.000115319999999999
0.000139500000000003
0.000111600000000002
0.000120899999999995
0.000124619999999999
0.000126480000000006
0.000111599999999999
0.000109739999999993
0.000113460000000002
0.000133920000000003
0.000100440000000005
0.00010415999999999
0.000122760000000006
0.000100439999999999
0.000122760000000006
0.000133919999999987
0.000117180000000002
0.000111600000000006
0.000139499999999999
0.000107879999999996
0.000128339999999999
0.000148800000000008
0.000119039999999999
0.000111599999999992
0.000109740000000006
0.000109739999999999
0.000152520000000003
0.000124620000000003
0.000135779999999995
0.000126479999999999
0.000137640000000007
0.000146939999999999
0.000135779999999991
0.000141360000000003
0.000107880000000002
0.000120900000000006
0.000128339999999987
0.000115320000000006
0.000132059999999999
0.000102300000000005
0.000113459999999989
0.000130200000000003
0.000122760000000006
0.000128339999999999
0.000124619999999995
0.000100439999999999
0.000113460000000006
0.000126479999999999
0.000122759999999992
0.000126480000000006
0.000128339999999999
0.000135780000000003
9.48600000000019e-05
0.000135779999999995
0.000106019999999999
0.000130200000000007
0.000128339999999999
9.67199999999934e-05
0.000133920000000003
0.000124620000000003
0.000135780000000007
0.000137639999999987
0.000137640000000007
0.000133919999999999
0.000135780000000007
0.000141359999999986
0.000137640000000003
9.11400000000046e-05
0.000126479999999999
0.000133919999999995
9.67199999999991e-05
0.000120900000000006
0.000120899999999999
0.000119039999999992
0.000137640000000007
0.000111599999999999
0.000135780000000003
0.000120900000000002
0.000115319999999996
0.000120899999999999
0.000152520000000008
0.000146939999999999
0.000159959999999989
0.000109740000000002
0.000119040000000002
0.000113460000000006
0.000130199999999987
0.000111600000000006
0.000109739999999999
0.000145080000000007
9.11399999999911e-05
0.000161820000000004
0.000106020000000005
0.000132059999999999
0.000128339999999995
0.000115319999999999
0.000133920000000007
0.000113459999999999
0.000130199999999991
0.000128340000000006
0.000113459999999999
)
;

boundaryField
{
    DSMCSide
    {
        type            symmetry;
    }
    DSMCBound
    {
        type            zeroGradient;
    }
    nullDims
    {
        type            empty;
    }
}


// ************************************************************************* //
