/*--------------------------------*- C++ -*----------------------------------*\
  =========                 |
  \\      /  F ield         | OpenFOAM: The Open Source CFD Toolbox
   \\    /   O peration     | Website:  https://openfoam.org
    \\  /    A nd           | Version:  7
     \\/     M anipulation  |
\*---------------------------------------------------------------------------*/
FoamFile
{
    version     2.0;
    format      ascii;
    class       volScalarField;
    location    "0.00108/particle";
    object      translationalT;
}
// * * * * * * * * * * * * * * * * * * * * * * * * * * * * * * * * * * * * * //

dimensions      [1 2 -2 0 0 0 0];

internalField   nonuniform List<scalar> 
600
(
821.087781859405
846.559253563032
964.330785254546
961.613516181121
934.08663286647
844.438671882421
946.913201161592
860.355918402888
922.787624174076
837.833365606788
844.629267887804
969.902282241609
817.29934597075
909.775043889217
913.082719490099
848.597053998121
935.664377699964
885.844483146471
982.887790530314
979.009843603198
957.009818799516
893.67464108915
875.079391116717
949.697321835013
884.754318925411
981.784766153615
824.575383404346
859.407290076287
861.590907110972
926.556528478489
958.160892949375
923.927217784007
1050.9784782297
842.544549532259
908.185203155718
904.985388098772
907.102068698631
874.040535717814
909.854164682055
862.199362137037
971.025386503051
882.555843257488
1004.78071220206
873.105965395076
862.620939176877
931.702636665107
893.882262883314
968.750164349385
892.402807169387
896.01820374015
840.328378426019
871.611375782818
887.581011239808
874.705422891438
871.697028613333
916.298280813497
971.255344535551
986.772362030971
860.021782010302
803.528742157373
963.226626843254
916.364390785291
896.130971741055
1028.46756885098
861.406912995209
943.112658701859
852.405389790176
821.950581344023
878.51156042576
936.788884804398
948.925465226047
888.953187555163
825.671517722952
932.494478174852
879.300278516226
899.765265000485
803.128518947153
855.054185591149
828.391288861612
851.945643241673
907.725980754961
837.896220407498
803.78813521404
833.79230217567
936.344285918876
1001.02960420844
972.876976292867
831.903807175601
891.985761812837
858.927403412634
876.255480389224
1014.13479874124
933.913764555832
963.859477278036
954.915370452015
893.183989455871
931.420839769801
844.204950128874
941.579890530767
886.500839592549
950.996402237062
923.920809866712
825.644086436583
857.045241864307
895.362237287396
957.043120160643
934.404318180619
919.525078337825
929.730754076835
985.014710594611
843.544873986507
891.476965178935
841.25903081281
879.249126477516
873.355008492376
903.784274473952
896.20593418942
899.322591169581
888.431621049152
893.013307206191
897.837094498267
898.047872639543
882.455799216958
869.602672267111
879.466339010171
872.881052124211
875.223197558477
864.710551834356
855.238988595217
965.491638817147
953.622277462429
906.312892492005
958.160978790192
887.941552884295
874.883870146456
844.234531634204
969.526572387357
956.024757924569
858.882645110959
945.343297664397
874.827235822518
910.238269252474
881.077538596324
924.48003923769
908.229472854084
837.035869138383
888.106469544734
847.768415786006
855.753254835455
953.353878410724
850.314421992445
853.334736994967
963.26730504993
913.454609742456
836.764501552703
834.707620782155
903.343504022803
910.798989127102
833.479232132775
857.747585232128
917.882495172497
879.760630233831
899.590971172401
916.466824940175
904.31660207611
979.135404604072
899.448890767757
907.333033395283
930.696530008113
893.619461749118
856.837056287162
850.327901007133
886.07678134514
904.99125693388
826.116085747653
913.943840664037
843.297736886099
886.695399009089
959.668603094821
845.76989049122
751.976550397035
893.816191968761
884.497013995653
916.873699124659
868.917051388128
817.921922394274
872.823284061267
861.986837289433
988.523633714889
948.53381540589
848.737583022202
960.432312598346
886.932082019115
840.378850203386
897.00284765421
819.390539150883
861.105172005247
854.230244952565
851.149803531604
936.495934643879
909.491683868237
867.231507998842
851.705810951253
954.658837557145
897.101426019201
855.203711712897
931.456102454979
894.400623042816
923.985517547836
906.783584597241
832.813917030669
873.339175063109
953.01256562434
879.503694691204
867.558348135849
953.818599985232
934.678850890128
915.020284803277
882.858128123996
921.488178634911
813.81495428674
918.570405369109
922.416201285981
967.397852424482
985.786841424471
922.372520109696
863.751570772708
827.49711994639
902.072384311016
956.904147565854
964.140036349695
873.497108858059
800.579639841363
923.327314500589
847.688240801897
927.984709011102
915.084937331213
861.67594085336
815.910713827106
843.287728142549
821.010191261746
873.810337633055
848.528217307192
801.019672776259
836.086068342104
797.227020330607
864.858909550319
793.332972783918
824.527480628824
736.662630818852
842.929642270558
864.999600585014
804.62589980815
762.981746316397
841.125422176798
810.973394611108
699.08164490163
804.221991370407
806.335856966274
751.112169778062
831.602827634766
853.009719895161
827.851389307955
777.428761688267
829.854547415217
788.189168380709
761.826043162146
708.228773892301
697.886266600306
795.896283361975
692.10027798004
757.001329154997
729.158770942578
853.905507839924
787.649778321361
700.6503796943
766.175506406285
676.83967179921
606.045318042968
736.827021148042
678.416632340741
652.475763345856
668.876558118732
694.002972502566
704.315883682069
690.565017051358
723.547568900612
753.990980646247
661.441673328307
665.398584683656
694.966574026986
745.442372393371
662.978469114936
623.714007228629
622.881908466646
639.105474530373
650.511310347597
712.372594459291
793.948031326457
706.811626482305
729.008424713143
723.527939219724
733.816424982554
663.261056081372
664.043156019533
691.017767015947
780.980490146826
777.977583886037
767.0119601201
632.243307392665
692.587460351951
757.107375228108
650.814737188259
686.800420928843
609.356927588756
725.754510130485
627.442593945426
721.459467769864
722.93022810135
654.702865824508
596.359841508272
602.916996203366
682.218049164271
567.546673996096
656.23556643218
690.326469238615
659.327166880689
697.80809729977
718.986564716729
562.812013134785
639.928650875258
656.889409682292
709.408154807519
699.674134670594
556.281440879089
618.297213265245
603.000451329505
640.172112162531
598.823198663717
650.265384522382
605.604038012602
587.11297279145
537.680597494628
519.282953453674
497.372500161334
618.707765511344
498.701467650372
561.160098054595
579.971777793314
503.759895381154
480.649289775588
547.59171060002
456.9132324138
508.326108834749
473.539079256834
466.917258824168
455.789810478762
500.48039302652
431.56662324175
428.088023238321
489.986819371758
499.578328986972
543.481316777049
449.723435745451
438.843695306608
479.383419640332
467.873960910483
506.900900467258
443.01978124455
491.793464461599
482.753104336676
475.801368514727
434.626986547471
307.342909451755
327.301444986835
340.284176599432
289.695377852313
321.493282440752
267.360805508113
285.596367733273
303.117162156506
255.040162418099
309.720192372634
284.745985293331
258.373349766667
222.496360778648
339.404251813084
276.706737950239
310.281908193079
293.781336154242
264.743736314679
273.917193868959
312.403875655134
334.973569896763
284.763152109511
311.40551513222
313.948888464887
291.078193375077
256.437530087762
259.409969592637
306.568898162174
224.234359192016
262.080000045974
295.298989585019
299.631616630339
259.866121397315
297.963267871437
325.854796004189
293.038194822346
353.309601896677
288.81696511549
297.652630887477
241.13265602407
293.79985618014
341.563305837219
255.489068034918
323.390234208817
286.655832920575
286.68675098253
296.733642875468
252.594393119142
307.100635230986
266.11253477331
294.369213010498
235.556861107116
249.137556051797
292.01295679091
281.847963222019
317.500666413764
274.898663018623
404.787188483877
277.623462345049
275.239546573255
284.870207898085
311.378993953093
279.935244350811
316.314649839744
294.251303089639
313.019050443427
282.135690683326
250.443501818608
314.028744709452
316.839142657276
244.912151439846
291.710700711763
306.876395700579
243.254550894704
299.607103253847
309.498643458639
248.054637092854
272.280891790927
312.920948508422
288.973966957247
302.753291892591
288.954865347605
255.399449326694
311.679157911061
278.343409892552
288.433605868775
292.727666369213
303.093328010033
273.603846029327
309.95984037528
273.213685613412
263.689507252158
318.755864328821
257.271198705073
300.988842810773
335.845519571221
318.963597749614
245.921095754025
277.078740862859
323.778087545607
308.53030997638
285.725650483529
300.280909839587
321.138933731908
318.975410639509
275.997213550754
270.648832290349
312.660835984501
268.115662737173
318.24958413729
278.986214043042
291.090786535173
346.830228544406
298.296030484354
331.313823064562
313.999039796999
238.545018225892
336.181844554333
314.265644179835
301.397456851499
297.91250441069
311.019764579179
266.235948759573
357.36492872542
325.167848642557
290.228099454333
309.702238622839
308.4508565378
223.313303070489
275.160009028793
310.720648254386
288.24835745837
298.077089610406
284.312837358394
289.73133804192
362.438447332036
309.291276702428
241.852395340001
309.915784532206
300.399395047888
297.727719319024
323.719686102296
286.299544626021
261.829056971669
327.543711896551
245.847469641528
266.905115868183
307.573041178416
314.249521836004
329.075523441696
235.708777827702
298.08179497937
321.910838695136
284.635650364173
306.051633373696
264.521053239276
334.520973980317
328.108549695482
314.135565239081
305.116043005902
326.67342600948
329.982952522854
329.501217355124
313.061827901284
263.338443682944
289.243006642341
320.970772182607
330.406216896126
263.627472915789
329.206461702052
309.332511675643
247.826719242934
283.891140594129
269.860301044377
252.657267435056
303.963873677437
331.282086949041
338.462544688845
283.751404120643
270.946516080557
273.575420997603
308.224706739642
313.658880728065
244.515526853337
362.376962624134
304.065818786624
241.266181472007
290.211696087473
288.49839381728
296.782718613968
317.621098035838
286.46613455647
251.568272487415
334.403534045912
334.885628630624
348.659941446368
343.17409125407
285.396157183739
277.951659107897
315.710895798169
259.492529010543
291.875241884784
306.062339042634
349.350945112154
302.98206016476
347.513032286214
283.765034441517
290.668666734852
289.702160258279
293.43914140439
273.055060901779
246.328883813769
359.18945463915
284.462376032297
291.921015305862
332.637910742936
362.834386373895
235.692278019238
296.08072046199
260.170994879385
306.191542409874
312.854430577994
304.556764052876
328.962658726445
297.669254738705
296.634160593175
275.474132531077
)
;

boundaryField
{
    DSMCSide
    {
        type            symmetry;
    }
    DSMCBound
    {
        type            symmetry;
    }
    nullDims
    {
        type            empty;
    }
}


// ************************************************************************* //
