/*--------------------------------*- C++ -*----------------------------------*\
  =========                 |
  \\      /  F ield         | OpenFOAM: The Open Source CFD Toolbox
   \\    /   O peration     | Website:  https://openfoam.org
    \\  /    A nd           | Version:  7
     \\/     M anipulation  |
\*---------------------------------------------------------------------------*/
FoamFile
{
    version     2.0;
    format      ascii;
    class       scalarField;
    location    "0.0012/lagrangian/dsmc";
    object      Ei;
}
// * * * * * * * * * * * * * * * * * * * * * * * * * * * * * * * * * * * * * //


105801
(
1.46953e-21
2.01453e-21
7.31312e-21
2.07346e-21
1.20969e-21
2.03498e-22
1.28967e-21
2.74468e-21
1.12167e-21
8.25563e-23
2.47385e-21
1.82626e-21
5.62037e-22
3.61324e-21
1.95841e-21
1.29919e-22
1.32051e-21
1.0347e-21
2.63461e-21
1.44942e-21
6.46966e-23
3.08366e-21
1.42287e-22
4.2258e-21
9.93888e-22
2.13497e-21
1.00402e-21
5.17693e-23
1.64965e-22
4.36374e-21
2.84302e-21
1.89017e-21
2.85249e-21
7.32452e-22
4.59673e-22
1.06898e-21
2.60709e-21
6.23432e-21
5.39207e-22
1.27121e-21
4.2205e-21
9.1087e-22
2.94008e-21
1.0248e-21
3.91442e-21
1.20126e-22
1.83826e-21
3.11401e-21
5.16674e-21
1.36257e-21
2.1237e-22
1.38858e-21
9.73771e-22
3.49089e-21
4.52153e-21
9.86491e-23
1.27289e-21
3.87811e-21
3.36456e-21
7.21823e-22
5.43376e-22
5.19538e-21
1.60385e-21
5.34881e-22
8.69362e-22
1.29669e-21
7.21295e-22
2.64611e-21
2.22282e-21
6.9811e-22
1.97074e-21
1.3626e-21
1.14826e-20
3.01852e-21
3.5027e-21
4.60796e-21
4.74212e-22
3.23148e-23
4.1589e-21
1.28396e-20
1.27263e-21
2.41902e-21
2.92409e-21
4.16448e-21
1.08369e-21
3.93109e-21
1.83597e-21
3.83396e-22
1.16218e-21
2.82663e-21
5.1073e-22
2.38162e-21
1.25048e-21
4.05547e-21
1.10816e-20
5.88328e-22
3.97998e-21
6.95682e-22
1.75323e-21
4.03021e-21
1.58674e-21
4.39571e-21
3.31921e-21
4.57654e-21
5.20923e-21
1.62892e-21
5.30385e-21
1.15781e-20
8.42222e-21
1.06512e-22
2.22328e-21
4.32302e-21
2.98896e-21
3.25627e-22
1.58368e-20
1.00574e-23
8.94295e-22
3.56438e-21
7.5656e-22
5.10556e-21
6.38938e-21
9.44331e-23
1.57797e-21
5.63939e-21
1.01567e-21
5.32689e-22
4.46006e-21
1.50533e-21
2.27639e-21
4.02193e-21
7.80391e-21
8.67939e-22
1.1956e-21
4.9865e-21
5.15e-21
1.04986e-21
9.88316e-22
3.72769e-21
3.57354e-21
4.7505e-21
1.95623e-21
1.26503e-22
2.2393e-21
1.8518e-21
2.62684e-21
1.30151e-21
2.22411e-21
2.31754e-21
4.83115e-21
8.83992e-22
1.25426e-20
3.40172e-21
5.76891e-21
4.78889e-21
6.56135e-22
4.12815e-22
3.39783e-22
7.89541e-24
4.57943e-22
1.56515e-21
3.50256e-21
5.60256e-22
3.26509e-21
9.38541e-22
4.8747e-22
2.875e-21
9.42314e-21
3.74091e-21
1.9425e-22
1.04473e-20
7.39797e-21
1.30142e-21
3.92654e-22
3.0404e-21
7.0322e-22
1.42016e-21
5.6583e-21
6.40705e-21
7.092e-22
2.71983e-21
3.8522e-21
4.29976e-22
1.56583e-21
1.21954e-21
1.53458e-21
7.9597e-21
8.34931e-22
2.42481e-21
4.27299e-21
2.5871e-21
8.47261e-22
4.70933e-21
5.47672e-21
6.05386e-22
5.28251e-21
1.95905e-21
3.34636e-22
7.59108e-22
1.41882e-21
4.616e-22
1.20685e-21
3.81837e-21
5.24805e-21
1.04617e-21
1.56413e-21
5.28966e-21
5.00318e-22
1.26427e-21
1.37231e-20
9.9438e-21
6.45093e-21
8.22558e-21
2.14561e-21
1.48895e-21
6.13377e-21
6.82142e-21
1.75962e-21
1.87963e-22
1.08618e-21
5.96809e-22
2.9405e-22
1.39557e-21
7.76653e-22
8.266e-21
1.94685e-21
2.53974e-20
2.07815e-21
5.78656e-21
5.13038e-22
1.81479e-21
2.30933e-21
1.92536e-21
1.81036e-21
1.27155e-20
4.17525e-23
1.8061e-21
1.38732e-21
2.25128e-21
9.74425e-22
8.31909e-22
7.72619e-22
3.63294e-21
8.01561e-22
5.35928e-21
3.16655e-21
1.80375e-21
2.35642e-22
8.2466e-21
8.97543e-23
1.07707e-21
7.21952e-21
7.05508e-22
5.61825e-21
1.77737e-21
1.00818e-20
8.63153e-21
6.92705e-21
4.83455e-22
3.19461e-21
5.12962e-21
4.59664e-21
1.63817e-21
4.37071e-21
1.53142e-21
3.27221e-21
8.03486e-22
1.44763e-20
4.15681e-22
8.03197e-21
2.12195e-21
2.0792e-21
2.9652e-21
4.55746e-21
3.60807e-21
1.97349e-21
5.28217e-21
4.52869e-21
9.97697e-22
3.12463e-21
6.73502e-23
3.61006e-21
1.77265e-21
1.45683e-21
4.27252e-23
2.43735e-21
3.89468e-21
1.12498e-21
3.77308e-21
2.54742e-21
8.99713e-22
9.57725e-21
1.22064e-21
2.76289e-22
7.88375e-21
1.1675e-20
3.70666e-21
1.83097e-22
3.16747e-21
5.85947e-21
4.78294e-21
5.81076e-21
4.89921e-21
2.37765e-21
2.83127e-21
1.06353e-21
1.87669e-21
8.26553e-21
2.85923e-21
1.37414e-20
2.54614e-21
1.5557e-23
2.8372e-21
2.06906e-22
3.86906e-23
5.29938e-21
4.06854e-22
3.07685e-21
7.0247e-21
6.0945e-21
3.61064e-21
3.41522e-22
6.56374e-22
9.69633e-21
2.60803e-22
3.72398e-21
2.31898e-21
1.87728e-21
2.04113e-21
2.81708e-21
1.26528e-20
4.4096e-22
3.81384e-23
5.53003e-21
8.5826e-22
3.92734e-21
2.26175e-21
3.83876e-21
1.10036e-22
6.15456e-22
3.23702e-21
1.84577e-21
3.65377e-21
2.53063e-21
3.76778e-21
1.48998e-21
8.27131e-22
4.18609e-21
1.20217e-21
8.75654e-21
5.67964e-21
3.10354e-21
2.56767e-21
1.38822e-21
5.37413e-21
5.3364e-21
1.79161e-21
7.97902e-22
1.26182e-22
6.0916e-21
2.19617e-21
1.79027e-20
1.33522e-21
1.0008e-21
1.59889e-21
6.98116e-21
2.01395e-21
1.03024e-22
2.5164e-23
5.11274e-21
4.95712e-22
1.14643e-22
1.41213e-21
5.51947e-21
1.04094e-20
1.99875e-21
7.39927e-22
1.29798e-21
4.73818e-22
3.42203e-21
9.0936e-22
9.71161e-22
6.51454e-21
1.09145e-21
5.09934e-21
2.56793e-21
1.49556e-21
4.85086e-21
7.8977e-22
8.00074e-21
5.08442e-22
7.65301e-22
2.77686e-21
1.34538e-21
2.2364e-21
1.99884e-20
4.83523e-21
4.4726e-22
8.79665e-21
7.06032e-22
5.70602e-21
1.55988e-21
1.98547e-20
8.46737e-22
1.6547e-21
2.12302e-21
1.95325e-21
3.08521e-21
4.17565e-21
1.36604e-21
3.16538e-21
2.0676e-21
3.53977e-21
7.14371e-21
8.60071e-21
1.70443e-21
4.83994e-21
3.308e-21
3.59724e-21
1.82475e-21
2.69481e-21
2.61522e-22
1.12725e-21
2.24221e-21
2.85876e-22
1.43951e-21
8.69643e-22
7.52547e-22
1.68151e-21
1.35103e-22
1.7048e-21
1.39607e-21
1.3687e-21
3.23613e-21
1.75975e-21
4.44551e-21
1.82038e-21
3.46791e-21
5.26397e-21
4.58733e-21
4.34938e-21
5.48522e-21
3.27105e-21
7.91911e-23
6.86963e-21
6.54785e-21
4.5839e-21
8.47843e-21
1.15398e-21
4.72671e-22
5.6867e-21
2.08984e-21
1.51703e-21
7.88859e-21
3.6159e-21
1.82308e-20
2.05579e-21
3.03509e-21
2.05007e-21
1.2499e-21
1.42075e-21
7.38858e-21
6.58511e-23
3.46544e-23
4.47119e-21
6.67709e-21
1.82422e-21
4.53907e-21
2.55422e-21
9.31117e-21
2.76688e-21
5.98208e-21
1.87106e-21
1.88597e-21
5.14734e-22
7.52932e-21
2.88964e-22
1.00211e-22
6.08837e-22
1.17579e-22
2.77161e-22
7.65823e-21
6.24298e-21
2.55962e-21
1.02726e-20
4.02366e-21
2.9584e-21
1.37434e-21
9.88183e-22
2.10022e-23
8.76714e-21
2.78359e-21
1.5704e-22
1.64031e-21
4.85453e-22
1.47676e-21
5.92735e-22
2.57449e-21
2.96486e-22
3.54018e-22
7.16026e-21
1.28925e-22
6.59191e-22
6.1005e-21
6.82005e-21
4.61279e-21
2.46073e-21
7.97245e-23
1.5729e-20
6.99145e-21
5.20185e-22
1.49276e-20
2.6325e-21
3.48524e-21
2.01405e-21
2.12816e-22
1.73584e-21
1.05124e-22
1.25981e-21
9.54481e-22
2.23208e-22
1.73351e-21
3.78117e-22
7.76383e-23
4.11235e-21
2.86759e-21
1.89004e-21
1.03248e-21
5.51827e-21
4.72999e-21
1.19386e-21
5.19579e-21
2.79765e-21
1.01932e-20
3.14482e-21
2.2858e-21
1.17565e-21
5.87893e-21
2.03388e-21
6.32717e-21
4.84973e-21
9.52507e-21
2.85926e-21
4.47241e-22
9.02198e-22
2.55409e-21
6.68215e-21
1.3049e-21
3.03627e-21
3.35413e-21
5.86602e-21
9.03707e-23
8.88327e-21
3.30016e-21
1.16104e-21
2.0993e-21
3.73792e-21
3.51007e-21
4.08414e-21
2.29767e-21
7.02577e-21
1.93939e-21
2.27034e-22
1.3318e-22
8.56465e-21
4.15088e-21
2.30696e-22
6.14353e-21
4.93874e-21
1.0396e-21
9.25516e-22
1.96057e-21
7.26104e-22
2.09269e-21
1.35645e-21
1.52782e-21
7.34503e-21
3.3812e-21
1.11452e-21
5.29861e-21
9.94769e-22
5.51263e-21
1.54185e-21
2.86588e-21
5.01623e-21
3.45832e-21
1.35533e-21
1.54243e-20
1.55036e-21
2.04764e-21
9.18847e-21
6.87634e-22
2.99814e-21
1.42162e-21
4.69383e-22
1.61328e-22
7.32164e-21
1.60162e-20
2.42312e-21
1.1988e-20
3.2487e-24
6.35958e-22
4.38339e-22
1.02253e-22
4.71759e-21
1.57787e-22
6.49964e-22
9.79117e-21
8.78925e-21
1.01095e-21
6.97888e-22
2.60911e-21
5.52448e-21
1.91203e-22
6.30506e-22
1.08568e-21
1.66768e-22
7.82288e-21
3.48468e-22
6.35532e-21
1.50973e-21
4.79515e-21
1.94124e-21
1.19884e-21
3.43608e-22
5.88645e-21
4.48532e-22
7.5807e-22
3.22059e-21
4.42534e-21
5.99839e-21
1.0874e-21
8.83743e-21
1.7874e-21
9.83207e-21
3.96679e-21
4.61738e-21
2.5054e-20
5.5259e-22
2.66128e-21
1.32428e-21
9.07263e-21
6.32784e-22
2.36163e-21
2.33708e-21
1.65186e-20
1.54566e-21
1.92325e-20
6.58034e-22
1.81898e-20
1.56294e-21
3.49178e-21
8.15409e-21
6.79304e-23
3.65415e-21
4.301e-21
7.37301e-21
7.43199e-22
4.93334e-21
3.57736e-21
8.24585e-21
1.25774e-20
5.53279e-21
1.35977e-20
2.12746e-22
6.95729e-21
6.0681e-22
4.14585e-21
2.53067e-21
1.0179e-21
8.56305e-21
3.65809e-21
4.3071e-21
6.5916e-21
1.26164e-20
1.52457e-20
7.05174e-22
2.03522e-21
3.33241e-21
4.85125e-21
1.57838e-20
2.66733e-21
5.8988e-22
2.03066e-21
1.95446e-21
1.34689e-21
4.16921e-21
6.25268e-21
2.7864e-22
2.16514e-21
9.8074e-21
5.71854e-23
2.97725e-21
2.04804e-21
2.04693e-21
1.23423e-21
3.71595e-21
5.0781e-21
6.29638e-21
2.922e-21
1.20694e-20
9.10725e-22
3.61773e-21
3.24744e-21
1.24804e-21
2.32487e-21
5.887e-21
5.15295e-21
5.27064e-21
4.43317e-21
3.84424e-21
2.71825e-21
4.32014e-21
8.76237e-23
2.34856e-21
4.06384e-21
6.24575e-23
7.35004e-22
2.48172e-21
8.6091e-21
1.42393e-21
1.08364e-21
3.03217e-21
4.83501e-22
6.78785e-21
2.24519e-21
7.32085e-21
2.52053e-21
4.82443e-22
5.56884e-21
1.38271e-21
2.02299e-21
3.87923e-22
3.55305e-21
7.84155e-21
4.43466e-21
3.23965e-21
4.00788e-21
1.49997e-21
1.01038e-20
2.52891e-21
1.11803e-20
1.98411e-21
1.13853e-21
4.92544e-21
4.9579e-21
5.24101e-21
3.8714e-21
1.62173e-22
4.5843e-21
1.76658e-21
1.47458e-21
3.0461e-21
7.76878e-21
2.89753e-22
1.81114e-21
4.47712e-21
8.87398e-22
1.85079e-21
1.18504e-20
9.928e-21
3.32663e-21
2.35296e-21
1.15347e-21
1.38351e-21
8.88787e-22
4.50427e-24
1.29618e-22
3.05519e-21
1.94193e-21
3.42377e-22
2.47817e-21
7.19215e-21
2.6051e-21
2.1134e-21
6.03196e-21
7.80995e-21
7.23505e-21
2.36452e-21
2.47823e-21
2.28041e-22
3.53262e-21
4.05359e-21
4.97389e-21
7.25268e-21
6.8011e-21
9.26359e-22
4.62849e-21
8.24283e-21
2.00768e-21
2.98224e-21
4.4956e-21
1.41119e-21
6.6183e-22
8.36403e-21
2.58214e-21
2.657e-21
9.14145e-23
5.24092e-22
4.84938e-22
1.40166e-21
6.26986e-22
1.25291e-22
6.89503e-21
1.83744e-20
1.80679e-20
1.89601e-21
3.47376e-22
2.85039e-21
8.18044e-21
4.39443e-21
2.12463e-22
2.37462e-21
2.20069e-21
1.07782e-21
2.63612e-23
4.88652e-21
5.89209e-21
3.69371e-21
1.22329e-21
1.11443e-21
4.73479e-22
5.741e-21
1.66405e-20
5.78281e-21
2.33562e-21
4.88423e-22
3.71357e-22
4.6683e-21
9.56586e-21
1.60986e-21
3.03285e-22
3.51201e-21
2.49801e-21
1.47965e-21
7.39639e-21
1.46091e-21
2.90215e-21
1.09243e-20
6.34517e-21
1.20676e-21
2.29717e-21
5.96497e-22
3.49879e-21
8.71043e-21
2.98175e-21
3.60676e-21
1.42241e-21
8.75107e-21
8.31771e-21
8.23076e-21
1.48077e-21
8.59471e-22
1.15988e-20
2.81384e-21
1.04439e-21
2.70662e-21
2.33648e-21
1.01125e-20
6.895e-21
8.1327e-22
6.8682e-22
1.20632e-20
4.14409e-21
5.16767e-25
6.91944e-21
1.36405e-21
1.67352e-21
1.84277e-21
1.05623e-20
2.95474e-21
9.72906e-22
1.02937e-21
9.70604e-21
1.77771e-21
7.0951e-22
6.13111e-22
3.62053e-21
6.55796e-21
5.75056e-21
1.84467e-21
4.25146e-21
1.34069e-21
2.30582e-21
1.76758e-21
2.3558e-21
2.04713e-21
6.57179e-21
2.90018e-21
4.18281e-21
1.14683e-21
6.53071e-21
3.33783e-21
1.28756e-22
1.58523e-21
5.02605e-21
7.29337e-22
1.61554e-21
3.11942e-21
1.08483e-20
1.70869e-20
7.21373e-21
1.81775e-20
4.8056e-22
5.51728e-21
1.83668e-21
8.986e-21
2.98749e-22
9.16135e-22
4.18835e-23
3.81937e-21
3.70935e-21
5.85605e-21
1.27339e-21
5.66289e-21
2.62153e-21
9.14019e-21
1.2929e-20
4.33397e-21
5.31777e-21
6.64659e-21
9.64086e-22
1.27239e-20
1.1607e-21
3.98085e-21
1.13884e-21
5.03978e-22
1.08786e-20
1.07034e-20
2.5234e-21
3.52902e-21
4.26536e-21
3.08914e-21
1.97477e-20
5.80438e-21
2.24972e-21
1.24804e-22
1.76966e-20
4.59353e-21
1.65832e-21
2.82585e-21
4.16185e-22
1.49814e-21
6.57007e-21
7.98795e-21
2.26924e-21
2.32943e-20
4.47785e-22
4.32746e-21
2.48864e-21
5.51815e-21
7.4118e-21
3.22851e-22
3.01401e-21
5.25127e-22
1.69889e-22
2.00601e-21
1.05879e-20
4.33976e-21
1.64163e-21
3.757e-21
4.21356e-21
3.14473e-22
2.97217e-21
7.2977e-21
1.58817e-21
4.38466e-21
1.43083e-21
1.08621e-20
7.46558e-21
1.68271e-20
1.86069e-21
4.56378e-21
5.64976e-21
2.10748e-21
1.27189e-20
6.67596e-22
1.0578e-20
1.31305e-21
9.57654e-22
5.37273e-21
6.14012e-22
4.02657e-21
1.09937e-21
2.82752e-21
8.25197e-21
1.89733e-21
7.2019e-21
3.1834e-21
9.68076e-22
2.60107e-21
9.42698e-22
3.52761e-21
1.01852e-20
2.00908e-21
8.53433e-21
1.56286e-21
3.50223e-21
2.88382e-21
2.9545e-21
1.27676e-21
1.1489e-20
1.03898e-20
2.18488e-20
1.10079e-21
1.22477e-21
5.43995e-21
1.15337e-21
1.41469e-20
1.66542e-21
5.86611e-21
7.48728e-21
2.75498e-22
4.76363e-21
1.65433e-21
2.72192e-21
1.05919e-21
4.171e-21
2.75737e-21
2.00631e-21
2.34187e-21
3.12573e-21
7.66291e-21
1.1364e-22
3.23344e-22
8.5898e-22
5.45381e-21
6.99994e-21
2.29831e-21
1.6175e-21
1.56703e-21
4.15751e-21
6.83524e-21
1.49762e-21
1.08224e-21
1.6161e-21
5.36113e-21
9.64412e-21
2.17909e-20
6.06532e-22
8.06313e-22
1.40778e-21
3.17606e-21
7.0126e-21
2.01716e-21
3.19875e-21
2.61656e-21
1.20287e-21
1.10203e-21
2.80447e-21
1.49395e-23
1.42957e-21
1.78205e-21
3.91041e-22
1.34964e-21
5.9898e-21
4.31736e-22
6.66612e-21
1.21787e-20
2.97243e-21
7.09934e-21
1.03657e-20
2.47205e-20
8.63548e-21
2.55996e-21
2.41994e-21
1.73003e-21
1.4628e-21
2.4542e-21
2.38841e-21
3.26973e-21
6.15763e-21
5.28611e-21
4.71343e-22
1.21458e-21
1.62947e-21
1.34519e-20
5.96296e-22
4.47669e-21
8.83177e-22
1.85341e-22
1.50862e-21
3.00423e-21
4.50969e-21
1.84508e-21
3.83293e-21
2.674e-21
1.15561e-21
4.04331e-21
8.83285e-22
3.77278e-21
1.26337e-23
1.64677e-20
6.79244e-21
5.37251e-22
3.10963e-21
5.55549e-21
2.78998e-21
7.89474e-21
2.02663e-21
1.23521e-20
1.08436e-22
5.52664e-22
6.66517e-22
1.30391e-21
5.31399e-21
4.19278e-21
1.38982e-21
2.07948e-21
1.23623e-21
3.29909e-21
4.04313e-21
1.0173e-21
1.04005e-20
1.62372e-21
1.53557e-21
1.46763e-20
6.25909e-21
7.83653e-21
3.85816e-21
1.28168e-21
2.00213e-21
2.82049e-21
1.28635e-22
6.11142e-21
3.04826e-21
1.07429e-20
6.53536e-22
6.69154e-21
7.28445e-21
2.02123e-20
1.26761e-20
5.1545e-22
8.25218e-23
8.11815e-21
1.57506e-20
1.71978e-21
4.34331e-21
3.77196e-21
3.2116e-22
6.67393e-22
2.89215e-23
1.90678e-21
1.46342e-20
3.53851e-22
1.49487e-21
5.98741e-23
4.68984e-21
7.74696e-21
1.61376e-21
5.03947e-21
7.2229e-21
3.1689e-21
2.55411e-21
8.71347e-22
3.5721e-21
1.08526e-20
4.35687e-21
4.06044e-21
2.72982e-21
2.04079e-21
6.20616e-21
1.70233e-21
6.4039e-22
3.30121e-21
4.49505e-21
2.5857e-21
2.53352e-21
5.94764e-21
6.78688e-21
1.27774e-21
6.34194e-22
3.88874e-21
2.9801e-21
5.71966e-22
3.53676e-21
1.69296e-21
3.49051e-22
3.67981e-21
5.01835e-22
4.01979e-21
2.02402e-21
7.30485e-22
1.74621e-21
5.99571e-22
2.17542e-21
3.48306e-21
4.29333e-21
4.09317e-21
1.0704e-21
3.2635e-21
1.23278e-21
1.74495e-21
8.89271e-22
1.37116e-21
2.92683e-21
4.77447e-22
9.90304e-21
2.32673e-22
8.03932e-22
5.34095e-22
1.33274e-21
2.80914e-21
1.59165e-20
5.30263e-21
9.89874e-22
9.37836e-21
1.42152e-20
1.37334e-21
1.00309e-21
2.0131e-20
1.84416e-21
8.07386e-21
1.13939e-21
1.32965e-21
2.3181e-21
1.07e-20
6.09689e-21
7.51383e-22
1.17099e-21
3.8684e-22
8.26113e-21
5.28892e-21
1.03668e-22
8.20504e-22
2.57311e-21
1.13611e-22
2.58307e-22
4.08193e-21
8.2781e-21
3.05994e-21
4.7813e-22
2.19552e-22
2.25948e-21
1.17643e-20
7.41144e-22
9.20407e-21
1.75146e-21
1.98115e-21
3.16831e-21
4.49369e-21
1.52827e-22
9.6466e-22
9.5208e-21
2.68565e-21
1.08615e-20
8.82324e-22
4.4019e-21
3.45054e-22
7.28358e-21
2.76613e-21
1.46544e-21
6.68643e-21
2.49129e-21
2.29654e-21
1.8279e-21
6.44977e-21
3.46646e-21
5.50125e-21
5.51802e-21
2.08107e-22
8.12111e-22
8.75168e-21
9.17543e-21
4.7168e-21
9.98356e-21
6.90049e-21
1.89162e-21
5.47551e-21
9.75006e-21
3.75887e-22
3.76293e-21
1.49383e-21
3.43757e-21
2.98871e-22
5.11685e-21
3.61235e-21
4.15614e-21
5.40614e-22
5.31878e-21
3.0485e-21
5.9604e-21
7.8288e-22
6.82368e-22
1.10735e-20
4.98273e-21
4.50291e-22
2.03662e-21
2.98163e-21
6.45011e-21
3.72657e-21
4.4302e-21
1.85737e-21
1.69097e-21
7.66368e-21
9.03185e-22
4.01142e-22
1.19465e-21
5.74558e-21
3.83828e-22
2.08686e-21
3.23223e-21
4.24144e-21
9.70073e-22
3.02558e-21
1.51546e-21
9.25272e-22
2.09309e-21
3.3586e-21
5.17183e-22
4.95928e-21
5.6367e-22
2.79824e-21
1.99279e-21
4.73973e-22
4.78367e-22
1.38899e-20
7.36769e-21
6.0578e-21
1.38545e-21
4.63195e-21
4.5411e-21
5.28396e-21
1.39268e-20
6.74897e-22
1.45208e-20
2.41553e-21
1.23309e-20
1.12439e-20
1.01343e-20
3.77819e-22
1.18192e-22
6.12445e-21
8.61789e-22
9.73088e-21
1.90366e-24
5.14064e-21
5.07553e-21
2.34258e-21
2.05408e-21
1.31451e-21
8.57241e-21
1.92116e-21
5.74765e-21
1.47834e-20
1.47806e-21
5.68299e-21
9.97082e-23
4.99264e-21
7.58953e-21
1.95186e-21
9.26404e-21
8.88265e-22
5.12917e-21
1.53061e-20
3.46679e-21
5.75313e-21
2.41787e-21
8.45187e-23
1.05127e-21
5.16659e-21
3.0992e-21
1.44153e-21
1.10917e-20
2.36254e-21
1.08315e-20
2.80264e-21
3.0607e-21
2.43055e-21
7.56767e-21
2.23123e-21
7.63836e-22
1.67539e-21
4.42559e-22
1.13412e-22
3.81949e-21
5.37004e-22
7.07652e-21
1.08099e-21
1.39629e-20
6.20987e-21
1.88863e-21
2.42478e-21
6.84623e-21
9.58433e-21
2.5384e-21
6.00822e-22
2.85843e-21
1.1784e-21
1.2571e-20
1.19176e-21
2.5241e-21
4.62471e-21
2.35362e-21
3.74301e-22
3.59014e-22
2.25876e-21
2.47182e-21
1.22183e-20
3.11424e-21
8.20201e-21
3.49058e-21
9.72013e-22
5.91771e-22
1.01466e-20
1.08369e-21
4.7594e-22
7.07674e-22
9.62294e-21
3.86175e-21
6.86983e-21
8.02472e-21
4.98989e-22
5.24042e-21
3.82555e-22
6.48226e-22
2.75772e-21
5.56739e-21
1.21518e-21
8.33262e-21
4.93332e-21
1.37992e-21
3.27741e-22
1.19836e-20
2.73812e-21
6.10425e-21
2.40666e-21
4.14525e-21
1.56837e-21
6.82737e-22
1.46402e-21
3.4141e-21
7.16157e-21
1.13059e-21
1.2918e-20
3.4323e-21
3.39633e-21
5.2245e-21
4.03236e-21
2.39067e-20
1.73302e-21
6.98035e-23
1.58429e-24
7.12246e-23
2.41502e-21
4.44995e-21
3.64167e-21
6.56782e-21
6.83799e-21
1.77378e-21
3.21862e-22
6.89762e-21
2.69268e-20
9.9915e-22
1.19723e-21
1.87686e-22
1.15445e-20
2.60639e-21
5.38588e-21
2.84196e-21
5.73069e-22
3.26263e-21
1.50279e-21
3.01927e-21
9.42938e-22
3.64025e-21
1.75965e-20
4.58744e-22
1.28324e-21
1.11343e-22
4.87201e-21
1.77877e-21
8.23943e-22
1.21582e-21
1.40641e-21
1.457e-20
1.76473e-21
1.03924e-21
5.25213e-21
1.00609e-20
6.20501e-21
5.59485e-21
7.25594e-21
1.26059e-21
1.00587e-21
1.50676e-21
4.27092e-22
3.54012e-21
1.22005e-21
1.16414e-21
8.9603e-21
7.70172e-22
3.73986e-21
7.78118e-22
4.18045e-21
1.26525e-21
3.49322e-21
3.20267e-21
1.82979e-21
8.59539e-21
3.62148e-21
2.87907e-21
5.42764e-21
6.16702e-21
9.77088e-21
8.5706e-22
7.63587e-21
6.45395e-21
1.18746e-20
4.15503e-22
1.46279e-21
2.74577e-21
3.64978e-22
5.20893e-21
8.87836e-22
1.14848e-21
5.30332e-21
3.18379e-21
2.50426e-21
2.05579e-21
1.61355e-21
7.41431e-22
9.21463e-22
1.40139e-21
9.65404e-22
1.8712e-22
4.37379e-21
6.99076e-21
5.4205e-21
3.11292e-21
3.67082e-21
4.86472e-22
6.05832e-21
6.44471e-21
5.36664e-21
1.14675e-21
1.44397e-21
5.62295e-21
1.49169e-21
2.25212e-23
7.79773e-21
8.13922e-21
4.16743e-21
2.73907e-21
1.36355e-21
1.5048e-20
1.82167e-21
1.57611e-21
5.37201e-21
1.63429e-20
5.70269e-21
1.15829e-21
1.02999e-22
2.98971e-21
5.82388e-22
1.05516e-21
5.01519e-22
1.04197e-21
1.58784e-22
1.00674e-20
9.20424e-21
1.57248e-21
1.09584e-21
3.54508e-21
2.28674e-21
6.47831e-22
2.22755e-20
8.50706e-21
3.19896e-21
4.9321e-22
3.05264e-22
2.36059e-20
4.30865e-22
1.6647e-21
1.85566e-21
2.62412e-21
9.16477e-21
3.48909e-22
7.02504e-22
3.01708e-22
5.01998e-21
1.60652e-21
2.4197e-21
8.25652e-22
7.20106e-21
1.38226e-21
1.87771e-20
4.89574e-21
7.92198e-21
3.30696e-21
7.28151e-22
2.14158e-21
4.24477e-22
3.3434e-22
3.45073e-21
2.19576e-21
2.73156e-21
1.73041e-21
6.15871e-22
2.27395e-21
3.2491e-22
6.30275e-22
2.95163e-22
7.17056e-21
1.49463e-23
3.14324e-21
1.97161e-23
2.87359e-21
2.53673e-21
2.17132e-21
1.50025e-20
5.39333e-21
4.08226e-21
1.53597e-21
4.64341e-21
1.10028e-21
1.47999e-21
2.18823e-20
1.32921e-21
3.4563e-21
9.29983e-21
1.18998e-21
4.85403e-21
1.44498e-21
3.08393e-21
8.19816e-23
4.11474e-22
1.31536e-21
3.12675e-22
1.66854e-21
6.87153e-21
1.25805e-21
1.8961e-22
6.67729e-21
1.76322e-21
7.43693e-22
4.4924e-23
6.07123e-21
3.23572e-22
2.34497e-21
6.75572e-23
6.13611e-21
2.57515e-21
3.60624e-21
3.84743e-21
3.12707e-21
5.54218e-21
3.2567e-21
4.40637e-21
4.25966e-22
2.26943e-21
8.74712e-22
1.78389e-21
1.36159e-20
1.12339e-20
1.96019e-21
2.08228e-21
1.38388e-21
2.62595e-21
1.27237e-21
1.28655e-20
6.20007e-21
3.51792e-21
7.21537e-22
1.05476e-21
3.40203e-22
6.8093e-21
1.68735e-21
2.54163e-22
1.49592e-21
1.42632e-22
1.62544e-21
6.81987e-21
1.46179e-21
3.69708e-21
9.87331e-22
2.73442e-21
8.40963e-21
2.64306e-21
3.01196e-21
7.99217e-21
4.95268e-22
1.65008e-21
8.86811e-22
4.15964e-21
2.95279e-21
1.86621e-21
1.62735e-20
5.31175e-21
3.79367e-22
1.13039e-20
7.17354e-21
6.79501e-21
1.18678e-21
1.86902e-21
1.10693e-21
1.99032e-20
2.23111e-21
1.68705e-21
1.72982e-21
2.17229e-21
2.08621e-21
5.62844e-22
7.94847e-22
5.05893e-21
8.8604e-22
5.39744e-21
2.91818e-22
4.4733e-21
1.14414e-21
5.10562e-21
3.13677e-21
8.03747e-22
1.30491e-21
5.39681e-21
4.58395e-22
1.4422e-21
1.10587e-21
7.54052e-22
2.16632e-21
1.35374e-20
3.18295e-21
8.56568e-21
6.1559e-21
3.73863e-22
2.05563e-21
6.18077e-21
3.63471e-21
3.05051e-21
7.08318e-21
2.95945e-21
1.11716e-20
2.3392e-21
3.46064e-21
6.36969e-21
2.3633e-21
1.77396e-21
8.73353e-21
8.34925e-22
6.45363e-21
2.48539e-21
1.78561e-21
4.32098e-21
8.25121e-21
3.74799e-21
9.66708e-21
3.76186e-21
1.83832e-22
7.51891e-22
1.77623e-21
1.67152e-21
1.51625e-20
5.86742e-21
3.49609e-21
1.4506e-20
2.2421e-21
2.63551e-21
6.07878e-21
6.80675e-21
7.37832e-21
7.79078e-21
1.45718e-21
4.36245e-21
8.8783e-22
1.38807e-20
3.52231e-21
1.71419e-21
8.59277e-22
1.83743e-20
5.5659e-21
1.77814e-21
6.6113e-21
1.28814e-20
3.92841e-21
6.70613e-21
3.43171e-21
6.83355e-22
8.03827e-21
3.61873e-21
6.58337e-22
1.52327e-21
1.35273e-21
8.52229e-21
7.01263e-21
4.86327e-21
2.83356e-21
1.9593e-21
3.42268e-20
5.48438e-21
1.39302e-21
1.31821e-23
6.46928e-21
2.25815e-21
1.25118e-20
1.99661e-22
6.30447e-21
5.08537e-21
3.91458e-21
2.60738e-21
6.92904e-22
3.3258e-22
3.40456e-21
6.55776e-21
8.55963e-22
6.68182e-21
5.23605e-21
8.78761e-21
1.00561e-21
5.61101e-21
1.24249e-20
1.80672e-21
5.50835e-21
4.2209e-22
3.85787e-21
8.31078e-22
4.14742e-21
7.68787e-22
1.86904e-21
2.35152e-22
1.24047e-22
5.73842e-22
2.16823e-21
1.11839e-21
1.13113e-20
9.93512e-21
6.1862e-21
4.99245e-21
3.1731e-21
3.0496e-21
5.35853e-21
1.02478e-22
1.78344e-21
3.08745e-22
5.14919e-21
1.44825e-21
9.44297e-22
1.82497e-21
2.81171e-21
2.15476e-21
2.2482e-22
1.59028e-21
1.07863e-21
6.49813e-22
2.89013e-22
2.94388e-21
3.21058e-21
5.74276e-21
1.87892e-21
4.12186e-22
1.35628e-21
9.60783e-22
1.01064e-21
5.53288e-21
2.12478e-20
7.15361e-21
6.53078e-21
5.85861e-21
6.76282e-21
3.38191e-21
1.83989e-21
9.57961e-21
1.16239e-21
5.16895e-21
8.85501e-21
7.98485e-21
3.29817e-21
5.20792e-21
2.43346e-21
2.98246e-21
4.80762e-21
6.39764e-21
3.12418e-21
4.09708e-21
1.67502e-21
1.10302e-21
6.97431e-21
5.44053e-21
3.21106e-21
1.4063e-21
6.17877e-21
2.75572e-21
5.86008e-21
6.90894e-22
7.68918e-21
4.34185e-21
9.949e-21
2.0215e-22
8.60648e-21
1.50642e-23
6.92728e-21
1.99806e-21
1.65813e-20
5.81927e-21
2.92115e-21
3.98787e-22
5.07094e-21
2.26161e-21
3.39733e-21
2.94804e-21
6.60964e-21
4.90216e-21
6.3107e-23
3.18368e-21
3.00721e-21
1.3397e-21
2.67363e-21
1.54624e-20
1.72947e-21
5.49835e-21
1.06768e-21
9.43416e-21
4.15594e-22
6.16736e-21
4.92067e-21
1.12271e-21
1.49669e-22
6.29529e-21
7.77718e-21
1.19894e-21
1.24539e-20
5.37828e-21
8.59729e-21
8.30696e-21
8.20954e-21
6.45254e-21
4.35274e-21
5.84868e-22
1.98585e-20
5.675e-21
2.69822e-22
6.70915e-22
1.5285e-20
1.449e-21
2.39576e-21
5.71179e-22
1.29854e-20
3.9348e-21
9.94888e-21
2.73657e-21
1.1916e-20
2.32948e-21
1.22447e-20
7.3208e-21
1.03773e-21
1.12215e-21
3.9186e-21
4.04523e-21
4.82009e-21
4.93877e-21
1.38767e-21
1.76839e-21
1.84611e-21
1.73844e-21
8.5822e-21
1.16876e-21
4.24914e-21
5.1757e-21
1.5726e-21
2.2568e-21
2.17175e-21
1.76032e-21
2.32414e-21
5.76935e-21
8.08739e-21
9.7289e-21
2.5558e-21
4.42685e-21
7.49464e-21
1.1448e-22
7.88514e-21
1.55074e-20
1.7368e-21
4.58888e-21
2.066e-21
3.27698e-21
6.99846e-21
7.97308e-21
4.20466e-21
2.26184e-21
1.34623e-20
4.06603e-21
5.5192e-21
2.22908e-21
9.53062e-21
6.01742e-21
5.15309e-22
6.58445e-22
4.4943e-21
5.04154e-21
7.20048e-21
1.68707e-21
6.63283e-21
3.69541e-21
2.1275e-22
1.82759e-22
2.16316e-21
1.29235e-22
1.24055e-21
6.44823e-21
4.84922e-21
5.31483e-21
3.1673e-21
9.51093e-22
2.64142e-21
1.40911e-22
1.46607e-21
3.84746e-21
3.65491e-22
6.24222e-21
7.50147e-22
3.51452e-21
2.31076e-21
1.99589e-21
6.20543e-21
8.3586e-21
1.17044e-21
2.14984e-21
4.53953e-22
4.65696e-21
3.87194e-21
1.0182e-20
1.43286e-21
2.84858e-21
6.37153e-21
1.20087e-21
1.13539e-21
1.51647e-21
4.85358e-21
2.8338e-21
1.61326e-21
3.10657e-21
3.35268e-21
8.99116e-21
6.48559e-22
1.29834e-21
1.76928e-21
4.37554e-21
5.67391e-21
1.45437e-20
1.09334e-21
5.18914e-22
4.0513e-21
7.3331e-22
8.64872e-21
1.30994e-21
3.33523e-21
3.58886e-22
7.54758e-21
2.63464e-21
7.53386e-21
3.86454e-21
5.93646e-22
4.92165e-21
8.77295e-21
7.78062e-21
5.50228e-21
4.01569e-22
3.35205e-21
7.64273e-23
1.26107e-21
7.98333e-22
3.23918e-21
5.98551e-21
1.01773e-22
4.24736e-21
2.48438e-21
4.88324e-22
1.41506e-21
5.18114e-22
3.72796e-21
6.9229e-22
1.91267e-21
7.31486e-21
3.79883e-21
2.26448e-22
7.60372e-22
1.94659e-20
3.32726e-21
1.69875e-21
2.78012e-21
2.24733e-21
4.62615e-21
8.10254e-21
2.81015e-21
3.2416e-22
8.76812e-23
1.71217e-22
5.39434e-21
1.7868e-21
3.76046e-21
4.46015e-21
9.48324e-21
3.90621e-21
2.43498e-21
6.59629e-21
6.02682e-22
3.27936e-21
1.01752e-20
4.59739e-21
2.60222e-21
7.50762e-22
5.83914e-21
7.62174e-22
1.5469e-21
1.93348e-21
2.0052e-22
1.2364e-20
3.42416e-21
9.40783e-22
2.9435e-21
2.99255e-21
1.00601e-21
6.06048e-21
1.11495e-20
4.39445e-21
1.77954e-22
2.2986e-21
1.83698e-21
2.55467e-21
2.82388e-22
4.3031e-21
7.17382e-22
2.52069e-21
6.16319e-22
2.78796e-21
6.67236e-21
7.8338e-21
1.35661e-21
2.61043e-21
2.06624e-21
1.62419e-21
1.51045e-20
5.72349e-23
9.80923e-21
1.2746e-21
7.84128e-21
6.88463e-22
8.71797e-21
6.94338e-21
2.17705e-21
1.42607e-22
3.48698e-21
1.9376e-21
7.48531e-22
2.43218e-21
3.82291e-21
5.32707e-21
3.31847e-22
7.47341e-21
4.9801e-21
3.85782e-21
1.91279e-21
1.80137e-20
3.10549e-21
3.5591e-21
6.22043e-21
1.13079e-21
5.34864e-21
1.69966e-21
3.24884e-21
3.82002e-22
1.59206e-21
2.15658e-22
1.56169e-21
1.49833e-21
1.54981e-20
3.60061e-22
9.53571e-22
2.08336e-21
1.73311e-21
7.6118e-22
4.26307e-21
2.18757e-21
2.54126e-21
1.16275e-21
1.70586e-23
5.71811e-21
3.52407e-21
4.77648e-21
2.12952e-21
1.95798e-21
9.55544e-22
2.65192e-21
2.50795e-21
2.33404e-21
2.79442e-21
1.23657e-20
5.64734e-22
8.84181e-22
1.16305e-21
1.14696e-21
1.00943e-20
1.75907e-21
7.17702e-22
9.69682e-22
1.69921e-20
1.06933e-21
1.33814e-20
2.90765e-21
7.96961e-21
2.8618e-21
4.35796e-21
2.14898e-21
1.85338e-20
4.53008e-21
1.00552e-21
4.08933e-21
1.31888e-21
5.54718e-21
3.24995e-21
6.60242e-21
3.0268e-22
1.36553e-21
9.48412e-21
3.64641e-22
4.37418e-21
3.77115e-21
1.04061e-20
8.49937e-21
9.11871e-21
1.35073e-21
1.42246e-21
5.55614e-22
2.55489e-22
5.12014e-21
6.84488e-23
1.77787e-21
1.29116e-20
3.55425e-22
7.24204e-21
9.73576e-22
2.93903e-21
1.64675e-20
7.36782e-22
1.36618e-21
7.35471e-21
3.84496e-21
1.70124e-20
8.53091e-21
1.40315e-21
1.08479e-20
3.69384e-21
1.77461e-20
4.67807e-21
3.12684e-21
2.37811e-21
2.94785e-21
5.08411e-22
5.59915e-21
1.27681e-21
8.77356e-22
5.17275e-21
5.36648e-21
3.44826e-21
2.34156e-21
1.30471e-20
3.83118e-21
4.22373e-21
2.40848e-21
3.34455e-21
8.28255e-22
1.9103e-21
1.1971e-21
2.51082e-20
1.86179e-21
7.99059e-21
2.77275e-21
2.16916e-21
6.97052e-21
2.91337e-21
2.6201e-21
3.97318e-21
1.37873e-21
5.79313e-21
8.83559e-22
4.37895e-21
7.36425e-23
4.12565e-21
3.14859e-21
6.36455e-22
9.49507e-22
8.29126e-21
4.70002e-22
3.94789e-21
4.31914e-21
7.09825e-22
1.72682e-21
4.25459e-21
6.8659e-21
6.91326e-21
8.22264e-22
3.78038e-21
6.12022e-22
2.82551e-21
1.55377e-21
1.27952e-22
1.43789e-21
6.56458e-21
2.71534e-21
2.4497e-21
5.56721e-21
1.30124e-21
6.89446e-21
2.30809e-21
4.41758e-21
6.79501e-22
2.84195e-21
2.09949e-21
4.2407e-21
1.53409e-21
6.72416e-22
5.29423e-22
4.80188e-21
2.13687e-21
2.79954e-21
2.88027e-22
1.61535e-21
4.84514e-21
7.08284e-21
6.0922e-21
8.50709e-22
4.5425e-21
2.43269e-21
3.4409e-21
8.35829e-22
3.03643e-21
2.39992e-22
6.10668e-21
9.05145e-23
3.29081e-21
9.36852e-23
7.75148e-21
6.08558e-21
2.69332e-21
4.91783e-23
4.06516e-21
2.07246e-21
3.28847e-21
2.4136e-21
2.82908e-21
6.20386e-21
2.65648e-21
1.44693e-20
8.41563e-22
5.87507e-21
3.9473e-21
1.89118e-21
1.55228e-21
4.31696e-21
5.25069e-22
2.19839e-21
1.45105e-21
1.12173e-20
4.01358e-22
2.12387e-21
3.24151e-22
2.41276e-21
1.62416e-21
6.09618e-21
4.62205e-21
2.28844e-21
5.99488e-21
3.26517e-22
8.57428e-21
7.57146e-21
4.79578e-21
5.3833e-21
1.50487e-20
3.01192e-21
9.73452e-22
3.21635e-21
2.39351e-21
8.62614e-21
7.34061e-22
2.03254e-21
1.31887e-20
2.5516e-21
1.75721e-22
2.91779e-21
7.94391e-21
3.27517e-21
5.44425e-21
3.99059e-23
1.14419e-22
1.16152e-21
1.08404e-21
9.87504e-21
1.33149e-21
5.82336e-21
5.51844e-21
3.18987e-21
6.40902e-21
1.00459e-20
6.02025e-21
8.56103e-21
6.83254e-21
1.14286e-21
3.79086e-22
9.14344e-21
5.15569e-21
6.17486e-21
1.96263e-20
3.80983e-22
9.54351e-21
8.03694e-21
6.45033e-21
3.39477e-21
3.51838e-21
1.15641e-21
4.30455e-23
1.56752e-21
1.58734e-21
9.14612e-21
1.28814e-21
9.19404e-22
8.49805e-22
1.18245e-21
5.71596e-21
8.53606e-21
1.55493e-21
5.13057e-21
3.01627e-22
4.80821e-21
2.063e-21
8.13575e-21
5.44233e-22
4.5933e-22
2.45759e-21
3.00236e-21
1.14416e-21
3.76277e-21
2.06048e-20
5.14749e-23
1.4748e-21
1.00246e-20
4.69441e-22
9.93252e-21
3.69623e-21
3.24427e-21
2.80369e-21
7.38536e-21
3.71667e-21
1.55994e-20
3.41813e-22
1.96828e-21
2.15801e-21
4.25936e-21
1.15224e-21
5.0353e-21
6.15747e-21
5.20586e-21
6.55264e-22
3.42596e-21
1.61844e-20
3.71461e-21
1.53556e-21
1.70706e-21
4.39326e-21
1.86143e-22
1.52161e-21
2.55264e-20
2.91799e-21
2.73754e-21
3.31444e-21
7.49148e-22
6.61152e-21
3.18221e-21
9.18973e-21
6.65287e-22
7.32946e-21
1.96019e-21
1.39771e-21
5.43839e-21