/*--------------------------------*- C++ -*----------------------------------*\
  =========                 |
  \\      /  F ield         | OpenFOAM: The Open Source CFD Toolbox
   \\    /   O peration     | Website:  https://openfoam.org
    \\  /    A nd           | Version:  7
     \\/     M anipulation  |
\*---------------------------------------------------------------------------*/
FoamFile
{
    version     2.0;
    format      ascii;
    class       vectorField;
    location    "0.0012/lagrangian/dsmc";
    object      U;
}
// * * * * * * * * * * * * * * * * * * * * * * * * * * * * * * * * * * * * * //


105801
(
(-140.566 77.408 -8.15326)
(-466.432 261.656 349.682)
(-229.609 -88.7915 -324.327)
(-6.48055 84.0875 340.792)
(-52.1295 152.796 15.7899)
(-149.29 40.531 -47.63)
(220.579 -196.705 108.894)
(-455.897 -267.472 149.55)
(-463.722 -188.092 -224.332)
(-388.349 418.52 -6.31756)
(-266.685 -393.983 85.2105)
(-125.333 -367.495 139.9)
(-127.608 -111.933 -208.961)
(11.4527 34.4462 -221.565)
(-187.326 -395.21 -78.4231)
(-149.85 -5.69315 156.613)
(120.726 85.5495 -298.33)
(-122.724 -131.315 -153.352)
(-383.123 765.992 236.729)
(-327.053 -159.301 215.604)
(-53.0476 -403.776 -281.84)
(-437.737 -285.562 480.962)
(-400.254 -194.857 -131.349)
(-451.146 -132.458 55.5712)
(-281.858 -25.8275 -148.886)
(-700.789 4.29708 -58.9405)
(-357.042 -479.221 150.098)
(-335.689 -173.371 133.752)
(161.01 125.537 -356.515)
(-217.954 471.87 11.5433)
(152.721 186.981 -342.695)
(-53.8928 62.9561 368.363)
(4.80329 -114.362 180.249)
(-651.371 65.9248 -378.251)
(-183.16 -54.9128 -349.543)
(-438.089 23.8781 -461.673)
(-286.782 233.196 -308.353)
(-448.358 124.393 96.9639)
(-173.224 314.069 -92.793)
(13.8861 -40.6473 -190.905)
(104.686 -209.087 305.185)
(-159.146 -173.064 182.748)
(-330.867 -39.1106 595.607)
(43.0677 298.827 -56.7381)
(-543.772 314.435 -263.347)
(163.544 128.35 -26.6071)
(-403.725 -271.927 -119.433)
(60.6951 590.882 -68.9665)
(-325.343 -338.495 234.458)
(-427.613 -355.261 33.7705)
(-106.777 182.907 -279.533)
(-408.691 78.548 170.841)
(-137.782 97.8083 -46.0009)
(-502.081 288.814 -192.875)
(-379.42 238.918 -198.379)
(40.1971 -81.7757 -675.374)
(-82.9222 311.723 336.462)
(-198.18 -184.187 -17.2818)
(-246.253 -101.018 254.671)
(-50.2991 297.018 -172.436)
(-397.272 -80.1737 332.033)
(-489.319 -36.5595 59.4393)
(25.2653 132.928 4.24461)
(-190.019 -170.553 -54.7488)
(-107.166 12.7573 -149.493)
(-500.159 -132.647 -331.975)
(46.1915 113.347 -39.1336)
(-502.301 -76.987 128.668)
(-61.1375 377.406 114.24)
(-828.817 125.169 -785.491)
(-289.991 357.18 127.94)
(-116.952 103.469 -651.575)
(-313.457 -24.5178 569.991)
(-29.8002 -210.567 411.971)
(-302.834 390.049 -14.5584)
(-291.169 -373.725 -147.689)
(-176.283 -100.981 -436.679)
(-733.594 141.518 -118.739)
(196.662 -111.191 -508.784)
(-118.11 92.1289 -258.935)
(-16.1767 -189.991 188.052)
(-176.052 -298.177 53.5818)
(-439.691 -578.694 239.341)
(-623.188 85.9583 62.5518)
(-350.502 -72.4685 393.917)
(10.4761 323.881 166.346)
(-404.27 -68.6539 -537.872)
(-262.859 -117.578 -111.635)
(138.439 71.5014 -388.543)
(-608.87 258.133 -359.662)
(-452.123 -142.458 403.359)
(0.424558 -30.0615 -66.6439)
(-54.2306 557.647 -289.651)
(324.764 414.914 -103.251)
(-508.743 -537.786 -368.421)
(414.738 -793.904 -480.309)
(-480.49 -373.633 -285.239)
(171.587 12.6076 46.9951)
(-465.773 -399.285 -401.743)
(-29.5355 24.9978 -305.955)
(-467.943 96.5307 51.7797)
(-197.842 61.4482 -89.6544)
(-256.553 46.4659 123.657)
(214.689 -331.248 -90.2714)
(-231.647 -139.301 -200.215)
(-235.842 -223.161 55.5146)
(-113.21 -166.031 97.1934)
(-33.6131 419.005 94.2825)
(-374.648 295.169 112.963)
(-386.738 -36.7945 598.875)
(164.94 -313.915 -67.5855)
(-297.646 66.4478 192.413)
(-543.358 -170.499 488.348)
(-469.128 -411.563 359.95)
(277.844 -111.22 405.475)
(409.788 -116.032 -53.5755)
(-284.127 -138.096 -92.5593)
(-44.7778 154.584 -56.9331)
(-69.8151 134.755 -3.37759)
(-359.022 -129.962 -102.747)
(-474.142 -412.124 364.697)
(-42.3182 260.683 -570.777)
(98.8503 92.3597 -23.1104)
(-191.606 122.789 -240.608)
(-182.971 61.4607 365.67)
(19.0621 20.2742 -152.466)
(-510.656 -244.282 -16.664)
(-331.088 -265.35 503.613)
(-411.539 -181.259 -75.9585)
(10.3861 -115.449 283.765)
(124.966 41.8917 33.1938)
(-451.268 147.38 96.142)
(-10.4773 122.672 -169.754)
(27.0709 224.686 -415.518)
(-71.1629 566.04 81.1137)
(-303.425 -404.947 -227.483)
(-300.006 192.678 -72.4054)
(-87.4839 148.115 141.444)
(246.327 371.309 -226.384)
(-1.46333 282.139 452.863)
(-558.713 73.113 -245.364)
(48.3296 426.819 -208.266)
(-156.495 333.96 162.597)
(-179.386 27.1117 376.531)
(-429.437 -206.015 -43.2371)
(-298.586 -154.694 10.3119)
(44.8864 -224.364 155.005)
(-198.607 -119.14 119.046)
(-302.022 -242.328 -785.507)
(-533.625 -109.956 248.714)
(90.8964 25.1236 123.318)
(-286.05 549.102 -78.499)
(-441.372 -237.843 -796.632)
(3.23406 -36.0022 -393.416)
(39.8999 -130.836 -1.59662)
(137.968 -72.6614 109.945)
(-525.999 -721.936 -228.419)
(-149.741 -152.851 -501.889)
(-62.1478 261.58 -206.437)
(-386.257 439.365 138.224)
(-143.626 -243.163 536.285)
(582.981 98.6353 -270.722)
(-1.42929 -77.5595 7.53628)
(-192.916 -118.355 200.766)
(-17.0759 131.109 266.211)
(209.462 -621.188 437.716)
(-262.423 46.9144 -280.889)
(-216.574 173.755 -87.2962)
(-59.1524 -103.102 417.904)
(-464.052 -429.241 178.258)
(-559.035 401.82 51.7937)
(-342.112 -197.341 -310.208)
(-447.232 -316.679 -476.133)
(-116.313 -94.2697 -131.447)
(-245.24 -32.2685 -142.055)
(45.739 -258.412 -42.8863)
(-177.719 15.8858 239.48)
(-340.543 246.839 -285.419)
(63.0951 28.2365 486.805)
(-413.381 -308.476 -0.863788)
(-573.337 -193.728 177.236)
(-235.045 -67.0952 -3.60549)
(611.995 179.262 299.22)
(23.0714 552.161 33.3927)
(-57.1755 215.211 439.249)
(39.8634 -386.855 -338.276)
(-173.764 -450.361 -343.107)
(-251.442 259.075 466.467)
(-514.466 -385.144 -204.242)
(-245.459 -339.007 -245.21)
(-218.556 122.797 -22.1693)
(-511.368 182.494 -371.799)
(-435.397 -179.005 482.628)
(-308.179 -6.20723 152.147)
(-379.906 53.9285 128.003)
(-226.669 -12.4289 -453.948)
(-282.175 -44.5566 274.585)
(35.779 -346.207 40.0804)
(-417.282 214.428 -92.283)
(-451.474 39.0807 159.927)
(-378.543 -309.887 156.859)
(-419.764 188.273 -49.9662)
(-309.485 -412.802 -572.498)
(190.489 -75.0014 -324.964)
(297.729 221.594 116.763)
(-148.376 -299.178 49.8191)
(-370.766 4.44627 -422.266)
(-407.415 54.9943 -54.6796)
(-180.817 245.612 -3.64798)
(-350.277 158.51 -221.929)
(198.473 285.82 105.074)
(11.5729 -425.004 186.864)
(24.7794 -132.546 -93.8248)
(-404.246 73.6062 119.36)
(-300.637 71.9791 -163.653)
(-4.52552 -259.558 -150.177)
(-115.261 396.548 188.296)
(313.697 -339.788 -93.0689)
(-540.345 -72.0799 -372.493)
(-212.871 369.656 -399.653)
(-208.917 220.399 160.178)
(-480.895 -116.246 -127.578)
(-587.313 95.0017 276.82)
(-213.233 244.14 474.694)
(-1560.61 338.559 -108.575)
(-224.657 187.723 -232.308)
(-214.812 -514.565 102.042)
(-386.975 -596.847 -98.0732)
(-151.137 118.54 -218.756)
(-174.947 -317.998 -209.904)
(180.96 -162.335 -154.508)
(-22.9797 15.8811 20.5453)
(-515.658 542.052 -16.9946)
(-354.132 -325.957 297.803)
(-268.969 -66.0963 287.612)
(-270.776 44.6099 310.055)
(-355.791 -68.0893 -43.375)
(-84.9421 330.213 326.145)
(-27.1075 -16.8602 -440.646)
(-269.944 162.812 -91.5878)
(-174.482 -108.092 225.858)
(-452.786 -86.0187 42.8762)
(-299.195 -104.069 122.607)
(-134.984 267.722 184.176)
(-295.797 -380.309 -27.0394)
(-63.2518 -84.8886 249.011)
(-222.239 -245.107 187.623)
(-332.381 -360.186 215.737)
(-217.696 132.04 40.7061)
(-35.1238 -124.995 132.939)
(-655.73 282.992 293.584)
(-362.137 26.9236 215.942)
(-126.427 220.093 49.3575)
(-796.053 -148.247 332.476)
(113.292 -78.7103 -286.121)
(-589.004 -441.467 -1.89428)
(-144.988 -81.946 -133.837)
(-496.087 -224.791 99.5596)
(-269.951 -61.1348 -229.938)
(-152.449 -415.849 400.892)
(144.862 90.5868 5.80814)
(-616.55 -552.448 121.305)
(99.5034 -209.676 217.6)
(333.05 -61.5118 52.1252)
(-62.1182 259.708 56.3705)
(-134.182 -215.81 -274.883)
(-482.597 37.2285 -199.603)
(-264.395 -423.78 282.798)
(-39.3828 -142.786 4.808)
(322.797 455.651 187.457)
(412.332 136.758 443.612)
(-16.3314 -555.048 576.903)
(-556.987 -218.122 62.8086)
(-153.225 -324.749 -239.507)
(-176.979 -175.342 -270.373)
(-35.6068 70.9471 308.964)
(-105.8 141.445 25.9525)
(-13.5635 173.198 -109.866)
(19.5567 51.5936 211.405)
(-332.866 -502.463 -505.469)
(-449.088 7.24243 -38.1067)
(235.732 34.31 174.358)
(-182.279 409.029 -508.531)
(68.0947 -494.409 -469.582)
(95.8243 -465.338 -106.503)
(28.7245 95.6755 -270.639)
(-100.391 -16.1315 57.3592)
(-274.898 -146.322 381.296)
(133.168 -131.152 450.428)
(-198.65 125.175 570.224)
(-80.2977 208.297 603.042)
(-184.167 -66.2836 -198.078)
(141.084 45.9897 132.756)
(-431.562 56.1703 -219.904)
(337.958 -40.278 80.6149)
(-76.4205 -30.8684 -49.6908)
(-175.263 -100.172 273.584)
(-229.439 -227.099 377.649)
(-180.556 -278.163 -328.16)
(-575.242 203.632 63.0707)
(10.6195 106.998 254.003)
(-194.967 -393.321 41.5092)
(-31.2014 147.031 -54.3313)
(29.4388 181.991 -353.141)
(-135.428 122.61 42.6715)
(-21.6295 32.155 -73.3791)
(1.34817 530.12 186.395)
(-10.9646 164.088 7.28383)
(-134.178 -171.638 83.2673)
(-262.724 -90.3218 165.437)
(-159.111 -83.8604 227.517)
(90.1769 9.65459 -503.136)
(-249.844 -308.444 -288.372)
(-262.054 -171.655 -169.547)
(-192.769 257.373 -82.9707)
(350.179 -437.698 354.734)
(-178.308 -36.9863 276.03)
(-192.555 118.249 226.538)
(-117.682 26.0721 -85.0298)
(-67.3924 305.043 486.062)
(-837.984 44.4163 90.0991)
(-8.4475 179.328 -33.5558)
(-115.078 -150.217 309.246)
(-288.718 -156.72 -460.47)
(-243.347 -9.75389 -345.446)
(-125.722 300.533 -95.909)
(-306.095 157.856 164.83)
(-152.054 -203.807 -7.60088)
(-511.523 277.371 -269.367)
(-184.333 -23.7944 118.18)
(48.4962 -410.262 -127.34)
(-43.8157 176.965 9.05564)
(-362.904 -57.6032 -373.103)
(-293.949 95.9475 66.889)
(-218.556 -143.155 514.52)
(154.319 -28.8041 219.189)
(-11.8892 -525.322 347.697)
(141.981 414.219 -479.783)
(-187.406 236.651 -38.2318)
(211.665 209.618 85.5057)
(-140.451 -173.437 -434.634)
(46.4888 -234.815 -225.432)
(-441.023 -46.8753 11.1661)
(50.7546 -53.6261 218.917)
(101.841 -247.898 -43.8563)
(121.982 -2.51123 -297.568)
(-110.04 370.329 -137.127)
(-438.23 -404.467 -358.916)
(-126.859 -43.476 -176.755)
(-554.267 -487.566 -207.909)
(342.248 -246.956 -254.285)
(29.1609 501.261 -97.8773)
(-142.481 -18.1206 286.699)
(425.359 -20.1606 930.437)
(-0.135815 -172.555 348.664)
(21.9345 -141.609 -60.1424)
(392.021 -152.279 -240.852)
(-117.326 128.246 -243.953)
(-375.468 7.59253 644.936)
(163.841 354.755 85.5388)
(-196.59 -343.115 -167.125)
(-9.20977 233.943 164.051)
(-572.897 -88.1637 -304.054)
(-447.895 -579.169 -229.492)
(-448.652 146.306 17.2473)
(-88.9607 32.2748 -576.139)
(8.73344 261.98 -13.1804)
(-526.663 -60.3896 -65.1089)
(-330.841 -263.454 -418.515)
(-107.423 -376.071 -156.636)
(-411.468 -81.6839 83.5935)
(-156.818 -158.08 -159.594)
(-289.629 -489.33 -292.693)
(76.6635 -81.6317 30.9872)
(-762.369 442.986 109.327)
(-184.482 -82.6481 -67.8528)
(12.8345 -165.774 -73.5816)
(47.9624 -25.6003 77.1478)
(65.6664 -488.695 -182.973)
(-535.18 -181.18 416.769)
(-127.426 94.3177 192.642)
(-303.483 91.766 -88.3482)
(-27.5691 -16.3748 270.555)
(19.4883 108.032 -283.329)
(-369.62 413.051 255.574)
(10.3911 -15.3624 -188.36)
(-235.453 -143.166 173.408)
(-815.275 155.365 30.8754)
(-30.5971 119.28 80.7871)
(-178.193 -556.044 309.954)
(-235.601 160.668 182.916)
(-330.878 377.646 -36.9834)
(-443.42 41.8535 242.179)
(148.799 -68.3038 25.3525)
(-152.978 -100.057 -357.243)
(-422.06 250.646 2.38634)
(293.801 261.914 -194.515)
(245.747 -20.9744 -123.685)
(-69.6431 -109.378 -18.4684)
(-210.868 -100.389 114.994)
(167.955 0.697864 -36.7874)
(-139.206 -88.77 -29.7955)
(-282.579 -51.328 -326.803)
(-44.9877 179.516 304.784)
(-209.929 106.801 -306.413)
(-476.136 123.036 -287.361)
(20.9246 -59.8098 223.832)
(208.555 -88.659 -241.839)
(-554.406 -56.6049 -269.144)
(-197.161 316.765 152.764)
(-274.833 -75.0914 -87.6319)
(463.053 363.516 -50.3411)
(-547.317 -297.976 -59.6693)
(-348.621 168.101 178.43)
(-400.918 -411.969 -56.1302)
(-13.7947 -175.657 188.853)
(-353.074 -269.257 48.9905)
(-255.057 191.283 128.164)
(191.578 291.539 -107.172)
(-185.301 -119.495 125.898)
(-457.53 323.518 254.248)
(447.91 -76.5067 40.528)
(-140.877 91.2969 -307.26)
(-272.227 141.566 -245.406)
(-216.843 -112.454 476.147)
(-147.706 362.284 -115.26)
(-356.622 -81.0863 -163.97)
(-193.167 -162.466 -385.484)
(94.3662 -373.344 206.994)
(-199.594 52.4932 -118.736)
(-181.032 515.141 -902.561)
(81.1836 109.916 -27.5529)
(19.8011 -165.093 -55.3803)
(-364.782 -115.825 -99.0641)
(-269.121 -186.603 -61.3354)
(-28.5336 299.447 17.0166)
(15.9917 259.705 -157.061)
(276.882 -452.484 -111.906)
(-277.444 -149.514 -248.176)
(26.0622 -321.774 -332.142)
(3.60257 -371.932 363.63)
(-331.261 468.619 -443.557)
(-855.042 -191.312 -133.973)
(-406.791 137.474 -149.651)
(-240.497 -141.719 -536.315)
(106.026 -78.7904 188.885)
(-411.272 -467.91 158.329)
(59.2658 -268.093 -149.028)
(-407.213 -233.358 18.1669)
(-115.794 253.438 161.711)
(184.518 258.989 -56.8405)
(-154.123 -136.198 126.279)
(-201.369 11.1612 518.019)
(81.6894 -337.203 -54.831)
(-297.038 17.1099 -108.614)
(469.883 -346.969 -423.297)
(-277.217 -83.8842 159.717)
(145.597 -86.5778 208.632)
(-135.313 141.839 21.9038)
(-264.784 -162.841 -416.226)
(-253.183 346.409 478.743)
(-270.903 -124.827 535.415)
(-31.4055 -365.718 30.938)
(46.5109 -9.05571 93.3979)
(92.2707 -299.431 -224.091)
(-62.9337 -511.274 342.519)
(-453.704 -13.4866 -30.3884)
(-94.2285 11.6217 54.6299)
(-193.051 -263.411 170.076)
(-198.583 100.649 28.0228)
(-226.677 -72.7424 -152.757)
(-454.075 -17.784 170.798)
(100.293 -198.776 278.865)
(-107.635 111.765 404.777)
(-104.368 -1.9569 237.971)
(84.3348 -128.496 47.646)
(-212.424 100.91 196.519)
(-97.5353 631.656 71.2486)
(-539.23 429.492 -3.7303)
(-114.344 -574.667 -136.564)
(-184.622 373.972 27.8723)
(-90.0194 39.2063 -93.8812)
(-376.108 -151.355 29.8959)
(-256.575 -268.743 268.946)
(-110.464 -157.097 -5.37657)
(-457.432 143.794 163.41)
(-463.422 231.391 -561.052)
(124.27 168.915 174.157)
(77.8163 281.106 209.4)
(441.476 234.566 253.978)
(-271.347 183.847 -28.5067)
(342.999 -299.533 254.754)
(-255.893 -120.598 -522.046)
(-229.931 -167.482 -105.312)
(-32.3195 -78.8688 20.2737)
(-618.057 99.7883 648.025)
(-232.427 -565.537 -328.193)
(-865.721 86.6704 52.5581)
(-46.9566 19.8006 50.6426)
(-267.598 522.414 282.933)
(-128.795 128.849 15.0851)
(-328.462 31.2101 -219.55)
(-440.889 159.323 73.7707)
(241.882 429.298 241.165)
(-0.218391 -148.498 -259.565)
(34.1936 370.742 -32.9636)
(-521.965 -290.865 -62.6929)
(21.7673 -520.274 -333.832)
(57.3061 27.7798 -21.2887)
(-592.112 -263.434 302.652)
(-29.624 -55.3595 22.1978)
(-594.723 158.141 261.345)
(178.371 197.417 10.1744)
(134.959 -52.7155 33.0808)
(229.014 -91.6451 68.5469)
(166.011 128.346 581.023)
(-724.047 81.7556 103.481)
(-385.993 -215.998 228.536)
(-430.087 -143.498 -217.093)
(-99.2058 121.8 62.3042)
(-333.961 53.6599 -3.71125)
(-314.767 -251.185 -84.1644)
(-197.143 -168.544 -512.178)
(-200.834 323.427 -136.72)
(-417.267 -670.493 -337.565)
(-295.784 93.7994 77.4024)
(-274.193 307.321 122.639)
(-482.275 -81.5451 534.885)
(-450.47 -203.992 -446.959)
(-440.932 -413.884 -300.933)
(-395.468 -23.1532 86.3029)
(-311.702 -19.7214 -294.373)
(-438.225 81.5894 169.487)
(358.384 -253.422 14.2601)
(-87.071 115.062 -152.202)
(113.479 -6.76351 -9.92403)
(-506.877 -352.437 -207.756)
(268.444 -8.83293 -34.6505)
(50.4174 -227.324 -253.647)
(62.9903 -90.4641 0.23951)
(-518.114 5.47847 125.58)
(-188.809 32.3214 -142.905)
(-141.057 -169.837 262.134)
(-352.191 379.456 -9.12174)
(6.32388 30.508 372.765)
(191.598 -225.66 463.58)
(178.238 -351.806 134.156)
(-8.86522 79.4765 431.887)
(15.0369 157.06 156.922)
(-140.465 165.206 -29.7518)
(-91.6151 -496.974 -224.834)
(248.673 384.523 -270.38)
(-287.637 -164.683 345.494)
(-104.97 222.16 -150.671)
(-356.069 264.263 -123.457)
(-658.494 197.753 192.238)
(-196.207 625.046 195.377)
(-632.705 15.5104 -345.855)
(191.86 595.881 -274.005)
(285.038 -311.767 -12.0639)
(37.9689 -25.9652 -343.306)
(169.153 -71.1435 -21.2674)
(-219.136 339.818 -366.458)
(106.702 13.3784 808.27)
(-190.16 583.949 408.148)
(-295.558 -25.432 -78.7985)
(-4.06183 -286.036 -21.2832)
(362.753 159.331 -86.0736)
(-447.411 -211.776 72.4926)
(-277.535 -136.081 3.99401)
(158.004 -80.4341 -511.815)
(-335.923 -29.9506 65.9779)
(64.8797 -54.5168 1.89757)
(57.2331 -269.514 246.792)
(-38.9846 271.665 -50.1065)
(-122.786 -413.59 -222.818)
(-250.589 71.6887 -3.62461)
(-393.348 -18.9854 378.934)
(358.612 -16.9055 -62.8722)
(146.624 -291.154 399.974)
(33.1534 -255.395 -171.932)
(49.6995 248.511 130.412)
(-256.49 260.764 -316.338)
(137.281 33.1299 -420.317)
(-78.7025 -131.553 -649.791)
(-324.698 -206.819 848.659)
(-359.032 -255.312 4.15248)
(373.844 -181.61 -75.8132)
(-15.1004 -104.875 383.499)
(-129.299 -138.765 188.548)
(-440.653 295.375 -372.21)
(-494.881 -72.1103 -401.972)
(-332.646 97.6471 -241.649)
(-320.25 211.766 -186.194)
(22.068 5.64271 -498.208)
(98.0945 74.0231 -52.8442)
(430.974 -442.942 -133.922)
(167.355 -48.021 491.547)
(85.19 -50.789 -216.289)
(-552.49 274.617 154.542)
(-406.593 -37.3254 -130.517)
(-197.043 -168.185 78.0819)
(42.3885 385.594 -97.2849)
(-57.6799 -319.983 315.795)
(-29.0028 109.2 -320.702)
(-18.8868 144.302 6.78114)
(-260.886 -15.2293 -210.951)
(133.586 -60.2638 -281.158)
(-40.6842 35.7235 -374.774)
(9.65222 88.0091 -275.995)
(-83.191 -528.905 230.13)
(-303.542 394.804 5.62521)
(-234.753 -240.025 51.7242)
(22.7525 161.577 -96.094)
(17.3546 -70.5118 -58.4041)
(139.248 -71.4018 -236.883)
(-249.182 115.898 -53.8567)
(-329.414 -194.205 30.5991)
(-242.814 296.716 303.66)
(56.8962 -95.8745 444.044)
(-322.718 109.876 -219.528)
(-169.789 284.152 -167.949)
(-110.853 188.874 -574.121)
(-277.073 365.1 -101.307)
(205.509 311.698 -284.645)
(-218.609 -398.037 641.962)
(-214.567 291.985 103.082)
(-277.168 -72.1977 -415.211)
(-56.8013 389.689 164.833)
(-166.445 281.287 -681.4)
(-440.226 527.623 82.0513)
(-282.931 -190.031 77.0883)
(-413.722 -169.591 -113.02)
(-86.2506 -221.182 72.8422)
(378.875 195.315 554.752)
(-95.2243 -250.893 167.827)
(84.5448 97.2755 -141.784)
(-71.0115 -33.1634 20.0792)
(-470.878 126.333 -172.763)
(351.669 51.962 138.336)
(-338.625 37.1542 -30.1008)
(-479.826 257.878 -32.4863)
(237.199 -293.052 87.2838)
(35.3762 -567.976 164.197)
(61.3377 -140.203 261.354)
(-119.37 570.234 -91.4949)
(62.7629 297.77 -84.2513)
(-426.375 -14.1759 -179.706)
(-44.8037 214.711 -107.845)
(-37.6042 67.6688 -178.785)
(-686.61 -369.999 -141.929)
(-218.587 -516.972 -142.078)
(-538.995 230.54 -204.345)
(557.061 165.833 -353.668)
(140.367 402.407 242.915)
(-38.9607 -198.45 -170.715)
(-61.8678 -83.7249 -42.0003)
(488.526 -110.109 -21.2413)
(211.744 452.39 -26.2735)
(-61.8835 -83.5029 -306.097)
(293.765 27.6242 216.217)
(-345.433 99.7734 -318.812)
(-321.421 -201.722 110.418)
(-395.236 -214.884 -34.0072)
(-289.507 138.765 -138.386)
(-188.426 -193.876 82.5859)
(-286.035 -202.469 137.96)
(204.36 534.451 -303.265)
(-148.491 -533.681 14.5786)
(340.791 -144.443 -178.9)
(-313.677 83.0853 204.944)
(214.541 489.903 -194.127)
(-35.6176 -3.93247 -41.5881)
(-385.082 -62.1132 244.211)
(-90.5369 68.1999 535.136)
(-164.18 -554.294 -10.6318)
(-463.997 87.8874 145.983)
(-46.6858 95.3732 -58.3264)
(262.8 319.2 257.033)
(-69.8981 -315.012 -19.8177)
(78.3989 -4.03996 418.339)
(-168.26 328.515 245.358)
(-290.016 -184.279 51.7626)
(-333.201 673.015 -124.516)
(-737.973 -90.0363 -54.7123)
(-180.571 -314.177 65.7601)
(204.133 -288.366 52.5654)
(200.338 -198.4 178.749)
(-48.3982 335.393 -135.002)
(-65.8377 506.403 274.204)
(239.528 -300.462 -211.278)
(-674.293 389.461 -25.1552)
(84.5377 -348.417 -237.371)
(-262.313 237.898 -440.131)
(-376.592 345.985 -43.4597)
(-385.327 106.381 -241.771)
(-366.458 92.4283 199.183)
(591.452 52.683 181.228)
(-293.096 -297.486 -408.149)
(-457.23 -241.811 250.25)
(240.656 -216.468 104.896)
(-105.557 -62.9837 87.0223)
(-522.605 -201.865 -3.48433)
(-632.356 -144.319 193.086)
(-115.665 223.782 34.1109)
(-215.02 120.226 -475.05)
(-196.661 -259.382 188.211)
(-37.1392 -350.007 -62.3614)
(-231.777 -281.838 -481.641)
(120.837 -298.179 -339.843)
(-336.38 -118.613 -63.1643)
(366.655 454.854 -555.49)
(-86.9652 252.523 287.848)
(-406.682 206.312 108.275)
(-1.37153 123.741 -181.179)
(457.645 10.0046 -122.149)
(122.918 144.282 -345.298)
(-497.862 7.69109 -175.873)
(-8.21 42.2867 182.23)
(-438.622 -845.585 -223.096)
(134.401 -204.363 -127.842)
(-132.513 88.8366 -489.817)
(143.184 133.885 -555.498)
(645.987 36.8878 42.4055)
(-307.761 -420.952 149.224)
(-450.93 104.984 -284.237)
(-518.931 90.1939 -233.492)
(-324.036 -322.085 -174.109)
(44.4535 -249.387 -338.062)
(-74.6409 104.53 73.8685)
(-246.155 20.1105 -54.3639)
(-197.542 319.188 396.346)
(-415.037 -193.694 117.368)
(-6.0667 85.4135 70.3777)
(-139.76 356.653 146.427)
(-479.886 167.495 -50.2646)
(-83.1824 511.343 -150.147)
(305.383 -216.261 -363.577)
(207.326 214.001 -49.078)
(128.267 -293.629 -396.756)
(97.8316 -322.67 283.421)
(106.631 141.085 111.132)
(-439.703 -15.1171 0.134224)
(-216.298 422.903 -328.799)
(-112.46 -530.953 -178.556)
(-95.4139 -39.3074 219.947)
(-348.753 204.613 585.405)
(-203.04 -93.947 -328.43)
(-93.1652 -82.936 -150.854)
(-187.623 -144.509 -49.079)
(-397.616 -53.2059 -437.589)
(-349.286 327.898 -562.916)
(-142.944 -543.642 -398.968)
(167.434 135.649 -67.5375)
(245.109 212.337 -86.56)
(203.185 -160.737 -203.523)
(-471.109 216.825 -483.689)
(259.87 317.413 317.744)
(-93.2503 -110.406 336.104)
(-13.4167 390.573 178.515)
(-11.8618 182.973 89.5462)
(-21.0474 213.569 4.14262)
(-168.663 571.951 -265.004)
(-222.893 -384.624 -410.06)
(105.842 -271.32 7.08104)
(-15.5308 319.265 -138.515)
(-42.2441 141.846 -580.185)
(-388.243 198.201 388.881)
(-417.267 238.746 -364.828)
(-621.169 12.292 37.7944)
(66.8334 125.426 -462.98)
(165.766 -54.1293 447.78)
(-61.5314 252.393 -87.0492)
(-571.433 406.947 324.652)
(202.354 -281.893 -170.795)
(154.655 -115.521 -8.98691)
(-362.872 -239.802 249.446)
(-54.3417 201.43 146.826)
(171.439 144.955 -49.0919)
(-546.232 -208.69 -429.51)
(163.946 213.734 -498.114)
(437.479 -229.067 155.917)
(-622.707 607.649 -24.04)
(-81.7234 -149.101 -463.045)
(-173.128 322.353 257.617)
(-456.524 67.9542 135.041)
(-162.195 -138.12 -53.2005)
(12.4654 -49.7209 -323.802)
(-266.733 699.335 -178.329)
(-176.525 -156.314 -94.4893)
(-80.1001 -30.2533 -189.87)
(-416.283 -0.684774 -227.785)
(-400.139 294.248 -165.805)
(531.338 255.502 -21.6806)
(59.7536 385.089 -835.376)
(-155.96 -500.193 207.006)
(-347.545 -260.642 -294.127)
(-189.872 314.394 308.255)
(-52.8674 45.698 239.748)
(-20.3992 475.852 338.646)
(-406.261 -159.221 -459.039)
(236.44 -44.3998 23.0367)
(223.883 -485.257 258.881)
(481.931 -76.1742 -45.8476)
(136.599 15.9979 258.101)
(-218.592 -489.752 -345.478)
(-598.48 10.1367 -131.139)
(-235.564 214.411 -600.766)
(-356.716 -172.259 144.087)
(194.302 36.5111 -287.856)
(338.45 -275.164 -6.2645)
(-48.2925 378.656 -578.887)
(-375.83 -2.618 -306.831)
(-144.156 -83.9802 -284.05)
(-57.4758 -126.925 357.54)
(-489.162 117.392 339.962)
(-242.74 -29.184 61.6061)
(-90.9762 428.809 366.566)
(-114.097 171.131 -785.317)
(-248.798 -101.069 62.049)
(26.914 -68.2691 -35.8832)
(247.733 297.67 378.441)
(-547.589 -133.965 -13.0319)
(-317.987 17.61 257.686)
(29.6606 291.793 350.839)
(-325.79 496.612 -42.8742)
(-27.8358 383.079 83.0537)
(-12.3836 -170.651 -54.5204)
(414.565 -108.066 332.587)
(268.037 10.6509 13.3416)
(-208.498 -349.106 44.9236)
(211.481 -317.788 -71.173)
(68.6221 -287.951 -166.782)
(14.8666 225.402 265.614)
(-484.074 -176.267 64.8355)
(-19.719 158.644 41.8767)
(-267.691 -184.903 -521.827)
(-589.871 -59.7536 279.441)
(-272.734 72.7805 -226.698)
(-173.809 -68.8279 -127.263)
(-5.20193 -5.38325 594.583)
(224.822 120.425 351.857)
(-764.852 10.142 306.461)
(-137.476 65.8437 -226.806)
(-294.655 401.847 307.61)
(-111.545 422.429 -73.8715)
(-694.949 282.109 -216.384)
(-111.087 -245.63 -12.1392)
(364.355 147.422 492.582)
(247.047 70.5639 613.006)
(-108.092 332.707 366.603)
(366.656 -163.879 455.247)
(201.14 -339.712 69.6756)
(-494.274 -108.797 312.528)
(103.842 -652.714 -321.207)
(23.3059 -23.2032 -360.802)
(83.9067 303.679 -171.189)
(-314.932 10.2897 98.3772)
(-342.757 -40.2384 -57.9283)
(-694.17 -689.574 12.8078)
(-364.619 281.525 -347.746)
(-374.889 -395.354 -298.91)
(-386.649 -293.38 100.901)
(273.848 570.365 -244.624)
(-369.325 85.7413 -248.855)
(-114.835 498.456 631.395)
(-350.564 -108.354 1.50595)
(-362.018 8.27621 369.372)
(-94.5582 146.087 -107.794)
(-62.1443 -438.6 76.5409)
(-176.785 132.983 50.0363)
(122.455 -14.3446 222.295)
(-583.874 -198.613 11.6819)
(-142.244 -81.9969 -386.854)
(-196.803 47.4371 -211.779)
(722.478 615.663 -4.76583)
(-71.3015 -242.814 264.636)
(-522.834 -132.468 -216.725)
(-161.447 -112.533 339.57)
(-96.2601 255.762 244.192)
(-543.608 -224.338 -3.73219)
(-226.787 228.004 -19.3863)
(-868.384 -210.272 65.529)
(-141.256 436.823 -413.241)
(-380.471 460.871 336.71)
(-233.301 -156.056 -189.362)
(163.46 -183.397 -304.73)
(-91.0697 12.3419 -99.6854)
(60.242 -96.6461 -21.5141)
(-64.0876 118.08 376.71)
(-566.502 525.255 -140.781)
(-108.996 -146.115 18.6507)
(15.6254 84.0977 -84.2332)
(-310.515 -5.65559 96.3571)
(137.187 -70.4956 247.381)
(-404.753 13.7863 68.5325)
(-552.498 250.803 -0.31612)
(77.3432 -148.624 45.5669)
(192.954 -41.5318 551.809)
(-134.085 201.616 41.4611)
(197.236 68.4061 33.5188)
(-83.5137 -262.999 -127.815)
(-224.774 527.014 202.832)
(-403.118 519.721 -200.85)
(-186.533 644.426 135.764)
(-250.659 456.719 185.885)
(65.2283 -290.715 -261.335)
(192.26 359.917 -648.068)
(-364.169 -587.736 -85.5562)
(173.918 -485.903 -219.386)
(-148.79 -138.55 -26.0418)
(231.597 442.459 455.559)
(-52.1523 -122.113 13.0073)
(-28.6772 200.291 -9.39594)
(189.114 -49.4141 60.985)
(353.408 -34.9373 -339.455)
(-161.127 8.51469 561.924)
(-444.672 66.7532 -534.548)
(117.759 360.484 -5.02263)
(-392.236 132.675 -375.816)
(322.378 -385.417 -388.484)
(-205.564 162.406 -369.277)
(-506.219 -612.723 -41.9719)
(-183.826 240.797 169.766)
(62.4271 -269.726 24.8987)
(363.281 -168.738 -544.397)
(180.356 -5.47766 -92.6329)
(-59.6225 -564.323 -58.123)
(194.408 101.589 458.195)
(-140.688 64.0182 -189.029)
(123.175 287.735 -146.971)
(293.72 353.198 -410.461)
(111.299 -573.334 654.163)
(84.9272 -216.582 358.603)
(-121.151 329.279 -32.9202)
(-332.546 -326.901 -77.2865)
(-208.167 -473.039 -174.018)
(-213.459 168.202 -191.485)
(-259.913 -191.121 -361.077)
(415.639 -105.435 65.3831)
(-152.436 -649.025 349.976)
(204.997 291.336 98.3173)
(-139.34 41.1003 -173.988)
(-116.785 -336.714 -410.758)
(-9.06342 18.775 -122.885)
(17.0692 431.91 -355.382)
(-233.8 -18.3697 116.836)
(107.308 179.159 -244.32)
(-132.632 245.203 -36.8976)
(627.443 129.044 -136.901)
(364.402 106.382 -233.845)
(423.713 -271.823 97.5255)
(-669.483 -179.197 -26.5313)
(-202.013 -216.111 14.2145)
(-207.088 294.105 51.7363)
(-8.18422 -351.165 350.788)
(-521.905 -48.1014 95.0326)
(76.72 -351.162 258.449)
(-527.208 231.306 175.146)
(-525.785 264.458 233.274)
(-6.72744 -167.414 57.7059)
(110.664 -111.863 510.82)
(626.602 -63.8585 -75.9719)
(121.002 -548.451 -27.7747)
(-115.506 38.9607 436.88)
(-206.912 379.895 57.4765)
(388.762 128.769 -216.308)
(173.807 316.83 -24.5003)
(133.558 96.8792 -281.093)
(-419.913 144.366 395.452)
(236.51 -237.011 -95.0183)
(-19.1859 110.906 552.457)
(361.312 -209.898 -356.965)
(40.9797 -301.576 228.525)
(249.728 -152.296 -40.4418)
(211.697 -113.879 123.52)
(-199.438 -280.293 70.5192)
(-17.8173 -68.7129 646.494)
(-239.258 -353.091 -341.224)
(-215.246 146.144 -288.895)
(142.692 -138.142 -107.214)
(-480.663 -359.202 266.728)
(176.445 -13.6078 -347.183)
(-180.342 152.009 -50.0379)
(-269.839 -114.768 131.781)
(381.265 -463.096 -250.694)
(-257.107 194.919 194.215)
(-119.89 -320.009 -721.948)
(6.07891 21.6256 -243.373)
(-119.056 -379.287 -198.548)
(-6.27011 -482.409 128.316)
(-329.261 308.657 197.1)
(-443.503 329.249 -35.6214)
(-208.3 269.724 90.7732)
(-292.17 441.722 244.692)
(-494.535 155.424 630.576)
(82.427 293.226 -46.9562)
(292.861 690.865 22.793)
(341.257 96.3369 354.718)
(-235.764 -64.7097 177.614)
(403.236 229.344 -148.237)
(-261.461 -23.258 455.511)
(147.085 -424.495 60.0717)
(78.7069 95.137 -11.2353)
(308.254 217.706 190.825)
(133.263 479.823 46.273)
(-34.1793 580.587 -623.637)
(-560.767 -283.264 126.4)
(-465.739 -106.157 308.059)
(-246.827 61.9123 -373.792)
(-223.425 253.946 -28.8537)
(-455.728 -184.577 -363.386)
(74.4557 -245.404 208.323)
(39.4728 -184.129 -407.592)
(-66.365 -120.262 -99.6368)
(-297.966 -203.73 110.524)
(90.5062 -8.87396 -373.603)
(-304.263 -69.0608 536.385)
(-451.554 -494.306 313.942)
(96.6743 9.6171 178.926)
(252.924 558.589 657.96)
(-414.834 398.942 563.14)
(-408.072 524.119 43.7407)
(-83.4328 116.651 -222.613)
(-152.634 43.8377 238.295)
(329.754 -314.946 286.236)
(19.551 -118.335 -214.629)
(-103.939 -116.518 -242.168)
(-240.684 -331.207 487.511)
(-135.787 -59.2409 -133.714)
(37.4943 180.438 231.975)
(-179.269 -1.55963 -54.1678)
(287.63 338.459 -77.8317)
(-376.109 215.278 -424.721)
(264.188 25.4054 826.48)
(454.625 -713.118 -174.09)
(-153.983 208.338 -173.705)
(-322.929 299.383 -71.7999)
(57.1224 -379.024 55.1417)
(97.1227 480.473 287.859)
(-331.083 23.4344 -702.458)
(395.712 86.3429 -62.4945)
(-316.226 342.195 -245.815)
(16.8601 -478.761 -672.175)
(273.831 21.1707 -170.647)
(445.596 -47.9144 -319.527)
(-161.785 -148.123 170.585)
(-472.773 -84.3781 365.585)
(288.444 -389.057 54.6668)
(-603.638 126.998 -72.4228)
(20.4131 201.994 -153.341)
(88.248 247.204 253.513)
(152.663 101.69 -175.21)
(-438.845 76.1811 209.712)
(212.597 -174.499 -19.3266)
(428.199 248.91 30.8555)
(-395.963 335.742 -499.395)
(-466.055 277.342 -8.1365)
(-257.66 -108.731 -79.9731)
(-741.667 111.473 -209.283)
(173.431 323.922 60.1768)
(-31.3596 587.246 29.641)
(-133.927 33.341 107.675)
(-81.4587 408.234 -142.096)
(-90.6769 344.861 -320.711)
(281.17 -212.646 -135.404)
(-190.262 -253.748 240.545)
(327.588 176.266 300.578)
(-405.088 177.664 190.392)
(-512.727 118.968 -263.935)