/*--------------------------------*- C++ -*----------------------------------*\
  =========                 |
  \\      /  F ield         | OpenFOAM: The Open Source CFD Toolbox
   \\    /   O peration     | Website:  https://openfoam.org
    \\  /    A nd           | Version:  7
     \\/     M anipulation  |
\*---------------------------------------------------------------------------*/
FoamFile
{
    version     2.0;
    format      ascii;
    class       scalarField;
    location    "0.002/lagrangian/dsmc";
    object      Ei;
}
// * * * * * * * * * * * * * * * * * * * * * * * * * * * * * * * * * * * * * //


103627
(
3.12421e-21
5.1055e-21
2.36264e-22
2.75428e-21
1.16208e-21
5.21904e-22
2.07624e-21
1.48042e-21
5.28523e-22
5.92177e-23
1.78515e-21
3.37504e-21
2.3503e-21
4.59073e-22
3.90709e-21
1.78265e-21
2.27829e-21
1.52249e-21
4.49662e-21
1.56838e-22
2.31253e-21
5.8494e-21
1.2593e-20
9.1373e-22
4.56959e-21
2.83258e-21
1.76238e-23
3.6988e-22
2.13655e-21
1.02468e-21
7.64819e-21
4.42744e-21
1.41136e-20
1.63756e-21
5.17692e-21
5.50785e-22
1.20084e-21
3.85581e-24
1.95095e-20
1.64148e-21
2.56562e-21
9.04978e-21
2.53e-21
7.35906e-21
9.7813e-22
2.85327e-21
5.69093e-22
3.69476e-21
2.69735e-21
1.38669e-21
4.43763e-22
5.86714e-22
2.07586e-22
9.42644e-23
1.2477e-21
4.11038e-22
1.17802e-20
1.36145e-21
2.39159e-21
2.66708e-22
1.2139e-21
1.50617e-21
5.50261e-21
2.17098e-21
2.95533e-22
5.93613e-21
6.94413e-21
9.43474e-21
4.9851e-22
7.07497e-22
4.79545e-21
3.73269e-21
5.5299e-22
3.06036e-22
7.32502e-23
2.59633e-21
6.61425e-22
1.35067e-21
3.78901e-22
8.35399e-22
5.19112e-21
5.69803e-22
7.31807e-21
4.43303e-22
3.86819e-21
1.62795e-21
1.09854e-20
1.01878e-21
5.95852e-21
1.69142e-21
8.73291e-22
2.05074e-21
7.30266e-22
2.11934e-21
5.72104e-22
4.32566e-21
3.77885e-21
1.10665e-20
1.28965e-21
2.275e-21
6.50904e-23
3.58403e-21
4.7402e-21
3.50921e-21
6.38904e-22
3.25176e-21
1.40674e-22
1.81195e-21
3.75557e-21
2.89094e-21
4.23635e-21
1.22424e-21
4.58004e-21
4.89053e-21
1.4721e-20
7.84225e-21
5.08678e-23
3.51426e-21
3.4899e-22
6.20246e-21
1.48053e-21
1.62535e-21
4.0451e-21
1.23387e-20
1.27828e-21
1.28578e-21
2.14318e-21
7.4101e-22
1.06565e-21
4.21719e-21
4.16804e-21
9.84956e-22
3.9928e-21
3.21873e-22
2.96527e-22
1.98423e-22
1.33485e-21
1.46476e-21
4.16695e-21
6.34603e-21
3.2952e-22
4.15358e-21
3.03476e-21
5.51328e-23
1.93083e-21
3.05401e-21
3.29249e-21
1.36045e-21
9.6904e-22
1.70832e-21
2.93785e-23
1.75209e-20
3.13595e-21
9.22177e-22
2.14228e-21
1.6937e-21
1.41217e-21
1.35757e-22
9.26421e-22
5.68547e-21
7.94403e-22
4.85038e-22
2.67739e-21
8.3382e-21
2.6944e-20
6.30423e-21
4.15725e-21
7.5976e-21
4.135e-21
3.66232e-21
1.46229e-21
1.23196e-21
1.37266e-21
4.53954e-21
6.66785e-21
1.67684e-21
8.85218e-21
1.42785e-21
3.7178e-21
9.91197e-22
1.97642e-21
6.33004e-22
2.99301e-21
2.30418e-21
6.96834e-22
3.46286e-21
7.07565e-21
1.47898e-21
1.05829e-22
4.57398e-21
6.07782e-22
9.82032e-22
1.43324e-21
3.03379e-22
1.69201e-21
5.80301e-21
1.15662e-21
8.89911e-23
1.86545e-21
1.16429e-21
1.71972e-21
2.15255e-21
6.26672e-21
6.50683e-21
7.46231e-22
1.59645e-21
3.09146e-21
1.11832e-21
1.57976e-21
1.18299e-21
6.52311e-22
1.28076e-21
1.31439e-20
2.70563e-21
9.47621e-21
1.18775e-21
2.2625e-21
4.18278e-22
2.08661e-21
3.76238e-21
3.15075e-21
2.14938e-21
3.86791e-21
6.83788e-21
2.16268e-21
8.203e-22
6.50369e-22
1.18861e-21
1.39016e-21
1.56268e-20
2.67806e-21
4.1785e-22
4.34365e-21
8.88444e-22
5.93932e-21
5.73038e-21
3.80253e-21
5.16519e-21
4.8319e-21
4.04734e-21
1.4265e-21
7.31163e-21
2.22506e-21
4.03845e-22
6.03435e-21
4.99685e-21
9.47004e-22
1.09816e-22
3.7772e-22
2.55995e-21
1.26137e-21
4.95631e-21
2.03084e-21
3.39039e-22
6.84117e-22
2.55839e-21
1.49168e-22
1.18835e-20
4.27449e-21
3.10683e-22
2.54668e-21
2.7512e-21
3.14448e-21
3.90675e-21
1.64355e-21
4.19551e-23
4.51211e-21
1.08291e-21
3.7347e-23
1.49067e-20
3.578e-21
2.90094e-21
1.05996e-21
7.07622e-21
1.06622e-21
1.08017e-21
6.53675e-21
1.6745e-21
1.44988e-20
1.89576e-21
5.83578e-21
4.8942e-21
4.54872e-21
4.11737e-21
1.39248e-21
1.22064e-21
1.01007e-22
2.26011e-21
3.70441e-21
4.19298e-22
5.92967e-21
1.64381e-21
3.56686e-21
4.28506e-21
2.08093e-21
1.15817e-21
1.46841e-21
5.855e-22
2.29332e-21
3.81319e-21
1.96329e-21
2.30085e-21
5.98285e-22
3.05497e-21
1.88892e-21
2.5273e-21
1.01289e-21
4.26026e-21
3.26469e-21
7.99213e-22
4.29312e-21
1.51147e-21
5.37203e-21
6.09891e-22
3.1563e-21
7.09839e-21
1.26478e-21
3.24978e-21
3.91147e-21
1.68167e-21
8.01229e-21
3.89191e-21
1.09009e-21
3.3382e-21
4.54315e-21
1.37421e-21
1.73028e-22
6.73785e-21
1.1949e-21
8.90382e-22
1.11988e-21
1.7088e-21
3.07229e-21
1.4794e-21
3.33465e-21
1.15513e-20
1.09864e-20
1.90533e-21
1.22677e-21
1.66389e-21
3.23581e-21
5.45479e-21
1.53727e-21
4.20272e-22
6.71169e-21
7.21783e-22
1.70893e-21
1.43479e-22
5.21902e-23
6.11355e-21
1.06836e-21
1.81202e-22
3.01551e-22
5.428e-21
1.01242e-21
2.71645e-22
4.39097e-21
5.15596e-22
6.1161e-22
2.0716e-21
1.45113e-20
6.5608e-22
2.71527e-21
2.42693e-21
5.08316e-22
8.5273e-21
7.65713e-21
1.60343e-21
1.65719e-21
1.87982e-22
9.23416e-22
5.94938e-22
1.65625e-21
4.04085e-21
1.99843e-21
4.25435e-21
1.40065e-21
2.6743e-21
2.77817e-22
6.72883e-22
1.00703e-20
6.34757e-22
1.57221e-21
2.62229e-22
3.40765e-21
1.81374e-20
3.75694e-22
2.36005e-21
1.92224e-21
7.13661e-22
2.2483e-22
8.92335e-22
5.09856e-21
4.15637e-21
5.70785e-23
8.33666e-22
4.02104e-22
5.88112e-21
4.3744e-21
4.83994e-22
4.79849e-21
3.95044e-22
1.87417e-21
8.8604e-21
3.83938e-21
6.79607e-21
5.11578e-22
2.28517e-21
2.83768e-21
8.21488e-23
3.7568e-22
2.40787e-21
5.08737e-21
2.66132e-21
2.68885e-22
4.13097e-21
1.97001e-22
4.52032e-21
5.87568e-22
2.02834e-21
6.50877e-22
1.56136e-21
3.4117e-21
6.40439e-21
1.09893e-20
1.30856e-21
2.33983e-21
6.75905e-21
1.4375e-21
4.37947e-21
5.95492e-21
7.34983e-22
5.11513e-21
3.58343e-21
1.71206e-21
3.79467e-21
1.13461e-20
5.98742e-23
4.56238e-21
1.53286e-22
8.69623e-22
4.19407e-22
4.48585e-21
2.05522e-21
1.27151e-22
3.54067e-21
2.77097e-21
1.13455e-21
1.16416e-20
2.12334e-21
1.1142e-21
1.02622e-20
1.53322e-21
9.83849e-22
3.53246e-21
1.60581e-21
2.54114e-21
5.29397e-22
1.57764e-21
3.15539e-21
3.06404e-21
1.44359e-21
1.12272e-21
4.32758e-21
3.70791e-21
9.29222e-22
5.71099e-21
8.24502e-22
3.47394e-21
3.31898e-21
2.89062e-21
3.06372e-21
4.88881e-21
1.28205e-21
2.10916e-21
2.79053e-21
7.31048e-22
4.1189e-21
2.30252e-21
4.60547e-21
3.7948e-23
6.65356e-22
2.86294e-21
4.24662e-22
2.34809e-21
7.45856e-21
9.12804e-22
4.01348e-22
4.26922e-21
1.13941e-21
5.29051e-21
9.87266e-22
2.26824e-21
1.24607e-21
3.63459e-21
7.11574e-22
9.60745e-21
2.04468e-20
4.40162e-21
2.72685e-21
3.47413e-21
1.18278e-21
7.51515e-22
1.3769e-21
1.8925e-21
4.55615e-22
7.07331e-21
7.98346e-22
4.81968e-21
3.20088e-21
5.78345e-22
2.00013e-21
4.39221e-21
3.04105e-21
2.94168e-21
3.60092e-22
2.58208e-21
1.22809e-20
4.92276e-22
3.22041e-22
1.03116e-22
2.10733e-21
1.34598e-21
5.06695e-21
5.00926e-22
5.04632e-21
1.01745e-20
7.62339e-21
2.00711e-21
1.84091e-22
4.65127e-22
2.99277e-21
4.69344e-22
2.51271e-21
4.53896e-22
7.04318e-22
9.12793e-23
3.4396e-21
5.30056e-22
1.32652e-21
7.1803e-22
1.78472e-21
2.86542e-23
3.96861e-21
7.58107e-22
2.19567e-21
8.47101e-22
2.14028e-21
3.34669e-21
7.96102e-22
4.84549e-22
9.15852e-23
1.84344e-21
3.35051e-21
6.38627e-22
1.11106e-21
2.84087e-21
1.35205e-21
1.10502e-21
4.87828e-22
3.18358e-21
9.22041e-22
2.00477e-21
3.02805e-21
2.74253e-21
2.46889e-21
1.49622e-21
1.01227e-20
4.65729e-21
6.48292e-21
3.34713e-21
3.99766e-21
5.04292e-22
5.42039e-21
4.30824e-21
1.92757e-21
7.94009e-21
1.16611e-20
5.3472e-21
1.09735e-21
7.28857e-22
1.36105e-21
4.37548e-21
1.41265e-20
6.21183e-23
2.64129e-21
1.62208e-22
5.12681e-21
7.05838e-21
4.19618e-22
9.86988e-22
6.64402e-21
5.95682e-22
8.69841e-21
6.4868e-23
2.53281e-21
1.01122e-20
5.75206e-21
8.09648e-21
1.81635e-21
2.61359e-22
6.64973e-22
8.97139e-21
7.15499e-22
3.23901e-21
7.36974e-21
7.21834e-22
4.77632e-21
3.94431e-21
5.25604e-22
4.97636e-21
4.7887e-21
1.84926e-21
4.53916e-21
2.39675e-21
8.41262e-22
5.65715e-22
1.16237e-24
1.6519e-22
7.59182e-22
3.28636e-21
8.32478e-22
1.21993e-21
6.91146e-22
5.8683e-21
2.89313e-21
5.78871e-21
3.24567e-21
3.36742e-22
8.64521e-21
5.37761e-22
4.48516e-21
2.33537e-21
1.07536e-21
5.75405e-21
3.23868e-21
8.8907e-22
3.60175e-21
3.59734e-22
1.98679e-21
1.22724e-21
8.90024e-21
1.1764e-20
2.75129e-21
1.39774e-21
7.40253e-21
5.80579e-21
8.82759e-21
4.95167e-22
1.70648e-21
3.0218e-21
2.47959e-21
1.68764e-22
6.60381e-21
1.80747e-22
7.81086e-23
3.7156e-21
4.9429e-21
3.58178e-22
2.06415e-21
1.62135e-21
1.58604e-21
1.49623e-20
2.58091e-21
1.50649e-22
5.45539e-21
7.01601e-21
8.49747e-22
5.9844e-22
1.36088e-21
5.42185e-21
3.52327e-21
1.08218e-20
3.21629e-22
1.96743e-21
2.88431e-21
3.63421e-21
1.01555e-21
2.77901e-21
1.25859e-21
1.4408e-20
3.48312e-22
2.90861e-22
2.57642e-21
4.05607e-21
3.14857e-21
1.69992e-21
4.2832e-21
1.47233e-21
8.23601e-21
1.75559e-22
2.9357e-21
1.18267e-20
6.81353e-21
5.70957e-22
3.22687e-21
2.98391e-22
3.73879e-22
1.29372e-20
7.95388e-22
4.62092e-23
7.94454e-22
2.07834e-21
5.29942e-21
5.55304e-21
5.01678e-21
1.54342e-21
3.92061e-21
5.52831e-22
8.66433e-21
8.21011e-21
3.45751e-21
1.05805e-21
3.33737e-21
3.30902e-21
5.45197e-21
1.67302e-21
4.96462e-21
3.87741e-21
2.52652e-21
5.03641e-21
4.29332e-22
2.9139e-21
1.45283e-21
1.4402e-21
6.37279e-21
1.7621e-21
1.70235e-21
4.363e-22
6.72805e-21
1.11347e-21
1.70818e-20
2.84142e-21
3.59769e-23
3.39505e-21
1.67879e-21
2.85872e-21
1.47478e-20
9.51969e-21
4.56156e-21
1.47108e-20
1.04935e-21
3.00263e-21
5.33082e-21
2.60346e-21
9.85e-22
1.73864e-21
3.4657e-23
5.8209e-22
1.34919e-21
3.55862e-21
9.97127e-21
3.55268e-21
5.69083e-21
4.37098e-23
6.49078e-21
2.80384e-22
1.2587e-21
5.30774e-21
1.21334e-21
5.3891e-22
3.86172e-21
5.20331e-21
6.27229e-22
8.84901e-22
4.08105e-21
3.24737e-21
2.03501e-21
3.39763e-21
5.4042e-21
2.0589e-21
1.13444e-21
1.40506e-22
3.6278e-22
1.12679e-20
2.61135e-21
3.79524e-22
3.87073e-21
8.15076e-21
6.08192e-21
1.39251e-21
3.42571e-21
2.71678e-23
1.67869e-21
2.22656e-21
5.83261e-21
4.14315e-21
3.74985e-22
3.47233e-21
6.77714e-21
2.1445e-21
1.46902e-21
4.37569e-23
1.71165e-22
1.22849e-21
1.77076e-21
3.34871e-21
1.49819e-21
9.88811e-21
1.44879e-22
1.87885e-21
4.70953e-21
5.99578e-21
6.589e-21
5.44552e-21
1.47382e-21
2.34594e-21
3.21711e-21
4.17808e-21
4.28591e-21
6.23991e-21
3.80981e-21
7.13834e-21
4.15838e-21
4.41306e-22
5.21799e-22
3.60203e-21
9.35889e-22
1.35606e-21
1.58915e-21
3.49337e-23
1.49747e-20
4.9066e-21
4.87985e-21
3.65673e-21
1.97791e-22
5.5097e-21
5.54197e-22
2.93508e-21
1.32743e-21
7.44392e-21
1.80221e-21
3.29058e-22
8.34278e-22
1.18039e-21
5.89969e-22
4.58251e-22
5.41256e-21
1.97299e-21
1.31311e-21
4.16409e-22
1.23457e-20
3.71497e-21
1.45338e-21
3.21418e-22
6.66977e-22
1.15417e-20
2.15343e-21
1.17076e-21
1.6782e-21
9.85807e-22
2.71431e-21
3.46962e-21
4.27987e-21
1.68829e-21
7.22911e-21
8.37844e-21
3.01611e-23
5.69264e-21
1.64694e-21
4.90374e-22
4.26e-24
9.20509e-21
1.60445e-20
6.07125e-21
8.41488e-22
1.54838e-21
4.63586e-21
7.67822e-21
4.34998e-22
4.51228e-22
7.6772e-22
4.22454e-21
6.39865e-21
6.3784e-21
3.69509e-22
1.34679e-21
5.16558e-21
4.94206e-22
1.64974e-21
2.43865e-21
4.57122e-22
3.83491e-21
1.6072e-21
2.43577e-21
1.03914e-21
4.77911e-21
3.76565e-21
1.60824e-21
1.5512e-20
2.62897e-21
3.83871e-21
1.29711e-21
1.31133e-21
2.5947e-21
4.14433e-22
5.55096e-21
9.60978e-22
1.00542e-22
6.82278e-22
6.46742e-22
4.23436e-21
3.02852e-22
4.28018e-21
1.48666e-21
8.85567e-22
4.93255e-21
1.14776e-20
1.90753e-21
2.25846e-21
3.29841e-21
6.16286e-21
1.88165e-21
6.38446e-21
8.45346e-21
4.09718e-22
1.11803e-20
5.25109e-22
8.19676e-21
2.36793e-21
1.3864e-21
2.2378e-21
4.42262e-21
3.26722e-21
1.44908e-22
1.20225e-21
6.08693e-21
7.26156e-22
6.36654e-22
1.70292e-21
3.2935e-21
1.59596e-21
2.19594e-22
3.09448e-21
1.45556e-21
5.12038e-21
1.53714e-21
2.07095e-22
3.93629e-21
1.47695e-21
5.02738e-21
3.84484e-21
1.93889e-22
4.38971e-21
7.12309e-21
1.04563e-21
3.79181e-21
4.09629e-21
4.65878e-21
3.22879e-21
2.10674e-21
2.65569e-21
7.66858e-21
4.19887e-21
2.51459e-22
2.83827e-21
7.88302e-22
3.06297e-22
7.36415e-21
3.62676e-22
1.35264e-21
7.5676e-22
3.16118e-22
1.20563e-21
2.27575e-21
5.88324e-21
1.84285e-22
4.03832e-22
6.56358e-21
6.23736e-22
5.10519e-21
4.34821e-21
2.42543e-21
5.15438e-21
5.21686e-21
2.18805e-21
2.50152e-21
4.72213e-22
3.52867e-21
4.54107e-22
1.48451e-21
1.9513e-21
1.71915e-21
6.10341e-22
6.63395e-21
1.04453e-21
2.42841e-21
1.12284e-21
3.02951e-22
1.01118e-21
1.19578e-21
5.50795e-21
5.9134e-21
4.41382e-21
4.10453e-21
1.15248e-20
9.42133e-22
4.59875e-22
1.18405e-21
9.358e-22
4.00822e-22
3.61567e-21
3.64133e-21
4.48518e-21
1.36001e-21
2.73225e-21
3.97463e-21
1.47631e-21
3.1995e-21
2.79346e-22
9.94178e-22
8.8985e-21
7.47239e-22
1.78254e-21
4.68876e-22
9.76484e-22
3.31267e-21
2.17492e-21
3.16182e-21
1.06431e-21
8.90609e-23
7.94498e-23
1.41159e-21
8.66599e-22
7.97308e-22
1.32216e-21
1.50401e-21
1.86312e-25
2.23945e-21
2.76744e-21
2.76088e-21
1.0094e-21
9.35937e-22
1.22061e-21
1.30645e-21
2.08078e-21
4.39355e-21
6.22172e-22
1.51739e-21
4.32936e-22
8.86899e-21
1.92858e-21
2.05019e-21
2.81663e-21
3.51327e-23
3.75426e-21
4.07282e-21
6.16765e-22
4.65625e-21
2.0003e-21
1.05804e-20
8.3378e-22
3.36347e-21
6.52607e-22
2.24031e-21
2.4535e-23
3.96931e-21
5.82336e-22
7.40291e-22
1.25147e-20
2.34554e-21
1.39843e-20
8.87291e-22
5.18689e-21
5.9008e-21
1.43276e-22
1.73524e-21
7.41467e-22
3.97408e-21
3.66504e-21
9.78311e-21
1.57984e-21
3.12242e-21
2.76133e-21
3.96045e-21
4.74027e-21
2.51078e-21
1.359e-22
2.62221e-21
3.40373e-21
9.2956e-22
4.39891e-21
9.17525e-22
2.40527e-21
4.81697e-21
3.87344e-21
5.52848e-21
1.41572e-21
7.36327e-22
7.92192e-21
8.08818e-22
1.68986e-21
1.97432e-21
4.46332e-21
1.49533e-21
3.33686e-21
9.76932e-21
5.20276e-22
2.19225e-21
8.78393e-21
5.40925e-21
2.17864e-22
7.84668e-21
3.90891e-22
1.0848e-22
2.60922e-21
1.69369e-21
3.35858e-21
2.18961e-21
8.96323e-22
5.4039e-21
1.95537e-21
3.79018e-21
1.7942e-21
2.39685e-21
1.76794e-21
2.53638e-21
2.75605e-22
1.23915e-20
2.61831e-21
2.61827e-21
2.88648e-21
6.76244e-22
1.12122e-21
9.27974e-22
2.9171e-21
9.01552e-22
2.38068e-22
9.02298e-22
1.85e-21
8.35728e-22
2.03582e-21
1.90038e-21
2.11525e-21
1.24558e-21
3.332e-21
1.18292e-21
3.60265e-21
5.51756e-21
1.04304e-21
9.39014e-22
3.17977e-21
4.86066e-21
6.26489e-21
2.40888e-21
4.77058e-22
1.9652e-21
6.0025e-21
2.6886e-21
1.09503e-21
2.58702e-21
2.03669e-21
4.91901e-21
5.14687e-21
5.53062e-21
2.27667e-22
1.22155e-20
7.27848e-21
1.87908e-21
4.47641e-21
2.06184e-21
8.67098e-21
1.40089e-20
2.06054e-20
4.53745e-22
3.28535e-22
3.65419e-21
7.93136e-21
1.38905e-21
9.35636e-21
5.36707e-21
2.46465e-21
1.29145e-21
1.91032e-22
1.74163e-21
1.1124e-21
1.37969e-21
8.88783e-22
3.84815e-21
5.85677e-21
1.60884e-21
5.12427e-22
1.27326e-21
6.95654e-21
4.07565e-21
3.36903e-22
9.16937e-21
4.26423e-21
7.95196e-23
6.26107e-22
3.11954e-21
2.47033e-21
9.36743e-22
8.64912e-21
3.09698e-21
3.09316e-21
2.80291e-21
2.86937e-21
1.66468e-21
3.41045e-21
6.59742e-21
2.6265e-21
1.52336e-21
1.04581e-21
5.74727e-21
1.27012e-21
4.36615e-21
4.66484e-21
8.90408e-21
5.88687e-21
4.60472e-21
3.29302e-21
1.45322e-21
5.71051e-23
8.97712e-22
1.94834e-21
9.7626e-22
1.93013e-21
1.48364e-21
3.08484e-22
1.40361e-21
1.75528e-22
1.21718e-21
6.00612e-21
1.71807e-21
8.50525e-21
1.91891e-21
1.80674e-21
2.8418e-21
1.1367e-21
4.30705e-21
5.97624e-21
8.15297e-21
5.116e-21
9.36613e-22
2.47573e-21
5.17813e-22
4.59492e-22
4.11356e-22
8.37798e-22
4.106e-21
5.62432e-21
2.99767e-21
1.01837e-21
9.22533e-22
2.70907e-22
3.28556e-21
3.98838e-21
1.3759e-21
2.48222e-21
7.83202e-22
7.99879e-21
2.03399e-22
1.3847e-21
2.88919e-21
1.07412e-20
1.99549e-21
3.64774e-21
2.0947e-21
5.51715e-22
1.91276e-21
3.49986e-21
1.6822e-21
5.94783e-21
1.30669e-20
3.50794e-21
1.82017e-21
5.66203e-21
1.13454e-21
5.89221e-21
1.99176e-21
3.30744e-21
7.84258e-22
6.18258e-21
5.94714e-21
1.29488e-21
4.61414e-21
7.8207e-21
3.58536e-21
4.15538e-21
1.50965e-21
1.25914e-21
5.26371e-21
3.25207e-21
2.36836e-21
2.37699e-21
6.53542e-22
5.10828e-21
1.4484e-21
7.33276e-22
4.72701e-21
9.00334e-21
5.67615e-21
1.68926e-21
8.3467e-22
3.71019e-21
4.07527e-23
1.63621e-21
3.07453e-21
4.83795e-22
3.13055e-21
5.26334e-21
1.25272e-22
7.27729e-21
5.27031e-21
1.36953e-20
9.63936e-22
3.42967e-21
1.7792e-21
1.74808e-21
1.14544e-21
1.96408e-21
1.32509e-21
6.08172e-21
1.53041e-22
1.496e-21
8.19979e-22
5.98764e-21
2.36051e-21
2.30081e-21
2.25114e-21
7.90644e-21
4.9519e-23
5.21605e-22
1.81146e-21
2.0071e-21
9.09309e-23
8.1646e-21
4.16405e-21
3.34461e-21
1.33762e-21
1.62515e-21
2.02925e-21
1.93085e-20
3.47038e-21
1.86042e-23
5.32396e-22
5.99284e-21
7.47712e-21
1.12861e-21
1.13194e-21
7.72736e-21
9.71484e-22
1.19829e-20
3.40415e-21
1.69678e-21
4.74066e-21
8.14982e-22
7.28782e-21
2.47042e-21
1.22293e-21
9.48131e-21
1.43108e-21
1.50274e-22
2.1598e-21
3.67571e-21
6.00752e-21
4.21858e-21
5.07041e-22
1.27357e-21
2.27426e-21
7.45067e-21
7.85718e-21
1.5225e-21
6.53632e-21
1.23581e-20
2.20199e-22
6.99178e-22
1.34049e-21
1.39338e-22
4.828e-22
5.37458e-22
3.84141e-21
1.79731e-20
6.35164e-21
4.07151e-21
1.19863e-21
4.47648e-22
3.98712e-22
1.03682e-20
1.19428e-20
1.91803e-20
2.74881e-21
9.56187e-22
3.56822e-21
1.10497e-24
1.38508e-21
3.08213e-21
1.1709e-21
2.63421e-21
3.65075e-21
2.29909e-21
9.26827e-22
1.20084e-21
3.83309e-21
7.44263e-23
2.19274e-21
3.67763e-21
1.18529e-21
7.51774e-23
1.56517e-20
1.85731e-21
1.24423e-20
5.31545e-21
2.14033e-21
2.00868e-21
3.37301e-21
5.32471e-21
1.29106e-21
5.13347e-22
3.67865e-22
4.84305e-21
4.3712e-21
1.18664e-20
1.04583e-21
2.36794e-21
1.3448e-22
1.49438e-21
7.1051e-21
1.42161e-21
1.0146e-22
3.07613e-21
8.72126e-21
1.18055e-21
2.26671e-21
6.2155e-22
5.2658e-21
3.40362e-21
8.33957e-22
1.11928e-21
5.29475e-22
4.8765e-22
3.83183e-22
6.66494e-22
2.34579e-21
8.41483e-22
3.79403e-22
1.59761e-21
6.40339e-22
1.25873e-21
2.42945e-21
2.86913e-21
4.38132e-21
1.90797e-21
2.20641e-21
1.9793e-21
4.00949e-21
6.96102e-21
1.17639e-21
8.47628e-22
6.25865e-21
1.30185e-21
3.08999e-21
4.69889e-21
4.51067e-21
1.87233e-21
2.76085e-21
1.755e-21
4.85001e-21
1.74883e-21
6.0438e-21
1.60779e-20
6.87423e-22
3.00366e-22
4.99131e-21
2.02217e-21
3.79565e-21
1.65388e-21
2.26226e-21
3.54971e-22
1.20973e-20
1.30785e-21
3.03338e-21
5.63081e-21
1.48446e-20
1.30481e-21
8.86757e-21
4.41493e-22
5.00743e-21
4.69406e-21
1.31668e-21
8.29756e-23
7.12929e-22
8.17585e-21
3.20499e-22
8.2763e-23
7.14948e-22
1.07947e-21
3.45466e-21
4.2123e-22
3.90379e-21
5.37398e-22
5.83898e-21
1.32963e-20
6.87387e-21
6.67816e-21
2.58015e-21
8.72388e-22
6.99233e-21
1.62949e-20
5.36854e-21
1.91785e-21
1.0032e-21
1.74774e-21
7.69594e-24
6.46988e-21
7.83221e-22
2.33822e-22
2.49937e-22
1.17314e-21
3.90516e-21
4.19489e-21
7.54591e-22
5.46933e-23
2.37983e-21
1.67536e-21
3.36836e-21
1.48301e-21
3.26039e-21
6.07546e-21
2.06051e-21
1.37775e-20
8.3342e-21
7.06886e-22
1.24993e-21
3.13077e-22
2.30171e-21
5.37065e-22
1.87704e-21
4.19726e-21
6.32983e-21
1.67829e-20
5.85338e-21
3.98335e-21
2.61891e-21
4.64224e-21
2.85302e-21
2.03428e-21
3.99565e-22
2.24957e-21
6.44105e-22
1.01275e-21
1.11944e-20
7.96349e-21
1.40004e-20
8.82747e-21
2.1976e-21
5.14475e-22
2.82518e-22
3.33658e-21
1.50122e-22
1.60027e-21
9.98664e-21
1.51638e-21
1.56654e-21
7.45986e-21
4.3187e-22
5.08344e-21
5.19607e-21
2.90102e-22
8.52861e-21
1.54026e-21
1.67639e-21
1.20802e-21
2.74714e-21
4.97999e-21
1.01242e-20
6.11971e-22
4.36517e-21
3.19284e-21
1.18995e-21
5.47357e-22
1.97149e-21
4.55145e-21
9.99127e-22
3.1777e-21
4.8114e-21
1.50411e-21
4.24075e-22
1.5694e-21
1.31072e-20
2.08641e-21
1.12662e-21
5.24567e-22
2.63681e-21
2.44298e-21
3.35288e-21
1.75936e-21
1.15505e-20
8.30936e-22
5.32128e-21
1.36919e-20
9.0907e-22
1.88796e-21
2.30035e-21
3.15886e-21
2.33095e-21
1.65002e-21
2.98112e-21
4.99999e-21
1.12143e-21
1.11108e-20
1.34722e-21
8.23179e-21
9.87506e-22
1.69234e-21
1.45894e-22
2.83075e-21
6.22654e-22
9.21555e-23
2.96289e-21
3.41923e-21
6.65108e-22
3.83096e-22
2.13757e-21
1.39984e-21
8.14834e-22
4.8595e-21
1.62047e-21
1.2084e-21
4.22653e-23
7.40956e-22
4.28321e-21
1.21428e-20
2.77334e-22
5.14382e-22
2.93982e-23
3.28743e-21
2.33218e-21
7.42289e-22
4.24117e-21
3.38549e-21
3.74837e-21
3.02394e-21
2.03223e-21
5.51443e-21
4.28932e-22
2.06493e-21
2.84385e-21
4.3706e-21
1.05297e-21
7.31173e-22
3.4092e-21
2.17475e-21
5.44669e-21
3.84554e-23
1.16013e-21
1.73758e-21
3.36339e-21
5.20186e-22
1.30358e-21
1.37364e-21
6.50641e-21
8.98802e-22
1.38679e-21
8.88858e-21
3.98609e-21
1.36414e-21
6.37135e-21
2.20722e-21
1.78032e-21
9.78419e-22
8.31205e-22
5.54687e-22
4.53264e-21
2.57652e-22
9.95761e-21
4.04468e-21
4.35493e-22
1.85756e-21
1.05545e-20
2.8863e-22
3.8174e-23
1.12321e-20
2.25596e-21
2.32408e-21
4.6171e-22
9.5837e-21
2.15827e-22
6.23636e-21
6.84331e-21
2.25978e-21
8.87619e-22
2.2326e-21
2.711e-21
1.11549e-21
1.62224e-21
1.66657e-22
2.79115e-21
1.59349e-21
1.93363e-22
3.23603e-21
3.59375e-21
5.54215e-21
5.81982e-21
6.57907e-21
3.82216e-21
2.4575e-21
1.91468e-21
1.85134e-21
3.70358e-22
5.82567e-22
9.80412e-21
7.40668e-22
3.32481e-21
2.42497e-22
1.24837e-20
1.25122e-21
7.64166e-22
6.08776e-21
1.07006e-21
2.13686e-21
1.5477e-21
3.59119e-21
5.4926e-21
3.42127e-21
7.93807e-22
7.50543e-21
3.76466e-21
1.05596e-21
1.63148e-21
4.24497e-21
8.62162e-22
7.2624e-21
1.04246e-20
4.24741e-21
1.16037e-21
1.27504e-21
7.48567e-21
5.44286e-22
1.43389e-21
5.14061e-21
1.86507e-21
4.7594e-21
8.88112e-22
2.00498e-21
4.77033e-21
6.84468e-21
4.83784e-21
6.33056e-21
3.10196e-21
2.53851e-21
3.555e-21
5.82308e-22
2.33105e-22
2.10724e-21
1.40624e-20
1.12449e-21
1.73673e-22
4.49243e-21
5.89493e-22
4.90222e-21
4.43572e-21
7.37967e-22
5.99093e-21
3.48641e-21
7.29065e-22
1.22073e-20
2.15183e-21
3.00294e-21
3.50247e-21
1.89171e-22
8.23091e-21
2.43917e-21
7.19195e-21
5.27501e-21
3.86404e-21
2.94667e-21
2.39045e-21
2.16889e-21
2.85231e-21
2.59786e-21
3.87376e-21
1.26712e-20
3.68227e-22
3.41037e-21
1.01972e-21
5.05242e-21
1.08898e-20
2.12815e-22
2.13816e-20
4.55174e-21
3.06616e-21
5.91911e-22
1.10381e-22
1.49106e-21
3.41592e-22
5.37533e-21
8.82473e-22
4.94199e-21
2.76152e-21
7.10912e-21
1.49174e-20
4.59932e-22
1.89665e-21
2.47061e-22
1.0864e-22
4.78619e-22
3.40746e-22
4.76391e-21
6.20061e-21
2.57675e-21
1.26935e-21
5.64619e-21
5.86934e-21
6.0267e-21
2.8303e-21
4.78386e-22
7.17438e-21
3.61076e-21
3.03282e-21
5.69514e-21
4.77631e-21
4.47937e-21
2.4131e-22
6.10058e-21
5.93699e-21
5.2158e-22
9.63765e-21
1.3223e-21
6.39466e-22
1.09597e-21
2.4946e-21
1.16466e-21
7.55969e-23
5.91405e-22
3.63588e-21
2.15659e-21
2.23002e-21
9.71734e-22
4.52202e-21
1.30679e-21
1.70795e-22
5.29289e-22
1.31174e-21
2.11375e-21
2.62299e-21
3.27631e-21
5.16701e-22
2.7805e-21
1.5337e-21
4.21896e-21
4.05607e-21
2.3987e-21
6.22132e-21
1.56246e-21
5.13418e-21
6.55651e-21
9.76821e-21
1.65264e-21
8.33942e-22
4.8832e-21
1.45938e-21
1.27791e-22
1.49454e-21
1.22583e-21
1.83058e-21
4.84376e-21
4.90239e-22
3.97711e-21
7.81531e-21
2.67825e-21
2.42469e-22
3.12514e-22
5.13401e-21
1.06215e-21
6.30166e-22
1.61804e-22
5.13485e-21
2.85271e-21
6.26976e-22
1.13717e-20
8.1217e-21
2.67165e-23
1.19304e-21
5.48555e-21
2.47282e-22
3.2105e-21
2.15975e-21
1.63843e-21
2.46277e-22
2.06301e-21
1.51865e-21
1.9766e-22
1.49299e-21
2.8212e-22
3.85303e-21
7.5226e-22
9.53863e-22
6.91438e-22
3.72491e-21
2.86025e-21
6.67813e-21
7.04837e-22
4.94657e-22
3.78587e-21
3.55561e-21
6.30589e-21
6.87746e-21
1.79378e-22
5.24162e-22
1.20535e-21
5.09272e-22
2.15912e-21
5.78902e-21
5.20077e-21
4.33242e-22
2.38551e-21
1.50291e-21
4.63476e-21
1.08738e-20
5.45382e-21
1.8158e-22
2.45604e-21
1.30138e-20
3.6182e-21
6.82757e-21
8.83357e-22
2.69362e-21
3.43081e-21
5.2061e-21
1.01099e-20
3.61449e-21
3.86781e-21
1.07077e-21
1.81256e-22
1.47177e-22
5.07119e-22
3.40918e-21
6.64311e-21
1.31596e-21
6.75071e-21
8.09171e-22
1.74041e-21
2.26292e-21
9.66494e-21
4.40457e-21
9.14732e-21
4.94703e-21
1.33257e-22
6.39e-21
4.19507e-21
6.32001e-21
1.58362e-22
1.50014e-21
6.45454e-22
2.83552e-21
5.63161e-22
5.50079e-21
1.17644e-20
2.25208e-21
6.77898e-22
3.80726e-22
3.02453e-21
6.31866e-22
4.50133e-21
5.96754e-22
2.38682e-21
3.63103e-21
1.90628e-22
1.10165e-21
8.51728e-23
5.14627e-21
2.58628e-21
3.21978e-20
8.76704e-21
1.09035e-21
2.89809e-21
1.42557e-21
4.08695e-21
7.39134e-21
1.18719e-21
7.26968e-21
3.35331e-21
1.37962e-20
1.44126e-21
2.25989e-21
3.30025e-21
5.36647e-22
2.12394e-21
1.68765e-21
3.62278e-21
1.39535e-20
4.80032e-22
6.07923e-21
4.09546e-21
2.3811e-21
6.05542e-21
4.23102e-21
5.6783e-21
1.39964e-22
4.29116e-21
1.69769e-22
2.79163e-21
7.33522e-21
4.83891e-21
6.01468e-23
2.9016e-21
9.20469e-23
2.71841e-21
3.69609e-21
1.13471e-20
6.00145e-22
3.74167e-21
3.20777e-21
2.47965e-21
7.75084e-21
1.64279e-22
1.18626e-23
1.79563e-21
2.178e-21
7.20122e-21
3.29153e-21
2.6045e-22
4.6183e-22
2.02285e-21
5.42103e-23
3.33215e-21
1.4193e-22
3.55495e-22
1.54245e-21
1.12813e-21
1.4194e-21
3.78516e-22
4.71488e-21
3.0618e-21
9.98973e-23
1.84423e-21
4.53199e-23
4.2235e-21
1.1259e-20
6.87203e-21
1.00308e-20
1.48619e-21
7.15303e-21
6.28485e-21
4.90964e-21
1.38177e-21
8.13006e-22
3.17766e-21
2.27573e-21
2.32927e-21
3.08421e-21
1.25012e-21
4.97315e-22
2.9313e-21
4.46986e-21
1.0962e-21
9.23587e-21
7.16423e-22
1.39586e-21
9.70723e-22
9.90264e-22
3.55689e-21
1.66576e-22
2.23568e-21
1.44051e-21
3.53441e-21
9.35151e-22
6.78764e-21
1.57029e-22
3.81962e-21
1.9532e-21
2.1993e-21
8.54003e-22
2.62002e-21
1.65372e-22
2.36786e-21
1.36837e-21
2.92487e-21
3.83128e-21
4.65019e-22
5.23543e-21
8.24119e-21
2.53896e-22
1.05504e-21
7.00063e-22
4.2966e-22
5.43787e-21
7.98947e-21
4.20276e-21
5.9541e-21
4.5061e-21
1.22756e-21
2.44206e-21
3.72121e-24
9.64641e-22
1.76299e-22
7.59142e-21
5.4985e-21
1.50329e-20
9.72631e-21
5.48695e-21
2.8561e-21
3.88439e-22
1.47018e-20
6.61866e-21
1.95997e-22
3.99691e-21
2.46156e-23
1.26541e-22
9.45092e-21
7.00994e-21
1.96254e-21
1.24678e-21
1.67913e-22
8.36236e-21
3.40717e-21
2.2811e-21
4.34692e-21
1.63404e-21
7.44023e-21
4.14839e-21
1.06701e-21
7.29327e-22
8.30892e-21
6.81401e-21
1.35954e-21
4.58162e-21
7.39444e-22
3.01709e-21
1.83111e-20
1.0603e-21
7.10975e-22
4.86109e-22
1.53502e-21
4.67119e-22
1.73784e-21
2.3714e-21
7.90511e-22
3.31295e-21
6.61548e-21
3.57169e-21
3.78503e-21
4.34173e-21
1.77817e-20
8.01921e-21
2.28254e-21
1.71206e-21
6.28953e-21
2.63274e-22
1.34124e-21
3.24596e-21
4.08473e-23
1.72456e-21
3.37677e-21
5.70885e-21
3.6403e-21
6.29397e-22
1.05699e-21
4.62584e-21
9.01097e-21
2.17762e-21
6.58509e-21
1.32349e-21
3.82612e-22
3.72317e-22
6.37386e-21
7.5781e-21
1.23247e-21
2.91816e-22
2.45382e-21
1.29736e-21
3.53297e-21
1.75343e-21
4.38202e-22
3.38896e-21
8.94986e-22
9.07665e-21
8.76887e-21
3.11925e-22
9.77942e-22
6.572e-21
3.9057e-22
3.50087e-21
1.27467e-21
1.67133e-21
1.99445e-21
2.55659e-21
5.02112e-21
9.96913e-22
3.58011e-21
6.31009e-21
3.09027e-22
5.75571e-22
2.94056e-21
5.00784e-21
2.84857e-21
4.60618e-21
1.92238e-21
2.34557e-21
1.97857e-22
3.98339e-21
1.75578e-22
3.46405e-22
2.49971e-21
3.80514e-22
1.61227e-21
1.09505e-22
2.82445e-21
2.81814e-21
2.85798e-21
2.12339e-21
3.4102e-21
1.0111e-21
9.90169e-22
1.41227e-22
7.36619e-22
3.31437e-20
1.84688e-21
6.55267e-22
9.30675e-21
5.83167e-22
5.42017e-21
7.38079e-21
2.88411e-21
9.8167e-22
1.21278e-21
6.01115e-23
6.3372e-22
1.78078e-21
2.35162e-21
9.42592e-21
5.89242e-21
1.85131e-21
2.30866e-21
8.49715e-23
5.48209e-22
3.05104e-21
1.72511e-21
1.38668e-20
3.05573e-22
6.75721e-21
7.98404e-21
2.8473e-21
5.65714e-21
7.42875e-22
4.96263e-21
9.43721e-22
1.22947e-22
2.97022e-21
3.80691e-23
3.58305e-21
9.35123e-21
2.18398e-21
4.16507e-21
1.23022e-20
1.14262e-21
3.35273e-21
1.67779e-21
1.6728e-21
5.41868e-22
6.21952e-21
8.40422e-21
3.88574e-21
2.24286e-21
3.65831e-21
5.04292e-22
5.56049e-21
6.57792e-21
9.70091e-24
6.36555e-21
1.57206e-21
2.44871e-21
1.13125e-22
4.10961e-22
6.20597e-22
1.11758e-22
1.64585e-21
1.32716e-21
8.93809e-21
3.90963e-21
7.34574e-21
2.68353e-21
9.62267e-21
3.62723e-21
5.43528e-21
3.79484e-21
1.02055e-21
3.825e-22
3.79121e-21
1.6341e-21
1.00598e-21
8.84811e-22
3.24877e-21
6.60074e-21
2.7773e-21
1.33914e-21
1.71284e-21
6.56947e-21
1.45038e-20
1.13667e-21
1.14258e-20
2.66023e-21
5.64508e-22
1.7847e-21
1.98294e-21
3.58004e-21
4.37834e-21
1.01136e-21
1.37544e-21
1.05927e-21
3.94243e-21
1.8685e-22
7.88463e-22
3.67215e-21
1.25316e-21
7.54484e-22
2.61973e-21
6.20384e-21
2.65392e-21
1.2964e-20
3.04186e-21
5.88126e-21
1.43306e-22
5.55612e-21
4.79289e-21
5.1592e-21
2.30127e-21
1.40367e-21
5.81767e-21
6.64775e-21
1.15642e-20
3.96652e-22
1.97798e-21
7.39284e-22
4.60096e-21
5.58399e-21
1.60373e-21
2.22493e-21
5.08122e-21
6.62242e-21
8.32014e-21
3.13591e-21
5.46457e-21
6.79319e-22
3.59081e-21
1.78699e-21
4.55616e-21
2.9299e-21
4.33653e-21
3.50144e-22
1.09415e-20
5.42964e-21
1.11706e-21
6.41514e-22
1.42029e-20
7.94076e-24
1.17486e-21
6.79934e-21
3.6245e-21
2.59357e-21
7.05879e-21
1.93507e-21
2.61217e-23
2.83501e-21
2.67081e-21
1.86308e-20
8.7404e-22
1.3834e-20
7.04765e-21
2.31052e-21
4.92064e-21
3.5629e-21
3.60492e-21
7.08492e-21
8.57001e-21
1.44619e-21
1.60754e-21
7.71871e-21
2.90103e-22
3.5849e-21
3.6983e-22
2.21508e-21
4.54003e-21
9.03363e-22
1.04734e-21
5.79791e-22
4.27949e-21
3.7499e-22
9.11248e-22
3.16253e-21
1.30827e-21
7.79792e-21
1.02329e-21
9.86167e-22
4.23794e-21
1.57161e-21
7.52312e-22
1.56474e-21
2.20275e-21
3.09653e-21
2.4612e-21
6.50853e-21
3.83132e-22
7.08995e-21
6.32595e-22
1.75248e-21
1.56906e-20
1.42857e-21
7.17435e-21
5.5579e-22
2.67955e-21
3.10894e-21
1.61712e-21
1.18777e-21
2.03867e-21
3.54692e-21
1.42838e-21
4.06448e-21
1.04366e-21
3.88547e-21
4.41395e-21
1.08507e-20
7.32295e-21
5.61317e-22
3.20347e-22
3.09379e-21
6.31505e-22
3.43066e-21
2.24172e-21
1.60052e-21
1.3476e-22
2.06378e-21
7.30668e-21
1.47379e-21
6.47481e-22
8.94403e-22
1.88894e-22
5.73897e-21
7.16475e-22
2.4989e-21
8.32869e-21
2.08725e-21
2.74191e-21
3.29162e-21
3.50016e-21
1.52766e-22
5.05107e-21
2.44012e-21
5.08621e-22
2.47334e-20
1.91384e-21
3.52875e-21
1.15285e-21
5.18378e-21
7.27869e-21
2.74122e-21
1.07728e-21
4.9355e-21
2.07445e-21
1.6358e-21
1.71118e-21
2.22137e-21
4.12438e-21
1.64748e-21
2.0632e-21
3.26801e-22
3.68942e-21
3.79066e-22
8.17819e-22
2.05803e-21
8.4593e-21
1.25584e-20
1.50487e-21
6.94075e-22
3.18336e-23
5.57141e-21
1.25829e-21
5.89937e-21
2.02977e-21