/*--------------------------------*- C++ -*----------------------------------*\
  =========                 |
  \\      /  F ield         | OpenFOAM: The Open Source CFD Toolbox
   \\    /   O peration     | Website:  https://openfoam.org
    \\  /    A nd           | Version:  7
     \\/     M anipulation  |
\*---------------------------------------------------------------------------*/
FoamFile
{
    version     2.0;
    format      ascii;
    class       volScalarField;
    location    "0.01";
    object      rhoM;
}
// * * * * * * * * * * * * * * * * * * * * * * * * * * * * * * * * * * * * * //

dimensions      [1 -3 0 0 0 0 0];

internalField   nonuniform List<scalar> 
250
(
7.1982e-06
7.54695e-06
7.26795e-06
7.49115e-06
7.6725e-06
7.59578e-06
7.18425e-06
7.63065e-06
6.9192e-06
7.4214e-06
7.44233e-06
7.26098e-06
7.40048e-06
7.27493e-06
6.8634e-06
7.5888e-06
6.8634e-06
7.0866e-06
7.16333e-06
6.99593e-06
7.27493e-06
7.0587e-06
7.21215e-06
6.84248e-06
6.80063e-06
7.53998e-06
7.1982e-06
6.96803e-06
7.33073e-06
7.0029e-06
6.7797e-06
6.88433e-06
6.68205e-06
7.07963e-06
6.6681e-06
6.41003e-06
6.8355e-06
6.64718e-06
6.696e-06
6.8913e-06
6.74483e-06
6.60533e-06
6.7797e-06
6.96803e-06
6.43095e-06
6.64718e-06
6.87735e-06
6.8355e-06
6.696e-06
6.15893e-06
6.59138e-06
6.76575e-06
6.89828e-06
6.57743e-06
7.09358e-06
6.49373e-06
6.2217e-06
6.3612e-06
6.21473e-06
6.54255e-06
6.32633e-06
6.0543e-06
6.24263e-06
6.7518e-06
6.31935e-06
5.85203e-06
6.04035e-06
6.20775e-06
5.67765e-06
5.75438e-06
6.0264e-06
6.34028e-06
5.8311e-06
5.72648e-06
6.29145e-06
6.138e-06
5.58698e-06
5.78925e-06
5.98455e-06
5.7195e-06
5.70555e-06
5.84505e-06
5.72648e-06
5.86598e-06
5.9427e-06
5.76135e-06
5.60093e-06
5.51723e-06
5.4684e-06
5.92178e-06
5.40563e-06
5.42655e-06
5.51025e-06
5.39168e-06
5.3568e-06
5.42655e-06
5.62185e-06
5.44748e-06
5.41958e-06
5.15453e-06
4.84763e-06
5.1615e-06
5.53815e-06
5.48235e-06
5.43353e-06
5.18243e-06
4.8546e-06
5.03595e-06
4.9104e-06
4.88948e-06
4.77788e-06
5.12663e-06
5.09873e-06
4.69418e-06
4.65233e-06
5.2173e-06
4.90343e-06
4.8825e-06
4.98713e-06
4.7988e-06
4.54073e-06
4.86158e-06
4.65233e-06
4.58258e-06
4.47795e-06
4.61745e-06
4.2129e-06
4.73603e-06
4.58955e-06
4.41518e-06
4.47795e-06
4.31753e-06
4.86855e-06
4.2408e-06
4.19895e-06
4.37333e-06
4.5477e-06
4.65233e-06
4.464e-06
4.4361e-06
4.33148e-06
4.3245e-06
4.2408e-06
4.19198e-06
4.3245e-06
4.1292e-06
4.33148e-06
4.47098e-06
4.16408e-06
4.12223e-06
3.97575e-06
4.20593e-06
4.37333e-06
4.26173e-06
4.185e-06
4.06643e-06
3.89205e-06
4.1571e-06
4.3524e-06
4.33845e-06
4.1013e-06
4.45005e-06
4.08735e-06
3.86415e-06
4.06643e-06
4.31055e-06
4.22685e-06
4.08735e-06
3.99668e-06
4.08735e-06
4.185e-06
3.85718e-06
3.92693e-06
3.7386e-06
3.96878e-06
4.16408e-06
3.80138e-06
4.03155e-06
4.14315e-06
4.17803e-06
3.75953e-06
3.9897e-06
4.0455e-06
3.87112e-06
4.01063e-06
4.03155e-06
4.05248e-06
3.81532e-06
3.80138e-06
3.98273e-06
3.92693e-06
3.8502e-06
4.05945e-06
4.2408e-06
3.84323e-06
3.7386e-06
3.7386e-06
4.01063e-06
3.80138e-06
3.58515e-06
3.81533e-06
3.86415e-06
3.7665e-06
3.7386e-06
3.86415e-06
4.03155e-06
3.85718e-06
4.0176e-06
3.5712e-06
3.82928e-06
3.52935e-06
3.87113e-06
3.71768e-06
4.03155e-06
3.94785e-06
3.94785e-06
3.94785e-06
3.8781e-06
3.50145e-06
3.7665e-06
3.68978e-06
3.66188e-06
4.01063e-06
3.48053e-06
3.8781e-06
3.99668e-06
3.9339e-06
3.89903e-06
3.3201e-06
3.53633e-06
3.73163e-06
3.95483e-06
3.8502e-06
3.75255e-06
3.78045e-06
3.52935e-06
3.55028e-06
3.6828e-06
3.75255e-06
3.66885e-06
3.8502e-06
3.55028e-06
3.8781e-06
3.91298e-06
3.83625e-06
3.6549e-06
3.71768e-06
3.9339e-06
3.7107e-06
3.25733e-06
)
;

boundaryField
{
    sides
    {
        type            symmetry;
    }
    empty
    {
        type            empty;
    }
    procBoundary2to1
    {
        type            processor;
        value           uniform 7.37955e-06;
    }
    procBoundary2to3
    {
        type            processor;
        value           uniform 3.35498e-06;
    }
}


// ************************************************************************* //
