/*--------------------------------*- C++ -*----------------------------------*\
  =========                 |
  \\      /  F ield         | OpenFOAM: The Open Source CFD Toolbox
   \\    /   O peration     | Website:  https://openfoam.org
    \\  /    A nd           | Version:  7
     \\/     M anipulation  |
\*---------------------------------------------------------------------------*/
FoamFile
{
    version     2.0;
    format      ascii;
    class       volScalarField;
    location    "0.2";
    object      epsilon;
}
// * * * * * * * * * * * * * * * * * * * * * * * * * * * * * * * * * * * * * //

dimensions      [0 2 -3 0 0 0 0];

internalField   nonuniform List<scalar> 
7700
(
0.0461769
0.147467
0.269375
0.370488
0.457649
0.534683
0.604521
0.669378
0.730998
0.790813
0.850059
0.909863
0.971294
1.03539
1.10318
1.17565
1.25378
1.33842
1.43033
1.53002
1.63774
1.75331
1.87603
2.0046
2.13699
2.27041
2.40128
2.52533
2.63771
2.73329
2.80696
2.85402
2.87051
2.85322
2.79933
2.70971
2.59962
2.46299
2.29655
2.09989
1.87694
1.64055
1.42141
1.27371
1.11425
0.744157
0.0854691
0.123916
0.16519
0.198625
0.225767
0.248544
0.268413
0.286404
0.303246
0.319481
0.335543
0.35181
0.368629
0.386327
0.405223
0.425624
0.44782
0.472078
0.498622
0.52761
0.559111
0.59307
0.629276
0.667333
0.706633
0.746342
0.785414
0.822614
0.856587
0.885955
0.909448
0.926067
0.935261
0.937103
0.932456
0.927049
0.934191
0.953943
0.988474
1.04285
1.12787
1.26489
1.48704
1.80955
1.93763
2.07825
0.130539
0.146829
0.169942
0.187729
0.201419
0.21241
0.221698
0.229993
0.237802
0.245496
0.253365
0.261653
0.270573
0.280323
0.291087
0.303037
0.316329
0.331095
0.347435
0.365399
0.384973
0.406056
0.428444
0.451808
0.475689
0.499486
0.522478
0.543845
0.562724
0.578289
0.589854
0.596998
0.599707
0.59853
0.594743
0.591142
0.593963
0.607269
0.635933
0.687069
0.773818
0.924835
1.1996
1.68261
2.24887
3.57324
0.164291
0.169959
0.18346
0.192763
0.19938
0.204466
0.208707
0.212575
0.216419
0.220501
0.225028
0.230175
0.236093
0.24292
0.250779
0.259779
0.270013
0.281548
0.294419
0.308616
0.32407
0.340641
0.3581
0.376122
0.394278
0.412038
0.428789
0.443864
0.456594
0.466381
0.472793
0.47567
0.475245
0.472267
0.468148
0.465334
0.468224
0.481156
0.509619
0.561304
0.649465
0.802819
1.08805
1.63231
2.49501
4.82508
0.19174
0.188132
0.195423
0.199403
0.201532
0.202869
0.203945
0.205098
0.20657
0.208549
0.211182
0.214598
0.218907
0.224204
0.230575
0.238086
0.246789
0.256709
0.267838
0.280125
0.293466
0.30769
0.322553
0.337728
0.352805
0.367298
0.380666
0.392341
0.401788
0.408565
0.412412
0.413348
0.411772
0.408562
0.405205
0.404077
0.409053
0.424757
0.457729
0.51778
0.621151
0.799135
1.12058
1.72885
2.79777
6.10922
0.214746
0.20117
0.203885
0.204519
0.203821
0.202716
0.201681
0.201
0.200872
0.20144
0.202819
0.205103
0.208373
0.212695
0.218124
0.224697
0.232434
0.24133
0.251347
0.262407
0.274381
0.287082
0.30026
0.313594
0.326697
0.339127
0.350406
0.360057
0.367652
0.37288
0.375622
0.376036
0.374645
0.372427
0.370928
0.372519
0.380993
0.40141
0.441629
0.514429
0.641498
0.861886
1.2521
1.96241
3.21847
7.53735
0.234511
0.210204
0.20909
0.207554
0.205122
0.202474
0.200045
0.198113
0.196866
0.196436
0.196921
0.198396
0.200921
0.20454
0.209286
0.215174
0.222201
0.230339
0.23953
0.249677
0.26064
0.272227
0.284191
0.296225
0.307975
0.319043
0.329017
0.337503
0.344174
0.34883
0.351473
0.352378
0.352172
0.351916
0.353226
0.358542
0.371825
0.39884
0.449151
0.539152
0.697262
0.972848
1.45423
2.29889
3.75507
9.11751
0.251919
0.216392
0.211833
0.208765
0.205255
0.201651
0.198325
0.195553
0.19353
0.192388
0.19222
0.193093
0.195054
0.198131
0.202342
0.207685
0.21414
0.221665
0.230189
0.239606
0.249774
0.260504
0.271561
0.282664
0.293493
0.303704
0.312948
0.32091
0.327358
0.332191
0.335517
0.337713
0.339501
0.342032
0.347033
0.357131
0.376695
0.4127
0.477191
0.591418
0.791922
1.13752
1.72179
2.70177
4.34545
10.7503
0.267615
0.220631
0.212879
0.208604
0.204368
0.200161
0.196266
0.192945
0.190394
0.18875
0.188109
0.188531
0.190055
0.192703
0.196479
0.201371
0.207348
0.214361
0.222331
0.231154
0.240691
0.250765
0.261162
0.271632
0.281897
0.291665
0.300653
0.308626
0.315432
0.321068
0.325735
0.329906
0.334404
0.340501
0.35011
0.366224
0.394017
0.44251
0.527905
0.679616
0.947441
1.39843
2.09833
3.16372
4.90381
12.2551
0.282059
0.223547
0.21281
0.20748
0.202688
0.198072
0.19381
0.190135
0.187236
0.18525
0.184272
0.184361
0.185553
0.187861
0.191283
0.195802
0.201381
0.207968
0.215486
0.223836
0.232891
0.242493
0.252455
0.262563
0.272584
0.282282
0.291441
0.299896
0.30758
0.314577
0.321179
0.327964
0.335877
0.346368
0.361664
0.3854
0.424161
0.49043
0.608188
0.823885
1.2141
1.84739
2.67188
3.71153
5.38116
13.5188
0.0585279
0.0814702
0.0860441
0.37016
0.406041
0.449251
0.471666
0.479169
0.477038
0.469547
0.459553
0.44881
0.438241
0.428309
0.419435
0.411908
0.405366
0.399588
0.394393
0.389684
0.385321
0.381264
0.377418
0.373724
0.370084
0.36627
0.372826
0.371157
0.0863625
0.367598
0.369023
0.0862706
0.0859117
0.372137
0.367224
0.369893
0.0864928
0.0857023
0.0745297
0.0335224
0.142261
0.117195
0.157246
0.190691
0.208907
0.219337
0.223262
0.222864
0.220045
0.216206
0.212209
0.208495
0.205234
0.20248
0.200259
0.198547
0.197227
0.196157
0.195234
0.194398
0.193612
0.192858
0.192114
0.191367
0.190593
0.189682
0.186184
0.185298
0.180466
0.181608
0.178354
0.171657
0.167715
0.162403
0.15744
0.145195
0.12611
0.105396
0.0877987
0.0968236
0.178992
0.143518
0.166814
0.183629
0.19213
0.194442
0.192038
0.186896
0.180699
0.174601
0.169242
0.164874
0.161513
0.15906
0.157374
0.15629
0.155629
0.155227
0.154966
0.154771
0.154598
0.154421
0.154226
0.154007
0.153754
0.15345
0.152889
0.152377
0.151603
0.150705
0.149429
0.14769
0.145481
0.14237
0.138388
0.132418
0.124185
0.113641
0.105095
0.13136
0.235339
0.177856
0.194854
0.205184
0.206835
0.202262
0.193467
0.182925
0.172447
0.163114
0.155405
0.149403
0.144965
0.141851
0.13979
0.138522
0.137807
0.137447
0.137294
0.137249
0.137248
0.137255
0.137251
0.137226
0.137178
0.137106
0.136993
0.136852
0.136649
0.136354
0.135929
0.135296
0.134354
0.132964
0.130941
0.128002
0.12402
0.11956
0.11935
0.169537
0.309961
0.226472
0.240763
0.245945
0.239901
0.226498
0.209198
0.191503
0.175447
0.161952
0.151219
0.143062
0.137112
0.132954
0.130182
0.128438
0.127419
0.126883
0.126644
0.126578
0.1266
0.126658
0.126725
0.126788
0.126844
0.126898
0.126952
0.127016
0.12709
0.127165
0.127229
0.127243
0.127153
0.126885
0.126344
0.125464
0.12439
0.124197
0.130809
0.203074
0.4107
0.305414
0.316336
0.3132
0.29471
0.267075
0.236896
0.209004
0.185408
0.166526
0.152006
0.1412
0.1334
0.127944
0.124262
0.121883
0.120427
0.119598
0.119173
0.118996
0.118963
0.119005
0.119084
0.119182
0.119293
0.119424
0.119583
0.119786
0.120046
0.120373
0.120775
0.121247
0.121774
0.122335
0.122922
0.123601
0.124735
0.12782
0.14006
0.231696
0.578419
0.478438
0.462632
0.43278
0.385874
0.33064
0.278796
0.235495
0.201381
0.175432
0.156172
0.142168
0.132183
0.125216
0.120477
0.117352
0.115371
0.114175
0.1135
0.113157
0.113018
0.113002
0.113057
0.113157
0.113296
0.113476
0.113711
0.114019
0.114423
0.114946
0.115611
0.116438
0.117444
0.118657
0.120134
0.122045
0.124929
0.13064
0.147573
0.255935
1.00981
1.00249
0.805108
0.669883
0.545272
0.430532
0.339993
0.272596
0.223538
0.188244
0.163058
0.145224
0.132709
0.124031
0.11811
0.114156
0.111589
0.109976
0.109006
0.108459
0.108184
0.10808
0.108085
0.108167
0.108313
0.108525
0.108817
0.10921
0.109733
0.110418
0.1113
0.112418
0.113816
0.115558
0.117757
0.120667
0.12497
0.132827
0.153702
0.276423
2.53677
2.59264
1.64937
1.15604
0.824906
0.586064
0.427505
0.32266
0.252454
0.204871
0.172331
0.149958
0.134552
0.123974
0.116767
0.111922
0.108723
0.106657
0.105365
0.10459
0.104155
0.103945
0.103884
0.103932
0.104071
0.104302
0.104638
0.105102
0.105726
0.106549
0.107616
0.10898
0.110707
0.11289
0.115685
0.119418
0.124887
0.13452
0.158715
0.293733
8.07278
6.52717
3.42823
2.05892
1.27692
0.816489
0.548283
0.387947
0.288668
0.225253
0.183742
0.156078
0.137424
0.124773
0.116193
0.110411
0.10655
0.104012
0.10238
0.101362
0.100755
0.100425
0.100287
0.100291
0.100414
0.100654
0.101024
0.101547
0.102258
0.103201
0.104429
0.106005
0.108012
0.110567
0.113863
0.118279
0.124715
0.135826
0.162823
0.30836
0.295579
0.225564
0.21202
0.205694
0.20041
0.195477
0.190965
0.187061
0.183939
0.181728
0.18052
0.180371
0.181314
0.183358
0.186499
0.190715
0.195972
0.202217
0.209382
0.21738
0.2261
0.235411
0.245156
0.255162
0.265246
0.275229
0.284959
0.294347
0.303406
0.312309
0.321449
0.331525
0.343653
0.359561
0.381987
0.415595
0.469275
0.561305
0.729976
1.05285
1.64468
2.55517
3.45254
4.31853
5.70837
11.1847
0.308559
0.226982
0.210753
0.203436
0.197665
0.192453
0.187754
0.183703
0.180445
0.178098
0.176745
0.176438
0.177206
0.179058
0.181987
0.185974
0.190987
0.196982
0.203903
0.211678
0.220221
0.229429
0.239184
0.249357
0.259817
0.270444
0.281156
0.291939
0.302892
0.314284
0.32663
0.340791
0.358131
0.380808
0.412342
0.458951
0.532983
0.661088
0.90223
1.38365
2.2173
3.29606
4.18158
4.88828
6.02206
9.81911
0.321054
0.227969
0.209179
0.200857
0.194584
0.189102
0.184249
0.1801
0.176768
0.174351
0.172921
0.172525
0.173187
0.174916
0.177706
0.181541
0.186398
0.192244
0.199039
0.206734
0.215269
0.224577
0.23458
0.245198
0.256354
0.267994
0.280108
0.292762
0.306153
0.320665
0.336966
0.356139
0.379918
0.411087
0.454306
0.517952
0.61864
0.791901
1.1158
1.68038
2.51578
3.50136
4.46166
5.30903
6.36407
9.06148
0.333163
0.22865
0.207399
0.198054
0.191258
0.1855
0.180508
0.176291
0.172927
0.17049
0.169039
0.168612
0.169231
0.170902
0.173625
0.17739
0.182184
0.18799
0.194788
0.202555
0.211264
0.220885
0.231385
0.242736
0.254923
0.267961
0.281918
0.296956
0.313382
0.331727
0.35286
0.378179
0.409934
0.4518
0.510003
0.595544
0.729173
0.950579
1.2991
1.78192
2.46103
3.34869
4.36086
5.53891
6.72903
8.63689
0.344952
0.229106
0.20548
0.195095
0.187755
0.181714
0.176588
0.172323
0.168955
0.166535
0.165107
0.164699
0.16533
0.167008
0.169736
0.173514
0.178343
0.184225
0.191163
0.199164
0.208237
0.218393
0.22965
0.242037
0.255606
0.270449
0.286725
0.304706
0.324838
0.347837
0.374844
0.407684
0.449308
0.504603
0.58175
0.694585
0.867173
1.11693
1.4299
1.81989
2.37425
3.17025
4.16877
5.53574
6.97755
8.32124
0.356471
0.229393
0.203462
0.192026
0.184129
0.1778
0.172542
0.16824
0.164889
0.162515
0.161145
0.1608
0.161495
0.16324
0.166044
0.16992
0.174885
0.180963
0.188184
0.196587
0.206222
0.217147
0.229433
0.243174
0.258495
0.275578
0.29469
0.316234
0.34083
0.369435
0.403545
0.445542
0.499308
0.571235
0.671671
0.817384
1.02483
1.27483
1.52682
1.81353
2.26381
2.98278
3.95759
5.33691
6.92843
8.0088
0.36775
0.229546
0.201367
0.18888
0.180423
0.173805
0.168421
0.16409
0.160772
0.158466
0.157184
0.156939
0.157744
0.159613
0.162564
0.166624
0.171828
0.178224
0.185875
0.194856
0.205259
0.217194
0.230793
0.246221
0.263689
0.283481
0.305992
0.331789
0.361708
0.397013
0.439653
0.492725
0.56126
0.653299
0.781345
0.961246
1.18704
1.39118
1.54986
1.75003
2.12894
2.79136
3.75343
5.09814
6.69542
7.70185
0.378816
0.229591
0.199209
0.18568
0.176672
0.169772
0.164267
0.159919
0.156646
0.154426
0.153257
0.153145
0.154103
0.156151
0.159317
0.163645
0.169191
0.176032
0.184263
0.194001
0.205384
0.21858
0.233789
0.251257
0.271292
0.294299
0.320826
0.351642
0.387852
0.431102
0.483908
0.550255
0.636459
0.752218
0.912114
1.12082
1.31401
1.42757
1.50366
1.64693
1.97761
2.60001
3.55819
4.89133
6.42372
7.42051
0.38969
0.229545
0.196997
0.182445
0.172904
0.165737
0.160124
0.155768
0.152553
0.150436
0.149401
0.149453
0.150604
0.152882
0.15633
0.161008
0.167
0.174412
0.183377
0.194054
0.206636
0.221355
0.238484
0.258363
0.281413
0.308183
0.339403
0.376085
0.419669
0.472265
0.537088
0.619154
0.726097
0.869414
1.05986
1.26168
1.37199
1.39661
1.41584
1.52054
1.81127
2.39473
3.34511
4.70044
6.14237
7.14674
0.400396
0.229419
0.194735
0.179189
0.169144
0.161734
0.156031
0.151681
0.148537
0.146537
0.145657
0.145898
0.147279
0.149836
0.15363
0.158742
0.165282
0.173392
0.183244
0.195048
0.209056
0.225568
0.244944
0.267628
0.294174
0.325296
0.361947
0.405431
0.457586
0.521088
0.599988
0.700366
0.831103
1.00446
1.20918
1.34727
1.36401
1.32473
1.30664
1.38084
1.63047
2.16213
3.07728
4.44422
5.85344
6.87476
0.410964
0.229226
0.192426
0.175925
0.165418
0.157794
0.152024
0.147698
0.14464
0.142772
0.142065
0.14252
0.144164
0.147047
0.151248
0.156873
0.164064
0.172999
0.183897
0.19702
0.212686
0.231274
0.253241
0.279148
0.309702
0.345816
0.3887
0.440007
0.502051
0.578184
0.673369
0.794737
0.952701
1.15275
1.32778
1.3708
1.31345
1.23282
1.18946
1.23659
1.44129
1.90281
2.73925
4.0509
5.50104
6.61213
0.42144
0.228978
0.190073
0.172668
0.161747
0.153951
0.148143
0.143861
0.140904
0.139181
0.138663
0.139355
0.141294
0.144547
0.149214
0.155432
0.163375
0.173263
0.185365
0.200005
0.217572
0.238532
0.263451
0.293026
0.328139
0.36993
0.419917
0.48016
0.553527
0.644159
0.757912
0.902929
1.08982
1.29116
1.38788
1.34669
1.24031
1.13427
1.0731
1.09565
1.25381
1.63206
2.34859
3.52157
4.98516
6.27106
0.431896
0.228695
0.187683
0.169435
0.158161
0.15024
0.144426
0.140211
0.13737
0.135808
0.135493
0.136441
0.138704
0.142369
0.14756
0.154447
0.163242
0.174212
0.187681
0.204042
0.223761
0.247405
0.275658
0.309374
0.349632
0.39784
0.455867
0.526245
0.612492
0.719553
0.85414
1.02568
1.23472
1.39175
1.39624
1.29385
1.15757
1.03668
0.962944
0.964005
1.0779
1.37033
1.94393
2.9164
4.26216
5.65904
0.442449
0.228407
0.18527
0.166251
0.154696
0.146703
0.140919
0.136794
0.134085
0.132692
0.132593
0.133816
0.136429
0.140543
0.146314
0.153944
0.16369
0.175872
0.190875
0.209165
0.2313
0.257953
0.289947
0.328305
0.374337
0.429753
0.496825
0.578624
0.679394
0.804827
0.962465
1.16192
1.36354
1.43793
1.36766
1.22613
1.07298
0.944145
0.861965
0.845329
0.920467
1.1343
1.56521
2.31254
3.41501
4.70366
0.453284
0.228157
0.18286
0.163158
0.1514
0.143391
0.137674
0.133658
0.131092
0.129878
0.130004
0.131514
0.1345
0.1391
0.145501
0.153946
0.164742
0.178264
0.194969
0.215406
0.240232
0.270238
0.306398
0.349932
0.402406
0.465874
0.543063
0.637655
0.754601
0.900276
1.08326
1.30075
1.45102
1.43935
1.31654
1.15191
0.990591
0.858615
0.771401
0.741194
0.784815
0.933057
1.23934
1.77546
2.58782
3.5966
0.464694
0.228011
0.180508
0.160223
0.148345
0.140372
0.13475
0.130858
0.12844
0.127407
0.127762
0.12957
0.132948
0.138064
0.145143
0.154472
0.166412
0.181405
0.199984
0.22279
0.250589
0.284308
0.325085
0.374357
0.433981
0.506394
0.594836
0.703649
0.8384
1.00611
1.21564
1.42047
1.48827
1.40919
1.25303
1.07617
0.912468
0.780756
0.691374
0.651598
0.671178
0.768543
0.976378
1.33957
1.89019
2.58549
0.47713
0.228052
0.178313
0.157553
0.145625
0.137727
0.132217
0.128452
0.126178
0.125321
0.125904
0.128015
0.131799
0.137458
0.145257
0.155534
0.16871
0.185299
0.205923
0.231324
0.262389
0.300191
0.346054
0.401654
0.469173
0.551475
0.652363
0.776801
0.930911
1.12251
1.34724
1.49894
1.48635
1.35954
1.18349
1.00167
0.839487
0.710526
0.621331
0.575535
0.577819
0.637886
0.773516
1.00887
1.35975
1.79819
0.491258
0.2284
0.176459
0.15531
0.143369
0.135554
0.130149
0.126497
0.124353
0.12366
0.124464
0.126878
0.131078
0.137301
0.145858
0.15714
0.171636
0.189942
0.212777
0.240997
0.275623
0.317889
0.369319
0.431859
0.508045
0.601217
0.715771
0.857174
1.03205
1.24865
1.4587
1.53083
1.45613
1.29845
1.11175
0.92982
0.771875
0.647501
0.560378
0.51149
0.502028
0.535921
0.621291
0.768815
0.983007
1.24356
0.508052
0.229283
0.175264
0.153723
0.141733
0.133961
0.128623
0.12505
0.123008
0.122459
0.123472
0.126186
0.130807
0.137611
0.146954
0.15929
0.175181
0.195313
0.220515
0.25177
0.290248
0.337357
0.394842
0.464942
0.550589
0.655638
0.785029
0.944618
1.14152
1.37268
1.53259
1.52896
1.40825
1.23103
1.03996
0.861298
0.709526
0.5911
0.507495
0.457786
0.440848
0.456995
0.508598
0.598645
0.725723
0.874932
0.529016
0.231358
0.175255
0.153091
0.140891
0.133055
0.127707
0.124159
0.12218
0.12175
0.122956
0.125963
0.131007
0.138403
0.148556
0.161984
0.179328
0.201379
0.229086
0.263575
0.306179
0.358498
0.422517
0.500796
0.596702
0.71464
0.859963
1.03874
1.25812
1.47564
1.562
1.49989
1.34846
1.1601
0.969206
0.796331
0.652205
0.540735
0.461677
0.412797
0.391496
0.395958
0.425384
0.478907
0.552791
0.636378
0.556828
0.236605
0.177244
0.153772
0.141013
0.132923
0.127451
0.123854
0.121894
0.121556
0.122942
0.126237
0.131707
0.139701
0.150678
0.165222
0.184062
0.208101
0.238422
0.276312
0.323286
0.381154
0.45216
0.539213
0.646162
0.777956
0.940256
1.13927
1.3753
1.54858
1.55994
1.45206
1.2804
1.08716
0.899974
0.734943
0.599749
0.495987
0.42206
0.375073
0.35156
0.348529
0.363598
0.394245
0.436317
0.482346
0.59191
0.247236
0.181778
0.155999
0.142233
0.133613
0.127872
0.124148
0.122164
0.121897
0.123456
0.127041
0.132939
0.141539
0.153348
0.169019
0.189376
0.215439
0.248445
0.289858
0.341399
0.405108
0.483504
0.579874
0.698598
0.845117
1.02531
1.24525
1.47172
1.57639
1.53028
1.39027
1.20642
1.01298
0.832884
0.677592
0.551986
0.456268
0.387957
0.343413
0.319063
0.311353
0.317203
0.333583
0.356704
0.381367
0.629038
0.265152
0.189518
0.159854
0.144496
0.135117
0.128954
0.125032
0.122995
0.122792
0.124529
0.128413
0.134753
0.143968
0.156615
0.173416
0.19529
0.223383
0.259096
0.304093
0.36033
0.430098
0.516203
0.622331
0.753425
0.915389
1.11435
1.35371
1.54211
1.57111
1.47887
1.31736
1.12807
0.939684
0.768855
0.624165
0.508502
0.420927
0.358336
0.316787
0.292435
0.281883
0.281844
0.2893
0.301051
0.313441
0.662744
0.295226
0.201414
0.165396
0.147684
0.137306
0.130649
0.126484
0.124388
0.124262
0.126199
0.130409
0.137216
0.147068
0.160567
0.178499
0.201877
0.231978
0.270372
0.318947
0.379922
0.455871
0.549889
0.666046
0.809794
0.987526
1.20558
1.43969
1.56497
1.53605
1.41036
1.23641
1.04839
0.867986
0.70799
0.57453
0.468942
0.389425
0.332493
0.294115
0.270453
0.258229
0.254437
0.256276
0.261111
0.266321
0.686542
0.349272
0.218846
0.172652
0.151691
0.140074
0.132883
0.128471
0.126335
0.12632
0.1285
0.133084
0.140405
0.150937
0.165321
0.184402
0.209279
0.241353
0.28237
0.334453
0.400122
0.482269
0.584264
0.710477
0.866705
1.0599
1.29612
1.49591
1.54602
1.47389
1.32797
1.15052
0.968304
0.798368
0.650408
0.528567
0.432994
0.3613
0.309827
0.274627
0.252055
0.238986
0.232813
0.231091
0.231655
0.232573
0.718115
0.452689
0.243209
0.181618
0.156553
0.143496
0.135684
0.131012
0.128841
0.128971
0.131445
0.136467
0.144377
0.155665
0.171004
0.19129
0.217699
0.251746
0.295345
0.35086
0.421131
0.509409
0.619292
0.755252
0.923065
1.13067
1.3642
1.50078
1.49249
1.38972
1.2351
1.06105
0.888666
0.731295
0.596251
0.486175
0.400384
0.336153
0.289841
0.257716
0.236416
0.223107
0.215449
0.211456
0.209344
0.207649
0.783418
0.48418
0.271522
0.191936
0.16231
0.1478
0.139287
0.134273
0.132031
0.132304
0.135105
0.140629
0.149219
0.161372
0.177785
0.199395
0.227444
0.263544
0.30976
0.368683
0.443467
0.537748
0.65531
0.800392
0.977871
1.19359
1.38587
1.45026
1.40473
1.28759
1.13445
0.969847
0.810591
0.66735
0.545712
0.447282
0.370867
0.313641
0.27213
0.242907
0.222952
0.209757
0.20127
0.195826
0.192023
0.188714
0.809232
0.413698
0.278886
0.20102
0.168804
0.153141
0.143884
0.138385
0.136048
0.13647
0.139625
0.145709
0.15508
0.168237
0.185881
0.208988
0.238853
0.277154
0.326086
0.38844
0.467671
0.567838
0.692894
0.846803
1.03377
1.2393
1.35393
1.36218
1.29452
1.17543
1.0309
0.879745
0.735623
0.607258
0.499018
0.411824
0.344226
0.293471
0.256361
0.229831
0.211224
0.198358
0.189472
0.183146
0.178271
0.173961
0.806145
0.411786
0.268961
0.204263
0.174147
0.158104
0.148622
0.142945
0.140693
0.141415
0.145018
0.151752
0.162032
0.17635
0.1954
0.220195
0.25207
0.29274
0.34452
0.410375
0.494105
0.600213
0.732619
0.895346
1.07795
1.21984
1.27883
1.2571
1.17905
1.06364
0.930391
0.793943
0.665363
0.551714
0.456358
0.379719
0.320252
0.275386
0.242263
0.2182
0.2009
0.18849
0.179475
0.172667
0.167133
0.16221
0.772109
0.383516
0.262306
0.203727
0.175112
0.159631
0.150345
0.145163
0.143416
0.144769
0.149178
0.156902
0.168359
0.18406
0.204741
0.231462
0.265628
0.309054
0.364118
0.433773
0.521779
0.632254
0.76736
0.922273
1.06474
1.15965
1.18629
1.14948
1.06777
0.958252
0.836593
0.714527
0.60087
0.501142
0.417788
0.350836
0.298736
0.259162
0.229615
0.20779
0.19173
0.179846
0.170877
0.163834
0.15795
0.152665
0.760163
0.362752
0.254218
0.200816
0.173416
0.158559
0.150313
0.146264
0.14549
0.147729
0.153133
0.162029
0.174838
0.19212
0.214665
0.243557
0.280205
0.326397
0.384319
0.456498
0.545691
0.653891
0.779619
0.908052
1.01695
1.08101
1.0877
1.04303
0.962009
0.860312
0.750461
0.642191
0.542518
0.455638
0.383218
0.324992
0.27947
0.244597
0.218232
0.198424
0.183524
0.172197
0.163387
0.156272
0.150223
0.144782
0.770618
0.348583
0.244244
0.195906
0.17079
0.157206
0.150106
0.14726
0.147756
0.151342
0.158141
0.168468
0.182777
0.201671
0.225953
0.256671
0.295121
0.342909
0.401876
0.473879
0.560559
0.660834
0.769279
0.872297
0.95227
0.992614
0.986308
0.938818
0.862096
0.769709
0.671958
0.576938
0.490249
0.415058
0.352447
0.301968
0.262248
0.231515
0.207962
0.18996
0.176134
0.165371
0.156791
0.149712
0.143615
0.138135
0.798351
0.338303
0.233804
0.189802
0.167512
0.155823
0.150287
0.148918
0.150874
0.155919
0.164159
0.175911
0.191636
0.211931
0.23757
0.269513
0.308874
0.357008
0.415228
0.484332
0.564248
0.652374
0.741944
0.82151
0.87798
0.900716
0.886167
0.839006
0.768792
0.686635
0.601014
0.518583
0.443824
0.379136
0.325209
0.281528
0.246878
0.219761
0.198679
0.182286
0.169446
0.159236
0.150927
0.143952
0.137885
0.13244
0.836243
0.33067
0.224826
0.183872
0.164053
0.154303
0.150464
0.150698
0.154207
0.160755
0.170431
0.183532
0.200505
0.221898
0.248426
0.280926
0.320207
0.367178
0.422516
0.486227
0.557062
0.631485
0.702947
0.762357
0.800397
0.810414
0.790923
0.746012
0.683302
0.611573
0.53765
0.466915
0.402939
0.347561
0.301232
0.263454
0.233194
0.209215
0.190291
0.175323
0.163378
0.153699
0.145682
0.138861
0.132882
0.127521
0.877043
0.325078
0.218465
0.179277
0.161137
0.152916
0.150545
0.152231
0.157179
0.165123
0.176108
0.190392
0.208381
0.230506
0.257347
0.289529
0.327639
0.37214
0.423122
0.479922
0.54063
0.601509
0.656873
0.699799
0.723862
0.725038
0.703087
0.661589
0.606602
0.544882
0.481806
0.421647
0.367229
0.319982
0.280224
0.247522
0.221034
0.199759
0.18271
0.168997
0.15786
0.148681
0.140964
0.134328
0.128484
0.123237
0.91559
0.322253
0.215173
0.176643
0.159359
0.15208
0.150731
0.153511
0.159596
0.168669
0.180698
0.195856
0.214439
0.236809
0.263376
0.294541
0.330614
0.371676
0.41737
0.466602
0.517206
0.565714
0.60749
0.637444
0.651267
0.646664
0.624094
0.586646
0.539109
0.486578
0.43322
0.382375
0.336265
0.296013
0.26187
0.233496
0.210226
0.19127
0.175841
0.163227
0.152815
0.144102
0.136683
0.130247
0.124556
0.119446
0.949965
0.323906
0.214854
0.176066
0.158978
0.15209
0.151277
0.154705
0.161502
0.171284
0.183948
0.199572
0.218336
0.240474
0.266227
0.295784
0.329194
0.366239
0.406263
0.447963
0.489214
0.527029
0.557793
0.577879
0.584489
0.576435
0.55452
0.521358
0.480696
0.43632
0.391427
0.348601
0.309581
0.275265
0.245871
0.221157
0.200615
0.183636
0.169601
0.157946
0.14818
0.139897
0.132769
0.12654
0.121015
0.116056
0.976103
0.327537
0.216174
0.176983
0.159811
0.152953
0.152266
0.155912
0.162987
0.17305
0.185923
0.201583
0.220095
0.241556
0.266044
0.293556
0.323929
0.356733
0.391148
0.425838
0.458884
0.487839
0.509986
0.522809
0.524564
0.514748
0.494285
0.465335
0.430805
0.39348
0.355795
0.319742
0.286681
0.257342
0.231931
0.21029
0.19205
0.176749
0.163909
0.153089
0.143898
0.136011
0.129163
0.123144
0.117793
0.112996
0.992741
0.33068
0.218167
0.178793
0.161487
0.154473
0.153641
0.157174
0.164158
0.174112
0.186792
0.202088
0.219953
0.240358
0.263237
0.288429
0.315616
0.344238
0.373418
0.401897
0.428034
0.449899
0.465509
0.473165
0.471833
0.461414
0.442821
0.417803
0.388595
0.357237
0.325584
0.295166
0.267055
0.24185
0.219754
0.200682
0.184377
0.170498
0.158683
0.14859
0.139913
0.132391
0.125812
0.120004
0.114835
0.110206
1.00109
0.332734
0.220206
0.18097
0.163606
0.15638
0.15525
0.158444
0.165057
0.174587
0.18674
0.201332
0.218226
0.237285
0.258327
0.281073
0.305104
0.329799
0.354298
0.377477
0.397984
0.414342
0.425132
0.429242
0.426098
0.415821
0.399242
0.377755
0.353068
0.326681
0.300007
0.274226
0.25019
0.228398
0.209051
0.192121
0.177442
0.16477
0.153837
0.144382
0.136167
0.128986
0.122668
0.117074
0.112092
0.107638
1.00201
0.333445
0.221848
0.183067
0.165778
0.158363
0.156875
0.159599
0.165654
0.17453
0.185903
0.199535
0.215219
0.232738
0.251824
0.272121
0.293154
0.314294
0.334739
0.353524
0.369563
0.381746
0.38908
0.390851
0.386775
0.377078
0.362477
0.344074
0.323171
0.300878
0.278277
0.256287
0.235589
0.216608
0.199537
0.184398
0.171091
0.159451
0.149285
0.140398
0.132606
0.125749
0.119689
0.114312
0.109524
0.105252
0.996133
0.332673
0.222782
0.184732
0.167656
0.160116
0.15827
0.160465
0.165852
0.173929
0.184353
0.196854
0.211178
0.227053
0.244156
0.262091
0.280363
0.298368
0.315386
0.330605
0.343169
0.352253
0.357167
0.357468
0.353042
0.344148
0.331391
0.315632
0.297864
0.278922
0.259641
0.240744
0.222782
0.206118
0.190944
0.177311
0.165174
0.154429
0.144943
0.136572
0.129178
0.122636
0.116835
0.111682
0.107096
0.103012
0.984068
0.330381
0.222818
0.18571
0.168967
0.161375
0.159201
0.160855
0.165526
0.172724
0.182105
0.193381
0.206272
0.220475
0.23564
0.251358
0.267144
0.282434
0.296601
0.308969
0.318868
0.325687
0.328948
0.328381
0.32397
0.315967
0.30487
0.291352
0.276177
0.259978
0.243408
0.227042
0.211334
0.196598
0.183018
0.170671
0.15955
0.149599
0.140731
0.132843
0.125834
0.119607
0.114073
0.109153
0.104779
0.100893
0.966449
0.326625
0.221873
0.18585
0.169524
0.16194
0.159476
0.160605
0.16455
0.170842
0.179143
0.189161
0.200606
0.213167
0.226488
0.240167
0.253745
0.266713
0.278527
0.288634
0.296504
0.301683
0.30384
0.302811
0.298628
0.29152
0.281891
0.270269
0.257243
0.243302
0.228964
0.214692
0.200863
0.187753
0.175539
0.164312
0.154096
0.144869
0.13658
0.12916
0.122535
0.116631
0.111375
0.106702
0.102551
0.0988708
0.944026
0.321539
0.219952
0.185094
0.169227
0.161689
0.158969
0.159596
0.162829
0.168222
0.175446
0.184218
0.194251
0.205238
0.216836
0.228663
0.240298
0.251287
0.261167
0.269478
0.275804
0.279801
0.281235
0.280007
0.276166
0.269912
0.26157
0.251555
0.240327
0.228269
0.215794
0.203281
0.191049
0.179339
0.168322
0.158098
0.148711
0.140166
0.132438
0.125484
0.119252
0.113683
0.108721
0.10431
0.100396
0.0969306
0.917661
0.315318
0.217135
0.183465
0.168061
0.160582
0.157626
0.157775
0.160322
0.16484
0.171019
0.178585
0.187267
0.196773
0.206781
0.21694
0.226869
0.236172
0.244451
0.251328
0.25647
0.259611
0.260579
0.259313
0.255865
0.250403
0.243186
0.234543
0.224838
0.214377
0.203489
0.192487
0.181642
0.171171
0.161232
0.151931
0.143328
0.135443
0.128273
0.121793
0.115967
0.110752
0.106102
0.101967
0.0983021
0.0950614
0.888291
0.308201
0.213555
0.18105
0.166082
0.158651
0.155465
0.155156
0.157045
0.160725
0.165903
0.172324
0.179734
0.187862
0.196415
0.205075
0.213506
0.221363
0.228307
0.234024
0.238242
0.240752
0.241423
0.240213
0.23717
0.23243
0.226199
0.218737
0.21033
0.201262
0.191757
0.182083
0.172475
0.163126
0.154184
0.145757
0.13791
0.130679
0.124072
0.11808
0.112679
0.107837
0.103515
0.0996718
0.0962664
0.0932579
0.856883
0.300446
0.209377
0.17798
0.163399
0.155989
0.152568
0.151814
0.153072
0.155957
0.16019
0.165536
0.17176
0.178618
0.185846
0.193162
0.200273
0.20688
0.212695
0.217456
0.220938
0.222971
0.223452
0.222348
0.219698
0.215611
0.210251
0.203823
0.196562
0.188705
0.180424
0.171941
0.163459
0.15515
0.14715
0.139563
0.13246
0.125882
0.119848
0.114359
0.109399
0.104945
0.100966
0.0974268
0.0942898
0.0915189
0.824376
0.292309
0.204779
0.174413
0.160158
0.152733
0.149065
0.147875
0.148531
0.150664
0.154012
0.158358
0.163488
0.169183
0.175211
0.181324
0.187268
0.192786
0.197634
0.201592
0.204471
0.206132
0.206487
0.205509
0.203228
0.199728
0.195139
0.189627
0.18338
0.176597
0.169417
0.162022
0.154582
0.147249
0.14015
0.13338
0.12701
0.121087
0.115633
0.110657
0.106151
0.102097
0.0984709
0.095242
0.0923784
0.0898475
0.791626
0.28403
0.199941
0.170516
0.156521
0.149043
0.145114
0.143497
0.14358
0.145009
0.147537
0.150961
0.15509
0.15973
0.164676
0.169713
0.174623
0.179187
0.183198
0.186469
0.188843
0.1902
0.190468
0.189619
0.187675
0.1847
0.180797
0.176096
0.170751
0.16492
0.158752
0.152359
0.145892
0.139483
0.133245
0.127268
0.12162
0.116346
0.111474
0.107015
0.102967
0.099318
0.0960478
0.0931314
0.0905414
0.0882492
0.75935
0.275814
0.195024
0.166451
0.152656
0.145089
0.140889
0.138857
0.138398
0.139173
0.140946
0.143531
0.146754
0.150443
0.154419
0.1585
0.162495
0.166222
0.169503
0.17218
0.174122
0.175226
0.175427
0.174701
0.17306
0.170552
0.167258
0.163281
0.158745
0.153779
0.148519
0.143046
0.137483
0.131944
0.126527
0.121312
0.116364
0.111726
0.107426
0.103479
0.0998851
0.0966369
0.0937189
0.091111
0.0887898
0.0867311
0.728112
0.267828
0.19017
0.162363
0.148716
0.141034
0.136558
0.134126
0.133162
0.133335
0.134423
0.136251
0.138663
0.141505
0.144622
0.147857
0.151049
0.154042
0.156686
0.158849
0.160417
0.161303
0.161451
0.160836
0.159463
0.157368
0.154614
0.151281
0.147467
0.14328
0.138829
0.1342
0.129472
0.124743
0.120097
0.115605
0.111325
0.107298
0.10355
0.100097
0.0969433
0.0940836
0.0915069
0.089197
0.0871351
0.0853006
0.698311
0.260194
0.185486
0.158372
0.144835
0.137021
0.132272
0.129462
0.128032
0.12766
0.128133
0.129289
0.130983
0.13308
0.135445
0.137941
0.140434
0.142789
0.144881
0.146598
0.147843
0.148542
0.148645
0.148127
0.14699
0.145257
0.142976
0.140211
0.137039
0.133545
0.129818
0.125946
0.121977
0.11799
0.114056
0.110236
0.106581
0.103126
0.0998992
0.0969141
0.0941768
0.0916853
0.0894319
0.0874042
0.0855873
0.0839645
0.670202
0.252991
0.181053
0.15457
0.141116
0.133164
0.128153
0.124994
0.12314
0.122282
0.122213
0.122779
0.123849
0.125301
0.127016
0.128876
0.130767
0.132575
0.134193
0.135528
0.136497
0.137035
0.1371
0.136666
0.135732
0.134313
0.132445
0.130176
0.127567
0.124685
0.121601
0.118387
0.115097
0.111777