/*--------------------------------*- C++ -*----------------------------------*\
  =========                 |
  \\      /  F ield         | OpenFOAM: The Open Source CFD Toolbox
   \\    /   O peration     | Website:  https://openfoam.org
    \\  /    A nd           | Version:  7
     \\/     M anipulation  |
\*---------------------------------------------------------------------------*/
FoamFile
{
    version     2.0;
    format      ascii;
    class       volVectorField;
    location    "0.2";
    object      U;
}
// * * * * * * * * * * * * * * * * * * * * * * * * * * * * * * * * * * * * * //

dimensions      [0 1 -1 0 0 0 0];

internalField   nonuniform List<vector> 
7700
(
(-0.0196938 0.0103996 0)
(-0.00963105 -0.0126137 0)
(0.0313715 -0.0237976 0)
(0.0802206 -0.0269115 0)
(0.130996 -0.0266365 0)
(0.18097 -0.0253179 0)
(0.228941 -0.0238652 0)
(0.274739 -0.0225681 0)
(0.318683 -0.0214972 0)
(0.361194 -0.0206512 0)
(0.402661 -0.0200063 0)
(0.443425 -0.0195344 0)
(0.483786 -0.0192109 0)
(0.524009 -0.0190166 0)
(0.564334 -0.018937 0)
(0.604976 -0.018962 0)
(0.646132 -0.0190837 0)
(0.687987 -0.0192958 0)
(0.730705 -0.019592 0)
(0.774433 -0.0199649 0)
(0.819294 -0.0204046 0)
(0.865378 -0.0208973 0)
(0.912734 -0.0214241 0)
(0.961355 -0.021959 0)
(1.01116 -0.0224678 0)
(1.06198 -0.0229059 0)
(1.11352 -0.023217 0)
(1.16535 -0.0233311 0)
(1.21687 -0.0231625 0)
(1.26724 -0.0226075 0)
(1.31539 -0.0215421 0)
(1.35992 -0.0198105 0)
(1.399 -0.0172278 0)
(1.43039 -0.0134392 0)
(1.45053 -0.00789406 0)
(1.45653 0.00156686 0)
(1.43553 0.0156149 0)
(1.37976 0.0344643 0)
(1.28153 0.0578332 0)
(1.13376 0.0839634 0)
(0.933553 0.108283 0)
(0.688388 0.123238 0)
(0.419602 0.120841 0)
(0.164075 0.100946 0)
(-0.0758967 0.0467003 0)
(-0.124679 -0.127626 0)
(0.0045714 0.011531 0)
(0.0326487 -0.0296608 0)
(0.0749419 -0.0502357 0)
(0.120881 -0.0567947 0)
(0.167166 -0.0572233 0)
(0.212581 -0.0554949 0)
(0.256576 -0.0532721 0)
(0.299086 -0.0511944 0)
(0.340317 -0.0494789 0)
(0.380561 -0.0481724 0)
(0.420112 -0.0472567 0)
(0.459246 -0.0466949 0)
(0.49822 -0.0464496 0)
(0.53727 -0.0464888 0)
(0.57661 -0.0467865 0)
(0.616435 -0.0473211 0)
(0.656922 -0.0480733 0)
(0.698229 -0.0490236 0)
(0.740492 -0.05015 0)
(0.783822 -0.0514254 0)
(0.828303 -0.0528147 0)
(0.873978 -0.0542723 0)
(0.920846 -0.0557393 0)
(0.968845 -0.0571395 0)
(1.01784 -0.0583763 0)
(1.06761 -0.0593283 0)
(1.11782 -0.059845 0)
(1.168 -0.0597426 0)
(1.21752 -0.0587986 0)
(1.26555 -0.0567459 0)
(1.31104 -0.053265 0)
(1.35268 -0.0479671 0)
(1.38883 -0.0403749 0)
(1.4176 -0.0297972 0)
(1.437 -0.0152781 0)
(1.44441 0.00503242 0)
(1.4435 0.0328777 0)
(1.43116 0.0691027 0)
(1.40138 0.114317 0)
(1.34481 0.167882 0)
(1.24752 0.225568 0)
(1.0929 0.277149 0)
(0.869189 0.306305 0)
(0.589508 0.297565 0)
(0.270569 0.223255 0)
(0.113223 -0.035744 0)
(0.0189643 -0.0125001 0)
(0.0558483 -0.0612172 0)
(0.101194 -0.0833502 0)
(0.14621 -0.089731 0)
(0.189747 -0.0894199 0)
(0.231988 -0.0867679 0)
(0.272972 -0.083632 0)
(0.312811 -0.0807585 0)
(0.351722 -0.0784122 0)
(0.389954 -0.0766555 0)
(0.427753 -0.0754707 0)
(0.465353 -0.0748135 0)
(0.502977 -0.0746352 0)
(0.540833 -0.0748916 0)
(0.579108 -0.0755435 0)
(0.617975 -0.0765559 0)
(0.657584 -0.0778956 0)
(0.698068 -0.0795275 0)
(0.739533 -0.081412 0)
(0.78206 -0.0835008 0)
(0.825697 -0.0857336 0)
(0.870451 -0.0880339 0)
(0.916284 -0.0903045 0)
(0.963099 -0.0924225 0)
(1.01073 -0.0942335 0)
(1.05891 -0.0955454 0)
(1.1073 -0.0961223 0)
(1.15541 -0.0956767 0)
(1.20261 -0.0938631 0)
(1.2481 -0.0902681 0)
(1.29089 -0.0844013 0)
(1.32974 -0.0756813 0)
(1.36318 -0.0634207 0)
(1.38949 -0.0468119 0)
(1.4067 -0.0249284 0)
(1.41248 0.00312074 0)
(1.40531 0.0391845 0)
(1.38374 0.0854227 0)
(1.34669 0.144092 0)
(1.29277 0.216692 0)
(1.2186 0.301648 0)
(1.11536 0.39051 0)
(0.96522 0.46421 0)
(0.751714 0.49354 0)
(0.463768 0.431201 0)
(0.228009 0.165938 0)
(0.0232702 -0.0422381 0)
(0.0672105 -0.0979811 0)
(0.116606 -0.118725 0)
(0.162355 -0.123166 0)
(0.204785 -0.121258 0)
(0.245191 -0.117342 0)
(0.284169 -0.113211 0)
(0.322076 -0.109573 0)
(0.359216 -0.106669 0)
(0.395853 -0.104547 0)
(0.432223 -0.103175 0)
(0.468544 -0.102498 0)
(0.505019 -0.102454 0)
(0.541833 -0.102986 0)
(0.579155 -0.104041 0)
(0.617137 -0.10557 0)
(0.655907 -0.107523 0)
(0.695577 -0.109848 0)
(0.736228 -0.112486 0)
(0.777916 -0.115366 0)
(0.820662 -0.118401 0)
(0.864448 -0.121481 0)
(0.909209 -0.124471 0)
(0.954822 -0.1272 0)
(1.0011 -0.129457 0)
(1.04777 -0.130981 0)
(1.09446 -0.131456 0)
(1.14071 -0.130498 0)
(1.18589 -0.127647 0)
(1.22925 -0.122361 0)
(1.26986 -0.113999 0)
(1.30658 -0.101815 0)
(1.33809 -0.0849501 0)
(1.36283 -0.0624226 0)
(1.37907 -0.0331318 0)
(1.3848 0.00412344 0)
(1.378 0.0507531 0)
(1.35674 0.108658 0)
(1.3194 0.179838 0)
(1.26457 0.266046 0)
(1.19058 0.367606 0)
(1.09391 0.480465 0)
(0.964736 0.590446 0)
(0.785115 0.666122 0)
(0.531288 0.648734 0)
(0.276143 0.42977 0)
(0.0247684 -0.0757398 0)
(0.072626 -0.138129 0)
(0.124842 -0.155567 0)
(0.17156 -0.156682 0)
(0.213739 -0.152465 0)
(0.253249 -0.147003 0)
(0.291043 -0.141824 0)
(0.32768 -0.13747 0)
(0.363566 -0.134099 0)
(0.399009 -0.131711 0)
(0.434263 -0.130249 0)
(0.469547 -0.129641 0)
(0.505056 -0.129809 0)
(0.540967 -0.130683 0)
(0.577434 -0.132195 0)
(0.614594 -0.134282 0)
(0.652561 -0.136877 0)
(0.691427 -0.13991 0)
(0.731257 -0.143301 0)
(0.772085 -0.146955 0)
(0.813914 -0.150757 0)
(0.856706 -0.154565 0)
(0.900377 -0.158204 0)
(0.944789 -0.161459 0)
(0.989741 -0.164064 0)
(1.03496 -0.165694 0)
(1.08008 -0.165957 0)
(1.12464 -0.164383 0)
(1.16805 -0.16041 0)
(1.20961 -0.153382 0)
(1.24846 -0.142532 0)
(1.28359 -0.126979 0)
(1.3138 -0.105719 0)
(1.33777 -0.0776292 0)
(1.35398 -0.0414704 0)
(1.36075 0.00408858 0)
(1.35631 0.0605494 0)
(1.33877 0.129721 0)
(1.30619 0.213537 0)
(1.25635 0.313791 0)
(1.18642 0.431376 0)
(1.09222 0.564389 0)
(0.965928 0.703438 0)
(0.793117 0.822419 0)
(0.551192 0.86383 0)
(0.291674 0.714841 0)
(0.0255477 -0.110794 0)
(0.0751872 -0.179963 0)
(0.128647 -0.193274 0)
(0.17582 -0.190309 0)
(0.217938 -0.183294 0)
(0.257022 -0.176017 0)
(0.29416 -0.169665 0)
(0.330018 -0.164558 0)
(0.36507 -0.160727 0)
(0.399667 -0.158104 0)
(0.434085 -0.156595 0)
(0.468553 -0.156097 0)
(0.50327 -0.156516 0)
(0.538408 -0.157763 0)
(0.574116 -0.159755 0)
(0.61052 -0.162412 0)
(0.647724 -0.16565 0)
(0.685805 -0.16938 0)
(0.724814 -0.1735 0)
(0.764773 -0.177891 0)
(0.805668 -0.18241 0)
(0.847449 -0.186884 0)
(0.890019 -0.191101 0)
(0.933233 -0.194801 0)
(0.976886 -0.19767 0)
(1.0207 -0.199324 0)
(1.06434 -0.199303 0)
(1.10734 -0.197059 0)
(1.14918 -0.191946 0)
(1.1892 -0.183208 0)
(1.22663 -0.169977 0)
(1.26056 -0.151261 0)
(1.28999 -0.125952 0)
(1.31376 -0.0928233 0)
(1.33065 -0.0505376 0)
(1.33929 0.00234135 0)
(1.33822 0.0674254 0)
(1.32576 0.14663 0)
(1.29989 0.242175 0)
(1.25781 0.356415 0)
(1.19543 0.491191 0)
(1.10668 0.646282 0)
(0.982337 0.81525 0)
(0.808531 0.976822 0)
(0.565301 1.07954 0)
(0.298274 1.01153 0)
(0.0260263 -0.146687 0)
(0.0762047 -0.222322 0)
(0.129678 -0.231188 0)
(0.176675 -0.22392 0)
(0.218604 -0.21393 0)
(0.257414 -0.2047 0)
(0.29417 -0.197072 0)
(0.329555 -0.191145 0)
(0.364069 -0.186817 0)
(0.398083 -0.183944 0)
(0.43189 -0.182382 0)
(0.46573 -0.181996 0)
(0.499806 -0.182668 0)
(0.534291 -0.184289 0)
(0.569329 -0.186757 0)
(0.605043 -0.189974 0)
(0.641526 -0.193836 0)
(0.678848 -0.198235 0)
(0.717048 -0.203047 0)
(0.756138 -0.208129 0)
(0.796095 -0.21331 0)
(0.836858 -0.218386 0)
(0.878326 -0.223112 0)
(0.920349 -0.227188 0)
(0.962727 -0.230252 0)
(1.00519 -0.231869 0)
(1.04742 -0.231521 0)
(1.08898 -0.228591 0)
(1.1294 -0.22236 0)
(1.16807 -0.211992 0)
(1.20432 -0.196538 0)
(1.23736 -0.174927 0)
(1.26633 -0.145978 0)
(1.29032 -0.1084 0)
(1.30834 -0.0607976 0)
(1.31933 -0.00165319 0)
(1.32214 0.0707715 0)
(1.3153 0.158656 0)
(1.29675 0.264781 0)
(1.26318 0.392526 0)
(1.20938 0.545284 0)
(1.12742 0.724877 0)
(1.00628 0.927193 0)
(0.83156 1.13419 0)
(0.58452 1.29982 0)
(0.306231 1.31765 0)
(0.0262979 -0.182975 0)
(0.0762366 -0.264393 0)
(0.128888 -0.268724 0)
(0.175194 -0.257252 0)
(0.21672 -0.244347 0)
(0.255241 -0.233161 0)
(0.291716 -0.22422 0)
(0.326788 -0.217426 0)
(0.360942 -0.212561 0)
(0.394551 -0.209404 0)
(0.42791 -0.207762 0)
(0.461265 -0.207467 0)
(0.494822 -0.208372 0)
(0.528754 -0.210347 0)
(0.563203 -0.213268 0)
(0.598287 -0.217017 0)
(0.634093 -0.221472 0)
(0.670685 -0.2265 0)
(0.708095 -0.231958 0)
(0.746326 -0.237678 0)
(0.785349 -0.243463 0)
(0.825098 -0.249081 0)
(0.865471 -0.254252 0)
(0.90632 -0.258642 0)
(0.94745 -0.261846 0)
(0.98861 -0.263385 0)
(1.02949 -0.262686 0)
(1.06971 -0.259076 0)
(1.10881 -0.251773 0)
(1.14628 -0.239882 0)
(1.18151 -0.222391 0)
(1.21384 -0.198177 0)
(1.24257 -0.166018 0)
(1.26696 -0.124596 0)
(1.28627 -0.0724877 0)
(1.29971 -0.00811175 0)
(1.30635 0.0704358 0)
(1.30488 0.16575 0)
(1.29302 0.281521 0)
(1.26673 0.422656 0)
(1.21942 0.594363 0)
(1.14139 0.800678 0)
(1.02164 1.03879 0)
(0.847754 1.29307 0)
(0.602373 1.52371 0)
(0.317594 1.63604 0)
(0.0263953 -0.219333 0)
(0.0755679 -0.305644 0)
(0.126854 -0.305475 0)
(0.172105 -0.290067 0)
(0.213024 -0.274444 0)
(0.251171 -0.261394 0)
(0.287365 -0.251164 0)
(0.32218 -0.243492 0)
(0.356064 -0.238062 0)
(0.389369 -0.234589 0)
(0.422386 -0.232835 0)
(0.455356 -0.232599 0)
(0.488484 -0.233706 0)
(0.52194 -0.236002 0)
(0.555866 -0.239342 0)
(0.590372 -0.243585 0)
(0.625544 -0.248588 0)
(0.661436 -0.254199 0)
(0.698078 -0.260251 0)
(0.735466 -0.266552 0)
(0.773568 -0.272882 0)
(0.812316 -0.27898 0)
(0.85161 -0.284538 0)
(0.891308 -0.289187 0)
(0.931223 -0.292487 0)
(0.971121 -0.293916 0)
(1.01071 -0.292856 0)
(1.04965 -0.288586 0)
(1.08753 -0.280274 0)
(1.12388 -0.266975 0)
(1.15819 -0.247637 0)
(1.18988 -0.221107 0)
(1.2184 -0.18615 0)
(1.24317 -0.141449 0)
(1.26362 -0.0855714 0)
(1.27917 -0.0168615 0)
(1.28898 0.0668453 0)
(1.29167 0.168846 0)
(1.28433 0.294123 0)
(1.26112 0.449057 0)
(1.21263 0.639486 0)
(1.12654 0.870403 0)
(0.998137 1.14336 0)
(0.826962 1.44534 0)
(0.599627 1.74205 0)
(0.323833 1.96319 0)
(0.0263399 -0.255502 0)
(0.0743753 -0.345728 0)
(0.12395 -0.341176 0)
(0.16791 -0.322189 0)
(0.208055 -0.304114 0)
(0.24572 -0.289351 0)
(0.281581 -0.2779 0)
(0.316132 -0.26937 0)
(0.34977 -0.263366 0)
(0.382818 -0.259555 0)
(0.415548 -0.257661 0)
(0.448194 -0.257451 0)
(0.480953 -0.258724 0)
(0.51399 -0.261302 0)
(0.54744 -0.265017 0)
(0.581412 -0.269709 0)
(0.615983 -0.275211 0)
(0.651206 -0.281352 0)
(0.687103 -0.287941 0)
(0.723668 -0.294765 0)
(0.760868 -0.30158 0)
(0.798637 -0.3081 0)
(0.836877 -0.313989 0)
(0.875453 -0.318848 0)
(0.91419 -0.322205 0)
(0.952872 -0.323501 0)
(0.991231 -0.322077 0)
(1.02895 -0.317172 0)
(1.06566 -0.307912 0)
(1.10094 -0.293316 0)
(1.13434 -0.272303 0)
(1.16537 -0.243711 0)
(1.19356 -0.206309 0)
(1.21846 -0.158792 0)
(1.2396 -0.0997125 0)
(1.25644 -0.027271 0)
(1.26813 0.0611796 0)
(1.27269 0.169854 0)
(1.26523 0.304397 0)
(1.23586 0.4707 0)
(1.17162 0.676932 0)
(1.05597 0.934988 0)
(0.897477 1.24136 0)
(0.733388 1.57938 0)
(0.553785 1.93083 0)
(0.333579 2.29667 0)
(-0.0485649 0.0293684 0)
(-0.111906 0.0287615 0)
(-0.168598 0.0205702 0)
(-0.202132 0.00892279 0)
(-0.21171 -0.0011297 0)
(-0.20541 -0.0074222 0)
(-0.189536 -0.0103129 0)
(-0.167656 -0.0117401 0)
(-0.142904 -0.0120539 0)
(-0.11739 -0.0116618 0)
(-0.0925541 -0.0108321 0)
(-0.0692997 -0.00975561 0)
(-0.0481442 -0.00854841 0)
(-0.0293783 -0.00728069 0)
(-0.0131251 -0.00603621 0)
(0.000703066 -0.00491618 0)
(0.0123308 -0.00397614 0)
(0.0219881 -0.00318153 0)
(0.0298782 -0.00248685 0)
(0.0361922 -0.00187609 0)
(0.0410912 -0.00134602 0)
(0.0447066 -0.00086924 0)
(0.0471506 -0.000434883 0)
(0.0485097 -2.45265e-05 0)
(0.0489064 0.000389171 0)
(0.0484079 0.000993765 0)
(0.0470812 0.00135173 0)
(0.0450324 0.00146687 0)
(0.0422359 0.0019615 0)
(0.0387074 0.0024327 0)
(0.0345532 0.0026521 0)
(0.0297764 0.00296992 0)
(0.024337 0.00344069 0)
(0.0184367 0.00372039 0)
(0.0121583 0.00378957 0)
(0.00576509 0.00377954 0)
(-0.000339703 0.00335253 0)
(-0.00514415 0.00233426 0)
(-0.00743999 0.000313988 0)
(-0.00498943 -0.0029524 0)
(-0.0529987 0.0832142 0)
(-0.12103 0.0687512 0)
(-0.170056 0.0471352 0)
(-0.197777 0.022594 0)
(-0.206653 0.00244082 0)
(-0.202191 -0.0118658 0)
(-0.187532 -0.020861 0)
(-0.166768 -0.0258448 0)
(-0.142916 -0.0278934 0)
(-0.118123 -0.0279302 0)
(-0.093834 -0.0266541 0)
(-0.070981 -0.0245822 0)
(-0.0500966 -0.0220744 0)
(-0.031429 -0.0193798 0)
(-0.0150364 -0.0166891 0)
(-0.000867809 -0.0141459 0)
(0.0111823 -0.0118236 0)
(0.0212544 -0.00973393 0)
(0.0295111 -0.00786553 0)
(0.0361191 -0.00619947 0)
(0.0412434 -0.00471745 0)
(0.0450385 -0.00338388 0)
(0.0476437 -0.00217415 0)
(0.0491885 -0.00106574 0)
(0.0497533 -3.32748e-05 0)
(0.049425 0.000901459 0)
(0.048292 0.00176887 0)
(0.0463987 0.00260685 0)
(0.04381 0.0033649 0)
(0.0406089 0.00405335 0)
(0.0368074 0.00472978 0)
(0.0324419 0.00537935 0)
(0.027589 0.00592058 0)
(0.0222987 0.0063128 0)
(0.0167118 0.00656967 0)
(0.0109837 0.00641009 0)
(0.00545174 0.00559514 0)
(0.000710767 0.00363032 0)
(-0.00248974 3.5343e-05 0)
(-0.00195223 -0.00619766 0)
(-0.0505286 0.145201 0)
(-0.123042 0.113901 0)
(-0.171556 0.0756722 0)
(-0.199867 0.0360897 0)
(-0.20857 0.00395082 0)
(-0.203108 -0.0186246 0)
(-0.187913 -0.0330734 0)
(-0.166928 -0.0411507 0)
(-0.143131 -0.0445635 0)
(-0.118596 -0.0447435 0)
(-0.0946973 -0.0428121 0)
(-0.0722887 -0.0395965 0)
(-0.0518422 -0.035679 0)
(-0.0335707 -0.0314698 0)
(-0.0175194 -0.0272623 0)
(-0.00364122 -0.0232485 0)
(0.00816284 -0.0195246 0)
(0.0180332 -0.0161224 0)
(0.0261341 -0.013048 0)
(0.0326277 -0.0102891 0)
(0.037671 -0.00781669 0)
(0.0414194 -0.00558875 0)
(0.044018 -0.00356706 0)
(0.0455956 -0.00173085 0)
(0.0462515 -7.11792e-05 0)
(0.0460775 0.00144808 0)
(0.0451589 0.00283767 0)
(0.0435539 0.0041176 0)
(0.0413393 0.00533363 0)
(0.0385869 0.00646992 0)
(0.0353313 0.00752143 0)
(0.0316264 0.008499 0)
(0.0275563 0.00937241 0)
(0.023191 0.0100586 0)
(0.0186324 0.0104391 0)
(0.0140369 0.0102928 0)
(0.00958461 0.00923172 0)
(0.00552203 0.00668358 0)
(0.0020208 0.00193434 0)
(0.00109177 -0.00634643 0)
(-0.0545962 0.207207 0)
(-0.134356 0.160357 0)
(-0.184409 0.10439 0)
(-0.212044 0.0489349 0)
(-0.218063 0.0045561 0)
(-0.209511 -0.0267364 0)
(-0.191712 -0.0465588 0)
(-0.168848 -0.0574728 0)
(-0.143879 -0.0619515 0)
(-0.118746 -0.0620215 0)
(-0.0946771 -0.0592384 0)
(-0.0723847 -0.0547385 0)
(-0.0522214 -0.0493225 0)
(-0.0343146 -0.0435455 0)
(-0.0186599 -0.0377848 0)
(-0.00518155 -0.0322764 0)
(0.00624175 -0.0271451 0)
(0.0157732 -0.0224431 0)
(0.0235917 -0.0181835 0)
(0.0298632 -0.0143545 0)
(0.03474 -0.0109219 0)
(0.0383725 -0.00783983 0)
(0.0409057 -0.00506318 0)
(0.0424707 -0.00255774 0)
(0.0431755 -0.000295119 0)
(0.0431118 0.00176047 0)
(0.0423622 0.00363445 0)
(0.040997 0.00535553 0)
(0.0390899 0.00695624 0)
(0.0367074 0.00843714 0)
(0.0339017 0.00979745 0)
(0.030734 0.0110351 0)
(0.0272781 0.0121102 0)
(0.0236087 0.0129361 0)
(0.0198173 0.0133786 0)
(0.0160125 0.0131981 0)
(0.01228 0.0120128 0)
(0.00865749 0.00926488 0)
(0.00506035 0.00423592 0)
(0.0028994 -0.00438894 0)
(-0.0658479 0.27763 0)
(-0.155765 0.210869 0)
(-0.208053 0.133911 0)
(-0.234075 0.0599978 0)
(-0.235258 0.00225337 0)
(-0.221327 -0.0377253 0)
(-0.198823 -0.0624449 0)
(-0.172399 -0.0755798 0)
(-0.145014 -0.0805272 0)
(-0.118431 -0.0799924 0)
(-0.0936461 -0.0759931 0)
(-0.0711473 -0.0699638 0)
(-0.0511002 -0.0628937 0)
(-0.0335004 -0.0554539 0)
(-0.0182556 -0.0480887 0)
(-0.0052291 -0.0410694 0)
(0.00574502 -0.0345374 0)
(0.0148601 -0.028553 0)
(0.022312 -0.0231319 0)
(0.028275 -0.0182625 0)
(0.0329039 -0.0139067 0)
(0.0363473 -0.0100102 0)
(0.0387496 -0.00651594 0)
(0.0402419 -0.0033751 0)
(0.0409342 -0.000546649 0)
(0.0409178 0.00200947 0)
(0.0402737 0.00432847 0)
(0.039075 0.00644411 0)
(0.037393 0.0083856 0)
(0.0352929 0.0101644 0)
(0.0328327 0.0117828 0)
(0.0300727 0.0132297 0)
(0.0270786 0.0144613 0)
(0.023917 0.0153912 0)
(0.020658 0.0158777 0)
(0.0173632 0.0156889 0)
(0.0140446 0.0144789 0)
(0.0106231 0.0117663 0)
(0.00691988 0.00693813 0)
(0.00389957 -0.00124743 0)
(-0.0842808 0.364615 0)
(-0.189612 0.267253 0)
(-0.244209 0.164222 0)
(-0.267168 0.0679758 0)
(-0.260561 -0.00460597 0)
(-0.238421 -0.0531777 0)
(-0.208894 -0.0819818 0)
(-0.177203 -0.0963404 0)
(-0.146232 -0.100848 0)
(-0.117436 -0.098987 0)
(-0.0914658 -0.0932426 0)
(-0.0684968 -0.085318 0)
(-0.0484444 -0.0763559 0)
(-0.0311215 -0.0671115 0)
(-0.0163095 -0.0580674 0)
(-0.00378609 -0.0495085 0)
(0.00667215 -0.0415804 0)
(0.015295 -0.0343418 0)
(0.0222994 -0.0278021 0)
(0.0278718 -0.0219402 0)
(0.0321734 -0.0167082 0)
(0.0353542 -0.0120408 0)
(0.0375572 -0.0078698 0)
(0.0389117 -0.00413437 0)
(0.0395265 -0.000782709 0)
(0.0394913 0.00223242 0)
(0.038885 0.00495397 0)
(0.0377799 0.00742102 0)
(0.0362443 0.00966508 0)
(0.0343413 0.0117036 0)
(0.0321283 0.0135406 0)
(0.0296613 0.0151621 0)
(0.0269961 0.0165243 0)
(0.0241853 0.0175435 0)
(0.0212743 0.0180833 0)
(0.0182848 0.0179351 0)
(0.0151753 0.0168036 0)
(0.0118076 0.0143016 0)
(0.00798436 0.00994436 0)
(0.0044006 0.00257621 0)
(-0.112796 0.475177 0)
(-0.245321 0.331103 0)
(-0.297973 0.194983 0)
(-0.314287 0.0707928 0)
(-0.294924 -0.0184359 0)
(-0.260647 -0.0751672 0)
(-0.221344 -0.106704 0)
(-0.182615 -0.120792 0)
(-0.146984 -0.123566 0)
(-0.115359 -0.119385 0)
(-0.0878761 -0.111187 0)
(-0.064286 -0.100892 0)
(-0.0441874 -0.0897345 0)
(-0.0271665 -0.0785041 0)
(-0.0128477 -0.0676835 0)
(-0.000904563 -0.0575463 0)
(0.00895462 -0.0482237 0)
(0.0170008 -0.0397579 0)
(0.0234742 -0.0321406 0)
(0.0285755 -0.0253329 0)
(0.0324732 -0.0192717 0)
(0.0353195 -0.0138794 0)
(0.0372556 -0.00907625 0)
(0.0384075 -0.00479035 0)
(0.0388812 -0.000959175 0)
(0.0387634 0.00247302 0)
(0.0381298 0.00555672 0)
(0.0370498 0.00833673 0)
(0.0355879 0.0108486 0)
(0.0338036 0.013114 0)
(0.0317499 0.0151394 0)
(0.0294761 0.0169116 0)
(0.0270268 0.0183897 0)
(0.0244392 0.019497 0)
(0.0217354 0.0201109 0)
(0.0189062 0.0200528 0)
(0.0158752 0.019083 0)
(0.0124793 0.0169052 0)
(0.00853052 0.0131523 0)
(0.0045879 0.00673767 0)
(-0.160383 0.644291 0)
(-0.346216 0.404506 0)
(-0.379858 0.223172 0)
(-0.38039 0.0638575 0)
(-0.33954 -0.0432195 0)
(-0.287526 -0.106487 0)
(-0.235176 -0.13836 0)
(-0.187642 -0.149947 0)
(-0.146466 -0.149225 0)
(-0.111624 -0.141452 0)
(-0.0825001 -0.129931 0)
(-0.0582951 -0.116699 0)
(-0.0382228 -0.102999 0)
(-0.021606 -0.089582 0)
(-0.00789187 -0.0768819 0)
(0.00335986 -0.0651271 0)
(0.0125146 -0.0544114 0)
(0.0198867 -0.0447447 0)
(0.0257403 -0.0360902 0)
(0.030289 -0.028384 0)
(0.0337079 -0.0215435 0)
(0.03615 -0.0154759 0)
(0.0377541 -0.010089 0)
(0.0386417 -0.00529891 0)
(0.0389142 -0.00103231 0)
(0.0386542 0.00277561 0)
(0.0379331 0.00618301 0)
(0.036816 0.00924066 0)
(0.0353625 0.0119886 0)
(0.0336266 0.0144527 0)
(0.0316554 0.0166429 0)
(0.0294897 0.018549 0)
(0.0271627 0.020136 0)
(0.0246966 0.021337 0)
(0.0220943 0.022048 0)
(0.0193242 0.0221227 0)
(0.0162898 0.0213747 0)
(0.0128246 0.019587 0)
(0.00875984 0.0164902 0)
(0.00460052 0.011055 0)
(-0.27321 0.86509 0)
(-0.545261 0.483471 0)
(-0.50554 0.234942 0)
(-0.47027 0.0369965 0)
(-0.39431 -0.0854551 0)
(-0.317467 -0.150795 0)
(-0.248649 -0.178838 0)
(-0.19083 -0.184699 0)
(-0.143605 -0.178187 0)
(-0.105497 -0.165278 0)
(-0.0748723 -0.149436 0)
(-0.0502555 -0.132649 0)
(-0.0304192 -0.116041 0)
(-0.0144004 -0.100237 0)
(-0.00146363 -0.0855641 0)
(0.00894742 -0.0721638 0)
(0.0172694 -0.0600664 0)
(0.0238571 -0.0492329 0)
(0.0289957 -0.0395876 0)
(0.0329087 -0.0310357 0)
(0.0357747 -0.0234709 0)
(0.0377459 -0.0167825 0)
(0.0389566 -0.0108637 0)
(0.0395225 -0.00561808 0)
(0.0395387 -0.000961124 0)
(0.0390825 0.00318132 0)
(0.03822 0.00687511 0)
(0.0370106 0.010177 0)
(0.0355079 0.0131317 0)
(0.0337594 0.0157698 0)
(0.0318049 0.0181053 0)
(0.0296764 0.0201333 0)
(0.0273959 0.021826 0)
(0.0249722 0.0231291 0)
(0.0223935 0.0239582 0)
(0.0196128 0.0241987 0)
(0.0165245 0.0237119 0)
(0.012971 0.0223462 0)
(0.00880668 0.0199087 0)
(0.00452394 0.0154073 0)
(-0.408911 1.3521 0)
(-0.844521 0.535297 0)
(-0.683841 0.203257 0)
(-0.580592 -0.025926 0)
(-0.454717 -0.153532 0)
(-0.346572 -0.211964 0)
(-0.258858 -0.229734 0)
(-0.190149 -0.225571 0)
(-0.137043 -0.210495 0)
(-0.0961091 -0.19072 0)
(-0.0644646 -0.169501 0)
(-0.0398725 -0.148537 0)
(-0.0206372 -0.128676 0)
(-0.00551159 -0.110312 0)
(0.0064116 -0.0935953 0)
(0.015794 -0.0785437 0)
(0.0231322 -0.0650951 0)
(0.028813 -0.0531444 0)
(0.0331357 -0.042567 0)
(0.0363283 -0.0332316 0)
(0.0385691 -0.0250047 0)
(0.0400059 -0.0177552 0)
(0.0407664 -0.0113603 0)
(0.0409582 -0.00571037 0)
(0.0406689 -0.000709399 0)
(0.0399689 0.00372605 0)
(0.0389178 0.00766934 0)
(0.0375682 0.0111831 0)
(0.0359669 0.0143171 0)
(0.034154 0.0171067 0)
(0.0321614 0.0195711 0)
(0.030012 0.0217113 0)
(0.0277177 0.0235086 0)
(0.0252764 0.0249214 0)
(0.0226646 0.0258854 0)
(0.0198263 0.0263151 0)
(0.0166539 0.0261121 0)
(0.0130047 0.0251773 0)
(0.00875699 0.0233748 0)
(0.00440798 0.0197282 0)
(0.0261451 -0.291578 0)
(0.0727689 -0.384766 0)
(0.120403 -0.375972 0)
(0.162914 -0.353771 0)
(0.202146 -0.333523 0)
(0.239215 -0.317213 0)
(0.274665 -0.30463 0)
(0.308905 -0.295278 0)
(0.342277 -0.288709 0)
(0.375069 -0.284549 0)
(0.40753 -0.282491 0)
(0.439878 -0.282277 0)
(0.472297 -0.283681 0)
(0.504946 -0.286503 0)
(0.537951 -0.290552 0)
(0.571414 -0.295646 0)
(0.605409 -0.301599 0)
(0.63998 -0.308217 0)
(0.675149 -0.315289 0)
(0.710908 -0.32258 0)
(0.747222 -0.329824 0)
(0.784029 -0.336712 0)
(0.821236 -0.342882 0)
(0.858717 -0.34791 0)
(0.89631 -0.35129 0)
(0.933812 -0.352431 0)
(0.970976 -0.35064 0)
(1.00751 -0.345116 0)
(1.04307 -0.334951 0)
(1.07727 -0.319135 0)
(1.10971 -0.296569 0)
(1.13994 -0.266087 0)
(1.16756 -0.226468 0)
(1.19213 -0.176411 0)
(1.21321 -0.114398 0)
(1.23019 -0.0383255 0)
(1.24172 0.0550345 0)
(1.24408 0.170219 0)
(1.23013 0.313372 0)
(1.18673 0.497569 0)
(1.09177 0.738705 0)
(0.923419 1.03641 0)
(0.721231 1.35841 0)
(0.579678 1.69335 0)
(0.482887 2.05088 0)
(0.379536 2.51162 0)
(0.02582 -0.327525 0)
(0.0708299 -0.422743 0)
(0.116374 -0.409878 0)
(0.157324 -0.384838 0)
(0.195525 -0.3627 0)
(0.231886 -0.345024 0)
(0.266828 -0.331412 0)
(0.300686 -0.321295 0)
(0.333743 -0.314182 0)
(0.366251 -0.309674 0)
(0.39843 -0.307439 0)
(0.430478 -0.307198 0)
(0.462564 -0.308702 0)
(0.494834 -0.31173 0)
(0.527407 -0.316071 0)
(0.560374 -0.321522 0)
(0.593804 -0.327876 0)
(0.627737 -0.334918 0)
(0.66219 -0.342418 0)
(0.697155 -0.350122 0)
(0.732598 -0.357741 0)
(0.768462 -0.364947 0)
(0.804659 -0.371353 0)
(0.841073 -0.376509 0)
(0.877553 -0.379882 0)
(0.913908 -0.380848 0)
(0.949907 -0.378679 0)
(0.985272 -0.372541 0)
(1.01968 -0.361491 0)
(1.05275 -0.344492 0)
(1.08411 -0.320429 0)
(1.11332 -0.288131 0)
(1.13995 -0.246375 0)
(1.16357 -0.193815 0)
(1.18362 -0.128746 0)
(1.19905 -0.0487021 0)
(1.20716 0.0496982 0)
(1.20365 0.171474 0)
(1.1813 0.328926 0)
(1.11351 0.541752 0)
(0.953013 0.835605 0)
(0.759266 1.20789 0)
(0.526968 1.51143 0)
(0.424608 1.78496 0)
(0.372929 2.09917 0)
(0.355823 2.53497 0)
(0.0253865 -0.363025 0)
(0.0686389 -0.459351 0)
(0.112011 -0.442653 0)
(0.151333 -0.415165 0)
(0.188411 -0.391429 0)
(0.223961 -0.372579 0)
(0.258302 -0.358063 0)
(0.291695 -0.347255 0)
(0.324374 -0.339639 0)
(0.356549 -0.334799 0)
(0.388414 -0.332385 0)
(0.420141 -0.332099 0)
(0.451883 -0.333677 0)
(0.48377 -0.336877 0)
(0.51591 -0.341468 0)
(0.548386 -0.347227 0)
(0.581257 -0.35393 0)
(0.61456 -0.361343 0)
(0.64831 -0.369216 0)
(0.682496 -0.377277 0)
(0.71709 -0.385219 0)
(0.752037 -0.392692 0)
(0.787257 -0.399291 0)
(0.82264 -0.404537 0)
(0.858046 -0.407872 0)
(0.893293 -0.40864 0)
(0.928157 -0.406077 0)
(0.962363 -0.399313 0)
(0.995589 -0.387371 0)
(1.02746 -0.369182 0)
(1.05756 -0.343608 0)
(1.08545 -0.309459 0)
(1.11064 -0.265472 0)
(1.13259 -0.210162 0)
(1.15035 -0.141575 0)
(1.16176 -0.0572617 0)
(1.1646 0.046005 0)
(1.15519 0.176738 0)
(1.11849 0.358824 0)
(1.03974 0.705773 0)
(0.890812 1.11088 0)
(0.693012 1.48698 0)
(0.495914 1.71994 0)
(0.321258 1.87209 0)
(0.275172 2.10841 0)
(0.316824 2.50537 0)
(0.024862 -0.397937 0)
(0.0662535 -0.494502 0)
(0.107412 -0.474236 0)
(0.145066 -0.44468 0)
(0.180944 -0.419627 0)
(0.215591 -0.399797 0)
(0.249236 -0.384506 0)
(0.282079 -0.373093 0)
(0.314306 -0.365028 0)
(0.346089 -0.359883 0)
(0.377592 -0.357298 0)
(0.408962 -0.356961 0)
(0.440333 -0.358592 0)
(0.47182 -0.361932 0)
(0.503515 -0.366734 0)
(0.535493 -0.372758 0)
(0.567805 -0.379761 0)
(0.600482 -0.387491 0)
(0.633537 -0.395684 0)
(0.666961 -0.40405 0)
(0.700727 -0.412265 0)
(0.734785 -0.419961 0)
(0.769062 -0.42671 0)
(0.803455 -0.432012 0)
(0.837828 -0.435278 0)
(0.872004 -0.435818 0)
(0.905756 -0.432832 0)
(0.938802 -0.425408 0)
(0.970804 -0.412526 0)
(1.00136 -0.393078 0)
(1.03001 -0.36589 0)
(1.05624 -0.329722 0)
(1.0795 -0.283199 0)
(1.09896 -0.224633 0)
(1.11266 -0.152222 0)
(1.1191 -0.0640857 0)
(1.11782 0.0442619 0)
(1.10308 0.192758 0)
(1.05872 0.481441 0)
(0.933771 0.834699 0)
(0.774544 1.2202 0)
(0.620772 1.58817 0)
(0.472434 1.82694 0)
(0.360225 1.92376 0)
(0.206264 2.11335 0)
(0.307725 2.47131 0)
(0.0242622 -0.432135 0)
(0.0637184 -0.528127 0)
(0.102647 -0.504582 0)
(0.138609 -0.473323 0)
(0.173222 -0.447221 0)
(0.206882 -0.426597 0)
(0.239742 -0.410665 0)
(0.271951 -0.398741 0)
(0.303649 -0.390289 0)
(0.334973 -0.384876 0)
(0.366056 -0.382137 0)
(0.397024 -0.381749 0)
(0.427987 -0.383419 0)
(0.459043 -0.386875 0)
(0.490272 -0.391855 0)
(0.521736 -0.398102 0)
(0.55348 -0.405359 0)
(0.585529 -0.413359 0)
(0.617895 -0.421823 0)
(0.65057 -0.430447 0)
(0.68353 -0.43889 0)
(0.716729 -0.446768 0)
(0.7501 -0.453631 0)
(0.783543 -0.458954 0)
(0.816923 -0.462116 0)
(0.85006 -0.462391 0)
(0.882714 -0.458934 0)
(0.914586 -0.450784 0)
(0.9453 -0.43687 0)
(0.974407 -0.41603 0)
(1.00138 -0.38703 0)
(1.02564 -0.348537 0)
(1.04648 -0.299008 0)
(1.06228 -0.236831 0)
(1.07124 -0.160728 0)
(1.07443 -0.0696091 0)
(1.07109 0.0469966 0)
(1.04554 0.269081 0)
(0.931646 0.56099 0)
(0.786143 0.914516 0)
(0.659715 1.29343 0)
(0.569469 1.65203 0)
(0.490356 1.90392 0)
(0.472577 1.96654 0)
(0.271587 2.17866 0)
(0.339817 2.43067 0)
(0.0236004 -0.465516 0)
(0.0610672 -0.560178 0)
(0.0977623 -0.533659 0)
(0.132017 -0.501042 0)
(0.165311 -0.474139 0)
(0.197909 -0.452903 0)
(0.229903 -0.436465 0)
(0.261395 -0.424128 0)
(0.292486 -0.415359 0)
(0.32328 -0.409724 0)
(0.353883 -0.406855 0)
(0.384393 -0.406423 0)
(0.414903 -0.408126 0)
(0.445492 -0.411678 0)
(0.476224 -0.416807 0)
(0.507151 -0.423241 0)
(0.538311 -0.430711 0)
(0.569726 -0.438939 0)
(0.601405 -0.447631 0)
(0.633342 -0.456471 0)
(0.665516 -0.465104 0)
(0.697886 -0.473128 0)
(0.730385 -0.480072 0)
(0.762917 -0.485382 0)
(0.79534 -0.488402 0)
(0.827462 -0.488362 0)
(0.859023 -0.484365 0)
(0.889688 -0.47539 0)
(0.919032 -0.460302 0)
(0.946542 -0.437868 0)
(0.97162 -0.406766 0)
(0.993626 -0.365519 0)
(1.01131 -0.312531 0)
(1.02247 -0.246741 0)
(1.02842 -0.168354 0)
(1.03118 -0.0740709 0)
(1.03167 0.0943735 0)
(0.926542 0.345216 0)
(0.778777 0.65491 0)
(0.650573 1.00065 0)
(0.569257 1.35173 0)
(0.539116 1.68634 0)
(0.525306 1.94046 0)
(0.571096 2.01895 0)
(0.386058 2.27449 0)
(0.391634 2.40241 0)
(0.0228869 -0.497985 0)
(0.0583231 -0.590617 0)
(0.0927891 -0.561439 0)
(0.125327 -0.527788 0)
(0.157253 -0.500319 0)
(0.18872 -0.478643 0)
(0.219773 -0.461831 0)
(0.25047 -0.449183 0)
(0.280879 -0.440171 0)
(0.311074 -0.434366 0)
(0.341132 -0.431399 0)
(0.371128 -0.430937 0)
(0.401133 -0.43267 0)
(0.431209 -0.436306 0)
(0.461407 -0.441559 0)
(0.49177 -0.448151 0)
(0.522325 -0.4558 0)
(0.553094 -0.464219 0)
(0.584085 -0.473104 0)
(0.615293 -0.482125 0)
(0.646699 -0.490917 0)
(0.678265 -0.499057 0)
(0.709926 -0.506051 0)
(0.741579 -0.511312 0)
(0.773072 -0.514144 0)
(0.804192 -0.513723 0)
(0.834648 -0.509092 0)
(0.864056 -0.499156 0)
(0.891931 -0.482703 0)
(0.917688 -0.458409 0)
(0.940693 -0.424829 0)
(0.960052 -0.380346 0)
(0.973517 -0.32386 0)
(0.981119 -0.255649 0)
(0.986523 -0.176787 0)
(0.997725 -0.0647775 0)
(0.923406 0.170234 0)
(0.775354 0.448964 0)
(0.638322 0.756945 0)
(0.542691 1.06974 0)
(0.496816 1.38093 0)
(0.502454 1.68046 0)
(0.528472 1.92225 0)
(0.563255 2.05189 0)
(0.464784 2.35637 0)
(0.438474 2.38479 0)
(0.0221295 -0.52946 0)
(0.0555008 -0.619409 0)
(0.0877424 -0.587896 0)
(0.118553 -0.553516 0)
(0.149067 -0.525698 0)
(0.179345 -0.50375 0)
(0.209388 -0.486695 0)
(0.23922 -0.473838 0)
(0.268876 -0.464661 0)
(0.298403 -0.458742 0)
(0.327851 -0.455713 0)
(0.357272 -0.455238 0)
(0.386718 -0.457006 0)
(0.416233 -0.460717 0)
(0.445857 -0.466078 0)
(0.475619 -0.472803 0)
(0.505546 -0.480604 0)
(0.535653 -0.489185 0)
(0.565949 -0.498234 0)
(0.596433 -0.507411 0)
(0.627086 -0.516336 0)
(0.657871 -0.524567 0)
(0.688719 -0.531581 0)
(0.719517 -0.536755 0)
(0.750097 -0.539342 0)
(0.780214 -0.538458 0)
(0.809533 -0.533068 0)
(0.837614 -0.521998 0)
(0.863905 -0.50394 0)
(0.88777 -0.477462 0)
(0.908507 -0.440974 0)
(0.92443 -0.393036 0)
(0.93387 -0.33328 0)
(0.940261 -0.264497 0)
(0.947542 -0.183671 0)
(0.915364 0.00906481 0)
(0.779495 0.273331 0)
(0.636519 0.558478 0)
(0.527498 0.840519 0)
(0.460014 1.11523 0)
(0.43679 1.38602 0)
(0.458829 1.65216 0)
(0.50762 1.88735 0)
(0.532828 2.07853 0)
(0.57172 2.33798 0)
(0.499592 2.37055 0)
(0.0213335 -0.559865 0)
(0.0526075 -0.646518 0)
(0.0826253 -0.613 0)
(0.111697 -0.578181 0)
(0.140759 -0.55022 0)
(0.169794 -0.528158 0)
(0.198765 -0.510988 0)
(0.227667 -0.498026 0)
(0.256506 -0.488765 0)
(0.2853 -0.48279 0)
(0.314076 -0.479738 0)
(0.342863 -0.479274 0)
(0.371694 -0.481085 0)
(0.400597 -0.484866 0)
(0.4296 -0.490323 0)
(0.458725 -0.497164 0)
(0.487993 -0.505096 0)
(0.517419 -0.513818 0)
(0.547012 -0.523011 0)
(0.576771 -0.532326 0)
(0.60668 -0.541365 0)
(0.636699 -0.549665 0)
(0.666751 -0.55667 0)
(0.696709 -0.561711 0)
(0.726375 -0.563984 0)
(0.755468 -0.56253 0)
(0.7836 -0.556229 0)
(0.810264 -0.543812 0)
(0.834847 -0.523865 0)
(0.856695 -0.494823 0)
(0.874759 -0.45501 0)
(0.886433 -0.403653 0)
(0.89375 -0.342312 0)
(0.901085 -0.273077 0)
(0.905932 -0.140661 0)