/*--------------------------------*- C++ -*----------------------------------*\
  =========                 |
  \\      /  F ield         | OpenFOAM: The Open Source CFD Toolbox
   \\    /   O peration     | Website:  https://openfoam.org
    \\  /    A nd           | Version:  7
     \\/     M anipulation  |
\*---------------------------------------------------------------------------*/
FoamFile
{
    version     2.0;
    format      ascii;
    class       volScalarField;
    location    "0.025/particle";
    object      internalE;
}
// * * * * * * * * * * * * * * * * * * * * * * * * * * * * * * * * * * * * * //

dimensions      [1 -1 -2 0 0 0 0];

internalField   nonuniform List<scalar> 
800
(
0.00092884720239279
0.000999511048985768
0.00105189732592433
0.00098316630625202
0.00103706819992975
0.000970026603339482
0.00101497438468714
0.000976626537645866
0.0011302282017464
0.00101501620182164
0.00112896223383996
0.00105350898156641
0.000976935339593297
0.00108799194096498
0.000953542710644491
0.00114159813638079
0.000996250216862662
0.00100957941318286
0.00105270638595159
0.00103810776929036
0.00106007278878166
0.000975297099154858
0.000978367674094146
0.00107793818770799
0.00103681525943688
0.00102149057599315
0.000984261395871391
0.00100598008697659
0.00102855203011174
0.00102134492710921
0.000963621592224732
0.000949057444724835
0.00100936596641277
0.00100860512386994
0.000960175527406767
0.00105077697510508
0.00102160254111293
0.000972983944746566
0.00097153162696642
0.000979442407648021
0.000961946028724481
0.00103160783695452
0.00103166173487613
0.000942514394714901
0.00101245765770742
0.00104806077972074
0.00105904738936205
0.000985588482436539
0.000996722467482107
0.001043992285165
0.0010192401170883
0.00097456637462506
0.00106943485956936
0.000982757830763297
0.000977815262408302
0.00102770752509376
0.00109967616383725
0.000990386689276346
0.00105200765841702
0.000978636807001062
0.000998737552274045
0.00103236373959019
0.00102716799671744
0.000939896704690635
0.00096528192003735
0.000999909524693323
0.000926466694871918
0.00106863770292562
0.00104145984558495
0.00102864586152536
0.00106490448678247
0.000960761171365485
0.000973163112929954
0.00106589215079722
0.00103494316230693
0.00101412441858443
0.00100334148602673
0.00108791205814758
0.000988406802446576
0.00105069660204235
0.000985960999115516
0.000981955053224099
0.000988726510147957
0.00100418424843041
0.000920713533187123
0.00100902579288774
0.00111849864977251
0.000974361672524494
0.000977913903237813
0.00103950214905023
0.000927440751678914
0.00106632300672268
0.000924349692643944
0.00103057600735231
0.00105099156115888
0.00100143495915063
0.00102507454356006
0.00100525086453868
0.000969663465142274
0.00105278217535767
0.00103771250988325
0.000986400737271961
0.00100082736151586
0.0010282012531999
0.00105166949809587
0.00104303590739552
0.00105243869036664
0.000980140239584676
0.000977681260502443
0.00105547180238034
0.00105380038829763
0.00100088806329106
0.00106744313390041
0.00105645812200335
0.000979293962046445
0.000991187663733087
0.000996587058775853
0.00106672170688169
0.000976619320440532
0.000979905752779076
0.00102747773916398
0.00105474818884961
0.000985595132044173
0.000986765017125633
0.000969777692535395
0.00096669723063905
0.00098021663677349
0.00102624567102079
0.000980801811109204
0.000943516746462721
0.000966426840713912
0.00102648303617436
0.000950132905122847
0.000981055765648269
0.00101691536297502
0.00105168515764782
0.00101039328614621
0.00101848709747641
0.00104357083482843
0.00104576746994086
0.000974946056377836
0.00101367348109932
0.00101160395713312
0.000994547654393358
0.000948258097252521
0.000997560913180807
0.00103914511123369
0.00102394522351131
0.00109066523500573
0.000989160086536052
0.0010111295378473
0.000994254018388653
0.00103832819264737
0.000988668791705966
0.00104964786741788
0.00101301712170601
0.00108700990948962
0.00101074811663596
0.00102362599670474
0.00106390026415381
0.00105316757121127
0.00105154328680603
0.000962163378262559
0.000961137627404902
0.00107199158091382
0.00101719052468973
0.000904051902384696
0.00100281233556762
0.00105157773498753
0.00102998391804099
0.000963401018364091
0.00100728616627403
0.00104303483093907
0.00107161544048982
0.00101166025846248
0.000942274863064704
0.00105593827864635
0.000968263136040791
0.00103386003455856
0.00105068751030853
0.000959258436956774
0.00099937798736151
0.000991567708803131
0.00104670702037573
0.000983528547240038
0.00107937431915367
0.000999049285627158
0.00104600460378225
0.00107448135148573
0.00102041546769763
0.00102995641101822
0.000866396120736659
0.00104618400755802
0.000945162677322412
0.000973423368490132
0.000977490441240822
0.000936034752295504
0.00101286462321563
0.000935671938528933
0.000923251846420524
0.000979104023424807
0.0010529174654811
0.00105031367968593
0.000974428682600717
0.000964147211821093
0.00098004746876229
0.000996344573500252
0.000988176073306611
0.000994017704441207
0.00105342852976401
0.000994880840880284
0.000976408814015515
0.00101216891310519
0.00108668411369414
0.000973311865478468
0.000965766398688958
0.00104703967162136
0.00102538052632888
0.00105620984371502
0.00102995525711623
0.00102654228246332
0.00103916677124379
0.0010339931231979
0.000950218904992402
0.00103596415010523
0.000953916743076336
0.00109006466868069
0.000994893952168793
0.00102772261751202
0.00108122909172904
0.00104788885305339
0.000967633547464817
0.00100149603657675
0.00101188886619894
0.00100737199321338
0.00102439789325621
0.0010445699493784
0.00100770439919537
0.000988386599780438
0.000944437260935513
0.000929915454556842
0.000921890360508922
0.00107472687385989
0.000993051891671469
0.000997663090254415
0.00102694702891808
0.000992657286856485
0.00108808530946769
0.000936698044729977
0.0010138486446384
0.00110298109358547
0.00102402614534469
0.000945924942185712
0.00102243266624243
0.00106360704443319
0.000966165426491804
0.00105128436577809
0.00104751310813633
0.000989106951923662
0.0010148839003332
0.00110572485609863
0.000996962316572223
0.000997261649715323
0.00105384730524244
0.00102458340833113
0.00103940847408995
0.000928922702931799
0.000977709995313333
0.000906536487626717
0.000989758371709197
0.000910102742383384
0.000906784037723129
0.000848711535930653
0.000867819922576043
0.00083244522802798
0.000836344155961843
0.000775681328088521
0.00072612267334336
0.000723295363319108
0.000700634628908117
0.000662785407302459
0.000606266477691379
0.000618353481603477
0.000655885532787712
0.000585308123084223
0.000596443193295396
0.000568781509483402
0.000535824609772483
0.000512027434672817
0.000471812669640236
0.000472423433745112
0.000484285820943083
0.000409899062967668
0.000386720720967123
0.000389423702864123
0.000365443877884741
0.000366809069536559
0.000318953634422813
0.000351550077694524
0.000365705249288843
0.000321886015251444
0.000317534130480785
0.000329630248938004
0.00033091972578545
0.000321555569673151
0.000277238568216632
0.000308778245177583
0.000334174246412819
0.000268100835160265
0.000291087305817988
0.000292242157861509
0.000306490836766164
0.000296118998733515
0.000266644299206182
0.000327514525290019
0.000290748713637807
0.000314338166229976
0.000300031013930601
0.000313155135943133
0.000295440104232985
0.000317809843846243
0.000316170333879952
0.000333334277178904
0.000294145452446814
0.000346677148711391
0.000291790587621113
0.000289841395398391
0.00028018720183171
0.000304631543979487
0.000288376094344777
0.000301807340855198
0.000322284756932362
0.000252024102730989
0.000336813978683347
0.00030322579781926
0.000336564545503959
0.00031631545601414
0.000258692936697996
0.000249233403497046
0.000332617972181532
0.000309884782233313
0.000245067298074459
0.000264481652283302
0.000237149378620265
0.000133402205398956
8.70607293637782e-05
0.000104001067793163
0.000125307397143776
8.25846187588412e-05
8.6483514065367e-05
0.000105339618944274
0.000117017005852849
0.000132377862055123
0.000105579660565094
0.000112859317848098
0.000104395909711201
0.000108716113989038
9.6149997426297e-05
0.000101261676283467
0.000111411224898127
7.71632104654898e-05
0.000120641121233635
0.000108855982724982
0.00011650355478373
9.47567432178422e-05
8.60702098599356e-05
0.000113913032159226
0.000102029759658505
0.000119189267869306
0.000121304860426311
8.52684323957686e-05
7.71976634221348e-05
0.000110978459201005
8.9091933154683e-05
0.000107936332154763
0.000112060908493532
6.65423126634384e-05
0.000114732896825262
0.000113811065195591
0.00010499626008143
0.000114907177808136
9.51289143957486e-05
7.66573447696803e-05
9.8823310558039e-05
0.000113718043612986
0.000119315915816965
0.000100651926714537
0.000123330810759023
0.000106835944482241
0.000102215263139032
0.000104581415450743
0.000101859442494564
0.000114856708730402
0.000121595390769777
0.000110027045416311
8.98170516907159e-05
8.67223813639336e-05
0.000105154020612184
9.63827027902915e-05
0.000108398991848019
0.000103049166761236
9.64912586961017e-05
9.5811701972376e-05
0.000102567198714604
0.000105354709510999
8.91039282365515e-05
8.51169723948724e-05
9.39508982832137e-05
0.000100584488483323
0.00011858830227996
8.12774671608205e-05
9.55937214289564e-05
0.000104433618341515
9.83090942600659e-05
8.51422463878988e-05
0.000109755036763941
0.000101880300868242
9.04056871384046e-05
8.65987630387207e-05
0.000102264199650725
0.000113843658871156
9.33502599655599e-05
0.000110331397620129
0.000120503197504331
8.98256982997578e-05
9.61835275852035e-05
0.000110046885566341
8.66356727037764e-05
7.15942675675331e-05
7.9059245748256e-05
9.9375135464533e-05
9.59635946670002e-05
0.000100400211706014
0.000102313080685409
9.05336839090363e-05
0.00011491730812064
9.64498805462775e-05
8.84565128997725e-05
0.000115983524621776
9.4006662430768e-05
0.00010307899409506
0.000120831081617426
0.000109596763005552
0.000123814553556038
9.20597449625828e-05
9.839015649744e-05
0.000108916001940215
8.43530705409786e-05
0.000111600197758696
0.000114289648897283
0.000117835094828675
9.3775056033152e-05
0.000108261049614474
8.6047922664622e-05
9.91892040258687e-05
8.99838627652444e-05
0.000110922985602716
0.000102796342414311
0.000102887048991611
0.000100364394173425
0.000112278289307394
9.40302346217858e-05
8.50168699135416e-05
0.000100227312128793
8.6349879645258e-05
0.000111362347905177
0.000100817259592872
0.000126561991641275
0.000100708046972591
9.91193777271891e-05
8.71730615585691e-05
0.000124908435083935
8.68676240231195e-05
9.42826106623028e-05
8.90287260379307e-05
0.000104939027678047
9.2379990039119e-05
0.000111346799027473
0.000114783198203299
9.30938605832404e-05
0.000101242470632899
0.000108384014685148
0.000119642065486561
0.000100732529654306
0.000115643918105374
9.27887101955659e-05
8.64771976056658e-05
9.96229561501005e-05
9.2235094876604e-05
0.00010777592547193
0.000110313278755464
0.000100706008655953
0.000113476220201353
9.59405215754247e-05
0.000110559520752349
8.82569573699929e-05
8.06739533401673e-05
8.94337463847695e-05
9.9024797295181e-05
8.85627016825501e-05
0.00010412936196023
0.000116292606387209
0.000118680877484091
0.000109427276169884
9.28704878807005e-05
8.01538188783297e-05
0.000108529628874746
0.000111673954550039
8.51130218630444e-05
8.98298184288062e-05
0.000123366843287809
0.000109851210793006
0.000108026317414883
9.772906180317e-05
8.77862955126517e-05
9.53875511452932e-05
0.000105062976887232
0.000108100253948406
0.000107622606527365
9.46740718129806e-05
0.000106344778515463
8.71244560323826e-05
9.07539956546706e-05
0.000111618264375367
0.000113636698804124
8.99649269859469e-05
0.000105582876751504
0.00010837220351466
8.99226578071358e-05
0.000121461840510844
0.000113539497254594
9.60601880484783e-05
0.000100891511562029
9.96361095107522e-05
0.000115682850880584
9.35757454721022e-05
9.67219107066118e-05
8.92938088333076e-05
9.44112185972682e-05
0.000113712116609048
0.000105332294505866
0.000109080203770901
8.79018247148395e-05
0.000113577938880277
0.000105501020027079
0.000113322881076916
0.000106630477473028
0.000116425200414925
0.000110789763294119
8.55768220654667e-05
8.23459605818608e-05
8.42076892688546e-05
0.000100661003165124
0.000105771263076322
9.72531233847178e-05
7.62623277518368e-05
9.15234568664188e-05
9.78375597375205e-05
0.000114710947837573
9.53561369079111e-05
7.72465102614431e-05
8.95309734342166e-05
0.000119594856747202
0.000102697811817492
0.000108804548072686
0.000102502430658571
0.000103731643552874
9.69313736388168e-05
0.000108831814416053
9.60543339040341e-05
9.27275875392837e-05
0.00011316644079446
8.33141255843632e-05
9.22221285689888e-05
9.37269196055902e-05
9.7784163918998e-05
0.000112201983439148
8.93000037637158e-05
9.10741751781551e-05
9.66826036636e-05
0.000109661434787877
0.000119556720401972
0.000114731153331957
0.000106775012422585
0.000104547043915947
9.7245525495726e-05
8.43294859053376e-05
8.64425771234421e-05
0.000116859768585927
0.000105092471421676
0.000101655181942931
0.000109552402678135
9.25632618567249e-05
0.000124586072697796
0.000111450390884162
0.00010369296889399
0.000116965521120444
8.62817687445425e-05
9.77420835939586e-05
9.72370996023546e-05
9.49424810627708e-05
0.000107206371216077
0.000103683532755162
8.60717369757401e-05
9.48943135712365e-05
0.000102441991799206
8.79471011955095e-05
0.00010981914313333
9.55734379886382e-05
0.000133275713182357
0.000102743786894052
0.000104000932647317
9.13809267173194e-05
8.01560870419229e-05
0.000118370820091343
8.4066688888541e-05
9.6795707973332e-05
8.24408307506923e-05
0.000103226407549696
8.38804714247074e-05
0.000108929261150945
0.00010259776983136
0.000105869272411846
8.93907152413251e-05
9.70627340660751e-05
9.43424812026073e-05
8.5680844309503e-05
8.67198880302815e-05
9.18912105832962e-05
0.000107488689525376
0.000106430842377929
8.43201218486612e-05
0.000119333892475701
0.000108849793568042
8.54794893186312e-05
7.95741520222393e-05
9.8319473002753e-05
9.92356827257283e-05
0.000118458032795444
0.000104343019847898
9.23728303899787e-05
8.79987212304454e-05
9.89037392459264e-05
0.000122279286554601
9.47781148341685e-05
9.37795833788563e-05
8.09451765802085e-05
8.46796356384938e-05
8.45997979606788e-05
9.16397897067242e-05
8.90980209495956e-05
0.00012818044543894
0.000102371387635797
9.57798140487102e-05
9.29498011432826e-05
8.83174639414852e-05
0.000119289114675464
0.000118292621947265
8.28955988777813e-05
8.75639362251111e-05
9.54238488826162e-05
9.30706316722813e-05
8.2163161393326e-05
8.94089482757263e-05
9.76819439942903e-05
9.54224617544766e-05
8.54572812067492e-05
0.000103509714302027
9.88244158069571e-05
0.000110790121561947
9.52425261388907e-05
9.09693704749964e-05
7.73896398427671e-05
0.00010822841772631
0.000108999066168778
8.31981063335693e-05
8.94918480819751e-05
0.000106944552852822
9.60699166622882e-05
9.550548000645e-05
0.000119024934382733
0.000102915050331245
0.000109810633813135
8.55654880545647e-05
0.000101069612891358
0.000109455801064534
8.78427059320348e-05
0.000104638389753641
9.96708521199561e-05
9.07158518711973e-05
9.28433985411585e-05
9.84578576051119e-05
0.000115868274335878
9.88372681158638e-05
9.66305259926643e-05
9.4623881451516e-05
8.640769165274e-05
0.000104501561162013
0.000111580502355745
0.000107638855444466
0.000105684174686898
0.000115822097025765
0.000118857548461123
9.71920276298004e-05
9.40755876545772e-05
9.10794879526017e-05
0.000104219519147874
0.000104161714680247
9.68172731969409e-05
8.60784434575457e-05
0.000125165592079868
8.50405140909731e-05
0.000116520252200701
9.72414789254264e-05
9.40651015266605e-05
0.000113946742305839
8.01505973764643e-05
9.99310304569823e-05
0.000101848086749173
8.23728593389315e-05
9.68779901425101e-05
0.000115113576090872
0.000107116713769686
8.42539738909291e-05
9.65128864413912e-05
7.74857801267906e-05
9.36226855339928e-05
8.19758352479456e-05
0.000109693851968732
8.12389595247828e-05
7.80632136519576e-05
0.000105095230984133
8.63953429029788e-05
8.87326978198298e-05
0.000109343850364906
8.21849976973501e-05
0.000108784573801294
0.00011461191980628
8.98523350318588e-05
0.000110440307537722
0.000102291178016135
8.0727628528517e-05
0.000103150512854409
0.000105570484635548
0.000107407791175058
8.41729817798496e-05
9.5660799235565e-05
0.000132553331245269
9.99229422271871e-05
0.000107528901662739
9.80140815086706e-05
9.79209440483937e-05
9.14268158706777e-05
0.000105108506095388
0.000124354196245655
0.000104114113771404
8.10195294520573e-05
0.000115254122100133
0.000104894022256192
8.75093697039709e-05
9.87274944056845e-05
0.000114077620782316
0.000100826325833015
7.88440967453802e-05
9.73584199303905e-05
9.1047712605508e-05
0.000105033084558599
9.68513065009455e-05
0.000100875001538747
9.60843181848724e-05
0.000110370890084002
0.000112763291318896
8.29016887903098e-05
8.85554866086566e-05
9.69181161277053e-05
9.86654911992026e-05
0.000100021655230025
0.00010794569363524
0.00011386734002176
9.26583136243366e-05
0.000107545310057363
0.000109072241177459
8.97810357047072e-05
0.000118980500251112
9.49504145867864e-05
9.07583814475974e-05
0.000108963956059896
0.000111786846405859
0.000125267992902232
0.000105564356374137
9.08336320687481e-05
8.41952456911261e-05
9.04410728838445e-05
9.06397712109363e-05
9.00971507895695e-05
8.8351491290039e-05
7.96187385394336e-05
0.000116147257555678
8.38521075943033e-05
8.51928810493978e-05
)
;

boundaryField
{
    partSide
    {
        type            symmetry;
    }
    partBound
    {
        type            zeroGradient;
    }
    nullDims
    {
        type            empty;
    }
}


// ************************************************************************* //
