/*--------------------------------*- C++ -*----------------------------------*\
  =========                 |
  \\      /  F ield         | OpenFOAM: The Open Source CFD Toolbox
   \\    /   O peration     | Website:  https://openfoam.org
    \\  /    A nd           | Version:  7
     \\/     M anipulation  |
\*---------------------------------------------------------------------------*/
FoamFile
{
    version     2.0;
    format      ascii;
    class       volScalarField;
    location    "0.025/particle";
    object      rhoM;
}
// * * * * * * * * * * * * * * * * * * * * * * * * * * * * * * * * * * * * * //

dimensions      [1 -3 0 0 0 0 0];

internalField   nonuniform List<scalar> 
800
(
0.000894660000000021
0.000989520000000006
0.000977430000000024
0.00101835000000003
0.00103788000000002
0.000976500000000015
0.000980220000000015
0.000973710000000015
0.00103044000000002
0.00100347000000002
0.00108531000000002
0.00105090000000002
0.00100626000000002
0.00102486000000002
0.000956970000000014
0.00101370000000002
0.00100998000000002
0.000978360000000015
0.00104625000000002
0.000990450000000015
0.00103230000000002
0.000992310000000015
0.00101556000000002
0.00103323000000002
0.000956970000000014
0.000975570000000015
0.000988590000000015
0.000982080000000015
0.00104625000000002
0.000979290000000015
0.000994170000000015
0.000948600000000014
0.000983940000000015
0.00100440000000002
0.000970920000000041
0.00108159000000002
0.000976500000000015
0.00100068000000002
0.000953250000000014
0.000958830000000014
0.000964410000000014
0.000966270000000015
0.00101742000000002
0.000965340000000014
0.00101184000000002
0.00101091000000002
0.00106857000000002
0.000983940000000015
0.00101463000000002
0.00101277000000002
0.000978360000000015
0.00101649000000002
0.00100440000000002
0.000986730000000015
0.00100254000000002
0.00102858000000002
0.00107694000000002
0.00100905000000002
0.00102579000000002
0.00102021000000002
0.000989520000000015
0.000996030000000015
0.00101649000000002
0.000970920000000015
0.000943020000000014
0.00101928000000002
0.000965340000000014
0.00104718000000002
0.000970920000000015
0.00102021000000002
0.00102114000000002
0.000988590000000015
0.00100812000000002
0.00101277000000002
0.000983940000000015
0.000996030000000015
0.000974640000000015
0.00107880000000002
0.000981150000000015
0.00101184000000002
0.000963480000000014
0.000988590000000088
0.000986729999999997
0.000985800000000033
0.000986729999999997
0.000984870000000033
0.00102672
0.000989520000000033
0.000979289999999997
0.00103881000000004
0.000970919999999997
0.00102114000000003
0.000982079999999997
0.000994170000000034
0.00100719
0.00102765000000003
0.00102858
0.00100254000000003
0.000965339999999997
0.00105090000000004
0.000986729999999997
0.000998820000000034
0.00100254
0.000991380000000033
0.00104346
0.000998820000000034
0.000989519999999997
0.00100905000000003
0.000981149999999997
0.00102207000000003
0.00102579
0.000980220000000033
0.00100533
0.00100626000000003
0.000981149999999997
0.00100626000000003
0.000965339999999997
0.00101835000000003
0.000981149999999997
0.000996030000000034
0.000999749999999997
0.00100905000000003
0.000992309999999997
0.000969060000000033
0.000930929999999996
0.000969060000000033
0.000970919999999997
0.00102207000000003
0.000983939999999997
0.000955110000000032
0.000953249999999997
0.00103323000000004
0.000974639999999997
0.00100161000000003
0.00101184
0.00101463000000003
0.00102021
0.00101091000000003
0.00104718
0.00102021000000003
0.00100719
0.000972780000000033
0.000981149999999997
0.00100998000000007
0.000931860000000014
0.00104439000000004
0.00101463
0.00107694000000002
0.00107694000000002
0.000998820000000034
0.000937439999999997
0.000991380000000015
0.00100068000000002
0.000974640000000033
0.00100998
0.000986730000000015
0.00109182000000002
0.000997890000000034
0.00102486
0.000985800000000015
0.00102951000000002
0.00105555000000004
0.000987659999999997
0.000963480000000014
0.00104718000000002
0.000996030000000034
0.000941159999999997
0.00101463000000002
0.00103788000000002
0.000982080000000033
0.000975569999999997
0.000990450000000015
0.000990450000000015
0.00103788000000004
0.000977429999999997
0.000932790000000014
0.00101742000000002
0.000958830000000032
0.00103044
0.00102951000000002
0.000990450000000015
0.00100812000000003
0.001023
0.00103323000000002
0.000982080000000015
0.000997890000000034
0.00100626
0.00100905000000002
0.00102114000000002
0.000973710000000033
0.00100161
0.000931860000000014
0.00100998000000002
0.000992310000000034
0.000976499999999997
0.000984870000000015
0.000948600000000014
0.000981150000000033
0.000933719999999997
0.000955110000000014
0.00102021000000002
0.000999750000000034
0.00104253
0.000961620000000014
0.000986730000000015
0.000966270000000033
0.00099231000000007
0.000990449999999997
0.00101370000000003
0.00103323
0.000962550000000032
0.000994169999999997
0.00101835000000003
0.00104718
0.00103788000000004
0.000975569999999997
0.00102300000000003
0.00101091
0.00102114000000003
0.00100626
0.00101277000000003
0.00102207
0.00100998000000003
0.000991379999999997
0.000995100000000034
0.000940229999999997
0.00107415000000004
0.00100068
0.00101370000000003
0.00105369
0.00100626000000003
0.000983009999999997
0.00102300000000003
0.00100998
0.000985800000000033
0.00102486
0.00101742000000003
0.00100533
0.000966270000000033
0.00100998
0.000949530000000032
0.000948599999999997
0.00105648000000004
0.000969989999999997
0.000995100000000034
0.00100254
0.00100626000000003
0.00103788
0.000944880000000032
0.00100719
0.00104439000000004
0.00100161
0.000956040000000032
0.00102207
0.00106113000000004
0.000971849999999997
0.00103602000000004
0.00101649
0.000981150000000033
0.000979289999999997
0.00102300000000003
0.00100905
0.000977430000000033
0.000987659999999997
0.000995100000000034
0.00101184
0.000943950000000032
0.000977429999999997
0.000949530000000067
0.00100068000000002
0.000942090000000031
0.000923489999999997
0.000845370000000012
0.000900240000000013
0.000877920000000029
0.000857459999999996
0.000820260000000011
0.000810030000000011
0.000823050000000027
0.000779339999999996
0.00074679000000001
0.000704940000000009
0.000708660000000022
0.000705869999999996
0.000674250000000008
0.000682620000000008
0.00066216000000002
0.000651929999999996
0.000616590000000007
0.000577530000000006
0.000587760000000017
0.000577529999999995
0.000517080000000005
0.000504060000000004
0.000521730000000015
0.000482669999999995
0.000478020000000004
0.000451980000000003
0.000487320000000013
0.000481739999999995
0.000452910000000003
0.000440820000000003
0.000423150000000018
0.000440819999999987
0.000465930000000004
0.000407340000000002
0.000406410000000017
0.000446399999999987
0.000409200000000002
0.000413850000000002
0.000397110000000017
0.000447329999999987
0.000409200000000002
0.000395250000000002
0.000443610000000019
0.000425009999999987
0.000411990000000002
0.000420360000000002
0.000402690000000017
0.000396179999999987
0.000411990000000002
0.000352470000000001
0.000370140000000015
0.000318989999999989
0.00030504
0.00029946
0.000261330000000009
0.000277139999999989
0.000272489999999999
0.000266909999999999
0.000272490000000009
0.00025946999999999
0.000239009999999999
0.000255749999999999
0.000260400000000009
0.000289229999999989
0.000283649999999999
0.000258539999999999
0.000243660000000008
0.00025016999999999
0.000272489999999999
0.000230639999999999
0.000239940000000008
0.000211109999999992
0.00013578
0.00012555
0.000136710000000005
0.000140429999999995
0.00011811
0.00011439
0.000137640000000005
0.000141359999999995
0.00015438
0.00012555
0.000139500000000005
0.000136709999999995
0.00014136
0.00012648
0.000134850000000005
0.000121829999999996
0.00011439
0.0001302
0.000130200000000015
0.000138570000000005
0.000119039999999996
0.00010788
0.00011718
0.000118110000000005
0.000153449999999994
0.00012648
0.00011997
0.000116250000000005
0.000140429999999995
0.00011067
0.00012648
0.000125550000000005
9.57899999999965e-05
0.00013206
0.00013578
0.000117180000000005
0.000132989999999995
0.00012369
0.00011253
0.000116250000000005
0.000131129999999995
0.00013113
0.00012834
0.000133920000000005
0.000132989999999995
0.00012648
0.0001116
0.000120900000000005
0.000146009999999995
0.00013764
0.00013113
0.000124620000000005
0.000134849999999995
0.00012741
0.00010974
0.000136710000000005
0.000119969999999996
0.00011997
0.00010881
0.000112530000000004
0.000124619999999996
0.00011346
0.00011811
0.000106020000000004
0.000133919999999995
0.00012834
0.00011439
0.000118110000000005
0.000130199999999995
0.00010695
0.00012183
0.000132060000000005
0.000122759999999996
0.00011625
0.00011904
0.000127410000000005
0.000125549999999996
0.0001116
0.00013671
0.000135780000000005
0.000125549999999996
0.00013113
0.00012834
0.000109740000000004
0.000110669999999996
0.00011253
0.00013485
0.000113460000000004
0.000126479999999996
0.00012834
0.00012648
0.000133920000000005
0.000116249999999996
0.00011811
0.00014322
0.000117180000000005
0.000127409999999996
0.00014136
0.00013299
0.000133920000000005
0.000116249999999996
0.00012741
0.00014601
0.000116250000000005
0.000137639999999995
0.00011625
0.00013299
0.000125550000000005
0.000123689999999996
0.00011532
0.00012927
0.000129270000000005
0.000130199999999995
0.00012276
0.00012648
0.000125550000000005
0.000136709999999995
0.00012462
0.00010788
0.000127410000000005
0.000119969999999996
0.00012648
0.0001209
0.000134850000000005
0.000123689999999996
0.00013206
0.000101370000000004
0.00011625
0.000115319999999996
0.00012276
0.00013671
0.000123690000000005
0.000111599999999996
0.00012462
0.000127410000000005
0.00011253
0.000123689999999996
0.00012648
0.00014043
0.000126480000000005
0.000119969999999996
0.00012462
0.000121830000000005
0.00012555000000001
0.000121830000000005
0.000132989999999995
0.00012741
0.000137640000000005
0.00013299
0.000122759999999996
0.00012927
0.00011439
0.000116250000000005
0.000122759999999996
0.0001302
0.000114390000000004
0.00012555
0.000126479999999996
0.00014043
0.00012648
0.000114390000000004
0.000112529999999996
0.00012834
0.000130200000000005
0.00011532
0.000124619999999996
0.00013206
0.00011346
0.000135780000000005
0.000113459999999996
0.00012369
0.000116250000000005
0.0001209
0.000147869999999995
0.00011718
0.00012648
0.000112530000000004
0.000115319999999996
0.00011346
0.000111600000000004
0.00013578
0.000114389999999996
0.00013764
0.00012462
0.000104160000000004
0.000126479999999996
0.00013299
0.000124620000000005
0.00013299
0.000130199999999995
0.00013671
0.00011718
0.000132990000000005
0.000119969999999996
0.00011811
0.000148800000000006
0.00012462
0.000119039999999996
0.00011811
0.0001395
0.000123690000000005
0.000144149999999995
0.00012555
0.000128340000000005
0.00012648
0.000119969999999996
0.00012555
0.00011253
0.000139500000000005
0.000119039999999996
0.00013113
0.000105090000000004
0.00012927
0.000123689999999996
0.00013206
0.00011718
0.000101370000000004
0.000127409999999996
0.00014601
0.000124620000000005
0.00013206
0.000123689999999996
0.00012741
0.00011253
0.000127410000000005
0.000121829999999996
0.00012276
0.000139500000000005
0.0001209
0.000117179999999996
0.00012927
0.00012741
0.000132990000000005
0.000122759999999996
0.00011997
0.000114390000000004
0.00013392
0.000139499999999995
0.00012369
0.00013857
0.000110670000000004
0.000126479999999996
0.00013485
0.000103230000000004
0.00013578
0.000127409999999996
0.00014322
0.00013764
0.000111600000000004
0.000140429999999995
0.00012183
0.000119970000000005
0.00013485
0.000110669999999996
0.00012276
0.00011811
0.000117180000000005
0.000119969999999996
0.00013764
0.000106950000000004
0.00011532
0.000122759999999996
0.0001209
0.00013764
0.000115320000000004
0.000145079999999995
0.00011067
0.000131130000000005
0.000120900000000009
0.000115320000000004
0.000147869999999995
0.0001209
0.000127410000000005
0.00011811
0.000127409999999996
0.0001116
0.00013113
0.000118110000000005
0.000116249999999996
0.00011997
0.000128340000000005
0.00011811
0.000117179999999996
0.00012183
0.00012462
0.000134850000000005
0.000119039999999996
0.00011625
0.000134850000000005
0.00011904
0.000134849999999995
0.00011532
0.00012834
0.000124620000000005
0.000130199999999995
0.00012927
0.000119970000000005
0.0001302
0.000125549999999996
0.0001302
0.00012369
0.000116250000000005
0.000124619999999996
0.00011439
0.000121830000000005
0.00013671
0.000122759999999996
0.00014136
0.00011997
0.000129270000000005
0.000112529999999996
0.00011346
0.000131130000000005
0.00012741
0.000117179999999996
0.00012648
0.0001209
0.000129270000000005
0.000116249999999996
0.00010695
0.000119040000000005
0.00012927
0.000130199999999995
0.0001302
0.00011439
0.000147870000000006
0.000131129999999995
0.00012276
0.000103230000000004
0.00012927
0.000139499999999995
0.0001116
0.00011904
0.000146940000000006
0.000133919999999995
0.00012648
0.000128340000000005
0.00012834
0.000132989999999995
0.00012741
0.00013206
0.000131130000000005
0.000122759999999996
0.00013113
0.000123690000000005
0.00012648
0.000134849999999995
0.00013578
0.0001488
0.000126480000000005
0.000138569999999995
0.00013485
0.000118110000000005
0.0001302
0.000140429999999995
0.00012369
0.00012741
0.000144150000000006
0.000141359999999995
0.00012648
0.000118110000000005
0.00012276
0.000133919999999995
0.0001116
0.00012183
0.000106950000000004
0.000141359999999995
0.00011253
0.000133920000000005
0.00012462
0.000115319999999996
0.00014043
0.00010509
0.000131130000000005
0.000128339999999996
0.0001116
0.000120900000000005
0.00013392
0.000127409999999996
0.00011532
0.00011439
0.000105090000000004
0.000128339999999996
0.00011253
0.000125550000000005
0.00011346
9.57899999999965e-05
0.0001209
0.0001116
0.000127410000000005
0.000119969999999996
0.00012741
0.000119970000000005
0.00013392000000001
0.000114390000000004
0.000141359999999995
0.00013857
0.000112530000000004
0.00011997
0.000118109999999996
0.00013299
0.00011439
0.000123690000000005
0.000144149999999995
0.00013392
0.000119970000000005
0.00011718
0.000122759999999996
0.0001209
0.00012555
0.000133920000000005
0.000135779999999995
0.00011718
0.000129270000000005
0.00012276
0.000115319999999996
0.00013671
0.00012648
0.000114390000000004
0.000100439999999996
0.00011811
0.000121830000000005
0.00014694
0.000122759999999996
0.00013113
0.00013857
0.000140430000000005
0.000137639999999995
0.00011067
0.000117180000000005
0.0001302
0.000125549999999996
0.00012741
0.00014043
0.000134850000000005
0.000122759999999996
0.00014322
0.000130200000000005
0.00011253
0.000124619999999996
0.00011904
0.00011997
0.000146010000000006
0.000144149999999995
0.00013485
0.000114390000000004
0.00011253
0.000125549999999996
0.00011625
0.0001302
0.000104160000000004
0.000118109999999996
0.00010974
0.000126480000000005
0.00011625
0.000139499999999995
)
;

boundaryField
{
    partSide
    {
        type            symmetry;
    }
    partBound
    {
        type            zeroGradient;
    }
    nullDims
    {
        type            empty;
    }
}


// ************************************************************************* //
