/*--------------------------------*- C++ -*----------------------------------*\
  =========                 |
  \\      /  F ield         | OpenFOAM: The Open Source CFD Toolbox
   \\    /   O peration     | Website:  https://openfoam.org
    \\  /    A nd           | Version:  7
     \\/     M anipulation  |
\*---------------------------------------------------------------------------*/
FoamFile
{
    version     2.0;
    format      ascii;
    class       scalarField;
    location    "0.002/lagrangian/dsmc";
    object      Ei;
}
// * * * * * * * * * * * * * * * * * * * * * * * * * * * * * * * * * * * * * //


4715
(
2.89181999e-21
1.255062102e-22
9.102388712e-22
1.500803469e-21
1.814323899e-20
3.834068563e-21
4.062974354e-21
8.720504715e-21
2.704196937e-21
2.260713755e-21
3.298464801e-21
3.865744421e-21
1.371704343e-21
5.829175016e-21
4.599132368e-21
3.260481827e-22
2.848069617e-21
3.074357267e-21
6.412469447e-22
4.284255707e-21
1.370491021e-20
4.76416422e-21
7.982311895e-21
2.131785107e-21
5.036357373e-21
5.283270588e-21
4.248935428e-21
9.294589442e-21
2.322237106e-21
4.474735478e-21
2.911974915e-21
1.612031434e-21
5.381728707e-21
7.863609523e-22
2.414188946e-20
2.175458435e-21
2.591095117e-21
3.979398209e-21
5.177462309e-22
2.664474397e-21
2.846675151e-21
4.155288252e-21
1.792043957e-20
1.189065058e-21
3.188595597e-21
2.905135631e-22
1.3004626e-20
1.780634899e-22
1.061642288e-21
1.976699589e-21
5.719860032e-21
1.954210263e-23
1.133053698e-21
7.637496104e-21
4.41041165e-21
8.638712142e-21
3.839025132e-21
1.343800925e-20
4.142215418e-22
4.696800265e-21
4.956911424e-21
4.659350183e-21
2.299327566e-21
1.83149854e-22
4.769016466e-22
5.890616526e-22
2.811367933e-20
8.190006962e-22
5.173853932e-21
9.092775423e-21
3.321267226e-21
1.058343182e-20
7.942026481e-21
1.534594813e-21
8.335733045e-22
7.216928966e-21
2.493145478e-21
2.117975753e-21
6.938689895e-21
4.740445721e-21
2.670853973e-21
4.448773046e-21
8.272105746e-21
6.848829432e-22
9.194762081e-21
1.045436576e-21
5.934609351e-21
2.183243281e-21
4.70842258e-21
1.636451447e-20
3.424009398e-21
6.077057078e-21
9.967998176e-21
2.461592844e-21
6.254285933e-21
8.130635849e-21
1.088191189e-20
2.085861372e-21
1.174636709e-21
1.837024591e-20
1.601568605e-21
9.827936113e-22
1.157329845e-21
9.084662246e-22
1.70550228e-21
4.638643521e-21
2.570572237e-21
2.302292032e-21
8.842042304e-21
7.810271233e-21
2.401575498e-21
7.794681793e-21
4.734482689e-21
1.075373606e-20
3.816844013e-21
2.154696566e-21
4.578464661e-22
1.679915745e-21
1.208550508e-21
1.307657992e-21
1.269330179e-20
2.046233085e-21
1.724404132e-21
1.664173049e-21
1.927729268e-21
1.556269888e-21
3.061498868e-22
4.81582247e-21
4.222489257e-21
3.588101233e-21
7.711806949e-21
1.629452317e-21
6.972309929e-21
1.697384304e-21
3.00803285e-21
1.418421373e-21
4.992259932e-21
9.544283855e-22
4.535003533e-22
2.869848576e-21
2.111861511e-21
2.605606176e-21
8.922329112e-21
2.198232006e-21
1.423926703e-22
6.633684512e-22
4.313457131e-21
3.13397066e-22
1.700605396e-21
1.596000823e-21
4.033304156e-21
3.892166052e-21
3.394622737e-21
9.045483111e-22
1.121096302e-21
4.605755569e-22
1.357282637e-21
1.736822272e-21
3.87872924e-21
2.186585548e-21
5.022351162e-21
1.704956834e-21
9.742086355e-22
3.954108501e-21
1.304223585e-21
5.407731916e-22
4.304554881e-23
4.400982045e-21
2.487660035e-21
6.474897686e-22
7.837951355e-21
5.88323846e-22
1.515798249e-21
8.405097711e-23
3.354425853e-21
2.669296538e-21
6.452970267e-21
3.060827297e-21
5.713409334e-21
2.003705498e-21
1.664151378e-21
1.006538594e-20
1.304624284e-22
2.376557649e-21
2.267157848e-21
7.676586609e-21
1.114032216e-20
2.676344402e-21
4.313880137e-21
1.588299729e-20
1.341914447e-21
3.021042689e-21
2.691430669e-21
2.576529792e-21
1.101432605e-20
3.36215614e-21
4.70986973e-21
6.284033748e-21
2.317879624e-21
1.209442565e-20
3.678445924e-21
8.183734848e-21
3.924756975e-22
2.286839927e-21
1.866768877e-21
1.153645911e-20
7.190241706e-21
1.897882677e-21
3.407169476e-21
1.963519773e-21
1.40634296e-21
1.916566366e-21
2.164175147e-20
5.184557015e-21
1.809965859e-20
9.529426596e-25
2.084734176e-21
2.32315773e-23
1.187582458e-20
1.864240168e-21
5.754996427e-22
1.106932522e-20
2.756719522e-22
4.030255769e-22
4.859346964e-21
1.781052191e-20
1.057362618e-21
3.889756586e-22
6.492851789e-21
1.569225504e-22
4.249485832e-21
1.03028393e-20
4.670642105e-22
2.57536493e-21
5.235814059e-22
2.710236627e-21
4.201680048e-22
8.006576587e-22
3.607635641e-21
4.511406054e-21
2.768895555e-21
1.00363357e-21
1.01802963e-21
5.001827841e-21
4.362441003e-22
6.936091308e-21
4.168602356e-22
8.428984888e-22
5.140474899e-21
6.966252331e-21
7.686047393e-21
1.12369709e-20
1.618099352e-21
5.142334124e-21
3.478018173e-21
8.255095951e-22
2.918921937e-21
1.18265776e-20
4.596880525e-21
1.074999982e-20
5.208447248e-21
2.264191231e-21
2.247202547e-21
5.082758225e-21
1.238735739e-21
2.156128464e-21
5.118913331e-21
6.514931257e-21
1.142078771e-21
5.903640364e-22
1.063658955e-21
4.528642445e-21
1.04544805e-20
3.547317798e-21
1.514743313e-21
2.684462571e-21
1.411592561e-21
4.279558297e-21
1.698379768e-21
9.74081435e-21
3.415424017e-21
3.630844538e-21
4.381413947e-21
1.698832783e-21
7.950116222e-22
2.240299345e-23
4.039374369e-21
3.018849337e-22
7.024079103e-21
1.390280669e-20
5.064227521e-21
4.284388783e-21
6.295561811e-21
6.337196463e-21
5.252628488e-22
9.738806432e-21
2.278978236e-21
1.704333899e-21
2.460361254e-21
1.466024308e-21
5.208956575e-21
2.992697855e-22
1.057612056e-20
7.740150183e-21
1.114206269e-20
3.104959784e-21
1.098391574e-20
2.599329083e-22
2.635923628e-23
1.003719221e-20
6.55971395e-21
2.259770532e-22
5.226442552e-23
8.031603807e-22
2.284340844e-21
1.612260857e-21
1.05429821e-20
1.036151201e-21
1.162171228e-20
4.421335061e-21
3.462604149e-21
5.523623755e-21
7.659364025e-22
2.011096886e-21
4.861030986e-23
1.04299576e-21
1.038659363e-20
5.434748673e-21
2.531110073e-21
1.43622262e-22
8.315482549e-21
8.060120177e-21
1.330119182e-21
4.060287444e-21
4.330196255e-22
1.899915634e-21
6.874979364e-22
2.03364969e-21
3.257631787e-21
8.985184624e-21
2.412622158e-21
2.077151133e-21
1.368646929e-21
2.884168078e-21
1.814291393e-21
2.322013816e-21
1.392670673e-20
8.671724649e-21
2.336570783e-22
2.307240316e-21
1.557493587e-20
5.41316908e-22
4.352997047e-21
7.253643611e-21
9.22524337e-21
4.558219372e-22
5.475434739e-22
7.016768751e-23
2.743479045e-21
9.644999979e-22
2.825660958e-22
1.129099919e-20
4.775863927e-21
2.909634507e-21
1.955020675e-21
1.174508722e-21
2.513847023e-21
1.449008478e-21
6.273380573e-22
9.903006092e-22
5.504875078e-22
1.78522972e-21
7.320387795e-22
1.424301076e-20
1.911166989e-20
3.40199822e-22
3.033209422e-21
2.387297155e-21
2.818853268e-21
7.922915055e-21
4.820114365e-21
1.826320317e-21
7.746021441e-22
2.874033339e-21
2.443167168e-21
1.646924251e-22
1.061271696e-20
2.622049875e-24
2.02067064e-21
5.534483045e-21
1.097926361e-20
2.733359062e-21
4.032822263e-21
4.426414185e-23
2.955743058e-22
6.286736802e-21
2.658564067e-21
1.515807577e-21
5.702556822e-22
6.967020282e-21
1.039624856e-20
4.730294039e-21
8.405660144e-21
5.133707236e-21
1.074632187e-21
2.287805676e-21
2.530941947e-21
2.509749124e-21
7.876501086e-21
2.983848134e-22
5.745059628e-21
4.019253921e-21
6.274325267e-21
1.805978399e-21
2.67476325e-20
1.583574539e-20
1.310570548e-21
1.704773986e-21
3.569955399e-21
1.481014885e-21
5.068393997e-22
4.334621324e-21
1.775381932e-21
4.105567409e-22
7.137409929e-21
2.486921417e-20
3.617054098e-21
1.061595133e-20
2.12505004e-21
5.19001075e-21
5.088293282e-21
4.198778113e-21
3.066656574e-21
7.475323316e-21
4.525990278e-21
1.16249472e-21
4.818863232e-21
5.896661651e-21
1.373425068e-23
5.389947742e-23
2.268076125e-21
5.395815225e-21
2.211926389e-21
6.454533514e-21
1.004859022e-20
2.186711544e-21
3.957579878e-23
4.995521053e-22
4.308848421e-21
4.576975014e-21
7.759595428e-22
1.795262405e-21
6.155087246e-21
2.091800389e-21
8.770840339e-22
1.486392718e-20
7.32894925e-22
1.125987433e-21
7.143822996e-21
1.477470255e-20
3.427146043e-21
1.203704235e-27
9.036154309e-23
1.738264823e-21
1.61596813e-21
2.679800802e-21
1.005452453e-20
5.676484739e-21
5.868004572e-21
3.236083263e-21
8.418127895e-21
2.66755379e-21
1.605171165e-21
1.140481435e-20
1.235325279e-21
7.674608e-22
5.862688506e-21
5.470524717e-21
1.653015321e-21
1.986078896e-21
5.578801341e-21
2.598703382e-21
5.285415327e-21
2.045172601e-21
1.086806508e-21
1.497791106e-20
3.952950751e-21
1.793670311e-21
2.350344666e-21
2.721673092e-22
7.30054839e-21
1.039743769e-20
1.098225794e-21
2.38947026e-21
5.080950448e-22
2.152240166e-21
3.552061691e-21
1.219501074e-20
9.802692506e-22
4.314311767e-21
6.233497543e-21
3.46131409e-21
7.268092181e-21
1.644537105e-20
4.046043844e-22
4.843189461e-21
1.396505534e-21
6.568389743e-21
1.840336939e-21
6.047450973e-23
5.721510325e-22
2.902555344e-22
4.193172111e-22
7.917240274e-22
1.360109077e-21
6.593624347e-21
6.84530813e-21
2.911057501e-21
6.434535747e-21
4.172011339e-21
5.813805827e-21
7.212194034e-21
9.724605862e-21
5.004851059e-21
6.737719251e-23
1.180915078e-21
3.13200481e-22
1.570408919e-20
4.212623888e-21
2.7370129e-21
7.170588212e-21
5.594415298e-22
3.575882784e-21
9.455869991e-23
6.758645553e-22
6.263676579e-22
4.34034407e-21
4.850621927e-21
6.623366447e-21
6.707760727e-21
4.269795815e-21
4.715542942e-21
2.134710196e-21
2.659409669e-21
2.705357434e-21
9.604592062e-21
5.471006788e-23
3.574148568e-21
2.868366913e-21
6.156410996e-23
3.953291069e-21
1.663212869e-21
1.880137908e-21
1.078139243e-21
1.342863059e-20
2.137754562e-20
6.763478992e-21
7.039929004e-22
9.350725408e-22
2.217805038e-21
1.291896008e-20
3.31044547e-21
1.900056775e-20
3.172838954e-21
4.780800367e-21
4.91670104e-22
1.774369022e-21
4.357459205e-21
3.858117961e-21
1.085134982e-21
1.883160493e-22
3.95518729e-21
3.568385932e-23
3.187288377e-21
4.152480303e-21
2.36701688e-21
3.261003746e-22
3.882273192e-21
3.403813407e-21
2.637359405e-21
4.658648832e-23
9.804683807e-21
3.442928729e-21
2.862555459e-22
8.653747083e-22
8.999752257e-23
8.066717532e-21
8.566655066e-21
9.579666693e-21
1.943857392e-21
6.408492958e-21
1.305790857e-20
3.662928565e-21
2.111350123e-21
1.97148083e-22
2.929593864e-21
8.985177558e-22
1.130398412e-20
2.750736813e-21
1.011226067e-21
1.694495739e-21
5.255531328e-21
2.153602614e-21
7.871308928e-21
1.715951213e-21
1.112154358e-22
3.864974305e-21
5.373423844e-21
9.139766393e-21
4.250995114e-22
1.508499305e-20
1.528015867e-21
6.980013467e-21
2.351621764e-21
1.763594733e-22
1.251946316e-20
3.282880936e-21
8.197105283e-21
2.171070885e-22
6.274615297e-21
3.960452088e-21
1.698306979e-21
2.033762357e-23
2.020028839e-21
1.116011837e-20
3.667936805e-21
5.32724036e-21
3.346615679e-21
2.865722308e-21
2.711753705e-21
3.674634533e-23
4.089145542e-21
6.49578008e-21
1.284035124e-20
5.457145719e-21
6.926751834e-21
8.276292083e-22
4.45039687e-22
1.766376997e-20
5.27569678e-21
4.364400636e-21
5.913815549e-21
7.71547762e-21
1.391948507e-21
5.337730304e-21
2.435830698e-21
3.489303023e-21
5.6644567e-22
8.417726311e-22
5.810498513e-22
3.487499176e-21
4.205230261e-21
1.978271723e-22
8.042528613e-21
7.93812201e-21
3.595712169e-23
1.229047476e-20
3.768939111e-21
6.113356695e-22
1.130527916e-20
3.442706132e-21
9.43209843e-21
1.266997296e-21
3.697294753e-21
1.314942698e-21
2.845674751e-21
2.515706283e-21
3.382683334e-21
4.307034286e-21
3.823056268e-21
3.732820285e-21
2.168961472e-21
1.014033994e-21
1.475200777e-21
4.470719893e-22
3.635936794e-21
2.25955866e-22
6.023862662e-21
7.028714471e-23
6.709463715e-22
2.126228106e-22
4.026642155e-21
4.044252839e-21
2.118414e-23
6.336432227e-21
2.378769252e-21
4.627423985e-21
4.730629095e-21
4.259521347e-21
5.69278377e-21
3.580006333e-21
7.571687525e-22
9.532041689e-21
8.820390671e-21
1.450884542e-21
1.08971279e-20
8.517210933e-21
2.893397138e-21
9.29607224e-21
7.030888747e-21
8.694247206e-22
4.442828197e-22
9.36536803e-22
2.982935965e-21
3.360497131e-21
2.90169144e-20
4.327649939e-22
2.112813846e-20
5.656287851e-21
8.238251708e-22
6.972143791e-22
4.337507863e-21
8.961918508e-21
2.795886991e-21
3.449612826e-21
9.574744034e-22
6.5491768e-21
3.945860458e-22
9.907480272e-21
3.495759239e-22
4.180061023e-21
1.991497321e-21
4.312431213e-21
2.200041901e-21
1.338259648e-21
5.915147183e-21
5.115950872e-21
1.15856658e-20
7.078924992e-21
1.052160404e-21
8.33847997e-22
3.542150218e-21
4.616341641e-21
1.273314747e-21
4.105950264e-21
4.490184506e-21
1.002768496e-21
8.560396759e-21
7.22993102e-21
9.005188157e-21
4.326037188e-21
6.971663545e-21
1.630614734e-22
3.723272653e-21
3.563312632e-21
6.0806286e-21
4.337899785e-21
1.675929548e-20
2.322933057e-21
2.590332911e-21
1.393987266e-21
3.513026131e-23
4.715168931e-21
1.337862323e-21
4.726797402e-21
3.323393524e-21
1.538770095e-21
2.328822588e-21
1.078253747e-21
1.216227833e-21
7.135464637e-21
2.412856323e-21
5.367396496e-21
3.944604758e-22
6.561075141e-21
2.738000449e-24
3.064598814e-21
7.938374978e-21
9.954008131e-22
6.593351731e-21
3.15247234e-21
3.696186507e-21
1.140521279e-20
4.631733223e-21
1.687429792e-21
2.200455679e-21
2.098436096e-20
2.554781793e-21
4.840598716e-22
1.258361689e-21
4.727737236e-21
2.81499023e-21
4.181770462e-21
6.976796107e-21
2.912705596e-22
4.751157535e-21
2.118329279e-21
1.010329023e-21
4.358182566e-21
4.128488228e-21
2.317441789e-21
2.5678815e-20
4.00201018e-22
6.581144225e-21
1.044955236e-21
5.483369643e-21
4.167825687e-25
8.190579888e-22
3.501890193e-21
1.426589145e-22
4.749512861e-21
4.66685989e-21
8.972165823e-21
6.253615481e-21
1.900574607e-21
3.313892965e-21
4.3802591e-21
1.241165369e-21
1.302242918e-20
5.701791774e-22
4.067814309e-21
2.650058447e-21
4.707793526e-21
2.18389468e-21
4.526169046e-21
5.707895768e-23
4.466457759e-21
2.524408757e-21
1.280412104e-20
6.075137503e-21
1.076822226e-21
4.955536508e-21
1.286413021e-21
8.650059711e-21
4.67034609e-22
1.260496622e-21
2.86180061e-21
9.951626989e-21
5.624617459e-21
3.107012643e-21
2.395063646e-21
2.079502168e-22
1.027782879e-20
4.134528297e-21
5.480256773e-21
1.488455999e-20
1.365763497e-21
1.328382888e-21
1.441181209e-21
1.151158098e-21
1.390807651e-22
9.916451859e-22
5.013402362e-21
7.299854545e-22
5.651239915e-21
2.036941158e-21
1.167043465e-20
1.103054121e-21
1.035201116e-20
3.153004162e-21
7.475558231e-21
9.356635587e-22
5.572374879e-21
6.801440152e-21
2.304424941e-21
3.764439719e-21
5.625155784e-21
8.698637306e-21
7.885482246e-22
2.264215117e-22
4.051163004e-21
2.344124681e-21
8.453529959e-21
1.75721981e-22
9.147444072e-21
1.805303971e-21
2.187146178e-22
1.588462206e-21
3.249227951e-22
7.374640777e-21
1.116691245e-20
9.130175682e-23
1.405742638e-21
1.618534905e-20
4.485633903e-21
6.741726829e-21
1.05777811e-20
6.412337649e-21
9.955981959e-21
5.509401478e-22
4.330436711e-21
2.907567438e-21
3.446336447e-21
2.688770646e-21
2.018102375e-20
3.017419946e-21
2.160806298e-20
7.928817186e-22
4.940533662e-21
8.24801103e-21
6.045751265e-22
1.432110153e-21
3.285959859e-21
4.81845534e-21
2.3015155e-21
3.243133049e-21
2.346712288e-21
2.493515058e-21
1.063111723e-22
4.505131968e-21
4.88543064e-21
6.980287842e-21
1.194610572e-21
1.407945851e-21
1.82232078e-21
8.18682479e-22
3.821042534e-21
2.293387484e-21
1.448302943e-20
7.759885106e-21
5.229788072e-21
3.31053921e-22
3.015076889e-21
8.382282159e-21
6.458307253e-21
3.473140996e-22
5.04027745e-21
1.716570011e-21
1.969219965e-21
1.612530503e-20
7.95688226e-21
8.801640141e-21
3.696255784e-22
1.017582467e-20
6.596094949e-21
5.720062888e-22
1.148643976e-21
8.220626692e-21
1.47685821e-21
8.166647944e-21
3.306794179e-21
3.059956285e-21
2.135713527e-21
7.307202671e-21
3.110205441e-21
5.643727954e-22
8.850034312e-22
2.202903926e-21
1.186890915e-21
4.433028629e-21
2.398609829e-21
3.517320779e-21
2.795375204e-21
1.279285724e-21
8.269397987e-22
9.040659393e-21
2.955425207e-21
1.563072393e-20
2.888541366e-22
2.872397714e-21
2.535632518e-21
1.089209283e-20
6.614229036e-21
2.111025199e-21
6.269664017e-23
2.105762471e-20
2.079310304e-21
4.530974712e-21
7.549104852e-21
4.71363605e-22
1.061201684e-21
3.202259634e-21
1.029438961e-20
5.861205113e-21
4.434324113e-21
4.552002058e-21
4.723572086e-21
7.059824627e-21
1.637444194e-21
2.303499025e-22
3.403152129e-22
1.253480204e-21
3.900480148e-21
2.364912431e-21
8.278769379e-21
1.082646311e-21
1.745260642e-21
4.387449451e-22
5.103675057e-21
5.450612901e-21
5.067775702e-21
1.174033285e-20
5.849569411e-22
1.597458771e-21
9.318468464e-21
1.046380619e-20
3.818215103e-22
6.691145118e-21
2.302341771e-21
1.735903392e-21
2.518482612e-21
1.531380558e-21
6.11517963e-21
5.126727723e-22
6.582206841e-22
2.897483927e-21
8.722265794e-21
2.256304386e-22
1.963441739e-20
3.006413597e-22
2.361400734e-23
2.87863703e-21
7.459434692e-21
6.299070161e-21
4.469274451e-21
2.875973153e-21
4.576068443e-22
7.999585149e-22
9.063446078e-21
2.050773319e-22
1.116722641e-20
8.582892462e-21
3.523400174e-21
6.337026642e-21
7.610609538e-21
1.522562674e-21
3.690639477e-22
8.939497452e-21
8.14264074e-21
3.54926532e-22
1.683881931e-21
1.062827156e-20
1.513245259e-20
1.043535315e-21
7.426732706e-21
2.18539366e-21
1.428034778e-20
1.656124037e-21
5.593421837e-21
5.80918341e-21
7.758065259e-21
9.376270807e-21
1.531487273e-21
3.600569251e-21
1.079705989e-20
3.421481709e-21
6.227223857e-21
5.977070051e-21
4.504325621e-21
1.304977807e-21
3.654343902e-21
1.890906092e-21
4.883613831e-22
3.578231068e-21
3.837506906e-21
2.838213741e-21
1.100485023e-21
3.356135007e-21
2.174173936e-21
9.914687288e-22
5.251064362e-21
7.29034931e-21
2.734192658e-21
9.822725139e-22
1.601037381e-20
2.837789786e-21
1.328586605e-21
6.788246952e-21
5.199611236e-21
1.35914461e-21
2.495984278e-24
5.86811882e-21
7.56437691e-21
1.385974163e-21
6.496315996e-21
1.132846726e-20
6.100504252e-21
4.988343769e-21
6.296323323e-21
5.087658033e-21
3.522018448e-21
6.28619599e-21
1.717742089e-21
1.161699701e-22
7.956222199e-22
6.075525741e-21
2.530051464e-21
4.8445709e-21
3.602716338e-21
2.460989854e-21
4.184401988e-21
7.146961978e-22
1.63405384e-22
7.035954498e-21
1.978510877e-21
5.898039674e-21
9.004670279e-21
1.894339196e-21
6.00333393e-22
1.988317458e-21
2.220944454e-21
2.254317595e-21
2.057055632e-21
6.161717484e-21
1.46202933e-20
5.54508709e-21
4.378339465e-21
2.593459888e-21
2.992796716e-21
7.417511628e-21
1.215691857e-21
5.929244855e-22
3.338833159e-21
1.201686274e-22
1.022527994e-21
5.732892272e-21
1.225305662e-20
1.050017022e-20
1.494992609e-20
2.667455927e-21
2.639963947e-21
2.274643738e-21
8.44072202e-22
4.435321646e-21
1.88451477e-21
1.00977042e-21
2.91709275e-21
5.602257706e-21
9.33469416e-23
2.178876897e-20
4.256148531e-21
6.765011181e-21
1.266123806e-20
2.478022199e-20
6.654595738e-21
8.02515064e-21
3.187369528e-21
4.783552294e-21
4.300056723e-21
2.572840467e-21
2.077107212e-21
8.748895235e-21
4.703245002e-21
3.842061713e-22
2.642611177e-21
7.471767814e-21
1.09436367e-21
3.370194327e-21
1.031479624e-20
5.327361788e-22
3.510726679e-22
1.199875196e-21
1.462291027e-22
2.645023353e-21
3.169820394e-21
5.011272602e-22
4.193070909e-22
1.605302568e-21
1.614374582e-21
1.59975011e-21
1.423957597e-21
4.150349674e-21
7.244783289e-21
4.897673833e-21
4.62691346e-21
3.619256654e-21
6.21353599e-21
1.204888695e-21
2.757486214e-22
6.242460073e-21
2.228510528e-20
4.705368329e-21
1.168555703e-20
1.849194202e-21
3.072966807e-21
7.272142447e-21
9.361861469e-21
2.931175242e-21
4.31560929e-22
2.639976795e-23
4.304973436e-21
3.469744328e-22
1.589815321e-20
1.387418842e-20
4.430077245e-21
1.617253889e-21
5.071948118e-21
1.275760841e-21
4.754745593e-21
8.384220227e-21
6.493873632e-21
2.564587313e-21
1.657727536e-21
6.26118403e-21
8.52270234e-21
2.429194255e-21
1.630314731e-21
1.485459775e-21
5.479105348e-21
1.445528068e-20
8.937010095e-21
4.629866606e-21
7.568153415e-22
3.213849098e-22
4.767263906e-21
8.588040206e-21
1.522478541e-21
4.213730332e-22
7.93084588e-22
4.450242075e-21
1.712976128e-21
1.296877789e-21
1.855246803e-21
3.776701496e-21
5.301635349e-21
1.504895338e-21
6.502384316e-21
6.844131581e-21
1.350260155e-21
1.978765605e-20
5.985525266e-21
7.521736185e-21
3.435960953e-21
5.711748879e-21
1.373494795e-21
4.326026443e-22
7.710425348e-21
2.021443477e-21
1.0581863e-20
1.186097084e-20
2.434859517e-21
7.017069752e-21
3.118111442e-21
1.201263698e-21
1.506316212e-21
2.101300008e-21
5.503183348e-21
1.101078179e-21
4.211765446e-21
9.522950027e-22
6.009286236e-21
3.266925214e-21
1.991903165e-21
7.536530512e-21
7.465321385e-22
1.231235174e-20
1.057883076e-21
5.91368718e-23
1.535362414e-21
4.624939985e-21
3.515622462e-21
2.549931387e-21
3.974261741e-21
1.843900011e-23
7.04331525e-21
1.287946028e-20
5.058161507e-21
9.210823213e-21
2.55884099e-21
2.839128326e-21
5.193280789e-22
8.764654668e-21
1.592222334e-21
7.822031941e-21
2.597899629e-21
2.388875595e-21
1.258214566e-20
3.831997746e-21
7.9017609e-21
1.199341081e-21
1.119857141e-21
1.067202038e-20
7.380388677e-21
7.138306488e-21
6.064344815e-21
8.402834219e-21
3.664188952e-21
6.493163016e-23
1.121083641e-20
3.978269183e-21
1.21961855e-20
3.469761968e-21
1.599416077e-21
3.138257627e-21
2.014908927e-21
2.439943655e-21
4.221491536e-23
6.695061958e-21
5.481447554e-22
2.450146963e-21
7.796309209e-21
1.79724388e-21
4.289535228e-21
5.936654748e-22
1.102294584e-21
2.246550268e-21
8.498649219e-21
6.715079552e-21
2.959681418e-21
4.223665544e-21
3.334882138e-21
4.096595129e-21
7.315246726e-21
1.615824279e-20
1.593155349e-21
1.471363894e-21
5.22621418e-23
9.13704317e-21
7.594628672e-21
4.221995238e-21
5.688674249e-21
4.508299372e-21
5.867405994e-21
2.143633049e-21
9.605691751e-22
7.354623551e-21
8.652103632e-22
7.943638974e-21
3.745085386e-21
5.688441307e-21
3.100440395e-22
1.020320736e-21
3.484918059e-22
1.047977862e-20
1.139253681e-22
1.634491622e-21
8.275094842e-22
9.382812164e-21
9.717485391e-21
4.382865788e-21
1.753883603e-20
3.024675261e-21
5.665969162e-21
1.342871232e-21
1.470507431e-21
1.850777218e-21
4.728820213e-22
1.46567775e-21
1.368455169e-22
8.36558542e-21
2.052408592e-20
4.21747783e-21
2.141861819e-22
3.705009748e-21
8.95022909e-21
5.549458508e-22
5.01223521e-21
7.751661425e-22
3.3439584e-22
1.259171809e-20
8.246858849e-22
1.526832853e-21
2.623555962e-21
8.322893156e-21
8.902365072e-22
4.07272299e-21
1.431891255e-20
4.0353371e-21
1.25027504e-20
7.368472182e-22
5.553102549e-23
4.334588657e-21
1.348193006e-20
2.513953427e-21
2.545711015e-21
7.233208908e-22
2.990159e-21
3.243905558e-21
3.981601541e-22
3.951330181e-21
3.873539095e-21
5.206849521e-21
2.780763432e-21
1.319781104e-21
3.922575631e-21
1.265115335e-20
4.377866835e-21
6.601280095e-22
4.845265964e-21
3.030802794e-21
8.899484697e-21
1.463290428e-20
2.383201328e-21
1.786496428e-21
1.08206134e-21
3.268610972e-21
8.068594083e-21
7.710384745e-21
2.655800552e-21
1.035157202e-21
1.989550155e-23
4.563132219e-21
5.201702532e-21
7.999844452e-21
3.078131006e-21
6.299577504e-22
1.679803523e-20
1.292891323e-20
2.976827397e-22
6.79226324e-21
5.634000988e-21
7.357556122e-21
2.625776852e-21
2.809420052e-21
2.141313944e-21
1.482470447e-21
1.967434141e-21
4.038018773e-22
3.35194678e-21
2.550868535e-21
4.812157607e-21
4.841750359e-22
1.167078018e-21
3.124731815e-21
2.692310939e-21
3.457622414e-21
1.16126303e-21
2.603944166e-21
2.146707248e-21
7.028232916e-21
1.292110125e-21
1.43194491e-20
3.794841859e-21
9.456092619e-22
6.324216092e-22
8.096403072e-21
1.278181287e-20
4.689428419e-24
8.702444058e-21
3.57817142e-21
6.11231631e-21
1.445293526e-21
3.538898425e-21
3.305375144e-21
3.165920997e-21
7.34734009e-22
8.116216397e-22
2.443652222e-21
1.723993672e-21
6.226438104e-21
1.698226782e-21
6.914980687e-21
1.019523302e-21
2.288837305e-22
7.050256178e-24
7.83124264e-21
1.265187688e-20
2.82009984e-22
8.562162669e-22
7.939865804e-21
1.52435549e-21
1.077988572e-20
2.869949315e-21
1.938286869e-21
6.476349172e-21
5.301515225e-21
1.191773011e-20
5.683251723e-21
4.210074203e-24
8.188367436e-21
6.08363672e-21
3.162500014e-20
4.038062334e-22
8.128748961e-22
1.683026207e-21
5.792038343e-21
1.689120045e-20
3.712613672e-21
1.065944969e-21
1.168352865e-21
2.67333096e-21
5.366867273e-21
1.763141296e-20
3.497871428e-21
6.10633719e-21
7.409765099e-21
1.340710051e-20
4.868111933e-21
6.250095036e-22
4.840495214e-23
6.531645185e-22
3.525740839e-22
1.831216658e-21
9.635474396e-21
7.837582002e-22
6.792895853e-21
1.383057434e-20
1.058200492e-21
5.388297689e-21
7.873195231e-21
1.842420544e-20
4.291517127e-23
5.657642994e-21
2.285175101e-21
2.928847715e-22
8.721980478e-21
3.769577856e-21
1.420950085e-22
1.377530763e-22
8.226298759e-21
2.972753482e-21
1.821759228e-21
9.615501214e-22
3.403301639e-21
5.072924849e-21
1.348275104e-21
4.09439435e-21
1.254038962e-21
4.532868831e-21
5.615887271e-21
3.15499494e-21
1.819939688e-21
2.545189003e-22
1.765962811e-21
4.95259991e-21
7.651018144e-21
3.258838224e-21
1.213080909e-20
9.281399911e-21
2.419735472e-21
4.47846098e-21
1.375514386e-21
1.267473102e-20
6.071789888e-21
6.421268842e-21
3.59450953e-21
2.115665102e-21
4.843928366e-21
1.059041171e-21
4.011564806e-21
1.863427278e-21
9.503812206e-21
1.263335213e-21
2.091328919e-21
9.276273905e-22
3.600223475e-21
1.535415439e-21
3.681895121e-21
5.920457278e-22
1.057283837e-21
3.165998775e-21
2.313644805e-22
7.976751285e-22
9.841866455e-22
5.364772961e-21
2.479915409e-21
1.089946055e-22
8.051849739e-21
4.064568951e-21
3.366762224e-21
3.976967285e-21
9.356065332e-22
4.286965303e-21
5.884258772e-21
5.932763228e-21
1.569659608e-20
3.337061742e-21
1.971287103e-21
4.654587101e-21
1.745247652e-21
3.817300764e-21
2.45133337e-21
1.125497728e-20
1.173213006e-20
2.759891666e-21
9.208925106e-21
1.252334882e-21
2.503127312e-21
1.294287041e-22
7.09197197e-21
1.039658422e-20
2.19150256e-21
3.724154911e-21
5.577551307e-21
1.841991577e-21
1.446427399e-21
2.70535157e-21
6.186846628e-22
7.255385251e-21
5.995341519e-21
2.907759582e-21
1.316496287e-21
1.152150163e-21
2.53359944e-21
2.65925395e-21
1.753649521e-21
2.004793984e-21
7.488555299e-22
7.637259936e-22
1.069656271e-20
1.600245792e-20
4.220853015e-21
1.582841827e-21
4.62853652e-21
7.776018538e-21
1.503290562e-21
2.917703157e-21
3.67536697e-21
1.669596044e-21
2.409852343e-21
9.395509073e-23
6.667500395e-21
4.631015515e-21
8.96161738e-21
4.953510168e-21
1.773692979e-20
9.85361167e-21
1.143749218e-21
1.405015463e-21
3.892767378e-21
3.428240131e-22
5.756887174e-21
3.869621182e-21
4.011497271e-21
6.704968759e-21
1.037939369e-21
2.249333088e-21
1.040287407e-21
1.45011558e-22
1.54618881e-21
4.606363522e-23
2.03752467e-21
7.142754704e-22
1.380258418e-21
6.368982922e-21
5.544128954e-21
8.613101384e-22
9.016275349e-21
3.633443342e-21
4.530058807e-23
2.222321905e-22
1.383207244e-22
1.915868269e-21
4.154371032e-21
2.000445952e-20
2.192874138e-21
4.359530857e-22
1.104632739e-20
2.802407845e-22
2.468319245e-21
1.126471823e-20
4.929545508e-21
3.644637804e-21
1.565946657e-21
4.585815707e-21
7.07502472e-21
4.904300983e-22
3.826916266e-21
8.446336544e-22
1.509536988e-21
3.272763966e-21
5.19373229e-22
3.540412145e-21
1.73907037e-21
8.406517135e-21
1.543544327e-21
2.629448634e-21
1.077763164e-21
2.047007326e-21
3.141164818e-21
1.373799851e-20
7.215992397e-22
1.174105143e-21
6.601114728e-21
3.458140188e-21
6.985657094e-21
3.091482409e-21
4.497660818e-21
3.037445e-21
5.315324199e-21
8.457195364e-22
1.131267616e-21
1.286643453e-21
1.050877173e-21
9.325647575e-21
2.429107517e-21
6.197291861e-21
1.061267375e-21
3.383808608e-21
1.107904284e-21
1.099072532e-20
3.487009262e-21
4.088991616e-21
9.229259897e-21
2.982230698e-21
3.492992882e-21
6.557302775e-21
1.195381568e-20
3.597511712e-22
9.401921035e-22
6.804612197e-21
4.758009572e-22
3.486668343e-21
5.062157974e-21
1.689332847e-21
4.89053132e-22
2.026681393e-21
4.325683538e-21
1.207799475e-21
7.340084981e-23
6.052619885e-21
4.117504173e-21
4.533258672e-21
8.265497204e-22
5.88900051e-21
7.555752622e-21
4.231015505e-21
3.430867761e-21
3.339890639e-22
2.555223329e-21
2.353943361e-21
2.908784121e-21
3.063187671e-21
1.152038233e-20
6.675137189e-21
4.169389938e-21
3.409481452e-21
6.595517145e-21
4.298256203e-22
2.987251593e-21
5.0202394e-22
1.541777023e-22
4.543868744e-22
7.874838979e-22
4.42698236e-22
1.335590116e-21
3.603015329e-21
9.919431056e-22
7.222731639e-21
4.637414563e-21
4.281518727e-21
1.901270689e-21
1.013548373e-20
6.002952667e-21
3.60297051e-21
2.624938211e-21
7.196632656e-21
4.825767061e-21
8.784071646e-21
5.580674176e-21
1.240300249e-21
3.440349613e-21
2.454416626e-20
4.481273349e-21
1.080374977e-20
2.223568228e-21
1.144346421e-20
4.585974609e-22
3.668961583e-21
1.583892626e-20
4.118076636e-21
6.262156667e-22
6.364094596e-21
1.422608854e-21
5.70182919e-21
6.376013058e-22
3.864280186e-21
5.041428782e-21
3.129899359e-21
7.105653151e-21
1.670898595e-22
3.042567472e-20
1.287083777e-20
4.217847362e-21
3.099790197e-22
1.149603362e-20
4.175696926e-21
5.920656139e-21
8.533275991e-21
7.247202913e-21
6.492215309e-21
4.507361138e-21
2.238260367e-21
4.195388262e-21
5.521042782e-21
2.608577986e-22
1.324425775e-21
7.354742666e-22
5.538811049e-21
2.446568435e-21
4.22069578e-22
8.719552332e-21
1.865153426e-23
2.528134232e-21
4.350107487e-21
7.586405078e-22
4.082435144e-21
5.347589656e-21
4.702673706e-21
4.276185748e-21
6.246395487e-21
7.736468999e-21
2.899194917e-21
4.152944182e-22
1.186920536e-21
1.832154182e-21
4.285538961e-21
5.43985787e-22
3.551447458e-21
1.112909182e-21
5.085834658e-21
3.023789559e-21
5.801191988e-21
4.013530662e-21
5.041103795e-22
5.7356936e-21
2.086262802e-21
6.088415124e-22
5.556616531e-21
5.677270723e-21
3.782637631e-21
4.50548664e-22
6.354646104e-22
4.382080558e-22
7.590893351e-22
3.034939176e-21
1.60786183e-21
2.892889548e-21
1.880581549e-21
8.612661299e-22
6.231454983e-22
1.556578525e-20
6.231744437e-23
6.322609821e-21
9.267023126e-21
2.405942449e-22
2.655540449e-21
2.599794578e-21
6.0896104e-21
1.171372423e-21
1.68991453e-20
8.15013606e-21
3.780630252e-21
1.370684902e-21
1.155134052e-20
6.276065869e-22
1.950871606e-20
7.406917839e-21
1.505993522e-22
3.253466508e-22
3.302421519e-21
6.322695329e-21
3.993948753e-22
5.237406451e-21
4.546864481e-21
5.491101053e-22
1.815379346e-21
1.346784537e-21
6.500415491e-22
9.048157284e-22
7.085860651e-23
9.86102501e-22
9.581924983e-21
5.069238537e-21
3.954758949e-21
7.489076424e-21
3.552014464e-22
5.463111354e-22
2.904838108e-21