/*--------------------------------*- C++ -*----------------------------------*\
  =========                 |
  \\      /  F ield         | OpenFOAM: The Open Source CFD Toolbox
   \\    /   O peration     | Website:  https://openfoam.org
    \\  /    A nd           | Version:  7
     \\/     M anipulation  |
\*---------------------------------------------------------------------------*/
FoamFile
{
    version     2.0;
    format      ascii;
    class       labelField;
    location    "0.002/lagrangian/dsmc";
    object      origId;
}
// * * * * * * * * * * * * * * * * * * * * * * * * * * * * * * * * * * * * * //


5129
(
85482
85867
85956
85988
86007
86015
86031
86097
86101
86114
86162
86181
86184
86197
86285
86314
86351
86360
86376
86377
86386
86436
86444
86461
86485
86508
86536
86538
86550
86570
86572
86593
86597
86599
86605
86612
86615
86618
86624
86629
86630
86653
86656
86675
86703
86711
86716
86731
86744
86766
86784
86785
86791
86795
86797
86805
86819
86824
86826
86827
86830
86835
86860
86866
86868
86869
86870
86873
86877
86881
86882
86886
86893
86894
86896
86904
86912
86915
86919
86946
86949
86960
86964
86967
86971
86974
86978
86981
86982
86986
86989
86990
86991
86994
86996
86999
87000
87001
87007
87011
87014
100855
87042
87043
87049
87054
87057
87058
87062
87063
87065
87069
87070
87071
87072
87073
87074
87076
87079
87085
87103
101266
87117
87122
87123
87131
87133
87137
87147
87151
87152
87156
87161
87168
87169
87170
87171
87172
87173
87176
87182
87186
87187
87189
87207
87208
87225
87228
87229
87230
87235
87237
87239
87246
87250
87252
87255
87256
87258
87260
87262
87264
87273
87276
87278
87280
87301
87303
87308
87309
87312
87313
87316
87319
87320
87324
87326
87327
87329
87330
87331
87333
87335
87338
87339
87340
87342
87344
87345
87347
87348
87355
87360
87365
87367
87370
87373
87387
87390
87395
87396
87397
87400
87402
87403
87405
87406
87409
87410
87414
87415
87416
87417
87425
87427
87428
87429
87430
87431
87433
87434
87435
87436
87437
87438
87439
87440
87441
87442
87445
87446
87447
87448
87449
87450
87451
87452
87456
87461
87465
87466
87467
87473
87476
87477
87483
87484
87485
87486
87488
87490
87491
87495
87496
87497
87499
87500
87502
87505
87507
87509
87510
87514
87517
87519
87520
87521
87524
87525
87526
87527
87528
87529
87531
87532
87533
87534
87536
87537
87539
87543
87545
87546
87548
87553
87557
87561
87562
87563
87566
87568
87572
87573
87574
87575
87576
87577
87581
87582
87583
87587
87588
87589
87591
87592
87593
87596
87597
87598
87603
87606
87607
87608
87609
87611
87612
87613
87614
87618
87619
87621
87623
87625
87628
87631
87632
87633
87634
87635
87636
87649
87654
87655
87656
87659
87661
87662
87663
87664
87666
87668
87672
87676
87677
87679
87681
87683
87684
87685
87686
87687
87688
87689
87690
87691
87692
87693
87694
87695
87696
87698
87701
87702
87703
87704
87705
87707
87708
87710
87712
87713
87716
87717
87720
87722
87740
87741
87748
87751
87753
87754
87756
87757
87758
87759
87760
87761
87763
87764
87765
87766
87768
87769
87771
87772
87773
87774
87775
87777
87781
87783
87785
87786
87787
87789
87790
87791
87792
87795
87796
87798
87800
87801
87804
87806
87807
87808
87813
84490
99836
101167
87817
87819
87821
87824
87825
87826
87828
87829
87830
87833
87835
87836
87838
87839
87840
87841
87842
87843
87844
87845
87847
87848
87849
87850
87852
87854
87855
87856
87857
87858
87859
87860
87861
87862
87863
87864
87865
87867
87869
87870
87871
87872
87873
87874
87875
87878
87879
87880
87883
87885
87888
87889
87890
87891
87892
87893
87895
87898
87901
87904
87906
87909
87910
87911
87915
87916
87917
87918
87919
87920
87921
87922
87923
87924
87925
87926
87927
87928
87929
87930
87931
87933
87934
87935
87936
87937
87938
87940
87943
87944
87945
87946
87947
87948
87949
87950
87951
87952
87953
87954
87955
87956
87958
87959
87960
87961
87962
87964
87966
87967
87968
87969
87970
87974
87975
87977
87981
87983
99423
101261
87994
87997
87998
88000
88003
88004
88006
88008
88009
88010
88011
88014
88015
88017
88018
88019
88020
88021
88022
88023
88024
88025
88026
88027
88028
88030
88031
88032
88033
88034
88035
88036
88037
88039
88041
88042
88045
88046
88047
88048
88050
88051
88052
88054
88055
88057
88058
88059
88060
88061
88063
88064
88065
88067
88068
88069
88070
88072
88081
88087
88089
88091
88093
88094
88096
88097
88098
88099
88100
88101
88102
88106
88107
88108
88109
88111
88112
88113
88114
88115
88116
88117
88118
88119
88120
88122
88123
88124
88125
88126
88127
88128
88129
88130
88131
88132
88133
88134
88135
88137
88138
88139
88140
88142
88143
88147
88149
88150
88155
88158
101990
102497
102592
88165
88170
88176
88178
88179
88180
88181
88182
88183
88184
88185
88187
88188
88189
88190
88191
88192
88193
88194
88195
88196
88198
88199
88200
88202
88203
88204
88205
88206
88207
88208
88209
88210
88211
88212
88213
88214
88215
88216
88217
88218
88219
88220
88221
88222
88223
88224
88225
88226
88227
88228
88229
88230
88231
88232
88233
88234
88235
88236
88237
88239
88240
88244
88246
88248
88262
88264
88268
88269
88271
88274
88275
88276
88277
88278
88279
88280
88281
88282
88283
88284
88285
88286
88287
88288
88290
88291
88292
88293
88295
88296
88297
88298
88299
88300
88301
88302
88303
88304
88305
88306
88307
88308
88309
88310
88312
88313
88314
88315
88316
88317
88320
88321
88322
88323
88324
88325
88327
88328
88329
88330
88332
88333
101260
101362
88352
88353
88354
88355
88356
88357
88358
88359
88360
88363
88364
88365
88366
88367
88368
88369
88370
88372
88373
88374
88375
88376
88377
88378
88379
88380
88381
88382
88383
88384
88385
88386
88387
88388
88389
88390
88391
88392
88393
88394
88395
88396
88397
88398
88399
88400
88401
88402
88403
88404
88405
88406
88408
88409
88410
88411
88412
88413
88414
88416
88417
88418
88419
88420
88421
88422
88425
88430
88431
88432
88445
88449
88451
88452
88453
88454
88455
88456
88457
88458
88459
88460
88461
88462
88463
88464
88465
88466
88467
88468
88469
88470
88471
88472
88473
88474
88475
88476
88477
88478
88479
88480
88481
88482
88483
88484
88485
88486
88487
88489
88490
88491
88492
88493
88494
88495
88496
88497
88498
88499
88500
88501
88502
88503
88504
88506
88508
88509
88510
88511
88512
88515
88516
88518
88527
88528
88530
88531
88532
88533
88534
88536
88539
88541
88542
88543
88544
88545
88546
88547
88548
88549
88550
88551
88552
88553
88554
88555
88556
88557
88558
88559
88560
88561
88562
88563
88564
88565
88566
88567
88568
88569
88570
88572
88573
88574
88575
88576
88577
88578
88579
88580
88581
88582
88583
88584
88585
88586
88587
88589
88590
88591
88592
88593
88594
88595
88596
88597
88599
88600
88601
88603
88604
88605
88606
88607
88608
88610
102490
102904
88613
88615
88617
88618
88620
88621
88622
88624
88625
88626
88627
88628
88629
88630
88631
88632
88634
88635
88636
88637
88638
88639
88640
88641
88642
88643
88644
88645
88646
88647
88648
88649
88650
88651
88652
88653
88654
88655
88656
88657
88658
88659
88660
88661
88662
88663
88664
88665
88666
88667
88668
88669
88670
88671
88672
88673
88674
88677
88678
88681
88683
88684
88685
88688
88690
88691
88692
88694
88695
87206
88707
88709
88711
88712
88713
88714
88715
88716
88717
88718
88719
88720
88721
88722
88723
88724
88725
88726
88727
88728
88729
88731
88732
88733
88734
88735
88736
88737
88738
88739
88740
88741
88742
88743
88744
88745
88746
88747
88748
88749
88750
88751
88752
88753
88754
88755
88756
88757
88758
88759
88760
88761
88762
88763
88764
88766
88767
88768
88769
88772
88773
88775
88778
88780
88781
102189
88792
88793
88794
88795
88797
88798
88799
88800
88801
88803
88804
88805
88806
88807
88808
88809
88810
88811
88812
88813
88814
88815
88816
88817
88818
88819
88820
88821
88822
88823
88824
88825
88826
88827
88828
88829
88830
88831
88832
88833
88834
88835
88836
88837
88838
88839
88840
88841
88842
88843
88844
88845
88846
88847
88848
88849
88850
88851
88852
88853
88854
88855
88856
88857
88858
88859
88860
88862
88864
88866
88867
88868
88870
88871
102591
103219
88879
88880
88881
88882
88883
88884
88886
88887
88889
88890
88892
88893
88894
88895
88896
88897
88899
88900
88901
88903
88904
88905
88906
88907
88908
88909
88910
88911
88912
88913
88914
88915
88916
88917
88918
88919
88920
88921
88922
88923
88924
88925
88926
88927
88928
88929
88930
88931
88932
88933
88934
88935
88936
88937
88938
88939
88940
88941
88944
88945
88946
88947
88948
88950
88951
88953
88958
88960
88963
88965
88966
88967
88968
88969
88970
88971
88972
88973
88974
88975
88976
88977
88978
88979
88981
88982
88983
88984
88985
88986
88987
88988
88989
88990
88991
88992
88993
88994
88995
88996
88997
88998
88999
89000
89001
89002
89003
89004
89005
89006
89007
89008
89009
89010
89011
89012
89013
89014
89015
89016
89017
89018
89019
89020
89021
89022
89023
89024
89026
89028
89029
89030
89031
89032
89035
89038
89040
101674
102090
103727
89045
89046
89047
89049
89050
89051
89053
89054
89055
89058
89059
89060
89061
89062
89063
89064
89065
89066
89067
89068
89069
89070
89071
89072
89073
89074
89075
89076
89077
89078
89079
89080
89081
89082
89083
89084
89085
89086
89087
89088
89089
89090
89091
89092
89093
89094
89095
89096
89097
89098
89099
89100
89101
89102
89103
89104
89105
89106
89107
89108
89109
89110
89111
89112
89113
89114
89115
89116
89118
89119
89120
89121
86160
101782
101787
102493
103725
103728
89130
89131
89137
89138
89139
89140
89141
89142
89143
89144
89145
89146
89147
89148
89149
89150
89151
89152
89153
89154
89155
89156
89157
89158
89159
89160
89161
89162
89163
89164
89165
89166
89167
89168
89169
89170
89171
89172
89173
89174
89175
89176
89177
89178
89179
89180
89181
89182
89183
89184
89185
89186
89187
89188
89189
89190
89191
89192
89193
89194
89195
89196
89197
89198
89199
89201
89203
89204
89206
89207
89213
89215
89216
87555
89226
89228
89229
89230
89231
89232
89233
89234
89235
89236
89237
89238
89240
89241
89242
89243
89244
89245
89246
89247
89248
89249
89250
89251
89252
89253
89254
89255
89256
89257
89258
89259
89260
89261
89262
89263
89264
89265
89266
89267
89268
89269
89270
89271
89272
89273
89274
89275
89276
89277
89278
89279
89280
89281
89282
89283
89284
89285
89286
89287
89288
89289
89290
89293
89295
89296
89297
89298
89300
89302
103412
88256
89305
89306
89307
89309
89310
89313
89314
89315
89316
89317
89318
89319
89320
89321
89322
89324
89325
89326
89327
89328
89329
89330
89331
89332
89333
89334
89335
89336
89337
89338
89339
89340
89341
89342
89343
89344
89345
89346
89347
89348
89349
89350
89351
89352
89353
89354
89355
89356
89357
89358
89359
89360
89361
89362
89363
89364
89365
89366
89367
89368
89369
89370
89371
89373
89374
89376
89378
89379
89384
100845
102290
102695
103110
89387
89388
89390
89391
89392
89394
89395
89396
89399
89400
89401
89402
89403
89405
89406
89407
89408
89409
89410
89411
89412
89413
89414
89415
89416
89417
89418
89419
89420
89421
89422
89423
89424
89425
89426
89427
89428
89429
89430
89431
89432
89433
89434
89435
89436
89437
89438
89439
89440
89441
89442
89443
89444
89445
89446
89447
89448
89449
89450
89451
89453
89454
89456
89457
89458
89459
89460
89461
89462
89463
89464
89466
89468
89469
89471
102586
103105
103319
104338
89482
89483
89484
89485
89486
89487
89488
89489
89491
89495
89496
89497
89498
89499
89500
89501
89502
89503
89504
89505
89506
89507
89508
89509
89510
89511
89512
89513
89514
89515
89516
89517
89518
89519
89520
89521
89522
89523
89524
89525
89526
89527
89528
89529
89530
89531
89532
89533
89534
89535
89536
89537
89538
89539
89540
89541
89543
89544
89545
89546
89547
89548
89551
89552
89553
89554
89555
89556
89557
89559
89560
89561
89562
89563
89564
89565
101982
102184
102684
104129
89577
89578
89581
89582
89583
89584
89585
89586
89587
89588
89589
89590
89591
89592
89593
89594
89595
89596
89597
89598
89599
89600
89601
89602
89603
89604
89605
89606
89607
89608
89609
89610
89611
89612
89613
89614
89615
89616
89617
89618
89619
89620
89621
89622
89623
89624
89625
89626
89627
89628
89629
89630
89631
89632
89633
89634
89635
89636
89637
89638
89639
89642
89643
89645
89646
89647
89653
89654
89655
101763
89662
89666
89667
89670
89671
89672
89673
89675
89677
89678
89679
89680
89681
89682
89683
89684
89685
89686
89687
89688
89689
89690
89691
89692
89693
89694
89695
89696
89697
89698
89699
89700
89701
89702
89703
89704
89705
89706
89707
89708
89709
89710
89711
89712
89713
89714
89715
89716
89717
89718
89719
89720
89721
89722
89723
89724
89725
89726
89727
89728
89729
89730
89731
89732
89733
89734
89736
89737
89738
89739
89741
89742
89743
89746
89747
89748
89749
89750
101052
102289
104646
89754
89755
89759
89761
89762
89763
89764
89766
89767
89768
89769
89770
89771
89772
89773
89774
89775
89776
89777
89778
89779
89780
89781
89782
89783
89784
89785
89786
89787
89788
89789
89790
89791
89792
89793
89794
89795
89796
89797
89798
89799
89800
89801
89802
89803
89804
89805
89806
89807
89808
89809
89810
89811
89813
89814
89815
89816
89817
89818
89819
89820
89822
89824
89825
89826
89828
89831
89832
89833
89835
89836
89837
89838
103112
103817
88086
104543
89846
89847
89848
89849
89850
89852
89853
89854
89855
89857
89858
89859
89860
89861
89862
89863
89864
89865
89866
89867
89868
89869
89870
89871
89872
89873
89874
89875
89876
89877
89878
89879
89880
89881
89882
89883
89884
89885
89886
89887
89888
89889
89890
89891
89892
89893
89894
89895
89896
89897
89898
89899
89900
89901
89902
89903
89904
89905
89906
89907
89908
89909
89910
89911
89912
89913
89914
89915
89917
89918
89920
89921
102191
102194
103314
103717
103815
104130
104131
89929
89931
89932
89933
89934
89935
89937
89938
89939
89940
89941
89942
89943
89944
89945
89946
89947
89948
89949
89950
89951
89952
89953
89954
89955
89956
89957
89958
89959
89960
89961
89962
89963
89964
89965
89966
89967
89968
89969
89970
89971
89972
89973
89974
89975
89976
89977
89978
89979
89980
89981
89982
89983
89984
89985
89986
89987
89988
89989
89990
89991
89992
89993
89994
89995
89996
89997
89998
89999
90000
90001
90003
90004
90006
90007
90011
101061
102292
102390
103518
104848
90019
90020
90021
90022
90023
90024
90025
90026
90027
90028
90029
90030
90031
90032
90033
90034
90035
90037
90038
90039
90040
90041
90042
90043
90044
90045
90046
90047
90048
90049
90050
90051
90052
90053
90054
90055
90056
90057
90058
90059
90060
90061
90062
90063
90064
90065
90066
90067
90068
90069
90070
90071
90072
90073
90075
90076
90078
90079
90080
90081
90082
90083
90085
90086
90087
90088
90089
90090
90091
90092
90093
90094
90096
99628
101775
101989
102689
103414
103721
90105
90108
90109
90110
90111
90114
90115
90116
90117
90118
90119
90120
90121
90122
90123
90124
90125
90126
90127
90128
90129
90130
90131
90132
90133
90134
90135
90136
90137
90138
90139
90140
90141
90142
90143
90144
90145
90146
90147
90148
90149
90150
90151
90152
90153
90154
90155
90156
90157
90158
90159
90160
90161
90162
90163
90164
90165
90166
90167
90168
90169
90170
90172
90175
90176
90177
90179
90180
90181
90182
90183
90186
90187
90188
101747
102072
103322
103928
104340
105059
90193
90197
90198
90199
90202
90203
90204
90205
90206
90207
90208
90209
90210
90211
90212
90213
90214
90215
90216
90217
90218
90219
90220
90221
90222
90223
90224
90225
90226
90227
90228
90229
90230
90231
90232
90233
90234
90235
90236
90237
90238
90239
90240
90241
90242
90243
90244
90245
90246
90247
90248
90249
90250
90251
90252
90254
90255
90256
90257
90258
90260
90261
90263
90265
90266
90267
90269
90271
90273
90275
103819
104124
90287
90288
90289
90291
90292
90293
90294
90295
90296
90297
90298
90299
90300
90301
90302
90303
90304
90305
90306
90307
90308
90309
90310
90311
90312
90313
90314
90315
90316
90317
90318
90319
90320
90321
90322
90323
90324
90325
90326
90327
90328
90329
90330
90331
90332
90333
90334
90335
90336
90337
90338
90339
90340
90341
90342
90343
90344
90345
90346
90347
90348
90349
90350
90351
90352
90353
90354
90355
90356
90357
90359
90361
90363
90364
102077
102896
103622
104959
105057
90369
90372
90373
90375
90376
90377
90378
90379
90380
90381
90382
90383
90384
90385
90386
90387
90388
90389
90390
90391
90392
90393
90394
90395
90396
90397
90398
90399
90400
90401
90402
90403
90404
90405
90406
90407
90408
90409
90410
90411
90412
90413
90414
90415
90416
90417
90418
90419
90420
90421
90422
90423
90424
90425
90426
90427
90428
90429
90430
90431
90432
90433
90434
90435
90436
90437
90438
90439
90440
90441
90442
90446
90447
101557
103108
103820
104544
90450
90451
90454
90455
90456
90457
90458
90459
90461
90462
90463
90464
90465
90466
90467
90468
90469
90470
90471
90472
90473
90474
90475
90476
90477
90478
90479
90480
90481
90482
90483
90484
90485
90486
90487
90488
90489
90490
90491
90492
90493
90494
90495
90496
90497
90498
90499
90500
90501
90502
90503
90504
90505
90506
90507
90508
90509
90510
90511
90512
90513
90514
90515
90516
90517
90518
90520
90522
90523
90524
90525
90526
90527
90530
104233
105363
105467
90534
90535
90537
90538
90539
90540
90542
90543
90544
90545
90546
90547
90548
90549
90550
90551
90552
90553
90554
90555
90556
90557
90558
90559
90560
90561
90562
90563
90564
90565
90566
90567
90568
90569
90570
90571
90572
90573
90574
90575
90576
90577
90578
90579
90580
90581
90582
90583
90584
90585
90586
90587
90588
90589
90590
90591
90592
90593
90594
90595
90596
90597
90598
90599
90600
90601
90602
90603
90604
90605
90606
90607
90608
90609
90612
90613
90614
90616
90617
90619
103629
90628
90629
90631
90633
90634
90635
90637
90638
90639
90640
90641
90642
90643
90644
90645
90646
90647
90648
90649
90650
90651
90652
90653
90654
90655
90656
90657
90658
90659
90660
90661
90662
90663
90664
90665
90666
90667
90668
90669
90670
90671
90672
90673
90674
90675
90676
90677
90678
90679
90680
90681
90682
90683
90684
90685
90686
90687
90688
90689
90690
90691
90692
90693
90694
90695
90696
90697
90698
90701
90702
90703
90704
90706
90707
90708
90709
90710
104029
89576
90713
90714
90716
90717
90719
90721
90722
90723
90724
90725
90726
90727
90728
90729
90730
90731
90732
90733
90734
90735
90736
90737
90738
90739
90740
90741
90742
90743
90744
90745
90746
90747
90748
90749
90750
90751
90752
90753
90754
90755
90756
90757
90758
90759
90760
90761
90762
90763
90764
90765
90766
90767
90768
90769
90770
90771
90772
90773
90774
90775
90776
90777
90778
90779
90781
90782
90783
90785
90786
90787
90792
90793
90795
100929
104028
101896
102182
105770
90797
90800
90801
90802
90803
90805
90806
90807
90808
90809
90810
90811
90813
90814
90815
90816
90817
90818
90819
90820
90821
90822
90823
90824
90825
90826
90827
90828
90829
90830
90831
90832
90833
90834
90835
90836
90837
90838
90839
90840
90841
90842
90843
90844
90845
90846
90847
90848
90849
90850
90851
90852
90853
90854
90855
90856
90857
90858
90859
90860
90861
90862
90863
90864
90866
90867
90868
90869
90871
90872
90873
90874
90876
102285
102584
104843
87478
90878
90879
90880
90881
90882
90883
90885
90887
90888
90889
90890
90891
90892
90893
90894
90895
90896
90897
90898
90899
90900
90901
90902
90903
90904
90905
90906
90907
90908
90909
90910
90911
90912
90913
90914
90915
90916
90917
90918
90919
90920
90921
90922
90923
90924
90925
90926
90927
90928
90929
90930
90931
90932
90933
90934
90935
90936
90937
90938
90939
90940
90941
90942
90943
90944
90945
90946
90947
90948
90951
90952
90953
90955
90957
90958
90959
90960
90961
90962
90963
90964
90965
90966
90967
90968
90969
90972
102087
105164
105771
90982
90983
90984
90985
90986
90987
90988
90989
90990
90991
90992
90993
90994
90995
90996
90997
90998
90999
91000
91001
91002
91003
91004
91005
91006
91007
91008
91009
91010
91011
91012
91013
91014
91015
91016
91017
91018
91019
91020
91021
91022
91023
91024
91025
91026
91027
91028
91029
91030
91031
91032
91033
91034
91035
91036
91037
91038
91039
91040
91041
91042
91044
91045
91046
91048
91049
91050
91051
91052
91053
91054
91055
91056
91058
91059
91060
91061
91062
91064
91065
103208
104430
104735
104033
105160
91069
91070
91071
91073
91074
91075
91077
91078
91079
91080
91081
91082
91083
91084
91085
91086
91087
91088
91089
91090
91091
91092
91093
91094
91095
91096
91097
91098
91099
91100
91101
91102
91103
91104
91105
91106
91107
91108
91109
91110
91111
91112
91113
91114
91115
91116
91117
91118
91119
91120
91121
91122
91123
91124
91125
91126
91127
91128
91129
91130
91131
91132
91133
91134
91135
91136
91137
91138
91139
91140
91141
91142
91143
91144
91145
91147
91148
91149
91150
91151
91152
91153
91154
103923
104426
91157
91158
91159
91161
91163
91164
91165
91167
91168
91169
91170
91171
91172
91173
91174
91175
91176
91177
91178
91179
91180
91181
91182
91183
91184
91185
91186
91187
91188
91189
91190
91191
91192
91193
91194
91195
91196
91197
91198
91199
91200
91201
91202
91203
91204
91205
91206
91207
91208
91209
91210
91211
91212
91213
91214
91215
91216
91217
91218
91219
91220
91221
91222
91223
91224
91225
91227
91228
91229
91231
91235
91236
91237
91238
91239
104226
87905
105267
90799
106284
91241
91242
91243
91244
91245
91246
91247
91248
91249
91250
91251
91252
91253
91254
91255
91256
91257
91258
91259
91260
91261
91262
91263
91264
91265
91266
91267
91268
91269
91270
91271
91272
91273
91274
91275
91276
91277
91278
91279
91280
91281
91282
91283
91284
91285
91286
91287
91288
91289
91290
91291
91292
91293
91294
91295
91296
91297
91298
91299
91300
91301
91302
91303
91304
91305
91306
91307
91308
91309
91310
91311
91315
91316
91317
91318
91319
91320
91321
91322
91323
91324
102496
102898
103213
103724
103809
105559
90452
106070
90371
91331
91332
91333
91334
91336
91337
91338
91339
91340
91341
91342
91343
91344
91345
91346
91347
91348
91349
91350
91351
91352
91353
91354
91355
91356
91357
91358
91359
91360
91361
91362
91363
91364
91365
91366
91367
91368
91369
91370
91371
91372
91373
91374
91375
91376
91377
91378
91379
91380
91381
91382
91383
91384
91385
91386
91387
91388
91389
91390
91391
91392
91393
91394
91395
91396
91397
91398
91399
91400
91401
91402
91403
91404
91405
91406
91407
91408
91411
91412
91413
91414
91415
91416
91417
91418
91420
87899
102795
87556
103713
103726
104127
88526
89227
105468
106172
91426
91427
91429
91430
91432
91433
91434
91435
91436
91437
91438
91439
91440
91441
91442
91443
91444
91445
91446
91447
91448
91449
91450
91451
91452
91453
91454
91455
91456
91457
91458
91459
91460
91461
91462
91463
91464
91465
91466
91467
91468
91469
91470
91471
91472
91473
91474
91475
91476
91477
91478
91479
91480
91481
91482
91483
91484
91485
91486
91487
91488
91489
91490
91491
91492
91493
91494
91495
91496
91497
91498
91499
91500
91505
91506
91507
91508
91509
91510
91511
102581
103107
104132
105463
105668
105970
91514
91516
91518
91519
91520
91522
91523
91524
91525
91526
91527
91528
91529
91530
91531
91532
91533
91534
91535
91536
91537
91538
91539
91540
91541
91542
91543
91544
91545
91546
91547
91548
91549
91550
91551
91552
91553
91554
91555
91556
91557
91558
91559
91560
91561
91562
91563
91564
91565
91566
91567
91568
91569
91570
91571
91572
91573
91574
91575
91576
91577
91578
91579
91580
91581
91582
91583
91584
91585
91586
91587
91590
91591
101562
103205
105773
106696
91595
91597
91598
91599
91600
91602
91603
91604
91605
91606
91607
91608
91609
91610
91611
91612
91613
91614
91615
91616
91617
91618
91619
91620
91621
91622
91623
91624
91625
91626
91627
91628
91629
91630
91631
91632
91633
91634
91635
91636
91637
91638
91639
91640
91641
91642
91643
91644
91645
91646
91647
91648
91649
91650
91651
91652
91653
91654
91655
91656
91657
91658
91659
91660
91661
91662
91663
91664
91665
91666
91667
91670
91671
91672
91674
91675
91678
103915
104641
105365
106168
86604
88258
91681
91682
91684
91685
91686
91687
91688
91689
91690
91691
91692
91693
91694
91695
91696
91697
91698
91699
91700
91701
91702
91703
91704
91705
91706
91707
91708
91709
91710
91711
91712
91713
91714
91715
91716
91717
91718
91719
91720
91721
91722
91723
91724
91725
91726
91727
91728
91729
91730
91731
91732
91733
91734
91735
91736
91737
91738
91739
91740
91741
91742
91743
91744
91745
91746
91747
91748
91749
91750
91751
91752
91756
91757
91758
91760
91761
102988
102999
104336
105058
105660
91764
91765
91766
91768
91769
91770
91771
91772
91773
91774
91775
91776
91777
91778
91779
91780
91781
91782
91783
91784
91785
91786
91787
91788
91789
91790
91791
91792
91793
91794
91795
91796
91797
91798
91799
91800
91801
91802
91803
91804
91805
91806
91807
91808
91809
91810
91811
91812
91813
91814
91815
91816
91817
91818
91819
91820
91821
91822
91823
91824
91825
91826
91827
91828
91829
91830
91831
91832
91833
91834
91835
91836
91837
91838
91839
91840
91841
91842
91843
91844
91845
91847
91850
91851
91852
91853
91854
91855
91856
102178
103210
103823
104329
106998
91859
91860
91861
91862
91863
91864
91865
91866
91867
91868
91869
91870
91871
91872
91873
91874
91875
91876
91877
91878
91879
91880
91881
91882
91883
91884
91885
91886
91887
91888
91889
91890
91891
91892
91893
91894
91895
91896
91897
91898
91899
91900
91901
91902
91903
91904
91905
91906
91907
91908
91909
91910
91911
91912
91913
91914
91915
91916
91917
91918
91919
91920
91921
91922
91923
91924
91925
91926
91927
91928
91929
91931
91932
91933
91935
91936
100554
101680
103699
104956
105562
105860
106175
106176
106386
106488
106593
106594
104538
106994
89930
107205
91938
91940
91943
91944
91945
91946
91947
91948
91949
91950
91951
91952
91953
91954
91955
91956
91957
91958
91959
91960
91961
91962
91963
91964
91965
91966
91967
91968
91969
91970
91971
91972
91973
91974
91975
91976
91977
91978
91979
91980
91981
91982
91983
91984
91985
91986
91987
91988
91989
91990
91991
91992
91993
91994
91995
91996
91997
91998
91999
92000
92001
92002
92003
92004
92005
92006
92007
92008
92009
92010
92012
92013
92015
92017
92018
92019
92020
92021
92022
102579
103211
103612
103617
103808
103822
104332
106797
87130
101993
91335
92023
92024
92025
92026
92027
92028
92029
92030
92031
92032
92033
92034
92035
92036
92037
92038
92039
92040
92041
92042
92043
92044
92045
92046
92047
92048
92049
92050
92051
92052
92053
92054
92055
92056
92057
92058
92059
92060
92061
92062
92063
92064
92065
92066
92067
92068
92069
92070
92071
92072
92073
92074
92075
92076
92077
92078
92079
92080
92081
92082
92083
92084
92085
92086
92087
92088
92089
92090
92091
92092
92093
92094
92095
92096
92097
92098
92100
92101
92102
92104
92105
92107
92108
92109
92110
100246
102801
88169
105269
106068
106281
106692
107404
92113
92114
92115
92116
92117
92118
92119
92120
92121
92122
92123
92124
92125
92126
92127
92128
92129
92130
92131
92132
92133
92134
92135
92136
92137
92138
92139
92140
92141
92142
92143
92144
92145
92146
92147
92148
92149
92150
92151
92152
92153
92154
92155
92156
92157
92158
92159
92160
92161
92162
92163
92164
92165
92166
92167
92168
92169
92170
92171
92172
92173
92174
92175
92176
92177
92178
92179
92180
92181
92182
92183
92185
92187
92188
92189
92190
92191
92192
92193
92194
102187
105162
106169
87652
92197
92199
92200
92202
92203
92204
92205
92206
92207
92208
92209
92210
92211
92212
92213
92214
92215
92216
92217
92218
92219
92220
92221
92222
92223
92224
92225
92226
92227
92228
92229
92230
92231
92232
92233
92234
92235
92236
92237
92238
92239
92240
92241
92242
92243
92244
92245
92246
92247
92248
92249
92250
92251
92252
92253
92254
92255
92256
92257
92258
92259
92260
92261
92262
92263
92264
92265
92266
92267
92268
92269
92270
92271
92272
92273
92274
92276
92277
92278
92280
92281
92283
92284
92285
92286
92287
86682
102886
102902
103410
104527
104625
88085
88255
104957
107202
107294
103513
92289
92290
92291
92292
92293
92294
92295
92296
92298
92299
92300
92301
92302
92303
92304
92305
92306
92307
92308
92309
92310
92311
92312
92313
92314
92315
92316
92317
92318
92319
92320
92321
92322
92323
92324
92325
92326
92327
92328
92329
92330
92331
92332
92333
92334
92335
92336
92337
92338
92339
92340
92341
92342
92343
92344
92345
92346
92347
92348
92349
92350
92351
92352
92353
92354
92355
92356
92357
92358
92359
92360
92361
92362
92363
92364
92365
92366
92367
92368
92369
92370
92371
92372
92373
92374
92375
92376
92377
92378
92379
92380
92381
101360
106484
106894
107517
107609
92384
92385
92386
92388
92389
92390
92391
92392
92393
92394
92395
92396
92397
92398
92399
92400
92401
92402
92403
92404
92405
92406
92407
92408
92409
92410
92411
92412
92413
92414
92415
92416
92417
92418
92419
92420
92421
92422
92423
92424
92425
92426
92427
92428
92429
92430
92431
92432
92433
92434
92435
92436
92437
92438
92439
92440
92441
92442
92443
92444
92445
92446
92447
92448
92449
92450
92451
92452
92453
92454
92455
92456
92457
92458
92459
92460
92461
92462
92463
92464
92465
92466
92469
92470
92472
101575
103009
86598
103109
107402
90720
107813
92477
92478
92479
92480
92481
92482
92483
92484
92485
92486
92487
92488
92489
92490
92491
92492
92493
92494
92495
92496
92497
92498
92499
92500
92501
92502
92503
92504
92505
92506
92507
92508
92509
92510
92511
92512
92513
92514
92515
92516
92517
92518
92519
92520
92521
92522
92523
92524
92525
92526
92527
92528
92529
92530
92531
92532
92533
92534
92535
92536
92537
92538
92539
92540
92541
92542
92543
92544
92545
92546
92547
92549
92550
92551
92552
92553
92554
92555
92556
92557
92558
101353
104741
106382
106479
86410
103005
92562
92563
92564
92565
92566
92567
92568
92569
92570
92571
92572
92573
92574
92575
92576
92577
92578
92579
92580
92581
92582
92583
92584
92585
92586
92587
92588
92589
92590
92591
92592
92593
92594
92595
92596
92597
92598
92599
92600
92601
92602
92603
92604
92605
92606
92607
92608
92609
92610
92611
92612
92613
92614
92615
92616
92617
92618
92619
92620
92621
92622
92623
92624
92625
92626
92627
92628
92629
92630
92631
92632
92633
92634
92636
92637
92638
92639
92640
92641
92643
92644
92645
92646
92648
92649
92650
100827
103821
104125
105266
88167
106059
90284
106385
107296
87671
92652
92653
92654
92655
92656
92657
92658
92659
92660
92661
92662
92663
92664
92665
92666
92667
92668
92669
92670
92671
92672
92673
92674
92675
92676
92677
92678
92679
92680
92681
92682
92683
92684
92685
92686
92687
92688
92689
92690
92691
92692
92693
92694
92695
92696
92697
92698
92699
92700
92701
92702
92703
92704
92705
92706
92707
92708
92709
92710
92711
92712
92713
92714
92715
92716
92717
92718
92719
92720
92721
92722
92723
92724
92725
92726
92727
92728
92729
92730
92731
92732
92733
101663
103095
103719
105268
102084
107709
88540
88172
92736
92737
92738
92739
92740
92741
92742
92743
92744
92745
92746
92747
92748
92749
92750
92751
92752
92753
92754
92755
92756
92757
92758
92759
92760
92761
92762
92763
92764
92765