/*--------------------------------*- C++ -*----------------------------------*\
  =========                 |
  \\      /  F ield         | OpenFOAM: The Open Source CFD Toolbox
   \\    /   O peration     | Website:  https://openfoam.org
    \\  /    A nd           | Version:  7
     \\/     M anipulation  |
\*---------------------------------------------------------------------------*/
FoamFile
{
    version     2.0;
    format      ascii;
    class       vectorField;
    location    "0.002/lagrangian/dsmc";
    object      U;
}
// * * * * * * * * * * * * * * * * * * * * * * * * * * * * * * * * * * * * * //


4715
(
(193.5528856 75.28939915 113.5904821)
(695.4874385 90.25992953 36.2691137)
(292.3122888 11.43817852 259.8042253)
(-280.9589832 304.1312757 114.6732244)
(-167.1468394 -115.4023495 -318.4977751)
(146.578687 179.3902025 242.3330489)
(242.0219485 203.5621951 409.7603792)
(-58.12325486 2.773423781 -20.37244138)
(342.1715366 -388.9685351 -435.8119301)
(-192.0246642 624.3444012 252.2338063)
(395.5023079 82.2141357 326.6819779)
(38.42929748 36.2124437 18.79177054)
(224.2259976 271.5384889 193.5793211)
(88.64050277 13.84778117 -169.324256)
(-156.0176522 -116.9046886 105.0743042)
(227.1356621 176.2077247 521.9691847)
(-180.8687742 48.88712315 85.85889048)
(-108.3994756 143.7954683 -60.76677177)
(-102.5925088 -569.9067414 240.1511656)
(261.4656196 484.2726406 12.1286184)
(-36.16939725 123.6525012 62.28854308)
(-54.48590869 571.9881295 311.6209928)
(-446.2052487 -13.60371476 472.967945)
(-353.8063845 371.1457969 414.9649505)
(-74.45148255 346.2984465 259.782829)
(-132.3696725 432.128329 -245.7873849)
(-563.0430023 -101.3589038 104.1244612)
(-17.08522085 231.6417663 54.44920129)
(27.43244021 -11.97975197 -307.536584)
(-452.2508805 -110.6304462 257.3573099)
(-189.3552822 -157.7578688 23.3947149)
(98.92086221 285.6681363 -166.0839737)
(-115.297123 195.644086 -217.0146524)
(-215.0613289 -35.95851166 -217.2938145)
(14.15184486 -665.1716216 278.3759026)
(91.58572606 -175.842876 442.5033349)
(-61.4386592 49.23471214 -442.3412027)
(239.812088 282.3567236 -40.33704124)
(-277.6504833 -76.4526152 63.93714946)
(-5.872462132 158.9607431 51.89362241)
(191.2215648 -200.7598237 266.5926041)
(63.45326682 481.250963 232.0753769)
(248.6654808 -216.4065476 -28.6752569)
(-84.75944305 174.3341308 -299.4991608)
(570.2488109 -314.7960612 163.5540872)
(102.0369104 367.3375015 191.9346254)
(-929.4037389 374.9940823 -95.22423444)
(453.1336298 591.0395646 -500.5415719)
(-638.3773781 -399.7223323 157.5466661)
(-591.9522458 160.237114 307.0140396)
(203.948238 -553.5932392 -97.79289825)
(284.701431 -77.6688243 60.4832389)
(-214.458942 188.297315 468.0733106)
(-302.1595965 124.5813222 167.3747677)
(26.82801684 -587.6816175 -105.9111876)
(364.3889258 321.7378118 -328.6997933)
(414.4295032 -85.02206811 31.38886237)
(-143.296514 -25.2227467 -600.2025007)
(-216.5854539 -305.2293058 -410.4533135)
(-135.6693796 -279.3498177 -273.1674952)
(-162.911203 112.3119906 -558.6340319)
(384.3480222 -48.81394636 160.5379797)
(59.96874248 38.31586748 54.58881276)
(-407.288247 -331.4739115 46.85974481)
(-459.2936236 679.9933789 70.88892244)
(245.2243376 13.34425968 302.6998667)
(58.99164929 621.2549011 336.6532767)
(12.07222922 78.67517644 602.6270944)
(-377.4632989 -380.464948 83.47484927)
(120.1389456 -225.7097192 -193.0543059)
(-163.8956787 -99.88772466 387.9471592)
(-53.75327091 488.2357373 264.3390704)
(-106.6240012 -106.8872236 -104.6542685)
(288.8145886 -363.6556396 76.92850556)
(125.4799843 -292.0399771 -377.826865)
(-759.0753163 278.9120843 -732.3219479)
(196.9792101 513.5363423 -38.70494866)
(-378.8717949 112.7378691 31.07327937)
(-602.3611695 -157.1360965 -59.04714455)
(-315.7433036 -373.7662635 -379.389509)
(162.6739977 4.847743076 210.1274805)
(395.3324355 -704.7423968 372.0567529)
(-103.5920447 23.32619817 333.9888487)
(-53.37315706 -96.70654119 -79.10770727)
(501.7305337 679.2028717 -627.1083431)
(454.9204629 349.5139259 -120.80602)
(89.03775933 260.6245977 -466.8744096)
(-27.91768231 -244.971796 -18.01211681)
(175.9110044 -666.4190311 120.8483265)
(134.4634688 -87.97699513 580.1358022)
(-364.1170694 -632.7807462 617.9337683)
(96.99701529 -119.4028032 -102.7626279)
(-161.3477404 -39.96169018 -165.4203094)
(-5.733541877 164.9989807 544.0626974)
(70.78817562 7.116796126 -110.7763499)
(430.9030914 -95.75411597 -239.1874558)
(311.661441 102.8440548 -105.3862936)
(443.8470297 -108.6911661 40.4828602)
(-156.8034825 201.968521 224.4897469)
(-333.4174358 108.7596534 183.5713675)
(217.802699 130.3288656 550.2213544)
(-299.9606821 -149.2934501 145.0005525)
(-179.1946626 -222.3445179 -629.009834)
(-109.3088617 107.5638343 -15.75050723)
(77.17908085 -143.5311792 -0.5773431522)
(44.04209867 -69.01538562 -53.28449821)
(-38.30216734 -180.4189126 61.29091371)
(-60.94557572 -420.4656964 544.7874958)
(211.9445676 -36.9968374 -28.75106878)
(-495.7142736 18.3223395 -446.9976235)
(830.251546 165.773669 -149.2816549)
(-552.9219212 60.33877037 -318.9574696)
(-106.893098 -195.2407614 304.9725952)
(-218.9552019 -102.980221 -271.1669237)
(-398.2537857 263.8788076 91.58788744)
(-279.7900595 -455.9739338 438.1190916)
(-13.00335354 -204.5534697 -164.6543772)
(-412.7437329 163.6927038 1070.088806)
(-87.98905596 -95.65720052 -82.38052115)
(273.0374812 -492.7166181 -143.2131517)
(-344.9009463 -305.5877053 -395.7477671)
(-381.2010264 -97.69454348 433.0964538)
(-65.3863536 -112.2203616 -194.0438068)
(-394.2790224 549.6919442 -126.7865203)
(-399.5972688 -24.39076415 600.7542243)
(98.32749811 260.9164263 265.6793022)
(-187.5316245 -219.8595752 -175.7969124)
(-223.6130276 -327.9051842 206.9680622)
(-92.38521629 -137.2078494 347.6595623)
(8.497970537 9.012902386 40.83930052)
(258.9158715 330.1284503 48.02310694)
(-854.5851397 -86.13149474 300.2649651)
(17.68127885 226.4713868 27.32341173)
(-145.0657626 353.7020481 69.36057762)
(450.7070739 -353.2157227 57.9970978)
(699.5386002 -154.3434051 17.06776068)
(123.2433156 -642.4888286 370.8475587)
(285.8415482 -233.6031043 157.5425992)
(-84.50140564 170.9080068 358.6431568)
(194.9002481 103.0595887 118.5018273)
(-528.3586844 -203.4409486 -147.0589911)
(-621.3559382 197.6789492 -314.6177961)
(-344.4525092 -289.2816515 -3.408274214)
(8.02267556 319.0200965 174.0949201)
(-106.2316712 -232.1014644 -155.4868228)
(-320.5305219 118.9444413 -382.4275863)
(116.3460709 -214.3487417 37.13468611)
(-162.6123044 176.2346368 49.92731627)
(-5.590023262 413.0817934 704.0100967)
(-98.54772597 181.4028432 -294.3320059)
(-51.21566281 325.4720621 207.227024)
(-487.0375357 -82.59480756 -265.1050443)
(618.6379063 -54.133556 176.6005699)
(-336.6831425 82.18031141 -305.9728684)
(118.7978745 99.61602676 245.8709271)
(254.8979339 48.47323755 -421.8258476)
(-483.4465978 -117.7906068 -247.3108138)
(64.09821431 -159.6645757 -397.163187)
(-232.88488 68.10413957 240.4493608)
(-176.5278917 443.8365303 -393.5757663)
(306.8958144 -453.4137014 202.5856384)
(-117.5321435 51.97114274 155.7549661)
(-30.04389846 -44.58130452 548.9024444)
(-93.50622483 164.2357808 472.0719905)
(364.8892401 -156.3238035 -67.70777782)
(109.3888123 370.8277148 473.2380577)
(-79.29766798 44.65214486 -78.11634966)
(-388.91248 -115.7201394 -160.8613498)
(-466.8539219 -51.81086794 -114.7466931)
(-311.1007884 -83.59976272 -60.90430916)
(56.86310514 -150.2244545 50.20627431)
(209.2669912 -74.17727216 21.03114616)
(-693.6201936 -337.622544 -550.6897013)
(-70.0588884 -84.61663419 -71.69452549)
(63.59077636 345.4113181 -416.0144829)
(253.0006712 -67.00924257 296.3582994)
(-311.4623233 253.1143063 145.2398573)
(-81.38243248 -48.48954181 -214.4952739)
(-217.2456685 -126.964343 -194.7283367)
(9.239571294 301.4606091 39.09962688)
(118.8463666 -219.1461066 689.712462)
(-51.14624504 -251.0951769 -68.06623494)
(-134.733309 216.8224475 519.5748953)
(204.5690124 -305.6519501 -232.0817056)
(-22.03068309 -241.4151338 272.822131)
(213.3502285 -525.3748214 -17.00835226)
(-292.0061422 -14.04912911 298.7757983)
(-304.4626833 -11.53469233 -263.5740246)
(-536.5684691 522.6339826 645.7364165)
(182.5234782 425.5868691 85.62117685)
(60.19503842 474.0975298 74.11700907)
(316.0900941 369.0971498 -15.11118754)
(-336.4660931 -327.6630171 -212.1536935)
(240.5274784 -369.0282359 -379.1568637)
(-274.009513 136.607305 -33.10351097)
(-534.0148807 47.18875624 141.2101736)
(-244.4987258 264.9095521 347.0759856)
(-123.7985371 -42.48991191 -129.3651759)
(207.5613861 488.4060536 450.0604528)
(176.8063639 -198.606069 59.7421802)
(431.3092184 -420.1580359 126.0633476)
(340.8798522 -149.0426934 458.7856215)
(186.6714032 104.8736768 -378.9009779)
(287.3763722 169.700494 -46.44755341)
(48.35037742 -179.7264699 -306.3024484)
(226.4122428 119.8962446 -158.6876125)
(240.4658818 -342.6152666 208.6380133)
(84.92181894 455.1940576 42.32466404)
(121.530803 210.5310996 1039.097351)
(-629.1465446 -37.91157298 333.6831319)
(-184.7464235 -459.4161157 -454.0853836)
(-2.601280223 -130.0728914 -371.0745499)
(838.9380999 -601.1516759 29.67174339)
(384.8671249 108.3611797 42.63494859)
(-508.1534508 169.949634 -405.8067575)
(145.1662866 -130.7509783 188.9187689)
(281.3207742 133.096723 23.06621259)
(53.38662358 21.77655373 -159.4742009)
(419.7310191 -57.06313378 -677.3138242)
(12.50310281 22.80839859 384.265565)
(-418.7739232 -170.6120424 -289.1721099)
(40.66762895 57.3346793 -281.0195102)
(-280.1943707 -87.18358985 -74.89343709)
(-166.1617857 -121.0478223 398.6749037)
(-77.18992429 -169.6243221 101.9149512)
(393.8450883 75.7617677 446.1538851)
(496.7194086 335.8574274 142.4040605)
(-326.3960818 -623.9994 -216.9945766)
(170.5445888 -10.53075699 -78.68926866)
(-31.40006468 314.7825508 -7.768551982)
(-53.36203635 177.6265424 -86.62860231)
(-46.12214982 145.7758341 99.41644278)
(-287.1429405 263.244999 -74.99135141)
(-18.51209355 -126.2900977 -252.5579718)
(-540.7708051 -15.92338223 425.5349332)
(-436.4272111 -49.79326546 -746.0826708)
(85.75659067 -643.1684868 121.5188728)
(-226.027412 -329.5668814 -30.33893757)
(19.97375392 441.9260894 -76.74575252)
(103.2314674 244.3662021 -82.45825397)
(-79.7935369 243.0920651 -0.4406288982)
(15.00401974 -309.1964025 -121.9056711)
(3.216537824 16.58268736 447.7675528)
(-232.593788 50.29458533 -223.2418122)
(65.02284275 524.1550402 230.6120764)
(12.87763482 -333.9957378 299.218987)
(166.1381177 -381.052712 -402.918921)
(-307.4290087 -262.801342 -145.3668457)
(-260.6583831 159.0575231 -632.796206)
(-181.4343286 488.4249578 -88.61857785)
(68.00398387 -425.9557002 91.18910132)
(269.7836772 -36.84555621 -269.0845324)
(-356.3486694 345.5175656 10.65329579)
(31.05768968 -356.3442199 344.7423724)
(293.6604775 425.2227527 -362.2113053)
(26.01546968 454.9587843 -215.1715116)
(-313.2807065 -105.3525779 176.5574418)
(55.51677973 -174.2172883 -10.6340168)
(-138.1634714 91.61864205 174.7238944)
(-31.44767302 -79.97097655 -23.03306317)
(-226.166017 139.5065801 -267.9609201)
(-209.1205361 -199.4029675 -298.7052099)
(230.5643264 -265.1891059 405.523024)
(403.8202801 100.3501981 -146.7636331)
(-129.6820587 -69.51124664 649.3069755)
(-269.8048734 -53.14787959 -193.9853678)
(102.8046416 670.4314034 -213.7659722)
(256.9346048 147.2280414 -246.2198899)
(-271.0057094 248.9983049 566.5059091)
(-29.96390097 254.953517 186.6129209)
(-321.9018422 -161.6259381 78.81259169)
(989.344716 249.872997 164.3278989)
(-67.68622532 221.9493947 226.8641649)
(191.7799731 -98.30431429 -553.7530713)
(-214.8183751 -148.255196 -205.1325691)
(485.448701 80.08535281 -205.0971444)
(-326.1756577 -631.3714791 71.15481336)
(-201.5765654 -551.7049081 -721.674523)
(248.7829631 -566.5477709 -740.887217)
(-144.929864 -119.8237136 321.4736722)
(-47.60172503 -86.06593356 287.3762688)
(-455.3275147 -238.158041 286.4479786)
(-428.9973544 80.32675521 -120.0623275)
(160.1523493 -304.1621265 -25.32156223)
(-27.64621808 437.2835164 -68.95248811)
(-409.4314051 327.7326859 -104.2981409)
(-97.49705339 -701.3893376 -394.3459772)
(101.4998028 542.1708914 261.3651046)
(281.115894 -294.0681231 50.83745014)
(227.4627968 -557.3273496 -57.53675741)
(-113.6535625 313.8295923 -134.5608198)
(317.7722354 18.54338089 -541.9295631)
(405.0548849 115.2703482 533.8734074)
(110.2069809 318.3943627 386.7323528)
(-202.1196241 -365.9002088 228.7548597)
(-222.414332 460.1314926 327.076958)
(-378.8952954 -354.1099363 281.6130078)
(222.8422167 -69.23562297 640.7787374)
(181.9381006 333.1630782 400.6858848)
(88.01193234 29.22352387 111.135811)
(357.4951944 -226.7110893 78.1975798)
(138.6825981 245.5180644 56.12910243)
(-215.9784522 -550.8068937 248.9958487)
(-82.86198409 133.9089109 -109.1702771)
(-366.0627879 -163.4751241 142.8014199)
(156.9164878 1.706406289 -550.1215044)
(-174.4814126 -610.2459514 -122.39049)
(-186.0517745 -306.9600874 310.3219579)
(312.3682538 194.9479392 -298.9040208)
(-603.691933 -3.061264655 91.8715585)
(38.60864146 36.91452259 -333.6801892)
(-449.813736 67.67116333 -191.0746471)
(246.0999488 37.69669904 457.9899911)
(456.9378615 62.56819694 105.3812643)
(-272.9656215 187.3083046 -244.3729852)
(169.1203895 303.1043518 204.7641064)
(15.88252183 -77.3954535 -405.0614236)
(77.92136317 140.1826405 -45.8837106)
(-14.60738489 -830.7416795 -657.5013725)
(149.1910608 -249.9813802 263.7084744)
(-189.4443138 -79.9471494 -181.9274261)
(-58.22272935 -53.30967804 -3.852806104)
(199.9439535 -121.1571367 -399.642436)
(286.1398573 -501.8965628 157.5007118)
(-136.9217077 -306.5275781 -137.9765687)
(-368.3033053 -177.7663051 -237.1859778)
(-278.6546393 339.5165047 -260.7989673)
(-239.1991101 -17.04315285 402.0709267)
(-516.2137224 -58.00680405 -542.2726665)
(486.2941364 -121.1762901 -7.224112228)
(101.8734029 -429.8005384 -335.0162835)
(-376.860211 578.2621142 -103.8023637)
(-506.0346811 -60.73087823 -141.9099826)
(-151.4430904 -46.60824814 -130.165881)
(-217.0920155 -140.19698 -17.76533112)
(-213.7400174 -105.6310592 -163.3675804)
(-576.8402598 222.8966283 60.07756987)
(46.98489947 220.0466999 -723.784271)
(-14.23294639 -70.46220251 -322.2978441)
(-424.5384425 161.8507171 -65.45441343)
(704.885166 -20.52862263 765.1563869)
(192.9649302 -174.6468227 64.11123507)
(199.2644699 70.56467415 -287.0711672)
(-601.6974434 -175.021998 -291.9171826)
(-203.8506872 192.8100436 -712.9545538)
(-161.3527762 -16.04655076 77.71287238)
(-283.2408966 -117.329941 -574.3799534)
(71.31421783 346.1045703 40.14010121)
(606.486268 182.7633459 -249.4854891)
(-100.5228069 405.6718294 42.14694182)
(271.7887245 531.7936789 100.3927173)
(-218.1043568 23.34327609 525.539134)
(-383.4533517 65.0056139 88.9584714)
(110.6174078 285.4802991 7.446673772)
(396.5716862 -262.0800636 -262.6629216)
(-656.3451863 205.5170645 -472.9107388)
(-20.96014533 -520.2393831 -255.4072829)
(-395.9384644 131.1330722 -59.73886517)
(-176.926116 80.89883073 144.4672902)
(-189.0907719 211.0166135 -376.5894653)
(286.4097846 20.5430275 74.1940521)
(127.0600751 98.68723325 160.1982386)
(-128.1406285 -117.8961001 -31.99802074)
(475.8611883 77.23661516 -239.1922862)
(72.67286651 9.574550607 -10.1415157)
(-19.70954802 -183.6449829 -584.3741524)
(73.96075057 246.1931851 -193.7965782)
(-169.5711159 -117.0380785 165.5935978)
(43.25346187 170.8795379 -113.8516166)
(443.8757134 -101.0862628 -312.7066754)
(-600.6045827 -142.4108451 -66.48512246)
(392.1361444 -17.3287482 -112.3319801)
(131.2425233 189.259667 -523.9988223)
(17.9105219 -21.20566621 -167.0081261)
(-250.5423973 199.2202303 71.31054788)
(55.14388051 651.1543515 -410.9470837)
(668.3043462 -136.0989247 266.8237801)
(-776.3644469 153.4675069 27.29049373)
(-43.67944006 30.61772634 -85.03171005)
(295.4915779 -387.6347488 194.6008376)
(529.8552899 -16.85526552 -143.4217723)
(-377.5170573 286.5702292 317.9792261)
(307.9129314 -444.5413557 235.4498929)
(-0.5028933738 -270.860884 -44.28726372)
(-196.5986793 -285.5296835 420.5833999)
(463.3773782 209.7685073 -435.8005235)
(-381.7295122 -287.9607161 -158.9276149)
(526.0366869 -76.042606 303.0011599)
(353.2115465 -91.52131651 45.42404738)
(-123.7899529 89.94343377 274.2315578)
(193.0087469 -292.5126016 -396.2333121)
(-330.4970489 -66.97610044 -304.9266833)
(147.0100466 150.8001136 -332.7051614)
(-286.4391995 -11.16721505 -27.78332003)
(-432.8353082 -783.00544 41.57109592)
(-279.136311 -822.0678579 103.6767645)
(673.3890747 -229.1942187 529.3700973)
(353.2649496 461.0418971 -336.2663664)
(225.3834633 -436.7821664 -437.5779967)
(287.2099366 160.2233355 251.6757836)
(-9.503487504 -83.14738275 42.38233275)
(-143.3895969 -9.269525874 437.3440554)
(-372.7424074 679.4733424 255.6114487)
(-108.3178378 -281.4178406 -149.8736563)
(85.77155743 70.2331422 -579.5941488)
(-342.9656636 -153.4602846 257.9053719)
(527.9907518 64.57740259 -428.0623057)
(-25.65933811 -439.6046655 -106.043098)
(-298.352798 364.2358571 342.9978913)
(-109.3442891 -340.5048618 96.07842488)
(221.3278491 198.9902089 -364.2865471)
(35.72822672 63.03120934 116.3977045)
(-72.78121389 -101.593541 -266.2983713)
(160.9176852 529.9383493 -564.9772208)
(-251.2325269 -103.5508032 -26.07042214)
(-552.0962117 -740.4241924 6.291733537)
(-71.02326382 378.055934 292.2643025)
(178.0175221 50.71628817 398.4207901)
(-89.03205085 192.746313 251.1434579)
(468.4702788 291.9311559 114.6212541)
(235.1367621 431.8094752 398.1513504)
(120.6822929 326.0729813 -302.2747221)
(-378.9404415 180.4401943 44.45347999)
(-339.6949258 -295.2757628 -139.3977968)
(81.74647246 99.94876424 226.0069664)
(-142.0367581 -348.4792019 -45.73974577)
(92.48910685 157.018826 259.8609963)
(221.4403127 -693.9713123 -172.2310404)
(-209.1296028 154.0122199 -225.4342342)
(533.1755343 -35.04282252 -326.8795831)
(-408.5060881 -69.14028772 -83.97866679)
(-40.95524541 -65.84227888 9.501421082)
(432.6846911 4.642161634 -309.883586)
(-172.3647497 -458.8268675 -306.8626122)
(-133.012302 63.6905227 476.1071484)
(-293.6880203 258.9581038 -198.9775617)
(-103.4187575 -215.5713179 -629.0999974)
(-242.0635225 -44.67992276 14.53509522)
(578.6892015 -267.925074 -192.1290113)
(-253.3386187 369.7153585 -206.4439661)
(157.0158942 900.0117112 -367.0030398)
(220.0523112 88.95337974 -203.6870365)
(262.7413502 -889.5730396 -1.241997812)
(266.5570517 -16.32866312 46.82016704)
(-153.3439398 -241.8354714 393.8717789)
(-37.21363737 237.891483 -434.3716871)
(-366.7603672 -73.31888805 324.8741015)
(184.5556415 -287.0431722 226.1813136)
(501.4991498 -186.391349 210.0539584)
(-274.2663057 116.5382212 -159.3600912)
(-42.97419631 -106.3564137 186.9801285)
(261.8924188 -179.9726834 -27.83602161)
(-396.5647328 160.2981187 544.5128504)
(-339.2129176 64.28035841 290.2548663)
(-12.28008426 -453.7764895 -225.3582407)
(-35.27017758 485.6089172 -111.0016789)
(-15.84420597 -136.4463592 444.0342982)
(51.33687958 405.065604 284.184368)
(-73.50432681 -118.5506059 354.555024)
(213.3478789 -323.5470673 -238.4585576)
(-386.8946488 582.2687588 -12.8811247)
(588.8315542 -87.42146812 -49.25189524)
(43.69717048 -55.61390181 112.0997002)
(453.4146048 53.22281329 -47.11224065)
(-212.1728165 163.5131852 405.0274809)
(262.5897594 -94.38487504 56.36995306)
(-146.763477 -453.301389 269.8796791)
(88.54342433 -247.6523002 -174.9308756)
(564.7560795 -79.21630796 -320.987746)
(288.3093554 67.43935795 -194.0015543)
(263.8970692 -440.6962341 -102.641547)
(345.9460306 8.415002841 -270.9839268)
(25.72180798 -72.16189121 197.4007714)
(353.818982 130.7562139 -120.0239882)
(-99.48290277 273.6427751 438.689754)
(-269.2143732 198.6915306 -300.7574753)
(-188.0146842 496.1047811 -494.2976176)
(-116.7713903 -576.3997614 404.3553649)
(-101.4439213 699.8798137 38.69631168)
(193.8555928 254.0562531 344.5754133)
(-205.1303971 323.7190973 -470.362326)
(44.25500661 -206.1999218 -313.1916106)
(-51.68669299 23.57036687 124.2286735)
(196.5470275 235.3556372 191.3275597)
(102.9295202 -45.90039796 -304.5342961)
(-44.88078106 -453.4894618 -347.2195701)
(241.4647831 -399.6684889 70.76697308)
(565.6497976 238.0930253 -23.27062094)
(-3.827408462 -138.8703059 236.9334241)
(-244.4870638 -68.73199574 -319.2965422)
(-102.2108923 11.71908812 -121.5187938)
(87.49684093 20.89655844 -275.2498232)
(-266.8060677 518.7204603 -437.3996862)
(-71.04555433 8.725336037 192.7437433)
(1.252239288 308.7002132 613.114066)
(398.565623 -245.6840057 172.5424509)
(-377.9266521 -349.996325 -78.36388985)
(118.8604532 52.41600817 -185.3604159)
(202.4106444 -111.4820769 270.748573)
(198.5211538 -10.25032249 574.6111756)
(-458.0345642 -319.9327745 -90.91510411)
(-21.40121333 241.1362269 -360.5518829)
(349.2669263 -45.63362397 469.3006964)
(265.4008859 128.6332181 110.3036237)
(-318.9630929 -896.7945759 386.5175549)
(164.5948254 146.2167834 -331.9844829)
(348.1282948 84.67470623 -208.6001087)
(-19.59173243 269.580713 67.02565704)
(-368.5167215 -154.2958603 148.8090667)
(274.4356722 -423.8281115 332.5721912)
(-230.8117254 -269.2587092 -651.0569833)
(21.07746833 -244.7717937 -146.368642)
(-19.32923603 -110.3574904 430.4868904)
(-86.2952775 133.3691812 -217.4097772)
(-616.6954543 126.049938 -446.7975795)
(257.3727974 -321.5259673 258.068505)
(-281.1275795 -138.3973182 -280.3747459)
(-131.9453944 56.19940634 152.4721406)
(-253.9820696 -208.2204519 -99.89732071)
(-73.46927265 -248.2802872 -98.08128055)
(-215.5962611 -206.0186238 559.2112907)
(-466.0708034 -731.6913369 412.2249625)
(58.54832892 -228.6116391 -688.1369906)
(-456.0834024 -48.97220694 19.11224613)
(61.54327885 37.55184786 -232.8822271)
(192.4555669 251.9117592 43.47114842)
(-244.7807657 134.6499905 -790.1906537)
(70.07288114 -376.8788286 307.1521265)
(-253.7511931 -872.5645822 394.4125603)
(548.5016331 -49.99756304 -374.3055892)
(-130.2849177 43.05785865 -693.5092874)
(87.48755232 404.1625863 -6.049693958)
(186.5781801 -248.5621366 -34.48253994)
(306.2984636 -352.4309182 -65.05825514)
(38.50740107 -430.3663608 207.1424968)
(160.0082981 -34.21124465 5.790775503)
(524.3071335 206.2492015 587.2976741)
(-328.0362337 -119.2653226 -15.83093763)
(-146.1379293 2.946504607 243.8939861)
(-57.8635663 324.8068865 -90.47670658)
(-189.3460343 -40.51330124 -180.6079753)
(87.31590804 279.5664573 -480.664017)
(600.773573 -22.36481662 38.89202121)
(321.9093163 6.308870897 537.8766342)
(-238.4896438 278.6236033 -539.9912361)
(54.15806747 -135.6912064 569.874298)
(-77.67439945 -277.3491278 160.8447438)
(15.04045011 398.0523961 79.98457228)
(-461.4895311 238.8698723 -289.1073268)
(-281.4864329 -513.7451522 243.0608866)
(59.86277333 75.80896402 273.798818)
(-117.9363845 213.8164271 157.4543618)
(266.4874261 -280.8830679 326.1264103)
(-286.6443185 -426.8739333 218.8579386)
(-8.706284787 131.0111238 173.9287152)
(41.10812813 246.8542332 334.386388)
(-7.316998104 -189.7166604 30.85385139)
(159.7508192 148.3654767 326.5843476)
(242.0618633 967.7959895 -424.5177781)
(431.0608207 91.61228037 458.1883526)
(-155.2919085 -298.6975594 -259.6142093)
(341.4512997 -294.0736529 -107.3315196)
(176.0821313 191.8216838 -365.6802439)
(-210.5233008 -7.172987397 291.3195798)
(-87.29698731 221.7861996 517.4639619)
(200.2076351 -298.0341348 -308.0316198)
(-233.1658211 -429.3402621 -412.6128542)
(198.2257514 88.30341534 124.2192911)
(123.4221138 390.4014184 388.267475)
(-391.8344953 -276.3308294 -346.1373753)
(-25.36910699 130.2433186 -404.977633)
(-378.9294806 255.9650488 102.6152872)
(393.7099087 -169.884885 493.8663874)
(-347.9305594 21.69390406 75.04380926)
(124.6808398 -284.6027605 -504.1408335)
(289.9590242 -409.4877302 105.9567375)
(155.5977207 -301.355139 -418.1268046)
(-232.4440071 165.6212506 -18.41984423)
(76.95847863 436.9293686 -143.5813016)
(-21.11909635 -5.02649753 166.6330679)
(-163.9057453 21.21836939 76.24966872)
(-171.5910031 16.3058865 -211.4977046)
(-215.0587544 426.4083892 -140.7401691)
(239.4209612 -73.21175998 117.7454879)
(518.5022523 -123.7424885 -302.4380294)
(246.8483327 -119.3503849 57.88420235)
(-76.95412696 30.68489142 -580.9230982)
(160.9184828 -533.3156938 156.6217036)
(-637.2540345 -270.4217453 244.0851906)
(136.6811065 315.1235457 -627.0114071)
(-81.88249583 -223.3899709 291.5625789)
(383.2533793 90.14020064 -43.71556558)
(14.80940998 468.8608027 -407.5068025)
(-352.4743978 -76.12903867 287.2832954)
(-53.74739692 200.0173018 176.0152521)
(379.6973013 -312.1396305 481.2653115)
(373.6983381 22.65031297 78.18730399)
(167.8267366 95.86519968 36.12830192)
(-308.0283701 -451.6654571 -159.2555636)
(-67.16928308 -32.16292132 -15.988702)
(264.2306873 354.515536 245.122192)
(675.5167797 -26.4904437 193.025461)
(116.030888 80.37891493 -201.3848766)
(220.05236 -380.6101968 -136.8529381)
(-162.5460528 131.3935056 303.7007241)
(42.44484225 49.35097097 71.64996421)
(-153.6600031 121.0403915 638.4731136)
(-196.4660501 -345.8652148 -110.7442075)
(-339.4797366 -102.7197415 -120.1729217)
(-19.39549567 152.133367 413.2682722)
(186.237438 -104.5950787 298.2946771)
(-301.5335658 514.4678 203.2950539)
(-53.66759381 -5.297748349 -408.4721625)
(-244.3030036 -325.2452253 324.6637463)
(338.2006599 -424.8797047 160.8616382)
(-210.152883 -480.6294037 -55.67287411)
(136.4518059 64.45731278 249.7917453)
(-4.666768258 87.53505033 -382.2677065)
(-87.22390289 236.8534262 -319.7180555)
(-335.7349971 -242.8629965 53.62292501)
(-41.83892383 -179.3360085 -182.2345553)
(41.93819724 72.66517765 106.3981328)
(331.334395 -275.154671 -60.90327743)
(148.2769683 436.560471 -2.718972272)
(752.8256092 -148.7581455 393.5548411)
(159.0452046 402.801831 207.6097926)
(228.6430242 -128.1672202 49.08509015)
(-13.10298261 169.202767 227.3478568)
(305.8168312 4.667519899 361.7623952)
(73.5347349 -361.8637211 -193.6401687)
(39.43416429 312.3203904 -130.4435057)
(113.218356 50.062682 587.5879082)
(-561.2251155 22.70465905 221.6736039)
(84.8511399 195.923956 -431.4459434)
(122.5961492 -229.754301 163.0991936)
(-494.950503 -51.49073454 -6.276868355)
(68.57912058 137.0455884 41.36039719)
(-82.10412506 -237.4036828 -241.9169935)
(-129.9956314 -222.789336 33.73651577)
(-309.0110132 -25.78418074 -178.8830539)
(393.9914187 354.5126298 495.9069454)
(700.9472909 -3.817291875 -296.3247764)
(347.036218 373.2106356 507.2071807)
(-315.9999249 -235.262589 330.6498203)
(695.7961033 -489.5490821 149.6488376)
(73.36722604 308.1754697 365.9331402)
(-57.83625266 -113.2217377 -0.1249390833)
(-275.1246832 -316.7842234 -436.8202853)
(-379.9482469 41.53000374 126.7721018)
(167.4293665 -192.151507 -218.5121791)
(132.4966853 -571.865706 -297.5842939)
(321.6482567 -285.1294364 650.3057623)
(-137.5595113 102.0082173 -345.8479054)
(231.2602829 608.6126166 -138.5765698)
(41.72361242 16.88922135 380.7669486)
(53.52925545 230.5167545 468.4404692)
(-68.55024927 40.96030865 604.1991002)
(-534.9824693 441.3472902 443.6557702)
(-326.4420286 183.6114275 -254.1377513)
(11.35533279 245.2359284 -117.2778497)
(-412.5716835 324.378236 -167.616533)
(20.56411298 -51.97908412 21.75004031)
(-41.30012908 16.40705176 312.9090719)
(-88.86599086 24.32846837 -80.97377803)
(821.6786608 -294.0319212 290.9597458)
(56.22073229 -699.3083857 -24.55392561)
(-163.0665248 -437.3139361 -287.6511489)
(-204.302014 110.3659654 58.58947849)
(14.02370535 140.4111595 -187.5119029)
(-548.7299265 407.606457 -57.30043952)
(-349.3046057 -76.09513385 -190.6689926)
(255.4204222 -109.5332973 -121.5512883)
(-201.3494483 -40.87941916 394.9940673)
(26.35158326 66.98276933 -89.89629346)
(501.3487608 146.2561494 201.4721849)
(509.2666785 -72.27149265 240.2231443)
(0.7088340949 -156.6855573 11.16090307)
(113.2794106 -117.8009046 278.3265449)
(-264.970605 -22.59543696 -256.2107935)
(9.396933521 239.8419435 12.07311885)
(-114.8683541 -389.46078 87.30038126)
(-167.1268392 -112.5426282 -25.15593462)
(12.77515831 127.6360943 -367.7970118)
(29.67407897 -440.77159 681.6810706)
(-614.8277622 799.2680892 -136.2073748)
(100.677113 -16.25997174 -540.8942581)
(-160.0257835 94.34735735 120.2974121)
(-267.6559728 98.37262456 -524.6343266)
(-284.7423055 106.6073756 511.4367727)
(-260.5265162 -344.3166056 314.2002757)
(-235.7920602 118.3166548 398.5872503)
(399.6832475 389.7678065 329.3464279)
(151.9703462 -103.1271495 -379.1110423)
(-98.38052722 -496.7979075 -783.8925922)
(-507.3990391 213.7776139 419.5780915)
(-100.731815 5.582823093 95.82100182)
(-108.9347883 267.2527299 167.9484816)
(189.0714081 -257.8770775 -12.22613727)
(-133.0162452 -86.89458421 -375.3871857)
(-770.2638039 -235.289801 293.0355853)
(139.5734865 -3.826756243 -74.74425217)
(0.890897751 311.9219008 -158.0081317)
(-620.3751785 -282.5682326 120.927123)
(104.8413568 259.5950891 -166.1582317)
(47.79972656 -218.0569551 359.6214184)
(-244.3076329 142.7968347 246.9870155)
(-290.981395 726.5260228 -818.2319719)
(-190.158456 -49.65588809 -325.6038878)
(409.3305904 -248.8183996 139.4981066)
(-181.6685498 195.5169253 -100.0984623)
(-111.0742394 -270.2653462 511.908315)
(-391.8605501 -249.0889769 -441.8317365)
(-952.2827643 -229.8595306 -41.38276011)
(-233.3760886 14.55103 159.0980481)
(297.6963195 186.5617445 119.2696668)
(136.3516261 -268.8695398 103.7852618)
(-303.136566 -63.01312564 304.16004)
(-34.09545887 -113.8963118 -507.7959681)
(-278.1879007 360.3184317 -290.2986743)
(-517.9352734 86.51329844 59.81023657)
(-109.2107833 -163.5589176 -308.0302055)
(-69.88172952 257.6539882 -165.7123283)
(224.1535708 581.4064243 -267.0761022)
(-120.4376993 -122.0622238 -435.1997318)
(-144.2527034 -301.9025637 -339.3127275)
(301.6072058 -334.1842042 -69.43106794)
(100.9057693 -309.7732596 238.0719802)
(-7.664959188 -54.05418996 208.6978776)
(-99.95644676 477.9445257 -331.2381598)
(217.5782634 55.61719888 95.96276428)
(-255.5038302 -85.84967188 -128.9090007)
(-254.029019 -7.941067163 37.51469819)
(79.86818439 340.9291469 -230.5750637)
(-157.1505529 -204.7132257 -233.5914417)
(-498.1687994 420.3923654 -466.2451153)
(-57.74653627 -45.31378555 -42.86853318)
(-26.29974321 396.8577835 -74.82659623)
(-264.984401 288.2908204 168.4484753)
(-161.7183462 322.2049603 128.4710462)
(-11.92942569 -211.164121 -102.1828589)
(-226.0211231 179.9303685 112.2414977)
(284.9217739 -265.4972659 -0.6142455947)
(-225.3526708 159.8399397 351.0908219)
(192.4880002 176.2986057 -521.0308529)
(49.82861082 233.1520397 120.9208136)
(294.3636508 698.6453964 375.6204083)
(95.99304719 321.1317481 -112.9925478)
(484.3165387 -582.8792065 19.23763618)