/*--------------------------------*- C++ -*----------------------------------*\
  =========                 |
  \\      /  F ield         | OpenFOAM: The Open Source CFD Toolbox
   \\    /   O peration     | Website:  https://openfoam.org
    \\  /    A nd           | Version:  7
     \\/     M anipulation  |
\*---------------------------------------------------------------------------*/
FoamFile
{
    version     2.0;
    format      ascii;
    class       volVectorField;
    location    "0.00144/fluid";
    object      U;
}
// * * * * * * * * * * * * * * * * * * * * * * * * * * * * * * * * * * * * * //

dimensions      [0 1 -1 0 0 0 0];

internalField   nonuniform List<vector> 
100
(
(-1.06459001195779e-12 0 0)
(-1.04329701992171e-12 0 0)
(-9.15545763193563e-13 0 0)
(-1.0220093842763e-12 0 0)
(-1.213630243429e-12 0 0)
(-1.14975461506493e-12 0 0)
(-9.58131747265723e-13 0 0)
(-5.11008374656738e-13 0 0)
(-4.68429086072926e-13 0 0)
(-4.25849127940277e-13 0 0)
(-4.89722747657841e-13 0 0)
(-6.17466639348802e-13 0 0)
(-8.94254110255152e-13 0 0)
(-1.0007103663007e-12 0 0)
(-6.81337580871031e-13 0 0)
(-4.8970935668115e-13 0 0)
(-8.3037379504924e-13 0 0)
(-7.23916199906016e-13 0 0)
(-7.45213209235108e-13 0 0)
(-7.87798523758432e-13 0 0)
(-7.2391486080835e-13 0 0)
(-7.87785132781738e-13 0 0)
(-9.58116347642525e-13 0 0)
(-1.00070032306819e-12 0 0)
(-8.51658752499304e-13 0 0)
(-7.45201826904913e-13 0 0)
(-7.87783793684067e-13 0 0)
(-6.60033876053594e-13 0 0)
(-4.47124042157827e-13 0 0)
(-5.74875968434799e-13 0 0)
(-4.47119355315983e-13 0 0)
(-5.32278602032449e-13 0 0)
(-6.60034545602429e-13 0 0)
(-6.81336241773355e-13 0 0)
(-6.60045258383783e-13 0 0)
(-6.17455926567441e-13 0 0)
(-6.81327537638507e-13 0 0)
(-8.94243397473795e-13 0 0)
(-9.36825364252954e-13 0 0)
(-8.51653396108629e-13 0 0)
(-6.60029858760593e-13 0 0)
(-6.38746240408189e-13 0 0)
(-6.17465300251125e-13 0 0)
(-6.38755614091869e-13 0 0)
(-5.74875298885957e-13 0 0)
(-7.02623877418763e-13 0 0)
(-6.60041241090779e-13 0 0)
(-3.61960778148351e-13 0 0)
(-2.55504522102794e-13 0 0)
(-2.76797514138867e-13 0 0)
(-4.68422390584567e-13 0 0)
(-6.60042580188441e-13 0 0)
(-6.81334233126855e-13 0 0)
(-6.3875092725003e-13 0 0)
(-7.45214548332768e-13 0 0)
(-1.06459068150661e-12 0 0)
(-1.14975528461377e-12 0 0)
(-9.36840094327315e-13 0 0)
(-7.87797854209588e-13 0 0)
(-7.87803210600271e-13 0 0)
(-7.45218565625773e-13 0 0)
(-6.60047936579122e-13 0 0)
(-7.66508209917681e-13 0 0)
(-6.81338919968696e-13 0 0)
(-5.11005026912559e-13 0 0)
(-7.45220574272281e-13 0 0)
(-8.30386516477088e-13 0 0)
(-6.17468647995306e-13 0 0)
(-4.2583975425659e-13 0 0)
(-3.19376133173852e-13 0 0)
(-2.98077115198257e-13 0 0)
(-3.61954082659996e-13 0 0)
(-5.96168960470875e-13 0 0)
(-7.45206513746755e-13 0 0)
(-6.81328876736176e-13 0 0)
(-3.83247074696085e-13 0 0)
(-1.70333893056132e-13 0 0)
(-1.9162219825037e-13 0 0)
(-1.70337240800309e-13 0 0)
(-1.06464290631578e-13 0 0)
(-1.91630902385226e-13 0 0)
(-2.12920546677133e-13 0 0)
(-4.04541405829833e-13 0 0)
(-5.96167621373205e-13 0 0)
(-7.23920217199021e-13 0 0)
(-5.53586324142885e-13 0 0)
(-4.04539397183325e-13 0 0)
(-5.10995653228878e-13 0 0)
(-4.68410338705557e-13 0 0)
(-4.47124711706654e-13 0 0)
(-4.47124042157823e-13 0 0)
(-4.68417034193904e-13 0 0)
(-3.61957430404177e-13 0 0)
(-1.70335901702641e-13 0 0)
(-2.55503852553955e-13 0 0)
(-3.61960108599512e-13 0 0)
(-4.89709356681151e-13 0 0)
(-4.47128728999665e-13 0 0)
(-2.34210190969043e-13 0 0)
(-1.70333223507299e-13 0 0)
)
;

boundaryField
{
    fluidSide
    {
        type            zeroGradient;
    }
    fluidBound
    {
        type            zeroGradient;
    }
    nullDims
    {
        type            empty;
    }
}


// ************************************************************************* //
