/*--------------------------------*- C++ -*----------------------------------*\
  =========                 |
  \\      /  F ield         | OpenFOAM: The Open Source CFD Toolbox
   \\    /   O peration     | Website:  https://openfoam.org
    \\  /    A nd           | Version:  7
     \\/     M anipulation  |
\*---------------------------------------------------------------------------*/
FoamFile
{
    version     2.0;
    format      ascii;
    class       labelField;
    location    "0.001/lagrangian/dsmc";
    object      origId;
}
// * * * * * * * * * * * * * * * * * * * * * * * * * * * * * * * * * * * * * //


3711
(
5243
5265
5284
5323
5364
5375
5451
5458
5459
5468
5472
5557
5575
5592
5595
5611
5699
5701
5714
5735
5767
5800
5809
5813
5817
5819
5826
5852
5859
5897
5903
5904
5910
5914
5922
5923
5931
5940
5951
5952
5971
5980
5985
6003
6006
6023
6039
6048
6071
6073
6075
6093
6095
6099
6107
6135
6149
6150
6162
6187
6188
6208
6216
6224
6232
6247
6257
6268
6282
6283
6303
6304
6348
6358
6363
6370
6372
6378
6385
6392
6397
6404
6416
6431
7202
6457
6462
6468
6488
6497
6503
6504
6524
6525
6266
6535
6545
6559
6563
6564
6394
6587
6593
6594
6595
6597
6598
6605
6619
6661
6634
6638
6639
6641
6657
6659
6684
6708
6710
7155
6717
6760
6763
6775
6780
6781
6806
6179
6810
6813
6814
6819
6820
6827
6829
6833
6834
6848
6851
6366
6868
6869
6877
6878
6880
6882
6894
6899
6900
6903
6904
6920
6928
6934
6935
6937
6948
6949
6560
6808
6961
1368
7201
6979
6982
6989
6997
7000
7007
7023
6548
7034
7038
7040
7041
6263
7048
6727
7072
7073
7076
7023
7085
7086
7094
7100
7101
7102
7108
7111
7123
7124
7132
7141
7149
7153
7159
7160
7180
7190
7196
7197
7206
7207
7222
7227
7231
7233
7238
7239
7243
7254
7262
7264
7266
7267
7272
7275
7279
7284
7396
7287
7288
7289
7292
7304
7305
7308
7310
7507
7325
7327
7330
7340
7344
7347
7356
7364
7369
1589
7055
7377
7381
7396
7400
7410
7412
7808
7421
6774
7439
7443
7446
7447
7448
7452
7456
7467
7477
7479
7488
7490
7491
982
7958
7503
7505
7507
8144
7515
7519
7525
7534
7540
7557
7573
7578
7579
7351
7606
7621
7622
7640
7644
7045
7648
7657
7659
7664
7210
7688
7690
7696
7703
7704
7705
7708
7712
6314
7079
7719
7725
7726
7727
7729
7730
7759
7762
7770
7772
7779
7783
7788
7793
7795
7796
757
7799
7801
7809
7810
7818
487
6757
7824
7825
7826
7830
7832
7834
7836
7837
6296
6484
6847
7844
7848
7807
7859
7861
7865
7875
7880
7884
7885
7331
7888
7893
7898
7907
7908
7104
7920
7921
7922
7923
7924
416
7936
7938
7940
7942
7943
7947
6526
470
7954
7956
7961
7967
7968
7969
7970
7973
7974
7981
7982
7983
7987
7988
7989
1180
8001
8003
8006
6421
7361
8016
8022
8025
8027
8031
7543
8043
8045
8051
6236
8057
6839
8069
8076
8030
8083
6822
8091
8092
8094
8103
7068
8108
8115
8116
8119
8122
8131
8132
8196
5059
8136
8137
8139
8141
8143
8146
1604
8153
8161
8162
8163
8165
8167
8168
8169
6233
8511
8171
8179
8182
8186
8187
8189
6705
8194
8196
8204
8208
8215
8219
8227
8230
8234
8237
6305
8244
8252
8253
8255
7269
8522
8262
8272
8273
8278
8279
8285
8291
8296
8303
8306
8313
8321
7613
8337
6686
8340
8342
8344
8345
8351
520
8353
8354
8359
8363
7447
8692
6271
8365
8367
6288
198
8385
8386
8389
8391
6461
7614
8396
8398
8401
8402
469
6752
8413
8416
8421
8422
7716
7871
8435
8737
8447
8449
6523
8459
8460
8463
8464
8468
8469
8470
8471
8472
8473
8476
8477
8478
7163
8484
8485
8488
8490
8491
8493
6957
8500
8501
8504
8505
8506
6768
5230
6817
8516
8520
8524
8526
8528
8535
8536
7440
2527
8542
8549
8557
8558
8560
8563
8564
6697
8569
6488
8577
8578
8579
8586
8588
8590
8593
8594
6826
7243
8608
8612
6044
7067
8619
6487
8621
8624
8625
8630
6520
8098
8637
8638
8641
8645
8646
7260
7155
8652
8658
8659
8663
8667
8669
8673
8674
8675
8676
8679
8682
8683
8684
7293
8690
8691
8692
8693
8694
8703
8704
7933
8715
8716
8718
8719
8721
1149
7427
8730
8734
8735
8736
8738
8740
8233
8744
8745
8750
8752
6837
8761
8762
8766
8767
7572
8840
8768
8771
8774
8775
7975
8284
8779
8780
8787
8789
8793
8794
8795
7510
6893
8027
8800
6671
6769
8808
6398
8815
8823
8824
8828
8829
6587
7538
495
8833
8836
8837
8838
8839
8840
8844
8101
4541
8851
8853
7503
8856
8857
8858
8861
8862
7012
7224
8869
8873
8875
8877
8878
8881
9276
9330
8887
8895
8896
8899
8901
8906
8914
8915
8919
8923
6457
8924
8928
8933
8936
7803
9408
8941
8947
8950
8954
8955
8960
8961
8965
8969
6934
8662
6700
8971
8972
8974
8978
8979
8981
6920
8988
8991
8995
6887
7822
9002
9005
7917
6240
9015
9028
9031
9033
9038
9043
9045
9047
9048
7115
9050
9052
9053
9055
9063
9064
9065
9067
9070
8048
9075
9076
9077
9079
9080
9081
9083
8051
7408
9093
9094
7792
9107
9111
9105
335
7692
9116
9117
9120
9122
7488
1089
458
6286
9129
9131
9132
9135
9137
9138
9142
9148
8713
9157
9159
9163
9164
9166
9167
9168
9170
6650
8423
8704
9177
9178
9179
9180
9181
9182
9183
9185
9187
7936
8329
9188
9189
9190
9192
9194
9195
7437
9203
9205
9207
9208
9211
9212
9221
9222
9223
9228
9233
9234
12
9237
9238
9239
9240
6237
9246
9251
7405
8665
9254
9255
9256
9259
9261
9262
9263
9264
9266
9268
9269
7555
8239
9272
9273
9278
9283
6965
9287
9288
6491
7965
9293
9294
9306
9308
9309
9311
8032
5650
5247
9313
9318
9322
9325
9328
9329
7882
9332
9334
9336
9340
9341
8714
9347
9349
9350
9352
7367
2063
4333
9358
9359
9360
9363
9365
9366
9367
9368
9369
5824
9379
9385
9387
9389
9391
9395
9397
9398
7574
9405
9407
9412
9413
9414
7254
8545
9074
9420
9426
7503
8630
9702
9430
9431
9434
9439
9440
9441
6453
5949
9406
9701
5728
9446
9448
9451
9452
9459
9460
9461
9464
9465
8951
9469
9470
9473
9476
9479
485
7229
8244
9486
9490
9492
9494
6556
9500
9503
9508
9512
9514
9517
9519
9522
9526
6385
6562
6269
6367
9527
9528
6478
9532
9535
9541
9547
9550
9551
9552
9553
9555
9557
9558
9560
9570
9564
9567
9570
6701
7973
8187
3313
7125
9576
9578
9579
9581
9582
9583
9585
9586
9588
9589
9591
9592
8836
9594
9595
9600
7475
6755
9609
9610
9614
8014
5560
9186
9617
9618
9620
9621
9623
9628
9629
9631
9633
9634
9635
9637
9641
9650
9654
9656
9657
9658
9662
7970
9557
9666
9667
9668
9309
8205
9671
9675
9676
9677
9678
9680
9681
6265
9634
9683
9685
9686
9694
9696
9697
9698
9699
7829
8534
9701
9702
9703
9704
9708
9710
9711
9712
9713
8474
7176
9852
7335
8350
9719
9721
6559
6258
9096
9726
9727
9732
8839
9127
9388
6395
9733
9736
9738
9741
9742
9745
9746
9754
9755
9757
6198
6041
9760
9762
9763
9764
9765
9766
9767
9768
9054
9777
9778
9780
9783
6923
9787
9788
9791
9796
9797
9801
9803
10021
7767
9072
9807
9809
9811
9815
9816
9817
9818
9820
9821
9823
9824
9825
9826
9828
9829
6399
7365
8698
7035
5832
8650
9831
9832
9836
9838
9840
9841
6616
7162
8539
7246
9845
9846
9848
9852
6098
9857
9858
9861
9864
9868
9870
9876
9878
9880
9883
9885
9886
9889
9890
9891
9892
9897
6533
8947
6809
9903
9904
9907
7450
8789
9559
9913
8371
9290
9915
9917
9918
9919
9921
9922
9924
6980
5858
9926
9933
9935
9936
9937
9941
6958
7630
8245
8706
9946
9951
9953
9954
7537
7718
8231
7164
7466
9099
9957
9959
9961
1214
9693
9963
9968
9969
6201
1236
9676
9975
9976
9979
9980
9981
9984
9985
9987
9990
9176
718
9997
10003
10006
10007
7517
8613
4926
7711
10012
3298
7509
10020
10022
10024
10026
10027
10029
10036
10037
10038
10042
10043
10045
10046
10047
10049
10050
10052
10054
10057
10058
10061
238
9560
10064
10070
10071
10072
10073
8899
5771
7357
10082
10083
10084
10085
10088
10089
10090
10092
10096
10099
10100
10101
9685
6340
10106
10110
10112
10113
10115
10116
10118
10119
10122
10123
10124
10125
10126
10132
10133
10134
10135
10136
10137
8248
10138
10142
10144
10145
10146
6714
1146
10151
10152
7685
6316
8599
10155
10156
10158
10161
10162
10164
7377
6632
7696
9150
10104
5020
10167
10168
10169
10170
10171
10172
10174
10176
10177
10179
10180
10182
10184
10186
850
9314
9855
10188
10189
10190
10195
10196
10197
10292
7440
10200
10201
6748
10205
10206
10210
10211
10212
7610
7544
10214
10216
10218
10220
10222
10223
10224
10225
10227
10228
10229
10232
6584
5568
6711
9848
10237
10242
10245
10246
10247
4367
5579
9778
10039
10257
10258
10259
10261
10262
10263
10264
10265
8877
9292
10268
10271
10276
10277
10279
10280
10281
10282
10284
10285
8843
9893
6804
10291
10294
10295
10296
10298
10299
10301
10303
7249
8488
9684
9735
10307
10308
10311
10313
10314
10315
10316
10323
10324
10326
10329
7190
1273
10334
10335
10336
10337
8343
8399
8770
10346
6446
8240
5752
10460
7961
10348
10356
10361
10365
10367
266
490
7617
8498
9059
9235
10370
10374
10375
10376
10379
10381
10382
7571
6542
10383
10384
10385
10386
10387
10388
10391
10392
8014
7405
6660
10393
9200
10401
10402
10404
7446
5705
7816
8430
6843
10406
10407
10410
10411
10413
10415
10416
8800
9332
10419
10421
10423
10424
10426
10427
10428
10429
10430
10431
10433
10435
10437
9191
7437
10440
10441
10442
7309
10456
7799
1593
8312
6788
10447
10449
10453
10454
10455
10456
10457
10458
7009
9252
10462
10463
10468
10471
10472
10473
10476
10477
10478
10479
10480
10482
8355
10484
10486
10487
10489
10493
10494
10495
10496
10497
10501
1277
10505
10508
10510
10513
8846
6111
8380
10259
10520
10522
10523
10524
7515
9187
5460
9529
10568
10799
10527
10529
10530
10531
10537
10540
10541
10542
9386
9513
8705
10548
10552
10555
10560
10561
10564
10565
10567
10179
7117
9995
6261
10568
10569
10571
10572
10574
10575
6182
9753
7341
10580
10581
10583
10584
10585
10586
10587
10589
6543
6749
10591
10593
10594
10596
10598
10599
10601
10602
8120
8703
10603
10605
10607
10608
10609
10610
10613
10614
10616
10617
10618
10619
10620
7269
10798
7136
10008
10622
10623
10624
10625
10626
10627
10628
10629
10630
10632
6845
9000
6020
10633
10634
10635
10636
8585
10059
10637
10638
10640
10643
10644
10647
8699
8365
8458
10652
10658
10659
10660
10661
10663
6765
7772
6832
9607
10884
9142
10664
10670
10671
10673
10674
10675
10676
10677
10678
905
10278
10211
10681
10682
10683
10685
10686
10687
10688
802
8433
8842
7853
8944
10287
10691
10694
10698
10699
10700
10702
10703
10704
10705
10706
10707
6518
8579
6647
212
10711
10712
10714
10716
10719
10721
10722
10723
10725
10728
10729
10730
10731
10732
8690
9052
9411
8341
7897
5925
9626
10733
10734
10742
10744
10745
10746
10751
6944
10648
6906
4029
9179
10752
10753
10754
8291
7200
5430
8805
10758
10760
10761
10763
10765
10766
10767
10768
10769
7449
9050
8430
10019
244
5298
3107
10771
10774
10775
10776
10778
10780
10783
10784
10785
10786
10787
8837
7115
7366
10791
10792
10794
10796
10799
10802
10804
10805
10806
10807
10808
10809
8173
4980
8626
10813
10814
10815
10817
10818
10820
10289
10923
7514
10821
10822
10826
10828
10829
8704
6699
6515
10831
10836
10837
10838
10839
10840
10842
7374
8295
10706
9644
10844
10845
10847
10849
10850
10853
10854
10855
10858
10861
10862
10863
8986
7253
5316
10864
10867
7420
6254
5344
10532
10871
10874
10875
10876
10877
8371
9380
10881
10882
10884
10885
10887
10889
10890
7441
7260
4750
9353
10891
10893
10895
10896
10897
10898
10900
10901
10903
10904
10906
9119
8038
7803
6241
9056
7113
6779
7083
9529
9837
10908
10909
10911
10912
10913
10914
10915
10917
10920
10921
10922
10923
10924
10925
10926
8377
8862
10844
10927
10932
10933
10935
10938
7558
6892
8487
11151
5047
9172
10939
10940
10941
10942
10943
10944
10946
10947
10948
10949
10950
8419
10953
10954
10955
10956
10958
10959
10960
10961
10962
10965
10968
10969
10970
10972
10973
10975
10977
10978
10980
8322
1167
10444
10060
10981
10982
10984
10986
10987
10991
10993
10994
10995
10997
10998
8558
6674
9120
10003
786
11000
11001
11002
11005
11006
11007
6301
9737
693
10707
10861
11012
11013
11014
11016
11017
11018
11020
11021
11022
11023
11024
5748
6645
8775
11028
11029
11030
11031
11034
11036
11038
11039
11041
7083
9583
10103
10643
6592
6181
11045
11049
11052
11053
11054
11055
8167
8552
10589
11058
11059
11060
11061
11062
11063
7787
10814
11065
11067
11068
11070
6259
5642
7049
7293
323
11075
11076
11077
11078
11080
11081
11082
11083
11085
11087
11088
11091
11092
11094
11095
11096
6797
8383
6886
11099
11100
11101
11102
11104
2966
6395
11183
11106
11109
8503
8239
787
6400
11112
11114
11115
11116
11117
11118
11119
11120
8357
6709
10720
294
9744
11121
11122
11123
11124
11127
11130
11131
11132
11134
8927
10242
9646
8756
10590
11140
11142
11143
11144
11145
11146
11148
11149
11150
11152
11153
11155
11156
11158
11159
11161
8774
6177
103
11164
11165
11167
11168
11169
11172
11173
11174
11175
11176
11177
7368
7965
7604
5485
7283
7511
8177
11180
11182
11183
11184
7238
6295
8750
11081
11186
11189
11190
11191
11192
11193
11194
11197
11198
11199
11200
11202
11203
11204
11205
814
8649
10302
2403
9550
11209
11211
11214
11215
11218
11219
11220
11221
6904
7146
979
11130
11225
11226
11227
11228
11230
11231
11232
11235
11236
11237
11239
11240
11242
9568
11095
6739
9054
11245
11246
11248
11249
11250
11251
11252
6611
7950
11306
11416
11253
11254
11257
11260
11261
11262
7789
8304
9337
9604
10935
9378
7080
8176
9993
7646
11264
11265
11270
11271
11273
11274
11276
987
8266
288
9314
6829
10234
11281
11282
11283
11284
11289
11290
11292
6260
8599
9407
8382
5843
1187
9122
7869
11296
11297
11301
11302
11303
11304
442
6749
8124
9815
7326
11305
11328
11034
5273
11306
6591
9515
8731
9668
11310
11311
11312
11313
11314
11315
11318
11319
11320
11321
11323
11324
11325
11326
11327
11328
11330
11331
11332
11333
10195
7953
11335
11336
11337
11338
11339
11340
11341
11342
11343
11345
10284
7748
8664
11347
11348
11349
11350
11351
11353
11354
11355
11356
11357
11358
7111
7804
9972
7119
8658
9402
7285
11359
11361
11362
11363
11364
11366
11367
6306
8044
10035
6232
11370
11371
11372
11373
11374
11376
11378
11379
11380
10900
11383
11384
11385
11386
11387
11388
11389
11390
11391
11393
11396
11397
11399
11400
11401
11402
11403
11406
11407
10526
11182
8300
9321
11408
11410
11411
11413
11414
11415
11416
11417
11419
11420
11421
11422
11423
8990
10265
10837
10923
11007
11425
11426
11430
9094
6993
10853
10339
5463
11432
11433
11437
11438
11439
11442
11444
11445
7426
7869
11448
11449
11450
11452
11453
11455
11456
11458
11459
11460
11462
11466
7277
7800
6754
10050
11469
11470
11471
11473
11475
11478
11479
11480
11481
11482
11483
11484
11485
11486
11487
5610
10396
10797
7310
8688
11244
9175
7530
6474
11488
11489
11490
11491
11493
6253
6794
7890
8769
9562
10793
7455
6726
11496
11498
11499
11501
11503
11504
6500
11065
11272
11506
11507
11508
11509
11510
11511
11513
11514
11515
11516
9078
9555
10921
8790
11519
11520
11523
11524
11525
11526
11527
11528
11529
11530
11531
6396
10623
7122
6991
7375
9734
9754
11337
10879
11534
11536
11537
11539
7795
8759
9674
7565
11540
11542
11543
11544
11545
11546
11547
11548
11549
11550
11551
11552
1371
7643
8334
1229
11531
11553
11554
11555
11556
11557
11558
11559
11560
11561
11562
11563
11564
11565
11567
11569
7720
8131
8743
11573
11574
11575
11577
11581
11583
11584
11585
11586
11587
11588
11589
8035
11217
10637
11592
11593
11594
11596
11597
11598
11599
11600
11601
11602
9472
9644
9058
6722
11604
11605
11606
11607
11608
9457
8192
10385
5932
11610
11611
11612
11613
11614
11615
11616
11617
11618
11619
11620
11623
11624
11625
11626
11628
11630
9930
8613
11610
11632
11633
11634
11638
11640
11641
11643
11644
11645
11646
11647
6782
7003
828
9947
5238
8776
9100
11090
8274
11650
11651
11652
11653
11655
11656
11658
11660
11661
11662
11663
11664
11665
11666
11667
11668
6969
6285
8021
9014
9627
8327
9770
8942
6566
9900
9101
7560
11738
10384
11669
11670
11671
11673
11674
11675
11676
5660
8154
9696
8002
11295
11677
11678
11680
11681
11683
11685
11686
11687
11688
11689
11690
11692
11693
11694
11696
8703
10428
7843
7004
8964
11208
11797
7737
10468
11697
11698
11703
11704
11706
11707
11712
11713
11715
11716
11717
1580
5393
6999
7521
8717
7844
11718
11720
11721
11722
11724
11726
11727
11728
11729
11730
8463
6238
6990
261
8670
7619
9298
11732
11733
11734
11737
11738
7354
8967
6652
7638
5572
9049
9571
11739
11740
11741
11744
11745
11746
11747
7084
10242
2368
9376
11748
11750
11751
11752
11753
11754
11755
11756
11758
11759
11760
11761
11762
11763
11764
11766
11767
11768
9383
10546
11770
11771
11772
11777
1184
7473
5922
9545
9552
6520
6327
1198
9418
11093
7396
11779
11780
11782
11783
11784
6581
5548
9385
2931
9949
7142
9768
6158
10233
7126
11786
11790
11791
11792
8634
9520
10177
5229
10612
9220
11816
6574
11793
11794
11796
11797
11798
11799
11800
11801
11802
11803
11804
11807
11808
11809
11810
8070
9369
9024
8908
11870
8584
10593
10772
8553
11811
11812
11813
11814
11815
11816
11817
11819
11820
11821
11822
11823
11824
11825
11826
11827
11828
11829
11830
9036
11271
11360
11162
6067
6534
11832
11833
11834
11836
11837
11838
11840
11841
11842
11843
11844
9046
9180
5979
11655
2171
9611
7101
11846
11847
11848
11849
11850
11851
11852
11853
11854
11855
11856
11857
6330
11230
11562
11858
11859
11860
11861
11862
11863
11864
11865
11866
11867
11869
11870
11871
11873
11874
7034
8389
10620
6659
6403
6334
10846
6870
11475
11672
11875
11876
11877
11880
11881
11882
11883
11884
11886
11888
11889
11890
11891
11892
11893
11894
11896
7586
8069
9147
5328
8538
7857
5050
10297
10361
11897
11899
11901
11902
11903
11904
11907
11908
11910
5609
9630
6595
7885
10613
7518
11911
11912
11913
11915
11917
11918
11920
11921
11922
11923
11924
11926
10171
7429
11927
11928
11930
11931
11932
11933
11934
11935
11936
11938
11939
11941
7968
8549
10512
10884
4474
11942
11944
11945
11946
11947
11950
11951
11952
11953
11954
11955
11956
11957
11959
11960
11961
94
6468
8243
8603
10143
8120
5288
10051
6667
11963
11964
11965
11966
11967
8772
10158
1619
8759
11968
11969
11970
11971
11973
11974
11975
11976
10133
7392
1445
8520
9213
11829
11978
11980
11981
11983
11984
11985
11986
11987
11988
11989
11990
11991
11992
8763
9138
7435
11737
6083
11993
11994
11995
11997
11998
11999
12000
12001
12002
12003
12004
12005
12007
7422
5924
11501
11857
9813
6823
5372
11982
12009
12010
12011
12012
12013
12014
12015
12016
12018
12019
6548
8029
6683
6252
12020
12021
12022
12023
12024
12025
12028
12029
6735
8113
6802
8220
1790
11244
6955
12092
7299
12031
12032
12033
12034
12036
12037
12038
12040
12042
12043
8572
9100
9199
8053
7632
8708
2520
11379
8284
10371
11224
12044
12045
12046
12048
12049
12050
12051
12052
12053
12054
12055
12056
12058
12059
12060
12061
9419
6163
9993
11204
10811
9743
12063
12064
12065
12066
12067
12069
12070
12071
12072
12073
12074
12075
12076
12077
12078
12079
12080
12081
7532
9572
12082
12083
12084
12085
12086
12088
6343
9425
7667
7057
9580
8598
2538
438
2734
12090
12091
12092
12093
12094
12095
12096
12097
12098
12099
7976
8801
6786
7610
8930
4588
12101
12102
12105
12106
12107
12108
12109
12110
12111
12114
12115
12116
12117
12118
12119
12120
12121
12122
12123
12124
9152
8406
7300
9677
12125
12126
12127
12128
12129
12130
12131
12132
12133
12134
12135
12137
12138
12139
12140
12141
10030
10407
9734
6438
7916
11223
11544
10747
12142
12143
12144
12145
12146
12147
12149
12150
12151
12153
8707
10185
6743
9494
983
11026
8436
9590
12154
12156
12157
12158
12160
12161
12162
12163
12164
12165
12166
12167
12168
12169
12170
8401
7721
6360
11203
556
10583
9006
645
12171
12172
12173
12174
12175
12176
12177
12178
12180
12181
8538
8722
7035
8851
6715
7164
11954
7914
9747
9004
12182
12184
12185
12186
12187
12188
12189
12191
12192
12193
12194
12195
12196
12197
12198
12199
413
8568
8571
7717
10264
9724
8559
5246
10079
9230
12200
12201
12202
12203
12205
12206
12207
12208
12209
12210
7387
8806
9325
9546
9833
7984
11774
7902
12212
12213
12214
12215
12216
12218
12219
12220
12221
12222
12223
12224
6348
8832
8924
558
8055
11572
9262
10885
10890
10250
10181
12225
12226
12227
12228
12229
12230
12231
12232
12233
12234
12235
7679
8525
6852
10477
6539
9356
10438
7202
11379
12236
12237
12238
12239
12240
12241
12243
12244
12246
12247
12248
12249
12251
12252
9419
6480
6963
7966
12253
12255
12256
12257
12259
12260
12261
12262
12263
12266
12267
8138
9355
10113
7438
10662
6420
1684
7072
4786
11074
4869
12268
12270
12271
12272
12273
12274
6141
9862
10454
8441
12277
9575
7750
2748
8095
11641
12275
12276
12277
12278
12279
12280
12281
12282
12283
12284
12285
12286
12287
8858
7025
6392
11688
6186
6902
8644
7320
12288
12289
12290
12291
12292
12293
12294
12295
12296
12297
12298
12299
12300
6342
7339
9404
10001
10222
10239
10891
10033
11630
11955
8294
11097
8173
11850
7298
12301
12302
12303
12304
12305
12306
12307
12308
12310
12312
12313
12314
12315
12316
12317
12318
12319
12320
12321
12322
12323
12324
10052
7093
8814
9916
1655
9929
10189
10251
11366
12325
12326
12327
12328
12329
12330
12331
12332
12333
12334
12335
12336
12337
12338
8989
5674
11149
11367
11510
10345
12339
12340
12341
12342
12343
12344
12345
12346
12347
12348
12349
12350
12351
12352
12353
12354
7908
9433
11294
9320
11382
7613
7016
11056
12355
12356
12357
12358
12359
12360
12361
12362
12363
12364
12365
12366
12367
12368
10599
7177
12285
7904
8863
11073
11858
8751
12370
12371
12372
12373
12374
12375
12376
12377
12378
12379
12380
12381
12382
12383
12384
9523
10382
6235
11845
12385
12386
12387
12388
12389
12390
12391
12392
12393
12394
12395
12396
12397
6549
8071
8970
8499
11668
8121
9947
11778
1374
2167
8054
12140
12160
10251
12398
12399
12400
12401
12402
12403
12404
12405
12406
12407
12408
12409
12410
12411
9437
9618
10000
10276
9044
9296
9559
10070
6794
11407
4237
12286
12412
12413
12414
12415
12416
12417
12418
12419
12420
12421
12422
12423
12424
12425
12426
12427
12428
9162
9155
11231
6830
8438
12318
9552
8933
)


// ************************************************************************* //
