/*--------------------------------*- C++ -*----------------------------------*\
  =========                 |
  \\      /  F ield         | OpenFOAM: The Open Source CFD Toolbox
   \\    /   O peration     | Website:  https://openfoam.org
    \\  /    A nd           | Version:  7
     \\/     M anipulation  |
\*---------------------------------------------------------------------------*/
FoamFile
{
    version     2.0;
    format      ascii;
    class       Cloud<dsmcParcel>;
    location    "0.001/lagrangian/dsmc";
    object      positions;
}
// * * * * * * * * * * * * * * * * * * * * * * * * * * * * * * * * * * * * * //

5092
(
(0.7952267998 0.08099236287 0.1023866001 0.02139423725) 425 824 2
(0.2746172901 0.3626913549 0.1290167867 0.2336745683) 453 877 2
(0.5560876384 0.2106545245 0.2219561808 0.01130165628) 545 1042 1
(0.07610903391 0.05117929687 0.461945483 0.4107661862) 524 1010 1
(0.2132020788 0.327708208 0.06569075258 0.3933989606) 505 2228 1
(0.4529683389 0.1702170417 0.2735158305 0.1032987889) 444 861 2
(0.6023557995 0.1988221003 0.1596731651 0.03914893519) 404 784 2
(0.5453270971 0.06714248443 0.160193967 0.2273364514) 445 843 2
(0.7846291175 0.09442939864 0.1076854412 0.01325604261) 475 919 2
(0.2845652463 0.3577173769 0.2608494357 0.09686794118) 374 727 2
(0.05506980008 0.1792170529 0.2932480471 0.4724651) 431 835 1
(0.1252152636 0.4373923682 0.01064366297 0.4267487052) 544 1032 1
(0.2231590545 0.06812785059 0.3884204728 0.3202926222) 445 862 2
(0.6292783551 0.1853608224 0.1586452873 0.02671553509) 464 898 2
(0.6701159631 0.1526780329 0.1649420184 0.0122639855) 453 878 2
(0.1339433049 0.3448277793 0.4330283476 0.08820056828) 504 975 2
(0.1968065704 0.4015967148 0.1553452542 0.2462514606) 524 1013 1
(0.3369706732 0.3315146634 0.1903798149 0.1411348485) 453 859 1
(0.09181064964 0.4540946752 0.04517495022 0.408919725) 543 1041 2
(0.07285768043 0.2837600237 0.4635711598 0.1798111361) 513 992 2
(0.109009471 0.4454952645 0.3750868649 0.07040839957) 493 954 1
(0.2922326359 0.353883682 0.1105761694 0.2433075127) 385 746 2
(0.4709357533 0.1957185188 0.2645321233 0.06881360457) 485 938 2
(0.6510315681 0.174484216 0.01077283932 0.1637113766) 445 860 2
(0.08614584467 0.3216905948 0.1352364829 0.4569270777) 505 957 2
(0.1263608727 0.4368195636 0.07562144881 0.3611981148) 474 918 1
(0.3160697544 0.1041761757 0.2377889471 0.3419651228) 441 854 1
(0.7702777156 0.1148611422 0.03886002974 0.07600111244) 535 2231 2
(0.1032842253 0.2798895111 0.1684683762 0.4483578873) 545 2232 1
(0.008117674826 0.16646007 0.3294810926 0.4959411626) 395 748 2
(0.2973189425 0.0821183117 0.3513405287 0.269222217) 374 728 2
(0.4385327219 0.1292842903 0.1514493487 0.2807336391) 394 765 1
(0.1901605227 0.1539148101 0.2510049285 0.4049197386) 468 905 1
(0.1188792514 0.4405603743 0.3767876751 0.06377269924) 484 936 2
(0.1292191933 0.09859055934 0.4353904034 0.336799844) 502 968 1
(0.1188311146 0.3071531942 0.1334312485 0.4405844427) 494 955 1
(0.2224771626 0.27897478 0.1097866386 0.3887614187) 513 991 1
(0.3950008274 0.3024995863 0.2303892911 0.07211029519) 415 803 2
(0.1600782512 0.4199608744 0.4142460135 0.005714860896) 444 842 1
(0.3366040272 0.3185222499 0.01317573649 0.3316979864) 435 2221 1
(0.04047894196 0.479760529 0.3615252648 0.1182352643) 474 918 1
(0.5145020003 0.2427489999 0.09679421717 0.1459547827) 435 2221 2
(0.132269258 0.4161689721 0.433865371 0.01769639883) 440 850 1
(0.792127636 0.103936182 0.02375368178 0.08018250023) 525 995 1
(0.4927750316 0.2294600786 0.2536124842 0.02415240557) 485 938 2
(0.2271512218 0.3864243891 0.25531119 0.1311131991) 435 2221 2
(0.007201364934 0.4963993175 0.4853055014 0.01109381614) 473 913 2
(0.01614204898 0.4919289755 0.2410132372 0.2509157384) 374 709 1
(0.8105592666 0.0001284894172 0.0947203667 0.09459187728) 474 918 2
(0.3823833495 0.3088083253 0.2051883215 0.1036200038) 424 822 2
(0.3847094857 0.1033321422 0.3076452572 0.2043131149) 432 838 2
(0.3173626324 0.3413186838 0.04901429336 0.2923043904) 535 1014 1
(0.1146020238 0.4426989881 0.3485189819 0.09418000624) 492 952 1
(0.08651978453 0.222355887 0.2343842207 0.4567401077) 475 2225 1
(0.8760213481 0.002236621875 0.05975270407 0.06198932594) 395 748 2
(0.05583148328 0.4720842584 0.3114235196 0.1606607388) 392 759 2
(0.02658907785 0.3299235893 0.4867054611 0.1567818718) 414 804 2
(0.6426530455 0.1786734772 0.05779032761 0.1208831496) 435 843 1
(0.4812633882 0.2593683059 0.1355559566 0.1238123492) 365 2214 2
(0.02375803915 0.4881209804 0.2758361981 0.2122847823) 375 727 2
(0.0451317777 0.378467302 0.09896680917 0.4774341111) 453 859 2
(0.03665167723 0.2735183218 0.2081558396 0.4816741614) 442 856 1
(0.1573212212 0.4213393894 0.1698456193 0.2514937701) 442 856 2
(0.55455073 0.222724635 0.02401097714 0.1987136578) 513 991 2
(0.2799786744 0.07302787381 0.286982789 0.3600106628) 515 2229 1
(0.1624803341 0.4187598329 0.2754528225 0.1433070105) 505 957 1
(0.4374885401 0.2728021086 0.008453621337 0.2812557299) 465 881 2
(0.2172261624 0.1499483931 0.2414385257 0.3913869188) 365 2214 1
(0.09195761199 0.454021194 0.3231540011 0.1308671929) 481 928 2
(0.5696763437 0.08903899428 0.1261228339 0.2151618282) 445 2222 1
(0.2927695541 0.3287567653 0.02485845765 0.3536152229) 462 894 1
(0.4446083102 0.2776958449 0.1791495959 0.09854624902) 441 855 1
(0.5209465047 0.2238415243 0.01568522332 0.2395267477) 434 823 2
(0.03049646348 0.4847517683 0.3427087364 0.1420430318) 531 1007 1
(0.2370891122 0.02345401314 0.3814554439 0.3580014308) 424 823 2
(0.6602862912 0.1698568544 0.06423466335 0.1056221911) 515 995 1
(0.166280284 0.416859858 0.324861885 0.09199797297) 542 1039 2
(0.08119678695 0.3551374844 0.4594016065 0.1042641221) 543 1040 1
(0.1564221934 0.09809116884 0.3236977345 0.4217889033) 525 995 2
(0.6070030212 0.1754375451 0.1964984894 0.02106094429) 385 746 1
(0.6036036202 0.1981981899 0.1304597112 0.0677384787) 375 710 1
(0.3279633211 0.3336677186 0.3360183395 0.002350620835) 387 752 2
(0.4789706961 0.2605146519 0.06173563976 0.1987790122) 381 740 2
(0.02393772063 0.1634287743 0.3246023654 0.4880311397) 395 748 2
(0.3893644796 0.3053177602 0.2830981201 0.02221964005) 414 801 2
(0.3767216333 0.3116391834 0.1801145312 0.1315246522) 407 789 2
(0.02419950919 0.4825915405 0.005308704944 0.4879002454) 401 778 1
(0.3854940979 0.3072529511 0.07774485259 0.2295080985) 392 759 2
(0.3638345623 0.3180827188 0.1636097397 0.1544729791) 429 813 1
(0.006190282475 0.4969048588 0.4545741834 0.04233067532) 444 842 1
(0.5826704389 0.2086647806 0.1326531022 0.07601167837) 454 861 1
(0.08099397409 0.459503013 0.1745075163 0.2849954967) 442 856 2
(0.1402290579 0.429885471 0.2110976754 0.2187877957) 485 919 1
(0.3691937545 0.3154031227 0.2348488282 0.08055429452) 412 800 1
(0.254376642 0.372811679 0.02491907754 0.3478926015) 532 1027 2
(0.5947814132 0.2026092934 0.1620116277 0.04059766573) 458 884 2
(0.3505785577 0.0702897185 0.2544210027 0.3247107212) 485 919 2
(0.3749682648 0.2991720497 0.01334381795 0.3125158676) 488 943 1
(0.1400235672 0.4299882164 0.02696812122 0.4030200952) 490 948 1
(0.09128166147 0.4543591693 0.2852195403 0.1691396289) 504 956 1
(0.1442593297 0.4278703351 0.2129523782 0.2149179569) 525 1012 2
(0.04854405288 0.210407614 0.2653203595 0.4757279736) 512 989 1
(0.4715684725 0.1554433607 0.2642157637 0.108772403) 365 710 2
(0.6927377427 0.12122836 0.03240276867 0.1536311286) 374 727 1
(0.1300002733 0.165864912 0.4349998633 0.2691349513) 380 736 1
(0.08409538231 0.4579523088 0.1583553636 0.2995969452) 405 2218 2
(0.2667017562 0.06999494524 0.2966541766 0.3666491219) 365 2214 1
(0.00578392786 0.4971080361 0.2073215316 0.2897865045) 442 857 1
(0.01947351048 0.4902632448 0.109854116 0.3804091288) 461 892 2
(0.05547658798 0.4462244267 0.472261706 0.02603727927) 395 765 1
(0.2535277333 0.1777522249 0.1954839085 0.3732361333) 484 918 2
(0.358417739 0.3207911305 0.1444366971 0.1763544334) 412 800 1
(0.1794640752 0.04767203372 0.3625959287 0.4102679624) 434 841 1
(0.09005179288 0.08469235889 0.3702817447 0.4549741036) 454 879 1
(0.3042170245 0.3478914878 0.09126213802 0.2566293497) 429 829 2
(0.007224263861 0.1736888673 0.4963878681 0.3226990008) 524 1010 1
(0.18523032 0.1068093204 0.40738484 0.3005755196) 515 993 1
(0.728365058 0.06828108819 0.06753638283 0.135817471) 453 877 1
(0.6930036584 0.1141468507 0.03935132006 0.1534981708) 522 1008 1
(0.6929113395 0.1412449751 0.1535443303 0.01229935517) 505 976 2
(0.626741359 0.1866293205 0.1352349552 0.05139436531) 459 886 2
(0.001935486644 0.4990322567 0.4066478439 0.09238441281) 372 705 1
(0.3164244012 0.1420171112 0.3417877994 0.1997706882) 391 760 2
(0.3148114552 0.2215802983 0.3425942724 0.1210139741) 432 838 2
(0.09285583963 0.1936444432 0.259927637 0.4535720802) 443 840 2
(0.1204271301 0.4397864349 0.2711228104 0.1686636246) 453 859 1
(0.4715335658 0.2642332171 0.1485642042 0.1156690129) 440 852 2
(0.2636422953 0.03254388858 0.3681788523 0.3356349637) 472 911 1
(0.2668544481 0.1670003756 0.3665727759 0.1995724004) 391 757 1
(0.01908356441 0.3038049807 0.1866532371 0.4904582178) 423 820 1
(0.6258801142 0.1870599429 0.0875581001 0.09950184279) 463 896 2
(0.5991133147 0.2004433427 0.1623788612 0.03806448152) 432 837 2
(0.3659682123 0.3170158939 0.2622829894 0.05473290445) 474 918 1
(0.4605410509 0.2697294746 0.1694947839 0.1002346906) 430 831 2
(0.2821515953 0.2976218366 0.06130236571 0.3589242023) 465 2224 1
(0.2201687494 0.3899156253 0.06286429551 0.3270513298) 444 842 1
(0.3461968539 0.3269015731 0.07942591016 0.2474756629) 478 906 1
(0.2787359073 0.09780785778 0.3606320463 0.2628241886) 465 900 2
(0.3578308775 0.2021712072 0.3210845612 0.1189133541) 463 897 2
(0.1520199936 0.04417721867 0.4239900032 0.3798127845) 473 916 2
(0.5037015999 0.2481492001 0.02350578116 0.2246434189) 484 934 2
(0.2229229084 0.1323802061 0.2561583397 0.3885385458) 534 1013 2
(0.5032367233 0.1434842093 0.2483816384 0.104897429) 544 1041 1
(0.6756924792 0.1621537604 0.1290827118 0.03307104865) 532 1027 2
(0.4115946885 0.2942026557 0.1197021777 0.174500478) 475 2225 2
(0.3793553136 0.04060177309 0.2697205701 0.3103223432) 417 808 1
(0.2073887749 0.3963056125 0.03875565318 0.3575499594) 393 761 2
(0.01971790667 0.1794778591 0.3106631876 0.4901410467) 422 800 2
(0.758119235 0.1209403825 0.1054161479 0.01552423457) 452 876 1
(0.02907071032 0.3411947367 0.4854646448 0.1442699082) 415 805 2
(0.5362645203 0.03324198191 0.1986257579 0.2318677398) 384 746 1
(0.3959901686 0.3020049157 0.0768034063 0.2252015094) 391 760 1
(0.635616794 0.182191603 0.1254477119 0.05674389117) 433 840 1
(0.05067056008 0.47466472 0.04527426848 0.4293904515) 524 1012 2
(0.5163837641 0.03802773946 0.241808118 0.2037803785) 514 994 2
(0.03486461588 0.2354952742 0.2470724179 0.4825676921) 545 2232 1
(0.4752550455 0.2363380197 0.2623724773 0.02603445751) 434 839 1
(0.08988361234 0.1192603926 0.4550581938 0.3357978012) 482 930 1
(0.01767783557 0.07875590515 0.4911610822 0.4124051771) 423 818 1
(0.320572456 0.339713772 0.3294524096 0.01026136238) 442 856 2
(0.4722614823 0.2439573969 0.01991186196 0.2638692588) 471 911 1
(0.3993429361 0.2256891811 0.07463935081 0.300328532) 442 838 2
(0.287688272 0.2176174324 0.356155864 0.1385384316) 476 921 2
(0.2900246975 0.3549876512 0.3201748404 0.0348128108) 412 781 1
(0.3550417038 0.1400939792 0.3224791481 0.1823851689) 495 957 2
(0.2914748433 0.1747840575 0.3542625784 0.1794785209) 495 955 1
(0.04318892215 0.4784055389 0.1139530166 0.3644525223) 532 1025 2
(0.4500127619 0.1317971738 0.1431964452 0.2749936191) 380 720 2
(0.1345359859 0.432732007 0.3655571145 0.06717489255) 458 868 1
(0.1196085856 0.2060291569 0.4401957072 0.2341665503) 395 765 1
(0.4086481119 0.295675944 0.1727578444 0.1229180996) 393 761 2
(0.1417372197 0.4291313901 0.351724914 0.07740647612) 442 854 2
(0.1676643573 0.2913178171 0.4161678214 0.1248500043) 375 729 2
(0.04997522634 0.207445458 0.2675669289 0.4750123868) 465 2224 1
(0.5185200852 0.1468518106 0.09388814677 0.2407399574) 423 820 1
(0.2377920804 0.2490590914 0.3811039598 0.1320448684) 433 837 1
(0.3060415357 0.3469792322 0.3062377456 0.0407414866) 434 842 1
(0.6306526704 0.1846736648 0.05380043439 0.1308732304) 435 2221 2
(0.4831281809 0.1973626635 0.2584359096 0.0610732461) 471 912 2
(0.3878616805 0.3060691597 0.2961706525 0.009898507261) 458 868 1
(0.2045137769 0.3977431115 0.1324483402 0.2652947714) 459 888 2
(0.312549231 0.3437253845 0.2222677237 0.1214576608) 413 801 2
(0.1833754519 0.408312274 0.1409463841 0.26736589) 454 880 1
(0.1106529658 0.03447217859 0.4102013385 0.4446735171) 435 2221 1
(0.3321186953 0.2247754409 0.1091652114 0.3339406523) 239 479 1
(0.4419748969 0.2790125515 0.05915021872 0.2198623328) 385 729 1
(0.1429774972 0.4285112514 0.009304369523 0.4192068819) 474 917 2
(0.6462162541 0.176891873 0.0586506724 0.1182412006) 444 860 2
(0.6129965698 0.1805534227 0.1935017151 0.01294829241) 434 839 1
(0.4857208075 0.2571395963 0.1916863341 0.06545326218) 505 976 1
(0.2439955581 0.09656596831 0.2814362527 0.378002221) 492 933 2
(0.1600783802 0.4199608099 0.09986617208 0.3200946378) 504 974 2
(0.2475258501 0.01674289617 0.3762370749 0.3594941788) 474 918 2
(0.8889160792 0.05554196042 0.04940375109 0.006138209329) 523 1008 2
(0.4403515606 0.2798242197 0.09534400224 0.1844802175) 492 951 2
(0.4386598346 0.2419829304 0.2806700827 0.03868715234) 474 915 1
(0.407215172 0.296392414 0.01226359711 0.2841288169) 513 991 2
(0.3405895874 0.3297052063 0.03561714595 0.2940880604) 529 1003 1
(0.5622247754 0.2188876123 0.1881995813 0.03068803106) 531 1025 2
(0.02978512543 0.3584856266 0.4851074373 0.1266218107) 518 1001 2
(0.1030258254 0.1345660958 0.3139209916 0.4484870873) 474 917 1
(0.1192328307 0.4403835847 0.1088315537 0.3315520309) 534 1031 2
(0.1555862463 0.249974858 0.4222068768 0.1722320189) 514 991 1
(0.3309799709 0.1844473368 0.1500626777 0.3345100145) 508 981 1
(0.0820164724 0.0163920391 0.4589917638 0.4425997247) 422 816 1
(0.1934714057 0.4032642972 0.3030731941 0.1001911031) 402 780 2
(0.2773136651 0.3613431675 0.3287942648 0.03254890272) 384 746 2
(0.2532008382 0.2903225895 0.08307699139 0.3733995809) 391 759 1
(0.1023311466 0.2523281886 0.4488344267 0.1965062381) 379 737 2
(0.02458116831 0.4877094158 0.189130165 0.2985792509) 425 822 2
(0.6398923182 0.1212421861 0.05881165478 0.1800538409) 440 834 2
(0.005269119756 0.07413794014 0.4232275 0.4973654401) 441 836 2
(0.727798997 0.1361005015 0.009879065682 0.1262214358) 393 764 1
(0.1135000222 0.05793102044 0.4432499889 0.3853189685) 403 783 2
(0.6999064255 0.1500467872 0.1458149496 0.004231837577) 405 784 2
(0.763324525 0.1183377375 0.09690800622 0.02142973128) 405 767 1
(0.3666762392 0.1927165242 0.3166618804 0.1239453562) 403 780 1
(0.6279718558 0.1860140721 0.07841039787 0.1076036742) 365 2214 2
(0.2462887597 0.2698924677 0.3768556202 0.1069631525) 513 989 1
(0.09307078041 0.4534646098 0.1449345054 0.3085301044) 404 784 2
(0.3258849487 0.3370575256 0.1659210846 0.1711364411) 373 723 2
(0.5049209872 0.05211202171 0.2475395064 0.1954274847) 425 824 2
(0.2057299744 0.3971350128 0.08996400963 0.3071710032) 394 765 2
(0.468776853 0.207114727 0.2656115735 0.05849684647) 478 925 2
(0.3363285119 0.3318357441 0.307309825 0.02452591903) 472 913 2
(0.1106497677 0.4446751161 0.01393598233 0.4307391338) 463 896 2
(0.3695977849 0.3152011076 0.01917221897 0.2960288886) 278 554 2
(0.1874271589 0.3733184343 0.4062864206 0.03296798623) 452 873 1
(0.4364179573 0.09236143145 0.2817910214 0.1894295899) 534 1029 1
(0.1563121302 0.1285674707 0.4218439349 0.2932764642) 435 843 2
(0.4578567937 0.2710716031 0.2608083563 0.01026324684) 495 957 1
(0.003499886322 0.414448817 0.08380123985 0.4982500568) 485 2226 1
(0.5605173934 0.2197413033 0.2096072922 0.01013401112) 534 1031 2
(0.597709472 0.1901135478 0.201145264 0.01103171618) 523 1008 1
(0.137238734 0.431380633 0.1009646736 0.3304159594) 524 994 1
(0.6586715146 0.0894091275 0.08125511522 0.1706642427) 503 972 1
(0.07428249716 0.1186626965 0.3441960549 0.4628587514) 477 922 1
(0.14197463 0.429012685 0.05232615586 0.3766865291) 385 2216 2
(0.7098349124 0.06015695809 0.1450825438 0.08492558569) 367 714 2
(0.1745181092 0.3896260138 0.02311493162 0.4127409454) 452 857 2
(0.2305196443 0.1847586506 0.1999815273 0.3847401778) 414 785 2
(0.7499242535 0.1250378732 0.1137726263 0.01126524695) 392 759 2
(0.1590541853 0.06106079441 0.359412113 0.4204729074) 385 2216 1
(0.6460453861 0.176977307 0.00946184549 0.1675154615) 384 746 2
(0.8076888686 0.08720779364 0.00894777208 0.09615556572) 411 779 2
(0.003746366137 0.01061564207 0.4981268169 0.4875111749) 464 899 2
(0.2593887969 0.3703056015 0.02238675413 0.3479188474) 394 747 1
(0.5659038562 0.2047053663 0.2170480719 0.01234270557) 371 719 1
(0.3505646463 0.3247176768 0.1122345205 0.2124831563) 439 848 2
(0.8280852434 0.0859573783 0.0175064602 0.06845091809) 432 837 2
(0.1460725304 0.3395097596 0.4269637348 0.08745397519) 404 785 2
(0.4399704054 0.2800147973 0.1135671404 0.1664476569) 411 797 2
(0.3158651867 0.08459466175 0.2574727449 0.3420674067) 485 2226 1
(0.3175463011 0.008697247883 0.3325296016 0.3412268495) 434 823 2
(0.4222202652 0.2888898674 0.2075095274 0.08138033999) 471 911 2
(0.3500213599 0.1233783833 0.3249893201 0.2016109368) 415 805 2
(0.2553168932 0.3723415534 0.1045066411 0.2678349122) 474 917 2
(0.5419343609 0.1765733463 0.05245947324 0.2290328195) 432 819 2
(0.1585042191 0.4150225069 0.4207478905 0.005725383557) 485 936 1
(0.2588319421 0.370584029 0.2293181557 0.1412658733) 464 896 2
(0.06766472411 0.1232116263 0.4661676379 0.3429560117) 423 821 2
(0.1578932094 0.4210533953 0.3463447361 0.07470865918) 445 862 1
(0.1744286959 0.4127856521 0.343136911 0.0696487411) 422 819 1
(0.5106048305 0.2446975847 0.08242723096 0.1622703538) 239 476 2
(0.3891331013 0.2661944682 0.3054334493 0.03923898116) 452 873 1
(0.1800162018 0.4099918991 0.05726086684 0.3527310323) 435 2221 2
(0.07918014228 0.2411753564 0.2192345725 0.4604099289) 515 2229 1
(0.2531730716 0.1282857908 0.2451276734 0.3734134642) 472 913 1
(0.08306257818 0.4584687109 0.2525175958 0.2059511151) 450 872 1
(0.2021731304 0.356708128 0.3989134348 0.04220530676) 442 854 1
(0.161696698 0.4070317975 0.419151651 0.01211985348) 442 857 2
(0.0558310567 0.267271564 0.2048129076 0.4720844717) 468 887 2
(0.6784853614 0.1125571151 0.0482002042 0.1607573193) 474 917 1
(0.5733049853 0.2133475073 0.1617745703 0.05157293703) 502 971 1
(0.1586596259 0.4206701871 0.07841834886 0.3422518382) 512 990 1
(0.117556886 0.441221557 0.1229394008 0.3182821562) 493 953 2
(0.01431532921 0.02905473557 0.4637875998 0.4928423354) 472 913 1
(0.6951042748 0.1382532433 0.1524478626 0.01419461934) 499 965 2
(0.1457988645 0.4271005678 0.1248835548 0.3022170129) 535 2231 2
(0.7373256748 0.05448964477 0.07684751782 0.1313371626) 512 971 2
(0.8219375128 0.08903124358 0.03830397302 0.05072727056) 511 985 2
(0.05743881903 0.05968139983 0.4115991907 0.4712805905) 410 795 1
(0.563656392 0.1928799488 0.218171804 0.02529185519) 401 776 1
(0.734512327 0.1327438365 0.01297895568 0.1197648808) 433 821 1
(0.06002925929 0.01331916934 0.456666201 0.4699853704) 368 2211 1
(0.4675988927 0.2662005537 0.01509951215 0.2511010415) 432 835 2
(0.4830808524 0.1808396946 0.07761987918 0.2584595738) 374 709 2
(0.4148418145 0.2925790928 0.2882974993 0.004281593505) 433 837 2
(0.1493337698 0.3295828351 0.4253331151 0.09575028001) 454 880 2
(0.5373811691 0.09800616091 0.2313094155 0.1333032545) 470 907 1
(0.03975449462 0.4801227527 0.4531187761 0.02700397661) 444 858 2
(0.1698952282 0.4150523859 0.12697474 0.2880776459) 421 798 1
(0.2532202306 0.1523210237 0.3733898847 0.221068861) 435 843 2
(0.2614251706 0.3692874147 0.2619716068 0.1073158079) 472 895 1
(0.1025586681 0.15942991 0.4487206659 0.289290756) 481 931 2
(0.2714225364 0.06112875671 0.3642887318 0.3031599751) 443 859 2
(0.5080824833 0.2459587584 0.1788529759 0.06710578246) 433 837 2
(0.5459559163 0.2176008728 0.2270220419 0.009421169067) 440 853 2
(0.5080896983 0.1491353143 0.2459551508 0.09681983649) 463 894 1
(0.4561010494 0.03120855605 0.2407409192 0.2719494753) 511 987 1
(0.8782536617 0.06087316913 0.01184830589 0.04902486324) 443 856 2
(0.6611010491 0.09514993458 0.1694494755 0.07429954088) 425 822 1
(0.477254627 0.03711594408 0.2242567424 0.2613726865) 501 950 2
(0.4373561074 0.2813219463 0.2503207837 0.03100116267) 420 814 2
(0.6564868345 0.005266447548 0.1717565827 0.1664901352) 492 949 1
(0.3396981241 0.3301509379 0.2227504308 0.1074005071) 420 815 1
(0.1663360147 0.3300183633 0.4168319926 0.08681362935) 510 983 1
(0.4678195793 0.05823277738 0.2660902104 0.207857433) 484 934 1
(0.8825528503 0.002848196805 0.05587537803 0.05872357483) 542 1028 2
(0.2035705108 0.02908526094 0.3982147446 0.3691294836) 465 900 2
(0.4871873539 0.2327575816 0.02364874141 0.2564063231) 498 944 2
(0.363282068 0.318358966 0.2380491003 0.08030986573) 445 843 1
(0.235283316 0.3269913751 0.05536696692 0.382358342) 448 867 1
(0.1456861911 0.4271569044 0.1780173406 0.2491395639) 524 1010 2
(0.7219727042 0.1390136479 0.05859429818 0.0804193497) 481 912 1
(0.0533130407 0.4733434796 0.3602870654 0.1130564142) 402 762 1
(0.400328449 0.0452354695 0.254600306 0.2998357755) 374 727 1
(0.08608214449 0.4569589278 0.3778506996 0.07910822813) 414 785 1
(0.1390011155 0.06907131158 0.3614281307 0.4304994422) 371 721 1
(0.8481743076 0.0759128462 0.01950428013 0.05640856607) 372 724 1
(0.02459761574 0.4877011921 0.4043271856 0.08337400652) 378 734 2
(0.1746301142 0.4126849429 0.05528926066 0.3573956822) 385 2216 2
(0.3612729667 0.3193635166 0.1454615451 0.1739019715) 375 729 1
(0.2013270378 0.01729519147 0.3820412896 0.3993364811) 383 744 1
(0.2715664565 0.1286935178 0.3642167718 0.235523254) 455 879 1
(0.4652048021 0.1291833652 0.1382142338 0.267397599) 419 794 2
(0.3656520828 0.1053667999 0.2118071587 0.3171739586) 432 837 1
(0.6843085124 0.1109471454 0.1578457438 0.04689859844) 363 704 1
(0.6484539823 0.1652027869 0.1757730088 0.0105702219) 423 818 1
(0.4631956019 0.2684021991 0.2430290394 0.0253731597) 452 873 2
(0.3044373206 0.3477813397 0.3049942227 0.04278711698) 445 862 1
(0.4661957274 0.2669021363 0.07339631853 0.1935058178) 450 871 2
(0.1270206574 0.3287363286 0.1077533427 0.4364896713) 491 949 1
(0.05567875091 0.2227149776 0.249445647 0.4721606245) 434 823 2
(0.849556587 0.02339497919 0.05182672729 0.07522170648) 455 2223 1
(0.01358432522 0.4932078374 0.4392252308 0.05398260657) 450 871 2
(0.1161522369 0.002933220828 0.4419238815 0.4389906607) 524 1010 1
(0.0983932025 0.2872390191 0.1635643797 0.4508033987) 432 819 2
(0.4245405592 0.2877297204 0.06143335798 0.2262963624) 532 1027 2
(0.06721833531 0.4358733077 0.4663908323 0.03051752465) 383 745 2
(0.06080117708 0.4485034377 0.02109597377 0.4695994115) 430 833 1
(0.5196815342 0.06963461796 0.2401592329 0.1705246149) 464 899 2
(0.9069200224 9.23343996e-05 0.04644765438 0.04653998878) 460 890 1
(0.3559238097 0.2332233887 0.08881470647 0.3220380952) 433 821 2
(0.02197256865 0.4890137157 0.09371276444 0.3953009512) 465 900 1
(0.1454933352 0.4263861782 0.0008671542258 0.4272533324) 461 874 2
(0.2637104008 0.2512366316 0.1169081681 0.3681447996) 472 913 1
(0.5870352068 0.0890505489 0.1174318477 0.2064823966) 454 861 2
(0.5199758875 0.216654427 0.2400120563 0.02335762927) 523 1011 2
(0.2109863857 0.1156512698 0.3945068072 0.2788555374) 414 801 1
(0.4818672598 0.238472381 0.02059398908 0.2590663701) 493 953 1
(0.8145624025 0.0876817461 0.09271879876 0.005037052662) 441 855 2
(0.814374321 0.09281283951 0.0118078088 0.08100503071) 502 971 1
(0.1546535974 0.4226732013 0.2102181107 0.2124550906) 480 926 2
(0.04577395937 0.4771130203 0.1634962576 0.3136167627) 531 1023 2
(0.1351813833 0.2847765563 0.4324093084 0.147632752) 458 887 2
(0.3627577143 0.02960533758 0.3186211429 0.2890158053) 521 1004 1
(0.2161438252 0.3919280874 0.2753060439 0.1166220435) 525 1012 2
(0.02993120224 0.4712023321 0.01383206676 0.4850343989) 413 783 2
(0.06730445944 0.4663477703 0.3623130991 0.1040346712) 363 707 1
(0.1518818177 0.4240590912 0.009798820211 0.4142602709) 392 762 1
(0.6079630278 0.1717165365 0.1960184861 0.02430194957) 513 989 1
(0.1765608941 0.4117195529 0.3056723478 0.1060472051) 395 765 2
(0.3543736176 0.3228131912 0.2467777019 0.0760354893) 372 723 2
(0.348382101 0.3258089495 0.2753581541 0.05045079542) 404 784 2
(0.7343078299 0.1004027035 0.03244338153 0.132846085) 375 710 2
(0.1854643577 0.2679638439 0.1393039773 0.4072678212) 402 762 2
(0.04556285735 0.4772185713 0.2131270477 0.2640915236) 418 810 2
(0.3704661422 0.3147669289 0.06331029719 0.2514566317) 383 744 2
(0.2303651835 0.3848174082 0.1454899657 0.2393274425) 403 764 1
(0.3656306032 0.3171846984 0.2234369144 0.09374778399) 370 720 1
(0.1465275533 0.4267362233 0.1505088246 0.2762273987) 411 779 1
(0.5990494475 0.2004752763 0.01199040816 0.1884848681) 375 729 1
(0.2828758733 0.0841389359 0.2744231274 0.3585620633) 432 819 2
(0.1460784775 0.4269607612 0.3991683076 0.02779245363) 402 780 2
(0.09601951212 0.1532701549 0.4519902439 0.298720089) 402 781 2
(0.1306008511 0.4346995744 0.0721823185 0.3625172559) 431 835 2
(0.8724177573 0.01679302731 0.06379112134 0.04699809403) 385 746 1
(0.1648480063 0.267307 0.1502689968 0.4175759969) 439 832 2
(0.1387272229 0.4306363885 0.1883097753 0.2423266132) 495 938 1
(0.2599158393 0.3700420803 0.2403356091 0.1297064712) 443 840 1
(0.8288994949 0.05780672938 0.08555025253 0.02774352314) 505 976 2
(0.7166550964 0.1416724518 0.0541251 0.08754735182) 466 901 2
(0.07010258187 0.4649487091 0.1687247283 0.2962239808) 380 738 2
(0.7479231112 0.04418119403 0.1260384444 0.08185725039) 404 782 1
(0.1539365673 0.05909939063 0.4230317164 0.3639323257) 469 908 2
(0.03119990205 0.2442241849 0.484400049 0.240175864) 465 898 1
(0.6749837285 0.1625081358 0.01498468963 0.1475234461) 433 837 2
(0.384774417 0.3076127915 0.04763892671 0.2599738648) 452 876 1
(0.3520974207 0.1917981715 0.3239512897 0.1321531182) 476 479 1
(0.3659039322 0.1797021023 0.1373459316 0.3170480339) 467 903 1
(0.2579762355 0.3710118822 0.3572142265 0.01379765575) 477 920 2
(0.6665656783 0.1667171608 0.02969153759 0.1370256233) 452 857 1
(0.4707290523 0.2646354739 0.0002662546443 0.2643692192) 462 876 1
(0.6586097381 0.170695131 0.1150317631 0.05566336789) 464 898 2
(0.919105766 0.040447117 0.03190568424 0.008541432764) 471 912 1
(0.8365049947 0.08174750267 0.02721073055 0.05453677212) 465 898 2
(0.1414912738 0.4292543631 0.06995434213 0.359300021) 495 938 1
(0.141061799 0.4294691005 0.04058238456 0.3888867159) 484 936 2
(0.1746727813 0.4126636093 0.239552693 0.1731109163) 493 951 2
(0.4509627718 0.2745186141 0.2009290063 0.07358960777) 487 942 1
(0.7802796633 0.01116979702 0.1098601683 0.09869037131) 533 1027 1
(0.03654717528 0.07914538913 0.4817264124 0.4025810232) 454 877 1
(0.2096383498 0.3951808251 0.08202308504 0.3131577401) 512 971 1
(0.2931273366 0.2057168385 0.1477194932 0.3534363317) 511 987 1
(0.02200408714 0.280394627 0.2086033294 0.4889979564) 425 805 2
(0.2895599125 0.2020402524 0.1531797913 0.3552200437) 542 1028 2
(0.1618148094 0.2075984561 0.4190925953 0.2114941393) 459 886 1
(0.7105301894 0.1447349053 0.07234661326 0.07238829204) 499 965 1
(0.5199752583 0.2400123708 0.02976364779 0.2102487231) 517 998 2
(0.2356810321 0.382159484 0.136785814 0.24537367) 513 992 1
(0.05486840812 0.4725657959 0.4184653376 0.05410045838) 510 985 2
(0.03438120468 0.4828093977 0.4005812365 0.08222816113) 518 1000 2
(0.1048214482 0.4475892759 0.04553801793 0.402051258) 449 869 2
(0.1636433678 0.3506442677 0.06753404846 0.4181783161) 531 1025 1
(0.2696071703 0.0181374475 0.3470589673 0.3651964148) 401 778 1
(0.1456212121 0.427189394 0.03077030056 0.3964190934) 395 767 1
(0.7863400649 0.04993073866 0.05689922888 0.1068299675) 367 713 1
(0.5640686313 0.2175597464 0.2179656844 0.0004059379373) 414 804 2
(0.3035670707 0.3482164646 0.02049945248 0.3277170121) 79 118 1
(0.02953067799 0.423563409 0.06167125205 0.485234661) 461 892 1
(0.3918491929 0.04623195529 0.2578434483 0.3040754036) 409 775 2
(0.1545446956 0.3979454878 0.4227276522 0.02478216443) 415 803 1
(0.2944120702 0.3527939649 0.3124770372 0.04031692768) 445 860 2
(0.1073904565 0.1542242892 0.4463047717 0.2920804825) 401 776 1
(0.1660886137 0.2326572493 0.4169556932 0.1842984438) 413 802 2
(0.2706233539 0.364688323 0.1418273114 0.2228610117) 384 746 2
(0.1754945741 0.4122527129 0.2017267014 0.2105260116) 413 801 2
(0.1336401596 0.1968889115 0.2362910087 0.4331799202) 432 819 2
(0.1002105381 0.449894731 0.1498907701 0.3000039609) 453 875 2
(0.5242066058 0.1021864479 0.1357102492 0.2378966971) 363 2206 1
(0.1213337943 0.4393331029 0.3027241383 0.1366089646) 454 877 2
(0.0008367941984 0.2298326344 0.2697489685 0.4995816029) 409 775 2
(0.4313942489 0.2843028755 0.1319925472 0.1523103283) 452 873 2
(0.6944506612 0.1429384089 0.1527746694 0.009836260531) 433 840 2
(0.3245117034 0.1880567526 0.3377441483 0.1496873957) 505 976 2
(0.1708616881 0.414569156 0.3916411861 0.02292796984) 469 905 2
(0.101743325 0.02178578994 0.4491283375 0.4273425475) 495 955 1
(0.3483403819 0.004168257681 0.3258298091 0.3216615514) 158 314 1
(0.02425116173 0.3444049433 0.4878744191 0.1434694759) 470 910 2
(0.1457377879 0.2723245849 0.1548065212 0.4271311061) 440 834 2
(0.01671007483 0.4180681005 0.07357686205 0.4916449626) 445 2222 1
(0.7545906195 0.1227046902 0.0269941095 0.09571058075) 492 933 1
(0.1629860285 0.4185069857 0.2509817814 0.1675252044) 490 945 2
(0.1338422915 0.4330788543 0.1930713578 0.2400074965) 535 1033 1
(0.2725142579 0.3248010971 0.3637428711 0.038941774) 485 938 2
(0.331901885 0.2912031391 0.3340490575 0.04284591837) 482 933 2
(0.1897808533 0.4051095734 0.2376703443 0.1674392291) 484 937 1
(0.03588469854 0.4820576507 0.1978797208 0.28417793) 512 989 2
(0.7099549012 0.08789161516 0.05713093425 0.1450225494) 458 886 1
(0.1607616299 0.419619185 0.1353524089 0.2842667762) 462 892 2
(0.1898414812 0.3126917516 0.0923875078 0.4050792594) 501 950 2
(0.3820922965 0.1825160512 0.1264378006 0.3089538518) 521 1006 1