/*--------------------------------*- C++ -*----------------------------------*\
  =========                 |
  \\      /  F ield         | OpenFOAM: The Open Source CFD Toolbox
   \\    /   O peration     | Website:  https://openfoam.org
    \\  /    A nd           | Version:  7
     \\/     M anipulation  |
\*---------------------------------------------------------------------------*/
FoamFile
{
    version     2.0;
    format      ascii;
    class       vectorField;
    location    "0.001/lagrangian/dsmc";
    object      U;
}
// * * * * * * * * * * * * * * * * * * * * * * * * * * * * * * * * * * * * * //


5092
(
(1181.338134 153.9282358 -254.286883)
(1877.724982 324.7082859 55.98367013)
(1296.260736 708.8131755 -173.0956511)
(1838.391662 429.5720412 -227.1351774)
(1381.756363 -148.5621748 -384.9070133)
(1514.617399 -393.5009629 280.8468374)
(1354.97157 -261.8913254 273.317871)
(1300.464518 -61.58651757 825.6009239)
(1494.695721 -35.16973272 535.850873)
(1633.387693 -112.4321404 -358.963526)
(1902.256487 403.5263118 390.3440028)
(1668.121411 -143.2834366 -478.2975198)
(1815.521382 -84.7901985 -208.6424105)
(1383.965616 327.7813221 45.3246862)
(1639.533275 684.9575213 256.9419436)
(1502.351964 297.203593 -3.008443349)
(1271.061926 252.732312 -376.3767351)
(1242.756232 81.56993747 121.264916)
(1550.666847 194.0155586 -95.75253097)
(1439.553712 26.82898724 -441.2498508)
(1306.9507 -84.73519982 -497.1165747)
(1367.854214 -75.85685936 148.2755865)
(1313.370068 352.7386706 -151.1782771)
(2133.229171 38.84587079 464.9066123)
(1496.013072 -314.4704752 744.5607734)
(1241.794848 -389.4285968 -200.7033678)
(1447.047147 256.4064616 -404.5145601)
(1326.067355 125.0892401 -737.564316)
(1298.687421 173.3288441 65.36309015)
(1980.978531 -144.6596051 -101.9573054)
(1763.936739 105.848224 -102.9419002)
(1536.801371 -468.9685795 282.8972764)
(1423.299799 396.2701879 69.72686791)
(1451.136565 83.29586478 -272.0888306)
(1420.350136 -392.0198997 229.3052934)
(1574.767288 288.756029 -478.2029176)
(1881.95825 258.8656485 -102.2227651)
(1267.202147 254.4323522 -111.570926)
(2248.501794 -580.3993624 16.72696771)
(1432.663563 380.3808791 -126.2422763)
(1563.494311 566.8524467 414.1129128)
(1776.828344 76.08845581 -699.2178879)
(1340.664684 -269.0847418 -709.1914383)
(1319.476287 315.714386 143.6000184)
(1475.423461 459.197676 227.5079389)
(1387.481269 113.4392932 246.0404664)
(1280.159923 359.1199365 -27.02691768)
(1715.118007 72.34293975 120.9789567)
(1473.698901 227.4462511 -318.5185681)
(2071.71656 -92.05046235 -209.4340253)
(1754.99888 -341.521421 301.7266006)
(1863.470537 62.42509713 154.2867196)
(1298.310575 -115.5694753 -317.2029972)
(1749.273387 46.01581469 203.6535319)
(1884.170047 79.04803841 -132.7797986)
(1080.952565 -88.47181486 -67.91653658)
(1351.279161 396.7923052 287.9444193)
(1272.280838 615.998083 -270.1157217)
(1672.375522 -627.1120095 299.9241243)
(1452.497494 -103.8076045 -80.28022918)
(919.8405501 15.11707578 158.5682108)
(1996.017525 18.56092976 2.107585531)
(1744.141705 -41.62226099 -188.8246159)
(1877.164561 -152.6925954 -363.9574296)
(1558.957819 125.5641447 102.2657045)
(2088.353165 102.3470924 -157.5344458)
(1653.950907 -235.8071469 172.7428521)
(1631.439891 -236.0629987 -40.63403661)
(1478.293052 288.249621 28.11604619)
(1434.491517 242.0900257 -154.993241)
(1758.615416 330.9940298 -149.6530946)
(1263.982259 237.5791217 327.5474323)
(2100.116392 74.09039424 -107.3714274)
(1169.733277 -200.616761 -325.0319247)
(1229.580782 -132.7748228 141.7340512)
(1279.057389 -473.5777498 171.96432)
(1365.122253 141.4473219 16.7594489)
(1480.128827 131.0283112 -27.92260426)
(1672.769506 -92.81927014 150.2939137)
(1738.604605 -52.93821543 -710.3674247)
(1784.623518 180.5780962 131.0744567)
(1040.213305 -204.6142528 -36.50925269)
(1623.323873 -70.05614973 -512.0859004)
(1180.169465 122.6175229 33.14065192)
(1660.800915 -359.4016188 385.1237476)
(1219.030215 46.61644819 13.8903531)
(1726.406067 200.1489232 134.4457342)
(1352.283711 173.5690851 3.482241983)
(1466.125473 550.4831557 -431.0148457)
(1929.373877 -120.3466031 447.1513349)
(1384.997758 -222.085766 226.6145138)
(1707.590559 310.5185316 -182.4990626)
(2217.550911 -111.4789197 -147.737371)
(1491.483654 -447.7827314 250.8806158)
(1246.418522 667.3556463 171.1100092)
(1259.536831 111.2880153 -282.0126731)
(1511.439079 532.7558808 -231.4707788)
(1405.58662 221.0314738 493.26569)
(1468.581931 -124.1344278 -266.4002617)
(1945.348388 22.86741251 34.73856589)
(2312.858592 -326.1895397 23.44862653)
(1940.404 -112.4337989 414.490775)
(1442.19602 -230.0122499 133.5574678)
(1319.621119 87.06539178 -381.0008757)
(1582.372708 -50.54638779 -95.75769437)
(1547.422989 -124.4284528 -48.44155851)
(2025.377927 -402.0245366 -197.6046401)
(1423.088032 -49.15671402 477.355002)
(1382.262118 236.2120344 129.8182183)
(1999.245795 258.5552339 227.8586255)
(1187.081115 1.335821192 380.7307439)
(1490.184418 109.9671668 -178.0818553)
(1528.621507 328.1584981 311.659361)
(1785.667625 -173.769837 -620.1757406)
(1361.704877 -11.13911343 371.5794392)
(1324.361025 351.7702483 -220.7505058)
(1707.695896 136.3282056 -50.11836655)
(1209.250423 -355.0777787 -298.4482895)
(1471.858858 -55.01080442 -58.48956467)
(1524.46419 341.9929899 195.3888314)
(918.4602205 504.5921407 310.3149801)
(2050.255812 -347.8201912 -348.7362007)
(1828.699213 -11.11675981 252.0360475)
(1344.137228 3.278185733 99.54380947)
(1650.001594 276.0848152 -560.8774078)
(748.000352 114.2316956 -489.6018735)
(1404.766679 -4.216029781 -218.1917867)
(1379.500465 70.06726915 201.0533484)
(1422.875558 -372.8653742 -152.5563781)
(1726.41168 -74.68306925 180.4877707)
(1380.689363 144.312626 -152.4245358)
(1519.241318 200.8506298 -15.76361299)
(2141.986921 390.8935824 -476.8524166)
(1616.028908 445.6168981 9.518944594)
(1559.326127 110.43148 -29.84832693)
(1437.038482 115.4117776 -55.23642034)
(1454.937977 -414.9607874 35.66265737)
(2135.95723 -152.8793165 -222.2438839)
(1504.761949 -90.49219783 -479.0003682)
(1632.211503 -190.2019531 53.00637832)
(1681.552292 -362.4309439 -415.751887)
(2010.311326 40.34337277 -285.4934338)
(1542.269162 521.2744679 -178.4438919)
(1220.856258 586.6811049 -92.04753665)
(1335.945387 -137.2552991 -74.92775388)
(1264.254759 -297.9209232 -442.0231177)
(1615.465404 230.2099859 160.4083089)
(1339.819648 127.1352781 360.9617641)
(1386.448996 360.5384617 228.8297237)
(1487.627997 -341.3329062 -14.94348776)
(1649.057427 252.9330073 -79.45721248)
(1442.999277 -512.2249871 380.8761274)
(1173.500189 306.823646 -159.6838206)
(1528.794811 858.4462659 -325.7835428)
(1577.408933 213.223564 -245.6591742)
(1704.204687 415.8276923 -38.97198643)
(1957.466173 -186.9861111 373.5125885)
(1765.120923 -277.1500807 35.80418785)
(1528.807283 -355.0399322 -356.1165396)
(1369.146011 -135.044907 60.40708715)
(1339.277947 -58.76116731 -142.7568069)
(1547.290278 -267.071293 14.79080341)
(1250.406313 323.6776919 -6.694087316)
(1387.016441 -582.8129405 359.8950023)
(1416.323729 -344.3738606 387.8253215)
(2047.194307 -208.6771317 388.8134091)
(1398.258608 -208.0100121 -1.769557402)
(1374.771253 -60.96432329 -356.7454602)
(996.8953724 501.2489253 -163.1910691)
(1241.407764 -148.7684972 19.19844892)
(1351.743716 40.06161754 76.9155884)
(1388.834253 -95.15676548 290.8215425)
(1745.445485 -196.3383775 -398.9051006)
(1673.000892 199.2246784 178.0294292)
(1014.556411 -345.0644202 177.9782234)
(1407.536518 94.62550479 -0.3701467967)
(1229.818285 136.3177264 102.8126623)
(1665.35319 392.1056371 291.1651536)
(1581.173173 416.2713477 28.76479107)
(1093.166921 412.389096 -23.11728772)
(1477.735902 -50.27987181 273.8708892)
(1858.891159 274.4075908 -100.7320354)
(1826.262659 -80.58038971 -83.25318968)
(1749.002477 517.3859922 -260.6879792)
(946.8878172 194.5964297 -295.9084426)
(2020.102979 -217.919749 172.7190251)
(1179.139633 -4.016904981 723.8343352)
(1525.708454 -20.959668 -527.5299658)
(1609.951165 -206.2340959 235.0903822)
(1563.964133 414.9998638 282.7475707)
(1310.889237 48.59247141 106.7366765)
(1598.650771 220.2137281 -260.633264)
(1605.252758 144.3721972 -141.715493)
(1453.935463 396.7796318 -185.3819167)
(1670.950922 -16.88097779 -103.6502979)
(1465.500441 -269.1282594 -301.187329)
(1324.5224 142.7884216 111.076339)
(1975.557686 206.5131284 488.7718801)
(1792.731037 4.757643273 355.0859332)
(2276.420322 -176.8843447 -153.0254683)
(1692.814319 -675.5100662 86.8797774)
(1216.451937 -556.5873313 415.8778626)
(1927.693352 -546.7548854 -387.9834108)
(1194.787201 -32.20425322 -214.8186782)
(1594.135422 -381.4581617 -542.6235435)
(2259.573986 -76.22595748 311.0735187)
(1681.635064 -156.5674808 341.69662)
(1434.4295 8.240788316 -139.5345067)
(1694.021176 6.879962252 552.8474769)
(1490.60397 228.3275244 -199.4820942)
(1533.273616 343.5180175 42.71244522)
(1705.637278 334.87809 89.86357851)
(1553.886965 -397.2438918 176.7684261)
(1774.782887 207.7605442 -408.0687846)
(1953.785319 -64.65937667 13.01457758)
(1772.841363 -71.57600762 -584.7583967)
(1680.645038 -581.4546995 -164.2770374)
(2036.503497 -8.12827716 -70.83920922)
(1212.774253 -350.6442567 -167.311214)
(1981.191127 -240.9429491 365.9238874)
(1885.120966 -438.6985478 -219.0175685)
(1113.831161 -107.0197313 -384.9442697)
(1648.879811 -438.4146322 137.5372918)
(1730.327854 122.5752756 258.5047714)
(1299.483623 -138.5720442 -532.1587106)
(1657.635452 28.99081081 -26.46958354)
(993.7358101 277.3076001 356.0620473)
(1427.56301 168.731623 -48.58304364)
(1198.129033 345.8412887 356.2708753)
(2042.306019 -210.1550386 -107.9965122)
(1689.829192 -209.5249097 235.9145998)
(1713.069868 -346.0724293 -65.98883136)
(1631.418558 389.2980096 -142.974663)
(1330.508615 72.29134674 -178.9710528)
(1543.21565 89.34486854 -164.7510697)
(2031.733912 49.46773505 42.23918307)
(1953.18426 -25.5458942 -91.63853577)
(1781.862661 131.166967 -141.1066095)
(1656.313456 -255.6135907 92.9721948)
(1591.792011 386.7489865 -556.3171814)
(1447.411072 -556.3368081 -1280.854785)
(1401.259378 249.2036745 246.3974363)
(2037.53643 156.756996 -206.0649771)
(1856.007481 -338.875947 339.1454205)
(1340.615108 -292.1467813 99.79031716)
(1481.051368 127.5432598 125.5084543)
(1812.612737 -57.26505863 -155.7338677)
(1543.101827 -207.6338965 -206.965881)
(1614.28438 -43.10553692 439.3444112)
(1708.189095 153.9383358 -84.14859838)
(1445.646213 -69.7995854 -198.2948467)
(1934.80501 235.7650199 626.4323299)
(1793.676541 302.3155178 -250.4926402)
(1830.716843 -110.9162925 -256.445088)
(1351.730369 811.2162601 70.8320924)
(1533.730436 -183.9410076 -52.06695909)
(1830.777549 92.83905602 -42.15797297)
(2068.461324 -464.0575666 -178.2971919)
(1425.335809 283.2580401 7.853606027)
(1453.267698 -63.64249062 -216.3074913)
(1780.529258 780.1020149 243.0002192)
(1767.867372 -75.77940346 -355.4160048)
(1313.964608 -131.6614992 -104.4294753)
(1970.648653 -355.0148615 -180.2930465)
(1491.489446 -375.9127444 -31.54278724)
(1562.349229 -353.5364548 -119.4226247)
(1904.881384 107.513751 -215.2639156)
(1331.828108 55.39713999 -20.41684494)
(2018.784602 154.9892718 -355.2294741)
(1637.272701 -349.683204 -503.678807)
(1491.55105 161.8471464 435.3029521)
(1725.584008 -24.19733128 7.321418956)
(1678.014728 -192.3724126 424.05839)
(1593.392844 -123.7136344 316.3178075)
(1363.447474 -478.8329627 -58.14722749)
(1671.676111 -105.7507966 -318.3295208)
(1471.926095 -704.296304 234.6011455)
(1219.832596 -243.6615353 -48.48311441)
(1792.10083 72.47618769 43.25514417)
(1420.434156 -360.4491712 186.6957142)
(1614.649001 348.9369432 -149.8763368)
(1249.20419 549.3319635 -330.7303961)
(1226.439 319.4175337 22.52848147)
(1595.041011 -68.22051195 78.90097701)
(1416.196679 -164.326479 -610.3378248)
(1551.972648 244.1727721 -182.3700281)
(1852.409778 -328.7390225 -288.0473815)
(2335.367759 69.77561548 -299.4947546)
(1884.357957 641.9934913 -569.6193987)
(1264.088427 296.8570422 322.6133298)
(2033.772789 -409.7694611 -108.6075123)
(1347.876155 -345.8403555 71.57709097)
(1975.162382 -242.5878802 -543.3610622)
(2028.075382 24.19376576 143.2302788)
(1549.216965 354.7718239 -18.98728872)
(1912.556746 3.326912762 441.9601665)
(1857.243479 -9.027592613 -222.598923)
(1251.98766 -278.0963616 -153.684876)
(1965.964051 345.8261104 341.462397)
(1440.430077 156.408487 206.8687212)
(1759.515854 32.40392134 13.27393812)
(1719.799183 -487.1097848 534.5736541)
(1432.797181 -75.24335317 -30.88722178)
(1494.14595 -296.0151533 90.59125804)
(1811.612372 125.8125581 -25.03228348)
(1992.528868 302.0271366 202.8326061)
(1396.40499 212.1101972 -307.8082209)
(1634.855226 -59.64906675 320.2952002)
(1874.230078 307.3304536 -287.1970606)
(2113.713276 -235.9445455 -89.17561899)
(1402.547929 -212.294344 63.92171179)
(1556.675838 -662.9040241 168.2928101)
(1826.356213 -488.9159048 632.6972938)
(1835.37316 356.4651133 -365.6273107)
(1865.5447 -441.7510971 -655.6186673)
(1541.181817 54.94098303 96.36923998)
(1581.138536 -185.8828746 -247.2951926)
(1552.58729 74.34019576 654.3967803)
(1785.753884 56.19384863 159.5294302)
(1866.978881 -213.6996395 -435.9755544)
(1202.02493 566.9148605 159.0683201)
(1966.304578 257.5260448 358.4997106)
(2207.175638 89.03883354 274.4189582)
(1875.933359 -304.2866017 294.1479081)
(1743.902265 436.187368 93.15392041)
(1412.946545 206.3592652 84.12405514)
(1807.057578 -349.7956648 10.34007899)
(1681.093013 -227.0855474 314.2304228)
(1351.456797 589.359403 291.0171328)
(1672.018924 73.16366946 245.1115268)
(1981.717632 258.2840756 -47.51419682)
(1352.510846 245.1480645 -184.3107393)
(1593.995814 361.3833697 434.0244753)
(1785.903473 62.83939683 77.56100295)
(1852.133055 -385.7380668 283.5845682)
(2018.539028 351.6431766 -679.584159)
(1983.932379 402.4123666 331.6805077)
(1577.895846 64.83637624 164.6991117)
(1453.625877 551.3234193 73.58051584)
(1667.540143 -404.8600838 281.3942563)
(1416.244993 182.6014696 82.97942637)
(1942.178186 357.2884435 -113.9059946)
(1517.465004 -82.37288708 -376.1755859)
(1645.49231 -490.4016701 -148.991184)
(1928.508905 -104.8145472 426.8526389)
(1503.699171 359.9849048 -272.0554588)
(1257.139755 -450.5847678 98.24948813)
(1898.13852 -67.02964446 283.5168307)
(1618.245238 213.1622485 -152.4994885)
(1705.694357 -45.59235943 285.5366381)
(1422.036504 -140.4236549 -1.348134567)
(1408.909232 16.86725758 -58.29361974)
(1707.804834 208.5009074 -438.6421729)
(1789.272711 219.5107952 -341.5711183)
(1645.267927 236.7451696 20.78711452)
(1693.963644 -703.2507534 649.5823945)
(1793.881311 -219.1785236 -656.3221769)
(1693.500137 30.06332991 -247.2591346)
(1669.997228 229.7299743 99.00081974)
(1674.274188 -104.8012148 226.5791811)
(2228.385558 -55.41269165 1.547211016)
(1035.55743 -6.165718231 408.9929981)
(1888.414056 305.1929359 515.2439156)
(1711.921341 -202.3273146 159.5626619)
(1656.037255 307.0616164 -47.4789471)
(2366.59922 -583.4280472 101.4344158)
(2189.082934 -132.4263152 -20.21754955)
(1240.964209 71.98017118 155.1422675)
(1980.039282 -367.6111209 160.4976572)
(1741.186951 -80.68410216 -201.7179144)
(1548.442385 -83.89257894 -190.3286191)
(1554.112593 -0.5568705683 381.7758671)
(1852.294807 -46.46993525 -292.1828728)
(1735.973018 -145.8259082 -315.0961031)
(1618.205704 -58.93628323 180.6263891)
(1398.387938 66.08913263 -151.1808242)
(1753.787577 50.88894579 -139.0138482)
(1882.578406 -212.2392356 133.7526025)
(1745.283849 -128.7430305 641.1186323)
(1826.662948 260.1712912 63.53022007)
(1722.150962 -650.4403628 94.58985461)
(1636.831827 627.3972296 -236.2431188)
(1284.517313 -335.389953 82.4773096)
(1591.56899 -568.481461 158.968779)
(1592.560597 308.3149359 -118.2285854)
(1474.642353 -50.74521171 -19.42618312)
(2039.860631 -463.1013718 -499.6665335)
(1055.040202 182.7513651 500.0859482)
(2067.593743 -27.85169387 40.11236651)
(1716.933032 -18.75959964 -33.13442042)
(1601.929617 319.3049341 189.774531)
(1362.79832 195.4414282 -385.3351752)
(1965.357266 -366.5012748 -331.4401529)
(1401.269438 -91.17199701 428.5147212)
(1874.190387 -651.4011432 -83.2580721)
(1644.403548 -156.9625308 27.06923944)
(1871.786665 -211.4974219 61.16438993)
(1715.399619 313.8463135 -15.20574894)
(2224.712701 -373.8528295 262.7619371)
(1978.617367 -330.904131 -53.22763475)
(1518.541522 -376.710901 457.7730564)
(1617.922008 404.6939731 491.639709)
(1801.969087 -187.9656347 -8.368795151)
(1635.760574 -33.37375685 -378.2745733)
(1277.791262 -104.3804053 119.73206)
(1919.919146 -554.9056405 149.9573103)
(1462.6504 222.9827061 78.32954982)
(1176.392634 -591.4233298 139.2444679)
(1181.398864 306.9599719 -53.62232331)
(1070.048252 270.0521659 27.91960015)
(1234.291037 -28.95589867 -93.08568335)
(1354.266806 10.64367633 628.0904079)
(1488.437511 -57.50656951 383.390262)
(1398.378562 -590.7872115 519.6784205)
(2147.283042 -25.30487326 -412.7440617)
(1430.2593 15.55595236 -70.97918611)
(1683.681801 469.9292598 571.9042166)
(1338.920978 -28.02976277 -95.46247222)
(1745.885337 145.3827759 721.1808711)
(1324.276125 609.6279556 -341.569535)
(1690.307192 280.197775 -273.6735713)
(1303.951352 -90.81416894 -71.3649218)
(1781.591475 -69.77204915 -108.0380222)
(1809.619378 319.51202 267.3905917)
(1675.422848 504.3570669 -66.46134493)
(1962.928979 64.93598491 -482.5077376)
(1394.392535 -158.4821477 530.6625704)
(1685.240026 -128.9235683 -302.2633212)
(1616.942969 -96.72844317 -336.6744521)
(2132.193671 -43.72468513 -161.2992352)
(1583.510355 -761.5260019 -289.759645)
(2170.875761 -5.737650319 311.530983)
(1821.125534 -236.4816794 456.6972021)
(1842.230626 131.0938655 -64.14055597)
(1430.704888 189.6394692 31.66625495)
(1825.008452 507.2598099 -315.1933198)
(1408.281251 -128.7882427 -710.93575)
(1583.405185 -120.4398481 -183.3143453)
(1783.550363 -578.5659787 14.79436834)
(1782.111552 -272.9865472 -3.235706593)
(991.6631444 240.6539422 -216.4430428)
(1985.068412 -87.45789762 -155.6078437)
(1581.504892 111.7088321 -147.3849665)
(1349.374794 33.7192289 270.5841941)
(1730.419076 347.7982755 -243.5010335)
(1886.617037 550.0314639 45.76871835)
(1664.136958 -304.5181902 -492.7301606)
(1306.535078 167.4862794 17.33552301)
(1884.755631 -14.10209516 61.66591338)
(1784.648824 -138.6904328 145.3190971)
(1507.335837 -96.82299723 107.4777746)
(1625.27617 13.63061023 313.4408972)
(1569.519084 76.6334485 136.3983624)
(1597.913939 -52.11858512 154.4011569)
(1684.444423 636.0319606 -383.1274627)
(1990.526044 -422.5570553 -52.06474059)
(1777.871436 -47.87254552 -125.4549402)
(1713.051415 -232.27854 87.50982972)
(1661.928113 -78.64507239 156.8334369)
(1233.664836 104.3435307 196.7865354)
(1589.969211 16.11017409 456.2817873)
(1860.019206 230.0038981 67.77786233)
(1527.90713 -57.59607341 100.7239498)
(1941.884091 153.7540051 187.8654748)
(1802.645575 -140.1994909 53.15924288)
(1792.044178 25.45780697 19.12927782)
(1529.900976 -64.27350317 -98.06694609)
(1949.259029 234.0163095 200.1363484)
(1633.222277 -123.2366843 373.5027327)
(1873.302007 264.6284717 -92.31915295)
(1438.259414 -334.9761838 34.95556146)
(1631.783101 -22.3910802 101.1047574)
(1737.101502 -187.547908 343.8770002)
(1531.851633 -11.54289527 -369.6281506)
(2053.316113 638.1022222 273.9696215)
(1916.677133 63.55269218 589.6564758)
(1881.775188 143.0396624 -435.5556323)
(1491.562909 775.9297256 342.5448267)
(1004.237292 -158.8590396 -303.3189585)
(1897.55689 90.33573811 -99.50216144)
(1876.922819 -193.6435193 -167.3451001)
(1309.997913 -102.2146064 -343.812015)
(1516.872806 -275.8686187 84.57668152)
(1543.41176 487.4936531 -400.6251305)
(1386.518505 413.9221381 -321.503046)
(1462.978399 394.0982583 -542.7587076)
(1937.339727 201.4142994 -94.39566884)
(1502.781358 -333.1717528 -213.9059066)
(1769.935299 -380.6104664 -296.4285485)
(1853.298691 168.9420277 -136.3777201)
(1958.850701 297.5562406 -278.276617)
(1704.764308 -179.7127529 98.10311595)
(1619.59094 -191.5433357 -115.4095665)
(1733.470757 53.0401058 -195.8104222)
(1621.973996 486.5515851 144.548985)
(2031.290927 122.3748115 283.9526222)
(1384.430773 196.9894721 -232.8995752)
(1673.117214 -159.6574332 117.4993118)
(1531.804274 -12.37386338 129.0431219)
(1887.38176 353.4663976 -342.2017257)
(1131.592199 429.638226 -335.1437612)
(2106.407378 -211.2456171 -6.547745454)
(2182.207485 -361.9214174 194.6937965)
(1837.327894 -256.0800737 -254.3637298)
(1758.208984 -600.7729891 -17.71600433)
(1552.560268 -114.1266966 175.0172055)
(1941.406115 -103.8203191 155.6400359)
(1526.005704 -81.69781414 -424.3332614)
(1521.6783 -304.3773343 -247.9439558)
(1829.763862 -206.2262976 -298.1532774)
(1179.895389 -77.07713892 125.4373534)
(2536.098722 -335.4208799 507.4348888)
(1761.630993 -371.7783543 -274.1672341)
(1983.918417 65.78433999 -235.3037822)
(2093.522964 112.0302112 -614.8584748)
(1347.883935 -78.74215667 -236.539248)
(1743.231027 -695.9083949 -271.0625894)
(1782.095975 -28.47451218 248.6238001)
(1367.384152 457.881053 -227.7581475)
(2302.866931 -20.28796433 277.9701155)
(1655.258115 -84.04997475 193.6768818)
(1814.329455 -85.93744639 233.4922988)
(1621.805671 -598.6606276 -574.5987887)
(2074.886569 -278.0613599 -94.97149894)
(2202.999719 -201.7626969 280.1669772)
(1941.806159 80.74486431 -62.54475994)
(1822.567164 445.5518918 307.1923959)
(1031.503494 -349.4536708 -181.3273414)
(1825.958719 -113.795974 169.5350523)
(1789.090791 230.8810619 -231.2034952)
(1565.175721 -586.6041932 213.8103872)
(1554.621036 -406.4260089 -159.3970775)
(1264.618303 71.75303112 44.30723533)
(1879.940858 -266.3148635 397.0485539)
(1599.562764 -519.2798713 -33.11877729)
(1140.099429 -141.6197723 110.9246547)
(1111.514145 -146.1401513 -2.063522899)
(1263.271477 11.40596257 183.653044)
(1458.684804 352.4570887 210.231801)
(1843.811639 -247.8308727 -394.4157313)
(1420.91401 46.07918212 61.52667562)
(1683.17666 2.173246916 -198.7071234)
(1904.830804 -83.78069981 -15.5205139)
(1593.410999 -244.9372585 -259.3396252)
(1414.045146 136.378436 60.95191835)
(1804.764126 124.8817863 -151.1968696)
(1819.223506 131.2071711 519.3338894)
(2314.414031 57.83521168 -822.1707361)
(1734.392263 -314.4895236 -224.5068997)
(1369.891499 259.6161603 -922.7859157)
(1777.156243 -33.74022068 -234.2563835)
(1817.725751 90.36197805 -215.6282424)
(2254.63256 100.1997985 222.434128)
(1432.288871 405.7798204 109.8503794)
(2046.024335 -11.87217536 -174.8039128)
(1176.826665 105.8851111 -600.4211955)
(1899.027253 -413.1327195 461.5657157)
(1309.430947 104.2684096 -231.8551738)
(1453.325629 -145.5115431 114.462044)
(1709.478182 -9.938984211 -33.74859418)
(1947.127453 169.1986107 -106.5326233)
(1611.367279 -472.1243391 -324.0651182)
(1756.926496 -156.8343842 -194.6823326)
(1763.002435 0.2907258502 97.28730604)
(1494.934093 -45.59291557 -154.7766379)
(1948.712204 5.511982702 135.6341447)
(1566.24894 -333.4722063 384.7548683)
(1562.704549 585.0927276 -246.9361411)
(1488.401713 318.4363432 -73.62750757)
(2587.68669 56.92797069 131.0422448)
(2004.641831 -615.2271284 207.2423425)
(1919.493105 -147.7134749 -13.091467)
(1576.467825 -861.6256316 -118.4930525)
(1791.221258 -39.6127207 -12.79340015)
(1799.617343 80.79614699 -173.9740521)
(2101.112123 11.6097536 422.3917917)
(1714.054249 80.05534482 -139.3962174)
(1753.167792 495.6451283 -395.9945806)
(1549.146259 -214.0221739 72.74817629)
(1599.313112 -104.4234088 66.05367756)
(1515.827443 -33.39829662 -48.04808797)
(1998.600989 123.9864868 89.94716417)
(1810.375165 -99.81818001 224.6919856)
(1715.811814 39.29677687 -59.53705383)
(1857.375255 -45.07085506 -166.9293162)
(1338.153549 102.3293702 -278.3098378)
(1818.908788 203.5063377 -37.50458409)
(1553.383366 153.5584204 -87.27176906)
(2156.201208 -8.071030222 -97.60677512)
(1750.657175 -120.7763714 49.41713699)
(1649.544015 226.7660461 423.2140331)
(1726.348876 -376.5221046 54.89819002)
(1758.573712 -165.5656624 -175.9496004)
(1355.814018 55.78174031 47.42632021)
(1830.722961 -600.7876828 351.4916928)
(1490.047772 463.8744698 489.9811963)
(2236.865098 59.09481373 51.12486212)
(1275.918721 110.5580557 212.2224501)
(1986.871636 -202.6732661 446.4814161)
(1901.274938 56.9853686 124.10649)
(1404.212501 -433.7468371 -101.1052535)
(1685.122035 377.2825353 87.23211718)
(1628.644809 623.1239406 149.9438302)
(1862.654188 53.12001375 -546.0992994)
(1927.770022 44.55172239 -276.4860722)
(1718.808766 40.79043568 375.8711243)
(2196.689371 -143.8437292 108.2759831)
(1604.474831 -245.8414846 -14.7117801)
(2247.097329 373.1996116 456.5761691)
(1670.356023 313.655853 13.16107417)
(1817.556081 369.3147464 355.766598)
(1080.822408 -39.69685902 -212.8801295)
(1938.113173 -219.888037 -360.3943795)
(1515.075056 367.8199898 165.921833)
(1293.023042 7.979712952 -33.79799542)
(1483.405749 -136.9717461 24.14780624)
(1787.372273 -497.7984571 -534.3573428)
(2002.369376 -179.9312337 -140.5531451)
(1480.443628 76.8821365 401.0323247)
(1479.966003 -323.2627575 251.0287769)
(1139.664704 103.1658099 72.36368329)
(1086.985731 375.6221545 422.1634012)
(1580.971436 302.3078414 -94.77659703)
(1858.924038 468.8639268 -4.795197822)
(1919.05959 -181.9347206 108.7194337)
(1756.27505 -185.8336318 221.4668675)
(1495.78165 -380.9319489 -436.0346913)
(2034.281398 359.965765 -41.36696049)
(1500.842124 -16.95039269 29.66978952)
(1806.930063 503.7955434 -189.2758122)
(1698.070676 236.7900654 -194.9462483)
(1653.268795 106.3809438 256.6915058)
(1395.301279 63.1702789 -412.0812779)
(1233.654647 492.8629005 -316.1192596)
(2010.403683 355.1145107 519.4489428)
(2263.629056 -77.79605961 59.44307733)
(1991.419151 633.3641012 342.8592723)
(1988.255691 -124.7230707 -343.1536002)
(1294.530002 202.8146979 203.0723877)
(1773.10618 -110.1180252 -430.8556598)
(1489.846854 -119.4878614 211.6425599)
(1886.778998 -330.5163478 56.99917878)
(1407.409007 93.57909296 50.25496718)
(591.3649945 -308.7579332 -371.0953557)
(1998.89755 -326.3120254 99.86192518)
(1973.563766 -673.8407549 -622.4274472)
(1861.741966 -263.5481929 -382.406949)
(1449.851819 -203.1414922 91.64076453)
(1739.46752 -174.3566504 -197.4044535)
(1916.420358 129.817079 -16.22198488)
(1578.782972 174.8647657 0.4164424808)
(1583.281906 114.3479654 -358.3963459)
(1707.547919 245.0052846 252.8171981)
(1487.453333 -150.0673179 -35.32080223)
(1383.606834 84.01165396 -31.35783945)
(1729.161469 282.4143923 -459.7888374)
(2202.095517 -449.9309546 262.33551)
(2335.279976 -224.7664295 -219.3881635)
(1879.535301 100.1787529 581.8452018)
(1613.508489 235.4042802 -372.3899139)
(1915.572347 322.6896116 -117.4011894)
(1863.194806 -96.29952529 47.02883198)
(2060.738523 93.79668159 -379.593199)
(1548.108792 -264.8012231 190.5094744)
(1500.452015 257.0299198 21.07615007)
(1937.921532 -352.3148242 -3.652640245)
(1707.011462 514.7554635 164.5220694)
(1245.33218 -154.7418005 -56.90976523)
(1781.947755 16.60663898 -524.5966074)
(1195.455412 -294.0459533 149.5897972)
(2298.364956 162.8694451 -250.9367849)
(1595.598858 -246.3370577 -274.3141643)
(1946.008064 77.80368583 -713.3414975)
(1758.387736 319.2791578 -142.0030482)
(1619.384168 -236.8527333 195.0623668)
(2007.901207 -11.97447107 -26.74793883)
(1737.855834 -18.55294373 -311.2068187)
(1582.554974 -227.5398547 -226.5326768)
(1730.565221 60.0314672 647.8026776)
(2104.666471 -501.6387977 -311.4857389)
(1191.746215 157.4714881 134.4587235)
(1707.224309 -218.7225397 -423.6826673)
(1833.246908 -687.6020056 354.1125477)
(1529.789209 90.38790123 0.7562775862)
(1913.420522 -14.03376227 147.9223451)
(1812.409148 193.3487802 135.1475701)
(1509.711556 392.9027137 144.5456296)
(1539.840283 490.6127041 268.8160568)
(1498.489295 345.7316752 286.7804049)
(1987.338357 359.0345287 22.66668094)
(1275.135735 439.642833 44.23152109)
(1623.243392 93.35650066 21.0805317)
(1475.58044 -80.10730668 -244.0539519)
(1518.666734 -395.9910593 -787.4569348)
(1721.251417 -82.48649697 -566.732557)
(2259.464067 466.8101376 276.584644)
(1658.332517 116.3306063 -46.91376937)
(1071.372459 -357.4687087 192.6972306)
(1679.979946 -79.36541761 111.9487543)
(2194.114568 -120.0766237 -211.4892707)
(1600.501385 -1.926120664 416.5223772)
(1891.472409 -244.8319898 290.5548539)
(1702.154728 209.9387604 -655.0102635)
(1438.757442 83.90976548 -238.688237)
(1782.134984 58.68402472 -447.884376)
(1876.187452 -138.961114 62.66855355)
(1703.639863 443.4316074 -754.2255566)
(1742.300401 -303.7961561 34.96086311)
(1646.770638 -135.6767157 117.0289628)
(1569.093835 -8.538730708 -140.7386854)
(1570.233702 -110.1906617 -144.9724266)
(1897.602852 217.7189629 -165.5096376)
(1826.591358 -82.09723914 -45.44120488)
(1758.617945 -218.2349305 -67.07779938)
(1749.64234 -134.4289576 169.5079825)
(1640.391962 -235.7845166 -303.1042874)
(2147.388311 127.5786669 -107.4895823)
(1327.53145 -565.7880132 30.47048342)
(1831.949451 268.4877042 57.8171031)
(1767.220625 -122.7841263 408.9827307)
(1179.665564 91.59090607 449.2559289)
(1658.747843 -64.73558471 -312.3425983)
(1708.267181 169.5393395 215.167356)
(1601.74759 -44.78089824 102.9276411)
(2292.86639 162.3851674 275.924598)
(1473.344373 -861.7305827 470.5079819)
(1747.559838 95.04255924 253.297426)
(1986.009864 86.93175 9.220932349)
(1672.871197 504.7564913 -204.008866)
(1416.098668 -135.4044592 280.6400067)
(1822.213182 27.62801358 183.7030541)
(1911.657216 -407.6830007 -531.3426313)
(1530.782316 -91.58051979 124.9910495)
(1971.996724 -129.9888928 -192.6952794)
(1629.411118 -164.8489712 -149.4236348)
(1578.671272 173.5547153 582.5672428)
(1961.649739 -716.6552302 193.3210408)
(1648.987733 18.75041688 764.7451763)
(1389.01199 -337.5977423 666.4460205)
(1559.440593 37.67250772 -167.1857289)
(1849.283043 186.3493301 -268.5847367)
(1108.248685 -651.9409418 230.0845884)
(1541.623389 76.44975561 133.5808864)
(1660.42585 -229.6950665 -9.37633849)
(1443.218708 -418.3460524 432.3541076)
(2005.489692 134.7850235 65.79066448)
(1974.194569 47.06932947 97.65759172)
(1384.189835 21.8713903 -245.6350666)
(1639.954498 42.20075608 67.66799986)
(1997.169053 -324.1014594 -22.94714822)
(1529.411454 195.275699 -68.38640372)
(2030.926046 303.253087 -98.6461654)
(1687.473455 5.371272992 61.67998847)
(1911.92796 -33.82021006 -1.5000647)
(1485.234068 -178.3555815 -2.735759123)
(1961.68481 85.3038727 -111.7353602)
(1788.519957 -340.7826813 218.6438557)
(1653.347406 45.30879484 -370.3853352)
(1545.858693 773.9817586 -34.66958165)