/*--------------------------------*- C++ -*----------------------------------*\
  =========                 |
  \\      /  F ield         | OpenFOAM: The Open Source CFD Toolbox
   \\    /   O peration     | Website:  https://openfoam.org
    \\  /    A nd           | Version:  7
     \\/     M anipulation  |
\*---------------------------------------------------------------------------*/
FoamFile
{
    version     2.0;
    format      ascii;
    class       scalarField;
    location    "0.001/lagrangian/dsmc";
    object      Ei;
}
// * * * * * * * * * * * * * * * * * * * * * * * * * * * * * * * * * * * * * //


106312
(
7.10153e-21
2.39259e-21
2.81723e-20
2.47009e-21
3.53988e-21
1.9551e-21
1.15472e-22
3.84316e-21
2.00838e-21
4.03949e-22
1.11308e-21
1.88715e-21
2.01277e-21
1.88594e-21
7.32414e-21
1.16837e-20
3.58675e-22
2.39943e-21
2.53847e-21
6.24498e-22
8.5874e-21
1.90695e-21
5.14173e-21
3.4345e-21
1.74986e-21
2.3295e-21
5.54288e-21
9.49267e-22
4.51062e-22
2.10379e-21
8.85672e-21
5.63172e-21
2.66209e-21
2.67526e-21
3.89732e-21
4.0283e-21
1.85513e-21
3.6065e-21
1.40146e-21
2.97019e-21
1.15858e-21
2.26092e-21
1.13061e-21
6.38556e-21
5.04313e-22
9.7693e-22
8.54854e-22
4.21568e-22
9.17606e-22
1.28274e-21
1.28411e-22
2.9265e-21
4.67074e-21
5.97399e-21
6.97187e-21
3.20027e-21
1.49386e-21
3.18167e-21
1.18279e-21
3.97877e-21
1.53813e-21
7.53771e-22
2.06183e-21
2.47055e-22
1.24738e-21
2.05999e-21
3.07346e-21
9.81479e-21
4.8693e-22
4.59949e-21
3.51207e-22
5.54421e-21
1.04211e-20
4.30922e-22
1.0388e-21
3.34637e-21
1.86355e-21
6.92448e-21
4.86271e-21
9.9529e-22
7.44605e-21
1.68166e-21
4.29419e-21
3.92697e-21
7.33206e-22
3.22274e-21
2.09107e-21
6.35378e-21
4.80402e-21
1.15004e-20
2.59807e-21
7.56207e-21
1.33806e-21
3.21371e-21
4.70984e-21
9.7652e-22
2.21862e-23
6.72106e-21
7.22677e-21
6.84443e-22
7.3426e-22
2.59741e-22
8.06964e-22
1.5937e-21
2.17909e-21
4.96593e-22
2.22594e-22
5.81965e-22
1.98455e-21
1.74696e-21
1.016e-22
1.78754e-21
2.25938e-21
6.72847e-22
6.00826e-22
8.30298e-22
3.77779e-22
1.60445e-21
9.50889e-22
4.6342e-21
2.89213e-21
1.36606e-20
1.46243e-21
6.06258e-22
1.62979e-21
9.7957e-22
8.08958e-21
2.00176e-21
4.40884e-21
1.46204e-20
1.95531e-21
1.11379e-21
5.26661e-21
1.08993e-21
8.24326e-22
4.4278e-21
6.93757e-22
7.02974e-22
3.0835e-21
4.93566e-21
5.00886e-22
1.53029e-21
1.41719e-21
7.75533e-21
4.11571e-22
4.6976e-21
3.02961e-21
3.23685e-22
6.20605e-21
3.4974e-22
4.18618e-22
4.34577e-22
3.73406e-21
1.25071e-21
1.01876e-21
2.1559e-21
1.01804e-21
1.07133e-20
1.73757e-21
2.33143e-22
1.46657e-21
4.30668e-21
2.81673e-21
5.96801e-22
4.04026e-21
1.79547e-21
3.3573e-21
8.06267e-21
1.49993e-21
2.50429e-21
6.9448e-22
4.32731e-21
1.11773e-21
1.17617e-20
7.26041e-21
1.08398e-21
5.24146e-21
2.18138e-21
1.17849e-20
5.58585e-21
3.99685e-22
3.80051e-22
5.52913e-21
1.94511e-22
3.30372e-21
4.08672e-21
5.69037e-22
1.09581e-21
6.66195e-21
8.66408e-21
6.14922e-21
4.83572e-21
3.18181e-21
5.28369e-21
4.89101e-21
6.80846e-21
7.26852e-22
1.2628e-21
3.23957e-21
2.12068e-21
1.20247e-20
1.05539e-20
1.72925e-22
6.02859e-22
2.93113e-22
8.46629e-21
3.9127e-21
6.86183e-22
2.98354e-21
5.25632e-21
1.76931e-20
3.33809e-21
1.16292e-21
1.39566e-21
4.58842e-21
8.48883e-21
3.63558e-21
6.83298e-21
7.0409e-21
6.37535e-22
1.87391e-21
2.70881e-22
9.96188e-22
6.36762e-22
9.94337e-22
1.04283e-20
3.53779e-22
4.74112e-21
2.66025e-21
1.21173e-21
4.3686e-23
1.9347e-21
2.13676e-21
1.58481e-21
5.1349e-21
3.18205e-22
3.73432e-22
1.55582e-21
3.37869e-21
2.75161e-22
1.04991e-20
1.22906e-20
1.54452e-21
2.76408e-22
3.61747e-21
2.31428e-21
5.4435e-21
4.61638e-22
1.70628e-21
6.90557e-21
8.57789e-22
1.38364e-21
2.34904e-21
4.53991e-21
3.01525e-21
1.73276e-21
3.08942e-21
6.11084e-21
2.50296e-23
3.9852e-23
3.51606e-21
4.16e-21
1.46537e-21
7.99583e-22
2.01539e-21
4.16361e-21
7.73728e-21
4.84348e-21
2.48701e-21
1.00108e-22
4.80617e-21
2.99491e-21
6.4094e-22
4.72689e-23
2.06081e-21
7.01592e-21
1.99762e-21
1.04727e-22
3.92223e-21
1.43523e-21
3.14327e-21
3.18068e-21
2.2276e-20
7.63208e-21
4.93543e-21
3.38735e-22
2.06835e-22
2.8625e-21
5.35686e-22
4.37298e-21
2.08556e-21
4.13145e-22
2.6895e-21
2.67266e-22
1.2991e-21
5.7162e-21
1.72793e-21
5.69553e-22
8.99643e-21
3.87251e-21
1.14752e-20
4.56714e-21
6.91134e-22
5.39934e-22
8.81612e-22
8.62074e-22
2.11522e-21
3.12321e-21
1.58959e-21
9.69869e-21
1.4395e-21
8.33068e-21
2.44978e-21
2.90903e-21
3.78841e-21
6.86599e-21
1.12595e-21
8.13691e-22
7.9516e-21
1.20172e-21
1.20221e-20
6.04858e-22
6.35367e-22
3.86674e-22
6.18637e-22
3.04903e-21
3.87991e-21
7.36296e-22
1.80064e-21
2.84852e-21
3.20835e-21
1.41718e-21
3.05036e-21
2.36563e-21
6.09148e-23
7.17818e-21
1.26743e-21
6.94388e-21
2.4737e-21
1.6786e-20
3.61713e-21
1.59252e-21
1.7388e-21
2.51787e-21
1.12492e-22
1.83983e-21
5.8783e-21
6.75731e-22
7.53251e-22
2.51605e-21
2.84428e-21
8.09596e-22
8.04151e-22
1.32114e-21
3.07229e-21
1.60148e-21
4.94869e-22
2.46937e-21
2.71969e-22
4.71626e-21
2.34286e-21
4.17263e-21
4.28734e-22
1.6114e-21
1.93202e-21
7.23701e-22
2.29647e-21
1.23496e-21
4.8357e-22
6.16889e-22
1.64158e-21
1.18053e-21
3.09171e-21
6.39356e-21
6.67362e-22
5.26029e-21
1.46407e-21
2.52846e-21
9.86898e-21
5.99562e-21
2.89955e-21
2.44472e-21
7.0553e-21
7.25158e-22
1.4482e-21
1.38142e-21
4.58261e-22
5.92348e-22
1.49012e-21
2.64584e-21
2.36789e-20
5.11224e-21
1.3372e-21
2.02862e-21
3.87145e-22
2.79679e-21
3.87687e-21
2.53548e-21
1.26189e-20
3.88635e-22
1.69347e-21
3.79075e-22
8.19166e-21
1.04357e-20
1.60253e-21
8.94262e-24
9.10359e-22
7.17654e-21
7.03691e-22
1.71348e-22
1.27283e-22
1.04618e-20
3.04875e-21
7.14211e-21
1.43089e-21
1.6479e-21
2.25809e-21
4.72593e-21
9.2436e-22
1.3504e-21
3.89019e-21
4.51926e-21
7.4613e-22
1.39999e-20
5.26381e-21
2.25673e-21
3.54011e-21
7.85343e-22
5.74644e-21
6.39658e-21
4.35485e-21
1.99747e-21
6.29677e-21
4.17907e-21
9.34512e-21
2.12127e-22
2.56175e-21
3.69171e-21
6.99385e-22
5.86914e-21
1.36726e-23
1.69781e-21
4.69242e-21
1.70044e-21
1.62894e-22
5.08584e-22
1.26369e-20
2.78433e-21
1.2761e-20
1.054e-21
3.80738e-21
3.26491e-21
9.12964e-23
7.74701e-21
1.47959e-21
1.66447e-21
2.6252e-21
7.15843e-21
4.12795e-22
9.70648e-22
3.68855e-22
3.94953e-22
1.3398e-20
4.05765e-21
4.52715e-21
1.45802e-21
2.17421e-21
4.36137e-21
4.31757e-21
2.40182e-21
9.05822e-22
5.7134e-21
2.25632e-21
1.70872e-21
7.90857e-21
2.99527e-21
9.80648e-22
4.24443e-23
1.50701e-22
7.32042e-22
2.52874e-21
3.41525e-21
1.20685e-21
5.64502e-22
9.882e-22
1.13535e-21
6.3305e-22
2.05467e-22
9.96409e-21
6.9678e-22
2.49285e-21
2.28108e-21
6.98667e-22
6.9254e-22
2.3757e-21
2.04901e-22
1.93343e-21
5.33851e-22
1.2851e-21
3.71388e-22
1.86608e-21
7.03803e-21
7.57111e-22
3.54999e-22
9.71742e-22
6.95094e-21
1.93236e-22
8.46027e-21
1.82578e-22
8.70861e-22
1.75979e-21
6.42368e-21
6.67227e-21
3.51697e-21
3.57934e-21
1.46188e-21
7.80651e-21
4.67494e-21
3.84474e-21
3.51273e-21
6.47087e-22
1.41771e-22
1.43926e-21
1.59897e-22
4.66736e-22
7.859e-21
1.16424e-21
1.22818e-21
1.26434e-21
6.08555e-21
1.27987e-20
4.23079e-21
2.14032e-21
1.72962e-21
8.7362e-22
2.58243e-21
7.18536e-22
4.06131e-22
1.41575e-21
5.22924e-21
7.02463e-22
3.2856e-21
8.15513e-21
1.51155e-21
1.65551e-21
3.61349e-22
7.9381e-22
3.03829e-21
8.07326e-21
6.46382e-21
1.02401e-21
5.48284e-23
4.598e-21
8.23616e-21
2.3011e-21
1.31243e-21
2.69372e-21
2.82082e-21
3.2234e-21
1.44392e-21
2.45028e-21
2.17174e-21
2.8362e-21
2.82485e-22
1.61026e-21
3.50012e-21
1.9142e-21
6.23953e-23
2.81622e-21
6.03649e-22
2.94234e-21
3.62173e-22
6.98572e-21
3.28368e-21
4.50111e-21
1.25953e-22
3.08427e-21
8.19001e-21
6.27135e-22
7.74066e-21
1.93588e-21
1.98487e-21
5.58213e-22
7.97932e-22
8.25697e-21
6.53539e-21
2.00906e-21
5.27005e-21
2.62291e-21
6.86662e-22
6.32031e-22
1.15492e-21
8.10171e-21
1.05718e-20
5.68966e-22
3.9667e-21
1.65869e-21
2.68228e-21
2.5083e-21
4.8797e-23
3.69929e-22
1.68626e-21
2.19236e-21
1.08331e-20
1.288e-20
1.30664e-20
3.05948e-22
4.61182e-22
4.68683e-21
3.77974e-21
2.88426e-22
1.23518e-21
5.27631e-21
1.38209e-21
3.17206e-21
1.2793e-21
5.3725e-22
2.69961e-22
3.38413e-21
5.88106e-22
3.28574e-22
4.03748e-21
6.94009e-22
2.96424e-21
2.77166e-21
1.92216e-21
5.58084e-21
1.82483e-21
5.91964e-21
8.63581e-22
2.6627e-21
5.27045e-21
1.71451e-21
7.08351e-22
9.6175e-21
9.96687e-21
2.74767e-22
1.23787e-20
3.21614e-21
2.12472e-22
1.66684e-21
1.15568e-21
2.76731e-21
7.46389e-21
3.0195e-21
3.99744e-21
4.71879e-21
1.72633e-21
1.07456e-22
6.78175e-21
2.41348e-21
7.24869e-21
2.65362e-21
4.03802e-21
1.60683e-21
2.31535e-21
6.06807e-21
7.10006e-22
1.06127e-20
2.94051e-21
3.20639e-21
4.50997e-22
7.69873e-21
3.61256e-21
6.23156e-21
1.55523e-21
7.17965e-22
1.26779e-21
6.86111e-22
5.74881e-21
7.68833e-21
8.33214e-22
1.85752e-22
5.89254e-23
1.34279e-21
7.02955e-21
1.13513e-20
6.61003e-22
3.73579e-21
4.2293e-21
8.76028e-21
3.51963e-21
4.61476e-21
1.02294e-20
2.98348e-21
1.02831e-21
8.96974e-21
6.25864e-21
1.53749e-21
1.21084e-21
1.46201e-20
2.23699e-22
7.19612e-22
7.41661e-21
1.16645e-20
2.55794e-21
1.50467e-20
2.79572e-21
2.65409e-21
7.62653e-22
1.24807e-20
3.01904e-21
9.50503e-22
1.58669e-21
5.62376e-21
9.87443e-21
2.08708e-21
5.45948e-21
7.62476e-22
2.15616e-21
3.30904e-22
1.3437e-21
6.17037e-21
7.2909e-21
1.3235e-22
1.31686e-21
7.75186e-21
1.78659e-21
1.16107e-21
3.83021e-21
2.33609e-21
4.91195e-21
5.56402e-21
3.01983e-21
1.55052e-21
4.43672e-21
4.33501e-21
2.62508e-21
1.83568e-21
5.80161e-21
5.34107e-21
1.43901e-21
1.38367e-21
9.1724e-22
5.88148e-22
1.04465e-20
3.54516e-21
5.23803e-22
4.72004e-23
4.57003e-23
8.8296e-22
6.85941e-23
2.67717e-21
1.08489e-21
1.86772e-21
1.01129e-21
3.20992e-21
1.04168e-21
8.39055e-22
1.14707e-22
4.02948e-21
1.49889e-21
7.46807e-21
1.41208e-21
8.92769e-22
1.71626e-21
1.38022e-21
2.62972e-21
2.03979e-21
1.7923e-21
4.58042e-21
2.00323e-21
5.06484e-21
1.50679e-21
4.9942e-21
2.75217e-21
1.72861e-22
2.89831e-21
9.20419e-22
1.17181e-20
5.35738e-21
6.46703e-21
2.21164e-21
6.69299e-21
1.83112e-21
4.38189e-21
2.74536e-21
3.1983e-22
8.40697e-23
4.84271e-21
1.46536e-20
5.44435e-23
4.77351e-21
1.41469e-21
5.48912e-21
1.76151e-21
3.74122e-22
7.64179e-21
8.47986e-22
1.49987e-21
6.72803e-22
2.08314e-21
1.78167e-21
2.00444e-22
5.77152e-21
2.71952e-21
2.38466e-22
1.5637e-21
2.61437e-21
3.58028e-21
1.25569e-21
2.88506e-21
3.74358e-21
1.81711e-21
4.22394e-22
1.41482e-22
4.96174e-21
2.33762e-21
5.09546e-21
5.3098e-22
3.33677e-21
4.87022e-22
7.86115e-21
1.64083e-22
1.05997e-21
5.14661e-21
8.86822e-22
2.20006e-21
3.45359e-22
2.66385e-21
2.39506e-23
1.26429e-22
8.84462e-21
3.90369e-21
3.98696e-22
4.83939e-21
4.9168e-21
2.43411e-21
1.93424e-21
3.33779e-21
2.00766e-21
3.37021e-23
9.44582e-22
7.95219e-21
1.25032e-21
1.18221e-21
2.08221e-20
3.12919e-21
4.1561e-23
1.50647e-21
7.59612e-21
2.37969e-21
2.76886e-21
5.44786e-21
4.83374e-21
4.75663e-21
1.0863e-21
1.6863e-21
1.45171e-21
3.03704e-22
2.05531e-21
5.1099e-21
5.68477e-22
8.33168e-22
2.06023e-21
1.59496e-21
1.85994e-21
6.02062e-21
3.82383e-21
2.92781e-21
7.45928e-22
9.85566e-22
3.05836e-23
5.46108e-21
1.07144e-21
1.25938e-21
1.3313e-21
2.82814e-21
5.7975e-22
8.81339e-22
1.62008e-21
2.86091e-21
5.69115e-21
4.58648e-21
5.6072e-21
8.12135e-21
4.37653e-21
2.46508e-21
9.06324e-23
3.30557e-22
3.0111e-21
4.76795e-21
3.82539e-22
9.60814e-21
4.87299e-21
4.9093e-21
2.57186e-21
4.96949e-21
4.73754e-21
2.4598e-21
4.14496e-21
5.42185e-22
6.10748e-21
5.84749e-21
3.52776e-21
2.68282e-21
9.57194e-22
8.0487e-22
9.4989e-22
1.34811e-20
9.10198e-23
5.42135e-23
9.28675e-21
1.01193e-20
1.32585e-21
2.77406e-21
8.17889e-22
8.4992e-22
9.03873e-22
7.99428e-21
5.72736e-21
3.34693e-21
3.55446e-21
3.63159e-21
1.1502e-21
1.69501e-21
2.05355e-21
1.87486e-21
2.9413e-21
3.19698e-21
4.21649e-22
1.08991e-21
6.86608e-22
2.20614e-21
4.96158e-21
1.58025e-21
6.52279e-21
1.3426e-20
3.43573e-21
3.35468e-21
3.11339e-21
6.93798e-21
1.15234e-21
3.15828e-22
2.00439e-21
6.24309e-21
4.09647e-23
6.90334e-21
2.28902e-21
6.85741e-22
5.15417e-21
3.33677e-21
1.43166e-21
2.95952e-21
1.96958e-21
1.97782e-21
6.96027e-21
4.11901e-21
6.1184e-21
1.71072e-21
6.19233e-22
6.95139e-21
5.37975e-22
6.27117e-21
3.04026e-21
3.0616e-21
5.01377e-21
6.13405e-21
1.12361e-21
1.28966e-21
3.66236e-21
6.41519e-21
1.44624e-21
1.16911e-20
1.56287e-21
9.67752e-21
1.00442e-21
1.43123e-21
4.91731e-21
2.67266e-21
3.20018e-21
3.15388e-21
1.87931e-21
9.95374e-21
5.46663e-21
1.07282e-21
1.7174e-22
4.75615e-21
1.50862e-21
1.03057e-21
8.2427e-23
5.92642e-21
5.37247e-22
2.04376e-21
1.75753e-20
1.45663e-21
4.36858e-22
1.593e-21
3.02334e-22
1.52152e-21
2.15534e-21
7.95605e-21
1.03621e-20
1.75642e-21
2.03648e-21
1.56314e-21
9.5723e-22
2.93626e-21
1.01515e-21
1.29142e-21
1.06398e-21
2.92169e-21
9.02322e-23
4.69958e-21
5.18584e-21
5.37713e-21
4.52912e-21
2.5459e-21
5.74819e-21
4.22665e-21
2.13251e-21
6.24329e-24
1.86784e-22
1.43406e-20
8.09191e-22
9.25432e-21
8.45964e-22
1.18509e-20
3.81949e-21
5.43929e-22
3.51797e-21
5.77965e-21
2.84218e-21
2.57558e-21
4.54478e-21
2.79632e-21
3.96781e-21
1.39852e-21
3.83513e-21
8.36075e-21
2.98138e-21
7.61185e-22
1.12322e-20
5.31189e-21
1.85615e-21
3.27004e-21
2.07804e-21
2.07862e-21
3.83986e-21
9.92475e-23
2.24121e-21
3.67207e-22
2.00923e-21
2.56252e-21
1.8178e-21
1.64954e-23
4.44253e-22
4.63387e-22
2.67232e-22
1.02755e-22
4.88796e-21
4.26119e-21
2.11067e-21
1.28934e-22
3.75933e-21
5.03302e-22
4.16726e-21
6.91839e-22
3.40135e-22
2.26626e-21
1.56259e-21
1.03377e-21
1.79463e-21
1.63866e-21
1.05482e-20
6.32671e-21
5.61798e-22
7.10538e-22
1.48119e-21
2.2437e-21
8.23044e-21
1.1925e-20
8.81878e-21
1.12947e-21
2.77206e-21
3.7732e-21
3.88641e-21
9.13094e-21
1.79093e-21
1.01404e-20
2.52301e-21
3.37484e-22
9.98501e-23
3.53311e-21
8.22952e-21
2.13245e-22
3.34052e-21
2.05042e-21
5.57576e-22
2.30229e-21
4.71968e-21
2.44108e-21
3.69531e-21
9.90835e-21
1.72124e-21
6.08351e-21
8.45889e-21
8.37679e-22
3.06418e-21
2.64275e-21
1.4553e-20
1.3082e-21
3.27126e-21
2.12585e-22
1.35593e-21
4.88368e-22
2.48164e-21
4.9548e-22
1.13685e-20
1.02583e-20
1.37581e-22
1.55819e-21
4.78113e-22
8.77864e-21
2.25665e-21
2.4208e-21
3.86521e-21
3.34435e-21
4.63586e-21
9.56153e-21
3.91974e-21
8.00042e-21
9.28699e-21
2.70896e-21
1.8502e-20
2.57831e-21
1.41882e-21
4.40315e-21
4.4126e-21
4.06191e-21
8.00223e-21
1.08098e-20
5.9848e-21
1.33387e-21
1.6377e-21
1.23149e-20
4.20884e-21
1.15769e-21
4.0876e-21
8.71289e-21
2.1086e-23
6.47196e-22
4.26067e-21
7.91924e-21
1.43081e-23
6.43544e-21
4.19895e-21
2.89458e-22
2.07527e-20
7.31492e-22
7.57939e-22
9.00018e-22
3.57841e-21
9.82527e-21
7.68581e-21
3.01374e-21
4.43085e-21
6.30213e-21
3.94858e-21
1.59971e-21
1.56432e-20
5.11164e-21
1.26746e-22
5.12296e-21
6.00862e-21
2.1021e-21
3.78517e-21
3.59194e-21
3.51893e-22
5.79997e-22
4.48328e-21
8.54042e-21
4.40429e-21
4.97913e-21
4.94672e-23
1.48852e-21
7.09913e-22
2.13051e-21
1.78988e-21
2.01859e-21
3.11845e-21
6.2183e-21
3.71448e-21
1.57576e-23
1.10414e-21
5.94055e-21
9.9264e-22
2.76939e-22
7.98037e-23
3.53921e-22
1.02672e-21
1.41007e-21
2.79175e-22
2.4824e-21
1.00182e-21
5.5384e-21
6.25142e-21
2.16708e-21
8.76995e-21
4.02608e-22
6.6647e-21
6.95105e-21
6.06282e-21
4.23057e-21
1.77801e-21
4.4379e-21
3.50918e-21
1.43829e-20
2.49567e-21
2.19572e-21
2.73593e-21
3.57209e-21
3.74129e-21
3.95299e-21
7.94285e-22
1.63371e-21
5.02483e-21
3.73615e-21
3.38613e-21
4.67818e-21
4.11514e-21
4.53468e-21
8.9058e-21
1.05295e-20
2.44126e-21
1.96236e-21
1.09942e-21
2.02242e-22
3.99128e-21
4.52403e-21
2.23364e-21
9.47091e-24
7.95186e-21
1.26414e-21
2.58275e-21
2.63832e-21
1.58533e-22
1.39359e-22
7.08078e-22
4.22583e-21
1.68904e-21
2.75178e-21
3.18191e-21
7.98583e-21
1.06705e-21
4.20839e-21
7.88151e-22
8.10917e-21
2.33813e-21
4.51892e-21
6.08525e-23
9.78873e-22
4.34515e-22
3.2845e-21
2.12045e-21
4.94391e-21
1.71037e-21
7.17358e-23
3.81187e-21
6.89756e-22
7.86942e-21
5.05739e-21
2.5471e-20
1.3932e-21
2.28662e-21
1.22196e-21
3.31416e-21
2.15987e-21
1.90847e-21
1.15394e-21
3.49465e-21
3.10039e-22
9.02223e-21
8.51083e-22
1.91772e-21
4.03702e-21
1.36477e-21
2.53154e-21
1.91241e-21
1.98238e-21
2.22087e-21
1.0024e-21
4.30257e-21
2.97401e-21
1.59381e-21
5.20485e-21
1.61673e-22
5.31e-22
2.23414e-22
6.00604e-21
3.49775e-21
2.56532e-21
2.22279e-21
2.58269e-21
6.52125e-21
5.8868e-21
3.5345e-22
6.34456e-21
1.49434e-21
4.95968e-21
2.22818e-21
3.70694e-22
1.37522e-21
9.24102e-22
5.19779e-21
1.8913e-20
1.38488e-20
4.43589e-21
2.69118e-21
8.05082e-22
1.29566e-21
3.95931e-21
7.97159e-22
1.3235e-21
3.65613e-21
1.29723e-20
1.37416e-21
2.18759e-22
1.56475e-21
3.67904e-21
8.13327e-21
1.76379e-21
1.69687e-21
2.79357e-22
1.12677e-20
3.74576e-21
2.3209e-21
4.22987e-21
4.42914e-21
2.10555e-21
7.8484e-21
7.36037e-21
1.33893e-21
4.58084e-21
6.10109e-22
1.49474e-22
2.37176e-21
5.3036e-21
1.72509e-21
9.38822e-22
2.66593e-21
2.59673e-21
2.92931e-21
1.36972e-22
5.90071e-21
9.02249e-22
2.31273e-22
7.14308e-22
7.22301e-21
3.9513e-21
1.08022e-21
5.5111e-22
4.53816e-21
4.69525e-21
1.00598e-20
9.09422e-21
2.56735e-21
4.12396e-21
1.12459e-21
1.20106e-21
2.37636e-21
2.81831e-21
3.23669e-21
2.2414e-21
3.59812e-22
7.36294e-21
4.87261e-22
1.29899e-21
4.64222e-21
1.62379e-21
1.0366e-22
4.05936e-22
8.49103e-22
3.31743e-21
2.46678e-21
1.81493e-21
9.35008e-22
2.50194e-21
1.2089e-21
4.71715e-22
3.50916e-21
9.26627e-22
2.51212e-21
7.50843e-22
2.29566e-21
6.90723e-22
1.61711e-21
7.70323e-22
5.52451e-21
3.63525e-21
3.68515e-21
4.16816e-21
7.60939e-21
7.23255e-22
1.32847e-22
5.35708e-21
9.15418e-21
3.60976e-22
4.4488e-22
1.68373e-21
4.91948e-21
5.10882e-21
2.18025e-21
5.46891e-21
9.05771e-22
4.04656e-21
5.28806e-21
3.54006e-22
1.30605e-22
1.60058e-20
5.89319e-22
5.37263e-21
4.14534e-21
1.01249e-22
2.86028e-21
2.92357e-21
5.77843e-21
6.06059e-23
2.55914e-21
1.79462e-21
8.39661e-22
7.71853e-21
1.7226e-21
9.0065e-22
1.08926e-22
1.88996e-21
3.37714e-22
1.89844e-21
2.94953e-21
2.51696e-21
5.69133e-22
7.46148e-22
2.50322e-21
1.29448e-21
3.61505e-21
3.16905e-21
3.86262e-21
8.19309e-22
8.72397e-22
4.45707e-21
4.16948e-21
6.27493e-21
3.58634e-21
1.08664e-21
4.15513e-21
1.05293e-20
6.85864e-22
6.8362e-21
1.0853e-20
1.57723e-20
6.10856e-21
5.84416e-22
1.8529e-21
1.62575e-21
2.26784e-21
3.43921e-21
1.84265e-21
3.74524e-21
7.21514e-22
2.62207e-21
1.26111e-21
4.86146e-21
6.91569e-21
3.72958e-22
5.92933e-22
3.3112e-21
6.93519e-22
8.01168e-21
9.11428e-23
1.27684e-20
1.50118e-21
4.93806e-21
6.28991e-21
4.84208e-22
4.81997e-21
1.37215e-21
2.23604e-21
4.64146e-22
9.63388e-21
1.8051e-21
1.54699e-21
1.88498e-21
5.13714e-22
1.34507e-22
2.92701e-21
5.90292e-21
1.7575e-22
6.47998e-21
4.14616e-21
1.88675e-21
3.24927e-21
1.42958e-22
3.49107e-21
1.48496e-21
5.07542e-21
6.2411e-22
2.91491e-21
4.86813e-22
4.17888e-21
4.39023e-22
1.08528e-21
2.13634e-22
4.1409e-21
7.87693e-21
6.32268e-21
2.64425e-21
5.55943e-21
7.3971e-22
2.74935e-21
4.71286e-21
1.6111e-21
7.32384e-21
3.48617e-22
1.15556e-21
6.50888e-23
5.24087e-22
9.85012e-22
5.03475e-21
2.29082e-21
6.84311e-23
7.32935e-21
3.34863e-21
8.58962e-22
2.40414e-21
5.98881e-21
5.78478e-21
7.38379e-22
6.78211e-21
2.93358e-21
1.30682e-21
1.42232e-21
3.18146e-22
5.04654e-21
1.59659e-20
2.35971e-21
2.92098e-22
2.12423e-23
1.68014e-21
5.16102e-21
2.36111e-21
1.30886e-21
1.11303e-21
6.07011e-22
2.71797e-21
9.63284e-22
9.15122e-22
1.18876e-20
3.14339e-21
1.63097e-20
3.08271e-21
3.74668e-21
1.47636e-21
9.96157e-21
6.58098e-22
6.77358e-22
9.72463e-21
7.62258e-22
4.78486e-21
6.75979e-21
4.34617e-21
7.93445e-22
9.02859e-22
2.54243e-21
6.3546e-21
4.41257e-21
4.62307e-23
1.20779e-21
1.13752e-20
3.21325e-21
2.55355e-21
3.42533e-21
2.56216e-22
2.17801e-21
3.12739e-21
1.29922e-21
2.05333e-22
2.92011e-21
3.21866e-21
1.42258e-20
2.29726e-21
9.39656e-22
2.88112e-22
1.20368e-21
8.23416e-23
1.29689e-20
2.12072e-21
4.61311e-21
5.43067e-22
2.83033e-21
2.77277e-21
1.93416e-22
7.66226e-23
2.41847e-21
1.2807e-21
6.75321e-22
2.10406e-21
2.45605e-21
9.26433e-22
6.09575e-21
2.82757e-21
3.22825e-21
4.94007e-21
3.03648e-21
6.27983e-21
2.88174e-21
3.87237e-22
6.17235e-21
2.05193e-21
4.88664e-21
7.21114e-21
5.73977e-22
2.68358e-21
8.22364e-22
3.59946e-22
1.09296e-21
2.1303e-22
3.25541e-21
2.51262e-21
3.16961e-21
6.50958e-23
5.62925e-21
1.02065e-21
4.1108e-21
5.7044e-21
3.37019e-22
1.72978e-21
1.68922e-20
1.00438e-20
3.68433e-21
2.92135e-21
3.81294e-21
1.63211e-22
6.23958e-21
2.94356e-21
2.56364e-21
5.67854e-22
2.95553e-21
8.8859e-21
4.78196e-22
1.2207e-20
4.97799e-22
5.01751e-21
1.2958e-22
1.39037e-22
1.94919e-21
1.36229e-20
1.0677e-21
1.33314e-21
4.68611e-21
3.25357e-21
4.14354e-21
4.43045e-21
2.10243e-21
2.62043e-21
3.50271e-21
4.1575e-21
2.63544e-21
2.19211e-21
5.60257e-21
6.19333e-22
2.28542e-21
1.8154e-21
2.12901e-23
2.8663e-21
1.48319e-21
7.82081e-22
2.16848e-23
1.33732e-21
1.04902e-22
1.58239e-23
3.14765e-21
2.54081e-21
1.88398e-21
3.2078e-21
4.27463e-21
7.32803e-22
9.3596e-22
7.37709e-21
2.01653e-21
2.69096e-21
2.51764e-21
6.53787e-21
2.33922e-21
3.34093e-21
4.35767e-21
3.70816e-21
8.3797e-22
4.13037e-21
9.92068e-22
1.4668e-21
6.38915e-21
3.12463e-21
7.06709e-21
3.07999e-21
7.00506e-21
4.90924e-21
1.93218e-21
1.55769e-21
3.56072e-21
3.90507e-21
2.35748e-21
1.10536e-21
1.19386e-20
5.62229e-23
3.98519e-21
4.02566e-21
2.34851e-21
2.50568e-21
5.15811e-21
2.49034e-22
5.55455e-21
4.18147e-21
1.44069e-21
2.88648e-21
8.67598e-21
1.58977e-21
2.086e-22
4.97072e-21
4.69245e-21
2.70041e-21
3.95211e-21
8.56143e-22
2.81259e-21
6.49728e-21
4.26131e-21
7.61825e-21
6.62301e-21
1.36838e-20
6.07644e-21
4.41292e-21
1.485e-21
4.82579e-21
1.04964e-23
3.75998e-22
6.64929e-21
3.49346e-21
5.14153e-21
2.2249e-21
4.09236e-22
1.02228e-20
8.72489e-22
1.50015e-21
2.16988e-21
5.21382e-22
4.35682e-21
3.29411e-21
1.71054e-21
1.05984e-21
2.82398e-22
5.31403e-22
1.71948e-21
2.4449e-21
3.28808e-22
1.29252e-21
5.62179e-21
1.14887e-21
4.32823e-21
2.73034e-21
2.68446e-21
7.09608e-21
9.15944e-22
4.56005e-22
5.18577e-21
5.34664e-24
6.24729e-21
2.91394e-21
1.18566e-21
5.41386e-21
8.52306e-21
4.45455e-21
8.82747e-22
2.00804e-21
4.33254e-21
3.47585e-21
6.22762e-22
1.9408e-22
8.32413e-21
9.44403e-21
1.98359e-22
1.68631e-22
2.88213e-21
2.87563e-21
1.27947e-20
1.135e-21
6.0613e-21
5.99275e-22
2.90046e-21
1.19834e-21
3.07885e-21
2.32391e-22
7.34184e-21
7.77594e-21
3.44873e-22
1.64948e-21
3.10868e-21
1.60363e-21
5.82463e-21
6.87786e-22
2.62823e-22
4.49376e-22
3.33484e-21
2.39867e-21
9.43935e-22
1.96371e-21
5.05511e-21
1.56645e-21
2.82995e-21
2.81721e-21
1.58032e-21
1.06815e-20
4.18033e-21
4.4886e-21
1.05039e-21
9.73903e-21
1.76451e-21
5.34156e-23
1.06163e-21
2.30158e-21
4.88988e-21
4.82932e-22
2.99007e-21
4.22777e-24
1.29911e-21
1.75693e-21
1.49822e-21
1.10439e-20
1.05465e-22
3.78164e-22
1.08476e-20
8.82246e-22
4.97799e-21
2.95217e-21
1.03076e-20
1.76007e-21
3.25476e-21
1.16681e-21
1.07955e-22
6.84658e-22
1.34788e-20
8.11726e-22
6.50113e-21
8.75754e-22
5.71261e-21
2.38421e-21
1.64854e-21
5.21487e-21
4.96193e-21
4.70049e-21
9.56256e-21
5.83167e-21
1.40298e-24
1.00126e-21
3.14956e-21
3.67792e-22
6.02431e-21
4.9762e-21
3.20654e-21
1.08598e-20
4.24927e-24
1.87064e-22
1.22753e-21
1.81492e-21
5.01842e-21
3.0362e-21
2.56775e-21
6.64475e-22
5.17227e-22
9.38044e-21
4.86586e-21
1.89144e-21
4.30529e-22
6.75286e-22
2.18168e-21
1.55984e-21
4.51887e-21
1.67457e-21
7.82919e-22
6.13487e-21
1.29827e-21
2.34102e-21
6.13742e-22
1.10987e-20
3.47127e-22
7.49592e-21
1.52314e-20
1.31797e-21
1.61588e-21
8.25008e-22
7.15524e-21
1.26294e-21
2.49495e-21
2.2452e-21
1.70516e-21
6.39791e-21
2.26674e-21
1.99574e-22
2.71478e-21
3.49623e-22
2.92558e-21
3.97281e-21
1.05567e-22
2.64124e-21
1.40827e-21
3.73284e-21
6.46693e-22
4.21081e-21
1.36823e-21
1.90159e-21
8.20036e-22
1.6869e-21
3.60654e-21
1.36065e-21
3.69724e-22
1.80872e-21
4.45992e-21
7.01644e-21
3.48887e-21
1.5804e-21
1.42382e-21
7.87001e-22
3.59863e-21
9.69198e-21
8.10094e-21
1.86103e-21
9.38014e-22
4.94256e-22
5.21476e-22
1.61188e-20
7.07465e-22
2.11439e-21
8.02484e-22
1.0552e-21
3.49187e-21
1.33932e-21
3.16439e-22
3.39658e-21
1.31744e-21
5.58513e-21
8.84606e-21
7.57625e-21
8.59014e-21
8.15143e-21
4.13364e-21
3.83146e-21
2.42978e-21
1.20115e-20
5.01287e-21
4.57632e-21
7.12455e-22
9.76403e-21
3.19649e-21
6.09263e-22
3.59369e-21
3.82305e-21
7.02518e-21
3.94237e-21
4.79864e-21
3.9535e-21
5.99509e-21
1.18887e-21
2.20988e-21
3.93124e-21
4.19193e-21
3.26794e-21
7.11148e-21
1.11859e-20
5.80625e-22
2.20257e-23
2.64244e-22
8.9214e-23
6.55778e-21
3.23329e-21
6.57303e-21
2.29149e-21
8.34911e-22
1.95663e-21
3.35295e-21
4.56003e-23
8.44576e-22
1.69942e-21
8.0537e-21
1.32847e-20
4.67673e-22
2.72029e-21
4.59827e-22
4.66636e-21
3.5247e-21
1.18327e-21
5.64281e-22
6.2121e-21
3.70761e-21
6.8291e-21
1.56574e-22
4.24287e-22
9.75902e-21
3.5771e-22
5.78009e-21
1.39225e-21
1.14086e-21
5.23501e-22
2.96295e-22
2.59011e-21
6.02689e-21
2.27158e-21
2.32584e-21
5.29476e-21
4.11424e-21
7.39849e-21
1.61888e-21
9.51477e-24
1.73171e-20
2.67837e-23
4.92475e-21
7.23063e-21
6.28855e-21
1.88906e-21
8.22478e-22
6.63189e-21
3.06261e-22
5.03231e-21
2.356e-21
4.81068e-21
4.65303e-22
5.9186e-22
3.28263e-21
2.94882e-21
5.28573e-21
1.07087e-20
8.61818e-21
4.21377e-21
4.01252e-21
8.81569e-21
6.15499e-22
2.73028e-22
4.83339e-21
2.65864e-21
3.90138e-22
1.90638e-22
2.99539e-21
3.63639e-21
2.13432e-21
2.30185e-21
6.96798e-21
2.17669e-21
6.08773e-22
4.04861e-21
1.63134e-21
1.42572e-21
1.27255e-21
2.20041e-21
6.09407e-21
1.72259e-21
2.74338e-21
7.64899e-21
2.19671e-21
3.66989e-21
1.28161e-21
1.03803e-21
3.22746e-21
3.01045e-22
3.26305e-21
1.04909e-20
1.02671e-21
1.33525e-20
1.77763e-21
8.48873e-21
5.54602e-21
9.57447e-22
3.59469e-21
2.49866e-21
9.33533e-21
4.11425e-21
8.98264e-22
1.00185e-20
4.85693e-21
9.55687e-22
1.54454e-21
1.5802e-21
1.2256e-20
7.33609e-23
2.38273e-21
9.27085e-21
9.56533e-22
5.03285e-21
1.42682e-21
1.65826e-20
2.35763e-22
2.51242e-24
2.94892e-21
6.03492e-22
7.91477e-23
2.43243e-21
1.21224e-21
5.05991e-21
1.25082e-22
3.38961e-21
3.53021e-22
9.23369e-21
6.72183e-23
1.91125e-21
5.51586e-22
1.13384e-21
4.64185e-21
3.54122e-21
2.70975e-21
4.26942e-21
1.16251e-20
2.38844e-21
3.27314e-21
3.20995e-21
5.2224e-21
6.80767e-21
2.30725e-21
7.64785e-21
2.05121e-21
6.99197e-22
7.82089e-22
2.53515e-21
1.80854e-21
2.10663e-21
8.04363e-21
1.56693e-21
7.35724e-21
3.46089e-21
2.10476e-21
2.18096e-21
3.31505e-22
6.48577e-21
4.99969e-22
1.48931e-21
8.76597e-21
9.25928e-21
4.68545e-21
4.17813e-21
5.56655e-21
9.89672e-21
5.7683e-21
7.15899e-22
1.23738e-20
1.61433e-21
1.00958e-20
3.54753e-21
9.13428e-21
4.09911e-21
1.18499e-21
1.04452e-21
1.09329e-20
1.72924e-21
6.33572e-21
1.07254e-21
9.62873e-21
5.19569e-22
3.46621e-21
2.65617e-21
4.1329e-21
2.7019e-21
2.39272e-21
3.69611e-21
2.55009e-21
1.83383e-22
8.60185e-22
4.86691e-21
2.41624e-21
4.73434e-21
1.75498e-21
6.03445e-21
5.17531e-21
3.76752e-21
3.56189e-21
3.84175e-21
5.27975e-21
7.61341e-21
7.48315e-22
1.32307e-21
1.24078e-21
1.73708e-20
6.32034e-21
1.22013e-20
4.7549e-22
9.17519e-21
3.05415e-21
9.20175e-23
6.76415e-21
8.46989e-21
5.52104e-21
6.62311e-21
3.90691e-21
3.00109e-21
7.37979e-22
6.62728e-24
4.39833e-22
1.20564e-21
6.65042e-21
1.23771e-21
3.188e-21
9.1339e-21
1.75645e-22
2.77316e-21
2.81693e-21
4.65245e-22
1.9758e-23
1.34378e-20
7.07806e-21
1.0585e-21
2.78554e-21
1.87037e-21
4.55579e-21
1.32451e-21
3.84975e-22
1.43442e-21
1.20545e-20
3.83867e-22
5.24119e-21
1.15537e-20
7.05497e-22
1.81873e-21
3.78301e-21
2.05431e-21
5.53577e-21
2.33988e-21
1.27802e-22
8.40174e-21
2.46732e-21
3.47639e-21
5.41818e-21
7.79385e-21
1.76117e-21
6.99333e-21
5.62891e-22
7.07075e-22
6.87259e-21
1.31156e-21
2.10543e-21
1.4341e-21
2.69918e-21
8.29672e-22
2.26604e-21
4.24854e-21
9.65337e-21
2.11507e-21
1.07182e-20
7.29524e-21
1.49102e-21
1.56202e-20
4.1669e-22
2.23063e-21
7.95121e-21
1.36833e-21
1.70076e-21
3.26564e-21
2.82856e-21
2.49263e-22
4.46265e-21
1.5698e-21
5.90339e-21
3.69686e-22
2.60797e-21
2.50596e-21
3.26103e-21
7.92317e-22
1.83268e-21
3.36696e-22
7.17388e-22
1.11293e-20
5.83926e-22
1.69893e-20
5.06847e-22
1.44225e-20
6.06739e-22
1.05057e-21
4.98492e-21
9.05917e-21
1.00924e-21
8.45201e-21
1.86803e-21
3.38412e-21
7.58839e-21
4.94329e-22
5.49057e-22
3.33236e-21
5.35094e-21
2.17284e-21
2.01969e-21
6.18093e-21
4.98132e-21
1.09829e-20
3.92601e-21
1.26751e-22
6.39632e-22
2.09929e-21
6.95788e-21
1.7733e-22
1.97455e-21
1.09708e-21
2.33225e-21
1.02836e-21
2.10271e-21
7.84723e-22
1.20397e-20
8.66308e-21
3.99769e-21
2.64685e-22
1.44986e-21
3.52224e-22
1.83905e-21
3.40927e-22
9.61202e-21
1.85315e-21
2.86737e-21
3.27553e-22
6.38536e-21
1.71108e-22
2.19468e-21
1.36604e-21
1.35527e-21
3.87883e-21
3.35052e-21
4.43703e-22
1.34939e-21
4.12697e-21
6.28384e-22
2.56768e-21
3.43586e-21
1.11009e-21
1.76522e-20
1.15631e-20
3.1083e-21
3.02544e-21
1.23441e-21
3.49562e-21
4.50252e-21
1.33229e-21
5.32688e-21
2.84609e-21
3.01797e-21
1.72239e-21
6.28473e-22
3.96477e-22
3.22676e-21
1.00878e-20
1.95714e-21
7.42587e-22
5.42767e-22
1.4623e-21
1.83939e-21
7.02663e-21
9.24745e-21
9.33407e-21
2.19539e-22
2.846e-21
5.19541e-22
1.87068e-21
1.93374e-21
1.43493e-20
2.10118e-21
2.85983e-21
3.29414e-21
9.3054e-22
3.15506e-21
1.74695e-21
1.31693e-21
2.81637e-22
7.17312e-21
1.51983e-21
4.91866e-21
7.35038e-24
1.57847e-21
5.1731e-21
1.63492e-20
1.61443e-21
5.01886e-22
3.18859e-21
2.14641e-22
2.71205e-21
5.87025e-21
3.99423e-21
9.7208e-22
1.20853e-21
1.97713e-21
4.49756e-21
2.20935e-22
1.23402e-20
1.68552e-21
2.71465e-22
6.45409e-22
5.79517e-21
3.90855e-21
2.62791e-21
5.03127e-21
1.54315e-20
4.82498e-21
5.684e-23
3.52496e-21
5.03618e-21
1.89477e-21
2.00124e-21
1.25139e-20
4.47393e-21
2.88514e-21
4.25034e-22
8.36141e-23
3.03579e-21
9.17694e-21
1.47698e-21
2.86085e-21
1.24311e-20
1.02744e-20
1.29274e-21
4.83174e-21
2.01681e-21
6.79257e-21
5.54859e-21
1.43504e-20
4.85012e-22
5.74473e-21
2.6212e-21
4.71198e-21
3.45982e-21
7.59938e-23
1.86463e-21
5.07464e-22
1.08029e-23
1.07309e-20
3.13897e-21
1.20932e-20
2.71266e-21
8.93228e-22
1.72689e-21
1.71944e-21
1.26476e-20
6.82199e-22
3.07897e-21
6.08621e-21
8.85114e-22
4.18581e-22
3.27446e-21
2.83099e-22
4.31542e-21
1.38284e-20
5.19274e-21
1.24787e-21
3.22719e-21
3.23642e-21
2.63112e-21
1.68305e-21
7.48742e-21
3.74405e-21
1.96405e-20
1.20623e-20
4.00012e-21
7.74951e-22
4.16894e-23
3.47618e-22
1.60766e-21
4.16012e-21
1.10065e-21
1.35726e-21
3.85132e-21
3.29681e-22
1.74947e-21
3.74688e-21
2.30415e-21
4.26154e-21
1.83779e-21
8.13652e-22
2.4711e-21
4.11453e-21
3.92236e-21