/*--------------------------------*- C++ -*----------------------------------*\
  =========                 |
  \\      /  F ield         | OpenFOAM: The Open Source CFD Toolbox
   \\    /   O peration     | Website:  https://openfoam.org
    \\  /    A nd           | Version:  7
     \\/     M anipulation  |
\*---------------------------------------------------------------------------*/
FoamFile
{
    version     2.0;
    format      ascii;
    class       volScalarField;
    location    "0.15";
    object      nut;
}
// * * * * * * * * * * * * * * * * * * * * * * * * * * * * * * * * * * * * * //

dimensions      [0 2 -1 0 0 0 0];

internalField   nonuniform List<scalar> 
2268
(
9.80347e-05
8.66085e-05
0.000100609
0.000110332
0.000117921
0.000124377
0.000130263
0.000135963
0.000141757
0.000147812
0.000154175
0.000160745
0.000167266
0.000173345
0.000178489
0.00018216
0.000183824
0.00018297
0.000178856
0.000172788
0.000164847
0.000155175
0.000133253
0.000190506
0.000520612
0.000752533
0.000922258
0.00105474
0.00116429
0.00125975
0.00134685
0.00142886
0.00150657
0.00157841
0.0016407
0.00168845
0.00171607
0.00171826
0.00169068
0.00163036
0.00153611
0.00140765
0.00115402
0.000916721
0.000758526
0.00038296
0.000206189
0.000767796
0.00124605
0.00164722
0.00198943
0.00228727
0.00255265
0.00279476
0.00301898
0.00322603
0.00341181
0.00356818
0.00368461
0.00375015
0.00375542
0.00369438
0.00356515
0.00336937
0.00310697
0.00269618
0.00219728
0.00162695
0.00043622
0.000215554
0.000912196
0.00157208
0.00216908
0.00270596
0.00318834
0.00362428
0.00402197
0.00438671
0.00471873
0.00501243
0.0052571
0.00543893
0.00554373
0.00556018
0.00548274
0.00531263
0.00505341
0.00469667
0.00416418
0.00345386
0.00250303
0.000486089
0.000221828
0.00100752
0.00180032
0.00255307
0.00325491
0.00390014
0.00448949
0.00502737
0.0055174
0.00595902
0.0063459
0.00666618
0.00690449
0.00704521
0.00707673
0.00699533
0.00680448
0.00650153
0.00604209
0.00528225
0.00423366
0.00310234
0.000538711
0.000226367
0.00107418
0.0019668
0.00284256
0.00368058
0.0044647
0.0051874
0.00584787
0.00644703
0.00698316
0.00744943
0.00783353
0.00811947
0.0082914
0.00833864
0.00825961
0.00805693
0.0077083
0.00709694
0.00597421
0.00462317
0.003586
0.000597014
0.000229837
0.00112174
0.00209136
0.00306479
0.00401389
0.00491413
0.00575027
0.00651596
0.00720887
0.00782575
0.00835913
0.00879637
0.00912135
0.00931867
0.00937932
0.00930366
0.00908956
0.00868245
0.00786938
0.00633761
0.00491544
0.00408312
0.000661327
0.000232617
0.00115616
0.00218635
0.00323802
0.00427713
0.00527286
0.0062036
0.00705787
0.00782996
0.00851476
0.00910386
0.00958409
0.00993922
0.0101547
0.0102236
0.0101483
0.00991968
0.00944641
0.00842526
0.00658405
0.00528575
0.00463662
0.000746968
7.00535e-05
8.77114e-05
9.85803e-05
0.000102424
0.00010258
0.000101605
0.00010043
9.91796e-05
9.81041e-05
9.72696e-05
9.66691e-05
9.61201e-05
9.55167e-05
9.47329e-05
9.35295e-05
9.14381e-05
8.75002e-05
7.9671e-05
0.000102772
0.000219237
0.000547734
0.000744688
0.000843261
0.000875224
0.000872605
0.000856683
0.000836219
0.000816237
0.000799992
0.000788121
0.000779545
0.000771655
0.000760805
0.00074155
0.000705097
0.000635981
0.00050135
0.000214956
0.000245717
0.000877408
0.00128223
0.00153591
0.00166149
0.00169931
0.00168943
0.00165746
0.0016203
0.00158772
0.00156226
0.00154173
0.00152044
0.00148942
0.0014348
0.00133496
0.00115536
0.000833207
0.000234147
0.000264031
0.00108674
0.00165066
0.00205744
0.00230741
0.00242438
0.00245173
0.00242826
0.00238479
0.00234073
0.00230301
0.00226968
0.00223217
0.00217557
0.00207671
0.00190094
0.00159746
0.0010861
0.000246606
0.000281037
0.00123343
0.00190993
0.00244535
0.00282719
0.00304948
0.00314279
0.0031488
0.00311108
0.0030612
0.00301296
0.00296623
0.00290987
0.00282281
0.00267245
0.00241211
0.00197891
0.00128629
0.000255408
0.000301446
0.00137645
0.0021131
0.00273451
0.00323681
0.00357826
0.00376151
0.00381729
0.00379794
0.00374863
0.00369217
0.00363176
0.00355418
0.00343231
0.00322445
0.00287364
0.00230935
0.00144739
0.000261916
0.000332708
0.00157371
0.00230273
0.00295423
0.00355033
0.0040141
0.00430586
0.00442979
0.00444104
0.00439895
0.00433706
0.00426308
0.00416238
0.00400213
0.00373235
0.00328789
0.00259484
0.00157789
0.000266864
0.000396705
0.00184163
0.00249384
0.00312636
0.00378086
0.0043623
0.00477595
0.00498371
0.00503614
0.00500723
0.00494285
0.00485582
0.00473069
0.00452951
0.00419515
0.00365656
0.00284017
0.00168387
0.000270704
0.00023509
0.00118624
0.00227915
0.0034181
0.00456064
0.00566841
0.00671213
0.00767339
0.00854133
0.0093075
0.00996135
0.0104885
0.0108728
0.0111017
0.0111735
0.011096
0.0108553
0.010318
0.00910018
0.00718503
0.00568868
0.00540681
0.00171307
0.00023815
0.00121104
0.00236501
0.00358445
0.00481718
0.00601922
0.00715652
0.00820609
0.00915263
0.00998335
0.0106834
0.0112351
0.0116214
0.011835
0.0118881
0.0118111
0.0116108
0.0111623
0.010139
0.00831225
0.00599626
0.00544654
0.00274545
0.000240733
0.00122839
0.00242784
0.0037038
0.00499515
0.00625452
0.00744638
0.00854621
0.009536
0.0103984
0.0111125
0.0116553
0.0120106
0.0121831
0.0122153
0.0121804
0.0121155
0.0119232
0.0112933
0.00951736
0.00654916
0.00515448
0.00346598
0.000243085
0.00124484
0.0024813
0.00379778
0.00512648
0.00641872
0.00763953
0.00876449
0.00977326
0.0106425
0.0113436
0.011849
0.0121497
0.0122792
0.0123307
0.0124157
0.0125748
0.0127236
0.0124015
0.0106142
0.00726209
0.00491328
0.00368569
0.000245304
0.00126388
0.00253409
0.00388125
0.00523367
0.00654342
0.00777749
0.00891207
0.00992353
0.0107808
0.0114466
0.0118942
0.0121368
0.0122574
0.0124004
0.0126802
0.01311
0.0135111
0.0132347
0.0114655
0.00800958
0.00487866
0.00355323
0.000247419
0.00128703
0.00259104
0.00396401
0.00533269
0.00665152
0.00789024
0.00902523
0.0100279
0.0108577
0.0114718
0.0118553
0.0120622
0.0122356
0.0125397
0.0130515
0.0137371
0.0141731
0.0137415
0.0119982
0.0087107
0.00518025
0.00347443
0.000249433
0.00131465
0.00265439
0.00405206
0.00543444
0.00675917
0.00799862
0.00912829
0.0101129
0.0109032
0.0114576
0.0117885
0.0120036
0.0122911
0.0127966
0.0135438
0.0143572
0.0146405
0.0139805
0.0122749
0.00932214
0.00583242
0.0037796
0.000251359
0.00134658
0.00272481
0.00414882
0.00554614
0.00687722
0.00811607
0.00923585
0.0101943
0.0109372
0.0114358
0.0117413
0.0120145
0.0124552
0.0131693
0.0141291
0.0148667
0.014858
0.0140078
0.0123817
0.00985104
0.00675988
0.00461458
0.000253238
0.00138242
0.00280167
0.00425589
0.00567251
0.00701281
0.00825053
0.00935557
0.0102809
0.0109753
0.0114335
0.0117494
0.0121172
0.0127198
0.0136238
0.0146989
0.0152448
0.0149096
0.0139031
0.0123973
0.010329
0.00784049
0.00591608
0.00025517
0.00142017
0.00288176
0.00437302
0.00581674
0.00717094
0.0084068
0.00949167
0.0103793
0.0110317
0.0114735
0.0118333
0.0123121
0.0130573
0.0140837
0.015073
0.0153612
0.0147738
0.0136928
0.0123657
0.010774
0.00893274
0.00742697
0.0002574
0.0014496
0.00295547
0.00449722
0.00598105
0.00735594
0.00858912
0.0096488
0.0104982
0.0111216
0.0115734
0.0120008
0.0125899
0.0134527
0.0145577
0.0153209
0.0152381
0.0144667
0.0134053
0.0123164
0.0111783
0.00992212
0.00884485
0.000260573
0.00143994
0.00300462
0.00462421
0.00616875
0.0075739
0.00880488
0.00983747
0.010654
0.0112661
0.0117507
0.0122539
0.0129341
0.0138859
0.0149586
0.0153732
0.014939
0.0140501
0.0130888
0.0122724
0.011522
0.0107084
0.00997712
0.000266536
0.00135171
0.00301564
0.00475721
0.00638987
0.00783767
0.00907055
0.0100807
0.0108765
0.0114953
0.0120247
0.012594
0.0133232
0.0142944
0.0151252
0.0151422
0.0144727
0.013571
0.0127812
0.0122397
0.011788
0.0112678
0.0107584
0.000278997
0.00122202
0.0030125
0.00491667
0.00666355
0.00816679
0.00941001
0.0104087
0.0111985
0.0118358
0.0124099
0.0130243
0.0137515
0.0146258
0.0150226
0.014678
0.0139099
0.0131018
0.0125302
0.0122281
0.011974
0.0116192
0.0112238
0.000297595
0.00122881
0.00308377
0.00514466
0.00701404
0.00858022
0.00984324
0.0108428
0.0116367
0.0122953
0.0129117
0.0135627
0.0142525
0.0147411
0.0146555
0.0141215
0.0133823
0.0127417
0.0123869
0.0122492
0.0120906
0.0118036
0.0114483
0.000310375
0.0015223
0.00347289
0.0055036
0.0074308
0.0090334
0.0103104
0.0113185
0.0121258
0.0128023
0.013415
0.0140017
0.0144764
0.0145726
0.0142717
0.0136861
0.0130368
0.0125707
0.012372
0.0123003
0.0121507
0.0118662
0.0115085
0.000315681
0.00183357
0.00385081
0.0059514
0.00790479
0.00951103
0.0107796
0.0117771
0.0125707
0.0132156
0.0137541
0.0141938
0.0144541
0.0144004
0.014021
0.0134606
0.0129273
0.0125934
0.0124569
0.0123615
0.0121632
0.0118455
0.0114669
0.000309768
0.00198243
0.00417814
0.00639668
0.0083469
0.00991873
0.0111434
0.0120986
0.012856
0.013464
0.0139452
0.0142855
0.0144221
0.0142929
0.0139252
0.0134423
0.0130132
0.0127401
0.0125793
0.0124047
0.0121326
0.0117698
0.0113673
0.000304963
0.00212272
0.00450211
0.0067639
0.00868715
0.0102148
0.0113933
0.0123059
0.0130258
0.0135972
0.0140323
0.0143124
0.0143971
0.0142647
0.0139539
0.0135533
0.0131862
0.0129084
0.0126749
0.0124055
0.0120603
0.0116565
0.0112362
0.000303485
0.00225187
0.00474176
0.00701844
0.00891024
0.0103945
0.0115306
0.0124053
0.0130921
0.0136326
0.0140362
0.0142878
0.0143644
0.0142614
0.014011
0.0136711
0.0133264
0.0130111
0.0126984
0.0123477
0.0119462
0.0115146
0.0110872
0.000302936
0.00234002
0.00488264
0.00715517
0.0090161
0.0104622
0.0115611
0.012402
0.0130585
0.0135718
0.0139524
0.0141909
0.014274
0.0142017
0.0139962
0.0136945
0.013354
0.0130014
0.0126294
0.0122248
0.0117907
0.0113484
0.0109261
0.000301706
0.00238344
0.00493356
0.00718397
0.00901273
0.010425
0.011491
0.0123003
0.0129267
0.0134124
0.013771
0.0139979
0.0140852
0.0140333
0.0138565
0.0135804
0.0132436
0.0128707
0.0124681
0.0120394
0.0115965
0.0111607
0.0107553
0.000299311
0.00238831
0.00490943
0.00712028
0.00891229
0.0102922
0.0113277
0.0121063
0.0127014
0.0131575
0.0134914
0.0137032
0.0137883
0.0137471
0.0135893
0.013334
0.013008
0.0126347
0.0122281
0.0118009
0.0113699
0.0109555
0.0105772
0.000295922
0.00236338
0.00482732
0.00698292
0.0087313
0.0100772
0.0110827
0.0118308
0.012394
0.0128188
0.0131259
0.0133195
0.0133981
0.0133621
0.0132192
0.0129841
0.0126772
0.0123198
0.0119296
0.0115236
0.0111202
0.0107386
0.0103951
0.000291896
0.00231788
0.00470528
0.00679337
0.00849069
0.00979888
0.0107731
0.0114907
0.0120221
0.0124154
0.0126952
0.0128698
0.0129401
0.0129078
0.0127789
0.0125656
0.0122845
0.0119547
0.0115948
0.0112232
0.0108582
0.0105172
0.0102135
0.000287554
0.00226066
0.00456087
0.00657397
0.00821422
0.00948028
0.0104208
0.0111072
0.0116073
0.0119703
0.0122239
0.01238
0.0124424
0.0124138
0.0122998
0.0121104
0.0118599
0.0115651
0.0112443
0.0109152
0.0105952
0.0102992
0.0100381
0.000283176
0.00219901
0.00440924
0.00634526
0.00792559
0.00914627
0.0100506
0.0107048
0.0111741
0.011508
0.0117369
0.0118759
0.0119314
0.0119073
0.0118089
0.011645
0.011428
0.011173
0.0108962
0.0106141
0.0103421
0.0100926
0.0098742
0.000278954
0.00213814
0.00426173
0.00612361
0.00764517
0.00881993
0.00968692
0.0103083
0.0107471
0.0110532
0.011259
0.0113824
0.011432
0.0114129
0.0113307
0.011193
0.0110108
0.0107974
0.0105665
0.0103326
0.0101086
0.00990459
0.00972681
0.000275004
0.00208126
0.00412546
0.00591987
0.00738756
0.00851925
0.00935033
0.00993985
0.0103494
0.0106292
0.0108136
0.0109227
0.0109672
0.0109536
0.0108873
0.0107756
0.0106276
0.010455
0.010269
0.0100814
0.0099026
0.00974038
0.00959913
0.000271389
0.00203
0.00400401
0.00573972
0.00716094
0.00825529
0.00905471
0.00961567
0.00999873
0.0102548
0.01042
0.0105165
0.010557
0.0105488
0.0104977
0.0104102
0.0102941
0.0101587
0.0100137
0.00986768
0.00972869
0.00960255
0.00949232
0.00026813
0.001985
0.00389865
0.00558509
0.00696829
0.00803252
0.00880636
0.00934396
0.00970513
0.00994145
0.0100906
0.0101767
0.0102141
0.0102111
0.0101736
0.0101075
0.0100191
0.00991566
0.00980509
0.00969376
0.0095876
0.00949084
0.00940558
0.000265226
0.00194647
0.00380967
0.00545616
0.0068096
0.00785093
0.00860558
0.00912563
0.00947017
0.00969135
0.00982821
0.00990653
0.00994188
0.00994349
0.00991746
0.00986885
0.00980286
0.00972515
0.00964156
0.0095575
0.0094769
0.00940285
0.00933678
0.000262685
0.00191474
0.00373764
0.00535327
0.00668437
0.00770889
0.00844961
0.00895699
0.00928956
0.00949988
0.00962798
0.00970087
0.00973516
0.0097407
0.00972364
0.00968854
0.00963964
0.00958132
0.00951805
0.00945405
0.00939232
0.00933504
0.00928314
0.000260579
0.00189089
0.00368474
0.00527877
0.00659391
0.00760571
0.00833549
0.00883296
0.00915646
0.00935885
0.00948079
0.00955005
0.00958391
0.0095926
0.00958225
0.00955705
0.00952053
0.00947614
0.00942738
0.00937756
0.00932918
0.00928376
0.00924191
0.000259132
0.00187736
0.00365612
0.00523882
0.00654311
0.00754353
0.00826204
0.00874923
0.00906399
0.00925944
0.00937646
0.00944305
0.00947674
0.00948785
0.00948242
0.00946428
0.00943645
0.00940173
0.00936294
0.00932276
0.00928335
0.00924585
0.00921068
0.000258872
0.0018785
0.00366147
0.00524525
0.00654205
0.00752833
0.00823062
0.00870309
0.00900625
0.00919345
0.00930523
0.00936923
0.00940267
0.00941562
0.00941385
0.00940086
0.00937919
0.00935116
0.00931911
0.00928529
0.00925152
0.00921882
0.00918755
0.000260976
0.00190085
0.00371685
0.00531758
0.00660699
0.00757
0.00824472
0.00869292
0.00897797
0.00915315
0.00925785
0.00931845
0.00935121
0.00936556
0.00936675
0.00935784
0.00934095
0.00931798
0.0092908
0.0092613
0.00923098
0.00920073
0.00917105
0.000267767
0.00195373
0.00384754
0.00548524
0.00676039
0.00768091
0.00830819
0.00871669
0.00897341
0.00913053
0.00922488
0.00928044
0.00931175
0.00932704
0.00933084
0.00932565
0.00931316
0.00929481
0.00927208
0.00924634
0.0092187
0.00918967
0.00915986
0.000282659
0.002053
0.00409515
0.00579055
0.007029
0.00787216
0.00842199
0.00876991
0.00898527
0.00911672
0.00919646
0.00924467
0.00927323
0.00928877
0.0092948
0.00929324
0.00928529
0.00927202
0.00925443
0.00923345
0.00920961
0.00918262
0.00915233
0.000309159
0.0022389
0.0045397
0.00629438
0.00743806
0.00814647
0.00857957
0.00884346
0.00900414
0.00910235
0.00916302
0.00920106
0.00922501
0.00923949
0.00924689
0.00924846
0.00924499
0.00923717
0.00922568
0.00921118
0.00919429
0.00917411
0.00914574
0.000351747
0.00264273
0.00536772
0.00708286
0.0079967
0.0084869
0.00876197
0.00892259
0.00901917
0.00907882
0.0091168
0.0091418
0.00915863
0.00916985
0.00917674
0.00917993
0.00917984
0.00917682
0.00917125
0.00916389
0.00915742
0.00915648
0.00913676
0.00042414
0.00391491
0.00708277
0.00824
0.00866019
0.00884282
0.00893582
0.00898834
0.00902
0.00904007
0.00905341
0.00906269
0.00906935
0.00907413
0.00907741
0.00907936
0.00908011
0.00907976
0.00907844
0.00907668
0.00907937
0.00912803
0.00912587
0.000849662
0.000546754
0.000540545
0.000552797
0.00173409
0.00189998
0.00201322
0.00165988
0.00256827
0.00224791
0.00226299
0.00225628
0.00323211
0.00289593
0.00277071
0.0027634
0.00339908
0.00330331
0.00325746
0.00328801
0.00334
0.00335347
0.00343365
0.00355599
0.00350933
0.00349225
0.00359166
0.00376235
0.00417979
0.00407998
0.00413201
0.00429441
0.00538583
0.00521578
0.00520463
0.00532577
0.00691639
0.00672394
0.00666586
0.00673038
0.00842452
0.00824731
0.00816432
0.00817196
0.00964279
0.00948626
0.00938753
0.00934578
0.0104789
0.0103306
0.010215
0.0101323
0.0109648
0.0108135
0.0106796
0.0105644
0.0111864
0.0110256
0.0108749
0.0107363
0.0112335
0.0110621
0.0108985
0.0107447
0.0111778
0.0109982
0.0108267
0.010665
0.0110683
0.0108844
0.01071
0.0105462
0.0109337
0.0107498
0.0105767
0.0104153
0.0107882
0.0106083
0.0104402
0.0102845
0.0106373
0.010465
0.0103051
0.0101578
0.010483
0.0103215
0.0101724
0.0100358
0.0103265
0.0101784
0.0100423
0.00991824
0.0101698
0.0100371
0.00991574
0.00980551
0.0100161
0.00990014
0.00979443
0.00969872
0.00986944
0.00977059
0.00968074
0.00959953
0.00973387
0.00965169
0.00957708
0.00950964
0.00961281
0.00954602
0.0094853
0.00943029
0.00950836
0.00945501
0.00940634
0.00936202
0.00942098
0.00937882
0.00934011
0.00930458
0.00934975
0.0093165
0.00928568
0.00925711
0.00929283
0.00926638
0.00924161
0.00921838
0.00924797
0.00922657
0.00920628
0.00918703
0.00921297
0.00919516
0.00917809
0.00916171
0.00918591
0.00917051
0.00915561
0.0091412
0.0091652
0.00915121
0.0091376
0.00912439
0.00914958
0.00913611
0.009123
0.00911031
0.00913797
0.00912423
0.00911093
0.00909815
0.00912922
0.00911465
0.00910061
0.00908727
0.00912176
0.00910635
0.00909144
0.00907735
0.00911397
0.00909855
0.00908325
0.00906869
0.00910671
0.00909231
0.00907733
0.00906279
0.00133886
0.00224422
0.00275503
0.00334278
0.00402627
0.0047609
0.00537726
0.00575055
0.00589935
0.00591002
0.00584941
0.00574371
0.00557803
0.00530757
0.00486595
0.00417688
0.0031734
0.0018197
0.000275485
0.00174238
0.00241459
0.00297927
0.00350996
0.00418663
0.00506652
0.00593048
0.00652204
0.00679742
0.00685546
0.00679688
0.00666406
0.00644388
0.00608549
0.00551577
0.00465897
0.00346347
0.00192742
0.000279162
0.00227484
0.00262425
0.00317252
0.00367089
0.00432938
0.00530786
0.00636163
0.00712249
0.00749231
0.00758497
0.00752614
0.00736797
0.00709803
0.00666146
0.00598266
0.00499109
0.00365217
0.00199188
0.00028148
0.00292106
0.00324979
0.0036381
0.0040253
0.00466993
0.00571542
0.00684928
0.0076562
0.00804167
0.00813539
0.00806454
0.0078802
0.0075665
0.00706496
0.00629974
0.00520709
0.00376759
0.00202747
0.000282909
0.00353545
0.00388181
0.0042093
0.00460718
0.00532875
0.00639502
0.00745106
0.00816132
0.00848358
0.00854189
0.00844618
0.00823485
0.0078842
0.00733174
0.00650214
0.00533812
0.00383217
0.00204418
0.000283776
0.00391982
0.00431246
0.00472824
0.00529418
0.00614975
0.00718184
0.00807158
0.00861361
0.00882892
0.00883117
0.00870394
0.00846706
0.00808682
0.00749653
0.00662152
0.00540988
0.00386276
0.00204885
0.000284286
0.00423664
0.00476404
0.00535728
0.00611556
0.00704433
0.00795639
0.00862672
0.00897965
0.00908028
0.00902411
0.00886648
0.00860821
0.00820581
0.00758888
0.00668345
0.00544181
0.00387125
0.00204595
0.000284562
0.0048051
0.0054612
0.00621059
0.00706229
0.00792482
0.00862813
0.00906312
0.00924234
0.00924412
0.00913952
0.00895805
0.00868422
0.00826651
0.00763183
0.00670705
0.00544779
0.00386567
0.00203833
0.000284674
0.00578171
0.00646791
0.00723782
0.00801571
0.00868368
0.00913908
0.00936204
0.00940395
0.00933328
0.00919544
0.00899876
0.00871541
0.00828813
0.00764228
0.00670586
0.00543724
0.00385124
0.00202778
0.000284659
0.0070572
0.00763315
0.00826202
0.00883135
0.00924789
0.00947341
0.00953268
0.00948037
0.00936471
0.00920865
0.0090049
0.00871713
0.00828459
0.00763212
0.00668913
0.00541641
0.00383134
0.0020154
0.00028454
0.00834296
0.00870981
0.00910247
0.00941776
0.00960063
0.00965016
0.00960089
0.00949368
0.00935598
0.00919371
0.00898908
0.00870059
0.00826567
0.00760947
0.00666301
0.00538939
0.00380814
0.00200194
0.000284333
0.00937641
0.00951676
0.00966915
0.00976223
0.00977113
0.0097075
0.00959797
0.00946602
0.00932259
0.0091622
0.00896067
0.00867366
0.00823803
0.00757975
0.0066316
0.00535889
0.0037831
0.00198789
0.00028405
0.0100537
0.0100067
0.00997126
0.00990854
0.0098105
0.00968724
0.00955269
0.00941586
0.00927662
0.00912263
0.0089262
0.00864169
0.0082061
0.00754652
0.00659757
0.00532671
0.00375722
0.00197365
0.000283702
0.0104079
0.0102307
0.0100739
0.00992123
0.00977052
0.00962493
0.00948719
0.0093566
0.00922646
0.00908072
0.00888997
0.00860815
0.00817275
0.00751213
0.00656274
0.00529411
0.00373126
0.00195951
0.000283299
0.0105291
0.0102748
0.010053
0.0098597
0.00969203
0.00954589
0.00941628
0.00929681
0.00917733
0.00903999
0.00885462
0.00857519
0.00813981
0.0074781
0.0065283
0.00526197
0.00370577
0.00194571
0.000282852
0.0105085
0.0102177
0.00997047
0.00976709
0.00960199
0.00946565
0.0093485
0.00924123
0.00913207
0.00900236
0.00882165
0.00854407
0.00810837
0.00744539
0.00649509
0.00523094
0.00368117
0.00193247
0.00028237
0.0104159
0.0101147
0.00986629
0.00966947
0.00951541
0.00939221
0.00928791
0.00919197
0.00909191
0.00896869
0.00879177
0.00851545
0.00807908
0.0074146
0.00646363
0.00520147
0.00365781
0.00191992
0.000281864
0.0102955
0.0099993
0.00976172
0.00957861
0.00943878
0.00932864
0.00923579
0.00914955
0.00905709
0.00893918
0.00876521
0.00848961
0.00805223
0.00738606
0.00643426
0.00517385
0.0036359
0.0019082
0.000281342
0.0101705
0.00988787
0.00966637
0.00949901
0.0093731
0.00927473
0.0091918
0.00911361
0.00902731
0.00891364
0.00874189
0.00846654
0.00802787
0.00735986
0.0064071
0.00514822
0.00361556
0.00189737
0.000280811
0.0100507
0.00978626
0.00958274
0.00943098
0.00931771
0.00922944
0.0091547
0.00908307
0.00900185
0.00889159
0.00872149
0.00844596
0.00800578
0.00733583
0.00638204
0.00512449
0.0035967
0.00188732
0.000280277
0.00993867
0.00969512
0.00951008
0.00937308
0.00927106
0.00919141
0.00912346
0.00905719
0.00897995
0.0088722
0.00870305
0.0084271
0.00798538
0.00731354
0.00635871
0.00510225
0.00357878
0.00187725
0.000279792
0.0098342
0.00961317
0.00944658
0.00932347
0.0092315
0.00915929
0.00909709
0.00903526
0.00896123
0.00885534
0.00868659
0.00840965
0.00796598
0.00729196
0.00633587
0.0050804
0.00356093
0.00186668
0.000279467
0.00973639
0.0095389
0.00939051
0.00928045
0.00919761
0.00913197
0.00907471
0.00901665
0.00894527
0.0088408
0.00867213
0.00839399
0.00794819
0.00727188
0.00631444
0.00505973
0.003544
0.0018568
0.00027919
0.0096448
0.00947123
0.00934053
0.00924275
0.00916827
0.00910852
0.00905562
0.00900083
0.0089317
0.00882837
0.00865962
0.00838023
0.00793234
0.00725381
0.00629502
0.00504094
0.00352861
0.00184801
0.000278926
0.00955969
0.00940963
0.00929579
0.00920947
0.00914267
0.00908825
0.00903925
0.00898735
0.0089202
0.00881784
0.00864896
0.00836841
0.0079186
0.00723802
0.00627798
0.00502444
0.00351517
0.00184049
0.000278666
0.00948172
0.00935396
0.00925579
0.00917999
0.00912021
0.00907063
0.00902515
0.00897586
0.00891047
0.00880899
0.00864005
0.0083585
0.00790704
0.00722469
0.00626356
0.00501049
0.00350389
0.00183434
0.000278412
0.00941164
0.00930426
0.00922023
0.0091539
0.00910045
0.00905526
0.00901298
0.00896604
0.00890227
0.00880165
0.00863274
0.00835045
0.00789766
0.00721387
0.00625187
0.0049992
0.00349485
0.00182956
0.000278166
0.00934995
0.00926049
0.00918886
0.00913088
0.00908306
0.00904182
0.00900243
0.00895764
0.00889539
0.00879564
0.00862692
0.00834416
0.00789041
0.00720555
0.0062429
0.00499059
0.00348804
0.00182612
0.000277932
0.00929674
0.00922249
0.00916143
0.00911065
0.00906778
0.00903005
0.00899328
0.00895047
0.00888966
0.00879081
0.00862245
0.00833952
0.00788521
0.00719965
0.00623657
0.00498457
0.00348339
0.00182393
0.000277713
0.00925166
0.0091899
0.00913763
0.00909295
0.00905437
0.00901975
0.00898533
0.00894433
0.0088849
0.00878702
0.0086192
0.00833641
0.00788192
0.00719604
0.00623278
0.00498103
0.00348078
0.00182293
0.000277511
0.00921399
0.00916222
0.0091171
0.00907753
0.00904262
0.00901073
0.00897841
0.00893909
0.00888099
0.00878413
0.00861705
0.0083347
0.00788041
0.00719458
0.00623135
0.00497981
0.00348007
0.00182302
0.000277329
0.0091828
0.00913885
0.00909947
0.00906411
0.00903233
0.00900282
0.00897239
0.00893461
0.0088778
0.00878203
0.00861587
0.00833426
0.00788053
0.00719508
0.0062321
0.00498072
0.00348112
0.0018241
0.000277168
0.0091571
0.00911915
0.00908431
0.00905241
0.00902328
0.00899586
0.00896711
0.00893077
0.00887522
0.00878062
0.00861554
0.00833494
0.00788211
0.00719737
0.00623484
0.00498357
0.00348374
0.00182606
0.000277029
0.0091359
0.00910246
0.00907119
0.00904212
0.00901525
0.00898966
0.00896245
0.00892745
0.00887315
0.00877978
0.00861595
0.00833662
0.00788499
0.00720125
0.00623934
0.00498815
0.00348777
0.00182881
0.000276913
0.00911825
0.00908812
0.00905964
0.0090329
0.00900799
0.00898404
0.00895824
0.00892452
0.00887147
0.0087794
0.00861698
0.00833914
0.00788898
0.00720651
0.00624538
0.00499424
0.00349302
0.00183222
0.00027682
0.00910324
0.00907544
0.00904914
0.00902437
0.0090012
0.00897876
0.00895431
0.00892184
0.00887006
0.00877936
0.00861847
0.00834233
0.00789389
0.00721291
0.0062527
0.00500157
0.00349928
0.00183618
0.000276751
0.00909004
0.00906377
0.00903917
0.00901614
0.00899458
0.0089736
0.00895046
0.00891925
0.00886877
0.00877951
0.00862028
0.008346
0.00789947
0.00722017
0.00626099
0.00500986
0.00350629
0.00184053
0.000276703
0.00907793
0.00905251
0.0090293
0.00900786
0.00898787
0.00896834
0.00894654
0.00891662
0.00886747
0.00877971
0.00862222
0.00834991
0.00790544
0.00722794
0.00626987
0.00501873
0.00351375
0.00184508
0.000276674
0.00906643
0.0090414
0.00901936
0.00899943
0.00898101
0.00896295
0.0089425
0.00891387
0.00886607
0.00877982
0.00862409
0.00835378
0.0079114
0.00723576
0.00627885
0.00502768
0.00352125
0.00184958
0.000276661
0.0090556
0.00903068
0.00900966
0.00899117
0.00897426
0.00895762
0.00893848
0.0089111
0.00886458
0.00877977
0.00862571
0.00835729
0.00791691
0.00724304
0.00628724
0.00503607
0.0035282
0.00185365
0.000276654
0.00904624
0.00902141
0.00900128
0.00898403
0.00896841
0.00895299
0.00893496
0.00890864
0.0088632
0.00877958
0.0086269
0.00836007
0.00792135
0.007249
0.00629418
0.00504303
0.00353388
0.00185672
0.000276646
0.00904019
0.00901556
0.00899603
0.00897954
0.00896472
0.00895005
0.00893271
0.00890703
0.00886225
0.00877936
0.00862753
0.00836167
0.007924
0.00725262
0.0062985
0.00504746
0.0035376
0.00185874
0.000276611
)
;

boundaryField
{
    leftWall
    {
        type            nutkWallFunction;
        Cmu             0.09;
        kappa           0.41;
        E               9.8;
        value           nonuniform List<scalar> 
50
(
1.78743e-05
2.18731e-05
2.34926e-05
2.4449e-05
2.5085e-05
2.5543e-05
2.58922e-05
2.6172e-05
2.64211e-05
2.67284e-05
2.69875e-05
2.72227e-05
2.74439e-05
2.76537e-05
2.78526e-05
2.80414e-05
2.82232e-05
2.84058e-05
2.8609e-05
2.88832e-05
2.93779e-05
3.06058e-05
3.28121e-05
3.46107e-05
3.56767e-05
3.51767e-05
3.44673e-05
3.4174e-05
3.40661e-05
3.3905e-05
3.35999e-05
3.31628e-05
3.26405e-05
3.20738e-05
3.14999e-05
3.09438e-05
3.04215e-05
2.99417e-05
2.95076e-05
2.91193e-05
2.87776e-05
2.84911e-05
2.82879e-05
2.82361e-05
2.84906e-05
2.9366e-05
3.13415e-05
3.491e-05
4.06353e-05
5.01603e-05
)
;
    }
    rightWall
    {
        type            nutkWallFunction;
        Cmu             0.09;
        kappa           0.41;
        E               9.8;
        value           nonuniform List<scalar> 
50
(
1.61801e-05
2.23614e-05
2.50524e-05
2.67716e-05
2.79731e-05
2.88538e-05
2.95182e-05
3.00299e-05
3.06624e-05
3.11433e-05
3.14433e-05
3.16263e-05
3.17362e-05
3.18005e-05
3.18353e-05
3.18492e-05
3.18471e-05
3.18319e-05
3.18055e-05
3.17693e-05
3.17247e-05
3.16729e-05
3.16154e-05
3.15534e-05
3.14882e-05
3.14207e-05
3.13519e-05
3.12828e-05
3.12215e-05
3.11797e-05
3.11438e-05
3.11094e-05
3.10755e-05
3.10422e-05
3.101e-05
3.09792e-05
3.09503e-05
3.09236e-05
3.08994e-05
3.0878e-05
3.08595e-05
3.08439e-05
3.08315e-05
3.0822e-05
3.08154e-05
3.08114e-05
3.08093e-05
3.08083e-05
3.08071e-05
3.08024e-05
)
;
    }
    lowerWall
    {
        type            nutkWallFunction;
        Cmu             0.09;
        kappa           0.41;
        E               9.8;
        value           nonuniform List<scalar> 
62
(
8.81503e-06
1.0424e-05
1.19766e-05
1.30378e-05
1.38537e-05
1.45391e-05
1.51591e-05
1.57578e-05
1.63671e-05
1.70069e-05
1.76826e-05
1.83832e-05
1.908e-05
1.9728e-05
2.02706e-05
2.0646e-05
2.07951e-05
2.06656e-05
2.01952e-05
1.95355e-05
1.87292e-05
1.77895e-05
1.56445e-05
1.56445e-05
4.04673e-05
4.56672e-05
5.08629e-05
5.65397e-05
6.27149e-05
6.93457e-05
7.76491e-05
8.88385e-05
6.16406e-05
6.01247e-05
6.27821e-05
2.9771e-08
2.27884e-05
2.63072e-05
2.86566e-05
3.07441e-05
3.31448e-05
3.68096e-05
4.47097e-05
2.9771e-08
2.96283e-06
4.6803e-06
5.25851e-06
5.30836e-06
5.18904e-06
5.00966e-06
4.82022e-06
4.66178e-06
4.54287e-06
4.45144e-06
4.36448e-06
4.26944e-06
4.14691e-06
3.95942e-06
3.63218e-06
3.00905e-06
1.74945e-06
7.30267e-07
)
;
    }
    atmosphere
    {
        type            calculated;
        value           nonuniform List<scalar> 
46
(
0.009
0.009
0.009
0.009
0.009
0.009
0.009
0.009
0.009
0.009
0.009
0.009
0.009
0.009
0.009
0.009
0.009
0.009
0.009
0.009
0.009
0.00912803
0.00912587
0.00910671
0.00909231
0.00907733
0.00906279
0.00904019
0.00901556
0.00899603
0.00897954
0.00896472
0.00895005
0.00893271
0.00890703
0.00886225
0.00877936
0.00862753
0.00836167
0.007924
0.00725262
0.0062985
0.00504746
0.0035376
0.00185874
0.000276611
)
;
    }
    defaultFaces
    {
        type            empty;
    }
}


// ************************************************************************* //
