/*--------------------------------*- C++ -*----------------------------------*\
  =========                 |
  \\      /  F ield         | OpenFOAM: The Open Source CFD Toolbox
   \\    /   O peration     | Website:  https://openfoam.org
    \\  /    A nd           | Version:  7
     \\/     M anipulation  |
\*---------------------------------------------------------------------------*/
FoamFile
{
    version     2.0;
    format      ascii;
    class       volScalarField;
    location    "0.15";
    object      p_rgh;
}
// * * * * * * * * * * * * * * * * * * * * * * * * * * * * * * * * * * * * * //

dimensions      [1 -1 -2 0 0 0 0];

internalField   nonuniform List<scalar> 
2268
(
2297.07
2307.93
2314.2
2315.31
2309.01
2294.26
2270.5
2237
2192.75
2136.54
2066.99
1982.69
1882.53
1766.3
1635.83
1497.03
1363.66
1263.45
1255.87
1406.07
1799.06
2413.13
3205.31
2294.81
2303.62
2306.79
2305.12
2296.66
2280.07
2254.59
2219.33
2173.15
2114.73
2042.63
1955.44
1852.13
1732.69
1599.24
1458
1322.43
1218.02
1185.03
1305.33
1671.3
2313.87
3290.87
2292.43
2300.41
2300.57
2295.54
2284.02
2264.56
2236.3
2198.19
2148.95
2087.15
2011.29
1920.01
1812.43
1688.82
1551.61
1407.15
1268.27
1157.79
1111.07
1184.13
1462.68
1997.68
3158.78
2289.2
2297.42
2295.63
2287.83
2273.45
2251.09
2219.9
2178.77
2126.3
2060.99
1981.29
1885.87
1773.96
1645.99
1504.46
1355.47
1210.56
1088.9
1017.08
1026.35
1176.38
1440.74
2607.56
2285.15
2293.85
2290.94
2281.24
2264.62
2239.85
2206.13
2162.3
2106.95
2038.48
1955.33
1856.14
1740.17
1607.85
1461.58
1306.85
1153.5
1016.14
910.766
845.124
812.894
706.499
1722.47
2280.29
2289.46
2285.86
2274.86
2256.6
2229.93
2194.11
2147.99
2090.11
2018.86
1932.61
1829.97
1710.16
1573.53
1422.26
1261.18
1098.34
943.333
801.649
648.814
418.976
204.641
909.727
2274.67
2284.19
2280.16
2268.27
2248.82
2220.71
2183.19
2135.14
2075.09
2001.37
1912.32
1806.48
1683.02
1542.16
1385.9
1218.53
1046.26
873.339
694.338
419.602
125.699
52.8413
397.555
2268.3
2277.87
2273.68
2261.22
2240.98
2211.84
2173.02
2123.43
2061.56
1985.72
1894.19
1785.45
1658.55
1513.67
1352.64
1179.28
997.554
807.621
553.597
183.286
24.1438
18.0472
75.9321
-1.4788
-1.40723
-1.27702
-1.11843
-0.964365
-0.826716
-0.708813
-0.610287
-0.52877
-0.461901
-0.406889
-0.361987
-0.325407
-0.29576
-0.271969
-0.253188
-0.238895
-0.229064
-0.22265
-1.49336
-1.41845
-1.28685
-1.12471
-0.967811
-0.827771
-0.708354
-0.608883
-0.526859
-0.459473
-0.404487
-0.359575
-0.323002
-0.293376
-0.269642
-0.250993
-0.23693
-0.227441
-0.221438
-1.52917
-1.44109
-1.30087
-1.13107
-0.969485
-0.826341
-0.705213
-0.604898
-0.522586
-0.455282
-0.400434
-0.355753
-0.319428
-0.290045
-0.266565
-0.248226
-0.234527
-0.225386
-0.219668
-1.58769
-1.47703
-1.31957
-1.13631
-0.967745
-0.820998
-0.698377
-0.597683
-0.515602
-0.44883
-0.394572
-0.350489
-0.314723
-0.285846
-0.262828
-0.24494
-0.231658
-0.22275
-0.217058
-1.67564
-1.52792
-1.34282
-1.13978
-0.961929
-0.811202
-0.687496
-0.587039
-0.505806
-0.440101
-0.386912
-0.343813
-0.30892
-0.280798
-0.258427
-0.241093
-0.22824
-0.219466
-0.213691
-1.80401
-1.59523
-1.36979
-1.14044
-0.951403
-0.796537
-0.672344
-0.572872
-0.493175
-0.429121
-0.377477
-0.335742
-0.30202
-0.274885
-0.253324
-0.236633
-0.224219
-0.215532
-0.209645
-1.99535
-1.66621
-1.39958
-1.13756
-0.93556
-0.776557
-0.652698
-0.55511
-0.477713
-0.415926
-0.366311
-0.326317
-0.294054
-0.268123
-0.247524
-0.231556
-0.219595
-0.210984
-0.20499
-2.26855
-1.77
-1.43733
-1.13264
-0.913265
-0.750835
-0.628376
-0.533715
-0.459458
-0.400568
-0.353472
-0.315593
-0.28507
-0.260548
-0.24105
-0.22588
-0.214387
-0.205862
-0.199788
2257.36
2266.26
2262.14
2249.17
2228.16
2198.03
2157.86
2106.49
2042.43
1963.94
1869.21
1756.59
1625.02
1474.6
1307.01
1124.44
926.671
695.94
280.193
17.7688
5.14235
3.13236
-0.0603329
2240.05
2247.79
2243.43
2230.4
2209.21
2178.74
2137.92
2085.55
2020.03
1939.51
1842.05
1725.88
1589.94
1434.42
1260.19
1065.79
849.757
356.075
15.58
1.97076
1.29762
0.657559
-0.682873
2221.06
2227.24
2222.52
2209.74
2188.9
2158.81
2118.31
2066.06
2000.37
1919.27
1820.67
1702.78
1564.7
1406.56
1226.04
1020.76
548.089
37.3636
1.3954
0.62138
0.735647
0.59935
0.991516
2201.32
2205.79
2200.79
2188.44
2168.31
2139.12
2099.67
2048.51
1983.85
1903.58
1805.53
1687.98
1550.29
1391.17
1203.21
857.49
136.512
1.2993
0.200743
0.305167
0.499346
0.481931
0.792945
2181.73
2184.53
2179.42
2167.67
2148.51
2120.67
2082.89
2033.69
1971.18
1893.18
1797.48
1682.54
1547.43
1386.67
1195.92
411.811
3.00959
0.146015
0.009338
0.181381
0.336201
0.40674
0.677095
2163.15
2164.41
2159.4
2148.41
2130.45
2104.32
2068.79
2022.35
1963.11
1888.86
1797.45
1687.54
1556.55
1393.35
916.191
78.0543
0.331027
-0.19212
-0.0784509
0.074182
0.237237
0.394082
0.658238
2146.25
2146.15
2141.44
2131.35
2114.82
2090.75
2057.98
2015.08
1960.24
1891.32
1806.32
1703.62
1576.92
1417.72
450.586
1.68535
-0.306053
-0.314823
-0.162011
-0.0166471
0.159352
0.348082
0.578958
2131.55
2130.28
2126.08
2117.02
2102.11
2080.4
2050.85
2012.24
1962.96
1901.07
1824.82
1731.55
1609.51
1184.35
113.24
-0.137128
-0.49129
-0.374742
-0.243359
-0.0959819
0.0834534
0.271548
0.465799
2119.81
2117.33
2113.87
2105.9
2092.76
2073.63
2047.7
2014.04
1971.37
1918.16
1852.84
1771.26
1659.08
709.985
3.18066
-0.608463
-0.567063
-0.433184
-0.313714
-0.165431
0.00944904
0.186534
0.351846
2110.85
2106.82
2104.59
2097.97
2086.76
2070.37
2048.26
2019.91
1984.58
1941.28
1888.79
1821.06
1682.81
300.483
0.302783
-0.673569
-0.608227
-0.497357
-0.379261
-0.229991
-0.0622162
0.101499
0.244288
2102.13
2097.15
2096.86
2092.08
2082.84
2069.06
2050.67
2027.7
2000.21
1968.35
1931.94
1882.84
1325.6
81.5219
-0.631703
-0.785564
-0.684825
-0.575431
-0.444954
-0.291032
-0.12938
0.0216815
0.148038
2093.33
2093.51
2093.01
2089.2
2081.44
2070.06
2055.53
2038.5
2019.93
2001.35
1984.64
1961.45
878.23
7.52552
-1.03041
-0.878579
-0.761016
-0.642174
-0.499727
-0.342805
-0.187196
-0.0471465
0.0671382
1807.68
1881.54
1923.38
1954.7
1962.09
1940.1
1889.89
1801.98
1669.94
1490.38
1333.1
1505.82
386.896
-0.630854
-1.10251
-0.930429
-0.820295
-0.689045
-0.537358
-0.380583
-0.232001
-0.101942
0.00311903
313.287
416.089
478.356
541.914
566.561
534.664
457.361
346.569
225.319
113.031
39.3426
103.145
38.0212
-1.24382
-1.09773
-0.983873
-0.861873
-0.71385
-0.556143
-0.402557
-0.262291
-0.141927
-0.0449707
-0.93581
0.0992769
-0.517234
-0.722274
-0.853038
-0.96026
-1.05409
-1.12436
-1.14489
-1.09166
-1.07299
-1.11014
-1.24226
-1.08117
-1.1499
-1.00925
-0.865497
-0.70942
-0.553525
-0.407695
-0.277853
-0.167789
-0.0790258
-0.592848
-0.557925
-0.566369
-0.561836
-0.590579
-0.637282
-0.69753
-0.768575
-0.847165
-0.931456
-1.03008
-1.1445
-1.22789
-1.19417
-1.08746
-0.96044
-0.820446
-0.672947
-0.529031
-0.396523
-0.279745
-0.181063
-0.101074
-0.533633
-0.470856
-0.523627
-0.544419
-0.587456
-0.636752
-0.690915
-0.749432
-0.81099
-0.87502
-0.942565
-1.0124
-1.06023
-1.04056
-0.96794
-0.864621
-0.74275
-0.613728
-0.488079
-0.372474
-0.270482
-0.183918
-0.113134
-0.467098
-0.45287
-0.489751
-0.516682
-0.557496
-0.602081
-0.648776
-0.697259
-0.746738
-0.796056
-0.844187
-0.887768
-0.91233
-0.896304
-0.83979
-0.754688
-0.652462
-0.544063
-0.438196
-0.340269
-0.253286
-0.178814
-0.117224
-0.425813
-0.43033
-0.457004
-0.484027
-0.517457
-0.553687
-0.591463
-0.63035
-0.669678
-0.708046
-0.743216
-0.770785
-0.781255
-0.76338
-0.715712
-0.645393
-0.561425
-0.472507
-0.385297
-0.30403
-0.231187
-0.168137
-0.115311
-0.385005
-0.397888
-0.421031
-0.446031
-0.473378
-0.50199
-0.531375
-0.561221
-0.59087
-0.618919
-0.642924
-0.658836
-0.660308
-0.64116
-0.600595
-0.543202
-0.475479
-0.403823
-0.33317
-0.266791
-0.20668
-0.154009
-0.109245
-0.342879
-0.359576
-0.381554
-0.404225
-0.426801
-0.449097
-0.471144
-0.492878
-0.513767
-0.532602
-0.547285
-0.554644
-0.550565
-0.531612
-0.497543
-0.451373
-0.397577
-0.340662
-0.284217
-0.230718
-0.181726
-0.138215
-0.100664
-0.301299
-0.319017
-0.340133
-0.360641
-0.379449
-0.396696
-0.412701
-0.427629
-0.44118
-0.452475
-0.459937
-0.461331
-0.454093
-0.436353
-0.408141
-0.371431
-0.329202
-0.28453
-0.239961
-0.197313
-0.157773
-0.122144
-0.0909006
-0.26205
-0.279262
-0.299162
-0.317617
-0.333404
-0.346732
-0.358009
-0.367562
-0.375357
-0.380881
-0.383103
-0.38059
-0.371828
-0.355824
-0.332709
-0.303749
-0.270872
-0.236109
-0.201208
-0.167464
-0.135762
-0.106764
-0.0809244
-0.226355
-0.242413
-0.260713
-0.277166
-0.290465
-0.300775
-0.308477
-0.313998
-0.31754
-0.318931
-0.317612
-0.312764
-0.303548
-0.289458
-0.270628
-0.247849
-0.222333
-0.195375
-0.168137
-0.141517
-0.11617
-0.09264
-0.0713531
-0.194786
-0.209455
-0.225977
-0.240492
-0.251689
-0.259657
-0.264734
-0.2674
-0.268022
-0.266689
-0.263203
-0.257167
-0.248156
-0.235923
-0.220576
-0.202597
-0.182713
-0.161742
-0.14043
-0.119389
-0.0991032
-0.0800178
-0.0625144
-0.167494
-0.180707
-0.195413
-0.208094
-0.217495
-0.22365
-0.226874
-0.227658
-0.226453
-0.223516
-0.218883
-0.212425
-0.203958
-0.19338
-0.18077
-0.166414
-0.150752
-0.134277
-0.117466
-0.100731
-0.0844278
-0.0689177
-0.0545271
-0.144384
-0.156151
-0.16908
-0.180059
-0.187927
-0.192696
-0.194664
-0.1943
-0.192072
-0.188321
-0.183216
-0.176781
-0.168977
-0.159784
-0.149269
-0.137605
-0.125055
-0.111919
-0.0984953
-0.0850619
-0.0718773
-0.0592275
-0.0473808
-0.125105
-0.135476
-0.146738
-0.15617
-0.162743
-0.166466
-0.167605
-0.166584
-0.163854
-0.159779
-0.154589
-0.148397
-0.141249
-0.133177
-0.124246
-0.11457
-0.104311
-0.093653
-0.0827832
-0.071884
-0.0611409
-0.0507762
-0.0410019
-0.109108
-0.11818
-0.127923
-0.135983
-0.141477
-0.144402
-0.144987
-0.143604
-0.14067
-0.136537
-0.131461
-0.125602
-0.119054
-0.111885
-0.104161
-0.0959689
-0.0874138
-0.0786138
-0.0696853
-0.0607437
-0.0519203
-0.0433847
-0.035299
-0.0958016
-0.103697
-0.112081
-0.118943
-0.123532
-0.125832
-0.126027
-0.124445
-0.121459
-0.117402
-0.112533
-0.107033
-0.101025
-0.0945956
-0.0878164
-0.0807586
-0.0734983
-0.0661141
-0.0586771
-0.0512619
-0.0439579
-0.0368926
-0.0301862
-0.0846773
-0.0915198
-0.0986958
-0.104515
-0.108334
-0.110117
-0.110017
-0.108319
-0.105355
-0.101434
-0.0968096
-0.09167
-0.0861488
-0.0803421
-0.0743246
-0.0681604
-0.0619081
-0.0556215
-0.0493488
-0.0431363
-0.0370429
-0.0311646
-0.0255875
-0.0753513
-0.081251
-0.0873617
-0.0922702
-0.0954157
-0.0967521
-0.096406
-0.0946261
-0.0917115
-0.0879492
-0.0835798
-0.0787869
-0.0737049
-0.0684328
-0.063046
-0.057604
-0.0521548
-0.0467373
-0.0413854
-0.0361261
-0.0310027
-0.0260861
-0.0214353
-0.0675315
-0.0726007
-0.0777799
-0.0818906
-0.0844341
-0.0853614
-0.0847838
-0.0829267
-0.0800643
-0.0764607
-0.072338
-0.0678681
-0.0631802
-0.0583715
-0.0535157
-0.048668
-0.0438691
-0.0391487
-0.0345303
-0.0300348
-0.0256925
-0.021558
-0.0176705
-0.0609979
-0.0653515
-0.0697189
-0.0731272
-0.0751161
-0.0756456
-0.0748297
-0.0728845
-0.0700634
-0.0666054
-0.0627096
-0.0585325
-0.0541947
-0.0497886
-0.0453839
-0.0410308
-0.0367645
-0.032609
-0.0285821
-0.0247008
-0.0209903
-0.0174971
-0.014246
-0.0556004
-0.0593192
-0.0629703
-0.0657515
-0.0672082
-0.0673324
-0.0662626
-0.064214
-0.0614192
-0.058088
-0.0543947
-0.0504785
-0.0464497
-0.0423937
-0.0383745
-0.034437
-0.0306117
-0.0269191
-0.0233736
-0.0199901
-0.016795
-0.0138359
-0.0111292
-0.0511167
-0.0542916
-0.0573084
-0.0595251
-0.0604525
-0.0601556
-0.0588182
-0.056656
-0.0538751
-0.0506538
-0.0471401
-0.0434561
-0.0397004
-0.0359504
-0.0322634
-0.0286797
-0.025226
-0.0219196
-0.0187716
-0.0157951
-0.0130233
-0.0105198
-0.00829783
-0.0470548
-0.0500569
-0.0525175
-0.0542133
-0.0545952
-0.0538599
-0.0522514
-0.0499765
-0.0472065
-0.0440849
-0.0407343
-0.0372594
-0.0337473
-0.0302674
-0.0268713
-0.0235954
-0.0204632
-0.0174875
-0.0146738
-0.0120299
-0.00960115
-0.0074972
-0.00573344
-0.0431018
-0.0466755
-0.0485105
-0.0496311
-0.0494133
-0.0482235
-0.0463558
-0.0439846
-0.0412339
-0.0382105
-0.0350121
-0.031728
-0.0284354
-0.0251974
-0.0220619
-0.0190624
-0.0162182
-0.0135353
-0.011008
-0.00862944
-0.00645922
-0.00471662
-0.00342125
-0.0399857
-0.0447274
-0.0453537
-0.0456358
-0.0447322
-0.0430957
-0.0410061
-0.0385703
-0.0358544
-0.0329291
-0.0298718
-0.0267601
-0.0236648
-0.0206457
-0.0177492
-0.0150061
-0.0124301
-0.0100177
-0.00774458
-0.00556426
-0.00352938
-0.00211134
-0.00135685
-0.0382077
-0.0458835
-0.043387
-0.0420926
-0.0404471
-0.0384549
-0.0362164
-0.0337522
-0.0310781
-0.0282392
-0.025301
-0.0223352
-0.0194107
-0.0165874
-0.0139116
-0.011412
-0.00909629
-0.00695002
-0.00491025
-0.00279595
-0.000540563
0.000684106
0.000585689
-0.0330394
-0.0547063
-0.0434624
-0.0390279
-0.0366252
-0.0344117
-0.0320854
-0.0296
-0.0269477
-0.0241634
-0.021309
-0.0184558
-0.0156736
-0.0130241
-0.0105544
-0.00829149
-0.0062364
-0.00435662
-0.00249142
-2.21269e-05
0.0037402
0.0050615
0.00303235
-0.0142272
-0.0713692
-0.0440931
-0.0365803
-0.0334261
-0.0308982
-0.0284149
-0.0258473
-0.0231633
-0.0203921
-0.0175934
-0.0148377
-0.0121943
-0.00972455
-0.00747448
-0.00546645
-0.00368504
-0.00205139
-0.000276979
0.0028849
0.0102573
0.0103273
0.00525249
-4.81856
-4.96277
-4.77538
-4.52688
3.08787
-3.07314
-4.21594
-4.09737
2.75786
0.796715
-2.54991
-3.51544
0.710515
0.825842
0.730942
0.0210879
0.889598
0.966858
1.15733
1.37722
0.879208
0.999606
1.08334
1.0997
0.735185
0.819701
0.882284
0.90506
0.582954
0.644743
0.689612
0.710004
0.444014
0.491888
0.527104
0.546899
0.319866
0.359404
0.389669
0.409748
0.214013
0.249445
0.277911
0.298927
0.127819
0.161355
0.189358
0.211365
0.0603997
0.0926882
0.12033
0.142867
0.00927211
0.0402309
0.0671752
0.0896859
-0.0282999
0.000933038
0.0267582
0.0488014
-0.0545092
-0.0274151
-0.00312962
0.0179868
-0.0711755
-0.0465117
-0.0241091
-0.00432409
-0.0800241
-0.0579405
-0.0376685
-0.0195485
-0.0827774
-0.0632982
-0.0452902
-0.0290566
-0.0811254
-0.0641742
-0.048443
-0.0341821
-0.0766125
-0.062036
-0.0484855
-0.036155
-0.0705163
-0.0581065
-0.0465585
-0.0360181
-0.0637807
-0.0532984
-0.043528
-0.0345797
-0.0570226
-0.0482185
-0.0399851
-0.0324104
-0.0505874
-0.0432187
-0.0362895
-0.0298762
-0.0446251
-0.0384672
-0.0326315
-0.0271901
-0.0391661
-0.03402
-0.0290959
-0.024466
-0.0341834
-0.0298786
-0.0257138
-0.0217632
-0.0296329
-0.0260256
-0.0224939
-0.0191149
-0.0254702
-0.02244
-0.0194371
-0.016542
-0.0216539
-0.0191005
-0.0165411
-0.0140597
-0.0181459
-0.015988
-0.0138044
-0.011682
-0.014915
-0.0130895
-0.0112309
-0.00942642
-0.0119416
-0.010403
-0.00883266
-0.00731614
-0.00921863
-0.00793632
-0.00662928
-0.00537889
-0.00674739
-0.00570331
-0.0046437
-0.0036438
-0.00453016
-0.00371783
-0.00289818
-0.00213879
-0.002568
-0.0019918
-0.00141364
-0.000890626
-0.000875466
-0.000546944
-0.000216845
7.06471e-05
0.000520932
0.000563123
0.000642112
0.000700199
0.00179877
0.00136343
0.00113139
0.000957131
0.00343307
0.00257051
0.00180756
0.00115218
-3.12109
-2.13904
-1.51275
-1.11188
-0.864025
-0.699232
-0.582112
-0.494378
-0.426649
-0.373373
-0.330982
-0.296971
-0.269576
-0.247541
-0.229954
-0.216122
-0.205371
-0.197024
-0.190883
-3.49536
-2.36037
-1.45446
-0.975636
-0.730481
-0.587924
-0.493053
-0.423795
-0.370429
-0.328256
-0.294484
-0.267188
-0.245017
-0.226994
-0.212384
-0.200588
-0.190999
-0.183083
-0.176947
-3.04317
-1.92333
-1.09111
-0.695531
-0.526778
-0.439409
-0.382258
-0.339684
-0.305291
-0.276984
-0.253518
-0.234014
-0.217758
-0.20418
-0.192805
-0.183204
-0.174921
-0.167622
-0.16167
-1.07053
-0.842443
-0.478766
-0.324727
-0.285764
-0.274495
-0.261973
-0.249563
-0.236252
-0.222882
-0.210372
-0.199049
-0.188938
-0.179935
-0.171873
-0.164539
-0.157671
-0.15115
-0.145543
0.71171
0.144213
0.0521134
-0.00597703
-0.0709852
-0.117633
-0.148425
-0.16351
-0.169231
-0.169751
-0.167579
-0.16404
-0.159803
-0.155193
-0.150333
-0.145233
-0.139828
-0.134192
-0.129037
0.980675
0.589412
0.348135
0.19579
0.0797348
-0.00188693
-0.0557473
-0.0891321
-0.109152
-0.120839
-0.127354
-0.13055
-0.131503
-0.130837
-0.128907
-0.125906
-0.121939
-0.117234
-0.112593
0.848324
0.639672
0.444973
0.28937
0.166852
0.076499
0.0132539
-0.0297688
-0.0587524
-0.0782489
-0.0912855
-0.099788
-0.104976
-0.107626
-0.108228
-0.107106
-0.104487
-0.100703
-0.0966009
0.694621
0.579307
0.441843
0.314523
0.207268
0.123208
0.0603818
0.0144729
-0.0188283
-0.042927
-0.060266
-0.0725366
-0.0808987
-0.0861429
-0.0888093
-0.089285
-0.0878687
-0.0849531
-0.0813878
0.551822
0.48959
0.398207
0.303672
0.218137
0.146647
0.0896434
0.0452666
0.0111287
-0.0149146
-0.0345784
-0.0491723
-0.0596702
-0.0667813
-0.0710207
-0.0727829
-0.0723921
-0.0702608
-0.0672115
0.425556
0.397335
0.341418
0.275965
0.211736
0.154212
0.105308
0.0649692
0.0323355
0.00633812
-0.014054
-0.0297382
-0.0414469
-0.0497508
-0.0550907
-0.0578258
-0.0582689
-0.0568221
-0.0542565
0.321161
0.314943
0.28455
0.242071
0.196008
0.151485
0.111134
0.0760106
0.0462916
0.0217013
0.00176608
-0.0140359
-0.0261896
-0.0351052
-0.0411216
-0.0445355
-0.0456235
-0.044756
-0.0426359
0.237757
0.245672
0.232863
0.207432
0.175805
0.142444
0.110171
0.0805993
0.0545143
0.0321664
0.0134947
-0.00171415
-0.013721
-0.0227772
-0.0291113
-0.0329444
-0.0345027
-0.0341127
-0.0323978
0.171747
0.188661
0.18772
0.174556
0.154018
0.129862
0.104791
0.0806063
0.0583925
0.0387152
0.0217959
0.00765667
-0.00377719
-0.0126148
-0.0189791
-0.0230139
-0.0248898
-0.0248839
-0.023535
0.11972
0.142119
0.149037
0.144557
0.132395
0.11566
0.0967842
0.0775403
0.0591169
0.0422423
0.0273165
0.0145289
0.00394943
-0.00441332
-0.0105899
-0.014653
-0.0167194
-0.0170161
-0.0159961
0.0790068
0.104363
0.116346
0.117923
0.112006
0.101148
0.0874579
0.0725696
0.0576591
0.0435174
0.0306445
0.0193398
0.00977816
0.00205842
-0.00377551
-0.00773584
-0.00989168
-0.0104224
-0.0096972
0.0474632
0.0741752
0.0891528
0.0948284
0.093483
0.0871896
0.0777316
0.066562
0.0547794
0.0431742
0.0322895
0.0224897
0.0140184
0.00703814
0.00164803
-0.00211681
-0.00428547
-0.00499407
-0.00453233
0.0236927
0.0503855
0.0669246
0.0752494
0.0771403
0.0743082
0.0682142
0.0601336
0.0510504
0.0417159
0.0326782
0.0243308
0.0169562
0.0107564
0.00586721
0.00235793
0.000231414
-0.00061029
-0.000382273
0.00640677
0.0320947
0.0491158
0.0589734
0.0630756
0.0627853
0.0592727
0.0537009
0.0468878
0.0395312
0.032158
0.0251642
0.0188472
0.0134277
0.0090617
0.0058413
0.00379369
0.00285411
0.00287842
-0.00557661
0.0184333
0.035149
0.0457027
0.0511831
0.0526655
0.0511444
0.0475373
0.0425838
0.0369135
0.0310067
0.0252417
0.0199138
0.0152449
0.0113983
0.008479
0.00653207
0.00552107
0.00537676
-0.0133748
0.00854742
0.0244162
0.0350526
0.0412823
0.0439506
0.0438688
0.0417844
0.0383408
0.0340815
0.0294435
0.0247693
0.020345
0.0163773
0.0130275
0.0104057
0.00856933
0.0075002
0.00724126
-0.0180154
0.00163319
0.0163197
0.026614
0.0331307
0.0365279
0.0374564
0.0365272
0.0342835
0.0311904
0.0276318
0.0239177
0.020299
0.0169705
0.0140831
0.0117445
0.0100201
0.00887028
0.00861132
-0.0203861
-0.00302234
0.0103115
0.0199938
0.0264741
0.0302605
0.0318697
0.0317976
0.0304947
0.0283533
0.0257028
0.0228132
0.0199031
0.0171466
0.0146809
0.0126094
0.0110026
0.00985594
0.00942484
-0.0212009
-0.00601167
0.00592263
0.0148434
0.0210756
0.0250088
0.0270505
0.0275988
0.0270226
0.0256471
0.0237492
0.0215579
0.0192601
0.0170064
0.0149177
0.01309
0.0115926
0.0104341
0.00987385
-0.0209927
-0.00779651
0.00277534
0.0108726
0.0167291
0.0206429
0.0229329
0.023916
0.0238898
0.0231204
0.0218362
0.0202276
0.0184502
0.0166306
0.0148722
0.0132612
0.0118634
0.0106971
0.010021
-0.020132
-0.00871685
0.000579321
0.00784927
0.0132624
0.0170464
0.0194495
0.0207217
0.0211005
0.0208007
0.0200077
0.0188766
0.017534
0.0160826
0.0146082
0.0131858
0.0118769
0.0107106
0.00993179
-0.0188611
-0.00901332
-0.000882617
0.00559118
0.0105324
0.0141154
0.0165325
0.0179794
0.0186442
0.0186981
0.0182896
0.0175422
0.0165558
0.0154109
0.0141763
0.0129158
0.0116857
0.0105251
0.00966082
-0.0173331
-0.00885424
-0.00177311
0.00395348
0.00841849
0.0117557
0.0141141
0.0156461
0.0164997
0.0168099
0.0166937
0.0162471
0.0155461
0.0146514
0.0136157
0.0124924
0.0113327
0.0101833
0.00925106
-0.0156458
-0.00835993
-0.00221713
0.00281782
0.00681584
0.00988037
0.0121268
0.013674
0.0146374
0.0151227
0.0152201
0.0150021
0.0145241
0.0138291
0.0129561
0.0119484
0.0108522
0.00971998
0.00873729
-0.0138651
-0.00762044
-0.0023146
0.00208423
0.00563151
0.00840822
0.0105044
0.0120126
0.0130226
0.0136158
0.0138604
0.0138092
0.0135
0.0129611
0.0122194
0.0113094
0.0102719
0.00916346
0.00814752
-0.0120396
-0.00670704
-0.00214897
0.0016656
0.00478153
0.00726343
0.00918233
0.0106103
0.0116166
0.012263
0.0125998
0.0126634
0.0124774
0.012058
0.0114218
0.0105953
0.00961378
0.00853621
0.00750382
-0.0102082
-0.00567966
-0.0017928
0.00148422
0.00418932
0.0063753
0.00809877
0.00941584
0.0103794
0.0110355
0.0114198
0.0115559
0.011456
0.0111264
0.0105751
0.00982136
0.00889515
0.00785587
0.00682319
-0.00840558
-0.00459198
-0.00131149
0.00146962
0.00378484
0.00567834
0.00719559
0.00838009
0.00927169
0.00990384
0.0103008
0.0104759
0.0104329
0.0101698
0.00968786
0.00899944
0.00812937
0.00713612
0.00611857
-0.00666631
-0.00349459
-0.000765374
0.00155735
0.00350417
0.00511255
0.0064191
0.00745719
0.00825629
0.00883994
0.00922349
0.00941261
0.00940414
0.00919024
0.00876614
0.00813847
0.00732684
0.00638761
0.0053999
-0.00502656
-0.00243631
-0.00021061
0.00168855
0.00328939
0.00462374
0.00572083
0.00660579
0.00729975
0.0078185
0.00817052
0.00835565
0.00836574
0.00818845
0.00781449
0.00724545
0.00649591
0.00561897
0.00467514
-0.0035236
-0.00146396
0.000300859
0.00180981
0.00308855
0.00416367
0.0050579
0.00578947
0.00637277
0.00681739
0.00712656
0.00729585
0.00731368
0.00716471
0.00683642
0.00632623
0.00564382
0.00483782
0.00395134
-0.00219415
-0.000621619
0.000721382
0.00187301
0.00285547
0.00368989
0.00439294
0.0049768
0.00545016
0.00581765
0.00607847
0.00622524
0.0062444
0.00611916
0.00583509
0.00538632
0.00477762
0.00405169
0.00323561
-0.00107303
4.99706e-05
0.00100807
0.00183577
0.00255019
0.00316626
0.00369455
0.00414161
0.00451118
0.00480378
0.00501561
0.00513755
0.00515551
0.00505269
0.00481419
0.0044317
0.00390498
0.00326886
0.00253615
-0.000192363
0.000515493
0.00112602
0.00166537
0.00214314
0.00256701
0.00294112
0.00326664
0.00354286
0.00376695
0.00393303
0.00403137
0.00404864
0.00396959
0.00378019
0.00347067
0.00303555
0.00249938
0.00186343
0.000417581
0.000745391
0.0010491
0.00133968
0.001616
0.00187736
0.00212129
0.00234384
0.00254043
0.0027056
0.00283228
0.0029112
0.00293101
0.00287931
0.00274438
0.00251598
0.00218316
0.00175702
0.00123236
0.000718279
0.00068727
0.000716385
0.000794617
0.000904528
0.00103484
0.00117573
0.00131809
0.00145385
0.00157558
0.00167582
0.0017467
0.00177991
0.00176712
0.00170026
0.00156991
0.00135909
0.00105911
0.000663701
0.000659566
0.000227808
-2.95407e-05
-0.000153475
-0.000188288
-0.000161868
-9.48281e-05
-3.24678e-06
0.000100541
0.000207005
0.000308633
0.000399525
0.000475236
0.000532563
0.000568738
0.00057798
0.000539758
0.00041732
0.000201305
0.000302992
-0.000414998
-0.000844704
-0.00109269
-0.00121843
-0.00125988
-0.00124385
-0.00118968
-0.0011112
-0.00101813
-0.000916996
-0.000811572
-0.000703227
-0.000591387
-0.000474547
-0.000353215
-0.000240108
-0.000174008
-0.000182827
)
;

boundaryField
{
    leftWall
    {
        type            fixedFluxPressure;
        gradient        uniform 0;
        value           nonuniform List<scalar> 
50
(
2297.07
2294.81
2292.43
2289.2
2285.15
2280.29
2274.67
2268.3
2257.36
2240.05
2221.06
2201.32
2181.73
2163.15
2146.25
2131.55
2119.81
2110.85
2102.13
2093.33
1807.68
313.287
-0.93581
-0.592848
-0.533633
-0.467098
-0.425813
-0.385005
-0.342879
-0.301299
-0.26205
-0.226355
-0.194786
-0.167494
-0.144384
-0.125105
-0.109108
-0.0958016
-0.0846773
-0.0753513
-0.0675315
-0.0609979
-0.0556004
-0.0511167
-0.0470548
-0.0431018
-0.0399857
-0.0382077
-0.0330394
-0.0142272
)
;
    }
    rightWall
    {
        type            fixedFluxPressure;
        gradient        uniform 0;
        value           nonuniform List<scalar> 
50
(
-0.22265
-0.221438
-0.219668
-0.217058
-0.213691
-0.209645
-0.20499
-0.199788
-0.190883
-0.176947
-0.16167
-0.145543
-0.129037
-0.112593
-0.0966009
-0.0813878
-0.0672115
-0.0542565
-0.0426359
-0.0323978
-0.023535
-0.0159961
-0.0096972
-0.00453233
-0.000382273
0.00287842
0.00537676
0.00724126
0.00861132
0.00942484
0.00987385
0.010021
0.00993179
0.00966082
0.00925106
0.00873729
0.00814752
0.00750382
0.00682319
0.00611857
0.0053999
0.00467514
0.00395134
0.00323561
0.00253615
0.00186343
0.00123236
0.000663701
0.000201305
-0.000182827
)
;
    }
    lowerWall
    {
        type            fixedFluxPressure;
        gradient        uniform 0;
        value           nonuniform List<scalar> 
62
(
2297.07
2307.93
2314.2
2315.31
2309.01
2294.26
2270.5
2237
2192.75
2136.54
2066.99
1982.69
1882.53
1766.3
1635.83
1497.03
1363.66
1263.45
1255.87
1406.07
1799.06
2413.13
3205.31
3205.31
3290.87
3158.78
2607.56
1722.47
909.727
397.555
75.9321
-4.81856
-4.96277
-4.77538
-4.52688
-1.4788
-1.49336
-1.52917
-1.58769
-1.67564
-1.80401
-1.99535
-2.26855
-1.4788
-1.40723
-1.27702
-1.11843
-0.964365
-0.826716
-0.708813
-0.610287
-0.52877
-0.461901
-0.406889
-0.361987
-0.325407
-0.29576
-0.271969
-0.253188
-0.238895
-0.229064
-0.22265
)
;
    }
    atmosphere
    {
        type            totalPressure;
        rho             rho;
        psi             none;
        gamma           1;
        p0              uniform 0;
        value           nonuniform List<scalar> 
46
(
-0.0221245
-0.042721
-0.037366
-0.0342531
-0.0316294
-0.0291352
-0.0266069
-0.0239824
-0.0212617
-0.0184838
-0.0157095
-0.0130079
-0.0104476
-0.00808985
-0.00598516
-0.00417141
-0.00267367
-0.00150613
-0.000675512
-0.000182858
-5.59002e-06
0
0
0
0
0
0
0
0
0
0
0
0
0
0
0
0
0
0
0
0
0
0
0
0
0
)
;
    }
    defaultFaces
    {
        type            empty;
    }
}


// ************************************************************************* //
