/*--------------------------------*- C++ -*----------------------------------*\
  =========                 |
  \\      /  F ield         | OpenFOAM: The Open Source CFD Toolbox
   \\    /   O peration     | Website:  https://openfoam.org
    \\  /    A nd           | Version:  7
     \\/     M anipulation  |
\*---------------------------------------------------------------------------*/
FoamFile
{
    version     2.0;
    format      ascii;
    class       volVectorField;
    location    "0.15";
    object      U;
}
// * * * * * * * * * * * * * * * * * * * * * * * * * * * * * * * * * * * * * //

dimensions      [0 1 -1 0 0 0 0];

internalField   nonuniform List<vector> 
2268
(
(-0.00611222 -0.00125368 0)
(0.0261647 -0.0156565 0)
(0.0939235 -0.0225764 0)
(0.168194 -0.0245667 0)
(0.246331 -0.0252272 0)
(0.327432 -0.0256076 0)
(0.41106 -0.0259909 0)
(0.497369 -0.0265096 0)
(0.587 -0.0272845 0)
(0.680882 -0.0284146 0)
(0.780097 -0.0299587 0)
(0.885741 -0.031925 0)
(0.998638 -0.0342201 0)
(1.11886 -0.0365848 0)
(1.24513 -0.0385356 0)
(1.3739 -0.0392176 0)
(1.49788 -0.0371734 0)
(1.60197 -0.03013 0)
(1.66971 -0.00507047 0)
(1.61336 0.0423995 0)
(1.36699 0.10744 0)
(0.888721 0.174408 0)
(0.37306 0.138415 0)
(0.011831 -0.00786387 0)
(0.0574019 -0.0374285 0)
(0.125382 -0.0504034 0)
(0.19749 -0.0550944 0)
(0.272701 -0.0575708 0)
(0.351005 -0.0595662 0)
(0.432313 -0.0616023 0)
(0.516931 -0.0639572 0)
(0.605464 -0.0668615 0)
(0.698675 -0.070483 0)
(0.797374 -0.0748733 0)
(0.902239 -0.0799097 0)
(1.01352 -0.0851996 0)
(1.13062 -0.0899636 0)
(1.25158 -0.0928956 0)
(1.37234 -0.0918746 0)
(1.48564 -0.0833246 0)
(1.58013 -0.0611602 0)
(1.63327 -0.0103683 0)
(1.65273 0.0817202 0)
(1.59612 0.220994 0)
(1.32616 0.416597 0)
(0.839899 0.470856 0)
(0.0245353 -0.0285806 0)
(0.0783219 -0.0668095 0)
(0.147375 -0.0819935 0)
(0.21804 -0.0881625 0)
(0.290928 -0.0919805 0)
(0.366778 -0.0953749 0)
(0.445804 -0.0989625 0)
(0.52842 -0.103091 0)
(0.615201 -0.108045 0)
(0.706776 -0.114016 0)
(0.80372 -0.121012 0)
(0.906372 -0.128763 0)
(1.01456 -0.136585 0)
(1.12724 -0.143219 0)
(1.24205 -0.146616 0)
(1.35475 -0.143564 0)
(1.45852 -0.128974 0)
(1.54353 -0.0946359 0)
(1.59535 -0.0292413 0)
(1.60273 0.0854712 0)
(1.56931 0.273535 0)
(1.35798 0.61025 0)
(1.03076 0.922122 0)
(0.0312138 -0.054566 0)
(0.0921215 -0.0993156 0)
(0.163582 -0.114899 0)
(0.23399 -0.121633 0)
(0.30545 -0.126425 0)
(0.379461 -0.131098 0)
(0.456579 -0.136226 0)
(0.537356 -0.142156 0)
(0.622376 -0.149185 0)
(0.712178 -0.157481 0)
(0.807156 -0.166965 0)
(0.907385 -0.177177 0)
(1.01237 -0.187107 0)
(1.12073 -0.195 0)
(1.22986 -0.198099 0)
(1.33548 -0.192246 0)
(1.43136 -0.17123 0)
(1.50957 -0.125889 0)
(1.56155 -0.0447067 0)
(1.57979 0.0877431 0)
(1.57539 0.30645 0)
(1.33291 0.754599 0)
(1.09443 1.41373 0)
(0.0341494 -0.0837352 0)
(0.100692 -0.133974 0)
(0.175016 -0.148636 0)
(0.246001 -0.155178 0)
(0.316786 -0.160626 0)
(0.389515 -0.166486 0)
(0.465088 -0.17316 0)
(0.54422 -0.180938 0)
(0.627536 -0.190079 0)
(0.715523 -0.200688 0)
(0.808442 -0.212557 0)
(0.906159 -0.224999 0)
(1.00792 -0.236658 0)
(1.1121 -0.245289 0)
(1.2159 -0.247484 0)
(1.31507 -0.238311 0)
(1.40398 -0.210867 0)
(1.47652 -0.155905 0)
(1.52837 -0.063069 0)
(1.55812 0.0811207 0)
(1.56978 0.3279 0)
(1.24657 0.894719 0)
(1.11357 1.92755 0)
(0.0355143 -0.114768 0)
(0.10587 -0.170247 0)
(0.182651 -0.183106 0)
(0.254505 -0.188745 0)
(0.325079 -0.194449 0)
(0.396945 -0.201294 0)
(0.471285 -0.20942 0)
(0.548964 -0.218994 0)
(0.630663 -0.230197 0)
(0.716846 -0.24303 0)
(0.80767 -0.257121 0)
(0.902839 -0.27153 0)
(1.0014 -0.284542 0)
(1.10152 -0.293436 0)
(1.20025 -0.29421 0)
(1.29337 -0.281311 0)
(1.37568 -0.247525 0)
(1.44236 -0.184331 0)
(1.49149 -0.0833226 0)
(1.52457 0.0706987 0)
(1.52268 0.354065 0)
(1.05458 1.10389 0)
(1.14655 2.42592 0)
(0.0364476 -0.147038 0)
(0.108874 -0.207633 0)
(0.187267 -0.218229 0)
(0.25989 -0.222458 0)
(0.330449 -0.228048 0)
(0.401717 -0.235644 0)
(0.475058 -0.245072 0)
(0.551451 -0.256337 0)
(0.631629 -0.269503 0)
(0.716041 -0.284436 0)
(0.804772 -0.300569 0)
(0.897397 -0.316687 0)
(0.992803 -0.330709 0)
(1.089 -0.339447 0)
(1.18291 -0.338339 0)
(1.27024 -0.321294 0)
(1.34595 -0.281071 0)
(1.40556 -0.210634 0)
(1.44894 -0.102917 0)
(1.47791 0.0618544 0)
(1.44657 0.385165 0)
(0.872651 1.41386 0)
(1.20457 2.8262 0)
(0.0372557 -0.180102 0)
(0.110313 -0.245778 0)
(0.189343 -0.253825 0)
(0.262429 -0.25632 0)
(0.332969 -0.26151 0)
(0.403758 -0.269632 0)
(0.476244 -0.280191 0)
(0.55147 -0.293012 0)
(0.6302 -0.308018 0)
(0.712876 -0.324909 0)
(0.799527 -0.342901 0)
(0.889629 -0.360489 0)
(0.981948 -0.37522 0)
(1.07437 -0.383442 0)
(1.16369 -0.38003 0)
(1.24548 -0.358376 0)
(1.31425 -0.3115 0)
(1.36519 -0.234451 0)
(1.40176 -0.121274 0)
(1.42307 0.0545505 0)
(1.36455 0.469948 0)
(0.723905 1.74627 0)
(1.30076 3.19917 0)
(-0.0854294 0.0305671 0)
(-0.157772 0.0040954 0)
(-0.136305 -0.011135 0)
(-0.0894631 -0.0158401 0)
(-0.0330491 -0.0141909 0)
(0.0142195 -0.010703 0)
(0.049089 -0.00704221 0)
(0.0716775 -0.00391051 0)
(0.0840764 -0.00159303 0)
(0.0886643 2.73988e-05 0)
(0.087459 0.00133316 0)
(0.0819437 0.0023033 0)
(0.0730352 0.00307469 0)
(0.0614265 0.00371803 0)
(0.0476853 0.00423861 0)
(0.0325218 0.00454873 0)
(0.0171874 0.00437817 0)
(0.00299154 0.00287956 0)
(-0.00206258 2.17567e-05 0)
(-0.0896669 0.0823975 0)
(-0.155762 0.015813 0)
(-0.131736 -0.0222812 0)
(-0.0845418 -0.0363014 0)
(-0.028972 -0.0344952 0)
(0.0171248 -0.0270936 0)
(0.0511971 -0.0187787 0)
(0.073649 -0.0114034 0)
(0.0863774 -0.00557146 0)
(0.0914086 -0.00118756 0)
(0.0904726 0.00219978 0)
(0.0849496 0.00476952 0)
(0.0759723 0.00676906 0)
(0.0643853 0.00834133 0)
(0.0509221 0.00949037 0)
(0.0364019 0.010027 0)
(0.0219425 0.00945502 0)
(0.00859732 0.00648597 0)
(0.00138976 0.000388493 0)
(-0.0939015 0.138465 0)
(-0.163925 0.0225361 0)
(-0.131955 -0.0378202 0)
(-0.0810617 -0.0588707 0)
(-0.0246175 -0.0555492 0)
(0.0206418 -0.0435695 0)
(0.0534265 -0.0302897 0)
(0.0746887 -0.0185361 0)
(0.0864635 -0.00910335 0)
(0.0907497 -0.00183872 0)
(0.089315 0.00364243 0)
(0.0836028 0.00780755 0)
(0.0747364 0.0109926 0)
(0.0635924 0.0134068 0)
(0.0509467 0.015066 0)
(0.0376067 0.0157355 0)
(0.0244904 0.0148306 0)
(0.0123538 0.0110369 0)
(0.00425386 0.00338625 0)
(-0.110026 0.200723 0)
(-0.182615 0.0270823 0)
(-0.13655 -0.0570455 0)
(-0.0778956 -0.0837516 0)
(-0.0183294 -0.0774216 0)
(0.0268091 -0.0600487 0)
(0.0582285 -0.0414733 0)
(0.0779003 -0.0252487 0)
(0.0882848 -0.0122558 0)
(0.0915134 -0.00227449 0)
(0.0893815 0.00525036 0)
(0.0833158 0.010917 0)
(0.0744145 0.0151842 0)
(0.0635489 0.0183303 0)
(0.0514819 0.0203938 0)
(0.0389537 0.0211319 0)
(0.0266755 0.0199526 0)
(0.0151575 0.0156604 0)
(0.0062458 0.00735152 0)
(-0.136116 0.273806 0)
(-0.212324 0.0263086 0)
(-0.144713 -0.0819365 0)
(-0.0741554 -0.111788 0)
(-0.00950425 -0.100266 0)
(0.0359867 -0.0763284 0)
(0.0658584 -0.0520233 0)
(0.0835542 -0.0312819 0)
(0.0921672 -0.0148387 0)
(0.0940294 -0.0022792 0)
(0.0909508 0.00714547 0)
(0.0843168 0.0141791 0)
(0.075184 0.0194011 0)
(0.0643866 0.0231615 0)
(0.0526347 0.0255346 0)
(0.0405653 0.0263007 0)
(0.028688 0.0249156 0)
(0.0173124 0.0203946 0)
(0.00750491 0.0120647 0)
(-0.168964 0.365712 0)
(-0.25661 0.0181645 0)
(-0.155801 -0.114369 0)
(-0.0688879 -0.143777 0)
(0.00236187 -0.12433 0)
(0.0482978 -0.0922606 0)
(0.0762315 -0.0616981 0)
(0.0914948 -0.0364124 0)
(0.0979443 -0.0166721 0)
(0.0981307 -0.00172585 0)
(0.0938597 0.00941434 0)
(0.0864533 0.0176548 0)
(0.0769032 0.0236936 0)
(0.0659792 0.0279556 0)
(0.0543099 0.0305639 0)
(0.0424105 0.0313463 0)
(0.030606 0.0298417 0)
(0.0190457 0.0253159 0)
(0.00830787 0.0173588 0)
(-0.206756 0.466982 0)
(-0.321125 0.00835331 0)
(-0.168631 -0.157604 0)
(-0.0608865 -0.181356 0)
(0.0178362 -0.150017 0)
(0.0638685 -0.10777 0)
(0.0891783 -0.0703106 0)
(0.101443 -0.0404633 0)
(0.105314 -0.0176145 0)
(0.103525 -0.000509705 0)
(0.0978415 0.0121401 0)
(0.0894886 0.0214152 0)
(0.0793664 0.0281316 0)
(0.0681555 0.0327922 0)
(0.0563834 0.0355793 0)
(0.0444341 0.036385 0)
(0.0324727 0.0348492 0)
(0.0205234 0.0304918 0)
(0.00888042 0.0231174 0)
(-0.257889 0.693621 0)
(-0.388326 -0.0116009 0)
(-0.18105 -0.221402 0)
(-0.0474338 -0.228554 0)
(0.0380915 -0.178134 0)
(0.0830004 -0.122846 0)
(0.104594 -0.0776826 0)
(0.113142 -0.0432616 0)
(0.113981 -0.0175284 0)
(0.109924 0.00147755 0)
(0.102632 0.0154079 0)
(0.0931889 0.025532 0)
(0.0823717 0.0327828 0)
(0.0707493 0.037743 0)
(0.0587329 0.0406609 0)
(0.0465732 0.0415036 0)
(0.034302 0.0400213 0)
(0.0218515 0.0359676 0)
(0.00937735 0.029265 0)
(0.0378103 -0.231967 0)
(0.110175 -0.305997 0)
(0.188597 -0.309841 0)
(0.261631 -0.309458 0)
(0.331863 -0.313742 0)
(0.401875 -0.322346 0)
(0.473091 -0.334369 0)
(0.546559 -0.349361 0)
(0.623056 -0.366992 0)
(0.703004 -0.386676 0)
(0.786361 -0.407254 0)
(0.872496 -0.426743 0)
(0.96004 -0.442097 0)
(1.04673 -0.448908 0)
(1.12918 -0.441121 0)
(1.2023 -0.411483 0)
(1.25909 -0.354193 0)
(1.29614 -0.267227 0)
(1.32302 -0.146842 0)
(1.32671 0.058089 0)
(1.34591 0.961705 0)
(1.0858 2.02149 0)
(1.58034 3.90327 0)
(0.0374812 -0.301622 0)
(0.107083 -0.386101 0)
(0.181893 -0.384616 0)
(0.252356 -0.380744 0)
(0.320563 -0.383751 0)
(0.388507 -0.392606 0)
(0.457334 -0.406067 0)
(0.527949 -0.423408 0)
(0.601046 -0.443977 0)
(0.676974 -0.466766 0)
(0.755602 -0.490075 0)
(0.836192 -0.511238 0)
(0.917264 -0.526334 0)
(0.996415 -0.52976 0)
(1.06957 -0.514015 0)
(1.12908 -0.471697 0)
(1.16756 -0.399306 0)
(1.196 -0.300893 0)
(1.21504 -0.168187 0)
(1.18471 0.161139 0)
(1.15086 0.882733 0)
(1.08388 1.59676 0)
(1.53466 3.58567 0)
(0.0366896 -0.369324 0)
(0.102133 -0.460855 0)
(0.17143 -0.454928 0)
(0.237544 -0.448625 0)
(0.302268 -0.45084 0)
(0.366988 -0.459994 0)
(0.432524 -0.474665 0)
(0.49959 -0.493956 0)
(0.568742 -0.516947 0)
(0.640216 -0.542223 0)
(0.713781 -0.567542 0)
(0.788611 -0.589544 0)
(0.863177 -0.603334 0)
(0.934836 -0.60184 0)
(0.997491 -0.576113 0)
(1.04065 -0.51947 0)
(1.06985 -0.434956 0)
(1.09566 -0.327908 0)
(1.11702 -0.133991 0)
(1.00221 0.297328 0)
(0.884414 0.784763 0)
(0.787808 1.32956 0)
(1.28025 2.81479 0)
(0.0354891 -0.434267 0)
(0.0959184 -0.529343 0)
(0.158696 -0.519676 0)
(0.219407 -0.511951 0)
(0.279566 -0.513918 0)
(0.340046 -0.523553 0)
(0.401397 -0.539363 0)
(0.46415 -0.560359 0)
(0.528714 -0.585388 0)
(0.595202 -0.612655 0)
(0.663288 -0.639396 0)
(0.7321 -0.661528 0)
(0.800097 -0.673007 0)
(0.863756 -0.664987 0)
(0.912757 -0.627854 0)
(0.944288 -0.557523 0)
(0.971233 -0.465907 0)
(0.991245 -0.338243 0)
(0.923807 0.0174123 0)
(0.76404 0.398517 0)
(0.676805 0.811908 0)
(0.607205 1.25907 0)
(0.972552 2.1974 0)
(0.0338536 -0.495737 0)
(0.0887533 -0.590916 0)
(0.144582 -0.578197 0)
(0.199369 -0.569919 0)
(0.254264 -0.572118 0)
(0.30974 -0.582429 0)
(0.366146 -0.599376 0)
(0.423867 -0.621917 0)
(0.483183 -0.648697 0)
(0.54411 -0.677573 0)
(0.606271 -0.705276 0)
(0.668831 -0.726935 0)
(0.730139 -0.735078 0)
(0.784081 -0.719064 0)
(0.818478 -0.669447 0)
(0.845986 -0.590701 0)
(0.868759 -0.484618 0)
(0.885304 -0.212798 0)
(0.718 0.136719 0)
(0.575072 0.496751 0)
(0.507946 0.853524 0)
(0.466317 1.20012 0)
(0.677228 1.74713 0)
(0.0318212 -0.553058 0)
(0.0808615 -0.645269 0)
(0.129621 -0.630239 0)
(0.178281 -0.62209 0)
(0.227506 -0.624856 0)
(0.277448 -0.635968 0)
(0.328316 -0.654027 0)
(0.38038 -0.677967 0)
(0.43383 -0.706263 0)
(0.488637 -0.736463 0)
(0.544461 -0.764804 0)
(0.600594 -0.785468 0)
(0.654744 -0.789204 0)
(0.696007 -0.76421 0)
(0.722852 -0.703995 0)
(0.747512 -0.618724 0)
(0.773774 -0.481458 0)
(0.676451 -0.106426 0)
(0.522106 0.25325 0)
(0.414843 0.587495 0)
(0.358768 0.890171 0)
(0.334611 1.15591 0)
(0.447868 1.46364 0)
(0.0295105 -0.605722 0)
(0.0724259 -0.692328 0)
(0.114138 -0.67579 0)
(0.156659 -0.668275 0)
(0.200015 -0.671785 0)
(0.244097 -0.683711 0)
(0.288997 -0.702781 0)
(0.334895 -0.727935 0)
(0.381932 -0.757527 0)
(0.430112 -0.788854 0)
(0.479259 -0.817649 0)
(0.52886 -0.836942 0)
(0.574699 -0.835369 0)
(0.603771 -0.800579 0)
(0.627392 -0.733941 0)
(0.645511 -0.636655 0)
(0.662431 -0.333988 0)
(0.492468 0.0237196 0)
(0.36126 0.36274 0)
(0.278516 0.663203 0)
(0.234163 0.91962 0)
(0.226758 1.12685 0)
(0.305442 1.30103 0)
(0.0269961 -0.653488 0)
(0.0635326 -0.732085 0)
(0.0983247 -0.714952 0)
(0.134871 -0.708454 0)
(0.172352 -0.712751 0)
(0.210441 -0.72538 0)
(0.249122 -0.745248 0)
(0.288493 -0.771349 0)
(0.328683 -0.801989 0)
(0.369797 -0.834294 0)
(0.411945 -0.863473 0)
(0.45474 -0.881206 0)
(0.490597 -0.873975 0)
(0.513164 -0.830543 0)
(0.534068 -0.757124 0)
(0.554248 -0.635582 0)
(0.460429 -0.239322 0)
(0.323374 0.130566 0)
(0.226491 0.452894 0)
(0.163085 0.721069 0)
(0.133374 0.936381 0)
(0.142775 1.09411 0)
(0.213178 1.18922 0)
(0.0237202 -0.695652 0)
(0.0540461 -0.764248 0)
(0.0822986 -0.747791 0)
(0.113302 -0.742681 0)
(0.14515 -0.747714 0)
(0.177368 -0.760818 0)
(0.209831 -0.781151 0)
(0.242556 -0.807823 0)
(0.275662 -0.839199 0)
(0.309398 -0.872342 0)
(0.344241 -0.901956 0)
(0.379634 -0.918221 0)
(0.405386 -0.906061 0)
(0.425255 -0.856719 0)
(0.44081 -0.773969 0)
(0.482991 -0.497151 0)
(0.315258 -0.118951 0)
(0.194619 0.229967 0)
(0.116449 0.525563 0)
(0.0677262 0.761425 0)
(0.0526385 0.93825 0)
(0.0759572 1.05216 0)
(0.144185 1.09649 0)
(0.0173292 -0.730885 0)
(0.0434556 -0.7894 0)
(0.0662212 -0.775008 0)
(0.0925081 -0.771412 0)
(0.119343 -0.776967 0)
(0.146189 -0.790196 0)
(0.172835 -0.810553 0)
(0.199196 -0.837318 0)
(0.225337 -0.869027 0)
(0.251611 -0.902841 0)
(0.27893 -0.933109 0)
(0.30634 -0.948338 0)
(0.324541 -0.93195 0)
(0.342502 -0.87923 0)
(0.358976 -0.793559 0)
(0.362562 -0.401273 0)
(0.196747 -0.012239 0)
(0.0899648 0.31903 0)
(0.0233036 0.584939 0)
(-0.0124177 0.787126 0)
(-0.0138498 0.927265 0)
(0.0198868 1.00391 0)
(0.0860874 1.01536 0)
(0.00494759 -0.758171 0)
(0.0316825 -0.811572 0)
(0.050996 -0.799123 0)
(0.0736066 -0.796299 0)
(0.0964215 -0.801875 0)
(0.118872 -0.814769 0)
(0.140675 -0.834634 0)
(0.161601 -0.860892 0)
(0.181552 -0.892277 0)
(0.200822 -0.926182 0)
(0.220707 -0.957023 0)
(0.239917 -0.972033 0)
(0.253555 -0.954561 0)
(0.268511 -0.899129 0)
(0.292311 -0.781753 0)
(0.189802 -0.300986 0)
(0.0678073 0.0882592 0)
(-0.0132889 0.395519 0)
(-0.0638126 0.630201 0)
(-0.0840061 0.798778 0)
(-0.0721059 0.905274 0)
(-0.0308092 0.952081 0)
(0.0330273 0.942862 0)
(-0.00450305 -0.772757 0)
(0.0220013 -0.833493 0)
(0.0392783 -0.820977 0)
(0.0586212 -0.818441 0)
(0.0785161 -0.823887 0)
(0.0980625 -0.836132 0)
(0.116778 -0.854916 0)
(0.134244 -0.8797 0)
(0.150085 -0.909351 0)
(0.164218 -0.941567 0)
(0.177761 -0.971693 0)
(0.189667 -0.988019 0)
(0.199674 -0.973558 0)
(0.209648 -0.924956 0)
(0.232401 -0.650051 0)
(0.0478627 -0.190517 0)
(-0.0485261 0.174691 0)
(-0.110859 0.453906 0)
(-0.144945 0.658221 0)
(-0.149484 0.79578 0)
(-0.125657 0.873556 0)
(-0.0788788 0.898107 0)
(-0.0173986 0.876693 0)
(0.0390701 -0.775261 0)
(0.0220763 -0.8461 0)
(0.0337785 -0.834522 0)
(0.0494034 -0.83442 0)
(0.0678379 -0.840465 0)
(0.0867204 -0.85208 0)
(0.105089 -0.869335 0)
(0.122271 -0.891832 0)
(0.1375 -0.91866 0)
(0.149852 -0.948039 0)
(0.158401 -0.977149 0)
(0.162552 -0.995645 0)
(0.167598 -0.98734 0)
(0.17798 -0.942944 0)
(0.0932917 -0.498123 0)
(-0.07123 -0.0793602 0)
(-0.151189 0.25006 0)
(-0.200259 0.496592 0)
(-0.219165 0.670137 0)
(-0.209466 0.779507 0)
(-0.175801 0.834049 0)
(-0.125183 0.84293 0)
(-0.0657398 0.815085 0)
(0.246496 -0.822011 0)
(0.0371733 -0.833175 0)
(0.0351196 -0.838598 0)
(0.0467579 -0.844752 0)
(0.0662681 -0.852146 0)
(0.0877265 -0.863937 0)
(0.109599 -0.881046 0)
(0.130991 -0.903328 0)
(0.150528 -0.929647 0)
(0.165995 -0.957015 0)
(0.169162 -0.982736 0)
(0.155125 -1.00631 0)
(0.135043 -0.994783 0)
(0.110777 -0.850013 0)
(-0.0977526 -0.373707 0)
(-0.196911 0.0163909 0)
(-0.25636 0.309713 0)
(-0.286592 0.523024 0)
(-0.288247 0.667017 0)
(-0.264959 0.751852 0)
(-0.223056 0.788513 0)
(-0.169597 0.787064 0)
(-0.111668 0.756702 0)
(0.510861 -1.02139 0)
(0.0409971 -0.747395 0)
(0.0528542 -0.837105 0)
(0.0557929 -0.853838 0)
(0.076662 -0.863329 0)
(0.102171 -0.876315 0)
(0.128441 -0.894637 0)
(0.152982 -0.918017 0)
(0.171921 -0.944879 0)
(0.18033 -0.969213 0)
(0.167979 -0.977033 0)
(0.146056 -0.99752 0)
(0.0444463 -0.965046 0)
(-0.135668 -0.633267 0)
(-0.269772 -0.249818 0)
(-0.333776 0.0857199 0)
(-0.363496 0.344321 0)
(-0.369385 0.528765 0)
(-0.352185 0.648032 0)
(-0.316091 0.713801 0)
(-0.26717 0.737984 0)
(-0.211398 0.730592 0)
(-0.154429 0.700474 0)
(-0.0736728 -1.23913 0)
(-0.0180303 -0.488646 0)
(0.0494827 -0.814584 0)
(0.0475782 -0.910459 0)
(0.0614417 -0.941492 0)
(0.0727422 -0.959378 0)
(0.0800292 -0.974847 0)
(0.0812058 -0.986467 0)
(0.0731836 -0.988569 0)
(0.0529028 -0.972581 0)
(0.0143312 -0.937544 0)
(-0.0558607 -0.879771 0)
(-0.178241 -0.755372 0)
(-0.320035 -0.505589 0)
(-0.4109 -0.176468 0)
(-0.450615 0.120566 0)
(-0.457541 0.351223 0)
(-0.441992 0.512763 0)
(-0.408292 0.613662 0)
(-0.361562 0.6665 0)
(-0.307063 0.683225 0)
(-0.249468 0.673451 0)
(-0.193092 0.645579 0)
(-0.154474 -1.02909 0)
(-0.0415106 -0.731514 0)
(0.028601 -0.851903 0)
(0.0194381 -0.893138 0)
(0.0164656 -0.911555 0)
(0.00911947 -0.922797 0)
(-0.00204061 -0.931232 0)
(-0.0193505 -0.936094 0)
(-0.046022 -0.933078 0)
(-0.0854218 -0.914652 0)
(-0.142395 -0.871934 0)
(-0.225541 -0.790596 0)
(-0.336832 -0.641449 0)
(-0.447083 -0.404921 0)
(-0.516345 -0.124413 0)
(-0.539926 0.133872 0)
(-0.530726 0.3373 0)
(-0.499638 0.479437 0)
(-0.454004 0.567137 0)
(-0.399716 0.61206 0)
(-0.341353 0.625256 0)
(-0.2826 0.615768 0)
(-0.226755 0.591563 0)
(-0.0709953 -0.938763 0)
(-0.0378271 -0.845493 0)
(-0.00503048 -0.869033 0)
(-0.0223031 -0.880899 0)
(-0.0396575 -0.891684 0)
(-0.062033 -0.899954 0)
(-0.0886122 -0.904773 0)
(-0.12109 -0.903304 0)
(-0.162126 -0.890386 0)
(-0.214518 -0.858478 0)
(-0.281199 -0.798111 0)
(-0.364588 -0.697092 0)
(-0.459312 -0.540704 0)
(-0.54337 -0.326979 0)
(-0.592653 -0.0879012 0)
(-0.602575 0.133125 0)
(-0.581902 0.309886 0)
(-0.540938 0.434899 0)
(-0.488047 0.512787 0)
(-0.429301 0.553079 0)
(-0.368845 0.56537 0)
(-0.309774 0.557973 0)
(-0.254697 0.538357 0)
(-0.0302075 -0.896247 0)
(-0.041975 -0.856419 0)
(-0.0456346 -0.858664 0)
(-0.0692783 -0.860979 0)
(-0.0967078 -0.866152 0)
(-0.129322 -0.870033 0)
(-0.166872 -0.869625 0)
(-0.210378 -0.860996 0)
(-0.26148 -0.838544 0)
(-0.321625 -0.795094 0)
(-0.391404 -0.722541 0)
(-0.469209 -0.612717 0)
(-0.547316 -0.460035 0)
(-0.609871 -0.269971 0)
(-0.64207 -0.066176 0)
(-0.640878 0.121855 0)
(-0.612671 0.274326 0)
(-0.566416 0.384289 0)
(-0.510117 0.454438 0)
(-0.449593 0.491989 0)
(-0.38873 0.504939 0)
(-0.330296 0.500723 0)
(-0.276459 0.486207 0)
(-0.0244245 -0.855406 0)
(-0.053455 -0.839858 0)
(-0.0775822 -0.833808 0)
(-0.109278 -0.831335 0)
(-0.144823 -0.831453 0)
(-0.185063 -0.83041 0)
(-0.230272 -0.824526 0)
(-0.281059 -0.809396 0)
(-0.338072 -0.779502 0)
(-0.401359 -0.72853 0)
(-0.469631 -0.650309 0)
(-0.5392 -0.540216 0)
(-0.602383 -0.397706 0)
(-0.647985 -0.230609 0)
(-0.666938 -0.0568037 0)
(-0.657732 0.103088 0)
(-0.625338 0.234421 0)
(-0.577216 0.331284 0)
(-0.520433 0.395007 0)
(-0.460344 0.430849 0)
(-0.400626 0.445295 0)
(-0.343846 0.444819 0)
(-0.291871 0.435571 0)
(-0.0271662 -0.812232 0)
(-0.0640483 -0.807248 0)
(-0.0997242 -0.799059 0)
(-0.138275 -0.793768 0)
(-0.179946 -0.789866 0)
(-0.225584 -0.784258 0)
(-0.275662 -0.773357 0)
(-0.330454 -0.752874 0)
(-0.38981 -0.717827 0)
(-0.452698 -0.663052 0)
(-0.51667 -0.584221 0)
(-0.577327 -0.479235 0)
(-0.62798 -0.350029 0)
(-0.660824 -0.204519 0)
(-0.670349 -0.0563197 0)
(-0.656132 0.0798086 0)
(-0.622225 0.193039 0)
(-0.574723 0.278519 0)
(-0.519645 0.33672 0)
(-0.461797 0.371397 0)
(-0.404612 0.387701 0)
(-0.350482 0.391121 0)
(-0.30105 0.38703 0)
(-0.0288905 -0.765131 0)
(-0.0707196 -0.765875 0)
(-0.112802 -0.757693 0)
(-0.156071 -0.750618 0)
(-0.201715 -0.743614 0)
(-0.250515 -0.734189 0)
(-0.302921 -0.719169 0)
(-0.358897 -0.694755 0)
(-0.417735 -0.656754 0)
(-0.47775 -0.601185 0)
(-0.535997 -0.525235 0)
(-0.58815 -0.428383 0)
(-0.628755 -0.313543 0)
(-0.65239 -0.187781 0)
(-0.655744 -0.0614868 0)
(-0.639055 0.0545804 0)
(-0.605691 0.152368 0)
(-0.560616 0.227956 0)
(-0.50888 0.281317 0)
(-0.454702 0.315089 0)
(-0.401218 0.333291 0)
(-0.350626 0.340463 0)
(-0.304381 0.341188 0)
(-0.0287353 -0.716091 0)
(-0.073213 -0.719999 0)
(-0.118362 -0.712428 0)
(-0.164107 -0.704241 0)
(-0.211603 -0.694937 0)
(-0.261442 -0.682573 0)
(-0.313936 -0.664507 0)
(-0.368805 -0.637593 0)
(-0.425015 -0.598509 0)
(-0.480603 -0.544343 0)
(-0.532591 -0.473405 0)
(-0.577113 -0.386057 0)
(-0.609868 -0.285372 0)
(-0.62709 -0.177284 0)
(-0.626809 -0.0697079 0)
(-0.60961 0.0294121 0)
(-0.57831 0.114045 0)
(-0.536947 0.181047 0)
(-0.489719 0.230119 0)
(-0.440262 0.263075 0)
(-0.391364 0.282994 0)
(-0.345007 0.293557 0)
(-0.302473 0.298585 0)
(-0.0277767 -0.667245 0)
(-0.0724744 -0.672634 0)
(-0.118253 -0.665642 0)
(-0.164441 -0.656763 0)
(-0.211892 -0.645844 0)
(-0.260944 -0.631412 0)
(-0.311729 -0.611367 0)
(-0.363795 -0.583236 0)
(-0.415973 -0.544517 0)
(-0.466296 -0.493187 0)
(-0.512028 -0.428337 0)
(-0.549899 -0.350753 0)
(-0.576592 -0.263275 0)
(-0.589479 -0.170704 0)
(-0.587405 -0.0790507 0)
(-0.571095 0.00577588 0)
(-0.542889 0.0792272 0)
(-0.506064 0.138792 0)
(-0.464073 0.184028 0)
(-0.419991 0.216151 0)
(-0.376241 0.237473 0)
(-0.334567 0.250921 0)
(-0.296093 0.259626 0)
(-0.0264373 -0.619947 0)
(-0.0695603 -0.625929 0)
(-0.114191 -0.619294 0)
(-0.159197 -0.609969 0)
(-0.205085 -0.598 0)
(-0.251944 -0.582288 0)
(-0.299728 -0.561215 0)
(-0.347881 -0.532914 0)
(-0.39524 -0.495581 0)
(-0.439993 -0.447888 0)
(-0.479779 -0.389444 0)
(-0.51194 -0.32119 0)
(-0.533956 -0.245575 0)
(-0.543984 -0.166392 0)
(-0.541363 -0.0881843 0)
(-0.526827 -0.0153658 0)
(-0.5023 0.048614 0)
(-0.470411 0.101748 0)
(-0.433972 0.143532 0)
(-0.395535 0.174741 0)
(-0.357159 0.19708 0)
(-0.320352 0.21284 0)
(-0.286086 0.224546 0)
(-0.0246416 -0.575237 0)
(-0.0652497 -0.581297 0)
(-0.107584 -0.574821 0)
(-0.150269 -0.565213 0)
(-0.193523 -0.552652 0)
(-0.237237 -0.536319 0)
(-0.281219 -0.514992 0)
(-0.324873 -0.487303 0)
(-0.367116 -0.452004 0)
(-0.406379 -0.408277 0)
(-0.44071 -0.356064 0)
(-0.468016 -0.296313 0)
(-0.486403 -0.231056 0)
(-0.49458 -0.163239 0)
(-0.49218 -0.0962873 0)
(-0.479871 -0.0335036 0)
(-0.459207 0.0224864 0)
(-0.432279 0.0700701 0)
(-0.40134 0.108727 0)
(-0.368475 0.138916 0)
(-0.335398 0.161872 0)
(-0.303393 0.17936 0)
(-0.273295 0.193396 0)
(-0.0226486 -0.533832 0)
(-0.0601738 -0.539585 0)
(-0.0995374 -0.53314 0)
(-0.1392 -0.523388 0)
(-0.179173 -0.510598 0)
(-0.219204 -0.494163 0)
(-0.259008 -0.473167 0)
(-0.297989 -0.446626 0)
(-0.335189 -0.413707 0)
(-0.3693 -0.373956 0)
(-0.398764 -0.327513 0)
(-0.42197 -0.275263 0)
(-0.437518 -0.218856 0)
(-0.444502 -0.160558 0)
(-0.442725 -0.102947 0)
(-0.432759 -0.0485007 0)
(-0.415835 0.000771929 0)
(-0.393593 0.0435692 0)
(-0.367816 0.0793834 0)
(-0.340177 0.108451 0)
(-0.312088 0.131647 0)
(-0.284623 0.150323 0)
(-0.258493 0.166072 0)
(-0.0205605 -0.495942 0)
(-0.0547838 -0.501202 0)
(-0.0908523 -0.494737 0)
(-0.12715 -0.48497 0)
(-0.163543 -0.472237 0)
(-0.199694 -0.456086 0)
(-0.235266 -0.435829 0)
(-0.269696 -0.410766 0)
(-0.302165 -0.380358 0)
(-0.331613 -0.344394 0)
(-0.35683 -0.303126 0)
(-0.376598 -0.257346 0)
(-0.389896 -0.20838 0)
(-0.39609 -0.157971 0)
(-0.395082 -0.108057 0)
(-0.38734 -0.060507 0)
(-0.373819 -0.0168667 0)
(-0.35579 0.0218078 0)
(-0.334643 0.055036 0)
(-0.31171 0.0829049 0)
(-0.288135 0.106022 0)
(-0.264811 0.125416 0)
(-0.24234 0.142344 0)
(-0.0184891 -0.461658 0)
(-0.0493997 -0.466288 0)
(-0.0820881 -0.45979 0)
(-0.114932 -0.450125 0)
(-0.147699 -0.437666 0)
(-0.180011 -0.422071 0)
(-0.211513 -0.402817 0)
(-0.241698 -0.3794 0)
(-0.269879 -0.351484 0)
(-0.295218 -0.319011 0)
(-0.316787 -0.282285 0)
(-0.333684 -0.242002 0)
(-0.345171 -0.199228 0)
(-0.350808 -0.155306 0)
(-0.350551 -0.111706 0)
(-0.344771 -0.0698444 0)
(-0.334196 -0.0309211 0)
(-0.3198 0.00420473 0)
(-0.302659 0.0350853 0)
(-0.283822 0.0617127 0)
(-0.264207 0.0845023 0)
(-0.244552 0.104234 0)
(-0.225366 0.1219 0)
(-0.0165351 -0.43087 0)
(-0.0442409 -0.434816 0)
(-0.0736067 -0.428293 0)
(-0.103064 -0.418822 0)
(-0.132318 -0.40679 0)
(-0.160978 -0.391926 0)
(-0.188699 -0.373819 0)
(-0.215033 -0.352099 0)
(-0.239416 -0.32656 0)
(-0.261192 -0.297234 0)
(-0.279662 -0.264441 0)
(-0.294162 -0.228787 0)
(-0.304164 -0.191133 0)
(-0.309365 -0.152526 0)
(-0.309749 -0.114092 0)
(-0.305604 -0.0769189 0)
(-0.29748 -0.0419457 0)
(-0.286117 -0.00987609 0)
(-0.27234 0.0188824 0)
(-0.256969 0.044264 0)
(-0.240742 0.0665483 0)
(-0.224266 0.0863287 0)
(-0.207969 0.10439 0)
(-0.0147396 -0.403389 0)
(-0.0394077 -0.406667 0)
(-0.0655951 -0.400134 0)
(-0.0918239 -0.390919 0)
(-0.117766 -0.379407 0)
(-0.143037 -0.36537 0)
(-0.167315 -0.348466 0)
(-0.190213 -0.32841 0)
(-0.211274 -0.305075 0)
(-0.22999 -0.278542 0)
(-0.245834 -0.249124 0)
(-0.258325 -0.217347 0)
(-0.267084 -0.183918 0)
(-0.271903 -0.149663 0)
(-0.272782 -0.115459 0)
(-0.26994 -0.0821533 0)
(-0.26379 -0.0504923 0)
(-0.25489 -0.0210554 0)
(-0.243872 0.00579609 0)
(-0.231377 0.0299621 0)
(-0.217995 0.0516297 0)
(-0.204228 0.0712541 0)
(-0.190436 0.0894598 0)
(-0.0130727 -0.378997 0)
(-0.0348926 -0.381661 0)
(-0.0581013 -0.375134 0)
(-0.0813128 -0.366209 0)
(-0.104185 -0.355265 0)
(-0.126353 -0.342089 0)
(-0.147526 -0.32638 0)
(-0.167379 -0.3079 0)
(-0.185546 -0.286567 0)
(-0.201633 -0.262483 0)
(-0.215249 -0.235943 0)
(-0.226039 -0.207408 0)
(-0.233734 -0.177464 0)
(-0.23819 -0.146778 0)
(-0.239414 -0.116046 0)
(-0.237572 -0.08594 0)
(-0.232973 -0.0570609 0)
(-0.226035 -0.0298897 0)
(-0.217244 -0.00474387 0)
(-0.207101 0.0182638 0)
(-0.196081 0.0392586 0)
(-0.184596 0.0585941 0)
(-0.172956 0.0767711 0)
(-0.0114632 -0.357492 0)
(-0.0306243 -0.359579 0)
(-0.051092 -0.353065 0)
(-0.0715223 -0.344448 0)
(-0.0915768 -0.334091 0)
(-0.110919 -0.321777 0)
(-0.129297 -0.307212 0)
(-0.146447 -0.290186 0)
(-0.162081 -0.270638 0)
(-0.175897 -0.248679 0)
(-0.187601 -0.224583 0)
(-0.196933 -0.198754 0)
(-0.203697 -0.17169 0)
(-0.207793 -0.14394 0)
(-0.20923 -0.116067 0)
(-0.208132 -0.0886163 0)
(-0.204729 -0.0620792 0)
(-0.199338 -0.0368577 0)
(-0.192329 -0.0132281 0)
(-0.184097 0.00869837 0)
(-0.175022 0.0290076 0)
(-0.165451 0.0479797 0)
(-0.155651 0.0660193 0)
(-0.00984679 -0.338748 0)
(-0.026533 -0.340193 0)
(-0.0445186 -0.333678 0)
(-0.0624015 -0.325386 0)
(-0.0798724 -0.315628 0)
(-0.0966319 -0.304153 0)
(-0.112479 -0.290659 0)
(-0.127211 -0.274944 0)
(-0.140607 -0.256963 0)
(-0.152438 -0.236828 0)
(-0.16248 -0.214794 0)
(-0.17054 -0.191222 0)
(-0.176473 -0.166539 0)
(-0.180205 -0.141208 0)
(-0.181747 -0.115696 0)
(-0.181189 -0.0904554 0)
(-0.178704 -0.0658926 0)
(-0.174528 -0.0423472 0)
(-0.168946 -0.0200575 0)
(-0.162263 0.000874806 0)
(-0.15479 0.0205153 0)
(-0.146821 0.0390936 0)
(-0.138592 0.0569386 0)
(-0.00813672 -0.322815 0)
(-0.0225789 -0.323284 0)
(-0.0383569 -0.316732 0)
(-0.0538964 -0.308793 0)
(-0.0689742 -0.299653 0)
(-0.0833454 -0.288987 0)
(-0.0968731 -0.27647 0)
(-0.109416 -0.261913 0)
(-0.120811 -0.24528 0)
(-0.130882 -0.226691 0)
(-0.139458 -0.206385 0)
(-0.146387 -0.184686 0)
(-0.151563 -0.161969 0)
(-0.154929 -0.138632 0)
(-0.156493 -0.115071 0)
(-0.156322 -0.0916681 0)
(-0.154543 -0.0687683 0)
(-0.151332 -0.046661 0)
(-0.146901 -0.0255507 0)
(-0.141486 -0.00552336 0)
(-0.135335 0.0134825 0)
(-0.128708 0.0316683 0)
(-0.121825 0.0493024 0)
(-0.00611667 -0.309761 0)
(-0.0187077 -0.308549 0)
(-0.0326182 -0.301977 0)
(-0.0459612 -0.294485 0)
(-0.0587703 -0.285999 0)
(-0.0708889 -0.276099 0)
(-0.0822582 -0.264451 0)
(-0.0927942 -0.250883 0)
(-0.102377 -0.235385 0)
(-0.110869 -0.218083 0)
(-0.118129 -0.199207 0)
(-0.124039 -0.179051 0)
(-0.128515 -0.157948 0)
(-0.131513 -0.136247 0)
(-0.133039 -0.114291 0)
(-0.133143 -0.0924102 0)
(-0.131918 -0.0709038 0)
(-0.129491 -0.0500244 0)
(-0.126014 -0.0299489 0)
(-0.121657 -0.0107437 0)
(-0.116611 0.00766602 0)
(-0.111113 0.0254818 0)
(-0.10539 0.0429225 0)
(-0.00375377 -0.299252 0)
(-0.0149487 -0.295406 0)
(-0.0274141 -0.289152 0)
(-0.0385797 -0.282348 0)
(-0.049145 -0.274572 0)
(-0.0590824 -0.265371 0)
(-0.0684115 -0.254449 0)
(-0.0770877 -0.241687 0)
(-0.0850136 -0.22711 0)
(-0.0920681 -0.210855 0)
(-0.0981322 -0.193143 0)
(-0.103107 -0.174243 0)
(-0.106924 -0.154453 0)
(-0.109552 -0.13408 0)
(-0.110997 -0.113429 0)
(-0.111298 -0.0927905 0)
(-0.110525 -0.072435 0)
(-0.108766 -0.0525912 0)
(-0.106119 -0.0334189 0)
(-0.102684 -0.0149663 0)
(-0.0985879 0.0028755 0)
(-0.0940524 0.0203548 0)
(-0.089347 0.0376513 0)
(-0.00250453 -0.291078 0)
(-0.0119684 -0.283218 0)
(-0.0230953 -0.278175 0)
(-0.0317921 -0.272439 0)
(-0.0399895 -0.265378 0)
(-0.0477551 -0.25673 0)
(-0.0551314 -0.246346 0)
(-0.0620686 -0.234187 0)
(-0.0684619 -0.220319 0)
(-0.0741914 -0.204889 0)
(-0.0791474 -0.188103 0)
(-0.0832451 -0.170207 0)
(-0.0864306 -0.151464 0)
(-0.0886824 -0.132149 0)
(-0.0900105 -0.112532 0)
(-0.0904519 -0.0928803 0)
(-0.0900634 -0.0734447 0)
(-0.0889091 -0.054447 0)
(-0.0870425 -0.0360492 0)
(-0.0844843 -0.0182967 0)
(-0.0812575 -0.00102671 0)
(-0.0775788 0.0161491 0)
(-0.0738064 0.033388 0)
(-0.00621063 -0.285974 0)
(-0.0112179 -0.272161 0)
(-0.0200811 -0.269589 0)
(-0.0255962 -0.265116 0)
(-0.0311779 -0.258533 0)
(-0.0367603 -0.25015 0)
(-0.0422642 -0.240046 0)
(-0.0475644 -0.228269 0)
(-0.0525195 -0.214907 0)
(-0.0569994 -0.200099 0)
(-0.0609006 -0.184028 0)
(-0.0641511 -0.16691 0)
(-0.06671 -0.148978 0)
(-0.0685668 -0.130474 0)
(-0.0697387 -0.111643 0)
(-0.0702672 -0.0927302 0)
(-0.0702108 -0.0739782 0)
(-0.0696319 -0.0556177 0)
(-0.0685639 -0.0378462 0)
(-0.0669456 -0.0207562 0)
(-0.0646219 -0.00413321 0)
(-0.0617964 0.0127572 0)
(-0.0589672 0.030088 0)
(-0.0193004 -0.281211 0)
(-0.0128885 -0.26478 0)
(-0.0180625 -0.264954 0)
(-0.0196972 -0.260964 0)
(-0.0225173 -0.254176 0)
(-0.0259906 -0.245604 0)
(-0.0297312 -0.235485 0)
(-0.0334787 -0.223874 0)
(-0.0370492 -0.210832 0)
(-0.0403087 -0.196462 0)
(-0.0431656 -0.180913 0)
(-0.0455628 -0.164367 0)
(-0.047473 -0.147026 0)