/*--------------------------------*- C++ -*----------------------------------*\
  =========                 |
  \\      /  F ield         | OpenFOAM: The Open Source CFD Toolbox
   \\    /   O peration     | Website:  https://openfoam.org
    \\  /    A nd           | Version:  7
     \\/     M anipulation  |
\*---------------------------------------------------------------------------*/
FoamFile
{
    version     2.0;
    format      ascii;
    class       volScalarField;
    location    "0.007";
    object      dsmcRhoNMean;
}
// * * * * * * * * * * * * * * * * * * * * * * * * * * * * * * * * * * * * * //

dimensions      [0 -3 0 0 0 0 0];

internalField   nonuniform List<scalar> 
654
(
6.585714286
6.124285714
6.188285714
5.883428571
6.392857143
6.571428571
6.539714286
5.934285714
5.608
5.779714286
5.723428571
5.822857143
6.074285714
6.133428571
6.051142857
6.268285714
6.422
6.599142857
6.030285714
5.964285714
5.956
6.068285714
5.989714286
6.030285714
5.651714286
6.015142857
6.01
5.964285714
5.952571429
6.205714286
6.240857143
6.264857143
6.462857143
6.484571429
5.964857143
6.116857143
6.114
6.056571429
6.041428571
6.184
5.996
5.622857143
5.972571429
6.087428571
6.040285714
5.905714286
5.942571429
5.858571429
6.15
6.091714286
6.014571429
6.162285714
6.362
6.318857143
6.352285714
6.356571429
6.488857143
6.452285714
6.627142857
6.462857143
6.206571429
6.219142857
5.892857143
5.933142857
5.990285714
6.074571429
5.887142857
6.030571429
5.984857143
5.953428571
6.004285714
5.896
5.854857143
5.884285714
6.084
6.218
6.180285714
5.957142857
6.270571429
6.440857143
6.433142857
6.733428571
6.574571429
6.555428571
6.329714286
6.466285714
6.237428571
6.405714286
6.415714286
6.312285714
6.210285714
6.249428571
6.242285714
6.165428571
6.095142857
6.128857143
6.104
5.918857143
6.007714286
6.051714286
6.003142857
5.982571429
5.913142857
5.831428571
5.890857143
6.01
5.968857143
6.079714286
6.188
6.166857143
6.297428571
6.628
6.418
6.896285714
6.486
6.429428571
6.334285714
6.468571429
6.49
6.275142857
6.243714286
6.339714286
6.166571429
6.138857143
6.218857143
6.029714286
6.21
6.018857143
6.027428571
6.159142857
5.95
6.056571429
6.118
6.156571429
6.206571429
6.415142857
6.238571429
6.209428571
6.154857143
6.374571429
6.268857143
6.326285714
6.329142857
6.773428571
6.700285714
6.593428571
6.55
6.518571429
6.539142857
6.412857143
6.284285714
6.460285714
6.273714286
6.118571429
6.419142857
6.370857143
6.627714286
6.338857143
6.044
6.253428571
6.112
6.076
6.001142857
6.185142857
6.232
6.055428571
6.069428571
6.116
6.312
6.375142857
6.227714286
6.640571429
6.323142857
6.657142857
6.390285714
6.897142857
6.705428571
6.706571429
6.578
6.395142857
6.462571429
6.528
6.341714286
6.251142857
6.232285714
6.483428571
6.469142857
6.172285714
6.141714286
6.104857143
6.2
6.272571429
6.306285714
6.211428571
6.162571429
6.119714286
6.129428571
6.235428571
6.153142857
6.343428571
6.55
6.710285714
6.569142857
6.906
6.756285714
6.990285714
6.850857143
6.966285714
6.736
6.402285714
6.634571429
6.543142857
6.541714286
6.567142857
6.202285714
6.426857143
6.344571429
6.116857143
6.405714286
6.283714286
6.108285714
6.188857143
6.274857143
6.476571429
6.295142857
6.177142857
6.313714286
6.296
6.487428571
6.514571429
6.621142857
6.646857143
6.643714286
6.688285714
7.010571429
6.98
6.794285714
6.592571429
6.655142857
6.618285714
6.754857143
6.743428571
6.441714286
6.759714286
6.489428571
6.367142857
6.137714286
6.288571429
6.102571429
6.067142857
6.092857143
6.254857143
6.468857143
6.38
6.198571429
6.272857143
6.334
6.243714286
6.402857143
6.282
6.597142857
6.654857143
6.641714286
6.985428571
7.093714286
6.984857143
6.778857143
6.597428571
7.057142857
7.080857143
6.597714286
6.640571429
6.555142857
6.709142857
6.674285714
6.658857143
6.335428571
6.443428571
6.381428571
6.367142857
6.124
6.238571429
6.303714286
6.554
6.492
6.722857143
6.193142857
6.290571429
6.321428571
6.454571429
6.754
6.792857143
6.731142857
6.665714286
7.037428571
6.754571429
6.840857143
7.027142857
6.874857143
6.86
6.952857143
6.904285714
6.880285714
6.877428571
6.671142857
6.641714286
6.36
6.461714286
6.402
6.486
6.406857143
6.378
6.267714286
6.428285714
6.513142857
6.283714286
6.321428571
6.371428571
6.245142857
6.392857143
6.763428571
6.639142857
6.774
6.602
7.159142857
7.042571429
6.865714286
6.808857143
7.182571429
6.928857143
6.822
6.926857143
6.760857143
6.766571429
6.379142857
6.485142857
6.421428571
6.675142857
6.248285714
6.414285714
6.287428571
6.552
6.444
6.345428571
6.565142857
6.402857143
6.546857143
6.434285714
6.250285714
6.503428571
6.933142857
6.770857143
6.780285714
6.768571429
7.208571429
7.212
7.196285714
7.06
7.062285714
7.204571429
7.097714286
7.099428571
6.841714286
6.881714286
6.572285714
6.667428571
6.489714286
6.630857143
6.707142857
6.584857143
6.633428571
6.537142857
6.638857143
6.524
6.370857143
6.560285714
6.543428571
6.350857143
6.328857143
6.603142857
6.790857143
6.889142857
6.920857143
6.725428571
7.305428571
7.281428571
7.239428571
7.040285714
7.13
7.264571429
7.092857143
6.957714286
6.819428571
6.832857143
6.611428571
6.828571429
7.004571429
6.470857143
6.844285714
6.939714286
6.802
6.472571429
6.550285714
6.382857143
6.600571429
6.59
6.793428571
6.460571429
6.462285714
6.548857143
6.69
6.895714286
7.071142857
6.795428571
7.486571429
7.223142857
7.392857143
7.501142857
7.040571429
7.246285714
6.875142857
7.059714286
7.129142857
6.784857143
6.925714286
6.792857143
6.916857143
6.624857143
6.609142857
6.939428571
6.788285714
6.842
6.691142857
6.835428571
6.686857143
6.719428571
6.957142857
6.796
6.507142857
6.776285714
6.695142857
6.802571429
6.813714286
6.678285714
7.789714286
7.442571429
7.472285714
7.286
7.030285714
7.131428571
6.864
7.235714286
7.230857143
6.973714286
7.124
6.977142857
7.060571429
6.832
6.753714286
6.727428571
6.730285714
6.505142857
6.916
7.082857143
6.708
6.628
6.777714286
6.703714286
6.681142857
6.844285714
6.903142857
6.700857143
6.838571429
6.751714286
7.712571429
7.613428571
7.519142857
7.223714286
7.056857143
7.151428571
7.106571429
7.290571429
7.157428571
7.070857143
7.033142857
6.904
7.078
7.053428571
6.844571429
6.896285714
6.772285714
6.615142857
6.733142857
6.952
7.022571429
6.804571429
6.749714286
6.893714286
7.220571429
7.025428571
6.643142857
6.525428571
6.618571429
6.789714286
7.825428571
7.629428571
7.498285714
7.545142857
7.461428571
7.266571429
7.237428571
7.133428571
7.037428571
6.920571429
7.333714286
7.156285714
7.229142857
7.110857143
6.857142857
7.028571429
6.922857143
6.644285714
6.894857143
7.035142857
7.070857143
6.820571429
6.741428571
6.843142857
6.735428571
6.982571429
6.847714286
7.035428571
6.764571429
6.840285714
8.154285714
7.738285714
7.457714286
7.576857143
7.622
7.178571429
7.299428571
7.440571429
7.236857143
7.086857143
6.997714286
7.121142857
6.969428571
7.095714286
6.980285714
7.440857143
7.501142857
7.105714286
7.104285714
7.132857143
7.122857143
6.697714286
6.899714286
6.757428571
6.677714286
6.737142857
6.840857143
6.818
6.645428571
6.861714286
8.118571429
8.096857143
7.843428571
7.663428571
7.864857143
7.616285714
7.347714286
7.582857143
7.333142857
7.241714286
7.224285714
7.227714286
7.145428571
7.256857143
7.051142857
7.213428571
7.101714286
7.149142857
7.249714286
7.192285714
7.057428571
6.670571429
6.760571429
7.024
6.823142857
6.839142857
6.840571429
6.672571429
6.639142857
6.497714286
8.092
8.068
7.924
7.631142857
7.754857143
7.903714286
7.665714286
7.625714286
7.588857143
7.462
7.515142857
7.33
7.246
7.523428571
7.155714286
7.086571429
7.075714286
7.063142857
7.161714286
7.154857143
7.101142857
7.035714286
6.854
6.851142857
6.999714286
6.950285714
6.863142857
6.900857143
6.778857143
6.668857143
8.323428571
8.022857143
7.773428571
7.623714286
7.842571429
7.612571429
7.780571429
7.354
7.558
7.562857143
7.317714286
7.406285714
7.377142857
7.243142857
7.202857143
7.192571429
7.230571429
7.089142857
7.12
7
6.832
6.914
7.008285714
7.078
7.022571429
6.993714286
6.901428571
6.544571429
6.801428571
6.582571429
)
;

boundaryField
{
    flow
    {
        type            calculated;
        value           nonuniform List<scalar> 
55
(
6.585714286
6.539714286
6.599142857
6.484571429
6.356571429
6.555428571
6.896285714
6.773428571
6.657142857
6.906
6.688285714
6.985428571
6.665714286
6.602
6.768571429
6.725428571
6.795428571
6.678285714
6.751714286
6.789714286
6.840285714
6.861714286
6.497714286
6.668857143
6.582571429
8.323428571
8.022857143
7.773428571
7.623714286
7.842571429
7.612571429
7.780571429
7.354
7.558
7.562857143
7.317714286
7.406285714
7.377142857
7.243142857
7.202857143
7.192571429
7.230571429
7.089142857
7.12
7
6.832
6.914
7.008285714
7.078
7.022571429
6.993714286
6.901428571
6.544571429
6.801428571
6.582571429
)
;
    }
    obstacle
    {
        type            calculated;
        value           nonuniform 0();
    }
    frontAndBack
    {
        type            empty;
    }
    procBoundary3to1
    {
        type            processor;
        value           nonuniform List<scalar> 
36
(
6.594571429
5.885714286
5.955142857
6.118285714
6.214571429
6.450857143
6.450857143
5.942
5.719428571
5.709142857
5.951428571
5.893142857
5.893142857
5.630285714
5.891428571
6.078
5.971714286
6.118285714
6.118285714
5.902857143
6.218857143
6.154857143
6.026857143
5.820285714
6.077714286
6.077714286
6.349714286
6.303142857
6.149714286
6.292571429
6.128571429
5.914857143
5.914857143
6.372571429
6.494
6.494
)
;
    }
    procBoundary3to2
    {
        type            processor;
        value           nonuniform List<scalar> 
19
(
6.602
6.544571429
6.614571429
6.656
7.109714286
7.131428571
6.991142857
7.328285714
7.430285714
7.472
7.519714286
7.744
7.74
7.715714286
7.794
8.035142857
7.896
8.170285714
8.137428571
)
;
    }
}


// ************************************************************************* //
