/*--------------------------------*- C++ -*----------------------------------*\
  =========                 |
  \\      /  F ield         | OpenFOAM: The Open Source CFD Toolbox
   \\    /   O peration     | Website:  https://openfoam.org
    \\  /    A nd           | Version:  7
     \\/     M anipulation  |
\*---------------------------------------------------------------------------*/
FoamFile
{
    version     2.0;
    format      ascii;
    class       volScalarField;
    location    "0.007";
    object      internalEMean;
}
// * * * * * * * * * * * * * * * * * * * * * * * * * * * * * * * * * * * * * //

dimensions      [1 -1 -2 0 0 0 0];

internalField   nonuniform List<scalar> 
654
(
0.4306984294
0.4312675826
0.4433333953
0.4048106586
0.4324516101
0.4364897465
0.4139418967
0.4107072652
0.3942956216
0.4023364777
0.3899508162
0.4237593811
0.4134454504
0.4091553805
0.3942816915
0.4276785601
0.4376457293
0.4195469113
0.4125945699
0.410713736
0.4206123204
0.4176680797
0.4071250374
0.3935830882
0.3884493517
0.4066718366
0.4057372064
0.4005035595
0.3955743329
0.4116181077
0.4069635767
0.4054392656
0.4141809833
0.4100488597
0.3897564011
0.4033359989
0.3972747065
0.4005128104
0.4144742541
0.4143028835
0.4010842312
0.3856844587
0.4093629932
0.4112345701
0.4016896986
0.4042580051
0.4074516708
0.3914112067
0.4058509048
0.4042993464
0.4002625273
0.4079513649
0.4249497474
0.4243568442
0.4153202714
0.4138614441
0.4043220797
0.4097864194
0.426009602
0.4151292965
0.4016540869
0.4052398268
0.3732682215
0.3815959803
0.3928137223
0.4124629006
0.4101472621
0.3976080579
0.4124794412
0.4013723021
0.412840991
0.4061809363
0.3880878912
0.3914007353
0.4226845999
0.4204711921
0.415251702
0.3857563676
0.4203979308
0.4356422718
0.4357233661
0.4435626925
0.4347549916
0.4374207929
0.368945266
0.3817818687
0.3807742539
0.4067457436
0.405919462
0.4001458247
0.3901042755
0.3948606306
0.4047743293
0.4052926407
0.4026487715
0.4073269139
0.4160575487
0.386322995
0.3931629563
0.4076607864
0.4012140909
0.4063589216
0.3955510466
0.3896420193
0.3988607111
0.3959196528
0.396743881
0.3969052474
0.3897855208
0.4016610021
0.4266692836
0.4404659605
0.4216955953
0.4403032572
0.3626839215
0.3662552341
0.3695806913
0.3956902552
0.3900141867
0.3894113537
0.3848719686
0.401850286
0.3882546029
0.3964323655
0.4073805124
0.4086802197
0.4273126682
0.3868076026
0.3781429358
0.3968668409
0.381246534
0.4059820817
0.4214457543
0.4039696156
0.4165960011
0.4279707252
0.4087833064
0.3966812509
0.4071049109
0.4246535706
0.4120961895
0.4052927036
0.4139625552
0.4657104005
0.3813182843
0.3881495603
0.3821667347
0.3820572745
0.3815353614
0.3808381692
0.373946362
0.403449559
0.3881302518
0.3902135647
0.4110942816
0.4130222567
0.4166840865
0.3850222666
0.3888435005
0.403308277
0.4153647404
0.3961060747
0.3983997264
0.4038948287
0.4160726857
0.3967338141
0.3986712288
0.3978321494
0.4002374365
0.4105145415
0.4038818921
0.4412613468
0.4168032253
0.44035857
0.3595397254
0.3937703294
0.4060846763
0.4113264744
0.3823803406
0.3708942779
0.3880740701
0.3981921978
0.3963715107
0.3810153056
0.3930162085
0.402003884
0.4085807133
0.3805001003
0.3805529854
0.3908764359
0.4009364433
0.4014165459
0.4276855361
0.4158569804
0.402096438
0.4000395624
0.399613596
0.414600602
0.4048685094
0.4172984916
0.4317861289
0.4262709991
0.4259375985
0.4420507896
0.3764902615
0.3911175255
0.3982401181
0.414547113
0.3834761593
0.3924568733
0.3920760401
0.4037283633
0.3989451105
0.4004549508
0.3951758516
0.392806616
0.3941975829
0.3787522933
0.399230654
0.4112941009
0.40039855
0.4022638028
0.4079748983
0.4241714054
0.4048408214
0.4136613372
0.4271238962
0.4127115684
0.3998379489
0.4280769942
0.4446425461
0.4177581716
0.4405676417
0.41044551
0.3974100123
0.40304107
0.3994475593
0.3864028015
0.3915966541
0.3880505195
0.3977515512
0.4126966884
0.3830149424
0.3986878373
0.3849509805
0.3861842812
0.3746394241
0.3844896475
0.3699769493
0.3859390473
0.3950474524
0.4090452838
0.424389657
0.4073513254
0.4063272736
0.4143277273
0.4170256563
0.3995561198
0.4109243925
0.3918459241
0.425841847
0.433347071
0.4167079882
0.4400597963
0.4038072304
0.3899878644
0.3854014243
0.3895240262
0.39726793
0.4199183547
0.3892254109
0.3867556727
0.4005973746
0.4075789049
0.4065427139
0.4107703123
0.4041841848
0.3884278364
0.3935716546
0.4067091484
0.4063048339
0.4025567083
0.4036281385
0.4226326979
0.4160698117
0.4357969746
0.4112121347
0.4073614918
0.4004276779
0.4046775819
0.4208477813
0.4388493216
0.4405927972
0.4249793403
0.4094414672
0.3845564386
0.380672466
0.4018830783
0.4141981199
0.4072667886
0.4011578041
0.3982017668
0.4040396598
0.4177648991
0.3983306862
0.3923632206
0.3838635274
0.3823602138
0.391634758
0.4142095195
0.3984155227
0.3896338336
0.3974929343
0.3954303482
0.4201938294
0.3999436338
0.4072173651
0.4061555085
0.4156612529
0.4089826384
0.4328176458
0.4230550053
0.4481870142
0.4376713273
0.3905683619
0.3919726206
0.3797135014
0.3722366804
0.4303522475
0.3982224768
0.3886855165
0.3921773768
0.4005616346
0.4032207413
0.3762211456
0.3938228576
0.3802277822
0.3876181567
0.3787135553
0.389408743
0.3842642193
0.4034297776
0.4065922475
0.3911352293
0.4310273485
0.3970723578
0.3904684384
0.412857905
0.4150417389
0.4340746558
0.4586395899
0.4250594768
0.4395095263
0.4366705797
0.3825195282
0.3943954748
0.3820598821
0.3951208852
0.402969796
0.4061412639
0.4029086408
0.3997052388
0.3826326397
0.4032994774
0.3806988516
0.3976177127
0.3860192614
0.4016377841
0.4148098922
0.3961595414
0.3931707554
0.3918227075
0.4072197093
0.416274298
0.3946467565
0.408531664
0.4106842715
0.4002433615
0.4030950879
0.4380429997
0.438743362
0.4315005748
0.4488845265
0.423512177
0.3970657854
0.3927104196
0.3941985546
0.3896469752
0.3888253975
0.4197442394
0.4142808316
0.3947339532
0.3876530459
0.4018227544
0.3769585834
0.4115092236
0.4122706347
0.3782840565
0.408143713
0.4030542737
0.3991852439
0.3880992891
0.3947731819
0.3954310567
0.407798816
0.404072806
0.4341556257
0.4081542698
0.4127552886
0.4196861029
0.4325917291
0.4403826623
0.4656664544
0.4457339908
0.406715841
0.370876467
0.3985385769
0.3984423188
0.3894206256
0.4045598627
0.3821882982
0.4098399424
0.4180117818
0.3836257038
0.3941382537
0.3910030337
0.4095555215
0.3943362691
0.407952361
0.4212742587
0.3959606149
0.4111739214
0.4017214038
0.4139769222
0.4035112193
0.4137233861
0.4288757105
0.4272897652
0.4129546104
0.4205182716
0.4348916449
0.4346555567
0.4424191457
0.4368825104
0.384310342
0.3807564097
0.4011045721
0.3845291017
0.3662536471
0.3865880423
0.3758552945
0.4153360682
0.4077290455
0.3901816411
0.3897124315
0.3908745027
0.4147803582
0.4014723288
0.3938788083
0.3998014929
0.3950501012
0.3918959672
0.4222935796
0.4195430713
0.410298553
0.4038998034
0.4209466078
0.4168652864
0.4089170363
0.4206233312
0.4313883521
0.43226287
0.4385736044
0.4132490881
0.4060585015
0.3958048127
0.4088918467
0.3905658551
0.3651153747
0.3689525116
0.4017253411
0.406800886
0.3973964713
0.3979006902
0.3926203182
0.397532809
0.4103937612
0.4097389416
0.3991698251
0.3879808523
0.3888494872
0.3908851299
0.4183601213
0.4049463601
0.4349274656
0.418301944
0.4225562292
0.4313955661
0.4519912071
0.4306630142
0.4192337709
0.3994226013
0.415996056
0.4120036366
0.420363652
0.4107384158
0.4034621223
0.4061137074
0.3969409537
0.3800583046
0.3883834079
0.3723746115
0.3749633967
0.3749732728
0.4013627357
0.3997116796
0.4196850791
0.4082712732
0.3932203116
0.3984702531
0.3938163382
0.3788155582
0.4150333427
0.4224875447
0.4289913916
0.406439449
0.4125570406
0.401645375
0.4187171805
0.4430009356
0.4309487695
0.4501514358
0.4175063544
0.4251108518
0.4075417501
0.405568001
0.3926459823
0.397085117
0.4021459696
0.3813347249
0.3924545015
0.3909075034
0.3855024168
0.3930241608
0.3929269129
0.3890592961
0.3959614857
0.3996910093
0.3779983599
0.4206588019
0.4260965459
0.4123082626
0.411419743
0.4247408624
0.4274520631
0.4068270176
0.4343624048
0.400602653
0.4196262303
0.4149812558
0.4297690213
0.4408941255
0.4129129998
0.4410437919
0.3918916013
0.4026598393
0.4093746648
0.4123881286
0.407677247
0.404963548
0.3978140151
0.4043486715
0.391150878
0.3863252556
0.3826178433
0.3916027348
0.4064724483
0.4092375166
0.3894558162
0.4043161697
0.3885351376
0.4094181998
0.4279555265
0.4273677519
0.4112795945
0.4115158737
0.4099067213
0.4158800544
0.4133690636
0.4188688072
0.4333125569
0.4177347839
0.4024572288
0.4177446102
0.3953704794
0.3925316034
0.3995907321
0.3948507297
0.3929038968
0.4290279933
0.4144471364
0.3940310884
0.3897681343
0.3876735314
0.3961066609
0.3912817054
0.3954190943
0.4066525609
0.3972330616
0.394645018
0.3855376776
0.3996721982
0.4135847263
0.4143579916
0.4046811459
0.4173455422
0.401487392
0.4204471584
0.4219323688
0.4231551193
0.4295100437
0.4272277203
0.4204119647
0.4202489505
0.407129265
0.3793161831
0.3905716202
0.3883063198
0.3972411348
0.3794899694
0.4004219516
0.3786972736
0.3839819949
0.3867843762
0.3779127956
0.3824289861
0.3974973038
0.3847197446
0.3855375771
0.3823843323
0.3934726423
0.4006397308
0.3924783016
0.397134668
0.3949716239
0.3949557893
0.4116466122
0.4170890467
0.4066641955
0.4068571763
0.4097934775
0.3842641928
0.4090486621
0.4081606834
)
;

boundaryField
{
    flow
    {
        type            calculated;
        value           nonuniform List<scalar> 
55
(
0.4306984294
0.4139418967
0.4195469113
0.4100488597
0.4138614441
0.4374207929
0.4403032572
0.4657104005
0.44035857
0.4420507896
0.41044551
0.4400597963
0.4249793403
0.4376713273
0.4366705797
0.423512177
0.4457339908
0.4368825104
0.4132490881
0.4120036366
0.4251108518
0.4410437919
0.4177446102
0.4202489505
0.4081606834
0.407129265
0.3793161831
0.3905716202
0.3883063198
0.3972411348
0.3794899694
0.4004219516
0.3786972736
0.3839819949
0.3867843762
0.3779127956
0.3824289861
0.3974973038
0.3847197446
0.3855375771
0.3823843323
0.3934726423
0.4006397308
0.3924783016
0.397134668
0.3949716239
0.3949557893
0.4116466122
0.4170890467
0.4066641955
0.4068571763
0.4097934775
0.3842641928
0.4090486621
0.4081606834
)
;
    }
    obstacle
    {
        type            calculated;
        value           nonuniform 0();
    }
    frontAndBack
    {
        type            empty;
    }
    procBoundary3to1
    {
        type            processor;
        value           nonuniform List<scalar> 
36
(
0.4335780321
0.4015295933
0.4234890415
0.4196571796
0.4107370405
0.415683487
0.415683487
0.4111801695
0.4089523832
0.4024490015
0.4157980711
0.4250603379
0.4250603379
0.4068201023
0.4043850111
0.4192881332
0.4120561715
0.4246555232
0.4246555232
0.3926878245
0.3993302158
0.4130205657
0.4183877962
0.3932624288
0.4156026073
0.4156026073
0.3819800255
0.4044241152
0.4077766596
0.4204478463
0.3866327484
0.3882894431
0.3882894431
0.3923200495
0.4003380505
0.4003380505
)
;
    }
    procBoundary3to2
    {
        type            processor;
        value           nonuniform List<scalar> 
19
(
0.3996179457
0.3674099707
0.3579680888
0.3691403078
0.3939489329
0.4023912145
0.3934193861
0.3975462831
0.4087706529
0.3958125293
0.4034915416
0.4061088966
0.3907973366
0.3910057593
0.4163806569
0.4185195054
0.3914398283
0.3951239101
0.4007911821
)
;
    }
}


// ************************************************************************* //
