/*--------------------------------*- C++ -*----------------------------------*\
  =========                 |
  \\      /  F ield         | OpenFOAM: The Open Source CFD Toolbox
   \\    /   O peration     | Website:  https://openfoam.org
    \\  /    A nd           | Version:  7
     \\/     M anipulation  |
\*---------------------------------------------------------------------------*/
FoamFile
{
    version     2.0;
    format      ascii;
    class       volScalarField;
    location    "0.007";
    object      internalT;
}
// * * * * * * * * * * * * * * * * * * * * * * * * * * * * * * * * * * * * * //

dimensions      [1 2 -2 0 0 0 0];

internalField   nonuniform List<scalar> 
654
(
714.7889279
654.1782554
659.6078757
668.9588768
676.6222665
686.537982
695.7020477
545.9323616
561.8462343
571.8694811
594.2187909
610.1715551
620.1701432
637.8998096
647.6644324
657.6544729
664.4428896
671.2478108
433.6019467
445.7823621
464.3679824
480.1777054
497.3153155
510.5141409
538.6496609
560.9151793
570.3152304
582.3730624
595.2744484
608.4036098
627.905843
634.4481818
639.7271467
656.9790938
346.0917702
351.1131741
360.6530666
373.5328106
384.2566086
395.7158878
406.5804498
425.5106611
436.7865018
455.2298527
469.1078408
492.237838
500.4382409
519.0118075
538.8164364
557.2779051
574.6487957
591.2261001
601.7747707
615.9512674
624.0501646
629.9690851
311.0999807
312.7402082
319.051227
320.290176
324.7179872
331.2052445
335.7711704
342.3621112
351.3547154
359.1847568
366.2717738
375.6108675
384.373464
394.2249027
413.6722014
422.7892769
437.5945413
453.219996
477.4742236
490.3633445
504.0101865
524.3853521
540.3215219
556.8310385
566.0231894
581.551542
597.6232563
614.597054
309.9046392
309.7139589
313.2879155
315.509476
318.0962209
318.7403809
320.0720011
321.4524962
329.0062543
333.9747342
337.544944
345.4329351
353.172616
362.5927889
370.0947124
377.9524696
386.8123332
398.9075634
410.7051758
432.4701394
444.0501969
463.0077918
481.3910783
497.5621077
511.9112654
530.5716565
547.5518576
555.4608455
577.5172216
586.799702
305.0300499
304.8104819
304.6623495
308.1771115
310.7236158
314.0516253
314.5644238
319.1834562
316.5239605
323.7614424
327.6693858
333.1784197
337.7123284
344.6301398
352.5036014
365.9522294
375.2937069
383.4945363
391.5979058
399.6487653
421.0542779
432.6860391
441.6745252
463.9876196
480.9261879
497.2934898
517.6216184
531.6006994
547.3245609
558.7944072
299.0785684
300.8256356
303.1110417
305.2059871
304.3037603
306.3801605
309.9300378
313.6349507
319.1154885
317.8550922
321.2986536
323.9518
332.8088679
337.8107828
345.0397129
349.0475342
355.4853663
361.2557784
373.2181217
378.6617571
391.3933728
415.5955277
426.6493963
439.4045297
459.4213782
473.7480659
492.6547197
507.656431
522.6499579
537.3575385
302.2148437
301.6177748
302.7478942
303.6139752
305.1363909
306.2454304
305.0306515
310.0444822
311.0609089
314.0551798
317.2532276
319.7176227
319.4501941
324.5419161
327.9666253
335.2326115
340.8452848
349.2710216
363.6772082
374.1913591
381.7165892
394.8528262
407.6546102
413.2970561
434.03491
445.7755506
465.9185647
485.2400659
497.6747345
513.696156
303.1459206
303.5205083
301.9614496
303.5855943
305.8143232
307.0914764
308.9992011
307.5649222
307.4838382
308.7714798
309.2863114
312.418186
319.9603157
322.9886597
325.2680111
327.0392606
331.8977571
337.2033745
343.8260472
357.0692381
363.7610391
371.700579
389.0998674
402.0484532
408.5470192
425.9411464
442.2222267
455.2201017
472.3684102
483.9789849
308.9931761
308.6073147
308.2579413
303.9829789
305.7717873
306.0236762
306.3451044
304.7397457
307.5447968
312.368652
310.4284047
313.2604784
311.4105792
312.1218768
315.2484366
321.2807572
329.1660261
331.9544835
334.3712307
339.6122353
347.7886457
353.9979609
362.9138428
376.7291429
389.9150517
400.9858057
417.1727131
432.3791818
454.6971554
467.7632478
298.3391984
298.7652764
298.112222
301.5871614
301.972911
300.8271276
303.0136521
304.5716773
307.8583587
308.1438718
308.2303857
311.1383343
313.9820718
314.5827592
316.0420724
317.6940811
316.5707374
320.2335228
325.4749908
327.5821055
333.6471327
338.2496114
347.5811858
355.4199922
368.1607286
386.1718354
396.9445304
412.3460005
422.6485723
441.368649
299.9802187
304.1049568
304.8827398
302.0990222
301.1589307
301.0853865
302.2212882
302.4215543
302.0113757
301.1794363
299.9099549
302.4956862
302.9541267
304.6269883
307.9505636
311.1950694
313.1882982
312.7833253
317.3652228
325.6321943
327.3470795
335.6181298
341.0031321
346.8689604
354.9114009
362.3420936
373.5522941
382.3180258
401.643228
416.8260438
298.9262063
295.5620719
294.8824498
295.5002173
294.4367609
296.5305932
299.5768158
300.8536055
299.3186943
298.5223021
300.4903166
302.995821
300.5291355
304.7768863
305.0864671
307.7626036
311.6713293
319.4292656
318.6967457
322.9663494
322.355358
325.1954101
328.4059652
334.5003869
337.8643118
348.5066794
359.5877212
370.162247
377.918536
395.306664
297.5067605
299.1333965
300.0696959
300.2426932
301.4853898
301.6740979
297.7493577
294.6519937
294.7916209
297.653983
302.2131567
303.3031438
305.3629859
304.1536623
305.1491133
309.0021977
310.2348074
309.5173624
313.8379486
314.2228877
319.3488851
326.2508944
325.5893354
327.994256
334.108981
337.5698121
344.6396345
355.3096264
362.8245667
372.2894309
300.2527491
300.3156679
300.3299046
299.2886553
296.8307996
298.1381458
301.6951255
303.5160425
304.3565245
304.2533134
302.8506659
305.6503721
309.1439728
307.7398627
305.9068767
306.42612
307.7272121
309.8396309
313.039529
313.5987892
315.0350848
313.5379505
318.7215002
322.4496928
327.7854661
334.6515604
338.8099974
340.4762964
352.1570149
357.0893272
299.1185574
299.4446756
301.3312823
301.693356
302.2397388
301.3014859
299.9147579
299.2691861
299.8116698
298.7684358
298.78122
298.8076428
297.5617621
299.8520208
300.8443632
304.7256006
304.6377815
303.9696807
305.1198948
305.3644545
308.2668553
313.0143693
313.1198747
316.4170749
321.1458439
324.7353079
331.041625
339.4600311
347.4787881
358.4963988
300.7873189
300.8844028
300.952704
301.0814871
302.3700409
301.7947325
300.3518092
300.092118
301.3637192
300.9451377
301.4301836
300.5991426
301.545175
300.0974521
303.552799
300.5916624
300.6520414
303.4582213
304.4593999
303.8451434
306.5117817
308.5737406
313.8033523
317.1654461
315.7107911
320.2004049
324.9810152
332.0334466
337.0926586
339.9828729
301.6752221
301.8390256
298.4003268
299.8465802
297.4845761
298.0481312
299.4188519
301.4418515
301.8720709
303.0074241
304.5784861
302.6302671
302.4824474
303.5630333
303.7549872
302.3973443
300.1546796
303.5503844
305.5548165
305.1087865
307.0511111
309.1816143
309.0545838
311.7817459
315.4099372
319.4029361
321.0953134
325.9204794
328.3819704
332.6802639
301.8365964
299.829762
300.7881671
300.589972
303.2752744
301.473911
302.6760702
299.8670547
298.6987568
299.0418781
300.1339686
300.1950435
303.6062087
304.1927776
302.8603177
304.2339851
305.0847346
300.9617718
304.3553321
306.3847511
305.5308552
308.8122918
311.2028543
314.2706161
315.7697408
312.8217637
314.0598265
314.0840405
318.5328738
324.6075368
302.2637606
302.8188875
302.8440448
301.2137154
300.6858893
299.6154808
297.7520251
300.1071366
300.6061222
299.4705688
298.432832
298.8230384
295.1866234
295.3566672
297.154062
297.1343474
296.4044863
298.6576393
303.1907739
304.4461504
306.2074373
306.8332131
306.8681563
305.6072476
305.8681522
307.9163317
309.6820935
308.0887102
315.1730981
317.8929337
301.1932554
300.1579486
296.6055049
299.2385316
296.721534
299.4454583
300.3278369
300.0275173
296.930281
296.7220094
295.3168799
297.6698422
297.5816919
296.5405117
295.8560051
299.1989854
301.2315715
301.6182231
303.201859
302.2859066
302.5542271
299.7472258
304.1470066
303.8122964
303.6236373
308.2332415
309.882201
308.9763694
308.7777026
311.0452525
296.5698165
297.5029443
300.0715851
299.584858
299.9891473
299.4861947
297.3766379
295.6086611
297.4318805
300.4851347
299.5760702
303.148456
302.322149
303.0310014
303.8521916
301.2367624
302.6602185
299.0283692
299.0058219
297.2236963
299.2233242
303.4489346
304.9094653
304.1647068
310.6355833
305.5898062
304.952406
308.5684525
308.0880079
313.0598043
299.6298614
299.1468874
297.8562833
298.8226111
300.0374888
301.6255441
301.8968105
301.3562478
300.8186911
300.8076217
301.9896516
299.6367186
298.9162408
297.5411062
298.3410195
299.7473903
301.2871917
300.4670124
302.4906111
301.1485042
300.0201876
298.3116661
300.6503151
301.0540111
302.2744719
307.4238379
309.4097262
308.6048001
309.797943
308.4952234
)
;

boundaryField
{
    flow
    {
        type            calculated;
        value           nonuniform List<scalar> 
55
(
714.7889279
695.7020477
671.2478108
656.9790938
629.9690851
614.597054
586.799702
558.7944072
537.3575385
513.696156
483.9789849
467.7632478
441.368649
416.8260438
395.306664
372.2894309
357.0893272
358.4963988
339.9828729
332.6802639
324.6075368
317.8929337
311.0452525
313.0598043
308.4952234
299.6298614
299.1468874
297.8562833
298.8226111
300.0374888
301.6255441
301.8968105
301.3562478
300.8186911
300.8076217
301.9896516
299.6367186
298.9162408
297.5411062
298.3410195
299.7473903
301.2871917
300.4670124
302.4906111
301.1485042
300.0201876
298.3116661
300.6503151
301.0540111
302.2744719
307.4238379
309.4097262
308.6048001
309.797943
308.4952234
)
;
    }
    obstacle
    {
        type            calculated;
        value           nonuniform 0();
    }
    frontAndBack
    {
        type            empty;
    }
    procBoundary3to1
    {
        type            processor;
        value           nonuniform List<scalar> 
36
(
719.9556543
672.9193905
677.5021029
690.7370254
698.0611268
701.7794647
701.7794647
573.720525
590.3225877
609.1624438
624.8901091
639.6403702
639.6403702
452.8505496
468.1907784
492.4418949
510.7378767
527.0249329
527.0249329
355.2781715
366.2644434
380.6870415
396.4923242
405.1504527
417.9536564
417.9536564
316.714418
319.0919434
322.5157153
328.2562307
333.0716854
340.5494237
340.5494237
307.8363726
311.9568381
311.9568381
)
;
    }
    procBoundary3to2
    {
        type            processor;
        value           nonuniform List<scalar> 
19
(
308.1165167
304.6747361
297.3174916
301.7432857
301.9369615
306.3077583
299.8630006
298.1053445
300.3086787
297.4969082
300.2058926
298.4474023
299.543487
302.1440671
301.5478716
302.4154761
299.2973187
298.4083402
298.6682244
)
;
    }
}


// ************************************************************************* //
