/*--------------------------------*- C++ -*----------------------------------*\
  =========                 |
  \\      /  F ield         | OpenFOAM: The Open Source CFD Toolbox
   \\    /   O peration     | Website:  https://openfoam.org
    \\  /    A nd           | Version:  7
     \\/     M anipulation  |
\*---------------------------------------------------------------------------*/
FoamFile
{
    version     2.0;
    format      ascii;
    class       volScalarField;
    location    "0.007";
    object      linearKE;
}
// * * * * * * * * * * * * * * * * * * * * * * * * * * * * * * * * * * * * * //

dimensions      [1 -1 -2 0 0 0 0];

internalField   nonuniform List<scalar> 
654
(
9.946203926
12.19928777
17.42865732
6.464603382
15.66614749
23.50273998
23.67542347
13.91456284
8.559583401
10.90263959
18.64384871
12.19441174
9.592357291
9.136344821
14.63519575
14.6788576
14.67828706
23.59141714
12.01313812
17.16407293
12.81150807
8.549148197
8.315989064
15.09314095
11.2944923
9.583124534
9.822637233
14.22128255
17.04352329
16.13884014
25.66763191
14.88345365
22.95249305
14.48774038
8.449073761
14.94812173
8.007794619
8.308973798
7.819118046
3.703374882
7.280745623
14.95015839
18.64852339
13.28396573
12.82857788
11.63980216
8.616857961
13.50445498
9.127512827
9.986003268
8.41090457
18.56733514
17.2057137
16.42878856
19.30162038
25.51257587
7.804030067
5.879497814
8.161211918
10.91792432
9.599829483
8.867729378
9.863084055
6.957133601
6.798515605
6.326302482
9.291407369
8.935762934
11.84403514
9.847412042
13.16975541
11.51237062
14.16073334
13.44161285
9.419556107
6.457254408
11.04606302
18.28165493
20.9695752
14.22152835
12.06149855
14.4030767
22.32166927
16.6563167
7.697388399
14.1554709
14.01948823
8.000388678
9.580175214
4.755741894
6.585352017
10.73224005
7.754211902
9.028853455
12.29943293
6.067636667
2.924982902
7.900400312
8.629837096
3.494425552
5.23846355
8.293210313
14.65781842
8.671115702
14.94155423
9.723916795
18.2819181
15.78184252
15.60202277
22.78247128
9.194128382
17.83236039
17.69113887
8.646576195
6.311410582
12.33429567
3.537718146
8.71786358
14.38973072
7.761754399
5.817522308
10.62204954
8.294168381
9.1547058
2.617095448
7.398615321
8.577712579
8.098838153
10.63734272
4.54185052
18.23561365
10.59694904
10.99475782
7.780045087
10.83320351
5.051411099
15.94136373
12.04723245
15.80940509
19.51279998
14.00569668
12.18107882
19.72948091
16.91990738
4.472008932
13.31867214
9.680430629
3.159894014
6.655829762
10.62245951
8.918027533
8.710401008
6.805438657
5.32721659
4.017721077
12.42885838
6.75273189
6.884821847
7.503101606
9.736275271
6.16081012
10.61978234
9.739876839
12.11109168
9.799692627
9.005167061
13.27307493
9.497267397
11.2825178
12.49818865
13.85816378
15.16537373
12.80718109
13.54967962
6.825010938
6.794514634
8.417823636
10.45799176
7.054292575
13.3394302
5.583343746
11.6234092
6.311354572
5.752103536
9.419721959
6.568215885
10.13495319
16.0447884
7.416864682
7.868979197
3.91268827
7.727004664
9.521851711
8.775203527
7.353117622
10.013755
6.268864002
9.315299088
4.425865158
10.884322
11.74625245
15.51194923
6.322180537
14.9009575
5.131503857
4.892770649
5.504758741
9.70097492
8.356410527
11.49883141
8.691832639
7.755667759
15.56545054
5.659166427
9.529461919
6.690142997
4.134258012
7.214246265
10.65108621
18.56955231
11.60715572
7.576458406
18.3089598
4.080612628
7.083808508
10.01395098
14.89318762
5.953958853
8.093121954
10.96299723
9.518594735
7.883610889
12.80279872
15.85788285
9.078356193
2.512310942
6.472378149
6.747664361
7.57765636
12.22293085
10.87437542
7.860266782
9.653758034
13.12034123
3.444790255
6.579594809
4.603644077
6.529613331
9.013675914
8.883617995
5.713103113
7.550881168
11.74380369
8.888704081
8.010943576
10.63464353
11.22659317
16.0105185
7.715215775
5.224770091
16.43496525
13.5552611
9.322432882
12.11917995
10.4465331
10.43259665
8.890909951
4.862013687
4.786345223
12.08539376
6.039094529
10.12711278
7.912890042
3.044258799
7.630654783
4.021698263
4.495828764
5.47948059
7.860652369
7.063106832
9.316916029
5.763699115
5.897316912
4.486918047
14.67703437
7.394919653
7.680349594
7.943100937
13.22357911
13.079755
9.597631866
12.62466978
18.14365949
6.399113236
6.084721928
6.59925783
10.61882872
6.964879062
8.85045151
6.649724738
12.94316001
4.294952328
4.228937093
7.860364962
13.95887276
7.772489625
5.850341988
9.836612733
15.96606534
8.105723476
12.04154516
8.101111443
6.640998555
4.299712368
7.220229851
9.502695036
3.967084636
10.40426128
8.422751772
7.005826268
12.71473566
15.40926453
13.45060475
8.117719061
9.882101951
7.010355075
7.180341827
4.893888909
9.100028629
5.328723197
9.344878286
11.87272058
5.838619158
6.034917259
1.509995801
2.74901552
11.01692293
3.18680345
5.467967512
5.036574072
6.969299307
10.2993888
4.534906969
6.648155389
0.7455840618
5.56757185
4.66671335
11.35972731
19.51080705
4.742955593
7.646721469
6.512755716
7.635599493
8.004604128
7.068151599
6.29853194
10.43744898
5.868994509
8.441662434
9.78076552
7.416694541
7.663629211
5.015317832
8.651313073
10.59203313
5.558913176
5.752126303
9.448487111
3.117772951
9.771965883
9.695098694
8.480268375
9.08769296
7.022125198
4.306811076
25.34323402
7.979656175
9.628016865
7.126211286
6.695287606
10.68013721
5.28546468
13.82122331
8.639379271
10.09350346
8.731985629
6.466638472
6.294823757
8.175952059
7.999484158
8.143279617
6.846313461
7.40747814
10.76744956
5.463308647
8.831429554
8.390918013
7.555614196
8.158372848
4.770676654
8.069223149
14.26176304
11.14930107
11.19823684
7.258337995
11.83856865
7.535957312
4.110305279
6.950548433
8.494048736
7.342727801
11.3538713
16.99855967
3.781472381
5.328915395
9.397239803
7.848063026
9.303313498
9.278894159
8.599406225
4.996721796
8.072941048
7.422143012
8.944323783
8.792369424
9.396377382
9.266779138
9.114667761
7.508918252
6.664484792
8.036461217
4.439195891
6.069748258
6.906517138
8.360502342
3.634365942
5.15049321
2.130821252
8.69660363
10.57370908
7.478801945
5.670022421
9.259352435
9.365493664
9.490739027
3.662769943
6.245039353
9.691353817
13.10479197
6.987704641
8.087323013
6.332437913
13.06482856
6.868578888
8.377410542
10.33260721
6.118873088
10.07490177
8.236235543
14.38871025
7.677332832
7.275915098
1.120818123
5.881008016
6.567946912
7.800392302
6.006489622
4.478273446
6.783731689
13.06267159
6.633664172
9.153627172
9.3224758
10.78112854
9.767005619
9.856275689
2.766364026
5.8373818
7.557395921
2.292606373
2.905900238
10.80921817
8.155835401
5.919197693
7.27020912
10.8893366
6.71296972
7.415991539
10.44608932
10.24547026
6.501072746
6.395520464
6.640362608
7.850886046
5.029927725
7.244407806
10.82455491
5.971704028
12.5624225
9.881466729
5.123834774
3.252247688
2.942005756
5.958127795
8.958610389
9.146692593
12.21166179
8.938819817
6.520109171
11.19172788
4.103380222
11.64878426
8.138647989
5.88042909
15.15530221
7.16726634
11.86091489
2.323382759
6.465855625
9.291284695
6.455833888
11.03581547
8.83826703
6.888442932
5.255264012
7.00769965
10.45198707
10.42907226
6.291598693
13.02688664
6.659530621
6.235196737
6.515719389
4.216759588
7.998217321
7.133279964
4.116762239
6.358962569
11.21521351
7.633841039
4.931266692
5.152730479
6.061148289
13.44357264
6.402905418
9.692350735
5.195020811
9.142122575
7.751445338
13.50399789
12.92157368
9.130246526
11.07273187
4.139746085
5.461873167
5.454931702
8.199728328
10.31517655
7.915856581
7.927741277
14.02421252
4.282476567
3.975451083
10.39626476
12.3609021
6.505490564
7.555679881
11.88907144
7.065170813
4.024254764
8.247986099
7.288017773
6.017875915
6.763936367
7.85245387
4.609186794
9.548016898
9.658055871
8.821661747
8.303343589
9.52415724
7.099360583
17.26254294
8.062876684
6.858982201
6.515200894
6.118914017
4.302056682
5.164059542
9.970269185
4.29843581
9.454078173
8.602627788
3.840893499
7.059579052
4.780741996
11.00501407
10.49401098
15.45732329
6.572033721
7.324972562
8.92344373
6.310662501
4.495226288
10.3713782
3.674816978
4.199457912
17.70011251
9.329515079
9.24898773
13.35821235
6.111124588
5.109646621
7.151514003
6.890206696
7.976042071
7.830193781
12.71248082
5.262786565
6.57704967
12.5892467
11.62570705
9.955993031
11.22300635
8.406605888
11.51877299
4.79448413
3.83509859
6.276394441
6.351178111
13.07598575
10.18251362
7.162861269
10.16020577
11.26608967
8.829114532
6.356816928
7.227518109
10.637462
6.151372269
12.15460335
10.53155634
5.920416417
10.03897792
6.362028537
5.012723634
5.575737874
3.243063666
5.385997988
11.62465607
12.25580447
2.937266753
3.504884382
9.332870306
)
;

boundaryField
{
    flow
    {
        type            zeroGradient;
    }
    obstacle
    {
        type            calculated;
        value           nonuniform 0();
    }
    frontAndBack
    {
        type            empty;
    }
    procBoundary3to1
    {
        type            processor;
        value           nonuniform List<scalar> 
36
(
11.20200746
20.70383013
18.89043645
17.44720504
15.67447173
15.42061204
15.42061204
17.94470184
11.41802997
13.18978067
16.04777119
11.93925765
11.93925765
11.52860441
8.590377809
16.81712858
8.156805089
17.03514835
17.03514835
8.923572836
9.824039179
17.768546
14.11023588
6.816301108
8.668150028
8.668150028
6.481939614
8.980813893
6.711372542
7.839525469
10.96089635
7.692517869
7.692517869
11.29632194
6.912516298
6.912516298
)
;
    }
    procBoundary3to2
    {
        type            processor;
        value           nonuniform List<scalar> 
19
(
13.28988702
4.895158223
6.141460438
9.49659324
11.18678552
8.047121309
7.35668572
7.925919818
7.697234032
7.577668677
4.806178222
11.90313702
14.62287051
5.147540798
4.919747069
7.138801903
9.220072835
4.555894601
10.39299125
)
;
    }
}


// ************************************************************************* //
