/*--------------------------------*- C++ -*----------------------------------*\
  =========                 |
  \\      /  F ield         | OpenFOAM: The Open Source CFD Toolbox
   \\    /   O peration     | Website:  https://openfoam.org
    \\  /    A nd           | Version:  7
     \\/     M anipulation  |
\*---------------------------------------------------------------------------*/
FoamFile
{
    version     2.0;
    format      ascii;
    class       volScalarField;
    location    "0.007";
    object      linearKEMean;
}
// * * * * * * * * * * * * * * * * * * * * * * * * * * * * * * * * * * * * * //

dimensions      [1 -1 -2 0 0 0 0];

internalField   nonuniform List<scalar> 
654
(
14.83429801
15.62459017
15.74831992
15.65200757
15.59824286
15.56832073
15.26826742
13.49621497
13.91218008
14.39866269
14.76368205
15.07218866
15.54735952
15.72251686
15.89452809
15.82338791
15.79339285
15.76505517
10.36887199
10.79306496
11.32593628
11.86237745
12.31578705
12.77073549
13.32383821
13.86348143
14.37729628
14.71443277
14.99113185
15.35295609
15.58544468
15.81820028
15.75803362
15.85105225
8.57210543
8.699630748
8.796398672
8.938897398
9.14388881
9.403615487
9.702401662
10.09671135
10.44925519
10.86556343
11.35748695
11.93222778
12.45234651
12.9511309
13.52443374
13.99282686
14.46041029
14.99555102
15.2311504
15.55969575
15.78035734
15.79225396
8.032545007
8.069816631
8.088157872
8.144083527
8.241290728
8.240601971
8.294606322
8.331252437
8.510113456
8.638494956
8.861094097
9.043614482
9.303971041
9.593697251
9.917370368
10.37425863
10.84903214
11.24776247
11.7722614
12.37635217
12.95576644
13.33733658
13.87272946
14.34407058
14.84328661
15.22090446
15.39160149
15.61955951
7.892788308
7.963857255
7.988347983
8.012147474
8.064334261
8.103103089
8.117675588
8.172522591
8.262740367
8.351472961
8.49752076
8.645916279
8.731575081
8.758102599
8.994402845
9.252776428
9.490531289
9.68231375
10.09155892
10.51280012
10.95076277
11.3552056
11.87051834
12.44936167
13.1141775
13.55386922
14.07321614
14.48365913
14.93168671
15.45465962
8.031663448
7.984942422
7.945077734
7.945437302
7.912806864
7.92528401
7.999988459
8.011043709
8.087665353
8.131676469
8.150385323
8.245272365
8.419838826
8.674042833
8.773193387
8.951230368
9.140567212
9.393601836
9.791509728
10.14778403
10.49626924
10.92075618
11.31506114
11.7816238
12.35061563
12.8798359
13.34277703
14.01049439
14.52627971
14.90235526
7.758639878
7.734707474
7.816730081
7.860149318
7.878830758
7.884709384
7.961517297
7.939350067
7.977135044
8.075300147
8.219990506
8.394718041
8.4382905
8.512600929
8.601657572
8.6999514
8.908100755
9.100976342
9.232833791
9.509793803
9.910392592
10.28216198
10.66582987
11.16583679
11.71035156
12.30025855
12.83683998
13.2919305
13.82274617
14.39804189
7.842042952
7.866116995
7.896944953
7.89231157
7.912588778
7.950900541
8.073245776
8.111254495
8.16646524
8.185763134
8.14370934
8.177243584
8.235066586
8.240507813
8.381550355
8.483875773
8.681961193
8.814289588
8.966168497
9.072430407
9.384351578
9.654072487
10.03444309
10.46266441
10.84730731
11.44836722
12.04513041
12.63867787
13.18673354
13.70170346
7.956142791
7.90105891
7.904316184
7.890480164
7.95769
7.912556854
7.951043636
8.002140319
7.984770993
7.949407494
7.99773907
8.046953537
8.045230587
8.1761124
8.273882585
8.261520032
8.372938215
8.463057326
8.640447315
8.803542651
9.028606302
9.310888587
9.70675722
9.969193917
10.30822176
10.76874982
11.16925818
11.78831252
12.30015105
12.96102453
7.861820519
7.901569681
7.906438272
7.983198093
7.984753725
8.045032172
8.014057632
7.982143841
8.014705966
8.063177269
8.077568864
8.142002876
8.130871431
8.174217425
8.215653387
8.29315246
8.336678747
8.407717217
8.551657835
8.704836653
8.79567014
8.935288959
9.194097222
9.547073194
9.983694682
10.234029
10.70350881
11.22073475
11.7096226
12.23870641
7.801942338
7.839495011
7.870306473
7.784057665
7.821797154
7.850953917
7.817362885
7.872098389
7.936482135
7.84755005
7.904993513
7.978091269
7.986932877
8.022725964
8.060122778
8.116005081
8.214309915
8.304297603
8.38023634
8.536637023
8.614604728
8.779399052
8.852701449
9.07713507
9.351441419
9.67684857
10.03114868
10.44346324
10.95380269
11.44166798
8.084039465
7.978888127
7.947115206
7.954889292
7.969231152
7.982196427
7.989322379
7.957893138
7.988574729
8.080287941
8.022590312
7.966548202
8.010806928
8.116329193
8.050141491
8.133226512
8.158300595
8.143169789
8.205416275
8.278389958
8.502576265
8.60347767
8.782749404
8.946862758
9.085184212
9.35681511
9.67271563
9.929916989
10.39023521
10.92414633
7.853747322
7.887077355
7.918581991
7.935735518
7.890615158
7.853854372
7.942938254
7.877607402
7.835396954
7.844759479
7.848466467
7.919594636
7.93115703
7.982821018
8.039309475
8.11076473
8.130359845
8.371921438
8.392232805
8.431853425
8.461376118
8.594747978
8.627446138
8.688150714
8.911638902
9.032687351
9.317368635
9.649052249
9.847673029
10.20822045
7.844236886
7.850999648
7.838532915
7.801010498
7.765351924
7.765911237
7.745355737
7.809933337
7.810508548
7.796816563
7.89144922
7.934295157
7.987253776
7.999883193
8.005933334
8.07162567
8.117639869
8.089941764
8.169349986
8.257802413
8.404680364
8.400577724
8.494046315
8.661725196
8.774963182
8.900365518
9.131344218
9.244027126
9.460938018
9.707902473
7.810658705
7.78516556
7.777665914
7.810739546
7.892708954
7.871481416
7.891359382
7.862304462
7.877508854
7.884184846
7.861629112
7.883340159
7.851436374
7.91371361
7.875598817
7.920752013
7.942576665
8.028573149
8.085704365
8.157543668
8.111716747
8.233902001
8.340933988
8.414001517
8.456302964
8.54057028
8.667769435
8.860220206
9.099708806
9.365755058
7.976312912
7.930448891
7.907021485
7.845302959
7.806670847
7.797810614
7.803720666
7.876030801
7.886336658
7.918876741
7.956134554
8.005605641
7.991135183
8.044934749
8.093816462
8.025545754
8.040812763
7.966759498
7.986279133
7.981182409
8.144195504
8.131934855
8.118856776
8.207114385
8.278426428
8.339703637
8.447003984
8.614544409
8.773066108
8.977527536
7.829199491
7.825895505
7.902716406
7.922839792
8.005473139
8.010560338
8.011562243
7.980663029
7.922774968
7.899029236
7.912384503
7.880462545
7.887810202
7.867950269
7.881421012
7.917444464
7.934010572
8.042759872
8.049081556
7.997509083
7.980031157
8.025709168
8.01543592
8.070784665
8.05447952
8.151526662
8.245583795
8.299244546
8.49763755
8.642763544
7.881369808
7.885153398
7.895103501
7.881266024
7.913945145
7.890448593
7.929778081
7.921464614
7.994755494
7.954508194
7.91163165
7.901592174
7.899431365
7.875985253
7.89861857
7.829234482
7.775811799
7.775093477
7.741257134
7.824587162
7.852352338
7.894809549
7.879056281
8.056918419
8.153407873
8.288739911
8.316167856
8.413113846
8.488047015
8.646086745
7.817009761
7.860958758
7.811881148
7.82567256
7.787770214
7.824587607
7.790649817
7.851377313
7.8515382
7.879901827
7.963610639
7.911727584
7.917803531
7.927958808
7.947528412
7.928848279
7.970868604
8.011644389
7.934951987
7.970081777
7.946322829
7.968148067
8.048193982
8.042043219
8.06649469
8.145139282
8.261349446
8.335114134
8.430411621
8.521763157
7.837764141
7.831058604
7.834853559
7.810929476
7.872742839
7.884408264
7.855127952
7.792484749
7.799215339
7.84368116
7.807628177
7.848608166
7.87480744
7.836484212
7.8322125
7.843771191
7.832842177
7.876888748
7.861718679
7.915554159
7.998792699
7.998403708
8.034992476
8.019127609
7.983343093
8.037490471
8.087465115
8.106684108
8.234599461
8.283984276
7.864495416
7.875730665
7.925973043
7.894782061
7.917498761
7.865508857
7.925579056
7.920196466
7.877271744
7.824730694
7.797789218
7.750093359
7.848109476
7.883802555
7.993975087
7.967231069
7.910573043
7.92219281
7.956849464
7.959500871
7.914085452
7.949450777
7.956614009
8.02268875
8.082643442
8.088938337
8.148287946
8.13134134
8.201701226
8.228003859
7.878260327
7.873209213
7.890714265
7.851811373
7.854416296
7.827071366
7.817022607
7.820474236
7.846255476
7.849477043
7.874718387
7.931896304
7.884482291
7.801177798
7.768201977
7.832691016
7.885338003
7.95379913
7.915726229
7.915772218
7.881245098
7.920075906
7.94427716
7.937241361
7.972128765
7.970186065
7.991677838
8.00155169
8.055473248
8.137421571
7.738144669
7.709030108
7.679549738
7.661106613
7.673453994
7.699203616
7.732396686
7.715471968
7.697151987
7.696915176
7.749400395
7.73150258
7.740191203
7.711347043
7.725302696
7.705238065
7.681569481
7.69603388
7.714824022
7.726097117
7.803161413
7.790572714
7.772189862
7.779057178
7.78972308
7.757622456
7.738765722
7.805620219
7.844346938
7.942656494
)
;

boundaryField
{
    flow
    {
        type            calculated;
        value           nonuniform List<scalar> 
55
(
14.83429801
15.26826742
15.76505517
15.85105225
15.79225396
15.61955951
15.45465962
14.90235526
14.39804189
13.70170346
12.96102453
12.23870641
11.44166798
10.92414633
10.20822045
9.707902473
9.365755058
8.977527536
8.642763544
8.646086745
8.521763157
8.283984276
8.228003859
8.137421571
7.942656494
7.738144669
7.709030108
7.679549738
7.661106613
7.673453994
7.699203616
7.732396686
7.715471968
7.697151987
7.696915176
7.749400395
7.73150258
7.740191203
7.711347043
7.725302696
7.705238065
7.681569481
7.69603388
7.714824022
7.726097117
7.803161413
7.790572714
7.772189862
7.779057178
7.78972308
7.757622456
7.738765722
7.805620219
7.844346938
7.942656494
)
;
    }
    obstacle
    {
        type            calculated;
        value           nonuniform 0();
    }
    frontAndBack
    {
        type            empty;
    }
    procBoundary3to1
    {
        type            processor;
        value           nonuniform List<scalar> 
36
(
14.03763577
15.48913737
15.42510419
15.32637853
15.15489868
14.95960149
14.95960149
14.01190204
14.60207306
14.84040826
15.12234944
15.44006871
15.44006871
10.88808748
11.32742684
11.95852973
12.46146804
13.03323837
13.03323837
8.59911418
8.862897368
9.084901729
9.346434994
9.643563727
10.01632993
10.01632993
7.938984655
7.990166678
8.051918872
8.119055409
8.25665967
8.438636761
8.438636761
7.971399518
7.95549624
7.95549624
)
;
    }
    procBoundary3to2
    {
        type            processor;
        value           nonuniform List<scalar> 
19
(
7.885121636
7.975516296
7.7928954
7.840486056
7.863332887
7.774827381
7.869591686
7.969741972
7.923872671
7.871068568
7.811210601
7.925224072
7.788954263
7.88705067
7.821758479
7.838069592
7.900102089
7.859946397
7.73237002
)
;
    }
}


// ************************************************************************* //
