/*--------------------------------*- C++ -*----------------------------------*\
  =========                 |
  \\      /  F ield         | OpenFOAM: The Open Source CFD Toolbox
   \\    /   O peration     | Website:  https://openfoam.org
    \\  /    A nd           | Version:  7
     \\/     M anipulation  |
\*---------------------------------------------------------------------------*/
FoamFile
{
    version     2.0;
    format      ascii;
    class       volScalarField;
    location    "0.007";
    object      overallT;
}
// * * * * * * * * * * * * * * * * * * * * * * * * * * * * * * * * * * * * * //

dimensions      [1 2 -2 0 0 0 0];

internalField   nonuniform List<scalar> 
654
(
433.5832843
467.2466662
460.7204859
451.8658349
441.1063534
434.3912409
413.1627324
470.6249426
475.2308979
483.0332299
471.2939502
472.4202367
457.7090412
452.2333927
440.3940359
444.9175091
444.8120135
426.9225318
474.6800174
475.5668376
473.5534031
462.3138743
470.4569006
463.6696447
480.3807129
468.1765841
468.5867072
462.4400439
459.5579661
449.9784855
448.022253
446.9317397
433.6765564
425.3319599
477.5552458
471.5493097
471.5182648
469.2455653
473.5418573
461.5211246
468.8403625
485.5004451
470.624
467.9836314
464.9835852
461.8845411
462.1782925
456.9112694
452.4036988
452.9428813
451.8799961
441.0366036
432.0454886
435.5716542
432.9171512
434.7873699
450.29906
460.6817364
456.6547611
458.4925111
463.5115919
457.8766616
473.4481473
460.3723083
464.8722453
476.3551779
475.5140884
460.0532257
474.3787907
460.5450413
470.0891333
475.2816015
461.4700139
456.6430889
459.0849365
453.6319348
453.6652041
456.4090249
444.5097683
435.7293628
437.7551248
430.0676664
429.8183725
420.0841875
448.5059741
449.7716735
460.5924083
455.5141996
451.5426428
462.250857
458.028758
454.6000033
461.8469392
463.7052733
466.7496308
472.01835
476.6825489
461.0749953
461.3042635
467.4965065
462.7234648
459.6908911
458.0313574
458.9145749
461.6536175
459.5657618
452.9466836
444.6246747
433.4293963
440.8695071
433.4586722
416.6666484
418.6484574
403.6306232
437.6576237
445.0958458
449.1048347
447.1578328
438.7672683
452.6138572
448.7387577
453.5454258
450.2775739
456.4919878
455.3590037
470.5465576
459.6395658
462.6566811
457.182422
456.069484
455.5244
461.1066156
460.7980404
441.8131486
448.9172701
437.2908494
442.6647096
435.7065651
445.0643095
430.9456812
435.781611
425.6355087
425.0251699
425.8337998
427.9224157
442.5584429
434.4537629
434.2036712
434.3870629
439.0877862
441.0272656
446.117818
445.7171154
460.9973317
447.7967105
458.8538756
439.4611143
447.1904469
460.5813122
445.5161856
455.3994926
446.3311036
457.5514578
454.6457189
463.4283865
462.4926425
461.5386154
444.3636296
437.1601753
433.0115999
442.799849
430.7849618
434.2097381
422.8573552
430.5727391
428.0856031
436.6862436
437.2958437
430.220542
433.3950064
442.054162
438.9360674
442.7335341
443.1376132
445.1925408
439.822554
439.3747625
445.728516
444.012755
439.8189423
452.0408172
456.6028506
453.2990042
451.7247574
446.1720085
439.9717795
445.9723027
442.6589717
441.5776779
423.1071377
422.5507228
411.5748411
419.9197413
414.7590573
418.0120698
415.7195953
422.2751562
423.7719716
423.1412597
438.9727349
427.0001033
442.0435136
436.4638917
440.421437
452.4330481
438.204715
443.3493792
449.1445243
434.3413042
443.8083929
454.651738
451.7430138
443.6650526
433.7507601
436.0990923
440.3299816
442.6230499
437.490716
416.5897932
421.3913711
421.0795333
409.1521086
415.3932963
401.5007824
415.4623347
417.7867344
421.9115373
430.8673287
431.0792
425.7907188
422.1509581
429.0661352
429.5097229
422.5837414
426.4178269
429.2264854
431.8489592
434.0105172
433.4255178
449.1286701
449.0516893
451.5508285
440.2815511
437.5188402
442.63914
437.2894755
437.1475938
429.4633348
424.5789306
414.7907363
414.995873
408.9177452
400.2711579
393.3558103
421.2592645
421.1360392
417.6035645
429.1472985
411.0222379
421.6864362
423.5146377
425.8748842
424.6794881
418.7633295
427.0372909
435.140576
443.0297698
429.6967201
429.9472817
436.8433822
447.2663446
441.2693118
441.333976
430.2918276
430.1720073
426.6163229
438.1980788
422.8012196
422.2976966
411.1815061
396.2992015
401.2030839
405.5306016
404.1766721
418.3132166
424.4006619
420.6427287
410.6092716
427.0222873
419.470554
418.7598737
417.3904344
420.2686356
428.5890361
425.7269839
425.9831405
433.3128899
423.5896676
435.0426926
440.3760138
435.1837707
434.9126878
438.1272859
429.7243984
434.751631
438.9613783
426.0530479
425.7001512
430.0989699
420.7191037
399.1542594
411.2679607
409.8425086
414.4694962
408.9264956
412.6279397
416.3397451
410.6653347
419.1478699
412.5982255
414.859286
407.0025596
418.8765271
417.2823332
415.5318415
419.4384153
418.2746363
414.6037562
428.9045179
417.0937325
422.6532835
425.9716439
427.5796067
424.1224169
420.8548111
414.3763241
405.7671536
417.9071649
426.4710219
425.5018097
408.1938362
399.8649128
405.8907665
406.1480311
402.1876305
406.441896
401.7772836
412.7826657
415.5593465
403.2674211
406.6032552
401.0481814
408.4906713
416.2200582
423.4834509
419.6248526
418.0180617
421.2118763
422.8610296
425.5505547
417.8348904
419.5172084
423.8430289
427.6594735
420.6351506
417.1562715
414.9138472
422.5232244
422.6080504
417.8468703
403.820855
403.2311213
403.5029578
404.8263492
394.2855686
391.6202967
392.713939
398.506171
402.5442632
400.9576206
409.9781231
406.9706776
405.5314822
419.8881129
415.0546441
416.0117432
410.0543205
414.7779928
413.7273957
406.8416338
409.2993584
412.7862277
409.618282
411.3279806
408.3848353
402.3170042
405.0981532
415.5469669
420.0565187
414.706772
409.9815848
399.09509
401.980083
398.8936592
390.4488134
382.9903332
388.8709115
387.8929206
404.9930955
403.2951333
411.3733335
410.1444166
410.8205386
411.0845141
401.3561945
404.4418262
407.4173484
412.4009029
414.5295353
403.4312489
400.84625
406.2648094
404.4757184
405.4135777
405.1358991
401.4585291
395.0762953
407.0196409
413.5738578
397.8426107
406.082007
398.190133
391.7626929
394.8820194
372.2304939
372.3373251
389.7912748
390.4177499
394.8219935
394.4964211
400.6851719
398.806888
394.7958521
395.6850644
392.6521049
402.0217471
406.8425423
408.2112298
399.6098957
402.855366
393.8879197
407.4193628
405.7322468
397.7909827
404.9981613
404.7568957
405.3481534
406.3506408
395.4430436
389.8160211
391.8554711
393.7129664
387.8070657
383.0636071
380.3204248
367.5996351
381.3328954
391.1674824
385.8042874
385.2983486
397.8613972
394.7701379
392.4570498
397.3986312
395.7388063
402.7199657
401.8124892
393.9215144
404.5012125
396.3021813
401.4293753
402.8839616
401.757752
385.4132184
393.5350681
396.3113634
402.2835178
393.6838247
384.5733758
383.2009203
392.020971
388.8083514
393.3418933
379.4000799
377.8041015
379.4209872
386.2210452
386.8635263
381.7724255
384.9035716
389.2936183
384.0478878
388.3027219
387.2955923
381.0568766
390.3782874
393.2716002
389.0035022
393.3973582
383.4681477
379.9446523
394.3837189
392.9623962
389.8840129
382.7318798
382.1828594
386.6538935
381.0524958
389.1726486
390.0146178
384.9987627
387.1634798
384.421337
373.797518
368.1785635
373.7742639
377.753025
368.5170276
380.1692756
380.8458934
378.7163497
379.0260932
377.3877732
383.432605
383.2807381
379.9282708
387.8184567
383.5415883
382.4901366
382.8594205
377.7635312
386.3887231
377.5290996
375.4723085
375.5864352
388.2396486
387.739665
378.4203603
386.3392064
377.8617307
375.3868147
378.454122
379.1807805
371.125457
351.8516876
353.9483148
362.3155394
369.0079145
364.0772633
367.3409285
372.2723061
366.4144813
367.454035
371.8588848
361.6092302
365.2477825
376.7044108
367.8258618
367.7690272
365.8794742
361.3496425
366.1914635
371.0791001
364.5606013
366.9552638
374.6037661
375.3228317
367.0527597
367.2749676
367.2904303
370.3957389
368.6748171
366.4226694
374.8102675
348.3030523
348.2338494
354.805076
362.9924202
355.1996009
363.2262129
361.9072032
353.2886281
351.9333294
348.8762976
350.1943326
348.323472
359.0012197
354.2395488
362.5832315
360.3071155
356.2232963
357.1489817
363.1422637
355.9374696
355.9099947
351.6266354
352.3789944
353.7751593
351.415196
360.1932775
359.0091396
360.8814326
361.6187227
347.9083214
329.7429078
333.112572
341.6819447
342.8086485
341.9336029
338.5860524
339.707901
342.6693296
338.2070489
333.6136488
338.6139647
333.1914375
342.4351491
343.3522584
341.0184775
331.9741587
336.0987112
342.0613396
338.751194
340.1715888
346.0526605
338.2367313
341.2959406
337.8385808
342.7738128
338.9730075
334.6779069
332.7402351
332.9227559
340.1533046
)
;

boundaryField
{
    flow
    {
        type            calculated;
        value           nonuniform List<scalar> 
55
(
433.5832843
413.1627324
426.9225318
425.3319599
434.7873699
420.0841875
403.6306232
425.8337998
422.8573552
414.7590573
401.5007824
393.3558103
404.1766721
414.4694962
406.1480311
404.8263492
398.8936592
394.8820194
383.0636071
379.4000799
373.797518
371.125457
374.8102675
347.9083214
340.1533046
329.7429078
333.112572
341.6819447
342.8086485
341.9336029
338.5860524
339.707901
342.6693296
338.2070489
333.6136488
338.6139647
333.1914375
342.4351491
343.3522584
341.0184775
331.9741587
336.0987112
342.0613396
338.751194
340.1715888
346.0526605
338.2367313
341.2959406
337.8385808
342.7738128
338.9730075
334.6779069
332.7402351
332.9227559
340.1533046
)
;
    }
    obstacle
    {
        type            calculated;
        value           nonuniform 0();
    }
    frontAndBack
    {
        type            empty;
    }
    procBoundary3to1
    {
        type            processor;
        value           nonuniform List<scalar> 
36
(
431.80611
476.1941869
476.6088943
465.4637062
452.4049671
441.7184318
441.7184318
486.356796
486.1404824
486.3719105
475.6044709
471.8695405
471.8695405
493.1407602
477.432003
472.9323358
473.9066406
467.0662709
467.0662709
475.2491607
468.3237208
473.7460717
479.4881305
487.6381341
476.1313877
476.1313877
450.3932933
466.5077233
471.163771
466.761173
460.4446034
471.0467742
471.0467742
447.611111
441.4890319
441.4890319
)
;
    }
    procBoundary3to2
    {
        type            processor;
        value           nonuniform List<scalar> 
19
(
445.9068678
436.2124694
420.2082878
425.6264232
409.2000136
413.1352591
416.5881871
396.0161325
398.4967662
397.7119102
394.8271229
388.2431157
380.1405004
377.2199821
381.4044077
373.6627778
363.0970669
346.4498158
336.8594492
)
;
    }
}


// ************************************************************************* //
