/*--------------------------------*- C++ -*----------------------------------*\
  =========                 |
  \\      /  F ield         | OpenFOAM: The Open Source CFD Toolbox
   \\    /   O peration     | Website:  https://openfoam.org
    \\  /    A nd           | Version:  7
     \\/     M anipulation  |
\*---------------------------------------------------------------------------*/
FoamFile
{
    version     2.0;
    format      ascii;
    class       volScalarField;
    location    "0.007";
    object      rhoM;
}
// * * * * * * * * * * * * * * * * * * * * * * * * * * * * * * * * * * * * * //

dimensions      [1 -3 0 0 0 0 0];

internalField   nonuniform List<scalar> 
654
(
8.988221135e-06
7.865464248e-06
1.122000866e-05
6.627392345e-06
1.216792666e-05
1.631123865e-05
1.636876733e-05
1.073300657e-05
6.285865507e-06
7.485513739e-06
1.483412057e-05
7.079461272e-06
7.775356866e-06
8.208797598e-06
1.122987122e-05
1.346848657e-05
1.377956143e-05
1.655736942e-05
8.96671977e-06
1.004574075e-05
8.524745754e-06
6.723802219e-06
6.609491737e-06
1.116644498e-05
9.167763447e-06
6.869034653e-06
7.017594732e-06
1.04841433e-05
1.310910685e-05
1.249722563e-05
1.675195919e-05
1.058963427e-05
1.631123879e-05
1.201724795e-05
4.590387745e-06
8.932896334e-06
5.868817917e-06
5.754070503e-06
5.963148348e-06
3.046768445e-06
6.060560594e-06
1.021259853e-05
1.308154434e-05
7.574111926e-06
9.440654277e-06
7.616837884e-06
5.150508651e-06
8.189758169e-06
7.017594732e-06
6.36279972e-06
8.318178225e-06
1.322675016e-05
1.224121927e-05
1.272562901e-05
1.331240503e-05
1.96806972e-05
4.310146235e-06
3.275817907e-06
6.140264422e-06
6.651332685e-06
6.312089929e-06
5.104719076e-06
5.777425506e-06
4.147484811e-06
3.939900717e-06
4.861715008e-06
5.472676137e-06
5.270782989e-06
6.724539897e-06
6.110470018e-06
7.258855387e-06
6.04314432e-06
9.098485402e-06
7.964005557e-06
6.984061282e-06
6.252555577e-06
8.526924501e-06
1.245550222e-05
1.401235712e-05
1.00337073e-05
8.468827312e-06
1.003193181e-05
1.546809896e-05
9.650606991e-06
4.917062651e-06
8.407032607e-06
9.225001458e-06
4.799838191e-06
6.677606894e-06
3.867097183e-06
4.597671888e-06
5.182991199e-06
4.59038771e-06
5.822763116e-06
8.12018972e-06
4.052079811e-06
1.878503618e-06
5.352859925e-06
4.815349548e-06
2.930091784e-06
3.122664995e-06
4.936306679e-06
8.839791465e-06
4.328127978e-06
8.991637314e-06
6.956800112e-06
1.350185547e-05
1.13815893e-05
9.674142629e-06
1.404719046e-05
8.099653474e-06
1.170280168e-05
1.068729654e-05
6.906762337e-06
3.79962999e-06
6.980323065e-06
2.872823686e-06
5.409079341e-06
8.13478723e-06
4.485609174e-06
5.143253877e-06
6.282585649e-06
4.590387745e-06
5.18483634e-06
1.688528853e-06
4.052079843e-06
5.228423928e-06
4.612183045e-06
6.060560594e-06
2.930091736e-06
1.021327721e-05
6.808628173e-06
6.951660537e-06
6.404878667e-06
6.372877057e-06
3.698874137e-06
1.003839417e-05
8.334158643e-06
1.057739273e-05
1.122000857e-05
1.067721908e-05
9.939354318e-06
1.199985089e-05
1.182636684e-05
3.651117584e-06
7.356153584e-06
5.368842514e-06
2.133261434e-06
3.914395458e-06
5.645552072e-06
5.143253877e-06
5.654516219e-06
4.036309689e-06
4.067984115e-06
2.814214776e-06
7.536829524e-06
4.575116911e-06
4.117737186e-06
4.732602095e-06
5.691309414e-06
4.220312111e-06
7.574111926e-06
5.578850366e-06
7.444296594e-06
5.674681277e-06
6.869034711e-06
8.794661447e-06
7.079461272e-06
7.052321152e-06
7.297441494e-06
9.20495787e-06
9.289074362e-06
8.905327727e-06
9.556306112e-06
4.469730644e-06
3.902490325e-06
5.594925444e-06
6.246097726e-06
4.37523885e-06
8.275625231e-06
3.974417872e-06
7.538724423e-06
3.957428039e-06
3.908982818e-06
5.948947433e-06
4.619410027e-06
5.881730899e-06
1.012919705e-05
4.732602133e-06
5.021862213e-06
3.038543344e-06
4.851480686e-06
6.179713252e-06
5.626357815e-06
5.848704535e-06
6.25255563e-06
4.974930857e-06
5.108102349e-06
2.531714126e-06
8.026965907e-06
6.074740106e-06
8.546216916e-06
5.250216987e-06
7.663449177e-06
3.203785551e-06
3.152637228e-06
3.176088907e-06
5.409079302e-06
5.526422913e-06
8.352706481e-06
4.910237621e-06
4.005124704e-06
8.626697434e-06
2.95113189e-06
5.788688492e-06
3.403981347e-06
2.940865472e-06
4.199814206e-06
6.890034671e-06
1.188722474e-05
6.499727944e-06
5.616964479e-06
1.132878513e-05
3.029898043e-06
3.754116952e-06
4.31535316e-06
8.883193819e-06
3.942717845e-06
5.786464027e-06
7.845134076e-06
8.007914169e-06
5.479972069e-06
9.937588132e-06
9.650607078e-06
5.215882263e-06
1.576318637e-06
4.310146235e-06
4.875763947e-06
4.375238818e-06
7.965437742e-06
7.170237443e-06
4.633194021e-06
6.252621864e-06
9.252820455e-06
2.894344224e-06
4.052079811e-06
2.859448047e-06
3.623291326e-06
5.644823586e-06
4.771575627e-06
3.629427723e-06
6.04314442e-06
6.780576137e-06
6.146066731e-06
5.150508651e-06
7.485513739e-06
7.550928722e-06
9.050820195e-06
5.966678569e-06
3.374874451e-06
1.021630601e-05
8.081091941e-06
6.843065138e-06
7.663449247e-06
4.917062686e-06
5.929443981e-06
6.048912639e-06
2.818428305e-06
2.763211436e-06
7.269844626e-06
4.052089969e-06
5.732788463e-06
4.036309689e-06
2.392705778e-06
6.271401977e-06
2.998187728e-06
3.022282876e-06
4.694260066e-06
4.732602133e-06
4.268986197e-06
5.402080784e-06
3.063985161e-06
3.776261711e-06
3.116168714e-06
8.119418196e-06
4.931832183e-06
5.063463272e-06
5.018789526e-06
7.775356934e-06
9.304182971e-06
5.983000943e-06
7.430812052e-06
1.27495593e-05
4.73100253e-06
3.725373774e-06
4.353125325e-06
6.502899787e-06
4.266522868e-06
5.910767186e-06
3.944178338e-06
7.325581692e-06
3.29878309e-06
3.007035228e-06
4.546909564e-06
8.522773732e-06
5.105971981e-06
3.103700254e-06
6.011459822e-06
8.30274052e-06
5.691309368e-06
6.667971092e-06
5.532138526e-06
3.605177341e-06
2.510189101e-06
4.452312817e-06
5.811607458e-06
3.197864185e-06
6.63073832e-06
5.876571323e-06
4.561175604e-06
8.652305636e-06
9.566806834e-06
7.405910919e-06
6.150075427e-06
6.108751571e-06
5.028173956e-06
4.310146204e-06
2.666576773e-06
5.987266265e-06
4.021259434e-06
5.766507928e-06
7.303907819e-06
3.482231634e-06
3.988483482e-06
1.20581539e-06
1.863527265e-06
7.841651934e-06
2.306091523e-06
3.652885839e-06
2.344073408e-06
4.472676914e-06
5.616964479e-06
2.488993741e-06
4.241857295e-06
6.111842298e-07
4.315353124e-06
3.109331786e-06
7.706809957e-06
1.16630353e-05
3.28395854e-06
4.877696465e-06
4.179412206e-06
4.780802425e-06
4.825303495e-06
4.768550219e-06
3.827685787e-06
6.427538824e-06
3.199892151e-06
5.373424715e-06
5.49138982e-06
3.896745803e-06
4.55492189e-06
3.482231634e-06
5.18483634e-06
6.431660868e-06
2.998187705e-06
3.512755086e-06
5.02256815e-06
1.743695506e-06
6.863346063e-06
5.654445585e-06
5.616964479e-06
5.493308166e-06
4.328127905e-06
3.142932753e-06
1.250511137e-05
5.773862007e-06
6.36279972e-06
3.254749902e-06
3.922567038e-06
6.719131448e-06
3.43655476e-06
5.999925446e-06
6.24437645e-06
5.960239096e-06
5.404004439e-06
4.310146235e-06
5.027615496e-06
5.373424754e-06
5.258283454e-06
5.455819497e-06
3.926852473e-06
4.036309689e-06
7.577542118e-06
3.457187175e-06
5.267508585e-06
4.737951717e-06
4.199814206e-06
4.234117708e-06
3.51611014e-06
5.063561232e-06
8.341645784e-06
6.866118337e-06
6.838316985e-06
4.976485443e-06
6.428086486e-06
4.618661655e-06
4.032030712e-06
4.430499758e-06
4.652091526e-06
3.313696143e-06
7.338234429e-06
1.031131325e-05
2.081458779e-06
3.278041791e-06
4.878564898e-06
4.839494359e-06
6.094246213e-06
5.987266265e-06
5.491389779e-06
2.805581866e-06
4.633194056e-06
4.59038771e-06
5.743262453e-06
4.663002582e-06
4.619410063e-06
5.881730899e-06
5.352859968e-06
4.15137026e-06
4.102128431e-06
5.147682832e-06
2.383327387e-06
4.206040196e-06
4.934107555e-06
5.761692881e-06
1.937202469e-06
2.575997822e-06
1.254697382e-06
5.696356832e-06
5.929308549e-06
4.602478976e-06
3.343977269e-06
5.437079549e-06
5.487689483e-06
4.917062651e-06
2.776806731e-06
3.780798049e-06
5.485005058e-06
7.061951208e-06
4.562690333e-06
3.896745774e-06
3.29878309e-06
8.626697434e-06
5.18483638e-06
4.582873112e-06
5.267508585e-06
2.940865472e-06
6.011459917e-06
4.316865123e-06
8.537972325e-06
5.486202429e-06
4.340474797e-06
6.864050795e-07
4.24185726e-06
4.365301213e-06
5.195128385e-06
3.819730514e-06
3.136743427e-06
4.520607004e-06
8.026965907e-06
4.694218097e-06
6.502799558e-06
4.874233706e-06
8.042932218e-06
5.960239096e-06
5.854639428e-06
2.11739262e-06
3.960984779e-06
4.067393615e-06
1.624292596e-06
2.182327815e-06
6.832382835e-06
4.194072989e-06
3.908982788e-06
4.582873112e-06
6.402169075e-06
4.575116911e-06
5.434936989e-06
6.559045067e-06
7.115649073e-06
4.136190442e-06
3.744642956e-06
4.206040196e-06
5.020378159e-06
2.618760106e-06
5.107362985e-06
5.240528017e-06
3.764092112e-06
7.142428335e-06
5.838392668e-06
4.049826737e-06
2.693697314e-06
2.155693951e-06
3.311929749e-06
6.333314978e-06
5.254395455e-06
7.636957116e-06
4.266522868e-06
4.528237008e-06
6.10990177e-06
2.182327815e-06
5.811060664e-06
5.1444658e-06
3.988483451e-06
9.808718573e-06
4.213616414e-06
7.188344922e-06
2.306091523e-06
4.234117674e-06
4.771575665e-06
4.220312111e-06
5.447312573e-06
4.892445281e-06
3.808418974e-06
3.14293278e-06
4.403118598e-06
5.950926752e-06
6.452112587e-06
3.887678433e-06
5.929308549e-06
4.602478976e-06
4.086834716e-06
2.811971055e-06
3.406230654e-06
4.842806435e-06
4.502734346e-06
2.646740775e-06
3.885059022e-06
6.90710413e-06
4.485609207e-06
2.727909769e-06
3.377055291e-06
4.590387745e-06
7.498041454e-06
4.020030157e-06
5.186740323e-06
3.103700254e-06
5.352859925e-06
5.396581345e-06
7.86852506e-06
7.849739799e-06
5.616964479e-06
6.951660594e-06
2.510189101e-06
3.142932727e-06
2.553681492e-06
4.530129282e-06
6.63073832e-06
5.243642786e-06
5.381615899e-06
9.113218708e-06
2.693697314e-06
2.718539774e-06
6.718160404e-06
7.673516195e-06
3.902490325e-06
4.839494359e-06
5.8664689e-06
3.761397328e-06
3.248585216e-06
5.611163733e-06
4.554921855e-06
2.770390257e-06
4.067984146e-06
4.582873112e-06
2.430857485e-06
5.309841331e-06
6.423828708e-06
5.063591751e-06
3.599538961e-06
6.499727944e-06
4.25564888e-06
9.269569877e-06
5.020378159e-06
4.015151796e-06
4.490883962e-06
4.441596872e-06
3.315369189e-06
2.802035884e-06
5.929308549e-06
3.313696143e-06
6.037674529e-06
4.124525302e-06
2.743844716e-06
4.172705811e-06
3.15263725e-06
6.048912595e-06
5.409079341e-06
8.442632466e-06
4.408528081e-06
4.442327728e-06
5.732788419e-06
3.957428039e-06
2.792130563e-06
7.557346828e-06
1.70199066e-06
3.675589864e-06
9.634751195e-06
5.479328802e-06
4.688146816e-06
6.667971038e-06
3.659817003e-06
3.089856626e-06
3.722148328e-06
3.841128587e-06
4.666414763e-06
4.530129282e-06
8.064061424e-06
3.164642685e-06
4.652091485e-06
6.535653124e-06
6.595377048e-06
6.843065138e-06
7.474847382e-06
5.512907089e-06
7.204736598e-06
2.797462722e-06
2.133261434e-06
4.528237008e-06
4.562690299e-06
8.261401404e-06
6.204313447e-06
5.1444658e-06
6.860114678e-06
5.868817917e-06
5.267508585e-06
4.003227297e-06
3.541214305e-06
5.97781318e-06
3.013520609e-06
7.090612302e-06
6.382448232e-06
3.776261711e-06
6.318608022e-06
4.452312817e-06
3.170160542e-06
4.618661655e-06
1.971358923e-06
3.797571188e-06
7.206525613e-06
6.627392345e-06
1.300559912e-06
1.96883137e-06
6.244376336e-06
)
;

boundaryField
{
    flow
    {
        type            zeroGradient;
    }
    obstacle
    {
        type            calculated;
        value           nonuniform 0();
    }
    frontAndBack
    {
        type            empty;
    }
    procBoundary3to1
    {
        type            processor;
        value           nonuniform List<scalar> 
36
(
1.050159496e-05
1.68165708e-05
1.468579874e-05
1.21494801e-05
1.198277168e-05
1.349926759e-05
1.349926759e-05
1.367663397e-05
6.984061282e-06
1.012696048e-05
1.19018534e-05
1.030551765e-05
1.030551765e-05
6.641792482e-06
6.110470117e-06
1.240653828e-05
6.38244818e-06
1.381777887e-05
1.381777887e-05
5.856307156e-06
5.822763116e-06
1.053182054e-05
9.561893335e-06
4.16606207e-06
5.847305828e-06
5.847305828e-06
3.931519975e-06
5.409079341e-06
4.375238883e-06
5.104121202e-06
7.325581692e-06
5.104719076e-06
5.104719076e-06
7.525003818e-06
4.72895591e-06
4.72895591e-06
)
;
    }
    procBoundary3to2
    {
        type            processor;
        value           nonuniform List<scalar> 
19
(
8.505834972e-06
3.180473627e-06
4.142343636e-06
5.399077207e-06
5.916870199e-06
4.73385249e-06
4.437207268e-06
4.80756839e-06
4.363491336e-06
4.73385249e-06
3.180473627e-06
6.582094954e-06
7.988042017e-06
3.254189504e-06
2.662680691e-06
3.624550681e-06
5.769438399e-06
3.180473627e-06
5.916870199e-06
)
;
    }
}


// ************************************************************************* //
