/*--------------------------------*- C++ -*----------------------------------*\
  =========                 |
  \\      /  F ield         | OpenFOAM: The Open Source CFD Toolbox
   \\    /   O peration     | Website:  https://openfoam.org
    \\  /    A nd           | Version:  7
     \\/     M anipulation  |
\*---------------------------------------------------------------------------*/
FoamFile
{
    version     2.0;
    format      ascii;
    class       volScalarField;
    location    "0.007";
    object      rhoN;
}
// * * * * * * * * * * * * * * * * * * * * * * * * * * * * * * * * * * * * * //

dimensions      [0 -3 0 0 0 0 0];

internalField   nonuniform List<scalar> 
654
(
1.28203731e+20
6.805683252e+19
8.240110161e+19
6.928939805e+19
5.593806071e+19
4.234045957e+19
7.122429437e+19
9.122273678e+19
7.886248126e+19
6.628806754e+19
1.203612314e+20
9.443958704e+19
1.225022964e+20
8.240110016e+19
8.314727692e+19
1.258606366e+20
1.411348652e+19
1.994280261e+20
7.499765615e+19
6.301272551e+19
5.082876161e+19
7.68815286e+19
1.292178248e+20
1.433500161e+20
6.571873439e+19
9.280329377e+19
1.337347016e+19
6.745684789e+19
6.805683133e+19
9.61346177e+19
9.700515727e+19
6.992257589e+19
2.82269733e+19
9.971401303e+19
7.149394266e+19
8.406414597e+19
6.05207474e+19
8.540454926e+19
1.229870137e+20
8.678839064e+19
8.749726551e+19
7.561527122e+19
1.397790956e+20
7.68815286e+19
3.876534743e+19
5.212727816e+19
7.886248126e+19
1.193185216e+20
8.024082096e+19
8.094821746e+19
1.497250302e+20
8.240110161e+19
4.157363846e+19
1.118761204e+20
2.822697305e+19
1.13958872e+20
6.830298825e+19
1.261606224e+20
6.933451245e+19
1.746551192e+20
1.05596508e+20
8.276516776e+19
1.549035424e+20
6.004581901e+19
6.052074834e+19
1.098058499e+20
1.106883124e+20
7.439004971e+19
1.124964851e+20
1.134229059e+20
6.35359515e+19
6.406793945e+19
1.292178237e+19
9.122273678e+19
5.257498707e+19
1.060609063e+20
8.024082027e+19
9.443958704e+19
9.527956387e+19
4.120055008e+19
1.247209154e+20
1.118761214e+20
4.234045957e+19
1.282037299e+20
1.009525592e+20
6.779865006e+19
6.830298725e+19
5.734573705e+19
3.466725622e+19
5.821837262e+19
1.055965064e+20
1.182359522e+19
1.072409132e+20
2.401832742e+19
1.573539432e+20
7.320389879e+19
1.106883106e+20
7.439004853e+19
6.249804729e+19
6.301272653e+19
6.353595253e+19
7.68815286e+19
7.75306955e+19
9.12227383e+19
9.200622892e+19
1.325761351e+20
6.68673508e+19
6.745684847e+19
9.527956553e+19
8.240110161e+19
8.314727766e+19
9.789160625e+19
1.270213787e+20
8.546915403e+19
7.851865717e+19
9.039820073e+19
7.968681962e+19
6.881488497e+19
6.933451245e+19
1.164367452e+20
1.525282882e+20
1.064123585e+20
1.07240914e+20
1.080824734e+20
6.05207474e+19
1.220064989e+20
6.149350687e+19
7.439004912e+19
1.624949217e+20
5.041018041e+19
6.353595201e+19
7.68815286e+19
1.292178248e+20
6.51590977e+19
7.88624806e+19
1.060609072e+20
2.674694032e+19
1.214223262e+20
1.088909301e+20
5.493406725e+19
1.108630369e+20
2.796903036e+19
1.552483532e+20
9.971401303e+19
1.233864621e+20
9.039820073e+19
1.479898068e+20
4.587658998e+19
8.089026452e+19
9.314939689e+19
9.386356194e+19
1.064123577e+20
7.149394266e+19
9.607330968e+19
8.472904702e+19
8.540454992e+19
2.459740275e+19
3.719502456e+19
7.499765615e+19
8.821781643e+19
1.524862861e+20
6.40679405e+19
7.753069486e+19
7.819091724e+19
3.943124063e+19
7.954568105e+19
1.069877613e+20
6.745684789e+19
5.444546554e+19
1.236016513e+20
6.928939743e+19
1.118761214e+20
1.270213787e+20
1.13958872e+20
1.121695102e+20
5.649887545e+19
9.1070651e+19
1.032223275e+20
1.155575207e+20
6.986204714e+19
5.866472621e+19
9.458876315e+19
5.957828555e+19
7.205498281e+19
4.84165983e+19
4.880259919e+19
4.919480511e+19
8.678839064e+19
6.249804729e+19
5.041018082e+19
1.397790933e+20
2.562717599e+19
5.168712991e+19
5.212727859e+19
5.257498795e+19
1.060609072e+20
4.012041014e+19
9.443958704e+19
2.722273253e+19
1.236016513e+20
5.543151844e+19
8.390709107e+19
9.879440567e+19
1.424485887e+20
8.973560819e+19
7.909842506e+19
4.553532483e+19
5.734573705e+19
1.386690259e+20
6.986204818e+19
1.05596508e+20
1.064123585e+20
8.340959977e+19
1.321008008e+20
1.69458094e+20
1.464077999e+20
8.609090961e+19
3.719502456e+19
3.749882808e+19
5.041018082e+19
8.895033354e+19
1.28135881e+20
7.753069486e+19
9.122273678e+19
1.445812144e+20
1.060609072e+20
5.349388064e+19
1.079309566e+20
1.769477615e+20
9.613461685e+19
5.543151746e+19
9.789160537e+19
1.552483518e+20
5.697943602e+19
8.973560883e+19
1.129977517e+20
4.55353255e+19
1.146914741e+20
8.089026392e+19
1.047930707e+20
1.290623967e+20
8.276516651e+19
9.532525615e+19
8.406414597e+19
1.210414948e+20
8.540454859e+19
1.229870128e+20
9.918673216e+19
4.999843743e+19
7.561527061e+19
7.624314242e+19
1.153222929e+20
6.460891238e+19
1.172863759e+20
7.886248126e+19
1.060609081e+20
5.349388064e+19
1.214223262e+20
9.52795647e+19
1.098681355e+20
1.108630369e+20
6.992257589e+19
1.129078932e+20
7.122429502e+19
6.730170662e+19
9.039820073e+19
9.1070651e+19
1.146914749e+20
6.933451245e+19
1.047930707e+20
1.055965072e+20
7.094157237e+19
3.574697133e+19
6.004581855e+19
7.262489744e+19
1.098058499e+20
9.838961099e+19
1.239834152e+20
8.749726621e+19
5.041018122e+19
1.524862848e+20
6.406793997e+19
6.460891238e+19
6.515909824e+19
1.577249625e+20
7.954568038e+19
1.069877613e+20
1.484050666e+20
8.166819831e+19
5.493406725e+19
9.700515727e+19
1.258606377e+20
5.645394661e+19
7.122429437e+19
1.682542654e+20
7.909842506e+19
5.691915646e+19
1.261606224e+20
6.933451245e+19
4.657469844e+19
1.407953429e+20
4.729438122e+19
4.766262844e+19
7.205498226e+19
1.210414948e+20
7.320389936e+19
7.379220766e+19
9.918673137e+19
6.249804679e+19
5.041018041e+19
7.624314242e+19
1.153222929e+20
7.75306955e+19
5.212727859e+19
6.571873439e+19
1.193185216e+20
1.069877613e+20
9.443958704e+19
8.166819831e+19
1.098681345e+20
8.314727692e+19
1.53829667e+20
1.270213787e+20
1.28203731e+20
8.973560883e+19
6.779865104e+19
5.691915646e+19
4.587658964e+19
6.933451245e+19
1.047930707e+20
8.21306167e+19
1.064123585e+20
1.310722282e+20
1.441099656e+20
8.472904767e+19
7.320389936e+19
7.379220766e+19
9.918673216e+19
7.499765615e+19
1.764356329e+20
8.895033354e+19
8.96951167e+19
6.460891238e+19
1.303181965e+20
1.708687094e+20
7.95456797e+19
5.349388018e+19
9.443958704e+19
9.527956387e+19
8.240110088e+19
6.928939805e+19
1.258606366e+20
8.468091915e+19
4.273457662e+19
8.973560819e+19
1.355973001e+20
1.138383129e+20
9.175317996e+19
9.24460166e+19
8.150572227e+19
1.173294533e+20
7.094157237e+19
5.957828555e+19
9.607330968e+19
9.683319584e+19
6.100324947e+19
6.149350687e+19
8.678839064e+19
6.249804679e+19
8.821781572e+19
1.27071904e+20
8.96951167e+19
1.162960423e+20
1.172863759e+20
7.886248126e+19
1.856065891e+20
1.069877613e+20
6.745684789e+19
1.088909301e+20
8.240110016e+19
8.314727692e+19
6.992257589e+19
9.879440656e+19
7.122429567e+19
1.009525592e+20
6.779865055e+19
1.935251334e+20
8.028403246e+19
9.244601728e+19
4.657469844e+19
1.173294515e+20
3.547078591e+19
1.07240914e+20
4.803665484e+19
1.331456443e+20
1.09805849e+20
1.352857151e+20
6.19917076e+19
8.749726621e+19
8.821781714e+19
1.651934752e+20
5.125435198e+19
1.421396072e+20
1.303181954e+19
1.05149975e+20
9.280329456e+19
5.349388064e+19
9.443958704e+19
5.444546554e+19
1.373351693e+20
8.314727692e+19
1.538296656e+20
9.879440567e+19
8.546915325e+19
5.608475552e+19
1.129977509e+20
5.691915646e+19
1.376297699e+20
1.155575207e+20
9.314939619e+19
7.039767146e+19
1.18235953e+19
1.072409132e+20
9.607330968e+19
6.052074787e+19
9.760519915e+19
1.721818179e+20
8.678839064e+19
8.749726551e+19
7.561527061e+19
3.812157121e+19
6.40679405e+19
1.162960423e+20
7.819091789e+19
7.886248126e+19
1.060609072e+20
1.069877613e+20
9.443958786e+19
6.805683193e+19
5.493406725e+19
1.662945553e+20
6.992257589e+19
8.468091915e+19
9.971401303e+19
1.009525592e+20
1.129977509e+20
1.252221442e+20
5.734573705e+19
1.271132728e+20
5.821837305e+19
9.386356194e+19
1.064123577e+20
1.549035424e+20
1.441099656e+20
7.262489744e+19
1.342071488e+20
4.919480549e+19
7.439004971e+19
7.499765675e+19
7.561527122e+19
6.353595253e+19
1.281358799e+20
5.168712948e+19
1.303181954e+20
1.182937219e+20
1.193185206e+20
9.361429032e+19
9.443958704e+19
1.088909311e+20
1.373351681e+20
1.662945538e+20
8.390709107e+19
8.468091915e+19
1.13958871e+20
8.973560819e+19
2.259955002e+19
1.138383129e+20
1.032223275e+20
4.62230083e+19
1.513677688e+20
1.173294524e+20
9.458876315e+19
1.07240914e+20
4.803665484e+19
7.262489744e+19
6.100324995e+19
3.689610412e+19
8.678839064e+19
1.249960946e+20
1.386279972e+20
1.27071903e+20
1.02508704e+20
3.876534743e+19
9.122273678e+19
7.88624806e+19
1.060609072e+20
5.349388064e+19
5.396547831e+19
8.16681976e+19
1.098681345e+20
1.108630369e+20
4.195354554e+19
8.468091991e+19
1.282037322e+20
8.973560948e+19
9.039820138e+19
1.138383137e+19
8.028403246e+19
3.466725622e+19
9.314939619e+19
1.525282882e+20
9.458876315e+19
1.07240914e+20
1.080824734e+20
4.841659792e+19
2.44012996e+19
8.609090894e+19
7.439004912e+19
7.499765615e+19
1.764356329e+20
5.082876202e+19
1.409494691e+20
1.292178248e+20
9.122273754e+19
9.200622892e+19
7.954568105e+19
5.349388064e+19
1.484050653e+20
9.527956387e+19
5.493406725e+19
1.108630369e+20
6.992257589e+19
9.879440567e+19
8.546915325e+19
7.851865717e+19
1.468970751e+20
5.691915646e+19
4.587658998e+19
9.24460166e+19
8.150572227e+19
5.866472621e+19
5.911797652e+19
1.429878853e+20
6.004581855e+19
1.331456453e+20
1.342071499e+20
1.106883115e+20
8.678838995e+19
9.999687487e+19
6.301272551e+19
1.27071904e+20
1.153222929e+20
7.75306955e+19
9.122273754e+19
1.577249612e+20
9.280329377e+19
1.337347016e+20
1.484050653e+20
1.361136639e+20
9.61346177e+19
8.314727692e+19
1.118761214e+20
1.834753248e+20
7.122429502e+19
1.009525592e+20
1.016979758e+20
7.968681904e+19
8.028403187e+19
9.244601728e+19
9.314939689e+19
8.21306167e+19
1.18235953e+20
1.429878842e+20
6.004581901e+19
8.472904702e+19
4.880259958e+19
7.379220824e+19
8.678839064e+19
8.749726551e+19
1.386279972e+20
8.895033354e+19
6.40679405e+19
3.876534743e+19
1.303181954e+19
1.971562032e+20
9.280329377e+19
6.686735023e+19
1.079309575e+20
8.166819831e+19
1.098681345e+20
1.108630359e+20
3.111657887e-289
9.879440567e+19
8.546915325e+19
8.973560883e+19
9.039820073e+19
3.415149387e+19
1.032223275e+20
1.155575207e+20
5.821837305e+19
1.055965072e+20
1.300595484e+20
1.549035424e+20
1.080824734e+20
1.210414957e+20
1.09805849e+20
1.598831166e+20
1.115850737e+20
1.37495704e+20
1.008203616e+20
1.27071903e+20
1.15322292e+20
1.033742598e+20
7.819091789e+19
1.182937219e+20
1.193185206e+20
1.203612314e+20
1.079309566e+20
1.361136639e+20
1.648022018e+20
6.928939743e+19
5.593806071e+19
8.468091991e+19
1.282037322e+20
1.233864613e+20
9.039820073e+19
6.830298825e+19
1.490989174e+20
1.155575207e+20
1.397240943e+20
8.21306167e+19
9.458876315e+19
8.340959977e+19
1.200916371e+20
8.472904636e+19
9.760519915e+19
4.919480549e+19
1.239834152e+20
4.999843743e+19
5.041018082e+19
8.895033354e+19
5.12543524e+19
9.045247734e+19
6.51590977e+19
5.257498751e+19
7.954568105e+19
6.68673508e+19
1.349136958e+20
1.225022964e+20
1.098681345e+20
9.700515727e+19
8.390709107e+19
1.129078922e+20
5.69794355e+19
)
;

boundaryField
{
    flow
    {
        type            zeroGradient;
    }
    obstacle
    {
        type            calculated;
        value           nonuniform 0();
    }
    frontAndBack
    {
        type            empty;
    }
    procBoundary3to1
    {
        type            processor;
        value           nonuniform List<scalar> 
36
(
7.122429502e+19
5.444546507e+19
1.098681335e+20
1.108630359e+20
1.118761214e+20
1.129078922e+20
1.129078922e+20
9.122273678e+19
6.571873383e+19
1.060609063e+20
9.361429032e+19
6.745684847e+19
6.745684847e+19
8.749726621e+19
1.764356343e+20
1.143647136e+20
1.02508704e+20
1.292178248e+20
1.292178248e+20
1.191565711e+20
7.205498226e+19
6.052074787e+19
1.342071488e+20
4.919480511e+19
1.115850737e+20
1.115850737e+20
1.138383129e+20
6.881488497e+19
5.77787608e+19
1.280804207e+20
4.693178097e+19
5.911797697e+19
5.911797697e+19
7.851865773e+19
1.016979766e+20
1.016979766e+20
)
;
    }
    procBoundary3to2
    {
        type            processor;
        value           nonuniform List<scalar> 
19
(
8.908265883e+19
1.002179912e+20
7.794732648e+19
8.908265819e+19
8.908265883e+19
5.567666177e+19
3.34059973e+19
3.340599706e+19
6.681199412e+19
1.447593206e+20
1.55894653e+20
4.454132941e+19
7.794732648e+19
1.002179905e+20
1.113533243e+20
1.336239882e+20
6.681199412e+19
7.794732648e+19
7.794732648e+19
)
;
    }
}


// ************************************************************************* //
