/*--------------------------------*- C++ -*----------------------------------*\
  =========                 |
  \\      /  F ield         | OpenFOAM: The Open Source CFD Toolbox
   \\    /   O peration     | Website:  https://openfoam.org
    \\  /    A nd           | Version:  7
     \\/     M anipulation  |
\*---------------------------------------------------------------------------*/
FoamFile
{
    version     2.0;
    format      ascii;
    class       volScalarField;
    location    "0.007";
    object      rhoNMean;
}
// * * * * * * * * * * * * * * * * * * * * * * * * * * * * * * * * * * * * * //

dimensions      [0 -3 0 0 0 0 0];

internalField   nonuniform List<scalar> 
654
(
2.433754511e+20
2.430562272e+20
2.467245937e+20
2.458942158e+20
2.462473344e+20
2.466311608e+20
2.432248603e+20
1.971379192e+20
2.042838693e+20
2.127165148e+20
2.207616034e+20
2.279964365e+20
2.366938815e+20
2.406465272e+20
2.449162433e+20
2.464031619e+20
2.460101674e+20
2.47323312e+20
1.426348281e+20
1.494769871e+20
1.581936286e+20
1.668548832e+20
1.748206411e+20
1.827731323e+20
1.933970916e+20
2.035043656e+20
2.113008285e+20
2.182132662e+20
2.235841913e+20
2.305033462e+20
2.359878116e+20
2.40505692e+20
2.419777449e+20
2.440347845e+20
1.124020958e+20
1.141522478e+20
1.15736419e+20
1.182242975e+20
1.218344497e+20
1.256093691e+20
1.315280323e+20
1.371192925e+20
1.431446857e+20
1.501935577e+20
1.576863575e+20
1.67764198e+20
1.774067846e+20
1.861293179e+20
1.954742818e+20
2.038892864e+20
2.132706665e+20
2.217178212e+20
2.270079036e+20
2.334055518e+20
2.376590158e+20
2.378484458e+20
1.032546031e+20
1.040972596e+20
1.04470602e+20
1.053852355e+20
1.067128139e+20
1.070136728e+20
1.079047863e+20
1.088785102e+20
1.116970931e+20
1.142015698e+20
1.168165796e+20
1.201399303e+20
1.244282552e+20
1.297522036e+20
1.351101085e+20
1.420917066e+20
1.500071256e+20
1.556483292e+20
1.642217275e+20
1.743527662e+20
1.837285525e+20
1.918858222e+20
2.006626505e+20
2.09082982e+20
2.177864746e+20
2.241038535e+20
2.29106243e+20
2.338191835e+20
1.01058319e+20
1.016947466e+20
1.0197636e+20
1.022753028e+20
1.030839118e+20
1.039314388e+20
1.043494619e+20
1.055272764e+20
1.068970614e+20
1.082780512e+20
1.108601759e+20
1.127862926e+20
1.142233087e+20
1.150814051e+20
1.191391347e+20
1.233357098e+20
1.269992925e+20
1.305777848e+20
1.365057112e+20
1.444000097e+20
1.513371028e+20
1.581443897e+20
1.673823525e+20
1.769450955e+20
1.869851751e+20
1.957810936e+20
2.041542824e+20
2.117535288e+20
2.193598724e+20
2.28125312e+20
1.024043532e+20
1.021596523e+20
1.016283415e+20
1.018493067e+20
1.014694081e+20
1.015228616e+20
1.024084983e+20
1.030544575e+20
1.040373045e+20
1.050287146e+20
1.055723918e+20
1.072088536e+20
1.101014886e+20
1.13076417e+20
1.145749907e+20
1.179058113e+20
1.208272276e+20
1.252143829e+20
1.313296132e+20
1.363240025e+20
1.428049309e+20
1.497239099e+20
1.563702551e+20
1.642978987e+20
1.731365789e+20
1.826479259e+20
1.905577228e+20
2.011972177e+20
2.093191367e+20
2.159805522e+20
9.929565602e+19
9.906997098e+19
1.002817961e+20
1.008858983e+20
1.013142309e+20
1.017091611e+20
1.027973617e+20
1.024092262e+20
1.027776493e+20
1.038552478e+20
1.059631837e+20
1.080175832e+20
1.088329654e+20
1.106038335e+20
1.1167151e+20
1.135309287e+20
1.169823958e+20
1.199901e+20
1.222806735e+20
1.264384365e+20
1.321171883e+20
1.386367584e+20
1.444411197e+20
1.523792374e+20
1.617458112e+20
1.714217569e+20
1.806631952e+20
1.88055769e+20
1.970524989e+20
2.067254638e+20
1.003500487e+20
1.006164259e+20
1.010851701e+20
1.008990059e+20
1.011359422e+20
1.017324477e+20
1.032934976e+20
1.038415711e+20
1.045684023e+20
1.050424402e+20
1.0501906e+20
1.05458931e+20
1.064435026e+20
1.062502444e+20
1.086144636e+20
1.100598276e+20
1.127744986e+20
1.151429017e+20
1.179278788e+20
1.200081655e+20
1.246815839e+20
1.288677901e+20
1.351446463e+20
1.416015604e+20
1.47881661e+20
1.567190462e+20
1.66753845e+20
1.763447364e+20
1.849955489e+20
1.929079488e+20
1.01160874e+20
1.005712261e+20
1.00515977e+20
1.006565146e+20
1.015816648e+20
1.008275694e+20
1.013190113e+20
1.021018135e+20
1.02236338e+20
1.017622221e+20
1.022973555e+20
1.032384143e+20
1.033934255e+20
1.053717334e+20
1.0687166e+20
1.072512604e+20
1.085520826e+20
1.100211284e+20
1.125191899e+20
1.1508586e+20
1.185753726e+20
1.232730772e+20
1.292144687e+20
1.328784263e+20
1.382564806e+20
1.449396113e+20
1.523495663e+20
1.62160441e+20
1.707368951e+20
1.820045285e+20
9.997508277e+19
1.005776846e+20
1.005647664e+20
1.013643248e+20
1.015981715e+20
1.024510288e+20
1.024453725e+20
1.016761625e+20
1.023657072e+20
1.027984414e+20
1.034939364e+20
1.042806968e+20
1.043035286e+20
1.050918851e+20
1.05282424e+20
1.065779236e+20
1.074411102e+20
1.089045158e+20
1.113156181e+20
1.137305508e+20
1.152293512e+20
1.174813951e+20
1.217291464e+20
1.275551173e+20
1.334419471e+20
1.373901034e+20
1.438249934e+20
1.531064677e+20
1.61151823e+20
1.695626617e+20
9.958729675e+19
9.987709777e+19
1.003370897e+20
9.9332648e+19
9.981858642e+19
1.001422544e+20
9.981384131e+19
1.004566446e+20
1.013035123e+20
1.004480765e+20
1.010108574e+20
1.019451454e+20
1.019421787e+20
1.024917758e+20
1.036539043e+20
1.045579173e+20
1.062284811e+20
1.074034946e+20
1.085872761e+20
1.110013164e+20
1.125254947e+20
1.144359309e+20
1.160435111e+20
1.190786836e+20
1.241862179e+20
1.294835204e+20
1.341799092e+20
1.405403832e+20
1.490343866e+20
1.574504601e+20
1.027889343e+20
1.013751244e+20
1.011664824e+20
1.013446642e+20
1.012052767e+20
1.015328426e+20
1.017514534e+20
1.015072548e+20
1.018822728e+20
1.029391201e+20
1.022247299e+20
1.016593008e+20
1.02472779e+20
1.037280667e+20
1.03232488e+20
1.043058647e+20
1.046854652e+20
1.046870148e+20
1.056817218e+20
1.072704926e+20
1.100432042e+20
1.119094096e+20
1.145112935e+20
1.170125757e+20
1.189050078e+20
1.236134229e+20
1.285100556e+20
1.324293632e+20
1.387920265e+20
1.476703484e+20
1.001994218e+20
1.00764938e+20
1.009778361e+20
1.012824023e+20
1.008751123e+20
1.004716041e+20
1.015033854e+20
1.006593348e+20
1.001051376e+20
1.004343525e+20
1.007203586e+20
1.013560275e+20
1.013342707e+20
1.021233679e+20
1.025325099e+20
1.036757383e+20
1.04296989e+20
1.071435627e+20
1.076495238e+20
1.085364408e+20
1.091644509e+20
1.112313754e+20
1.119588702e+20
1.13404598e+20
1.171005285e+20
1.187949204e+20
1.233034534e+20
1.277745174e+20
1.310457386e+20
1.365186575e+20
1.001064806e+20
1.001967193e+20
9.994353369e+19
9.952598506e+19
9.872904408e+19
9.873170717e+19
9.852992262e+19
9.932833582e+19
9.925742372e+19
9.919569224e+19
1.002742326e+20
1.009795503e+20
1.019843457e+20
1.02151707e+20
1.023146596e+20
1.028691746e+20
1.033784399e+20
1.034386052e+20
1.04371083e+20
1.059486929e+20
1.076209994e+20
1.080306106e+20
1.096013194e+20
1.120477517e+20
1.135071278e+20
1.152712914e+20
1.190708599e+20
1.21609344e+20
1.252632427e+20
1.292497119e+20
9.941743934e+19
9.906674248e+19
9.90035552e+19
9.942112428e+19
1.004690109e+20
1.005148528e+20
1.008262261e+20
1.004363749e+20
1.006941115e+20
1.008495256e+20
1.004644407e+20
1.007843399e+20
1.004347093e+20
1.01255484e+20
1.008897049e+20
1.013064606e+20
1.016066945e+20
1.027686367e+20
1.037028423e+20
1.04399768e+20
1.041247628e+20
1.056025734e+20
1.072972616e+20
1.087597122e+20
1.092564935e+20
1.103468466e+20
1.117143056e+20
1.149966651e+20
1.191178263e+20
1.232831486e+20
1.016448061e+20
1.010684169e+20
1.008347251e+20
1.001748111e+20
9.975255355e+19
9.944363396e+19
9.970656867e+19
1.001762558e+20
1.003128097e+20
1.007809019e+20
1.01028149e+20
1.015442661e+20
1.017172874e+20
1.02105656e+20
1.032253454e+20
1.029663942e+20
1.029572873e+20
1.021352802e+20
1.026543319e+20
1.031375441e+20
1.047406412e+20
1.049472676e+20
1.047563023e+20
1.056798261e+20
1.072264554e+20
1.085850317e+20
1.099009041e+20
1.120279533e+20
1.144039218e+20
1.172636793e+20
9.979561084e+19
9.987709777e+19
1.006590888e+20
1.008858975e+20
1.017698577e+20
1.017557358e+20
1.018050897e+20
1.01611978e+20
1.010515812e+20
1.0085982e+20
1.012563987e+20
1.012514505e+20
1.012042566e+20
1.012484e+20
1.010182723e+20
1.012560496e+20
1.016938303e+20
1.02801586e+20
1.027872408e+20
1.022997834e+20
1.021682222e+20
1.028601405e+20
1.02692966e+20
1.03355455e+20
1.032324916e+20
1.046690174e+20
1.065314587e+20
1.073491341e+20
1.097585685e+20
1.125669448e+20
1.003756874e+20
1.005744546e+20
1.006883615e+20
1.005254393e+20
1.012614046e+20
1.008907764e+20
1.016173626e+20
1.015173901e+20
1.022669783e+20
1.016489928e+20
1.011042322e+20
1.007982843e+20
1.009196296e+20
1.004867868e+20
1.007539949e+20
1.000354031e+20
9.931576875e+19
9.937852746e+19
9.885901982e+19
9.978278052e+19
1.006059931e+20
1.011063476e+20
1.010728665e+20
1.032552334e+20
1.046714066e+20
1.063052679e+20
1.068759269e+20
1.081682271e+20
1.094158134e+20
1.115535269e+20
9.991098662e+19
1.003000329e+20
9.978416078e+19
9.988972088e+19
9.914505116e+19
9.966985392e+19
9.929759172e+19
1.002201727e+20
1.00050666e+20
1.005407186e+20
1.015711058e+20
1.009516623e+20
1.007017661e+20
1.01163382e+20
1.013004056e+20
1.01079614e+20
1.014179027e+20
1.017801608e+20
1.011295616e+20
1.015439387e+20
1.011430108e+20
1.016972593e+20
1.029031214e+20
1.028042362e+20
1.032908252e+20
1.045081391e+20
1.060959263e+20
1.073371474e+20
1.087585272e+20
1.098075121e+20
9.98372738e+19
9.993521018e+19
9.973862473e+19
9.942767808e+19
1.003171346e+20
1.003152469e+20
9.995463666e+19
9.904456878e+19
9.936977135e+19
9.996084753e+19
9.957910938e+19
9.993726701e+19
9.983031522e+19
9.976059746e+19
9.956831683e+19
1.000966147e+20
1.000310028e+20
1.004621917e+20
1.001290473e+20
1.008588373e+20
1.019616767e+20
1.022351387e+20
1.024789913e+20
1.024573152e+20
1.019996907e+20
1.028483455e+20
1.037282077e+20
1.040807531e+20
1.055567819e+20
1.066573643e+20
9.976035756e+19
9.98448127e+19
1.007729271e+20
1.004205778e+20
1.006572046e+20
1.001921566e+20
1.008496928e+20
1.007336538e+20
1.002991918e+20
9.935009654e+19
9.883902709e+19
9.868582814e+19
1.003222641e+20
1.007878894e+20
1.020968092e+20
1.015657122e+20
1.009096151e+20
1.009967014e+20
1.014655279e+20
1.013652158e+20
1.009927956e+20
1.014661972e+20
1.013823659e+20
1.023378211e+20
1.031819351e+20
1.034173055e+20
1.04294401e+20
1.044163805e+20
1.051898313e+20
1.057049928e+20
1.005487497e+20
1.004679146e+20
1.007859372e+20
1.003910865e+20
1.002246886e+20
1.000690664e+20
9.967304597e+19
9.997356556e+19
1.000268347e+20
1.00403471e+20
1.005612747e+20
1.011921902e+20
1.002063041e+20
9.895647725e+19
9.858977678e+19
9.939087293e+19
1.001253983e+20
1.011138534e+20
1.007012968e+20
1.011976646e+20
1.0072241e+20
1.010343777e+20
1.013441569e+20
1.014473899e+20
1.020580252e+20
1.021067356e+20
1.026908464e+20
1.025824122e+20
1.03726062e+20
1.04663085e+20
9.879249493e+19
9.852758178e+19
9.799527299e+19
9.762866037e+19
9.814795483e+19
9.818944388e+19
9.865395587e+19
9.856824755e+19
9.813394748e+19
9.826240866e+19
9.879752639e+19
9.850804724e+19
9.888858687e+19
9.878998523e+19
9.888976661e+19
9.841867659e+19
9.783447502e+19
9.809716947e+19
9.836799209e+19
9.833438687e+19
9.940427996e+19
9.931467674e+19
9.946040808e+19
9.952005136e+19
9.950297637e+19
9.912852436e+19
9.880272222e+19
9.964166843e+19
9.998800339e+19
1.017693418e+20
)
;

boundaryField
{
    flow
    {
        type            calculated;
        value           nonuniform List<scalar> 
55
(
2.433754511e+20
2.432248603e+20
2.47323312e+20
2.440347845e+20
2.378484458e+20
2.338191835e+20
2.28125312e+20
2.159805522e+20
2.067254638e+20
1.929079488e+20
1.820045285e+20
1.695626617e+20
1.574504601e+20
1.476703484e+20
1.365186575e+20
1.292497119e+20
1.232831486e+20
1.172636793e+20
1.125669448e+20
1.115535269e+20
1.098075121e+20
1.066573643e+20
1.057049928e+20
1.04663085e+20
1.017693418e+20
9.879249493e+19
9.852758178e+19
9.799527299e+19
9.762866037e+19
9.814795483e+19
9.818944388e+19
9.865395587e+19
9.856824755e+19
9.813394748e+19
9.826240866e+19
9.879752639e+19
9.850804724e+19
9.888858687e+19
9.878998523e+19
9.888976661e+19
9.841867659e+19
9.783447502e+19
9.809716947e+19
9.836799209e+19
9.833438687e+19
9.940427996e+19
9.931467674e+19
9.946040808e+19
9.952005136e+19
9.950297637e+19
9.912852436e+19
9.880272222e+19
9.964166843e+19
9.998800339e+19
1.017693418e+20
)
;
    }
    obstacle
    {
        type            calculated;
        value           nonuniform 0();
    }
    frontAndBack
    {
        type            empty;
    }
    procBoundary3to1
    {
        type            processor;
        value           nonuniform List<scalar> 
36
(
2.353494905e+20
2.457823852e+20
2.453159229e+20
2.454111675e+20
2.444573165e+20
2.427318061e+20
2.427318061e+20
2.083192204e+20
2.190536836e+20
2.259779124e+20
2.323315636e+20
2.389861228e+20
2.389861228e+20
1.519666805e+20
1.596598461e+20
1.701420182e+20
1.778709065e+20
1.883848208e+20
1.883848208e+20
1.129876652e+20
1.171202269e+20
1.206161213e+20
1.248684228e+20
1.301764821e+20
1.365092825e+20
1.365092825e+20
1.018202396e+20
1.029962214e+20
1.041866615e+20
1.053586214e+20
1.074000285e+20
1.100607823e+20
1.100607823e+20
1.017505659e+20
1.018238883e+20
1.018238883e+20
)
;
    }
    procBoundary3to2
    {
        type            processor;
        value           nonuniform List<scalar> 
19
(
1.011151808e+20
1.013951549e+20
9.971212894e+19
1.002116274e+20
9.997301387e+19
9.900583072e+19
1.003675235e+20
1.014587854e+20
1.009242894e+20
1.005106913e+20
9.919672213e+19
1.010770025e+20
9.939079507e+19
1.004311525e+20
9.980439384e+19
1.001098194e+20
1.000970933e+20
1.003611597e+20
9.862086637e+19
)
;
    }
}


// ************************************************************************* //
