/*--------------------------------*- C++ -*----------------------------------*\
  =========                 |
  \\      /  F ield         | OpenFOAM: The Open Source CFD Toolbox
   \\    /   O peration     | Website:  https://openfoam.org
    \\  /    A nd           | Version:  7
     \\/     M anipulation  |
\*---------------------------------------------------------------------------*/
FoamFile
{
    version     2.0;
    format      ascii;
    class       volScalarField;
    location    "0.007";
    object      translationalT;
}
// * * * * * * * * * * * * * * * * * * * * * * * * * * * * * * * * * * * * * //

dimensions      [1 2 -2 0 0 0 0];

internalField   nonuniform List<scalar> 
654
(
767.8247523
774.4932944
772.7779259
769.2947072
763.0555195
754.5510229
746.0158422
758.9595508
765.2047686
769.9972509
771.3706365
766.547521
762.4956934
759.0300608
758.3687208
758.3991156
752.8337903
748.4971133
660.1295272
675.453657
703.1156136
719.2428001
729.7670155
745.4402295
750.7521832
758.0345943
759.0776165
755.8557859
759.5039321
757.1632248
750.361819
757.3192625
744.6789281
740.2179734
463.6178606
490.7056155
511.7753581
533.7710654
559.4902229
584.5436241
616.7850612
643.07368
661.9072068
689.5466456
709.4080181
723.4897357
736.7809947
743.6866007
747.3926062
748.7101094
754.309608
754.4413835
750.4791816
741.8260857
741.2461952
738.4326992
351.0245706
361.7155654
375.4831182
383.4355065
401.2059062
416.7695197
426.879138
451.7212941
476.0581343
500.6016259
514.686077
528.929812
560.490659
586.8613681
609.8836552
641.3258911
671.262882
690.0228827
708.3863204
723.7435334
730.0581873
740.3896912
738.3353989
748.0342332
746.1966828
745.473443
737.5145806
731.6538625
323.8350219
334.2139683
334.6643315
346.3427103
356.9991509
369.2784621
373.8336684
389.1947602
398.6527671
414.2605799
437.9751397
453.6009905
477.4667609
499.9886957
524.1288906
551.9956165
574.0350009
601.132475
627.1830705
653.0587055
673.8670062
687.6875037
705.4349737
719.7976381
719.7746987
730.2194835
734.7976802
736.5274173
730.0309228
732.3918845
324.1451827
319.3811687
327.2356941
332.8833365
339.4520059
352.5533477
364.3740656
373.7342405
381.8533085
392.0108903
408.7197479
430.3272399
444.5963536
464.6409356
478.8439189
512.1189725
529.8155229
554.6665229
578.0340479
603.8851313
626.9867517
656.2591077
669.1973907
687.4221678
698.9195092
716.6422336
718.1134759
722.7781291
729.1229069
725.522049
313.8939896
316.3883845
324.3818242
327.6064738
329.6169344
336.312856
349.0198309
354.1490559
360.9939681
366.8225635
381.4108924
399.4371572
414.7763529
430.3860444
444.0824433
462.9271684
493.3012252
518.7691763
536.7187626
561.4999571
590.4828304
616.9703782
630.7362101
652.0149927
680.4280415
697.7110633
709.857494
710.9784147
715.8864507
715.1970001
307.6949603
308.9069431
310.7791779
316.1413946
320.7553964
327.6791549
334.9016016
341.9051429
344.071594
358.252113
367.9371091
372.01414
388.5518416
403.0489721
422.5458994
433.9504341
459.087377
479.2664921
495.7223753
516.5639556
549.0917794
577.7901352
599.8596097
626.4467912
642.8759012
656.2992188
688.6723928
694.9552268
698.7471564
717.5206386
310.1865177
311.7157537
313.7149174
314.2277669
318.3114769
324.1068585
328.5659541
336.9159616
336.3641006
344.9414546
357.3131679
362.3202565
368.1392407
377.8866072
396.2331224
406.2245272
425.2697063
444.1389928
465.4766861
485.1025636
503.4232861
537.1689449
567.105354
588.7498615
615.7758687
626.1039214
657.1101741
676.862318
683.8661781
697.8992045
306.0151823
307.0075519
307.6968194
311.0069584
313.0677109
315.5702406
319.0822948
325.0860738
328.4026422
329.3706015
335.173217
348.1928778
348.2759846
360.6796431
367.918111
384.924278
395.7411583
414.6187781
436.7029517
459.5938741
470.9871521
489.8216317
513.6375849
545.9734098
570.9004729
596.8001382
608.8115751
635.8211461
660.1775339
672.995786
303.2203814
306.2331474
309.6376911
306.0735922
308.2918192
313.0704967
318.1106444
322.604834
328.6301966
329.4515142
332.2432495
338.7347181
347.1221859
353.7975266
357.9504404
369.9011155
381.5486316
394.0917277
408.6313245
428.7554097
444.8530371
458.701144
483.4335728
499.5448309
536.397738
562.2632008
572.5392656
598.3625976
622.5727367
642.4192457
308.0113943
307.1681991
304.6001946
305.8090774
305.0956203
307.628684
307.3428317
311.0127764
315.9976623
320.7506986
324.8456932
324.2010083
332.1736098
339.0458456
345.7684421
354.5271923
366.9721812
373.1563962
379.265588
400.5150144
416.9015908
432.9036947
450.3717476
470.5743757
483.635813
517.0173875
543.4686922
562.1411739
594.4617942
614.9413403
300.232868
299.8174882
304.251297
304.3823368
303.273028
305.329934
306.0207027
304.412901
305.5395032
312.3504134
314.6602975
321.2116628
323.0699081
329.5022897
333.8058376
340.9114725
345.1461714
361.8960379
364.0444913
380.0642784
385.2928843
408.2884462
419.9785968
432.6466437
451.2067908
463.9753359
499.6542633
522.5619616
548.4159732
564.5010102
297.7898221
299.087337
297.9172446
298.1089351
301.2528453
301.2193387
306.5448151
307.3233019
309.3917891
307.5742002
316.0693703
314.6277965
320.0369846
325.0333499
322.8497433
328.2793555
340.3556847
344.8727328
350.5132443
368.2163776
374.5091236
379.9515381
391.9554967
408.3422039
425.1342506
438.0030378
463.8073126
487.8194566
509.8084857
533.7514737
298.78699
301.8946764
303.4804108
301.2481448
304.2569255
305.1661007
303.336891
302.5526286
304.8729764
307.0723753
307.3727495
316.4255249
315.22467
321.3960654
320.967581
325.7595723
329.6778156
338.3551059
341.9961177
352.9960595
357.6633477
370.469319
384.7419091
393.2743345
411.5368363
420.8958742
436.5721755
463.1979008
486.3082889
509.9828123
302.7439243
302.2096012
300.2906513
299.6252189
300.7411741
300.814827
304.1199865
304.4105656
305.0261624
308.2111643
309.8432171
309.9656638
313.1541716
314.2998079
320.6104721
321.4403353
321.6175752
325.1528664
331.0269135
341.069756
349.0584661
357.6227027
360.5550807
366.7320385
383.3876325
400.6897484
409.8674516
431.2472363
454.7107049
479.5490975
301.70135
299.5683217
298.0738952
300.391329
302.3796005
302.9365151
303.7062605
306.745589
307.4399774
306.1836068
305.3373457
308.1171929
310.8295372
311.7725301
314.5167688
315.9179295
320.7218061
323.8421544
326.393972
331.587677
337.1865449
343.1176113
355.9375951
361.9149995
370.3122229
386.6648597
394.7260359
404.176706
430.4460148
446.8065392
299.8032193
300.3275668
301.7547773
301.4439091
300.655806
300.9531226
303.7229701
302.4446789
307.1406389
308.2804872
305.4181559
307.01168
307.0311904
309.3123813
313.0852556
313.8393928
314.0873459
318.7624523
322.3113862
325.4882785
331.9158531
336.0032743
340.4594157
348.5474943
355.7687681
371.3410279
378.4582137
385.9946789
395.7437262
418.4906415
295.2896201
295.2649731
298.7318414
300.5660553
300.1990088
299.1953902
301.7556838
300.7302398
301.4869932
301.4772317
305.2774668
303.9673077
305.5447579
305.6885919
308.7157018
310.858637
315.9583069
315.1000009
319.3165249
321.6931844
322.6470801
329.229382
331.2577168
334.0245803
338.9265233
344.8750309
362.991938
368.642562
379.0082871
394.1365332
299.3459363
299.5235131
299.6861942
298.3996226
300.4019035
301.5449635
302.1469633
301.296702
300.700243
300.4621274
300.7472203
304.4250727
306.9496566
307.4461193
308.6758855
309.378524
310.5189122
310.8901223
308.7559045
311.1084317
316.5448585
321.8981338
324.1332439
327.293485
329.8218664
334.9200866
346.2676904
361.5359302
368.2823554
377.6659286
301.4446721
299.7612505
300.478586
300.7210359
301.0009591
300.7600857
301.0798712
298.9070338
300.9268562
300.5789459
297.2876588
298.142702
302.3550621
302.2900468
305.2888594
304.1659352
304.5547498
305.4639288
308.498407
309.0068539
310.3671235
311.7353248
320.209428
324.3035842
325.9132933
332.8630157
335.1756003
345.2227715
349.2556455
359.52585
303.6438265
302.007837
301.3820761
301.5432051
301.5614798
299.3342978
301.9172737
301.2039761
300.2421159
299.4708035
300.8348649
299.8561337
299.3618972
297.3592828
300.2757106
302.6136144
301.8927882
306.4896761
306.9424265
309.6695986
307.1950786
311.1734807
316.73752
319.5272559
320.7587211
321.1867611
331.3399999
335.4394553
344.8063572
349.9206676
297.3670162
298.2181523
297.1736448
297.1288147
294.7285779
295.5719549
296.8666938
298.28998
298.8995346
299.2320563
299.5631417
299.0364679
300.6335175
300.4143015
303.1887081
300.7680911
301.8452537
303.6363019
306.80372
307.2158053
312.3915223
311.1971077
312.8818131
316.8140113
317.2355289
315.0521277
318.0860585
324.9367022
329.820193
336.592962
)
;

boundaryField
{
    flow
    {
        type            calculated;
        value           nonuniform List<scalar> 
55
(
767.8247523
746.0158422
748.4971133
740.2179734
738.4326992
731.6538625
732.3918845
725.522049
715.1970001
717.5206386
697.8992045
672.995786
642.4192457
614.9413403
564.5010102
533.7514737
509.9828123
479.5490975
446.8065392
418.4906415
394.1365332
377.6659286
359.52585
349.9206676
336.592962
297.3670162
298.2181523
297.1736448
297.1288147
294.7285779
295.5719549
296.8666938
298.28998
298.8995346
299.2320563
299.5631417
299.0364679
300.6335175
300.4143015
303.1887081
300.7680911
301.8452537
303.6363019
306.80372
307.2158053
312.3915223
311.1971077
312.8818131
316.8140113
317.2355289
315.0521277
318.0860585
324.9367022
329.820193
336.592962
)
;
    }
    obstacle
    {
        type            calculated;
        value           nonuniform 0();
    }
    frontAndBack
    {
        type            empty;
    }
    procBoundary3to1
    {
        type            processor;
        value           nonuniform List<scalar> 
36
(
760.8945697
788.9478748
784.161035
775.8113602
768.3732405
771.340441
771.340441
775.2203219
779.5557927
779.7689312
776.3175314
776.2818203
776.2818203
712.2080139
719.8675013
742.6912984
743.1737518
760.9891436
760.9891436
507.5782951
532.9141837
554.8766098
582.1754875
606.8320295
633.1480905
633.1480905
370.0186461
380.1845866
396.8924156
413.1753778
425.3297109
448.586257
448.586257
334.4803592
341.1661105
341.1661105
)
;
    }
    procBoundary3to2
    {
        type            processor;
        value           nonuniform List<scalar> 
19
(
321.3597523
314.1597871
310.7059756
305.0448943
308.8114891
301.134519
304.3577205
304.6793748
301.913187
297.6362493
300.8516156
300.3659929
304.7797513
299.7091664
295.9943156
299.585981
301.7926557
301.6086194
297.2379682
)
;
    }
}


// ************************************************************************* //
