/*--------------------------------*- C++ -*----------------------------------*\
  =========                 |
  \\      /  F ield         | OpenFOAM: The Open Source CFD Toolbox
   \\    /   O peration     | Website:  https://openfoam.org
    \\  /    A nd           | Version:  7
     \\/     M anipulation  |
\*---------------------------------------------------------------------------*/
FoamFile
{
    version     2.0;
    format      ascii;
    class       volVectorField;
    location    "0.008";
    object      fD;
}
// * * * * * * * * * * * * * * * * * * * * * * * * * * * * * * * * * * * * * //

dimensions      [1 -1 -2 0 0 0 0];

internalField   uniform (0 0 0);

boundaryField
{
    flow
    {
        type            zeroGradient;
    }
    obstacle
    {
        type            calculated;
        value           nonuniform List<vector> 10((3.364191942 -0.6081419932 -1.165044728) (0 0 0) (0.883423711 -1.956189959 -2.014565172) (1.792812245 -6.937154465 0.9858349401) (6.478237337 -3.001587522 1.779966357) (4.962187031 -6.001772369 -0.5930549489) (-1.004884951 -1.043230809 -0.5419516453) (2.018067039 -2.182402822 -0.183498306) (2.443873408 -5.43313161 1.241593127) (5.82549673 -5.264846826 4.706343417));
    }
    frontAndBack
    {
        type            empty;
    }
    procBoundary0to1
    {
        type            processor;
        value           uniform (0 0 0);
    }
    procBoundary0to2
    {
        type            processor;
        value           uniform (0 0 0);
    }
}


// ************************************************************************* //
