/*--------------------------------*- C++ -*----------------------------------*\
  =========                 |
  \\      /  F ield         | OpenFOAM: The Open Source CFD Toolbox
   \\    /   O peration     | Website:  https://openfoam.org
    \\  /    A nd           | Version:  7
     \\/     M anipulation  |
\*---------------------------------------------------------------------------*/
FoamFile
{
    version     2.0;
    format      ascii;
    class       volScalarField;
    location    "0.008";
    object      iDof;
}
// * * * * * * * * * * * * * * * * * * * * * * * * * * * * * * * * * * * * * //

dimensions      [0 -3 0 0 0 0 0];

internalField   nonuniform List<scalar> 
654
(
2.707639501e+20
1.874519654e+20
3.124199424e+20
1.24967977e+20
2.499359539e+20
2.707639501e+20
1.874519654e+20
1.874519654e+20
2.082799616e+20
3.124199424e+20
2.291079578e+20
1.666239693e+20
2.707639501e+20
2.082799616e+20
1.874519654e+20
1.24967977e+20
2.499359539e+20
1.874519654e+20
2.499359539e+20
1.24967977e+20
1.666239693e+20
1.874519654e+20
2.082799616e+20
3.540759347e+20
1.457959731e+20
1.041399808e+20
1.666239693e+20
2.499359539e+20
1.24967977e+20
1.874519654e+20
2.499359539e+20
1.457959731e+20
6.248398848e+19
2.082799616e+20
2.082799616e+20
2.291079578e+20
1.24967977e+20
1.24967977e+20
1.874519654e+20
1.457959731e+20
1.666239693e+20
2.499359539e+20
2.915919462e+20
1.457959731e+20
2.707639501e+20
2.082799616e+20
1.24967977e+20
1.874519654e+20
1.457959731e+20
2.082799616e+20
6.248398848e+19
1.457959731e+20
1.457959731e+20
1.666239693e+20
1.24967977e+20
2.291079578e+20
1.666239693e+20
1.24967977e+20
8.331198464e+19
1.874519654e+20
2.707639501e+20
2.707639501e+20
1.041399808e+20
1.457959731e+20
2.499359539e+20
1.666239693e+20
1.666239693e+20
1.666239693e+20
1.874519654e+20
1.457959731e+20
2.707639501e+20
2.082799616e+20
1.666239693e+20
1.457959731e+20
8.331198464e+19
2.291079578e+20
1.666239693e+20
1.874519654e+20
1.24967977e+20
1.874519654e+20
1.874519654e+20
1.666239693e+20
6.248398848e+19
1.874519654e+20
2.291079578e+20
2.499359539e+20
1.24967977e+20
1.041399808e+20
6.248398848e+19
1.874519654e+20
2.082799616e+20
8.331198464e+19
3.332479385e+20
2.499359539e+20
2.082799616e+20
3.332479385e+20
2.707639501e+20
1.457959731e+20
2.915919462e+20
1.457959731e+20
1.457959731e+20
1.457959731e+20
2.082799616e+20
2.291079578e+20
4.165599232e+19
6.248398848e+19
1.041399808e+20
8.331198464e+19
1.24967977e+20
1.666239693e+20
2.291079578e+20
1.874519654e+20
2.082799616e+20
1.874519654e+20
2.082799616e+20
2.082799616e+20
1.666239693e+20
1.041399808e+20
1.666239693e+20
1.457959731e+20
2.915919462e+20
1.874519654e+20
2.499359539e+20
1.457959731e+20
2.499359539e+20
2.082799616e+20
8.331198464e+19
1.041399808e+20
1.457959731e+20
1.666239693e+20
2.082799616e+20
1.666239693e+20
1.874519654e+20
1.457959731e+20
1.666239693e+20
1.24967977e+20
1.666239693e+20
2.915919462e+20
1.666239693e+20
1.041399808e+20
1.24967977e+20
1.457959731e+20
1.24967977e+20
2.082799616e+20
2.707639501e+20
1.874519654e+20
1.874519654e+20
1.457959731e+20
1.666239693e+20
2.082799616e+20
1.666239693e+20
3.124199424e+20
2.082799616e+20
1.457959731e+20
1.457959731e+20
1.874519654e+20
1.666239693e+20
1.457959731e+20
1.874519654e+20
1.041399808e+20
2.082799616e+20
1.24967977e+20
2.082799616e+20
2.291079578e+20
1.24967977e+20
2.082799616e+20
2.707639501e+20
1.457959731e+20
1.666239693e+20
1.041399808e+20
1.666239693e+20
1.874519654e+20
2.082799616e+20
1.666239693e+20
1.24967977e+20
1.874519654e+20
2.082799616e+20
2.499359539e+20
1.457959731e+20
1.24967977e+20
2.082799616e+20
1.24967977e+20
1.666239693e+20
1.24967977e+20
1.041399808e+20
1.874519654e+20
2.082799616e+20
1.874519654e+20
1.874519654e+20
2.291079578e+20
3.540759347e+20
1.24967977e+20
1.24967977e+20
3.124199424e+20
1.874519654e+20
2.499359539e+20
1.874519654e+20
3.332479385e+20
1.24967977e+20
8.331198464e+19
2.707639501e+20
1.041399808e+20
1.457959731e+20
2.082799616e+20
2.291079578e+20
1.874519654e+20
1.457959731e+20
1.874519654e+20
2.082799616e+20
1.666239693e+20
8.331198464e+19
1.666239693e+20
1.666239693e+20
2.915919462e+20
2.082799616e+20
1.874519654e+20
1.041399808e+20
1.457959731e+20
1.457959731e+20
1.041399808e+20
1.24967977e+20
8.331198464e+19
1.666239693e+20
1.666239693e+20
2.291079578e+20
2.707639501e+20
2.291079578e+20
2.915919462e+20
1.457959731e+20
1.874519654e+20
8.331198464e+19
1.24967977e+20
8.331198464e+19
2.082799616e+20
1.24967977e+20
2.707639501e+20
1.24967977e+20
1.457959731e+20
1.457959731e+20
8.331198464e+19
1.666239693e+20
2.291079578e+20
2.707639501e+20
2.291079578e+20
1.24967977e+20
1.457959731e+20
3.540759347e+20
1.041399808e+20
2.082799616e+20
2.915919462e+20
1.874519654e+20
1.666239693e+20
1.041399808e+20
2.499359539e+20
1.666239693e+20
2.499359539e+20
1.041399808e+20
1.24967977e+20
1.666239693e+20
2.291079578e+20
2.915919462e+20
8.331198464e+19
2.291079578e+20
3.332479385e+20
1.874519654e+20
2.082799616e+20
1.666239693e+20
2.291079578e+20
2.291079578e+20
1.666239693e+20
2.707639501e+20
1.24967977e+20
1.041399808e+20
1.666239693e+20
1.041399808e+20
1.666239693e+20
2.499359539e+20
1.041399808e+20
1.24967977e+20
2.082799616e+20
1.041399808e+20
1.457959731e+20
1.457959731e+20
1.874519654e+20
1.666239693e+20
1.874519654e+20
1.041399808e+20
1.457959731e+20
8.331198464e+19
1.24967977e+20
4.165599232e+19
1.457959731e+20
1.666239693e+20
2.707639501e+20
2.915919462e+20
2.499359539e+20
1.666239693e+20
1.666239693e+20
2.291079578e+20
8.331198464e+19
1.457959731e+20
1.874519654e+20
1.24967977e+20
1.24967977e+20
1.874519654e+20
1.24967977e+20
1.24967977e+20
6.248398848e+19
2.291079578e+20
1.24967977e+20
1.666239693e+20
1.874519654e+20
1.041399808e+20
2.499359539e+20
1.874519654e+20
1.666239693e+20
2.291079578e+20
8.331198464e+19
1.457959731e+20
1.24967977e+20
2.499359539e+20
2.082799616e+20
2.291079578e+20
2.915919462e+20
1.874519654e+20
6.248398848e+19
1.457959731e+20
2.915919462e+20
2.291079578e+20
1.457959731e+20
1.24967977e+20
2.082799616e+20
2.082799616e+20
1.041399808e+20
1.874519654e+20
2.915919462e+20
1.457959731e+20
8.331198464e+19
1.041399808e+20
6.248398848e+19
1.666239693e+20
1.874519654e+20
2.291079578e+20
1.666239693e+20
1.041399808e+20
1.24967977e+20
2.499359539e+20
3.124199424e+20
1.457959731e+20
1.666239693e+20
1.24967977e+20
1.457959731e+20
1.874519654e+20
2.082799616e+20
1.457959731e+20
1.457959731e+20
1.041399808e+20
2.082799616e+20
1.24967977e+20
1.666239693e+20
2.082799616e+20
6.248398848e+19
2.082799616e+20
2.082799616e+20
1.457959731e+20
1.874519654e+20
3.95731927e+20
2.499359539e+20
1.874519654e+20
2.291079578e+20
2.291079578e+20
1.666239693e+20
2.499359539e+20
3.124199424e+20
1.874519654e+20
1.666239693e+20
1.874519654e+20
1.24967977e+20
2.082799616e+20
1.24967977e+20
2.082799616e+20
1.24967977e+20
2.082799616e+20
1.457959731e+20
2.499359539e+20
1.666239693e+20
2.291079578e+20
1.041399808e+20
1.666239693e+20
3.332479385e+20
2.499359539e+20
1.041399808e+20
1.24967977e+20
1.874519654e+20
1.666239693e+20
1.457959731e+20
2.499359539e+20
2.082799616e+20
1.874519654e+20
2.499359539e+20
1.041399808e+20
1.666239693e+20
2.707639501e+20
1.457959731e+20
2.707639501e+20
1.666239693e+20
1.874519654e+20
1.24967977e+20
2.707639501e+20
2.499359539e+20
1.874519654e+20
1.24967977e+20
1.874519654e+20
1.457959731e+20
1.874519654e+20
1.041399808e+20
2.707639501e+20
1.874519654e+20
1.041399808e+20
1.666239693e+20
2.707639501e+20
1.874519654e+20
2.499359539e+20
2.082799616e+20
2.499359539e+20
1.457959731e+20
2.291079578e+20
1.666239693e+20
3.124199424e+20
2.915919462e+20
2.291079578e+20
1.457959731e+20
1.666239693e+20
1.457959731e+20
1.24967977e+20
1.041399808e+20
8.331198464e+19
1.874519654e+20
1.457959731e+20
1.666239693e+20
6.27055727e+19
2.104558097e+20
8.476517827e+19
1.066952e+20
1.933997404e+20
1.514855911e+20
6.53847039e+19
1.756097145e+20
1.326587142e+20
6.681199412e+19
2.090185757e+20
1.473190668e+20
1.483390621e+20
1.066952e+20
2.793551807e+20
1.298447925e+20
2.615388158e+20
2.195121433e+20
2.87427214e+20
6.681199412e+19
1.46313003e+20
8.418232386e+19
1.48339062e+20
1.4937328e+20
6.446658021e+19
1.082039937e+20
8.71796052e+19
1.097560717e+20
1.105489285e+20
1.336239882e+20
1.045092878e+20
1.262734859e+20
2.54295535e+20
8.535615997e+19
1.074443002e+20
1.082039937e+20
1.961541118e+20
1.536585003e+20
8.843914278e+19
4.454132941e+19
1.254111454e+20
2.315013906e+20
6.357388374e+19
6.401712006e+19
1.504220205e+20
1.298447925e+20
2.179490132e+19
1.097560717e+20
1.547685e+20
1.336239883e+20
2.926260059e+20
1.473190668e+20
2.754868294e+20
2.133903999e+20
1.504220203e+20
1.731263898e+20
6.538470386e+19
1.317072858e+20
1.989880711e+20
1.336239883e+20
1.46313003e+20
2.104558097e+20
1.059564729e+20
1.066952001e+20
1.504220205e+20
1.7312639e+20
1.307694079e+20
1.097560717e+20
1.768782856e+20
8.908265883e+19
1.672148605e+20
1.894102288e+20
1.483390621e+20
8.535615997e+19
1.289331602e+20
6.49223962e+19
1.743592105e+20
1.756097146e+20
1.989880713e+20
2.227066471e+20
4.180371513e+19
6.31367429e+19
1.48339062e+20
1.4937328e+20
4.297772014e+19
1.731263899e+20
1.307694078e+20
2.853657863e+20
8.843914278e+19
1.55894653e+20
2.090185758e+20
1.473190669e+20
1.695303566e+20
1.4937328e+20
1.719108804e+20
1.298447925e+20
2.397439145e+20
1.756097146e+20
1.326587142e+20
1.55894653e+20
1.045092878e+20
2.525469716e+20
1.907216511e+20
1.707123201e+20
1.289331603e+20
1.298447924e+20
8.71796052e+19
1.536585002e+20
2.210978569e+20
2.227066471e+20
1.254111454e+20
2.315013908e+20
1.483390621e+20
1.493732799e+20
1.074443003e+20
1.514855912e+20
1.961541125e+20
1.975609302e+20
1.547685006e+20
8.908265921e+19
1.672148605e+20
1.052279051e+20
6.357388396e+19
2.347294401e+20
2.578663196e+20
8.656319482e+19
1.307694076e+20
1.53658499e+20
6.63293568e+19
1.55894653e+20
2.09018575e+20
8.418232335e+19
1.48339061e+20
1.707123195e+20
1.504220205e+20
2.81330383e+20
1.08974506e+20
1.975609287e+20
1.989880704e+20
1.113533227e+20
1.045092884e+20
2.315013913e+20
1.695303565e+20
1.066952004e+20
1.074443011e+20
1.082039942e+20
1.525643094e+20
2.195121445e+20
1.547685003e+20
1.55894653e+20
1.672148603e+20
1.262734861e+20
3.178694206e+20
6.401712024e+19
1.289331604e+20
1.731263907e+20
2.397439148e+20
1.756097132e+20
1.326587136e+20
1.113533235e+20
1.045092877e+20
1.473190662e+20
2.966781219e+20
1.066951997e+20
2.148886007e+19
2.164079869e+20
2.179490135e+20
2.195121445e+20
3.316467864e+20
8.908265883e+19
2.090185754e+20
2.735925533e+20
1.907216524e+20
1.066951997e+20
8.595543969e+19
1.731263895e+20
1.961541108e+20
1.097560715e+20
1.989880718e+20
2.227066471e+20
2.299204345e+20
1.473190672e+20
2.119129457e+20
1.493732806e+20
1.504220205e+20
2.596895843e+20
2.179490135e+20
1.975609287e+20
1.10548928e+20
6.68119946e+19
2.299204329e+20
1.052279051e+20
1.059564728e+20
1.280342396e+20
1.719108806e+20
8.656319536e+19
1.089745067e+20
1.756097144e+20
2.432076433e+20
1.55894653e+20
2.71724148e+20
2.946381323e+20
1.695303565e+20
1.280342405e+20
1.504220205e+20
1.082039934e+20
1.307694081e+20
2.195121445e+20
3.537565721e+20
1.336239882e+20
2.090185754e+20
1.473190662e+20
2.119129457e+20
1.920513607e+20
)
;

boundaryField
{
    flow
    {
        type            zeroGradient;
    }
    obstacle
    {
        type            calculated;
        value           uniform 2.225073859e-308;
    }
    frontAndBack
    {
        type            empty;
    }
    procBoundary0to1
    {
        type            processor;
        value           nonuniform List<scalar> 
21
(
1.794712169e+20
1.79471217e+20
1.346034127e+20
1.570373148e+20
2.01905119e+20
1.121695107e+20
4.486780422e+19
1.121695106e+20
1.346034128e+20
1.346034127e+20
6.730170633e+19
2.019051197e+20
1.121695102e+20
1.794712164e+20
2.692068265e+20
8.973560819e+19
2.692068246e+20
6.730170662e+19
1.12169511e+20
1.794712164e+20
1.794712177e+20
)
;
    }
    procBoundary0to2
    {
        type            processor;
        value           nonuniform List<scalar> 
31
(
1.24967977e+20
3.124199424e+20
2.291079578e+20
2.499359539e+20
1.457959731e+20
1.874519654e+20
2.499359539e+20
2.291079578e+20
6.248398848e+19
2.082799616e+20
2.082799616e+20
1.666239693e+20
2.082799616e+20
1.457959731e+20
1.874519654e+20
2.499359539e+20
1.041399808e+20
2.707639501e+20
1.666239693e+20
2.499359539e+20
2.148886007e+20
1.298447921e+20
2.179490119e+20
1.975609287e+20
1.105489288e+20
6.681199412e+19
2.299204329e+20
1.894102292e+20
2.331042402e+20
2.148886007e+20
1.280342396e+20
)
;
    }
}


// ************************************************************************* //
