/*--------------------------------*- C++ -*----------------------------------*\
  =========                 |
  \\      /  F ield         | OpenFOAM: The Open Source CFD Toolbox
   \\    /   O peration     | Website:  https://openfoam.org
    \\  /    A nd           | Version:  7
     \\/     M anipulation  |
\*---------------------------------------------------------------------------*/
FoamFile
{
    version     2.0;
    format      ascii;
    class       volScalarField;
    location    "0.008";
    object      internalT;
}
// * * * * * * * * * * * * * * * * * * * * * * * * * * * * * * * * * * * * * //

dimensions      [1 2 -2 0 0 0 0];

internalField   nonuniform List<scalar> 
654
(
296.3949435
294.9160108
296.1177781
296.2629832
294.566067
297.743675
298.0124992
298.5928442
298.5163828
297.2085698
298.6838766
299.6435414
300.1335796
299.9746037
303.0868298
303.9800697
307.8176152
317.907617
344.4678217
432.5475028
301.5581203
304.4481826
302.8052066
302.6522486
299.9409768
299.5059607
300.0719449
299.4913732
299.676664
301.1187611
302.6612173
299.7840101
300.2202047
301.3484574
299.9230503
301.7255881
307.8329706
321.0721131
350.3561581
419.1120264
301.3954085
300.3229789
299.8011019
301.0591008
301.5931019
300.4159395
300.4394536
300.5603079
299.3865437
301.3102991
301.7754665
301.808809
303.2106261
304.9491356
304.5048439
308.0821299
310.47963
322.2108292
346.4803761
399.2307697
303.0345571
301.762212
300.9425454
301.065087
302.199046
303.6972763
301.9793195
300.8665563
302.5817888
299.6394482
301.0828285
300.9682646
298.8257708
300.1568154
300.3343946
302.7634966
308.5944482
319.1654097
336.1029195
369.8728291
301.2801364
300.4941365
300.9470757
303.1949989
302.7518532
303.6234604
302.7900299
303.4909714
302.8749871
302.4812081
299.673321
299.3431521
301.9082692
304.3770776
303.4979908
304.2311087
305.5308447
313.4008503
327.6251522
354.8083262
302.181986
303.1082242
303.3306526
302.3888374
300.6660722
299.1998416
298.2859874
298.1869971
298.5932711
299.0217708
299.8012516
300.3992239
300.9112174
299.6123986
299.7860942
303.6834267
307.7288354
313.9835362
324.3582975
339.9436088
298.6592197
299.9307101
300.9339868
300.2263041
300.335822
299.9883374
301.2871887
301.2494443
299.6655843
299.2089865
298.9908185
298.6932042
300.34008
300.6755786
300.3453488
298.4042317
302.5663425
304.4921432
311.7992872
325.3270625
297.6036729
298.0449314
299.7604675
298.7760459
299.1487245
300.1373373
299.8562965
298.9078103
298.3086447
298.6976021
299.3076206
299.3131756
298.8992471
298.0155688
298.0295672
303.3744331
303.51486
306.5541429
309.5895557
319.923235
298.8506837
298.5652764
298.0950879
298.5989155
297.1609511
296.352832
295.2470052
295.3722334
297.9877184
298.9551802
299.8475038
298.8426751
299.2583934
301.3361388
303.6999194
305.5241832
303.3115528
305.6984366
308.2047152
311.0912065
300.5541144
298.8822749
300.4457204
298.8174176
300.9953198
300.5317611
299.8662317
299.9169535
298.0205025
298.7263447
301.4191142
301.9291875
301.8117178
302.0433928
301.7301376
302.2902141
302.5731605
304.9140434
307.5874632
310.8261616
298.4323583
298.8249815
298.8439627
299.2669078
298.9506046
298.6440413
298.9135715
298.4543945
299.6773829
296.6847811
295.7638346
295.4789181
295.5237076
296.1978897
298.712732
298.9392201
299.483887
301.2086482
302.0628134
302.1542951
302.1950725
301.7709005
300.9017374
301.09813
303.3466882
302.4932064
303.7486321
304.2932878
303.9512691
303.3434826
301.2384014
301.2230156
300.9063298
300.9560955
302.0759603
300.8386238
301.109205
301.1174805
308.2099393
308.3195598
298.1864016
300.6427292
300.2480407
300.9259958
298.8594766
299.2610706
299.4995285
300.4200438
299.8910787
302.1463844
304.084377
304.5724106
306.0356327
303.9015965
304.2327921
302.3389077
302.3750484
303.2934647
305.7247681
308.8049187
298.0968073
294.0315186
297.0212307
298.1877115
300.3444995
302.4930301
302.5819922
301.8952539
302.748487
303.2255255
301.7678088
302.6655828
303.967312
302.7240614
302.765319
303.6293815
300.8701776
301.4960641
302.6297464
302.5961582
300.6083209
303.4400438
300.8845298
300.4109497
299.2793099
299.357795
299.1593998
298.0484093
299.6348695
298.1569749
298.4160089
297.7531492
296.3654506
295.5338153
296.7422523
299.4672965
300.7290404
301.2790816
301.6292349
302.2382281
304.5085159
303.5380345
302.5182083
301.8833953
300.0935512
301.3517506
302.1939104
302.1874512
302.9011228
301.2474851
302.2835218
300.5304999
301.9697205
303.8694042
304.8659596
305.4095552
304.326689
302.7265983
302.9801398
302.5255967
300.0628263
301.529736
302.5357587
303.0150988
303.3288883
301.8840471
302.3641923
300.4187538
300.0480854
302.9328764
301.5934624
302.3426199
301.5447022
300.5807323
297.6766612
296.0778451
298.7341732
299.7653964
300.9647937
302.4362492
299.9228522
297.1478726
297.2198144
297.399742
296.5021499
298.3859813
299.2367161
298.9677663
298.0657913
298.0182311
299.0803473
299.9328189
299.5346672
298.9952225
300.7852241
304.4118045
301.6960634
303.8761153
304.8242883
306.4445568
302.1127166
302.3728366
301.9691604
299.9425507
299.0301085
297.2955052
296.8978795
297.4242176
298.5644975
298.9783606
297.4072415
297.7527293
298.6777382
298.3533718
298.5903222
301.3651448
301.6516528
301.6065442
303.6813503
303.1983125
300.5485309
300.4724554
298.2372808
300.8207287
300.7914443
302.4712872
304.2743533
305.2383923
305.0944773
305.9298827
306.9607284
305.3490622
304.6685242
303.3679767
303.1513883
300.4615213
301.3346533
299.9360412
299.0124644
300.7155555
300.4862488
300.8461618
300.0867603
301.6922195
300.9823998
300.1670537
297.6630454
295.8195347
296.2499662
297.9465655
297.6944029
299.7435321
300.4274034
302.2008197
302.4414909
300.3933959
300.0989844
302.6338952
301.135474
300.5631286
299.7419197
301.7918429
302.4467069
302.7574342
301.2166256
301.8954598
302.9750545
300.8858903
298.718077
299.120252
301.4248938
302.3891167
302.4857039
302.4014589
301.4050923
303.77647
306.0145573
303.688468
303.2769153
302.3418252
555.1257973
608.588853
642.7596563
666.8216646
685.0690702
696.1496331
701.0347794
703.707385
709.2578394
704.6740654
513.2680844
571.4609218
617.9766571
658.4732778
690.6586804
704.7917775
721.2190967
739.7792479
753.6020422
756.6930239
459.4599861
515.4126558
560.5990822
611.0889039
642.7942466
672.8081296
700.5122953
720.1527178
732.2341985
748.5852772
418.5467891
460.3690055
514.5125481
554.3128131
585.07034
616.4925871
645.6613826
668.886714
686.4118615
719.8995654
389.6388615
422.5544123
462.069284
494.4448485
534.4577831
567.2076375
592.2730598
622.2921276
640.2764522
661.3409498
358.0429417
377.2496112
409.4807936
446.2054774
478.703591
512.3947646
538.0322128
570.1613929
590.5282766
623.1590302
350.4648071
359.6365834
378.0538448
410.5059361
433.2023617
458.6509088
490.2615046
520.7461413
542.8081108
568.3956319
331.2468024
344.5102739
356.2761485
377.9273496
398.2742806
421.4739922
445.0455916
465.0649501
489.9393813
514.9737505
320.3717575
333.8665755
347.4539798
352.8891091
373.9789172
387.0696701
410.3742029
426.6637019
450.6360111
467.212907
314.732302
317.3992366
324.6834288
340.3812604
349.769101
363.1304823
380.3893935
401.9229491
421.7217739
437.0236295
308.7767724
313.1416517
317.7366026
327.4874833
337.6939808
345.3096977
364.0993469
374.0476846
395.7833741
416.1777324
311.5370852
310.5472849
315.5754993
320.8187057
331.7506447
337.3608582
347.4890924
357.95421
366.736645
383.9900336
311.4579761
310.1003984
313.3919634
318.3875822
322.0362152
329.4951456
334.9990372
346.9280525
356.247974
360.845028
308.3786663
307.8492928
306.2609352
309.9790493
314.1166791
318.2971729
324.4827243
331.0824736
337.518313
352.1539142
303.5246739
306.4467463
306.5271909
308.0147603
315.4520922
315.5398053
320.0905853
323.9808073
331.4908239
337.7060982
304.5885829
305.0738865
306.0686388
306.1445424
309.5139609
315.1697585
321.0382717
319.3190908
321.1978701
326.9395891
303.910031
305.3305149
307.981613
310.7633552
312.3676419
311.5543893
312.1035796
318.5013007
321.2559769
326.3547628
307.213733
306.5643865
306.3347068
308.0164969
304.9956384
306.7116799
308.4436945
308.7712765
313.1831907
316.8714544
304.8485998
305.3572519
304.5757628
306.9618716
307.5222723
311.5227955
311.4143095
312.0259089
307.7816593
307.3470355
302.0782386
302.4594806
303.9339278
302.2005219
301.1321943
297.3137283
298.8593589
300.7990864
300.8650942
304.3102848
302.7348364
300.5627846
303.7084475
304.5921596
304.6150032
307.2258148
306.927799
307.2522189
308.969726
306.9114884
303.5711926
304.2914056
303.5272779
304.0585931
)
;

boundaryField
{
    flow
    {
        type            calculated;
        value           nonuniform List<scalar> 
42
(
296.3949435
301.5581203
301.3954085
303.0345571
301.2801364
302.181986
298.6592197
297.6036729
298.8506837
300.5541144
298.4323583
302.1950725
298.1864016
298.0968073
300.6083209
304.5085159
300.0628263
299.9228522
302.1127166
300.5485309
300.4862488
299.7419197
296.3949435
294.9160108
296.1177781
296.2629832
294.566067
297.743675
298.0124992
298.5928442
298.5163828
297.2085698
298.6838766
299.6435414
300.1335796
299.9746037
303.0868298
303.9800697
307.8176152
317.907617
344.4678217
432.5475028
)
;
    }
    obstacle
    {
        type            calculated;
        value           nonuniform List<scalar> 10(543.4787801 573.373147 605.0448043 619.1493375 608.7326748 616.0114892 636.313836 620.7885759 646.5364092 655.8025252);
    }
    frontAndBack
    {
        type            empty;
    }
    procBoundary0to1
    {
        type            processor;
        value           nonuniform List<scalar> 
21
(
705.3054106
767.5024493
761.2016778
732.1509419
688.2880134
637.9572781
595.4153736
536.1575408
495.3584177
461.7243234
431.7498713
404.4882924
373.702364
356.9865201
347.5082749
333.2690365
328.1239287
321.0897173
307.8742988
308.0129205
307.7150194
)
;
    }
    procBoundary0to2
    {
        type            processor;
        value           nonuniform List<scalar> 
31
(
303.5010506
301.5118408
298.673085
300.28068
300.5889775
301.5263791
300.1005335
301.1020579
303.3576426
303.7154701
304.2124712
305.1093283
304.2851215
304.5858593
302.8405582
301.4696227
301.3068862
302.5126922
304.1834767
304.6037715
305.5415773
307.032903
307.3748287
307.2789611
307.7539555
307.0305734
304.250742
303.2943209
302.1178683
305.5415773
302.4722581
)
;
    }
}


// ************************************************************************* //
