/*--------------------------------*- C++ -*----------------------------------*\
  =========                 |
  \\      /  F ield         | OpenFOAM: The Open Source CFD Toolbox
   \\    /   O peration     | Website:  https://openfoam.org
    \\  /    A nd           | Version:  7
     \\/     M anipulation  |
\*---------------------------------------------------------------------------*/
FoamFile
{
    version     2.0;
    format      ascii;
    class       volScalarField;
    location    "0.008";
    object      internalEMean;
}
// * * * * * * * * * * * * * * * * * * * * * * * * * * * * * * * * * * * * * //

dimensions      [1 -1 -2 0 0 0 0];

internalField   nonuniform List<scalar> 
654
(
0.3845849005
0.3901099798
0.4071138034
0.3853938251
0.3799543885
0.4091350084
0.4069903554
0.3865243201
0.4083918364
0.3936068184
0.3921297045
0.3882483218
0.3812206137
0.3832235408
0.3838578745
0.3735615212
0.3879272611
0.3967314202
0.4005297649
0.4042292086
0.4079214559
0.4052329611
0.39476217
0.3940209718
0.3876221615
0.3967993831
0.3924326708
0.3892463452
0.3854466664
0.4047117171
0.3856313241
0.379980387
0.3879137337
0.3942160172
0.4072064185
0.3996134493
0.3957461112
0.3764424478
0.3888449994
0.4054671482
0.3989064471
0.4215728215
0.4070352828
0.4089840837
0.3867891047
0.3975674561
0.3875710183
0.3881499632
0.39035921
0.4020263053
0.3772579509
0.3743097745
0.3843896695
0.3963477784
0.3981166293
0.3947003547
0.3788452231
0.4029501663
0.3722495579
0.3861146017
0.4027814289
0.4128794873
0.3877395675
0.4053181419
0.3757090244
0.3767995386
0.3915224381
0.3788561439
0.3852566635
0.3847878026
0.3838655481
0.3833029241
0.392382934
0.3916434486
0.3840235477
0.3876132113
0.3734511982
0.4026156815
0.3960799286
0.3820446922
0.3949339226
0.3957639584
0.4039282712
0.3776267638
0.3935890912
0.3978715098
0.4016858569
0.397240205
0.3793493991
0.3732968913
0.3815808912
0.3885791555
0.4009712906
0.4251388608
0.3912048137
0.3765674509
0.3820463321
0.3986119329
0.3898908862
0.3834651266
0.3891403746
0.3942540092
0.3758747708
0.3837271007
0.3939299754
0.3834875472
0.3872842059
0.3947621736
0.394634354
0.3903280734
0.3969864417
0.4124675059
0.3993962013
0.3891070393
0.379925609
0.3979876461
0.3853660957
0.399606391
0.3814803962
0.3935299713
0.4045126252
0.3960365193
0.3966213472
0.4060997059
0.3917044745
0.3869879521
0.3843670575
0.3991158821
0.3990319738
0.3907372012
0.4001754611
0.3978266099
0.3926533589
0.3899435143
0.3831380786
0.3751787552
0.4144193099
0.3860145846
0.3801874322
0.4076345763
0.3888992679
0.3932585795
0.3920405556
0.4025347409
0.3951931008
0.3907601764
0.3859733888
0.3901714255
0.4074459904
0.40144586
0.3933794361
0.4010706809
0.4070545031
0.3860886799
0.3892087308
0.3896166715
0.3828467949
0.3757780599
0.393606632
0.3891294215
0.3900604926
0.3988266922
0.3924710684
0.3942545516
0.3878552232
0.3998532857
0.3817881812
0.3801285733
0.4000807343
0.3983338607
0.3914909711
0.3965829161
0.3996451707
0.4074913277
0.3977225994
0.3913846952
0.3644769932
0.3764123019
0.3748341052
0.3777788932
0.3954649526
0.389764901
0.3725623897
0.3894128706
0.3918115323
0.3841052389
0.385674905
0.3894083509
0.3866783708
0.3844477038
0.4105268785
0.419530553
0.3847117753
0.3895994419
0.3932698523
0.3755380566
0.3755223896
0.3763164328
0.393276325
0.3807759861
0.3883608815
0.3992369616
0.3893001348
0.3895909811
0.3805177368
0.383895988
0.3646931259
0.3875271396
0.3793476808
0.3898935991
0.4005894905
0.4055944447
0.3960759759
0.3924819949
0.3940891762
0.3791639416
0.3818697749
0.3943750644
0.3873755873
0.3754300626
0.3809040185
0.3800200068
0.3926229375
0.4058312925
0.3680701862
0.3824091539
0.3859972698
0.3832538521
0.3981090984
0.3892398602
0.3850445752
0.3932315899
0.3952039785
0.3950094306
0.3928435917
0.3819532443
0.3654427684
0.3843917863
0.3892316054
0.3835135678
0.3866703761
0.3696171337
0.3896000366
0.3879940865
0.3721740262
0.3943191194
0.3864259676
0.3931202501
0.3895090718
0.3833036956
0.3995911004
0.3830730918
0.3911234942
0.3822501295
0.3880548625
0.383655235
0.3981079131
0.3666526784
0.3701509148
0.3853398107
0.3712305664
0.3934400963
0.3829831146
0.3824601088
0.3826647105
0.410112563
0.376909846
0.3934939978
0.3740169644
0.3902491488
0.3915867995
0.402378516
0.3951659915
0.3736768261
0.3908892652
0.4018537655
0.3959343708
0.3651134884
0.3809403015
0.3954804594
0.368633356
0.3853147158
0.3693185867
0.3785447613
0.3927769815
0.385785738
0.3867045579
0.38639327
0.3712404382
0.3790519559
0.3949317147
0.3793211657
0.3773548813
0.3703171923
0.3865578027
0.3948145712
0.3909455526
0.3827809863
0.3926012986
0.3700891297
0.3864834206
0.3915346504
0.3552075438
0.3784006136
0.3937157551
0.3688891385
0.3781313083
0.3918376873
0.4037443872
0.3770269942
0.3803479027
0.3792482564
0.3783876894
0.388987482
0.3932563408
0.3956705253
0.3821972329
0.3893253664
0.3845535579
0.3781440413
0.3821176888
0.3815036435
0.3684435537
0.3829040239
0.3797080565
0.3863021954
0.3859244275
0.3911860697
0.3737434184
0.3581718017
0.3753637775
0.397556167
0.3922982431
0.4062613428
0.394516899
0.4066844915
0.3956185495
0.3910757587
0.3825572696
0.3890202577
0.3740892806
0.3856896796
0.3724821759
0.3946236124
0.4012653403
0.3979336615
0.3919608964
0.3993890269
0.3885131848
0.3727355768
0.3782978363
0.3834357545
0.3880349886
0.3951431405
0.4103208672
0.3866474938
0.3966168009
0.386613832
0.3747614932
0.3929043218
0.3927681161
0.3909128583
0.3772919072
0.398435963
0.4103748089
0.4038028028
0.3900963351
0.4044441209
0.3903434375
0.3696060072
0.3680998579
0.3841276749
0.3913926755
0.37807098
0.3932956006
0.3793497923
0.3832478667
0.3820756263
0.376548517
0.3754754733
0.3832128946
0.3856796189
0.396698892
0.3968139958
0.3867659355
0.4094472841
0.399929431
0.3995616551
0.3818420777
0.3730177494
0.3722982269
0.3702704538
0.356569183
0.3600599248
0.3728864904
0.3764001045
0.3806845401
0.3923709772
0.3664237682
0.3812121694
0.3927545554
0.3952250905
0.3875277043
0.4117382356
0.4143782738
0.4001306015
0.4011246244
0.404988813
0.3957724872
0.3787362738
0.3651133271
0.3805156353
0.3816228436
0.3708525671
0.3931241922
0.3820866403
0.3894437446
0.3872641167
0.3675629563
0.3875473998
0.3918726708
0.3921743717
0.3957132461
0.3917684026
0.4137798449
0.3866827113
0.3869038169
0.395230012
0.3959494527
0.3941936576
0.3759963102
0.3768494864
0.369536831
0.3898112835
0.3900327341
0.3867600058
0.4009796152
0.3893457748
0.4059243145
0.4019080118
0.4282671813
0.4274080293
0.4383381666
0.4266283594
0.4230459523
0.4096236255
0.4118978376
0.4129237804
0.4183175715
0.4324309409
0.4083864667
0.3960342083
0.4031719532
0.4222154436
0.4045224125
0.3971931888
0.4113163203
0.4180680522
0.4145808079
0.4217225153
0.3928280184
0.3722484344
0.407180147
0.4158893973
0.4367752555
0.4190411802
0.4081770932
0.4130416585
0.4028227545
0.4139166515
0.4025945283
0.4001577011
0.3865410355
0.4146080809
0.4197178212
0.4133525708
0.4000148467
0.399689521
0.42279152
0.4072406644
0.3949666608
0.3884135968
0.3968884256
0.4100055346
0.4152156306
0.4148042508
0.4042241026
0.4144066876
0.4145144515
0.3972523138
0.4063447447
0.409206628
0.4125211059
0.4056579073
0.3947356136
0.386904357
0.4185422772
0.421323313
0.3890885547
0.3749909911
0.3939665819
0.3984557113
0.3752162731
0.3997679927
0.4021333315
0.4093913691
0.4080772811
0.3991307838
0.3945830354
0.3923128725
0.4073832401
0.4096138135
0.398086168
0.3818513126
0.3949728684
0.4025354609
0.406434738
0.403932254
0.3957143025
0.3953282642
0.3811458277
0.3954918249
0.3764861737
0.3841424465
0.3874052699
0.3938456227
0.4119073578
0.3979680276
0.4177450411
0.4167818371
0.3812995391
0.3791370808
0.377548092
0.3814606525
0.399201917
0.3865782817
0.4002046685
0.4107481507
0.3940945018
0.4007757833
0.3763223807
0.3777934585
0.376997418
0.3926394292
0.3982066607
0.3963063984
0.4070544298
0.4011718325
0.3903357941
0.3943548816
0.3645975769
0.3707510297
0.3953910987
0.378783908
0.398121155
0.4064141706
0.4086433438
0.4142618205
0.4042237795
0.3942512671
0.3745719902
0.3750777163
0.3873633893
0.3873964499
0.4128308914
0.3971855366
0.3917063501
0.4158713338
0.4011543287
0.3872302352
0.403559416
0.3924787571
0.3757227983
0.3907220657
0.4120106381
0.3952311862
0.4006882279
0.4247973615
0.3920146376
0.4042612224
0.3743626041
0.3717550274
0.3763027615
0.3907490538
0.3990243568
0.390436746
0.3930845429
0.4142432138
0.3888242229
0.3972112514
0.3848116877
0.3856602034
0.3845711242
0.3850841427
0.3945015902
0.3962322309
0.4030532737
0.405067286
0.3886683937
0.408308872
0.379321948
0.3978483821
0.3934291829
0.3955011378
0.3896477825
0.3903584143
0.4029751988
0.4096658774
0.3992938653
0.3951706916
0.3888763286
0.3915758434
0.3933854027
0.3900215877
0.4025534503
0.3960464462
0.3891495083
0.3990661713
0.3902172394
0.3985444714
0.3933564268
0.3878458908
0.4041806532
0.4064443749
0.4232164902
0.4041555423
0.3957770211
0.3757371753
0.3819649351
0.3922364642
0.3905749205
0.3946476876
0.3847835054
0.3989164637
0.3846567228
0.4096384708
0.3923955132
0.4223788022
0.4045535136
0.3897791292
0.4068205481
0.3797650418
0.3697746387
0.3851541267
0.3957053608
0.3841623902
0.3870371005
0.4054949043
0.4064154972
0.3874989283
0.4015411003
0.3935505824
0.3840673189
0.3895968024
)
;

boundaryField
{
    flow
    {
        type            calculated;
        value           nonuniform List<scalar> 
42
(
0.3845849005
0.4079214559
0.3989064471
0.4027814289
0.3949339226
0.3891403746
0.4045126252
0.3888992679
0.3900604926
0.3954649526
0.3883608815
0.3809040185
0.3866703761
0.3712305664
0.368633356
0.3864834206
0.3821176888
0.3740892806
0.3927681161
0.3832128946
0.3927545554
0.3918726708
0.3845849005
0.3901099798
0.4071138034
0.3853938251
0.3799543885
0.4091350084
0.4069903554
0.3865243201
0.4083918364
0.3936068184
0.3921297045
0.3882483218
0.3812206137
0.3832235408
0.3838578745
0.3735615212
0.3879272611
0.3967314202
0.4005297649
0.4042292086
)
;
    }
    obstacle
    {
        type            calculated;
        value           nonuniform List<scalar> 10(1.903775307e-19 1.703412253e-19 1.632837877e-19 1.934118004e-19 1.73792032e-19 1.729430341e-19 1.461466653e-19 1.646968472e-19 1.711699232e-19 1.81374446e-19);
    }
    frontAndBack
    {
        type            empty;
    }
    procBoundary0to1
    {
        type            processor;
        value           nonuniform List<scalar> 
21
(
0.4216199499
0.418742479
0.4261312221
0.4281733103
0.4212290211
0.4074686568
0.4045220337
0.3947782741
0.4051367431
0.4110980066
0.3973805842
0.3885289319
0.3876050849
0.415552222
0.3999561721
0.3993470253
0.4051919986
0.3990650874
0.406941324
0.4008572199
0.3960304799
)
;
    }
    procBoundary0to2
    {
        type            processor;
        value           nonuniform List<scalar> 
31
(
0.386364257
0.3936390147
0.3803889013
0.3791855324
0.3953111139
0.3851841229
0.3919492224
0.382812602
0.3885181449
0.3926730536
0.3777811777
0.3833393445
0.3874520006
0.3883078112
0.3942482913
0.3710956452
0.3789366841
0.392112586
0.3974079212
0.3877104206
0.397169038
0.3812786222
0.3850047671
0.3992050199
0.3894741183
0.4000113824
0.3949470802
0.3997528023
0.4009915089
0.397169038
0.4100100357
)
;
    }
}


// ************************************************************************* //
