/*--------------------------------*- C++ -*----------------------------------*\
  =========                 |
  \\      /  F ield         | OpenFOAM: The Open Source CFD Toolbox
   \\    /   O peration     | Website:  https://openfoam.org
    \\  /    A nd           | Version:  7
     \\/     M anipulation  |
\*---------------------------------------------------------------------------*/
FoamFile
{
    version     2.0;
    format      ascii;
    class       volScalarField;
    location    "0.008";
    object      internalE;
}
// * * * * * * * * * * * * * * * * * * * * * * * * * * * * * * * * * * * * * //

dimensions      [1 -1 -2 0 0 0 0];

internalField   nonuniform List<scalar> 
654
(
0.4114783877
0.6378218709
0.685863758
0.4287003606
0.7939859484
0.4385452081
0.3970995493
0.2907029622
0.4948521352
0.5981587887
0.6725367511
0.1946799397
0.3987378528
0.276286036
0.6687258165
0.4118753548
0.6873462988
0.6339640276
0.3755929384
0.2278504565
0.284462064
0.3202695168
0.2769845955
1.239254655
0.3807359121
0.1076613811
0.3337915716
0.303673066
0.3430757765
0.3402907875
0.5143689605
0.3800670937
0.08585635509
0.6316549405
0.5365987508
0.2769651052
0.2548980448
0.3066451394
0.3212579616
0.2741005198
0.7716771514
0.3654430041
0.6631047086
0.6640190121
0.6996619109
0.585535162
0.2670402112
0.2881558872
0.3202806121
0.5994095344
0.02439046594
0.3791305635
0.3723379656
0.4172216797
0.2940772233
0.5864933241
0.5096371842
0.3447494177
0.2638135703
0.3966462663
0.3161779669
0.51221855
0.09038621206
0.5796868427
0.377572167
0.08297342196
0.5541138027
0.3775192875
0.4698334152
0.2349394714
1.098102822
0.3875769168
0.3940548441
0.4453241988
0.1229251206
0.4168101623
0.4961496361
0.7772758473
0.5732785966
0.559346903
0.2210990599
0.1272259068
0.08794546539
0.4458912271
0.4602184591
0.6722671219
0.1640783779
0.3557497947
0.2431626675
0.2145884303
0.4248418328
0.1322072353
0.5721602248
0.5609752124
0.5968453133
0.9644443056
0.8824076076
0.3172012736
1.356134624
0.4921839567
0.378707198
0.2695984185
0.5131265195
0.3751408532
0.1837752081
0.0880754109
0.1783007061
0.1059567762
0.3000346968
0.2068273562
0.173687976
0.7141803823
0.4648847988
0.3763506563
0.4484630993
0.5835975209
0.1862814318
0.248868415
0.3898495371
0.3255198858
0.8169099494
0.2495741152
0.5146973007
0.4693475004
0.4782268387
0.5407077338
0.1457472792
0.04416807743
0.3317739617
0.3188050763
0.679642458
0.4514540142
0.2952675014
0.5006067658
0.4144898405
0.545023691
0.321068853
0.8114967143
0.6545288475
0.3390206405
0.2265341763
0.4036009782
0.111718157
0.3496987839
0.5453786008
0.4145586267
0.6306617657
0.2734329273
0.2031365696
0.3860665993
0.5159845972
0.8039660782
0.6027099827
0.3167196735
0.370154502
0.3899577158
0.4449895724
0.3604843835
0.2699842474
0.2613374209
0.8896204629
0.2966723486
0.3213856796
0.4414274904
0.3248682686
0.4760270778
0.8849721264
0.3121543069
0.3033823002
0.2871094742
0.2463658245
0.397666674
0.8061123842
0.2197745588
0.3448931885
0.3972296806
0.6442665066
0.7331169973
0.2292793263
0.4391319685
0.5176379111
0.3279910175
0.4243016432
0.08485726525
0.2385149431
0.314653088
0.4476377399
0.5276716241
0.2133472557
0.391993436
0.6903346852
0.2290355257
0.4596031081
0.9173417119
0.5689629075
0.4067814165
0.2547543054
1.141058691
0.1738657301
0.3193479175
0.5867519244
0.1633430797
0.306877983
0.4973475266
0.5323289999
0.3294418319
0.1688051764
0.4698120707
0.4613019739
0.3034158231
0.1769374428
0.424560511
0.7354107574
1.107982884
0.6228136177
0.6452440223
0.2129654183
0.3683924202
0.5062417269
0.3028141973
0.1991471532
0.1246428375
0.356621323
0.3349407454
0.7436158352
0.6943831419
0.6509180208
0.507854563
0.2497965767
0.2429911572
0.1684234344
0.2418122148
0.1048807269
0.5239561029
0.2880984266
0.4654145849
0.3898290176
0.3599257383
0.2094431681
0.0872069832
0.387135103
0.3369059513
0.4427428129
0.2978574838
0.3136250499
0.43962064
0.5333068703
0.2854207048
0.4549696481
0.8877691316
0.5111921608
0.580868968
0.5741204187
0.3835641543
0.4158843405
0.7158028348
0.2149418275
0.1515721027
0.2927290942
0.5589103224
0.5246836013
0.1237442958
0.6101155907
0.7309779081
0.6649672421
0.5956680867
0.1579902052
0.6400575828
0.6611665701
0.5178028827
0.7323470939
0.2078608015
0.2524272862
0.4244157278
0.2301170203
0.2996219077
0.5291276683
0.1439260561
0.2466014004
0.7814452511
0.2880525918
0.1866922493
0.3572277741
0.2946559902
0.2275527581
0.2735396875
0.1448699247
0.413100702
0.08168402229
0.2713009959
0.02126440541
0.1873626305
0.4203825346
0.7535852199
0.5741617665
0.776868031
0.3838298528
0.1699688331
0.3429606463
0.3365837701
0.4650196547
0.4782829683
0.1615550422
0.2511313235
0.2696686973
0.1725621025
0.2146884555
0.1501366333
0.4731892788
0.51771093
0.390991504
0.6387896615
0.2588351017
0.6851728006
0.4691925354
0.3229239572
0.5486217
0.2935390895
0.3218569334
0.3454914792
0.2497552094
0.4148033496
0.5333533719
0.3769478576
0.5917724733
0.3384258949
0.2213273823
0.4254098192
0.4699335765
0.3283606921
0.396587104
0.462629805
0.4266098965
0.09527756851
0.3607081973
1.198586573
0.3235647654
0.2363501504
0.1967082502
0.1335980568
0.3282011622
0.3376632413
0.5218328158
0.3651238262
0.6188076773
0.2058631807
0.5149612855
0.4798429103
0.3886806647
0.3193475314
0.3202593696
0.4778880613
0.2217423151
0.2458468671
0.366145534
0.225194696
0.1244748122
0.6598527958
0.2976797274
0.3472292716
0.789649307
0.1315904812
0.4479491621
0.3117883921
0.3640740546
0.3159376031
0.8970829355
0.5475785361
0.427490818
0.4463116262
0.3482522863
0.3710594932
0.3416200182
0.8921912122
0.7066909627
0.1508204997
0.3411670413
0.2959358364
0.6179850138
0.1843083511
0.4213901323
0.3043376713
0.5764583555
0.2330065503
0.4744401678
0.6460240031
0.5646783142
0.1405021123
0.271220093
1.028070456
0.5873349566
0.1016321682
0.3840641469
0.5778953233
0.7144221829
0.3130448392
0.5522813238
0.3589640291
0.4356778144
0.4268715134
0.2292179732
0.585718166
0.5709793856
0.4982852941
0.5316933276
0.412408081
0.236536266
0.2856516543
0.5068796942
0.4895128503
0.5087314112
0.04749722576
0.3856904177
0.6387287472
0.3779519676
0.2057577983
0.321561881
0.5292020065
0.1091965932
0.7397321075
0.4862231358
0.4075441214
0.7128067559
0.5723413091
0.8077899511
0.2228312983
0.5602829919
0.60134792
0.6367400316
0.5934661611
0.3699721245
0.2326634466
0.3578483957
0.4035913122
0.1098922892
0.3085334169
0.06751648334
0.3999346547
0.2750496881
0.5223645833
0.1199108945
0.6170214557
0.310196864
0.3177773357
0.5601693843
0.5040962369
0.1734954201
0.3026507741
0.8117275584
0.2130302806
0.4910656242
0.3970324299
0.4353352307
0.4127732363
0.3784896956
0.5003130227
0.653674669
0.5561265883
1.030583483
0.2149625149
0.4899670676
0.08335801576
0.3930500042
0.6057545899
0.427278589
0.4184539911
0.4500466147
0.1495304537
0.3019424889
0.5908383111
0.2179939619
0.3272410888
0.5084524337
0.08711379055
0.1650089791
0.2512385776
0.7425123274
0.5159916819
0.200337761
0.1954552346
0.3775630552
0.7814325194
0.2701603009
0.1190439522
0.6741830785
0.581915812
0.03398652627
0.2288773981
0.2948058124
0.5811435081
0.5165471523
0.6323902427
0.7566644825
0.7223352957
0.2326301391
0.6652593548
0.3554717184
0.5531459803
0.5610623125
0.2337647261
0.5974197666
0.914516544
0.3123574257
0.08982694046
0.4078271561
0.2436972508
0.4448553539
0.2159158672
0.6229482301
0.4031532107
0.3093546137
0.7054667639
0.3463260815
0.120230166
0.1497514736
0.1235609722
0.8651647816
0.5621027079
0.5021140087
0.9448635203
0.1078199986
0.129707136
0.244016435
0.7990607765
0.07207121617
0.6078046302
0.136713684
0.6803176404
0.2978322352
0.8551222972
0.3937649185
0.8407023007
0.3036879034
0.5168124762
0.6100019626
0.427889398
0.7060200393
0.6327559397
0.7617805127
0.3331869849
0.2090021407
0.5505878738
0.5202356545
0.4469810049
0.3112705077
0.1416480627
0.2712837122
0.6412519142
0.8023119036
0.419387695
0.3214083604
0.6478740617
0.4904884822
0.3076152713
0.3591137539
0.6518961962
0.6157577386
0.4634571099
0.5027307567
0.2349706309
0.4922198608
0.1589765558
0.2807918559
0.5483814629
0.6059681167
0.1355928823
0.3764973702
0.8908863757
0.05487878528
0.5161080277
0.3169691597
0.1734843153
0.5451135015
0.5162760287
0.3141958441
1.040923129
0.4589982289
0.2410410419
0.5522698785
0.5567426488
0.2244363063
0.6035332304
0.5605837449
0.164307741
0.4509178566
0.2637937559
0.370703124
0.6020346781
0.4159922081
0.4477691908
0.3168638303
0.3200546613
0.8565612609
0.07677768662
0.3091853912
0.3053515975
0.5909813884
0.6619929392
0.3396383506
0.1887764408
0.1692664309
0.5481804638
0.6956351773
0.3176524303
0.001014991956
0.8661799387
0.4718730596
0.6127134333
0.5821244674
0.1495404994
0.7508379158
0.3574397076
0.4654622802
0.3412811751
0.2352247788
0.584038865
0.5570585993
0.5594620904
0.5047518843
0.5001502705
0.4762033888
0.3797838697
0.6174393039
0.4266819659
0.2263016841
0.7878541144
0.744302489
0.6033559063
0.1179311765
0.06629474799
0.3427876717
0.2708793738
0.233707554
0.2373174328
0.3815271223
0.09974465578
0.424881748
0.5303238085
0.9193911666
0.5730523713
0.5213726136
0.7396935666
0.3720616475
0.3882717419
0.3467513043
0.142536747
0.09053440297
0.5900878283
0.6538153507
0.2178899624
0.6252912024
0.2544957111
0.3407297236
0.4582686289
)
;

boundaryField
{
    flow
    {
        type            zeroGradient;
    }
    obstacle
    {
        type            calculated;
        value           uniform 0;
    }
    frontAndBack
    {
        type            empty;
    }
    procBoundary0to1
    {
        type            processor;
        value           nonuniform List<scalar> 
21
(
0.6024442276
0.3605754366
0.3599980472
0.7970030495
0.5305481959
0.3864149158
0.1548756901
0.06801409641
0.2751743158
0.8222686288
0.286284066
0.7694758412
0.1774789158
0.3808547526
0.7543330232
0.1124962548
0.7252434917
0.1069492346
0.3189089798
0.7421443633
0.574305224
)
;
    }
    procBoundary0to2
    {
        type            processor;
        value           nonuniform List<scalar> 
31
(
0.3112101953
0.782297971
0.6036692046
0.2972891629
0.1498911876
0.4841990878
0.5679465449
0.4032203017
0.1652361713
0.7874011934
0.8201312132
0.2598890256
0.5767962749
0.4036841858
0.1829245114
0.5425807118
0.2763973701
0.5585713899
0.666934302
0.6323548331
0.5205378945
0.2374611445
0.7176953866
0.4814914799
0.3372254559
0.5155002036
0.7318650334
0.5273793784
0.7426036066
0.5205378945
0.3499868284
)
;
    }
}


// ************************************************************************* //
