/*--------------------------------*- C++ -*----------------------------------*\
  =========                 |
  \\      /  F ield         | OpenFOAM: The Open Source CFD Toolbox
   \\    /   O peration     | Website:  https://openfoam.org
    \\  /    A nd           | Version:  7
     \\/     M anipulation  |
\*---------------------------------------------------------------------------*/
FoamFile
{
    version     2.0;
    format      ascii;
    class       volScalarField;
    location    "0.008";
    object      overallT;
}
// * * * * * * * * * * * * * * * * * * * * * * * * * * * * * * * * * * * * * //

dimensions      [1 2 -2 0 0 0 0];

internalField   nonuniform List<scalar> 
654
(
291.930489
300.9098726
296.8279243
296.5362657
296.7575945
299.410935
299.3940465
298.4159769
298.0520116
298.2411592
299.9419022
299.2194877
299.489792
301.146639
307.8187753
315.3079403
337.4525048
389.2633579
545.4296278
954.9643082
294.828814
305.5289585
300.6115186
301.1834764
301.1639838
300.0084557
299.4633091
299.9391214
299.932589
300.2709379
301.3450246
301.9437123
301.7990375
305.4480055
307.0289344
322.1554003
353.2401019
413.7742648
583.6656255
859.1008607
295.7992439
305.8519118
301.4284055
302.1668876
302.1915706
301.6087112
301.2721609
301.53153
301.721191
302.5602077
302.2339612
303.1339408
302.1924431
304.0215379
307.2930619
322.1114306
351.742826
413.3961304
531.858432
715.6314423
295.497753
304.4372987
300.5978127
301.4195857
300.5213186
301.3072463
300.5134955
300.9848317
302.0032888
301.9754673
303.3242672
302.7724886
302.655343
306.0571127
309.4552757
323.2541673
343.9125711
395.6168401
478.9022478
592.1680212
296.1185514
305.4433015
300.8533419
301.7093351
302.8751264
302.9640242
301.9771657
301.681892
301.1861583
300.3693164
301.4833347
303.4142427
306.4317771
309.5438516
309.5022014
321.2015832
339.997867
372.2250677
423.0697237
507.7770627
296.8995225
305.4789053
302.0897215
301.2710205
300.4115998
299.316941
299.3242492
299.6230798
299.3594182
300.4196368
300.7254549
301.8995445
302.7563987
304.2051277
306.3738206
317.7327627
326.9945165
353.1897237
395.1709113
450.4254968
293.7088682
303.6908768
300.6661656
301.2118762
299.5129426
298.9081314
299.1409737
300.5383627
300.5895188
299.1838745
300.618073
301.1293521
303.243337
306.4165966
311.2384636
313.1076122
324.2972681
339.8223091
366.019759
406.3476398
290.8158526
302.4169107
298.3217628
298.4895505
300.5659444
302.1963891
301.3674252
300.3681829
300.4117383
301.4499509
301.3870068
300.9331996
301.4066762
301.5150533
304.0864915
313.4184175
318.4002279
330.6659961
346.3945488
381.3442959
294.7297355
302.8357759
296.6425732
297.1485266
296.8661716
296.7543994
297.2505409
297.5694849
298.9460409
299.240816
299.9346682
300.2350776
301.0367546
303.9966073
306.8449109
311.8603466
316.2929843
326.364546
332.8538559
358.6758555
294.8039018
304.3890987
301.6521372
301.8197029
301.0561522
300.5322322
301.2492567
301.259329
299.0868788
299.8461804
301.604235
301.9005328
301.7923709
304.9030536
305.5004575
305.1300367
311.4875986
317.8166884
324.0223162
341.9627719
295.5933284
305.1081223
301.0977421
301.805292
300.2200906
301.2671695
300.4538887
298.6739784
299.5422164
299.3167229
296.8630953
298.1432494
298.5924753
301.517983
303.1836146
303.8313613
306.2547084
311.1944634
317.6303791
329.4432834
294.4825406
302.7150986
298.4945237
298.5504462
301.1490778
300.3081731
299.8267925
300.6641463
301.1933802
299.7011556
301.1681415
301.5005557
301.731362
303.1037018
301.574735
301.6082029
303.4000129
306.5108491
318.1716829
329.7537664
295.6790877
305.7261244
301.6682073
301.1669673
300.2342675
299.4021443
300.3545864
301.0182005
300.3383259
301.758643
300.8667618
300.5109792
300.0342146
299.9721224
301.367888
300.9584675
303.8229035
304.6981633
313.8389192
320.7975802
293.7568929
301.4740407
298.2809152
300.5551347
301.8361072
303.8638484
302.7447608
300.9578263
301.513637
301.4793483
302.2682939
304.8877538
303.9098373
302.0918073
303.6374683
303.829687
304.5759635
305.6980167
311.1115679
313.2150493
293.5322432
304.965454
301.3494507
301.0792429
301.0373402
300.6438766
299.5961428
300.942514
300.4963951
299.2731907
298.6974125
299.7865663
300.2080561
299.5743268
301.2040009
301.6198517
304.3127951
302.9366574
307.7038754
310.9757505
295.1319405
304.6236492
298.5867967
299.2527269
298.1294034
298.6856191
299.505108
299.8844504
300.3460388
300.6024774
301.7528665
300.1472874
299.940011
301.0447819
301.5202958
301.5236669
303.8559691
303.9168745
309.0095203
306.6940258
293.9467509
303.5890124
298.5754862
299.1218178
300.0386668
299.5265737
299.7618113
299.7032266
301.1557414
302.1233327
299.4541389
300.6795744
300.8340841
302.2790075
301.6320554
301.7383099
303.0269243
303.3995976
306.9926676
307.3956966
291.8562838
300.8745696
297.381433
297.5768532
297.2648004
298.0331434
299.2768457
299.3098295
298.1705958
299.1079175
300.4108335
302.3903186
302.8845614
301.3964663
302.6061483
304.3300335
301.5843362
303.5682224
305.6784926
309.6276534
295.4084909
305.000455
302.1194545
300.8822629
300.4610273
298.7591994
297.6181985
296.919683
296.6708338
297.3677558
298.1694337
298.9488003
299.9955174
300.3962025
300.4788487
302.5578307
302.6211529
303.3309845
303.9138589
305.7414541
295.9488389
305.1186842
300.0060287
300.4018049
300.383447
301.0151919
301.829314
302.0258654
304.0370003
305.4682691
303.7627541
303.0459605
302.5135091
301.9805533
302.2266826
302.1390335
303.0177013
302.3537827
303.4984443
305.3715075
295.7468093
304.7334528
300.2626786
300.9816111
301.6905361
302.7605528
301.2106021
300.6566136
299.1267177
298.9611251
299.2729395
300.4496637
300.6511828
299.6087852
300.4779236
300.211172
301.2117056
303.1431391
301.9550406
299.8607541
294.9094849
304.9679121
301.6022758
302.0167515
301.0529943
301.6785457
302.2963162
301.4955289
301.037097
301.2774066
301.8131976
301.0777834
300.3041401
301.0936706
301.6805193
302.7958772
304.3542029
302.7866807
302.0083808
301.0011517
1051.834778
997.9839541
966.3788503
944.9999753
926.5570535
910.3856473
895.0505341
876.2926313
856.7395854
846.7309702
1013.695397
1016.254255
1000.69077
986.0395758
973.2931627
963.8032687
949.3818978
942.4796652
939.5177269
926.7987833
873.5779239
930.7997667
941.1422946
946.712377
941.4418851
942.3774912
947.3365398
945.478428
938.1353899
932.6600201
728.0157355
796.0871986
858.7092477
881.7844932
894.691668
902.9986044
908.1320928
910.6321206
908.0446945
914.122057
605.3137229
682.8156487
759.0600341
797.9730595
825.9644002
850.1135411
861.8111009
872.549096
866.1792147
874.1571629
512.3980025
582.6593619
648.3528823
718.3377016
747.4324314
779.2495354
811.3018527
822.9298407
830.6650716
838.6832714
463.5439673
514.9818722
555.2261696
628.6291625
667.4906901
697.382783
741.4777465
768.5170942
791.0253808
796.654222
420.7309266
452.3285454
502.35536
553.8895716
600.1001237
631.9202796
669.4642037
699.4654183
724.5461223
746.6089297
387.7941661
419.8652145
447.0644985
483.2039499
527.9335592
561.8701501
593.5677428
627.2188921
661.3274842
685.839424
363.1268008
385.4005859
405.6190909
437.9456868
468.509234
501.6523017
533.1650737
567.5720643
606.3344112
628.4547151
342.8048578
362.5603921
385.6403266
406.4207529
427.8760626
452.1928176
479.2095524
516.9157724
549.6033772
571.8804082
334.455504
344.2621765
361.2020665
378.8174968
394.6828693
421.4288231
442.6645555
471.1594937
491.9748349
522.6302749
330.6094645
333.0642423
341.0170689
356.8173792
368.6784488
388.7261009
405.4158418
429.5504511
453.5646396
474.3521572
322.0530728
323.8319909
327.6352344
340.7860224
350.1778591
362.5680666
375.3739606
394.3410098
416.8952305
439.695726
314.8650886
320.0008771
325.2191932
329.3791893
343.1286234
352.7920818
362.1245998
369.583724
389.0270222
401.3354187
310.5420624
313.250475
317.996394
323.0787716
332.7944482
341.2416621
346.2170523
351.598377
364.6575731
377.4792842
311.6657203
312.1929344
315.7815382
319.1904847
323.4454238
328.2624978
332.7958087
343.0293514
351.9838127
363.8060341
307.322947
309.1220482
311.3058231
317.6679768
317.0123154
320.1861937
326.6707982
332.032276
338.1845834
344.8900422
306.1280085
308.2845743
311.7111297
313.1359414
314.6932116
318.8878158
321.853428
327.3689518
327.6524841
329.0465739
305.837481
305.6899184
305.7172427
306.8964644
310.109608
309.2573511
310.713341
316.0028942
320.3746373
325.4726514
301.985278
300.7570826
305.5210216
306.0625387
309.2179829
311.7398664
313.177738
316.1344667
315.6050182
318.9171192
303.320377
303.5699043
304.5836415
304.6070754
)
;

boundaryField
{
    flow
    {
        type            calculated;
        value           nonuniform List<scalar> 
42
(
291.930489
294.828814
295.7992439
295.497753
296.1185514
296.8995225
293.7088682
290.8158526
294.7297355
294.8039018
295.5933284
294.4825406
295.6790877
293.7568929
293.5322432
295.1319405
293.9467509
291.8562838
295.4084909
295.9488389
295.7468093
294.9094849
291.930489
300.9098726
296.8279243
296.5362657
296.7575945
299.410935
299.3940465
298.4159769
298.0520116
298.2411592
299.9419022
299.2194877
299.489792
301.146639
307.8187753
315.3079403
337.4525048
389.2633579
545.4296278
954.9643082
)
;
    }
    obstacle
    {
        type            calculated;
        value           nonuniform List<scalar> 10(932.0521953 885.5827583 835.1360499 828.3306995 809.3671245 778.5919765 781.6377829 736.203259 763.6280309 736.0061839);
    }
    frontAndBack
    {
        type            empty;
    }
    procBoundary0to1
    {
        type            processor;
        value           nonuniform List<scalar> 
21
(
836.6392204
922.8465246
926.417306
912.6350945
875.6271701
838.7647022
804.4715775
754.788967
713.1554414
662.2064409
611.0153384
555.9066819
504.5848253
462.58286
429.5512628
395.8646609
376.0417224
359.1298446
336.7929272
328.8417674
322.923248
)
;
    }
    procBoundary0to2
    {
        type            processor;
        value           nonuniform List<scalar> 
31
(
297.3157322
304.0057831
298.2288124
299.5259666
299.9412407
300.1456007
299.847212
301.3141353
303.1988514
303.0644515
303.3108655
302.8624093
302.4559524
302.6961462
302.6300786
300.5887498
300.0463267
300.266429
302.0739704
302.219467
305.5444335
308.6318406
310.4217707
312.382696
314.7721817
315.4363341
302.4350834
301.9819719
301.8538819
305.5444335
303.1188447
)
;
    }
}


// ************************************************************************* //
