/*--------------------------------*- C++ -*----------------------------------*\
  =========                 |
  \\      /  F ield         | OpenFOAM: The Open Source CFD Toolbox
   \\    /   O peration     | Website:  https://openfoam.org
    \\  /    A nd           | Version:  7
     \\/     M anipulation  |
\*---------------------------------------------------------------------------*/
FoamFile
{
    version     2.0;
    format      ascii;
    class       volScalarField;
    location    "0.008";
    object      p;
}
// * * * * * * * * * * * * * * * * * * * * * * * * * * * * * * * * * * * * * //

dimensions      [1 -1 -2 0 0 0 0];

internalField   nonuniform List<scalar> 
654
(
0.3791239742
0.389551459
0.4050691842
0.3980884501
0.3981230729
0.3999600098
0.4031138731
0.3962912369
0.403954237
0.3973931987
0.3993980584
0.4089748877
0.414654502
0.4159046105
0.4057185409
0.4014407629
0.4152992214
0.4197062083
0.4208439022
0.4217965978
0.3929531557
0.4038780709
0.3971042762
0.401628203
0.394285116
0.4072959378
0.4202817407
0.4135830946
0.4082590373
0.413720396
0.4140923592
0.413330521
0.4321138472
0.4237806668
0.4396612559
0.4284088476
0.4304455108
0.4329695344
0.4397283173
0.439757983
0.3847923375
0.4036449218
0.4087553296
0.4101571134
0.4005564558
0.4101709739
0.4055744964
0.4184507608
0.4147679058
0.4216644683
0.4226518252
0.4165375543
0.4209084075
0.4248327907
0.4351252323
0.4337953103
0.4201920882
0.4329540049
0.4300769671
0.4498250783
0.396185816
0.3963235102
0.4056660412
0.4095954385
0.3884705348
0.3958214291
0.4168973845
0.4127150987
0.4139109678
0.4127332526
0.422967539
0.4126684898
0.4253469898
0.4336075242
0.4348975102
0.4388439404
0.4197309192
0.4475703216
0.4503257557
0.4511080946
0.3796385423
0.3927182048
0.4030378508
0.396903007
0.4066861006
0.3998404599
0.4149429669
0.417355814
0.4208943857
0.4155055647
0.4115917565
0.4179372114
0.4293673869
0.4403929324
0.4415779441
0.421686572
0.4379060964
0.4507857932
0.4520294106
0.451451511
0.3838243527
0.3906772994
0.3958608748
0.4046602581
0.4054868207
0.394355559
0.4149552069
0.4194477746
0.4139634741
0.4193353505
0.4200538111
0.4251575357
0.4236388654
0.4372431615
0.4266282472
0.4358917753
0.4244223378
0.4418975814
0.4441686661
0.4463303377
0.3953690973
0.4102274208
0.4086680868
0.4110119376
0.410445287
0.4052194845
0.4056401265
0.4065625206
0.4181633941
0.4264790453
0.4308158449
0.4163572584
0.4323007052
0.4311026596
0.4302829881
0.422363412
0.4363721136
0.4349459781
0.4326146889
0.449009778
0.3950658557
0.4032541026
0.4020627866
0.3989153236
0.3980738865
0.4197068559
0.4070470133
0.4163622004
0.4276178862
0.4270309671
0.4282422375
0.4379735008
0.4380888322
0.4416926752
0.4422719914
0.4367770593
0.4447659118
0.4465312189
0.4334998606
0.4456600433
0.392815009
0.4006155798
0.4036698818
0.3991012365
0.4024490825
0.4000634136
0.4078537253
0.4073366066
0.411837034
0.4253481987
0.4266440539
0.4309968864
0.4346818617
0.4370262334
0.4338606158
0.4380841901
0.4392787613
0.4453636788
0.4332638349
0.4374879951
0.3953887899
0.3942431547
0.3853710023
0.4005000048
0.4043873344
0.4107780624
0.4140682767
0.4167280558
0.4177443085
0.4118974007
0.4208106097
0.4328330679
0.4280830749
0.4355272435
0.4357786829
0.4310919527
0.4273997122
0.4349061308
0.4342186424
0.4399160202
0.3945927372
0.399649767
0.399669062
0.4054632829
0.4036094918
0.4177459386
0.4006247271
0.4199239641
0.41332262
0.4132407066
0.4142272899
0.4254732474
0.4235544571
0.421346671
0.4344572822
0.4297369058
0.4395537154
0.4419208784
0.4392571415
0.4387659619
0.3899268094
0.3923723826
0.3867796951
0.4052524239
0.3918052652
0.4038886193
0.4203324265
0.4184544613
0.4289250498
0.4260462874
0.4148008541
0.4251255271
0.4246877233
0.4276536551
0.4265440891
0.4405363929
0.4364874551
0.4315100124
0.4448882893
0.4441207066
0.3805319887
0.3927245996
0.3989976452
0.3955285598
0.3933826536
0.4117433444
0.4135864639
0.417609623
0.4234662796
0.4161559495
0.4329103191
0.4283904632
0.4213195612
0.430585298
0.4430628842
0.441343893
0.45753214
0.444907487
0.4581239066
0.4609111015
0.3762665019
0.399135974
0.3879692485
0.4109413127
0.4011435251
0.4133282328
0.4141022159
0.41913922
0.4091134453
0.4246826285
0.4290693548
0.4358073859
0.4275765699
0.4244717538
0.4432224615
0.45127501
0.4443890433
0.4448040646
0.4427605649
0.4549555975
0.384208733
0.4004963809
0.4085927215
0.4007453321
0.407921921
0.4102088582
0.4119170537
0.4118699446
0.4092286977
0.4122629445
0.4249072193
0.4261970409
0.4204232566
0.4131998277
0.418821784
0.4315700455
0.4453538341
0.4450464098
0.4518130632
0.4429660848
0.3936766412
0.4000213313
0.3993512769
0.4105017944
0.405529769
0.4042183344
0.4000722728
0.4154050282
0.4203888831
0.4133079699
0.4104176573
0.4284358596
0.4273282694
0.42498958
0.4261714639
0.4318626645
0.4373381843
0.4410487574
0.4498532507
0.4544223955
0.3927230964
0.396500998
0.3967483801
0.407229829
0.4047226942
0.4088416584
0.3987521134
0.420115397
0.4255904948
0.4177914929
0.4163809838
0.4347668862
0.424654136
0.4381428271
0.4171189448
0.4317792995
0.449317901
0.4506173313
0.4438024947
0.4528121455
0.38048336
0.3950435871
0.4014164305
0.4188323274
0.4128586686
0.4111214732
0.4066890612
0.4223453941
0.418442128
0.4183125575
0.4163851613
0.4376651037
0.4312126662
0.4361701369
0.4339054352
0.4349245253
0.4445828196
0.4428407885
0.4345204585
0.4374290501
0.3944736064
0.4018729211
0.3926812125
0.4128744871
0.4004664958
0.4093225319
0.410795486
0.4237907924
0.4342324968
0.4272586151
0.4139539317
0.4164209862
0.4308441708
0.4247733868
0.43281367
0.440061614
0.4338449981
0.4339439683
0.4408441499
0.4496154804
0.3804425184
0.396734931
0.3966947164
0.4049656133
0.4057144037
0.41401939
0.4222011912
0.4157794768
0.4256142936
0.418231104
0.4214607395
0.4175066558
0.4203077786
0.4240687768
0.4339257967
0.4415784376
0.4362250874
0.4324011411
0.4311890944
0.4415510507
0.3907833449
0.3974610184
0.3991725653
0.404656446
0.4139437611
0.4085414557
0.409341961
0.4145300216
0.4131332324
0.4185120987
0.4197760108
0.4298220621
0.4437834663
0.4308688043
0.450562664
0.4444134481
0.4584777676
0.4558351606
0.4461605947
0.4428518972
0.4093073038
0.4046028127
0.4013047475
0.3993856237
0.4109741991
0.4025500555
0.4074535283
0.4187719955
0.4240266243
0.4357019216
0.4318313526
0.4181758948
0.4293168026
0.4339723947
0.4439263734
0.42782308
0.4469643954
0.4490528442
0.4556511415
0.4498917039
0.449651419
0.4550805979
0.4736587401
0.4794702597
0.4710717092
0.4732057833
0.4666900429
0.4579531422
0.459996074
0.4758864235
0.4384860159
0.4519057449
0.4694772631
0.4857690113
0.4758723951
0.4805583227
0.4775460808
0.4717601066
0.4922565556
0.4880768069
0.4465857123
0.4461501106
0.4759252446
0.4861329918
0.4901262169
0.4863747076
0.4618659661
0.4874530985
0.499282243
0.4966251443
0.4647135277
0.4665041499
0.4677820676
0.4667250842
0.4765368727
0.4796972177
0.4881597595
0.4992785406
0.4981151278
0.5051111572
0.4512420385
0.4601311341
0.4711390368
0.4712212938
0.4752123874
0.4835321597
0.4818965903
0.4832817993
0.4892086452
0.4919478667
0.4516215771
0.4710823342
0.4680343911
0.4712004743
0.4631146527
0.457828185
0.4829601681
0.4842143916
0.4709634672
0.4686955368
0.452787763
0.4416723
0.4335211416
0.464895227
0.4808052634
0.4834569181
0.485277373
0.4666270669
0.4743432889
0.4707633571
0.4625516524
0.4563259344
0.4590923061
0.4466501196
0.4452768373
0.4617232587
0.4712304078
0.476388201
0.4759309004
0.4615857227
0.4383296104
0.4512786474
0.4425294146
0.4548696901
0.462261323
0.4664267281
0.4665791975
0.4602048853
0.4949583375
0.4897402943
0.4500447087
0.447920797
0.4597429552
0.4555043037
0.4621096443
0.4684385922
0.4787801133
0.4787929139
0.4848467948
0.4921543584
0.4489085074
0.4455855323
0.4485545362
0.4689311788
0.4736393779
0.4712697974
0.4876747548
0.4696264262
0.4769945592
0.4639726241
0.4424558982
0.4488556661
0.4692747331
0.471385618
0.4665904837
0.4750489768
0.4807808015
0.4692350965
0.4776992954
0.4708603395
0.4503006035
0.4586453074
0.4688567619
0.4714073333
0.4826358615
0.4774883441
0.4753886844
0.4719044452
0.4840485936
0.4867224024
0.4601972494
0.4556926742
0.4520588865
0.4649121297
0.4714450233
0.4629536649
0.4638428606
0.472064345
0.4672980678
0.4728069423
0.4528422619
0.4453042412
0.4552126041
0.4641852169
0.4665208614
0.4721020598
0.4767010519
0.4998695546
0.4752447706
0.4866531211
0.4520512767
0.4674383913
0.4722947763
0.4766547406
0.4673537399
0.4706341725
0.4792375295
0.4853807809
0.4651842857
0.4815308806
0.46061775
0.4712824122
0.4451446424
0.4567808746
0.452268199
0.454242278
0.4789731712
0.4743903891
0.4927539281
0.4900114629
0.4500086388
0.4644221825
0.4555186027
0.4649428416
0.459296352
0.4750714841
0.4726641031
0.4813218977
0.4876864343
0.4885207506
0.4570509117
0.456596544
0.4591230936
0.4638093216
0.4680352898
0.4838908285
0.4760190428
0.4714436452
0.4800106336
0.4737905968
0.4634064944
0.4573353245
0.4518762556
0.4586772672
0.4654877661
0.4744800975
0.4597606069
0.4816079701
0.4732010982
0.4799918033
0.4521390238
0.4403431469
0.4544742949
0.4507598274
0.4488164386
0.4554798623
0.450640444
0.4850523571
0.4828349233
0.4685599182
0.4480966602
0.444438405
0.4574294912
0.4586935044
)
;

boundaryField
{
    flow
    {
        type            calculated;
        value           nonuniform List<scalar> 
42
(
0.3791239742
0.3929531557
0.3847923375
0.396185816
0.3796385423
0.3838243527
0.3953690973
0.3950658557
0.392815009
0.3953887899
0.3945927372
0.3899268094
0.3805319887
0.3762665019
0.384208733
0.3936766412
0.3927230964
0.38048336
0.3944736064
0.3804425184
0.3907833449
0.4093073038
0.3791239742
0.389551459
0.4050691842
0.3980884501
0.3981230729
0.3999600098
0.4031138731
0.3962912369
0.403954237
0.3973931987
0.3993980584
0.4089748877
0.414654502
0.4159046105
0.4057185409
0.4014407629
0.4152992214
0.4197062083
0.4208439022
0.4217965978
)
;
    }
    obstacle
    {
        type            calculated;
        value           nonuniform List<scalar> 10(0.4421641953 0.4245694671 0.4440326997 0.4621686052 0.4185527945 0.4494992545 0.4158371388 0.4344544218 0.4182795253 0.4527729985);
    }
    frontAndBack
    {
        type            empty;
    }
    procBoundary0to1
    {
        type            processor;
        value           nonuniform List<scalar> 
21
(
0.4668012291
0.4921073237
0.5039116872
0.5234664146
0.5066325456
0.4949425392
0.4829348189
0.4735510314
0.4783044773
0.5001664307
0.4827643923
0.4817411442
0.476455027
0.4885499596
0.4997546333
0.4822067399
0.4988711355
0.4940439451
0.4873374068
0.4899068282
0.4689672012
)
;
    }
    procBoundary0to2
    {
        type            processor;
        value           nonuniform List<scalar> 
31
(
0.3984826171
0.4057365205
0.4048019952
0.4054671943
0.4042461283
0.395088982
0.4156868681
0.4121797864
0.4219583468
0.4243311104
0.4188936121
0.4242069163
0.4231168495
0.4274365739
0.4439931804
0.4384407841
0.4395537352
0.4565999582
0.4577217309
0.4508380044
0.4496765241
0.4514753298
0.4555488504
0.475777635
0.4677849793
0.4782729639
0.4543737206
0.4562039788
0.451297056
0.4496765241
0.4720502283
)
;
    }
}


// ************************************************************************* //
