/*--------------------------------*- C++ -*----------------------------------*\
  =========                 |
  \\      /  F ield         | OpenFOAM: The Open Source CFD Toolbox
   \\    /   O peration     | Website:  https://openfoam.org
    \\  /    A nd           | Version:  7
     \\/     M anipulation  |
\*---------------------------------------------------------------------------*/
FoamFile
{
    version     2.0;
    format      ascii;
    class       volScalarField;
    location    "0.008";
    object      rhoM;
}
// * * * * * * * * * * * * * * * * * * * * * * * * * * * * * * * * * * * * * //

dimensions      [1 -3 0 0 0 0 0];

internalField   nonuniform List<scalar> 
654
(
6.571024508e-06
4.496139531e-06
7.53952633e-06
2.905505464e-06
6.086773598e-06
6.639965176e-06
4.496139531e-06
4.496139531e-06
4.980390442e-06
7.53952633e-06
5.464641352e-06
4.080829287e-06
6.433143174e-06
4.980390442e-06
4.565080198e-06
2.974446132e-06
6.01783293e-06
4.496139531e-06
5.948892263e-06
3.043386799e-06
4.01188862e-06
4.427198864e-06
4.842509107e-06
8.576968818e-06
3.389756375e-06
2.559135888e-06
4.080829287e-06
5.948892263e-06
2.905505464e-06
4.427198864e-06
5.948892263e-06
3.458697042e-06
1.590634067e-06
4.980390442e-06
4.911449774e-06
5.53358202e-06
2.974446132e-06
3.043386799e-06
4.634020865e-06
3.458697042e-06
4.01188862e-06
6.086773598e-06
7.055275419e-06
3.458697042e-06
6.295261839e-06
4.980390442e-06
3.043386799e-06
4.427198864e-06
3.596578377e-06
5.049331109e-06
1.521693399e-06
3.52763771e-06
3.596578377e-06
3.942947953e-06
3.112327466e-06
5.464641352e-06
4.01188862e-06
2.974446132e-06
2.074884977e-06
4.496139531e-06
6.708905843e-06
6.433143174e-06
2.490195221e-06
3.458697042e-06
6.086773598e-06
3.874007286e-06
4.149769955e-06
3.942947953e-06
4.427198864e-06
3.458697042e-06
6.433143174e-06
4.980390442e-06
3.942947953e-06
3.458697042e-06
2.074884977e-06
5.464641352e-06
4.01188862e-06
4.496139531e-06
3.112327466e-06
4.496139531e-06
4.427198864e-06
4.01188862e-06
1.521693399e-06
4.358258196e-06
5.53358202e-06
6.01783293e-06
3.043386799e-06
2.559135888e-06
1.521693399e-06
4.496139531e-06
5.049331109e-06
1.937003643e-06
8.02377724e-06
6.155714265e-06
5.049331109e-06
7.885895906e-06
6.364202506e-06
3.458697042e-06
6.848453417e-06
3.458697042e-06
3.458697042e-06
3.596578377e-06
5.118271776e-06
5.464641352e-06
1.037442489e-06
1.521693399e-06
2.490195221e-06
2.00594431e-06
3.043386799e-06
4.080829287e-06
5.395700685e-06
4.565080198e-06
4.980390442e-06
4.565080198e-06
4.980390442e-06
4.980390442e-06
3.874007286e-06
2.421254554e-06
4.080829287e-06
3.665519044e-06
6.986334752e-06
4.565080198e-06
6.01783293e-06
3.458697042e-06
6.01783293e-06
5.256153111e-06
2.00594431e-06
2.559135888e-06
3.52763771e-06
3.942947953e-06
4.911449774e-06
3.942947953e-06
4.496139531e-06
3.52763771e-06
4.01188862e-06
2.905505464e-06
3.942947953e-06
6.986334752e-06
3.874007286e-06
2.421254554e-06
2.974446132e-06
3.389756375e-06
2.974446132e-06
4.911449774e-06
6.364202506e-06
4.427198864e-06
4.358258196e-06
3.458697042e-06
4.149769955e-06
4.980390442e-06
4.080829287e-06
7.608466997e-06
5.049331109e-06
3.458697042e-06
3.52763771e-06
4.496139531e-06
4.01188862e-06
3.389756375e-06
4.496139531e-06
2.559135888e-06
5.187212443e-06
2.905505464e-06
4.842509107e-06
5.602522687e-06
2.974446132e-06
5.118271776e-06
6.364202506e-06
3.458697042e-06
4.080829287e-06
2.559135888e-06
4.01188862e-06
4.358258196e-06
4.980390442e-06
3.942947953e-06
2.974446132e-06
4.427198864e-06
4.842509107e-06
5.948892263e-06
3.458697042e-06
2.974446132e-06
4.911449774e-06
2.974446132e-06
4.01188862e-06
2.905505464e-06
2.421254554e-06
4.565080198e-06
4.980390442e-06
4.496139531e-06
4.427198864e-06
5.464641352e-06
8.370146817e-06
2.974446132e-06
2.905505464e-06
7.470585662e-06
4.427198864e-06
5.948892263e-06
4.565080198e-06
8.230599242e-06
3.043386799e-06
2.00594431e-06
6.639965176e-06
2.559135888e-06
3.52763771e-06
5.118271776e-06
5.602522687e-06
4.427198864e-06
3.458697042e-06
4.7719022e-06
4.980390442e-06
4.149769955e-06
1.937003643e-06
3.942947953e-06
4.080829287e-06
6.917394084e-06
5.049331109e-06
4.496139531e-06
2.421254554e-06
3.52763771e-06
3.458697042e-06
2.490195221e-06
3.112327466e-06
2.074884977e-06
4.01188862e-06
4.149769955e-06
5.53358202e-06
6.571024508e-06
5.53358202e-06
7.124216086e-06
3.458697042e-06
4.358258196e-06
1.937003643e-06
2.974446132e-06
2.074884977e-06
5.256153111e-06
2.974446132e-06
6.502083841e-06
2.974446132e-06
3.458697042e-06
3.458697042e-06
2.00594431e-06
3.942947953e-06
5.464641352e-06
6.571024508e-06
5.464641352e-06
2.974446132e-06
3.458697042e-06
8.439087484e-06
2.421254554e-06
5.187212443e-06
7.262097421e-06
4.427198864e-06
4.080829287e-06
2.421254554e-06
5.879951596e-06
3.942947953e-06
6.086773598e-06
2.490195221e-06
2.974446132e-06
4.080829287e-06
5.53358202e-06
6.986334752e-06
1.937003643e-06
5.53358202e-06
7.954836573e-06
4.427198864e-06
4.980390442e-06
3.942947953e-06
5.671463354e-06
5.464641352e-06
4.01188862e-06
6.433143174e-06
2.974446132e-06
2.421254554e-06
4.080829287e-06
2.421254554e-06
4.080829287e-06
5.879951596e-06
2.421254554e-06
3.112327466e-06
5.118271776e-06
2.559135888e-06
3.52763771e-06
3.389756375e-06
4.565080198e-06
3.942947953e-06
4.496139531e-06
2.490195221e-06
3.389756375e-06
1.937003643e-06
2.974446132e-06
9.685018214e-07
3.389756375e-06
4.01188862e-06
6.433143174e-06
7.124216086e-06
5.879951596e-06
4.080829287e-06
3.942947953e-06
5.464641352e-06
1.937003643e-06
3.52763771e-06
4.427198864e-06
2.905505464e-06
2.905505464e-06
4.358258196e-06
3.112327466e-06
2.974446132e-06
1.521693399e-06
5.671463354e-06
2.905505464e-06
3.942947953e-06
4.634020865e-06
2.559135888e-06
5.879951596e-06
4.565080198e-06
4.01188862e-06
5.395700685e-06
2.074884977e-06
3.596578377e-06
3.112327466e-06
6.086773598e-06
5.049331109e-06
5.53358202e-06
6.986334752e-06
4.358258196e-06
1.521693399e-06
3.389756375e-06
6.917394084e-06
5.671463354e-06
3.458697042e-06
3.043386799e-06
5.049331109e-06
5.118271776e-06
2.559135888e-06
4.496139531e-06
7.124216086e-06
3.458697042e-06
1.937003643e-06
2.559135888e-06
1.452752732e-06
3.874007286e-06
4.427198864e-06
5.326760018e-06
4.080829287e-06
2.559135888e-06
3.112327466e-06
5.948892263e-06
7.470585662e-06
3.596578377e-06
3.942947953e-06
3.043386799e-06
3.389756375e-06
4.565080198e-06
4.980390442e-06
3.389756375e-06
3.458697042e-06
2.421254554e-06
4.842509107e-06
2.905505464e-06
3.942947953e-06
5.118271776e-06
1.452752732e-06
4.911449774e-06
4.980390442e-06
3.458697042e-06
4.496139531e-06
9.54547064e-06
6.01783293e-06
4.427198864e-06
5.464641352e-06
5.602522687e-06
4.080829287e-06
5.811010928e-06
7.470585662e-06
4.496139531e-06
4.149769955e-06
4.496139531e-06
3.043386799e-06
5.187212443e-06
2.974446132e-06
4.980390442e-06
3.043386799e-06
4.911449774e-06
3.52763771e-06
6.086773598e-06
3.942947953e-06
5.53358202e-06
2.421254554e-06
4.01188862e-06
8.02377724e-06
6.01783293e-06
2.490195221e-06
2.974446132e-06
4.427198864e-06
3.874007286e-06
3.52763771e-06
5.948892263e-06
4.911449774e-06
4.427198864e-06
6.01783293e-06
2.559135888e-06
4.080829287e-06
6.364202506e-06
3.52763771e-06
6.502083841e-06
4.01188862e-06
4.496139531e-06
2.974446132e-06
6.433143174e-06
6.155714265e-06
4.358258196e-06
3.043386799e-06
4.427198864e-06
3.458697042e-06
4.358258196e-06
2.490195221e-06
6.433143174e-06
4.634020865e-06
2.490195221e-06
3.942947953e-06
6.639965176e-06
4.427198864e-06
5.879951596e-06
4.842509107e-06
5.948892263e-06
3.52763771e-06
5.464641352e-06
3.874007286e-06
7.470585662e-06
6.917394084e-06
5.671463354e-06
3.52763771e-06
3.942947953e-06
3.596578377e-06
2.974446132e-06
2.421254554e-06
2.00594431e-06
4.565080198e-06
3.596578377e-06
4.080829287e-06
1.457904565e-06
4.962758449e-06
2.111076765e-06
2.621927845e-06
4.638800219e-06
3.665302082e-06
1.520194366e-06
4.082925863e-06
3.157498495e-06
1.553378863e-06
4.998052183e-06
3.494829176e-06
3.589169563e-06
2.692560068e-06
6.637264205e-06
3.233784557e-06
6.152918591e-06
5.248974371e-06
6.902232898e-06
1.553378863e-06
3.470962467e-06
2.096560776e-06
3.519026376e-06
3.543560984e-06
1.569976117e-06
2.65900494e-06
2.099066944e-06
2.769804224e-06
2.643445978e-06
3.254189527e-06
2.568211239e-06
2.935858547e-06
6.192943928e-06
1.984530719e-06
2.49807998e-06
2.587373897e-06
4.77700647e-06
3.717877171e-06
2.275760242e-06
1.035585909e-06
3.054179428e-06
5.591389951e-06
1.478092797e-06
1.559030264e-06
3.497311977e-06
3.162153513e-06
5.067314556e-07
2.551828666e-06
3.891101187e-06
3.106757729e-06
7.080295232e-06
3.634150921e-06
6.475211968e-06
5.031959021e-06
3.710696352e-06
4.311712737e-06
1.520194365e-06
3.207511433e-06
4.699656044e-06
3.106757729e-06
3.609332764e-06
5.032419321e-06
2.53363118e-06
2.480663402e-06
3.497311977e-06
4.168450655e-06
3.18467098e-06
2.551828666e-06
4.25878692e-06
2.144887718e-06
4.026115804e-06
4.543109566e-06
3.589169563e-06
2.125795164e-06
2.997695976e-06
1.581076756e-06
4.270275015e-06
4.300901424e-06
4.772839438e-06
5.325361345e-06
1.041121525e-06
1.467929272e-06
3.448883191e-06
3.543560984e-06
9.992319933e-07
4.240081696e-06
3.040388731e-06
6.707413051e-06
2.05621007e-06
3.698266581e-06
4.998052184e-06
3.564490051e-06
4.011723977e-06
3.543560984e-06
4.210312351e-06
3.162153513e-06
5.718328258e-06
4.300901424e-06
3.157498495e-06
3.771982481e-06
2.499026091e-06
5.941377963e-06
4.434278388e-06
4.039693664e-06
3.068824105e-06
3.162153511e-06
2.171208068e-06
3.645218649e-06
5.286891955e-06
5.472793145e-06
2.984994279e-06
5.452068209e-06
3.659312748e-06
3.472928759e-06
2.498079982e-06
3.522039996e-06
4.704865364e-06
4.811267187e-06
3.744734422e-06
2.144887727e-06
3.956930656e-06
2.58587054e-06
1.548235987e-06
5.739988371e-06
6.42216069e-06
2.012594279e-06
3.040388727e-06
3.572560102e-06
1.615340936e-06
3.624550681e-06
4.859681868e-06
1.957239018e-06
3.519026352e-06
4.110325872e-06
3.63956823e-06
6.970717666e-06
2.533657264e-06
4.81126715e-06
4.772839418e-06
2.810112453e-06
2.499026104e-06
5.800372586e-06
4.011723974e-06
2.551295632e-06
2.569208128e-06
2.515742865e-06
3.619261318e-06
5.2489744e-06
3.671551023e-06
3.624550681e-06
3.887745502e-06
3.144841172e-06
7.671036772e-06
1.559030268e-06
3.21108036e-06
4.096819628e-06
5.934751637e-06
4.15558435e-06
3.303865262e-06
2.588964772e-06
2.499026087e-06
3.425168288e-06
6.897766334e-06
2.480663392e-06
5.707441235e-07
5.174747783e-06
5.067314563e-06
5.17631588e-06
8.003521346e-06
2.144887718e-06
4.928867026e-06
6.639670357e-06
4.504421603e-06
2.551295614e-06
2.069592099e-06
4.311712731e-06
4.632724198e-06
2.551828662e-06
4.846022842e-06
5.325361345e-06
5.760760995e-06
3.564490058e-06
5.137405542e-06
3.614193218e-06
3.568440103e-06
6.252675965e-06
5.283737933e-06
4.738608631e-06
2.643445966e-06
1.553378874e-06
5.691575808e-06
2.516209667e-06
2.533631178e-06
2.976796071e-06
4.210312354e-06
2.012594292e-06
2.677939528e-06
4.300901418e-06
6.240044834e-06
3.698266581e-06
6.594327035e-06
7.128980068e-06
4.011723974e-06
3.047428314e-06
3.497311977e-06
2.515742848e-06
3.184670985e-06
5.2489744e-06
8.444390474e-06
3.106757727e-06
5.136422471e-06
3.494829161e-06
4.997119172e-06
4.465194137e-06
)
;

boundaryField
{
    flow
    {
        type            zeroGradient;
    }
    obstacle
    {
        type            calculated;
        value           uniform 2.225073859e-308;
    }
    frontAndBack
    {
        type            empty;
    }
    procBoundary0to1
    {
        type            processor;
        value           nonuniform List<scalar> 
21
(
4.321218225e-06
4.321218228e-06
3.203785561e-06
3.725373785e-06
4.768550233e-06
2.68219734e-06
1.117432664e-06
2.60794112e-06
3.203785563e-06
3.278041777e-06
1.564764672e-06
4.76855025e-06
2.607941113e-06
4.172705781e-06
6.630339798e-06
2.08635289e-06
6.333314887e-06
1.639020895e-06
2.607941132e-06
4.321218212e-06
4.246962027e-06
)
;
    }
    procBoundary0to2
    {
        type            processor;
        value           nonuniform List<scalar> 
31
(
3.043386799e-06
7.53952633e-06
5.53358202e-06
5.948892263e-06
3.52763771e-06
4.634020865e-06
5.948892263e-06
5.671463354e-06
1.521693399e-06
4.980390442e-06
4.911449774e-06
4.01188862e-06
4.980390442e-06
3.458697042e-06
4.496139531e-06
5.948892263e-06
2.490195221e-06
6.364202506e-06
4.01188862e-06
6.086773598e-06
4.996159966e-06
3.090522461e-06
5.211596774e-06
4.665950111e-06
2.643445985e-06
1.627094764e-06
5.414835214e-06
4.543109575e-06
5.700246325e-06
4.996159966e-06
3.047428293e-06
)
;
    }
}


// ************************************************************************* //
