/*--------------------------------*- C++ -*----------------------------------*\
  =========                 |
  \\      /  F ield         | OpenFOAM: The Open Source CFD Toolbox
   \\    /   O peration     | Website:  https://openfoam.org
    \\  /    A nd           | Version:  7
     \\/     M anipulation  |
\*---------------------------------------------------------------------------*/
FoamFile
{
    version     2.0;
    format      ascii;
    class       volVectorField;
    location    "0.008";
    object      fDMean;
}
// * * * * * * * * * * * * * * * * * * * * * * * * * * * * * * * * * * * * * //

dimensions      [1 -1 -2 0 0 0 0];

internalField   uniform (0 0 0);

boundaryField
{
    flow
    {
        type            calculated;
        value           uniform (0 0 0);
    }
    obstacle
    {
        type            calculated;
        value           nonuniform List<vector> 
30
(
(0.1512709307 -0.4152724273 0.0001718181312)
(0.1394307657 -0.412776157 -0.01530756881)
(0.1461275709 -0.4332846755 0.00132670955)
(0.1683730316 -0.4343942338 -5.726958269e-06)
(0.1516582254 -0.4150948624 0.01024162631)
(0.1714351922 -0.4254592315 -0.02118323271)
(0.1568059057 -0.4184584993 0.007148385336)
(0.1666070459 -0.4423967596 -5.640993602e-05)
(0.156877461 -0.4294735735 0.004912507475)
(0.1421049415 -0.4105898155 0.005030414459)
(0.1496355586 -0.4171336157 0.01000316634)
(0.173683453 -0.4202491872 0.007939831298)
(0.1773944137 -0.4291161863 -0.01182962748)
(0.1713388972 -0.443000296 -0.001153834319)
(0.1565105224 -0.4611915972 -0.0003071033005)
(0.153743168 -0.4273104151 0.01289492398)
(0.1764737923 -0.4431642876 0.005782571411)
(0.161907662 -0.4472168425 -0.004325894124)
(0.1742859618 -0.4260575719 -0.01465415439)
(0.1652797987 -0.4429095221 0.01825102833)
(0.1853000816 -0.4291050343 -0.01003312108)
(0.183634248 -0.4257231823 0.0007629699856)
(0.1756262723 -0.4434412717 0.003602112484)
(0.1750461209 -0.4439268015 -0.01781843934)
(0.1602033167 -0.4685605451 -0.009109888932)
(0.1885549461 -0.4354951667 -0.002065888086)
(0.1772897091 -0.4559964112 0.009931702013)
(0.1924367195 -0.490135401 -0.005386178022)
(0.1945572177 -0.4736312179 -0.001437845366)
(0.1633905583 -0.472436591 0.009788051914)
)
;
    }
    frontAndBack
    {
        type            empty;
    }
    procBoundary1to0
    {
        type            processor;
        value           uniform (0 0 0);
    }
    procBoundary1to3
    {
        type            processor;
        value           uniform (0 0 0);
    }
}


// ************************************************************************* //
