/*--------------------------------*- C++ -*----------------------------------*\
  =========                 |
  \\      /  F ield         | OpenFOAM: The Open Source CFD Toolbox
   \\    /   O peration     | Website:  https://openfoam.org
    \\  /    A nd           | Version:  7
     \\/     M anipulation  |
\*---------------------------------------------------------------------------*/
FoamFile
{
    version     2.0;
    format      ascii;
    class       volScalarField;
    location    "0.008";
    object      internalEMean;
}
// * * * * * * * * * * * * * * * * * * * * * * * * * * * * * * * * * * * * * //

dimensions      [1 -1 -2 0 0 0 0];

internalField   nonuniform List<scalar> 
546
(
3.005611029
3.00004247
3.027130014
2.973007005
2.940934249
2.938064807
2.963474421
2.894759616
2.838711665
2.839768832
2.803916428
2.813349765
2.833351927
2.748052363
2.777494716
2.835471885
2.791899725
2.747200308
2.741658361
2.696916214
2.711201733
2.701740067
2.654519833
2.595078712
2.543016446
2.440281268
2.388205568
2.265719387
2.047321443
1.694792585
2.913275146
2.916553098
2.970749735
2.949622939
2.935637199
2.93432067
2.937200203
2.892874615
2.867838152
2.874365994
2.915866344
2.864782109
2.90887741
2.867592945
2.870719766
2.773471335
2.719645936
2.759947199
2.738129544
2.743737016
2.697063735
2.680066045
2.676252075
2.606619158
2.534921681
2.470029278
2.388017005
2.240541711
2.005906811
1.748135435
2.698473647
2.780217134
2.802735661
2.850437852
2.881053608
2.889608953
2.871830845
2.820243551
2.896126048
2.927564377
2.912827931
2.842772705
2.869340918
2.873377346
2.902530129
2.769624943
2.744039706
2.788409035
2.753744951
2.759534094
2.706916486
2.657650642
2.664631489
2.613440871
2.621146812
2.529541708
2.359686473
2.233071946
2.084548868
1.810503816
2.44131179
2.556218438
2.647995948
2.708668277
2.759366055
2.789574857
2.804092661
2.801679657
2.826339506
2.822930178
2.820587685
2.853087175
2.853895239
2.844870559
2.881217601
2.829047051
2.798232007
2.788614335
2.752476019
2.701728177
2.694761916
2.742648169
2.691540725
2.660790884
2.597379077
2.488874683
2.396811869
2.33998867
2.160977491
1.911558212
2.149740694
2.303571088
2.382756652
2.501525362
2.606123324
2.656271185
2.694257478
2.725501133
2.734035015
2.772386148
2.818732954
2.802538633
2.803144393
2.803657184
2.830455096
2.784470765
2.76452556
2.737071288
2.733957609
2.731153457
2.739742964
2.777911492
2.698838127
2.58101204
2.518712429
2.510990487
2.425718847
2.319022587
2.194016983
1.992273042
1.831006502
2.005203275
2.151465113
2.224579539
2.344980821
2.433362835
2.570614594
2.608249182
2.667123837
2.703198428
2.761797929
2.759917677
2.768327943
2.771028533
2.792560836
2.793483574
2.815737259
2.747556192
2.754469329
2.776232654
2.745576959
2.744361001
2.67055517
2.66014753
2.594640525
2.532908278
2.444375173
2.364721467
2.245303579
2.096283338
1.548391903
1.719034663
1.850792348
1.970616961
2.125975865
2.229589896
2.32721456
2.420183304
2.554777384
2.600349044
2.632299498
2.603654199
2.674928289
2.689933664
2.702893169
2.742418491
2.723230672
2.747731985
2.704867462
2.687147531
2.752288127
2.72790729
2.664430694
2.629768988
2.594878768
2.560779649
2.477008394
2.440375027
2.327108319
2.142578886
1.278148055
1.428766222
1.59609468
1.71840803
1.845734611
1.983331167
2.086470341
2.210111517
2.315945933
2.395169479
2.475021689
2.529596708
2.578120519
2.652303259
2.637349056
2.671098807
2.712255714
2.728570679
2.716414645
2.679317135
2.677818198
2.755651642
2.720129977
2.674989328
2.627947415
2.579842869
2.556736404
2.453992888
2.337585421
2.222214819
1.055285904
1.17139174
1.318720776
1.4554178
1.591794364
1.74197371
1.867798407
1.981317722
2.120771285
2.224231775
2.320607239
2.405405014
2.492357004
2.515263944
2.536790861
2.587731291
2.600386089
2.665946799
2.709115666
2.718735909
2.709655547
2.722606485
2.654908517
2.626627871
2.620932258
2.565804095
2.471793412
2.441472218
2.375142751
2.256635683
0.903797363
0.9878050993
1.099944106
1.211481934
1.332283371
1.472191135
1.61488695
1.754629954
1.866555753
1.954611343
2.066142284
2.170604431
2.261776513
2.348925433
2.445033307
2.501740709
2.555203567
2.585199703
2.611084422
2.641667559
2.60733897
2.606113985
2.651464522
2.63422962
2.610263087
2.587719819
2.540622033
2.457051987
2.392358077
2.316953416
0.7882732993
0.8609085319
0.9761003458
1.050477775
1.121911055
1.261518753
1.39337551
1.504084796
1.618862281
1.722896136
1.840579644
1.995467258
2.095387009
2.2129531
2.301831342
2.375165826
2.421273316
2.420649174
2.480195323
2.505915822
2.579801557
2.604536627
2.643264069
2.59536092
2.595720523
2.589001861
2.520740216
2.476403764
2.418897146
2.352052441
0.6880734306
0.7501994822
0.8100400348
0.8971326229
0.9837992229
1.056816995
1.150959324
1.279818324
1.397541739
1.537828306
1.646220225
1.767129699
1.878272214
2.007939053
2.137461285
2.215292154
2.278007227
2.322774577
2.371190021
2.473161847
2.503422529
2.503093131
2.544252471
2.547047248
2.518577587
2.535476105
2.531303669
2.479411039
2.434710216
2.381559145
0.6091104559
0.6496084407
0.7072997355
0.7791640192
0.8315961559
0.9103827982
1.00092029
1.081732081
1.210633571
1.304575288
1.422915654
1.561501597
1.683435134
1.792893487
1.899339264
2.032960247
2.160432223
2.254596049
2.326537777
2.374598401
2.419149805
2.499601631
2.51925196
2.496997199
2.49707243
2.513816596
2.490327292
2.503954079
2.444385049
2.389459419
0.5480577165
0.5786216181
0.6210964559
0.6770513798
0.7245324936
0.7818776856
0.8492701118
0.9388940393
1.023238194
1.128176161
1.212505472
1.329328871
1.449341972
1.585921864
1.719409053
1.812702982
1.910393789
2.029432097
2.120077887
2.215706066
2.323616707
2.320355434
2.375736762
2.451892249
2.463955934
2.474882372
2.494928972
2.461152348
2.488797468
2.408632753
0.5300755334
0.5438440178
0.5723962634
0.6033246662
0.6456197302
0.6949684215
0.7404348173
0.81200075
0.8768164407
0.9521142767
1.056197697
1.152421915
1.247951304
1.366263906
1.489985754
1.613452949
1.727293264
1.819163685
1.942250232
2.049489787
2.135746951
2.253303822
2.271362483
2.310381639
2.389053959
2.421327853
2.448951543
2.418669489
2.383891734
2.357147855
0.4899041476
0.5018487235
0.525333492
0.550013771
0.5822743832
0.6228109993
0.6718126111
0.7078172948
0.7810913255
0.8310077557
0.8960744038
0.9891626552
1.099677897
1.189545745
1.293050932
1.404552719
1.533846904
1.644711947
1.769980243
1.871920076
1.98732229
2.06569219
2.17152214
2.251615905
2.282631792
2.304742935
2.349099345
2.364123345
2.359727472
0.4722158686
0.4898200824
0.5057877964
0.5286911418
0.5482004988
0.5727742183
0.5998563051
0.6371394189
0.6816590801
0.7420782123
0.7932559067
0.8552983461
0.9394134671
1.018936265
1.136911256
1.230958295
1.317313235
1.442171153
1.55070003
1.658326662
1.79160007
1.915949539
2.022787068
2.121039718
0.4546834695
0.4679232293
0.4782239733
0.4874290934
0.508344421
0.5290914282
0.5673534799
0.5906545048
0.6212703455
0.6567083874
0.7082210113
0.7512831296
0.8052743659
0.8764694328
0.9505003088
1.039948957
1.170766343
1.264824919
1.385159507
0.4394740407
0.4485104985
0.4575435053
0.4713216508
0.4787150448
0.4962427086
0.5141478993
0.5397719254
0.5612657139
0.5956617367
0.635174451
0.6855706251
0.7315691652
0.7941207533
0.4289034149
0.4387339553
0.4429428941
0.4512714041
0.4637057345
0.4783263304
0.4911168705
0.5156168184
0.4314551096
0.4378048416
)
;

boundaryField
{
    flow
    {
        type            calculated;
        value           nonuniform List<scalar> 
15
(
1.694792585
1.748135435
1.810503816
1.911558212
1.992273042
2.096283338
2.142578886
2.222214819
2.256635683
2.316953416
2.352052441
2.381559145
2.389459419
2.408632753
2.357147855
)
;
    }
    obstacle
    {
        type            calculated;
        value           nonuniform List<scalar> 
30
(
1.236749269e-18
1.16219171e-18
1.353506374e-18
1.219586947e-18
1.124653592e-18
1.180724278e-18
1.1542014e-18
1.164439304e-18
1.133839204e-18
1.086426761e-18
1.09805579e-18
1.104169784e-18
1.143809552e-18
1.138080318e-18
1.093970528e-18
1.115486029e-18
1.068345653e-18
1.097738791e-18
1.078979262e-18
1.081216682e-18
1.085089553e-18
1.067355317e-18
1.060340189e-18
1.012291558e-18
1.007302454e-18
9.553275276e-19
9.979806911e-19
9.391938445e-19
8.092353929e-19
7.129575485e-19
)
;
    }
    frontAndBack
    {
        type            empty;
    }
    procBoundary1to0
    {
        type            processor;
        value           nonuniform List<scalar> 
21
(
3.060020502
2.912798771
2.668360656
2.33756065
1.99043154
1.721390375
1.396152145
1.15442741
0.9345171048
0.8125548508
0.7230415921
0.6246009856
0.5712672238
0.5315884059
0.5009656987
0.4751677117
0.4669672791
0.4449336413
0.4356708565
0.4251789254
0.4247318333
)
;
    }
    procBoundary1to3
    {
        type            processor;
        value           nonuniform List<scalar> 
36
(
2.41023353
2.208037788
2.262334884
2.28667849
2.3120437
2.41023353
2.345706963
1.501232477
1.601764255
1.697253903
1.825692712
2.208037788
1.9404548
0.8656804229
0.9283441989
1.021082112
1.113282297
1.501232477
1.206571959
0.5363964358
0.5547824757
0.5801171327
0.6164428363
0.6518211294
0.8656804229
0.6915224532
0.4432733749
0.4502248221
0.4590092857
0.4666328216
0.476762552
0.5363964358
0.4857332904
0.4344357991
0.4432733749
0.4370077478
)
;
    }
}


// ************************************************************************* //
