/*--------------------------------*- C++ -*----------------------------------*\
  =========                 |
  \\      /  F ield         | OpenFOAM: The Open Source CFD Toolbox
   \\    /   O peration     | Website:  https://openfoam.org
    \\  /    A nd           | Version:  7
     \\/     M anipulation  |
\*---------------------------------------------------------------------------*/
FoamFile
{
    version     2.0;
    format      ascii;
    class       volScalarField;
    location    "0.008";
    object      linearKEMean;
}
// * * * * * * * * * * * * * * * * * * * * * * * * * * * * * * * * * * * * * //

dimensions      [1 -1 -2 0 0 0 0];

internalField   nonuniform List<scalar> 
546
(
0.7039542507
0.7285589902
0.7536392349
0.7515477646
0.7436985871
0.7430434515
0.7459266053
0.7520408868
0.7260241498
0.7084807678
0.7424372146
0.7636530433
0.7462655787
0.7736795229
0.7831148085
0.7693336438
0.776596439
0.7808851441
0.7815484325
0.8009340564
0.79003242
0.7848885815
0.775890475
0.7759215078
0.8314929031
0.8195568974
0.8369436494
0.8722288811
0.8326149358
0.8318927895
0.7423404632
0.7481898615
0.7735536125
0.7450249438
0.7466646589
0.7341041544
0.736907014
0.7555559701
0.7810791008
0.7648829215
0.7745516078
0.7937684517
0.7682496449
0.7862937608
0.8232884173
0.8020320706
0.8137863336
0.8233412158
0.7954923556
0.8080358456
0.8001077442
0.822584455
0.8374244996
0.8561416071
0.8455405882
0.8794297734
0.8776078392
0.8639320365
0.8732905877
0.8695264326
0.7611873274
0.7644670921
0.7810110982
0.7737502699
0.7935647258
0.7582106182
0.7819089287
0.8085886281
0.81027395
0.8145778336
0.7909130279
0.8029124418
0.8356515137
0.8210577893
0.8211177194
0.822847798
0.8540285306
0.840053155
0.8442498681
0.8122471165
0.8490954166
0.8372477111
0.8604109745
0.8453390236
0.8514461668
0.8774924871
0.8663764924
0.8851137789
0.8824261522
0.8493459716
0.7922085039
0.7649751195
0.79724799
0.7994306047
0.7798921387
0.7752416381
0.7928101723
0.8080244409
0.8022370017
0.8040863098
0.8174495531
0.8205987092
0.8134991144
0.8663990925
0.8733715229
0.8756193908
0.8776788802
0.8748904616
0.8890352931
0.8677553223
0.8506003676
0.8577362016
0.8622295881
0.8768590391
0.8840342783
0.906149219
0.9173618977
0.9245279481
0.9193038326
0.8891931958
0.766902336
0.7448288854
0.7512465224
0.7461724493
0.7710866768
0.7779951909
0.7969515872
0.7881191976
0.7956314343
0.8053011819
0.8169332258
0.8582382821
0.8564737749
0.8279582781
0.8543135396
0.8595899598
0.8616398633
0.8700153242
0.8727949826
0.8395451271
0.8648772228
0.866023644
0.8945137178
0.8983985264
0.9005254802
0.9053247934
0.9168773298
0.9152386459
0.9118029628
0.9215861344
0.7468871753
0.7430189768
0.7362286185
0.7850299691
0.7859424999
0.7799683203
0.7723731893
0.7910899546
0.8121787707
0.8375867714
0.8401450656
0.8195630556
0.8407881832
0.8456927985
0.8550721649
0.8769146239
0.8743792038
0.8744225381
0.8699158124
0.8636967911
0.8584398354
0.8670995546
0.903507759
0.8920115948
0.9090935358
0.8991154929
0.9266367146
0.9172205717
0.9109537564
0.9031436054
0.7305246396
0.7542720221
0.7354214855
0.7603464446
0.7627932034
0.7667958343
0.7970117223
0.7946463713
0.8168403747
0.8154625157
0.8708541513
0.8441697868
0.8262493615
0.8362107948
0.8808923807
0.8890531774
0.8900784092
0.9151138149
0.9037230532
0.8791887469
0.8754330827
0.881403772
0.8983111584
0.899370706
0.9318239986
0.9128648094
0.9046057056
0.9197907874
0.947877761
0.9538914274
0.7141933434
0.7547980916
0.7600607482
0.7487807917
0.7680869542
0.7904262488
0.795594671
0.7709476828
0.8312746768
0.8416341684
0.8521623467
0.8428357449
0.8186741582
0.835319053
0.8803108946
0.8717728151
0.8729834244
0.8674752351
0.9023774983
0.8706117097
0.8778427055
0.9158845216
0.915406166
0.9071154803
0.901407847
0.9088236766
0.8940658782
0.9123330274
0.9143607362
0.9562218656
0.7250309726
0.7468858032
0.7711566827
0.7735916205
0.7631554264
0.7863978256
0.8039937717
0.780644218
0.7953144454
0.8344432761
0.8291363609
0.8538389523
0.8396690836
0.8289006636
0.8410049385
0.8563163659
0.8580355591
0.8833575087
0.8777793101
0.889985339
0.8595239944
0.8865795873
0.9305402549
0.9568532911
0.9259922965
0.8992162118
0.9320255283
0.9565115538
0.9612716917
0.9750038813
0.7566220405
0.7561752876
0.747043505
0.7799817261
0.7917803973
0.7745481968
0.7661592715
0.7672245216
0.7934720382
0.809678005
0.8204925152
0.8460989637
0.8229764143
0.8387155107
0.8613915664
0.8618209969
0.8563992212
0.8604336313
0.8694184321
0.8653119922
0.9070713129
0.9194273185
0.9410591944
0.9382289765
0.9290840329
0.9472667198
0.9252337518
0.9737041689
0.9493454595
0.9592854421
0.7272174425
0.7336976518
0.7629019953
0.7545310194
0.7670050719
0.7664523723
0.7617057797
0.7782602508
0.7830743575
0.8051250922
0.8146347484
0.8356331766
0.821029843
0.8085854681
0.8539675847
0.859208424
0.8717279826
0.8720080029
0.8674076248
0.855172697
0.8642602616
0.8959541019
0.8970511208
0.906909788
0.9062544225
0.9202163254
0.9576290372
0.9512646337
0.9890722688
1.011573362
0.7274996961
0.7378199333
0.7385683916
0.727536213
0.7722040921
0.7630818628
0.7699323418
0.7603527623
0.7605716959
0.792739217
0.7775806943
0.8079947503
0.8014886463
0.791902124
0.8144062571
0.8371508001
0.856862223
0.843951457
0.8485564095
0.8566875484
0.850880109
0.862694521
0.8960381145
0.9233090541
0.9232217452
0.9261262172
0.9470700806
0.9285805249
0.9909891688
1.005321672
0.7175592871
0.721581659
0.7250035551
0.7596803304
0.7628251517
0.7760923442
0.7692636228
0.7703450625
0.74436446
0.7729143025
0.7749044052
0.8077941923
0.7845616814
0.7904505776
0.8336186093
0.8133152325
0.8511731132
0.8484014668
0.8366248172
0.8712927441
0.8629408133
0.8972268852
0.9029515697
0.9029881177
0.9073859912
0.9206896305
0.9279165544
0.9521052523
0.9767174011
0.9785396067
0.7385498674
0.7211807148
0.7430813983
0.7492254071
0.7564459914
0.7561544448
0.7812845904
0.7928451195
0.8016689425
0.7903624604
0.7999184454
0.7850894435
0.8010599035
0.7902108274
0.8228722399
0.829083963
0.8461996858
0.8472702294
0.8594076491
0.8892001053
0.9024359341
0.8803000924
0.8946696749
0.8859842041
0.9203441178
0.8951011616
0.8859972079
0.9154654806
0.9558985257
0.9961671934
0.7553884699
0.7425325312
0.7344899681
0.7407592254
0.7576632977
0.773549433
0.7823419352
0.7895056264
0.7740048464
0.779126946
0.7798936924
0.7853378725
0.777406354
0.7952857604
0.822732994
0.8352350128
0.831949062
0.8351461199
0.8412612885
0.8394322662
0.8668013085
0.8552995292
0.8667345651
0.8811467774
0.8858378329
0.8931624246
0.9023641473
0.912125993
0.9312398418
0.9375087424
0.725309051
0.7291879009
0.7361241075
0.7375640285
0.7475726268
0.7437589916
0.7930742249
0.7947422248
0.8079758737
0.8142427363
0.7652482242
0.7875839475
0.8010458596
0.794166386
0.7997634703
0.8121616673
0.8068641382
0.8290145812
0.8220576832
0.8382144244
0.8273920323
0.866754751
0.8501193906
0.8446161114
0.8924885752
0.8872197483
0.911869301
0.9138513098
0.9447410462
0.7524914132
0.7482942519
0.7466808593
0.7385231591
0.7277069117
0.7393614018
0.7706081523
0.7763521256
0.7588825572
0.7687457985
0.7783640912
0.8011571487
0.7920030953
0.7648771132
0.7868514074
0.7963784859
0.8035899405
0.8458383467
0.8700895768
0.8779619038
0.8361468525
0.85675992
0.8627377573
0.8447539632
0.7458769741
0.7547353124
0.7386077486
0.747044631
0.7354648948
0.7451090923
0.7686177274
0.7689268271
0.7707799791
0.7906513834
0.7808297377
0.7819531646
0.7835339649
0.7777262421
0.7745367616
0.8017848013
0.8202557108
0.8268980004
0.831441962
0.73550023
0.7488371907
0.7420254184
0.721190346
0.7393227218
0.7437991691
0.7366463313
0.7562393695
0.7556500564
0.7935127488
0.7931865814
0.7973518415
0.8083455473
0.809971745
0.7381769255
0.7340257284
0.7356984611
0.7421355932
0.7384085595
0.7465884871
0.74182377
0.7410007203
0.7064102901
0.7051413727
)
;

boundaryField
{
    flow
    {
        type            calculated;
        value           nonuniform List<scalar> 
15
(
0.8318927895
0.8695264326
0.8493459716
0.8891931958
0.9215861344
0.9031436054
0.9538914274
0.9562218656
0.9750038813
0.9592854421
1.011573362
1.005321672
0.9785396067
0.9961671934
0.9375087424
)
;
    }
    obstacle
    {
        type            calculated;
        value           nonuniform List<scalar> 
30
(
2.633723403e-19
2.766686562e-19
2.762996551e-19
3.039123712e-19
2.730249556e-19
2.896354631e-19
3.002747427e-19
2.912244533e-19
2.890566864e-19
2.793010345e-19
2.644400641e-19
2.849548593e-19
3.097961267e-19
3.054455044e-19
3.071714751e-19
2.807281109e-19
3.090877663e-19
3.067819488e-19
3.230991406e-19
3.212473991e-19
3.088342779e-19
2.900185018e-19
3.152064613e-19
3.33944248e-19
3.044844079e-19
3.258268618e-19
3.136701468e-19
3.510287952e-19
3.284700697e-19
3.181587002e-19
)
;
    }
    frontAndBack
    {
        type            empty;
    }
    procBoundary1to0
    {
        type            processor;
        value           nonuniform List<scalar> 
21
(
0.7169105354
0.7361631455
0.7500827896
0.7633096504
0.743610718
0.7096795266
0.7111228255
0.6970768531
0.7411491417
0.7427376758
0.701537479
0.7095178073
0.7344408563
0.7131173249
0.7365527562
0.7255169743
0.738598366
0.7369419063
0.7152083114
0.7244514931
0.7052458064
)
;
    }
    procBoundary1to3
    {
        type            processor;
        value           nonuniform List<scalar> 
36
(
0.9503776529
0.8882726086
0.887069934
0.843683117
0.8975680921
0.9503776529
0.9264464362
0.8285390482
0.7989241809
0.8561604231
0.835238977
0.8882726086
0.8389547838
0.8050360482
0.8105346277
0.7958692395
0.8135952075
0.8285390482
0.8336469145
0.7620855812
0.7819635127
0.7935942503
0.7853760398
0.7950588563
0.8050360482
0.7961314203
0.7406844346
0.7562087231
0.7691349458
0.7540876918
0.7558227564
0.7620855812
0.7499120115
0.7224317654
0.7406844346
0.7399615429
)
;
    }
}


// ************************************************************************* //
