/*--------------------------------*- C++ -*----------------------------------*\
  =========                 |
  \\      /  F ield         | OpenFOAM: The Open Source CFD Toolbox
   \\    /   O peration     | Website:  https://openfoam.org
    \\  /    A nd           | Version:  7
     \\/     M anipulation  |
\*---------------------------------------------------------------------------*/
FoamFile
{
    version     2.0;
    format      ascii;
    class       volVectorField;
    location    "0.008";
    object      momentum;
}
// * * * * * * * * * * * * * * * * * * * * * * * * * * * * * * * * * * * * * //

dimensions      [1 -2 -1 0 0 0 0];

internalField   nonuniform List<vector> 
546
(
(0.002960626943 -0.0008542169881 0.001237537939)
(0.005171821729 0.000465263249 -0.0007530807429)
(0.002866318701 0.001970005588 0.0006186317434)
(0.005471173922 0.002016505804 -0.002464013205)
(0.003937663053 0.001251424308 -0.0007668906069)
(0.004828993824 0.001910646884 0.00281311536)
(0.003134919681 0.00040030705 0.00140842003)
(0.005868239629 0.0005095610467 0.001921467143)
(0.004879511487 8.265107761e-05 -0.001629823945)
(0.006749201941 0.001894601881 -0.0008423827313)
(0.005180160393 -0.0006483692112 -0.002094550253)
(0.005800872862 0.001308112078 -0.0009617851858)
(0.006192450075 0.002572579185 0.0007783516361)
(0.004003635229 0.001176341247 -0.0003227654607)
(0.00383082287 0.002713767745 -0.001432398196)
(0.002980418263 -0.0009943188714 0.001672126351)
(0.004853334927 0.0008970527427 -5.851068628e-05)
(0.004323172475 0.0007052369361 -0.0009298432916)
(0.005135267897 0.001719428299 0.0008454627258)
(0.005099000089 0.001532214757 -0.0009070160901)
(0.002612632266 0.001543424566 -0.000624821754)
(0.001223905594 0.001951955094 0.0009005117009)
(0.004109934526 0.0005190192827 0.001673112556)
(0.0006408583837 0.00016300944 0.0007104997944)
(0.00351989467 0.00159072431 0.0005860130707)
(0.00447179846 0.001577306951 0.0002598608993)
(0.003611789383 0.001130863028 -0.0008604674584)
(0.004383740737 0.002961035906 0.0005488382057)
(0.002584159488 0.001551496339 0.0001579975807)
(0.004986780388 -0.0007896654128 -0.003058924776)
(0.0050048371 0.002110597222 -0.002492404243)
(0.005038347992 0.0006422264273 -0.0001555327906)
(0.007216572178 0.002746751985 0.0008404788555)
(0.008413328132 0.002349063006 -0.002412035246)
(0.005123102492 0.003427000717 0.0001437638059)
(0.006859978194 0.003781309668 -0.00114063032)
(0.009489877575 0.001866111446 0.002943225869)
(0.009367251417 0.001086447922 7.558667884e-05)
(0.006305644049 0.003575119098 -0.00248365817)
(0.006689893679 0.002059437645 0.0005557313548)
(0.003624168158 0.0005951610042 0.0007084554006)
(0.00248581225 0.003841301083 -6.83163393e-05)
(0.006314971925 0.001826456734 0.002123476149)
(0.002197119485 0.002158243902 -0.0009859068023)
(0.006253474696 0.0007193494694 0.0006550076893)
(0.007075484504 0.0006295199273 -0.0008646405327)
(0.005146038243 0.0019893599 -0.001367307155)
(0.003407947867 0.0002326062859 0.0005601479814)
(0.003344365525 0.002673081283 -0.0006559831244)
(0.00365887396 0.004297475763 -0.0004379400822)
(0.005339823161 0.003965429639 0.0007649868373)
(0.004793085138 0.002723239821 -0.001550763021)
(0.003260549098 -0.0001415513785 0.00103432763)
(0.006778550824 0.0008778163544 -0.0001223728014)
(0.003970916863 0.0007851478603 -0.0004394203883)
(0.004662565202 0.001060929266 0.002191871332)
(0.004922846019 0.001895177028 -0.00156177972)
(0.005853664776 0.002703222335 -0.0004583708378)
(0.003112010002 -8.910491763e-05 -0.0007211997025)
(0.002420941642 0.0001217236833 0.0006679518383)
(0.008266301179 0.003241937428 0.001678532947)
(0.0116101744 0.001572215231 -3.89602359e-05)
(0.009723589962 0.003244538849 0.0009537996505)
(0.005771920341 0.002831710524 -0.0001362157098)
(0.00515409228 0.001742428686 -7.481352039e-05)
(0.008766200015 0.002349484662 0.0001022016316)
(0.005292280144 0.002886548465 -8.56589985e-05)
(0.01223110557 0.005118401093 -0.0005367221219)
(0.007040729105 0.00143220688 -0.000348297629)
(0.003838379666 0.002768196146 0.001812411407)
(0.01085774858 0.001605812538 -0.001294589302)
(0.01017777795 0.001647064664 0.0003260585991)
(0.005116990951 0.002680339379 6.723328999e-06)
(0.01151789078 0.003372187115 0.001618090306)
(0.006997484409 0.001657960463 2.147605328e-05)
(0.00461812533 0.002748092907 -0.0004840462793)
(0.005629119862 0.001863841198 -0.001009257926)
(0.004514334802 0.0007488084348 0.0003082247652)
(0.002378883955 0.0003928677908 0.002561308589)
(0.006202974228 0.0008319864052 -0.001949710634)
(0.003787388971 0.000135185419 0.001449076468)
(0.003616726718 0.002700076862 0.0005047004015)
(0.007126374498 0.004080706536 0.001034661828)
(0.006441444115 0.001468880325 -0.0007410673604)
(0.006188823722 0.004065589585 0.001879050264)
(0.005579323355 0.001673436352 0.0004144166238)
(0.006030447895 0.0006206799954 0.001328486947)
(0.006460031912 0.001728373527 0.001784580249)
(0.006068700121 0.001133350356 0.000920734926)
(0.007674822632 0.001983083039 0.0005810193566)
(0.009445735702 0.006465402696 0.0006827251167)
(0.009094113285 0.002609154886 -0.000954455369)
(0.01127634983 0.005209782365 -0.000448160985)
(0.01016337389 0.002169728542 -0.002164270686)
(0.009918011579 0.002364833134 0.001562514107)
(0.01053881314 0.00212123034 0.0006033083568)
(0.01071802987 0.0002804637303 -0.001746677499)
(0.01077834672 0.003291849696 -0.0002051530983)
(0.00801215413 0.005078226517 3.044680678e-05)
(0.01086355054 0.002347860655 -0.001586621346)
(0.005387808713 0.001951001276 0.0009338150561)
(0.005157125737 0.002965175281 0.002157363596)
(0.001740021683 0.001629844163 0.001617617388)
(0.01078413673 0.003562450594 0.001968852267)
(0.009633607086 0.001795869242 0.001617616734)
(0.01046061066 0.002126248548 -0.000757827604)
(0.008774099867 0.002668687776 0.001106081382)
(0.01309742879 0.002747918441 -0.0007128628627)
(0.0103314462 0.002108669589 -0.0003234004379)
(0.008106113429 0.002931415845 -0.001160401853)
(0.006631819457 0.002178071112 -0.001165688982)
(0.00840580893 0.002909011757 0.004030168935)
(0.01192428498 0.003114803631 -0.0004857206509)
(0.005067006957 0.00404814843 0.0003293219142)
(0.005803592132 0.00265433941 7.353386903e-06)
(0.003950580046 0.002826747899 -0.001967525829)
(0.003766813931 0.002077505748 -0.001271511327)
(0.004428658235 0.0009221595025 7.506276544e-05)
(0.008348676414 0.00124456847 -4.803964694e-05)
(0.005721209428 -0.001882223841 -0.001510439267)
(0.01207831533 0.0056761764 -0.00163364675)
(0.01247507438 0.006714343284 0.0002768726498)
(0.01156372637 0.002671281927 -0.0006492874337)
(0.009085527532 0.002892300972 -0.0002129744686)
(0.014529842 0.004069815381 -0.00151041248)
(0.01164038917 0.004361174245 0.001819417137)
(0.01509701993 0.002538637124 -0.000759648492)
(0.01085117905 0.004047332842 -0.003110426218)
(0.01312082503 0.00143978719 -8.696707273e-05)
(0.008089485251 0.004020377415 0.0007437311618)
(0.009779630949 0.005118994545 0.001620116245)
(0.01133792559 0.003719604232 -0.001068839151)
(0.009666811565 0.00529845619 0.0007975797218)
(0.009670045801 0.005272055656 0.001362864614)
(0.00905345629 0.004765072007 -0.002010122964)
(0.008402821128 0.001731554177 0.000254544793)
(0.01366507943 0.002121053695 -0.001416233727)
(0.01498555097 0.003785156005 -0.001413400273)
(0.01033425958 0.00366852841 -0.002273382628)
(0.01211511287 0.005775947474 -0.0009497443095)
(0.005237156035 0.00208105293 -0.0009658852239)
(0.009369789802 0.003632949366 -0.0005781607926)
(0.009259595368 0.003882115652 0.0006655635225)
(0.005869009887 0.0007170564848 0.001877108859)
(0.007776780684 0.001036948951 4.835491368e-05)
(0.01027762804 0.00377185182 0.002436743484)
(0.01242376457 0.001791413508 -0.001319686006)
(0.004730694567 0.003095480843 -0.0008068954335)
(0.008226886125 0.001888349725 -0.0005865891443)
(0.007605314359 0.002164183372 -0.0004582169902)
(0.01261578099 0.004550621045 -0.0009528444864)
(0.01315578025 0.003622325965 -0.002051232856)
(0.01555128019 0.005877731356 0.002133503279)
(0.0104749063 0.002398894013 -0.0001474180817)
(0.01314880139 0.004338853589 -0.002582455769)
(0.02081432061 0.005116750602 -0.001265226995)
(0.0136776675 0.002856165144 0.003068053126)
(0.01542905541 0.005576133816 -0.001162142452)
(0.01773214697 0.007333229043 -0.003296869159)
(0.008446432182 0.007008490542 0.001261974018)
(0.009990552123 0.005134935365 0.0009185254885)
(0.009498679724 0.002865869633 -0.001583972391)
(0.02183367841 0.004203072311 0.001341655429)
(0.01584611399 0.002911378662 0.003965255613)
(0.007828929671 0.0006637174193 -0.001126931338)
(0.00874590288 0.002431511593 -0.0006272613368)
(0.01036124726 0.002446488908 0.001044336789)
(0.006499263816 0.003116657758 0.0009385116266)
(0.006560803523 0.001302280875 -0.001998397412)
(0.01515393555 0.004658162666 0.0003673210009)
(0.008560871875 0.004809774437 0.0003500289478)
(0.01062218709 0.003937690501 -0.0001946927115)
(0.00792672535 0.002610795285 0.001829826764)
(0.008811272402 0.002609973761 0.00248971896)
(0.007897099308 0.001928885169 0.0004709659562)
(0.01016920926 0.00196644892 -0.0005676350105)
(0.008505583387 0.003155126022 0.00180977235)
(0.0117117055 0.003906545023 0.002044779742)
(0.01067672273 0.002482797267 -0.000562957033)
(0.01048527057 0.002565494615 -0.002662369076)
(0.01517154619 0.00280027164 -0.001990554947)
(0.01552614099 0.005318738604 -0.0005543724259)
(0.008713717381 0.002538140242 -0.0002357262064)
(0.01687563656 0.00425585036 -0.002284259591)
(0.01766005833 0.00394264636 -7.608403009e-05)
(0.01222742165 0.005451123083 -0.001176102251)
(0.01839171655 0.005529884624 0.000921839696)
(0.01260167268 0.003297816222 -0.003037655808)
(0.02319756978 0.007030359345 0.0005753807337)
(0.01806453459 0.00675373964 -0.001271376335)
(0.01479204974 0.003312074856 0.001319368627)
(0.01176958842 0.004151291766 0.001202404511)
(0.01289916947 0.002770075456 0.0009440413569)
(0.009973301138 0.002815884649 -0.0006888265947)
(0.009918892018 0.003509875145 -0.000126656341)
(0.01290820094 0.004339098007 0.001281518103)
(0.01499178344 0.003687206828 0.001320577515)
(0.008683153481 0.004408371202 -0.0008523696586)
(0.01422748748 0.004344033123 0.003049725539)
(0.01050645744 0.002714665602 0.0009128178967)
(0.01062365805 0.003303032175 -0.001338650743)
(0.009955697003 0.003101397685 0.0002362704676)
(0.009993641727 0.005321232881 0.001687372027)
(0.01039525865 0.004485257449 0.0006961413833)
(0.01170385789 0.004001158439 0.0006525384842)
(0.007964259596 0.00247261699 -0.00124227097)
(0.005876344948 0.00249197997 -0.0002129940673)
(0.008792006666 0.002110213222 0.0009000818148)
(0.01017369445 0.002496671353 -0.0006245272802)
(0.009443214015 0.002933815693 0.0006150630001)
(0.006254007974 0.001516351793 -0.0001506813313)
(0.01766665398 0.001216438019 0.001028763281)
(0.009878949822 0.003998896324 0.0003386583909)
(0.01046321533 0.00415710971 0.0005810259316)
(0.02026126356 0.005936985757 0.001070019827)
(0.01869777219 0.004495398473 -0.001039248245)
(0.009659772561 0.002474866818 0.001097272669)
(0.01595391223 0.007259542012 -0.0001646461151)
(0.01926009605 0.00651889618 0.001083308478)
(0.00980958546 0.005027116129 0.002070492666)
(0.01560160434 0.004594426485 0.001688082077)
(0.01162795706 0.00372800036 -0.0009921588492)
(0.01494119142 0.005498179224 0.0004613014832)
(0.01083743385 0.004306522333 0.001124243766)
(0.01358235887 0.001965620923 -0.0007015721413)
(0.01626625366 0.004759900997 0.001438455011)
(0.01533533118 0.003426894711 -0.0006029502056)
(0.01814789621 0.003829624071 4.755362008e-05)
(0.005344908128 0.00337282814 -0.0003885429632)
(0.01061674786 0.002706954668 -0.0007560386955)
(0.01310975637 0.00445042939 0.001217175163)
(0.01109508732 0.003966402953 -5.498979576e-05)
(0.0126352554 0.003522931116 0.0008819324905)
(0.009881539109 0.004310392937 -0.002256237096)
(0.008752486726 0.003746082237 7.866037035e-05)
(0.01401359863 0.005942365745 -0.001225853419)
(0.009785852249 0.002717590927 -0.0007693969591)
(0.01321175801 0.00486365558 -0.001544088948)
(0.01183894278 0.0009816653201 0.0008686812214)
(0.01279648105 0.001501702318 -0.0002727015123)
(0.01165175838 0.00322139693 0.0004902919117)
(0.01429331049 0.00366680687 -0.0002102397609)
(0.01462186955 0.002130676191 0.001809768803)
(0.006541303822 0.001390933396 -0.0002235459441)
(0.01564362227 0.004519545492 -8.570339766e-05)
(0.006850097241 0.002895227712 0.000191517508)
(0.01818406112 0.003483041056 -0.004292156992)
(0.01458441284 0.004478320831 -0.002127677272)
(0.01716079395 0.008916275279 -0.001466652608)
(0.01227759122 0.005172360138 0.001317148864)
(0.01588389168 0.003828917128 -7.412538523e-05)
(0.01135874275 0.003485276312 -0.0004498506938)
(0.01405946282 0.003652324712 -0.000618584602)
(0.01801865902 0.006713056691 0.0009130604084)
(0.01603210755 0.006478831963 0.0003654305806)
(0.01487733093 0.006104398932 0.001913079481)
(0.02061508009 0.004461808064 -0.0008064161607)
(0.017183578 0.006548869127 -0.001406978466)
(0.01330766874 0.00300080193 -1.289800455e-06)
(0.01551956956 0.004180885025 0.000392575101)
(0.01095425233 0.003153466575 0.002105644886)
(0.01535673132 0.004046936343 0.002711858133)
(0.01302201635 0.003670568874 -0.002518676194)
(0.008809656803 0.002270913218 -0.0006572636752)
(0.01027612512 0.003478419415 0.00174403869)
(0.005254725977 0.002186903992 -0.0002625517612)
(0.01116147436 0.004008746379 -6.943762194e-05)
(0.007038392456 0.001492941709 2.73433644e-05)
(0.01440825045 0.004051114313 -0.001479911539)
(0.007396708998 0.0024639011 0.0006132236771)
(0.008962593117 0.0004983329555 -0.0006041462967)
(0.005200872798 0.00101046212 0.0007863725981)
(0.004741716635 0.0008529917834 0.0007217148167)
(0.01748045981 0.002715536756 0.0009421602525)
(0.0126613333 0.001714246656 0.001906355649)
(0.01431038052 0.003415427291 -0.0003550166189)
(0.01237783969 0.005503438975 -0.001344070393)
(0.01187099922 0.0018738244 -0.0001236409843)
(0.01344840031 0.004910428054 -0.0006656926694)
(0.01185266531 0.004074940108 0.000873989743)
(0.01299168616 0.004112851607 0.001347859226)
(0.01540056741 0.007230875866 0.0005662710842)
(0.01860228475 0.006965983749 0.0005422485512)
(0.01232592681 0.003177970246 0.00149529877)
(0.01596013342 0.00408145062 -0.002731037834)
(0.01024202059 0.004300470426 -0.0006857063161)
(0.01259373854 0.005525737539 0.003239933743)
(0.01180164394 0.00399365467 -0.0003815317735)
(0.01386844813 0.002451885683 0.0001536200911)
(0.008136473762 0.0003916435801 0.0001203447174)
(0.01289687533 0.004614189997 -0.0003663550003)
(0.01425051778 0.005866865981 -0.0001433776514)
(0.01229281097 0.006780057631 0.0009813016299)
(0.01364563569 0.003575254061 -0.0001590661683)
(0.01632795043 0.003265700718 0.001824645983)
(0.01107264624 0.005084512188 -0.001733576463)
(0.01457339783 0.001855208755 0.001484490111)
(0.0092543208 0.002296581922 0.0002409877185)
(0.01458806731 0.003303230639 -0.000577820633)
(0.01840116428 0.004834988232 0.001960360112)
(0.01123688993 0.001424845915 0.0009157934447)
(0.008746100883 0.002657255549 -0.001425392895)
(0.01234732743 -0.0004882301831 0.000887988642)
(0.01260587073 0.0008584389315 -5.567767089e-05)
(0.008371282505 0.002027542628 0.0008914412573)
(0.01756243343 0.004967428368 -0.0008529082844)
(0.009234080737 0.0009815967354 0.0004968500004)
(0.009443644177 0.004665765434 0.0006055874382)
(0.01684060126 0.006127980701 0.001068689938)
(0.01251371602 0.001542299791 0.000203152348)
(0.01037066062 0.003422887731 0.0009051541343)
(0.008884673665 0.002874407563 -0.0001038137209)
(0.01367283012 0.005802973753 0.0009197977375)
(0.009385777457 0.002093483603 -0.0004999199268)
(0.01745932577 0.007902222944 -0.001591498449)
(0.01797936899 0.004797962186 -0.000548453452)
(0.01708361035 0.008470748267 -0.0009993044714)
(0.01467054826 0.003396744757 -0.0003304441034)
(0.01080136062 0.004090915668 0.0007570443673)
(0.01719232215 0.005648954482 0.001471901066)
(0.0129894061 0.003897931865 -0.00094623565)
(0.01545008113 0.005215456818 -0.0001647120824)
(0.0147288575 0.004377563312 0.0001847700713)
(0.01268411965 0.004566429307 0.001443284748)
(0.01382937895 0.00478730979 0.0003135815383)
(0.00898255096 0.003433174337 -0.001177032341)
(0.01156609984 0.001345667336 0.001333683789)
(0.01399167976 0.0060303519 -0.0002127927793)
(0.009311831918 0.00189174757 0.001121700153)
(0.01081920335 0.002826012432 -0.0004369208025)
(0.009082467655 0.0001281945497 0.0007525385814)
(0.01056448218 0.001070263298 0.0006798469276)
(0.01015532032 0.002232729715 1.319919143e-06)
(0.006887576963 0.00134501767 0.0002272842199)
(0.008588676107 0.001309462723 0.0003091838449)
(0.01415583457 0.00254696517 -0.0001876785166)
(0.009361338598 0.001482047945 0.0001595538184)
(0.012193634 0.002779903144 -0.0006297100951)
(0.01122833315 0.002880059983 0.0003141238252)
(0.01194218499 0.002375238565 -0.0001436228867)
(0.01141166606 0.005929431104 -0.0004572985816)
(0.01299005397 0.005237488271 -0.001253395593)
(0.0132170358 0.003002013285 0.001210675044)
(0.01383860947 0.003104432553 -0.0001897421091)
(0.01073567637 0.004819575379 0.001404977339)
(0.02292375323 0.008029149423 -0.0012807964)
(0.01244277976 0.002463921235 -0.001029884886)
(0.01133390383 0.00237053136 0.0002058275983)
(0.01342056813 0.003416250678 -0.001674442856)
(0.02062460096 0.008833350377 -0.001175384859)
(0.01870727987 0.005558929239 -0.0006786808632)
(0.009346762985 0.001915924123 0.001091298574)
(0.0104025933 0.005693399785 0.001742717863)
(0.01398572874 0.003606342763 0.0001533485872)
(0.01277582767 0.003510410986 0.0006762468526)
(0.01761287024 0.005097871514 0.0004319477837)
(0.01233341179 0.003525039981 0.002557365009)
(0.01356301779 0.00336134521 -0.0004451368557)
(0.01705550504 0.005276518048 0.001941021913)
(0.01183130292 0.004901482848 -0.0004709771634)
(0.007747657661 -0.0001216848039 0.0008275084207)
(0.006345287153 0.0006927391623 -0.001282424299)
(0.008199966494 0.00106613994 -0.000454700169)
(0.005277495224 0.001165632319 0.0008639099378)
(0.01033241744 0.0007254610241 0.0005870171454)
(0.01365699639 0.002379809269 8.424356905e-05)
(0.01025056866 0.002152084724 0.0009113860416)
(0.008575499716 0.002110258017 -0.001262542243)
(0.005982501769 0.0006746157181 0.001317356893)
(0.01008073913 0.004210284826 -0.001209800977)
(0.014160661 0.003933757004 0.0003178103149)
(0.01216733649 0.003537263805 0.001147566262)
(0.01447334596 0.004412726218 -0.002287140165)
(0.01097098796 0.001321207702 0.0005618090987)
(0.01790579363 0.003723412058 -1.889138543e-05)
(0.02265748541 0.007333469542 -0.002457874336)
(0.01335194841 0.002223013223 0.001144260553)
(0.01359693021 0.004045032947 -4.810358991e-05)
(0.02027164831 0.0034087823 0.0003302191549)
(0.01151338297 0.001138735445 0.0001028627977)
(0.01890458198 0.007667161079 -0.001133235804)
(0.01416050681 0.004963720197 0.001793727767)
(0.01060408839 0.003182180912 0.002528680664)
(0.01050147496 0.002290136289 0.002121354947)
(0.019625707 0.005696067566 9.994365417e-05)
(0.01273418171 0.006993200851 -0.001821902709)
(0.006952593922 0.003376510513 -0.0006829148438)
(0.01795281579 0.004698503728 0.001953926969)
(0.01167033887 0.003227795743 -0.001250907914)
(0.01558973577 0.00452243674 -0.00111759924)
(0.01078794174 1.205365964e-05 0.0009448115703)
(0.008835582086 0.0008657500655 0.00123629085)
(0.00766270683 0.00185739912 -0.0007892013273)
(0.002178661341 0.0005129531725 0.0009188642478)
(0.01480982471 0.0002965197241 0.0001915736904)
(0.01452553587 0.001885828992 -0.001191570061)
(0.009974893616 0.002251731877 -0.000997907289)
(0.01258210655 0.001432310685 0.001642665154)
(0.006853729827 0.0005179419312 0.0001466232211)
(0.01660030181 0.003938006657 0.0006493001808)
(0.01069710255 0.001901094621 0.0002951532283)
(0.0125438971 0.00332459924 -1.671126871e-06)
(0.00910577639 0.002081082015 -0.0007490916626)
(0.01166289684 0.004677995663 -0.0008571788032)
(0.01909676262 0.006742798308 -0.0006656717602)
(0.01416635853 0.006833983009 0.0004388855872)
(0.0141051909 0.004440063295 0.001974600289)
(0.01718555807 0.005522866741 -0.0001050349733)
(0.009450181294 0.004436907225 -0.0005120955668)
(0.01568244128 0.004760665532 -0.000174653066)
(0.01789204902 0.006855762379 -0.0007514776261)
(0.01406311714 0.006235158348 -0.001254148944)
(0.01101763448 0.005300934952 1.299494177e-05)
(0.01707875679 0.004988117406 0.0002494255371)
(0.01423074872 0.003633614454 0.001143699465)
(0.007644041672 0.001436508477 0.001366328552)
(0.02004035351 0.005940217529 7.502381358e-05)
(0.01998868522 0.005603576896 -0.0002051372562)
(0.01722917993 0.005550519735 -0.001255684869)
(0.01533969192 0.003232114378 -0.0006911243628)
(0.01058845591 0.001209697045 4.828782331e-05)
(0.005233959593 -5.242532492e-05 0.0002169551606)
(0.00852505166 -0.0002795660231 -0.0003350525827)
(0.01065944113 0.001333978689 -0.001141140994)
(0.008680072801 0.001358709635 0.0002144628384)
(0.01001322123 0.0003806099087 -0.0006018813569)
(0.01164142859 0.004633588004 -0.0002196739823)
(0.01142735628 0.001521687853 0.0008569787509)
(0.01597877782 0.001224626481 -6.568515677e-05)
(0.01370997897 0.003621249314 0.0009084704552)
(0.01076601048 0.001067389659 -0.0004706341628)
(0.01398128289 0.002193818569 0.0005572920188)
(0.01449420441 0.002532118969 -0.0004684808079)
(0.0108376729 0.001488502339 -5.168507907e-05)
(0.01097853368 0.003834725884 -0.0007014040549)
(0.01083982132 0.001544869909 0.0008593332686)
(0.009645700476 0.003036408488 -0.0004796139596)
(0.01602034235 0.003414409691 -0.0001560672199)
(0.01136097893 0.003446368992 -0.0007962623332)
(0.007381764495 0.00250862473 0.0002932248931)
(0.01784528871 0.004356809096 -0.00113826602)
(0.01481006394 0.004304141345 -0.001875437243)
(0.01724801962 0.00436427252 0.002321417739)
(0.01962475403 0.004323311179 -0.0004050919197)
(0.01295870967 0.003688930167 -0.0009968234442)
(0.005345243667 0.002884859872 0.0003699764681)
(0.01360984307 0.003866015333 0.000166185793)
(0.01071839806 0.004697373252 -0.0002586333412)
(0.01218818119 0.004240996066 -0.0009553420095)
(0.0144503317 0.005402616427 -0.001583191748)
(0.007304660731 0.0001188415337 0.0005308497456)
(0.01059602293 0.0003410895273 0.0004491940844)
(0.01263166252 -0.0003562664555 0.0005255813659)
(0.01199028806 0.0005701654733 -0.0008600043925)
(0.008489087799 0.0007489576552 -0.000498617191)
(0.007482219573 0.001364018408 -0.000572709673)
(0.00946273221 0.0005180347616 -0.0005607903096)
(0.007260644506 0.002376550756 0.000527736459)
(0.01170088042 0.002450837868 -0.0002151725488)
(0.009518676403 0.00223622051 -0.0007486060561)
(0.007719064212 0.001197865155 0.0002176364997)
(0.01182237771 0.0003619711244 0.0001323481518)
(0.01003651531 0.003106519016 0.0001396791465)
(0.01295419909 0.003064133737 -0.0006102762564)
(0.004822769423 0.0005507808891 -0.0002622423596)
(0.005641106724 0.001827632278 0.0001254734541)
(0.01595363964 0.00461454373 0.0004645199776)
(0.01712561901 0.004359574078 0.0007510925877)
(0.01130106896 0.001800428129 -0.000374589218)
(0.00970439415 0.002047539589 -0.0001113076812)
(0.02074653017 0.006787629024 -0.0003450393948)
(0.02284935435 0.007216054005 0.0012022426)
(0.016610232 0.006387769911 -0.004079481296)
(0.01763192121 0.007217653845 0.0005115728519)
(0.00965963862 0.005064882948 5.371069376e-05)
(0.01120336463 0.003751563964 -7.110279121e-05)
(0.01767659693 0.004674756323 0.0002395370927)
(0.01192269671 0.003892387921 0.0009446926838)
(0.01183629187 0.006495797591 0.000702010332)
(0.009508549238 -0.0003053391503 -0.0005602024292)
(0.01123463641 -0.0007616794474 -0.0002716723682)
(0.01108444787 0.0001924905855 -0.0008728959062)
(0.01126789327 0.000182105309 -4.205295845e-05)
(0.008289135994 -0.0007057435013 -5.60302908e-05)
(0.007266992571 0.0008435912602 0.0003455391964)
(0.006183178207 0.000142316837 0.0002195287478)
(0.007214943861 6.915391448e-05 0.0004039979776)
(0.008666683993 0.0005609611938 6.560354185e-05)
(0.006141480728 0.00152045528 0.0005549900022)
(0.01226573436 0.0008637014984 -0.0008380362011)
(0.01818816006 0.005395517389 -0.0009088060062)
(0.0103375546 0.001439899127 0.001267671452)
(0.01203868883 0.001821225751 -0.0005747727548)
(0.0133129203 0.002179095712 -0.0001331478107)
(0.01358245582 0.004023926058 -0.0008500905072)
(0.01322670921 0.001560601157 -0.0004372902728)
(0.01486050605 0.003818813351 0.0001601417757)
(0.01986561654 0.005292737451 -0.0004094118672)
(0.009088704622 0.002099295981 0.001971924943)
(0.01174052071 0.003599560434 0.001442039228)
(0.009334593021 0.005489802611 -0.001747781306)
(0.02246860651 0.006228319236 0.00106927138)
(0.01341241608 0.004501100903 -0.0008869429444)
(0.008883196386 -0.0008752149667 0.002298504545)
(0.007520423793 0.001798662576 -7.743942754e-05)
(0.01077551993 -0.0002454144074 5.917043004e-05)
(0.005920954733 -0.0003596541342 -0.0007636489635)
(0.01173242846 -8.930985884e-06 0.001027516955)
(0.007428276923 0.002272205677 -0.000253876033)
(0.007359781416 -0.0003164260375 -0.0009726772135)
(0.005788598027 0.0005069277809 0.0008807308868)
(0.007369496902 -0.0002155732547 -0.0003194649537)
(0.006377601278 0.0008565050059 9.021217408e-05)
(0.006188160495 0.0009075850686 0.0005612795326)
(0.01462781122 0.001405779447 -0.0006164051193)
(0.01313844091 0.003337672105 0.0004210734341)
(0.008946312781 0.001067186506 -0.0002393468132)
(0.01213832869 0.001460410728 -0.001239643758)
(0.003650054769 0.0004585382144 0.0003871976916)
(0.01530973817 0.003632979122 -0.001617589338)
(0.01560947238 0.001422533633 0.0003405635974)
(0.0181877152 0.004226378709 -0.001853235493)
(0.008139234989 0.0001462344818 0.0003373163403)
(0.01404579315 0.0005298455171 -0.0008498628073)
(0.006203938835 0.0001683759909 -0.0006778674393)
(0.007988639558 -0.0002917327116 0.0007337570407)
(0.008459819177 0.001197302049 -0.000451136837)
(0.004616659296 -0.0001312182654 -0.0001854054362)
(0.008919595057 -0.0003497464649 0.0002647936045)
(0.01457293762 0.0008928215599 -0.0004804907019)
(0.007909825684 0.001796740203 9.47751763e-05)
(0.003514890015 0.001405519275 -8.158244811e-05)
(0.01055986484 0.0003007376388 0.0005745880871)
(0.009618053169 0.0001878256001 0.0005038092874)
(0.01026785158 0.0007910940582 -0.0002315636667)
(0.01096435031 0.001340819331 -0.0005506082032)
(0.01284825594 -0.0001388066777 0.0003577644075)
(0.0034026748 0.0004845223975 0.0001622453611)
(0.004793413564 -0.0005608751109 3.456069625e-05)
(0.01145338954 3.983923384e-07 0.0004114661955)
(0.005482549085 -0.0002941635269 -0.0002440053141)
(0.009818804136 -0.0002769591375 -0.0001502776438)
(0.007525014709 7.796226302e-05 -0.0006418759025)
(0.01539184138 0.000622009015 0.0006132519732)
(0.00815410003 0.000190817084 0.0001287934848)
(0.004786973848 0.0002166400583 -0.0004197790091)
)
;

boundaryField
{
    flow
    {
        type            zeroGradient;
    }
    obstacle
    {
        type            calculated;
        value           nonuniform List<vector> 
30
(
(5.688093858e-23 1.524120158e-23 -5.390871718e-22)
(5.135675142e-21 1.376100009e-21 -2.737452657e-21)
(1.498983563e-21 4.016514338e-22 -8.95632879e-22)
(1.262627901e-21 3.383201269e-22 1.071961969e-22)
(2.393775691e-21 6.414102612e-22 -2.076919066e-21)
(4.577406518e-21 1.226512382e-21 2.300991661e-21)
(0 0 0)
(2.000679976e-21 5.360805824e-22 3.689237332e-22)
(3.612088605e-22 9.678562264e-23 -6.609447975e-22)
(-1.328529408e-21 -3.559783827e-22 -2.148799768e-21)
(4.964490628e-23 1.330231251e-23 5.179719581e-22)
(0 0 0)
(2.494005341e-21 6.682667184e-22 -2.159918164e-21)
(-3.27561302e-22 -8.776978607e-23 1.463559721e-22)
(3.910896977e-21 1.047921689e-21 -1.223247635e-21)
(2.045805459e-21 5.481719189e-22 1.503396417e-21)
(1.157358769e-21 3.101133479e-22 3.949035119e-22)
(0 0 0)
(2.259517004e-22 6.054357547e-23 -9.977774018e-22)
(-2.900473264e-21 -7.771794701e-22 4.267671638e-21)
(1.986920702e-21 5.323937985e-22 1.294355843e-21)
(-3.060008041e-22 -8.199266808e-23 -3.591864985e-22)
(8.176262345e-21 2.190822896e-21 4.16402539e-21)
(0 0 0)
(6.231220906e-21 1.669650604e-21 -1.616624659e-21)
(1.50829148e-22 4.041454847e-23 -2.360420215e-22)
(1.149416992e-21 3.079853539e-22 -1.705716725e-22)
(-3.437997238e-22 -9.212085851e-23 -8.244990432e-22)
(2.925422317e-22 7.838645488e-23 -1.044306156e-21)
(0 0 0)
)
;
    }
    frontAndBack
    {
        type            empty;
    }
    procBoundary1to0
    {
        type            processor;
        value           nonuniform List<vector> 
21
(
(0.006434991143 0.002300784309 -0.001741417024)
(0.009577414647 0.003367734089 0.0006117400945)
(0.008993586633 0.00426045834 0.002304399787)
(0.01309402271 0.003267821264 0.001584087811)
(0.01706148679 0.002286136024 -0.001123654025)
(0.0144517098 0.005715776788 0.0005623284342)
(0.01186524782 0.00556267382 -0.001174179674)
(0.01061212283 0.004113051507 -0.0005176817625)
(0.008932164908 0.002330125444 0.0006195709002)
(0.01283379485 0.001844051936 -0.0005179585193)
(0.004660725724 -0.0004352331128 0.000414116966)
(0.004411942004 0.0002259768667 0.0004424181995)
(0.01200739898 0.0007706776431 -2.434747529e-05)
(0.01013104113 -0.0003027582615 0.0003534556554)
(0.007041827892 0.0006508955148 -0.0001381827522)
(0.0103193907 6.127186508e-05 0.0008451517331)
(0.01268129087 0.0008066024154 0.0004265704212)
(0.008435039673 -0.000388921362 -0.0002664816093)
(0.007262791151 0.0006185963362 -0.0006485694664)
(0.009704850555 0.0006613146694 0.000413255605)
(0.01072331479 0.0002630760323 0.0005189767628)
)
;
    }
    procBoundary1to3
    {
        type            processor;
        value           nonuniform List<vector> 
36
(
(0.009998387884 0.002953573484 -3.801686057e-05)
(0.01788547331 0.01009444479 0.001683143402)
(0.02256880432 0.006173090051 -0.002145375661)
(0.02002654734 0.003839348703 -0.0008143010039)
(0.01172296186 0.004759159291 -0.0007719260173)
(0.009998387884 0.002953573484 -3.801686057e-05)
(0.0121488635 0.008219628295 0.002736748749)
(0.01980352436 0.005003709376 0.0002489132176)
(0.02104337951 0.005543799948 -0.001365061648)
(0.02245174773 0.006572213548 0.0001420916771)
(0.01261775307 0.003469862223 0.0005572437559)