/*--------------------------------*- C++ -*----------------------------------*\
  =========                 |
  \\      /  F ield         | OpenFOAM: The Open Source CFD Toolbox
   \\    /   O peration     | Website:  https://openfoam.org
    \\  /    A nd           | Version:  7
     \\/     M anipulation  |
\*---------------------------------------------------------------------------*/
FoamFile
{
    version     2.0;
    format      ascii;
    class       volVectorField;
    location    "0.008";
    object      momentumMean;
}
// * * * * * * * * * * * * * * * * * * * * * * * * * * * * * * * * * * * * * //

dimensions      [1 -2 -1 0 0 0 0];

internalField   nonuniform List<vector> 
546
(
(0.0001316416737 3.221516487e-05 5.902758198e-05)
(0.0001064143974 5.571563874e-05 3.842360894e-06)
(0.0001100626426 1.717721358e-05 -2.828893082e-05)
(0.0001027406834 3.326364997e-05 -1.272751766e-05)
(0.0001252405897 1.870191473e-05 4.0898511e-06)
(0.0001210541071 4.117582928e-05 -5.400279033e-06)
(0.0001145289006 4.049172586e-05 -9.153523588e-06)
(0.0001126317717 3.360636853e-05 3.091072454e-05)
(0.0001017274958 2.123056035e-05 -1.243616689e-05)
(0.0001289928146 2.941784962e-05 4.172800566e-06)
(0.0001549162682 3.525660502e-05 7.56962781e-06)
(0.0001196934422 4.775166037e-05 6.129146593e-05)
(0.0001038655274 1.329162933e-05 3.267400868e-05)
(0.0001560533037 3.747498003e-05 2.245941247e-05)
(0.0001428908686 4.438333398e-05 4.721331619e-06)
(0.0001691019632 3.404486567e-05 6.505523871e-06)
(0.0001618182543 5.338639556e-05 2.465334788e-05)
(0.000163105459 4.490413318e-05 -6.187050091e-05)
(0.0001221940007 4.320784029e-05 -4.03497024e-05)
(0.0001173281844 2.366248675e-05 -7.181128511e-07)
(0.000150737557 4.332280874e-05 2.745119138e-05)
(0.0001311718671 3.617538317e-05 6.580942783e-06)
(0.0001001487484 3.751117083e-05 1.402744214e-05)
(0.0001145824746 3.974916877e-05 1.121736854e-05)
(0.0001401664652 1.577396938e-05 -2.31651039e-05)
(0.0001394695738 3.881116923e-05 -2.74954522e-05)
(0.000130021043 4.4955983e-05 1.440932174e-05)
(0.0001527393943 4.0281205e-05 -1.336972524e-05)
(0.0001727383342 3.208917123e-05 5.526494689e-05)
(0.0001850194544 4.845206179e-05 2.76198723e-05)
(0.0001412971738 6.22811786e-05 2.664235719e-05)
(0.0001474738378 3.788835474e-05 -3.852469739e-05)
(0.0001473742482 5.437987636e-05 -8.735610398e-06)
(0.0001579617059 9.592209977e-06 -4.073669287e-05)
(0.0001625690493 5.491641705e-05 2.2084956e-05)
(0.0001565139775 3.567662184e-05 1.241511699e-05)
(0.0001814640471 6.189480818e-05 1.123830857e-05)
(0.0001713990268 5.319200891e-05 6.082030183e-06)
(0.0001897041627 5.449433558e-05 -2.587362801e-05)
(0.0001955938604 4.67952456e-06 3.167405758e-05)
(0.0001824665759 5.860852954e-05 3.831011436e-05)
(0.0001990449308 7.681541014e-05 3.455014758e-05)
(0.0001980414928 5.35255505e-05 2.895537712e-05)
(0.0001736646172 3.352049145e-05 -8.295675848e-05)
(0.0002109414747 3.847852938e-05 -4.534399366e-05)
(0.0001927020674 5.117948883e-05 2.794995366e-05)
(0.0002024596802 5.455668254e-05 5.436881964e-05)
(0.000178948155 7.588428609e-05 -1.393834169e-05)
(0.0002159878881 5.959371066e-05 2.580211095e-05)
(0.0002244389297 5.936267976e-05 5.901447927e-06)
(0.0001640894841 4.53311983e-05 3.423026472e-05)
(0.0001895956806 6.398282231e-05 1.855592649e-05)
(0.0002080778608 6.457954141e-05 2.069961202e-05)
(0.0002083048195 3.398983599e-05 1.786872889e-05)
(0.0001837572411 5.435036684e-05 -3.684727031e-06)
(0.0001644946643 6.556958781e-05 1.812410714e-05)
(0.0001833851912 1.732014275e-05 -4.760337375e-06)
(0.0001830057144 4.623661529e-05 2.887447528e-05)
(0.0001759787632 4.959721878e-05 6.435000459e-05)
(0.0001944084967 4.726024977e-05 -3.493651365e-06)
(0.0001645819546 7.13755742e-05 7.929161607e-06)
(0.0001416558204 3.220615276e-05 -2.764935178e-05)
(0.0001699115789 6.27614461e-05 -3.245520587e-05)
(0.0001704863377 2.32118063e-05 -1.513989748e-05)
(0.0001742551606 4.745460001e-05 -7.40021775e-06)
(0.00018737155 2.708130639e-05 -6.359354565e-06)
(0.0002015516456 6.391325771e-05 8.856293784e-06)
(0.0002290912471 4.270387747e-05 5.905160802e-06)
(0.0002271061788 4.940368906e-05 -3.278982218e-05)
(0.0002193067314 6.237625212e-05 -4.926073339e-06)
(0.0001781455176 4.84738864e-05 -1.240929008e-05)
(0.000203950713 7.574313075e-05 -2.895910519e-05)
(0.0002153847417 4.936686301e-05 -2.834809931e-05)
(0.0002117853571 3.616194223e-05 -2.606600927e-05)
(0.0002016337896 5.116432091e-05 -1.538366622e-05)
(0.0002175336608 5.151747749e-05 3.205253796e-05)
(0.0002049507086 6.60742116e-05 2.109154265e-05)
(0.00018693027 7.051715646e-05 1.469522106e-06)
(0.0001971060332 6.070033472e-05 5.803414514e-05)
(0.0001997940269 7.044200851e-05 3.041316053e-05)
(0.0002272567326 4.900378413e-05 2.552137977e-05)
(0.0002333967723 6.086983872e-05 1.860167025e-05)
(0.0002345206922 7.045439914e-05 3.392063209e-05)
(0.0002111068858 5.795555013e-05 1.090765331e-05)
(0.0002178221132 5.265641893e-05 6.190411474e-06)
(0.0002072224096 7.38214356e-05 3.432608082e-06)
(0.0001949344351 3.069688697e-05 -4.906738959e-05)
(0.0001972722433 5.941316255e-05 7.939639024e-06)
(0.0001690824859 4.262891021e-05 1.878261962e-05)
(0.0002024375919 6.00105082e-05 -4.417887552e-05)
(0.0001949902559 6.405035495e-05 -4.396942992e-05)
(0.0002224761876 6.869422668e-05 2.157625254e-05)
(0.0002060643257 5.27114877e-05 -2.733779013e-06)
(0.0002132530655 4.301110752e-05 -1.66469711e-05)
(0.000195303059 2.81121904e-05 -2.1192985e-05)
(0.000210150243 5.606951679e-05 -2.082071891e-05)
(0.0001983368575 4.575329723e-05 -1.213762838e-05)
(0.0001845653254 4.259205473e-05 3.450876111e-05)
(0.0001997390042 4.322032371e-05 -1.643370962e-05)
(0.0001967449978 6.402701008e-05 -2.55680903e-05)
(0.0002042030507 6.273490908e-05 -1.543115173e-05)
(0.0002317565009 5.68813638e-05 -8.407917024e-06)
(0.0002360368061 6.853903699e-05 -1.160411984e-05)
(0.0002216771529 4.559673769e-05 -4.036698633e-05)
(0.0002486545395 4.411744045e-05 -9.334358426e-06)
(0.0002552639936 6.728479216e-05 3.540590468e-05)
(0.0002337980094 9.600191319e-05 2.234024683e-05)
(0.0002657490334 8.09340835e-05 6.207275257e-05)
(0.0002496453988 4.169289552e-05 6.078795844e-05)
(0.0002321230005 8.807874976e-05 7.46547727e-05)
(0.0002231098024 6.168127375e-05 1.409994131e-05)
(0.000221758096 5.594402682e-05 -1.162895209e-05)
(0.0002339683092 7.442909602e-05 -5.606857087e-06)
(0.0002428200662 6.499436178e-05 8.539393525e-06)
(0.0002434612905 6.888498022e-05 6.421068736e-06)
(0.0002429827342 9.216097903e-05 -5.918540384e-05)
(0.0002630219731 3.674208606e-05 -5.643328367e-05)
(0.0002639404903 8.638871724e-05 -4.771173833e-05)
(0.000210516924 8.382739572e-05 1.113235127e-05)
(0.0002446258296 5.461341515e-05 1.01166403e-05)
(0.000206663673 2.951662125e-05 1.945203379e-05)
(0.0002013071508 8.975801563e-05 4.509817297e-06)
(0.0001901117127 3.740611962e-05 -3.518164079e-05)
(0.0001867551834 5.061299633e-05 -2.275617886e-05)
(0.0001624816802 3.614193502e-05 -2.18720241e-05)
(0.0001846890809 5.133156013e-05 -1.530372579e-06)
(0.0002040922601 3.284087726e-05 -1.183088633e-05)
(0.0002030680007 4.643798323e-05 4.287965113e-05)
(0.0002062350377 3.855280783e-05 1.525775475e-05)
(0.0001944304756 5.913540604e-05 -3.165762281e-05)
(0.0002391250954 5.633944008e-05 3.330815636e-05)
(0.0002281073582 5.44426673e-05 6.748823316e-07)
(0.0002351835907 6.567247193e-05 -1.16925476e-06)
(0.0002480313102 4.167898316e-05 -1.205262763e-05)
(0.0002324726628 5.229449523e-05 -6.050332618e-06)
(0.000230758461 6.181367542e-05 3.871306739e-05)
(0.0002584892934 8.109535199e-05 3.574765556e-05)
(0.0002362965623 9.111772956e-05 6.375925244e-05)
(0.000227669696 4.582989145e-05 4.543109612e-05)
(0.0002584788165 9.042986815e-05 -1.919565491e-05)
(0.000261239415 7.391589829e-05 -4.769143928e-05)
(0.0002302502117 7.286890189e-05 -2.774396183e-05)
(0.0002512546205 5.530237347e-05 -4.581401505e-05)
(0.0002609943925 7.971823863e-05 -2.340669894e-06)
(0.0002534374929 6.280674036e-05 -5.083096484e-05)
(0.0002810387342 8.190974901e-05 -5.720540254e-06)
(0.0002924432486 7.300189136e-05 -3.756437273e-05)
(0.0002318411219 8.321812856e-05 1.972838e-06)
(0.0002580945917 0.0001121246915 9.116687716e-06)
(0.0002699303045 6.328349276e-05 -1.565636284e-05)
(0.0001659075603 2.838832288e-05 -6.608555362e-06)
(0.0001721859687 8.048010914e-05 -4.69542386e-05)
(0.0002028025616 3.320170133e-05 -3.032948317e-05)
(0.0002140818614 7.674613856e-05 -1.273021439e-05)
(0.0002129256902 4.821811611e-05 -2.916138953e-05)
(0.0002000612989 2.321247103e-05 4.277739814e-05)
(0.0002050807349 4.107724303e-05 6.597020959e-06)
(0.000218711166 5.839902535e-05 6.898213534e-05)
(0.0001990206965 3.426257144e-05 9.585088613e-06)
(0.0002418685012 5.357729774e-05 -1.173870292e-05)
(0.0002392439994 4.184984827e-05 5.000571424e-05)
(0.0002274156007 7.440157586e-05 7.436846575e-06)
(0.0002346460562 6.569758946e-05 -5.626504706e-05)
(0.0002483083581 2.342636897e-05 -2.328025446e-05)
(0.0002617991243 7.139660772e-05 1.678801168e-05)
(0.000244273517 6.364912218e-05 5.811568885e-05)
(0.0002506684547 8.434444064e-05 3.025787454e-05)
(0.0002580575382 0.000109736264 2.81494189e-05)
(0.0002551790674 5.141153098e-05 6.162673278e-05)
(0.0002457002089 7.627218168e-05 2.473061387e-05)
(0.0002177225807 7.204080636e-05 -3.221802013e-06)
(0.0002495728958 6.065986943e-05 -8.816823073e-06)
(0.0002670102267 4.929580529e-05 -4.740846121e-05)
(0.0002902862196 8.730764299e-05 -1.402037481e-05)
(0.0002847743097 8.023415659e-05 -4.997719527e-05)
(0.0002849212321 5.89012638e-05 5.762919849e-06)
(0.0002647788222 8.800079437e-05 -1.119018411e-05)
(0.0002775477161 9.14042994e-05 -1.279904301e-05)
(0.0002733587425 0.000122386205 -1.86055224e-05)
(0.0002890197042 6.068338904e-05 -1.145787881e-05)
(0.0001893401371 4.794576639e-05 -6.150219413e-06)
(0.0002018576194 6.067810432e-05 -2.654773499e-05)
(0.0001855063476 2.988264859e-05 -6.431674914e-05)
(0.0001965072168 7.05361002e-05 -4.386753109e-05)
(0.0002184743856 4.626945145e-05 -5.781705454e-05)
(0.0002167384202 2.333657188e-05 2.587619383e-05)
(0.0002123725193 3.44771301e-05 5.267600117e-05)
(0.0002029672355 6.251972987e-05 8.198270006e-05)
(0.000227651042 5.027362092e-05 1.550122859e-05)
(0.000204421519 2.652588757e-05 -3.455331542e-05)
(0.0002376567096 3.744058359e-05 -2.413793385e-05)
(0.0002404708056 6.81038224e-05 -1.903694033e-05)
(0.0002161400976 6.802612619e-05 -3.709040759e-05)
(0.0002468211422 2.391233181e-05 3.519509042e-05)
(0.0002441493978 5.114784721e-05 2.671461804e-05)
(0.0002618715333 6.306119285e-05 2.095624073e-05)
(0.0002731442766 8.096613812e-05 -5.541321361e-06)
(0.0002934765096 9.928099457e-05 4.613269828e-05)
(0.0002938561922 8.190134886e-05 3.676900981e-05)
(0.00027491631 0.0001017891027 8.821057442e-06)
(0.0003051873679 6.398582853e-05 -6.269455836e-06)
(0.0002714105329 8.165746245e-05 3.460559821e-05)
(0.0002717387664 5.204002678e-05 3.943708442e-05)
(0.0002377501686 5.541651968e-05 1.695101292e-05)
(0.0002821088158 6.791765521e-05 -6.350382318e-07)
(0.0002538773034 7.91655427e-05 -1.492466363e-05)
(0.0002622690364 7.591868209e-05 -7.664487952e-05)
(0.0002927027483 9.45662406e-05 9.603461506e-06)
(0.0002943953475 0.0001295321342 -2.730515967e-05)
(0.0002884383864 7.777348568e-05 8.560032065e-06)
(0.0001455776323 4.901973622e-05 -7.852481439e-06)
(0.0001703981771 1.430912096e-05 -3.6718302e-05)
(0.0002117398756 4.183151518e-05 -2.708461135e-05)
(0.0001941348032 4.032749312e-05 -2.443355283e-05)
(0.0002168408216 4.475447135e-05 2.202223385e-06)
(0.0002216437282 3.247363168e-05 5.195140172e-05)
(0.0002197667624 4.578714481e-05 1.861316555e-05)
(0.0002146499001 5.263206922e-05 1.171264857e-05)
(0.0001842929326 6.294204879e-05 2.213664946e-06)
(0.0002117827682 1.327964513e-05 -2.38362297e-05)
(0.000219948024 5.412505286e-05 -1.227737718e-05)
(0.000208527507 4.999064509e-05 -1.042077808e-05)
(0.0002619399886 3.82172268e-05 3.271828503e-05)
(0.0002569233466 3.935211906e-05 2.628614454e-05)
(0.0002456046552 3.98143667e-05 1.2728372e-05)
(0.0002673362637 6.173253818e-05 2.814970551e-05)
(0.0002511459119 7.48740885e-05 -1.361253521e-05)
(0.0002597960327 8.05425846e-05 1.885101551e-05)
(0.0002571469925 8.793637641e-05 1.557639721e-05)
(0.0002791785566 7.509513423e-05 2.126882629e-05)
(0.0002650581863 0.0001084742245 4.754639919e-06)
(0.0002824231086 6.428792696e-05 1.588346027e-05)
(0.0002571857823 4.613888534e-05 4.030978035e-05)
(0.0002846087057 8.691387937e-05 2.369973162e-05)
(0.00025381317 6.184694094e-05 3.248395319e-06)
(0.0003156955394 6.974870471e-05 -6.713668675e-05)
(0.0003116347042 9.307091222e-05 -2.470176847e-05)
(0.0002974672527 8.375928958e-05 -5.153804072e-06)
(0.0002832670746 0.0001276376815 -1.587766858e-05)
(0.000348244964 0.0001094473007 -3.128052775e-05)
(0.0002116324644 5.051525963e-05 2.092154187e-05)
(0.0001906671144 3.256858664e-05 -2.669672459e-05)
(0.0001854935349 3.596436316e-05 -3.275493818e-07)
(0.0002180331359 3.370416187e-05 3.098649255e-05)
(0.0002164522213 4.338116919e-05 4.567211048e-05)
(0.0002259806388 4.419473047e-05 4.157527139e-05)
(0.0001985782771 3.695556586e-05 7.892699136e-06)
(0.0002146501356 5.508738201e-05 7.878696412e-06)
(0.0002213060408 7.443746099e-05 2.180730804e-06)
(0.0002226322411 1.10254207e-05 -2.313861674e-05)
(0.0002166942486 4.87372154e-05 -2.223492413e-05)
(0.0002695128648 2.596875845e-05 -2.216646443e-06)
(0.0002753918225 5.785355212e-05 3.988495021e-05)
(0.0002508432067 4.615141216e-05 -1.936076768e-05)
(0.0002309500243 5.033060001e-05 3.10550999e-05)
(0.000209125627 4.143702497e-05 2.08005776e-05)
(0.0002619576681 6.002317555e-05 -1.706928855e-05)
(0.0002725437463 9.025245e-05 -6.031387423e-06)
(0.0002685482963 7.599844366e-05 2.293532452e-05)
(0.0003008173436 6.126734615e-05 1.083711533e-05)
(0.0002850353537 0.0001112642464 4.441989057e-05)
(0.000323746547 6.806558257e-05 4.709423468e-05)
(0.0003135776555 7.097199567e-05 2.425513432e-05)
(0.0003070857285 9.458015167e-05 1.861685461e-06)
(0.0003227423631 7.402778609e-05 -3.032878224e-06)
(0.0002959692924 5.092556741e-05 1.380093154e-05)
(0.0002740730027 8.769037435e-05 2.010537211e-05)
(0.0002849747157 9.490529669e-05 -1.682371585e-05)
(0.0003259506973 0.0001109960193 8.45184615e-07)
(0.0003692795606 0.0001099553255 3.472628039e-06)
(0.0001981538554 3.934781685e-05 1.548934688e-05)
(0.0002078732044 3.678686907e-05 -1.11225457e-05)
(0.0002131904106 3.891811435e-05 1.035784663e-05)
(0.0002060625057 3.737221666e-05 7.194024809e-05)
(0.0001921261005 1.035548677e-05 4.927913365e-05)
(0.0002034817953 6.290393999e-05 2.610829478e-05)
(0.0001954570945 3.712938851e-05 1.874248001e-05)
(0.0002062425305 4.777169616e-05 -7.802867954e-06)
(0.0002158709652 6.142906255e-05 -2.816045463e-05)
(0.0002526670424 1.281392548e-05 -2.649374896e-05)
(0.0002440824986 4.803945759e-05 -1.509544309e-05)
(0.0002438135948 1.941032497e-05 1.434876762e-05)
(0.0002121821264 3.773660676e-05 1.444497448e-05)
(0.0002301577303 5.345123224e-05 -1.085072611e-05)
(0.0002509457465 6.544516631e-05 1.750228513e-05)
(0.000271781606 5.081853964e-05 2.746387801e-06)
(0.0002298052018 3.442438941e-05 2.782430313e-05)
(0.0002427831718 8.46649251e-05 2.306365876e-05)
(0.0002752574697 7.274753338e-05 -7.198220799e-06)
(0.0002754010323 5.220629706e-05 -1.27438154e-05)
(0.0003000781242 9.739428275e-05 -1.411305799e-05)
(0.0002981179267 5.32957758e-05 8.394683949e-06)
(0.0003097612636 8.245352121e-05 8.945670626e-06)
(0.0003067862313 8.107429889e-05 -4.475511123e-06)
(0.0003370829026 7.201537352e-05 9.200811825e-06)
(0.0003248592421 8.735978082e-05 -1.438560809e-06)
(0.0002862910002 9.280956582e-05 -1.110741617e-05)
(0.0003050971431 0.0001035368887 7.354998692e-05)
(0.0002746396379 9.150926658e-05 3.082470773e-05)
(0.0003081459843 7.600752859e-05 3.229106802e-05)
(0.0001402029719 1.505540979e-05 7.028118902e-06)
(0.0001499559246 2.278200482e-05 1.026976642e-05)
(0.0001472525613 3.815693292e-05 2.128433083e-05)
(0.0001418304181 1.545519777e-05 6.371131367e-05)
(0.0002073386255 8.993687092e-06 4.210782561e-05)
(0.0002025465939 5.365515122e-05 3.1464368e-05)
(0.0002129651962 4.834230629e-05 3.926196488e-05)
(0.0001998838667 4.319083259e-05 4.366336892e-06)
(0.0002359604644 2.775664117e-05 -4.397964144e-05)
(0.0002169787067 2.021927276e-05 -6.458166792e-05)
(0.0002232915149 3.893083517e-05 -1.920990547e-05)
(0.000208647719 3.407383388e-05 -1.352196646e-05)
(0.0002264623207 3.13822194e-05 -2.116692395e-05)
(0.0002654302294 2.911561439e-05 -4.007189674e-05)
(0.0002987553886 6.380032159e-05 -1.11499046e-05)
(0.0002566502236 7.23434192e-05 3.668577923e-05)
(0.0002713367999 4.35260704e-05 7.336796363e-06)
(0.0002567059992 7.827819981e-05 1.558942584e-05)
(0.000266203718 5.50771551e-05 1.466372721e-05)
(0.0002350189713 7.134298047e-05 -1.521627517e-06)
(0.0002704751212 7.065716532e-05 9.62605439e-06)
(0.0002510971859 5.735674724e-05 5.801534977e-06)
(0.0002457057734 7.843339207e-05 8.263735314e-07)
(0.0002828295399 4.309746615e-05 2.154652916e-05)
(0.0002881686279 5.854852064e-05 -8.45639053e-06)
(0.0002580069325 9.270295594e-05 1.502451244e-05)
(0.0003091441788 9.935621119e-05 -2.236675375e-05)
(0.000311542654 0.0001004044849 2.907822931e-05)
(0.0003281892041 8.415409727e-05 0.000100419382)
(0.0003770705424 9.29303202e-05 2.929442819e-05)
(0.0001747933587 3.680095197e-05 1.538177838e-05)
(0.0001659610503 2.249099801e-05 1.920654817e-05)
(0.0001874299166 3.107056795e-05 3.747510128e-05)
(0.0001953286217 -1.152191039e-05 2.11189391e-05)
(0.0001762947635 9.001208875e-06 1.462317398e-05)
(0.0001666960958 5.150629026e-05 1.689836068e-05)
(0.0001809453795 3.628821648e-05 3.746380587e-05)
(0.0002148467195 2.642180438e-05 -1.552639188e-05)
(0.0002227322595 2.388808417e-05 -1.279797193e-05)
(0.0002056259816 2.912004327e-05 7.666321856e-06)
(0.0002302872383 2.229672131e-05 6.553942462e-07)
(0.0002374542145 5.0735935e-05 -6.308906352e-05)
(0.0002529425128 2.645984459e-05 -5.38225849e-05)
(0.0002395587934 1.696253829e-05 -4.973243712e-05)
(0.0002255413703 5.810539348e-05 -3.502246999e-05)
(0.0002676838999 6.293026368e-05 9.428461014e-06)
(0.0002597990904 5.333098875e-05 1.482650363e-05)
(0.0002666978732 6.246574911e-05 9.389431581e-06)
(0.0002351022403 8.744422791e-05 -7.035927732e-07)
(0.0002224090025 6.022190612e-05 3.189037045e-05)
(0.000227436801 5.452296208e-05 2.140337322e-05)
(0.0002356884978 5.639403222e-05 -2.203703245e-05)
(0.0002659239266 4.738343926e-05 4.458934951e-05)
(0.0003018113842 6.351623551e-05 6.393153522e-05)
(0.0002776922623 3.896493403e-05 2.564786087e-05)
(0.0002984151498 7.934708223e-05 5.546801754e-05)
(0.0003175937569 0.0001022488509 3.937540016e-05)
(0.0003065275804 8.921237161e-05 3.804443539e-05)
(0.0003368031539 9.011300176e-05 6.675852957e-05)
(0.0003764749731 6.514047408e-05 3.42633401e-05)
(0.0001367290583 -1.758695893e-06 1.253281585e-05)
(0.0001479183526 2.657381145e-05 1.065007991e-05)
(0.0001619046886 9.637563298e-06 -1.230935064e-05)
(0.0001728433726 1.108264465e-05 2.809982507e-05)
(0.0001758096409 1.660568406e-05 -1.033016596e-05)
(0.0001876543123 2.604864847e-05 -4.342401988e-06)
(0.0001987129125 3.537377999e-05 -4.630746668e-06)
(0.0002064070227 1.694150736e-05 -2.691383541e-05)
(0.0001988872927 1.103991221e-05 -6.111304741e-06)
(0.0002420818366 4.054634264e-05 2.871606528e-06)
(0.0002205633222 1.992030385e-05 2.356187943e-05)
(0.0002132839702 4.215787919e-05 -8.60453343e-06)
(0.0002134117007 3.370424697e-06 -3.931031395e-05)
(0.0002484008554 2.472252991e-05 3.207501808e-06)
(0.0002735123323 4.592518963e-05 -1.2087606e-05)
(0.0002642292949 5.877393906e-05 1.622461405e-05)
(0.0002620033077 7.690014724e-05 5.471697247e-06)
(0.0002435440858 7.254887984e-05 -5.463130261e-06)
(0.0002534744565 9.948351628e-05 1.661299662e-05)
(0.0002790448954 6.549985984e-05 -8.569693226e-06)
(0.0002536833997 5.55198132e-05 -2.360474593e-06)
(0.0002904781939 5.701093856e-05 -6.515024598e-06)
(0.000261818246 2.445002671e-05 3.993099204e-05)
(0.0002931251814 4.426678144e-05 4.115820736e-05)
(0.0002831791358 7.548918329e-05 3.306300115e-05)
(0.0003014076599 4.855488556e-05 2.436522226e-05)
(0.0003197237447 8.365450616e-05 1.571684805e-06)
(0.0003530778761 9.531828104e-05 3.029990438e-05)
(0.0003654606848 9.522070306e-05 1.288739495e-05)
(0.0003549392198 7.738793362e-05 -3.215071271e-06)
(0.0001964539512 8.429905681e-06 -2.784542553e-05)
(0.0001871463243 2.281985753e-05 4.160796554e-05)
(0.000154633462 2.689601035e-05 -5.478559702e-06)
(0.0001605303033 -1.426845999e-05 4.641126001e-05)
(0.0001725272737 1.721057991e-05 4.125707076e-05)
(0.0001823320747 1.586943958e-05 1.087788454e-05)
(0.0002041309337 2.301390625e-05 -6.430130396e-06)
(0.0002007194052 2.675248026e-05 -1.942600686e-05)
(0.0001986721512 1.52352609e-06 -2.098265535e-05)
(0.0002148643439 2.242305697e-05 -4.88850761e-05)
(0.0002191106818 2.353096755e-05 -2.633136412e-05)
(0.0002317974346 3.654818614e-05 -3.727709631e-05)
(0.0002539315318 9.336524215e-06 -1.060216466e-05)
(0.000230665646 2.283193862e-05 2.200614628e-05)
(0.0001924841677 3.336346061e-05 -3.022754715e-05)
(0.0002157450372 3.014201242e-05 -3.895753039e-05)
(0.0002230230849 7.749043632e-05 2.856736948e-05)
(0.0002545486643 7.35276504e-05 -2.252873735e-05)
(0.0002360473407 7.934642609e-05 -4.939012343e-06)
(0.0002649872935 6.621408225e-05 -4.834363969e-05)
(0.0002789297037 5.916256267e-05 -3.496051518e-05)
(0.000228515634 5.610926643e-05 1.160700641e-05)
(0.0002594046519 2.576827602e-05 3.045892955e-06)
(0.0002696718363 2.277737015e-05 -4.600105257e-08)
(0.0002618486007 7.207178327e-05 1.922278766e-05)
(0.0002807167896 4.946443515e-05 2.340696578e-05)
(0.0002762360412 4.969388352e-05 2.392752828e-05)
(0.0002851063485 8.244146198e-05 2.638786791e-05)
(0.0002953385665 7.850600812e-05 4.07339763e-05)
(0.0003620328541 6.457815484e-05 1.840001641e-05)
(0.0001950815817 1.106672511e-06 1.84533436e-05)
(0.000193463981 6.115987343e-05 4.041677781e-05)
(0.0001921123865 1.917627219e-05 1.605626932e-05)
(0.0002141953768 -2.110530738e-05 1.849732048e-05)
(0.0001953023769 3.849369605e-05 2.957844717e-06)
(0.0001963105354 1.294907121e-05 5.322548294e-05)
(0.0001910787194 2.551073494e-05 8.10666166e-06)
(0.0001724952004 1.979670382e-05 9.764760621e-06)
(0.0001659285512 -3.272990112e-06 2.217485422e-05)
(0.0001717164542 -1.780443175e-05 1.127513311e-05)
(0.0001965729824 3.50865117e-05 -2.234350196e-05)
(0.0001993992666 2.56586005e-05 2.288900581e-06)
(0.0002300815762 -2.638343724e-05 -2.438049123e-05)
(0.0002217016379 5.088063003e-05 -3.273127233e-05)
(0.0002339597223 5.663483089e-05 -2.801246131e-05)
(0.000227553599 3.128057094e-05 -1.23721666e-05)
(0.0002279069122 4.471964434e-05 3.817628978e-05)
(0.0002335593584 6.791589057e-05 5.709664771e-06)
(0.0002792890518 8.132573068e-05 -5.465340191e-06)
(0.0002700137896 5.005532699e-05 4.030868477e-05)
(0.0002564459786 8.483438594e-05 1.894444334e-05)
(0.0002907179557 5.716020864e-05 1.986252064e-06)
(0.0002676146665 1.79429287e-05 -4.445452562e-07)
(0.0002529357324 3.01417023e-05 -1.128868591e-05)
(0.000260717726 7.387280484e-05 -2.110832223e-05)
(0.0002567346773 5.167431669e-05 -1.999064666e-06)
(0.0002760757897 2.279453214e-05 3.527607432e-05)
(0.0002680540228 6.975820357e-05 -4.021403413e-05)
(0.0002921368089 6.782218429e-05 1.755301286e-05)
(0.000306497297 4.356424817e-05 -1.45827074e-05)
(0.0001154163976 9.556512026e-07 -1.222904399e-05)
(0.0001490777607 4.086424632e-05 3.189401046e-05)
(0.0001767342487 -5.360992222e-06 4.530790512e-05)
(0.0001840995024 -5.603520149e-06 2.300927908e-05)
(0.0001957542153 3.182478633e-05 9.848385028e-06)
(0.0001803714547 -4.011674042e-06 5.969521354e-05)
(0.00019527392 3.916527849e-05 5.509478974e-05)
(0.0002236841885 3.275887114e-05 3.666967797e-05)
(0.00022435973 3.061414568e-08 2.235672991e-05)
(0.0002096006613 6.55393998e-07 4.496259324e-05)
(0.0001879686477 2.560219676e-05 -2.198721208e-05)
(0.0002302481387 -1.599081859e-06 1.693427381e-05)
(0.0002245559169 -1.063427243e-05 -3.063362852e-05)
(0.0002080287619 4.000604863e-05 1.978940012e-05)
(0.000234907481 2.671818782e-05 -1.76723393e-05)
(0.0002300930772 4.814212462e-05 1.508186326e-05)
(0.000238944171 5.056958284e-05 5.542808609e-05)
(0.0002238379589 5.090093577e-05 3.766670451e-05)
(0.0002331780102 6.559362724e-05 -2.856989513e-06)
(0.0002139701084 6.514367326e-05 1.341262983e-05)
(0.000235937303 5.438431403e-05 2.375429611e-05)
(0.0002735181947 3.208526643e-05 -8.011859019e-06)
(0.0002812824268 4.641605055e-05 -3.252400869e-05)
(0.0002425122667 4.923112608e-05 -1.515956674e-06)
(0.0002647459773 4.131455135e-05 4.339096351e-05)
(0.0002899750651 4.878655644e-05 1.102201072e-05)
(0.0002745641006 4.996274547e-05 -3.693982613e-06)
(0.0002878456111 6.213675753e-05 -5.714535501e-06)
(0.0003026070059 4.679395647e-05 -9.303835568e-06)
(0.0001700067035 1.129570237e-05 -7.561421787e-07)
(0.000165614255 8.310133618e-07 2.395935806e-05)
(0.0001648538494 -3.818434579e-06 4.141768824e-05)
(0.0001712464168 -1.976754368e-05 4.820492814e-05)
(0.0001828770852 2.041920514e-05 3.521928444e-05)
(0.0001955269999 1.699451634e-05 6.501247215e-05)
(0.0002082137845 -4.765113822e-07 5.583338016e-05)
(0.0001989283633 4.116629608e-05 2.440688309e-05)
(0.0002002887527 4.926298424e-06 2.374756233e-05)
(0.0002117137713 -7.605869808e-06 3.298932274e-06)
(0.0002297915977 1.528006364e-05 -3.214350354e-05)
(0.0002339001161 -5.5007211e-06 -5.882903524e-05)
(0.0002184814369 2.259563616e-05 -8.114153228e-06)
(0.0002066433211 4.711825108e-05 1.684012257e-05)
(0.0001893078906 9.143765394e-06 -2.023134312e-05)
(0.0002120509179 5.197106584e-05 3.013807288e-05)
(0.0002130231626 4.07029119e-05 1.001484087e-05)
(0.0002114856973 5.570972759e-05 -1.696962548e-05)
(0.0002396880051 3.161441377e-05 -1.961276627e-05)
(0.0002623602318 7.093977623e-05 9.196803209e-06)
(0.0002724372089 3.388470195e-05 7.305240899e-06)
(0.0002572038527 2.333951539e-05 -8.923421218e-06)
(0.0002554578124 6.792906301e-05 2.893205474e-05)
(0.0002357739182 5.41411267e-05 2.960311821e-05)
(0.0001826531717 6.882802679e-07 5.274369508e-06)
(0.0002047374269 6.809070472e-06 -9.578698512e-06)
(0.0001836857396 4.738098747e-07 3.528064059e-06)
(0.000197201932 -2.752833342e-05 4.461767203e-05)
(0.0001911097834 2.355462873e-05 1.771371514e-05)
(0.0001877707937 7.07984775e-06 3.394016212e-06)
(0.0001739032866 -2.298214785e-06 -1.279505391e-05)
(0.0001955196206 2.992075682e-05 2.820608703e-05)
(0.0002154963355 6.038515547e-06 3.792138841e-05)
(0.000215084682 -6.637818773e-06 3.842470464e-06)
(0.0001942202949 2.043713783e-05 -2.696141279e-05)
(0.000172913456 -2.463089448e-05 -1.743037868e-05)
(0.0001873034988 3.131715007e-05 4.258177651e-05)
(0.0002070386135 2.325447016e-05 1.153695386e-05)
(0.0002402834121 2.103007244e-05 2.731908335e-05)
(0.0002351267057 4.293389619e-05 -5.72741836e-06)
(0.0002191784471 4.597802723e-05 -1.966891368e-05)
(0.0002276870375 5.662172788e-05 -3.112461274e-05)
(0.000212096723 2.311296774e-05 -4.873466062e-05)
(0.0001759598588 3.41838723e-06 -1.918641382e-05)
(0.0001682952682 -9.258258599e-06 -2.615021362e-06)
(0.00019155728 1.496054446e-05 4.374180658e-05)
(0.0001833737212 -2.330091116e-05 2.688745311e-05)
(0.0001574253788 2.126763719e-05 2.78276359e-06)
(0.000166344174 1.12750039e-06 1.623106071e-05)
(0.0001728133622 -1.01922148e-07 -7.67506487e-06)
(0.0001989516811 -3.971007954e-07 8.2372469e-07)
(0.0002235853302 -2.082901007e-06 3.177889715e-05)
(0.0002325849485 1.205025906e-06 -1.233653677e-05)
(0.00022445752 3.660366989e-05 -3.175733518e-05)
(0.0002391380283 -1.761334783e-07 3.616202519e-06)
(0.0002172177011 1.095395125e-05 -8.455433857e-06)
(0.0002382895508 1.648242565e-05 6.375241026e-05)
(0.0001533481847 -5.054955515e-06 -4.733032528e-06)
(0.0001548812816 -4.363066291e-06 3.600410363e-05)
(0.0001663885806 -2.372872417e-05 3.923121734e-05)
(0.0001604472015 1.301828416e-05 1.137786673e-05)
(0.0001512533699 2.440458696e-05 -1.135025612e-05)
(0.0001586689783 -1.3351199e-05 -1.578864975e-05)
(0.0001803039759 2.578038377e-06 -7.136141851e-05)
(0.0001899712613 -2.36091941e-05 -5.386335712e-05)
(0.0001396427688 -6.21772866e-06 -3.177366931e-05)
(0.0001622741594 -3.714862594e-06 2.220351485e-06)
)
;

boundaryField
{
    flow
    {
        type            calculated;
        value           nonuniform List<vector> 
15
(
(0.0001850194544 4.845206179e-05 2.76198723e-05)
(0.0001944084967 4.726024977e-05 -3.493651365e-06)
(0.0002024375919 6.00105082e-05 -4.417887552e-05)
(0.0002446258296 5.461341515e-05 1.01166403e-05)
(0.0002699303045 6.328349276e-05 -1.565636284e-05)
(0.0002890197042 6.068338904e-05 -1.145787881e-05)
(0.0002884383864 7.777348568e-05 8.560032065e-06)
(0.000348244964 0.0001094473007 -3.128052775e-05)
(0.0003692795606 0.0001099553255 3.472628039e-06)
(0.0003081459843 7.600752859e-05 3.229106802e-05)
(0.0003770705424 9.29303202e-05 2.929442819e-05)
(0.0003764749731 6.514047408e-05 3.42633401e-05)
(0.0003549392198 7.738793362e-05 -3.215071271e-06)
(0.0003620328541 6.457815484e-05 1.840001641e-05)
(0.000306497297 4.356424817e-05 -1.45827074e-05)
)
;
    }
    obstacle
    {
        type            calculated;
        value           nonuniform List<vector> 
30
(
(2.033676808e-23 5.449220593e-24 1.026861656e-23)
(2.160240017e-23 5.788345691e-24 1.812207958e-23)
(8.719301123e-24 2.336329687e-24 -1.617915461e-23)
(7.71587427e-23 2.067462283e-23 -8.918745069e-24)
(1.69727687e-23 4.547839652e-24 4.501064361e-24)
(1.877686858e-23 5.031246783e-24 4.510701405e-24)
(5.453615501e-23 1.461291872e-23 -3.704142528e-23)
(2.830767307e-23 7.585018114e-24 -8.55774142e-24)
(5.343562494e-23 1.431803258e-23 4.424677423e-24)
(6.292610325e-23 1.686099858e-23 -8.76062686e-24)
(2.885102651e-23 7.730609231e-24 -2.647374863e-24)
(6.264146213e-24 1.678472922e-24 2.269514638e-23)
(1.437798204e-23 3.852568682e-24 -7.972780741e-24)
(5.374287705e-23 1.440036046e-23 1.064831411e-23)
(1.474364089e-23 3.950546678e-24 -8.425067335e-24)
(2.491785046e-23 6.676717888e-24 2.024905744e-23)
(5.001667638e-23 1.340192807e-23 2.122376583e-23)
(4.214977143e-23 1.129399724e-23 -6.72812209e-24)