/*--------------------------------*- C++ -*----------------------------------*\
  =========                 |
  \\      /  F ield         | OpenFOAM: The Open Source CFD Toolbox
   \\    /   O peration     | Website:  https://openfoam.org
    \\  /    A nd           | Version:  7
     \\/     M anipulation  |
\*---------------------------------------------------------------------------*/
FoamFile
{
    version     2.0;
    format      ascii;
    class       volScalarField;
    location    "0.008";
    object      overallT;
}
// * * * * * * * * * * * * * * * * * * * * * * * * * * * * * * * * * * * * * //

dimensions      [1 2 -2 0 0 0 0];

internalField   nonuniform List<scalar> 
546
(
836.6392204
827.474614
814.7753791
807.500048
799.9147246
792.5162082
787.4844991
786.6778962
777.1728454
772.8781223
766.3465704
765.4571133
764.3552546
755.1497935
752.0580736
753.3735498
748.472511
753.9850756
746.385987
739.207474
737.3818503
734.7303943
736.7591018
731.6435814
723.1642756
712.1491732
719.6440529
727.3698731
717.8263283
708.8340221
922.8465246
915.8045218
905.0895372
894.2729883
889.6117273
886.2752831
881.1065367
873.0982318
877.3663167
864.3290751
862.6733769
858.1635432
851.5261007
849.5271094
839.5364273
826.0053397
828.5456874
830.0360946
818.1901457
810.9461516
806.9642204
801.4156439
793.3389729
792.447782
792.259312
781.2076311
777.7848521
769.0186936
751.7714372
727.7437149
926.417306
924.8601923
920.2715254
923.2425676
915.9921997
914.0486946
909.5347432
903.9759057
904.941057
907.8764904
900.5704598
898.7413246
889.3523401
884.0616917
881.8114058
872.4262392
872.6157853
876.3163797
866.5530706
861.217182
853.4867425
848.6289601
846.7378279
845.1027021
833.9087316
821.0332605
810.8938684
795.3410265
777.5209574
740.2277505
912.6350945
916.4498088
917.2066099
910.7359927
914.5279939
917.0403186
912.8894574
910.3092814
909.4503131
910.537813
906.1634052
906.5510829
907.3876727
903.1070955
901.8376226
898.8462898
883.247255
878.6014745
880.1037122
876.1695429
879.8658592
875.9087426
868.32326
862.1629728
853.568167
837.1277867
825.2282511
815.8540573
791.4447706
756.9388102
875.6271701
881.5991631
881.314702
885.62274
892.4928454
892.8207763
891.9342524
897.532873
895.5047828
898.6288139
901.5547364
900.4714957
900.2554936
894.624773
893.3676759
890.2457417
891.4464813
881.5250939
881.8362605
885.6041783
884.4105328
890.5140228
878.5151258
870.9906058
864.7227122
857.7238609
837.9506473
822.6127236
805.1055902
773.8572221
838.7647022
851.9910346
857.2439813
850.7778593
857.6007763
860.384552
868.513865
863.7536242
869.7443989
868.7837852
874.9097764
875.3982293
873.2831006
877.4566523
879.1730946
882.3985558
883.704202
885.824972
888.5139456
886.3660563
884.0951217
889.836366
879.5283877
874.613315
861.3037092
855.3371553
841.2804272
830.2184875
808.8862606
786.7523222
804.4715775
819.5436519
824.4452423
826.1571843
830.0331266
834.7983958
840.4688564
841.4501045
852.020355
856.3191978
859.8170681
860.5619827
868.5902662
866.3795582
869.3627645
875.8497708
871.9154319
874.3264207
877.8960637
870.7873158
876.2952625
878.9555828
871.795273
869.3571582
861.2866266
854.5697088
846.5098778
835.4759032
817.3793826
785.4530336
754.788967
777.0290954
796.6342435
796.9165892
802.1054147
812.1516885
817.2894735
823.9549776
830.3019033
834.2918792
837.9671968
838.2606952
843.6062843
852.394878
852.4391299
852.1494075
854.2264658
859.6836853
862.4070529
860.4154412
854.8091183
867.3910461
865.8306378
862.3494378
857.4855192
851.9995493
844.0133099
833.4904779
818.5167462
795.9787988
713.1554414
731.1539229
754.8717237
764.3241451
774.6084777
784.7672178
791.2941862
799.6241536
805.8893332
808.4634818
814.5942577
820.5750427
821.9372617
826.9036938
822.6864685
833.5664268
834.9620952
837.070053
838.377097
842.5579887
840.5678643
840.2644556
842.410129
842.7197829
843.7227629
839.2851901
827.5645009
823.2224623
815.477233
793.509437
662.2064409
683.5567992
709.1342631
723.32954
733.6482967
751.2927768
765.2588735
772.5206184
777.0444498
778.7386307
785.183761
789.2177819
790.7159727
796.9081343
811.4772144
812.8019094
818.4800612
820.6620194
822.7928176
824.0570172
822.8623224
830.9815622
833.6520511
828.0666107
827.8617476
825.4871068
821.5558084
808.1111173
796.7614486
785.4759015
611.0153384
633.6764477
667.7680822
683.79139
690.7316625
715.2959962
730.4937586
735.7215353
744.2274486
751.7833746
758.1825707
772.895871
771.8632499
780.2397669
784.70012
791.8303993
798.7169907
797.1415728
804.573533
808.7579647
816.6266164
815.5229813
819.7671647
808.9677356
811.1462781
813.9491731
803.8180317
799.581873
792.5187659
780.6664707
555.9066819
587.8945347
602.6263355
635.8039332
655.3895598
671.6563123
686.469079
702.5381033
718.2397491
732.5228285
740.7277266
749.8582659
752.2528906
761.8902864
771.1465138
775.2436841
776.2454423
774.8704934
779.4556523
792.3834662
793.1299558
797.1155904
798.4855686
804.1641539
794.3006681
795.8141458
795.7795595
791.0608729
783.4390541
768.5687253
504.5848253
527.4836931
555.0635878
587.9903447
605.8937233
632.3549798
654.106115
664.7441515
684.9126256
692.1787411
706.9430894
721.1236475
729.8821224
735.6997206
743.3033143
753.5877902
764.4262515
764.5159706
766.6897859
771.4282834
776.4566913
783.1747968
786.9597449
781.9890869
781.6027814
781.5126034
782.7673904
782.635055
780.1779966
770.7110035
462.58286
483.7509757
511.9689563
541.006749
559.3691104
585.0680213
605.5742307
624.8672745
644.1185294
661.6146243
677.2079296
691.5847969
699.039322
713.0788346
719.6610362
725.5067764
734.0542536
738.936112
744.496682
750.9485022
761.6306762
760.1911017
764.5790917
770.8886395
771.0956281
771.5493084
775.9081288
766.3522192
769.5105514
756.4321487
429.5512628
435.1357118
463.5090141
490.9816963
512.4815878
541.9116998
563.7165609
591.6166439
605.8811561
629.4679517
653.3167067
667.7965603
679.8339001
688.4989755
700.8148532
712.4740598
718.9166486
723.3731341
725.7434568
734.3797089
741.2404009
745.3586062
747.9515411
753.2924202
759.5527724
754.2345971
761.7989835
755.9194614
748.8219345
745.5390392
395.8646609
409.5509352
426.1228807
450.7701482
471.9865252
500.6629938
523.7043985
544.0475939
572.3979749
586.8838621
606.5834653
624.0071901
643.4155897
656.7456443
670.880858
683.2435446
692.0249203
700.6826687
711.5084708
718.4684899
726.2942888
729.1700171
735.1816886
740.1015126
742.6811585
742.7380186
744.0159664
742.9870899
745.0666809
376.0417224
390.8135509
405.3402883
422.989211
435.7425283
457.1878105
478.5616245
499.1359134
525.9470819
546.3348616
567.1506837
589.5615561
609.2684769
621.5889178
642.9340732
656.7410292
669.1070297
681.69259
690.2085924
695.887037
704.7538945
713.231388
718.6315815
723.8795512
359.1298446
368.8916046
382.4755343
391.4649156
408.4119621
427.1303444
448.965042
467.2191313
483.0883371
506.4401905
528.4744079
552.9626417
564.6618053
590.4504061
607.1554509
620.0742422
643.3569006
651.0660617
668.4999489
336.7929272
348.6426638
360.2604037
373.2175081
382.8306361
398.495597
412.7096272
430.7410294
446.9145058
466.079734
484.5063034
508.0687782
527.3727696
548.1395883
328.8417674
339.0117364
348.1935514
355.0156368
366.8988065
379.6633155
385.6709248
405.4832575
322.923248
328.7642177
)
;

boundaryField
{
    flow
    {
        type            calculated;
        value           nonuniform List<scalar> 
15
(
708.8340221
727.7437149
740.2277505
756.9388102
773.8572221
786.7523222
785.4530336
795.9787988
793.509437
785.4759015
780.6664707
768.5687253
770.7110035
756.4321487
745.5390392
)
;
    }
    obstacle
    {
        type            calculated;
        value           nonuniform List<scalar> 
30
(
740.9998547
731.4381319
747.173876
706.8302485
719.2852668
698.3559411
687.2328089
700.8857907
695.5963221
695.7443554
685.6872199
696.1434261
693.3924753
674.6461904
674.4009509
677.5469382
681.836722
676.95053
669.0042534
682.498214
670.0402768
659.5212387
676.4647435
673.2150713
667.1351499
659.2713084
661.2699477
679.2455246
669.3316215
689.401736
)
;
    }
    frontAndBack
    {
        type            empty;
    }
    procBoundary1to0
    {
        type            processor;
        value           nonuniform List<scalar> 
21
(
846.7309702
926.7987833
932.6600201
914.122057
874.1571629
838.6832714
796.654222
746.6089297
685.839424
628.4547151
571.8804082
522.6302749
474.3521572
439.695726
401.3354187
377.4792842
363.8060341
344.8900422
329.0465739
325.4726514
318.9171192
)
;
    }
    procBoundary1to3
    {
        type            processor;
        value           nonuniform List<scalar> 
36
(
746.719621
727.6023424
730.0015173
730.5374285
729.941243
746.719621
727.3371443
675.2336476
685.3026271
691.8293888
701.8177778
727.6023424
705.2167631
572.1503925
586.3036078
609.6175266
624.8755103
675.2336476
637.8376749
416.138637
434.504116
450.6886656
470.7606209
492.0366022
572.1503925
511.5343347
334.4487477
341.8889458
351.9178352
358.6947362
368.5831311
416.138637
380.0783897
318.1326511
334.4487477
324.1249008
)
;
    }
}


// ************************************************************************* //
