/*--------------------------------*- C++ -*----------------------------------*\
  =========                 |
  \\      /  F ield         | OpenFOAM: The Open Source CFD Toolbox
   \\    /   O peration     | Website:  https://openfoam.org
    \\  /    A nd           | Version:  7
     \\/     M anipulation  |
\*---------------------------------------------------------------------------*/
FoamFile
{
    version     2.0;
    format      ascii;
    class       volScalarField;
    location    "0.008";
    object      overallT;
}
// * * * * * * * * * * * * * * * * * * * * * * * * * * * * * * * * * * * * * //

dimensions      [1 2 -2 0 0 0 0];

internalField   nonuniform List<scalar> 
546
(
535.6589778
550.132952
557.9605616
543.3535059
562.2395174
555.4487827
550.3341391
548.2963988
551.3976175
565.1217901
565.7010795
565.0707528
567.7036115
563.080558
570.2324926
568.8003121
566.0483897
570.2482598
547.7441967
561.8652624
562.3332974
551.5219894
543.8237093
535.0810819
543.5822657
530.5244322
527.7286653
520.5624647
501.3119143
467.6713164
548.2797276
539.8739608
556.7753393
538.3806832
554.5780408
558.6682305
557.7454186
555.5739181
562.516629
572.0111239
568.317122
563.7366882
559.1141325
578.409861
583.8413891
568.5077325
576.6084463
581.531302
568.2281382
565.0853419
556.7206644
551.7017983
548.0258259
552.5506634
538.0929541
531.4766724
537.4294309
516.2031487
497.5995478
454.0300463
543.494101
540.6505143
551.5863324
541.4680085
559.7085011
564.8581818
555.833708
574.2753406
564.0536056
565.1245694
557.1513374
560.0605053
564.0198214
571.022256
568.5898365
563.7424896
577.1022596
575.2656776
564.4702027
554.8103685
570.1491429
568.1080201
554.0452432
539.8161481
533.8597776
518.0143064
513.777838
513.2637815
475.2967911
451.333365
537.8372203
537.6151302
559.2759824
551.1842548
552.4898416
563.475032
559.0808264
571.1518636
572.9353031
556.4111534
565.5249619
567.9000583
571.0386992
577.4574656
581.9847315
587.5588141
578.2094935
584.6756801
568.8225275
560.9042479
548.474138
559.366675
548.6084773
541.0420846
521.0140748
531.218865
525.081896
508.857129
480.0107339
445.5740072
519.4656787
540.3698694
543.5979219
536.3598922
546.0639527
550.1389874
544.8814673
553.7327423
566.1516155
554.4054487
571.1988639
574.6111062
570.8317522
575.1600141
574.3327167
575.7792215
571.0784927
585.7683112
569.1320433
556.3808238
547.1100937
546.2078263
534.8678465
536.0110388
522.9100001
519.5323086
507.0497621
492.3347436
471.2305312
444.17186
504.7355612
514.4588623
518.4026731
535.9826614
535.6161736
537.0234999
536.1853019
549.5138664
552.6105778
560.2353249
561.3605417
552.479027
556.9162217
561.9589668
558.8607987
565.4911578
569.4844358
574.1684227
564.9863257
553.782175
547.0736071
526.3612009
534.1586866
541.9637801
520.9002679
511.3573836
495.4491143
483.2621854
465.382228
445.5422015
503.7546819
519.1665419
516.1798836
519.8710139
528.6912633
528.7728503
541.0755461
543.3568814
541.6261422
548.1694191
557.9423402
553.4537865
557.7972428
543.3944771
554.4338496
562.4376531
553.9801448
562.7149532
574.6300551
538.8184595
550.9706448
540.8831461
541.0048171
522.4431109
522.2149259
509.2429656
505.7987641
487.4275318
472.1431441
446.3561458
502.1923301
511.4635242
510.3149549
512.0577866
521.9353656
515.7924809
522.8436444
535.0107206
539.1217879
555.9285098
548.9179249
546.8127241
546.3616186
539.6822983
551.86541
552.996176
544.6506893
555.7470994
562.1181853
532.7019912
539.0237753
547.8108825
538.4654547
519.6480471
503.1415448
501.3902751
498.4987729
480.6906582
464.7493555
453.8976712
493.4490182
501.6213468
511.2972085
503.3356259
505.1878313
510.8265412
535.6012552
526.67687
527.3760826
534.5931067
549.9950128
532.3239726
553.5996162
537.8916627
538.806022
536.8122934
549.051879
553.7024601
551.7803353
539.8230505
523.7096504
510.0016335
526.0354862
525.0889262
520.155726
498.2308277
487.9204422
475.1817812
462.8634805
435.6948115
502.1727287
496.8197298
504.9259611
503.8726881
516.1286181
514.8079821
524.0640525
524.0899931
514.3003242
526.234336
526.6460278
534.384059
537.1687002
535.8521762
538.4663688
534.5272946
532.665248
542.5611391
537.6167049
518.7014173
523.4836805
514.2196098
525.8524844
518.7805739
515.5272529
501.4991027
481.8064766
475.2093414
455.4447672
440.6204983
480.9484244
491.4390228
496.5900083
495.7576981
504.2347494
522.0430911
530.0964158
521.6357248
518.6893048
526.8066306
530.3035551
527.7128571
533.9878339
529.975608
530.9777938
532.7386453
528.4233113
539.9681662
530.126253
529.6474232
515.5160858
522.5572457
505.9086836
508.4540267
499.9847747
498.6326593
485.7779536
467.3080199
465.6341503
439.6421752
469.4790394
481.5794566
490.6718661
488.7495844
493.797352
502.623324
520.2865671
504.0007194
508.8963175
527.7532251
511.3686385
504.2215898
517.137134
514.5322769
508.4417561
518.6198556
525.4138032
524.5495743
517.1517437
506.6472399
509.433546
496.5410471
493.7767002
495.4096836
491.3837882
490.0815219
475.7284639
459.8875801
462.4624459
446.6662161
468.5360373
475.7738899
482.5096293
491.0554414
495.1542622
495.6757922
501.1745954
499.0831312
497.4556722
500.2259179
502.3207123
506.3756874
504.4744824
518.1901104
515.111695
502.082104
501.7593315
507.298891
504.500737
497.2800851
510.2381114
504.7266947
493.8751988
489.5708431
476.8914518
475.2259273
466.5168059
465.3733228
449.6302697
433.3502993
463.94279
474.4595247
484.8240977
477.1040923
483.9727842
481.1938723
493.9999415
495.387514
489.1520512
502.8160388
505.6673319
505.8585202
502.6819541
498.4554829
493.4880851
494.4966536
519.084422
511.1020611
497.7946265
505.2737441
507.363126
496.1024462
486.3300581
480.3090554
479.2325238
476.6948169
451.0643469
451.319449
441.2682807
428.4316744
479.7398664
476.4595035
483.8444462
477.2948712
478.2449997
478.2159076
481.2044907
491.1890223
490.8878052
483.3087732
490.0624412
499.4799026
485.9830251
491.6250837
493.5800298
499.9109788
499.0841393
487.9371974
484.2015989
472.5342669
490.1009438
485.5711846
486.8423244
472.6312487
470.081702
456.0934848
448.5988225
445.4655752
436.503498
417.7923968
464.1144265
479.3254369
477.3470433
466.4829213
470.407029
470.5401208
482.2373165
490.7004593
483.4950348
479.3833794
475.02004
482.3204187
494.7706278
488.3419138
486.2935376
490.5163524
478.0833094
486.7882841
473.2942121
481.6047043
483.6268948
483.8392191
468.0894115
452.5038726
461.3571088
464.8633569
453.3089262
441.3587417
432.2102447
463.2763934
461.9534507
475.2139047
463.5496015
465.0331458
472.3721151
477.3859608
483.4847857
480.4518846
475.2124812
473.6318124
479.0171467
483.6638328
475.6899722
474.6470036
480.8773869
475.625317
482.9462333
477.1113801
479.1903648
474.7343601
472.4700059
462.4125032
457.4162456
456.8774369
463.8411627
466.7273541
466.2967566
464.660906
466.7116792
474.3411466
464.7317121
465.2779249
469.4185361
470.0609561
469.5543689
470.5300645
468.1549965
477.1916932
466.8792676
462.2094109
461.7470764
456.8459392
454.4688473
448.6541881
450.5110387
453.6663409
459.932564
458.7254315
447.8110953
462.0691063
461.754072
457.5121325
464.8281658
468.13754
474.7928654
463.0794576
444.5224972
446.6916222
442.451547
453.5763547
460.4327915
455.2581445
446.3895597
461.0418379
440.2124951
435.8986982
)
;

boundaryField
{
    flow
    {
        type            calculated;
        value           nonuniform List<scalar> 
15
(
467.6713164
454.0300463
451.333365
445.5740072
444.17186
445.5422015
446.3561458
453.8976712
435.6948115
440.6204983
439.6421752
446.6662161
433.3502993
428.4316744
417.7923968
)
;
    }
    obstacle
    {
        type            calculated;
        value           nonuniform List<scalar> 
30
(
543.719455
529.6131496
532.3602955
539.0428841
555.9188873
537.0939829
563.431794
555.4188866
550.768198
528.8870948
554.7410371
550.0595159
557.4533523
538.3182705
544.7965012
548.8499387
546.3713412
546.5556868
555.9779552
569.7388998
551.076095
551.4615111
561.1686812
551.5501332
521.0712406
507.4381005
513.0104846
523.9732208
498.7988261
481.843889
)
;
    }
    frontAndBack
    {
        type            empty;
    }
    procBoundary1to0
    {
        type            processor;
        value           nonuniform List<scalar> 
21
(
526.8912091
546.5975078
543.3596037
539.6814806
516.9094295
503.0174166
516.3904932
495.4249415
495.1754383
493.6639142
481.3190116
475.7243682
475.5281505
468.9261669
477.5251402
468.0914756
457.7572458
448.5300116
448.3541666
447.3967385
429.3849378
)
;
    }
    procBoundary1to3
    {
        type            processor;
        value           nonuniform List<scalar> 
36
(
421.1834255
456.9883477
449.7100433
442.7377889
428.9849635
421.1834255
423.0396153
459.2833044
459.5310189
468.67995
457.7761555
456.9883477
459.2718243
463.567729
464.6162609
462.7764843
447.2589693
459.2833044
457.7231165
467.1535093
459.7338257
462.7886889
459.019133
465.3035337
463.567729
455.8954418
439.7803757
446.7942897
447.2194121
449.159211
452.8166363
467.1535093
445.3372522
442.3593677
439.7803757
441.6949731
)
;
    }
}


// ************************************************************************* //
