/*--------------------------------*- C++ -*----------------------------------*\
  =========                 |
  \\      /  F ield         | OpenFOAM: The Open Source CFD Toolbox
   \\    /   O peration     | Website:  https://openfoam.org
    \\  /    A nd           | Version:  7
     \\/     M anipulation  |
\*---------------------------------------------------------------------------*/
FoamFile
{
    version     2.0;
    format      ascii;
    class       volScalarField;
    location    "0.008";
    object      rhoMMean;
}
// * * * * * * * * * * * * * * * * * * * * * * * * * * * * * * * * * * * * * //

dimensions      [1 -3 0 0 0 0 0];

internalField   nonuniform List<scalar> 
546
(
1.481686683e-05
1.475081171e-05
1.495455243e-05
1.470089207e-05
1.46148823e-05
1.465588421e-05
1.480631211e-05
1.450447788e-05
1.433488026e-05
1.432013857e-05
1.410975611e-05
1.410116429e-05
1.423709055e-05
1.400904336e-05
1.408126666e-05
1.435250518e-05
1.397225076e-05
1.385371788e-05
1.376308931e-05
1.368797978e-05
1.380101557e-05
1.373670831e-05
1.34918147e-05
1.33205037e-05
1.318347262e-05
1.29156874e-05
1.234341383e-05
1.167183176e-05
1.060371614e-05
8.769494292e-06
1.31948942e-05
1.312401721e-05
1.333432132e-05
1.336833111e-05
1.332214274e-05
1.321148529e-05
1.312637628e-05
1.307216246e-05
1.289782145e-05
1.296991208e-05
1.305806728e-05
1.287899792e-05
1.30664258e-05
1.288008186e-05
1.300731177e-05
1.287096686e-05
1.258322225e-05
1.271996039e-05
1.258057906e-05
1.275445934e-05
1.260474705e-05
1.259209914e-05
1.259041394e-05
1.238148845e-05
1.208082073e-05
1.185703514e-05
1.153288295e-05
1.074371307e-05
9.705247003e-06
8.317727564e-06
1.232998482e-05
1.250188482e-05
1.261552936e-05
1.250852502e-05
1.260956284e-05
1.26737968e-05
1.260333882e-05
1.231113532e-05
1.241415821e-05
1.237455095e-05
1.245929236e-05
1.226894743e-05
1.24547657e-05
1.230449983e-05
1.24118167e-05
1.215692479e-05
1.209283265e-05
1.203108357e-05
1.201007004e-05
1.202833202e-05
1.198129292e-05
1.180176553e-05
1.178723877e-05
1.156652642e-05
1.165833563e-05
1.140868566e-05
1.07887778e-05
1.029673495e-05
9.584539857e-06
8.408811764e-06
1.159034732e-05
1.177500938e-05
1.194153079e-05
1.205538647e-05
1.214046713e-05
1.216771893e-05
1.220674768e-05
1.213782926e-05
1.220108701e-05
1.201519264e-05
1.200483784e-05
1.203987089e-05
1.200289056e-05
1.195919388e-05
1.201229369e-05
1.187162415e-05
1.197806721e-05
1.187773215e-05
1.183768518e-05
1.163385962e-05
1.150906151e-05
1.161563714e-05
1.158472042e-05
1.13520106e-05
1.123416428e-05
1.098002147e-05
1.05796358e-05
1.026001149e-05
9.511402084e-06
8.489893186e-06
1.085760935e-05
1.123347314e-05
1.147228197e-05
1.174907345e-05
1.183558074e-05
1.195358844e-05
1.206289754e-05
1.203860488e-05
1.188347922e-05
1.193461126e-05
1.198701618e-05
1.195514978e-05
1.187361923e-05
1.186011681e-05
1.193207263e-05
1.181663244e-05
1.164722065e-05
1.170445011e-05
1.168451206e-05
1.158819911e-05
1.151011214e-05
1.148808754e-05
1.135574187e-05
1.100818245e-05
1.077793648e-05
1.066696175e-05
1.048661016e-05
1.003804075e-05
9.506781752e-06
8.72317324e-06
9.970933224e-06
1.04727728e-05
1.089095571e-05
1.111483713e-05
1.145636315e-05
1.158246721e-05
1.186344974e-05
1.200679616e-05
1.194281788e-05
1.206330975e-05
1.209808699e-05
1.201169861e-05
1.20688729e-05
1.192610684e-05
1.199589888e-05
1.191036406e-05
1.182766014e-05
1.149690539e-05
1.150301606e-05
1.158072577e-05
1.14886333e-05
1.13765703e-05
1.116063417e-05
1.116827556e-05
1.097585191e-05
1.071719609e-05
1.037500734e-05
1.01778082e-05
9.652871758e-06
9.109952774e-06
9.039903389e-06
9.549732862e-06
1.00085556e-05
1.046985412e-05
1.084801935e-05
1.108590169e-05
1.131207329e-05
1.153967617e-05
1.190039385e-05
1.185435097e-05
1.189359793e-05
1.174208763e-05
1.17331236e-05
1.174240931e-05
1.176266723e-05
1.177498928e-05
1.169517739e-05
1.166136921e-05
1.152695693e-05
1.146021833e-05
1.153167626e-05
1.146587329e-05
1.124956497e-05
1.104182595e-05
1.096051939e-05
1.078245559e-05
1.052759438e-05
1.02921442e-05
9.920007192e-06
9.2985162e-06
8.281167732e-06
8.792278944e-06
9.241550854e-06
9.70813059e-06
1.01763913e-05
1.051001841e-05
1.08353737e-05
1.106499536e-05
1.128609234e-05
1.144821372e-05
1.160146705e-05
1.172373125e-05
1.177157726e-05
1.181628303e-05
1.165909388e-05
1.177278601e-05
1.183471172e-05
1.184436256e-05
1.172677605e-05
1.159716458e-05
1.154344243e-05
1.159049546e-05
1.13832642e-05
1.12284144e-05
1.105199466e-05
1.085537007e-05
1.069109021e-05
1.03319239e-05
9.932882484e-06
9.589517415e-06
7.393113814e-06
7.892190049e-06
8.399561297e-06
8.852443926e-06
9.289772762e-06
9.828431473e-06
1.0222987e-05
1.052425304e-05
1.087864085e-05
1.121379814e-05
1.141049055e-05
1.162033973e-05
1.174772518e-05
1.178948893e-05
1.180185534e-05
1.17306331e-05
1.171053541e-05
1.184507304e-05
1.195912984e-05
1.188061486e-05
1.177970788e-05
1.175221063e-05
1.153082637e-05
1.132137385e-05
1.123699674e-05
1.10692848e-05
1.074053449e-05
1.051907883e-05
1.024260351e-05
9.84493459e-06
6.798118436e-06
7.229177888e-06
7.675435565e-06
8.041313417e-06
8.433378452e-06
8.962409126e-06
9.396119398e-06
9.936187442e-06
1.029711168e-05
1.054963509e-05
1.090674902e-05
1.119246389e-05
1.132647172e-05
1.157831273e-05
1.17549885e-05
1.179500776e-05
1.180609682e-05
1.178576586e-05
1.178768757e-05
1.189246043e-05
1.16953713e-05
1.161420859e-05
1.162805243e-05
1.151182551e-05
1.141885845e-05
1.129075788e-05
1.101999592e-05
1.084072296e-05
1.056131991e-05
1.012625522e-05
6.341977364e-06
6.585786139e-06
7.003059385e-06
7.404857032e-06
7.753110972e-06
8.282249891e-06
8.741747518e-06
9.157735193e-06
9.588718556e-06
9.983630127e-06
1.02722316e-05
1.066068569e-05
1.097075118e-05
1.12939489e-05
1.157947127e-05
1.171900603e-05
1.175792837e-05
1.161397092e-05
1.170135236e-05
1.170584102e-05
1.174022775e-05
1.183966488e-05
1.181976721e-05
1.169556791e-05
1.163945667e-05
1.148624288e-05
1.122990285e-05
1.100526994e-05
1.077366298e-05
1.046259882e-05
5.90747039e-06
6.220215805e-06
6.467224899e-06
6.817231336e-06
7.221128457e-06
7.580733472e-06
7.926289773e-06
8.36179575e-06
8.766291137e-06
9.266741609e-06
9.680918816e-06
1.007616362e-05
1.039687828e-05
1.076258208e-05
1.110231065e-05
1.138946163e-05
1.153947937e-05
1.164180937e-05
1.170785389e-05
1.185500786e-05
1.186264746e-05
1.17739447e-05
1.176765929e-05
1.167166815e-05
1.154910067e-05
1.155503197e-05
1.142321528e-05
1.121379011e-05
1.111853934e-05
1.086443877e-05
5.65825864e-06
5.820950109e-06
6.030627601e-06
6.301546867e-06
6.556759785e-06
6.897491377e-06
7.27700659e-06
7.628232233e-06
8.146874179e-06
8.573360407e-06
9.059442731e-06
9.456166577e-06
9.883601617e-06
1.028190588e-05
1.053266583e-05
1.088804912e-05
1.128632803e-05
1.156814353e-05
1.168543324e-05
1.180773594e-05
1.183412053e-05
1.198345682e-05
1.193150951e-05
1.179399325e-05
1.170174398e-05
1.164076201e-05
1.158433451e-05
1.147154703e-05
1.123912878e-05
1.09794905e-05
5.332401614e-06
5.511740111e-06
5.71764652e-06
5.916053007e-06
6.096384632e-06
6.363190056e-06
6.712702564e-06
7.1172463e-06
7.433966014e-06
7.913237994e-06
8.354478485e-06
8.808878984e-06
9.248951366e-06
9.665198222e-06
1.008372061e-05
1.041451607e-05
1.071213902e-05
1.102306417e-05
1.121929176e-05
1.14893986e-05
1.177520388e-05
1.164876058e-05
1.176386865e-05
1.188069918e-05
1.174871715e-05
1.168783752e-05
1.167812249e-05
1.164487023e-05
1.157353309e-05
1.132678375e-05
5.297813791e-06
5.351763245e-06
5.457075044e-06
5.644346595e-06
5.802740419e-06
6.041393054e-06
6.2484999e-06
6.545377708e-06
6.833996772e-06
7.152675199e-06
7.529113354e-06
7.952783966e-06
8.34914604e-06
8.80679187e-06
9.247872682e-06
9.670457201e-06
1.006957103e-05
1.038453305e-05
1.07767825e-05
1.115465822e-05
1.13240912e-05
1.166714766e-05
1.172573507e-05
1.174108975e-05
1.188716275e-05
1.183307746e-05
1.183961241e-05
1.169184132e-05
1.154167398e-05
1.132188545e-05
5.106333669e-06
5.161980113e-06
5.260274345e-06
5.381594791e-06
5.523300681e-06
5.682495996e-06
5.888153036e-06
6.09166698e-06
6.405998333e-06
6.648656834e-06
6.968714234e-06
7.356407051e-06
7.8001365e-06
8.154260399e-06
8.592341782e-06
9.062299769e-06
9.511375108e-06
9.931114372e-06
1.026402005e-05
1.066924086e-05
1.098156302e-05
1.120365129e-05
1.150511794e-05
1.176549422e-05
1.176296328e-05
1.177892819e-05
1.177208508e-05
1.169597647e-05
1.161906165e-05
5.006082898e-06
5.063259496e-06
5.125940563e-06
5.254058616e-06
5.393098903e-06
5.512329821e-06
5.640883241e-06
5.818422242e-06
6.001635886e-06
6.278640026e-06
6.53368969e-06
6.807118775e-06
7.155301873e-06
7.530435738e-06
7.976724772e-06
8.361195096e-06
8.713009451e-06
9.174853712e-06
9.649439012e-06
1.000242465e-05
1.051595494e-05
1.085332284e-05
1.11759936e-05
1.14785795e-05
4.922073074e-06
5.01109301e-06
5.070761237e-06
5.123858408e-06
5.173458434e-06
5.251635847e-06
5.375212132e-06
5.498232037e-06
5.65860162e-06
5.858333719e-06
6.063525508e-06
6.345965816e-06
6.580536516e-06
6.916995989e-06
7.292517963e-06
7.682034045e-06
8.20672309e-06
8.566359407e-06
9.069302019e-06
4.953671057e-06
4.98248972e-06
4.997351479e-06
5.042956627e-06
5.086699061e-06
5.176078374e-06
5.255996119e-06
5.360447501e-06
5.433157507e-06
5.630359921e-06
5.801089194e-06
6.01800643e-06
6.267088073e-06
6.567313971e-06
4.838874164e-06
4.886655332e-06
4.886617842e-06
4.940270139e-06
5.008797844e-06
5.068639957e-06
5.133509548e-06
5.277642764e-06
4.873069523e-06
4.886766253e-06
)
;

boundaryField
{
    flow
    {
        type            calculated;
        value           nonuniform List<scalar> 
15
(
8.769494292e-06
8.317727564e-06
8.408811764e-06
8.489893186e-06
8.72317324e-06
9.109952774e-06
9.2985162e-06
9.589517415e-06
9.84493459e-06
1.012625522e-05
1.046259882e-05
1.086443877e-05
1.09794905e-05
1.132678375e-05
1.132188545e-05
)
;
    }
    obstacle
    {
        type            calculated;
        value           nonuniform List<scalar> 
30
(
6.593996084e-24
6.362574065e-24
6.80696565e-24
6.672281718e-24
6.235936786e-24
6.54513534e-24
6.353275466e-24
6.37900828e-24
6.238496891e-24
6.135750012e-24
6.124496062e-24
6.146497379e-24
6.211952371e-24
6.313783293e-24
6.132952216e-24
6.262554912e-24
5.90351939e-24
6.089333575e-24
5.994717985e-24
5.924116027e-24
6.011795206e-24
6.009809821e-24
5.867669881e-24
5.754394082e-24
5.575961506e-24
5.431191703e-24
5.480184853e-24
5.054563639e-24
4.617691608e-24
3.83027664e-24
)
;
    }
    frontAndBack
    {
        type            empty;
    }
    procBoundary1to0
    {
        type            processor;
        value           nonuniform List<scalar> 
21
(
1.510827061e-05
1.338322518e-05
1.23940662e-05
1.128997456e-05
1.045963371e-05
9.600041286e-06
8.534856487e-06
7.786733415e-06
6.945876797e-06
6.454014747e-06
6.03583018e-06
5.647999217e-06
5.498091729e-06
5.243563884e-06
5.151651051e-06
5.049611653e-06
4.976832624e-06
4.883512025e-06
4.921004167e-06
4.85547465e-06
4.806631185e-06
)
;
    }
    procBoundary1to3
    {
        type            processor;
        value           nonuniform List<scalar> 
36
(
1.170796543e-05
1.165788135e-05
1.186444845e-05
1.185900499e-05
1.187242113e-05
1.170796543e-05
1.185540602e-05
9.486286345e-06
9.835077325e-06
1.025231398e-05
1.062335524e-05
1.165788135e-05
1.099276982e-05
6.869257633e-06
7.185011408e-06
7.594409457e-06
8.032530021e-06
9.486286345e-06
8.423217935e-06
5.400554362e-06
5.471152997e-06
5.563229962e-06
5.692835136e-06
5.863293777e-06
6.869257633e-06
6.062832893e-06
4.955175465e-06
4.994247215e-06
5.005927878e-06
5.063762421e-06
5.10938888e-06
5.400554362e-06
5.130370011e-06
4.867374081e-06
4.955175465e-06
4.886401821e-06
)
;
    }
}


// ************************************************************************* //
