/*--------------------------------*- C++ -*----------------------------------*\
  =========                 |
  \\      /  F ield         | OpenFOAM: The Open Source CFD Toolbox
   \\    /   O peration     | Website:  https://openfoam.org
    \\  /    A nd           | Version:  7
     \\/     M anipulation  |
\*---------------------------------------------------------------------------*/
FoamFile
{
    version     2.0;
    format      ascii;
    class       volScalarField;
    location    "0.008";
    object      rhoM;
}
// * * * * * * * * * * * * * * * * * * * * * * * * * * * * * * * * * * * * * //

dimensions      [1 -3 0 0 0 0 0];

internalField   nonuniform List<scalar> 
546
(
9.089768458e-06
1.726108443e-05
1.406449591e-05
1.50069207e-05
1.535158553e-05
1.407533956e-05
9.585581604e-06
1.437110719e-05
1.313820351e-05
1.411773271e-05
1.398900771e-05
1.66121609e-05
1.633857875e-05
1.60585799e-05
1.851467143e-05
1.582047907e-05
1.358830701e-05
1.123392893e-05
1.424755737e-05
1.739669723e-05
1.571466375e-05
1.461784457e-05
1.421225417e-05
1.478627125e-05
1.220585665e-05
1.204044886e-05
1.196600182e-05
1.281820659e-05
7.592773501e-06
8.799619177e-06
1.184622202e-05
6.905518549e-06
1.368586969e-05
1.31032716e-05
1.519673845e-05
1.453968932e-05
1.6678147e-05
1.280187962e-05
1.242636215e-05
1.100759947e-05
1.109466347e-05
1.564098916e-05
1.225393405e-05
1.012919705e-05
1.610699666e-05
2.042519703e-05
1.434743456e-05
9.361607435e-06
1.390332107e-05
1.610055247e-05
1.492735333e-05
1.118438785e-05
1.46570558e-05
1.747429173e-05
9.041213976e-06
1.386535859e-05
1.14133496e-05
1.086736674e-05
1.134357369e-05
6.15007541e-06
1.184622201e-05
1.133344841e-05
1.187174233e-05
8.303433385e-06
8.366133399e-06
1.245104696e-05
1.137767165e-05
1.594222654e-05
1.210892906e-05
1.116852228e-05
1.414926664e-05
1.458709702e-05
1.110818704e-05
1.531790297e-05
1.253685823e-05
1.071518802e-05
9.199751723e-06
8.00029184e-06
4.806903085e-06
1.229213351e-05
5.674681267e-06
1.100673582e-05
1.652265489e-05
1.173884069e-05
1.491778528e-05
1.368352681e-05
9.480175391e-06
8.916526862e-06
1.153043625e-05
9.176823051e-06
1.400683112e-05
9.306494751e-06
1.202246425e-05
1.074223291e-05
1.051550328e-05
1.167837272e-05
1.254650767e-05
1.138730467e-05
1.432524127e-05
9.81124659e-06
8.040060294e-06
7.617597768e-06
7.188344951e-06
1.358833434e-05
1.386481674e-05
1.322611912e-05
1.375655021e-05
1.744672523e-05
1.287474719e-05
9.954485715e-06
1.257173101e-05
1.523432361e-05
1.829758183e-05
1.209825077e-05
8.498392687e-06
1.07632318e-05
7.916175113e-06
6.130252074e-06
1.396642405e-05
7.380546307e-06
1.251632267e-05
1.36596201e-05
1.194710328e-05
1.081815865e-05
1.450639782e-05
1.144712935e-05
1.55869831e-05
1.303669622e-05
1.329596681e-05
8.455892364e-06
1.165750643e-05
1.231777615e-05
1.454149251e-05
1.284765742e-05
1.261960565e-05
1.088204572e-05
1.215417351e-05
1.65115896e-05
1.107215854e-05
1.531994647e-05
8.643590807e-06
1.408913093e-05
1.216959035e-05
7.168774151e-06
1.066750005e-05
1.313583414e-05
1.334652373e-05
9.659384341e-06
1.237357595e-05
8.231534224e-06
1.020720114e-05
1.260874104e-05
1.32318825e-05
9.370064106e-06
1.197453255e-05
1.616398192e-05
1.145534376e-05
1.358649341e-05
1.590859378e-05
1.044917336e-05
1.037156157e-05
9.642661637e-06
1.813369717e-05
1.317596548e-05
7.223024281e-06
9.040561813e-06
1.401094816e-05
9.276781482e-06
9.098485485e-06
1.861074158e-05
1.134936255e-05
1.488114081e-05
8.971726222e-06
1.344226102e-05
9.221428402e-06
1.112909269e-05
1.150508881e-05
1.337590908e-05
1.181073006e-05
1.031299293e-05
9.164024674e-06
1.125864389e-05
7.258330842e-06
1.32551231e-05
1.450639782e-05
1.299247784e-05
1.597534358e-05
1.060269089e-05
1.907339231e-05
1.690986328e-05
1.672115636e-05
1.053501719e-05
1.029204523e-05
9.963059279e-06
8.883972377e-06
1.397899516e-05
1.401094816e-05
1.089462511e-05
1.270159536e-05
8.136546943e-06
1.07381784e-05
1.118226669e-05
1.101439002e-05
1.218756373e-05
1.392225012e-05
1.02177366e-05
6.443914019e-06
1.049705678e-05
1.068729663e-05
9.462005232e-06
4.768550233e-06
1.148305743e-05
8.241666202e-06
9.370064106e-06
1.343171288e-05
1.376701506e-05
7.793491548e-06
1.185882965e-05
1.622412039e-05
9.731745926e-06
1.149724748e-05
1.069655377e-05
1.184487925e-05
1.062364291e-05
1.1457142e-05
1.540333486e-05
1.384270494e-05
1.668124139e-05
6.265255426e-06
1.073300657e-05
1.056415503e-05
1.144768392e-05
1.403518934e-05
1.030551757e-05
8.318178153e-06
1.386535845e-05
9.113218627e-06
1.179761659e-05
1.021788197e-05
1.0124391e-05
8.716692672e-06
1.080800887e-05
1.096376793e-05
3.809133258e-06
1.120584392e-05
5.568470929e-06
1.465116338e-05
1.185882965e-05
1.432524127e-05
9.093819142e-06
1.149724746e-05
9.319588442e-06
1.102873744e-05
1.482345714e-05
1.577400709e-05
1.389556623e-05
1.806098386e-05
1.378895843e-05
1.098661633e-05
1.454142551e-05
9.602821469e-06
1.576303731e-05
1.216959038e-05
9.140133061e-06
1.093999952e-05
8.117881789e-06
1.261039329e-05
6.687954539e-06
1.284299047e-05
5.961473493e-06
5.885982897e-06
4.278320839e-06
3.326810864e-06
1.325512311e-05
8.366133393e-06
1.09827796e-05
1.129999955e-05
8.638318769e-06
1.100077293e-05
1.100759944e-05
9.648459723e-06
1.450632871e-05
1.462290984e-05
9.552674174e-06
1.170738412e-05
9.123990677e-06
1.156328922e-05
1.09794511e-05
1.064238005e-05
7.35802601e-06
1.204755839e-05
1.408913091e-05
1.12821269e-05
1.308285091e-05
1.455517853e-05
1.030865239e-05
1.380743681e-05
7.523389476e-06
1.284299047e-05
1.523259739e-05
7.972335793e-06
8.031202119e-06
7.561596081e-06
8.303433367e-06
5.449923797e-06
1.175545387e-05
5.688835856e-06
7.303907819e-06
1.282267693e-05
8.773895007e-06
8.280448659e-06
7.536829465e-06
1.053826526e-05
7.823105532e-06
1.320083755e-05
1.314269029e-05
1.468595397e-05
1.106427696e-05
1.055683785e-05
1.263721604e-05
1.117533935e-05
1.109450129e-05
1.172478876e-05
1.19174664e-05
1.16630353e-05
9.21326709e-06
9.204957952e-06
1.189019419e-05
8.249050678e-06
8.325835267e-06
5.438650908e-06
7.204736624e-06
5.973551675e-06
5.409079341e-06
4.912581322e-06
1.051842982e-05
6.001401447e-06
8.088521487e-06
6.806699915e-06
8.614893745e-06
9.326005236e-06
1.110234748e-05
8.822596417e-06
9.965043013e-06
9.630699019e-06
1.799769481e-05
9.790636141e-06
9.191955559e-06
1.047129565e-05
1.68790733e-05
1.396812256e-05
8.18975803e-06
1.056958823e-05
1.16495278e-05
1.112021421e-05
1.404938782e-05
1.104417573e-05
1.133249172e-05
1.546809896e-05
9.650606991e-06
4.768550219e-06
3.678076765e-06
5.065577248e-06
3.275817907e-06
7.061951208e-06
1.005408015e-05
7.403253845e-06
6.204313447e-06
4.511506095e-06
6.780614014e-06
1.037156152e-05
9.967686872e-06
1.119157219e-05
8.07132033e-06
1.129164711e-05
1.732824746e-05
1.147916752e-05
1.09794511e-05
1.364669447e-05
7.964005623e-06
1.414424901e-05
1.206416314e-05
1.003839417e-05
7.88543569e-06
1.392224987e-05
1.28630864e-05
6.719131448e-06
1.281820661e-05
1.012445069e-05
1.220584978e-05
6.407571103e-06
6.079053003e-06
4.914855322e-06
1.67587182e-06
8.903475858e-06
9.048299472e-06
6.70232759e-06
7.853704945e-06
3.957428039e-06
1.116660078e-05
6.75411541e-06
9.238820126e-06
7.025510117e-06
7.082428554e-06
1.42805537e-05
1.088204573e-05
1.080416157e-05
1.51502739e-05
8.067844107e-06
1.220586282e-05
1.283276572e-05
1.268064206e-05
9.505060182e-06
1.362088673e-05
1.193335703e-05
5.838392668e-06
1.666021988e-05
1.328333147e-05
1.331240503e-05
1.230015085e-05
6.333314932e-06
3.302246296e-06
4.914855358e-06
6.551635815e-06
6.140264468e-06
6.109901815e-06
8.884655456e-06
7.697160602e-06
1.036781325e-05
1.084859813e-05
7.717605768e-06
9.967687028e-06
8.822596417e-06
7.658951491e-06
9.049467256e-06
7.199077922e-06
6.836214293e-06
1.149045699e-05
8.754249265e-06
7.271755364e-06
1.213456999e-05
1.144768411e-05
1.403518946e-05
1.353157386e-05
1.103010686e-05
5.747476837e-06
1.067721908e-05
8.638794406e-06
9.374742374e-06
1.078677703e-05
4.842806435e-06
6.454883476e-06
7.712318023e-06
7.312728443e-06
4.989080401e-06
4.408528081e-06
6.234417831e-06
5.654516261e-06
7.360778079e-06
7.019116059e-06
4.582873076e-06
7.292572398e-06
7.515982324e-06
7.823105532e-06
2.98890659e-06
5.274165168e-06
1.164741082e-05
1.114910301e-05
6.866118337e-06
6.491149367e-06
1.7461205e-05
1.576303731e-05
1.359038785e-05
1.236618935e-05
7.685249622e-06
7.206525549e-06
1.527969792e-05
1.021708679e-05
9.46817357e-06
5.88598288e-06
6.079053003e-06
6.427538871e-06
6.094246213e-06
4.912581322e-06
4.485609174e-06
3.428835892e-06
4.005124643e-06
4.59038771e-06
5.105335716e-06
7.557346887e-06
1.345243668e-05
7.841651996e-06
7.164505631e-06
8.801224942e-06
9.543151253e-06
9.199751708e-06
9.787787406e-06
1.570590973e-05
6.059796086e-06
8.90462556e-06
6.956799994e-06
1.430078646e-05
9.229446007e-06
5.438650912e-06
4.353125356e-06
6.578260702e-06
3.199892128e-06
6.677606894e-06
5.49138982e-06
4.519999859e-06
3.926852502e-06
4.036309689e-06
4.546909564e-06
3.457187175e-06
8.26569629e-06
8.006454594e-06
5.51701401e-06
9.049467256e-06
3.013520633e-06
1.021327721e-05
1.046844512e-05
1.107215853e-05
4.84280647e-06
8.18081117e-06
3.326810881e-06
4.875763983e-06
5.142078558e-06
2.861316577e-06
5.143253838e-06
8.560046529e-06
5.223347451e-06
2.313205114e-06
6.754115462e-06
5.834838805e-06
5.881730899e-06
7.000351589e-06
7.450747548e-06
1.725927635e-06
2.722101738e-06
6.094246213e-06
3.224054853e-06
5.568470946e-06
4.442327728e-06
8.794863198e-06
4.246962027e-06
2.702002239e-06
)
;

boundaryField
{
    flow
    {
        type            zeroGradient;
    }
    obstacle
    {
        type            calculated;
        value           nonuniform List<scalar> 
30
(
1.792919501e-24
1.35401323e-23
7.437050743e-24
9.282013362e-24
9.11005652e-24
1.480976124e-23
2.225073859e-308
4.143497538e-24
2.658456269e-24
8.836791978e-24
3.501719913e-24
2.225073859e-308
5.564942752e-24
3.763794096e-24
9.940565582e-24
4.569154022e-24
2.728258191e-24
2.225073859e-308
1.893578673e-24
1.048506149e-23
9.1568211e-24
1.634720964e-24
2.328498636e-23
2.225073859e-308
6.620652669e-24
1.875151234e-24
8.434779283e-24
1.008733228e-23
2.987869515e-24
2.225073859e-308
)
;
    }
    frontAndBack
    {
        type            empty;
    }
    procBoundary1to0
    {
        type            processor;
        value           nonuniform List<scalar> 
21
(
1.612351583e-05
1.627272929e-05
1.138966334e-05
1.072443859e-05
1.383119633e-05
1.183374041e-05
1.17600245e-05
7.988042017e-06
6.360947254e-06
7.396533163e-06
3.180473627e-06
2.588964783e-06
6.805024308e-06
5.325361307e-06
4.142343636e-06
5.769438399e-06
7.470249063e-06
5.399077245e-06
3.771982508e-06
4.955000191e-06
6.213515453e-06
)
;
    }
    procBoundary1to3
    {
        type            processor;
        value           nonuniform List<scalar> 
36
(
9.839209012e-06
1.383214287e-05
1.660162461e-05
1.270213245e-05
1.01245093e-05
9.839209012e-06
1.078072782e-05
1.33294663e-05
1.370708787e-05
1.620186432e-05
9.505060182e-06
1.383214287e-05
1.218756362e-05
7.969750927e-06
5.860183473e-06
6.077086738e-06
5.447312573e-06
1.33294663e-05
9.184027677e-06
6.410385212e-06
5.663761789e-06
7.55734677e-06
4.780946667e-06
5.391258734e-06
7.969750927e-06
4.117737186e-06
4.839494394e-06
6.094246213e-06
3.837896379e-06
3.944178338e-06
5.065581817e-06
6.410385212e-06
7.303907819e-06
5.290138442e-06
4.839494394e-06
4.728955841e-06
)
;
    }
}


// ************************************************************************* //
