/*--------------------------------*- C++ -*----------------------------------*\
  =========                 |
  \\      /  F ield         | OpenFOAM: The Open Source CFD Toolbox
   \\    /   O peration     | Website:  https://openfoam.org
    \\  /    A nd           | Version:  7
     \\/     M anipulation  |
\*---------------------------------------------------------------------------*/
FoamFile
{
    version     2.0;
    format      ascii;
    class       volScalarField;
    location    "0.008";
    object      rhoNMean;
}
// * * * * * * * * * * * * * * * * * * * * * * * * * * * * * * * * * * * * * //

dimensions      [0 -3 0 0 0 0 0];

internalField   nonuniform List<scalar> 
546
(
3.08654038e+20
3.071533112e+20
3.114417031e+20
3.062835832e+20
3.043293979e+20
3.051137593e+20
3.082039389e+20
3.020396548e+20
2.988506377e+20
2.987609732e+20
2.940884694e+20
2.939716093e+20
2.963833288e+20
2.918476606e+20
2.934595797e+20
2.988473046e+20
2.908104064e+20
2.883185451e+20
2.863757739e+20
2.848201908e+20
2.875227486e+20
2.85903748e+20
2.807526017e+20
2.773083565e+20
2.7465015e+20
2.690258609e+20
2.57164135e+20
2.430718501e+20
2.206678908e+20
1.822629705e+20
2.749274706e+20
2.733613339e+20
2.777142569e+20
2.784795024e+20
2.77430496e+20
2.750352372e+20
2.733424253e+20
2.723653864e+20
2.686980674e+20
2.701461381e+20
2.722435055e+20
2.684753011e+20
2.720564973e+20
2.683001103e+20
2.709821568e+20
2.680277803e+20
2.619460234e+20
2.647575598e+20
2.620731313e+20
2.657676708e+20
2.625726314e+20
2.62212393e+20
2.621634785e+20
2.578976484e+20
2.515006187e+20
2.466917294e+20
2.401535881e+20
2.237941962e+20
2.022074504e+20
1.733100766e+20
2.567644224e+20
2.603750673e+20
2.626477561e+20
2.605417558e+20
2.62665134e+20
2.638980622e+20
2.624601184e+20
2.56305988e+20
2.584654971e+20
2.575965622e+20
2.593011434e+20
2.554297562e+20
2.591336369e+20
2.562675198e+20
2.584200496e+20
2.530654086e+20
2.51545188e+20
2.506754266e+20
2.502690832e+20
2.506149226e+20
2.495570356e+20
2.455807168e+20
2.457809775e+20
2.408445573e+20
2.426634391e+20
2.376138745e+20
2.247609482e+20
2.144490437e+20
1.996176256e+20
1.750123374e+20
2.415121732e+20
2.45414165e+20
2.48822093e+20
2.512030026e+20
2.528427445e+20
2.5352937e+20
2.54223591e+20
2.526879678e+20
2.540775562e+20
2.501718967e+20
2.497842561e+20
2.506501514e+20
2.500479713e+20
2.490361874e+20
2.500296868e+20
2.471012541e+20
2.49426264e+20
2.471837238e+20
2.464183918e+20
2.422582683e+20
2.396466509e+20
2.418785284e+20
2.413510154e+20
2.363249482e+20
2.338466765e+20
2.28690522e+20
2.20319498e+20
2.13767299e+20
1.979839897e+20
1.766718628e+20
2.262206647e+20
2.341454643e+20
2.390803792e+20
2.447372704e+20
2.466315278e+20
2.490785756e+20
2.513020877e+20
2.507636777e+20
2.47479261e+20
2.486347235e+20
2.495784855e+20
2.49039666e+20
2.472438676e+20
2.470493531e+20
2.486234807e+20
2.459827782e+20
2.42351536e+20
2.434485633e+20
2.431491811e+20
2.413036873e+20
2.395513583e+20
2.391076868e+20
2.364362651e+20
2.290935743e+20
2.244616398e+20
2.220709665e+20
2.182997111e+20
2.090370371e+20
1.980122167e+20
1.81700299e+20
2.0788095e+20
2.182834053e+20
2.268854502e+20
2.316280352e+20
2.386696148e+20
2.414024831e+20
2.471427586e+20
2.502079687e+20
2.48834667e+20
2.512857464e+20
2.521536431e+20
2.502444798e+20
2.514069776e+20
2.483325811e+20
2.498328178e+20
2.481945248e+20
2.464178367e+20
2.394923676e+20
2.39560156e+20
2.412352707e+20
2.393607744e+20
2.369798407e+20
2.325345566e+20
2.325810934e+20
2.286539387e+20
2.232280157e+20
2.159923761e+20
2.11921343e+20
2.011418816e+20
1.898305506e+20
1.883550421e+20
1.990624876e+20
2.086428602e+20
2.181431847e+20
2.260940674e+20
2.311094748e+20
2.359671282e+20
2.404771497e+20
2.479380138e+20
2.469924706e+20
2.47905087e+20
2.445254256e+20
2.445104812e+20
2.446843695e+20
2.449985938e+20
2.45254981e+20
2.435809564e+20
2.428527311e+20
2.402934679e+20
2.387527106e+20
2.402742664e+20
2.387729337e+20
2.343332875e+20
2.300379718e+20
2.284225498e+20
2.246769037e+20
2.193009448e+20
2.142532609e+20
2.066390864e+20
1.938618492e+20
1.726653318e+20
1.833868748e+20
1.92748186e+20
2.024935333e+20
2.122011644e+20
2.191223117e+20
2.258533294e+20
2.306990364e+20
2.351763453e+20
2.386190812e+20
2.41777361e+20
2.443881679e+20
2.453006726e+20
2.461225771e+20
2.428361622e+20
2.453022413e+20
2.465893834e+20
2.467128232e+20
2.442572227e+20
2.415317433e+20
2.405338518e+20
2.41487426e+20
2.3705813e+20
2.338931287e+20
2.302158434e+20
2.260983187e+20
2.227030503e+20
2.152321751e+20
2.069636948e+20
1.996844317e+20
1.543003788e+20
1.646631474e+20
1.750833255e+20
1.845586538e+20
1.935906259e+20
2.049286725e+20
2.132286804e+20
2.194547972e+20
2.268681532e+20
2.337253468e+20
2.37846538e+20
2.421920513e+20
2.448117996e+20
2.457630256e+20
2.459485645e+20
2.445177307e+20
2.441432492e+20
2.469114359e+20
2.490673572e+20
2.475133485e+20
2.454726167e+20
2.449609248e+20
2.402443613e+20
2.357515648e+20
2.340916799e+20
2.305788805e+20
2.23829007e+20
2.19196787e+20
2.133641609e+20
2.051544594e+20
1.417766529e+20
1.507474743e+20
1.601221253e+20
1.677334145e+20
1.758612131e+20
1.868838877e+20
1.95937252e+20
2.073060533e+20
2.148273815e+20
2.200949453e+20
2.274067105e+20
2.333221784e+20
2.361627366e+20
2.413244189e+20
2.452329609e+20
2.458788076e+20
2.461096889e+20
2.457646198e+20
2.458950596e+20
2.478130824e+20
2.437014968e+20
2.420011605e+20
2.422905023e+20
2.397483831e+20
2.379096702e+20
2.352791767e+20
2.295696316e+20
2.257485324e+20
2.199269321e+20
2.10884452e+20
1.322394402e+20
1.373176914e+20
1.460744769e+20
1.543919283e+20
1.617603066e+20
1.728212402e+20
1.824414329e+20
1.909421979e+20
1.999357896e+20
2.08169846e+20
2.143100186e+20
2.223446437e+20
2.287343228e+20
2.355033976e+20
2.41420582e+20
2.441963678e+20
2.450041594e+20
2.419141345e+20
2.438792616e+20
2.43939372e+20
2.445295528e+20
2.46581668e+20
2.462891698e+20
2.436777445e+20
2.425137128e+20
2.392138292e+20
2.339175433e+20
2.291607541e+20
2.242880015e+20
2.179285387e+20
1.232097951e+20
1.297157686e+20
1.348927099e+20
1.421830215e+20
1.50594561e+20
1.581211e+20
1.653435964e+20
1.7449853e+20
1.828815039e+20
1.933175143e+20
2.019305029e+20
2.102171993e+20
2.16761537e+20
2.243448902e+20
2.314802657e+20
2.375453746e+20
2.406265362e+20
2.426733416e+20
2.440149403e+20
2.470702666e+20
2.472141611e+20
2.453122474e+20
2.451423906e+20
2.432055465e+20
2.406761825e+20
2.407039179e+20
2.38043727e+20
2.337232022e+20
2.317222785e+20
2.2647545e+20
1.180556053e+20
1.21438682e+20
1.257486464e+20
1.314077574e+20
1.367709926e+20
1.438197579e+20
1.517333823e+20
1.591101232e+20
1.699470595e+20
1.788074408e+20
1.889609036e+20
1.97223504e+20
2.061969509e+20
2.145192046e+20
2.197712566e+20
2.270852602e+20
2.354483542e+20
2.413823726e+20
2.438275744e+20
2.462883595e+20
2.468855715e+20
2.497999537e+20
2.485927501e+20
2.456474844e+20
2.43925892e+20
2.4267124e+20
2.413557581e+20
2.389184496e+20
2.341603833e+20
2.288614639e+20
1.111964397e+20
1.149752115e+20
1.19228557e+20
1.233420785e+20
1.271854963e+20
1.327757315e+20
1.401030981e+20
1.484363714e+20
1.550614249e+20
1.650899735e+20
1.741545027e+20
1.83528276e+20
1.92702201e+20
2.014296539e+20
2.102090555e+20
2.171040462e+20
2.232494514e+20
2.297956837e+20
2.339327195e+20
2.395574227e+20
2.454660427e+20
2.429258791e+20
2.452426958e+20
2.474958021e+20
2.448004223e+20
2.435467538e+20
2.434101887e+20
2.426488168e+20
2.41107747e+20
2.359732118e+20
1.104813599e+20
1.116559034e+20
1.138610814e+20
1.177279317e+20
1.209540579e+20
1.258943208e+20
1.301799607e+20
1.363763052e+20
1.423950814e+20
1.490667468e+20
1.570543668e+20
1.65913589e+20
1.74125014e+20
1.835791433e+20
1.927814767e+20
2.01599765e+20
2.099418462e+20
2.165176049e+20
2.247130296e+20
2.326179807e+20
2.360781236e+20
2.432009766e+20
2.444235707e+20
2.447604269e+20
2.477302711e+20
2.465406626e+20
2.466009677e+20
2.435857815e+20
2.405290963e+20
2.35859253e+20
1.064712991e+20
1.075399588e+20
1.095323787e+20
1.120851112e+20
1.150490677e+20
1.183812398e+20
1.227354079e+20
1.270445325e+20
1.336043064e+20
1.386067663e+20
1.453254447e+20
1.533957198e+20
1.626011296e+20
1.699936606e+20
1.791694005e+20
1.889373577e+20
1.983306526e+20
2.070900075e+20
2.140137918e+20
2.22410808e+20
2.289640725e+20
2.335560628e+20
2.398933077e+20
2.453169459e+20
2.45280223e+20
2.456342462e+20
2.454091878e+20
2.438270144e+20
2.421556734e+20
1.042363216e+20
1.054523261e+20
1.068059519e+20
1.094758801e+20
1.124172451e+20
1.149492658e+20
1.176345081e+20
1.213189546e+20
1.251292933e+20
1.308998854e+20
1.361747098e+20
1.418905092e+20
1.493154587e+20
1.571799746e+20
1.6638855e+20
1.74403471e+20
1.81709646e+20
1.912171752e+20
2.011630792e+20
2.086068513e+20
2.193921351e+20
2.264831221e+20
2.330828661e+20
2.393335255e+20
1.025649967e+20
1.044607708e+20
1.057700217e+20
1.06944065e+20
1.079220576e+20
1.094942051e+20
1.120906932e+20
1.146031543e+20
1.179947945e+20
1.221662201e+20
1.265065183e+20
1.323862018e+20
1.372350593e+20
1.44251604e+20
1.521046226e+20
1.601405432e+20
1.711912691e+20
1.787879933e+20
1.891975086e+20
1.033894426e+20
1.039353313e+20
1.041876707e+20
1.051462769e+20
1.060702483e+20
1.079368628e+20
1.096091736e+20
1.117536669e+20
1.133089624e+20
1.174105913e+20
1.209204542e+20
1.254470822e+20
1.306737011e+20
1.369861759e+20
1.008572151e+20
1.018872463e+20
1.01890982e+20
1.030302192e+20
1.044784442e+20
1.057274764e+20
1.070748583e+20
1.100865408e+20
1.015554711e+20
1.01878773e+20
)
;

boundaryField
{
    flow
    {
        type            calculated;
        value           nonuniform List<scalar> 
15
(
1.822629705e+20
1.733100766e+20
1.750123374e+20
1.766718628e+20
1.81700299e+20
1.898305506e+20
1.938618492e+20
1.996844317e+20
2.051544594e+20
2.10884452e+20
2.179285387e+20
2.2647545e+20
2.288614639e+20
2.359732118e+20
2.35859253e+20
)
;
    }
    obstacle
    {
        type            calculated;
        value           nonuniform List<scalar> 
30
(
137.3245471
132.4665377
141.533203
138.8978513
129.7621315
136.3832335
132.2958824
132.9952885
130.1964478
128.0403823
127.8522343
128.1064281
129.4331346
131.5267577
127.8529122
130.4488471
122.9273913
126.8927705
124.5396128
123.051992
125.1753692
125.169309
122.1011979
119.6756565
116.1842355
113.4321208
114.1609466
105.3007987
96.0819623
79.47664195
)
;
    }
    frontAndBack
    {
        type            empty;
    }
    procBoundary1to0
    {
        type            processor;
        value           nonuniform List<scalar> 
21
(
3.1452303e+20
2.788092353e+20
2.581782483e+20
2.35183787e+20
2.17990834e+20
2.00076868e+20
1.77909205e+20
1.623670649e+20
1.448734578e+20
1.346679257e+20
1.258348233e+20
1.178146006e+20
1.146660849e+20
1.093350438e+20
1.074448219e+20
1.052678644e+20
1.036365382e+20
1.017017742e+20
1.026705489e+20
1.011979004e+20
1.002346942e+20
)
;
    }
    procBoundary1to3
    {
        type            processor;
        value           nonuniform List<scalar> 
36
(
2.438897922e+20
2.430615745e+20
2.472822725e+20
2.471102447e+20
2.473930658e+20
2.438897922e+20
2.470354114e+20
1.978067308e+20
2.050424513e+20
2.137823322e+20
2.216184608e+20
2.430615745e+20
2.291947592e+20
1.432673976e+20
1.49872617e+20
1.583570068e+20
1.675312576e+20
1.978067308e+20
1.756651719e+20
1.126595591e+20
1.141380942e+20
1.160697154e+20
1.187702766e+20
1.223751533e+20
1.432673976e+20
1.265033781e+20
1.03291194e+20
1.040595752e+20
1.043513302e+20
1.055935741e+20
1.065674092e+20
1.126595591e+20
1.070064942e+20
1.014629305e+20
1.03291194e+20
1.018222726e+20
)
;
    }
}


// ************************************************************************* //
