/*--------------------------------*- C++ -*----------------------------------*\
  =========                 |
  \\      /  F ield         | OpenFOAM: The Open Source CFD Toolbox
   \\    /   O peration     | Website:  https://openfoam.org
    \\  /    A nd           | Version:  7
     \\/     M anipulation  |
\*---------------------------------------------------------------------------*/
FoamFile
{
    version     2.0;
    format      ascii;
    class       volScalarField;
    location    "0.008";
    object      translationalT;
}
// * * * * * * * * * * * * * * * * * * * * * * * * * * * * * * * * * * * * * //

dimensions      [1 2 -2 0 0 0 0];

internalField   nonuniform List<scalar> 
546
(
924.1950937
907.4987846
888.6277369
877.1308195
866.5677665
855.8905729
848.1854351
848.3507839
836.6266262
829.1602386
816.8687753
813.6538606
812.3189482
803.9154689
796.415502
797.4794873
783.8845121
796.5516884
781.6997324
774.7960303
773.6518071
768.2523491
771.382907
767.5367882
758.184291
748.9184255
750.9852312
762.1959886
748.3833816
732.3932274
1026.409242
1011.162114
991.9555533
979.0105997
971.742184
961.9628107
949.649152
942.298982
946.9118172
926.7788074
920.6166939
915.0292147
902.9228461
899.792851
887.6925037
877.0219722
879.5771611
880.0348278
859.155509
853.0765599
848.9572468
842.1583431
829.3076148
832.7063864
833.7441939
818.5392401
816.1619057
798.2725427
773.9488327
725.8529865
1036.561058
1025.843679
1018.517382
1010.463432
997.0218645
994.6917179
987.5424951
975.3103732
967.1818242
964.3560012
958.5309564
960.5045221
947.5867464
932.0286857
927.3406339
925.5822726
927.6157345
923.4091071
912.9528679
903.6774931
898.7204913
891.8304936
887.7329119
884.5410619
868.27844
854.3508065
844.5474104
822.7585641
791.627049
734.1894189
1032.957863
1024.46789
1014.807379
997.2310133
997.2456608
997.1065615
988.8818239
981.8059396
978.6158718
972.7007222
965.017303
961.286213
961.2008289
953.5773009
946.6338715
945.2487254
930.3689715
919.590194
927.4834531
921.7794968
923.4751666
912.3305047
908.7162688
893.2796207
886.2870828
869.7041596
850.0819229
831.1927037
792.0325088
739.1140222
1000.519941
994.2800886
987.6187449
982.4892797
977.2515866
973.089229
968.8690324
971.0723473
959.0620421
959.2997734
957.2454791
957.4000994
952.9750355
943.0592393
939.2289962
937.1511131
934.9364686
926.3282469
926.7967641
929.4854178
921.7667896
923.2066382
913.018933
907.646793
899.376329
883.5576382
860.0316373
835.3394185
806.8187992
760.3200737
972.6363182
976.4143807
970.8587757
954.2151956
954.9099108
947.2418255
945.2797267
936.2358809
932.0178888
928.5331846
929.3094736
926.4514918
923.7734348
923.6217344
925.5563257
927.1898881
921.0867934
922.4128575
925.6578035
921.5770171
919.6244946
923.8762968
911.3325787
905.4124919
887.5779803
877.668728
855.6788169
844.8939395
809.1326737
778.0306925
943.8423802
948.9211651
945.744597
940.7285908
929.3483437
925.4953754
924.5587613
916.4578869
922.4858059
918.8366666
920.3146477
920.1263835
919.4000772
913.1297855
916.228452
919.8151708
913.3509181
910.8788494
919.6230373
907.851243
907.3817602
913.268309
903.9627404
896.9233403
886.9441035
873.9329083
865.4535818
842.4704947
818.5114096
775.4222924
900.5432511
918.8491183
927.8770595
918.424203
916.8449239
916.5334757
916.0710636
910.6711606
908.3262115
905.8052106
902.3143741
897.3011543
898.5179836
900.3065606
896.3117021
894.4574887
892.604539
898.7724857
900.3456983
898.3832096
887.1180499
894.6475092
888.9870464
885.0066804
877.9458354
869.0379853
852.3377247
838.6077916
818.8155098
789.2693006
858.3534572
875.0865914
894.4279941
893.0898203
893.9800531
897.4918158
895.8536826
896.7594251
891.7656352
887.924476
886.5388202
888.0534561
878.3054271
883.9848589
873.1026331
878.2620059
877.3014394
873.7595052
872.0816638
873.8754953
867.9354327
863.7634849
870.4099026
866.5492834
865.5810529
861.4934688
846.0363459
834.2102569
821.6102562
791.3798572
795.861186
822.8541281
850.1912458
856.7925828
856.9404353
871.7747963
877.4615285
878.8399525
875.531087
869.0772663
869.9249957
866.1525657
855.411363
858.1853677
871.0343166
863.3703277
862.8054633
859.8446936
858.5824782
858.6988409
854.82526
864.9719544
861.0057706
849.5649676
849.9874181
844.7331195
834.8789782
821.3012412
802.6774631
778.611238
730.5256498
753.3972724
790.2866988
811.1129461
816.3221656
839.6903355
848.7074898
845.841938
849.4081162
853.3346196
848.9345155
854.805517
844.0968763
846.6668103
847.4451569
850.0613271
854.0004045
845.4039717
849.8940827
851.8979115
851.6195525
849.1760204
848.0511962
833.9907924
835.0815832
833.9797679
819.3528531
810.8337136
800.1059454
779.96643
656.8522749
700.5639694
714.4138494
755.0001622
776.8718889
796.7003326
807.9925122
816.7513657
828.0715329
836.7559165
840.8954006
843.8579139
835.3453958
837.6422961
839.3729817
841.7648978
836.6155636
829.2718981
829.8742996
837.2941465
832.9090477
835.8255772
829.6602076
834.578578
818.5366977
817.7274552
812.8321312
806.1967254
798.3853001
773.1798098
591.8397995
620.8422531
653.5087596
693.6762072
716.2312774
748.2705792
771.6518776
779.6249411
797.5481633
801.3344305
814.6313915
819.5686895
822.249625
822.6012371
821.5307725
823.6997085
830.9760115
823.1810388
817.0800059
820.158341
820.951728
822.1172913
822.2623102
812.4853951
808.3624575
802.3247648
806.3891624
798.3319858
796.2376976
780.3772083
532.98042
563.2464179
601.7434182
636.6232157
657.2104606
690.768589
716.5900323
736.0226982
754.8924801
772.7157921
792.4981251
802.8938468
801.8960619
808.2897514
804.4752261
806.0119834
810.2262982
805.1203174
803.2190601
804.9716439
812.2981516
805.7675645
806.5338554
806.4501803
799.148583
795.2366391
798.2493058
787.4912726
784.0883193
767.8495178
484.2465881
490.036751
529.7720713
570.8475553
596.3961751
636.6328588
664.8850406
698.5245589
712.4718521
740.699705
764.1327247
777.6007266
786.9883605
788.1327769
794.8244784
801.008443
800.9185228
799.923105
792.2208394
798.5366625
798.5638913
794.8812355
797.8730511
799.6943511
800.2579734
782.8263968
790.1407397
780.4086895
769.4681209
759.9964759
437.5950771
457.2501782
478.615915
514.3368174
542.2619219
580.4004115
608.5368529
637.7224181
671.6994695
688.6416226
713.2390435
728.6399422
745.7962377
756.6874533
769.6555043
779.7798242
779.9378919
784.3128554
786.4991874
791.0448083
791.3823314
788.2128301
788.2124097
790.3105315
788.4377276
784.8335683
777.8204718
770.1311728
771.2423567
407.9869181
427.0681617
446.9030214
471.7926574
490.7696899
521.3759279
551.3745978
578.3038689
613.5314559
636.8198076
663.9691016
691.5379668
711.6548881
722.959467
741.6218764
753.7575741
765.1234379
771.9751903
778.1234034
775.9572083
780.2731339
780.2365629
778.6701541
778.5382117
384.4899295
398.5243196
419.1390374
432.3618676
453.2433869
478.5570487
503.8705061
529.834543
550.9077906
584.501722
610.4688943
647.5820077
657.765583
690.6967394
710.1842875
719.8860853
742.0336022
743.510618
760.6502207
356.0720128
372.7014131
388.3825739
405.5836437
420.1252673
442.1611089
461.3503698
484.6774934
505.6750132
531.8269227
553.870126
582.8950357
608.6257988
633.6453243
342.7276653
357.0946296
370.4106493
380.1985902
397.1887624
414.3174055
421.3110077
449.6442847
333.0620671
340.4385009
)
;

boundaryField
{
    flow
    {
        type            calculated;
        value           nonuniform List<scalar> 
15
(
732.3932274
725.8529865
734.1894189
739.1140222
760.3200737
778.0306925
775.4222924
789.2693006
791.3798572
778.611238
779.96643
773.1798098
780.3772083
767.8495178
759.9964759
)
;
    }
    obstacle
    {
        type            calculated;
        value           nonuniform List<scalar> 
30
(
800.1305768
795.4237751
783.5183052
754.0733297
780.3083104
745.8915593
724.118131
745.3714448
738.8160906
749.8619708
728.1051652
744.0505394
728.9435626
706.5953996
710.8398034
716.3409505
716.7435336
710.5289539
696.6657999
713.2202739
698.1601837
687.4495057
708.1165426
713.5882482
693.254703
692.1162182
680.0026138
701.4018127
708.867708
715.8419347
)
;
    }
    frontAndBack
    {
        type            empty;
    }
    procBoundary1to0
    {
        type            processor;
        value           nonuniform List<scalar> 
21
(
941.4355734
1040.202623
1055.376515
1043.603718
1016.034638
982.3660989
948.8266154
901.0323826
831.5904353
756.0754389
675.682192
615.0571024
550.0235766
498.0569338
443.7549657
411.1724143
388.7735482
363.5691007
343.5129328
339.5808958
326.9208732
)
;
    }
    procBoundary1to3
    {
        type            processor;
        value           nonuniform List<scalar> 
36
(
767.34346
774.0233939
774.9064863
770.7352869
765.3016512
767.34346
753.7282055
758.924812
764.9638604
769.6948488
771.9126804
774.0233939
766.5489362
661.8175264
678.075801
704.6794568
720.5851322
758.924812
731.403089
463.6622729
489.4712722
509.811884
533.9842317
562.867302
661.8175264
588.602581
350.1937096
360.8985112
374.1326043
384.4400277
398.2807865
463.6622729
414.2779494
323.4721185
350.1937096
332.969165
)
;
    }
}


// ************************************************************************* //
