/*--------------------------------*- C++ -*----------------------------------*\
  =========                 |
  \\      /  F ield         | OpenFOAM: The Open Source CFD Toolbox
   \\    /   O peration     | Website:  https://openfoam.org
    \\  /    A nd           | Version:  7
     \\/     M anipulation  |
\*---------------------------------------------------------------------------*/
FoamFile
{
    version     2.0;
    format      ascii;
    class       volVectorField;
    location    "0.008";
    object      UMean;
}
// * * * * * * * * * * * * * * * * * * * * * * * * * * * * * * * * * * * * * //

dimensions      [0 1 -1 0 0 0 0];

internalField   nonuniform List<vector> 
546
(
(367.8589934 105.085032 -5.73996063)
(357.624025 100.1106407 -1.342838467)
(336.1231668 95.03323891 6.33668538)
(326.6218647 92.05332626 1.340298551)
(314.4866402 88.62619566 -4.152868381)
(303.7821623 86.12430782 0.2905404375)
(294.9897244 80.07210698 7.90396522)
(290.6184223 81.61378293 5.281549285)
(285.7829205 79.86535448 0.3921799325)
(277.1063173 77.09253313 -0.5493642752)
(272.7420158 76.80762626 -3.763246754)
(263.680446 72.67132089 -1.850386835)
(255.8926217 68.80053853 -2.262514623)
(256.6090781 72.16349385 -2.521082295)
(252.170317 66.67938767 -2.527281024)
(244.8997809 65.22260513 1.981286256)
(242.7759126 67.70829878 6.426656519)
(237.6516574 65.75757449 4.821881985)
(235.2018114 64.21258405 2.353695038)
(231.0526127 65.40683916 -1.482448007)
(229.8536629 58.16790669 -6.345751901)
(231.5478048 64.04037667 3.507743493)
(230.1922662 63.24718286 1.972797625)
(233.2385789 59.31521724 4.815820307)
(235.9763497 61.48554447 -7.129729893)
(236.5282166 68.41153318 -1.818987302)
(247.5698936 64.56097899 2.173244025)
(270.566375 70.72876548 -4.234589745)
(301.0261989 78.80846369 -6.962960873)
(407.4249273 70.9847038 -2.103995057)
(642.7668522 192.9604628 1.201005395)
(624.8975251 192.5542445 -5.064808682)
(589.2044603 181.8984025 1.310659249)
(573.1732323 171.9901536 7.452600777)
(558.0986613 164.182947 3.048082961)
(537.5203269 160.9153578 8.163222272)
(517.3070582 154.6782745 3.36421148)
(504.8818076 147.3218963 2.268455123)
(499.4423853 141.4626974 -2.624074195)
(487.5902961 140.9801726 -1.665747676)
(470.3543635 138.4464966 3.395800151)
(466.5398509 132.848971 0.05288156513)
(450.1131216 126.9021021 6.759813265)
(443.1565616 124.5037603 6.150782245)
(423.8642283 119.4437847 1.201843969)
(415.2484113 117.3586144 2.716381249)
(416.8133875 120.4938944 0.4781865215)
(407.7829495 116.9064386 6.648432373)
(406.8080112 110.3527939 -0.01933674512)
(396.4301461 111.0830428 -4.323703499)
(391.0243839 102.7888968 -5.922054411)
(385.3480132 103.8553434 3.434884327)
(383.3478334 106.3645754 -3.279018352)
(381.8971961 102.6574345 -4.423606563)
(381.7408969 104.6444495 -6.436604121)
(390.1548982 104.1466755 -3.331338937)
(406.3285618 100.3328952 -5.648467414)
(427.5487216 113.1510835 -6.769432856)
(486.0193486 110.1056938 1.466126178)
(598.0446729 83.20496866 -0.3886231742)
(845.4128231 267.8108771 3.315657753)
(811.5013436 262.4087079 3.788210209)
(786.0365042 251.76905 -2.657348228)
(769.1238504 242.5276139 -2.947169042)
(745.9126059 230.5638461 4.794201846)
(726.4049193 229.0333193 7.369335847)
(706.7848787 222.7728378 2.09765646)
(701.0122188 210.5889856 -3.184824894)
(672.5981389 203.576132 -1.438128921)
(652.9720166 195.4226456 -4.18911489)
(636.4759652 194.1680469 2.41542109)
(628.7963524 184.0953732 3.102958239)
(598.8105294 177.9410269 4.270094063)
(588.6747484 175.783249 7.36519756)
(570.5359675 168.5184876 2.547985599)
(568.6048912 168.2388514 5.1257235)
(561.6886167 161.0672422 -2.331518206)
(553.4759667 157.6549473 -5.67946357)
(545.098586 152.9839632 -1.362646877)
(535.9986429 150.9648164 1.422848065)
(528.9824427 147.1639548 2.775282408)
(522.4382787 146.9571474 -0.07016192145)
(508.5591023 144.8323378 -3.788880476)
(513.505121 138.8085069 -5.824654711)
(512.0507775 138.8719032 -5.392389274)
(511.6174413 133.0831261 -4.796101347)
(534.4641233 140.1300986 1.128991313)
(563.1884549 143.3187972 -7.776451632)
(619.7852599 127.1367824 -0.4060033536)
(716.833046 104.3945945 2.9225956)
(989.8766619 320.4283486 0.1020859805)
(965.684737 314.2444327 -1.959549123)
(942.804193 308.1655693 1.946946814)
(923.247418 298.6328725 1.686400501)
(893.6149805 289.1706137 4.71116942)
(871.9130846 283.0833346 -4.953539388)
(853.7315928 278.8912853 -1.666695433)
(836.6514058 263.8869036 0.2076409588)
(811.1847983 257.0387175 3.055738958)
(804.8120069 251.6798801 4.628340427)
(778.6629517 242.7212313 -0.2387012269)
(759.8730685 236.5113426 6.764795553)
(746.7561664 233.6245147 1.688884305)
(733.9307463 219.9727107 -0.902829659)
(718.2455548 219.8889936 -2.24643657)
(712.4935066 209.991322 -2.638672168)
(695.6650546 203.6666265 -8.242682168)
(684.5433473 201.1137859 -0.7089503641)
(672.8851133 196.1286565 -1.91554499)
(665.658122 192.070797 -2.721649871)
(653.0426752 190.431862 -3.714601349)
(637.5416524 186.0292551 2.04062824)
(628.8744382 180.6862342 0.9164504104)
(633.8390659 171.9187667 -0.1236551655)
(627.3524586 173.2430206 5.994725143)
(633.4540381 175.6122286 4.347927983)
(656.0027905 165.8656307 -2.207625703)
(675.0326899 167.5091029 -1.323665292)
(730.8731982 152.78338 -6.901019385)
(799.9453886 131.8434685 -5.037962043)
(1106.212128 345.7309816 7.987846835)
(1081.234295 351.3419407 -0.09747863827)
(1055.329436 344.4492823 -2.516907969)
(1030.520001 334.534802 -1.10196058)
(1008.621206 332.709572 -3.3594187)
(994.8669157 328.621788 0.8255565885)
(970.7366336 320.6767262 0.1612096947)
(953.4440987 313.3939469 1.079471517)
(941.1624071 306.5687622 -2.513802724)
(921.6734831 298.5235228 -2.393975537)
(903.0906619 289.1821522 -2.424636011)
(888.501279 278.9128424 -0.156436024)
(873.9231514 275.3979491 -0.2926463996)
(859.4181392 267.2754074 -1.44426222)
(832.6274093 260.1005341 -2.915667584)
(821.7350783 252.2724884 -6.333703635)
(807.6658263 244.1563535 -5.025070775)
(794.4483136 238.6812208 -0.6479171499)
(777.1557336 233.4176675 -0.1357537947)
(761.4563538 234.9885537 -2.282566382)
(754.0588662 225.0211297 -6.964748017)
(742.9493414 215.7835674 0.4304582872)
(739.877736 218.9907022 -0.8759746046)
(742.0800129 214.9782725 -3.449481547)
(739.6374587 206.9479398 0.530001447)
(749.7729349 200.9080918 2.835142745)
(755.2457465 197.4923374 1.982553805)
(774.3856472 193.8506264 3.231332332)
(806.9538414 176.9996189 4.772091921)
(868.5331353 165.6108534 2.066241649)
(1193.938346 345.8537271 0.6130664015)
(1165.740304 358.3570827 3.593465805)
(1147.339716 367.3013563 1.319536932)
(1128.549258 367.5789553 0.3313687017)
(1106.580244 361.2912742 2.732391436)
(1093.84605 352.3587926 2.163949132)
(1068.548 354.4772451 0.7080721925)
(1054.4022 351.1534447 -0.03696261268)
(1044.909867 344.3835946 0.1472833514)
(1023.995939 333.1855856 -2.031759007)
(1005.901769 322.6550147 -3.533813768)
(991.2078979 319.0439841 -5.121431641)
(969.8894471 314.1465802 0.7406735684)
(957.8356287 306.0194341 -0.9933335155)
(938.106743 296.4988186 -1.950415869)
(926.0855901 294.4676666 -2.053495436)
(907.8937247 284.987443 0.8415648731)
(901.8117108 283.1157803 -4.957444185)
(881.799366 275.2793472 -8.482356005)
(864.9890542 265.9161102 -1.934057305)
(851.0641826 258.0448458 -1.529223792)
(839.7173831 255.8827831 -0.3242904571)
(844.3761402 247.3855529 1.314591574)
(835.9135749 249.5915103 -2.024523718)
(832.2310255 236.0860673 -5.041158516)
(834.2379837 231.0124508 -3.788342256)
(843.5384211 223.577248 -5.10109249)
(859.7868886 216.9900327 -5.417214213)
(890.4296798 206.377756 -4.469969086)
(929.9174887 188.2961025 6.004508435)
(1270.029247 340.1764766 1.97382711)
(1242.009102 353.4234813 2.73507548)
(1223.856428 365.5094397 -0.477008946)
(1209.301926 368.1821511 -2.362137708)
(1188.179339 379.3590017 1.464264195)
(1173.034542 378.1136242 -2.370967274)
(1153.978345 372.4195024 -0.4978703071)
(1136.079729 372.2634715 -3.590061317)
(1112.624694 368.8675314 -1.887707786)
(1102.975521 360.493975 -0.3333722618)
(1084.300769 360.4824835 2.106579441)
(1074.710782 353.4602256 3.866333955)
(1060.757034 350.5972289 2.64869224)
(1047.222123 341.9232053 4.587860724)
(1026.624974 338.0927932 2.113450687)
(1007.842324 330.7676973 0.4475579442)
(996.1018598 322.6334116 -3.358626689)
(980.1173158 317.6279115 -0.2005491198)
(969.3532988 306.2677856 2.764155624)
(959.6343499 300.45343 2.677844309)
(937.5872031 295.2300267 -3.296609919)
(925.939475 283.6364559 -0.3327273824)
(919.2339693 277.9248231 1.993955419)
(920.4399333 277.8671995 1.036236347)
(914.4487144 270.8577389 -3.140783503)
(913.7549309 256.033517 -0.5736779336)
(922.5676068 252.7839706 1.920958762)
(929.9040159 241.1027037 -4.357236118)
(947.6972495 231.7722699 -2.329986281)
(981.3208405 213.9835329 -0.6546161985)
(1345.986989 309.6787847 -4.119024374)
(1316.663376 334.2484134 -2.367957174)
(1291.966284 347.351749 -0.7090433716)
(1275.147019 361.8020715 0.5116500661)
(1257.715289 375.7985199 -1.843137257)
(1241.753054 384.9445303 -2.397585807)
(1225.186636 386.0099901 -0.1735759268)
(1209.14082 381.8497559 1.879777404)
(1183.442254 388.915276 0.7002531775)
(1170.830279 392.2235468 -0.02651776209)
(1155.387593 387.5502436 -1.042712948)
(1143.695874 384.9106976 -1.613267022)
(1130.48793 374.874292 2.637174275)
(1111.132706 370.0428648 0.8187388473)
(1101.934166 357.3942279 0.9555739143)
(1088.077057 361.8575332 3.124598464)
(1073.510219 354.2511581 4.648855928)
(1057.003898 343.2297813 3.232460391)
(1041.486563 339.6548484 1.294983313)
(1029.28594 333.8131773 2.09701189)
(1024.158436 320.0724322 2.325241314)
(1002.799381 316.2287805 3.379648101)
(1002.076731 311.2478549 -0.168965119)
(993.0799528 303.195151 3.137047728)
(987.2048764 297.7758552 0.1921932833)
(986.3510271 285.3607364 0.8203331189)
(987.5022758 275.8442749 4.18239441)
(1000.26088 271.5315344 3.445105828)
(1014.466557 257.2751713 3.502830343)
(1037.370543 247.8509726 0.7397016384)
(1415.71401 279.6517349 -2.06493697)
(1388.569322 300.7742794 -2.621396827)
(1358.764904 326.148211 -1.646673346)
(1337.812967 341.6042968 0.6741948517)
(1315.534949 350.9990715 2.089849975)
(1292.992052 372.941249 0.1628250614)
(1272.444031 389.8933896 -2.317180047)
(1257.604769 393.6317235 0.7841944243)
(1241.67901 391.9002647 2.905510495)
(1229.772089 396.491873 3.726754789)
(1214.941731 398.3856673 3.487829936)
(1196.959451 397.003149 1.141334291)
(1187.233708 394.6368777 -1.408437586)
(1174.133766 395.3203394 0.8492449264)
(1157.528176 385.5105218 0.04995813011)
(1143.224786 377.5023296 -1.224431236)
(1133.933813 374.3405257 -0.1453578865)
(1120.104325 370.1240285 0.07957593145)
(1109.75003 362.5377497 -3.266407433)
(1094.621706 353.9780742 -0.4393798061)
(1086.92094 348.7893681 2.522717001)
(1072.508465 345.898078 2.251400777)
(1061.877777 339.0596655 2.956894285)
(1062.543679 331.8884789 2.040395759)
(1053.583762 323.326061 8.614161723)
(1052.542443 315.5631485 6.839567717)
(1055.160659 303.4192519 -0.8211386559)
(1059.38109 298.7237833 -1.073591165)
(1067.237083 285.439544 3.130925713)
(1082.789261 267.3634782 -1.446448873)
(1471.290412 230.5317658 -10.02478136)
(1443.84683 260.3223154 -3.668366467)
(1412.840554 291.4147959 -1.045080794)
(1391.5733 312.9285158 -2.312039411)
(1375.55293 333.6767189 -1.965213563)
(1344.462636 356.9183201 -1.698007773)
(1329.527779 365.6739678 0.829201036)
(1311.253335 380.7613008 -0.5523961159)
(1296.978647 387.94681 -0.7006811075)
(1284.913114 397.0626331 1.452269766)
(1267.695823 404.9792682 -2.085049518)
(1253.003561 409.6520095 -0.43631237)
(1241.257143 410.4224936 2.218831538)
(1224.322012 410.6118736 3.606519073)
(1210.451586 406.0992673 1.67317189)
(1200.722035 400.7746593 2.480666319)
(1190.586323 387.8100274 6.325554776)
(1181.22742 388.5808286 3.58926952)
(1166.850817 383.8470153 3.889247858)
(1148.365981 380.2277226 1.694362244)
(1145.340537 376.1647075 0.5013034917)
(1128.794637 371.5495527 3.603000506)
(1121.204827 364.4122963 -2.750541765)
(1119.216583 355.2592912 -2.985739944)
(1113.042836 345.669725 -7.179603649)
(1108.295565 338.4192251 -5.614390877)
(1112.015808 330.0576959 -1.237694883)
(1109.075833 321.0624824 -2.126939512)
(1111.596837 306.2503777 -3.654027437)
(1125.908353 299.734652 -3.87521099)
(1525.434024 192.8756923 1.993023645)
(1499.752869 216.6037544 1.867660783)
(1465.961546 246.4772442 -0.9843612331)
(1442.413589 278.2004904 0.8629872513)
(1427.237764 302.2347625 -0.56212466)
(1400.922213 317.1997747 -4.09901247)
(1375.942686 342.8368339 -2.3807082)
(1360.692074 359.3382592 -2.723243283)
(1346.661678 377.5807737 -1.161795072)
(1325.416323 390.3496252 1.301210375)
(1315.460052 399.8266751 -3.572054814)
(1299.108989 408.3294217 -2.454665372)
(1285.664032 409.4837312 -1.339566859)
(1271.68487 413.5048842 1.398355434)
(1258.491743 413.7127539 -0.006824649435)
(1247.689312 412.5037105 3.10304993)
(1233.051603 413.4427323 1.695029691)
(1230.076489 403.7791312 2.623213354)
(1214.993023 405.8712362 1.160405808)
(1205.529785 403.7279812 4.267671469)
(1195.612316 396.0915499 1.434542511)
(1187.149836 387.6646325 4.592707202)
(1178.318667 382.1759906 3.678859985)
(1170.132264 373.9225763 4.977216235)
(1159.174467 369.8625549 0.6967141011)
(1155.36811 360.3202858 3.213376621)
(1153.419872 352.4593015 1.128500717)
(1155.046385 344.4675495 0.5516198668)
(1155.113309 338.4112661 -1.363106565)
(1163.424861 322.1626369 -1.132191731)
(1564.222637 148.8724867 -0.3693217969)
(1536.918294 178.0331801 1.292500725)
(1523.565836 202.6142056 2.8388475)
(1500.575335 233.1829635 4.470307669)
(1475.120344 257.3632881 2.904572407)
(1451.264293 281.9819531 2.107668061)
(1432.259444 309.2688798 -0.7411391969)
(1409.895308 338.6431112 0.1793481952)
(1387.456715 354.7947234 0.6313299516)
(1371.649225 374.8292313 0.1981263745)
(1355.500095 385.1841103 2.436457699)
(1340.638573 395.530579 0.9727468811)
(1330.701516 403.3697895 -0.3720927009)
(1317.246759 406.985687 -2.61477091)
(1302.255943 415.366012 0.2987174851)
(1287.339204 422.4869682 2.42662502)
(1277.096597 423.4601708 4.547690141)
(1271.736547 422.2867829 4.34067064)
(1263.473646 417.2427248 0.3067136279)
(1246.783715 414.6924141 1.148181451)
(1236.340856 407.14788 4.45912679)
(1225.076302 403.5501697 -2.153902428)
(1217.225159 402.1777396 -9.246460502)
(1213.829715 395.3016991 -4.292472788)
(1209.644668 386.7119922 -2.858704126)
(1198.252149 384.5711824 -2.562811813)
(1196.791898 374.1300491 1.441394056)
(1198.678421 366.3797718 5.609726766)
(1191.876419 350.9164521 3.465719758)
(1200.597621 345.8764353 0.1918888216)
(1608.297808 117.3092564 -3.841636677)
(1593.077433 141.179425 -1.085011033)
(1570.513189 164.0704392 -3.028927802)
(1539.487266 190.6474365 -0.4722649171)
(1521.229164 215.144918 -1.022219513)
(1495.567482 247.8940026 -0.6209403951)
(1475.846537 277.7726543 -0.0106270173)
(1458.355162 299.6199672 -0.9788075987)
(1432.039885 323.0833272 -3.115748571)
(1415.41857 341.3920158 -3.01658858)
(1392.994439 357.2400661 -2.303904268)
(1376.743827 378.6743402 -2.284661698)
(1361.658316 385.6793676 -4.413842745)
(1349.339623 398.3038751 -1.998853125)
(1339.588298 405.5717862 -4.729714476)
(1328.711005 419.352891 -0.817550508)
(1314.343183 421.301516 -0.7788467967)
(1305.137272 423.2099454 0.6831649868)
(1291.343983 421.8271204 2.304920337)
(1281.884323 420.0158406 0.3735683523)
(1275.001718 421.2400287 -2.415908402)
(1260.319618 416.9124799 3.629033856)
(1251.129623 413.5329411 5.083573427)
(1247.567248 412.4813528 4.440126119)
(1242.648275 405.2477009 6.623685852)
(1232.391509 396.8280992 4.790155789)
(1226.317077 388.5483947 -0.3416845025)
(1226.628504 384.8779432 2.385109029)
(1225.477616 375.2402506 5.60110193)
(1233.14082 358.8842179 1.895905825)
(1634.070809 94.33188642 -2.093287819)
(1619.149793 109.6846361 -6.042867102)
(1601.924984 129.8607576 -1.847459213)
(1584.659977 158.5719223 -1.42686897)
(1569.730352 182.3903217 -0.2272194235)
(1546.450582 205.4717643 1.508340485)
(1521.653035 228.9905082 -1.12479765)
(1502.530015 255.7402335 3.666120096)
(1480.713017 281.1024127 -0.05348055064)
(1459.488725 307.6124629 0.3127762862)
(1440.806409 330.5451595 -3.571723695)
(1422.686817 343.3579247 -1.299423106)
(1402.02087 365.896469 -2.239082542)
(1384.875857 384.0472174 -2.778867102)
(1372.493814 395.9577951 1.346324844)
(1360.953226 400.8369557 -2.695970006)
(1349.982704 410.8530304 -1.919236337)
(1336.257753 422.671062 -2.799786587)
(1330.398193 428.1727668 1.500024102)
(1312.251664 428.6648982 1.770165058)
(1294.903035 428.9272306 -2.471562947)
(1296.180934 431.2013306 1.628900096)
(1284.740576 427.6029526 2.520890918)
(1274.70958 430.7960611 -0.1366457243)
(1270.494959 418.0740744 0.3079501323)
(1269.373368 410.4504356 2.422498177)
(1254.888909 401.4301661 2.756445803)
(1251.959046 393.9022019 0.7312686189)
(1248.756467 385.4920166 0.6709878202)
(1258.587962 372.9819167 2.770893174)
(1661.876432 71.03564466 -1.552035378)
(1657.293182 83.20644237 -3.417127182)
(1639.923803 105.5147228 -1.682218696)
(1616.425734 124.0823624 1.776068045)
(1604.966196 143.0719505 -2.00417067)
(1584.410167 169.1160587 2.720401812)
(1565.400744 187.7183996 3.040089574)
(1542.867506 216.9988045 3.019192289)
(1526.698368 237.5528971 3.490720532)
(1506.283544 263.0502686 6.349631083)
(1481.021064 296.9159452 2.832114728)
(1461.763275 319.871539 -1.074534276)
(1440.655206 340.1597757 -3.976484535)
(1424.894399 356.0520996 -1.202827539)
(1408.615035 373.8162707 0.4420165476)
(1390.029126 392.89911 0.8926252651)
(1375.190532 406.1768532 -0.04154075439)
(1368.857758 413.8040633 1.080979226)
(1353.424377 423.3176586 -1.309889906)
(1340.267045 426.2926504 -0.9731520129)
(1331.821 430.2072822 2.185298562)
(1318.365502 434.4980411 -1.270997919)
(1311.374968 432.6632563 2.750167678)
(1310.002565 431.3888025 0.807997695)
(1301.08343 426.2308106 -0.1096590583)
(1299.240913 420.8732311 -5.744132085)
(1288.361936 413.2037478 -4.774749329)
(1287.386596 408.4199394 -3.146655772)
(1284.223871 406.9962157 -0.4600440803)
(1286.969993 401.659464 0.5027847928)
(1680.649133 52.88306629 2.271812959)
(1674.646719 66.59797379 2.24196248)
(1664.95783 79.74071546 0.7824926883)
(1647.93473 96.97210397 -0.9874557123)
(1635.730764 116.2934771 1.265821235)
(1613.744073 133.9852771 1.127492356)
(1596.639167 152.6185321 0.02409469842)
(1580.634473 176.3528834 0.6553492768)
(1558.903637 207.5908269 3.400847665)
(1542.48343 224.3644495 5.46216901)
(1520.439004 248.0035521 1.303676721)
(1501.898324 279.096085 0.8398711039)
(1481.52145 303.1036643 2.042524698)
(1464.178004 326.3274485 -1.575933407)
(1441.950744 347.0298287 -6.476791843)
(1428.010682 364.9193097 -0.5250287402)
(1412.752072 382.2129437 -1.791448679)
(1395.856959 396.92406 -1.524043073)
(1388.218763 406.2444305 -0.0357456334)
(1375.134576 418.0197513 1.858188483)
(1361.484284 426.2267287 -2.605497772)
(1356.153656 429.9782029 -1.236838991)
(1344.745829 433.7284342 0.8920862801)
(1332.951211 435.2126929 0.6684970691)
(1325.479017 436.1408539 2.990295807)
(1324.694674 431.6119962 2.649915469)
(1320.207682 428.570238 -0.2784531799)
(1317.751876 424.8449359 -2.768529951)
(1314.372513 416.0792731 0.8677343625)
(1697.196158 44.20636602 2.085872024)
(1688.137148 53.11270766 2.847091935)
(1681.413437 61.49557977 1.681128553)
(1669.550454 73.36132758 3.027970091)
(1659.474181 86.16523454 0.4958160831)
(1644.448892 105.6322322 -1.556705889)
(1630.452379 125.5518437 -1.2940923)
(1612.87518 139.8275452 -0.374293796)
(1593.122769 164.9300151 0.8633086065)
(1576.450635 188.4086241 -3.338971405)
(1563.256823 213.9105456 -2.264776537)
(1538.510799 236.6964151 -2.188357368)
(1523.213213 264.7904182 1.562871692)
(1503.919715 287.4175855 -0.05376233962)
(1482.466181 314.6242008 -3.773804169)
(1464.528354 339.1153939 -3.651760521)
(1449.826026 359.5542354 -5.976493688)
(1433.278467 375.7210969 -0.9325998994)
(1416.717756 390.162959 -3.940846498)
(1404.773741 400.186054 -4.578491493)
(1391.268295 413.2614328 0.2284561485)
(1376.797995 420.5347467 -0.9976052202)
(1365.621162 426.0274847 -1.409928519)
(1356.428941 432.9933657 -2.009135761)
(1711.233384 32.66004925 1.063694826)
(1702.712111 37.62012232 0.1867366498)
(1692.058789 44.28371485 -0.8810272588)
(1686.28035 54.39315456 -3.39357638)
(1678.092536 66.60712323 -2.130448398)
(1665.947541 79.48483802 -1.616042389)
(1656.038478 94.94113606 -5.348218423)
(1640.920079 112.5492519 -3.724344682)
(1632.535006 130.291532 -0.634734162)
(1611.137386 152.1050922 1.843985097)
(1594.377029 175.0598732 -1.365704989)
(1572.70988 200.3668274 -4.83485663)
(1560.106935 225.2415395 -3.247945456)
(1538.145261 250.8270585 -0.816945954)
(1516.266569 275.8593029 1.996003746)
(1498.31329 299.7872451 -0.3270913479)
(1477.669875 324.347919 -0.03674922132)
(1469.38829 339.0723794 -3.322277062)
(1446.028105 362.619666 -1.241436392)
(1715.964567 20.91121994 -0.8736208852)
(1709.891756 28.08287688 -3.208142247)
(1704.514039 38.31169544 -2.412921222)
(1699.482062 46.42090912 -1.483228041)
(1692.482635 55.21912286 0.9090800189)
(1684.123138 62.96062943 0.3448509922)
(1675.678346 75.41863137 0.4210097142)
(1660.702687 92.03632493 -1.649105045)
(1649.558845 105.58011 -4.300476149)
(1634.251578 122.7972464 -4.740930742)
(1623.35067 135.3282919 -2.444447503)
(1608.396081 161.3603225 -3.154900283)
(1588.992054 184.6726191 0.1418365281)
(1569.127437 212.1396328 -1.674990444)
(1721.212152 18.3706244 -1.467359824)
(1715.161695 22.26415114 -2.263816403)
(1711.022182 26.32963983 0.1996906141)
(1704.269937 33.31814917 -3.865947408)
(1696.019571 41.56539014 -5.011380301)
(1687.479863 50.52618147 -6.29812054)
(1684.520678 58.07811686 -5.898647144)
(1673.411267 66.74902419 -5.524886282)
(1725.870481 14.24484113 -3.303617731)
(1721.282594 20.14159249 -1.393766119)
)
;

boundaryField
{
    flow
    {
        type            calculated;
        value           nonuniform List<vector> 
15
(
(407.4249273 70.9847038 -2.103995057)
(598.0446729 83.20496866 -0.3886231742)
(716.833046 104.3945945 2.9225956)
(799.9453886 131.8434685 -5.037962043)
(868.5331353 165.6108534 2.066241649)
(929.9174887 188.2961025 6.004508435)
(981.3208405 213.9835329 -0.6546161985)
(1037.370543 247.8509726 0.7397016384)
(1082.789261 267.3634782 -1.446448873)
(1125.908353 299.734652 -3.87521099)
(1163.424861 322.1626369 -1.132191731)
(1200.597621 345.8764353 0.1918888216)
(1233.14082 358.8842179 1.895905825)
(1258.587962 372.9819167 2.770893174)
(1286.969993 401.659464 0.5027847928)
)
;
    }
    obstacle
    {
        type            calculated;
        value           nonuniform List<vector> 
30
(
(190.1806199 50.9587436 -8.831368951)
(178.9904363 47.96034296 0.568396599)
(192.5554358 51.59507336 25.85715122)
(170.7105036 45.74174165 10.27468893)
(172.9682933 46.34671436 -9.332098742)
(155.5982811 41.69243385 2.802354695)
(168.0530682 45.029684 9.7917247)
(149.3435024 40.01647075 -5.37732013)
(153.4705729 41.12231614 -5.094098244)
(159.8226168 42.82434117 6.310377351)
(156.1330227 41.8357172 -0.5398204198)
(149.0383205 39.9346977 9.071676065)
(143.1485127 38.35652846 -5.113201777)
(138.1630359 37.02067377 -15.86992808)
(145.3199064 38.93835162 6.921654967)
(137.143707 36.74754542 15.65383226)
(147.0213974 39.39426478 -2.447251907)
(136.703441 36.6295767 12.77023807)
(138.1262217 37.01080944 -1.947559114)
(144.5111016 38.72163303 -4.995458399)
(122.9527557 32.94509165 7.668575185)
(137.2313499 36.77102926 6.167681223)
(130.4340964 34.94971087 13.23116603)
(131.6441224 35.27393635 16.23230206)
(141.2895493 37.85842052 1.698355506)
(140.2235342 37.57278283 -3.8881619)
(159.470369 42.72995646 -5.624558703)
(167.7404961 44.94593056 0.7469080191)
(180.1266537 48.26479149 -12.05734068)
(208.1263176 55.76727855 3.851726394)
)
;
    }
    frontAndBack
    {
        type            empty;
    }
    procBoundary1to0
    {
        type            processor;
        value           nonuniform List<vector> 
21
(
(376.3369499 108.4760678 -2.231322117)
(657.6399062 201.2034474 3.730319294)
(859.9808401 275.9404318 2.556198594)
(1012.578532 323.0548593 0.2518111902)
(1129.626037 342.8572697 2.670931525)
(1208.696562 343.6378171 -0.498091985)
(1290.95888 324.5808652 -4.500827595)
(1372.655481 286.7524495 -4.286356586)
(1442.351269 246.0987037 -2.828527849)
(1504.360073 198.0708621 -4.977264766)
(1556.89204 159.7602939 -0.3760056733)
(1591.708466 126.4546734 0.6660042937)
(1631.944294 96.22575938 -1.570445141)
(1651.523463 78.00964167 0.6681683702)
(1677.660049 57.77089102 -2.122193161)
(1690.488443 39.77603744 1.388242871)
(1705.412102 33.06880835 0.07541445651)
(1714.516736 23.78226681 0.2992541087)
(1720.871443 16.93387247 2.052880391)
(1724.320156 14.77123124 0.2650851796)
(1726.686469 11.33829541 -3.760904592)
)
;
    }
    procBoundary1to3
    {
        type            processor;
        value           nonuniform List<vector> 
36
(
(1305.611099 407.1282036 -1.453974816)
(1350.729552 436.846514 -1.940199673)
(1341.798058 433.3589461 -0.6255813456)
(1341.169282 430.8990372 -0.03176789045)
(1338.841738 426.8093585 -0.4848680842)
(1305.611099 407.1282036 -1.453974816)
(1340.251323 423.9972644 -0.805111847)
(1433.762333 376.9430274 -0.5773240842)
(1421.220655 395.9122173 -4.762353713)
(1408.501744 409.6440438 -3.603539313)
(1395.239735 416.5917305 -0.4413280869)
(1350.729552 436.846514 -1.940199673)
(1383.28536 420.6022545 2.534694803)
(1549.438048 233.0877837 -1.27182016)
(1535.096752 255.1780948 -0.5936015213)
(1514.946965 284.885509 -2.056609806)
(1497.183856 307.8457298 0.869237818)
(1433.762333 376.9430274 -0.5773240842)
(1480.501727 327.6390911 -2.396306658)
(1665.528322 76.23756696 -1.511326416)
(1657.940291 96.42355919 -2.361182148)
(1647.967791 112.3885421 3.867369844)
(1634.185674 130.0616241 2.788562589)
(1618.516499 150.137982 4.32654033)
(1549.438048 233.0877837 -1.27182016)
(1605.536108 169.9933852 0.5571724435)
(1715.394316 24.46697107 -4.188235271)
(1708.739284 26.14017499 -2.294950106)
(1704.996423 29.11509385 -0.1701847784)
(1700.954631 35.63382632 -0.02785581254)
(1696.490786 41.79193661 -1.065597128)
(1665.528322 76.23756696 -1.511326416)
(1689.58438 50.79510332 0.4841023027)
(1724.124976 8.314408947 -0.4359584445)
(1715.394316 24.46697107 -4.188235271)
(1724.279282 8.866915324 -1.253492968)
)
;
    }
}


// ************************************************************************* //
