/*--------------------------------*- C++ -*----------------------------------*\
  =========                 |
  \\      /  F ield         | OpenFOAM: The Open Source CFD Toolbox
   \\    /   O peration     | Website:  https://openfoam.org
    \\  /    A nd           | Version:  7
     \\/     M anipulation  |
\*---------------------------------------------------------------------------*/
FoamFile
{
    version     2.0;
    format      ascii;
    class       scalarField;
    location    "0.008/lagrangian/dsmc";
    object      Ei;
}
// * * * * * * * * * * * * * * * * * * * * * * * * * * * * * * * * * * * * * //


4898
(
4.854970976e-21
2.080377019e-21
2.922595314e-21
2.293123727e-21
8.776001136e-22
1.895039623e-21
7.006977944e-22
4.19941605e-21
2.108782561e-21
1.632295431e-21
9.341444096e-21
1.041099127e-20
1.070576285e-21
3.030789434e-21
6.83528645e-21
1.966104368e-21
2.767659638e-21
7.577319061e-21
5.604736335e-21
4.753312626e-21
6.55024189e-22
5.860876996e-23
5.461698108e-22
6.61689904e-22
7.269023262e-21
2.478977617e-21
8.221132432e-22
1.391449692e-20
1.885013931e-21
6.935940991e-22
4.037455568e-21
3.905134674e-21
8.489888655e-21
2.795610892e-21
5.820280801e-21
2.258918599e-21
3.977971637e-21
9.342987078e-21
3.30211582e-21
2.072511486e-21
7.849356018e-21
9.443563963e-21
9.45839694e-21
5.806555858e-21
2.879433033e-22
1.940344564e-21
2.888390771e-21
3.04907783e-21
1.013535777e-20
9.739866743e-21
2.035612419e-21
5.4573856e-21
7.422932586e-22
1.89829351e-21
2.720755712e-21
1.747627545e-21
2.465058449e-21
3.896577576e-22
2.108843502e-20
9.528595592e-22
8.721110224e-22
2.095703483e-21
2.322477391e-21
6.042580602e-21
7.070512179e-22
1.702088645e-21
3.659736632e-22
2.120896921e-21
1.260917352e-20
7.435804189e-21
6.250676769e-21
7.372832826e-22
8.562606931e-21
2.749770923e-21
3.765300014e-21
1.239731207e-20
8.520430361e-21
3.68605176e-21
1.800231764e-21
1.493010145e-22
3.735250223e-21
2.999697369e-22
7.262869279e-22
3.898354316e-21
9.10121673e-22
7.04393506e-21
4.093007854e-21
1.455056381e-22
5.491979571e-22
3.199788311e-21
8.250878118e-21
1.117832767e-20
1.522424846e-21
3.452591743e-22
4.118226971e-21
1.159164445e-21
5.256360553e-21
6.727371154e-21
1.504326502e-21
6.452662278e-23
1.833678948e-21
2.26246442e-21
1.317349798e-21
3.997684372e-22
5.039576571e-21
7.803218212e-22
1.464461714e-21
2.424405536e-21
2.318518626e-21
5.406924567e-22
1.506843932e-21
1.209283279e-20
5.450951528e-21
1.837569016e-21
2.987758888e-21
1.394088233e-22
9.314926951e-21
5.971795081e-22
1.022956388e-20
7.726418742e-22
1.01680991e-21
4.830401986e-21
6.012750074e-21
1.007303341e-21
4.898078446e-21
3.333834684e-21
2.1331725e-20
1.943594024e-20
1.633714835e-21
2.065864575e-20
7.769253207e-22
8.908051899e-21
7.182996581e-21
6.362823723e-22
3.677794717e-21
2.289775713e-21
4.05192879e-21
7.330109359e-22
7.915275245e-21
3.10808092e-21
2.062199318e-21
5.866977257e-21
6.06194392e-21
6.198133081e-21
3.164189843e-21
6.145989541e-21
8.681339869e-21
3.927380554e-22
2.998720988e-21
3.675398663e-21
2.089658882e-21
2.989056914e-21
2.238952414e-20
1.911438333e-22
1.282725411e-22
2.995180032e-21
3.109582318e-22
4.232232823e-21
1.748705182e-21
3.554985018e-22
4.778244336e-21
2.773459166e-21
7.970367835e-21
5.191715316e-21
5.268148402e-21
2.31453366e-21
1.005022517e-20
1.100189276e-21
5.041920147e-21
2.286810259e-21
2.16120046e-22
4.431383833e-21
3.146632134e-21
3.126229155e-21
1.180524992e-22
4.30810937e-21
8.916013773e-22
6.159804138e-21
4.203651052e-21
1.360040204e-21
4.849479817e-21
6.705895252e-22
2.684770045e-22
3.500739559e-22
5.71078492e-21
2.94715016e-21
1.617180879e-20
2.500343898e-21
1.150016709e-20
4.524065284e-21
8.04875877e-25
2.10853945e-21
1.106677584e-21
1.208276411e-22
2.390790205e-21
7.683562119e-21
8.550221688e-21
3.258376878e-22
4.121757487e-21
8.880094387e-24
2.09510123e-21
2.153628457e-22
3.13449704e-21
7.730844228e-21
3.91815411e-21
8.604463817e-21
2.635580254e-21
2.785180336e-21
1.011747976e-20
9.209847016e-21
6.017956806e-21
3.458100471e-22
1.706502077e-20
1.07110797e-21
2.203951162e-21
7.852375918e-21
1.806353352e-21
3.017417864e-21
4.030468113e-21
3.634348286e-21
1.370293826e-20
4.323360727e-21
8.425285715e-21
9.893358633e-22
2.297740391e-21
1.357755134e-21
2.09172118e-21
8.754611283e-22
2.652013031e-21
1.100151213e-20
2.175240149e-21
5.432874053e-22
1.266347482e-22
2.559172856e-21
7.800689819e-21
1.554414807e-20
3.346060391e-21
2.341297159e-21
6.695780107e-22
5.115847467e-21
2.631802865e-21
1.20803396e-20
1.334524504e-21
4.166268876e-21
2.433572519e-22
5.347731953e-22
2.379073762e-21
9.342504853e-21
5.820773345e-22
1.467917348e-21
8.257468584e-21
3.059678052e-21
7.291218314e-22
1.218338633e-21
2.326290345e-21
6.407307367e-21
2.404332603e-21
2.148448712e-21
8.176351303e-22
1.077115081e-21
8.789084691e-22
5.384009593e-21
2.624050982e-21
3.895894129e-21
1.636987923e-20
7.368908082e-23
5.432616906e-22
4.434066774e-22
4.940242729e-21
1.483256612e-21
2.960937244e-21
2.186758546e-20
1.06060606e-22
2.666402256e-21
6.892253246e-22
8.190770532e-21
9.744935014e-21
1.980213185e-21
3.131166838e-21
3.797724304e-21
1.391920758e-21
9.757704395e-21
3.92060854e-21
1.658078691e-21
2.008604916e-21
8.96635976e-22
9.79161211e-23
3.450055517e-21
4.062495562e-24
7.680477804e-21
7.426748804e-21
6.543309544e-22
1.844313512e-21
5.807623069e-21
1.021268682e-20
3.600407798e-22
6.163386843e-21
8.263661119e-21
8.855069907e-21
8.039259173e-22
1.692256538e-20
3.910037452e-21
4.365044757e-21
2.534714512e-21
5.821717213e-21
4.105312395e-22
3.607387351e-21
4.540677115e-21
2.318056695e-21
9.125549352e-21
1.766081474e-21
6.133969566e-21
2.198880277e-21
2.734460457e-21
3.541859436e-21
1.257862865e-21
1.246815737e-21
8.298164218e-22
5.970974989e-21
1.306347622e-21
4.44719462e-21
1.27610601e-21
4.149290957e-21
6.241860999e-22
2.477534221e-21
2.173542553e-21
1.115434804e-20
2.429547218e-21
3.536398337e-21
1.167386555e-21
7.225440783e-21
1.533632095e-20
3.547393044e-23
9.976040229e-22
1.931020535e-21
4.294560675e-22
1.245515502e-21
7.898478425e-21
5.849145316e-21
1.91179477e-20
4.360732556e-21
1.591520656e-22
1.012141626e-21
9.910417295e-22
7.492741169e-21
2.662956617e-21
3.133488096e-22
6.000854722e-21
5.919435112e-21
1.243578212e-20
1.075354451e-21
5.625959932e-23
6.922183498e-21
6.102037071e-21
1.496787837e-20
7.139405628e-22
5.302521231e-21
8.500801713e-21
6.07611678e-21
1.171012996e-20
1.167320691e-20
2.512191626e-21
2.227763355e-21
4.337662193e-21
9.210142038e-22
2.130379298e-21
1.9797224e-20
1.7738366e-21
9.936827255e-22
7.442042242e-21
2.638811163e-22
7.018785022e-21
7.760835783e-21
2.651527189e-21
5.767424011e-21
8.738229778e-21
3.594717882e-22
9.309861378e-21
4.757195799e-21
1.453091495e-20
3.787002583e-21
5.396579649e-21
4.711652885e-22
5.926883649e-21
1.234390675e-20
5.232669994e-21
1.161844557e-20
4.750449065e-21
1.943115629e-20
4.364139209e-21
7.965375801e-23
4.555948347e-21
2.18240071e-21
9.959317763e-21
4.631315931e-21
1.104729405e-20
7.055074304e-21
6.3827342e-21
7.466908518e-21
2.971032942e-22
6.845423051e-21
6.542644545e-21
2.940309997e-21
3.966804682e-21
3.321510769e-21
3.007408986e-21
4.353974357e-21
1.588342041e-21
6.891538381e-22
1.004668055e-20
5.361447552e-21
2.475185755e-21
3.74037024e-21
4.086840345e-21
2.29794549e-21
5.636257718e-21
1.138940079e-21
3.196020265e-22
6.790909101e-22
3.674811727e-21
1.265328285e-21
8.282806222e-21
2.045832297e-21
1.177689869e-21
1.220274789e-21
2.215080751e-21
3.498420815e-21
1.826893221e-21
4.885844621e-21
5.78383033e-21
2.054133765e-21
5.282175993e-21
1.161074062e-21
1.213093699e-20
5.922052374e-21
4.422152026e-21
2.102330511e-21
7.825785038e-21
9.046234821e-21
1.536822407e-22
1.229712726e-20
8.530981855e-21
9.646940514e-22
1.299437278e-21
3.181148868e-21
4.903626543e-21
1.101731349e-21
5.598209339e-21
1.398545997e-21
2.393983556e-21
3.818488039e-21
4.227965382e-21
1.085505637e-20
7.520978122e-21
2.264794881e-21
1.192768795e-22
3.197875829e-22
1.423878955e-21
8.396618668e-22
3.607830633e-22
3.72737962e-21
3.455316267e-21
2.305671313e-21
2.241576449e-21
8.823963894e-22
6.103370599e-21
1.154092474e-20
7.048185396e-21
8.735799766e-21
8.043031664e-21
5.513702555e-21
1.78042391e-21
1.824314702e-21
6.808485314e-21
2.211563214e-21
7.319787728e-21
1.607485873e-21
5.868936501e-21
4.749908225e-21
3.984266294e-21
3.117696405e-21
3.359509618e-21
5.395776664e-21
7.510845183e-22
5.462226665e-23
8.58057189e-23
1.333340324e-21
3.024709578e-21
3.531764195e-21
4.515522199e-21
7.170359043e-21
1.27578666e-21
5.666148941e-21
3.330329251e-21
1.977983114e-21
2.899109745e-21
4.027258066e-21
1.074016154e-21
1.643367149e-21
2.660993558e-21
8.065462066e-21
6.405981861e-21
2.987763865e-21
3.31865844e-21
6.175148967e-21
8.100537759e-21
8.630766247e-22
5.894468724e-21
6.900776913e-22
3.326977181e-21
1.214486866e-20
2.630309823e-22
1.435769815e-21
1.020062718e-21
1.501087383e-21
1.038559045e-20
7.988689348e-22
1.081192044e-21
2.18992806e-21
5.540093721e-21
5.883581996e-21
1.824431842e-21
1.833733263e-20
1.099791525e-20
1.605488531e-21
5.47171829e-21
2.230825194e-21
7.734652495e-22
1.218917298e-20
3.907119976e-21
1.05881399e-21
1.023087478e-21
4.530140417e-21
2.893237021e-21
1.078637694e-20
3.564156275e-21
3.662016941e-21
1.132176587e-21
9.053267859e-21
2.84067548e-22
6.639432628e-22
1.345003344e-20
3.418472472e-21
4.704120262e-21
9.578362498e-21
6.267986915e-21
6.103353984e-21
1.620505589e-21
1.123172801e-21
1.968224728e-21
3.639911696e-21
1.67099176e-20
3.953147763e-22
1.150857744e-20
1.616068953e-21
1.807286097e-22
1.756414233e-20
7.166156735e-21
3.569466634e-21
1.081642582e-20
1.392929252e-21
5.116497919e-21
4.936073696e-21
1.328948418e-20
4.889820822e-21
4.926893854e-22
1.895697652e-21
3.400542528e-21
4.882316366e-21
1.56397103e-20
6.178200321e-21
9.804043128e-22
7.438197048e-21
2.664693675e-21
1.939891813e-21
7.027050737e-22
7.267360493e-21
1.493257284e-20
1.065676437e-21
1.780239549e-20
6.979968102e-21
3.485044779e-21
1.756099978e-21
1.022475734e-21
2.601259091e-20
7.53152732e-21
9.948742369e-22
1.692789063e-21
7.331105622e-21
1.396799504e-21
7.431538423e-21
7.463670505e-21
3.881843601e-21
2.680232249e-20
6.233146903e-21
3.204772263e-22
3.67458629e-21
5.976340413e-21
6.262997277e-21
5.458254802e-21
1.084821252e-20
3.982342583e-21
8.602881844e-21
3.046351633e-21
4.264483246e-21
2.735220563e-20
7.146461465e-21
1.011317084e-21
7.417289845e-21
6.507185932e-22
4.172142244e-21
1.980972261e-21
2.034397228e-21
1.492690328e-21
3.022608021e-21
2.29738991e-21
4.949655314e-21
3.616110627e-21
3.119132653e-21
3.145409993e-21
1.091142827e-21
4.943492337e-21
9.417517725e-21
3.00864575e-21
4.420026926e-21
1.690135107e-21
7.845234222e-21
1.304786931e-21
2.037566045e-22
1.807452937e-20
2.541801293e-22
1.043978223e-20
1.499641299e-21
4.685589784e-21
2.68413754e-21
4.891559822e-22
2.182367922e-22
5.386885471e-21
1.913478671e-21
2.380154327e-22
6.0967357e-22
3.647352893e-22
3.818883904e-21
1.975658975e-21
3.492358009e-21
5.787591654e-21
2.875448041e-21
9.941921353e-21
3.279828409e-21
5.249855331e-21
3.421105299e-22
7.011062233e-21
1.77492425e-21
5.667333117e-21
2.393654606e-21
2.651452153e-23
1.224353339e-22
5.08894091e-21
2.65285519e-21
1.174456735e-20
3.64562758e-21
6.038541576e-21
1.06036362e-20
6.731736194e-21
1.897695144e-21
4.550352215e-22
1.490199914e-20
3.390157252e-21
6.003318247e-21
8.99672167e-21
5.158872836e-21
1.220268446e-21
3.384024134e-21
1.102810391e-21
2.594696422e-21
6.820782921e-21
3.739643859e-21
1.369071859e-23
2.357374643e-21
3.937900629e-21
1.757465596e-21
1.5988179e-20
4.62158207e-21
6.240688214e-21
5.083807325e-21
1.676437961e-20
3.160218729e-22
2.144678614e-21
2.349999578e-21
1.413431111e-20
4.886038846e-21
1.43529577e-22
6.716637377e-21
2.400333067e-21
1.225350106e-20
7.728304271e-21
9.22066011e-21
6.857306565e-21
1.702990394e-21
2.992667162e-21
1.053318549e-22
2.006642923e-21
7.486525089e-21
2.397328264e-21
1.289725908e-22
1.371554658e-20
4.795734938e-21
3.375010859e-22
1.379878307e-21
5.355959855e-21
7.431177827e-21
3.069025971e-21
1.0392955e-20
1.554078509e-21
3.540321237e-21
7.331982329e-21
1.965202197e-21
5.335840036e-21
2.320910812e-22
1.526189901e-21
8.004698528e-23
2.699574452e-21
3.229145956e-21
1.111081594e-21
2.687635371e-21
4.170949178e-22
1.230924986e-21
3.048239557e-21
1.330639009e-21
5.515392412e-21
3.014260407e-20
2.91310225e-21
4.528833739e-21
8.034475945e-22
1.126407272e-20
2.341804663e-21
4.270967884e-23
1.026206995e-20
5.491458366e-21
1.370654039e-21
1.854524674e-21
9.653378067e-22
1.090393831e-20
8.479057674e-21
9.804116849e-21
8.131938542e-21
3.879854658e-21
8.636601447e-22
1.288907899e-21
7.439929905e-21
4.907084036e-21
1.008900095e-21
4.620611826e-22
9.040884209e-22
1.2404187e-22
1.162212189e-20
1.082131889e-20
3.542749741e-22
8.683128542e-21
8.24725858e-21
9.566073645e-22
3.874901602e-21
1.198988166e-20
8.846901259e-22
1.37139159e-20
3.170243401e-21
3.166005082e-21
2.506264384e-21
9.462554191e-22
2.394321294e-21
6.973523826e-21
1.136309418e-20
6.025748327e-21
7.307131596e-22
1.688596907e-20
3.548864174e-21
5.209375646e-21
5.28269548e-21
8.900654106e-21
4.635189718e-22
6.951510313e-21
7.099023459e-22
8.101342421e-23
8.534592111e-23
1.221763793e-21
1.180599597e-20
3.038831639e-21
4.485446425e-21
6.564545816e-21
3.265821837e-21
8.06048708e-21
4.899710766e-21
2.525799563e-21
6.157087339e-21
1.852283501e-20
4.917902998e-21
2.026098664e-21
2.570939191e-22
3.172859409e-21
3.730752699e-21
1.909659769e-21
4.401408476e-21
1.578121593e-21
1.359397076e-21
1.113312927e-21
5.293434713e-21
2.270069468e-22
5.207474931e-23
1.206941497e-20
2.33923754e-22
1.274513879e-21
4.731896472e-21
9.014424451e-21
9.089873796e-21
1.081073051e-20
1.013034783e-21
6.92538041e-22
3.997409605e-21
1.909499153e-21
2.997283634e-22
2.097762161e-21
6.219711736e-21
8.981983383e-22
1.369368531e-20
2.829623906e-21
1.630705974e-20
7.108233064e-22
3.950270859e-21
1.597323781e-21
5.2496646e-22
2.319854937e-21
1.137475281e-21
7.584670712e-22
1.026851747e-20
5.358851015e-22
1.624365742e-21
9.596545603e-21
9.964757562e-21
1.529923413e-21
3.2441344e-21
1.668294843e-21
3.009564814e-21
7.667195586e-21
5.21694587e-22
3.336084575e-22
4.436025891e-21
9.549450494e-21
1.891578126e-21
1.118560205e-20
1.952214335e-21
1.171414996e-20
2.899718861e-21
2.791748978e-21
3.660533039e-21
1.519221026e-21
1.08005734e-22
1.87301724e-21
1.226781864e-21
4.69783051e-21
5.374155226e-22
5.400133232e-21
8.822832249e-22
5.214665063e-22
6.770549463e-21
2.451432105e-21
1.510075243e-21
6.206891084e-21
2.037564785e-21
8.683440029e-21
3.391909279e-22
4.616149951e-21
1.526577455e-21
1.177942531e-20
8.320852292e-21
1.63910559e-21
6.336908349e-21
2.873914585e-21
3.072526769e-21
2.129974655e-21
3.483997398e-22
7.596629366e-21
2.774371192e-22
3.105296225e-21
3.479005533e-21
1.820295881e-21
4.51697316e-21
5.417217947e-21
1.160484874e-21
2.463761375e-21
3.941961335e-21
4.143312921e-21
3.254305578e-22
8.320634498e-21
1.354488151e-21
8.739490553e-22
1.376714982e-20
5.854209753e-21
4.004789084e-21
1.165057057e-20
6.032616128e-21
1.535780186e-21
1.846930962e-22
3.661420598e-21
7.342631574e-21
2.962695645e-21
7.108384961e-21
1.874800201e-20
6.352331208e-21
1.995546106e-21
2.215329763e-21
6.539813588e-21
4.022784311e-21
8.360507629e-22
4.434966838e-22
1.100790271e-20
3.253955561e-21
1.141154571e-20
1.512352001e-21
5.364526266e-21
4.27243402e-22
8.136126338e-22
4.90086168e-21
7.272620789e-21
6.662300294e-22
3.226983099e-23
4.659808187e-22
2.606997677e-22
3.681779558e-21
1.865129303e-21
5.459738333e-21
1.42632104e-21
3.723006742e-21
1.554033419e-21
1.060647803e-20
3.052438853e-21
9.513103418e-22
2.177324949e-21
3.038933515e-22
1.863019411e-21
1.007232425e-21
2.445256625e-21
5.551032824e-21
5.099469296e-21
2.544360078e-20
2.300533932e-21
2.556420028e-21
8.142063519e-22
2.095940816e-21
2.756781336e-22
9.704959421e-22
9.045211373e-21
1.193441301e-20
8.931790655e-21
2.505842539e-21
3.94692126e-21
1.782254604e-21
4.20380151e-21
1.184658582e-20
1.803100241e-21
3.849062455e-23
1.150339868e-21
8.545288572e-22
6.112353059e-21
3.12602646e-21
6.812745956e-22
5.108723564e-21
3.233872144e-21
3.980969612e-21
1.15070451e-21
1.118820067e-21
1.786746614e-21
2.216308735e-21
9.846443933e-22
4.167187338e-21
1.402707812e-21
3.941974605e-21
2.017021157e-21
5.373787671e-21
9.329059823e-21
6.532211465e-21
5.189293777e-21
1.724938896e-21
6.047758563e-21
1.443476218e-21
2.548471528e-21
8.779106935e-21
1.667373982e-21
1.19128201e-20
3.34446498e-21
5.637052072e-21
1.16712174e-20
5.76824315e-22
4.024040409e-22
1.099194436e-21
1.704652084e-21
1.275967016e-21
1.53619492e-21
3.010685991e-21
1.026163284e-21
4.054676415e-22
4.634460924e-21
2.128730768e-21
1.915716069e-20
1.39492809e-20
4.770637253e-21
2.535058412e-20
3.189964198e-21
4.000249709e-21
3.235774267e-21
7.631942487e-22
4.927848022e-21
1.101946896e-20
4.182920377e-21
6.76943656e-21
1.279402473e-21
1.175222494e-21
5.444827681e-22
2.597632803e-21
2.172322749e-22
1.071709103e-20
2.796430438e-21
8.568486146e-22
4.141267379e-21
2.352232873e-21
2.723298261e-22
4.206953488e-22
1.11817518e-22
1.879662302e-21
5.996534937e-21
3.613654956e-21
1.379387972e-20
1.366476373e-21
4.385023595e-21
5.804649037e-21
3.083902203e-21
3.860270429e-22
5.009896037e-21
7.378150494e-21
2.2686715e-21
8.156126246e-22
1.102564014e-20
6.819402434e-21
1.74534118e-21
1.206194638e-20
1.693420789e-21
4.021306595e-21
9.140578211e-21
1.902964933e-21
6.705592263e-22
6.661951206e-21
2.527705238e-21
2.471761068e-21
3.864155071e-21
3.768385743e-21
1.12589843e-20
8.26549445e-21
2.749549972e-21
8.443071629e-21
2.574125283e-21
1.57469713e-21
3.996318111e-21
4.60676615e-21
4.033279989e-22
1.99415686e-21
2.218019885e-21
6.709578764e-22
2.215465128e-21
2.739091846e-21
9.684372963e-22
6.579254178e-22
5.477588206e-21
4.424650413e-21
3.499211244e-21
2.018873657e-22
9.609074233e-22
1.284437476e-20
2.016803324e-21
8.391513721e-21
1.609742856e-21
3.629754631e-22
4.912355199e-21
4.20394941e-21
8.095571436e-22
8.559360284e-22
1.882437246e-21
5.799246104e-21
2.973956575e-20
4.270529634e-21
1.912161053e-20
1.530077544e-21
3.180347098e-22
4.315573913e-22
2.004528721e-21
5.370170667e-21
7.660334541e-22
2.760169196e-21
1.02454115e-20
7.379395339e-22
7.730679638e-21
7.431176488e-22
2.447066574e-21
5.557826209e-21
1.101025318e-21
2.968196531e-22
3.032463376e-21
1.260541509e-21
6.356102094e-21
9.065902918e-21
2.721309626e-20
3.465519975e-21
1.682771968e-22
5.96531485e-21
9.454845154e-21
1.221677536e-21
6.986979619e-22
4.126931293e-21
4.242176196e-21
6.954839039e-22
1.426318563e-21
7.770949077e-21
1.225753557e-20
6.298688722e-21
5.946234526e-21
3.745977134e-21
5.995489822e-21
7.052757985e-21
1.592206985e-21
7.959977371e-21
1.336935547e-21
4.66015697e-21
2.112067115e-21
4.562543939e-21
3.646921557e-23
2.042541644e-21
1.189807706e-21
5.24461804e-22
2.589815792e-21
3.889032223e-21
3.473092046e-21
8.093825549e-21
1.695256481e-21
1.988582072e-22
3.762650303e-21
1.126683118e-21
2.828800649e-21
7.562035908e-21
4.342208226e-21
1.386010057e-21
6.996774215e-21
8.189389609e-21
8.169891851e-22
3.31447785e-21
2.808183686e-20
3.648420542e-21
1.099063159e-21
1.295166547e-21
1.014444196e-21
1.050012719e-20
4.360419921e-21
1.69491947e-21
1.327026781e-21
7.922648844e-22
2.272681282e-21
1.956889818e-21
3.252314017e-21
1.890879761e-22
8.967371821e-21
6.107029428e-21
7.768541055e-22
4.380895216e-22
5.213449694e-21
4.03742701e-21
1.824053935e-21
2.79962436e-21
1.686242389e-21
1.014267535e-20
2.697450438e-21
1.491787811e-22
1.448132239e-21
8.339610748e-21
9.568968558e-22
6.645217618e-22
2.58383885e-20
8.504424664e-21
6.215853103e-21
4.362183737e-21
1.192467258e-22
7.842815202e-21
2.426418953e-21
1.077787662e-21
2.653769683e-21
3.406249753e-21
3.11636459e-21
1.239230997e-20
6.4541205e-21
1.730503647e-20
7.130494019e-21
1.055620702e-20
3.176245084e-21
4.32465462e-22
3.593478198e-22
9.069046614e-22
9.142722762e-21
9.402960717e-21
7.82667651e-22
4.929158363e-21
7.696773645e-21
4.577438101e-22
1.65802729e-20
6.538139134e-21
2.960003297e-21
1.267796853e-20
1.701798802e-20
7.384012292e-21
1.645201391e-20
7.599129065e-21
2.330674169e-21
3.861681869e-21
4.968471219e-21
2.206311543e-21
5.959411213e-21
3.857809665e-21
1.813056475e-20
2.296841008e-21
6.063838141e-21
3.520980634e-21
2.314629775e-21
8.658006666e-22
1.981453799e-21
8.631409565e-21
3.232567702e-21
3.928230688e-21
1.559128234e-20
5.957787169e-22
4.564004236e-21
1.945816277e-20
2.258716395e-21
2.267377369e-21
8.456845995e-21
2.182429721e-21
1.285958197e-21
3.486732835e-21
1.504705423e-21
8.566160199e-22
2.237524129e-22
6.308944858e-21
7.892375632e-21
3.113259175e-21
1.81771923e-20
9.094364457e-21
6.77811639e-21
1.236103959e-21
1.570947263e-21
3.265008668e-21
4.535428513e-21
3.317371457e-21
1.588092799e-21
2.31147834e-21
4.651780555e-21
3.034685684e-21
1.504468192e-22
9.993308363e-22
1.129185367e-20
4.3145913e-21
1.621733808e-21
8.334173912e-21
3.954425479e-21
2.896779492e-21
1.4761818e-21
5.366936985e-21
2.0493854e-22
4.68128826e-21
1.21245543e-20
2.763013736e-21
2.126640167e-21
1.525138645e-21
1.450687232e-21
4.571409966e-21
2.612990888e-21
6.174839707e-21
4.395164022e-21
5.59013821e-21
2.346917109e-21
6.622336512e-21
8.159613187e-21
6.749645764e-21
3.518954701e-21
1.096804946e-21
1.984127675e-21
6.224504259e-22
1.26549045e-20
1.0757336e-20
6.074697856e-22
7.155357857e-21
3.712773352e-21
9.356932449e-23
1.015442117e-20
2.25193114e-22
2.153252597e-21
1.512478436e-21
1.281767417e-20
1.62709865e-21
9.565822271e-22
5.053736451e-21
1.131484103e-20
4.693425473e-21
1.263647626e-21
8.853647417e-21
1.901820472e-21
7.163078188e-22
1.22510541e-20
2.762830917e-21
2.282308219e-21
1.409852463e-20
1.09167234e-21
1.513767411e-20
3.424921054e-21
3.385336579e-22
4.477960388e-21
8.58550014e-22
1.555037253e-20
1.814279011e-21
3.435131333e-21
6.125664496e-23
4.453392704e-21
3.578050611e-21
1.255405761e-20
2.997824061e-21
3.951475174e-21
1.705869944e-21
7.379487657e-21
1.31315081e-20
2.344323476e-21
2.833518888e-21
1.223703886e-21
6.48983028e-21
1.007446935e-21
6.695877214e-22
2.266259407e-21
1.077671461e-21
5.228388062e-21
1.065702865e-21
7.6538189e-21
1.179797061e-21
7.204266105e-21
3.836755538e-22
5.843063892e-22
3.769237207e-21
6.902024291e-22
4.547646008e-21
9.719991373e-22
2.305135035e-22
1.112044513e-21
1.657852646e-21
3.01723247e-21
8.328095787e-21
1.643657827e-21
2.000590911e-22
1.117509966e-21
1.233918669e-20
1.572025004e-21
6.874565439e-21
3.024707628e-21
1.809958768e-21
1.063923639e-21
2.817167e-22
1.356512211e-21
1.498080414e-21
5.218314705e-21
1.89343347e-21
1.718491976e-20
4.478812469e-21
4.798771247e-21
4.777483531e-21
6.13029238e-21
6.279400883e-22
6.338050122e-21
8.613049763e-22
7.763550625e-21
1.882928328e-20
6.573137485e-22
8.76145589e-22
1.250494594e-20
1.720351851e-20
2.266829098e-21
1.883038455e-21
1.723274e-21
6.751637761e-21
1.892985017e-21
7.606435355e-21
7.582440631e-21
8.107600447e-21
5.588842086e-21
8.777617801e-22
2.314839021e-21
4.277864718e-21
4.887827205e-22
5.069030588e-21
1.424014541e-21
4.427842847e-22
2.070193742e-21
5.168913248e-21
1.589370579e-20
4.650711805e-21
6.547554356e-21
4.763966329e-21
5.896133734e-21
2.775183365e-22
1.078759359e-21
4.469929907e-21
7.083950618e-21
8.656358289e-22
3.034096466e-21
6.997423401e-22
1.556250429e-21
3.028245248e-22
1.074807223e-20
5.20600171e-21
1.888119956e-20
3.186544663e-21
6.387195901e-22
6.050731441e-21
2.606085238e-21
6.443195532e-21
5.898175392e-21
3.638308966e-21
3.433102811e-21
5.659582727e-21
2.719453972e-21
1.748065079e-21
4.707474518e-21
2.398659179e-22
3.668678367e-21
5.11418457e-21
1.704285956e-21
1.21346792e-21
1.338136503e-21
2.98145453e-21
5.148942616e-22
2.305797146e-22
4.001816771e-21
9.585542948e-21
1.004685923e-20
1.428301817e-20
3.725013202e-21
1.26934665e-21
1.1874173e-20
5.530851266e-21
2.261077518e-21
2.075760573e-21
9.950241413e-21
1.119163809e-20
1.577967078e-21
1.102347855e-22
1.270190038e-20
5.77837646e-21
2.909735131e-21
9.723695782e-21
2.902002462e-21
3.585336299e-21
5.368876289e-22
6.211327574e-21
1.390674981e-21
6.988342544e-21
9.394754988e-21
3.594166853e-21
3.860901928e-21
2.794362897e-21
2.150152343e-21
6.098270626e-21
2.135975136e-21
2.592983979e-21
2.340054268e-20
1.543592433e-21
6.253705921e-22
6.402132382e-22
7.774833179e-22
1.404094647e-21
2.518439053e-21
3.227585893e-21
1.545638446e-21
4.893111659e-21
1.343600781e-22
4.419394586e-21
6.127384462e-22
2.711277364e-21
2.679480185e-21
5.293930372e-23
7.505181023e-21
6.527460189e-21
7.617929224e-21
5.576839054e-22
8.066052205e-22
1.673714513e-22
5.211523413e-21
1.040595234e-21
4.095144795e-23
5.843984191e-21
6.289308333e-21
8.729039261e-21
4.568312686e-21
5.085759234e-21
3.948872025e-22
2.744479094e-21
5.224797562e-21
1.600582579e-21
6.067774895e-22
3.631937323e-21
1.579895445e-21
3.059651801e-21
7.219098221e-23
3.787411636e-21
2.047048868e-20
5.967000866e-21
4.203736747e-21
6.051075286e-22
1.522370656e-22
4.247675008e-22
7.915989158e-21
6.868149875e-22
9.593179123e-21
1.995036805e-21
9.706772677e-22
2.084955376e-21
1.045763712e-21
9.945199739e-22
1.620215869e-21
1.665211398e-21
1.963184362e-21
8.89056129e-21
1.276747614e-20
1.908612525e-21
5.169607495e-21
1.702071595e-21
1.598008464e-21
2.983157303e-21
6.048356604e-21
1.727547197e-20
3.062245727e-22
1.501826101e-21
8.082399841e-21
4.164018297e-21
3.267300888e-21
1.042468699e-21
7.470061863e-22
7.506342609e-21
6.836434229e-22
1.090644479e-20
2.142467954e-21
5.983085061e-22
7.137771095e-21
3.226427023e-22
1.056268687e-20
7.203144209e-21
6.771899408e-22
1.159798718e-21
4.165894807e-21
1.480793349e-20
2.334684481e-21
7.935586774e-21
7.744862289e-22
5.269831667e-21
6.580536248e-21
2.232719577e-21
8.784329726e-21
2.651744252e-21
2.987518239e-21
1.603564898e-21
1.110762911e-21
9.373405478e-22
1.889834611e-21
3.83745721e-22
1.023824783e-20
1.10756288e-20
2.047016485e-21
7.421455769e-21
1.378900228e-21
3.424982591e-22
1.592862679e-21
1.516824013e-22
3.087154189e-21
3.54656214e-21
2.435181182e-21
1.497611044e-21
6.998835981e-21
1.167516853e-21
3.080101499e-21
2.712832295e-21
1.000032781e-20
1.121123672e-21
5.250306236e-24
1.037311655e-22
5.787711521e-21
4.355533953e-21
2.043760984e-21
6.114127058e-21
1.533366982e-21
1.100477752e-20
4.610885827e-21
2.504760174e-21
4.323565745e-21
3.574702142e-21
2.445587563e-20
6.465362035e-21
2.756323368e-21
3.319943868e-21
2.268652779e-22
1.991722061e-21
3.905433513e-22
1.001277967e-21
5.799024645e-21
9.904524151e-21
4.546313664e-21
3.512651243e-21
7.021655473e-21
5.40010588e-22
2.804761857e-21
8.668567477e-22
1.168840116e-20
3.444506414e-21
5.002622644e-21
2.671724364e-21
6.080728799e-21
1.165239863e-20
7.960505159e-22
1.697100464e-22
4.404745578e-21
6.815032488e-21
5.366710661e-21
5.518116952e-21
1.041642649e-21
6.218395001e-22
1.430124143e-21
2.276541431e-21
3.328409688e-21
9.313521523e-21
3.705420364e-21
1.364495795e-20
3.174349462e-23
1.941343687e-21
4.728937882e-21
1.163652978e-20
3.185285017e-21
4.167099691e-21
9.055414622e-22
5.33499247e-22
1.079755049e-20
5.06896063e-21
2.913736295e-21
2.398387802e-21
7.067511339e-22
3.065086253e-21
3.401905141e-21
7.935213034e-21
3.92031071e-21
3.30540407e-21
9.208441783e-22
1.343745652e-21
4.760294836e-23
3.979580245e-21
3.286745498e-22
8.561975015e-23
4.514494898e-21
1.894057832e-20
1.552536945e-21
1.579362833e-21
3.170147464e-21
2.506362317e-21
9.438254287e-21
3.699324154e-21
2.391675321e-22
4.001663474e-22
8.953357726e-21
3.256832042e-21
4.892164264e-21
1.24331192e-22
4.44783996e-21
5.334456498e-21
1.025159542e-20
2.087227927e-22
8.811892685e-22
3.659769714e-22
7.308457644e-21
4.124359897e-21
7.906820646e-22
1.164732147e-21
5.03678757e-22
5.439042969e-22
1.886534321e-21
5.248990433e-21
3.117106527e-21
1.94894039e-21
6.692429823e-21
2.054742291e-21
9.381155179e-21
8.634590136e-22
7.698402315e-23
3.622882161e-21
6.474219139e-21
2.116258858e-21
4.829446859e-21
7.001306544e-21
2.353169857e-20
1.240916776e-20
3.799440445e-21
1.054185858e-21
1.592255059e-21
4.362072357e-21
4.802539088e-21
4.188300435e-21
6.941889516e-21
1.825274204e-21
6.464552639e-22
1.435008288e-20
2.609354663e-21
4.489552908e-21
8.648115042e-21
1.334832196e-21
1.962871771e-21
7.013763713e-22
5.469598158e-21
3.857704953e-21
6.625379602e-22
4.127632499e-21
1.011937641e-23
6.326578752e-21
3.970636029e-21
4.026283137e-21
3.508570996e-21
2.505521004e-21
1.339310936e-20
1.246166395e-20
7.781690278e-22
1.484068484e-21
2.302794973e-21
2.805698091e-21
8.82498532e-21
5.334020825e-22
1.878400244e-21
8.74736915e-21
3.252460672e-21
1.879694471e-23
3.038937528e-21
4.528223366e-21
8.18559367e-22
8.299507665e-22
7.184048162e-22
4.192301598e-21
2.065435769e-22
6.748112794e-21
7.677323527e-21
3.005011815e-21
2.55117782e-21
1.347966028e-21
2.807070079e-23
4.219707844e-22
1.906052574e-21
2.461553379e-21
5.107386628e-21
1.381728947e-20
4.771502474e-21
4.585998761e-21
7.006637652e-21
1.915054325e-22
2.008649149e-22
5.569738885e-22
3.318077352e-21
3.908675589e-21
1.915048968e-22
3.756213548e-21
1.237584777e-22
5.53615471e-22
5.074582186e-21
1.84586686e-21
7.680361172e-22
7.510925113e-21
4.265036992e-21
5.89026804e-21
3.077896424e-21
1.484592931e-21
1.915537405e-20
4.689050164e-21
3.166714892e-21
4.212154234e-21
1.420581731e-20
3.594367544e-20
2.543142372e-21
7.538204899e-21
7.869357439e-21
5.425232018e-21
4.120423235e-21
3.684507756e-22
1.385356889e-21
7.067037345e-21
4.234621005e-21
1.12468691e-20
5.512399905e-21
1.707598465e-21
1.350025237e-21
3.176811901e-20
2.568977946e-21
5.236609917e-21
3.514534733e-21
1.632552836e-23
4.303997456e-21
1.495474709e-20
6.47136391e-22
2.483862916e-21
9.792403714e-22
6.80368395e-21
1.281375665e-20
4.641203374e-20
1.657139859e-21
7.956822532e-21
3.197187118e-22
7.035204462e-21
9.767477495e-21
2.696018213e-21
7.691277135e-21
6.795769531e-21
1.899192395e-21
2.954096585e-21
6.158520625e-21
4.423560298e-21
1.015039238e-21
2.242616766e-21
1.250895804e-20
2.631906195e-22
6.041424517e-21
1.435595538e-21
4.340360378e-21
3.076735088e-21
1.911686235e-22
3.187246862e-21
9.474457443e-22
9.101931731e-22
3.673085854e-22
1.061820727e-21
1.212492712e-20
4.684639074e-21
6.522382678e-21
2.960187929e-21
1.97024037e-21
6.433866571e-21
5.629551395e-21
4.929663246e-21
2.457798651e-22
2.376979693e-21