/*--------------------------------*- C++ -*----------------------------------*\
  =========                 |
  \\      /  F ield         | OpenFOAM: The Open Source CFD Toolbox
   \\    /   O peration     | Website:  https://openfoam.org
    \\  /    A nd           | Version:  7
     \\/     M anipulation  |
\*---------------------------------------------------------------------------*/
FoamFile
{
    version     2.0;
    format      ascii;
    class       labelField;
    location    "0.008/lagrangian/dsmc";
    object      origId;
}
// * * * * * * * * * * * * * * * * * * * * * * * * * * * * * * * * * * * * * //


5164
(
348240
348391
348657
348704
406595
348997
349054
406596
349133
349187
349207
349265
349285
349313
349371
349378
349451
349467
349470
349495
349498
349525
349527
349543
349545
349550
349556
349560
349562
349565
349585
349591
349602
349643
349646
349647
349657
349661
349675
349677
349707
349736
349742
349752
349755
349757
349770
349793
349797
349807
349814
349831
349834
349841
349844
349855
349879
349881
349882
349890
349902
349904
349922
349929
349934
349968
349976
349985
349992
349996
350003
350004
350007
350009
350013
350017
350033
350049
350067
350070
350073
350074
350082
350093
350100
350105
350106
350107
350118
350126
350133
350138
350139
350142
350143
350146
350147
350154
350160
350162
350163
350171
350173
350174
350175
350189
350223
350226
350231
350235
350243
350244
350262
350267
350273
350277
350282
350287
350292
350294
350311
350312
350314
350317
350326
350327
350328
350333
350336
350337
350338
350339
350342
350345
350350
350351
350355
350358
350359
350361
350398
350406
350407
350409
350410
350411
350414
350416
350420
350422
350424
350426
350428
350431
350434
350438
350439
350441
350442
350443
350444
350445
350450
350457
350459
350460
350461
350462
350465
350468
350484
350488
350497
350500
350509
350510
350513
350515
350516
350522
350523
350524
350525
350526
350527
350528
350529
350530
350531
350534
350535
350537
350542
350543
350544
350547
350548
350550
350551
350552
350555
350562
350570
350578
350580
350583
350584
350586
350587
350588
350592
350594
350596
350599
350604
350606
350610
350614
350615
350616
350618
350620
350621
350622
350629
350630
350631
350633
350634
350636
350640
350641
350646
350652
350676
350679
350684
350685
350686
350687
350688
350691
350694
350695
350696
350702
350706
350707
350709
350710
350711
350712
350713
350716
350718
350719
350721
350722
350723
350724
350725
350726
350727
350728
350729
350730
350732
350735
350738
350740
350745
350749
408647
350764
350765
350768
350772
350774
350776
350778
350780
350783
350784
350786
350788
350789
350791
350792
350794
350796
350797
350798
350799
350803
350808
350810
350811
350814
350815
350816
350818
350820
350822
350823
350828
350830
350831
350833
350834
350840
350841
350842
350843
350845
350846
350847
350848
350850
350852
350853
350855
350856
350858
350859
350863
350864
350865
350866
350868
350869
350870
350871
350873
350875
350878
350879
350880
350882
350883
350884
350888
350889
350890
350891
350895
350897
350898
350899
350901
350902
350904
350905
350907
350908
350910
350912
350915
350916
350932
350933
350935
350937
350939
350940
350941
350942
350944
350945
350946
350948
350951
350952
350954
350956
350958
350959
350960
350961
350963
350965
350966
350967
350968
350969
350970
350971
350972
350973
350974
350976
350977
350978
350979
350981
350983
350984
350986
350987
350988
350989
350991
350992
350995
350996
351000
351001
351002
351003
351004
351006
351016
351017
351020
351021
351023
351026
351027
351028
351029
351030
351031
351032
351033
351034
351035
351036
351038
351039
351040
351041
351042
351043
351045
351047
351048
351050
351051
351052
351055
351056
351057
351058
351060
351063
351064
351065
351066
351067
351070
351072
351074
351076
351079
351082
351083
351084
351085
351086
351087
408439
351103
351104
351105
351109
351110
351113
351114
351116
351117
351118
351119
351120
351121
351122
351124
351125
351128
351129
351130
351131
351132
351133
351134
351135
351136
351137
351138
351139
351140
351142
351144
351145
351147
351148
351149
351150
351151
351152
351153
351154
351155
351157
351159
351160
351161
351162
351163
351164
351167
351168
351169
351170
351174
351177
351179
351181
408543
351192
351194
351198
351202
351203
351205
351206
351208
351209
351210
351211
351212
351214
351215
351216
351217
351218
351219
351220
351221
351222
351223
351224
351225
351226
351227
351229
351230
351232
351233
351234
351235
351236
351237
351238
351239
351240
351242
351243
351244
351245
351246
351247
351248
351250
351251
351252
351253
351254
351256
351257
351258
351259
351263
351264
351265
351269
351273
409052
351277
351279
351280
351282
351284
351287
351288
351290
351291
351292
351293
351294
351295
351296
351297
351298
351300
351302
351303
351305
351306
351309
351310
351311
351312
351314
351315
351318
351319
351320
351321
351322
351323
351324
351325
351326
351327
351329
351330
351331
351332
351333
351337
351338
351339
351340
351341
351342
351344
351347
351350
408230
351360
351361
351367
351368
351369
351370
351371
351372
351373
351374
351375
351376
351377
351378
351381
351383
351385
351386
351387
351389
351390
351391
351392
351393
351394
351395
351396
351397
351399
351400
351401
351402
351403
351404
351405
351406
351407
351408
351409
351410
351411
351412
351413
351414
351415
351416
351417
351418
351419
351420
351421
351422
351423
351424
351425
351427
351428
351429
351430
351432
351433
351435
351436
351438
351440
351441
406574
351460
351463
351464
351465
351466
351467
351468
351469
351470
351471
351472
351473
351474
351475
351476
351477
351478
351479
351480
351481
351482
351483
351484
351485
351486
351487
351488
351489
351490
351491
351492
351493
351494
351495
351496
351497
351498
351499
351500
351502
351503
351504
351505
351507
351508
351509
351511
351512
351513
351514
351516
351517
351518
351519
351522
351528
351537
351540
351542
351543
351544
351545
351546
351547
351549
351550
351551
351553
351554
351555
351556
351557
351558
351559
351560
351561
351562
351563
351564
351565
351566
351567
351568
351570
351571
351572
351573
351574
351575
351576
351577
351578
351579
351580
351581
351582
351583
351584
351586
351587
351588
351589
351590
351591
351592
351593
351594
351595
351596
351597
351598
351600
351601
351604
351605
351606
351608
351611
351613
351614
409559
409662
409763
351617
351618
351620
351622
351624
351625
351627
351628
351629
351630
351631
351632
351634
351637
351639
351640
351641
351642
351643
351644
351645
351647
351648
351649
351650
351651
351652
351653
351654
351655
351656
351657
351658
351659
351660
351661
351662
351663
351664
351665
351666
351667
351668
351669
351670
351671
351672
351674
351675
351676
351677
351678
351679
351680
351681
351682
351684
351685
351687
351688
351690
351691
351692
351693
351695
351697
407522
409152
351705
351708
351709
351710
351711
351717
351718
351719
351720
351721
351722
351723
351725
351726
351727
351728
351729
351730
351731
351732
351733
351734
351735
351736
351737
351738
351739
351740
351741
351742
351743
351744
351745
351746
351747
351748
351749
351750
351751
351752
351753
351754
351755
351756
351757
351758
351759
351761
351762
351763
351764
351766
351767
351768
351769
351770
351772
351773
351774
351777
351779
351780
351781
351782
351784
408534
408642
408955
409366
409975
351799
351800
351801
351803
351804
351805
351808
351810
351811
351812
351813
351814
351815
351816
351817
351818
351819
351820
351821
351822
351823
351824
351825
351826
351827
351828
351829
351830
351831
351832
351833
351834
351835
351836
351837
351838
351839
351840
351841
351842
351843
351844
351845
351846
351847
351848
351849
351850
351851
351852
351853
351854
351855
351856
351857
351858
351861
351862
351863
351864
351865
351866
351868
351869
351870
409259
351893
351895
351896
351897
351898
351899
351900
351901
351902
351903
351904
351906
351907
351910
351912
351914
351915
351916
351917
351918
351919
351920
351921
351922
351923
351924
351925
351926
351927
351928
351929
351930
351931
351932
351933
351934
351935
351936
351937
351938
351939
351940
351941
351942
351943
351944
351945
351946
351947
351948
351949
351950
351951
351952
351953
351954
351955
351956
351957
351958
351959
351960
351961
351963
351965
351966
351967
351969
351970
351973
351974
409972
351982
351984
351985
351987
351988
351989
351990
351992
351993
351994
351995
351996
351997
351998
351999
352000
352001
352002
352003
352004
352005
352006
352007
352008
352009
352010
352011
352012
352013
352014
352015
352016
352017
352018
352019
352020
352021
352022
352023
352024
352026
352027
352028
352029
352030
352031
352032
352033
352034
352035
352036
352037
352038
352039
352040
352041
352042
352043
352044
352045
352046
352047
352049
352050
352052
352053
352055
352056
352057
408429
410183
352063
352066
352069
352070
352071
352072
352073
352074
352075
352076
352077
352078
352079
352080
352081
352082
352083
352084
352085
352086
352087
352088
352089
352090
352091
352092
352093
352094
352095
352096
352097
352098
352099
352100
352101
352102
352103
352104
352105
352106
352107
352108
352109
352110
352111
352112
352113
352114
352115
352116
352117
352118
352119
352120
352121
352122
352123
352124
352125
352126
352127
352128
352132
352133
352134
352135
352138
352139
352141
408643
409461
352160
352162
352164
352167
352169
352170
352172
352173
352174
352175
352176
352177
352178
352179
352180
352181
352182
352183
352184
352185
352186
352187
352188
352189
352190
352191
352192
352193
352194
352196
352197
352198
352199
352200
352201
352202
352203
352204
352205
352206
352207
352208
352209
352210
352211
352212
352213
352214
352215
352216
352217
352218
352219
352220
352221
352222
352223
352224
352225
352226
352227
352228
352229
352230
352231
352232
352233
352234
352235
352236
352238
352240
352241
352242
352243
352245
410388
352254
352256
352257
352258
352259
352260
352261
352263
352264
352266
352267
352268
352269
352270
352271
352272
352273
352274
352275
352276
352277
352278
352279
352280
352281
352282
352283
352284
352285
352286
352287
352288
352289
352290
352291
352292
352293
352294
352295
352296
352297
352298
352299
352300
352301
352302
352303
352304
352305
352306
352307
352308
352309
352310
352311
352312
352313
352314
352315
352316
352317
352318
352319
352320
352321
352322
352323
352324
352325
352326
352327
352328
352329
352330
352332
349961
410599
352338
352339
352341
352343
352344
352345
352346
352349
352350
352351
352352
352353
352354
352355
352356
352357
352358
352359
352360
352361
352362
352363
352364
352365
352366
352367
352368
352369
352370
352371
352372
352373
352374
352375
352376
352377
352378
352379
352380
352381
352382
352383
352384
352385
352386
352387
352388
352389
352390
352391
352392
352393
352394
352395
352396
352397
352398
352400
352401
352402
352404
352406
352408
352409
352411
352412
408953
409866
410078
352417
352418
352420
352421
352422
352423
352424
352425
352426
352429
352430
352431
352432
352433
352434
352435
352436
352438
352439
352440
352441
352442
352443
352444
352445
352446
352447
352448
352449
352450
352451
352452
352453
352454
352455
352456
352457
352458
352459
352460
352461
352462
352463
352464
352465
352466
352467
352468
352469
352470
352471
352472
352473
352474
352475
352476
352477
352478
352479
352480
352481
352482
352483
352484
352485
352487
352490
352491
352496
352497
352498
352499
349704
352505
352506
352508
352510
352511
352512
352514
352515
352516
352517
352518
352519
352520
352521
352522
352523
352524
352525
352526
352527
352528
352529
352530
352531
352532
352533
352534
352535
352536
352537
352538
352539
352540
352541
352542
352543
352544
352545
352546
352547
352548
352549
352550
352551
352552
352553
352554
352555
352556
352557
352559
352560
352561
352562
352563
352564
352565
352566
352567
352568
352569
352571
352572
352573
352574
352575
352576
352580
352583
352584
352585
352586
352587
352589
404748
352597
352599
352600
352601
352602
352603
352604
352605
352606
352607
352609
352610
352611
352612
352613
352614
352615
352616
352617
352618
352619
352620
352621
352622
352623
352624
352625
352626
352627
352628
352629
352630
352631
352632
352633
352634
352635
352636
352637
352638
352639
352640
352641
352642
352643
352644
352645
352646
352647
352648
352649
352650
352651
352652
352653
352655
352656
352657
352658
352659
352662
352663
352664
352666
352670
352671
352672
352673
352674
352676
407400
409756
410079
410601
410898
352688
352689
352694
352696
352697
352698
352699
352700
352701
352702
352703
352704
352705
352706
352707
352708
352709
352710
352711
352712
352713
352714
352715
352716
352717
352718
352719
352720
352721
352722
352723
352724
352725
352726
352727
352728
352729
352730
352731
352732
352733
352734
352735
352736
352737
352738
352739
352740
352741
352742
352743
352744
352745
352746
352748
352750
352751
352752
352753
352755
352756
409157
409759
410280
410487
410495
410895
352759
352760
352762
352763
352764
352765
352766
352767
352769
352770
352771
352772
352773
352774
352775
352776
352777
352778
352779
352780
352781
352782
352783
352784
352785
352786
352787
352788
352789
352790
352791
352792
352793
352794
352795
352796
352797
352798
352799
352800
352801
352802
352803
352804
352805
352806
352807
352808
352809
352810
352811
352812
352813
352814
352815
352816
352817
352818
352819
352820
352821
352822
352823
352824
352825
352826
352827
352828
352829
352831
352832
352835
352836
352837
352839
352842
352843
352844
352845
409255
410180
410384
410600
352851
352852
352853
352854
352855
352857
352858
352859
352860
352862
352863
352864
352865
352867
352868
352869
352870
352871
352872
352873
352874
352875
352876
352877
352878
352879
352880
352881
352882
352883
352884
352885
352886
352887
352888
352889
352890
352891
352892
352893
352894
352895
352896
352897
352898
352899
352900
352901
352902
352904
352905
352906
352907
352908
352909
352910
352911
352912
352914
352915
352916
352917
352918
352919
352920
352921
352922
352923
352924
352925
352928
352929
352930
352931
352934
410176
352939
352943
352945
352946
352947
352948
352949
352951
352952
352953
352954
352955
352956
352957
352958
352959
352960
352961
352962
352963
352964
352965
352967
352968
352969
352970
352971
352972
352973
352974
352975
352976
352977
352978
352979
352980
352981
352982
352983
352984
352985
352986
352987
352988
352989
352990
352991
352992
352993
352994
352995
352996
352997
352998
352999
353000
353001
353002
353004
353005
353006
353007
353008
353009
353010
353011
353012
353015
353016
353017
353018
353019
353020
409045
351894
411199
353028
353030
353031
353033
353034
353035
353037
353038
353039
353040
353041
353043
353044
353045
353046
353048
353049
353050
353051
353052
353053
353054
353055
353056
353057
353058
353059
353060
353061
353062
353063
353064
353065
353066
353067
353068
353069
353070
353071
353072
353073
353074
353075
353076
353077
353078
353079
353080
353081
353082
353083
353084
353085
353086
353087
353088
353089
353090
353091
353092
353093
353094
353095
353097
353098
353099
353100
353101
353102
353104
353106
353109
353110
353112
408435
409151
409660
410184
410795
411293
353120
353121
353124
353126
353127
353128
353129
353130
353131
353132
353133
353134
353135
353136
353137
353138
353139
353140
353141
353142
353143
353144
353145
353146
353147
353148
353149
353150
353151
353152
353153
353154
353155
353156
353157
353158
353159
353160
353161
353162
353163
353164
353165
353166
353167
353168
353169
353170
353171
353172
353173
353174
353175
353176
353177
353178
353179
353181
353183
353184
353186
353187
353188
353189
353190
353191
353192
353193
353194
353197
353198
408536
409960
410383
353203
353204
353209
353210
353211
353212
353213
353214
353215
353216
353217
353218
353219
353220
353221
353222
353223
353224
353225
353226
353227
353228
353229
353230
353231
353232
353233
353234
353235
353236
353237
353238
353239
353240
353241
353242
353243
353244
353245
353246
353247
353248
353249
353250
353251
353252
353253
353254
353255
353256
353257
353258
353259
353260
353261
353262
353263
353264
353265
353266
353267
353268
353269
353270
353271
353274
353275
353276
353277
353279
353280
353281
353285
353287
353288
353290
408434
409247
409560
353301
353303
353305
353306
353307
353308
353309
353310
353311
353312
353313
353314
353315
353316
353317
353318
353319
353320
353321
353322
353323
353324
353325
353326
353327
353328
353329
353330
353331
353332
353333
353334
353335
353336
353337
353338
353339
353340
353341
353342
353343
353344
353345
353346
353347
353348
353349
353350
353351
353352
353353
353354
353355
353356
353357
353358
353359
353360
353361
353362
353363
353364
353365
353366
353367
353368
353370
353371
353372
353373
353375
353376
353380
353381
353382
353383
406689
409859
411503
411608
350512
353389
353391
353392
353393
353394
353395
353397
353398
353399
353400
353401
353402
353403
353404
353405
353406
353407
353408
353409
353410
353411
353412
353413
353414
353415
353416
353417
353418
353419
353420
353421
353422
353423
353424
353425
353426
353427
353428
353429
353430
353431
353432
353433
353434
353435
353436
353437
353438
353439
353440
353441
353442
353443
353444
353445
353446
353448
353450
353451
353452
353454
353455
353457
353458
353460
353461
353462
353463
353464
409044
410999
353469
353474
353476
353477
353478
353479
353480
353481
353483
353484
353486
353487
353488
353489
353490
353491
353492
353493
353494
353495
353496
353497
353498
353499
353500
353501
353502
353503
353504
353505
353506
353507
353508
353509
353510
353511
353512
353513
353514
353515
353516
353517
353518
353519
353520
353521
353522
353523
353524
353525
353526
353527
353528
353529
353530
353531
353532
353533
353534
353535
353536
353537
353539
353540
353541
353543
353544
353545
353547
353549
353550
353551
353552
353554
353555
353556
353562
353565
353566
353567
353568
353570
353571
353572
353573
353574
353575
353576
353577
353578
353579
353580
353581
353582
353583
353584
353585
353586
353587
353588
353589
353590
353591
353592
353593
353594
353595
353596
353597
353598
353599
353600
353601
353602
353603
353604
353605
353606
353607
353608
353609
353610
353611
353612
353613
353614
353615
353616
353617
353618
353619
353620
353621
353622
353623
353624
353625
353626
353627
353628
353629
353630
353631
353632
353633
353634
353635
353636
353640
353641
353642
353643
408024
408324
411924
353652
353653
353655
353656
353658
353659
353660
353661
353663
353664
353665
353666
353667
353668
353669
353670
353671
353672
353673
353674
353675
353676
353677
353678
353679
353680
353681
353682
353683
353684
353685
353686
353687
353688
353689
353690
353691
353692
353693
353694
353695
353696
353697
353698
353699
353700
353701
353702
353703
353704
353705
353706
353707
353708
353709
353710
353711
353712
353713
353714
353715
353716
353717
353718
353719
353720
353721
353722
353724
353726
353727
353729
353730
353731
353732
409365
409258
409968
411505
353738
353741
353742
353743
353744
353745
353747
353748
353749
353750
353751
353752
353753
353755
353756
353757
353758
353759
353760
353761
353762
353763
353764
353765
353766
353767
353768
353769
353770
353771
353772
353773
353774
353775
353776
353777
353778
353779
353780
353781
353782
353783
353784
353785
353786
353787
353788
353789
353790
353791
353792
353793
353794
353795
353796
353797
353798
353799
353800
353801
353802
353803
353804
353805
353806
353810
353811
353813
353814
353815
353817
353818
353820
353821
353822
409760
350395
411196
353826
353828
353829
353830
353831
353832
353834
353835
353836
353837
353838
353839
353840
353841
353842
353843
353844
353845
353846
353847
353848
353849
353850
353851
353852
353853
353854
353855
353856
353857
353858
353859
353860
353861
353862
353863
353864
353865
353866
353867
353868
353869
353870
353871
353872
353873
353874
353875
353876
353877
353878
353879
353880
353881
353882
353883
353884
353885
353886
353887
353888
353889
353890
353891
353892
353893
353895
353896
353898
353900
353902
410274
410997
411399
351197
412432
353905
353907
353909
353910
353911
353912
353913
353914
353915
353916
353917
353918
353919
353920
353921
353922
353923
353924
353925
353926
353927
353928
353929
353930
353931
353932
353933
353934
353935
353936
353937
353938
353939
353940
353941
353942
353943
353944
353945
353946
353947
353948
353949
353950
353951
353952
353953
353954
353955
353956
353957
353958
353959
353960
353961
353962
353963
353964
353965
353966
353967
353968
353969
353970
353971
353972
353973
353974
353975
353976
353977
353978
353980
353982
353983
353985
353986
353987
353988
353989
406687
408432
409655
410387
410484
411002
411606
353991
353992
353993
353994
353995
353996
353997
353998
353999
354000
354001
354002
354003
354004
354005
354006
354007
354008
354009
354010
354011
354012
354013
354014
354015
354016
354017
354018
354019
354020
354021
354022
354023
354024
354025
354026
354027
354028
354029
354030
354031
354032
354033
354034
354035
354036
354037
354038
354039
354040
354041
354042
354043
354044
354045
354046
354047
354048
354049
354050
354051
354052
354053
354054
354055
354056
354057
354059
354062
354063
354064
354065
354066
354068
408840
410592
351025
412335
412431
354076
354079
354080
354082
354083
354084
354085
354086
354087
354088
354089
354090
354091
354092
354093
354094
354095
354096
354097
354098
354099
354100
354101
354102
354103
354104
354105
354106
354107
354108
354109
354110
354111
354112
354113
354114
354115
354116
354117
354118
354119
354120
354121
354122
354123
354124
354125
354126
354127
354128
354129
354130
354131
354132
354133
354134
354135
354136
354137
354138
354139
354140
354141
354142
354143
354144
354145
354146
354147
354148
354149
354150
354151
354152
354153
354154
354155
354161
354162
354163
354164
350213
409447
410386
411604
412227
354168
354171
354172
354174
354175
354176
354177
354178
354179
354180
354181
354182
354183
354184
354185
354186
354187
354188
354189
354190
354191
354192
354193
354194
354195
354196
354197
354198
354199
354200
354201
354202
354203
354204
354205
354206
354207
354208
354209
354210
354211
354212
354213
354214
354215
354216
354217
354218
354219
354220
354221
354222
354223
354224
354225
354226
354227
354228
354229
354230
354231
354233
354234
354235
354236
354237
354238
354240
354242
354243
409971
410993
411406
411815
354249
354250
354251
354252
354254
354255
354256
354257
354258
354259
354260
354261
354262
354263
354264
354265
354266
354267
354268
354269
354270
354271
354272
354273
354274
354275
354276
354277
354278
354279
354280
354281
354282
354283
354284
354285
354286
354287
354288
354289
354290
354291
354292
354293
354294
354295
354296
354297
354298
354299
354300
354301
354302
354303
354304
354305
354306
354307
354308
354309
354310
354311
354312
354313
354314
354315
354316
354319
354320
354321
354324
354327
354328
354329
354330
407621
408852
408856
409352
352161
351207
412739
412840
354333
354336
354337
354338
354339
354341
354342
354343
354344
354345
354346
354347
354348
354349
354350
354351
354352
354353
354354
354355
354356
354357
354358
354359
354360
354361
354362
354363
354364
354365
354366
354367
354368
354369
354370
354371
354372
354373
354374
354375
354376
354377
354378
354379
354380
354381
354382
354383
354384
354385
354386
354387
354388
354389
354390
354391
354392
354393
354394
354395
354396
354397
354398
354399
354400
354401
354402
354403
354404
354405
354406
354407
354408
354409
354410
354411
354412
354413
354416
354418
354419
354421
354422
354423
354424
354425
354426
354427
410593
410781
411101
411292
411710
412020
412023
354434
354435
354436
354437
354438
354440
354441
354443
354444
354445
354446
354447
354448
354449
354450
354451
354452
354453
354454
354455
354456
354457
354458
354459
354460
354461
354462
354463
354464
354465
354466
354467
354468
354469
354470
354471
354472
354473
354474
354475
354476
354477
354478
354479
354480
354481
354482
354483
354484
354485
354486
354487
354488
354489
354490
354491
354492
354493
354494
354495
354496
354497
354499
354500
354501
354502
354503
354504
354505
354506
354507
354508
354509
354510
354511
354512
409144
410272
410489
411805
411810
353739
354518
354521
354522
354523
354524
354525
354526
354527
354528
354529
354530
354531
354532
354533
354534
354535
354536
354537
354538
354539
354540
354541
354542
354543
354544
354545
354546
354547
354548
354549
354550
354551
354552
354553
354554
354555
354556
354557
354558
354559
354560
354561
354562
354563
354564
354565
354566
354567
354568
354569
354570
354571
354572
354573
354574
354575
354576
354577
354578
354579
354580
354581
354582
354583
354584
354585
354586
354588
354589
354590
354592
354593
354594
354595
354596
354597
354598
354600
354601
354602
354603
354604
354605
354606
409359
411195
413250
354610
354614
354615
354616
354617
354618
354619
354620
354621
354622
354623
354624
354625
354626
354627
354628
354629
354630
354631
354632
354633
354634
354635
354636
354637
354638
354639
354640
354641
354642
354643
354644
354645
354646
354647
354648
354649
354650
354651
354652
354653
354654
354655
354656
354657
354658
354659
354660
354661
354662
354663
354664
354665
354666
354667
354668
354669
354670
354671
354672
354673
354674
354675
354676
354677
354678
354679
354680
354681
354682
354684
354688
354689
354690
354691
354692
354693
354694
354695
409149
409862
410684
412529
353651
354701
354702
354703
354705
354706
354707
354708
354709
354710
354711
354713
354714
354715
354716
354717
354718
354719
354720
354721
354722
354723
354724
354725
354726
354727
354728
354729
354730
354731
354732
354733
354734
354735
354736
354737
354738
354739
354740
354741
354742
354743
354744
354745
354746
354747
354748
354749
354750
354751
354752
354753
354754
354755
354756
354757
354758
354759
354760
354761
354762
354763
354764
354765
354766
354767
354768
354769
354770
354771
354772
354773
354774
354775
354776
354779
354780
354781
354782
354783
354784
354786
354787
354789
410686
410887
410897
411396
412226
412528
354795
354798
354799
354800
354801
354802
354803
354804
354805
354806
354807
354808
354809
354810
354811
354812
354813
354814
354815
354816
354817
354818
354819
354820
354821
354822
354823
354824
354825
354826
354827
354828
354829
354830
354831
354832
354833
354834
354835
354836
354837
354838
354839
354840
354841
354842
354843
354844
354845
354846
354847
354848
354849
354850
354851
354852
354853
354854
354855
354856
354857
354858
354859
354860
354861
354862
354863
354864
354865
354866
354867
354868
354869
354871
354872
354874
354875
354876
354878
354879
354880
354881
354882
354883
412221
412330
412523
412738
413137
354886
354887
354888
354889
354890
354891
354893
354894
354895
354896
354897
354898
354899
354900
354901
354902
354903
354904
354905
354906
354907
354908
354909
354910
354911
354912
354913
354914
354915
354916
354917
354918
354919
354920
354921
354922
354923
354924
354925
354926
354927
354928
354929
354930
354931
354932
354933
354934
354935
354936
354937
354938
354939
354940
354941
354942
354943
354944
354945
354946
354947
354948
354949
354950
354951
354952
354953
354954
354955
354956
354957
354958
354959
354960
354963
409249
410671
410789
410792
410896
412022
354967
354969
354970
354973
354974
354975
354976
354977
354978
354979
354980
354981
354982
354983
354984
354985
354986
354987
354988
354989
354990
354991
354992
354993
354994
354995
354996
354997
354998
354999
355000
355001
355002
355003
355004
355005
355006
355007
355008
355009
355010
355011
355012
355013
355014
355015
355016
355017
355018
355019
355020
355021
355022
355023
355024
355025
355026
355027
355028
355029
355030
355031
355032
355033
355034
355035
355036
355037
355038
355039
355040
355041
355042
355043
355044
355045
355046
355049
355051
355053
355054
355055
355056
355058
355059
355060
401147
409453
351456
412332
355062
355063
355065
355067
355068
355069
355070
355071
355072
355073
355074
355075
355076
355077
355078
355079
355080
355081
355082
355083
355084
355085
355086
355087
355088
355089
355090
355091
355092
355093
355094
355095
355096
355097
355098
355099
355100
355101
355102
355103
355104
355105
355106
355107
355108
355109
355110
355111
355112
355113
355114
355115
355116
355117
355118
355119
355120
355121
355122
355123
355124
355125
355126
355127
355128
355129
355130
355131
355132
355134
355135
355136
355137
355138
355139
408609
409545
409851
353827
355142
355143
355144
355145
355146
355147
355148
355149
355150
355151
355152
355153
355154
355155
355156
355157
355158
355159
355160
355161
355162
355163
355164
355165
355166
355167
355168
355169
355170
355171
355172
355173
355174
355175
355176
355177
355178
355179
355180
355181
355182
355183
355184
355185
355186
355187
355188
355189
355190
355191
355192
355193
355194
355195
355196
355197
355198
355199
355200
355201
355202
355203
355204
355205
355206
355207
355208
355209
355210
355211
355212
355213
355215
355216
355217
355218
355220
355221
355222
355223
355224
355225
355226
407933
408411
409357
410067
350771
412121
413756
355229
355231
355232
355233
355234
355235
355236
355237
355238
355239
355240
355241
355242
355243
355244
355245
355246
355247
355248
355249
355250
355251
355252
355253
355254
355255
355256
355257
355258
355259
355260
355261
355262
355263
355264
355265
355266
355267
355268
355269
355270
355271
355272
355273
355274
355275
355276
355277
355278
355279
355280
355281
355282
355283
355284
355285
355286
355287
355288
355289
355290
355291
355292
355293
355294
355295
355296
355297
355298
355299
355300
355301
355302
355303
355304
355306
355307
409544
410371
410880
411003
411696
412224
413561
355311
355312
355313
355314
355315
355316
355317
355318
355319
355320
355321
355322
355323
355324
355325
355326
355327
355328
355329
355330
355331
355332
355333
355334
355335
355336
355337
355338
355339
355340
355341
355342
355343
355344
355345
355346
355347
355348
355349
355350
355351
355352
355353
355354
355355
355356
355357
355358
355359
355360
355361
355362
355363
355364
355365
355366
355367
355368
355369
355370
355371
355372
355373
355374
355375
355376
355377
355378
355379
355380
355381
355382
355383
355384
355385
355386
355387
355388
355389