/*--------------------------------*- C++ -*----------------------------------*\
  =========                 |
  \\      /  F ield         | OpenFOAM: The Open Source CFD Toolbox
   \\    /   O peration     | Website:  https://openfoam.org
    \\  /    A nd           | Version:  7
     \\/     M anipulation  |
\*---------------------------------------------------------------------------*/
FoamFile
{
    version     2.0;
    format      ascii;
    class       volScalarField;
    location    "0.0125";
    object      internalE;
}
// * * * * * * * * * * * * * * * * * * * * * * * * * * * * * * * * * * * * * //

dimensions      [1 -1 -2 0 0 0 0];

internalField   nonuniform List<scalar> 
250
(
0.209992
0.224795
0.224376
0.224107
0.220462
0.221211
0.217258
0.206737
0.197522
0.222458
0.246528
0.209919
0.220454
0.218029
0.221055
0.217703
0.2135
0.18704
0.214596
0.215619
0.207362
0.218133
0.202877
0.198559
0.215237
0.219288
0.211659
0.218723
0.213627
0.213112
0.218125
0.230142
0.208251
0.196149
0.218196
0.226374
0.205622
0.218445
0.209531
0.218916
0.232798
0.199755
0.228519
0.226343
0.219664
0.210633
0.221597
0.22532
0.228864
0.22787
0.202845
0.216929
0.216449
0.216663
0.213178
0.207219
0.222145
0.209853
0.225526
0.211939
0.227931
0.208379
0.221569
0.227471
0.217514
0.229748
0.224423
0.248527
0.215654
0.207862
0.208607
0.221522
0.2176
0.213529
0.213427
0.213449
0.227993
0.214403
0.218133
0.225806
0.212573
0.212959
0.206184
0.235512
0.224027
0.204777
0.219192
0.235654
0.210231
0.230165
0.228899
0.213274
0.213614
0.2216
0.213598
0.218956
0.217756
0.21995
0.229304
0.221929
0.220195
0.213051
0.20776
0.210528
0.206727
0.211979
0.238279
0.220889
0.200134
0.208175
0.216399
0.20611
0.221232
0.221658
0.201177
0.224606
0.198593
0.214835
0.218561
0.226177
0.228965
0.219196
0.218669
0.205598
0.207248
0.21631
0.207137
0.212232
0.222468
0.215895
0.220613
0.212085
0.20948
0.222349
0.214564
0.213035
0.224117
0.216773
0.21877
0.209686
0.212917
0.221162
0.221822
0.220629
0.217003
0.218308
0.229552
0.219259
0.204578
0.23541
0.227544
0.22114
0.226379
0.233744
0.208499
0.208087
0.226506
0.227869
0.218891
0.21202
0.218898
0.202256
0.224082
0.2111
0.203288
0.216111
0.210787
0.227635
0.208008
0.222231
0.21575
0.222614
0.219087
0.232604
0.21933
0.223845
0.233932
0.190102
0.23231
0.215906
0.216958
0.204525
0.210299
0.216826
0.219362
0.226101
0.209446
0.221102
0.234704
0.218137
0.197994
0.215914
0.217516
0.236199
0.218936
0.229234
0.224876
0.215282
0.205625
0.207626
0.204157
0.212166
0.208737
0.217864
0.206666
0.231748
0.213325
0.203996
0.223575
0.197305
0.207251
0.208834
0.216807
0.212425
0.220008
0.223815
0.21927
0.210367
0.212904
0.220033
0.204559
0.199592
0.217089
0.220759
0.207764
0.193624
0.210594
0.229653
0.229659
0.201827
0.218091
0.216306
0.219448
0.222067
0.209574
0.217606
0.212958
0.202884
0.198344
0.219683
0.220765
0.22112
0.230837
0.211533
0.227667
0.230927
0.236487
0.214095
0.21136
0.209855
)
;

boundaryField
{
    sides
    {
        type            symmetry;
    }
    empty
    {
        type            empty;
    }
    procBoundary0to1
    {
        type            processor;
        value           uniform 0.208834;
    }
}


// ************************************************************************* //
