/*--------------------------------*- C++ -*----------------------------------*\
  =========                 |
  \\      /  F ield         | OpenFOAM: The Open Source CFD Toolbox
   \\    /   O peration     | Website:  https://openfoam.org
    \\  /    A nd           | Version:  7
     \\/     M anipulation  |
\*---------------------------------------------------------------------------*/
FoamFile
{
    version     2.0;
    format      ascii;
    class       volScalarField;
    location    "0.0125";
    object      linearKE;
}
// * * * * * * * * * * * * * * * * * * * * * * * * * * * * * * * * * * * * * //

dimensions      [1 -1 -2 0 0 0 0];

internalField   nonuniform List<scalar> 
250
(
0.310632
0.330035
0.340137
0.33189
0.318472
0.326318
0.331331
0.294889
0.309751
0.312203
0.347853
0.325661
0.317843
0.320289
0.325353
0.296668
0.319263
0.295006
0.31977
0.307607
0.314604
0.311235
0.315069
0.30366
0.322893
0.312711
0.324069
0.312607
0.335153
0.331568
0.3138
0.327457
0.327495
0.311928
0.31303
0.332929
0.309681
0.305201
0.315519
0.335081
0.339706
0.309157
0.329163
0.322212
0.320779
0.308257
0.321808
0.325393
0.324007
0.318902
0.329326
0.30635
0.339925
0.32223
0.324071
0.297628
0.341337
0.314798
0.323308
0.313897
0.322445
0.310075
0.327279
0.334143
0.311401
0.337609
0.334064
0.344878
0.328437
0.309704
0.310047
0.305373
0.324355
0.315817
0.326751
0.324767
0.323847
0.303156
0.327409
0.34415
0.319055
0.339782
0.30738
0.339269
0.326244
0.307487
0.312833
0.337674
0.337427
0.32714
0.312114
0.334395
0.335356
0.318772
0.334033
0.337838
0.338361
0.307193
0.320186
0.316182
0.329674
0.341593
0.331095
0.323128
0.326836
0.319043
0.343575
0.314989
0.333386
0.29511
0.331898
0.311946
0.326923
0.347752
0.315671
0.349864
0.312006
0.308764
0.327452
0.339789
0.334992
0.343904
0.317527
0.305103
0.319277
0.309659
0.32714
0.296556
0.328956
0.318554
0.32842
0.326335
0.30231
0.328083
0.310513
0.317548
0.331096
0.32312
0.330423
0.332766
0.32803
0.317547
0.335504
0.321051
0.329186
0.342889
0.320821
0.31501
0.29976
0.342919
0.332421
0.320407
0.315084
0.32529
0.316833
0.325324
0.311089
0.320709
0.308519
0.338644
0.326978
0.328165
0.30021
0.308665
0.318375
0.330423
0.324689
0.356055
0.312295
0.339871
0.327198
0.342556
0.319676
0.330523
0.335306
0.335512
0.333684
0.327376
0.340545
0.336011
0.317853
0.30992
0.303983
0.330359
0.327692
0.33592
0.334758
0.31141
0.320507
0.304835
0.301396
0.327238
0.310057
0.326959
0.323486
0.323928
0.318191
0.325832
0.326144
0.313093
0.314178
0.316869
0.307055
0.313296
0.328216
0.346364
0.324226
0.317049
0.317597
0.29271
0.313554
0.327676
0.326816
0.308496
0.326482
0.335011
0.319549
0.298208
0.315756
0.318657
0.315328
0.300891
0.328563
0.323564
0.310897
0.318056
0.31658
0.343332
0.334434
0.299396
0.322873
0.336548
0.322631
0.334666
0.320033
0.309902
0.341165
0.30312
0.298542
0.329514
0.320311
0.333848
0.334571
0.311881
0.347325
0.310712
0.343599
0.321187
0.296643
0.319446
)
;

boundaryField
{
    sides
    {
        type            symmetry;
    }
    empty
    {
        type            empty;
    }
    procBoundary0to1
    {
        type            processor;
        value           uniform 0.309862;
    }
}


// ************************************************************************* //
