/*--------------------------------*- C++ -*----------------------------------*\
  =========                 |
  \\      /  F ield         | OpenFOAM: The Open Source CFD Toolbox
   \\    /   O peration     | Website:  https://openfoam.org
    \\  /    A nd           | Version:  7
     \\/     M anipulation  |
\*---------------------------------------------------------------------------*/
FoamFile
{
    version     2.0;
    format      ascii;
    class       volVectorField;
    location    "0.0125";
    object      momentum;
}
// * * * * * * * * * * * * * * * * * * * * * * * * * * * * * * * * * * * * * //

dimensions      [1 -2 -1 0 0 0 0];

internalField   nonuniform List<vector> 
250
(
(9.61712e-05 8.18945e-05 4.55647e-06)
(-2.859e-05 -1.66853e-05 -3.78476e-05)
(6.21435e-05 -4.17671e-05 5.99192e-05)
(-5.39876e-06 -5.85718e-05 -2.38486e-05)
(-3.55381e-05 4.68291e-06 -9.44125e-05)
(-1.29095e-05 -7.64658e-05 -1.88782e-05)
(-3.12821e-05 9.91055e-05 -2.08549e-05)
(-6.80771e-05 -3.03597e-05 -4.10841e-05)
(9.3803e-05 -9.27326e-06 -9.20879e-05)
(3.44807e-05 3.11071e-05 1.33673e-05)
(-5.12973e-05 1.32911e-05 1.50574e-05)
(5.54465e-05 7.85343e-05 9.05061e-06)
(4.12493e-05 6.83738e-05 1.37048e-05)
(6.51121e-06 -2.79261e-05 -2.18071e-05)
(2.43639e-05 8.81146e-05 5.06311e-05)
(1.87664e-05 2.95919e-05 3.90559e-05)
(-2.76286e-05 2.30246e-05 -2.72029e-05)
(-3.13379e-05 -7.12918e-06 -2.64131e-05)
(4.44833e-07 3.16017e-05 2.45054e-05)
(4.92028e-05 -1.00637e-05 6.74426e-06)
(-5.6799e-05 1.89135e-05 7.44343e-05)
(5.40211e-05 2.38461e-05 -3.07211e-06)
(3.13744e-05 -3.18188e-05 -4.17762e-05)
(6.56923e-05 1.02968e-05 -7.6405e-06)
(4.96306e-05 -1.6143e-05 -4.0923e-05)
(2.80618e-05 -8.31513e-05 -7.90866e-06)
(4.52374e-05 -6.05384e-05 -1.96899e-05)
(5.54443e-05 -4.78729e-05 2.09148e-05)
(-7.54332e-05 4.1018e-05 5.01633e-06)
(3.99173e-05 5.44806e-06 -1.9595e-05)
(4.13335e-05 2.19653e-05 3.87107e-05)
(3.85837e-05 -7.83162e-05 -5.40806e-05)
(4.59769e-05 2.52361e-06 -1.35615e-05)
(4.82209e-05 -1.52119e-05 -5.51719e-05)
(-2.7524e-05 -2.77757e-05 -3.61736e-05)
(-5.44881e-05 -4.35717e-05 -7.9081e-06)
(1.09114e-05 -3.35311e-05 2.48774e-05)
(4.03429e-05 -5.92518e-05 -2.98206e-05)
(5.79922e-05 1.30419e-05 -4.66895e-05)
(4.5408e-05 0.000121446 4.8396e-05)
(3.96192e-07 2.0145e-05 -1.52803e-05)
(4.60353e-05 -9.89039e-05 1.5655e-05)
(7.66693e-05 1.95554e-05 -5.1292e-05)
(2.84358e-05 -2.90718e-05 1.41702e-05)
(4.68076e-05 0.000125421 -1.34381e-05)
(-1.60072e-05 -2.45189e-05 -3.68466e-05)
(1.54109e-05 3.23517e-05 -2.47547e-05)
(5.90054e-05 6.2025e-06 2.95621e-05)
(4.4265e-05 4.13872e-06 -4.20257e-05)
(3.33506e-05 4.11943e-06 4.02771e-05)
(3.88915e-05 5.46333e-05 1.95848e-05)
(8.20081e-05 8.68908e-05 2.95806e-05)
(6.25043e-05 -4.31973e-05 3.08533e-05)
(2.44853e-05 -1.38789e-06 6.72075e-06)
(0.000100349 -7.37635e-05 -3.33764e-05)
(0.000122489 3.08898e-05 -1.84768e-05)
(-1.96196e-06 3.50422e-05 -8.61532e-05)
(4.07793e-05 -7.29492e-05 0.000106346)
(5.08313e-05 8.76251e-06 -7.59927e-05)
(6.49235e-05 -6.92419e-05 6.0944e-05)
(8.68718e-05 6.47767e-05 0.000116731)
(7.27653e-05 -9.37374e-06 -4.37627e-05)
(6.18682e-05 4.39643e-05 2.6518e-05)
(2.8976e-05 9.68587e-05 4.47448e-05)
(9.50646e-06 5.49352e-05 -3.17503e-05)
(9.11505e-05 -6.98769e-05 -0.0001007)
(5.13569e-05 5.02163e-05 1.26764e-05)
(7.33549e-05 -5.70051e-05 3.95235e-05)
(7.22217e-05 6.38369e-06 -5.25693e-05)
(1.54673e-05 -3.8213e-07 6.69379e-06)
(0.000108288 -1.92258e-05 3.3184e-05)
(0.000125465 -2.02806e-05 -1.88378e-06)
(3.91693e-05 -7.20567e-05 -7.03692e-05)
(6.10276e-05 -8.03503e-06 -3.39865e-05)
(0.000116142 0.000105111 -6.20072e-05)
(7.72926e-05 1.06223e-05 -7.53287e-05)
(0.000100557 1.06721e-05 -2.93977e-05)
(2.92651e-05 2.90533e-05 3.54643e-05)
(6.47428e-05 6.24267e-05 -7.21124e-05)
(5.76019e-05 -2.58554e-05 -7.52531e-05)
(5.52938e-05 3.60496e-05 3.69909e-05)
(9.6989e-05 3.73615e-05 4.77003e-06)
(0.000104712 5.86881e-05 -7.32856e-05)
(9.30069e-05 7.6685e-05 -5.12978e-06)
(9.81502e-05 -2.6615e-05 1.65786e-05)
(7.72242e-05 -1.22403e-05 6.01388e-06)
(4.38527e-05 -3.17759e-05 6.7706e-06)
(7.60783e-05 -3.43973e-05 -1.94303e-05)
(3.4856e-05 4.79286e-06 -2.0265e-05)
(9.15997e-05 -1.11124e-05 3.69694e-05)
(8.51678e-05 -4.72908e-05 9.44699e-06)
(5.05198e-05 3.6248e-05 -2.62571e-05)
(6.70656e-05 -1.29246e-05 1.99135e-05)
(0.000115892 -1.31449e-05 1.70994e-05)
(8.20601e-06 2.21398e-06 -1.33605e-05)
(0.000102427 2.52349e-05 -1.54994e-05)
(4.42551e-05 1.10739e-05 2.02049e-05)
(0.000119581 -9.04592e-06 -1.71607e-05)
(6.83142e-05 -5.33496e-05 1.81061e-05)
(0.000119548 4.00066e-05 2.20291e-05)
(4.18485e-05 1.31417e-05 2.34306e-05)
(0.000170655 7.55028e-06 4.69026e-05)
(5.85724e-05 -9.51099e-06 6.02653e-05)
(0.000104631 5.72142e-05 -1.17644e-05)
(0.000106645 -3.71101e-05 1.882e-05)
(0.000104869 3.70261e-05 -1.35846e-05)
(0.000106966 -1.02368e-06 7.20877e-05)
(7.21317e-05 -4.26835e-05 -5.38909e-05)
(0.000141652 -5.6778e-05 1.4277e-05)
(5.6883e-05 1.86646e-05 -1.18842e-05)
(0.000132509 2.60583e-05 3.32512e-06)
(8.11986e-05 8.44045e-06 -2.63697e-05)
(9.42577e-05 2.98456e-05 1.80718e-05)
(0.000183721 -3.12742e-05 -5.91349e-05)
(0.000105982 -3.14508e-06 -4.04384e-05)
(0.000127466 -4.61087e-06 -3.91321e-05)
(8.00285e-05 -1.76929e-06 -8.27619e-05)
(9.08811e-05 -1.77028e-05 1.46379e-05)
(0.000144278 -7.3099e-06 -3.61131e-05)
(0.000148689 -2.39294e-05 3.98046e-07)
(0.000145413 -2.40952e-05 5.90853e-06)
(0.000179049 1.49041e-05 -3.89329e-06)
(7.11677e-05 5.2014e-05 -2.96959e-05)
(4.94394e-05 5.19962e-05 1.12913e-05)
(8.35701e-05 4.9696e-07 4.25057e-05)
(5.05033e-05 -3.21752e-05 2.97235e-05)
(0.000138158 -7.97685e-05 -6.44665e-05)
(9.49645e-05 -2.68572e-05 -2.17691e-05)
(0.000152199 -3.045e-05 1.54619e-05)
(0.000123734 1.63935e-05 -1.27035e-06)
(0.000125626 6.42838e-05 7.07811e-05)
(0.000108671 -2.19113e-05 4.69158e-05)
(4.75755e-05 1.65373e-05 6.47381e-05)
(0.000125549 1.82999e-05 -4.64702e-05)
(0.000125741 7.49242e-06 5.91603e-05)
(0.000179894 -3.09434e-05 3.56704e-05)
(9.5932e-05 -2.85873e-05 4.94939e-06)
(0.000137672 7.14374e-06 -1.04163e-05)
(0.000139745 1.49672e-05 -9.26143e-05)
(0.000167522 6.52611e-05 8.86565e-05)
(0.000123024 1.06969e-05 -3.29419e-05)
(0.00013683 6.32947e-06 3.30372e-05)
(0.000152897 -1.07598e-05 1.64776e-06)
(0.000110137 -5.90165e-06 4.49004e-05)
(0.000174551 3.51843e-05 -7.27499e-05)
(0.00017167 3.4794e-05 2.58191e-06)
(0.000149845 -7.65348e-06 4.21619e-05)
(0.000117163 -2.0789e-05 -2.49932e-05)
(0.000172255 -4.66304e-06 0.000108307)
(0.000192922 2.53954e-05 5.46816e-05)
(0.000209077 5.98435e-05 2.55642e-05)
(0.000134167 -5.86149e-07 1.02244e-05)
(0.000135077 -2.05044e-05 7.6551e-05)
(0.000155592 -1.53477e-05 5.45138e-05)
(0.000121784 -3.3502e-05 -6.11469e-05)
(0.00015169 -5.02919e-05 -2.25917e-05)
(0.000170597 5.05456e-05 -3.42695e-05)
(0.000166244 4.42352e-05 -1.35556e-06)
(0.000200852 -5.40229e-05 4.39674e-05)
(0.000107294 -1.73401e-05 5.42351e-05)
(0.000202327 -6.25029e-05 -6.57222e-06)
(9.36812e-05 8.73401e-05 4.32843e-05)
(9.18633e-05 -3.2484e-05 -4.85834e-05)
(0.000138008 3.98719e-05 2.37134e-05)
(0.000122209 -6.88028e-05 5.48054e-05)
(0.000158189 3.63679e-05 -2.14762e-05)
(0.000141776 3.63232e-05 5.83738e-05)
(0.000157648 -3.21381e-05 -7.28923e-05)
(0.00015005 -1.51843e-06 4.17839e-05)
(0.000208752 7.02569e-05 1.69151e-05)
(0.000208178 -3.62324e-05 -1.99534e-05)
(0.000235134 -2.82921e-05 -1.26511e-06)
(0.000190838 -9.35486e-08 -3.02893e-06)
(0.0001204 3.99284e-05 -7.41654e-06)
(0.000157075 7.62114e-06 3.44405e-05)
(0.000193175 1.9532e-05 -8.2797e-06)
(0.000193085 2.27715e-05 1.02941e-05)
(0.000203539 4.07906e-05 -1.69064e-05)
(0.000213819 -8.3803e-07 1.28734e-05)
(0.000196141 -3.5809e-05 -2.5553e-05)
(0.00013911 1.77128e-05 -1.98879e-05)
(0.000176294 4.81913e-05 3.65471e-06)
(0.000149827 3.05132e-05 8.87361e-05)
(0.000113589 1.84998e-06 1.58329e-05)
(0.000131644 1.10878e-05 4.63663e-06)
(0.000175349 1.00253e-05 0.000101359)
(0.000135416 3.52216e-05 1.33847e-05)
(0.000212195 5.04231e-06 -2.7992e-05)
(0.000236847 -2.96012e-06 -2.15762e-05)
(8.01167e-05 4.90011e-05 -2.52656e-05)
(0.000171513 4.75994e-05 -2.9863e-05)
(0.00025166 5.63545e-05 -8.87314e-05)
(9.2516e-05 3.16888e-06 -3.09081e-05)
(0.000115813 2.15494e-05 -2.37541e-05)
(0.000195642 6.0303e-05 6.8405e-06)
(0.000172739 7.58945e-05 9.84265e-06)
(0.000150668 6.62845e-06 6.15693e-05)
(0.000199088 -6.91298e-06 4.73735e-05)
(0.00016786 5.23989e-05 -5.26983e-05)
(0.00021202 5.70698e-05 2.08593e-05)
(0.000162575 -4.03924e-05 6.20212e-06)
(0.000149209 -1.95189e-05 -2.57903e-05)
(0.000221256 5.35179e-05 3.04867e-05)
(0.00016818 -9.57032e-05 -3.68038e-05)
(0.000222353 -9.71892e-06 -5.96156e-05)
(0.000259808 4.48813e-05 -9.90794e-05)
(0.000208632 -2.32415e-05 -2.29567e-05)
(0.000131427 -2.51496e-05 3.21266e-05)
(0.000150387 -1.14751e-06 -2.97916e-05)
(0.000158904 3.32384e-05 -4.71943e-05)
(0.000214506 -1.81267e-05 -2.38363e-05)
(0.000165725 -1.04068e-06 3.22601e-05)
(0.000206481 6.49143e-05 9.49256e-07)
(0.00018694 -1.90258e-06 6.07002e-05)
(0.000167063 4.711e-05 -6.38727e-05)
(0.000182625 -7.39769e-06 -6.90329e-05)
(0.000190108 -4.58525e-06 4.73884e-05)
(0.00015544 -2.9983e-05 -1.23693e-05)
(0.000282655 1.63522e-07 -4.90267e-05)
(0.000104861 9.42508e-05 -3.65878e-05)
(0.000218841 -4.9579e-05 -4.26587e-05)
(0.000127708 -5.32448e-05 -2.64827e-05)
(0.000205204 1.49422e-05 2.91792e-05)
(0.000200421 4.93803e-05 3.87903e-05)
(0.000201293 4.32312e-05 4.8313e-05)
(0.000220344 -4.75748e-05 -3.7019e-05)
(0.000176231 8.8884e-05 1.72889e-05)
(0.000180324 3.24266e-05 1.37999e-05)
(0.00020963 -9.63316e-06 2.66837e-05)
(0.000171696 5.16858e-05 -5.83802e-05)
(0.000163398 -7.62986e-06 7.55157e-05)
(0.000259777 -1.98239e-05 -4.7177e-05)
(0.000176615 -0.00010391 -4.17706e-05)
(0.000246609 -3.05364e-05 3.96952e-05)
(0.000217789 3.06333e-05 7.31927e-06)
(0.000152784 -4.78061e-05 -3.32184e-05)
(0.000199063 5.30439e-05 1.1746e-05)
(0.00014849 1.81838e-05 -3.95586e-05)
(0.000148853 -3.68356e-05 -9.56607e-06)
(0.000189885 -2.17824e-05 6.80588e-05)
(0.000265291 1.51603e-05 -1.9885e-05)
(0.000224255 -3.27433e-05 3.542e-05)
(0.000215656 1.4464e-05 5.32369e-05)
(0.0002213 2.04773e-05 -1.85248e-05)
(0.000309011 1.66673e-05 -3.20925e-06)
(0.000242649 1.89361e-05 -9.62525e-07)
(0.000195102 8.76947e-06 2.66206e-05)
(0.000224488 4.49428e-05 -1.13356e-05)
(0.000189246 1.17038e-06 -5.34749e-05)
(0.000214213 1.81608e-05 -4.0781e-05)
)
;

boundaryField
{
    sides
    {
        type            symmetry;
    }
    empty
    {
        type            empty;
    }
    procBoundary0to1
    {
        type            processor;
        value           uniform (0.000249676 1.86248e-05 7.36783e-05);
    }
}


// ************************************************************************* //
