/*--------------------------------*- C++ -*----------------------------------*\
  =========                 |
  \\      /  F ield         | OpenFOAM: The Open Source CFD Toolbox
   \\    /   O peration     | Website:  https://openfoam.org
    \\  /    A nd           | Version:  7
     \\/     M anipulation  |
\*---------------------------------------------------------------------------*/
FoamFile
{
    version     2.0;
    format      ascii;
    class       volVectorField;
    location    "0.0025";
    object      U;
}
// * * * * * * * * * * * * * * * * * * * * * * * * * * * * * * * * * * * * * //

dimensions      [0 1 -1 0 0 0 0];

internalField   nonuniform List<vector> 
1000
(
(-3.21464e-15 0 0)
(-3.49376e-15 0 0)
(-2.50171e-15 0 0)
(-1.56132e-15 0 0)
(-1.01102e-15 0 0)
(-2.08926e-15 0 0)
(-1.99032e-15 0 0)
(-7.31065e-16 0 0)
(4.04477e-16 0 0)
(-1.04726e-16 0 0)
(-7.41021e-16 0 0)
(8.09428e-16 0 0)
(5.98087e-16 0 0)
(-2.0468e-16 0 0)
(-5.91747e-16 0 0)
(-1.59893e-16 0 0)
(2.51143e-16 0 0)
(-4.5112e-16 0 0)
(-9.49539e-16 0 0)
(4.21213e-16 0 0)
(3.89615e-16 0 0)
(-2.94593e-16 0 0)
(-3.71584e-17 0 0)
(3.05991e-16 0 0)
(9.6565e-16 0 0)
(7.9012e-16 0 0)
(3.3854e-16 0 0)
(1.09605e-15 0 0)
(1.0739e-15 0 0)
(-6.94802e-16 0 0)
(-3.07234e-16 0 0)
(2.07594e-15 0 0)
(2.68752e-15 0 0)
(2.46061e-15 0 0)
(1.50793e-15 0 0)
(3.49859e-16 0 0)
(1.34675e-16 0 0)
(-1.45902e-17 0 0)
(-1.1662e-16 0 0)
(1.1662e-16 0 0)
(1.1662e-16 0 0)
(2.4783e-16 0 0)
(-1.80554e-17 0 0)
(3.46527e-18 0 0)
(-1.1662e-16 0 0)
(-9.73648e-17 0 0)
(2.10519e-16 0 0)
(2.36705e-16 0 0)
(7.50949e-31 0 0)
(-4.69944e-16 0 0)
(-2.29774e-16 0 0)
(3.46394e-16 0 0)
(1.34675e-16 0 0)
(-1.3121e-16 0 0)
(-3.49859e-16 0 0)
(1.1662e-16 0 0)
(2.3324e-16 0 0)
(-3.53325e-16 0 0)
(-9.38996e-17 0 0)
(-1.35875e-16 0 0)
(3.49859e-16 0 0)
(-9.73648e-17 0 0)
(3.27139e-16 0 0)
(3.46527e-18 0 0)
(-2.3324e-16 0 0)
(1.13155e-16 0 0)
(-4.63014e-16 0 0)
(1.1662e-16 0 0)
(-1.20085e-16 0 0)
(1.1662e-16 0 0)
(1.3934e-16 0 0)
(2.10519e-16 0 0)
(-2.10519e-16 0 0)
(2.13985e-16 0 0)
(-1.1662e-16 0 0)
(0 0 0)
(7.76844e-31 0 0)
(-2.13985e-16 0 0)
(-2.27202e-17 0 0)
(3.46527e-18 0 0)
(2.29774e-16 0 0)
(2.27202e-17 0 0)
(2.3324e-16 0 0)
(9.73648e-17 0 0)
(2.3324e-16 0 0)
(-2.36705e-16 0 0)
(-2.15184e-16 0 0)
(-1.34675e-16 0 0)
(-1.13155e-16 0 0)
(-9.32958e-16 0 0)
(-1.64081e-15 0 0)
(-1.27935e-15 0 0)
(-1.76616e-15 0 0)
(-1.8559e-15 0 0)
(-2.71603e-15 0 0)
(-1.30546e-15 0 0)
(4.50239e-16 0 0)
(1.0739e-15 0 0)
(3.78419e-16 0 0)
(-4.84457e-16 0 0)
(6.54147e-17 0 0)
(2.63938e-16 0 0)
(-1.1551e-15 0 0)
(-1.17864e-15 0 0)
(4.21138e-16 0 0)
(5.02438e-16 0 0)
(6.03122e-16 0 0)
(3.19087e-16 0 0)
(2.57434e-17 0 0)
(7.33366e-16 0 0)
(-1.06132e-15 0 0)
(-1.06137e-15 0 0)
(2.51117e-16 0 0)
(3.32194e-16 0 0)
(-1.65001e-16 0 0)
(1.49595e-16 0 0)
(1.64709e-15 0 0)
(8.14735e-16 0 0)
(-4.58647e-16 0 0)
(-6.01077e-16 0 0)
(-5.94674e-16 0 0)
(-8.06015e-16 0 0)
(-1.03907e-15 0 0)
(-1.45126e-17 0 0)
(1.00631e-15 0 0)
(1.56601e-15 0 0)
(2.9353e-17 0 0)
(-9.59066e-16 0 0)
(-1.52842e-17 0 0)
(-6.75753e-16 0 0)
(-1.45309e-15 0 0)
(-5.54789e-16 0 0)
(6.02176e-16 0 0)
(3.49455e-16 0 0)
(1.27917e-16 0 0)
(1.03307e-16 0 0)
(3.20581e-16 0 0)
(-1.92012e-16 0 0)
(-7.86985e-16 0 0)
(-6.09207e-16 0 0)
(9.43906e-16 0 0)
(1.70712e-15 0 0)
(3.51224e-16 0 0)
(7.53179e-17 0 0)
(5.59883e-16 0 0)
(1.65977e-16 0 0)
(-1.57035e-15 0 0)
(-9.60787e-16 0 0)
(5.29901e-16 0 0)
(5.97131e-16 0 0)
(-1.22243e-17 0 0)
(3.43204e-16 0 0)
(1.45524e-15 0 0)
(1.0739e-15 0 0)
(-1.06478e-15 0 0)
(-2.24108e-16 0 0)
(2.32549e-15 0 0)
(2.4752e-15 0 0)
(1.87525e-15 0 0)
(1.53005e-15 0 0)
(6.99719e-16 0 0)
(3.49859e-16 0 0)
(2.52495e-16 0 0)
(3.27139e-16 0 0)
(-2.3324e-16 0 0)
(-9.85644e-17 0 0)
(-1.45902e-17 0 0)
(3.49859e-16 0 0)
(3.88422e-32 0 0)
(-1.1662e-16 0 0)
(1.92549e-17 0 0)
(-2.5596e-16 0 0)
(2.36705e-16 0 0)
(-2.3324e-16 0 0)
(1.1662e-16 0 0)
(2.29774e-16 0 0)
(-1.1662e-16 0 0)
(-4.43759e-16 0 0)
(-1.92549e-17 0 0)
(-1.1662e-16 0 0)
(1.3121e-16 0 0)
(-1.80554e-17 0 0)
(2.5596e-16 0 0)
(9.38996e-17 0 0)
(1.20085e-16 0 0)
(-1.1662e-16 0 0)
(1.92549e-17 0 0)
(-1.3934e-16 0 0)
(1.20085e-16 0 0)
(3.49859e-16 0 0)
(1.1662e-16 0 0)
(-2.3324e-16 0 0)
(1.35875e-16 0 0)
(-1.3934e-16 0 0)
(-1.13155e-16 0 0)
(2.3324e-16 0 0)
(-2.3324e-16 0 0)
(-2.36705e-16 0 0)
(-2.10519e-16 0 0)
(3.27139e-16 0 0)
(-4.43759e-16 0 0)
(-1.3934e-16 0 0)
(-1.13155e-16 0 0)
(1.1662e-16 0 0)
(2.3324e-16 0 0)
(5.17896e-31 0 0)
(1.92549e-17 0 0)
(-2.5596e-16 0 0)
(1.3934e-16 0 0)
(-1.3934e-16 0 0)
(1.3934e-16 0 0)
(-2.5596e-16 0 0)
(2.27202e-17 0 0)
(-4.89199e-16 0 0)
(-1.2601e-15 0 0)
(-2.00526e-15 0 0)
(-4.08756e-15 0 0)
(-5.78401e-15 0 0)
(-4.73536e-15 0 0)
(-3.98788e-15 0 0)
(-3.52518e-15 0 0)
(-2.70558e-15 0 0)
(-1.86592e-15 0 0)
(-1.63268e-15 0 0)
(-9.32958e-16 0 0)
(-3.49859e-16 0 0)
(-3.49859e-16 0 0)
(-3.49859e-16 0 0)
(-1.1662e-16 0 0)
(0 0 0)
(0 0 0)
(0 0 0)
(0 0 0)
(0 0 0)
(0 0 0)
(0 0 0)
(0 0 0)
(0 0 0)
(0 0 0)
(0 0 0)
(0 0 0)
(0 0 0)
(0 0 0)
(0 0 0)
(0 0 0)
(0 0 0)
(0 0 0)
(0 0 0)
(0 0 0)
(0 0 0)
(0 0 0)
(0 0 0)
(0 0 0)
(0 0 0)
(0 0 0)
(0 0 0)
(0 0 0)
(0 0 0)
(0 0 0)
(0 0 0)
(0 0 0)
(0 0 0)
(3.49859e-16 0 0)
(1.04958e-15 0 0)
(1.10173e-15 0 0)
(3.55724e-16 0 0)
(-3.00281e-17 0 0)
(-4.61814e-16 0 0)
(-4.75809e-16 0 0)
(-3.59189e-16 0 0)
(1.0729e-16 0 0)
(2.28575e-16 0 0)
(2.3324e-16 0 0)
(1.1662e-16 0 0)
(-2.3324e-16 0 0)
(-2.3324e-16 0 0)
(-2.3324e-16 0 0)
(-2.3324e-16 0 0)
(-2.3324e-16 0 0)
(-2.3324e-16 0 0)
(-2.3324e-16 0 0)
(-2.3324e-16 0 0)
(-2.3324e-16 0 0)
(-1.1662e-16 0 0)
(0 0 0)
(0 0 0)
(0 0 0)
(0 0 0)
(0 0 0)
(3.49859e-16 0 0)
(1.28282e-15 0 0)
(9.32958e-16 0 0)
(8.16338e-16 0 0)
(2.37904e-16 0 0)
(-4.3849e-16 0 0)
(6.90949e-16 0 0)
(1.57595e-16 0 0)
(-1.35566e-15 0 0)
(-7.04979e-16 0 0)
(-5.83099e-16 0 0)
(-5.83099e-16 0 0)
(-9.73648e-17 0 0)
(-2.52495e-16 0 0)
(2.3324e-16 0 0)
(0 0 0)
(0 0 0)
(0 0 0)
(1.35875e-16 0 0)
(-1.35875e-16 0 0)
(1.35875e-16 0 0)
(-2.52495e-16 0 0)
(1.1662e-16 0 0)
(0 0 0)
(0 0 0)
(0 0 0)
(-1.1662e-16 0 0)
(2.52495e-16 0 0)
(-1.35875e-16 0 0)
(1.35875e-16 0 0)
(-1.35875e-16 0 0)
(0 0 0)
(-2.3324e-16 0 0)
(1.35875e-16 0 0)
(-2.52495e-16 0 0)
(2.52495e-16 0 0)
(5.63844e-16 0 0)
(1.16153e-15 0 0)
(1.58025e-15 0 0)
(7.01042e-16 0 0)
(-4.66237e-16 0 0)
(-3.60388e-16 0 0)
(-3.63854e-16 0 0)
(-3.63854e-16 0 0)
(-3.59189e-16 0 0)
(-3.49859e-16 0 0)
(-3.49859e-16 0 0)
(-3.49859e-16 0 0)
(-3.49859e-16 0 0)
(-3.49859e-16 0 0)
(-3.49859e-16 0 0)
(-3.49859e-16 0 0)
(-2.3324e-16 0 0)
(0 0 0)
(0 0 0)
(0 0 0)
(0 0 0)
(0 0 0)
(0 0 0)
(0 0 0)
(0 0 0)
(0 0 0)
(0 0 0)
(0 0 0)
(0 0 0)
(0 0 0)
(0 0 0)
(2.3324e-16 0 0)
(8.18738e-16 0 0)
(1.0195e-15 0 0)
(2.28575e-16 0 0)
(-6.46319e-16 0 0)
(-4.59549e-16 0 0)
(-1.39944e-17 0 0)
(2.19245e-16 0 0)
(1.1662e-16 0 0)
(1.1662e-16 0 0)
(1.1662e-16 0 0)
(-3.49859e-16 0 0)
(-3.49859e-16 0 0)
(-3.49859e-16 0 0)
(-3.49859e-16 0 0)
(-3.49859e-16 0 0)
(0 0 0)
(0 0 0)
(0 0 0)
(0 0 0)
(0 0 0)
(1.1662e-16 0 0)
(-4.66479e-16 0 0)
(-2.58948e-32 0 0)
(7.12316e-16 0 0)
(1.06642e-16 0 0)
(3.87823e-17 0 0)
(-7.05472e-16 0 0)
(-2.26905e-16 0 0)
(1.02625e-16 0 0)
(5.69105e-16 0 0)
(9.18964e-16 0 0)
(-3.10738e-31 0 0)
(3.49859e-16 0 0)
(2.3324e-16 0 0)
(-3.49859e-16 0 0)
(-3.49859e-16 0 0)
(-8.16338e-16 0 0)
(-1.1662e-15 0 0)
(-8.16338e-16 0 0)
(-2.2391e-16 0 0)
(-2.11519e-16 0 0)
(-6.61039e-16 0 0)
(-7.63584e-16 0 0)
(-3.324e-16 0 0)
(9.28293e-16 0 0)
(1.03558e-15 0 0)
(1.39477e-15 0 0)
(6.99719e-16 0 0)
(1.1662e-15 0 0)
(1.1662e-16 0 0)
(-2.3324e-16 0 0)
(-3.49859e-16 0 0)
(-3.49859e-16 0 0)
(-3.49859e-16 0 0)
(-1.1662e-16 0 0)
(2.3324e-16 0 0)
(2.95595e-16 0 0)
(1.36147e-16 0 0)
(6.73907e-17 0 0)
(3.45195e-16 0 0)
(2.19245e-16 0 0)
(2.19245e-16 0 0)
(1.1662e-16 0 0)
(1.1662e-16 0 0)
(3.88422e-32 0 0)
(-3.49859e-16 0 0)
(-4.66479e-16 0 0)
(-4.66479e-16 0 0)
(-1.1662e-16 0 0)
(6.99719e-16 0 0)
(3.54524e-16 0 0)
(1.35351e-15 0 0)
(1.57771e-16 0 0)
(-1.83781e-15 0 0)
(-2.42569e-16 0 0)
(-1.39944e-17 0 0)
(1.11955e-16 0 0)
(1.1662e-16 0 0)
(1.1662e-16 0 0)
(1.1662e-16 0 0)
(-1.1662e-16 0 0)
(2.3324e-16 0 0)
(1.1662e-16 0 0)
(-1.64152e-16 0 0)
(5.39954e-16 0 0)
(-3.33224e-16 0 0)
(-3.59785e-16 0 0)
(-1.30614e-16 0 0)
(2.19245e-16 0 0)
(2.28575e-16 0 0)
(1.21285e-16 0 0)
(4.25407e-16 0 0)
(-2.98236e-16 0 0)
(-6.75821e-16 0 0)
(-2.35035e-16 0 0)
(-1.39944e-17 0 0)
(-4.80474e-16 0 0)
(-9.32958e-18 0 0)
(4.75809e-16 0 0)
(9.73656e-16 0 0)
(-7.93516e-18 0 0)
(-8.88686e-16 0 0)
(-8.88709e-16 0 0)
(-6.90389e-16 0 0)
(3.4053e-16 0 0)
(8.07009e-16 0 0)
(4.05151e-16 0 0)
(4.46678e-18 0 0)
(1.73481e-16 0 0)
(-1.21285e-16 0 0)
(-3.49859e-16 0 0)
(-3.49859e-16 0 0)
(-2.80599e-16 0 0)
(-5.39734e-16 0 0)
(2.46564e-16 0 0)
(4.66479e-18 0 0)
(-6.8259e-17 0 0)
(8.82387e-15 0 0)
(1.15351e-13 0 0)
(1.36104e-12 0 0)
(1.45727e-11 0 0)
(1.43016e-10 0 0)
(1.28887e-09 0 0)
(1.06717e-08 0 0)
(8.11769e-08 0 0)
(5.67012e-07 0 0)
(3.63316e-06 0 0)
(2.13216e-05 0 0)
(0.000114335 0 0)
(0.000558366 0 0)
(0.00247199 0 0)
(0.00986203 0 0)
(0.0352119 0 0)
(0.112306 0 0)
(0.308317 0 0)
(0.616664 0 0)
(0.930617 0 0)
(1.22291 0 0)
(1.50373 0 0)
(1.78263 0 0)
(2.07093 0 0)
(2.34382 0 0)
(2.60142 0 0)
(2.81882 0 0)
(2.93301 0 0)
(2.89556 0 0)
(2.88884 0 0)
(2.89164 0 0)
(2.8841 0 0)
(2.87879 0 0)
(2.8418 0 0)
(2.81456 0 0)
(2.90451 0 0)
(2.98184 0 0)
(3.00662 0 0)
(2.91372 0 0)
(1.95906 0 0)
(0.248541 0 0)
(0.0163595 0 0)
(0.00104013 0 0)
(6.77819e-05 0 0)
(4.54338e-06 0 0)
(3.12042e-07 0 0)
(2.17346e-08 0 0)
(1.51333e-09 0 0)
(1.03663e-10 0 0)
(6.88022e-12 0 0)
(4.3753e-13 0 0)
(2.60028e-14 0 0)
(1.60399e-15 0 0)
(6.17753e-17 0 0)
(4.14872e-16 0 0)
(3.62528e-31 0 0)
(-2.42274e-16 0 0)
(-2.40237e-16 0 0)
(-2.9155e-16 0 0)
(-5.77102e-17 0 0)
(3.94631e-16 0 0)
(-5.89097e-17 0 0)
(-2.77411e-16 0 0)
(-1.1722e-16 0 0)
(0 0 0)
(1.1662e-16 0 0)
(-4.02905e-16 0 0)
(-8.24505e-16 0 0)
(-1.21285e-16 0 0)
(5.93597e-16 0 0)
(5.21858e-16 0 0)
(1.1662e-16 0 0)
(0 0 0)
(0 0 0)
(6.52082e-17 0 0)
(-1.90738e-16 0 0)
(5.831e-17 0 0)
(-1.00811e-16 0 0)
(1.68032e-16 0 0)
(0 0 0)
(0 0 0)
(0 0 0)
(1.19952e-18 0 0)
(-2.01565e-16 0 0)
(4.17883e-17 0 0)
(-7.46622e-17 0 0)
(2.3324e-16 0 0)
(0 0 0)
(0 0 0)
(0 0 0)
(0 0 0)
(0 0 0)
(0 0 0)
(0 0 0)
(6.06424e-17 0 0)
(-1.06732e-16 0 0)
(-5.77102e-17 0 0)
(4.78221e-17 0 0)
(5.59776e-17 0 0)
(0 0 0)
(0 0 0)
(0 0 0)
(0 0 0)
(0 0 0)
(0 0 0)
(0 0 0)
(0 0 0)
(0 0 0)
(0 0 0)
(5.89097e-17 0 0)
(2.78011e-16 0 0)
(-5.89097e-17 0 0)
(-1.60791e-16 0 0)
(-1.1722e-16 0 0)
(0 0 0)
(0 0 0)
(0 0 0)
(0 0 0)
(0 0 0)
(0 0 0)
(0 0 0)
(0 0 0)
(0 0 0)
(0 0 0)
(-1.1662e-16 0 0)
(-1.04725e-15 0 0)
(-1.02346e-15 0 0)
(2.93783e-16 0 0)
(9.61188e-16 0 0)
(7.5743e-16 0 0)
(1.7493e-16 0 0)
(0 0 0)
(0 0 0)
(0 0 0)
(0 0 0)
(0 0 0)
(0 0 0)
(0 0 0)
(0 0 0)
(0 0 0)
(-3.4986e-16 0 0)
(-8.1634e-16 0 0)
(-6.10832e-16 0 0)
(-5.831e-17 0 0)
(9.02382e-16 0 0)
(6.9972e-16 0 0)
(2.3324e-16 0 0)
(0 0 0)
(0 0 0)
(0 0 0)
(0 0 0)
(0 0 0)
(0 0 0)
(0 0 0)
(0 0 0)
(0 0 0)
(0 0 0)
(0 0 0)
(0 0 0)
(0 0 0)
(0 0 0)
(0 0 0)
(0 0 0)
(1.7493e-16 0 0)
(8.25669e-16 0 0)
(1.31854e-15 0 0)
(-1.23e-31 0 0)
(-9.1037e-16 0 0)
(-8.25669e-16 0 0)
(-4.6648e-16 0 0)
(-1.1662e-16 0 0)
(0 0 0)
(0 0 0)
(0 0 0)
(0 0 0)
(0 0 0)
(0 0 0)
(0 0 0)
(0 0 0)
(0 0 0)
(0 0 0)
(0 0 0)
(0 0 0)
(0 0 0)
(0 0 0)
(0 0 0)
(0 0 0)
(0 0 0)
(0 0 0)
(0 0 0)
(0 0 0)
(0 0 0)
(0 0 0)
(0 0 0)
(-1.1662e-16 0 0)
(-8.00013e-16 0 0)
(-2.22508e-15 0 0)
(-1.67544e-15 0 0)
(-1.45612e-15 0 0)
(-1.12655e-15 0 0)
(-7.5803e-16 0 0)
(-4.6648e-16 0 0)
(-2.9155e-16 0 0)
(-4.0817e-16 0 0)
(-3.4986e-16 0 0)
(7.76845e-32 0 0)
(5.831e-17 0 0)
(-3.4986e-16 0 0)
(-6.29748e-17 0 0)
(1.21285e-16 0 0)
(-1.1662e-16 0 0)
(-2.3324e-16 0 0)
(-1.7493e-16 0 0)
(2.3324e-16 0 0)
(-1.1662e-16 0 0)
(-5.831e-17 0 0)
(-1.1662e-16 0 0)
(-5.831e-17 0 0)
(5.831e-17 0 0)
(3.4986e-16 0 0)
(5.831e-17 0 0)
(2.9155e-16 0 0)
(2.9155e-16 0 0)
(1.1662e-16 0 0)
(4.03505e-16 0 0)
(5.29455e-16 0 0)
(1.16853e-15 0 0)
(1.87758e-15 0 0)
(1.95222e-15 0 0)
(1.25551e-15 0 0)
(1.62473e-15 0 0)
(6.29148e-16 0 0)
(-5.831e-17 0 0)
(0 0 0)
(0 0 0)
(0 0 0)
(0 0 0)
(0 0 0)
(0 0 0)
(0 0 0)
(0 0 0)
(0 0 0)
(0 0 0)
(0 0 0)
(0 0 0)
(0 0 0)
(0 0 0)
(0 0 0)
(0 0 0)
(0 0 0)
(0 0 0)
(0 0 0)
(0 0 0)
(0 0 0)
(0 0 0)
(0 0 0)
(0 0 0)
(0 0 0)
(1.81264e-31 0 0)
(1.53286e-17 0 0)
(-1.10998e-16 0 0)
(-2.09504e-17 0 0)
(1.1662e-16 0 0)
(0 0 0)
(0 0 0)
(0 0 0)
(0 0 0)
(0 0 0)
(0 0 0)
(0 0 0)
(0 0 0)
(0 0 0)
(0 0 0)
(0 0 0)
(0 0 0)
(0 0 0)
(0 0 0)
(0 0 0)
(0 0 0)
(0 0 0)
(0 0 0)
(0 0 0)
(0 0 0)
(0 0 0)
(0 0 0)
(0 0 0)
(0 0 0)
(0 0 0)
(0 0 0)
(0 0 0)
(0 0 0)
(0 0 0)
(0 0 0)
(0 0 0)
(0 0 0)
(0 0 0)
(0 0 0)
(0 0 0)
(0 0 0)
(0 0 0)
(0 0 0)
(0 0 0)
(1.1662e-16 0 0)
(2.3324e-16 0 0)
(8.1634e-16 0 0)
(1.35746e-15 0 0)
(2.41029e-15 0 0)
(1.91604e-15 0 0)
(1.78514e-15 0 0)
(9.96113e-16 0 0)
(2.79288e-16 0 0)
(-8.19672e-18 0 0)
(2.64018e-16 0 0)
(-1.5517e-16 0 0)
(1.83011e-17 0 0)
(-2.27909e-17 0 0)
(-6.64401e-17 0 0)
(-2.8282e-16 0 0)
(1.21191e-17 0 0)
(2.70101e-16 0 0)
(-9.3296e-17 0 0)
(-4.20607e-16 0 0)
(-8.54016e-16 0 0)
(-5.30818e-18 0 0)
(7.37082e-16 0 0)
(6.03492e-16 0 0)
(9.42289e-16 0 0)
(9.49962e-17 0 0)
(-2.9155e-16 0 0)
(-1.03729e-15 0 0)
(-1.42276e-15 0 0)
(-1.08877e-15 0 0)
(-7.86476e-16 0 0)
(-1.11955e-16 0 0)
(-5.831e-17 0 0)
(0 0 0)
(0 0 0)
(0 0 0)
(0 0 0)
(-6.29748e-17 0 0)
(2.03376e-16 0 0)
(0 0 0)
(-1.47398e-16 0 0)
(2.61135e-17 0 0)
(-1.42733e-16 0 0)
(1.23617e-16 0 0)
(0 0 0)
(-6.29748e-17 0 0)
(1.45066e-16 0 0)
(-8.20911e-17 0 0)
(0 0 0)
(0 0 0)
(0 0 0)
(-1.23617e-16 0 0)
(1.42733e-16 0 0)
(-8.44235e-17 0 0)
(8.67559e-17 0 0)
(-2.14487e-17 0 0)
(0 0 0)
(-6.29748e-17 0 0)
(2.03376e-16 0 0)
(0 0 0)
(2.98641e-17 0 0)
(1.21285e-16 0 0)
(-4.0817e-16 0 0)
(-2.3324e-16 0 0)
(-1.1656e-15 0 0)
(-1.73648e-15 0 0)
(-1.5631e-15 0 0)
(-7.97657e-16 0 0)
(5.90127e-17 0 0)
(9.82517e-16 0 0)
(5.98971e-16 0 0)
(3.46351e-16 0 0)
(-2.04093e-16 0 0)
(-6.88184e-16 0 0)
(-2.75079e-16 0 0)
(-1.17796e-16 0 0)
(-2.6007e-16 0 0)
(-2.49284e-17 0 0)
(-8.40765e-17 0 0)
(-1.65044e-16 0 0)
(2.79476e-17 0 0)
(-5.68632e-16 0 0)
(-9.2552e-17 0 0)
(8.19828e-16 0 0)
(3.20697e-16 0 0)
(4.19706e-16 0 0)
(4.24641e-16 0 0)
(-1.1765e-18 0 0)
(-4.35e-16 0 0)
(-2.21704e-16 0 0)
(-2.16769e-16 0 0)
(1.73753e-16 0 0)
(-2.0176e-16 0 0)
(-2.49284e-17 0 0)
(2.12138e-16 0 0)
(1.3117e-16 0 0)
(-8.51404e-17 0 0)
(3.33816e-17 0 0)
(3.28758e-16 0 0)
(-1.60379e-16 0 0)
(-3.1838e-16 0 0)
(-2.49284e-17 0 0)
(9.55183e-17 0 0)
(1.8948e-16 0 0)
(-2.68305e-17 0 0)
(-3.96634e-16 0 0)
(-1.00149e-16 0 0)
(2.32063e-16 0 0)
(-1.4345e-16 0 0)
(-1.41548e-16 0 0)
(9.31859e-17 0 0)
(4.13391e-16 0 0)
(-3.50272e-17 0 0)
(1.65195e-16 0 0)
(-7.70793e-17 0 0)
(-2.16357e-16 0 0)
(2.64719e-16 0 0)
(6.55278e-16 0 0)
(5.41261e-16 0 0)
(3.99996e-16 0 0)
(-8.56032e-16 0 0)
(-9.98672e-16 0 0)
(-4.59895e-16 0 0)
(2.22436e-16 0 0)
(-8.74728e-17 0 0)
(3.80909e-16 0 0)
(1.47567e-16 0 0)
(2.61049e-16 0 0)
(5.89718e-16 0 0)
(7.95407e-16 0 0)
(1.50378e-15 0 0)
(1.8989e-15 0 0)
(1.2572e-15 0 0)
(8.97517e-16 0 0)
(-4.12835e-16 0 0)
(-5.98969e-16 0 0)
(-2.06483e-16 0 0)
(-3.06793e-17 0 0)
(6.20951e-16 0 0)
(1.05311e-15 0 0)
(4.52844e-16 0 0)
(2.0316e-16 0 0)
(-2.92193e-16 0 0)
(-1.86156e-17 0 0)
(-2.19845e-16 0 0)
(-3.12541e-16 0 0)
(2.21578e-16 0 0)
(3.80638e-16 0 0)
(1.53481e-16 0 0)
(-1.83802e-16 0 0)
(2.5799e-17 0 0)
(-9.80044e-17 0 0)
(-5.19482e-16 0 0)
(-1.48771e-15 0 0)
(-7.28809e-16 0 0)
(-3.89968e-16 0 0)
(-2.70101e-16 0 0)
(-1.45066e-16 0 0)
(8.44235e-17 0 0)
(-8.67559e-17 0 0)
(2.03376e-16 0 0)
(-1.42733e-16 0 0)
(1.8426e-16 0 0)
(0 0 0)
(-2.09459e-16 0 0)
(2.04794e-16 0 0)
(9.37624e-16 0 0)
(1.28282e-15 0 0)
(1.10556e-15 0 0)
(-8.87246e-18 0 0)
(-3.24061e-16 0 0)
(1.35236e-16 0 0)
(4.08813e-16 0 0)
(2.70916e-16 0 0)
(7.54115e-17 0 0)
(-8.39664e-17 0 0)
(-3.91386e-16 0 0)
(-1.49731e-16 0 0)
(-4.6648e-17 0 0)
(-2.00586e-16 0 0)
(3.8876e-17 0 0)
(3.07519e-16 0 0)
(3.29401e-16 0 0)
(3.53392e-16 0 0)
(-7.19462e-17 0 0)
(-2.05009e-16 0 0)
(1.54471e-16 0 0)
(-5.819e-16 0 0)
(-9.77875e-16 0 0)
(-2.05891e-15 0 0)
(-2.55515e-15 0 0)
(-2.1462e-15 0 0)
(-8.55967e-16 0 0)
(-1.15917e-16 0 0)
(1.66177e-16 0 0)
(1.32491e-16 0 0)
(1.71421e-16 0 0)
(-2.91629e-17 0 0)
(-2.49284e-17 0 0)
(-2.54342e-16 0 0)
(-1.02069e-16 0 0)
(-5.5162e-16 0 0)
(-5.20386e-17 0 0)
(1.72345e-16 0 0)
(-1.02805e-16 0 0)
(-2.63602e-16 0 0)
(-4.38418e-17 0 0)
(3.15618e-16 0 0)
(9.94758e-16 0 0)
(4.37317e-16 0 0)
(-1.63394e-16 0 0)
(-2.75079e-16 0 0)
(-1.17796e-16 0 0)
(8.97895e-17 0 0)
(1.95671e-17 0 0)
(-8.4676e-18 0 0)
(5.45186e-16 0 0)
(2.01745e-16 0 0)
(-3.94301e-16 0 0)
(1.88034e-17 0 0)
(6.37901e-16 0 0)
(3.19497e-16 0 0)
(7.32789e-17 0 0)
(4.53225e-16 0 0)
)
;

boundaryField
{
    sides
    {
        type            zeroGradient;
    }
    null
    {
        type            empty;
    }
}


// ************************************************************************* //
