/*--------------------------------*- C++ -*----------------------------------*\
  =========                 |
  \\      /  F ield         | OpenFOAM: The Open Source CFD Toolbox
   \\    /   O peration     | Website:  https://openfoam.org
    \\  /    A nd           | Version:  7
     \\/     M anipulation  |
\*---------------------------------------------------------------------------*/
FoamFile
{
    version     2.0;
    format      ascii;
    class       scalarField;
    location    "0.00216/lagrangian/dsmc";
    object      Ei;
}
// * * * * * * * * * * * * * * * * * * * * * * * * * * * * * * * * * * * * * //


9197
(
7.39143e-22
3.21635e-21
8.94936e-22
5.84596e-21
2.54285e-21
1.01358e-20
9.97066e-21
5.25322e-22
7.55052e-21
3.93752e-21
1.59386e-21
5.2523e-21
6.74766e-22
1.1405e-21
6.23371e-21
3.36087e-21
4.81233e-21
1.23912e-21
3.35709e-22
7.01313e-21
1.40525e-20
3.55022e-21
2.92582e-21
1.271e-20
5.75359e-23
5.42186e-22
5.03754e-21
1.53469e-21
4.51794e-22
3.12733e-21
1.63591e-21
5.6992e-22
3.79473e-21
2.72217e-21
7.68887e-21
3.16277e-21
1.15061e-20
1.70159e-20
2.24945e-20
2.65543e-21
2.49333e-21
9.33522e-21
9.47054e-22
6.17171e-22
5.69476e-21
2.48902e-23
7.73511e-21
6.12239e-22
2.86494e-21
2.53543e-22
5.20564e-21
3.69974e-21
2.70899e-21
7.84326e-22
1.78074e-22
3.51699e-21
8.28767e-21
9.64998e-22
3.98383e-21
4.17774e-21
1.26609e-21
7.07735e-21
2.83325e-22
7.69874e-21
1.58657e-21
1.81909e-21
6.66617e-22
1.54867e-21
6.47702e-22
1.8458e-21
5.6047e-21
3.06626e-21
1.03774e-21
5.03435e-21
9.31308e-22
3.67947e-21
2.33336e-21
5.21447e-21
8.5283e-21
5.02231e-23
8.88695e-21
2.14365e-21
4.2306e-21
2.4505e-22
2.92545e-21
1.68672e-21
2.43437e-21
3.5027e-21
5.66678e-21
1.99174e-21
5.21373e-21
2.15957e-21
4.40497e-21
2.00033e-21
9.72172e-22
1.56722e-21
2.68526e-22
2.08407e-21
1.22771e-21
2.28781e-21
2.89934e-21
2.63792e-21
3.91838e-22
4.0656e-21
1.87148e-21
7.07218e-21
4.50393e-21
4.33692e-21
3.41831e-21
4.46591e-21
2.47827e-21
5.96209e-22
5.17029e-21
4.95058e-21
3.05832e-21
1.02569e-21
8.4108e-22
2.56458e-21
2.36242e-22
4.83511e-22
2.1916e-20
2.43295e-21
6.46452e-21
1.27848e-21
1.9624e-21
1.17899e-21
1.75274e-21
3.19628e-21
1.16584e-20
6.9122e-21
8.65441e-21
4.56967e-21
6.11487e-21
2.15148e-21
1.3074e-21
3.61353e-21
1.66619e-21
7.55831e-22
2.16466e-20
3.08419e-21
2.13686e-21
2.10296e-22
2.29714e-21
1.34608e-21
3.13941e-21
1.62509e-21
1.50255e-21
2.31347e-22
2.11119e-21
3.02098e-21
3.25177e-21
5.81227e-21
7.1502e-22
3.63432e-22
8.48888e-21
8.72796e-22
1.2939e-20
1.61256e-20
4.04345e-21
2.05208e-21
4.57068e-21
2.53405e-21
3.89867e-21
1.17722e-22
8.13523e-22
3.77305e-21
7.74872e-21
2.71634e-21
3.76096e-21
7.36108e-21
4.89211e-22
1.95169e-21
3.40622e-21
4.48524e-21
2.38342e-21
1.83904e-21
2.84522e-22
9.09014e-22
1.93759e-21
1.22946e-21
3.44803e-21
1.10105e-20
1.84039e-20
2.45952e-21
1.18342e-20
1.10657e-20
2.96313e-21
5.13895e-22
1.29466e-21
5.08532e-21
2.54691e-21
4.69303e-21
5.88583e-21
1.6246e-20
6.8046e-21
1.74379e-21
1.47814e-21
3.60541e-22
6.6599e-21
4.10651e-21
2.02179e-21
6.24412e-21
4.74049e-22
2.67947e-22
6.95077e-21
1.27781e-20
5.05634e-21
1.0566e-20
6.81227e-21
5.19714e-21
6.50855e-21
1.31502e-21
1.06551e-20
2.03925e-20
1.87772e-21
3.50438e-21
7.08763e-22
6.88344e-21
2.04041e-21
1.20609e-20
7.03915e-21
1.24818e-21
3.76743e-21
1.17196e-20
1.44198e-22
2.96603e-22
4.15529e-21
1.87407e-21
1.78843e-21
2.9736e-21
2.04941e-21
6.42739e-21
3.28614e-22
5.38481e-21
1.00914e-20
2.66773e-22
3.00363e-21
5.86107e-21
5.61262e-21
4.52403e-21
8.63698e-21
1.11965e-21
5.63003e-22
8.15088e-22
7.73979e-22
2.76668e-21
2.1648e-20
3.66313e-21
9.82887e-22
6.92451e-21
1.15178e-20
4.12059e-21
2.82458e-21
1.58472e-21
2.09043e-21
5.9314e-21
4.90079e-21
9.71502e-22
3.56217e-21
1.00405e-20
1.11392e-20
3.79427e-22
6.17037e-21
1.62029e-21
2.28182e-21
7.26855e-22
3.74458e-21
3.90939e-21
1.11559e-21
2.43772e-21
2.00142e-21
1.02733e-20
7.44562e-21
9.0876e-24
8.38054e-22
1.31287e-21
2.09268e-21
1.10737e-20
1.04465e-20
5.53907e-22
4.75196e-21
7.28884e-21
3.73071e-21
7.40753e-22
1.47025e-21
4.59523e-21
1.49044e-21
9.92061e-21
5.14457e-21
8.13321e-21
1.0807e-21
4.02442e-21
9.82122e-21
4.62322e-22
4.59308e-21
1.32246e-20
1.10379e-20
1.19372e-20
2.4451e-21
5.58719e-21
4.04754e-21
1.42806e-22
6.64275e-21
8.53449e-22
7.9156e-21
1.54817e-21
3.73622e-21
1.05713e-20
1.7962e-21
1.2498e-20
1.0031e-20
2.06127e-21
1.72376e-21
2.69285e-21
1.04421e-21
1.4669e-21
6.75091e-21
2.54411e-21
3.11348e-21
1.2471e-21
8.45107e-22
3.65466e-21
1.74149e-20
5.64639e-21
2.35491e-21
3.02633e-22
7.64258e-21
1.95553e-21
1.27461e-21
8.14203e-22
5.83073e-21
2.54038e-20
4.56733e-22
6.66222e-23
1.28846e-20
8.94074e-22
5.56836e-21
1.52834e-21
3.37171e-21
1.34499e-21
5.43979e-22
7.75717e-21
1.63982e-21
1.08265e-21
9.98722e-21
4.55707e-21
9.29493e-22
3.13434e-21
2.70803e-21
5.98006e-21
9.74863e-21
1.16766e-21
4.46402e-22
2.69209e-21
1.09248e-21
9.18833e-21
8.53055e-21
1.32352e-21
5.5144e-21
5.358e-21
1.71978e-21
7.68614e-21
1.12617e-21
5.31495e-21
7.24855e-21
9.66534e-22
4.31304e-21
5.06694e-21
2.40924e-21
1.31378e-21
5.2246e-21
1.34444e-21
5.53622e-21
1.54205e-20
9.73582e-21
1.70753e-20
1.20532e-20
2.05362e-21
1.7906e-21
6.91696e-21
1.87274e-22
3.37545e-21
6.75757e-21
8.76145e-21
2.04861e-21
1.13832e-21
7.0139e-21
3.1269e-22
1.63693e-21
4.24069e-21
5.29046e-21
3.04672e-21
2.14763e-21
5.42479e-21
1.25296e-20
2.09029e-21
6.14992e-21
1.61467e-21
2.66843e-21
1.09738e-21
4.05281e-21
6.93122e-22
4.69584e-21
6.28375e-21
3.67841e-21
5.32784e-21
1.19422e-20
2.7834e-21
7.14729e-22
4.09337e-21
4.9786e-21
1.18897e-20
9.87772e-22
1.48672e-21
2.72037e-21
2.91687e-22
1.96057e-21
6.34358e-22
1.17032e-21
5.91376e-21
3.92978e-22
4.26158e-22
8.36281e-22
1.25177e-20
8.94052e-21
2.20643e-21
1.33616e-21
6.74596e-21
1.73358e-20
2.16543e-21
1.34212e-22
6.94559e-21
1.02013e-20
1.42906e-22
2.10571e-21
1.69822e-21
1.62279e-22
1.60253e-22
1.00129e-20
6.91068e-21
1.92291e-21
1.98417e-21
1.52735e-21
2.23193e-21
4.87826e-21
4.0563e-21
1.83459e-21
1.84673e-21
1.44335e-22
1.8491e-21
1.4581e-22
8.2936e-22
6.12319e-21
1.09792e-20
5.76736e-22
7.99316e-21
9.29892e-22
4.20878e-21
1.34026e-20
7.12145e-21
1.03829e-21
7.88479e-22
1.74555e-21
6.37503e-21
1.09862e-21
7.76339e-21
6.52698e-21
5.0584e-21
1.3589e-21
7.04527e-22
1.63375e-20
7.20885e-21
8.24392e-21
2.36822e-21
2.74671e-21
9.35821e-21
1.16034e-20
5.95544e-21
6.9284e-21
5.09917e-21
5.25105e-21
1.8335e-22
2.06811e-21
1.2723e-21
6.86732e-21
2.27843e-21
5.47285e-21
7.77783e-21
9.18339e-21
8.43913e-21
7.87024e-21
2.55837e-21
4.52421e-21
3.22075e-21
5.90369e-21
3.05753e-22
7.40879e-21
4.65465e-21
1.78318e-22
2.50131e-21
1.43726e-21
2.41833e-21
1.66897e-21
5.32883e-21
1.35259e-21
2.61879e-22
5.02113e-21
3.97524e-21
1.03945e-20
4.5913e-21
4.17084e-21
7.87992e-23
3.67346e-21
5.46618e-21
8.77904e-21
1.50184e-21
1.14689e-21
1.78973e-21
4.35347e-22
2.22635e-21
4.00764e-21
6.26991e-21
8.0784e-22
1.08481e-21
4.30503e-21
2.22526e-21
9.05698e-22
1.04948e-21
1.33901e-21
3.60792e-22
9.5904e-21
2.66484e-21
1.00754e-21
6.8032e-21
1.38097e-21
1.78689e-21
1.17201e-20
2.93396e-22
6.89436e-22
6.05504e-21
4.39531e-21
4.35433e-21
5.00983e-21
6.01555e-22
2.22547e-21
8.31855e-22
1.17445e-20
1.22221e-21
4.60172e-21
2.61249e-21
8.40431e-21
4.32381e-21
1.91179e-21
3.57496e-22
1.34442e-22
1.12026e-21
4.23648e-22
5.54592e-21
6.01838e-21
3.00821e-21
5.69991e-21
1.34116e-21
1.17369e-20
4.86494e-21
1.1811e-21
4.41887e-21
7.41336e-21
9.85559e-22
8.8574e-22
3.37101e-21
3.00903e-21
1.01279e-20
1.54783e-21
2.86609e-21
3.0118e-21
1.24945e-20
2.67366e-22
2.17899e-21
3.02042e-21
1.76544e-21
8.57175e-21
8.96906e-22
1.90005e-22
3.20486e-21
3.39623e-21
4.85266e-21
1.68193e-21
3.38232e-22
1.60286e-20
4.86761e-21
8.3811e-21
6.20521e-21
3.49069e-21
9.44571e-22
1.59386e-21
5.01379e-21
3.39749e-21
2.2574e-21
3.02652e-21
1.0677e-21
3.25922e-21
2.28741e-21
7.25201e-21
6.79091e-22
1.15517e-21
3.72001e-22
2.63722e-21
3.78122e-21
3.92543e-22
7.43434e-22
2.27517e-21
2.21535e-21
1.86367e-21
1.39146e-21
2.77421e-22
1.86357e-21
4.28582e-22
2.9865e-21
5.65508e-22
3.33434e-22
2.08228e-22
1.70008e-20
4.51923e-21
1.28787e-20
7.68276e-22
7.51126e-21
4.00139e-21
2.1284e-22
3.41504e-21
5.58406e-21
1.56558e-21
2.3916e-21
3.8685e-21
5.57952e-21
3.26892e-21
1.22326e-21
5.04913e-21
1.44785e-20
6.68019e-21
9.24727e-22
1.70616e-21
1.77841e-21
3.75095e-21
8.55716e-21
9.43423e-22
1.32722e-21
1.26045e-21
6.42798e-21
2.31659e-21
6.56883e-21
1.53021e-21
3.22934e-21
2.09866e-21
3.04646e-21
2.38512e-21
1.4234e-21
7.58139e-22
5.9497e-21
7.1089e-22
2.25538e-21
3.97911e-21
3.04315e-21
1.07098e-21
8.2847e-21
4.9012e-21
2.21738e-21
1.61813e-20
1.44177e-21
2.04049e-22
9.32845e-21
2.84346e-21
1.2151e-20
2.33037e-21
1.58778e-20
2.79237e-21
8.99609e-22
9.85296e-22
1.92129e-22
5.60345e-21
3.74434e-21
8.6776e-21
7.8119e-21
7.42167e-21
3.65642e-22
6.01712e-21
1.07983e-21
3.57457e-21
9.81388e-21
8.8918e-21
7.13726e-23
5.24082e-22
1.66216e-20
7.5062e-21
4.87452e-22
7.95811e-22
4.13517e-21
5.28002e-22
8.30782e-22
4.17854e-21
1.01122e-21
5.31344e-21
1.61756e-21
1.99172e-21
2.11765e-22
1.54161e-21
4.7518e-22
1.71594e-22
6.40772e-21
8.70201e-21
4.04664e-21
5.99466e-23
9.76341e-21
2.87266e-21
1.72129e-23
3.11238e-21
4.27407e-21
7.58384e-22
1.23312e-21
1.37207e-20
2.61726e-22
4.83096e-21
4.38735e-21
6.3744e-21
8.67716e-23
9.9713e-21
1.84085e-21
4.10725e-21
3.79164e-21
1.54705e-21
8.99208e-22
7.30515e-22
7.71534e-22
2.08389e-21
3.2111e-21
7.15514e-21
6.65323e-22
7.49748e-21
2.21838e-21
5.17236e-21
3.53919e-21
2.27531e-21
3.32207e-21
2.30145e-21
7.60221e-21
8.52429e-21
4.23598e-22
2.02506e-21
8.44551e-21
1.04727e-21
7.46273e-21
5.64441e-22
1.27158e-22
1.86926e-21
6.25066e-21
4.41744e-21
5.63785e-21
1.42955e-21
4.84156e-21
7.91643e-21
1.8758e-22
7.69663e-21
8.98762e-21
6.8854e-23
1.16881e-20
2.77002e-21
7.97582e-21
6.73549e-21
4.29572e-21
6.90103e-21
4.48796e-21
2.22018e-21
1.0434e-21
1.75575e-21
1.93589e-21
7.13291e-21
2.46727e-21
6.50307e-21
3.08877e-21
1.06933e-20
1.19964e-21
2.22696e-24
1.31781e-21
8.15354e-21
3.70281e-21
8.15412e-21
3.56739e-22
1.25624e-21
1.42997e-21
4.7099e-21
1.87618e-21
3.87101e-22
7.40364e-22
3.71811e-21
1.02968e-20
7.28882e-22
4.74553e-21
3.1853e-21
7.18437e-21
1.93681e-21
7.60122e-21
1.00667e-21
2.65521e-21
1.41273e-21
2.94024e-21
1.45041e-21
5.14019e-21
2.3249e-21
4.05592e-21
2.99958e-21
1.22815e-22
2.51805e-21
1.50424e-21
3.11311e-21
1.44138e-21
1.06021e-20
1.33308e-21
1.10583e-20
1.92306e-21
2.05905e-21
8.52277e-21
8.10953e-22
4.00188e-22
8.64255e-23
2.11617e-21
1.10898e-21
4.87019e-21
1.43853e-21
1.15445e-20
1.88413e-21
6.4067e-22
1.67473e-20
3.85584e-21
4.40554e-21
2.21618e-21
2.54435e-23
3.8513e-21
5.34463e-22
1.51975e-21
9.55606e-22
4.16223e-21
6.09559e-21
3.71182e-21
8.95283e-22
2.62377e-21
3.01145e-21
3.33538e-22
2.39028e-21
1.28547e-21
1.15149e-21
4.10018e-21
4.82256e-21
1.18635e-21
1.4493e-21
1.59648e-20
1.48636e-21
3.6594e-21
8.84449e-21
4.49109e-21
6.56296e-21
3.3816e-21
9.91342e-21
2.90682e-21
1.6337e-20
4.94621e-21
6.5459e-21
2.99996e-21
5.87223e-21
2.56439e-21
4.0582e-21
2.42279e-21
1.00672e-21
2.68113e-21
5.07243e-21
4.61601e-21
7.87604e-21
5.2293e-21
1.32366e-21
2.01537e-21
5.21818e-21
3.76942e-22
6.79424e-21
5.70445e-22
1.39524e-20
3.93006e-21
3.59964e-21
4.151e-22
4.44069e-22
1.37634e-20
6.42702e-21
6.13948e-21
2.95502e-21
1.78032e-21
1.03143e-21
3.79234e-21
5.55895e-21
4.29042e-21
1.39559e-21
7.68034e-21
3.46836e-21
2.20736e-22
1.28717e-20
1.96164e-21
3.82852e-21
1.00406e-20
2.02696e-20
1.18255e-21
4.26801e-22
9.93828e-22
3.64956e-22
9.27633e-21
4.61393e-22
6.0794e-21
2.63124e-22
9.92714e-21
1.23898e-20
1.11164e-20
1.02164e-20
1.14416e-21
1.41412e-21
1.28764e-21
7.65828e-21
2.86075e-21
5.86474e-22
5.53082e-21
1.40739e-21
5.26489e-22
5.17435e-21
1.49608e-21
6.99588e-21
7.63381e-22
3.49436e-21
4.34327e-21
5.58664e-21
2.86301e-21
2.05548e-20
3.06366e-21
1.50664e-22
8.61624e-21
1.31785e-20
1.09888e-21
3.70241e-21
9.05738e-21
2.16347e-22
1.55859e-21
2.90888e-21
5.23375e-21
7.14611e-21
1.00365e-21
1.44996e-21
5.58229e-21
1.10398e-21
4.43938e-21
1.82796e-21
7.85198e-22
4.96108e-21
3.4451e-21
9.16263e-21
3.13351e-22
1.90617e-21
2.52246e-21
6.71414e-21
6.69938e-23
2.37296e-21
3.4233e-22
2.87998e-21
1.67067e-21
3.84209e-22
8.3006e-22
1.65974e-21
3.04199e-21
3.58019e-21
9.69885e-22
3.96411e-21
5.50426e-21
4.46485e-21
1.52421e-21
2.30349e-20
1.39907e-21
3.00194e-21
7.22077e-22
4.54478e-21
4.63306e-21
7.91236e-22
1.05934e-21
8.00845e-23
1.68686e-21
1.97886e-21
2.73822e-21
1.58442e-21
5.6951e-21
2.10465e-20
3.48124e-21
4.94577e-21
1.58443e-20
8.69962e-23
1.88016e-22
4.24493e-23
3.48261e-21
9.02713e-21
1.66337e-20
1.18268e-20
5.51735e-21
1.00263e-20
2.42127e-21
1.47604e-21
1.32273e-21
1.10368e-20
3.40663e-21
2.15828e-21
5.68352e-21
4.84915e-21
4.45489e-21
5.78646e-21
8.79952e-21
6.41932e-21
8.90415e-21
5.96471e-21
3.0079e-21
2.11669e-21
6.00482e-21
5.826e-22
8.71729e-21
1.31339e-21
8.45671e-21
6.50572e-22
2.22933e-21
1.00348e-20
3.76693e-21
2.23665e-21
7.56e-22
2.37826e-21
2.83203e-21
2.79858e-22
9.76815e-21
4.10672e-21
4.19057e-21
1.7379e-21
3.40064e-21
2.95503e-21
2.19428e-21
2.58677e-22
1.61377e-21
9.9188e-22
2.04538e-22
3.28364e-21
8.63794e-21
8.49398e-21
3.43632e-21
1.05454e-20
9.77449e-22
4.25498e-23
7.04522e-21
1.88815e-21
2.56269e-21
2.50973e-21
3.59739e-21
4.16459e-21
1.41304e-22
5.7573e-23
6.82876e-21
2.05216e-21
1.84324e-21
5.45686e-21
5.2235e-21
2.58155e-21
3.91569e-22
1.34403e-20
1.17029e-20
4.46515e-21
2.76025e-21
5.7779e-22
6.37347e-22
2.58955e-21
5.92878e-21
1.9507e-21
4.09484e-22
1.82703e-21
1.20681e-21
7.19779e-21
4.07325e-21
2.16235e-21
6.31098e-22
2.00787e-21
4.97369e-21
1.64348e-22
9.19849e-21
5.68817e-21
7.51715e-21
6.33103e-21
1.31692e-21
2.7141e-21
5.4701e-21
7.36797e-21
1.57757e-21
5.34199e-21
1.48758e-22
5.9706e-21
2.72842e-21
9.67215e-21
3.18312e-21
5.50105e-22
1.4644e-21
1.14513e-21
5.2436e-21
2.52663e-21
9.32346e-22
1.79007e-21
1.40241e-21
7.28503e-21
8.53697e-22
3.16137e-21
2.6913e-21
8.73237e-22
1.08468e-21
2.90534e-21
6.37211e-22
8.81898e-21
8.78099e-21
7.29533e-22
1.45657e-21
1.4101e-21
2.13591e-21
8.47155e-21
6.08875e-22
5.58943e-21
4.6844e-21
1.09286e-21
1.46893e-20
5.95629e-21
4.86734e-21
2.39916e-22
1.80122e-21
5.56754e-21
3.6956e-21
1.34565e-22
1.26355e-20
2.76297e-21
1.51202e-21
2.32105e-22
1.42497e-20
9.97583e-21
6.6115e-23
4.90864e-21
6.13643e-21
1.73166e-21
7.57443e-22
1.60818e-21
9.97488e-21
1.58793e-21
3.65517e-23
3.10604e-21
1.0922e-21
2.01285e-22
1.4375e-21
3.8181e-21
1.25655e-21
3.28271e-21
4.77654e-21
9.12163e-21
2.17053e-21
5.04784e-22
1.33483e-20
1.79188e-21
1.59125e-21
1.80605e-21
9.31339e-21
4.44926e-21
5.77376e-22
1.25823e-21
4.57044e-21
3.77027e-21
3.33367e-21
1.25965e-20
4.521e-21
4.78641e-21
4.58125e-21
1.04195e-21
9.26559e-21
7.98282e-21
2.27924e-20
3.75913e-21
7.81531e-21
7.47596e-21
5.9336e-21
9.72046e-22
3.52137e-21
1.08356e-20
1.22484e-21
2.44878e-21
4.28697e-21
8.64875e-21
6.8455e-22
2.59675e-21
1.32235e-21
2.05147e-21
4.37442e-22
1.24626e-21
8.21331e-21
3.08246e-21
2.49418e-21
3.62311e-21
8.43696e-22
4.65524e-21
1.28901e-21
1.65195e-21
2.22492e-22
7.1492e-21
3.24933e-22
1.11646e-20
2.61933e-22
2.80387e-22
4.86095e-21
4.18706e-22
2.89555e-21
1.21359e-23
6.25089e-22
2.28344e-21
7.97705e-22
1.09205e-20
3.47533e-21
1.34583e-21
1.59123e-21
4.11522e-21
1.43925e-21
1.18802e-21
5.60098e-21
2.21755e-21
1.77462e-21
1.22673e-21
9.8102e-21
3.76247e-22
4.28222e-21
2.99763e-22
8.04463e-21
1.10985e-20
9.51816e-21
6.27803e-22
4.96173e-22
3.34757e-21
6.11152e-21
1.0486e-21
2.34427e-21
3.4757e-21
1.05806e-20
5.33808e-22
2.74635e-22
3.4981e-21
4.43087e-21
7.97512e-23
1.96188e-21
4.35012e-21
1.73709e-21
3.20087e-21
9.09671e-22
1.71232e-21
9.26009e-21
8.19756e-22
1.70496e-21
1.23068e-21
9.81383e-21
7.86988e-21
5.00011e-21
3.03717e-21
5.61457e-21
8.51339e-21
1.79716e-21
1.15012e-21
8.08123e-23
1.88548e-20
2.2207e-21
4.59447e-21
6.86297e-22
1.06271e-21
1.46851e-21
2.25147e-21
1.30195e-21
9.21601e-21
2.18514e-21
1.28533e-20
2.51682e-21
1.1609e-20
1.40757e-21
8.64674e-21
2.55571e-21
3.79669e-21
1.31002e-21
2.02163e-21
1.70963e-21
1.62111e-21
1.29277e-21
1.22738e-21
5.8329e-21
1.0743e-20
3.20591e-21
1.80637e-23
1.65113e-21
5.44597e-21
9.39878e-21
4.41654e-22
6.47873e-22
6.61433e-22
3.43153e-21
7.65258e-22
1.99917e-21
1.64786e-21
8.40196e-22
1.13435e-20
3.4705e-23
3.20089e-21
2.30416e-21
3.66317e-21
4.72482e-21
2.23588e-22
1.67567e-21
1.16009e-20
6.03401e-21
9.27557e-23
1.33538e-21
1.0065e-21
3.11981e-22
1.27039e-20
7.2375e-21
1.12502e-20
8.89182e-23
3.08336e-21
1.14821e-21
5.96764e-22
1.14018e-22
3.18921e-21
4.81207e-22
1.62127e-21
7.969e-22
1.07781e-20
8.45478e-21
4.43784e-21
9.99609e-23
1.15753e-20
3.77148e-21
1.58361e-21
6.53927e-21
1.27774e-21
1.54753e-21
8.84419e-22
4.04276e-22
1.11024e-21
4.24384e-21
4.40744e-21
3.04007e-21
1.88834e-21
5.47872e-22
8.30052e-22
7.87576e-21
6.96953e-21
1.32064e-21
5.31034e-21
1.62083e-22
1.59257e-21
4.00503e-21
7.75458e-21
1.7742e-22
4.33523e-21
3.16696e-21
1.64504e-21
1.7285e-21
6.24333e-21
1.23968e-20
1.54132e-21
6.33337e-23
3.85013e-21
1.51793e-21
3.4226e-21
2.76824e-22
1.92674e-21
3.69452e-21
7.30451e-22
2.69457e-21
1.07261e-21
4.57024e-21
6.20778e-21
1.35429e-20
1.80808e-21
7.70007e-21
9.04255e-21
5.06786e-21
1.48782e-20
1.40831e-20
3.06121e-23
4.10695e-21
1.0115e-20
2.14898e-21
5.45169e-21
2.0816e-21
2.31279e-21
1.05343e-20
3.02265e-21
4.35079e-21
1.83144e-21
4.22525e-22
6.24585e-21
6.80966e-22
5.10893e-21
1.42993e-21
4.57272e-21
2.55293e-21
5.77389e-23
1.39164e-20
5.07831e-21
9.02984e-23
2.32081e-21
2.18937e-21
5.1564e-21
1.34253e-22
1.57677e-20
3.97451e-21
9.10274e-21
1.95637e-21
7.65818e-21
1.32155e-21
7.93512e-21
2.10168e-21
3.86045e-21
5.82097e-21
2.41736e-21
4.00344e-22
2.1878e-21
1.31142e-21
1.15733e-20
7.70606e-21
2.91728e-21
3.46828e-21
9.87342e-22
2.36052e-21
2.99923e-22
6.48891e-24
3.92434e-21
5.74324e-22
4.47465e-21
2.67053e-21
2.37973e-22
2.93753e-21
6.14655e-21
3.4977e-21
3.6377e-21
3.6672e-21
8.45641e-22
6.95433e-22
7.40164e-22
1.31484e-21
2.72021e-21
5.05711e-21
2.85165e-21
5.37986e-21
1.60903e-21
6.52594e-21
4.32402e-22
1.15437e-21
2.12603e-21
1.88146e-21
3.60006e-21
5.31724e-22
3.56657e-23
7.02796e-22
1.27409e-21
5.90193e-21
1.27483e-20
4.94697e-21
5.74224e-21
7.14905e-21
1.22815e-21
3.83905e-21
5.44363e-22
1.54653e-21
9.1522e-21
4.5137e-21
4.57242e-21
9.65469e-22
2.81792e-21
7.64002e-21
8.11384e-22
1.26503e-20
4.44291e-21
7.40375e-21
1.85647e-21
6.01882e-21
8.58643e-21
5.43725e-21
9.52704e-21
7.01637e-21
6.62797e-22
5.58652e-21
1.54478e-21
9.07641e-22
1.74637e-21
2.15754e-21
1.15385e-20
6.54281e-22
4.25266e-21
2.79526e-21
8.05028e-22
3.98483e-22
1.89027e-21
2.53431e-21
2.99783e-20
2.2122e-21
1.12722e-20
4.61364e-22
5.29555e-21
2.28604e-22
5.06604e-21
1.47962e-21
8.65665e-22
1.66163e-21
5.96085e-22
7.22452e-21
9.25583e-21
6.54346e-21
1.94485e-21
2.33371e-21
1.41975e-21
1.10424e-20
6.51359e-22
1.06732e-22
3.16214e-21
3.82349e-21
3.16356e-21
3.71499e-21
4.39814e-21
1.8497e-21
3.07753e-21
5.09999e-22
1.15461e-20
2.23083e-21
5.64845e-21
7.9894e-21
3.34988e-21
1.13517e-20
9.24761e-21
4.92689e-21
3.41177e-21
3.34875e-21
5.67304e-22
9.11235e-21
2.67445e-21
4.24605e-21
2.54022e-22
8.20322e-23
5.23735e-22
6.3799e-21
3.25173e-21
3.8612e-21
3.67681e-21
1.47483e-20
4.32216e-21
1.42604e-22
6.09684e-21
3.70401e-21
5.03638e-21
1.70271e-20
6.05958e-23
2.54641e-21
9.21175e-21
6.55296e-21
4.6546e-22
9.77274e-22
3.54638e-22
2.05728e-21
3.38359e-21
1.39302e-22
2.23952e-21
1.3694e-20
1.99677e-21
3.00224e-21
1.07546e-20
8.0974e-21
4.02868e-22
8.85076e-21
1.21476e-20
6.09838e-21
1.40504e-21
1.47764e-21
5.2935e-21
2.05356e-21
1.37142e-20
4.45207e-21
3.61763e-21
7.94174e-22
1.10981e-21
4.92736e-21
6.72653e-22
8.63995e-22
4.30692e-21
1.6956e-20
6.44132e-21
4.46939e-21
6.89165e-21
1.90785e-21
5.18511e-22
2.10507e-22
1.2132e-21
1.09548e-20
1.11199e-20
9.67801e-21
2.05958e-22
6.25538e-21
6.28519e-22
1.56074e-20
2.91299e-22
5.85536e-22
1.22434e-20
1.93894e-21
3.02412e-21
6.17894e-21
9.32532e-21
1.50701e-20
3.2308e-21
1.08562e-21
6.92871e-21
1.8514e-21
2.07426e-21
1.02378e-22
2.18325e-21
9.39872e-21
1.66186e-21
1.45658e-22
2.73989e-21
6.97909e-21
2.06798e-20
4.67398e-21
5.53119e-21
4.38309e-21
7.53134e-22
1.52969e-21
7.13604e-21
2.47101e-21
8.79643e-21
2.77863e-21
2.49625e-21
1.11852e-21
7.91753e-22
7.27846e-22
7.65289e-22
3.00319e-21
2.03887e-20
3.73509e-22
8.57371e-21
7.42844e-22
3.89337e-21
2.40572e-20
8.87213e-21
2.53018e-21
1.11314e-20
2.93637e-22
1.67746e-20
1.1735e-22
1.9608e-20
1.21996e-21
2.58661e-21
9.25369e-22
2.0208e-21
1.13386e-20
7.61494e-21
3.94137e-21
2.24155e-21
5.21398e-22
8.93085e-21
5.71493e-21
8.35393e-21
5.04858e-22
1.00164e-20
3.07984e-21
1.57243e-21
9.18705e-21
1.25859e-23
3.66152e-21
2.48377e-21
3.67458e-21
6.44038e-21
4.12799e-21
3.07244e-21
1.89256e-21
4.76709e-21
1.28296e-21
1.05921e-20
1.49641e-21
1.77134e-21
1.23709e-21
6.63759e-21
1.9905e-21
1.01458e-20
8.60164e-21
8.52894e-22
1.08481e-20
5.29674e-21
7.34797e-21
1.77236e-21
1.10666e-20
8.30851e-21
5.74216e-22
2.5844e-21
7.17069e-21
1.67475e-21
4.29919e-22
1.21841e-20
1.00939e-22
1.89712e-21
1.1758e-21
2.69677e-21
2.02748e-20
9.30366e-21
5.67235e-22
9.27794e-21
4.27664e-22
7.61551e-21
2.44072e-21
1.98205e-23
2.89169e-21
1.70629e-21
1.61976e-21
9.94413e-21
3.41483e-21
8.79555e-22
1.7941e-21
4.73098e-21
1.42029e-20
3.13143e-21
2.30309e-21
5.35112e-21
1.95813e-21
5.67169e-21
4.68515e-22
4.37946e-21
1.33674e-21
9.43564e-21
2.33225e-21
1.86021e-20
4.32464e-21
1.01544e-20
1.56897e-21
5.34521e-22
5.66787e-21
2.281e-23
3.85891e-23
4.61978e-21
7.54422e-21
3.43195e-21
5.29035e-21
4.50216e-22
1.98955e-20
9.28429e-22
4.0637e-23
5.71701e-21
1.49818e-21
1.04683e-21
2.17787e-21
8.29329e-22
6.1649e-22
5.1489e-21
9.37384e-21
9.61263e-21
1.26434e-20
5.46327e-22
8.43368e-22
1.95917e-21
5.96443e-22
4.33123e-21
5.96834e-21
5.73719e-21
2.43646e-21
1.19607e-20
1.33782e-21
1.14895e-21
1.26452e-21
2.53606e-21
1.62408e-21
3.41347e-22
7.01819e-22
1.08745e-21
3.93028e-22
3.68774e-21
6.31394e-21
5.81431e-22
4.82124e-21
1.08652e-21
1.74474e-22
9.98467e-21
1.71142e-21
1.20098e-21
1.79331e-20
4.96599e-22
8.54772e-21
1.78755e-20
2.47076e-21
5.48868e-21
3.3044e-22
4.30633e-22
1.34753e-21
2.6817e-21
6.67522e-21
1.87855e-21
1.63292e-21
9.21714e-21
1.08333e-21
2.80888e-21
8.31309e-22
8.82366e-21
8.67481e-21
6.10046e-21
2.85014e-21
1.21683e-20
1.22702e-20
1.07698e-21
1.2106e-21
5.09968e-21
3.41951e-21
1.43604e-21
1.02041e-20
2.99686e-21
8.82712e-21
5.04791e-21
2.84179e-22
1.80011e-21
1.27857e-21
1.27255e-20
2.19574e-21
7.56653e-22
3.79524e-21
6.49821e-21
8.96534e-22
1.01682e-20
3.19202e-21
2.65515e-21
1.09982e-20
3.5395e-21
3.3406e-21
2.43584e-21
7.74569e-22
9.8486e-21
2.04597e-21
1.6088e-20
6.91303e-22
9.57876e-22
1.77766e-20
4.86258e-22
1.06124e-20
1.57495e-21
4.31311e-23
7.27803e-22
1.19376e-21
3.06252e-21
7.9652e-21
1.36062e-21
8.3866e-21
3.63173e-21
7.44987e-21
1.38713e-21
2.38164e-21
4.4456e-21
8.60823e-21
7.39105e-21
1.03528e-21
3.41784e-21
1.17017e-20
1.76593e-20
1.75093e-21
5.58973e-22
8.48803e-21
1.17425e-20
3.61305e-22
5.08924e-21
5.4425e-21
4.37465e-21
1.19927e-20
1.64919e-20
1.86604e-21
3.86461e-22
1.51976e-21
3.99603e-21
2.33434e-20
1.90125e-21
2.78693e-21
4.66539e-21
6.10865e-21
4.78817e-22
4.15409e-21
5.19847e-21
8.44023e-24
5.76987e-22
1.45699e-21
6.42832e-21
3.26069e-21
3.03706e-21
5.55663e-21
1.29968e-20
5.17149e-21
1.16354e-20
6.91999e-22
2.7876e-21
4.27578e-22
4.29517e-21
1.5797e-21
5.48825e-22
8.49699e-21
2.6537e-21
3.12707e-21
4.2787e-21
2.24296e-21
3.33846e-21
1.8452e-22
6.09073e-22
8.7758e-22
1.20508e-21
6.81646e-22
1.68462e-21
3.49131e-21
4.31042e-21
6.66517e-21
1.63279e-21
2.14459e-22
2.40808e-21
2.36837e-21
4.74112e-21
8.75551e-22
1.22157e-21
1.19282e-20
5.00125e-21
6.53345e-21
5.95555e-21
1.09568e-20
2.42988e-22
2.39666e-21
9.30092e-21
6.98737e-22
7.0474e-22
3.19595e-22
5.31528e-21
2.57062e-21
3.86729e-21
2.0914e-21
4.06927e-21
1.32507e-20
6.53345e-22
1.88438e-21
5.35961e-21
1.90401e-21
1.35175e-21
8.64497e-22
7.1618e-22
2.65059e-21
4.06284e-21
1.17583e-21
6.26808e-21
9.3015e-22
8.27124e-22
2.92115e-21
2.54729e-21
8.27228e-24
8.92867e-21
4.87051e-21
8.86219e-22
2.28898e-21
8.01193e-22
1.69859e-22
1.36096e-20
3.0627e-21
3.07085e-21
5.97401e-23
1.39907e-21
1.60833e-21
1.2639e-20
4.87337e-21
5.16324e-21
4.20948e-21
4.15582e-21
5.69085e-21
9.06895e-21
5.46682e-21
8.03332e-21
4.32015e-22
1.02509e-21
5.4849e-22
3.04728e-21
1.91833e-21
3.645e-21
4.0311e-21
9.4373e-21
2.88676e-21
3.21212e-22
3.27572e-21
9.35605e-22
4.15229e-22
4.39165e-21
8.41674e-21
4.9376e-21
2.41966e-21
2.287e-22
5.81385e-21
1.7997e-21
2.78335e-21
3.07505e-21
2.46145e-23
1.21506e-20
2.24943e-20
4.03404e-21
6.52373e-21
2.37292e-21
1.89425e-20
2.15512e-21
8.11811e-22
4.39522e-22
6.44381e-21
2.94559e-20
7.56795e-22
8.43577e-21
2.84107e-21
6.57795e-21
1.75402e-21
3.55753e-21
1.49647e-20
5.90002e-21
1.42388e-21
3.04705e-21
2.27549e-22
2.41353e-22
1.83838e-21
3.70856e-21
6.45843e-21
5.52552e-21
7.58047e-22
4.33191e-21
8.70313e-22
3.4308e-22
1.07508e-21
4.33448e-21
3.68726e-21
4.43327e-21
7.37835e-22
7.75744e-22
2.17728e-21
5.56132e-22
6.25315e-21
4.70879e-21
2.78393e-21
6.02265e-22
1.56489e-21
1.38099e-21
2.14476e-21
5.25005e-21
1.05884e-21
4.14888e-21
2.01972e-23
6.62187e-21
5.61393e-21
5.54036e-22
7.19132e-21
5.61564e-21
5.08108e-21
2.66299e-20
3.8524e-21
3.97385e-21
8.2433e-23
4.7191e-21
2.39708e-21
5.39628e-21
7.96266e-21
9.57978e-21
1.63338e-20
2.84238e-22
4.39088e-21
6.25698e-21
1.54446e-21
2.53658e-21
8.31973e-22
3.28546e-21
2.22085e-21
6.10941e-21
1.56493e-20
5.05703e-21
1.70664e-21
8.60746e-21
1.55572e-21
2.00598e-22
6.64886e-21
5.43683e-21
1.2673e-20
8.1771e-23
4.24687e-22
1.72606e-21
8.46114e-22
1.28026e-21
2.33379e-21
8.54573e-21
6.14265e-23
8.79527e-22
5.64746e-21
2.61519e-21
5.13493e-21
7.41985e-21
1.5756e-21
1.91298e-21
6.32427e-21
2.50061e-21
1.57276e-21
6.09418e-22
6.94715e-21
1.33986e-20
1.07e-21
1.70801e-21
2.70785e-21
6.75372e-22
1.24442e-21
2.16764e-21
6.08919e-21
4.54823e-21
3.628e-21
3.30577e-21
9.45413e-22
6.13e-21
3.82818e-21
6.51081e-21
2.61077e-21
1.23169e-21
1.09236e-20
1.36351e-20
6.09951e-21
1.03178e-21
4.42186e-21
7.91124e-21
2.69024e-21
1.03487e-21
1.76175e-21
1.58835e-20
5.93662e-21
9.28035e-21
1.48264e-21
1.6345e-20
7.49397e-22
3.09581e-21
2.73468e-21
3.83519e-21
4.14551e-21
7.25805e-22
7.43443e-21
4.56852e-21
2.37891e-22
2.35822e-20
5.32209e-21
5.62511e-22
7.75523e-21
6.44693e-21
1.2825e-21
6.15178e-22
1.47848e-22
4.26152e-22
4.61959e-21
2.93686e-21
2.82674e-22
1.35917e-21
6.55938e-21
4.11733e-21
4.49045e-21
3.65395e-21
2.43458e-21
8.05228e-21
1.02702e-20
1.08049e-21
4.92918e-22
1.1263e-20
3.12923e-21
2.32911e-22
6.69122e-21
1.63085e-21
1.22663e-20
1.11232e-22
8.16306e-22
7.24282e-21
7.55745e-21
4.29035e-21
8.6144e-22
1.09105e-20
4.31535e-22
1.55334e-21
2.25462e-21
1.11743e-21
3.77018e-21
7.21729e-21
7.60782e-22
5.53355e-21
1.90524e-20
6.06076e-22
2.93964e-20
4.86949e-21
5.31484e-22
2.55176e-21
3.04538e-21
2.23818e-21
3.53839e-21
9.05479e-21
7.02016e-21
3.28897e-21
3.26396e-21
2.37091e-21
2.75156e-21
1.59629e-21
3.87741e-21
8.48e-22
7.51045e-21
1.03363e-20
1.58027e-22
7.59879e-21
2.09313e-21
4.81865e-22
4.62709e-21
8.39711e-22
1.17079e-21
4.14093e-21
1.01501e-20
4.59337e-21
3.03887e-21
3.81252e-21
3.47662e-21
4.4685e-21
2.89517e-21
1.26831e-20
3.34561e-21
4.79011e-21
1.18526e-21
5.34883e-21
9.63503e-21
1.51683e-21
9.77581e-22
9.29823e-22
1.35541e-20
4.75729e-21
5.53556e-21
3.62207e-21
1.13601e-21
1.87256e-22
2.41147e-21
1.60267e-20
7.02437e-21
1.00289e-21
2.22622e-21
1.03861e-21
2.54653e-21
4.74278e-21
1.82774e-21
4.88478e-21
2.69152e-22
9.30852e-22
1.28581e-20
6.48775e-22
1.72923e-21
1.20118e-21
4.13782e-22
9.68884e-22
4.38673e-21
1.31378e-21
2.59566e-21
3.12502e-22
6.44201e-21
6.11312e-21
2.41136e-21
8.22935e-22
3.56201e-21
2.85057e-21
2.65489e-21
7.64753e-22
4.48888e-21
1.90185e-21
1.30992e-21
5.35038e-21
8.41728e-21
1.26601e-22
1.65091e-21
7.26659e-21
7.4894e-21
3.80757e-23
2.86707e-20
2.21212e-21
2.30383e-20
2.13262e-22
1.79117e-21
4.40043e-21
5.3235e-21
5.41711e-21
2.83385e-21
6.73887e-21
3.88127e-21
6.36575e-22
8.90889e-22
3.59056e-21
1.50467e-20
2.15766e-21
1.14265e-20
1.52383e-21
1.87884e-21
1.67847e-21
3.14838e-22
2.52651e-21
5.96066e-21
1.98712e-21
5.35763e-21
3.1921e-22
9.48512e-21
4.30004e-21
3.96517e-21
2.13407e-21
1.05239e-21
1.19055e-20
6.95982e-21
5.24123e-22
1.22207e-21
1.27504e-20
9.30674e-21
2.61793e-21
1.50294e-20
5.81588e-21
1.30037e-20
5.52138e-21
7.73932e-21
3.58302e-21
1.04926e-20
1.28762e-20
4.50689e-22
6.34342e-21
9.83442e-21
6.49726e-22
7.47738e-21
9.35197e-22
3.17181e-22
6.03649e-22
1.81978e-21
2.34091e-21
5.39174e-21
2.18084e-21
4.58491e-22
2.0781e-21
1.55817e-21
3.91475e-22
1.001e-22
7.73899e-22
1.45723e-20
5.66504e-21
8.77819e-21
1.29456e-21
1.75383e-20
2.20536e-21
1.70499e-21
4.1055e-21
7.28246e-21
1.15582e-21
6.25674e-21
1.88561e-21
3.7341e-21
4.58084e-21
1.31159e-22
3.64842e-21
4.69863e-22
2.06704e-21
1.74354e-21
2.03442e-20
7.2691e-21
5.0736e-21
2.30216e-21
3.8579e-21
6.15098e-21
1.97633e-21
5.05827e-22
2.61987e-22
2.80485e-21
3.33527e-21
8.02684e-21
5.89562e-21
2.38775e-22
3.38767e-21
6.12191e-21
5.70647e-22
1.06361e-20
3.00089e-21
2.92347e-21
7.87431e-21
6.40363e-23
5.90207e-22
7.91294e-22
9.83167e-22
1.82195e-20
8.17036e-22
5.65695e-21
8.18955e-21
2.3706e-24
7.19882e-21
4.87147e-21
9.26931e-21
1.26563e-20
5.07453e-21
3.08324e-21
1.34454e-21
1.62188e-21
2.06021e-22
7.10242e-21
3.76084e-23
8.14391e-22
1.02916e-20
5.32366e-21
1.24749e-21
1.1478e-20
6.68949e-22
6.99701e-21
1.06881e-21
1.09375e-22
6.21783e-21
1.13334e-20
5.43879e-21
2.76414e-21
1.37762e-21
3.92992e-21
2.47726e-21
2.32427e-21
5.02005e-22
1.46564e-21
7.73771e-21
5.24387e-22
8.25544e-21
5.84553e-22
2.04966e-21
8.16273e-21
3.4373e-21
1.28897e-22
4.37619e-22
2.88403e-21
9.25637e-21
2.39273e-21
3.6343e-22
1.20167e-21
3.28623e-21
4.12714e-21
5.12303e-22
2.08178e-21
1.32554e-21
8.54873e-22
1.80975e-21
1.06223e-20
1.00272e-21
1.96387e-21
2.23855e-21
1.84174e-20
3.73246e-21
1.61655e-20
9.77373e-22
4.57054e-22
6.32756e-22
7.77963e-21
1.50475e-20
2.7781e-23
4.4777e-21
2.06732e-21
4.38474e-21
1.1563e-21
2.1206e-21
5.69195e-21
3.44273e-21
1.03538e-21
1.0975e-21
4.18795e-22
1.02295e-21
3.69651e-21
2.27317e-20
8.98409e-22
9.93681e-22