/*--------------------------------*- C++ -*----------------------------------*\
  =========                 |
  \\      /  F ield         | OpenFOAM: The Open Source CFD Toolbox
   \\    /   O peration     | Website:  https://openfoam.org
    \\  /    A nd           | Version:  7
     \\/     M anipulation  |
\*---------------------------------------------------------------------------*/
FoamFile
{
    version     2.0;
    format      ascii;
    class       scalarField;
    location    "0.00216/lagrangian/dsmc";
    object      Ei;
}
// * * * * * * * * * * * * * * * * * * * * * * * * * * * * * * * * * * * * * //


9206
(
1.39071e-21
7.4887e-21
2.60021e-21
5.16261e-21
1.14624e-20
5.22158e-22
2.27121e-21
3.00617e-21
4.02885e-22
9.41942e-22
2.52588e-23
6.64929e-22
9.3455e-21
9.60031e-21
2.87784e-21
4.36284e-22
1.59333e-21
3.04559e-21
2.92297e-21
7.24768e-21
5.85861e-21
1.97014e-21
3.37065e-21
1.98225e-21
2.23886e-21
2.95031e-21
6.01158e-21
1.29374e-21
2.85308e-21
7.57586e-22
2.71467e-22
1.17142e-21
8.58995e-21
9.61259e-22
8.13761e-21
9.95861e-21
7.49581e-21
3.46486e-21
2.0115e-21
4.143e-21
1.69647e-21
9.4637e-21
1.014e-20
1.21163e-20
3.6438e-21
2.02177e-23
7.40291e-21
1.24358e-21
5.59015e-21
3.65518e-21
1.00992e-21
4.6825e-21
6.51101e-21
6.65464e-21
1.04022e-21
4.18749e-21
1.94195e-21
3.50075e-21
1.45204e-21
7.52992e-21
5.51428e-22
7.27972e-21
1.05812e-21
1.7287e-22
3.3712e-21
5.96968e-21
3.07506e-21
2.75486e-21
2.86985e-21
3.42652e-23
6.12084e-23
2.61413e-21
6.12616e-21
4.61725e-21
8.81457e-22
3.80971e-21
4.33731e-22
4.13553e-21
6.63328e-21
7.21134e-22
1.49935e-21
6.74139e-21
5.11203e-21
1.58466e-21
4.28251e-21
4.74853e-21
3.17711e-22
2.7175e-23
8.71362e-22
6.24916e-22
9.21164e-21
7.1606e-21
4.80419e-22
9.42238e-21
1.92945e-21
2.99186e-21
1.48269e-21
3.65934e-21
3.6163e-21
3.5212e-22
3.96e-23
4.59002e-23
7.88117e-22
1.31679e-21
4.60578e-21
6.09735e-21
5.66126e-21
7.72915e-21
7.67472e-21
1.81262e-21
1.69277e-21
1.27932e-21
3.21949e-21
1.30237e-20
6.05316e-21
5.10267e-21
5.33368e-21
6.19581e-21
2.86276e-21
3.21874e-22
9.84416e-22
3.01783e-22
4.10339e-21
1.03507e-20
4.79131e-21
6.04766e-21
2.76394e-21
1.86145e-21
8.70475e-21
5.98299e-21
1.16135e-20
1.41439e-21
2.69504e-21
2.14328e-21
5.83855e-21
5.95348e-21
2.30008e-21
7.22747e-22
5.64391e-21
4.95403e-21
6.46828e-21
2.50178e-21
7.58488e-21
2.17918e-21
8.87658e-21
2.74352e-21
4.49549e-21
1.39431e-20
1.32608e-20
7.47391e-21
8.34619e-22
4.76873e-21
1.71949e-21
1.71086e-21
6.87021e-21
1.73557e-21
5.16783e-21
6.90629e-21
1.27958e-21
1.60763e-20
6.31809e-21
3.62599e-21
1.88508e-21
2.29446e-21
2.83796e-21
3.88208e-21
4.41326e-21
1.18586e-20
2.2182e-21
7.30347e-21
1.32864e-20
1.65784e-21
2.19696e-22
2.81832e-21
6.75152e-22
1.13285e-21
2.29047e-21
1.4834e-20
1.36855e-21
3.55354e-21
2.69162e-21
3.15049e-22
1.00623e-21
7.75595e-21
4.96462e-21
2.44557e-21
1.31337e-20
1.92994e-21
4.36876e-22
1.3335e-21
4.04395e-21
4.78604e-21
8.16042e-22
6.58849e-23
3.0682e-21
2.09741e-21
4.61989e-21
4.83978e-23
9.13899e-21
4.60904e-21
1.9951e-21
1.56201e-20
3.25389e-21
8.5467e-21
1.48882e-21
1.16813e-21
9.7683e-22
1.90355e-21
4.54858e-21
6.01694e-21
2.10525e-21
9.28189e-21
8.70531e-22
3.92637e-21
7.66375e-21
3.3515e-21
1.1989e-20
1.10159e-20
2.94098e-21
2.40137e-21
2.27853e-21
1.60111e-20
7.80524e-21
2.05423e-21
8.50081e-22
6.69956e-21
6.43127e-21
4.72957e-21
6.70985e-21
6.00169e-24
1.88406e-21
3.42273e-21
7.13946e-21
3.31484e-21
9.36016e-22
1.09549e-21
3.12278e-21
2.17865e-21
4.81442e-21
5.4875e-21
9.48701e-21
3.50684e-21
5.39193e-21
5.01829e-21
1.02665e-20
2.74109e-21
9.53236e-22
6.88947e-21
1.19461e-21
4.81811e-21
1.17171e-20
4.36907e-21
4.69475e-21
1.06174e-20
2.47609e-21
1.16269e-20
4.17363e-21
1.39362e-20
3.16658e-23
5.03037e-22
4.20014e-24
1.45665e-20
6.27092e-22
2.04536e-21
6.53367e-22
6.65368e-21
3.4631e-22
1.04514e-20
1.41677e-20
4.47187e-21
4.88907e-23
1.40351e-21
6.24816e-21
5.74252e-22
1.57188e-21
9.58229e-21
2.70877e-21
1.59575e-20
9.36108e-21
3.13375e-21
2.13763e-21
3.26824e-21
1.3542e-21
1.93355e-21
2.00144e-21
6.88651e-21
5.3546e-22
1.7125e-21
1.05363e-21
8.19235e-21
4.48258e-21
1.36265e-20
1.5907e-22
5.2242e-21
2.49191e-21
7.37985e-21
1.97822e-21
5.75287e-22
3.24543e-22
1.30851e-22
1.51922e-21
1.31493e-20
9.22795e-22
3.50012e-22
2.89747e-21
4.92525e-22
4.21572e-21
2.28638e-21
1.9878e-21
5.92585e-21
1.80976e-21
3.20242e-22
3.14737e-21
1.1975e-20
2.75786e-21
5.04745e-21
4.44484e-21
7.37125e-21
2.2567e-21
1.23895e-20
6.72125e-21
2.17485e-20
1.0689e-21
7.4774e-22
1.10902e-20
2.94666e-21
6.30869e-21
2.15042e-21
1.63877e-21
1.13248e-21
5.22687e-21
3.55808e-21
6.90202e-21
1.11905e-20
2.19122e-21
3.82184e-21
5.19778e-21
3.3878e-21
7.46218e-21
1.28066e-21
3.72638e-22
9.75841e-22
2.82006e-21
1.89056e-21
3.92127e-22
8.00635e-21
4.6545e-21
8.75518e-24
1.77786e-21
1.11648e-20
5.4017e-22
8.23375e-23
3.59355e-21
4.81954e-22
6.10075e-22
3.03433e-21
1.75544e-21
6.39515e-21
2.2323e-20
1.20237e-20
6.94314e-22
2.10356e-21
1.59706e-21
1.08624e-21
3.00214e-21
1.7058e-20
3.47574e-21
1.6029e-22
2.23508e-22
2.59849e-21
3.55496e-21
4.06439e-22
1.15484e-20
3.50304e-21
4.3237e-21
1.85966e-20
2.7099e-21
2.75337e-21
3.31207e-21
4.14397e-21
3.43014e-22
2.58368e-21
3.59797e-21
2.60991e-21
9.4799e-22
1.79883e-22
2.94648e-21
2.66059e-21
5.40911e-21
9.41263e-21
6.38907e-21
7.28136e-21
2.41393e-21
1.46939e-20
3.01335e-21
1.80991e-21
3.37003e-21
2.36601e-21
8.82005e-22
8.01982e-22
4.94001e-21
3.17506e-21
1.53392e-21
1.406e-20
1.69922e-21
3.24245e-21
1.25807e-21
1.76391e-21
7.81888e-22
3.20291e-21
5.96044e-22
5.73634e-21
2.38293e-21
1.69116e-22
6.94521e-22
1.00128e-20
3.89228e-21
9.81908e-23
1.0588e-21
1.06867e-20
9.62416e-21
1.11828e-21
4.2631e-21
6.87991e-22
1.32453e-21
1.44873e-21
5.08938e-21
1.35172e-21
9.14096e-22
4.07634e-21
1.28394e-20
6.23708e-22
1.33419e-21
2.23469e-21
2.9917e-22
8.7013e-21
6.78192e-22
5.39936e-21
1.88496e-21
4.51635e-21
5.92756e-21
5.087e-21
2.59466e-21
3.3534e-21
1.66367e-21
2.11487e-21
3.78099e-21
1.26218e-20
8.36867e-22
9.93656e-21
1.53227e-21
1.37914e-21
1.46237e-21
5.31859e-21
5.9974e-22
6.80571e-21
6.98639e-22
4.01855e-21
1.94428e-21
1.05703e-20
8.43191e-22
2.73985e-22
8.68567e-21
2.00722e-22
3.07633e-21
5.46177e-21
8.77611e-21
5.17029e-22
5.86946e-21
3.26921e-22
7.72586e-21
2.38676e-21
3.69393e-21
8.37134e-21
4.58125e-21
8.51112e-22
3.0237e-21
1.19949e-20
8.52235e-21
7.0572e-21
5.34189e-21
4.66013e-21
7.38149e-21
2.37555e-21
1.3597e-21
5.38078e-21
2.73503e-21
6.43628e-22
3.57348e-21
2.30653e-21
4.69942e-21
7.90019e-22
2.23511e-21
1.19948e-21
9.94756e-21
8.7822e-22
3.87589e-22
7.54298e-21
9.20197e-21
1.01789e-20
1.71325e-22
7.9834e-21
1.23371e-21
1.15437e-21
2.99988e-21
3.59581e-21
5.32085e-21
1.4083e-20
5.53457e-21
1.8161e-21
4.96045e-21
5.18405e-21
1.31836e-21
7.88916e-22
1.16726e-20
1.33901e-20
4.58552e-21
8.58171e-21
5.78765e-21
1.04141e-20
1.66186e-21
8.09913e-22
1.25562e-20
8.72001e-22
2.23645e-21
7.49033e-22
2.53242e-22
7.59236e-21
1.19944e-21
2.28528e-21
1.31173e-21
5.11498e-23
9.7017e-22
4.8517e-21
9.17669e-22
4.38485e-21
5.82291e-21
1.74988e-21
7.21412e-21
7.61297e-22
9.06826e-22
4.83894e-21
1.49821e-20
1.35118e-21
3.24489e-22
6.75665e-21
3.15772e-21
8.27734e-21
3.40924e-21
4.67111e-22
5.76534e-22
4.89303e-22
2.25045e-21
1.01125e-20
1.00912e-20
1.17489e-22
1.34937e-21
3.66551e-21
2.51565e-21
1.89732e-21
1.18599e-21
1.2224e-21
5.92221e-21
5.10922e-22
6.42903e-21
6.06931e-21
2.12582e-21
6.80808e-21
2.73109e-21
3.6615e-21
2.45633e-21
3.56795e-21
6.67907e-21
4.66952e-21
7.61171e-21
7.04065e-21
2.44709e-21
1.32419e-20
4.87707e-22
3.2054e-21
4.63242e-21
4.37993e-21
1.28617e-21
5.99385e-21
9.11784e-22
2.1781e-21
5.07501e-21
1.88253e-21
1.20289e-21
5.68492e-21
1.62963e-21
1.3961e-20
5.88562e-21
1.69965e-21
2.09926e-21
4.11423e-21
4.05312e-21
4.89799e-21
1.03153e-21
1.92431e-21
1.15652e-21
2.59812e-21
2.66046e-21
2.88214e-21
1.38359e-21
7.30133e-22
2.0377e-21
5.94865e-21
1.58244e-20
4.40874e-21
3.34007e-21
6.48601e-21
5.24663e-22
1.14862e-20
1.60563e-21
2.94543e-21
2.58914e-21
4.66916e-21
1.69913e-21
8.93207e-22
3.55109e-21
1.18514e-21
8.98513e-21
2.42047e-22
3.50011e-21
1.99733e-21
1.61357e-21
5.33103e-21
4.19018e-21
1.8886e-21
2.64446e-22
1.2218e-20
7.63975e-21
4.37408e-21
1.2258e-21
1.29785e-21
1.55102e-20
8.92905e-22
5.73863e-21
7.7598e-21
8.93069e-21
6.05986e-21
3.82004e-21
7.12543e-22
2.62892e-21
2.35383e-21
6.58512e-21
6.24336e-21
1.27271e-21
3.48701e-21
2.41431e-21
3.82801e-21
1.38313e-20
1.06683e-23
3.69465e-21
1.21975e-20
2.57573e-21
5.99803e-21
1.49864e-22
2.2187e-21
9.26461e-23
1.18272e-21
1.74244e-21
1.07307e-21
8.44262e-22
1.82901e-22
1.30165e-21
1.12924e-21
4.32678e-21
5.33833e-22
8.16923e-23
9.86765e-22
2.60893e-21
7.36079e-21
1.42513e-21
4.04208e-21
1.45117e-20
2.51526e-21
2.63363e-21
3.14683e-21
8.43763e-22
7.42771e-21
7.09204e-21
8.08669e-22
4.06234e-21
2.10339e-21
8.20106e-21
7.38724e-21
7.01443e-21
7.54001e-22
4.47157e-21
1.50201e-20
3.67985e-21
5.51052e-21
5.14576e-21
1.77306e-20
3.08869e-21
8.87886e-23
1.17089e-20
2.46569e-21
3.00184e-21
5.86118e-21
8.93196e-22
9.29321e-21
8.67808e-22
5.24123e-21
1.73906e-20
4.22601e-21
3.09132e-21
1.31606e-21
2.09932e-21
4.47458e-21
2.79734e-21
2.53866e-21
3.7056e-22
2.93133e-21
6.13833e-21
4.2915e-21
4.70603e-21
1.27397e-22
1.06552e-21
1.20525e-21
5.18987e-21
1.82962e-22
1.95888e-21
3.38002e-21
4.40986e-22
2.18696e-22
4.75949e-21
1.1263e-20
1.07612e-21
3.74261e-21
4.48626e-21
3.46196e-21
1.59049e-21
7.95607e-22
3.17782e-21
4.73103e-22
8.23033e-21
3.0484e-21
1.18093e-21
1.33902e-21
8.66425e-22
7.50262e-21
2.4243e-21
5.79947e-21
4.94785e-21
4.38911e-21
8.78914e-21
2.07619e-21
3.78576e-21
6.94932e-22
6.4625e-21
8.44951e-21
2.84753e-21
4.8925e-21
8.65635e-21
6.7329e-22
2.06974e-21
7.72955e-21
3.73628e-21
7.7022e-21
3.11229e-21
1.18187e-21
4.01404e-21
8.67945e-21
4.6841e-21
2.39268e-21
2.47371e-21
1.38231e-21
3.05107e-22
9.2695e-22
5.06504e-22
1.99861e-22
5.14292e-21
2.00964e-20
4.22717e-21
1.75904e-21
2.6755e-21
2.8034e-21
1.2459e-21
1.71877e-20
4.6997e-22
3.2427e-22
3.58252e-22
2.44755e-21
1.2451e-21
1.51607e-21
1.69764e-21
2.02386e-21
1.2537e-21
1.90387e-21
3.13588e-21
1.22781e-21
1.89155e-21
2.20227e-21
1.31813e-20
2.38629e-21
4.2259e-21
1.53448e-20
1.88133e-21
1.27019e-21
1.28127e-20
9.36604e-21
4.62542e-23
2.34974e-21
2.03124e-21
1.73366e-20
8.04603e-22
9.12841e-22
5.31175e-21
9.70426e-21
8.80383e-22
6.41388e-21
3.44124e-21
6.82831e-22
1.45817e-21
3.34778e-21
2.36714e-20
1.95417e-21
4.93071e-21
1.34956e-22
1.01077e-21
1.38522e-21
2.296e-21
3.41799e-22
5.35457e-21
4.05204e-21
4.59579e-22
2.28647e-21
1.36968e-21
4.24295e-21
6.58063e-21
7.47469e-21
1.69608e-22
1.0318e-21
4.92997e-22
1.40682e-20
1.67808e-21
4.95705e-21
1.3924e-20
4.06806e-22
3.39698e-21
2.71598e-21
4.22299e-21
7.18348e-22
1.08181e-23
2.39245e-21
2.10708e-22
9.09124e-22
4.8866e-21
1.49083e-21
1.0518e-20
3.20011e-21
3.24961e-21
5.08872e-21
4.78263e-21
2.53978e-22
6.88146e-22
1.25405e-21
1.81293e-21
6.34209e-21
1.62512e-22
2.23375e-21
2.82914e-22
1.41024e-21
4.08492e-23
4.06349e-22
6.48831e-21
1.21602e-21
2.58626e-21
4.7705e-21
7.89687e-21
5.21443e-22
6.51611e-21
2.63836e-21
6.07521e-21
7.59486e-22
4.8503e-21
1.70473e-21
9.11042e-21
2.12022e-21
3.14826e-21
6.14702e-21
5.94324e-22
2.22757e-23
3.22085e-21
3.04383e-21
1.04748e-22
1.90657e-21
2.2236e-22
3.03056e-21
7.85791e-22
4.44868e-23
1.12212e-20
1.39707e-20
2.04623e-21
8.63602e-21
5.66335e-21
1.18167e-20
3.09523e-21
3.35594e-21
2.0844e-21
9.50744e-22
4.0242e-22
7.68515e-22
1.83115e-21
1.18826e-20
2.14603e-21
1.27685e-20
4.64041e-23
4.55584e-21
2.05865e-21
2.21354e-21
8.94602e-22
1.52225e-20
2.08675e-21
1.01268e-21
3.75144e-21
7.17059e-21
9.88139e-22
1.85644e-21
1.05414e-20
3.89374e-21
4.67794e-21
3.68642e-21
1.2717e-20
1.44803e-21
2.06456e-20
4.03346e-22
3.11546e-21
4.98841e-21
1.73985e-21
9.1687e-21
1.18355e-20
3.31615e-21
1.27707e-21
1.13887e-20
3.29036e-21
4.96623e-22
1.17273e-20
2.30454e-21
3.40852e-21
5.97326e-21
6.72971e-21
2.77224e-21
4.31285e-21
2.50429e-21
1.76217e-21
1.70112e-21
3.0573e-21
8.05773e-21
8.55117e-21
3.02735e-21
1.0622e-20
8.93436e-21
4.23038e-21
4.65793e-22
3.80516e-21
8.84664e-22
1.64823e-21
2.75357e-21
2.70166e-21
2.92572e-21
5.0631e-21
6.36345e-21
8.55005e-22
1.86782e-21
8.82977e-21
1.57133e-21
1.31518e-20
5.37805e-21
9.17545e-22
1.9064e-21
8.14262e-23
4.80022e-21
2.31191e-21
4.343e-21
2.86171e-21
6.51725e-21
2.80695e-21
7.0236e-21
1.27782e-20
3.53792e-21
1.60483e-20
2.19236e-21
1.1563e-20
2.92295e-21
1.45282e-21
5.84043e-21
1.06925e-20
3.92636e-21
3.04757e-21
8.26728e-22
1.03168e-20
2.55396e-21
4.90388e-22
1.12151e-21
7.63137e-21
1.07875e-20
2.3802e-21
3.02885e-21
1.09919e-22
2.9298e-21
1.03833e-20
2.43773e-21
4.88427e-21
1.70285e-20
1.4667e-20
4.4392e-21
5.8359e-21
3.63196e-21
4.67078e-21
5.56765e-21
7.1025e-21
2.05684e-22
1.87578e-21
1.21017e-20
1.50003e-21
4.07315e-21
6.53785e-22
3.32908e-21
1.144e-20
6.29652e-21
1.10374e-20
7.75482e-22
1.91527e-21
5.18548e-21
2.62036e-21
4.35334e-22
2.96449e-22
2.49621e-21
1.0741e-20
2.61401e-22
3.40795e-22
2.85819e-21
3.40286e-21
6.23509e-23
4.4086e-21
2.9087e-21
4.83582e-21
3.15947e-21
4.20187e-21
2.23529e-22
1.40521e-22
3.88747e-22
8.71308e-23
9.61974e-21
4.94779e-21
6.14857e-21
1.2575e-21
6.26375e-21
1.0612e-21
3.78605e-21
3.36261e-21
3.18117e-21
1.80886e-21
5.40465e-22
1.51589e-20
1.30335e-22
6.31656e-21
8.47613e-22
5.37726e-21
1.08119e-21
2.7495e-21
2.67895e-21
6.71353e-21
3.64556e-21
3.71406e-21
6.36015e-21
3.40964e-21
3.06036e-21
3.57974e-21
4.30058e-22
1.61776e-21
9.77962e-22
2.35736e-21
2.30895e-21
4.56012e-21
9.47293e-21
3.21949e-21
2.22833e-21
5.30053e-22
1.60749e-21
3.67825e-21
2.72559e-21
7.99731e-21
3.23822e-21
8.37724e-22
4.77513e-21
7.80715e-21
8.56945e-22
1.15839e-20
1.26115e-21
7.2263e-23
8.16421e-21
7.21033e-21
8.90227e-21
4.78466e-23
4.31212e-21
1.14062e-20
9.5454e-21
4.94923e-21
8.06564e-22
7.77381e-21
3.09769e-21
5.0061e-21
1.43907e-22
3.86154e-21
1.14342e-20
4.35116e-21
3.35336e-22
2.50801e-21
8.09978e-21
2.09994e-21
3.52538e-21
5.41958e-21
1.17115e-20
8.37232e-21
1.83288e-21
1.0535e-21
1.88085e-20
3.77482e-21
5.30394e-21
8.82998e-21
8.99208e-21
2.16755e-21
3.80773e-21
7.09254e-22
7.1233e-22
1.21661e-20
8.2891e-23
4.25187e-21
3.32348e-21
1.82415e-21
8.7594e-21
1.17043e-21
1.2658e-21
2.37786e-21
1.32478e-21
1.98482e-21
7.31445e-21
2.01979e-21
4.34344e-21
7.38895e-21
8.14286e-21
3.2957e-21
3.49207e-22
2.48312e-21
1.96122e-20
1.65969e-21
8.6678e-22
1.29092e-21
1.54357e-21
1.0089e-21
9.05952e-21
4.70763e-21
6.59684e-22
4.32283e-23
1.17148e-20
1.22973e-21
4.97723e-21
2.21114e-20
7.62536e-22
8.4896e-21
4.42983e-21
7.76772e-23
9.08331e-21
1.77687e-21
3.75999e-22
4.52009e-22
4.08792e-23
1.3679e-20
6.63528e-21
1.0423e-20
1.77901e-21
4.50561e-21
1.58392e-22
2.29118e-20
7.15335e-21
3.80706e-21
4.46782e-21
9.22553e-21
7.88024e-21
9.59629e-21
3.52496e-21
9.91979e-21
5.92067e-21
2.22714e-21
4.86225e-21
6.31835e-22
5.22085e-22
6.17284e-21
3.30996e-21
3.39666e-21
3.55625e-21
4.13412e-21
2.58074e-21
6.36985e-21
1.20963e-22
5.48203e-22
6.91528e-21
4.61617e-21
3.23356e-21
5.31521e-21
2.42961e-21
2.871e-22
9.30752e-21
3.1057e-21
3.29594e-21
2.55811e-21
7.90007e-21
5.87153e-22
3.46838e-21
3.97528e-21
3.29971e-21
4.72383e-22
1.93429e-22
3.1272e-21
8.31037e-22
3.31382e-21
2.48924e-21
3.95538e-21
2.34412e-21
2.97089e-21
1.19264e-20
1.00019e-20
1.72064e-21
1.42509e-21
9.22884e-21
6.35024e-22
5.75262e-21
5.30088e-21
2.1061e-21
2.0015e-22
5.17647e-21
3.33857e-21
3.19584e-21
2.20911e-21
7.88676e-21
1.18765e-21
1.00227e-20
8.77028e-21
4.11886e-22
2.06758e-21
1.02667e-21
1.09492e-21
1.12806e-20
5.17815e-21
1.8527e-21
8.8124e-22
5.00266e-21
8.17949e-21
2.11335e-21
2.01788e-20
4.90416e-23
1.34373e-21
6.12059e-21
6.93072e-21
2.08886e-20
2.41791e-21
7.01332e-21
1.10875e-20
6.50524e-21
1.02187e-21
2.83485e-21
1.38428e-21
1.17944e-22
4.52892e-22
2.8978e-21
1.38875e-21
2.1744e-21
6.34871e-21
2.27801e-21
2.22953e-22
5.95628e-22
5.49529e-23
6.96724e-22
2.28996e-21
5.15402e-21
7.6466e-21
3.31679e-21
9.60652e-21
5.95524e-22
3.63037e-21
9.43564e-22
1.98019e-21
6.89874e-22
7.48659e-22
2.51233e-21
5.25435e-21
1.68587e-20
3.55484e-21
8.21338e-21
2.70396e-21
2.11085e-21
6.47569e-21
1.69331e-21
2.34486e-21
4.02351e-21
5.20342e-22
3.21745e-21
7.73957e-21
5.03509e-21
1.41135e-21
6.04642e-22
4.93783e-22
7.51043e-22
8.02183e-22
9.47725e-21
2.86291e-21
3.6702e-21
2.05759e-21
7.16759e-22
2.34183e-21
7.07459e-22
7.42186e-21
1.19869e-21
5.87631e-21
4.3277e-21
7.64449e-22
3.57056e-21
7.12582e-22
6.52679e-22
7.98947e-21
7.4835e-22
3.4527e-21
8.98142e-21
1.09022e-21
6.41223e-21
3.64093e-21
6.19942e-21
1.55302e-20
5.63287e-21
1.22382e-20
1.99281e-21
7.07932e-21
4.31456e-21
3.88335e-21
5.89374e-22
1.64467e-21
7.80178e-21
5.09586e-21
1.98282e-21
5.70446e-22
1.5048e-21
6.57801e-21
3.42647e-21
9.24777e-21
1.53343e-21
3.57468e-21
5.93939e-22
9.0259e-21
1.17908e-20
4.97473e-21
9.01552e-21
1.78372e-21
2.03605e-21
2.92936e-21
4.23165e-21
7.00649e-21
3.144e-21
1.10079e-20
1.23095e-21
1.01066e-20
6.81897e-22
2.00659e-22
4.00414e-21
2.10726e-22
4.96261e-21
6.79346e-21
1.70325e-21
8.54096e-21
2.4618e-20
7.86019e-21
1.67903e-22
1.88353e-21
3.65454e-21
1.1977e-20
7.21157e-22
1.94765e-21
4.84556e-21
2.65945e-21
5.19026e-21
1.02384e-21
5.59672e-22
9.87597e-22
1.1906e-21
1.19884e-21
8.43895e-21
1.87738e-21
1.93443e-21
6.62268e-21
7.03948e-21
9.00645e-22
2.86498e-22
3.9873e-21
3.32422e-21
1.10087e-20
3.1401e-22
8.68902e-22
7.07533e-23
3.25037e-21
1.34158e-21
8.42055e-22
1.20949e-21
8.06386e-21
4.5743e-21
4.17456e-21
6.80386e-21
3.81075e-21
2.50643e-21
2.32894e-21
1.02218e-21
2.42642e-20
9.91649e-22
2.73889e-22
6.3606e-22
1.61062e-21
8.12083e-21
1.29558e-20
1.19077e-22
6.56352e-22
5.4523e-21
1.99864e-21
1.16069e-21
7.45731e-21
2.82844e-21
7.95141e-21
2.95752e-21
8.08668e-21
1.97831e-21
3.81014e-21
5.70633e-21
7.60808e-22
1.18124e-22
3.2531e-22
3.40785e-21
5.29412e-21
3.29323e-22
2.79706e-21
7.03865e-22
1.1594e-21
1.93403e-20
3.05036e-21
8.35099e-21
2.77954e-21
2.34467e-21
5.50372e-23
1.79514e-21
3.05812e-21
1.03406e-20
1.05587e-20
2.72101e-21
4.07058e-21
3.15322e-21
2.07167e-21
1.74538e-21
9.00825e-21
5.72999e-21
1.57504e-21
3.797e-22
8.54176e-21
5.06354e-21
2.10233e-21
2.06179e-21
4.26658e-22
1.44847e-20
2.98717e-22
6.0187e-21
5.42367e-22
6.82804e-21
4.12596e-21
4.73301e-21
3.05691e-21
2.36597e-21
6.46493e-23
5.08959e-21
1.64846e-21
5.08236e-21
3.72471e-21
1.76781e-21
1.21584e-20
2.50479e-21
8.66081e-22
8.81161e-21
1.53987e-23
4.01387e-21
7.84375e-21
1.96317e-22
4.32596e-22
4.93351e-21
6.27781e-21
1.44511e-22
6.27231e-21
6.34665e-23
7.10786e-21
1.74175e-21
2.12688e-20
2.59419e-21
6.05252e-21
1.98502e-21
9.74029e-23
3.36059e-21
1.38694e-21
4.88013e-21
2.64919e-21
7.14019e-22
8.91782e-22
8.03979e-21
3.377e-21
5.52419e-21
1.313e-20
1.69279e-21
7.89853e-21
8.14258e-21
3.62776e-22
2.14103e-21
9.81157e-21
3.51119e-21
7.16542e-21
1.17887e-21
5.06268e-21
4.31382e-21
9.63456e-21
1.69037e-20
6.09352e-22
6.07679e-23
4.64413e-21
2.68642e-21
9.3633e-22
1.04431e-22
2.97328e-21
2.32633e-21
2.36914e-21
3.79686e-21
7.03199e-21
1.00512e-21
1.32071e-21
1.18877e-21
1.20936e-21
6.09517e-21
2.3128e-21
6.55311e-21
1.96293e-21
1.06264e-20
1.76996e-20
2.55253e-22
2.06935e-20
2.66115e-22
3.31537e-21
3.92651e-21
5.8321e-21
4.87255e-21
9.04598e-22
3.18398e-21
2.6968e-21
1.66417e-21
3.02723e-21
3.34375e-21
2.93665e-21
5.80088e-21
4.51824e-21
4.17933e-22
3.63365e-21
2.0421e-21
3.70551e-21
3.02257e-22
1.67103e-21
5.29031e-21
9.81537e-21
1.1673e-22
2.38305e-21
2.84092e-21
9.21757e-22
1.55216e-21
2.49021e-21
2.75672e-21
6.15331e-22
2.52617e-21
1.27109e-21
1.58731e-21
4.65665e-21
2.58555e-21
4.44283e-21
9.29522e-22
8.62604e-21
2.17379e-21
3.48844e-21
5.39287e-22
1.76925e-21
8.44384e-22
3.29828e-21
2.07584e-20
1.93959e-21
3.11421e-21
3.18066e-21
2.37598e-21
5.86036e-22
2.19338e-22
1.04701e-21
1.30678e-21
2.05202e-21
6.31207e-22
2.11477e-21
2.30246e-21
2.47721e-21
1.99462e-21
6.08833e-21
2.47504e-20
1.78672e-21
4.86366e-21
1.83184e-21
1.60629e-20
2.75405e-22
4.83723e-22
1.01021e-21
1.64255e-21
4.06266e-21
2.12534e-21
3.84043e-21
2.72353e-21
7.60063e-22
2.05585e-21
6.03325e-21
3.36753e-22
8.25567e-21
1.92416e-21
5.26374e-23
1.03285e-20
2.24508e-21
1.23778e-21
5.26046e-21
6.89675e-22
5.60752e-21
8.9181e-22
7.60219e-22
5.68084e-21
5.06412e-21
3.47286e-21
2.09919e-21
1.5046e-20
4.91334e-21
1.91205e-21
4.18318e-21
4.92529e-22
1.17913e-20
1.09652e-20
2.11083e-21
1.12574e-20
7.15265e-22
1.08759e-21
5.98206e-21
1.30908e-21
1.0306e-21
1.67194e-20
1.21257e-21
9.57627e-22
1.95101e-22
3.31355e-21
6.71323e-22
1.8321e-21
5.51335e-22
7.48577e-21
3.46852e-22
1.29882e-21
8.08185e-21
8.6409e-22
8.39781e-21
1.1379e-21
1.32592e-22
8.15227e-21
2.445e-21
7.41103e-21
1.89724e-21
1.96876e-21
7.05906e-21
8.94218e-22
3.49724e-21
1.78729e-21
4.0398e-21
8.1666e-21
3.56469e-21
1.69885e-21
4.41432e-21
1.23805e-20
8.49768e-21
3.91986e-21
1.46382e-20
4.12111e-21
1.05322e-21
3.73044e-21
1e-21
3.29055e-21
2.79999e-20
4.68892e-21
1.92479e-21
2.41258e-22
2.80235e-21
1.4667e-21
9.07831e-22
3.68998e-21
3.6038e-21
2.0662e-21
1.11143e-21
1.76152e-21
2.80973e-22
2.24948e-21
3.17158e-21
1.94381e-21
1.2379e-20
5.06621e-21
1.13266e-22
3.4566e-21
4.47791e-21
1.17862e-22
1.95915e-21
1.08078e-21
1.68185e-21
1.6483e-21
3.41938e-21
3.76377e-21
1.87062e-21
3.39899e-21
2.64873e-21
2.90602e-21
6.57836e-22
8.23062e-22
4.13326e-21
3.55844e-21
4.79991e-22
2.80708e-21
1.70852e-20
1.45319e-21
5.95882e-22
5.9428e-21
8.42526e-22
2.34027e-21
2.17031e-21
3.14481e-22
5.20346e-21
2.89102e-22
4.89174e-22
8.71684e-21
4.73524e-22
1.07971e-20
3.20575e-21
5.12109e-21
3.81663e-21
5.82059e-22
1.0273e-20
1.10804e-20
3.6609e-21
4.81349e-21
1.38673e-21
6.84585e-21
9.1562e-21
1.17835e-21
3.54195e-21
7.72566e-21
7.60987e-21
4.5428e-21
5.23983e-21
1.24904e-20
5.86908e-21
7.3344e-22
6.50683e-21
2.08942e-21
1.35594e-20
8.17868e-23
3.45619e-21
1.93439e-21
5.62331e-21
7.43286e-21
4.44591e-21
3.24997e-21
3.8662e-21
3.62226e-21
8.26532e-22
3.20509e-21
1.79265e-21
2.60688e-21
7.87396e-21
8.36209e-21
2.03899e-21
1.20118e-20
7.6227e-21
1.0391e-21
9.66713e-22
2.76789e-23
2.60844e-21
3.55198e-21
6.23391e-22
1.33758e-21
3.04482e-22
1.28241e-21
7.01779e-22
6.5582e-21
2.16697e-22
4.87548e-21
1.04865e-20
5.69613e-21
4.59907e-21
3.99938e-21
1.55316e-20
3.55733e-22
1.33029e-20
1.87881e-21
1.25375e-21
1.63511e-22
1.85548e-20
1.96205e-21
3.9571e-21
3.11733e-21
5.325e-21
1.5234e-21
2.41109e-21
3.065e-21
5.9545e-21
7.17987e-21
1.58321e-21
7.97593e-21
6.77886e-21
1.09463e-21
3.33035e-23
6.20968e-22
1.38753e-21
4.66391e-21
2.27827e-22
7.43963e-21
2.06738e-20
1.33142e-21
1.43996e-21
4.10971e-21
1.25989e-21
1.98698e-21
6.40226e-22
7.26378e-21
9.73588e-21
1.61561e-24
5.98909e-21
7.10661e-21
9.03788e-22
9.7691e-22
1.03426e-21
5.04579e-21
4.38976e-21
1.64289e-21
1.14291e-21
4.95755e-22
6.41199e-21
5.49667e-21
5.72211e-21
1.432e-21
1.26501e-21
2.9419e-21
5.41e-22
6.78807e-22
1.3124e-21
6.19329e-21
2.51904e-21
4.06715e-21
4.74495e-21
8.82163e-22
6.51492e-21
9.26105e-22
5.68884e-22
5.43513e-21
4.05807e-21
1.35265e-21
6.5974e-21
2.73691e-21
2.26268e-21
1.05123e-21
2.81413e-21
8.03199e-21
3.55778e-21
1.7148e-21
2.86812e-22
1.11077e-21
5.60279e-21
5.2229e-21
3.15774e-21
8.55577e-23
8.00807e-22
8.92648e-22
7.15716e-22
4.61794e-22
7.68503e-22
3.96971e-21
1.09481e-20
2.59892e-21
1.00845e-20
1.82951e-21
2.40717e-22
1.09187e-20
7.65279e-21
5.12433e-21
1.12769e-21
5.18855e-21
1.96342e-21
3.09906e-21
1.38536e-21
5.43363e-21
3.92683e-21
6.9837e-22
1.65861e-20
2.25851e-21
2.79971e-21
9.78081e-21
1.08292e-21
1.11467e-20
1.51108e-20
3.2244e-21
1.96912e-21
7.56671e-21
6.57992e-22
2.68985e-21
1.02058e-22
6.45051e-21
3.75155e-21
3.10076e-21
8.49975e-22
1.08938e-20
2.76361e-21
3.79073e-21
3.45195e-22
3.49342e-21
1.94407e-21
1.23469e-21
3.94191e-21
2.46052e-22
7.75736e-21
4.56583e-22
1.03426e-21
9.29629e-21
3.73413e-21
3.62228e-21
1.40634e-21
9.27249e-21
1.0668e-20
2.32454e-21
8.58906e-23
2.02874e-22
1.23734e-21
3.30844e-21
5.19224e-21
8.08479e-22
4.40889e-21
2.7105e-21
6.58618e-22
1.93244e-21
1.05433e-21
2.31096e-21
1.25685e-21
2.88164e-21
1.8981e-22
3.76167e-21
4.43621e-21
7.73154e-21
2.14107e-20
7.82039e-21
1.26562e-21
8.09333e-21
1.0404e-20
1.05501e-20
3.91447e-21
2.83281e-21
3.64256e-21
1.97123e-21
1.62248e-21
2.66145e-21
1.16083e-20
5.58841e-21
9.3322e-21
5.43728e-21
2.97107e-21
2.30417e-21
6.62309e-21
1.87101e-22
1.86197e-21
1.46581e-21
6.80622e-21
3.53838e-21
4.88626e-21
1.1624e-21
1.19578e-20
1.16188e-20
1.68394e-21
2.47841e-21
9.54579e-21
2.99731e-21
3.14222e-21
1.14951e-21
4.14247e-21
8.91963e-21
1.7372e-21
7.65941e-21
1.25209e-21
9.67652e-21
3.02041e-21
5.54364e-21
1.44729e-21
3.1234e-21
1.49427e-21
9.56276e-21
9.4355e-22
6.59378e-22
6.17884e-21
4.97304e-21
1.62796e-21
2.50698e-21
7.05944e-22
3.46562e-21
2.18068e-21
1.65848e-21
1.17528e-20
4.93703e-21
1.56891e-21
2.73756e-22
3.3862e-21
1.81112e-20
2.11274e-21
1.51201e-21
7.01526e-21
1.05034e-21
7.92771e-21
2.62682e-21
2.95184e-21
3.75429e-21
4.25929e-21
2.22155e-21
3.48227e-21
4.17495e-21
5.22268e-21
9.47508e-22
3.76993e-21
3.61986e-21
1.65417e-21
5.07791e-22
1.50662e-20
3.95968e-21
1.05695e-20
1.83314e-21
2.38326e-21
3.78701e-21
1.66824e-22
6.42237e-21
2.87177e-21
2.33332e-22
8.84417e-22
1.38985e-20
7.41947e-21
1.37042e-21
7.27081e-21
1.39427e-21
1.59379e-21
9.43637e-22
8.09625e-21
1.92848e-20
1.08866e-21
6.1174e-21
3.74611e-21
5.84871e-21
1.03276e-20
2.0917e-21
6.40233e-21
1.52969e-21
1.63748e-20
4.85016e-21
1.34557e-22
4.73124e-21
6.55754e-21
4.13778e-21
3.6771e-21
1.03562e-20
3.69896e-22
4.20839e-21
7.9989e-22
1.80298e-21
1.36841e-20
1.032e-21
8.09509e-21
8.01288e-22
2.43111e-21
1.09579e-21
1.01899e-20
4.24269e-21
6.57386e-22
8.77704e-21
7.48695e-21
1.41968e-22
8.84491e-22
7.18469e-21
2.93792e-21
3.85573e-21
2.05081e-21
8.16265e-22
4.84208e-21
1.8646e-21
5.8269e-22
1.24597e-21
6.40169e-21
4.96598e-21
7.96871e-22
1.26887e-21
6.95804e-21
1.07364e-20
5.28176e-22
2.50105e-21
1.71887e-22
8.38014e-21
1.06153e-22
1.48447e-21
5.3961e-21
1.15137e-21
6.58812e-21
1.3684e-20
2.80564e-21
8.42193e-21
9.73337e-22
9.56665e-21
2.04623e-22
5.84795e-22
4.79103e-21
3.93108e-21
4.53622e-22
3.21323e-21
1.99302e-22
1.03847e-20
7.11181e-21
2.61972e-21
3.89166e-22
3.55897e-21
5.51655e-22
4.35391e-21
1.11824e-21
4.18707e-22
7.98229e-21
4.52542e-21
1.69754e-20
8.44939e-21
9.40905e-21
9.89164e-21
2.30043e-21
8.3202e-21
3.08699e-21
1.20048e-21
3.95515e-21
2.16228e-21
1.08982e-21
1.34749e-21
4.96992e-21
9.95503e-21
7.63738e-22
1.73427e-20
2.77628e-21
8.02173e-21
4.42826e-21
2.47468e-21
8.36692e-22
7.29393e-21
6.40935e-21
7.80789e-21
1.01017e-20
3.9213e-22
8.90901e-21
3.52641e-21
1.23261e-21
8.42602e-21
4.80726e-21
1.43149e-21
3.47407e-21
1.54936e-20
3.44665e-22
1.81828e-21
9.03146e-22
6.04072e-21
1.42127e-20
5.93498e-22
5.04698e-21
9.16914e-21
1.92474e-21
1.04363e-21
4.5327e-21
7.33679e-21
5.12241e-21
9.10381e-22
1.18759e-21
4.13253e-21
7.27159e-21
1.35843e-21
7.6573e-22
3.68777e-21
1.01817e-21
1.63115e-21
9.77487e-22
3.01415e-22
8.44147e-21
2.72599e-21
8.87227e-21
4.97622e-21
2.83449e-22
1.40713e-21
1.49415e-22
2.5526e-20
1.45949e-20
3.89548e-21
2.56056e-21
4.23375e-21
5.48319e-22
6.04843e-22
1.67149e-21
6.28343e-21
3.74937e-21
1.69668e-21
6.2773e-21
1.55844e-21
1.16985e-21
2.70761e-22
1.5477e-21
7.55791e-23
1.07925e-21
1.40355e-20
6.63136e-21
7.81317e-22
4.20423e-22
1.23252e-20
5.0786e-22
5.20632e-21
3.25383e-23
2.9488e-21
3.66426e-21
2.77284e-21
7.4291e-22
1.21946e-21
3.50626e-22
6.51418e-21
1.62994e-20
7.16665e-22
5.7373e-21
1.41277e-21
5.30819e-21
5.29767e-22
1.11566e-21
1.01459e-20
1.38793e-20
1.29892e-21
3.07897e-21
7.21172e-21
9.10941e-22
6.32844e-21
4.71015e-21
1.19619e-21
2.44309e-21
2.79814e-21
2.35398e-21
5.88581e-21
8.96922e-21
3.04463e-21
9.26707e-22
1.24772e-20
9.6907e-23
2.86903e-21
2.19731e-21
6.39542e-21
6.30112e-23
3.21688e-22
1.26042e-21
6.16769e-22
1.09891e-21
1.90362e-21
5.61473e-22
3.71733e-21
2.11312e-21
1.00487e-20
2.03892e-21
2.92316e-22
1.33031e-20
2.20509e-21
4.32772e-21
1.03219e-21
2.47206e-21
4.75537e-21
3.60417e-21
4.34626e-21
2.46002e-21
1.88496e-21
7.93476e-22
9.26292e-22
2.51664e-21
4.68641e-21
6.50381e-22
3.83021e-21
1.35129e-21
6.43698e-21
6.95314e-21
3.31647e-21
5.6832e-21
1.92076e-21
1.94105e-22
3.94659e-23
1.43862e-22
1.01079e-22
3.27815e-22
1.0097e-20
4.15324e-22
1.54508e-21
4.37091e-21
1.05466e-20
2.45784e-21
1.09963e-22
1.50974e-20
1.26632e-21
4.62e-21
1.63222e-21
1.47064e-21
2.72631e-22
5.50562e-21
1.00631e-20
4.96292e-21
5.52169e-21
6.04239e-23
5.18674e-23
2.29116e-21
9.89854e-21
3.9114e-21
3.03018e-21
2.81872e-21
6.61634e-21
1.15142e-21
2.97098e-21
9.19033e-21
2.72966e-21
1.31968e-20
2.11159e-22
5.14523e-21
1.21049e-21
1.17577e-21
1.89063e-20
1.76663e-20
7.23041e-22
1.10151e-20
6.53195e-22
4.16991e-21
8.85236e-22
7.8451e-21
4.42801e-21
1.45343e-20
3.93719e-21
1.36361e-21
1.39418e-21
6.4201e-21
1.85752e-21
1.78505e-21
4.8657e-21
1.8605e-21
9.67258e-21
2.91556e-21
3.14861e-21
1.45754e-20
5.23227e-21
1.30443e-21
9.44093e-21
3.08303e-21
5.83986e-21
3.75246e-21
8.93356e-21
4.1812e-21
4.78122e-21
5.81776e-21
4.53206e-21
1.20071e-21
4.66282e-21
3.41871e-21
1.249e-21
2.15947e-21
6.05353e-22
7.39887e-23
5.38888e-21
3.41943e-21
1.56473e-21
5.14154e-21
5.99397e-21
1.15902e-21
7.30227e-21
9.20618e-21
8.00399e-21
8.39561e-22
7.233e-21
1.55492e-21
5.01898e-22
2.21094e-21
7.54676e-21
6.5628e-21
3.18961e-21
3.4751e-21
2.37276e-21
3.07422e-21
1.1197e-21
3.29269e-21
4.93909e-21
4.78181e-21
6.49222e-21
3.49524e-21
3.2891e-21
2.86312e-21
4.43337e-21
1.05107e-20
1.22588e-20
4.43537e-22
3.66098e-21
1.13642e-21
2.05897e-21
2.49949e-21
3.75125e-21
1.8932e-21
5.29646e-21
8.2713e-21
2.29059e-21
1.82283e-21
1.35689e-21
5.89872e-22
7.55595e-21
9.62448e-22
1.14477e-21
1.69408e-22
3.10997e-21
7.36164e-21
2.18248e-21
1.02325e-21
1.04755e-20
7.18174e-23
7.54632e-21
8.00181e-21
1.06247e-21
2.26576e-20
7.63924e-21
2.98899e-22
7.05069e-21
1.41331e-23
1.16494e-20
6.59144e-21
2.3386e-21
4.17518e-21
4.61113e-21
4.83977e-21
5.3515e-22
3.41052e-21
2.10336e-21
4.336e-21
1.12254e-21
2.4887e-21
4.18564e-21
1.83319e-21
7.23664e-21
9.45065e-21
3.83599e-22
3.74449e-21
2.5526e-21
1.49463e-20
1.81818e-21
1.75386e-21
8.30849e-21
1.51525e-22
7.75479e-22
1.10647e-20
9.77324e-22
4.86551e-21
9.53954e-22
1.62479e-21
1.2698e-21