/*--------------------------------*- C++ -*----------------------------------*\
  =========                 |
  \\      /  F ield         | OpenFOAM: The Open Source CFD Toolbox
   \\    /   O peration     | Website:  https://openfoam.org
    \\  /    A nd           | Version:  7
     \\/     M anipulation  |
\*---------------------------------------------------------------------------*/
FoamFile
{
    version     2.0;
    format      ascii;
    class       scalarField;
    location    "0.00108/lagrangian/dsmc";
    object      Ei;
}
// * * * * * * * * * * * * * * * * * * * * * * * * * * * * * * * * * * * * * //


81998
(
2.66159e-22
3.01867e-20
2.31871e-20
2.64904e-20
2.20725e-20
1.58726e-20
1.54337e-20
1.88646e-20
2.67341e-21
1.38006e-21
1.18289e-20
3.51449e-21
1.79705e-22
2.44329e-20
3.7245e-22
7.79373e-21
1.85952e-20
1.64881e-20
2.7393e-21
6.52084e-21
6.83954e-22
1.89705e-20
8.07684e-21
1.15838e-20
4.67198e-21
9.44691e-22
1.16364e-20
1.54193e-20
1.55394e-20
3.57565e-20
3.72689e-21
1.61951e-20
1.97365e-20
1.04216e-22
1.9077e-20
1.05216e-20
2.59827e-20
1.37258e-20
7.97014e-21
1.11466e-23
1.71178e-20
2.19422e-20
9.52944e-21
1.10414e-20
2.83987e-20
3.08224e-21
1.56548e-20
1.56421e-20
1.18778e-20
2.16007e-20
1.39561e-21
3.31718e-20
5.8618e-21
3.59396e-21
1.96818e-21
2.71876e-21
3.74413e-21
5.52204e-21
6.89726e-21
1.42903e-20
2.66087e-20
6.52018e-21
1.69378e-21
1.10764e-20
4.09103e-21
7.78589e-21
1.05593e-20
3.98944e-20
1.29955e-20
3.31781e-20
1.67015e-20
3.74757e-21
9.62578e-21
3.03971e-20
2.48059e-20
1.98306e-21
4.66414e-22
4.13501e-21
3.67325e-21
3.06072e-20
5.9991e-21
3.88034e-21
7.24033e-21
4.07414e-21
8.33026e-21
8.69886e-21
3.08837e-21
6.83291e-21
6.15486e-21
1.84762e-20
1.19029e-20
1.40526e-21
2.25074e-21
1.66867e-20
1.04582e-20
2.85006e-21
1.09372e-20
4.21776e-21
2.99185e-21
9.5653e-21
2.85734e-21
5.52719e-21
1.9447e-20
6.01382e-21
4.37552e-21
2.15959e-20
1.49162e-20
9.8715e-22
2.23406e-21
1.21299e-20
7.32164e-21
1.82878e-20
1.75113e-21
2.96216e-21
8.69331e-21
3.53353e-21
3.68461e-21
6.3416e-21
1.20745e-20
2.37068e-21
1.88676e-20
8.48672e-21
4.58691e-21
2.70313e-21
2.49057e-20
2.37617e-20
2.06682e-21
1.86594e-20
5.80606e-21
1.55476e-20
2.38694e-20
2.88972e-20
1.54551e-20
4.21133e-20
1.59106e-20
2.34429e-20
1.51272e-20
4.76491e-21
1.51609e-20
1.96354e-21
1.15437e-20
1.00435e-20
2.06944e-22
8.77651e-22
1.28308e-20
2.89388e-21
1.52081e-20
8.77729e-21
2.24111e-21
4.61539e-20
5.51996e-20
9.1976e-22
5.17287e-21
6.44685e-21
3.8097e-20
8.34054e-21
2.06097e-21
1.1883e-20
4.07723e-20
2.36625e-20
4.80079e-20
3.38083e-20
9.95937e-21
1.40652e-20
1.9857e-21
1.02921e-20
2.61011e-20
5.20035e-21
8.65806e-21
1.34159e-20
5.01643e-21
4.48275e-21
4.12782e-21
9.39874e-21
1.17843e-20
4.2696e-21
2.01951e-20
1.24914e-20
4.37795e-21
1.31308e-20
1.03668e-20
1.59336e-21
4.45531e-21
4.02682e-21
1.22838e-20
1.35609e-21
3.5607e-20
6.68142e-21
3.52024e-21
1.40808e-21
1.14548e-20
2.1757e-20
2.5744e-20
3.39065e-21
2.18864e-21
1.78277e-20
6.58072e-21
1.68455e-20
2.20725e-20
2.79195e-20
1.91631e-20
4.98766e-21
4e-21
8.71442e-23
1.75078e-20
1.25893e-20
6.00218e-21
4.14277e-20
1.53582e-20
3.78668e-20
1.72207e-21
7.72647e-21
9.26785e-21
5.83714e-22
3.75586e-20
2.0646e-21
8.95562e-21
6.76216e-21
5.41694e-21
5.88188e-21
4.50635e-21
3.68421e-21
2.13597e-20
1.40897e-20
8.61119e-21
1.19137e-20
3.64335e-21
3.74397e-22
2.98996e-21
1.47975e-20
1.21388e-20
8.30813e-21
2.99875e-21
4.99931e-20
4.12381e-21
6.00085e-21
3.23269e-21
9.16155e-21
3.15625e-21
2.85051e-21
3.4253e-22
2.11216e-20
6.90367e-22
3.55662e-21
2.97625e-21
5.68175e-21
1.71815e-20
5.47878e-21
6.29244e-21
1.52994e-21
7.03422e-21
1.58845e-20
8.1658e-21
1.98366e-20
2.92214e-21
2.46255e-20
8.8453e-21
2.47272e-20
3.40314e-20
1.67782e-20
1.80991e-20
4.53885e-21
1.40356e-21
1.98241e-20
7.93225e-21
1.71438e-21
1.73615e-20
1.35064e-21
2.12339e-21
3.60437e-21
1.79001e-20
4.63276e-21
2.09856e-21
6.98979e-21
1.77166e-21
1.85835e-21
1.89462e-20
1.03295e-20
6.55102e-22
1.81511e-21
6.35304e-21
1.54168e-20
9.03802e-21
4.19842e-21
9.93421e-21
5.93106e-21
2.42883e-20
3.13136e-20
8.1689e-21
1.89122e-20
1.97088e-20
1.79369e-20
8.4319e-21
1.34991e-20
6.55432e-21
3.07279e-20
4.9338e-21
6.5571e-22
1.33649e-21
1.60753e-21
8.4429e-21
5.09789e-22
2.02076e-20
5.12887e-20
1.87773e-21
1.63105e-20
1.33277e-21
1.74404e-20
1.26549e-20
2.67324e-20
1.61763e-20
1.56808e-20
1.29822e-20
3.54282e-21
1.83338e-20
1.6997e-20
9.67551e-21
1.1085e-21
2.22817e-21
1.89914e-21
7.27291e-21
2.14224e-21
1.09734e-20
3.39521e-20
7.85881e-21
1.13815e-20
2.96131e-20
1.47375e-20
1.27723e-21
3.1437e-22
1.38361e-20
5.78133e-21
7.87904e-21
1.93397e-20
3.59163e-20
1.81288e-20
5.3236e-21
1.87521e-20
2.22086e-20
2.70036e-20
1.65459e-20
4.45689e-21
1.19032e-20
1.88243e-20
9.56198e-22
2.7587e-20
1.19139e-20
3.02868e-21
8.65302e-21
1.8431e-21
1.46015e-20
2.49356e-21
1.46194e-21
8.49973e-21
2.9421e-21
3.29723e-22
1.92012e-20
1.19695e-20
6.95305e-21
3.54272e-21
6.8566e-21
7.55803e-21
7.37633e-21
3.39837e-21
2.43961e-20
1.0925e-21
3.52102e-22
3.589e-20
1.91377e-20
5.45428e-21
9.04585e-22
5.76023e-21
1.02629e-20
5.96523e-20
3.48665e-20
1.52464e-20
3.1013e-21
5.43287e-22
1.56999e-20
9.05577e-22
1.87507e-20
1.06324e-20
1.00547e-20
2.49853e-21
3.273e-20
2.07168e-22
8.40153e-21
5.36532e-21
7.76728e-21
4.45e-21
1.38916e-20
3.7849e-21
9.36266e-21
1.12738e-20
1.016e-20
2.05883e-20
6.45019e-21
2.58232e-20
2.30967e-20
5.18257e-21
1.41152e-20
2.04778e-21
1.68242e-20
2.06232e-20
3.88886e-21
3.31962e-21
6.03862e-21
5.983e-20
4.61707e-21
3.93379e-21
2.51955e-20
8.52859e-21
1.12684e-21
3.43073e-21
8.41875e-21
1.17697e-20
6.08828e-21
3.65598e-20
3.13364e-20
2.03317e-20
4.164e-21
2.3421e-21
6.81777e-21
5.50497e-21
4.60463e-22
5.29072e-21
1.56238e-20
1.46652e-21
3.42424e-21
6.75784e-21
1.42682e-20
1.6651e-20
2.74306e-20
5.43386e-22
4.10779e-20
7.38039e-21
7.34144e-21
4.68115e-21
1.19363e-20
1.65051e-20
3.36452e-20
2.26718e-21
9.68252e-21
2.81175e-21
1.26511e-21
4.52037e-21
1.15371e-20
1.46282e-21
3.30485e-21
2.39846e-20
1.49335e-20
1.16104e-20
7.82598e-21
7.6994e-21
4.74408e-21
2.95569e-20
1.38931e-20
1.24985e-20
1.5367e-20
1.84229e-20
9.31897e-22
8.15037e-21
1.137e-20
7.60708e-21
3.69924e-20
2.00709e-20
1.4052e-20
1.45173e-22
2.34093e-21
3.36468e-21
3.80312e-21
9.47961e-21
8.56164e-21
4.96805e-22
8.56734e-21
1.29599e-21
1.43458e-21
2.23343e-21
3.82764e-21
9.99377e-21
1.20286e-20
2.78795e-20
3.19315e-20
1.40649e-22
1.60151e-20
1.30676e-20
1.71356e-20
2.28994e-20
1.22135e-20
5.87588e-21
4.34471e-21
8.56918e-21
8.82384e-21
1.50255e-21
4.29284e-20
2.607e-21
2.0542e-21
2.08531e-21
1.40428e-20
1.75377e-20
2.09143e-20
4.18405e-21
5.62198e-21
8.22858e-21
8.14948e-21
2.54628e-21
1.6296e-20
1.16475e-20
1.64518e-21
2.7489e-21
5.91736e-21
4.06531e-21
7.07593e-21
1.50925e-20
9.50822e-21
1.74662e-21
3.48268e-20
2.47838e-21
2.88063e-22
5.80895e-21
5.80706e-21
2.87395e-21
1.6065e-20
5.70806e-21
1.54625e-24
1.37381e-20
4.76939e-23
4.13897e-21
5.62975e-21
3.21955e-22
7.57747e-21
2.85413e-20
1.42426e-21
1.98258e-20
2.72613e-21
8.13277e-21
1.022e-20
5.58636e-21
3.24464e-20
9.07971e-21
1.67999e-20
6.91043e-21
1.43368e-20
1.06468e-20
1.19381e-20
1.13595e-20
5.72936e-21
2.07136e-20
7.15983e-21
7.80588e-20
5.80352e-21
4.76871e-21
2.16892e-21
3.01475e-21
2.60448e-21
3.56929e-20
3.09502e-21
8.86558e-21
3.80631e-20
3.02365e-21
9.71118e-21
4.92987e-20
1.12604e-20
2.38862e-20
2.33328e-21
6.7087e-21
9.82702e-21
1.03805e-21
1.66482e-20
1.34606e-20
2.4687e-20
1.079e-20
9.42352e-21
1.33148e-20
1.99637e-20
1.73826e-20
4.23571e-21
2.11186e-20
1.08678e-20
1.12779e-20
6.28654e-21
1.37848e-20
7.32684e-21
9.07642e-21
5.04324e-21
2.51269e-21
8.53106e-21
1.51304e-20
3.91061e-21
9.05448e-22
6.5959e-21
5.38699e-21
9.58488e-21
4.88385e-21
2.70637e-20
4.57709e-21
6.36087e-21
1.3899e-20
3.66523e-20
1.34479e-21
2.19643e-20
5.23916e-20
4.64863e-21
5.50591e-20
2.89751e-21
1.17679e-20
1.56022e-20
9.17735e-22
5.11143e-22
8.15542e-21
2.39383e-21
8.03178e-21
7.5057e-21
9.89109e-21
1.16285e-21
1.39271e-20
2.0128e-22
1.19504e-20
6.79192e-21
7.98817e-22
1.36743e-20
9.48152e-21
6.8701e-21
8.45775e-21
8.84827e-21
9.63989e-22
1.1698e-20
1.24038e-20
5.18817e-21
4.62511e-20
2.79914e-21
4.27165e-21
1.62392e-20
4.5364e-20
4.11618e-21
2.8129e-20
1.75965e-21
3.66614e-21
2.35921e-20
1.53069e-21
2.08526e-20
4.25235e-20
1.7037e-20
5.49542e-21
2.65817e-20
8.81248e-21
6.63112e-21
2.40888e-20
4.45103e-21
1.15871e-20
3.29891e-21
3.31863e-20
1.46318e-20
7.54362e-21
1.82026e-20
1.2118e-20
9.77637e-21
1.38366e-20
8.1102e-21
3.61647e-20
6.62666e-21
2.40268e-21
2.14372e-20
1.46966e-20
1.03656e-20
7.80381e-21
1.12801e-20
3.45424e-21
1.64809e-20
1.46174e-20
4.2106e-21
7.20237e-21
9.0859e-22
2.49148e-21
1.63764e-20
1.25501e-20
1.92308e-20
3.44044e-20
5.25704e-20
1.06886e-20
2.96911e-21
7.16442e-21
2.4267e-20
1.21701e-20
5.54118e-21
2.45782e-21
6.19355e-21
4.17456e-21
1.92882e-20
2.10173e-21
1.60598e-20
1.39997e-21
2.57148e-22
4.61071e-21
9.65318e-21
3.05489e-20
5.23021e-21
7.50513e-21
1.61485e-20
5.84506e-21
1.38138e-22
1.4777e-21
4.37408e-22
8.56708e-22
2.03599e-21
2.18746e-20
1.51674e-20
1.96443e-21
1.93081e-20
1.30836e-21
4.37258e-21
5.35752e-21
2.22798e-20
5.62286e-21
3.51571e-20
2.4621e-23
3.03133e-20
1.90591e-21
3.7451e-20
1.20272e-20
1.26529e-21
3.49054e-21
7.41166e-21
1.90817e-20
5.22864e-22
4.87387e-21
7.32023e-20
3.84099e-21
9.07591e-21
6.67786e-21
2.25018e-20
6.03617e-21
2.10584e-20
6.99481e-21
8.21478e-21
1.01434e-20
4.6113e-22
6.17137e-21
3.48151e-21
1.50807e-20
9.21617e-21
4.3454e-20
1.21157e-20
3.68248e-21
1.50751e-20
8.83162e-21
1.81487e-20
3.71065e-21
6.24622e-21
5.74602e-21
5.29418e-20
1.15163e-22
5.89298e-21
2.32673e-21
1.5989e-20
2.53097e-21
9.79043e-22
1.19239e-21
1.77008e-20
6.86839e-21
2.42252e-20
1.75664e-20
9.03243e-21
1.4632e-20
9.66938e-21
3.2885e-21
6.1833e-21
4.2931e-21
5.61538e-21
1.51777e-21
1.78513e-21
1.14631e-20
3.01196e-20
5.66664e-21
1.10331e-20
1.02803e-22
1.57988e-21
4.81239e-21
3.83929e-21
2.07642e-20
5.38617e-21
7.5365e-21
4.05875e-20
1.39437e-21
3.00257e-21
3.79961e-20
1.37169e-20
2.20923e-20
3.07297e-20
2.22737e-20
3.07841e-20
4.78379e-20
4.18693e-20
1.69104e-20
9.48701e-21
2.30429e-20
5.81467e-21
1.19233e-21
8.31418e-21
9.29921e-21
1.33921e-20
1.33262e-20
8.42869e-21
1.32347e-20
6.33713e-20
1.58084e-20
4.73348e-22
1.68502e-21
2.09294e-20
1.42039e-20
6.27872e-21
7.25773e-21
1.90254e-21
1.15261e-22
1.21376e-20
1.42245e-21
1.61561e-21
1.17431e-20
2.84803e-20
1.92388e-21
1.68318e-20
7.80964e-21
4.11535e-21
8.51551e-21
3.22728e-20
2.5939e-21
5.77663e-21
1.3955e-21
2.80991e-20
1.23434e-20
7.04817e-21
2.39489e-20
1.98053e-20
3.66249e-22
2.05213e-21
9.38544e-22
7.22472e-21
2.41435e-21
1.74333e-20
1.9149e-22
5.5848e-21
2.57701e-21
1.75225e-21
2.07107e-20
1.77122e-20
4.13616e-21
1.51756e-20
9.35665e-22
3.54e-22
9.33581e-21
3.50366e-20
1.34622e-20
1.38384e-20
1.3355e-20
4.54129e-21
6.58165e-21
4.36359e-21
1.36325e-20
3.89429e-21
5.03332e-21
1.09945e-20
1.55194e-20
1.69965e-20
2.11403e-20
8.9327e-21
4.85008e-20
9.91945e-21
1.46255e-20
1.64436e-20
6.35641e-22
6.41034e-21
3.84368e-21
8.69023e-21
2.15793e-20
3.78978e-20
7.32442e-21
2.70678e-20
1.76772e-20
4.56827e-20
1.41439e-20
9.33166e-21
1.48862e-21
3.65516e-21
1.10099e-20
1.81982e-20
1.02072e-20
8.21936e-22
1.90209e-20
4.06405e-20
3.58075e-21
2.99803e-21
9.83193e-21
8.21019e-21
2.60895e-20
4.23004e-20
2.22119e-21
9.09637e-22
1.75534e-21
2.27692e-20
1.57102e-20
1.03839e-20
8.51406e-21
1.37698e-20
2.21522e-20
2.96061e-21
1.43866e-20
3.9482e-20
3.25796e-21
1.63842e-20
1.35847e-20
5.52984e-21
2.34565e-20
3.08614e-20
1.32258e-21
5.42363e-20
4.6168e-21
4.48131e-21
1.15313e-20
1.95951e-20
5.29995e-21
4.55029e-22
1.55846e-20
5.98182e-22
7.91358e-21
2.8509e-20
1.82616e-20
2.71215e-21
1.26357e-20
1.85774e-20
9.06945e-21
2.22485e-20
2.25214e-20
8.99214e-23
9.66396e-20
2.81951e-20
1.67865e-20
4.39611e-21
2.44458e-20
2.35202e-21
1.41416e-20
1.86536e-22
7.50996e-21
3.21925e-21
1.53109e-20
4.22948e-21
2.58641e-20
1.64852e-20
2.04537e-21
9.64476e-22
1.54292e-20
1.47482e-20
9.33842e-21
4.87179e-21
8.1013e-21
1.23742e-20
1.51509e-20
8.07756e-21
2.49187e-20
1.45237e-20
5.77525e-21
1.14452e-20
5.95127e-21
3.04344e-21
1.78494e-20
3.99947e-22
2.55237e-20
5.48851e-21
9.4569e-21
1.97161e-21
5.04874e-21
2.92782e-22
7.39093e-21
1.14956e-20
2.84459e-21
7.0162e-21
2.06486e-20
1.07564e-20
6.76181e-21
1.33163e-21
5.2234e-20
4.58314e-21
3.59623e-21
1.16868e-21
1.74854e-21
1.67418e-20
1.12556e-21
9.09075e-21
1.93336e-21
6.37942e-21
2.60681e-20
2.46366e-21
1.21662e-20
3.36879e-21
6.73113e-21
1.8486e-20
9.1318e-21
6.25803e-21
1.37896e-20
3.79209e-21
1.39094e-20
5.51023e-21
5.82239e-21
4.44377e-21
4.57929e-20
8.79732e-21
1.48741e-20
1.33227e-20
1.63734e-20
1.73879e-21
2.07801e-20
6.7127e-21
6.63752e-21
2.8798e-20
1.06624e-20
9.02945e-21
9.46232e-21
7.44111e-21
1.16808e-20
1.15363e-20
7.79614e-21
6.62894e-21
6.97881e-21
1.45559e-20
6.05885e-21
1.7602e-20
1.10049e-20
5.60569e-21
5.15749e-21
2.38487e-20
1.51188e-21
8.05867e-21
3.13205e-20
5.929e-21
7.59083e-21
2.5088e-20
1.50409e-20
1.2104e-20
2.60723e-20
8.05715e-21
1.25802e-21
1.03488e-20
3.4278e-20
1.84722e-20
2.94892e-21
3.28166e-20
2.56976e-20
5.75405e-20
5.60213e-20
1.56884e-20
5.59199e-21
2.70373e-20
2.05456e-20
2.89364e-22
2.36262e-20
3.13223e-21
1.05454e-20
1.82524e-20
3.68523e-21
3.24254e-21
7.38015e-21
4.80893e-21
8.23803e-21
8.20913e-22
1.47734e-21
3.6723e-20
5.63354e-21
6.46954e-21
1.05786e-22
9.45236e-21
4.59039e-21
1.91372e-21
1.52657e-20
9.98132e-21
6.95075e-21
1.53001e-20
3.93019e-21
1.78031e-20
9.12552e-22
1.39371e-20
3.81158e-20
2.57518e-20
2.46354e-20
1.09676e-20
5.1101e-22
6.01658e-21
7.24959e-21
1.82716e-20
9.61945e-21
6.03578e-21
8.02728e-21
2.08489e-20
4.03495e-21
1.71115e-20
1.57766e-20
9.13311e-21
2.45715e-20
6.64087e-21
7.10288e-21
1.42238e-20
1.47588e-22
2.13824e-21
6.83379e-22
1.97965e-21
5.24623e-21
9.79514e-22
1.72162e-20
4.1923e-20
1.27363e-20
1.60825e-20
1.42045e-20
1.57415e-20
1.64699e-21
3.33065e-21
4.50763e-21
2.20247e-20
9.22652e-21
1.48652e-21
7.68133e-22
1.63063e-20
8.65126e-22
4.6754e-21
6.21692e-21
2.02892e-20
1.51495e-20
1.07537e-21
1.16186e-21
5.17929e-21
5.54653e-21
5.35621e-21
2.80489e-20
3.41475e-21
1.41937e-20
6.30381e-20
5.45435e-21
2.62435e-21
1.77626e-20
1.57913e-20
2.70177e-20
9.82055e-24
9.94323e-21
5.56163e-21
4.98236e-20
1.94997e-21
1.35232e-20
2.1539e-20
5.17831e-21
1.26755e-20
1.95358e-21
7.2774e-21
5.29182e-21
4.97542e-21
1.31856e-20
7.54069e-21
4.14387e-21
1.11634e-20
1.23921e-20
4.39335e-21
1.30141e-20
8.7231e-21
3.2923e-21
2.5549e-21
3.88418e-20
3.18583e-20
1.13524e-20
2.61051e-21
1.04132e-20
1.53506e-20
7.61245e-21
1.44377e-20
1.42127e-20
8.22526e-21
1.98403e-20
1.75232e-20
5.72523e-21
2.97409e-20
1.06544e-20
2.74525e-20
7.54436e-22
3.30801e-21
4.5361e-21
1.09509e-20
2.88442e-20
4.12214e-21
5.5413e-21
2.02468e-20
2.56558e-21
2.90206e-21
5.53056e-21
2.63709e-22
5.38671e-21
2.36205e-22
8.70095e-21
1.41367e-20
1.67019e-20
1.53829e-21
1.5127e-20
9.02006e-21
2.53848e-21
5.18767e-21
1.11513e-20
3.74254e-20
2.4816e-21
2.95946e-20
5.09476e-21
5.12315e-20
3.97516e-21
8.46165e-21
1.20947e-20
9.88201e-22
1.53898e-20
9.79035e-21
2.16217e-21
3.28888e-21
3.11159e-21
4.78228e-22
3.37495e-20
8.80527e-21
1.82229e-20
6.67253e-21
2.22962e-22
4.26204e-21
1.09653e-20
1.45242e-20
1.19443e-20
2.51244e-21
2.93597e-21
2.00551e-20
4.45237e-21
4.64e-20
4.12934e-21
2.0717e-20
1.12437e-21
1.83938e-21
2.95785e-21
1.57349e-20
4.82392e-20
3.43474e-20
1.30331e-21
3.57248e-21
2.75547e-20
1.09656e-20
1.75885e-20
5.34049e-21
1.44438e-20
5.01188e-21
4.15647e-22
5.01121e-21
1.58262e-21
5.40789e-21
5.29138e-21
7.87338e-21
2.57927e-21
9.64929e-21
5.46294e-21
4.95051e-21
1.02024e-20
9.34069e-21
2.91616e-20
8.14677e-21
8.53718e-21
1.05021e-20
5.29914e-21
2.21502e-20
3.10946e-20
1.88819e-21
2.24938e-22
5.21997e-21
1.83681e-20
4.081e-20
2.86287e-20
2.23199e-20
1.85552e-20
3.44371e-22
2.44369e-20
1.04147e-20
8.15743e-21
1.47209e-21
9.78587e-21
9.61579e-22
1.56446e-20
1.31545e-20
7.53334e-21
2.00458e-20
5.62959e-22
6.75731e-21
3.20043e-20
1.10187e-21
4.50437e-21
1.19051e-20
1.28955e-20
1.70654e-20
2.03654e-21
1.87711e-20
6.97363e-21
3.12761e-20
6.36441e-20
6.04465e-21
2.88319e-20
7.44152e-21
3.82387e-21
3.22501e-21
5.9912e-21
8.33082e-21
1.03922e-20
5.73994e-21
1.70606e-20
2.13075e-21
3.66422e-20
1.1968e-20
1.832e-20
2.68771e-22
8.77742e-21
1.31877e-20
2.81633e-20
8.20924e-22
1.42892e-20
1.77438e-20
1.34391e-20
9.85467e-21
3.03438e-21
1.96779e-20
1.34969e-21
1.97403e-22
1.04708e-20
9.67243e-21
2.08917e-20
1.29424e-20
4.67273e-20
3.31596e-21
1.19252e-20
1.11126e-20
1.96493e-21
8.04885e-21
6.24446e-20
4.77e-22
1.39874e-21
4.28951e-21
2.66192e-21
2.98359e-21
6.91999e-21
3.83996e-21
1.18859e-20
8.30471e-20
2.33934e-20
3.52305e-20
2.2267e-20
2.43595e-20
3.00995e-20
2.16657e-20
1.55649e-20
6.54621e-21
1.92749e-20
4.54498e-21
4.81484e-20
1.30331e-20
8.22163e-21
1.11259e-20
6.25529e-21
2.24037e-21
5.30295e-21
4.57661e-20
2.9884e-20
5.04536e-20
2.90814e-21
1.52437e-20
1.23764e-20
4.93237e-21
4.14229e-21
2.11646e-20
2.35342e-20
2.37717e-22
8.62768e-21
5.40338e-21
3.98394e-20
5.77728e-21
3.04504e-21
6.54334e-22
3.0547e-20
8.97856e-21
1.36565e-20
2.40816e-20
5.77305e-21
1.03625e-20
2.52635e-22
4.67574e-21
3.37573e-21
5.34949e-20
1.19267e-20
5.40951e-21
8.00216e-21
2.36843e-20
1.14296e-20
3.03513e-21
3.0954e-20
3.11601e-22
2.72376e-20
6.54193e-21
3.27559e-21
3.06724e-21
5.06159e-21
5.68558e-21
3.27871e-21
2.90908e-20
1.95069e-20
5.02939e-21
8.57034e-21
1.4199e-20
6.21531e-22
1.97786e-21
5.82977e-21
1.94772e-20
3.68304e-21
3.29999e-21
5.0693e-21
5.79117e-21
1.06935e-20
1.07649e-20
3.35118e-21
1.78909e-20
8.32592e-21
3.21265e-20
4.10561e-20
3.35395e-20
3.91461e-21
3.39589e-20
1.17599e-20
4.46516e-21
4.88316e-21
6.23076e-22
4.66527e-21
3.87882e-21
8.13299e-22
2.55179e-21
5.1982e-21
2.16089e-20
5.68668e-21
2.26658e-20
2.46506e-20
1.11809e-20
5.03451e-21
1.80366e-20
5.03327e-21
5.11243e-21
1.93588e-20
1.74034e-20
1.42316e-20
1.62481e-20
1.61346e-20
2.94156e-20
4.90029e-20
3.80353e-21
7.05805e-21
4.41811e-22
9.50071e-21
2.67647e-20
1.36015e-20
4.6237e-21
1.46424e-21
2.2062e-20
1.01107e-20
3.09763e-21
2.22771e-20
4.44363e-21
3.7368e-21
1.30644e-20
4.24021e-21
3.0428e-20
2.44597e-20
7.03768e-21
3.41229e-21
2.40215e-20
8.76618e-21
9.01149e-21
1.93286e-21
1.95949e-21
1.27027e-20
8.24055e-21
1.6804e-20
7.7566e-21
4.87847e-21
8.51751e-21
6.18787e-20
2.29847e-20
2.50267e-20
1.93719e-20
5.50789e-21
6.40293e-21
4.22425e-22
3.91545e-20
6.0205e-21
1.96199e-20
3.36185e-20
1.89639e-20
2.45758e-20
2.60213e-20
3.26347e-21
4.60255e-22
1.03635e-21
6.6566e-21
1.28483e-20
1.12429e-21
1.81928e-20
1.86246e-21
4.80224e-21
6.95052e-21
2.28641e-21
1.26095e-21
1.4438e-20
1.4597e-20
7.74685e-21
2.02437e-21
3.96856e-21
9.7611e-22
4.06641e-21
6.71727e-22
1.95152e-20
2.02936e-20
1.2749e-20
2.34638e-21
3.92431e-21
1.0694e-20
9.22209e-22
4.44355e-21
3.60217e-21
1.15284e-20
5.42969e-20
5.45465e-22
1.41915e-21
9.33579e-21
1.12693e-20
5.65667e-22
1.53009e-21
1.64917e-21
4.40631e-21
4.99302e-20
1.66653e-20
1.43621e-20
9.0635e-21
2.14446e-21
4.79827e-21
2.68128e-21
1.09095e-20
1.72534e-20
7.32715e-21
2.39368e-20
1.34179e-20
2.04344e-20
3.66334e-21
1.3193e-21
1.99921e-20
7.36719e-21
7.63243e-21
6.71451e-22
2.12118e-20
3.47837e-20
1.64087e-20
9.26118e-23
2.02548e-20
3.1748e-20
5.54347e-20
2.28024e-21
1.39662e-20
1.72964e-20
5.74929e-21
1.3096e-20
3.47825e-21
9.42035e-21
1.44889e-20
2.74837e-21
2.77729e-21
1.63719e-20
4.93987e-21
2.84355e-20
2.30922e-20
2.66393e-20
3.86849e-21
1.84737e-22
5.05618e-21
2.29836e-20
1.33759e-20
4.46925e-20
5.3554e-20
1.93346e-20
1.98537e-20
1.33864e-20
4.90111e-21
1.70504e-20
8.94124e-21
3.77003e-20
3.25987e-21
4.92931e-21
2.59427e-21
1.30313e-21
2.40573e-20
2.24494e-20
3.1989e-21
7.26628e-21
2.95597e-20
3.23485e-21
2.97131e-20
4.37208e-21
6.48763e-21
5.63437e-21
5.04959e-21
2.16485e-22
2.77249e-21
7.09434e-21
1.75601e-20
5.28511e-21
3.59533e-20
1.5773e-20
5.30737e-21
1.27826e-20
1.07292e-20
7.2239e-20
6.48073e-20
2.18297e-21
1.89057e-21
1.42096e-20
2.78311e-20
4.84024e-21
3.54805e-21
3.05382e-21
2.55092e-20
2.02148e-21
1.56732e-21
6.69072e-21
1.73493e-20
5.63662e-21
2.53829e-20
2.51272e-21
6.2605e-21
7.80828e-21
1.01213e-20
3.96464e-21
2.21984e-20
9.81154e-21
1.27797e-20
3.07472e-21
1.08097e-20
4.24943e-20
2.20454e-20
1.31539e-20
8.12683e-21
1.61298e-22
4.37352e-22
6.32265e-20
8.72388e-21
9.69759e-21
1.8451e-20
7.23937e-21
9.70109e-22
8.42525e-21
5.20129e-21
2.77828e-21
3.21589e-20
2.63475e-21
3.08938e-20
2.81756e-21
1.81875e-20
2.7772e-20
3.89797e-20
8.1243e-21
1.20146e-21
1.24402e-22
2.26528e-21
3.11085e-20
4.08757e-20
1.09894e-20
7.91195e-21
1.26807e-20
1.36224e-20
4.60184e-22
6.31789e-21
2.09472e-21
2.84992e-21
1.87209e-20
7.90431e-21
2.4821e-21
3.76117e-20
9.29396e-22
1.01978e-20
4.22026e-20
1.10854e-21
2.523e-20
3.4511e-21
1.7538e-21
7.68469e-22
1.21081e-20
2.73698e-20
8.22448e-21
3.76112e-21
3.0084e-20
4.79515e-22
1.95067e-21
9.61318e-21
8.53091e-22
5.60884e-21
8.89359e-21
1.69501e-20
1.16938e-20
6.99465e-22
2.64136e-22
2.62819e-20
1.14579e-20
1.50053e-22
2.44921e-20
2.20082e-20
4.73663e-21
4.60355e-22
5.80802e-21
2.41299e-20
2.04629e-21
1.79579e-20
2.40467e-21
9.21761e-22
1.73486e-20
4.47817e-20
3.35443e-20
1.35974e-20
1.78078e-21
1.07246e-21
4.42003e-21
5.79731e-21
4.35954e-21
1.30051e-20
5.94439e-21
2.43294e-20
1.07096e-20
1.61912e-21
8.0913e-20
2.71956e-20
2.50949e-21
3.84916e-21
2.67935e-20
4.91551e-20
1.66249e-20
3.07211e-20
1.56088e-20
2.20607e-20
9.46444e-21
6.68018e-21
8.24139e-21
4.27406e-22
4.4175e-22
9.46954e-21
5.79017e-21
3.09511e-21
3.4462e-20
5.79387e-21
3.58193e-20
2.79576e-20
5.69714e-21
5.64235e-20
1.29284e-20
9.59597e-21
5.04547e-21
2.55682e-20
1.09581e-20
4.98125e-21
1.37254e-20
1.06083e-20
1.50152e-21
2.88349e-20
8.53859e-21
1.64684e-21
6.51558e-21
2.73414e-22
4.34348e-21
1.95622e-20
2.32569e-20
5.41311e-21
3.14823e-21
7.65627e-22
3.40087e-20
1.56629e-20
1.74947e-20
1.38924e-20
2.69681e-20
2.99363e-22
3.41254e-21
1.65262e-21
8.52966e-21
3.1489e-21
1.5717e-20
8.70044e-21
1.36351e-20
7.67075e-21
7.37025e-21
8.95177e-21
8.39542e-21
4.06324e-21
4.42475e-21
6.60932e-23
7.64087e-21
1.44678e-20
3.20942e-21
2.84647e-21
2.41098e-20
1.26167e-20
6.89795e-21
1.10172e-20
1.15093e-20
1.05645e-20
6.35253e-21
2.59981e-21
8.99951e-21
5.97334e-21
2.29585e-21
4.50461e-22
6.33373e-21
7.10702e-21
1.92472e-23
8.47563e-21
4.24266e-20
5.95751e-21
3.29598e-20
4.33755e-21
9.29434e-21
3.03858e-21
1.24455e-21
1.43541e-21
1.70293e-21
1.01002e-20
5.27411e-21
2.16442e-20
1.69277e-20
3.34382e-21
5.72744e-21
3.0081e-20
2.02824e-22
1.67942e-20
1.38501e-20
6.71429e-21
2.01788e-20
3.45011e-23
5.89922e-20
1.33262e-20
1.67614e-20
1.82202e-20
9.27809e-22
2.86462e-20
4.20437e-20
6.23142e-21
4.46686e-21
2.58253e-20
1.95754e-20
3.073e-20
2.39532e-20
4.25478e-20
1.46169e-20
8.40317e-21
5.03245e-21
2.57864e-20
1.18495e-20
1.27095e-20
1.43497e-21
4.30735e-20
5.19379e-21
2.79862e-20
1.44037e-20
5.64556e-21
1.02425e-20
5.81988e-21
7.1996e-22
1.48671e-20
9.7873e-21
2.36872e-20
5.21559e-22
4.86523e-21
6.32124e-21
3.5507e-20
1.34797e-20
3.29421e-20
2.83462e-20
5.29465e-21
1.14992e-20
4.31077e-20
2.16447e-20
5.61857e-21
6.27021e-21
1.67445e-20
1.05295e-20
6.3682e-21
1.41187e-20
1.99077e-22
8.22868e-21
2.44666e-20
5.41061e-20
4.10646e-22
6.13964e-21
1.2626e-20
1.07961e-20
6.68088e-21
5.75859e-21
2.6196e-21
6.46331e-21
7.19645e-21
3.54353e-21
4.96584e-20
6.56876e-21
3.52561e-20
1.20391e-21
4.06519e-21
1.3826e-20
6.07932e-21
4.02158e-21
1.24284e-20
4.79139e-21
7.52619e-21
1.2625e-20
9.85865e-21
2.9989e-21
3.39226e-22
1.21022e-20
5.68074e-21
6.23315e-21
2.34008e-21
2.17861e-20
9.63575e-22
5.46897e-21
1.21855e-20
4.0061e-20
3.63254e-21
1.66038e-20
7.1709e-21
1.89449e-21
3.65765e-20
9.81273e-21
1.28321e-22
4.93367e-20
2.57573e-20
1.15579e-20
1.67809e-20
1.18654e-20
9.52411e-21
5.29724e-21
5.78764e-20
7.02701e-21
7.52291e-21
1.43172e-20
2.9947e-21
1.69814e-21
5.72406e-21
6.63925e-21
1.59146e-21
8.89844e-21
2.2507e-22
1.59845e-21
4.55093e-21
1.92776e-21
9.2218e-21
8.67599e-22
1.74458e-20
7.32966e-21
1.24687e-20
1.78719e-20
1.36478e-20
1.7021e-20
6.2932e-21
1.45549e-20
9.0145e-21
1.92748e-20
3.27114e-21
1.93936e-20
1.82333e-20
4.98474e-21
4.74787e-21
1.924e-20
2.27452e-21
3.49087e-20
1.22245e-20
1.79013e-21
1.72984e-20
2.86394e-20
2.32942e-21
2.4958e-20
4.13865e-21
3.55754e-20
1.41034e-20
3.62105e-21
3.88192e-21
9.4835e-22
9.70992e-22
6.20385e-21
1.57388e-20
1.01397e-20
8.5913e-21
4.84653e-21
2.35834e-20
3.84746e-21
6.88317e-21
1.40102e-21
2.59545e-20
4.9255e-21
1.15772e-20
4.28899e-21
1.30242e-20
3.32664e-21
3.54131e-21
2.12344e-21
2.65389e-21
2.06811e-20
2.96564e-20
5.73548e-21
2.62494e-21
4.50648e-21
2.92452e-21
1.24304e-20
7.59366e-21
2.52868e-22
7.60259e-20
6.69401e-21
8.01537e-21
1.30514e-20
3.09232e-21
6.87163e-21
3.6543e-20
2.98891e-21
3.69267e-21
2.39978e-20
9.03061e-21
4.18187e-20
2.46994e-21
8.45522e-21
6.09452e-21
1.65952e-22
1.29354e-21
1.65222e-20
1.13722e-20
4.6671e-21
1.06304e-20
1.0074e-20
2.23354e-20
1.55264e-20
8.54542e-21
1.28004e-20
3.60631e-20
2.53908e-21
1.02783e-20
2.59363e-21
2.84541e-20
8.54952e-22
1.33225e-20
1.03497e-21
1.35988e-20
7.105e-21
1.39595e-20
4.79407e-24
1.33785e-21
2.01334e-20
4.72493e-20
1.40234e-21
5.89105e-21
4.50429e-21
1.31733e-20
1.05508e-20
1.63004e-20
9.97431e-21
1.92291e-20
3.83172e-20
1.39448e-20
1.92028e-20
2.04127e-20
1.79528e-20
4.60128e-21
2.28023e-20
1.80117e-20
1.98817e-20
2.24145e-21
4.03055e-22
8.63138e-21
3.91962e-21
5.89937e-21
6.26611e-21
4.11459e-21
1.89528e-20
3.00674e-21
1.63394e-21
9.2966e-21
2.25188e-20
3.10115e-20
1.01823e-20
4.22791e-21
1.71317e-20
4.71356e-21
7.5197e-21
6.76517e-21
8.71913e-23
1.38698e-21
4.35294e-20
1.40585e-20
1.17207e-21
3.10656e-21
8.01637e-21
2.61118e-20
8.76627e-21
6.41489e-21
9.88224e-21
2.54659e-21
1.08479e-20
1.60118e-20
2.39178e-21
6.55713e-22
2.74717e-20
9.36928e-21
7.06813e-21
6.7608e-21
5.28202e-21
6.0771e-21
1.64184e-21
2.4606e-20
2.87632e-20
4.25507e-22
7.36249e-21
3.33866e-21
3.83818e-20
1.12725e-20
3.73464e-21
2.49725e-20
3.45597e-22
2.06477e-21
1.05657e-20
1.48037e-20
5.47439e-22
2.92952e-20
6.09492e-21
7.42967e-21
2.49985e-22
4.43847e-21
4.51968e-20
8.27168e-21
2.66944e-20
1.00399e-20
1.14388e-20
2.24668e-21
8.84798e-22
2.07649e-22
3.28134e-20
4.68126e-20
1.07176e-20
2.95244e-20
6.43107e-21
1.63244e-20
1.00576e-20
2.54341e-20
1.84524e-20
9.35367e-21
2.82142e-21
9.89812e-21
1.11569e-21
2.36424e-20
1.40546e-20
8.0793e-21
3.4016e-20
3.3346e-21
2.33975e-20
9.55461e-21
1.41787e-20
1.03005e-20
1.401e-21
2.77675e-21
9.73954e-21
4.25108e-20
7.02812e-21
1.09195e-20
6.32548e-21
2.64873e-22
1.35528e-20
5.01837e-21
1.78346e-20
4.12548e-21
2.54851e-21
3.99584e-20
2.40724e-20
3.30035e-21
1.27654e-20
7.39249e-21
1.67988e-20
1.24684e-20
5.61799e-21
6.1957e-20
2.55207e-21
2.37419e-20
7.46453e-22
3.48022e-21
1.4602e-20
1.55973e-20
1.08629e-20
2.41035e-21
2.4377e-20
9.87727e-21
6.61942e-21
1.83074e-20
5.18637e-21
1.30862e-21
6.60884e-21
1.63722e-21
9.6109e-21
9.33228e-21
1.016e-20
1.47875e-20
4.38956e-21
2.10344e-20
3.04307e-20
3.66638e-20
4.06305e-22
9.5449e-21
1.04904e-21
6.95077e-21
1.75467e-22
1.40887e-22
4.89957e-21
3.39603e-21
2.1304e-20
9.76083e-21
4.02098e-22
4.75349e-22
1.56677e-20
4.13312e-21
1.86736e-22
1.53097e-20
6.34421e-21
2.03445e-20
1.5451e-20
1.08195e-20
9.48613e-21
5.38401e-21
2.00571e-20
8.51035e-21
2.25122e-20
1.87056e-21
1.34002e-20
1.27122e-20
3.90958e-20
1.91899e-21
3.36914e-20
9.74497e-21
7.68479e-21
2.29556e-20
1.11441e-21
2.11844e-20
1.15705e-21
2.545e-20
9.36231e-21
1.4135e-20
1.74962e-20
4.79277e-21
2.53227e-21
2.63812e-21
3.31397e-21
3.01777e-20
9.75552e-21
1.11626e-20
4.2841e-21
6.89538e-21
1.30005e-20
2.56015e-21
9.87521e-21
6.55531e-21
3.77631e-21
5.30503e-21
3.40067e-21
2.42736e-21
1.42145e-20
1.07811e-20
9.98098e-21
1.24927e-20
1.02762e-20
5.36342e-21
7.55846e-21
1.32777e-20
2.87111e-20
2.02378e-21
2.1858e-21
2.38771e-21
1.67028e-20
3.34229e-21
2.47223e-22
7.11007e-21
1.08905e-20
6.15249e-21
3.82176e-20
1.17233e-20
1.66065e-20
3.08701e-20
1.14183e-21
2.16438e-20
3.05477e-21
2.63977e-20
3.12626e-20
1.5016e-20
1.85381e-21
2.63916e-20
1.00596e-20
2.03244e-22
7.45772e-21
3.37843e-21
9.57749e-21
2.52456e-20
2.42583e-22
4.37161e-22
4.34642e-23
7.81659e-21
2.70579e-20
3.10435e-20
1.91868e-20
8.63354e-21
2.34664e-20
7.91322e-21
2.03802e-20
6.02747e-21
1.20797e-21
4.52933e-20
9.76739e-21
2.26424e-21
2.44543e-21
3.96482e-20
3.18984e-21
5.05108e-21
1.05934e-21
4.35352e-21
6.03297e-21
2.72177e-20
1.45267e-20
1.16917e-20
1.12818e-20
1.84939e-20
2.26506e-20
3.99513e-20
1.47436e-20
1.07776e-20
8.26894e-22
6.3561e-21
1.62927e-20
1.08119e-20
1.41115e-20
3.18758e-21
6.48115e-21
1.83342e-21
1.7531e-21
3.78459e-21
9.382e-21
3.12064e-21
9.3216e-21
3.4203e-21
4.64608e-20
1.98039e-20
1.21183e-21
9.84018e-20
5.03095e-21
2.0695e-20
2.23106e-21
6.67581e-21
3.52912e-21
7.01707e-21
2.39466e-20
9.94996e-21
4.07701e-20
4.768e-21
2.06491e-20
8.63432e-21
9.65499e-21
3.00539e-20
1.74873e-21
1.36833e-21
1.30455e-21
1.28689e-21
1.124e-20
5.26559e-21
3.37834e-21
1.23449e-20
4.20959e-21
1.84294e-20
5.52694e-21
1.1111e-20
1.94944e-22
1.75344e-20
3.38829e-20
1.73126e-20
9.26151e-21
1.16065e-21
6.98493e-21
2.55043e-21
6.22318e-22
1.47961e-20
2.42564e-20
8.29581e-22
2.99212e-21
3.69224e-21
7.34256e-21
9.55354e-21
8.82908e-21
8.33021e-21
4.34247e-20
1.28722e-22
3.72335e-20
9.17513e-21
8.78452e-21
1.15426e-21
1.55812e-20
4.25758e-20
4.1054e-20
2.03576e-21
9.09118e-20
1.59465e-20
6.30855e-21
2.61402e-20
4.31638e-21
4.88706e-21
2.11678e-21
1.10946e-20
1.31635e-20
3.25138e-21
2.51442e-21
4.58756e-21
2.96963e-20
4.58375e-23
1.36567e-20
2.58477e-20
4.08048e-20
1.30136e-20
1.59754e-20
1.70406e-20
8.97769e-22
3.81403e-21
1.17301e-20
1.66851e-20
1.01327e-20
3.71202e-20
3.39557e-20
7.29587e-21
3.24097e-21
1.84592e-20
9.94087e-22
1.6081e-20
3.99128e-21
2.18439e-20
2.99415e-21
8.36172e-21
1.3124e-20
1.39034e-20
2.89034e-21
6.02827e-21
3.30609e-20
1.60034e-20
1.76588e-21
1.2693e-20
1.66908e-20
8.98893e-21
2.45075e-20
1.95313e-20
7.20944e-21
1.614e-20
5.22215e-21
1.30894e-20
2.69554e-21
7.47367e-21
1.0252e-20
3.28968e-21
8.65521e-21
4.38904e-21
2.57861e-21
2.93687e-20
3.4995e-20
7.37485e-21
1.29147e-20
5.28918e-21
4.75955e-20
6.05141e-21