/*--------------------------------*- C++ -*----------------------------------*\
  =========                 |
  \\      /  F ield         | OpenFOAM: The Open Source CFD Toolbox
   \\    /   O peration     | Website:  https://openfoam.org
    \\  /    A nd           | Version:  7
     \\/     M anipulation  |
\*---------------------------------------------------------------------------*/
FoamFile
{
    version     2.0;
    format      ascii;
    class       volScalarField;
    location    "0.35";
    object      epsilon;
}
// * * * * * * * * * * * * * * * * * * * * * * * * * * * * * * * * * * * * * //

dimensions      [0 2 -3 0 0 0 0];

internalField   nonuniform List<scalar> 
1915
(
0.889969
0.722473
0.888139
1.1893
1.22557
1.96215
1.57214
2.95546
1.89979
3.97977
2.22013
5.20205
2.53072
6.37237
2.86751
7.73668
3.26381
9.47911
3.69521
11.8898
0.0498512
0.0801486
0.367899
0.0856768
0.373416
0.366221
0.40202
0.431029
0.454962
0.472666
0.481255
0.481979
0.476017
0.464518
0.44865
0.429611
0.408746
0.388534
0.378849
0.38418
0.373613
0.365535
0.372836
0.0857921
0.0858458
0.0862952
0.0864708
0.367365
0.367277
0.0853033
0.0852744
0.0850842
0.0851781
0.0850967
0.0856311
0.0844979
0.0783693
0.0670329
0.0509515
0.0291915
0.122206
0.109731
0.152435
0.171824
0.188911
0.19995
0.204593
0.207204
0.208943
0.209729
0.208354
0.205008
0.200027
0.193774
0.186623
0.178955
0.171179
0.16383
0.157816
0.150072
0.145932
0.141334
0.135025
0.127251
0.122851
0.120395
0.113661
0.117334
0.113386
0.106647
0.100524
0.0961567
0.0897928
0.0832716
0.0743726
0.0673464
0.0609236
0.0527414
0.0410682
0.0224462
0.206884
0.144685
0.161898
0.174553
0.180164
0.181742
0.180409
0.178107
0.175503
0.172302
0.168075
0.162914
0.157036
0.150688
0.144117
0.137556
0.131225
0.12532
0.120002
0.114849
0.110645
0.106897
0.103385
0.100418
0.0977377
0.0956897
0.0932821
0.0914457
0.0895183
0.0873564
0.0849362
0.0822038
0.0788989
0.0749466
0.0698896
0.0644282
0.0590607
0.0530708
0.0467556
0.0965577
0.310827
0.187593
0.18968
0.195142
0.195786
0.192849
0.187937
0.182359
0.176657
0.170492
0.163697
0.156402
0.148821
0.141183
0.133696
0.126543
0.119869
0.113776
0.108322
0.103461
0.0992689
0.0956721
0.0926012
0.0900464
0.0878671
0.0860665
0.0843897
0.0829021
0.0815245
0.0800782
0.0784873
0.0766329
0.074415
0.0717098
0.0683882
0.0645392
0.0605416
0.0565325
0.0536303
0.0227769
0.438736
0.24328
0.231118
0.229863
0.225886
0.218988
0.21051
0.201516
0.192487
0.183019
0.173137
0.163059
0.153046
0.143343
0.134154
0.125631
0.117876
0.110942
0.10484
0.0995434
0.0950158
0.0911953
0.0880216
0.0854353
0.0833172
0.0815846
0.0801127
0.0788509
0.0777196
0.0766072
0.0754264
0.0740807
0.0724854
0.0705538
0.0682323
0.0655658
0.0628379
0.0606136
0.0609829
0.0228029
0.605702
0.317797
0.288239
0.27868
0.268959
0.257399
0.244751
0.231773
0.218766
0.205274
0.191522
0.177857
0.164623
0.152111
0.140535
0.130028
0.120653
0.112417
0.105282
0.0991832
0.0940365
0.0897455
0.0862354
0.0834154
0.0811574
0.0793525
0.0778936
0.0766981
0.0756786
0.0747454
0.0738126
0.0727984
0.0716311
0.0702519
0.0686412
0.0668693
0.0652228
0.0645182
0.068279
0.111133
0.836376
0.419847
0.364361
0.342786
0.325247
0.307827
0.290189
0.272599
0.254703
0.236271
0.217699
0.199499
0.182146
0.166006
0.15132
0.138208
0.126693
0.116725
0.108206
0.101012
0.0950067
0.090048
0.086039
0.0828431
0.0803152
0.0783289
0.0767704
0.0755409
0.074547
0.0737024
0.0729245
0.0721398
0.071288
0.0703297
0.0692698
0.0682078
0.0674692
0.0680398
0.0740979
0.125649
1.16918
0.56354
0.464528
0.424417
0.396083
0.371248
0.347612
0.324589
0.300848
0.276399
0.251871
0.22801
0.205475
0.184751
0.166126
0.149713
0.135487
0.123328
0.113059
0.10448
0.0973841
0.0915788
0.0869259
0.0832319
0.080328
0.0780689
0.0763266
0.0749888
0.0739547
0.0731346
0.0724468
0.0718221
0.0712089
0.0705819
0.0699649
0.0694844
0.0695125
0.071179
0.0792455
0.138961
1.66929
0.772029
0.598844
0.529405
0.485787
0.451062
0.41974
0.389977
0.359032
0.327107
0.295141
0.264187
0.23515
0.20867
0.185106
0.164565
0.146961
0.132085
0.119656
0.109374
0.100941
0.094117
0.0886708
0.0843585
0.0809792
0.0783631
0.076364
0.0748548
0.0737242
0.0728763
0.0722274
0.0717097
0.0712769
0.0709136
0.0706591
0.0706634
0.0713455
0.0739675
0.0838406
0.151161
2.52303
1.10097
0.794725
0.67657
0.608167
0.557299
0.513832
0.474181
0.433279
0.391377
0.349703
0.309624
0.272303
0.238545
0.208777
0.183083
0.161292
0.14307
0.128002
0.115654
0.105617
0.097579
0.0911796
0.0861225
0.0821663
0.0791101
0.0767845
0.0750446
0.0737663
0.0728445
0.0721903
0.0717351
0.071435
0.0712814
0.0713254
0.0717379
0.0729825
0.0764458
0.0879611
0.162394
3.59188
7.82447
3.19233
5.61053
2.75828
4.21151
2.38615
3.28087
2.09092
2.67066
1.86417
2.26169
1.69326
1.97942
1.56714
1.78145
1.47732
1.64282
1.41743
1.548
1.48674
1.45191
1.43836
1.44267
1.46513
1.5064
1.55446
1.57682
1.59124
1.60385
1.6217
1.65469
1.70961
1.78798
1.88743
2.00315
2.12934
2.26102
2.39301
2.52643
2.66432
2.81071
2.96678
12.7925
7.33423
10.2687
8.17312
7.75464
8.59821
24.8978
11.0793
5.45982
6.44199
12.5776
14.3909
4.12902
4.9191
7.43606
9.40819
3.26652
3.88088
5.08161
6.3705
2.68839
3.15193
3.83254
4.64077
2.29175
2.63757
3.07773
3.60698
2.01567
2.27547
2.58428
2.95012
1.82267
2.02097
2.24863
2.51327
1.68879
1.84279
2.01614
2.21437
1.59832
1.71953
1.85439
2.00673
1.54061
1.6366
1.74279
1.86184
1.50837
1.58413
1.6679
1.76159
1.49665
1.55562
1.62105
1.69449
1.50395
1.54748
1.597
1.65355
1.53143
1.55966
1.59407
1.63516
1.57632
1.5919
1.61267
1.63896
1.61067
1.63443
1.64971
1.66444
1.63337
1.66584
1.68863
1.70524
1.6544
1.6946
1.72471
1.74594
1.67652
1.72155
1.75866
1.78746
1.71005
1.75493
1.79203
1.82301
1.76363
1.80474
1.83653
1.86261
1.84074
1.87682
1.90047
1.91684
1.94042
1.97207
1.98705
1.99176
2.05911
2.08849
2.09613
2.08948
2.19246
2.22337
2.22673
2.21069
2.33711
2.37525
2.37918
2.357
2.49204
2.54555
2.55689
2.53279
2.66031
2.74004
2.76762
2.74634
2.84689
2.96805
3.02338
3.0099
3.06056
3.24306
3.33933
3.33829
3.30606
3.57402
3.7283
3.74484
2.55112
1.59979
1.13661
0.928633
0.805774
0.718525
0.649087
0.590319
0.532698
0.475594
0.42005
0.367492
0.319173
0.275953
0.238239
0.206024
0.178989
0.156616
0.138304
0.123437
0.111504
0.102
0.0944564
0.0885076
0.0838598
0.0802727
0.0775471
0.0755159
0.0740385
0.0729983
0.0722985
0.0718666
0.0716588
0.0716706
0.0719622
0.0727232
0.0744587
0.0786753
0.091708
0.172899
5.59965
3.0686
1.99434
1.49157
1.20112
1.01015
0.872473
0.767787
0.676394
0.592362
0.514567
0.443404
0.379548
0.323467
0.275248
0.234586
0.200863
0.17327
0.150925
0.133001
0.118775
0.107491
0.0985685
0.0915511
0.0860772
0.0818552
0.0786478
0.0762597
0.0745294
0.0733254
0.0725397
0.0720936
0.071941
0.0720788
0.072574
0.0736322
0.0757979
0.0806928
0.0951364
0.182798
12.8366
7.64758
4.40417
2.93616
2.11044
1.61607
1.29067
1.06869
0.901944
0.764764
0.647505
0.54618
0.458919
0.384539
0.321998
0.270174
0.227818
0.193612
0.166252
0.144647
0.127604
0.11416
0.103579
0.0952889
0.0888368
0.0838654
0.0800883
0.0772741
0.0752356
0.0738215
0.0729099
0.0724133
0.0722803
0.0725073
0.0731656
0.0744748
0.077016
0.0825214
0.0982795
0.192165
10.621
10.4959
8.88585
6.24632
4.1719
2.9288
2.15161
1.62847
1.28764
1.03897
0.846247
0.692035
0.566921
0.464961
0.382031
0.314993
0.261245
0.21852
0.184988
0.158784
0.138258
0.122177
0.109598
0.099789
0.0921809
0.0863291
0.081884
0.0785687
0.0761631
0.0744907
0.0734125
0.0728289
0.0726814
0.072963
0.0737474
0.0752659
0.0781339
0.0841899
0.101178
0.201093
7.57471
8.36664
8.93171
8.85107
7.33389
5.41796
3.8689
2.72766
1.99072
1.50501
1.16278
0.91056
0.720313
0.574277
0.46088
0.372333
0.303135
0.249393
0.208016
0.175966
0.151088
0.131765
0.116764
0.10514
0.0961652
0.0892816
0.0840577
0.0801585
0.0773225
0.0753409
0.0740539
0.0733469
0.0731512
0.0734545
0.0743306
0.0760205
0.0791715
0.0857243
0.103869
0.209665
5.53358
6.32804
7.08181
7.86595
8.36127
7.75412
6.30732
4.70529
3.30909
2.32957
1.69415
1.25601
0.948867
0.728644
0.567428
0.447216
0.356493
0.288313
0.236524
0.196921
0.166542
0.143202
0.125252
0.11145
0.100858
0.0927659
0.0866373
0.0820621
0.0787266
0.0763819
0.0748424
0.0739749
0.073698
0.0739913
0.0749268
0.0767531
0.0801472
0.0871486
0.106385
0.217957
4.23783
4.8742
5.52878
6.25263
7.09565
7.81895
7.78593
6.83062
5.32578
3.77277
2.6114
1.82474
1.30574
0.955993
0.716318
0.547492
0.42651
0.338017
0.272125
0.222606
0.185197
0.156834
0.135271
0.118847
0.106337
0.0968315
0.0896544
0.0843006
0.0803901
0.0776246
0.0757869
0.0747212
0.0743298
0.0745824
0.0755467
0.0774771
0.0810779
0.088484
0.108755
0.226036
3.39965
3.88302
4.40209
4.9879
5.68729
6.53155
7.34884
7.64746
7.06305
5.69533
4.05867
2.77129
1.88355
1.30487
0.932277
0.687409
0.520395
0.402417
0.317013
0.254281
0.207783
0.173093
0.147076
0.127484
0.112695
0.101534
0.0931433
0.0868966
0.0823279
0.0790795
0.0768957
0.075593
0.0750544
0.0752363
0.0762004
0.0782048
0.0819787
0.0897497
0.111006
0.233962
2.84073
3.20553
3.60681
4.06506
4.61506
5.29685
6.1317
6.98644
7.45381
7.08895
5.81787
4.14268
2.78588
1.85218
1.25925
0.888211
0.648614
0.487002
0.374165
0.293596
0.235229
0.192504
0.160968
0.137533
0.120032
0.106932
0.0971402
0.0898749
0.0845543
0.0807561
0.078176
0.0765969
0.075878
0.0759602
0.0768965
0.0789467
0.0828629
0.0909625
0.11316
0.241785
2.45861
2.73609
3.04572
3.40127
3.82889
4.36343
5.03957
5.8701
6.73337
7.25986
6.97307
5.71521
4.02708
2.66421
1.74721
1.17805
0.825774
0.599314
0.447557
0.342689
0.268701
0.215711
0.177305
0.149195
0.12846
0.113089
0.101681
0.0932528
0.0870807
0.0826616
0.0796329
0.0777372
0.0768056
0.0767598
0.0776422
0.0797118
0.0837419
0.0921371
0.115236
0.249548
2.19284
2.40643
2.64696
2.9238
3.25629
3.67346
4.20912
4.8929
5.72768
6.58329
7.08882
6.73772
5.40092
3.73637
2.43871
1.59046
1.07082
0.749236
0.542329
0.404266
0.309636
0.243481
0.196499
0.16269
0.138099
0.120071
0.106802
0.0970472
0.0899152
0.0848001
0.0812689
0.0790161
0.0778397
0.0776389
0.0784425
0.0805073
0.0846251
0.0932858
0.117253
0.257285
2.00611
2.17251
2.36105
2.57847
2.8387
3.16499
3.58776
4.13873
4.8422
5.68806
6.51299
6.90486
6.3656
4.91134
3.32539
2.15126
1.40431
0.948522
0.664725
0.481599
0.359746
0.276709
0.219014
0.178261
0.149073
0.127941
0.112542
0.101273
0.0930621
0.0871717
0.0830829
0.0804327
0.0789803
0.0785987
0.0793006
0.0813382
0.0855198
0.0944187
0.119223
0.265025
1.87462
2.00549
2.15448
2.32682
2.53255
2.78953
3.12374
3.56536
4.14277
4.87392
5.72405
6.46718
6.64817
5.84718
4.30325
2.85374
1.84023
1.20855
0.821448
0.578327
0.420945
0.31638
0.245351
0.196156
0.161505
0.136758
0.11891
0.105933
0.0965185
0.0897711
0.0850694
0.0819825
0.0802245
0.079638
0.080217
0.082207
0.086431
0.0955431
0.121158
0.272783
1.78317
1.8865
2.00483
2.14235
2.30659
2.51097
2.77658
3.13068
3.60155
4.21226
4.96934
5.79287
6.38581
6.26623
5.17698
3.63512
2.37267
1.53547
1.01806
0.697902
0.495144
0.363492
0.276009
0.216618
0.175508
0.146584
0.12592
0.111022
0.100274
0.0925867
0.0872178
0.0836569
0.0815657
0.0807525
0.0811897
0.0831139
0.087361
0.0966641
0.123064
0.280569
1.72238
1.80351
1.89732
2.00726
2.13916
2.30321
2.51601
2.80099
3.18501
3.69263
4.33857
5.10838
5.85959
6.21062
5.69865
4.37763
2.96396
1.92358
1.25626
0.84256
0.583857
0.418894
0.311419
0.23985
0.191173
0.157421
0.133561
0.11652
0.104306
0.0955988
0.0895116
0.0854423
0.0829935
0.0819345
0.0822135
0.0840563
0.0883097
0.0977837
0.124947
0.288383
1.68682
1.74927
1.82269
1.90995
2.01575
2.14804
2.31986
2.55061
2.86485
3.28728
3.83635
4.51531
5.27279
5.86707
5.84289
4.93049
3.54554
2.35035
1.53084
1.01189
0.687604
0.483044
0.351841
0.265978
0.208572
0.169243
0.141794
0.122388
0.108581
0.0987787
0.0919272
0.0873201
0.0844932
0.0831728
0.0832803
0.0850285
0.0892739
0.0989015
0.126806
0.296215
1.67438
1.71978
1.77537
1.84319
1.92703
2.03332
2.17247
2.36045
2.6189
2.97179
3.43925
4.03033
4.72971
5.40895
5.70628
5.21957
4.04313
2.77841
1.82783
1.2015
0.805215
0.555696
0.397238
0.295006
0.227559
0.181961
0.150543
0.128565
0.113049
0.102087
0.0944341
0.089266
0.0860456
0.0844525
0.0843784
0.0860223
0.090248
0.100014
0.128639
0.304045
1.68483
1.71375
1.75232
1.80254
1.86714
1.95119
2.0633
2.21679
2.43043
2.7267
3.12633
3.64146
4.26749
4.94353
5.42024
5.27898
4.3804
3.16348
2.12559
1.40248
0.933322
0.635623
0.447159
0.326675
0.247924
0.195415
0.159691
0.134963
0.117646
0.105475
0.0969936
0.09125
0.0876272
0.0857547
0.0854932
0.087026
0.0912234
0.101115
0.13044
0.311846
1.71587
1.73058
1.75265
1.78562
1.83238
1.89667
1.98544
2.11012
2.28713
2.53706
2.8805
3.33123
3.88891
4.52387
5.07817
5.17805
4.55587
3.46543
2.39996
1.60251
1.06643
0.720549
0.500757
0.360173
0.269243
0.209344
0.169065
0.141465
0.122287
0.108881
0.0995597
0.0932365
0.08921
0.0870573
0.0866069
0.0880254
0.0921886
0.102195
0.132201
0.31958
1.75869
1.76773
1.77514
1.79144
1.82054
1.86633
1.93423
2.03394
2.18014
2.39166
2.68832
3.08466
3.58282
4.1649
4.73354
4.98713
4.59798
3.66356
2.62875
1.78867
1.19793
0.807341
0.555357
0.394334
0.290882
0.22338
0.17844
0.147923
0.126873
0.112232
0.10208
0.0951849
0.0907621
0.0883348
0.0876987
0.0890036
0.09313
0.103243
0.133909
0.327203
1.8055
1.81297
1.81553
1.81804
1.83038
1.85787
1.90625
1.98359
2.10302
2.28202
2.5394
2.88978
3.33666
3.86619
4.41665
4.75791
4.54483
3.76722
2.79345
1.94477
1.31727
0.888667
0.607912
0.427611
0.312023
0.237066
0.187543
0.154165
0.131288
0.11545
0.104494
0.0970508
0.0922487
0.0895591
0.0887456
0.0899417
0.0940318
0.104246
0.135551
0.33466
1.84937
1.86519
1.86645
1.86136
1.86005
1.86971
1.89876
1.95532
2.05087
2.20171
2.4257
2.73704
3.13972
3.62133
4.13918
4.51848
4.42995
3.79274
2.8954
2.05981
1.41406
0.959161
0.65534
0.458326
0.33175
0.249884
0.196069
0.160002
0.135407
0.118448
0.106741
0.0987868
0.0936326
0.0907003
0.0897232
0.0908191
0.0948766
0.105188
0.13711
0.341893
1.88738
1.90944
1.92017
1.91595
1.90699
1.90011
1.9095
1.94578
2.01951
2.14553
2.34078
2.61878
2.98331
3.42238
3.90236
4.28806
4.28093
3.75702
2.93948
2.13349
1.48542
1.01547
0.695179
0.484947
0.349164
0.261311
0.203706
0.165239
0.139104
0.121137
0.108757
0.100345
0.0948761
0.0917279
0.090606
0.0916142
0.0956459
0.106054
0.138568
0.348838
1.93215
1.94934
1.96454
1.96997
1.96298
1.94657
1.93607
1.95181
2.00505
2.10894
2.27929
2.5287
2.86018
3.2615
3.7022
4.07541
4.11653
3.67496
2.93258
2.16729
1.53022
1.05562
0.725671
0.506233
0.363477
0.270866
0.210155
0.169688
0.142255
0.123432
0.110479
0.101678
0.0959422
0.0926117
0.0913687
0.0923056
0.0963212
0.106826
0.139907
0.355427
1.99366
1.9994
2.00986
2.01888
2.02266
2.00232
1.97415
1.96985
2.00366
2.08781
2.23658
2.46139
2.76399
3.13121
3.53334
3.88191
3.94207
3.55753
2.88355
2.16549
1.54938
1.07895
0.745783
0.521304
0.374072
0.278146
0.215163
0.173183
0.144748
0.125256
0.111852
0.102742
0.0967964
0.0933233
0.0919875
0.0928728
0.0968844
0.107488
0.141108
0.361594
2.07701
2.06865
2.06905
2.07358
2.07592
2.05767
2.0198
1.99652
2.0118
2.07827
2.20843
2.4121
2.68919
3.02494
3.38903
3.70473
3.76266
3.41603
2.80289
2.13401
1.54512
1.08575
0.755086
0.529634
0.380528
0.282857
0.218531
0.175592
0.146493
0.126544
0.112826
0.103501
0.0974083
0.0938375
0.0924408
0.0932969
0.0973189
0.108025
0.142153
0.367273
2.18451
2.1608
2.14725
2.14036
2.13205
2.11297
2.06741
2.02752
2.02611
2.07678
2.19101
2.37652
2.6309
2.93732
3.26449
3.54162
3.58149
3.26029
2.69947
2.07799
1.51965
1.07668
0.753607
0.53104
0.382637
0.284829
0.220133
0.176824
0.147423
0.127247
0.113364
0.103924
0.0977534
0.0941336
0.0927107
0.0935622
0.0976105
0.108424
0.143028
0.372403
2.31838
2.27789
2.24594
2.22069
2.19453
2.16736
2.1155
2.06084
2.04366
2.08013
2.18079
2.35068
2.58456
2.8632
3.15441
3.39004
3.40145
3.09478
2.5775
2.00037
1.4748
1.05274
0.741806
0.525679
0.380418
0.284028
0.219924
0.176837
0.147503
0.127334
0.113441
0.10399
0.0978143
0.0941964
0.0927835
0.0936562
0.0977481
0.108673
0.143719
0.376927
2.48274
2.42277
2.36662
2.3157
2.2666
2.22581
2.16195
2.09107
2.06011
2.08487
2.17436
2.33078
2.5456
2.7971
3.05227
3.24306
3.22016
2.92118
2.43994
1.9041
1.41296
1.01561
0.720677
0.514074
0.374117
0.280559
0.217942
0.175639
0.146728
0.126798
0.113048
0.103691
0.0975816
0.094017
0.0926511
0.0935713
0.0977241
0.108767
0.144216
0.380801
2.68463
2.59987
2.51126
2.42562
2.34699
2.28511
2.20229
2.11407
2.07205
2.08791
2.16855
2.31307
2.50946
2.73361
2.95178
3.09445
3.03498
2.74019
2.28977
1.79299
1.33748
0.967665
0.69171
0.497068
0.364181
0.27465
0.2143
0.173287
0.145127
0.125652
0.112191
0.103027
0.097055
0.0935938
0.0923111
0.0933046
0.0975355
0.1087
0.144513
0.38399
2.93388
2.81493
2.68211
2.55087
2.43415
2.34094
2.23306
2.12853
2.07755
2.08689
2.16054
2.29399
2.47168
2.66758
2.84708
2.94006
2.84637
2.55417
2.13098
1.67154
1.25222
0.911687
0.656682
0.475709
0.351197
0.266622
0.209174
0.169875
0.142753
0.123927
0.110888
0.102011
0.0962427
0.0929325
0.0917671
0.0928585
0.0971836
0.108473
0.14461
0.386474
3.24155
3.07285
2.87878
2.68917
2.5241
2.38374
2.24399
2.13142
2.07501
2.08011
2.14798
2.27028
2.42819
2.59451
2.73348
2.7783
2.65596
2.36583
1.96764
1.54422
1.16102
0.850509
0.61745
0.451129
0.335826
0.256852
0.202779
0.165531
0.139683
0.121671
0.109172
0.100665
0.0951613
0.0920455
0.0910289
0.0922406
0.0966744
0.108092
0.144509
0.388241
3.61642
3.37368
3.09533
2.83156
2.60397
2.40942
2.24347
2.12528
2.0652
2.06723
2.12936
2.23937
2.37587
2.51128
2.60892
2.6108
2.46545
2.17791
1.80371
1.41517
1.06744
0.786739
0.575761
0.424425
0.318733
0.24574
0.195357
0.160404
0.13601
0.118948
0.107087
0.099023
0.0938357
0.0909528
0.0901126
0.0914641
0.0960189
0.107565
0.144216
0.389294
)
;

boundaryField
{
    leftWall
    {
        type            epsilonWallFunction;
        value           nonuniform 0();
    }
    rightWall
    {
        type            epsilonWallFunction;
        value           nonuniform List<scalar> 
43
(
0.0291915
0.0224462
0.0965577
0.0227769
0.0228029
0.111133
0.125649
0.138961
0.151161
0.162394
0.172899
0.182798
0.192165
0.201093
0.209665
0.217957
0.226036
0.233962
0.241785
0.249548
0.257285
0.265025
0.272783
0.280569
0.288383
0.296215
0.304045
0.311846
0.31958
0.327203
0.33466
0.341893
0.348838
0.355427
0.361594
0.367273
0.372403
0.376927
0.380801
0.38399
0.386474
0.388241
0.389294
)
;
    }
    lowerWall
    {
        type            epsilonWallFunction;
        value           nonuniform List<scalar> 
66
(
0.889969
0.722473
0.722473
1.1893
1.96215
2.95546
3.97977
5.20205
6.37237
7.73668
9.47911
11.8898
12.7925
7.33423
10.2687
8.17312
0.0498512
0.122206
0.206884
0.310827
0.438736
0.605702
0.836376
1.16918
1.66929
2.52303
0.0498512
0.0801486
0.367899
0.0856768
0.373416
0.366221
0.40202
0.431029
0.454962
0.472666
0.481255
0.481979
0.476017
0.464518
0.44865
0.429611
0.408746
0.388534
0.378849
0.38418
0.373613
0.365535
0.372836
0.0857921
0.0858458
0.0862952
0.0864708
0.367365
0.367277
0.0853033
0.0852744
0.0850842
0.0851781
0.0850967
0.0856311
0.0844979
0.0783693
0.0670329
0.0509515
0.0291915
)
;
    }
    atmosphere
    {
        type            inletOutlet;
        inletValue      nonuniform 0();
        value           nonuniform 0();
    }
    defaultFaces
    {
        type            empty;
    }
    procBoundary1to0
    {
        type            processor;
        value           nonuniform List<scalar> 
44
(
1.02146
1.09521
1.26414
1.3781
1.48519
1.59911
1.72299
1.85953
2.00478
2.13492
2.16969
2.09575
1.96083
1.81323
1.6759
1.55745
1.46087
1.38667
1.33422
1.30233
1.38257
1.38257
1.36876
1.37248
1.39259
1.43121
1.487
1.52264
1.53252
1.53806
1.54263
1.55559
1.58626
1.63933
1.71476
1.8091
1.91666
2.0298
2.1412
2.24656
2.34449
2.43575
2.52185
2.60268
)
;
    }
    procBoundary1to3
    {
        type            processor;
        value           nonuniform List<scalar> 
45
(
3.12657
3.5787
3.95905
4.19501
4.23816
4.06461
3.71577
3.32697
2.97855
2.68073
2.43453
2.24511
2.11684
2.05148
2.04952
2.10428
2.19983
2.31321
2.41703
2.4754
2.44122
2.27715
1.99356
1.6429
1.288
0.974456
0.722579
0.533115
0.396573
0.300538
0.233676
0.187154
0.154652
0.131843
0.115831
0.104687
0.0971252
0.0922988
0.0896811
0.089041
0.0905488
0.0952338
0.106905
0.143741
0.389634
)
;
    }
}


// ************************************************************************* //
