/*--------------------------------*- C++ -*----------------------------------*\
  =========                 |
  \\      /  F ield         | OpenFOAM: The Open Source CFD Toolbox
   \\    /   O peration     | Website:  https://openfoam.org
    \\  /    A nd           | Version:  7
     \\/     M anipulation  |
\*---------------------------------------------------------------------------*/
FoamFile
{
    version     2.0;
    format      ascii;
    class       volScalarField;
    location    "0.002";
    object      overallT;
}
// * * * * * * * * * * * * * * * * * * * * * * * * * * * * * * * * * * * * * //

dimensions      [1 2 -2 0 0 0 0];

internalField   nonuniform List<scalar> 
1000
(
258.284
241.009
263.403
276.181
285.584
259.892
244.28
262.438
255.352
232.042
241.34
255.492
246.879
262.761
279.729
251.229
263.162
234.314
227.943
255.734
262.445
269.201
266.019
253.574
264.908
243.646
243.484
269.472
306.622
314.46
302.803
278.605
296.581
269.444
274.355
279.269
269.343
269.276
264.766
264.683
286.619
273.45
247.476
245.66
241.99
273.816
279.206
281.167
254.666
276.694
272.972
281.284
319.389
309.726
285.146
275.956
267.812
274.361
298.712
268.517
275.75
276.971
287.505
252.317
279.591
290.027
271.105
287.257
308.508
304.765
287.572
286.831
316.496
285.149
303.579
315.608
312.844
316.002
343.216
315.209
341.06
313.654
314.693
271.17
280.393
272.669
325.953
303.018
288.962
320.977
328.282
294.764
283.648
302.227
301.176
281.757
300.439
334.968
347.928
352.593
354.062
345.844
310.76
316.298
324.733
344.512
299.494
408.537
366.207
357.93
347.941
341.344
331.123
303.079
292.589
298.948
324.591
367.114
353.835
331.001
326.333
303.777
327.595
353.366
324.457
290.391
298.271
313.595
310.697
326.79
329.862
332.539
317.179
345.881
328.58
309.173
338.023
339.684
360.947
307.758
329.212
369.554
387.221
366.911
319.542
325.068
301.359
307.456
295.044
288.511
290.979
312.33
304.705
305.938
328.205
334.713
304.09
298.737
288.523
266.557
284.176
280.626
274.636
293.138
315.783
261.944
290.376
291.097
279.639
264.377
250.78
256.492
264.145
223.899
253.853
259.985
255.276
264.055
248.873
253.955
229.967
203.655
237.928
253.881
255.38
233.368
229.243
240.135
244.254
266.553
248.244
249.829
261.154
269.436
281.367
297.653
269.842
264.304
253.702
247.058
284.977
302.047
281.088
299.947
317.272
336.288
271.605
249.961
298.997
278.185
310.833
315.228
315.939
293.871
282.922
277.773
244.265
249.222
277.533
280.858
275.874
284.042
324.928
311.516
302.577
302.197
306.067
328.84
361.41
344.549
339.282
320.088
320.022
331.164
345.029
288.281
337.074
353.8
359.203
357.98
339.759
327.301
326.008
319.621
352.37
317.123
336.471
338.231
300.014
320.399
297.74
289.676
248.891
245.63
249.443
242.137
287.952
293.888
275.529
287.57
292.652
324.514
342.694
295.351
280.332
282.361
285.038
300.879
290.17
288.81
298.364
314.604
294.08
300.723
313.167
308.045
328.008
315.529
287.589
290.773
296.627
288.732
302.035
314.364
301.055
283.872
291.706
325.705
340.267
308.863
321.733
340.634
309.007
292.476
315.162
295.563
309.023
278.152
324.43
319.56
293.418
320.372
319.356
322.063
319.632
322.063
307.793
293.546
307.573
322.396
315.128
331.909
326.247
295.25
306.968
297.133
305.603
323.043
399.906
360.015
343.912
320.382
292.909
295.367
307.038
294.064
282.676
269.713
256.229
220.05
224.678
250.487
268.914
257.844
275.356
275.084
279.763
292.436
274.691
289.776
295.61
308.406
301.86
295.246
263.489
254.263
287.393
303.419
302.835
294.186
309.702
310.474
313.11
316.447
329.291
336.04
332.518
337
347.559
342.103
339.858
285.836
312.702
323.92
334.976
323.712
312.934
277.739
275.747
299.941
314.5
313.661
293.485
289.172
285.475
297.161
290.368
292.111
292.105
284.489
302.356
283.569
308.18
307.405
296.368
291.837
302.322
336.376
349.507
358.592
333.309
323.014
307.139
321.838
310.239
322.735
313.118
316.661
295.951
275.146
282.459
277.491
273.155
272.407
287.387
288.89
295.277
319.78
312.681
296.171
255.902
295.573
315.625
297.495
295.836
306.478
320.022
297.629
288.774
289.445
316.489
334.034
290.573
304.578
281.382
305.763
333.074
320.685
293.626
300.721
313.708
289.934
318.79
308.564
326.145
311.164
297.029
263.499
272.184
283.332
298.251
293.883
306.782
305.677
266.556
288.26
308.336
282.66
317.713
321.042
317.346
318.488
315.595
304.427
309.102
289.542
269.447
292.379
305.13
304.51
325.927
304.536
282.138
293.57
333.201
306.539
341.655
322.393
299.247
312.573
316.005
315.561
351.019
325.599
279.313
294.166
285.2
284.699
274.21
251.179
277.098
282.443
313.639
328.101
303.691
326.629
330.055
309.149
245.284
308.952
309.315
325.273
319.597
310.458
295.026
291.251
291.051
302.617
294.614
288.839
312.376
316.655
291.021
312.842
314.259
324.54
317.164
300.537
293.012
312.495
335.181
329.211
304.558
306.247
300.752
330.126
323.743
280.816
299.122
300.429
298.497
283.883
282.511
296.095
311.103
331.823
309.325
277.812
270.205
264.093
252.298
276.904
277.257
288.053
290.004
294.294
314.24
330.342
350.687
335.565
318.596
312.942
321.103
335.517
332.408
336.689
303.135
280.048
286.661
289.119
252.182
258.698
286.554
288.235
313.716
313.017
301.398
283.498
285.317
280.942
278.372
284.698
281.732
253.858
279.286
292.189
278.369
310.235
285.774
270.059
261.277
301.229
319.8
333.476
331.761
306.839
305.534
271.279
270.622
275.571
247.929
261.263
261.422
262.725
273.916
252.644
253.626
238.508
260.272
279.357
250.983
254.086
260.113
266.364
291.905
276.346
277.119
286.126
310.455
329.607
365.263
313.552
312.799
325.623
315.073
368.724
345.276
335.961
310.792
329.589
327.083
306.249
296.694
295.719
263.773
286.828
280.292
274.011
261.228
276.719
293.913
298.634
311.251
310.317
304.688
314.948
326.748
327.474
320.273
313.233
303.76
278.843
277.412
273.748
270.658
295.45
300.408
306.555
340.431
309.69
288.885
281.349
269.402
321.425
322.302
304.033
297.224
295.155
277.293
272.101
269.234
254.587
248.356
281.728
291.371
294.28
303.991
292.856
329.362
315.282
315.184
301.521
323.661
374.279
341.539
358.468
338.993
327.052
354.708
376.703
343.045
341.204
353.335
315.618
305.934
286.613
288.726
269.215
269.239
270.664
299.432
282.4
273.391
237.671
252.395
260.92
298.179
305.142
294.944
286.757
264.945
273.826
270.985
278.126
300.757
314.814
296.422
284.734
294.955
282.651
277.528
294.883
268.767
286.937
263.351
267.453
293.944
342.953
345.161
329.85
321.287
264.333
257.166
233.797
228.475
253.909
252.143
288.809
302.12
269.49
286.109
286.452
311.9
298.706
301.916
320.685
319.438
336.385
291.483
268.497
286.864
310.089
322.425
295.778
287.213
282.329
288.661
264.305
278.444
278.703
288.878
303.667
301.147
300.92
295.498
284.209
293.834
297.751
283.888
300.595
308.933
313.686
318.137
299.001
277.726
288.364
286.774
272.617
275.628
272.494
253.613
302.142
273.372
271.995
288.263
294.949
290.104
291.441
273.17
279.555
267.516
267.932
292.634
339.094
356.215
338.785
324.609
330.726
332.585
331.509
323.48
346.693
327.868
314.347
318.86
314.467
347.659
352.847
304.634
291.386
299.732
303.137
309.395
306.209
300.179
326.926
303.26
279.243
286.462
315.245
305.235
324.116
332.96
326.259
327.008
327.668
332.975
338.737
373.494
357.444
384.463
361.108
328.971
315.491
335.567
300.976
290.842
265.343
315.34
313.447
297.241
308.459
310.754
342.775
281.368
296.726
296.362
282.333
317.279
320.516
347.069
321.249
352.895
347.764
331.883
329.396
289.411
310.115
312.926
321.484
299.036
299.757
302.008
329.96
325.939
338.345
336.526
315.317
305.878
320.723
328.288
329.979
340.234
345.169
304.645
315.942
320.429
333.793
314.363
314.967
272.612
255.439
281.273
293.527
323.823
285.014
293.884
293.988
308.395
327.223
308.089
301.712
293.217
257.901
255.446
254.098
294.007
318.296
296.709
268.401
296.609
305.238
253.736
273.661
253
261.648
283.749
271.044
285.46
286.508
291.198
289.131
293.353
294.57
301.076
324.553
349.093
333.948
327.299
319.866
316.423
288.924
294.16
335.713
326.664
328.22
298.872
315.69
305.572
298.786
270.845
296.046
310.39
275.955
299.878
323.966
331.807
344.87
364.601
342.707
304.773
299.145
282.356
299.903
303.101
298.857
315.603
290.312
280.92
299.7
255.917
255.713
237.503
259.775
287.798
267.501
269.428
259.604
249.167
239.255
238.988
258.415
240.783
246.429
251.321
225.954
262.334
260.082
260.375
275.897
302.669
281.466
245.509
259.747
282.163
250.552
306.199
261.8
266.867
228.171
228.039
232.576
246.281
240.426
242.756
251.776
272.958
268.399
238.62
236.843
211.531
215.426
216.761
215.787
228.362
250.487
249.746
270.639
236.966
223.291
275.671
240.252
225.766
223.2
281.904
249.006
279.663
260.078
222.819
220.62
221.348
234.631
216.708
240.879
230.218
226.963
206.655
231.973
239.02
238.044
)
;

boundaryField
{
    sides
    {
        type            calculated;
        value           nonuniform List<scalar> 2(238.044 258.284);
    }
    empty
    {
        type            empty;
    }
}


// ************************************************************************* //
