/*--------------------------------*- C++ -*----------------------------------*\
  =========                 |
  \\      /  F ield         | OpenFOAM: The Open Source CFD Toolbox
   \\    /   O peration     | Website:  https://openfoam.org
    \\  /    A nd           | Version:  7
     \\/     M anipulation  |
\*---------------------------------------------------------------------------*/
FoamFile
{
    version     2.0;
    format      ascii;
    class       volScalarField;
    location    "0.005";
    object      linearKEMean;
}
// * * * * * * * * * * * * * * * * * * * * * * * * * * * * * * * * * * * * * //

dimensions      [1 -1 -2 0 0 0 0];

internalField   nonuniform List<scalar> 
1000
(
0.187698
0.186979
0.194623
0.244337
0.222077
0.220811
0.21161
0.221523
0.221312
0.207651
0.221491
0.217876
0.220254
0.216858
0.24385
0.235155
0.252555
0.252889
0.222788
0.25842
0.244944
0.243084
0.234856
0.239361
0.235582
0.2404
0.277382
0.290806
0.295326
0.270856
0.287788
0.27958
0.303107
0.293409
0.300576
0.303326
0.311119
0.334228
0.299266
0.307029
0.268169
0.296954
0.296285
0.300357
0.286482
0.29462
0.311688
0.315179
0.280492
0.307214
0.302177
0.299867
0.322502
0.296512
0.29178
0.307293
0.300764
0.310207
0.312615
0.333537
0.338284
0.365626
0.336431
0.353394
0.332851
0.338944
0.335339
0.409073
0.327557
0.326265
0.364586
0.350269
0.357576
0.383281
0.395598
0.387786
0.389233
0.359673
0.392416
0.416523
0.38205
0.3603
0.374943
0.345194
0.36145
0.352026
0.334471
0.375
0.431888
0.372695
0.40122
0.410334
0.414279
0.364478
0.40205
0.358401
0.34869
0.412194
0.421122
0.395466
0.429121
0.432531
0.415568
0.421704
0.374958
0.386428
0.385717
0.420852
0.387257
0.375391
0.401989
0.403007
0.384966
0.396816
0.405905
0.405432
0.406783
0.395791
0.389659
0.392098
0.396877
0.392463
0.389826
0.40517
0.400358
0.420828
0.423152
0.351543
0.369957
0.406028
0.42332
0.395762
0.383581
0.381659
0.401242
0.436923
0.40092
0.419548
0.415098
0.385879
0.387224
0.411029
0.37366
0.364855
0.354939
0.34737
0.348091
0.369783
0.384832
0.377565
0.369274
0.402464
0.484145
0.407364
0.40283
0.420362
0.384661
0.394705
0.365424
0.418088
0.349141
0.376386
0.403539
0.420935
0.39717
0.386439
0.404811
0.402444
0.40848
0.426809
0.420615
0.442549
0.481717
0.465868
0.494644
0.487023
0.468668
0.43967
0.439878
0.460103
0.420593
0.385334
0.398287
0.42028
0.439629
0.430772
0.468149
0.434728
0.404574
0.432683
0.453579
0.486819
0.493419
0.460495
0.426701
0.409491
0.422476
0.430705
0.458285
0.474394
0.473865
0.458373
0.486366
0.463519
0.48591
0.489493
0.486085
0.429458
0.437305
0.45171
0.448035
0.511862
0.513018
0.463205
0.447734
0.471052
0.467614
0.497096
0.544482
0.496573
0.462658
0.437889
0.488331
0.398408
0.450968
0.480471
0.510313
0.499053
0.49454
0.474882
0.439855
0.4562
0.454234
0.493094
0.477983
0.479962
0.503839
0.458141
0.453896
0.480124
0.448357
0.515172
0.488151
0.476746
0.471636
0.501075
0.535706
0.542882
0.477544
0.503129
0.505734
0.507914
0.47383
0.458212
0.469059
0.469826
0.46956
0.517494
0.482796
0.477128
0.521547
0.51814
0.487001
0.498052
0.510012
0.530254
0.520422
0.576266
0.509017
0.486172
0.498399
0.545038
0.505474
0.522091
0.547219
0.527239
0.610968
0.629054
0.545406
0.532626
0.509025
0.50654
0.499119
0.478634
0.518322
0.496288
0.504199
0.507932
0.505636
0.487334
0.489063
0.449208
0.486577
0.457394
0.492846
0.468484
0.481271
0.47003
0.488269
0.496492
0.511479
0.508901
0.511891
0.501689
0.465032
0.504923
0.477166
0.505757
0.459256
0.566694
0.552438
0.499685
0.497036
0.461082
0.498416
0.465468
0.478488
0.556208
0.589865
0.58224
0.52469
0.505608
0.478718
0.52946
0.51497
0.568703
0.50126
0.501278
0.520148
0.500754
0.54438
0.511749
0.460083
0.470214
0.494153
0.457748
0.484591
0.537428
0.521533
0.487613
0.490276
0.52718
0.506572
0.461645
0.472043
0.449658
0.466556
0.49349
0.53086
0.518319
0.493999
0.497962
0.470553
0.465202
0.484344
0.445323
0.423437
0.463172
0.465656
0.457112
0.469779
0.492952
0.475407
0.461826
0.449215
0.49453
0.439552
0.444545
0.466255
0.4671
0.445592
0.476351
0.561249
0.575363
0.546141
0.489735
0.492196
0.501702
0.504204
0.49347
0.50941
0.521361
0.473149
0.457502
0.433505
0.467258
0.438098
0.459051
0.485924
0.486046
0.528207
0.458624
0.499235
0.525725
0.461713
0.449157
0.448281
0.4935
0.484937
0.479647
0.458845
0.437787
0.462417
0.483745
0.471577
0.444544
0.453507
0.485339
0.458295
0.465406
0.454453
0.477251
0.485383
0.476393
0.43303
0.472258
0.470445
0.506405
0.493177
0.493975
0.513701
0.505411
0.471735
0.418542
0.404489
0.449788
0.458267
0.50468
0.501401
0.503087
0.47767
0.464715
0.507531
0.534983
0.545075
0.47419
0.432124
0.452506
0.47754
0.454899
0.459313
0.472247
0.455279
0.42002
0.428962
0.456599
0.470244
0.469177
0.516188
0.505975
0.484887
0.473437
0.475711
0.482022
0.449562
0.440762
0.46095
0.429803
0.426758
0.415016
0.436339
0.445986
0.487794
0.461743
0.485381
0.445717
0.369309
0.413412
0.468328
0.431734
0.45938
0.446705
0.471887
0.497904
0.456048
0.453173
0.4607
0.464989
0.457269
0.480773
0.482938
0.50001
0.504841
0.474516
0.460913
0.487826
0.423802
0.446603
0.477223
0.479418
0.455694
0.460669
0.492616
0.482483
0.454615
0.468287
0.496061
0.535354
0.50428
0.48528
0.466424
0.519374
0.493081
0.439549
0.467649
0.485451
0.489565
0.459382
0.46726
0.472601
0.476903
0.473578
0.444124
0.453967
0.503908
0.48056
0.477318
0.493228
0.478357
0.460696
0.458472
0.492868
0.485159
0.518865
0.480073
0.488149
0.484196
0.450523
0.455462
0.500419
0.448785
0.473029
0.449245
0.448876
0.487901
0.496394
0.474654
0.425038
0.432831
0.45913
0.464141
0.451678
0.475004
0.520349
0.517451
0.461633
0.497363
0.48179
0.462537
0.494708
0.439156
0.471934
0.465367
0.436439
0.463022
0.430191
0.489136
0.488415
0.444702
0.441742
0.450112
0.477792
0.467668
0.452595
0.431878
0.436897
0.442338
0.452326
0.484689
0.469908
0.43957
0.472334
0.498438
0.455714
0.423406
0.476855
0.462391
0.489832
0.50456
0.473643
0.466584
0.473545
0.479785
0.463629
0.482458
0.471238
0.47857
0.447762
0.488225
0.488071
0.46418
0.453922
0.505025
0.492051
0.489552
0.504772
0.540686
0.512675
0.520049
0.465762
0.465788
0.46219
0.46258
0.470189
0.457061
0.458678
0.492829
0.49274
0.461752
0.499814
0.512972
0.480479
0.491436
0.502202
0.465738
0.473936
0.492749
0.484038
0.501757
0.478429
0.488053
0.481827
0.461877
0.438675
0.494292
0.47952
0.53168
0.496747
0.495286
0.458421
0.437709
0.493198
0.47624
0.440356
0.46356
0.517392
0.472011
0.503944
0.499052
0.50476
0.56399
0.530609
0.503858
0.537066
0.487193
0.510723
0.506798
0.490433
0.427951
0.474278
0.454323
0.479989
0.492968
0.479594
0.449952
0.476887
0.555515
0.494031
0.478272
0.506422
0.536347
0.511782
0.497407
0.493499
0.52884
0.548867
0.551605
0.526177
0.525924
0.518589
0.528431
0.53537
0.526298
0.502668
0.534998
0.523013
0.516361
0.52064
0.486058
0.502445
0.478935
0.502392
0.478289
0.467007
0.466156
0.512458
0.496375
0.531342
0.537409
0.514042
0.503299
0.535947
0.530792
0.530201
0.480133
0.503831
0.555916
0.528027
0.498111
0.514822
0.541686
0.528426
0.498791
0.456772
0.505229
0.480066
0.533651
0.541656
0.531347
0.488248
0.551825
0.520288
0.516076
0.556229
0.534645
0.502579
0.492657
0.493147
0.528567
0.493934
0.51122
0.561671
0.519499
0.558677
0.52443
0.528481
0.549031
0.494091
0.506792
0.51817
0.491025
0.485688
0.521314
0.449462
0.518938
0.513407
0.515096
0.560502
0.526623
0.526447
0.511775
0.49603
0.485542
0.483509
0.472599
0.520282
0.48619
0.519327
0.465866
0.497312
0.516805
0.559975
0.526636
0.498027
0.506977
0.562706
0.571643
0.570596
0.499208
0.514107
0.503728
0.526211
0.531189
0.541031
0.526449
0.565773
0.484406
0.5113
0.520677
0.518465
0.557722
0.467146
0.512059
0.488612
0.465858
0.497908
0.492025
0.465989
0.462785
0.473379
0.541765
0.539463
0.526492
0.522288
0.527899
0.507392
0.545806
0.541739
0.529043
0.509632
0.488622
0.47577
0.50255
0.5371
0.479653
0.512669
0.488343
0.45761
0.467566
0.510832
0.506174
0.485794
0.471257
0.43949
0.456378
0.466544
0.489226
0.464765
0.467197
0.453548
0.469157
0.484685
0.457468
0.506079
0.538456
0.517272
0.54331
0.544059
0.502949
0.509773
0.545804
0.530195
0.450804
0.500072
0.483539
0.501474
0.477668
0.51305
0.504802
0.47238
0.478695
0.463278
0.426552
0.467135
0.487911
0.4765
0.502062
0.494043
0.48468
0.457654
0.48328
0.449206
0.429028
0.389127
0.38517
0.44832
0.42454
0.438617
0.444121
0.436955
0.450151
0.451988
0.439953
0.460613
0.494729
0.527619
0.452512
0.456517
0.447485
0.443726
0.449179
0.486298
0.495691
0.459568
0.452178
0.477354
0.488004
0.515362
0.504821
0.487963
0.471572
0.503139
0.473585
0.470027
0.453729
0.479536
0.416366
0.449932
0.472933
0.46413
0.45842
0.482118
0.458454
0.458926
0.457928
0.48419
0.510647
0.511
0.483609
0.494255
0.464576
0.405338
0.469491
0.461857
0.448131
0.453763
0.458281
0.430388
0.426674
0.405049
0.443754
0.404894
0.399358
0.419071
0.477567
0.420861
0.435323
0.418216
0.464189
0.409877
0.441794
0.421385
0.380077
0.378186
0.419965
0.412274
0.400504
0.425846
0.423977
0.415219
0.443616
0.417398
0.391173
0.405697
0.399325
0.371878
0.35867
0.383084
0.367511
0.372568
0.339148
0.360979
0.300506
0.324439
0.3255
0.337729
0.349815
0.368302
0.361364
0.343721
0.346194
0.340737
0.338632
0.339222
0.333611
0.349458
0.369189
0.34921
0.364567
0.374637
0.37114
0.349251
0.342841
0.377523
0.368059
0.307457
0.341569
0.373403
0.336525
0.272168
0.260038
0.283863
0.284565
0.279236
0.281955
0.298443
0.290124
0.306318
0.29893
0.285716
0.25638
0.254823
0.268176
0.278511
0.288876
0.260446
0.25114
0.243667
0.245656
0.244232
0.234402
0.237632
0.236473
0.232367
0.24115
0.230887
0.263673
0.273058
0.22259
0.212578
0.231132
0.243476
0.209468
0.217729
0.216545
0.208391
0.211096
0.220647
0.206426
0.200654
)
;

boundaryField
{
    sides
    {
        type            calculated;
        value           nonuniform List<scalar> 2(0.200654 0.187698);
    }
    empty
    {
        type            empty;
    }
}


// ************************************************************************* //
