/*--------------------------------*- C++ -*----------------------------------*\
  =========                 |
  \\      /  F ield         | OpenFOAM: The Open Source CFD Toolbox
   \\    /   O peration     | Website:  https://openfoam.org
    \\  /    A nd           | Version:  7
     \\/     M anipulation  |
\*---------------------------------------------------------------------------*/
FoamFile
{
    version     2.0;
    format      ascii;
    class       volVectorField;
    location    "0.005";
    object      momentumMean;
}
// * * * * * * * * * * * * * * * * * * * * * * * * * * * * * * * * * * * * * //

dimensions      [1 -2 -1 0 0 0 0];

internalField   nonuniform List<vector> 
1000
(
(-0.000421244 -6.53628e-05 -6.37447e-06)
(-0.000416484 -4.00009e-05 1.01536e-07)
(-0.000405587 -3.85363e-05 -5.33541e-06)
(-0.000398985 -1.96342e-05 -4.93767e-05)
(-0.000392809 -3.90038e-05 -1.96631e-05)
(-0.000392014 -3.86461e-05 1.45502e-05)
(-0.000391755 -4.91498e-05 -5.34064e-06)
(-0.000390911 -5.72194e-05 1.98913e-06)
(-0.000386839 -5.4739e-05 -4.33777e-06)
(-0.000387078 -7.77042e-06 -4.96499e-05)
(-0.000388762 -6.10812e-06 -8.92479e-06)
(-0.000382074 -2.01224e-05 -1.83639e-05)
(-0.000375702 -1.97776e-05 2.22122e-05)
(-0.000377106 -3.31032e-06 4.19428e-05)
(-0.000374737 -3.84929e-05 -8.61284e-05)
(-0.000378733 2.08153e-05 -2.6936e-07)
(-0.000378852 4.05589e-05 4.76277e-05)
(-0.000372792 -2.89296e-05 8.80691e-05)
(-0.000369456 4.50356e-05 8.34022e-05)
(-0.000362319 5.66125e-05 9.96654e-05)
(-0.000360282 3.66163e-05 2.72214e-05)
(-0.000354056 1.43683e-06 1.90479e-06)
(-0.000349222 -7.60905e-06 6.09088e-05)
(-0.000349146 5.05196e-05 0.000115532)
(-0.000348915 2.70176e-05 7.17518e-05)
(-0.000346193 5.71618e-05 8.24134e-05)
(-0.000344511 -2.14037e-06 7.30779e-05)
(-0.000339716 0.000108333 -2.15995e-05)
(-0.000333964 0.000106885 2.25783e-05)
(-0.000326611 6.86997e-06 -1.33473e-05)
(-0.000318471 7.02408e-05 -2.60891e-05)
(-0.000308844 -1.7171e-05 1.33023e-05)
(-0.000299446 3.31137e-05 8.96154e-05)
(-0.000295419 -4.70404e-06 7.72725e-06)
(-0.000291285 7.56211e-05 2.07591e-05)
(-0.000292981 2.9258e-05 7.52589e-05)
(-0.000295716 8.04522e-06 0.00014286)
(-0.000294109 -0.000228768 0.000198096)
(-0.000294014 -0.000141828 0.000149776)
(-0.000295241 -4.20724e-05 8.2383e-05)
(-0.000292815 -6.55462e-05 4.73868e-05)
(-0.000288818 -5.71421e-05 4.28392e-05)
(-0.000289022 -4.34567e-05 4.95216e-05)
(-0.000287437 -7.19339e-05 0.000172291)
(-0.000285187 -9.35631e-05 8.65254e-05)
(-0.00028241 -7.35718e-05 9.15479e-05)
(-0.000269889 1.08123e-05 -5.23938e-05)
(-0.000266195 -2.20072e-05 6.18016e-05)
(-0.000262358 -4.89913e-05 1.59185e-06)
(-0.000264877 -9.49058e-05 5.17634e-05)
(-0.000261046 -9.40297e-05 7.40159e-05)
(-0.000267948 -3.68993e-05 6.13525e-05)
(-0.00026546 -8.93504e-05 6.36062e-05)
(-0.000260354 6.17561e-05 9.83722e-05)
(-0.000250723 -7.56906e-06 6.88989e-05)
(-0.000243241 -4.97107e-06 7.27808e-05)
(-0.000237429 5.09774e-05 0.000169354)
(-0.000226253 3.94412e-05 8.04754e-05)
(-0.000228824 9.50789e-05 9.7875e-05)
(-0.000225791 6.14373e-05 0.000110961)
(-0.000218176 1.887e-05 0.000142938)
(-0.000218126 9.60679e-05 4.21457e-05)
(-0.000219176 5.76038e-05 -8.13318e-06)
(-0.000214444 6.28908e-05 5.05904e-05)
(-0.000207315 9.34436e-05 0.000130018)
(-0.00020592 0.000187064 0.000174999)
(-0.000204677 0.000228062 0.000117325)
(-0.000197477 0.000133973 0.000193543)
(-0.000193247 0.000151807 0.000131081)
(-0.000191961 0.000138499 9.29882e-05)
(-0.000195622 0.000104627 4.71237e-05)
(-0.000193153 -4.64451e-05 9.07493e-05)
(-0.000184677 -0.000137901 0.000118179)
(-0.000180857 -0.000144285 0.000178525)
(-0.000178172 -0.00010343 0.000174318)
(-0.000178476 -8.29051e-05 0.000113361)
(-0.0001811 -5.44247e-05 7.49366e-05)
(-0.000181159 -3.31118e-05 7.63057e-05)
(-0.000180818 -6.37589e-05 9.38903e-05)
(-0.000181224 -0.000135818 0.000111318)
(-0.000171898 -0.000119012 0.00012347)
(-0.000168034 -0.000110205 8.76603e-05)
(-0.000163678 3.80232e-05 9.43407e-05)
(-0.000162259 -3.6002e-05 0.000167572)
(-0.000149077 -2.66719e-05 0.00015128)
(-0.000146008 -1.8989e-05 0.000176925)
(-0.00014669 -1.35767e-05 0.000176982)
(-0.000145506 2.61245e-05 0.000230731)
(-0.000146937 0.000168254 0.000326626)
(-0.000145799 0.000129436 0.000212483)
(-0.000147418 0.0001388 0.000222729)
(-0.000144786 6.61547e-05 0.000341902)
(-0.000141037 -3.10602e-05 0.000398736)
(-0.000135439 -7.26615e-06 0.000225435)
(-0.000129452 4.70087e-05 0.000239332)
(-0.000126541 5.74448e-05 0.000194675)
(-0.000123178 3.01435e-05 0.000132523)
(-0.000116161 4.7623e-05 0.000177712)
(-0.000114581 -4.06863e-05 0.000167066)
(-0.00011029 -0.000159523 0.000158893)
(-0.000102469 -7.37281e-05 0.000155716)
(-9.71175e-05 -0.00012236 0.000171145)
(-9.58338e-05 -1.49652e-06 0.000143478)
(-9.86579e-05 -1.92128e-06 0.000138979)
(-9.40841e-05 -6.18682e-05 5.21632e-05)
(-8.56013e-05 -9.62489e-05 4.36668e-05)
(-8.16742e-05 -0.000188672 -1.97783e-06)
(-8.57637e-05 -0.000157899 1.00276e-05)
(-8.87157e-05 -0.000193158 4.25458e-05)
(-8.52312e-05 -0.000176071 0.000134593)
(-8.35842e-05 -0.000179635 0.000195353)
(-8.12389e-05 -0.000168162 0.000138119)
(-8.41654e-05 -0.000227634 8.35066e-05)
(-8.3623e-05 -0.000189991 0.000127127)
(-7.47551e-05 -0.000115934 9.17903e-05)
(-6.93887e-05 -0.000200837 0.000160108)
(-6.8548e-05 -0.000151754 0.000168412)
(-6.33199e-05 -0.000178837 6.21453e-05)
(-5.39987e-05 -7.97953e-05 3.58887e-05)
(-5.15367e-05 -0.000111833 4.35435e-05)
(-5.40744e-05 -2.88604e-05 8.10088e-06)
(-5.11148e-05 -7.83884e-05 -2.60988e-06)
(-4.58886e-05 2.41147e-05 8.46353e-05)
(-4.66212e-05 3.07534e-05 5.10159e-05)
(-5.16334e-05 -8.73492e-05 3.15103e-05)
(-5.16934e-05 3.75869e-05 0.000160716)
(-5.30379e-05 6.27478e-05 6.93383e-05)
(-5.15802e-05 -5.25216e-06 -4.44566e-05)
(-4.34955e-05 -2.16924e-05 -4.46851e-05)
(-3.73424e-05 4.15992e-05 -0.000169915)
(-3.44441e-05 -1.42207e-05 -0.000235921)
(-2.99083e-05 8.5244e-05 -0.000182997)
(-2.53141e-05 0.000146895 -0.000110861)
(-2.24419e-05 4.50494e-05 -8.759e-05)
(-1.97791e-05 2.37014e-05 -5.01965e-06)
(-2.19496e-05 -5.21912e-05 -3.48379e-05)
(-2.06072e-05 2.53367e-05 4.37669e-05)
(-2.22374e-05 3.94299e-05 6.03155e-05)
(-2.23236e-05 0.00011491 5.71254e-05)
(-1.56698e-05 0.000241493 6.26434e-05)
(-1.06204e-05 0.000181332 -1.90951e-05)
(-8.72455e-06 0.000159993 8.92492e-05)
(-5.40984e-06 7.83587e-05 1.59739e-06)
(-1.24177e-05 0.000122789 1.80192e-05)
(-1.64745e-05 0.000155105 4.9122e-05)
(-1.52573e-05 7.04479e-05 3.23809e-05)
(-1.17306e-05 0.000101374 9.01724e-05)
(-1.27249e-05 0.00010778 8.85801e-05)
(-1.95939e-05 5.88776e-06 7.09167e-05)
(-2.03394e-05 -4.98363e-05 6.7667e-05)
(-1.94677e-05 2.72945e-05 1.56617e-05)
(-2.07267e-05 -7.28843e-05 0.000155916)
(-2.65086e-05 7.00851e-05 0.000240615)
(-2.85927e-05 8.48494e-05 0.00025758)
(-3.85706e-05 1.77939e-06 7.70553e-05)
(-3.9581e-05 4.0732e-06 -1.42754e-05)
(-4.13286e-05 -4.07623e-05 6.82891e-05)
(-3.19812e-05 -2.31866e-05 9.29089e-05)
(-2.82525e-05 3.71476e-06 3.06788e-05)
(-2.39937e-05 -7.10703e-05 5.16947e-05)
(-1.46758e-05 -0.000134137 7.25283e-05)
(-1.33891e-05 -0.000285431 0.000113844)
(-1.18833e-05 -0.000274158 0.000130474)
(-8.69455e-06 -0.000113315 7.3576e-05)
(-3.86108e-06 -0.00012371 3.54855e-05)
(5.68517e-06 -9.89364e-05 -5.19482e-05)
(4.45726e-06 -0.000175605 1.45722e-05)
(3.09022e-06 -0.00023588 4.45505e-05)
(5.16098e-07 -0.00018372 1.4571e-05)
(1.18309e-06 -0.000233431 -3.98766e-05)
(-1.82832e-06 -0.000189482 5.72345e-06)
(6.99226e-06 -0.000232228 -2.14718e-05)
(1.17598e-05 -0.000190855 -0.000110081)
(1.13667e-05 -0.00024356 -0.000108735)
(1.32845e-05 -0.000321366 -3.47979e-05)
(1.19909e-05 -0.000316566 -0.000123785)
(1.75735e-05 -0.000277646 -0.000136485)
(2.70846e-05 -3.64583e-05 -0.000306026)
(2.83563e-05 -4.73381e-05 -0.000200512)
(2.72003e-05 -5.58879e-05 -0.000301405)
(3.33271e-05 -3.42196e-05 -0.000276861)
(2.92415e-05 -4.42864e-05 -0.000227473)
(3.07273e-05 -1.26998e-05 -0.000135565)
(3.25175e-05 -8.10524e-05 -7.07267e-05)
(3.34464e-05 -2.1635e-05 -0.000112722)
(3.42075e-05 -1.2416e-05 -4.73171e-05)
(3.13115e-05 -8.60974e-05 1.00554e-05)
(3.17746e-05 -0.00012356 2.72162e-05)
(3.00044e-05 -8.05522e-05 -6.69898e-06)
(2.584e-05 -4.89562e-05 6.73627e-05)
(2.96931e-05 3.30715e-06 9.2565e-05)
(3.24321e-05 -5.83684e-05 -9.77545e-05)
(3.27862e-05 -2.40948e-05 -9.31939e-05)
(3.24688e-05 0.000136272 -0.000177968)
(2.67818e-05 0.000150036 -0.000155958)
(2.89012e-05 0.000110302 -0.00011631)
(2.6907e-05 0.000125344 -0.000129845)
(2.69622e-05 2.86893e-05 -0.000255941)
(2.34651e-05 0.000157415 -0.00025425)
(1.69654e-05 -5.01061e-05 -0.000157165)
(1.81829e-05 -3.14072e-05 -0.000325054)
(1.81629e-05 1.79261e-05 -0.000389325)
(1.72248e-05 7.43344e-05 -0.000242916)
(2.16824e-05 2.3664e-05 -0.000226292)
(2.23725e-05 4.86587e-05 -0.000166031)
(2.32592e-05 -6.26837e-05 -6.45408e-05)
(2.83233e-05 -0.000154464 -0.000210636)
(2.69557e-05 1.14294e-05 -0.00012787)
(2.80723e-05 -8.87561e-05 -6.67623e-05)
(3.3347e-05 -5.11954e-05 -6.72556e-05)
(3.4604e-05 4.95139e-05 -2.15324e-05)
(3.32358e-05 -1.18652e-05 -0.00011081)
(3.44163e-05 5.65331e-05 -0.000256579)
(3.75101e-05 -3.3103e-05 -0.000111523)
(3.33267e-05 2.52779e-05 -0.00018221)
(3.73397e-05 0.000108224 -0.000196591)
(4.25173e-05 0.000126489 -6.86056e-05)
(4.91683e-05 0.000273483 -7.34574e-05)
(4.91954e-05 0.000184207 -0.000170437)
(4.49359e-05 7.89037e-05 -0.000124439)
(4.83384e-05 0.000107947 -0.000198534)
(5.38934e-05 7.05703e-05 -0.000127169)
(6.06012e-05 1.02238e-05 -0.000223507)
(6.28826e-05 8.40697e-05 -0.000103635)
(5.66087e-05 6.77265e-05 -0.000251235)
(5.70743e-05 8.71778e-05 -0.00018722)
(5.91281e-05 7.0058e-05 -0.000244359)
(4.60738e-05 2.68515e-05 -0.000145411)
(5.33601e-05 6.76452e-05 -0.000206317)
(5.41731e-05 9.72541e-05 -0.000126679)
(5.61197e-05 7.01183e-05 -8.75331e-05)
(5.25944e-05 0.00019595 -0.000138494)
(4.78429e-05 0.000246532 -4.12175e-05)
(4.46813e-05 0.000118526 -3.33822e-05)
(4.18023e-05 -5.81796e-05 3.33367e-05)
(4.1498e-05 2.53892e-05 1.19967e-05)
(4.30667e-05 -7.80052e-05 4.09343e-05)
(4.24894e-05 -2.85697e-05 -7.9328e-05)
(4.23989e-05 4.2316e-05 2.95299e-05)
(4.13205e-05 -3.39083e-05 -7.5786e-05)
(4.13071e-05 7.21841e-05 -0.000148416)
(4.06178e-05 0.000154084 -0.000165527)
(4.37396e-05 0.000136633 -0.000208335)
(4.17839e-05 7.10072e-05 -0.000299353)
(3.82486e-05 3.9629e-05 -0.000245599)
(4.28496e-05 0.000157169 -0.000202234)
(3.9708e-05 0.000183671 -0.000121045)
(4.30204e-05 7.3597e-05 -0.000191611)
(4.05698e-05 -6.75764e-05 -0.000163141)
(3.57317e-05 1.82684e-05 -0.000176298)
(3.86877e-05 8.23223e-05 -7.13992e-05)
(4.72775e-05 0.000142213 -7.39663e-05)
(4.881e-05 0.000159782 -9.7952e-05)
(5.40448e-05 9.87327e-05 -0.000172709)
(5.34161e-05 5.10558e-05 -0.000210105)
(5.82614e-05 -5.90758e-05 -0.000328452)
(6.4399e-05 -7.56978e-05 -0.000203902)
(5.98668e-05 -1.56527e-05 -0.000109911)
(5.2957e-05 2.06922e-05 -0.000126618)
(5.5679e-05 -8.6874e-05 -0.000204299)
(5.2836e-05 -0.000197802 -1.44735e-05)
(4.94291e-05 -0.000244825 9.30029e-07)
(4.69251e-05 -0.000153835 -1.84957e-05)
(4.58427e-05 -0.000115896 -6.05999e-05)
(4.23391e-05 -0.000110505 -5.94346e-05)
(3.6213e-05 -0.000101607 -7.19498e-05)
(2.92032e-05 -9.93167e-05 -7.94886e-05)
(3.03069e-05 -0.000158657 -0.000136768)
(2.85787e-05 -0.000200905 -7.91525e-05)
(3.31172e-05 -0.000154203 -9.20464e-05)
(3.17036e-05 -7.10588e-05 -3.70736e-05)
(2.71498e-05 -0.000157777 -3.73065e-05)
(2.86503e-05 -0.000180152 -0.00011992)
(2.1244e-05 -0.000250196 -0.000156004)
(1.85204e-05 -0.000151428 -0.000211181)
(1.44885e-05 -0.000195672 -0.000126711)
(9.73006e-06 -0.000453329 -9.48981e-05)
(8.72763e-06 -0.000543388 -8.57242e-05)
(1.11187e-05 -0.000456929 -8.7328e-05)
(1.08503e-05 -0.00036359 -0.00013487)
(1.03686e-05 -0.000340093 -8.58904e-05)
(1.24596e-05 -0.000332032 2.3168e-06)
(1.39365e-05 -0.000251501 -0.000148571)
(1.52186e-05 -0.000215789 -8.32888e-05)
(9.6071e-06 -0.000219241 -0.000143583)
(5.7201e-06 -0.000206336 -0.000101823)
(6.70194e-06 -0.000308602 -0.000149676)
(1.09546e-05 -0.000360503 -0.000120417)
(1.40763e-05 -0.000332964 -4.30926e-05)
(1.46103e-05 -0.000324316 7.39348e-05)
(2.32946e-05 -0.000270905 0.000122614)
(2.34332e-05 -0.000193216 -3.39454e-05)
(1.87123e-05 -0.000122355 -9.44647e-05)
(1.56174e-05 -5.86319e-05 -2.30115e-05)
(1.78548e-05 -7.54724e-05 4.09788e-05)
(2.15793e-05 -0.000194069 8.42514e-05)
(1.92088e-05 -0.000257091 5.65063e-05)
(3.40561e-05 -0.000295122 3.03852e-05)
(3.71614e-05 -0.000318949 -4.97965e-05)
(3.6031e-05 -0.000273958 2.16443e-05)
(3.00208e-05 -0.000240608 -7.99944e-05)
(2.8024e-05 -0.000167333 -0.000157108)
(2.25878e-05 -0.000277944 -5.41158e-05)
(2.0715e-05 -0.000266755 -0.000195702)
(1.84391e-05 -7.10741e-05 -0.00010464)
(2.69066e-05 -0.000111686 -0.000151804)
(2.69889e-05 -0.000142315 -0.000157492)
(2.06767e-05 -7.48823e-05 -0.000115622)
(1.8546e-05 -0.000139428 -9.77785e-05)
(1.97272e-05 -3.39186e-05 -0.000204878)
(1.04954e-05 -2.08448e-05 -0.000144446)
(8.10692e-06 -7.15868e-05 -0.000111865)
(6.9963e-06 -0.000118032 -8.81914e-05)
(9.01879e-06 2.67461e-05 -7.16325e-06)
(8.69166e-06 4.43947e-05 -5.40755e-05)
(1.41511e-05 4.10645e-05 -0.000137971)
(1.70083e-05 2.44249e-05 -0.000117059)
(1.01459e-05 0.000105661 -9.67272e-05)
(7.12498e-06 -9.5458e-06 -0.000147148)
(3.46395e-06 -0.00019405 -0.000293071)
(-7.60529e-06 -6.84997e-05 -0.000298669)
(-1.35143e-05 -3.08573e-05 -0.000205402)
(-1.53851e-05 -8.58366e-05 -6.79019e-05)
(-1.82267e-05 -0.000168402 -8.70192e-05)
(-1.6815e-05 -0.000281019 -0.000194214)
(-1.6933e-05 -0.00037772 -0.000220491)
(-5.36539e-06 -0.000214595 -0.000128937)
(-3.72513e-06 -0.000175516 -9.9186e-05)
(-7.77143e-06 -0.000178756 -0.000117886)
(-9.9377e-06 -6.2699e-05 -0.000125423)
(-9.35695e-06 -8.77457e-05 -0.00020161)
(-6.94369e-06 -1.86287e-05 -0.000235815)
(-3.79181e-07 -8.89059e-05 -0.000238603)
(5.84364e-06 -0.000114353 -0.000210113)
(1.09784e-05 -0.000122811 -0.000113533)
(4.4035e-06 -0.000129148 -0.000127401)
(3.53506e-06 -0.000229256 -0.000175405)
(7.62129e-07 -0.000235447 -0.00012119)
(3.67578e-06 -0.000202967 2.03215e-05)
(-4.97335e-07 -9.95636e-05 0.000152413)
(2.02944e-06 -0.000193362 4.63811e-05)
(-1.70072e-07 -0.000119935 3.51421e-05)
(2.11961e-06 -8.51245e-05 4.10088e-05)
(6.66082e-06 5.56077e-06 2.42585e-05)
(1.56977e-05 9.38227e-05 0.000109182)
(1.69546e-05 9.04163e-05 6.24594e-05)
(1.98815e-05 4.09756e-05 0.000109089)
(1.66249e-05 0.000167902 1.06388e-05)
(6.41673e-06 0.000151818 -0.000152304)
(1.18349e-05 0.00024149 -0.00013089)
(7.17573e-06 0.000116232 -0.000259038)
(-1.61333e-06 -1.56121e-05 -0.000163742)
(-3.29671e-06 9.77467e-05 -0.000111349)
(-5.31773e-06 4.05851e-05 -0.000104154)
(-2.32262e-06 0.000140195 -0.000126848)
(-6.92827e-06 0.000103072 -0.000126733)
(-6.15659e-06 0.000115673 -0.000134113)
(-1.31833e-05 3.33707e-05 -6.17621e-05)
(-4.92528e-06 1.6251e-05 -9.58144e-05)
(-2.96149e-06 3.31483e-05 -0.000134154)
(-5.27429e-06 -7.0553e-05 -0.000131693)
(-4.58873e-08 -7.12797e-05 -5.60562e-05)
(7.99374e-07 -6.17548e-05 1.052e-05)
(-1.04558e-05 -2.82279e-05 3.98749e-05)
(-8.69864e-06 -7.22813e-05 2.27287e-05)
(-9.43863e-06 -2.23145e-05 7.36628e-05)
(-8.23742e-06 -0.00012671 0.000125434)
(-4.33482e-06 -0.000148421 0.000158166)
(-4.26772e-06 -0.000142075 0.000121194)
(-6.77544e-06 -0.000164911 6.45491e-05)
(-5.66319e-06 -0.000137601 4.78128e-05)
(-1.20371e-05 -0.000193538 0.000125375)
(-2.05848e-05 -0.000101286 0.000290829)
(-1.67164e-05 -0.000128966 0.00014427)
(-1.16426e-05 -2.19065e-05 0.000181884)
(-1.1545e-05 -7.09965e-05 0.000213079)
(-1.88352e-05 -0.000156152 0.000250706)
(-2.21841e-05 -7.59443e-05 0.000200683)
(-2.17988e-05 -0.00012203 0.000155153)
(-2.0551e-05 -0.000197045 0.000346639)
(-2.7389e-05 -0.000159101 0.000408186)
(-2.54673e-05 -0.000141379 0.000330096)
(-2.28327e-05 -5.46219e-05 0.000338332)
(-2.26031e-05 9.24123e-06 0.000207605)
(-2.01024e-05 0.000123225 0.000155949)
(-1.78516e-05 0.000143702 0.000172436)
(-2.35166e-05 6.89327e-05 9.65194e-05)
(-1.89317e-05 5.52067e-05 0.000157723)
(-2.12074e-05 7.86815e-05 0.000203204)
(-1.85092e-05 3.88516e-05 0.000106349)
(-1.83443e-05 -7.55242e-05 0.000117053)
(-1.60469e-05 -9.82404e-05 0.000100392)
(-1.33626e-05 -0.000227787 0.000198649)
(-1.43414e-05 -9.80582e-05 3.63355e-05)
(-1.45513e-05 -6.16224e-05 7.26186e-06)
(-8.33212e-06 -4.47036e-05 1.12808e-05)
(-9.24446e-06 -2.52344e-05 2.01637e-07)
(-2.62057e-06 -2.26262e-05 8.95031e-06)
(-2.28808e-06 -6.84008e-05 3.05933e-05)
(-3.88026e-06 -3.66097e-06 -7.41093e-05)
(-1.02583e-05 1.31096e-05 -8.15773e-05)
(-1.16901e-05 4.25303e-05 -4.89916e-05)
(-1.75382e-05 8.75467e-05 9.73965e-05)
(-2.25459e-05 0.000245718 5.77926e-05)
(-2.09831e-05 0.000192004 0.000135102)
(-2.2404e-05 0.000170076 4.53431e-05)
(-2.42711e-05 0.000233264 8.84225e-06)
(-2.25448e-05 0.000221332 6.97318e-05)
(-2.08382e-05 0.000174869 5.19496e-05)
(-2.23939e-05 8.75989e-05 7.75483e-05)
(-2.60146e-05 3.69807e-05 5.8587e-05)
(-2.69553e-05 0.000138935 6.43263e-05)
(-3.0319e-05 8.69753e-05 9.52476e-05)
(-3.58758e-05 0.000140019 0.000208089)
(-3.74031e-05 0.000144058 0.000212785)
(-4.27258e-05 0.000176116 0.000190393)
(-3.42806e-05 9.08524e-05 0.000171602)
(-3.45617e-05 0.000185452 0.000106357)
(-3.15777e-05 0.000104765 6.64952e-05)
(-3.6705e-05 7.0427e-05 0.000261971)
(-3.35543e-05 3.68263e-05 0.00023163)
(-2.70144e-05 0.00014019 7.79438e-05)
(-3.27151e-05 0.000242824 0.000117667)
(-3.31658e-05 0.000149369 -1.91709e-05)
(-3.14721e-05 0.000185624 -8.42612e-05)
(-3.02622e-05 8.12696e-05 -0.000124773)
(-3.02406e-05 9.17998e-05 0.000122919)
(-2.84461e-05 2.02736e-05 0.000222143)
(-2.75668e-05 0.000100117 0.000236808)
(-1.95739e-05 0.000127041 0.000164721)
(-1.86544e-05 0.000277324 8.49694e-05)
(-8.99137e-06 0.000166858 -8.03346e-06)
(-4.54771e-06 8.11485e-05 -5.13499e-05)
(-7.66944e-06 0.000128498 -1.89611e-06)
(-4.56286e-06 0.000185524 6.29261e-06)
(3.93853e-06 -7.40948e-05 -5.61041e-05)
(6.26955e-06 -7.81461e-05 -9.74325e-05)
(1.66221e-05 -7.20846e-05 6.91682e-06)
(1.874e-05 8.93141e-06 2.06745e-05)
(1.77275e-05 2.5921e-05 6.12877e-06)
(1.321e-05 6.08533e-05 5.17836e-05)
(1.68761e-05 -3.67367e-06 6.23947e-05)
(6.15906e-06 0.000102451 -1.02363e-05)
(5.14726e-06 3.62091e-06 2.7835e-05)
(-2.73354e-06 -2.49299e-05 7.66505e-05)
(-9.20267e-06 6.42449e-05 0.000313636)
(-1.03019e-05 0.000113496 0.000281325)
(-5.55231e-06 7.66631e-05 0.00033699)
(-7.63548e-06 0.000161538 0.00047761)
(-1.20419e-05 6.11444e-05 0.000373442)
(-1.30356e-05 -5.12662e-05 0.000359505)
(-7.23414e-06 -8.86417e-05 0.000334692)
(-4.61028e-06 -9.54681e-05 0.000266368)
(-3.64734e-06 -6.75763e-05 0.000138003)
(-3.77599e-06 -5.64739e-05 0.000133794)
(-1.31588e-06 2.92296e-05 0.000141472)
(-6.71734e-06 0.000124767 0.000181149)
(-9.43836e-06 3.84175e-05 0.000258391)
(-1.35375e-05 3.98542e-05 0.000194885)
(-1.53838e-05 -9.93564e-06 0.000114424)
(-1.95666e-05 -5.28342e-05 4.80138e-05)
(-2.50132e-05 -4.58705e-05 0.000164507)
(-2.68789e-05 -0.000118259 0.000112133)
(-2.56213e-05 -5.79584e-05 0.000112653)
(-1.9539e-05 -0.000166964 1.91773e-05)
(-1.68256e-05 -0.0001919 -1.064e-07)
(-1.85599e-05 -0.000178675 -1.01398e-05)
(-1.28132e-05 -0.000140094 7.35022e-06)
(-4.39111e-06 -0.000167292 -5.37942e-06)
(-4.64679e-06 -0.000203778 5.80839e-05)
(-5.75176e-06 -0.000292492 -2.39071e-05)
(-6.16293e-06 -0.000224867 3.03601e-05)
(-1.47458e-05 -0.000267142 1.92434e-05)
(-1.84061e-05 -0.000287098 0.000210565)
(-1.39674e-05 -0.000141634 9.38587e-05)
(-2.1279e-05 -0.000261478 5.01859e-05)
(-2.3595e-05 -0.000278702 0.000164181)
(-1.62667e-05 -0.000234631 0.00012352)
(-1.49895e-05 -0.000175148 0.000181414)
(-1.89995e-05 -0.000171051 0.000281403)
(-1.21358e-05 -0.000166603 0.000367384)
(-2.73469e-06 -0.000182722 0.0003814)
(-4.71896e-06 -8.85565e-05 0.000436399)
(-8.07341e-06 -0.000107735 0.000271624)
(-1.68168e-05 -9.29269e-05 0.000215184)
(-1.58315e-05 -4.82974e-05 0.000335714)
(-1.14652e-05 4.95525e-05 0.000299341)
(2.5844e-06 3.4174e-05 0.000238323)
(1.19114e-05 -2.62718e-05 0.000217359)
(1.92508e-05 6.4426e-06 0.000112515)
(1.95526e-05 -3.29933e-05 0.000219871)
(2.04915e-05 -2.98035e-06 0.000179575)
(1.42608e-05 -0.000102423 0.0003235)
(1.06913e-05 0.000149754 0.000368133)
(1.11239e-05 8.34559e-05 0.000311063)
(1.2113e-05 6.28352e-05 0.00026798)
(1.44601e-05 -4.41329e-05 0.000356753)
(1.7879e-05 4.54099e-05 0.000487828)
(1.7003e-05 -1.83159e-05 0.000520466)
(2.05754e-05 -4.06794e-06 0.000448993)
(2.78723e-05 -0.000138989 0.000299472)
(3.00155e-05 -0.000289219 0.000159088)
(2.57701e-05 -0.000219396 0.000230761)
(2.69604e-05 -0.000115013 7.96155e-05)
(2.55092e-05 -0.000136738 0.000157702)
(2.18161e-05 -9.72013e-05 0.000187439)
(2.95176e-05 1.23236e-05 0.000103036)
(4.00176e-05 9.92532e-06 6.95651e-05)
(4.1526e-05 -9.99006e-05 -1.54714e-05)
(3.35283e-05 -0.000106287 4.47804e-05)
(3.31924e-05 -7.94202e-05 0.00016322)
(3.37521e-05 -7.20392e-05 8.21759e-05)
(3.19359e-05 -1.38858e-05 2.94488e-05)
(2.34448e-05 5.61332e-05 0.000146912)
(6.86104e-06 -0.000119979 5.19093e-05)
(-3.9544e-06 -7.55728e-05 -2.07558e-06)
(-5.14441e-06 -2.90722e-05 0.000170887)
(-5.30444e-06 3.16592e-06 0.0002912)
(-4.88521e-06 -3.35911e-05 0.000243568)
(-4.39617e-06 -3.41575e-06 0.000218238)
(-1.06765e-05 4.18201e-05 0.000166449)
(-1.31724e-05 8.55034e-05 0.000194014)
(-1.13197e-05 0.000209438 2.04552e-05)
(-3.40447e-06 0.000182061 -7.18437e-05)
(-3.89423e-06 0.000103455 -4.55819e-05)
(-2.41952e-06 8.5882e-05 -3.7478e-05)
(6.99763e-07 2.0829e-05 -3.28143e-05)
(4.53411e-06 5.51817e-05 -0.000101323)
(7.52398e-06 0.000107774 -8.78842e-05)
(1.15372e-05 0.000108097 -0.000200891)
(1.34929e-05 0.000121841 -0.0001216)
(8.2996e-06 0.00015088 -5.0672e-05)
(1.08439e-05 6.06331e-05 -6.53037e-05)
(1.07775e-05 6.77944e-05 -0.000122132)
(1.37184e-05 7.02592e-05 -5.15149e-05)
(1.20465e-05 6.97493e-05 -0.000133046)
(7.03129e-06 -1.08021e-05 -9.43643e-05)
(6.92146e-06 2.73758e-05 -6.68684e-05)
(9.76177e-06 3.59564e-05 -2.63776e-05)
(9.38796e-06 2.43666e-05 -4.56019e-05)
(1.18129e-05 -7.74267e-05 -0.00014605)
(2.09663e-05 -5.98254e-05 -4.48899e-05)
(1.82711e-05 3.6155e-05 8.13392e-06)
(2.10329e-05 1.5798e-05 -7.17289e-05)
(1.73708e-05 6.72053e-05 6.68495e-06)
(2.84646e-05 0.000135769 -4.5465e-05)
(3.40288e-05 0.000120834 -0.000146432)
(2.92944e-05 0.000204643 -9.60296e-05)
(3.25764e-05 0.000137697 -3.88976e-05)
(2.93048e-05 5.91965e-05 4.13164e-05)
(2.92386e-05 0.000100618 -2.09393e-05)
(3.08109e-05 5.45773e-05 -8.46175e-05)
(2.62191e-05 1.89096e-05 -0.000134635)
(2.78778e-05 0.000152314 -2.91305e-05)
(2.87063e-05 0.000116934 -7.78579e-06)
(3.2098e-05 0.000161234 -0.000101499)
(3.3824e-05 7.47702e-05 2.14996e-06)
(3.05272e-05 6.39474e-05 -6.92028e-05)
(3.16693e-05 -4.93717e-05 -1.04284e-05)
(3.31734e-05 0.000112181 9.34587e-05)
(2.92967e-05 8.32397e-05 3.53347e-05)
(3.12152e-05 0.000154948 9.57574e-05)
(2.8302e-05 0.000171167 9.68893e-05)
(2.8533e-05 0.000303249 4.77699e-05)
(2.89259e-05 0.000103854 7.34919e-05)
(3.07305e-05 6.19458e-05 -4.71867e-05)
(2.98919e-05 0.000244228 -8.51386e-05)
(2.78649e-05 0.000235622 -2.09086e-05)
(2.58585e-05 0.000245043 -7.2574e-05)
(2.79982e-05 0.000246365 4.06107e-05)
(3.60178e-05 0.000138027 -1.81271e-05)
(3.55455e-05 0.000218969 1.01722e-05)
(3.55304e-05 3.84954e-05 -4.95589e-05)
(3.39916e-05 2.36354e-05 -2.25212e-05)
(3.63207e-05 1.01763e-05 -5.53982e-05)
(3.63583e-05 -3.97333e-05 -0.000160454)
(3.55739e-05 -0.000155371 -3.35459e-05)
(2.88211e-05 -0.000252596 -7.3102e-05)
(3.30865e-05 -0.000212189 -5.30322e-05)
(3.87915e-05 -8.42569e-05 1.68436e-05)
(4.2342e-05 -0.000203608 5.56081e-05)
(4.04976e-05 2.48416e-05 0.000144823)
(4.34e-05 0.000106334 7.6186e-05)
(4.71922e-05 0.000173745 2.43238e-05)
(4.87103e-05 0.00015291 5.63302e-05)
(4.39886e-05 5.50922e-05 3.35954e-05)
(4.37842e-05 0.000119874 -6.3405e-05)
(4.24725e-05 0.000101668 -0.000198164)
(3.78223e-05 -4.10227e-05 -0.000112525)
(3.74882e-05 -2.27367e-05 -0.000102155)
(4.54302e-05 0.000106528 -0.000102071)
(4.79824e-05 5.76434e-05 1.26611e-05)
(3.65929e-05 2.45823e-05 -4.00779e-05)
(3.69939e-05 0.000112021 -1.32852e-05)
(4.12681e-05 2.69095e-05 -5.28695e-05)
(3.55756e-05 0.000107285 -0.000155199)
(3.47567e-05 4.96347e-05 -0.000169369)
(3.52365e-05 0.000151538 -0.000207173)
(4.33185e-05 4.00673e-05 -0.000218849)
(4.901e-05 1.20069e-05 -0.000198744)
(4.99342e-05 6.03604e-05 -8.28661e-05)
(4.75754e-05 -0.000118245 -0.000165338)
(4.94734e-05 -0.000241995 -6.31143e-05)
(4.52992e-05 -0.000183653 3.56454e-06)
(4.05159e-05 -0.000103659 -3.61098e-05)
(4.27271e-05 6.93571e-06 -7.06923e-05)
(3.93242e-05 3.76572e-06 -9.52564e-05)
(4.55908e-05 -5.19218e-05 -7.4924e-05)
(5.13337e-05 -4.45159e-05 -6.10303e-05)
(5.20259e-05 -3.49453e-05 -0.00011669)
(4.71675e-05 -8.05755e-05 -0.000153503)
(3.51499e-05 -6.01867e-05 -7.24117e-05)
(3.54644e-05 -0.000218815 -9.47612e-05)
(3.44826e-05 -0.000183548 -7.17542e-05)
(4.06346e-05 -0.000114776 -3.02957e-05)
(4.22126e-05 -3.29685e-05 -3.38257e-05)
(4.66411e-05 0.000114062 -6.53136e-05)
(3.8073e-05 2.44776e-05 -5.20409e-05)
(3.45128e-05 0.000147949 -3.81115e-05)
(4.18831e-05 0.000100197 -0.000176987)
(4.11223e-05 0.000154454 -0.000283592)
(3.75128e-05 0.000158427 -0.000172645)
(3.71584e-05 0.000123553 -0.00023607)
(4.07904e-05 5.95101e-05 -0.000210189)
(4.78877e-05 -5.50363e-05 -0.000192383)
(5.67493e-05 -3.96515e-05 -0.000190411)
(5.8944e-05 -9.154e-05 -0.000192766)
(6.17638e-05 -3.65432e-05 -5.19236e-05)
(6.54762e-05 -0.000172956 -8.25821e-05)
(6.6628e-05 -9.33273e-05 -8.27474e-05)
(6.6203e-05 -5.0059e-05 -0.000135307)
(6.63855e-05 3.93755e-06 -0.000149913)
(7.23597e-05 4.22997e-05 -9.39971e-05)
(7.39762e-05 -1.56163e-05 -5.63509e-05)
(7.37846e-05 5.23706e-05 -3.71511e-05)
(7.91807e-05 0.000180454 -0.000170542)
(8.5774e-05 5.48887e-05 -0.00017198)
(9.43746e-05 5.86967e-05 -0.000410562)
(8.91801e-05 0.000101301 -0.000293107)
(8.63141e-05 0.000196761 -0.000189109)
(8.16161e-05 0.000234448 -0.000389766)
(8.00306e-05 0.000193248 -0.000436563)
(8.21272e-05 0.00018238 -0.000304966)
(7.97492e-05 0.000205369 -0.000253885)
(7.44077e-05 0.000241398 -0.000228607)
(6.82372e-05 0.000355385 -6.36722e-05)
(6.97106e-05 0.000198166 -4.84987e-05)
(6.95801e-05 0.000309494 -0.000148001)
(5.42293e-05 0.000255186 -8.81139e-05)
(4.96994e-05 0.000182845 -0.00011694)
(5.04675e-05 0.000175482 1.68876e-05)
(5.37787e-05 0.000194682 -5.6051e-05)
(5.77329e-05 0.000204066 -0.00012233)
(6.20076e-05 0.000121188 -0.000106464)
(5.88339e-05 0.000225139 -5.193e-05)
(5.8835e-05 0.000164075 -6.11839e-05)
(5.91711e-05 0.000166536 -0.000201298)
(6.28381e-05 7.10379e-05 -0.00021046)
(5.3977e-05 3.94593e-05 -0.000182132)
(4.18413e-05 0.000202441 -0.000299462)
(3.8872e-05 0.000209211 -0.000154474)
(3.89795e-05 0.00016644 -0.000169508)
(3.93296e-05 7.81955e-05 -7.16894e-05)
(3.82702e-05 0.000148956 2.5047e-05)
(3.98806e-05 4.17482e-05 -0.000102265)
(3.41684e-05 3.43469e-05 -0.000156924)
(3.0257e-05 8.99209e-05 -0.000136206)
(3.04092e-05 8.52079e-05 -0.000200888)
(2.74654e-05 7.73782e-05 -0.000242989)
(1.72261e-05 5.09747e-05 -0.000161385)
(2.02425e-05 1.78188e-05 -0.000131024)
(2.09889e-05 7.1524e-05 -0.000104773)
(2.51973e-05 -6.4073e-05 -0.000243552)
(2.45965e-05 2.87582e-05 -0.00025233)
(1.74933e-05 0.000119789 -9.8842e-05)
(1.54766e-05 8.51948e-05 4.37242e-05)
(2.02376e-05 0.000134236 4.92107e-05)
(2.00034e-05 0.000101079 5.50087e-05)
(1.31257e-05 0.000110682 2.92253e-05)
(2.08609e-05 0.000191098 2.45092e-06)
(1.71983e-05 0.000253962 -2.87939e-05)
(2.23162e-05 0.000178648 -1.623e-05)
(2.25237e-05 0.000189675 -2.67406e-05)
(2.49899e-05 0.000182169 2.2637e-05)
(2.37764e-05 7.79078e-05 0.000165229)
(3.20809e-05 5.38007e-05 5.73369e-05)
(2.64165e-05 0.000166177 1.07843e-05)
(2.33172e-05 0.000106392 1.82303e-05)
(2.45208e-05 0.000257059 3.24634e-05)
(2.96595e-05 0.000107366 7.44753e-05)
(3.09538e-05 0.000118996 0.000148296)
(3.37091e-05 0.000123726 9.57216e-05)
(3.15068e-05 0.000118659 0.000137248)
(3.21614e-05 4.64345e-05 0.00021803)
(2.56549e-05 1.1292e-05 0.000208199)
(2.76256e-05 0.000155653 0.000100267)
(2.88969e-05 -4.31982e-05 0.000196372)
(3.08409e-05 0.000159857 0.000245202)
(3.55928e-05 0.000142469 8.48343e-05)
(3.24248e-05 0.000116516 0.000159101)
(3.64806e-05 4.86781e-05 0.000186782)
(3.67053e-05 4.59251e-05 7.67675e-05)
(3.20567e-05 0.000102112 -1.34214e-05)
(2.96119e-05 7.84889e-05 0.000120698)
(3.04966e-05 1.28126e-05 0.000290882)
(3.89599e-05 7.37122e-05 0.000248865)
(4.07755e-05 0.000135632 0.000154875)
(3.95932e-05 1.6413e-05 0.000124227)
(4.09155e-05 8.28374e-05 0.000161397)
(4.90945e-05 0.000144741 4.33432e-05)
(5.15223e-05 0.000197025 5.11313e-05)
(5.41386e-05 0.000271113 0.000112067)
(5.87986e-05 0.000244353 8.2649e-05)
(6.06921e-05 0.000230103 0.000120168)
(5.60561e-05 0.000102705 0.000104143)
(5.58783e-05 8.51905e-05 5.89535e-05)
(5.81878e-05 3.81983e-05 0.000102167)
(5.61219e-05 6.51493e-05 7.39605e-05)
(6.20377e-05 4.81647e-05 3.95979e-05)
(6.21543e-05 4.0947e-05 3.73359e-05)
(5.4176e-05 7.40898e-05 7.21261e-05)
(5.59267e-05 -0.000199475 0.000197143)
(4.45791e-05 -0.000125541 0.000219871)
(4.98212e-05 -5.35699e-05 0.000275957)
(4.76069e-05 -3.49085e-05 7.82254e-05)
(4.19927e-05 -6.24941e-05 0.00015963)
(4.27181e-05 1.98219e-05 0.000206418)
(3.73984e-05 -6.70475e-05 0.000240347)
(4.41652e-05 4.03279e-05 0.000237868)
(4.50697e-05 9.00512e-05 0.000248872)
(4.82019e-05 0.000145186 0.000194579)
(4.96833e-05 0.000116498 0.000150836)
(5.02285e-05 0.000115113 0.000206251)
(5.02742e-05 -3.54311e-05 0.00010618)
(4.96664e-05 -0.000112093 0.000193167)
(4.7403e-05 -0.000128698 0.000156176)
(5.70466e-05 8.30911e-05 0.000267706)
(5.89477e-05 -7.60813e-05 0.000128705)
(6.3181e-05 -0.000131764 8.51786e-05)
(6.52496e-05 -8.45938e-05 0.000101438)
(6.47457e-05 -8.38614e-05 0.000199145)
(6.09654e-05 -2.06267e-05 0.000277051)
(6.01655e-05 2.70477e-05 0.000288932)
(5.72815e-05 1.61996e-05 0.000122264)
(5.1217e-05 0.000169465 0.000120664)
(5.00887e-05 0.00020877 0.000177367)
(4.77288e-05 0.000130546 0.000254718)
(3.07807e-05 0.000201325 0.000352096)
(3.6538e-05 9.2681e-05 0.000342554)
(3.36263e-05 -4.10875e-05 0.000273251)