/*--------------------------------*- C++ -*----------------------------------*\
  =========                 |
  \\      /  F ield         | OpenFOAM: The Open Source CFD Toolbox
   \\    /   O peration     | Website:  https://openfoam.org
    \\  /    A nd           | Version:  7
     \\/     M anipulation  |
\*---------------------------------------------------------------------------*/
FoamFile
{
    version     2.0;
    format      ascii;
    class       volScalarField;
    location    "0.005";
    object      translationalT;
}
// * * * * * * * * * * * * * * * * * * * * * * * * * * * * * * * * * * * * * //

dimensions      [1 2 -2 0 0 0 0];

internalField   nonuniform List<scalar> 
1000
(
210.445
202.037
217.158
256.159
245.104
226.437
223.121
244.524
238.6
215.778
217.01
223.222
221.915
231.253
238.104
233.87
235.297
223.837
224.222
235.895
232.138
239.641
225.367
241.077
252.297
230.937
240.12
251.677
272.42
273.259
279.484
260.717
261.767
249.363
260.283
255.208
247.3
255.114
249.788
258.572
264.307
253.467
235.453
229.786
233.641
249.744
254.557
254.137
234.857
268.15
263.975
258.473
264.13
250.449
237.017
234.99
223.098
248.228
266.83
261.836
269.756
263.584
263.826
262.51
270.162
268.764
259.998
283.47
291.798
304.004
284.146
276.039
276.889
282.961
287.066
287.993
293.304
273.282
283.052
302.981
311.127
302.477
301.019
268.943
286.798
307.692
310.587
306.708
310.399
321.807
333.14
327.28
299.041
276.211
288.249
273.522
299.738
337.163
321.75
332.253
357.995
337.107
341.928
317.473
288.304
307.203
290.647
361.72
319.372
331.493
324.008
335.819
316.61
291.19
281.02
302.578
303.736
317.897
307.901
328.489
299.019
287.061
312.249
319.378
303.842
281.239
293.36
311.332
324.757
330.202
334.351
304.551
309.684
322.811
323.929
300.453
298.496
301.528
320.941
299.499
310.639
347.622
343.224
330.149
296.406
296.51
288.137
274.57
295.365
310.115
293.852
291.258
328.155
301.362
323.089
328.651
321.707
323.367
289.279
294.053
278.397
249.9
272.177
309.384
299.903
277.365
289.388
276.856
270.673
271.923
258.053
254.336
273.456
259.781
262.367
269.613
267.549
289
261.993
257.203
241.661
222.801
255.472
261.959
263.585
240.484
245.455
260.85
242.501
272.664
276.729
256.987
257
269.946
293.735
288.828
260.728
265.029
264.172
277.362
263.489
275.304
286.893
285.841
285.666
305.866
276.554
271.361
296.409
277.581
275.368
286.728
296.337
297.097
288.052
289.365
283.07
290.849
318.96
281.257
288.048
287.438
304.012
297.601
310.997
329.465
327.007
318.812
328.225
321.762
287.474
288.386
302.645
303.44
318.827
300.1
312.403
326.693
316.282
307.257
314.051
325.949
348.529
316.851
338.607
347.09
348.397
336.005
313.74
319.535
303.712
322.02
292.556
288.86
280.143
262.173
289.917
300.998
281.905
285.422
289.26
319.685
325.212
301.664
289.618
296.92
297.394
318.741
310.57
310.749
308.971
325.489
320.235
304.336
314.542
306.533
329.235
331.152
311.593
300.645
300.735
299.431
311.686
314.325
305.563
294.201
292.671
301.341
337.314
321.344
331.45
320.405
313.081
308.466
344.604
310.571
329.082
320.69
320.516
330.11
324.62
341.349
322.727
319.616
317.539
302.739
311.417
315.297
301.8
316.494
288.838
288.396
273.308
275.239
290.337
284.896
318.51
328.588
355.168
336.043
324.978
309.872
285.518
299.092
293.553
295.623
282.784
304.343
298.308
279.626
286.087
306.87
265.093
276.65
289.835
280.42
295.8
293.272
282.173
281.262
274.697
283.282
287.619
282.237
288.411
293.502
307.876
325.472
296.552
295.18
291.286
303.601
306.278
292.598
314.927
340.011
351.349
315.805
329.09
325.203
335.063
303.667
319.923
327.973
306.589
302.474
290.257
263.51
257.913
284.44
289.461
304.579
309.422
349.214
353.338
334.698
313.378
290.404
296.381
279.644
284.107
280.427
283.03
290.286
291.623
285.004
296.129
317.114
338.738
330.591
321.391
291.246
298.338
339.202
332.904
327.455
336.889
333.1
315.813
309.988
281.604
299.541
286.049
290.82
294.203
296.505
307.34
297.314
288.203
264.653
268.608
293.178
297.483
282.143
312.906
305.055
306.873
308.282
318.774
290.598
330.405
342.484
300.079
318.357
302.687
304.519
288.434
312.135
305.535
299.816
319.064
281.432
322.368
323.332
326.018
311.94
286.927
280.968
294.044
294.881
277.306
298.683
301.863
278.854
264.946
278.083
291.138
281.242
314.341
328.77
320.816
300.248
277.147
291.904
294.05
287.926
276.523
275.832
292.225
300.243
326.072
322.98
300.524
320.614
348.586
330.408
318.787
312.469
328.191
318.377
333.402
316.047
301.153
299.12
277.041
276.182
289.81
298.497
299.785
278.458
284.979
295.33
292.298
325.336
303.62
287.225
295.789
299.579
303.766
326.74
296.969
335.094
319.245
317.381
322.715
331.553
328.292
338.009
309.333
319.919
319.194
291.028
279.559
303.03
298.807
334.353
308.34
307.406
298.124
289.195
305.327
290.128
279.25
279.371
290.54
288.727
296.977
302.274
291.409
272.288
274.803
278.134
283.868
311.146
321.411
301.615
322.491
311.979
296.874
293.542
307.656
332.874
312.939
284.06
283.445
301.251
304.977
339.045
328.321
330.277
326.905
307.62
326.733
347.758
312.631
298.523
294.972
291.228
285.116
287.813
264.025
282.7
294.679
285.125
306.04
282.252
298.692
304.99
272.948
283.458
305.766
288.292
278.264
271.311
293.773
300.674
284.934
284.991
296.432
281.721
302.68
299.487
312.438
316.627
313.285
324.708
318.721
293.957
292.036
283.781
276.532
279.257
288.084
293.799
290.06
273.888
280.906
266.204
285.239
312.902
270.432
262.566
271.299
272.535
295.762
272.614
282.329
277.771
303.657
305.203
297.892
287.661
276.731
296.423
272.607
344.038
311.325
323.897
309.2
339.682
314.904
314.47
313.248
307.749
292.062
298.012
297.388
293.658
298.286
277.662
291.532
291.177
292.648
289.427
302.344
301.285
321.781
321.939
309.803
298.656
286.663
288.33
285.292
278.304
281.529
289.439
297.46
298.253
288.688
284.392
289.116
292.384
293.682
315.858
309.6
323.562
332.584
310.336
309.077
312.936
314.224
288.678
281.822
298.636
311.242
309.058
341.62
320.122
329.131
313.06
291.816
313.3
307.262
316.994
316.678
327.896
310.14
308.474
334.3
343.119
336.708
306.281
337.705
309.481
319.662
304.586
306.978
290.356
288.33
299.86
300.758
286.559
285.474
269.858
274.532
277.777
278.877
284.276
270.294
277.698
282.291
294.441
279.828
302.077
319.658
313.103
336.165
302.387
295.604
296.036
305.783
309.411
280.035
305.41
313.212
296.24
318.548
344.233
319.111
311.067
313.044
283.173
278.763
279.5
258.508
292.321
284.265
289.965
298.973
269.339
286.893
289.175
286.127
296.554
288.358
289.988
304.469
290.933
304.151
289.682
287.291
302.575
320.11
292.701
289.304
292.896
272.493
290.072
294.696
292.504
275.625
288.46
285.295
282.008
276.347
265.816
259.358
278.884
272.732
289.665
294.152
298.439
266.737
276.856
264.955
268.145
277.374
285.589
288.771
282.031
279.633
297.832
298.959
300.763
310.307
297.184
304.614
293.662
312.328
316.277
322.317
295.219
309.796
315.959
320.004
311.95
307.008
327.382
335.638
319.661
350.724
332.082
318.483
339.153
328.016
322.09
320.866
312.297
300.823
305.722
312.147
342.407
331.378
327.802
324.7
341.955
317.941
320.938
308.914
314.208
308.6
312.689
333.079
347.968
325.387
313.243
314.183
326.107
339.924
304.958
333.397
343.403
324.157
300.787
296.225
291.169
271.375
258.471
275.49
287.039
294.479
298.391
288.099
297.742
297.36
309.398
284.532
277.314
301.078
300.235
294.369
277.343
286.653
293.403
293.484
287.153
287.859
287.696
305.777
306.733
292.089
281.646
268.044
280.5
301.465
340.843
326.978
312.387
315.36
339.814
349.523
330.978
315.893
332.597
323.234
318.824
323.067
336.219
320.388
306.004
303.907
304.205
334.739
327.057
320.926
310.87
314.537
307.651
325.397
324.662
312.072
318.502
317.541
279.951
277.336
286.289
311.609
314.008
302.106
300.449
300.547
293.524
278.426
295.525
272.626
266.599
270.065
278.79
279.979
293.81
287.419
271.645
279.214
296.197
326.762
318.669
320.982
307.639
312.668
305.599
306.771
298.132
280.154
289.946
306.675
301.911
266.63
306.217
310.488
322.114
297.469
290.967
289.953
294.787
301.391
305.346
328.977
341.175
321.891
300.375
299.538
304.426
281.838
282.416
278.027
273.042
276.08
279.836
279.318
301.587
244.489
244.961
236.545
246.262
278.255
266.945
277.955
280.622
265.664
266.209
252.884
274.844
254.405
258.603
251.482
265.305
285.166
275.381
265.316
269.747
289.184
277.524
246.836
246.475
262.982
258.156
294.506
276.155
268.185
250.557
241.253
247.23
247.455
237.309
240.393
259.345
257.345
261.399
242.381
230.97
204.471
213.124
228.248
232.295
231.877
215.239
212.826
218.733
210.111
207.366
209.306
214.336
208.491
202.874
215.749
220.2
236.355
202.847
193.659
194.482
200.948
217.307
201.322
211.644
201.551
190.052
187.793
205.689
190.42
182.593
)
;

boundaryField
{
    sides
    {
        type            calculated;
        value           nonuniform List<scalar> 2(182.593 210.445);
    }
    empty
    {
        type            empty;
    }
}


// ************************************************************************* //
