/*--------------------------------*- C++ -*----------------------------------*\
  =========                 |
  \\      /  F ield         | OpenFOAM: The Open Source CFD Toolbox
   \\    /   O peration     | Website:  https://openfoam.org
    \\  /    A nd           | Version:  7
     \\/     M anipulation  |
\*---------------------------------------------------------------------------*/
FoamFile
{
    version     2.0;
    format      ascii;
    class       volScalarField;
    location    "0.7";
    object      p_rgh;
}
// * * * * * * * * * * * * * * * * * * * * * * * * * * * * * * * * * * * * * //

dimensions      [1 -1 -2 0 0 0 0];

internalField   nonuniform List<scalar> 
2268
(
550.484
549.042
552.796
560.918
572.189
585.705
601.103
618.174
636.867
656.937
678.154
700.297
723.136
746.416
769.859
793.147
815.871
837.604
857.595
873.139
884.522
893.093
900.242
550.317
548.372
551.894
559.959
571.38
585.076
600.691
618.095
636.985
657.168
678.443
700.611
723.466
746.772
770.274
793.681
816.617
838.619
859.033
874.934
883.604
888.739
897.066
548.505
547.066
551.2
559.36
570.774
584.588
600.448
618.025
637.112
657.457
678.834
701.061
723.951
747.281
770.803
794.245
817.238
839.267
859.635
876.867
886.471
886.34
894.938
545.778
545.221
550.25
558.638
570.117
584.028
600.007
617.767
637.048
657.574
679.093
701.425
724.395
747.78
771.339
794.81
817.815
839.792
859.909
877.001
888.131
890.074
894.34
542.811
543.106
548.995
557.661
569.259
583.218
599.28
617.19
636.665
657.396
679.093
701.583
724.69
748.183
771.831
795.396
818.478
840.497
860.686
877.865
889.559
892.667
895.33
539.679
540.782
547.335
556.328
568.066
582.094
598.217
616.262
635.943
656.909
678.821
701.514
724.814
748.475
772.278
796.035
819.305
841.505
862.021
879.764
892.414
896.505
897.635
535.965
538.001
544.855
554.26
566.231
580.374
596.592
614.84
634.825
656.132
678.327
701.266
724.799
748.667
772.679
796.725
820.301
842.817
863.902
882.72
897.309
903.752
900.853
531.337
534.038
538.106
547.66
562.133
576.539
593.149
611.993
632.713
654.781
677.544
700.859
724.696
748.786
773.014
797.393
821.34
844.278
866.132
886.482
904.134
915.098
909.509
1313.03
837.557
614.304
479.929
416.483
393.257
389.051
394.753
414.089
449.458
508.894
617.754
805.727
1051.51
1265.17
1383.09
1404.45
1358.82
1310.37
1321.94
714.875
515.531
441.015
397.028
381.922
379.686
383.462
399.819
431.948
484.699
580.8
750.086
982.816
1194.42
1321.06
1360.45
1339.8
1309.14
1169.35
537.154
416
347.173
299.012
292.602
329.815
362.475
384.818
412.136
454.263
535.27
687.012
912.195
1124.28
1259.56
1313.29
1316.17
1295.61
1012.21
472.407
398.176
346.735
291.207
243.575
230.822
232.957
279.455
365.042
424.232
488.984
623.557
854.987
1074.07
1214.69
1285.55
1294.42
1270.91
957.23
498.939
400.814
335.977
278.642
241.511
232.595
230.607
227.81
227.208
286.252
416.083
569.167
808.27
1038.78
1178.98
1262.64
1294.1
1256.06
933.944
585.582
504.86
394.087
269.12
237.267
231.88
230.157
228.148
227.571
227.407
240.743
446.359
777.569
1015.18
1148.48
1230.69
1278.92
1238.39
979.687
802.582
623.068
552.884
329.795
230.151
230.302
229.436
228.017
227.425
227.238
227.955
300.333
713.714
1004.64
1122.96
1197.99
1249.62
1219.52
1122.02
838.725
584.051
506.807
337.858
225.359
228.519
228.731
227.765
227.228
227.034
228.738
268.556
658.912
1004.11
1067.73
1142.78
1224.07
1200.34
258.449
268.84
288.213
319.716
363.262
417.599
474.776
534.335
591.194
640.484
674.628
699.205
724.043
748.7
773.292
798.239
822.803
846.363
869.446
892.334
914.513
933.227
950.04
0.447185
0.457065
0.798597
2.85624
7.46745
20.9986
51.5428
98.6853
165.288
255.233
375.466
511.784
632.649
723.792
772.451
799.39
825.538
848.74
872.029
896.668
920.4
941.322
961.12
0.408967
0.404391
0.409496
0.419446
0.439706
0.457159
0.442488
0.415959
0.405613
0.444904
6.01976
34.9429
93.1447
188.395
341.539
564.865
757.598
825.281
853.95
900.432
926.889
950.425
975.149
0.379517
0.381593
0.389061
0.387937
0.376956
0.359707
0.34346
0.331644
0.328833
0.343328
0.359376
0.330169
0.249955
0.193548
0.441084
11.8266
43.5319
133.478
299.361
509.089
629.721
704.305
843.728
0.36561
0.363418
0.36745
0.368326
0.364016
0.355035
0.344234
0.334146
0.326786
0.320792
0.301127
0.27165
0.250584
0.248933
0.265987
0.270679
0.232265
0.154414
0.115368
0.174962
0.463336
27.8511
151.833
0.340139
0.340953
0.342872
0.343642
0.342007
0.337347
0.330212
0.32211
0.314296
0.305875
0.291379
0.272335
0.2577
0.25196
0.253898
0.25448
0.255851
0.260531
0.276516
0.307139
0.364991
0.468419
0.594037
0.31931
0.319673
0.320287
0.320142
0.318412
0.31473
0.309366
0.303057
0.296402
0.289184
0.279665
0.267703
0.2568
0.250407
0.24924
0.250472
0.254657
0.265459
0.288114
0.326663
0.375195
0.416538
0.492348
0.298571
0.298835
0.298932
0.29834
0.296582
0.293503
0.289287
0.284292
0.27879
0.272738
0.265654
0.257711
0.250712
0.246752
0.246709
0.249772
0.256304
0.268999
0.292565
0.331598
0.387087
0.455966
0.545112
0.278477
0.278579
0.278413
0.277658
0.276055
0.273538
0.270201
0.266218
0.261735
0.256802
0.251402
0.245921
0.24148
0.23934
0.240244
0.244283
0.252092
0.265452
0.287194
0.319986
0.364806
0.419196
0.48224
0.259246
0.259146
0.258786
0.257976
0.256553
0.254484
0.251803
0.248587
0.244934
0.240946
0.236769
0.23278
0.229708
0.22838
0.229434
0.233265
0.2405
0.252259
0.270032
0.294992
0.327108
0.363689
0.402532
0.240973
0.240644
0.24012
0.239292
0.23803
0.236295
0.234081
0.23141
0.22835
0.225016
0.221586
0.218365
0.215841
0.21459
0.21513
0.217853
0.223211
0.231844
0.244476
0.261482
0.282285
0.304207
0.324861
0.223719
0.223093
0.22244
0.221594
0.220444
0.218932
0.217016
0.214681
0.211973
0.208996
0.205905
0.202916
0.200362
0.198658
0.198197
0.199263
0.202098
0.206992
0.214191
0.22359
0.234357
0.243934
0.24993
0.207388
0.206586
0.205763
0.204857
0.203744
0.202333
0.200551
0.19836
0.195786
0.192911
0.189839
0.186705
0.183731
0.181225
0.179472
0.178631
0.178754
0.179863
0.181888
0.184425
0.186494
0.18582
0.180064
0.19198
0.191038
0.19005
0.189043
0.187881
0.186446
0.184646
0.182426
0.179802
0.176826
0.173545
0.170021
0.1664
0.162912
0.159756
0.156979
0.154482
0.152089
0.149507
0.146165
0.141063
0.132266
0.11758
0.17745
0.176399
0.17526
0.17411
0.172815
0.171241
0.169285
0.166895
0.164076
0.160852
0.157215
0.153168
0.148802
0.144289
0.139758
0.135164
0.130291
0.124833
0.118354
0.110193
0.0994219
0.0845581
0.0635918
0.163743
0.162619
0.161344
0.160015
0.158513
0.156702
0.154484
0.151814
0.148697
0.145128
0.14106
0.136449
0.131341
0.125858
0.12007
0.113861
0.106931
0.0988795
0.0892145
0.0772757
0.062224
0.0430259
0.0180271
0.150805
0.149644
0.14825
0.14672
0.144955
0.142837
0.140283
0.137264
0.133784
0.129822
0.125303
0.12015
0.114367
0.10803
0.101152
0.0935644
0.0849151
0.0747514
0.0625646
0.0477714
0.0296676
0.00753179
-0.0198838
0.138589
0.137422
0.13593
0.134194
0.132141
0.129679
0.126756
0.12336
0.119494
0.115126
0.110169
0.104526
0.0981668
0.0911164
0.0833354
0.0746082
0.0645607
0.0527402
0.0386623
0.0218229
0.00167978
-0.022247
-0.0509514
0.127056
0.125908
0.124345
0.122419
0.120083
0.117283
0.113997
0.110234
0.105995
0.101239
0.095875
0.0898014
0.0829617
0.0753297
0.0668139
0.0571691
0.0460204
0.0329519
0.0175526
-0.000604831
-0.0219589
-0.0467944
-0.0759063
0.11617
0.115062
0.113457
0.111375
0.108794
0.105697
0.102096
0.0980139
0.0934443
0.0883351
0.0825996
0.0761476
0.0689078
0.060804
0.0516931
0.0413177
0.0293309
0.0153797
-0.000853497
-0.0197016
-0.04154
-0.066576
-0.0954372
0.105901
0.104847
0.103233
0.101041
0.0982729
0.0949463
0.0911066
0.0867816
0.0819437
0.076526
0.070455
0.0636659
0.0560835
0.0475919
0.0380078
0.0270697
0.0144827
-1.8063e-05
-0.0166579
-0.0356929
-0.0574452
-0.0820919
-0.110172
0.096223
0.0952311
0.0936362
0.0913874
0.0885008
0.0850283
0.0810422
0.0765616
0.0715225
0.0658393
0.0594642
0.0523711
0.0444899
0.0356825
0.0257426
0.0144198
0.00147333
-0.0132732
-0.0299565
-0.0487796
-0.070045
-0.0939173
-0.120852
0.0871095
0.086181
0.0846319
0.08238
0.0794497
0.0759205
0.071882
0.0673276
0.0621479
0.0562411
0.049594
0.0422337
0.0340974
0.0250463
0.0148746
0.00335947
-0.00968888
-0.0243873
-0.0408178
-0.059147
-0.0796637
-0.102529
-0.128135
0.07853
0.077663
0.0761816
0.0739776
0.0710784
0.0675806
0.0635756
0.0590176
0.053752
0.0476733
0.04081
0.0332285
0.0248996
0.0156903
0.00541764
-0.00610079
-0.0190073
-0.0333879
-0.0493164
-0.0669556
-0.0865795
-0.108323
-0.132516
0.0704563
0.0696452
0.0682451
0.0661312
0.0633297
0.0599421
0.0560424
0.0515395
0.0462476
0.0400746
0.0330865
0.0253762
0.0169382
0.00766507
-0.00258722
-0.0139514
-0.0265285
-0.0403928
-0.0556398
-0.0724564
-0.0911089
-0.111697
-0.134469
0.0628692
0.0621041
0.0607869
0.0587896
0.0561355
0.0529183
0.0491752
0.0447763
0.0395311
0.0333783
0.0264062
0.0187063
0.0102777
0.00104251
-0.0090925
-0.0202035
-0.0323522
-0.0456096
-0.060099
-0.0760393
-0.0936921
-0.113124
-0.134503
0.0557621
0.0550302
0.053786
0.051913
0.0494352
0.0464233
0.0428655
0.038609
0.0334938
0.0275035
0.0207248
0.0132138
0.0049477
-0.00413398
-0.0140735
-0.024886
-0.036591
-0.0492512
-0.0630058
-0.0780876
-0.0947483
-0.113027
-0.13304
0.0491416
0.0484301
0.0472441
0.0454898
0.0431989
0.0404056
0.0370446
0.0329632
0.0280627
0.0223755
0.0159635
0.00881865
0.000873222
-0.00793329
-0.0176029
-0.0280908
-0.0393685
-0.0514771
-0.0645521
-0.0788141
-0.0944885
-0.111592
-0.13022
0.0430231
0.0423221
0.0411825
0.039537
0.0374312
0.0348554
0.0316988
0.0278304
0.0232267
0.0179552
0.0120321
0.00537336
-0.00214099
-0.0105778
-0.0199066
-0.0300302
-0.0408674
-0.0524283
-0.064829
-0.0782642
-0.0929191
-0.108791
-0.125964
0.037421
0.0367234
0.0356254
0.0340785
0.0321434
0.0297725
0.0268317
0.0232298
0.0190071
0.0142308
0.00885239
0.00271662
-0.00433337
-0.0123577
-0.0212877
-0.0309769
-0.0413014
-0.0522413
-0.0638953
-0.0764356
-0.09001
-0.104595
-0.12027
0.0323376
0.0316349
0.0305803
0.029119
0.027324
0.0251312
0.0224182
0.0191481
0.0153916
0.0111676
0.0063456
0.000714177
-0.00588997
-0.0134916
-0.0219678
-0.031124
-0.0408105
-0.0510035
-0.0618034
-0.0733729
-0.0858371
-0.099153
-0.113396
0.0277523
0.0270379
0.0260298
0.024635
0.0229367
0.0208849
0.0184083
0.0155304
0.0123097
0.00867454
0.00440407
-0.00074832
-0.00692026
-0.0140736
-0.0220193
-0.0305229
-0.0394351
-0.0487622
-0.0586353
-0.0692195
-0.0806149
-0.0927642
-0.105729
0.0236024
0.0229143
0.0219355
0.0205835
0.0189426
0.0170033
0.0147738
0.0123288
0.00967525
0.00663196
0.0028995
-0.00177751
-0.00748807
-0.0141224
-0.0214343
-0.0291726
-0.0372176
-0.0456293
-0.0545779
-0.0642231
-0.0746236
-0.0856945
-0.0974726
0.0198613
0.019194
0.018238
0.0169177
0.0153218
0.0134986
0.0115403
0.00954409
0.00743885
0.00494689
0.00172652
-0.00245659
-0.00763643
-0.0136509
-0.0202307
-0.0271418
-0.0343108
-0.0418436
-0.0499205
-0.0586621
-0.068065
-0.0780074
-0.0884995
0.0164755
0.0158409
0.0148899
0.0136067
0.0120808
0.010416
0.0087649
0.00720535
0.00558427
0.00356929
0.000826986
-0.00283183
-0.0074011
-0.012709
-0.0185088
-0.0246062
-0.0309614
-0.037683
-0.0449106
-0.0526949
-0.0609711
-0.0695987
-0.0786142
0.0134599
0.0128054
0.011857
0.0106389
0.0092377
0.00779379
0.00647719
0.00531128
0.00408405
0.00246602
0.000176333
-0.00292607
-0.00682991
-0.0114003
-0.0164407
-0.0217867
-0.0273885
-0.0333054
-0.0396098
-0.0462984
-0.0532931
-0.0604924
-0.0679881
0.010794
0.010052
0.00911628
0.00800493
0.00679068
0.00562097
0.0046374
0.0038004
0.00288408
0.00161292
-0.000226545
-0.00275332
-0.00599121
-0.00986336
-0.0142074
-0.0188445
-0.0236709
-0.0286863
-0.0339323
-0.0394197
-0.0451224
-0.0510214
-0.0572491
0.00846816
0.00757791
0.00663844
0.00566965
0.00469549
0.00383135
0.00315816
0.0025959
0.00195238
0.00102586
-0.000354004
-0.00232505
-0.00496267
-0.00822055
-0.0119156
-0.0158119
-0.0197555
-0.0237422
-0.0278619
-0.0321993
-0.0367924
-0.0416618
-0.0469099
0.00645604
0.00534581
0.00436764
0.00358958
0.00291792
0.00238624
0.00200952
0.00170512
0.00134047
0.000769358
-0.000176751
-0.00167249
-0.0038137
-0.00652276
-0.00955133
-0.0126178
-0.0155845
-0.0185207
-0.0216034
-0.0249708
-0.0286583
-0.0326293
-0.0369037
0.00469023
0.00334281
0.0023398
0.00190284
0.00165238
0.00148604
0.00139108
0.00132532
0.00121618
0.000944344
0.000330568
-0.000804223
-0.00251708
-0.00466325
-0.00695485
-0.00914032
-0.0111687
-0.0131939
-0.015424
-0.0179667
-0.0207902
-0.0237799
-0.026907
0.00306741
0.00171331
0.000748905
0.000959711
0.00121698
0.00136224
0.0014501
0.00151134
0.00152493
0.00140122
0.000991656
0.000169017
-0.00106687
-0.00255373
-0.00405506
-0.0054163
-0.00666352
-0.0079571
-0.00944837
-0.0111723
-0.0130503
-0.0149733
-0.0169033
0.00134135
0.000406161
-0.000450437
0.000288263
0.000704576
0.000883636
0.000958642
0.000987088
0.000982134
0.000914794
0.000726394
0.000370103
-0.000144043
-0.000740242
-0.00132072
-0.00183296
-0.00230408
-0.00281015
-0.00340856
-0.00409533
-0.00482339
-0.00555286
-0.00629928
1006.34
1024.29
1032.6
1035.02
985.098
994.834
996.278
988.388
992.557
1001.73
1007.66
1009.04
957.504
1007.71
1051.8
1064.9
278.042
389.065
653.174
968.101
1.38091
3.11141
7.86798
316.521
0.644543
0.841913
1.35873
3.64138
0.653702
0.70237
0.739111
0.907288
0.537244
0.57051
0.599362
0.643677
0.433444
0.454985
0.477461
0.507584
0.340171
0.35192
0.361642
0.369208
0.252649
0.255844
0.257758
0.253385
0.17262
0.168532
0.163441
0.153203
0.102056
0.0915125
0.0801965
0.0651395
0.0421707
0.0264368
0.00955162
-0.0093162
-0.00714585
-0.0263368
-0.0472381
-0.0688659
-0.0469816
-0.0680175
-0.0911589
-0.114258
-0.0788418
-0.100527
-0.124435
-0.147847
-0.103809
-0.125392
-0.149046
-0.171933
-0.122719
-0.143697
-0.166544
-0.188459
-0.136373
-0.156431
-0.178163
-0.198934
-0.145674
-0.164609
-0.185067
-0.204616
-0.151458
-0.169173
-0.188297
-0.2066
-0.15435
-0.170871
-0.188689
-0.205753
-0.154844
-0.170222
-0.186785
-0.202656
-0.153469
-0.167732
-0.183044
-0.197721
-0.15066
-0.163818
-0.177862
-0.191296
-0.146524
-0.1586
-0.171415
-0.183629
-0.140917
-0.151942
-0.163633
-0.174766
-0.133833
-0.143852
-0.154522
-0.164714
-0.125666
-0.134762
-0.144466
-0.153723
-0.116922
-0.125195
-0.133918
-0.142129
-0.107686
-0.115142
-0.122823
-0.129921
-0.0975658
-0.104102
-0.110761
-0.116905
-0.086318
-0.0919157
-0.0977561
-0.103268
-0.0744238
-0.0792796
-0.084547
-0.089576
-0.0627731
-0.0671009
-0.0717832
-0.0761351
-0.0517169
-0.0554652
-0.0593385
-0.062797
-0.0408135
-0.0437906
-0.0467851
-0.0494479
-0.0296999
-0.0318711
-0.034122
-0.0361791
-0.0184999
-0.0198946
-0.0214591
-0.0230421
-0.00697623
-0.00773901
-0.00874565
-0.0100635
1021.5
632.34
255.693
269.143
277.441
235.639
226.832
227.637
227.276
226.931
226.814
228.815
265.427
652.436
985.336
932.771
1005.86
1186.86
1189.52
960.861
414.006
221.199
221.893
232.511
231.925
225.764
226.396
226.494
226.422
226.435
228.002
290.947
734.152
835.713
893.835
940.764
1109.36
1180.07
997.648
577.485
223.016
222.705
221.794
222.406
224.281
225.454
225.769
225.928
226.094
226.698
442.577
820.033
835.722
922.201
967.209
1096.42
1179.56
1061.82
726.062
222.803
222.946
222.932
223.349
224.255
224.93
225.266
225.581
225.934
225.427
788.395
874.987
854.503
1008.1
1082.56
1174.65
1193.19
1112.54
996.928
302.476
223.078
223.58
223.889
224.646
224.818
224.979
225.35
225.617
344.396
899.961
927.527
926.572
618.96
649.59
1195.41
1221.76
867.904
1086.06
858.666
222.933
223.911
224.087
224.57
224.756
224.863
225.279
223.618
937.838
914.574
984.506
978.799
271.393
272.382
770.175
1274.05
170.755
944.37
1049.88
664.073
223.63
224.238
224.368
224.48
224.615
224.734
293.816
1119.8
1085.21
1054.55
671.104
269.957
268.23
288.724
1200.59
2.46494
364.168
1063.1
1135.08
702.768
223.605
224.154
224.107
224.077
221.757
1107.67
1196.54
1225.23
1020.06
366.842
273.759
265.65
259.129
478.248
0.765765
12.8221
486.347
1083.32
1154.75
927.926
287.637
223.393
221.85
432.95
1339.28
1275.25
1281.57
886.711
360.136
348.96
309.221
254.851
245.047
0.569717
0.583018
16.1872
498.853
1097.13
1135.48
1055.6
530.512
435.731
1370.15
1411.38
758.423
861.114
650.939
547.595
633.544
624.482
397.715
242.561
0.384117
0.385579
0.454549
9.65451
354.616
986.491
1266.68
1375.08
1429.07
1422.06
1094.86
526.973
219.252
478.487
629.892
623.952
622.23
629.74
460.666
0.235532
0.192492
0.163692
0.264551
1.3862
145.832
526.329
795.854
840.668
674.868
202.847
169.259
98.4447
436.101
605.082
609.325
617.165
639.279
638.753
0.124216
0.0534969
-0.0296046
-0.0723207
0.0573483
0.130479
1.21688
23.7588
23.818
4.9095
3.76687
12.1131
48.5177
123.962
174.594
181.385
167.363
369.619
648.593
0.0319377
-0.0413209
-0.141029
-0.24858
-0.303571
-0.407591
-0.71653
-1.09973
-0.895465
-0.166871
0.33192
1.84373
26.1302
85.1416
62.186
62.3481
82.9416
100.586
246.026
-0.0452443
-0.114619
-0.206989
-0.32304
-0.447309
-0.583742
-0.727874
-0.775429
-0.743522
-0.44721
-0.458056
0.189733
11.9554
15.3602
8.90622
42.2229
82.9647
90.556
114.481
-0.106069
-0.171144
-0.252922
-0.351894
-0.466895
-0.59962
-0.730794
-0.810735
-0.818788
-0.459662
-0.532195
-0.994118
-0.78334
0.153675
1.1407
11.5336
107.521
100.362
123.068
-0.151618
-0.212166
-0.28517
-0.369204
-0.46285
-0.568242
-0.678923
-0.776083
-0.778455
-0.769983
-0.946224
-1.02025
-0.752473
-0.35143
-0.0522053
0.804716
36.2572
260.879
361.36
-0.184305
-0.240358
-0.306003
-0.379836
-0.460185
-0.546158
-0.639825
-0.740107
-0.828166
-0.996394
-1.09266
-1.0914
-0.938198
-0.693497
-0.502269
-0.247692
1.61311
562.168
579.404
-0.206847
-0.258531
-0.317818
-0.383893
-0.456037
-0.533497
-0.62482
-0.731099
-0.863733
-1.01205
-1.13335
-1.17263
-1.09798
-0.948005
-0.720406
-0.491641
23.9831
587.859
600.119
-0.221509
-0.269112
-0.322911
-0.382638
-0.44853
-0.521399
-0.61138
-0.719169
-0.852019
-1.0001
-1.12971
-1.19804
-1.18473
-1.12007
-0.743492
-0.888394
59.644
614.776
625.619
-0.230095
-0.273982
-0.323051
-0.377449
-0.438016
-0.507909
-0.592362
-0.696358
-0.822396
-0.961469
-1.08848
-1.17328
-1.20398
-1.16494
-0.868712
-1.27813
80.7637
643.92
650.358
-0.233931
-0.274479
-0.319442
-0.369211
-0.424926
-0.48975
-0.567982
-0.663661
-0.777527
-0.902059
-1.01944
-1.10956
-1.16606
-1.03163
-0.914181
-1.461
46.2083
676.305
677.51
-0.234091
-0.27159
-0.312877
-0.358436
-0.409384
-0.468418
-0.538905
-0.623537
-0.72213
-0.828793
-0.931236
-1.01658
-1.08235
-0.91473
-0.864607
-1.31986
5.93985
268.41
699.298
-0.231412
-0.266077
-0.303942
-0.345479
-0.39158
-0.444341
-0.506169
-0.578624
-0.660857
-0.748234
-0.832387
-0.904837
-0.965987
-0.807929
-0.717575
-1.09039
-1.1329
31.6055
720.696
-0.226507
-0.258474
-0.293102
-0.330738
-0.371969
-0.418284
-0.471269
-0.531622
-0.598047
-0.666703
-0.73193
-0.787926
-0.781314
-0.5829
-0.571342
-0.885655
-0.900274
5.80752
653.421
-0.219773
-0.249141
-0.2807
-0.314598
-0.3511
-0.391202
-0.435816
-0.485005
-0.537278
-0.589459
-0.637643
-0.678174
-0.638829
-0.440435
-0.513766
-0.7036
-0.679364
0.51891
105.621
-0.211512
-0.238348
-0.266969
-0.297337
-0.32942
-0.363803
-0.400938
-0.440428
-0.480808
-0.519543
-0.553648
-0.580659
-0.564829
-0.311801
-0.505697
-0.536996
-0.486064
0.718313
19.7759
-0.202001
-0.226369
-0.252143
-0.279158
-0.307173
-0.336464
-0.367078
-0.398524
-0.429491
-0.458077
-0.481879
-0.499108
-0.411611
-0.348171
-0.44502
-0.391861
-0.304502
2.17997
174.671
-0.191429
-0.213413
-0.236424
-0.26022
-0.284475
-0.309231
-0.334336
-0.359297
-0.383234
-0.404845
-0.422401
-0.434572
-0.371485
-0.400415
-0.382248
-0.302602
-0.197708
12.3393
245.499
-0.179863
-0.199554
-0.219895
-0.240606
-0.261379
-0.282155
-0.302679
-0.322572
-0.341511
-0.358674
-0.373172
-0.378712
-0.378723
-0.37599
-0.357498
-0.302863
-0.252785
18.7476
252.98
-0.167389
-0.184856
-0.202645
-0.220468
-0.238079
-0.255298
-0.27209
-0.288174
-0.303595
-0.318026
-0.33119
-0.342692
-0.352396
-0.348882
-0.365244
-0.368789
-0.417804
13.755
43.3622
-0.154161
-0.169482
-0.184916
-0.200156
-0.214984
-0.22915
-0.242855
-0.255932
-0.268575
-0.280994
-0.2932
-0.305293
-0.311817
-0.323912
-0.364074
-0.412884
-0.507285
-0.530098
-0.733996
-0.140302
-0.153649
-0.167008
-0.180028
-0.192458
-0.204071
-0.215071
-0.225434
-0.235656
-0.246071
-0.256745
-0.264426
-0.271285
-0.289413
-0.216508
0.820036
0.256131
-0.531785
-0.443841
-0.125948
-0.137581
-0.14913
-0.160206
-0.170515
-0.179981
-0.186705
-0.187103
-0.183184
-0.195852
-0.215872
-0.221779
-0.228231
-0.244513
1.09901
1.5971
1.05714
-0.307313
-0.210923
-0.111365
-0.121476
-0.131369
-0.140643
-0.149012
-0.156497
-0.154942
-0.135473
-0.141417
-0.148381
-0.160674
-0.184545
-0.188158
0.908304
1.79032
1.74506
0.500723
-0.166899
-0.0619796
-0.0967782
-0.105393
-0.11369
-0.121284
-0.127929
-0.133717
-0.136642
-0.115141
-0.113582
-0.121192
-0.155638
-0.159162
1.1394
1.90246
1.8898
1.48228
-0.107363
-0.0790323
0.0203657
-0.0821906
-0.0892967
-0.096084
-0.102189
-0.107398
-0.111779
-0.115569
-0.116798
-0.108769
-0.123308
-0.134051
0.315647
1.94658
1.96027
1.93932
0.114407
-0.0924733
-0.029387
0.0625355
-0.0675983
-0.0733056
-0.0787283
-0.0835535
-0.087586
-0.0908047
-0.0932986
-0.095372
-0.0975306
-0.100726
-0.106673
0.044008
0.620654
0.49604
-0.107514
-0.0860956
-0.0580181
-0.00489844
0.0753342
-0.0531968
-0.05767
-0.061896
-0.0656125
-0.0686295
-0.0708797
-0.0722748
-0.0729345
-0.0732594
-0.073775
-0.0751486
-0.0791774
-0.0790866
-0.0735929
-0.0666794
-0.0565234
-0.0381161
0.00184233
0.0674122
-0.0391686
-0.0427732
-0.0460831
-0.0490389
-0.0513684
-0.0529564
-0.0536547
-0.0533287
-0.051971
-0.0496681
-0.0468758
-0.0438363
-0.0385654
-0.0363499
-0.0364923
-0.0336477
-0.026849
-0.00279858
0.0456586
-0.0259537
-0.0293763
-0.0324375
-0.0354111
-0.0379383
-0.0396682
-0.0402742
-0.0393593
-0.0365065
-0.031316
-0.0232981
-0.0115192
0.00422225
0.00306193
-0.00973636
-0.0166023
-0.0239351
-0.0169132
0.0454849
-0.0132474
-0.015619
-0.0181809
-0.0210948
-0.0237838
-0.0258041
-0.0266981
-0.0258562
-0.0226201
-0.016241
-0.00532643
0.0145962
0.0492986
0.0520321
0.0094454
-0.00955105
-0.0274357
-0.0363489
0.0260698
)
;

boundaryField
{
    leftWall
    {
        type            fixedFluxPressure;
        gradient        uniform 0;
        value           nonuniform List<scalar> 
50
(
550.484
550.317
548.505
545.778
542.811
539.679
535.965
531.337
258.449
0.447185
0.408967
0.379517
0.36561
0.340139
0.31931
0.298571
0.278477
0.259246
0.240973
0.223719
0.207388
0.19198
0.17745
0.163743
0.150805
0.138589
0.127056
0.11617
0.105901
0.096223
0.0871095
0.07853
0.0704563
0.0628692
0.0557621
0.0491416
0.0430231
0.037421
0.0323376
0.0277523
0.0236024
0.0198613
0.0164755
0.0134599
0.010794
0.00846816
0.00645604
0.00469023
0.00306741
0.00134135
)
;
    }
    rightWall
    {
        type            fixedFluxPressure;
        gradient        uniform 0;
        value           nonuniform List<scalar> 
50
(
1310.37
1309.14
1295.61
1270.91
1256.06
1238.39
1219.52
1200.34
1189.52
1180.07
1179.56
1193.19
1221.76
1274.05
1200.59
478.248
245.047
242.561
460.666
638.753
648.593
246.026
114.481
123.068
361.36
579.404
600.119
625.619
650.358
677.51
699.298
720.696
653.421
105.621
19.7759
174.671
245.499
252.98
43.3622
-0.733996
-0.443841
-0.210923
-0.0619796
0.0203657
0.0625355
0.0753342
0.0674122
0.0456586
0.0454849
0.0260698
)
;
    }
    lowerWall
    {
        type            fixedFluxPressure;
        gradient        uniform 0;
        value           nonuniform List<scalar> 
62
(
550.484
549.042
552.796
560.918
572.189
585.705
601.103
618.174
636.867
656.937
678.154
700.297
723.136
746.416
769.859
793.147
815.871
837.604
857.595
873.139
884.522
893.093
900.242
900.242
897.066
894.938
894.34
895.33
897.635
900.853
909.509
1006.34
1024.29
1032.6
1035.02
1313.03
1321.94
1169.35
1012.21
957.23
933.944
979.687
1122.02
1313.03
837.557
614.304
479.929
416.483
393.257
389.051
394.753
414.089
449.458
508.894
617.754
805.727
1051.51
1265.17
1383.09
1404.45
1358.82
1310.37
)
;
    }
    atmosphere
    {
        type            totalPressure;
        rho             rho;
        psi             none;
        gamma           1;
        p0              uniform 0;
        value           nonuniform List<scalar> 
46
(
0
0
-4.27494e-06
-3.81781e-05
-7.65376e-05
-0.0001108
-0.000139888
-0.000164268
-0.000184467
-0.000200442
-0.000211691
-0.000218135
-0.00022101
-0.000222793
-0.000226008
-0.000231817
-0.000239288
-0.00024584
-0.000248259
-0.000242754
-0.000224423
-0.000188142
-0.000133628
-8.91827e-05
-6.09238e-05
-3.56371e-05
-1.47712e-05
0
0
0
0
0
0
0
0
0
0
0
0
0
-0.000475583
-0.00339521
-0.00887158
-0.0132222
-0.00864802
0
)
;
    }
    defaultFaces
    {
        type            empty;
    }
}


// ************************************************************************* //
