/*--------------------------------*- C++ -*----------------------------------*\
  =========                 |
  \\      /  F ield         | OpenFOAM: The Open Source CFD Toolbox
   \\    /   O peration     | Website:  https://openfoam.org
    \\  /    A nd           | Version:  7
     \\/     M anipulation  |
\*---------------------------------------------------------------------------*/
FoamFile
{
    version     2.0;
    format      ascii;
    class       surfaceScalarField;
    location    "0.4";
    object      alphaPhi0.water;
}
// * * * * * * * * * * * * * * * * * * * * * * * * * * * * * * * * * * * * * //

dimensions      [0 3 -1 0 0 0 0];

internalField   nonuniform List<scalar> 
3781
(
-3.18048e-06
3.18048e-06
-4.42209e-06
1.2416e-06
-3.81048e-06
-6.1161e-07
-2.28622e-06
-1.52425e-06
-3.69449e-07
-1.91677e-06
1.66079e-06
-2.03024e-06
3.68523e-06
-2.02444e-06
5.64205e-06
-1.95682e-06
7.50998e-06
-1.86793e-06
9.28793e-06
-1.77795e-06
1.0984e-05
-1.69611e-06
1.26101e-05
-1.62603e-06
1.41783e-05
-1.56822e-06
1.56998e-05
-1.52149e-06
1.71837e-05
-1.48392e-06
1.8637e-05
-1.45328e-06
2.00644e-05
-1.42739e-06
2.14685e-05
-1.40412e-06
2.285e-05
-1.38148e-06
2.42075e-05
-1.35756e-06
2.5538e-05
-1.33046e-06
2.68362e-05
-1.29824e-06
2.80951e-05
-1.25881e-06
2.93049e-05
-1.20988e-06
3.04537e-05
-1.14877e-06
3.1526e-05
-1.07227e-06
3.25023e-05
-9.76363e-07
3.33581e-05
-8.55777e-07
3.40613e-05
-7.0322e-07
3.45681e-05
-5.06735e-07
3.48154e-05
-2.47349e-07
3.47005e-05
1.14903e-07
3.408e-05
6.2053e-07
3.28517e-05
1.22823e-06
3.08962e-05
1.9555e-06
2.80893e-05
2.8069e-06
2.4329e-05
3.76039e-06
1.95752e-05
4.75377e-06
1.38966e-05
5.67855e-06
7.49886e-06
6.39778e-06
6.99697e-07
6.79916e-06
-6.10192e-06
6.93917e-06
-1.25526e-05
6.15723e-06
2.6847e-06
-2.01471e-06
5.1952e-06
-1.92637e-06
1.15326e-06
-9.97946e-07
-1.54004e-06
4.23531e-07
-2.94573e-06
2.12377e-06
-3.61702e-06
3.9586e-06
-3.86506e-06
5.82191e-06
-3.88775e-06
7.66324e-06
-3.79815e-06
9.45792e-06
-3.66261e-06
1.11976e-05
-3.51764e-06
1.28832e-05
-3.38168e-06
1.45199e-05
-3.26273e-06
1.61145e-05
-3.16281e-06
1.76737e-05
-3.08068e-06
1.92032e-05
-3.01345e-06
2.07074e-05
-2.95751e-06
2.21891e-05
-2.90908e-06
2.36494e-05
-2.86439e-06
2.50877e-05
-2.81982e-06
2.65019e-05
-2.7718e-06
2.78882e-05
-2.71674e-06
2.92409e-05
-2.65093e-06
3.05525e-05
-2.57035e-06
3.18131e-05
-2.47049e-06
3.30104e-05
-2.34614e-06
3.41292e-05
-2.19105e-06
3.51504e-05
-1.99753e-06
3.60505e-05
-1.75587e-06
3.68007e-05
-1.45346e-06
3.73673e-05
-1.07329e-06
3.77137e-05
-5.9377e-07
3.78108e-05
1.7801e-08
3.76275e-05
8.03797e-07
3.7064e-05
1.79179e-06
3.60083e-05
3.01118e-06
3.43292e-05
4.48596e-06
3.18741e-05
6.21553e-06
2.84801e-05
8.14779e-06
2.40112e-05
1.01474e-05
1.84319e-05
1.19771e-05
1.19081e-05
1.3323e-05
5.07477e-06
1.38579e-05
-1.02976e-06
1.19671e-05
6.71691e-06
-5.93629e-07
5.78883e-06
-5.33672e-08
6.12998e-07
9.41531e-07
-2.53494e-06
2.30214e-06
-4.30634e-06
3.88008e-06
-5.19496e-06
5.56983e-06
-5.55481e-06
7.30011e-06
-5.61803e-06
9.02962e-06
-5.52767e-06
1.07365e-05
-5.36952e-06
1.24113e-05
-5.19241e-06
1.40517e-05
-5.0221e-06
1.56595e-05
-4.87049e-06
1.7238e-05
-4.7413e-06
1.87909e-05
-4.63365e-06
2.03217e-05
-4.54417e-06
2.18325e-05
-4.46834e-06
2.33246e-05
-4.4012e-06
2.47979e-05
-4.33771e-06
2.6251e-05
-4.27285e-06
2.76808e-05
-4.20165e-06
2.90831e-05
-4.11903e-06
3.04518e-05
-4.01966e-06
3.17792e-05
-3.89772e-06
3.30554e-05
-3.74668e-06
3.42682e-05
-3.55894e-06
3.54027e-05
-3.32551e-06
3.64406e-05
-3.03545e-06
3.736e-05
-2.67524e-06
3.81346e-05
-2.22806e-06
3.87339e-05
-1.67264e-06
3.91228e-05
-9.82644e-07
3.92657e-05
-1.25068e-07
3.9127e-05
9.42435e-07
3.86556e-05
2.26322e-06
3.77893e-05
3.87744e-06
3.64577e-05
5.81761e-06
3.45801e-05
8.0931e-06
3.2064e-05
1.06639e-05
2.88087e-05
1.34027e-05
2.47342e-05
1.60516e-05
1.98735e-05
1.81837e-05
1.45284e-05
1.9203e-05
9.04045e-06
1.78107e-05
1.16083e-05
4.79539e-07
5.30929e-06
1.2378e-06
-1.45264e-07
2.37935e-06
-3.67649e-06
3.75304e-06
-5.68003e-06
5.26922e-06
-6.71114e-06
6.86322e-06
-7.1488e-06
8.49128e-06
-7.24609e-06
1.01266e-05
-7.16297e-06
1.17538e-05
-6.9967e-06
1.3365e-05
-6.80369e-06
1.49574e-05
-6.61447e-06
1.65306e-05
-6.44368e-06
1.80857e-05
-6.29641e-06
1.96242e-05
-6.17214e-06
2.11473e-05
-6.06731e-06
2.26558e-05
-5.97679e-06
2.41493e-05
-5.89476e-06
2.56268e-05
-5.81517e-06
2.70859e-05
-5.7319e-06
2.8523e-05
-5.63877e-06
2.99333e-05
-5.5294e-06
3.13107e-05
-5.39701e-06
3.26471e-05
-5.23415e-06
3.39329e-05
-5.03243e-06
3.5156e-05
-4.78211e-06
3.63022e-05
-4.47171e-06
3.73542e-05
-4.08743e-06
3.82916e-05
-3.61259e-06
3.90904e-05
-3.02686e-06
3.97233e-05
-2.30551e-06
4.01594e-05
-1.4188e-06
4.03658e-05
-3.31432e-07
4.03086e-05
9.99572e-07
3.99512e-05
2.62064e-06
3.92534e-05
4.57525e-06
3.81734e-05
6.89757e-06
3.66681e-05
9.59846e-06
3.46897e-05
1.26422e-05
3.21813e-05
1.59112e-05
2.90765e-05
1.91564e-05
2.53267e-05
2.19335e-05
2.09938e-05
2.35359e-05
1.60451e-05
2.27597e-05
1.77341e-05
1.01925e-06
4.29004e-06
2.1269e-06
-1.25291e-06
3.43985e-06
-4.98943e-06
4.87293e-06
-7.11311e-06
6.37152e-06
-8.20973e-06
7.9065e-06
-8.68378e-06
9.46004e-06
-8.79963e-06
1.10207e-05
-8.72363e-06
1.25811e-05
-8.55714e-06
1.41369e-05
-8.35946e-06
1.56856e-05
-8.16314e-06
1.7226e-05
-7.98415e-06
1.87579e-05
-7.82825e-06
2.02809e-05
-7.69517e-06
2.17948e-05
-7.58118e-06
2.32987e-05
-7.48074e-06
2.47913e-05
-7.38738e-06
2.62705e-05
-7.2943e-06
2.77331e-05
-7.1945e-06
2.91751e-05
-7.0808e-06
3.05914e-05
-6.94569e-06
3.19755e-05
-6.78112e-06
3.33195e-05
-6.57819e-06
3.4614e-05
-6.32684e-06
3.58473e-05
-6.01543e-06
3.70058e-05
-5.63027e-06
3.80735e-05
-5.15513e-06
3.90316e-05
-4.57064e-06
3.98584e-05
-3.8537e-06
4.05298e-05
-2.97691e-06
4.10191e-05
-1.90814e-06
4.12979e-05
-6.10234e-07
4.13375e-05
9.60018e-07
4.11093e-05
2.84884e-06
4.05851e-05
5.09948e-06
3.97376e-05
7.74507e-06
3.854e-05
1.0796e-05
3.69623e-05
1.42199e-05
3.49627e-05
1.79107e-05
3.24762e-05
2.1643e-05
2.94073e-05
2.50024e-05
2.56502e-05
2.7293e-05
2.10419e-05
2.73679e-05
2.35439e-05
1.25981e-06
3.03022e-06
2.70887e-06
-2.70196e-06
4.21676e-06
-6.49733e-06
5.72811e-06
-8.62445e-06
7.23114e-06
-9.71276e-06
8.73006e-06
-1.01827e-05
1.02298e-05
-1.02994e-05
1.17328e-05
-1.02266e-05
1.32394e-05
-1.00637e-05
1.47488e-05
-9.86889e-06
1.62599e-05
-9.67428e-06
1.77715e-05
-9.49573e-06
1.92823e-05
-9.33901e-06
2.07909e-05
-9.20375e-06
2.22957e-05
-9.08601e-06
2.37949e-05
-8.9799e-06
2.5286e-05
-8.8785e-06
2.67661e-05
-8.7744e-06
2.82315e-05
-8.65991e-06
2.96777e-05
-8.52703e-06
3.10994e-05
-8.36733e-06
3.24899e-05
-8.17167e-06
3.38416e-05
-7.92987e-06
3.51451e-05
-7.6304e-06
3.63896e-05
-7.25994e-06
3.75623e-05
-6.80294e-06
3.86483e-05
-6.24107e-06
3.96304e-05
-5.55278e-06
4.04895e-05
-4.71281e-06
4.12045e-05
-3.69184e-06
4.17525e-05
-2.45621e-06
4.21101e-05
-9.67814e-07
4.22539e-05
8.16267e-07
4.21616e-05
2.94109e-06
4.18126e-05
5.44854e-06
4.11872e-05
8.37042e-06
4.02659e-05
1.17174e-05
3.90236e-05
1.54621e-05
3.74201e-05
1.95143e-05
3.53824e-05
2.36807e-05
3.27822e-05
2.76026e-05
2.94135e-05
3.06617e-05
2.49392e-05
3.18422e-05
2.96464e-05
1.42571e-06
1.60451e-06
3.1401e-06
-4.41636e-06
4.80654e-06
-8.16376e-06
6.38315e-06
-1.02011e-05
7.89308e-06
-1.12227e-05
9.36656e-06
-1.16562e-05
1.08256e-05
-1.17584e-05
1.22834e-05
-1.16844e-05
1.37465e-05
-1.15268e-05
1.52174e-05
-1.13398e-05
1.66966e-05
-1.11534e-05
1.81829e-05
-1.0982e-05
1.96747e-05
-1.08308e-05
2.11698e-05
-1.06989e-05
2.2666e-05
-1.05821e-05
2.41603e-05
-1.04742e-05
2.56495e-05
-1.03677e-05
2.71301e-05
-1.0255e-05
2.85977e-05
-1.01276e-05
3.00477e-05
-9.97703e-06
3.14745e-05
-9.79406e-06
3.28714e-05
-9.56861e-06
3.4231e-05
-9.28944e-06
3.55444e-05
-8.94377e-06
3.68012e-05
-8.51683e-06
3.79898e-05
-7.99148e-06
3.90964e-05
-7.34767e-06
4.01057e-05
-6.56209e-06
4.10007e-05
-5.60787e-06
4.17633e-05
-4.45444e-06
4.23746e-05
-3.06743e-06
4.28154e-05
-1.40862e-06
4.30676e-05
5.64052e-07
4.31145e-05
2.89416e-06
4.29408e-05
5.62224e-06
4.25319e-05
8.77929e-06
4.18717e-05
1.23776e-05
4.09367e-05
1.63972e-05
3.96846e-05
2.07663e-05
3.80348e-05
2.53305e-05
3.5836e-05
2.98015e-05
3.28178e-05
3.36798e-05
2.85136e-05
3.61464e-05
3.59712e-05
1.60663e-06
-2.11585e-09
3.50888e-06
-6.31861e-06
5.2789e-06
-9.93378e-06
6.89361e-06
-1.18158e-05
8.40228e-06
-1.27314e-05
9.8526e-06
-1.31065e-05
1.12778e-05
-1.31836e-05
1.2698e-05
-1.31046e-05
1.41244e-05
-1.29532e-05
1.55622e-05
-1.27776e-05
1.7013e-05
-1.26042e-05
1.84762e-05
-1.24453e-05
1.99501e-05
-1.23047e-05
2.14322e-05
-1.2181e-05
2.29193e-05
-1.20692e-05
2.44079e-05
-1.19629e-05
2.58944e-05
-1.18542e-05
2.73745e-05
-1.1735e-05
2.88435e-05
-1.15966e-05
3.02964e-05
-1.143e-05
3.17276e-05
-1.12252e-05
3.31305e-05
-1.09715e-05
3.44978e-05
-1.06568e-05
3.58212e-05
-1.02672e-05
3.70912e-05
-9.78677e-06
3.82967e-05
-9.19707e-06
3.94257e-05
-8.47663e-06
4.04644e-05
-7.60075e-06
4.13979e-05
-6.54142e-06
4.22109e-05
-5.26745e-06
4.2888e-05
-3.74449e-06
4.34144e-05
-1.93504e-06
4.3777e-05
2.01514e-07
4.3964e-05
2.7071e-06
4.39652e-05
5.62111e-06
4.37701e-05
8.97437e-06
4.33658e-05
1.27818e-05
4.27312e-05
1.70319e-05
4.18251e-05
2.16724e-05
4.05662e-05
2.65893e-05
3.87962e-05
3.15715e-05
3.62156e-05
3.62604e-05
3.22761e-05
4.00859e-05
4.22127e-05
1.80488e-06
-1.80699e-06
3.84471e-06
-8.35845e-06
5.67418e-06
-1.17632e-05
7.30253e-06
-1.34441e-05
8.80008e-06
-1.42289e-05
1.02258e-05
-1.45322e-05
1.16194e-05
-1.45772e-05
1.30056e-05
-1.44908e-05
1.43986e-05
-1.43462e-05
1.58056e-05
-1.41847e-05
1.72295e-05
-1.4028e-05
1.86701e-05
-1.38859e-05
2.01258e-05
-1.37604e-05
2.15936e-05
-1.36488e-05
2.30703e-05
-1.35459e-05
2.45517e-05
-1.34443e-05
2.60336e-05
-1.33361e-05
2.75114e-05
-1.32128e-05
2.89801e-05
-1.30653e-05
3.04343e-05
-1.28842e-05
3.18684e-05
-1.26593e-05
3.32761e-05
-1.23792e-05
3.46503e-05
-1.2031e-05
3.59831e-05
-1.16001e-05
3.72659e-05
-1.10695e-05
3.84887e-05
-1.04199e-05
3.96406e-05
-9.62855e-06
4.07096e-05
-8.66972e-06
4.16827e-05
-7.51459e-06
4.25472e-05
-6.13188e-06
4.32907e-05
-4.48806e-06
4.39028e-05
-2.54716e-06
4.43751e-05
-2.70707e-07
4.47009e-05
2.38126e-06
4.4875e-05
5.44703e-06
4.48917e-05
8.95761e-06
4.47428e-05
1.29307e-05
4.44121e-05
1.73626e-05
4.38662e-05
2.22184e-05
4.30353e-05
2.74201e-05
4.17786e-05
3.28283e-05
3.9816e-05
3.8223e-05
3.66027e-05
4.32992e-05
4.77387e-05
2.00844e-06
-3.81543e-06
4.15412e-06
-1.05041e-05
6.01633e-06
-1.36255e-05
7.64342e-06
-1.50712e-05
9.12319e-06
-1.57087e-05
1.0522e-05
-1.5931e-05
1.18838e-05
-1.5939e-05
1.32363e-05
-1.58434e-05
1.45962e-05
-1.57061e-05
1.59723e-05
-1.55608e-05
1.73684e-05
-1.54241e-05
1.8785e-05
-1.53025e-05
2.02205e-05
-1.51958e-05
2.16719e-05
-1.51002e-05
2.31355e-05
-1.50095e-05
2.46069e-05
-1.49158e-05
2.60816e-05
-1.48108e-05
2.75543e-05
-1.46855e-05
2.90199e-05
-1.45309e-05
3.0473e-05
-1.43373e-05
3.19077e-05
-1.4094e-05
3.33179e-05
-1.37894e-05
3.46969e-05
-1.341e-05
3.60375e-05
-1.29406e-05
3.73316e-05
-1.23636e-05
3.85705e-05
-1.16588e-05
3.97446e-05
-1.08026e-05
4.08433e-05
-9.76845e-06
4.18556e-05
-8.52681e-06
4.27705e-05
-7.0468e-06
4.35789e-05
-5.2965e-06
4.42742e-05
-3.24245e-06
4.48526e-05
-8.49124e-07
4.5313e-05
1.92088e-06
4.56557e-05
5.10439e-06
4.58807e-05
8.73262e-06
4.59859e-05
1.28254e-05
4.59639e-05
1.73846e-05
4.57951e-05
2.23872e-05
4.54354e-05
2.77798e-05
4.47893e-05
3.34744e-05
4.36582e-05
3.93541e-05
4.16317e-05
4.53257e-05
5.15857e-05
2.2421e-06
-6.05753e-06
4.51989e-06
-1.27819e-05
6.43925e-06
-1.55448e-05
8.08939e-06
-1.67214e-05
9.57487e-06
-1.71942e-05
1.09692e-05
-1.73253e-05
1.2321e-05
-1.72908e-05
1.36614e-05
-1.71838e-05
1.50096e-05
-1.70543e-05
1.63763e-05
-1.69275e-05
1.77663e-05
-1.68142e-05
1.91807e-05
-1.67168e-05
2.06179e-05
-1.6633e-05
2.20749e-05
-1.65572e-05
2.35477e-05
-1.64822e-05
2.50316e-05
-1.63997e-05
2.65214e-05
-1.63006e-05
2.80116e-05
-1.61758e-05
2.94967e-05
-1.6016e-05
3.09709e-05
-1.58115e-05
3.24284e-05
-1.55515e-05
3.38631e-05
-1.52241e-05
3.52687e-05
-1.48155e-05
3.66381e-05
-1.43101e-05
3.79642e-05
-1.36897e-05
3.92392e-05
-1.29338e-05
4.04548e-05
-1.20182e-05
4.16016e-05
-1.09153e-05
4.26698e-05
-9.59497e-06
4.365e-05
-8.02707e-06
4.45356e-05
-6.18207e-06
4.53234e-05
-4.03025e-06
4.60145e-05
-1.54021e-06
4.66135e-05
1.32187e-06
4.71271e-05
4.59074e-06
4.75622e-05
8.29754e-06
4.79242e-05
1.24634e-05
4.82163e-05
1.70925e-05
4.84371e-05
2.21664e-05
4.85759e-05
2.7641e-05
4.86027e-05
3.34476e-05
4.84518e-05
3.9505e-05
4.79966e-05
4.57809e-05
5.2531e-05
2.44524e-06
-8.50277e-06
4.83647e-06
-1.51731e-05
6.80182e-06
-1.75102e-05
8.46421e-06
-1.83837e-05
9.94259e-06
-1.86725e-05
1.13179e-05
-1.87007e-05
1.26441e-05
-1.86169e-05
1.39563e-05
-1.84961e-05
1.52767e-05
-1.83747e-05
1.66177e-05
-1.82685e-05
1.79852e-05
-1.81817e-05
1.93806e-05
-1.81123e-05
2.08026e-05
-1.8055e-05
2.2248e-05
-1.80026e-05
2.37127e-05
-1.79469e-05
2.51917e-05
-1.78787e-05
2.66794e-05
-1.77883e-05
2.81699e-05
-1.76663e-05
2.96573e-05
-1.75034e-05
3.11357e-05
-1.72899e-05
3.25993e-05
-1.70151e-05
3.40421e-05
-1.66669e-05
3.54581e-05
-1.62315e-05
3.68408e-05
-1.56928e-05
3.81838e-05
-1.50327e-05
3.94805e-05
-1.42305e-05
4.07242e-05
-1.32618e-05
4.19068e-05
-1.20979e-05
4.30196e-05
-1.07077e-05
4.40543e-05
-9.06175e-06
4.5006e-05
-7.13375e-06
4.58749e-05
-4.89915e-06
4.66669e-05
-2.33226e-06
4.73931e-05
5.95723e-07
4.80672e-05
3.91662e-06
4.87034e-05
7.66132e-06
4.93152e-05
1.18516e-05
4.99163e-05
1.64914e-05
5.05225e-05
2.15602e-05
5.11542e-05
2.70093e-05
5.18391e-05
3.27627e-05
5.2621e-05
3.87231e-05
5.36019e-05
4.48e-05
5.09951e-05
2.63031e-06
-1.11331e-05
5.14746e-06
-1.76903e-05
7.17333e-06
-1.9536e-05
8.85473e-06
-2.00651e-05
1.03262e-05
-2.0144e-05
1.16791e-05
-2.00536e-05
1.29748e-05
-1.99125e-05
1.42537e-05
-1.9775e-05
1.55413e-05
-1.96623e-05
1.6852e-05
-1.95791e-05
1.81923e-05
-1.9522e-05
1.95642e-05
-1.94841e-05
2.09661e-05
-1.94569e-05
2.23949e-05
-1.94315e-05
2.38464e-05
-1.93984e-05
2.53153e-05
-1.93475e-05
2.67956e-05
-1.92686e-05
2.8281e-05
-1.91517e-05
2.97653e-05
-1.89876e-05
3.12424e-05
-1.87669e-05
3.27064e-05
-1.84791e-05
3.41516e-05
-1.81121e-05
3.55723e-05
-1.76521e-05
3.69624e-05
-1.7083e-05
3.83163e-05
-1.63865e-05
3.96288e-05
-1.5543e-05
4.08949e-05
-1.4528e-05
4.21085e-05
-1.33115e-05
4.32612e-05
-1.18604e-05
4.43451e-05
-1.01456e-05
4.53564e-05
-8.14506e-06
4.6298e-05
-5.84082e-06
4.71807e-05
-3.21487e-06
4.80217e-05
-2.45331e-07
4.88428e-05
3.09557e-06
4.96655e-05
6.83856e-06
5.05107e-05
1.10064e-05
5.14001e-05
1.56021e-05
5.2361e-05
2.05993e-05
5.34325e-05
2.59378e-05
5.46724e-05
3.15228e-05
5.61687e-05
3.72268e-05
5.8071e-05
4.28978e-05
4.83874e-05
2.79902e-06
-1.39321e-05
5.46876e-06
-2.03598e-05
7.57284e-06
-2.16399e-05
9.27715e-06
-2.17693e-05
1.07387e-05
-2.16054e-05
1.2064e-05
-2.13788e-05
1.33239e-05
-2.11723e-05
1.4565e-05
-2.1016e-05
1.58161e-05
-2.09132e-05
1.70928e-05
-2.08556e-05
1.84025e-05
-2.08316e-05
1.97469e-05
-2.08284e-05
2.11245e-05
-2.08343e-05
2.25321e-05
-2.08389e-05
2.39652e-05
-2.08314e-05
2.54186e-05
-2.08007e-05
2.68858e-05
-2.07356e-05
2.83602e-05
-2.06259e-05
2.98351e-05
-2.04623e-05
3.13043e-05
-2.0236e-05
3.2762e-05
-1.99366e-05
3.42026e-05
-1.95525e-05
3.56207e-05
-1.907e-05
3.70107e-05
-1.84728e-05
3.83673e-05
-1.77429e-05
3.9687e-05
-1.68625e-05
4.09673e-05
-1.58082e-05
4.22042e-05
-1.45482e-05
4.33898e-05
-1.3046e-05
4.45159e-05
-1.12717e-05
4.55788e-05
-9.20791e-06
4.65833e-05
-6.84524e-06
4.75438e-05
-4.17545e-06
4.84845e-05
-1.186e-06
4.94347e-05
2.14538e-06
5.04236e-05
5.84963e-06
5.14779e-05
9.95219e-06
5.26236e-05
1.44563e-05
5.38928e-05
1.93301e-05
5.53308e-05
2.44997e-05
5.70024e-05
2.98512e-05
5.89966e-05
3.52326e-05
6.14355e-05
4.04589e-05
4.5322e-05
2.96141e-06
-1.68931e-05
5.82436e-06
-2.32209e-05
8.01334e-06
-2.3827e-05
9.73091e-06
-2.34855e-05
1.11727e-05
-2.30461e-05
1.24642e-05
-2.26693e-05
1.36849e-05
-2.23921e-05
1.48866e-05
-2.22168e-05
1.61004e-05
-2.2126e-05
1.73425e-05
-2.20966e-05
1.86203e-05
-2.21082e-05
1.99354e-05
-2.2142e-05
2.12856e-05
-2.21831e-05
2.26679e-05
-2.22196e-05
2.40778e-05
-2.22398e-05
2.55102e-05
-2.22314e-05
2.69583e-05
-2.21821e-05
2.84149e-05
-2.20808e-05
2.98732e-05
-2.19189e-05
3.1327e-05
-2.1688e-05
3.27703e-05
-2.13784e-05
3.41979e-05
-2.09785e-05
3.56047e-05
-2.04755e-05
3.69854e-05
-1.98522e-05
3.83345e-05
-1.9091e-05
3.96506e-05
-1.81776e-05
4.09342e-05
-1.7091e-05
4.21844e-05
-1.57978e-05
4.33943e-05
-1.42555e-05
4.45544e-05
-1.24315e-05
4.56605e-05
-1.03139e-05
4.67181e-05
-7.90285e-06
4.77444e-05
-5.20172e-06
4.87689e-05
-2.21039e-06
4.9829e-05
1.08534e-06
5.09607e-05
4.7179e-06
5.21948e-05
8.71805e-06
5.35587e-05
1.30924e-05
5.50829e-05
1.7806e-05
5.68103e-05
2.27723e-05
5.88003e-05
2.78612e-05
6.11284e-05
3.29046e-05
6.38818e-05
3.77056e-05
4.20394e-05
3.14957e-06
-2.00376e-05
6.2459e-06
-2.63003e-05
8.47826e-06
-2.60441e-05
1.01699e-05
-2.51659e-05
1.15739e-05
-2.44414e-05
1.28274e-05
-2.3915e-05
1.40103e-05
-2.3567e-05
1.5176e-05
-2.33741e-05
1.63556e-05
-2.32965e-05
1.75643e-05
-2.32955e-05
1.88098e-05
-2.3343e-05
2.00926e-05
-2.34135e-05
2.14106e-05
-2.34889e-05
2.27608e-05
-2.3557e-05
2.41393e-05
-2.36048e-05
2.55413e-05
-2.36195e-05
2.69598e-05
-2.35863e-05
2.83874e-05
-2.34939e-05
2.98172e-05
-2.33343e-05
3.12438e-05
-2.31003e-05
3.26611e-05
-2.27818e-05
3.40646e-05
-2.23688e-05
3.54505e-05
-2.1849e-05
3.68133e-05
-2.12038e-05
3.81467e-05
-2.04145e-05
3.94513e-05
-1.94737e-05
4.07313e-05
-1.8364e-05
4.19897e-05
-1.7051e-05
4.32194e-05
-1.54815e-05
4.441e-05
-1.36203e-05
4.55593e-05
-1.14628e-05
4.66737e-05
-9.01715e-06
4.77663e-05
-6.29404e-06
4.88655e-05
-3.30913e-06
5.00196e-05
-6.7994e-08
5.12725e-05
3.46547e-06
5.26569e-05
7.3336e-06
5.41995e-05
1.15499e-05
5.59242e-05
1.60812e-05
5.78671e-05
2.08294e-05
6.00772e-05
2.56511e-05
6.26133e-05
3.03685e-05
6.55302e-05
3.47887e-05
3.86983e-05
3.52007e-06
-2.35044e-05
6.68041e-06
-2.93263e-05
8.76289e-06
-2.80091e-05
1.03582e-05
-2.66749e-05
1.17024e-05
-2.57168e-05
1.2914e-05
-2.50631e-05
1.40453e-05
-2.46334e-05
1.51576e-05
-2.44169e-05
1.62785e-05
-2.43421e-05
1.7422e-05
-2.43572e-05
1.85999e-05
-2.44326e-05
1.98124e-05
-2.45312e-05
2.10589e-05
-2.4634e-05
2.23402e-05
-2.47303e-05
2.3654e-05
-2.48036e-05
2.49987e-05
-2.48419e-05
2.63686e-05
-2.48257e-05
2.77561e-05
-2.47423e-05
2.91477e-05
-2.4583e-05
3.0528e-05
-2.43357e-05
3.18779e-05
-2.3985e-05
3.32179e-05
-2.35192e-05
3.45548e-05
-2.29788e-05
3.58824e-05
-2.23362e-05
3.711e-05
-2.15403e-05
3.82996e-05
-2.06018e-05
3.95252e-05
-1.9538e-05
4.0828e-05
-1.83099e-05
4.2167e-05
-1.67868e-05
4.34984e-05
-1.49294e-05
4.48261e-05
-1.27764e-05
4.61633e-05
-1.0343e-05
4.74858e-05
-7.61121e-06
4.87505e-05
-4.56769e-06
5.00116e-05
-1.32026e-06
5.13785e-05
2.10306e-06
5.2887e-05
5.8241e-06
5.45694e-05
9.86746e-06
5.64423e-05
1.42084e-05
5.85338e-05
1.87379e-05
6.08803e-05
2.33046e-05
6.3527e-05
2.77218e-05
6.65021e-05
3.18136e-05
3.53916e-05
4.46989e-06
-2.00806e-05
6.22779e-06
-1.70605e-05
7.85045e-06
-1.69433e-05
9.43994e-06
-1.86756e-05
1.06453e-05
-1.89474e-05
1.16691e-05
-1.81272e-05
1.24382e-05
-1.67995e-05
1.31339e-05
-1.55019e-05
1.37655e-05
-1.43602e-05
1.43478e-05
-1.3321e-05
1.49285e-05
-1.24554e-05
1.5483e-05
-1.16742e-05
1.60236e-05
-1.09684e-05
1.65889e-05
-1.0374e-05
1.71799e-05
-9.85937e-06
1.77947e-05
-9.43089e-06
1.83858e-05
-9.01972e-06
1.89398e-05
-8.58917e-06
1.94828e-05
-8.16106e-06
2.00498e-05
-7.76804e-06
2.06541e-05
-7.40661e-06
2.13459e-05
-7.0708e-06
2.21789e-05
-6.82217e-06
2.30813e-05
-6.63373e-06
2.40225e-05
-6.38565e-06
2.54422e-05
-6.26484e-06
2.74985e-05
-6.36178e-06
3.01776e-05
-6.74459e-06
3.28441e-05
-7.08758e-06
3.52838e-05
-7.08461e-06
3.78436e-05
-6.78184e-06
4.07889e-05
-6.28147e-06
4.40972e-05
-5.62638e-06
4.7245e-05
-4.66887e-06
4.95092e-05
-2.6398e-06
5.12387e-05
5.87949e-07
5.29351e-05
4.11732e-06
5.47351e-05
8.06628e-06
5.67048e-05
1.22379e-05
5.88835e-05
1.65592e-05
6.12959e-05
2.08922e-05
6.39804e-05
2.50373e-05
6.69443e-05
2.88496e-05
3.21651e-05
2.32026e-06
8.05589e-13
1.34285e-06
9.53443e-13
1.89817e-06
5.75072e-11
2.74534e-06
6.72857e-11
3.09273e-06
1.02315e-11
3.17435e-06
1.13577e-12
2.96757e-06
1.77552e-13
2.77975e-06
1.16425e-13
2.58943e-06
2.33808e-12
2.39066e-06
6.0771e-12
2.2171e-06
2.71603e-11
2.04031e-06
8.89803e-11
1.87865e-06
1.6535e-10
1.74711e-06
1.95911e-10
1.63469e-06
1.78234e-10
1.54152e-06
1.39712e-10
1.43873e-06
3.38796e-10
1.32338e-06
2.84609e-10
1.21584e-06
1.63073e-10
1.12869e-06
8.02948e-11
1.05861e-06
3.85969e-11
1.02079e-06
1.88706e-11
1.03681e-06
4.03765e-10
1.08333e-06
5.64357e-10
1.12488e-06
5.32947e-10
1.37454e-06
1.97869e-09
1.95767e-06
3.07321e-09
3.00073e-06
2.24847e-09
4.19428e-06
1.14859e-09
5.41277e-06
4.74159e-10
7.01239e-06
1.68946e-10
9.75747e-06
5.37574e-11
1.52673e-05
1.5497e-11
2.55903e-05
2.60096e-12
3.86395e-05
-9.01335e-07
4.80418e-05
-3.81998e-07
5.23842e-05
1.83361e-06
5.46684e-05
5.77687e-06
5.6804e-05
1.0104e-05
5.90374e-05
1.43246e-05
6.1457e-05
1.84712e-05
6.41243e-05
2.23699e-05
6.7029e-05
2.59449e-05
2.90453e-05
-2.93091e-13
1.28658e-16
-2.59265e-13
3.72482e-17
-1.47598e-11
1.0977e-10
-2.13365e-11
3.51342e-11
-3.97405e-12
6.74431e-12
-5.19446e-13
1.15469e-12
-9.26135e-14
3.84515e-13
-6.7463e-14
4.48093e-13
-1.47692e-12
1.00469e-11
-4.13256e-12
2.54117e-11
-1.9709e-11
8.38e-11
-6.85124e-11
2.55623e-10
-1.34582e-10
3.97911e-10
-1.68112e-10
4.31517e-10
-1.60951e-10
3.79726e-10
-1.32618e-10
2.93463e-10
-3.37911e-10
2.07831e-10
-2.98344e-10
1.43407e-10
-1.7979e-10
1.02399e-10
-9.32138e-11
7.06475e-11
-4.72515e-11
4.46939e-11
-2.441e-11
2.61676e-11
-5.53382e-10
1.45904e-11
-8.2246e-10
7.92271e-12
-8.29406e-10
4.25235e-12
-3.30824e-09
2.27833e-12
-5.5636e-09
1.23624e-12
-4.45168e-09
7.01686e-13
-2.52219e-09
7.84025e-13
-1.17892e-09
2.10579e-12
-4.89274e-10
5.05755e-12
-1.88513e-10
8.75355e-12
-6.98605e-11
1.11018e-11
-1.68142e-11
1.05272e-11
1.38094e-06
6.26986e-12
1.35975e-05
1.26279e-12
3.88544e-05
5.41368e-08
5.26196e-05
2.20579e-06
5.63103e-05
6.47079e-06
5.89881e-05
1.16434e-05
6.15276e-05
1.59353e-05
6.41653e-05
1.9732e-05
6.697e-05
2.3139e-05
2.60576e-05
-2.21646e-18
1.11505e-16
-5.23541e-18
4.36385e-17
-2.15283e-11
1.23537e-17
-8.25616e-12
5.26192e-18
-2.13793e-12
2.53858e-18
-4.63897e-13
1.46257e-18
-1.85701e-13
3.91167e-13
-2.50014e-13
5.83614e-13
-6.29171e-12
1.20588e-11
-1.75007e-11
2.84773e-11
-6.25516e-11
8.00861e-11
-2.04682e-10
2.01081e-10
-3.39298e-10
3.05158e-10
-3.89947e-10
3.38739e-10
-3.62538e-10
3.09121e-10
-2.95458e-10
2.48596e-10
-2.20385e-10
1.83759e-10
-1.6007e-10
1.28113e-10
-1.20352e-10
8.55021e-11
-8.7536e-11
5.50845e-11
-5.84781e-11
3.44096e-11
-3.62415e-11
2.09145e-11
-2.14626e-11
1.24248e-11
-1.24212e-11
7.25461e-12
-7.13432e-12
4.18895e-12
-4.11715e-12
2.40919e-12
-2.42708e-12
1.40212e-12
-1.51151e-12
8.60501e-13
-1.87159e-12
1.01792e-12
-5.64326e-12
2.78422e-12
-1.55028e-11
6.90363e-12
-3.14436e-11
1.26588e-11
-4.8124e-11
1.76502e-11
-5.664e-11
1.89982e-11
-4.76408e-11
1.44754e-11
-2.20443e-11
1.00621e-11
6.33681e-07
3.4873e-12
9.70359e-06
3.52364e-08
4.12766e-05
3.57844e-07
5.58708e-05
5.77523e-06
6.07645e-05
1.10885e-05
6.41254e-05
1.63614e-05
6.6998e-05
2.02693e-05
6.98618e-05
2.31947e-05
2.55309e-05
9.86844e-18
5.29993e-17
2.77485e-19
3.34675e-17
-1.50076e-18
1.03468e-17
-1.03574e-18
5.1735e-18
-7.12275e-19
2.66519e-18
-5.45162e-19
1.70474e-18
-1.80658e-13
2.94684e-13
-3.18619e-13
4.26753e-13
-7.51891e-12
5.68253e-12
-1.9767e-11
1.28439e-11
-6.07925e-11
2.30852e-11
-1.64821e-10
4.37381e-11
-2.67612e-10
7.1329e-11
-3.15795e-10
9.44767e-11
-3.05055e-10
1.04639e-10
-2.58995e-10
1.00622e-10
-2.01761e-10
8.66033e-11
-1.48133e-10
6.82461e-11
-1.0412e-10
5.00974e-11
-7.07114e-11
3.47239e-11
-4.66392e-11
2.29791e-11
-3.0003e-11
1.46567e-11
-1.8924e-11
9.08734e-12
-1.1774e-11
5.52262e-12
-7.27298e-12
3.31927e-12
-4.50319e-12
1.99572e-12
-2.85174e-12
1.22637e-12
-1.92617e-12
8.05162e-13
-2.53058e-12
8.91325e-13
-7.77185e-12
2.15915e-12
-2.20016e-11
5.29686e-12
-4.72275e-11
1.00994e-11
-8.00341e-11
1.49751e-11
-1.11437e-10
1.74903e-11
-1.31454e-10
1.5933e-11
-1.29898e-10
1.17807e-11
-1.00224e-10
4.21918e-12
3.81962e-08
4.62342e-10
1.10983e-06
1.66406e-08
8.78983e-06
1.12575e-07
3.69695e-05
4.44774e-07
5.93888e-05
7.18356e-06
6.56962e-05
1.40197e-05
6.97521e-05
1.91163e-05
2.24923e-05
4.15051e-18
3.65649e-17
1.41127e-19
2.79107e-17
-1.06684e-18
8.35559e-18
-9.68589e-19
4.03024e-18
-7.2103e-19
2.12669e-18
-6.15031e-19
1.53253e-18
-1.33063e-13
9.59079e-14
-2.30059e-13
1.3589e-13
-3.52936e-12
1.30137e-13
-8.94595e-12
1.79965e-13
-1.7682e-11
1.05673e-12
-3.63211e-11
5.81163e-12
-6.35603e-11
1.52154e-11
-8.96813e-11
2.59808e-11
-1.05281e-10
3.37581e-11
-1.06954e-10
3.62512e-11
-9.70464e-11
3.38281e-11
-8.05364e-11
2.83635e-11
-6.22475e-11
2.18864e-11
-4.54607e-11
1.58294e-11
-3.17472e-11
1.08916e-11
-2.14186e-11
7.2215e-12
-1.4091e-11
4.66793e-12
-9.12104e-12
2.97448e-12
-5.86539e-12
1.89002e-12
-3.79874e-12
1.21497e-12
-2.54001e-12
8.09822e-13
-1.83474e-12
5.84473e-13
-2.25772e-12
5.7207e-13
-6.15612e-12
9.88184e-13
-1.7321e-11
2.0987e-12
-3.89604e-11
3.92633e-12
-7.12698e-11
6.0167e-12
-1.10212e-10
7.49533e-12
-1.48383e-10
7.5288e-12
-1.76095e-10
5.76576e-12
-2.00157e-10
1.97963e-12
2.58846e-10
3.44715e-12
1.63741e-08
4.49297e-10
1.25731e-07
3.61438e-09
1.34187e-06
4.43981e-08
1.06522e-05
2.68152e-07
3.60502e-05
8.09657e-07
6.36665e-05
6.85744e-06
1.52991e-05
1.18428e-18
2.09613e-17
-6.31365e-19
1.60316e-17
-9.24614e-19
5.06044e-18
-7.71697e-19
2.31964e-18
-5.80361e-19
1.29227e-18
-5.50199e-19
1.1571e-18
-4.28761e-14
1.98942e-18
-7.25259e-14
6.02665e-17
-8.02217e-14
3.15228e-15
-1.24861e-13
2.30051e-14
-8.09101e-13
2.44221e-13
-4.83869e-12
1.43027e-12
-1.3626e-11
3.80929e-12
-2.48299e-11
6.59543e-12
-3.42388e-11
8.69611e-12
-3.88716e-11
9.4946e-12
-3.82544e-11
9.03502e-12
-3.37793e-11
7.75866e-12
-2.74386e-11
6.16935e-12
-2.09007e-11
4.63694e-12
-1.5167e-11
3.35251e-12
-1.063e-11
2.36778e-12
-7.28608e-12
1.65561e-12
-4.94266e-12
1.15902e-12
-3.36006e-12
8.20255e-13
-2.32678e-12
5.93634e-13
-1.6863e-12
4.48268e-13
-1.33745e-12
3.65263e-13
-1.45497e-12
3.32684e-13
-2.83347e-12
3.40664e-13
-6.92477e-12
3.77505e-13
-1.53615e-11
4.26922e-13
-2.91968e-11
4.67244e-13
-4.82513e-11
4.73883e-13
-7.08149e-11
4.26082e-13
-9.3792e-11
3.10165e-13
-1.13674e-10
1.18999e-13
-1.23316e-10
-2.3293e-12
2.9728e-10
1.03738e-11
4.09941e-09
1.06646e-10
4.81174e-08
1.69526e-09
3.06399e-07
1.35246e-08
1.28118e-06
5.64933e-08
1.00641e-05
3.67021e-07
8.64362e-07
1.53381e-19
8.99163e-18
-7.99654e-19
6.22647e-18
-6.3186e-19
2.14598e-18
-4.65264e-19
9.7036e-19
-3.59786e-19
6.32864e-19
-4.16483e-19
8.3692e-19
-8.82644e-19
1.89948e-18
-3.17721e-17
5.04065e-18
-1.91742e-15
1.55466e-17
-1.57664e-14
5.25541e-16
-1.85083e-13
1.0791e-14
-1.1813e-12
7.68536e-14
-3.3911e-12
2.3213e-13
-6.2765e-12
4.50387e-13
-8.79383e-12
6.64958e-13
-1.01596e-11
8.17432e-13
-1.02012e-11
8.85408e-13
-9.22772e-12
8.79132e-13
-7.72389e-12
8.23738e-13
-6.11278e-12
7.43796e-13
-4.65926e-12
6.56293e-13
-3.47665e-12
5.70324e-13
-2.57627e-12
4.89733e-13
-1.919e-12
4.16016e-13
-1.45243e-12
3.5037e-13
-1.13176e-12
2.94728e-13
-9.28164e-13
2.51948e-13
-8.29811e-13
2.25271e-13
-8.39117e-13
2.1723e-13
-9.68428e-13
2.28356e-13
-1.23491e-12
2.55946e-13
-1.65499e-12
2.93049e-13
-2.23818e-12
3.28081e-13
-2.98008e-12
3.4579e-13
-3.8539e-12
3.29709e-13
-4.80453e-12
2.64636e-13
-5.75098e-12
1.39604e-13
-7.79645e-12
-6.68431e-14
2.49901e-12
7.60755e-14
1.02645e-10
6.09637e-12
1.61916e-09
6.04281e-11
1.56369e-08
6.0126e-10
7.10464e-08
2.9024e-09
4.1866e-07
2.31539e-08
6.33596e-08
-8.64347e-20
2.70605e-18
-4.36777e-19
1.5948e-18
-2.97701e-19
6.10496e-19
-2.03352e-19
2.99913e-19
-1.79095e-19
3.0578e-19
-3.00934e-19
6.74705e-19
-8.32674e-19
1.87093e-18
-2.60932e-18
5.16928e-18
-9.25985e-18
1.18948e-17
-3.52548e-16
2.33795e-17
-8.01245e-15
1.62721e-16
-6.22905e-14
1.56778e-15
-2.03145e-13
7.06597e-15
-4.22033e-13
2.03441e-14
-6.63017e-13
4.40079e-14
-8.63337e-13
7.7916e-14
-9.87431e-13
1.18795e-13
-1.03324e-12
1.61193e-13
-1.01934e-12
1.99139e-13
-9.6917e-13
2.27726e-13
-9.01379e-13
2.44104e-13
-8.27288e-13
2.47724e-13
-7.5248e-13
2.39995e-13
-6.79746e-13
2.23673e-13
-6.11855e-13
2.02268e-13
-5.53648e-13
1.79588e-13
-5.13263e-13
1.59408e-13
-5.02571e-13
1.45138e-13
-5.37007e-13
1.39399e-13
-6.34931e-13
1.43528e-13
-8.16541e-13
1.57058e-13
-1.10223e-12
1.77237e-13
-1.5102e-12
1.98756e-13
-2.05315e-12
2.1395e-13
-2.73384e-12
2.13543e-13
-3.5408e-12
1.87712e-13
-4.44533e-12
1.2773e-13
-5.40604e-12
2.84153e-14
-5.78659e-12
-1.63891e-13
2.97036e-13
1.02583e-14
5.58377e-11
4.61297e-12
6.32141e-10
2.65352e-11
3.23876e-09
1.42422e-10
2.60341e-08
1.31626e-09
4.07875e-09
-6.90009e-20
6.19543e-19
-1.36349e-19
3.01759e-19
-9.12589e-20
1.33542e-19
-6.4661e-20
9.22806e-20
-8.69159e-20
2.02593e-19
-2.39987e-19
6.27086e-19
-8.03205e-19
1.89408e-18
-2.60452e-18
5.27531e-18
-6.87379e-18
1.1905e-17
-1.52009e-17
2.27956e-17
-1.17147e-16
1.27269e-16
-1.23348e-15
9.83288e-16
-6.01163e-15
4.19195e-15
-1.85618e-14
1.19039e-14
-4.27851e-14
2.57469e-14
-8.03334e-14
4.57951e-14
-1.2945e-13
7.02334e-14
-1.85235e-13
9.58525e-14
-2.41051e-13
1.19041e-13
-2.90322e-13
1.36786e-13
-3.28032e-13
1.47326e-13
-3.51522e-13
1.50322e-13
-3.6059e-13
1.46632e-13
-3.57165e-13
1.37901e-13
-3.4492e-13
1.26141e-13
-3.29047e-13
1.13424e-13
-3.16216e-13
1.01689e-13
-3.14603e-13
9.26143e-14
-3.33926e-13
8.74809e-14
-3.85399e-13
8.70063e-14
-4.81525e-13
9.11527e-14
-6.35661e-13
9.89346e-14
-8.61264e-13
1.08291e-13
-1.1707e-12
1.16102e-13
-1.57365e-12
1.184e-13
-2.07547e-12
1.10707e-13
-2.67538e-12
8.85511e-14
-3.36456e-12
4.80561e-14
-4.15614e-12
-2.93722e-14
-4.27618e-12
-1.76249e-13
2.65352e-13
1.60037e-14
2.38276e-11
2.36855e-12
1.61284e-10
7.56661e-12
1.41964e-09
7.20241e-11
2.66569e-10
-2.51663e-20
1.4417e-19
-2.90946e-20
6.02452e-20
-2.0811e-20
3.181e-20
-2.00471e-20
4.64326e-20
-5.69263e-20
1.79176e-19
-2.17776e-19
6.20728e-19
-7.8734e-19
1.92063e-18
-2.56001e-18
5.29953e-18
-6.60681e-18
1.16405e-17
-1.42175e-17
2.164e-17
-8.79035e-17
1.09439e-16
-7.429e-16
7.43321e-16
-3.42946e-15
2.96122e-15