/*--------------------------------*- C++ -*----------------------------------*\
  =========                 |
  \\      /  F ield         | OpenFOAM: The Open Source CFD Toolbox
   \\    /   O peration     | Website:  https://openfoam.org
    \\  /    A nd           | Version:  7
     \\/     M anipulation  |
\*---------------------------------------------------------------------------*/
FoamFile
{
    version     2.0;
    format      ascii;
    class       volVectorField;
    location    "0.4";
    object      U;
}
// * * * * * * * * * * * * * * * * * * * * * * * * * * * * * * * * * * * * * //

dimensions      [0 1 -1 0 0 0 0];

internalField   nonuniform List<vector> 
1935
(
(-0.0360696 0.019161 0)
(-0.0620423 0.00785079 0)
(-0.0616566 -0.00640729 0)
(-0.0446519 -0.0135043 0)
(-0.020094 -0.0161151 0)
(0.00795962 -0.0165211 0)
(0.0368958 -0.0160669 0)
(0.065242 -0.0151913 0)
(0.0924882 -0.0142173 0)
(0.11845 -0.0132948 0)
(0.143169 -0.012483 0)
(0.166791 -0.0118001 0)
(0.18949 -0.0112423 0)
(0.211431 -0.0107942 0)
(0.232759 -0.0104363 0)
(0.253589 -0.0101479 0)
(0.274003 -0.00990911 0)
(0.294054 -0.00970192 0)
(0.313767 -0.00950989 0)
(0.333137 -0.00931795 0)
(0.352134 -0.00911172 0)
(0.3707 -0.00887688 0)
(0.388749 -0.00859851 0)
(0.406163 -0.00826045 0)
(0.422791 -0.00784428 0)
(0.438439 -0.0073281 0)
(0.452864 -0.00668451 0)
(0.465757 -0.00587715 0)
(0.476718 -0.00485525 0)
(0.485238 -0.00353013 0)
(0.490573 -0.00174251 0)
(0.491935 0.000895535 0)
(0.486794 0.00449864 0)
(0.473865 0.0090957 0)
(0.451674 0.0147337 0)
(0.418477 0.0213897 0)
(0.372591 0.0288517 0)
(0.31285 0.0365713 0)
(0.239193 0.0435613 0)
(0.153191 0.048575 0)
(0.0585573 0.0507424 0)
(-0.0387412 0.0534288 0)
(-0.156669 0.0398623 0)
(-0.232185 -0.00615566 0)
(-0.0322976 0.0472653 0)
(-0.0317447 0.0157181 0)
(-0.022446 -0.0096798 0)
(-0.00569307 -0.0237979 0)
(0.0168166 -0.0303897 0)
(0.0421353 -0.0327515 0)
(0.0685442 -0.0329739 0)
(0.0949574 -0.0321448 0)
(0.120847 -0.0308978 0)
(0.145987 -0.0295698 0)
(0.170331 -0.0283272 0)
(0.193926 -0.0272409 0)
(0.21686 -0.0263279 0)
(0.239231 -0.0255764 0)
(0.261128 -0.0249603 0)
(0.282623 -0.0244475 0)
(0.303768 -0.0240047 0)
(0.32459 -0.0235991 0)
(0.345096 -0.0231993 0)
(0.365265 -0.0227745 0)
(0.385058 -0.0222945 0)
(0.404406 -0.0217275 0)
(0.423217 -0.0210396 0)
(0.44137 -0.0201931 0)
(0.458711 -0.0191442 0)
(0.475043 -0.0178403 0)
(0.490127 -0.0162162 0)
(0.503665 -0.0141878 0)
(0.51529 -0.0116422 0)
(0.524561 -0.00841283 0)
(0.530941 -0.00426198 0)
(0.533938 0.00120488 0)
(0.533446 0.00831128 0)
(0.528306 0.017239 0)
(0.517078 0.0281816 0)
(0.49808 0.0412785 0)
(0.46933 0.0564164 0)
(0.428549 0.0729664 0)
(0.373417 0.089537 0)
(0.30226 0.103944 0)
(0.215391 0.113686 0)
(0.120191 0.118234 0)
(0.0185172 0.106859 0)
(-0.0618431 0.0522186 0)
(-0.014012 0.0628942 0)
(-0.00649458 0.0108065 0)
(0.00441011 -0.0208243 0)
(0.0216554 -0.0383327 0)
(0.0428059 -0.0470859 0)
(0.0661999 -0.0506147 0)
(0.0906212 -0.051237 0)
(0.115277 -0.0503555 0)
(0.139729 -0.0488111 0)
(0.163766 -0.0470801 0)
(0.187309 -0.0454132 0)
(0.21036 -0.0439266 0)
(0.232958 -0.0426572 0)
(0.255155 -0.0415975 0)
(0.277003 -0.0407162 0)
(0.298542 -0.0399709 0)
(0.319798 -0.0393147 0)
(0.340781 -0.0387004 0)
(0.361478 -0.0380812 0)
(0.381859 -0.0374109 0)
(0.401875 -0.0366425 0)
(0.42145 -0.0357268 0)
(0.440489 -0.0346106 0)
(0.458868 -0.0332341 0)
(0.476432 -0.031528 0)
(0.492989 -0.0294098 0)
(0.508307 -0.0267784 0)
(0.522104 -0.0235082 0)
(0.534039 -0.0194395 0)
(0.543712 -0.0143663 0)
(0.550655 -0.00803009 0)
(0.554344 -9.77736e-05 0)
(0.554357 0.00987059 0)
(0.550062 0.0223025 0)
(0.540661 0.0375877 0)
(0.525228 0.0560366 0)
(0.502721 0.0777009 0)
(0.471937 0.10208 0)
(0.431475 0.12774 0)
(0.37985 0.151958 0)
(0.316041 0.170616 0)
(0.243011 0.17866 0)
(0.165212 0.164442 0)
(0.0882939 0.103816 0)
(0.00128283 0.063031 0)
(0.0107562 0.00427755 0)
(0.0243527 -0.032247 0)
(0.0425554 -0.0529462 0)
(0.0632712 -0.0636006 0)
(0.0854739 -0.0681279 0)
(0.108435 -0.0691374 0)
(0.131658 -0.0682783 0)
(0.154848 -0.0665557 0)
(0.177846 -0.0645529 0)
(0.20058 -0.062586 0)
(0.223029 -0.0608072 0)
(0.245201 -0.0592703 0)
(0.267117 -0.0579719 0)
(0.288798 -0.0568774 0)
(0.310258 -0.0559361 0)
(0.3315 -0.0550906 0)
(0.352516 -0.0542812 0)
(0.37328 -0.0534478 0)
(0.393753 -0.0525299 0)
(0.413875 -0.0514657 0)
(0.433568 -0.0501895 0)
(0.452733 -0.0486299 0)
(0.471244 -0.046706 0)
(0.48895 -0.0443246 0)
(0.505666 -0.0413752 0)
(0.521168 -0.0377244 0)
(0.535192 -0.0332097 0)
(0.547424 -0.0276307 0)
(0.557502 -0.0207408 0)
(0.565014 -0.0122403 0)
(0.569498 -0.00176353 0)
(0.570507 0.0111415 0)
(0.567545 0.026955 0)
(0.560069 0.046129 0)
(0.547506 0.0690241 0)
(0.52927 0.0957516 0)
(0.504742 0.125909 0)
(0.473202 0.158184 0)
(0.433744 0.189839 0)
(0.385275 0.216115 0)
(0.327728 0.229728 0)
(0.262434 0.217668 0)
(0.188261 0.159627 0)
(0.00873658 0.0532311 0)
(0.0214975 -0.00580158 0)
(0.0387144 -0.0453865 0)
(0.0585157 -0.06802 0)
(0.0794175 -0.079806 0)
(0.100985 -0.0849505 0)
(0.122934 -0.0862433 0)
(0.145053 -0.0854594 0)
(0.167208 -0.0836877 0)
(0.189315 -0.0815678 0)
(0.211326 -0.0794531 0)
(0.233217 -0.0775179 0)
(0.254979 -0.0758274 0)
(0.276608 -0.0743821 0)
(0.298103 -0.0731456 0)
(0.319456 -0.072062 0)
(0.340652 -0.0710658 0)
(0.361666 -0.070088 0)
(0.382463 -0.0690577 0)
(0.402991 -0.0679026 0)
(0.423186 -0.0665476 0)
(0.442967 -0.0649127 0)
(0.462232 -0.0629096 0)
(0.480858 -0.0604386 0)
(0.498697 -0.0573846 0)
(0.515571 -0.0536119 0)
(0.531271 -0.0489591 0)
(0.545551 -0.043232 0)
(0.558124 -0.0361974 0)
(0.568668 -0.0275757 0)
(0.576821 -0.0170368 0)
(0.582188 -0.00419296 0)
(0.584376 0.0114138 0)
(0.582983 0.0302747 0)
(0.57761 0.0528504 0)
(0.567872 0.0794966 0)
(0.553403 0.110321 0)
(0.533826 0.144954 0)
(0.508674 0.182187 0)
(0.477231 0.21946 0)
(0.438317 0.25211 0)
(0.39042 0.272422 0)
(0.331572 0.267575 0)
(0.257998 0.219176 0)
(0.010676 0.0404029 0)
(0.0279034 -0.0197861 0)
(0.0489727 -0.0605992 0)
(0.0705995 -0.083853 0)
(0.091978 -0.0959254 0)
(0.113239 -0.101229 0)
(0.134491 -0.102619 0)
(0.155778 -0.101887 0)
(0.177111 -0.100132 0)
(0.198483 -0.0980011 0)
(0.21988 -0.0958551 0)
(0.241284 -0.093875 0)
(0.262677 -0.0921296 0)
(0.284041 -0.0906202 0)
(0.305358 -0.0893089 0)
(0.326603 -0.0881355 0)
(0.347745 -0.0870291 0)
(0.368748 -0.0859131 0)
(0.389565 -0.0847083 0)
(0.410137 -0.0833328 0)
(0.430396 -0.0817004 0)
(0.450257 -0.0797183 0)
(0.469618 -0.0772836 0)
(0.48836 -0.0742799 0)
(0.506341 -0.0705727 0)
(0.523392 -0.0660048 0)
(0.539319 -0.0603902 0)
(0.553895 -0.0535092 0)
(0.566863 -0.0451023 0)
(0.577936 -0.0348658 0)
(0.586803 -0.022449 0)
(0.593133 -0.00745117 0)
(0.596598 0.0105837 0)
(0.596883 0.0321376 0)
(0.593686 0.0576585 0)
(0.586736 0.0874856 0)
(0.575773 0.121722 0)
(0.560515 0.160038 0)
(0.540549 0.201366 0)
(0.515146 0.243441 0)
(0.482948 0.282074 0)
(0.441616 0.310116 0)
(0.387089 0.315864 0)
(0.312872 0.282336 0)
(0.0115187 0.0259844 0)
(0.0326499 -0.0369396 0)
(0.0567453 -0.077766 0)
(0.0798776 -0.1005 0)
(0.101695 -0.112124 0)
(0.122769 -0.117178 0)
(0.143511 -0.118476 0)
(0.164156 -0.117743 0)
(0.184832 -0.11603 0)
(0.2056 -0.113952 0)
(0.226477 -0.111856 0)
(0.247457 -0.109914 0)
(0.268521 -0.108191 0)
(0.289642 -0.106685 0)
(0.31079 -0.105355 0)
(0.331927 -0.104138 0)
(0.353011 -0.102957 0)
(0.373995 -0.10173 0)
(0.394824 -0.100373 0)
(0.415432 -0.0987943 0)
(0.435748 -0.0968994 0)
(0.455684 -0.0945845 0)
(0.475142 -0.0917344 0)
(0.494006 -0.0882179 0)
(0.512139 -0.083884 0)
(0.529387 -0.0785568 0)
(0.545568 -0.0720302 0)
(0.560478 -0.0640635 0)
(0.573887 -0.0543771 0)
(0.585544 -0.0426509 0)
(0.595185 -0.0285226 0)
(0.602537 -0.0115875 0)
(0.60734 0.00860234 0)
(0.609357 0.0325124 0)
(0.608365 0.0605737 0)
(0.60417 0.0931128 0)
(0.596578 0.130243 0)
(0.585343 0.171702 0)
(0.570059 0.216611 0)
(0.549941 0.26309 0)
(0.523472 0.307644 0)
(0.487791 0.344222 0)
(0.43753 0.362925 0)
(0.363675 0.349079 0)
(0.0129847 0.00966113 0)
(0.0370162 -0.0565217 0)
(0.0631353 -0.0963687 0)
(0.0872281 -0.117728 0)
(0.109275 -0.128372 0)
(0.13015 -0.132879 0)
(0.150463 -0.133938 0)
(0.170578 -0.133154 0)
(0.190706 -0.13149 0)
(0.210957 -0.129508 0)
(0.231379 -0.12752 0)
(0.251977 -0.12568 0)
(0.272734 -0.124041 0)
(0.29362 -0.122594 0)
(0.314596 -0.121293 0)
(0.335617 -0.120071 0)
(0.356631 -0.118849 0)
(0.377581 -0.117538 0)
(0.398406 -0.116049 0)
(0.419037 -0.114285 0)
(0.439397 -0.112144 0)
(0.4594 -0.109513 0)
(0.478949 -0.106266 0)
(0.497933 -0.102261 0)
(0.516225 -0.097331 0)
(0.53368 -0.091286 0)
(0.550135 -0.0839031 0)
(0.565406 -0.0749245 0)
(0.579289 -0.0640562 0)
(0.591567 -0.0509679 0)
(0.60202 -0.0352943 0)
(0.61043 -0.0166352 0)
(0.616598 0.00544297 0)
(0.620366 0.0313866 0)
(0.621579 0.0616112 0)
(0.620113 0.0964377 0)
(0.61583 0.136004 0)
(0.608525 0.180139 0)
(0.597817 0.228176 0)
(0.582932 0.278673 0)
(0.562326 0.32895 0)
(0.532956 0.374393 0)
(0.488826 0.407523 0)
(0.418829 0.417135 0)
(0.0149227 -0.00882546 0)
(0.0412477 -0.0778782 0)
(0.0686807 -0.115855 0)
(0.0932677 -0.135243 0)
(0.115328 -0.144565 0)
(0.135945 -0.148333 0)
(0.15585 -0.149054 0)
(0.175484 -0.148182 0)
(0.195116 -0.146572 0)
(0.214893 -0.144715 0)
(0.234887 -0.14288 0)
(0.255115 -0.141191 0)
(0.275565 -0.139686 0)
(0.296205 -0.138345 0)
(0.316992 -0.137117 0)
(0.337873 -0.135928 0)
(0.358791 -0.134694 0)
(0.379683 -0.133324 0)
(0.400478 -0.131725 0)
(0.421106 -0.129794 0)
(0.441488 -0.127424 0)
(0.461537 -0.124496 0)
(0.48116 -0.120875 0)
(0.500252 -0.116408 0)
(0.518694 -0.110918 0)
(0.536355 -0.104201 0)
(0.553088 -0.0960225 0)
(0.56873 -0.0861105 0)
(0.583102 -0.0741605 0)
(0.596018 -0.0598381 0)
(0.607295 -0.0427824 0)
(0.616767 -0.0226068 0)
(0.624297 0.00110123 0)
(0.629795 0.0287655 0)
(0.633185 0.0607874 0)
(0.634411 0.0974871 0)
(0.633405 0.139035 0)
(0.630032 0.185351 0)
(0.623992 0.23598 0)
(0.614644 0.289908 0)
(0.600653 0.345285 0)
(0.579266 0.399057 0)
(0.544795 0.44659 0)
(0.485097 0.481662 0)
(0.0170609 -0.0295564 0)
(0.0453248 -0.10057 0)
(0.0736354 -0.135843 0)
(0.0984339 -0.152834 0)
(0.120371 -0.160612 0)
(0.140678 -0.163518 0)
(0.160163 -0.163834 0)
(0.179322 -0.162847 0)
(0.198464 -0.161293 0)
(0.21777 -0.159585 0)
(0.237329 -0.157938 0)
(0.257172 -0.156442 0)
(0.277291 -0.155115 0)
(0.297655 -0.153922 0)
(0.318217 -0.152804 0)
(0.338921 -0.151682 0)
(0.359704 -0.150467 0)
(0.380495 -0.149064 0)
(0.401223 -0.147376 0)
(0.421809 -0.145298 0)
(0.442176 -0.14272 0)
(0.462238 -0.139516 0)
(0.481904 -0.135545 0)
(0.501076 -0.130646 0)
(0.519644 -0.124634 0)
(0.53749 -0.117297 0)
(0.554486 -0.108387 0)
(0.570489 -0.0976231 0)
(0.585344 -0.0846928 0)
(0.598889 -0.069262 0)
(0.610974 -0.0509819 0)
(0.62148 -0.0294885 0)
(0.630327 -0.00439912 0)
(0.637496 0.0246819 0)
(0.642993 0.0581386 0)
(0.646845 0.0962914 0)
(0.649067 0.139338 0)
(0.649627 0.187278 0)
(0.648374 0.239822 0)
(0.644925 0.2963 0)
(0.638413 0.355553 0)
(0.626945 0.415887 0)
(0.606422 0.475361 0)
(0.56637 0.533572 0)
(0.0191552 -0.052655 0)
(0.0491447 -0.124574 0)
(0.0781895 -0.156337 0)
(0.103113 -0.170558 0)
(0.12488 -0.176609 0)
(0.144845 -0.178545 0)
(0.163881 -0.178396 0)
(0.182536 -0.177269 0)
(0.201159 -0.175772 0)
(0.21996 -0.174233 0)
(0.239049 -0.172806 0)
(0.258467 -0.171543 0)
(0.27821 -0.170434 0)
(0.298249 -0.16943 0)
(0.318535 -0.16846 0)
(0.339008 -0.167439 0)
(0.359602 -0.166272 0)
(0.38024 -0.164861 0)
(0.400846 -0.163106 0)
(0.421339 -0.160901 0)
(0.44164 -0.158133 0)
(0.461665 -0.154673 0)
(0.481327 -0.150376 0)
(0.500534 -0.145075 0)
(0.519186 -0.138578 0)
(0.537179 -0.130667 0)
(0.554403 -0.121088 0)
(0.570738 -0.10955 0)
(0.586049 -0.0957334 0)
(0.600195 -0.0793066 0)
(0.613052 -0.059941 0)
(0.624538 -0.0373059 0)
(0.634631 -0.0110601 0)
(0.643381 0.0191542 0)
(0.650886 0.0536961 0)
(0.657264 0.0928822 0)
(0.662633 0.136929 0)
(0.667083 0.185882 0)
(0.670654 0.23955 0)
(0.673294 0.297454 0)
(0.674773 0.358828 0)
(0.674484 0.422752 0)
(0.671199 0.488856 0)
(0.661923 0.560224 0)
(0.021012 -0.07815 0)
(0.0526593 -0.149956 0)
(0.0825215 -0.177426 0)
(0.107627 -0.188501 0)
(0.129238 -0.192618 0)
(0.148838 -0.193459 0)
(0.167383 -0.192773 0)
(0.185483 -0.191474 0)
(0.203536 -0.190036 0)
(0.221781 -0.188687 0)
(0.240348 -0.187514 0)
(0.259286 -0.186522 0)
(0.278597 -0.185672 0)
(0.298251 -0.184897 0)
(0.3182 -0.184114 0)
(0.33838 -0.183228 0)
(0.358721 -0.18214 0)
(0.379143 -0.180747 0)
(0.399563 -0.178948 0)
(0.4199 -0.176636 0)
(0.440071 -0.173698 0)
(0.459996 -0.170003 0)
(0.479591 -0.165404 0)
(0.498771 -0.15973 0)
(0.517446 -0.152786 0)
(0.535524 -0.144351 0)
(0.552918 -0.134167 0)
(0.569533 -0.121935 0)
(0.585252 -0.107324 0)
(0.599951 -0.0900078 0)
(0.613519 -0.0696833 0)
(0.625907 -0.046067 0)
(0.637141 -0.0188737 0)
(0.647342 0.0122014 0)
(0.656706 0.047481 0)
(0.665454 0.0872728 0)
(0.67381 0.1318 0)
(0.681993 0.181123 0)
(0.690219 0.235066 0)
(0.698739 0.293178 0)
(0.707876 0.354739 0)
(0.71809 0.418885 0)
(0.730283 0.48515 0)
(0.746235 0.555399 0)
(0.0224932 -0.105777 0)
(0.0559038 -0.176686 0)
(0.0868301 -0.199137 0)
(0.11224 -0.20665 0)
(0.133716 -0.208579 0)
(0.152922 -0.208168 0)
(0.170923 -0.206858 0)
(0.188411 -0.205352 0)
(0.205837 -0.203971 0)
(0.223476 -0.202832 0)
(0.241471 -0.201944 0)
(0.25988 -0.20126 0)
(0.278706 -0.200706 0)
(0.297917 -0.200197 0)
(0.317465 -0.199636 0)
(0.337288 -0.19892 0)
(0.357309 -0.19794 0)
(0.377445 -0.19659 0)
(0.397608 -0.194768 0)
(0.417713 -0.19237 0)
(0.437679 -0.189282 0)
(0.457425 -0.185374 0)
(0.476874 -0.180499 0)
(0.495945 -0.174482 0)
(0.514556 -0.16713 0)
(0.532632 -0.158225 0)
(0.550107 -0.147509 0)
(0.566917 -0.134673 0)
(0.582969 -0.11937 0)
(0.598143 -0.101272 0)
(0.612336 -0.0801099 0)
(0.625515 -0.055661 0)
(0.637749 -0.0277154 0)
(0.649222 0.00395881 0)
(0.660234 0.0396333 0)
(0.67111 0.079603 0)
(0.682184 0.124093 0)
(0.693778 0.173158 0)
(0.706236 0.226588 0)
(0.719996 0.283839 0)
(0.735686 0.34403 0)
(0.75424 0.405971 0)
(0.777142 0.468371 0)
(0.806825 0.530425 0)
(0.0234728 -0.135392 0)
(0.0590701 -0.20494 0)
(0.0913809 -0.221624 0)
(0.117156 -0.225042 0)
(0.138453 -0.224453 0)
(0.1572 -0.2226 0)
(0.1746 -0.220568 0)
(0.191429 -0.218821 0)
(0.208197 -0.217501 0)
(0.225201 -0.216595 0)
(0.242596 -0.216024 0)
(0.260445 -0.215681 0)
(0.278746 -0.215457 0)
(0.297468 -0.215246 0)
(0.316561 -0.214939 0)
(0.335964 -0.214423 0)
(0.355599 -0.213579 0)
(0.375377 -0.212296 0)
(0.395205 -0.210471 0)
(0.414996 -0.208004 0)
(0.434669 -0.204784 0)
(0.454145 -0.200684 0)
(0.473349 -0.195557 0)
(0.492209 -0.189228 0)
(0.510648 -0.181504 0)
(0.5286 -0.17218 0)
(0.54603 -0.161008 0)
(0.562912 -0.147667 0)
(0.579182 -0.131781 0)
(0.594726 -0.113011 0)
(0.609434 -0.0911222 0)
(0.623276 -0.0659694 0)
(0.63635 -0.0374408 0)
(0.648896 -0.00540439 0)
(0.661305 0.0303403 0)
(0.674015 0.0700754 0)
(0.687456 0.114039 0)
(0.702029 0.162283 0)
(0.718135 0.214551 0)
(0.736277 0.270166 0)
(0.757162 0.328034 0)
(0.781784 0.386638 0)
(0.811498 0.4441 0)
(0.848192 0.498295 0)
(0.0236615 -0.166594 0)
(0.062648 -0.235087 0)
(0.0964767 -0.245009 0)
(0.122378 -0.243595 0)
(0.143299 -0.240117 0)
(0.161492 -0.236652 0)
(0.178258 -0.233833 0)
(0.194435 -0.231841 0)
(0.210566 -0.23061 0)
(0.226963 -0.229975 0)
(0.243781 -0.229763 0)
(0.261079 -0.229802 0)
(0.278851 -0.229944 0)
(0.297063 -0.230067 0)
(0.315668 -0.230051 0)
(0.334604 -0.229768 0)
(0.353795 -0.22909 0)
(0.373146 -0.227897 0)
(0.392562 -0.226089 0)
(0.411952 -0.223572 0)
(0.431236 -0.220237 0)
(0.450336 -0.21596 0)
(0.469183 -0.2106 0)
(0.48771 -0.20398 0)
(0.50584 -0.195905 0)
(0.523514 -0.186197 0)
(0.540729 -0.174632 0)
(0.557509 -0.160881 0)
(0.573834 -0.14452 0)
(0.589597 -0.125179 0)
(0.604682 -0.102658 0)
(0.619053 -0.0769005 0)
(0.632816 -0.0479133 0)
(0.646247 -0.0156973 0)
(0.659809 0.0198431 0)
(0.674049 0.0589723 0)
(0.689473 0.101962 0)
(0.706534 0.148898 0)
(0.725632 0.19951 0)
(0.747237 0.252996 0)
(0.771998 0.308072 0)
(0.80079 0.363 0)
(0.834679 0.415667 0)
(0.874911 0.46362 0)
(0.0229479 -0.199792 0)
(0.0678296 -0.267965 0)
(0.102321 -0.269291 0)
(0.12742 -0.262222 0)
(0.147562 -0.255646 0)
(0.165129 -0.250537 0)
(0.181334 -0.246947 0)
(0.196985 -0.244758 0)
(0.212619 -0.243677 0)
(0.228536 -0.243373 0)
(0.244881 -0.243577 0)
(0.261706 -0.244048 0)
(0.279003 -0.244602 0)
(0.296734 -0.245101 0)
(0.314855 -0.245412 0)
(0.333307 -0.245401 0)
(0.352017 -0.24492 0)
(0.370888 -0.243843 0)
(0.389822 -0.242071 0)
(0.40873 -0.239517 0)
(0.427532 -0.236076 0)
(0.446148 -0.231628 0)
(0.464516 -0.226038 0)
(0.482572 -0.219127 0)
(0.500238 -0.210698 0)
(0.517456 -0.200606 0)
(0.534246 -0.188671 0)
(0.550688 -0.174569 0)
(0.56682 -0.15782 0)
(0.582573 -0.138004 0)
(0.597845 -0.114949 0)
(0.612611 -0.0886805 0)
(0.626968 -0.0593149 0)
(0.641179 -0.0269995 0)
(0.655734 0.00820338 0)
(0.671248 0.0464997 0)
(0.688292 0.0882081 0)
(0.707356 0.133475 0)
(0.728792 0.182086 0)
(0.752968 0.23316 0)
(0.780414 0.285284 0)
(0.811826 0.336575 0)
(0.847964 0.384882 0)
(0.889491 0.427794 0)
(0.0259629 -0.238203 0)
(0.0772906 -0.303238 0)
(0.10828 -0.293334 0)
(0.130626 -0.280679 0)
(0.149631 -0.271414 0)
(0.166735 -0.264818 0)
(0.182708 -0.260468 0)
(0.19819 -0.25804 0)
(0.213657 -0.257042 0)
(0.229375 -0.256981 0)
(0.245473 -0.257511 0)
(0.262005 -0.25832 0)
(0.278966 -0.259187 0)
(0.296322 -0.259967 0)
(0.314032 -0.260518 0)
(0.332038 -0.260698 0)
(0.350267 -0.260342 0)
(0.368629 -0.25931 0)
(0.387036 -0.25751 0)
(0.405402 -0.254865 0)
(0.423644 -0.251274 0)
(0.441686 -0.24662 0)
(0.459459 -0.24079 0)
(0.476897 -0.2336 0)
(0.493932 -0.224834 0)
(0.51052 -0.214406 0)
(0.526674 -0.2022 0)
(0.542478 -0.18793 0)
(0.558028 -0.171049 0)
(0.573364 -0.151061 0)
(0.588507 -0.127822 0)
(0.603515 -0.101429 0)
(0.618499 -0.0720656 0)
(0.633642 -0.0399473 0)
(0.649309 -0.00520828 0)
(0.666026 0.0323035 0)
(0.684389 0.0727736 0)
(0.704983 0.11632 0)
(0.728104 0.162869 0)
(0.754032 0.21147 0)
(0.783127 0.260678 0)
(0.815909 0.308547 0)
(0.852891 0.353035 0)
(0.894307 0.391955 0)
(0.0502705 -0.2815 0)
(0.0959182 -0.338041 0)
(0.111181 -0.31333 0)
(0.129146 -0.296693 0)
(0.147438 -0.285701 0)
(0.164771 -0.27785 0)
(0.181234 -0.27265 0)
(0.197212 -0.269778 0)
(0.213049 -0.26861 0)
(0.228995 -0.268528 0)
(0.245179 -0.269129 0)
(0.261664 -0.270038 0)
(0.278489 -0.271006 0)
(0.29564 -0.271881 0)
(0.313074 -0.272505 0)
(0.33072 -0.272729 0)
(0.348496 -0.27237 0)
(0.366346 -0.27128 0)
(0.384215 -0.269375 0)
(0.402024 -0.266588 0)
(0.419677 -0.262819 0)
(0.437107 -0.257959 0)
(0.454227 -0.251918 0)
(0.470914 -0.244505 0)
(0.487183 -0.235492 0)
(0.503072 -0.224869 0)
(0.518497 -0.212575 0)
(0.533369 -0.198341 0)
(0.547757 -0.181548 0)
(0.56199 -0.161671 0)
(0.576429 -0.138622 0)
(0.591363 -0.112569 0)
(0.60703 -0.0838055 0)
(0.62355 -0.0527604 0)
(0.641002 -0.0196585 0)
(0.659454 0.0161483 0)
(0.679119 0.0551291 0)
(0.700764 0.0971679 0)
(0.724761 0.142069 0)
(0.751571 0.188496 0)
(0.78138 0.235108 0)
(0.814543 0.279887 0)
(0.851383 0.321082 0)
(0.891859 0.356855 0)
(0.131158 -0.341726 0)
(0.126293 -0.363768 0)
(0.104504 -0.321255 0)
(0.120973 -0.30674 0)
(0.1407 -0.295779 0)
(0.159588 -0.287268 0)
(0.177592 -0.281494 0)
(0.194925 -0.27829 0)
(0.211756 -0.276936 0)
(0.228385 -0.276729 0)
(0.244988 -0.277267 0)
(0.26166 -0.278121 0)
(0.278537 -0.279031 0)
(0.295629 -0.279847 0)
(0.312887 -0.280384 0)
(0.33022 -0.280498 0)
(0.347532 -0.279988 0)
(0.364833 -0.278701 0)
(0.382122 -0.276564 0)
(0.399306 -0.273524 0)
(0.416255 -0.269482 0)
(0.432936 -0.26433 0)
(0.449225 -0.25803 0)
(0.464864 -0.250399 0)
(0.480056 -0.241169 0)
(0.495004 -0.230448 0)
(0.509415 -0.218207 0)
(0.52284 -0.204186 0)
(0.535334 -0.187642 0)
(0.547727 -0.168089 0)
(0.560863 -0.145578 0)
(0.575457 -0.120339 0)
(0.592319 -0.0924984 0)
(0.611771 -0.062157 0)
(0.632693 -0.0302658 0)
(0.653445 0.00285367 0)
(0.674345 0.0380773 0)
(0.696982 0.0765693 0)
(0.721068 0.119434 0)
(0.747719 0.164163 0)
(0.777178 0.208874 0)
(0.80981 0.251143 0)
(0.845756 0.289642 0)
(0.884759 0.322904 0)
(0.292692 -0.447226 0)
(0.105825 -0.321836 0)
(0.0844979 -0.312646 0)
(0.109663 -0.31225 0)
(0.131886 -0.302435 0)
(0.153505 -0.29427 0)
(0.173978 -0.289055 0)
(0.193269 -0.286556 0)
(0.211417 -0.286013 0)
(0.228931 -0.286777 0)
(0.246109 -0.288393 0)
(0.263123 -0.290459 0)
(0.280218 -0.292705 0)
(0.29742 -0.29485 0)
(0.314696 -0.29667 0)
(0.331955 -0.297925 0)
(0.349153 -0.298549 0)
(0.366385 -0.298547 0)
(0.383658 -0.297744 0)
(0.400864 -0.295864 0)
(0.417869 -0.292755 0)
(0.434613 -0.288257 0)
(0.450684 -0.281686 0)
(0.465726 -0.273166 0)
(0.480173 -0.263342 0)
(0.493328 -0.250791 0)
(0.504921 -0.235263 0)
(0.51498 -0.2176 0)
(0.524252 -0.198624 0)
(0.533762 -0.177885 0)
(0.54428 -0.15485 0)
(0.556359 -0.129364 0)
(0.570829 -0.101302 0)
(0.589504 -0.0703408 0)
(0.616158 -0.0380534 0)
(0.646307 -0.00620457 0)
(0.671732 0.0272981 0)
(0.694916 0.0623627 0)
(0.718777 0.0995279 0)
(0.745463 0.139068 0)
(0.773639 0.181642 0)
(0.804859 0.222013 0)
(0.839053 0.258693 0)
(0.876 0.290164 0)
(-0.0250973 -0.671376 0)
(0.00337652 -0.260819 0)
(0.0457247 -0.304302 0)
(0.0779753 -0.362727 0)
(0.105711 -0.358893 0)
(0.135594 -0.34735 0)
(0.164371 -0.338754 0)
(0.191218 -0.333066 0)
(0.216281 -0.329952 0)
(0.239949 -0.328904 0)
(0.26255 -0.329193 0)
(0.284346 -0.33025 0)
(0.305554 -0.331624 0)
(0.326293 -0.33285 0)
(0.34667 -0.333596 0)
(0.366767 -0.333674 0)
(0.386662 -0.333064 0)
(0.406294 -0.331585 0)
(0.425656 -0.329018 0)
(0.444735 -0.325192 0)
(0.463478 -0.320027 0)
(0.481808 -0.313403 0)
(0.499776 -0.305299 0)
(0.517216 -0.295825 0)
(0.533947 -0.284922 0)
(0.550266 -0.272332 0)
(0.565807 -0.257476 0)
(0.579773 -0.240347 0)
(0.592393 -0.222056 0)
(0.603943 -0.203131 0)
(0.614581 -0.183309 0)
(0.62409 -0.162496 0)
(0.632676 -0.140728 0)
(0.64269 -0.117752 0)
(0.633404 -0.0827556 0)
(0.628544 -0.0294802 0)
(0.652641 0.014622 0)
(0.687727 0.0532735 0)
(0.719789 0.0882512 0)
(0.745711 0.123647 0)
(0.773123 0.159422 0)
(0.8039 0.193489 0)
(0.835546 0.227805 0)
(0.869591 0.258114 0)
(0.905673 0.282956 0)
(-0.11685 -0.52387 0)
(-0.0411979 -0.349938 0)
(0.0224205 -0.356109 0)
(0.0650181 -0.373895 0)
(0.0987137 -0.368698 0)
(0.132489 -0.357404 0)
(0.165462 -0.347853 0)
(0.196653 -0.34114 0)
(0.22597 -0.337031 0)
(0.253593 -0.335012 0)
(0.279756 -0.334443 0)
(0.304739 -0.334763 0)
(0.328762 -0.335511 0)
(0.351978 -0.336289 0)
(0.374541 -0.336791 0)
(0.396588 -0.336804 0)
(0.418217 -0.3362 0)
(0.439452 -0.334833 0)
(0.460314 -0.332519 0)
(0.480813 -0.329064 0)
(0.500939 -0.324301 0)
(0.520653 -0.318053 0)
(0.539966 -0.310159 0)
(0.558827 -0.300614 0)
(0.577048 -0.289367 0)
(0.594544 -0.275975 0)
(0.611322 -0.260096 0)
(0.62732 -0.242106 0)
(0.642352 -0.222732 0)
(0.656002 -0.202072 0)
(0.667875 -0.179707 0)
(0.677622 -0.155274 0)
(0.684539 -0.128444 0)
(0.689734 -0.0998629 0)
(0.690129 -0.0749552 0)
(0.696163 -0.059086 0)
(0.692218 -0.0368777 0)
(0.679466 0.0158043 0)
(0.70233 0.0717414 0)
(0.737072 0.113116 0)
(0.779792 0.146552 0)
(0.809608 0.176286 0)
(0.838393 0.204473 0)
(0.87023 0.228727 0)
(0.90255 0.251411 0)
(-0.0585311 -0.444061 0)
(-0.029799 -0.412904 0)
(0.02493 -0.40378 0)
(0.066565 -0.403845 0)
(0.102799 -0.396258 0)
(0.138306 -0.385097 0)
(0.17323 -0.374796 0)
(0.206786 -0.366782 0)
(0.238657 -0.361214 0)
(0.268805 -0.357785 0)
(0.297344 -0.355973 0)
(0.324486 -0.355246 0)
(0.350442 -0.355127 0)
(0.375403 -0.355208 0)
(0.399547 -0.355171 0)
(0.423028 -0.354773 0)
(0.445959 -0.35383 0)
(0.468404 -0.352167 0)
(0.490406 -0.349594 0)
(0.511993 -0.345908 0)
(0.533178 -0.340915 0)
(0.553948 -0.334419 0)
(0.574297 -0.326244 0)
(0.59418 -0.316299 0)
(0.613462 -0.304474 0)
(0.632045 -0.290445 0)
(0.649986 -0.273959 0)
(0.667334 -0.255248 0)
(0.683873 -0.234754 0)
(0.699148 -0.212509 0)
(0.712736 -0.188152 0)
(0.72427 -0.161271 0)
(0.733671 -0.13166 0)
(0.741046 -0.0992854 0)
(0.746979 -0.0671055 0)
(0.751939 -0.0391114 0)
(0.751417 -0.0174036 0)
(0.753806 -0.00432564 0)
(0.74303 0.0192715 0)
(0.729892 0.069349 0)
(0.773427 0.122187 0)
(0.805363 0.162479 0)
(0.848615 0.190275 0)
(0.880331 0.211315 0)
(0.908504 0.229327 0)
(-0.023394 -0.426636 0)
(-0.00697845 -0.444948 0)
(0.0354217 -0.442297 0)
(0.0748769 -0.437628 0)
(0.112083 -0.428375 0)
(0.148434 -0.416778 0)
(0.184171 -0.405684 0)
(0.218844 -0.396458 0)
(0.252102 -0.389483 0)
(0.283785 -0.384621 0)
(0.313896 -0.381472 0)
(0.342555 -0.37956 0)
(0.369931 -0.378428 0)
(0.39621 -0.377668 0)
(0.421572 -0.376941 0)
(0.446172 -0.375971 0)
(0.47013 -0.374535 0)
(0.493526 -0.372425 0)
(0.516416 -0.369433 0)
(0.538837 -0.365345 0)
(0.560812 -0.359952 0)
(0.582346 -0.353052 0)
(0.603439 -0.344465 0)
(0.624061 -0.334057 0)
(0.644138 -0.321686 0)
(0.663619 -0.30712 0)
(0.682555 -0.290177 0)
(0.700988 -0.270944 0)
(0.718766 -0.249637 0)
(0.735552 -0.226237 0)
(0.75105 -0.20048 0)
(0.765122 -0.172116 0)
(0.777783 -0.141047 0)
(0.789447 -0.10773 0)
(0.800076 -0.0734881 0)
(0.809207 -0.0401834 0)
(0.814875 -0.00882408 0)
(0.819345 0.0190557 0)
(0.819842 0.0359763 0)
(0.823713 0.0349622 0)
(0.824242 0.0494904 0)
(0.794593 0.124028 0)
(0.848648 0.163728 0)
(0.881023 0.19626 0)
(0.921283 0.215188 0)
(-0.0122946 -0.41782 0)
(0.00893036 -0.470846 0)
(0.0475086 -0.47645 0)
(0.0859386 -0.471099 0)
(0.123373 -0.460813 0)
(0.159961 -0.448641 0)
(0.195879 -0.43684 0)
(0.230905 -0.426623 0)
(0.264758 -0.418439 0)
(0.297248 -0.41227 0)
(0.328307 -0.407831 0)
(0.35798 -0.404727 0)
(0.386379 -0.402537 0)
(0.413649 -0.400868 0)
(0.439948 -0.399372 0)
(0.46542 -0.397753 0)
(0.490181 -0.395756 0)
(0.514318 -0.393148 0)
(0.537892 -0.3897 0)
(0.560946 -0.385185 0)
(0.583514 -0.379382 0)
(0.605615 -0.37208 0)
(0.627263 -0.36309 0)
(0.648456 -0.352253 0)
(0.669168 -0.339413 0)
(0.68939 -0.324388 0)
(0.709172 -0.307039 0)
(0.728548 -0.28737 0)
(0.747433 -0.26545 0)
(0.765646 -0.241231 0)
(0.783037 -0.214546 0)
(0.799605 -0.185271 0)
(0.815507 -0.153507 0)
(0.830987 -0.119691 0)
(0.84608 -0.0849252 0)
(0.860266 -0.0502713 0)
(0.872717 -0.0162945 0)
(0.883563 0.0163817 0)
(0.892048 0.0440437 0)
(0.897722 0.0637781 0)
(0.89864 0.0797979 0)
(0.899944 0.0864028 0)
(0.91739 0.0787989 0)
(0.87934 0.157221 0)
(0.927238 0.187239 0)
(-0.00645442 -0.418739 0)
(0.020737 -0.499113 0)
(0.0593999 -0.510115 0)
(0.0974625 -0.504522 0)
(0.134642 -0.49337 0)
(0.17095 -0.480542 0)
(0.206569 -0.468071 0)
(0.241423 -0.457012 0)
(0.275315 -0.447803 0)
(0.308069 -0.440488 0)
(0.339582 -0.43487 0)
(0.369842 -0.430628 0)
(0.398902 -0.427392 0)
(0.426862 -0.424792 0)
(0.453842 -0.422486 0)
(0.47996 -0.420166 0)
(0.505323 -0.417557 0)
(0.530012 -0.414401 0)
(0.55409 -0.410455 0)
(0.577607 -0.40548 0)
(0.600604 -0.399244 0)
(0.623113 -0.391533 0)
(0.645166 -0.382149 0)
(0.666784 -0.37092 0)
(0.687982 -0.357689 0)
(0.708784 -0.342296 0)
(0.729246 -0.324622 0)
(0.749414 -0.304624 0)
(0.769273 -0.282298 0)
(0.788767 -0.257591 0)
(0.807882 -0.230412 0)
(0.826698 -0.200737 0)
(0.845397 -0.168735 0)
(0.864174 -0.134875 0)
(0.883066 -0.0999296 0)
(0.901799 -0.0647568 0)
(0.919927 -0.0300338 0)
(0.937304 0.00340599 0)
(0.952926 0.0343691 0)
(0.965061 0.0625549 0)
(0.973905 0.0886972 0)
(0.980597 0.108726 0)
(0.985571 0.118187 0)
(0.98175 0.129549 0)
(0.99753 0.115356 0)
(-0.000164923 -0.42674 0)
(0.0308367 -0.531015 0)
(0.0701824 -0.544404 0)
(0.107823 -0.537908 0)
(0.144299 -0.525771 0)
(0.179886 -0.512254 0)
(0.214828 -0.499176 0)
(0.249139 -0.487422 0)
(0.282684 -0.477372 0)
(0.315305 -0.469091 0)
(0.346886 -0.462442 0)
(0.377372 -0.457164 0)
(0.406771 -0.452938 0)
(0.435136 -0.449428 0)
(0.462545 -0.446302 0)
(0.489088 -0.443251 0)
(0.514849 -0.439989 0)
(0.539903 -0.436243 0)
(0.564309 -0.431758 0)
(0.58812 -0.426286 0)
(0.611383 -0.419593 0)
(0.634143 -0.411458 0)
(0.656446 -0.401684 0)
(0.678335 -0.390095 0)
(0.699855 -0.376532 0)
(0.721059 -0.360854 0)
(0.742019 -0.342948 0)
(0.762806 -0.322753 0)
(0.783468 -0.300232 0)
(0.804049 -0.275345 0)
(0.824622 -0.248055 0)
(0.845334 -0.218407 0)
(0.866373 -0.186597 0)
(0.887918 -0.153035 0)
(0.910013 -0.118339 0)
(0.932523 -0.0831985 0)
(0.955183 -0.0482876 0)
(0.97765 -0.0142857 0)
(0.999096 0.0180242 0)
(1.01838 0.0484332 0)
(1.03495 0.0779297 0)
(1.04873 0.104669 0)
(1.05826 0.127687 0)
(1.06394 0.148957 0)
(1.06867 0.155065 0)
(0.00644133 -0.44173 0)
(0.039779 -0.565352 0)
(0.0790884 -0.578968 0)
(0.11584 -0.570893 0)
(0.151194 -0.557653 0)
(0.18572 -0.543471 0)
(0.219709 -0.529881 0)
(0.253214 -0.517575 0)
(0.286136 -0.506855 0)
(0.318331 -0.497783 0)
(0.349674 -0.490256 0)
(0.380085 -0.484064 0)
(0.409533 -0.478931 0)
(0.43803 -0.474555 0)
(0.465619 -0.470623 0)
(0.492357 -0.466832 0)
(0.518306 -0.462892 0)
(0.543526 -0.458526 0)
(0.568074 -0.45347 0)
(0.592 -0.447474 0)
(0.615358 -0.440301 0)
(0.638201 -0.431733 0)
(0.660588 -0.421574 0)
(0.682578 -0.409649 0)
(0.704242 -0.395807 0)
(0.72566 -0.379916 0)
(0.746926 -0.361875 0)
(0.76814 -0.341616 0)
(0.789404 -0.3191 0)
(0.810831 -0.294302 0)
(0.832565 -0.26723 0)
(0.854787 -0.237963 0)
(0.877703 -0.206701 0)
(0.901484 -0.173798 0)
(0.926199 -0.139739 0)
(0.951772 -0.105082 0)
(0.977986 -0.0703831 0)
(1.00449 -0.0362003 0)
(1.03065 -0.00302009 0)
(1.05561 0.0290103 0)
(1.07885 0.0599962 0)
(1.09975 0.089271 0)
(1.11697 0.117086 0)
(1.13059 0.143862 0)
(1.14014 0.164795 0)
(0.0127128 -0.463423 0)
(0.0472792 -0.600954 0)
(0.085529 -0.613037 0)
(0.120793 -0.603011 0)
(0.154675 -0.588692 0)
(0.187896 -0.573949 0)
(0.220737 -0.55997 0)
(0.253247 -0.547256 0)
(0.285339 -0.536024 0)
(0.316877 -0.526319 0)
(0.34773 -0.51806 0)
(0.377802 -0.511074 0)
(0.407032 -0.505124 0)
(0.435403 -0.499938 0)
(0.462922 -0.495228 0)
(0.489619 -0.490701 0)
(0.515534 -0.486072 0)
(0.540713 -0.481064 0)
(0.565203 -0.475414 0)
(0.589055 -0.468871 0)
(0.612323 -0.461202 0)
(0.635068 -0.452193 0)
(0.657359 -0.441653 0)
(0.679272 -0.429415 0)
(0.700895 -0.415337 0)
(0.722333 -0.399301 0)
(0.743705 -0.381216 0)
(0.765141 -0.361024 0)
(0.786786 -0.338694 0)
(0.808802 -0.31422 0)
(0.831379 -0.287638 0)
(0.85473 -0.259047 0)
(0.879069 -0.228636 0)
(0.904573 -0.196701 0)
(0.931331 -0.163625 0)