/*--------------------------------*- C++ -*----------------------------------*\
  =========                 |
  \\      /  F ield         | OpenFOAM: The Open Source CFD Toolbox
   \\    /   O peration     | Website:  https://openfoam.org
    \\  /    A nd           | Version:  7
     \\/     M anipulation  |
\*---------------------------------------------------------------------------*/
FoamFile
{
    version     2.0;
    format      ascii;
    class       scalarField;
    location    "0.005/lagrangian/dsmc";
    object      Ei;
}
// * * * * * * * * * * * * * * * * * * * * * * * * * * * * * * * * * * * * * //


9326
(
4.165209162e-21
3.632451892e-21
8.561913581e-21
1.194961289e-20
2.479187779e-20
6.448649877e-22
5.970548402e-21
1.374177351e-20
1.102520113e-20
2.55235361e-21
5.698918121e-21
5.353536653e-21
1.963394457e-22
2.711696104e-21
1.869423454e-21
4.826574469e-20
2.577562783e-20
5.133473661e-21
1.912177099e-21
7.607458634e-22
1.393951181e-20
2.098671356e-20
2.768649394e-20
2.339745348e-20
1.37303601e-20
5.649599235e-22
1.338767383e-20
7.615931304e-22
2.470747549e-20
4.379486817e-21
7.720342874e-22
1.642739273e-21
9.603924031e-21
5.705199064e-22
7.886017597e-21
2.171481022e-20
1.930403215e-21
3.803620373e-21
6.052588927e-21
1.241198608e-20
2.109127147e-21
4.437896685e-21
7.033501711e-22
1.06247299e-20
5.962359477e-21
2.136612332e-21
2.742066683e-20
1.561489561e-20
1.324181333e-20
2.674620413e-20
5.993296669e-21
2.348341103e-20
1.840734577e-20
1.011382453e-20
1.12969342e-20
6.545849995e-22
5.710850463e-21
1.724038811e-20
1.892242785e-20
2.888666813e-20
1.744313274e-22
1.306231813e-21
3.180922721e-20
3.44940627e-20
7.206852011e-22
3.889430327e-21
9.840765027e-21
8.772366194e-21
5.698860001e-21
9.493374424e-21
6.169207862e-21
1.445008969e-20
1.840230807e-21
9.174186034e-21
2.541131842e-21
1.504646158e-20
2.56441318e-20
5.538772402e-22
7.739256623e-21
1.492773458e-21
1.476756323e-21
1.42735723e-21
3.017249912e-22
4.048420497e-22
1.321535055e-20
1.73085503e-21
3.950242146e-20
2.712765102e-20
8.844062584e-21
5.873980567e-21
2.42215965e-20
7.702470296e-21
6.747434603e-22
6.909925564e-21
9.812898789e-24
8.262879443e-21
3.789089073e-22
9.006569045e-22
3.788361637e-21
2.129784811e-20
1.755227278e-21
2.792654265e-20
4.399177504e-21
2.647493667e-20
2.832290962e-20
6.357382621e-21
2.118127135e-20
3.706407733e-20
5.89838961e-21
7.600106041e-22
4.922857238e-21
1.496389803e-21
1.42888321e-20
2.056646568e-21
1.392418936e-20
2.133484289e-20
2.184978518e-21
9.392632904e-24
2.727638971e-21
7.892366494e-22
1.663768423e-20
6.124515421e-21
1.986526218e-20
2.37200117e-21
9.532230956e-21
2.538848263e-20
9.664667951e-21
1.799867354e-20
1.244769537e-21
4.961916439e-20
1.108652342e-20
6.839432592e-21
4.007072775e-21
2.696019332e-21
3.620869161e-21
1.688488839e-20
2.931847458e-20
2.379126992e-20
5.542190361e-21
1.432891323e-20
5.596230486e-21
9.241986727e-21
1.041559928e-21
4.835526075e-21
3.561551257e-21
4.502691298e-21
8.415949217e-21
1.42829601e-20
5.547424613e-21
1.583307884e-20
3.400135671e-22
4.998049227e-20
2.577580659e-20
2.765307006e-20
2.510257865e-20
9.064040871e-21
5.745889828e-21
2.203236775e-20
7.673760151e-21
4.4832887e-22
1.473572752e-20
1.45773247e-20
7.403860869e-21
1.276716506e-20
4.338083803e-21
8.817490695e-21
7.226850793e-21
4.296387134e-21
3.339350161e-20
1.496240437e-20
3.934902569e-21
5.267628821e-21
1.496236808e-21
1.164805864e-20
2.788695853e-22
1.828807172e-21
2.915624851e-21
3.719028467e-21
1.735569459e-20
1.946037106e-21
1.002294305e-20
1.448713757e-20
6.409588368e-21
1.508708712e-20
1.025815262e-20
6.382529907e-21
5.384018187e-21
1.278667724e-20
9.399075565e-21
5.106730723e-21
2.076307608e-20
2.050413987e-20
5.352233142e-20
3.984526432e-20
1.275907926e-20
1.088107912e-20
7.199155995e-22
1.130502103e-20
3.463575107e-20
2.357505617e-21
3.345143618e-22
3.283334716e-21
2.321817788e-21
1.60463154e-21
4.819766688e-21
3.642174234e-21
7.815768857e-21
1.528806542e-21
1.124548309e-20
5.666475312e-21
3.504854389e-20
3.071515699e-21
2.427729718e-20
2.477425876e-21
9.146630999e-22
1.234756486e-20
3.242429391e-21
1.751816982e-20
1.334663236e-20
2.985624617e-21
1.644187831e-20
1.18728222e-20
1.39105642e-20
1.076871031e-20
1.805951442e-20
3.972088367e-21
1.461097287e-20
7.366909745e-21
1.058084575e-20
1.81481422e-20
1.406620338e-20
1.942304858e-20
1.175563044e-20
4.301074924e-20
2.10863497e-21
4.198215546e-21
5.339128465e-20
4.782071054e-22
1.098343578e-21
3.257425035e-20
9.146651546e-21
2.950206606e-20
2.730594746e-21
5.264872871e-21
4.280604916e-22
6.421563626e-21
2.973089547e-20
1.971522188e-20
2.227972753e-20
1.344330262e-21
1.013350915e-20
5.483184697e-22
3.645890278e-20
4.978678121e-21
2.367778957e-21
1.343491615e-20
2.38810915e-20
2.839827611e-20
2.970346312e-20
1.662920859e-20
1.30277243e-20
6.867524914e-21
6.257797906e-21
6.245376004e-21
1.419194176e-20
5.413489006e-21
2.914569996e-21
1.53260384e-20
6.866526694e-21
3.034390487e-21
3.553858774e-21
8.26973563e-21
6.268815141e-21
1.267477881e-20
6.425281344e-21
1.638729367e-20
5.136251626e-20
7.206292051e-21
6.449829107e-23
5.543809979e-22
1.138416223e-20
5.979082979e-21
1.518709338e-20
2.830397022e-20
1.080216095e-20
4.438476042e-20
2.513038135e-21
6.771022329e-21
1.298625551e-21
1.386206239e-20
2.497925843e-20
8.310438864e-21
7.279064614e-21
1.562707673e-20
2.256440382e-21
3.287753004e-21
9.497670229e-22
1.938476219e-20
6.029417579e-21
4.171693376e-23
2.143481202e-20
4.956694935e-21
2.480306739e-20
2.602698239e-21
1.103706123e-21
3.754699173e-21
1.610941513e-20
8.914572979e-21
4.810213453e-21
5.397170192e-22
1.18379177e-20
1.43915046e-20
5.746381159e-21
4.164648912e-20
2.056046583e-21
3.455581274e-20
9.098347953e-21
1.686942916e-20
6.684437544e-21
4.800465332e-21
1.75516384e-20
1.980067043e-21
5.375048612e-22
6.629364158e-22
3.04398161e-21
1.258513809e-20
1.341218028e-21
5.012707978e-21
2.146950102e-20
1.4927154e-20
3.948717993e-21
1.96976858e-21
1.03044514e-21
2.020086068e-22
2.441535763e-20
3.960067329e-21
1.619497291e-22
1.28833395e-20
1.987235842e-20
7.326435019e-21
3.07048341e-22
1.193645076e-20
4.1280501e-21
7.699954345e-21
2.932720834e-20
1.374833781e-22
4.653490431e-21
1.222859115e-21
1.04435403e-20
2.063094029e-20
2.096899739e-22
4.631132284e-21
1.470135824e-20
3.900444584e-22
4.441395382e-22
1.92332956e-20
1.131428108e-20
3.340488019e-21
9.186083994e-21
5.395588557e-22
1.024726807e-21
4.8650185e-21
7.270868776e-21
1.899144716e-21
2.865226194e-20
6.9805689e-21
7.290698856e-21
1.750403089e-20
1.781167066e-20
1.334190646e-21
9.215685994e-23
8.137495646e-21
1.699828577e-21
9.857962842e-21
1.182619273e-21
4.128975844e-21
3.30031621e-20
9.450999265e-22
2.216072945e-20
1.194585571e-20
5.395450679e-21
1.699234446e-21
2.613939316e-21
3.4886087e-20
1.563164369e-20
2.245307642e-20
4.2572362e-21
1.148169582e-20
1.703781686e-21
2.737215166e-20
2.991683653e-20
1.405989298e-20
5.873127738e-21
1.716356628e-20
3.494678554e-22
1.236852743e-20
3.616063577e-20
2.378169331e-21
6.602992303e-21
1.005458522e-22
4.306332398e-20
2.119778789e-20
4.633191831e-23
5.572364292e-21
1.74351717e-20
1.437985826e-20
1.062934497e-20
1.79707399e-20
1.328003901e-20
3.816216786e-21
3.402304101e-21
5.688151445e-21
1.450424916e-21
1.53649862e-20
8.802927216e-23
2.567748575e-21
4.597350956e-20
1.050885748e-21
8.78938386e-22
2.499157344e-20
1.591416563e-20
4.93000819e-22
1.338329465e-20
1.153036252e-20
3.913879787e-21
1.768507912e-20
9.331946344e-21
3.101634701e-22
2.556373124e-20
1.45629507e-20
9.67283476e-21
5.643719091e-20
9.767687653e-21
2.394031448e-21
5.451639613e-21
1.820627604e-20
4.830019698e-21
4.968668544e-21
2.234529051e-20
1.762562817e-21
2.869473641e-20
5.515265045e-21
2.191610333e-21
5.07836632e-21
1.41428752e-20
9.392440049e-22
2.371190599e-20
3.183437111e-22
5.805244721e-21
3.999852191e-20
2.448435337e-22
3.738661201e-21
3.10894779e-21
8.731394133e-21
5.443371245e-22
2.095059115e-21
1.098035814e-21
8.25673278e-21
3.138186545e-21
5.367765758e-21
1.676652689e-21
1.124408592e-20
5.213217093e-21
8.977238384e-21
3.993251039e-21
3.864665237e-21
1.066757634e-22
1.149935789e-21
1.607881258e-21
3.63489643e-20
2.486239968e-20
1.480543261e-20
4.837158653e-21
3.073956297e-21
1.083543487e-21
3.831328137e-21
1.765629776e-20
2.47950804e-21
2.818264312e-20
6.081486256e-21
1.117072831e-20
2.454890494e-20
8.079565848e-21
6.532667651e-22
8.421467797e-22
2.406804539e-21
5.715956227e-20
3.926851988e-20
1.05683032e-20
1.456751917e-21
3.0064033e-21
4.0198262e-21
1.62707206e-22
6.790664217e-21
2.074623203e-21
8.632960752e-21
1.550403258e-20
1.111944623e-21
2.982192498e-20
9.943718121e-21
1.06709321e-21
6.91359887e-21
1.876067363e-20
4.594621906e-20
1.081185503e-20
4.905082988e-21
7.941305612e-21
1.493516305e-20
3.091598097e-21
4.82365828e-20
4.253500735e-21
1.878155997e-20
3.777801419e-20
5.828181896e-21
3.32113586e-21
5.144008455e-21
6.874596876e-21
2.460458049e-20
4.224885287e-21
3.975696636e-21
5.049298309e-21
5.794536168e-21
2.045793343e-21
7.500310624e-21
2.314897076e-20
5.293627102e-22
2.166155293e-20
1.913628719e-20
1.345818699e-22
1.53793416e-21
3.612726942e-21
1.264156165e-21
1.748389972e-20
1.544025015e-20
3.324104707e-20
7.697455569e-23
1.499283734e-21
1.293035151e-20
9.129898652e-21
6.626894593e-21
2.867232862e-21
3.995587113e-20
9.381452121e-21
9.768437776e-21
1.086828733e-20
1.563297462e-20
1.80619749e-20
7.377283339e-22
2.86991818e-21
2.416514669e-20
5.780343148e-21
1.256363195e-20
5.042244018e-21
7.723697554e-21
5.164982794e-21
6.727603567e-21
9.310725069e-21
1.654244804e-20
3.557390872e-21
9.874746204e-21
1.365707513e-21
1.598003818e-20
1.250742009e-20
3.901241795e-21
8.408893444e-21
1.601013991e-21
1.838798719e-20
8.867714998e-21
2.481564299e-20
1.229374658e-20
2.78444343e-21
5.317906135e-21
5.053083842e-22
4.374676488e-21
2.498079838e-20
5.890903024e-21
7.70334161e-21
1.966048629e-22
1.430245964e-20
8.591961466e-21
1.294382444e-21
1.869161679e-20
7.125234881e-20
3.02708269e-20
4.308731578e-21
3.044581412e-20
1.944907832e-20
1.048969203e-21
3.638788253e-20
1.275618443e-20
6.76489753e-21
5.079001351e-20
4.23472371e-21
1.283656012e-20
3.387022913e-21
3.306539497e-21
1.055284817e-20
4.694120501e-21
3.178586916e-21
7.22690926e-21
4.401999653e-21
6.141468166e-21
4.103902231e-21
2.205354978e-20
4.714416947e-21
5.074961825e-22
2.607644959e-21
6.257883369e-22
6.711925055e-21
3.187241383e-22
7.498033736e-22
3.729540456e-21
4.452988159e-21
2.36988875e-20
1.812318519e-20
2.334114515e-20
2.274873557e-21
1.742432053e-20
2.785703336e-20
1.136534077e-20
1.021166211e-20
8.869296036e-22
6.041038199e-21
4.469818306e-20
2.075678775e-20
1.432637115e-21
5.473577855e-21
1.57154691e-21
3.099835601e-20
3.28189965e-21
1.035054972e-20
2.509912219e-20
3.472580862e-21
3.162301065e-21
1.47607633e-21
6.223311188e-21
6.991379993e-21
1.791526801e-20
1.41987146e-20
3.593307171e-21
2.795513979e-20
2.990209415e-20
4.523870181e-21
1.695323818e-20
8.521757443e-21
5.926585353e-21
2.876311361e-21
3.344691608e-20
3.739204472e-20
5.121315843e-21
3.100041752e-21
3.718348832e-20
1.377651809e-20
3.834198803e-21
3.933892326e-21
1.160418839e-20
1.16822894e-20
2.68812959e-20
6.913275798e-21
4.809243279e-20
7.565910697e-21
1.759831152e-21
2.094999833e-20
1.800286819e-21
9.910329227e-21
7.826176114e-21
7.335630605e-21
2.980890996e-20
2.525209026e-20
5.087857863e-21
3.039414197e-21
2.110965436e-21
1.220396473e-20
6.833335634e-21
8.037863403e-21
6.403971733e-20
9.325739266e-21
1.906704071e-20
4.366900941e-21
1.358245649e-20
4.709075358e-20
6.361113753e-21
4.245416967e-21
9.564719075e-21
8.968047204e-21
9.41787142e-22
2.08621619e-20
7.18100845e-21
9.065619929e-22
4.795120712e-23
3.92098021e-21
5.560092631e-22
6.807648279e-21
1.284404815e-20
8.264044503e-21
9.389348401e-21
1.953982673e-20
4.009054315e-21
2.916023039e-22
1.820020577e-20
6.92631879e-21
2.168081849e-21
2.548735332e-21
2.48397e-20
1.911991504e-20
4.241383804e-21
6.305473376e-21
1.145752428e-20
7.556510655e-21
1.114245888e-20
2.156170497e-21
2.933302456e-20
6.228012169e-21
5.216991576e-21
1.505293601e-21
3.263966653e-21
3.966580535e-21
4.289741068e-21
6.07072909e-21
1.098076351e-21
1.420083878e-20
9.244003672e-21
9.591879941e-22
1.771419185e-20
1.565824811e-20
1.215782466e-21
5.093748393e-21
2.28890343e-20
6.546240295e-22
3.885316803e-21
8.261942891e-21
7.410819772e-21
1.925287465e-20
1.737125598e-20
5.84212768e-21
3.272611531e-22
1.550548361e-20
1.274492184e-20
2.444904799e-21
2.473870885e-20
1.302072319e-20
6.277420124e-20
1.50710858e-20
1.653116228e-21
1.666965697e-20
3.53036271e-20
3.578434466e-24
5.593816627e-21
1.309227044e-20
1.999662644e-21
1.027999869e-20
2.509018247e-20
1.752436753e-20
1.457181162e-20
5.253954754e-21
4.1924725e-20
1.71498427e-20
1.160494037e-20
2.61974986e-22
4.253936784e-22
8.952675583e-22
2.957334919e-20
1.327166204e-20
4.363258082e-21
3.02582527e-21
1.879583681e-21
8.843253386e-22
2.451141125e-21
2.875376948e-21
9.705458199e-22
6.916520795e-21
8.516405909e-21
5.478228619e-21
1.030936978e-20
6.095379212e-21
4.842848947e-21
7.01913505e-22
1.922673099e-21
2.097846921e-20
7.05558487e-21
9.260731701e-21
5.754502286e-21
1.728004904e-20
1.897753971e-21
2.69709251e-21
3.851014237e-20
2.737937944e-21
2.770973869e-21
8.747201987e-21
2.891378849e-20
3.999157577e-20
4.938756058e-20
6.426149112e-21
1.903658588e-20
1.033173652e-20
2.405631291e-20
1.846057497e-21
4.158383547e-21
6.453935716e-20
1.05512436e-21
5.595859615e-21
7.947899379e-21
4.746977489e-21
3.886479354e-20
2.806859419e-20
4.469715589e-21
2.324589584e-21
2.575014898e-20
1.248186754e-20
5.173488587e-21
3.996839114e-21
5.822817613e-21
8.01099428e-21
1.031166838e-20
7.12726119e-22
1.039932487e-20
8.488357324e-21
7.649134832e-21
1.025327343e-20
8.640499356e-22
2.11606047e-20
1.811833118e-20
1.397789407e-21
4.974407007e-21
4.116648888e-20
1.243332921e-20
2.681403771e-20
3.981246216e-21
4.105174286e-20
4.486302954e-20
1.714589792e-20
6.812733567e-21
2.845119082e-20
1.031475337e-20
1.145786418e-20
1.514517264e-20
1.391333533e-20
2.529704717e-22
6.498010695e-21
3.121592839e-20
5.935648216e-21
1.93336554e-20
1.667122373e-20
5.526331059e-21
1.086444536e-20
1.955732059e-20
1.531884663e-21
1.650698994e-20
1.281410347e-20
2.602409722e-20
2.117938431e-20
1.655415299e-21
1.780592531e-20
5.230732889e-21
1.663413905e-21
5.28066769e-21
5.273091399e-21
1.324189269e-20
6.680688617e-21
2.864167917e-21
1.405102573e-20
4.771775084e-21
1.330056636e-20
1.537036895e-20
1.801217074e-20
1.387682574e-20
5.259844745e-21
4.660769244e-20
5.854120358e-21
1.761523445e-20
6.071878961e-21
3.522817211e-20
2.775716831e-22
1.077158427e-20
5.852641794e-21
1.171869149e-20
3.25208344e-20
3.545103616e-21
2.746205259e-20
2.588864221e-21
5.516722792e-21
1.603363107e-20
5.524861844e-23
1.113607497e-20
8.897557087e-21
4.080822457e-21
7.772796255e-21
1.331944476e-21
4.804813224e-21
1.905447949e-21
8.000526162e-21
8.80497165e-22
6.73084781e-22
4.156957592e-20
8.600924487e-22
1.703679685e-20
9.649233243e-21
1.062803008e-20
7.869741901e-21
5.659654148e-21
3.791580209e-20
2.074288548e-21
7.526491526e-22
1.277573322e-20
6.599223379e-21
1.745722612e-20
2.272439938e-21
1.456635005e-22
1.933651449e-21
2.605791154e-21
3.725574564e-21
1.159374273e-21
4.515258673e-22
3.363619339e-21
3.738673964e-21
3.389558872e-21
1.38456536e-20
3.978709689e-20
4.362244843e-20
2.46858016e-20
3.209745514e-21
2.428997005e-20
6.6475122e-21
7.543714447e-21
6.240018044e-21
8.217183256e-22
2.112304325e-21
6.476026866e-21
9.595362811e-21
1.191749217e-20
3.571969627e-20
8.692764115e-21
1.249170809e-20
1.336512673e-21
3.298685342e-21
2.354682842e-20
3.201420094e-20
8.859360981e-21
7.04233666e-21
5.12467035e-20
9.155956476e-21
1.456556969e-21
6.507657304e-21
1.625672815e-21
5.617064976e-22
5.951637848e-23
1.60667863e-20
4.681843334e-21
1.723550993e-20
7.58749347e-23
6.072445491e-21
7.129197098e-21
2.555279641e-20
2.321770668e-20
9.102588441e-21
1.962051968e-21
3.462661128e-21
8.051020153e-21
1.858897656e-20
1.582856556e-21
1.471246558e-21
9.781192352e-22
6.661929122e-21
1.667025464e-21
3.571058766e-21
8.570819765e-21
2.10243094e-20
6.584922512e-21
8.50058484e-21
2.897893229e-20
6.995731365e-21
3.115741626e-20
1.283084075e-20
1.457413378e-20
4.46212013e-20
3.127542405e-20
1.852191322e-20
7.660451027e-21
3.802370731e-20
5.525577117e-21
2.36914174e-20
1.710898281e-20
2.927046696e-20
4.626689101e-21
6.147182349e-22
6.840141357e-21
4.939972611e-21
8.669879807e-23
1.007983181e-20
1.077591703e-20
1.987630535e-20
3.173882276e-21
2.091682348e-21
1.361006308e-20
9.892618906e-21
6.005441785e-21
1.939197292e-21
1.273811591e-21
2.579916269e-20
2.041371551e-20
2.095666039e-21
3.954659269e-21
2.067186066e-20
1.011101229e-20
2.227591584e-21
5.006128669e-21
2.109341016e-21
3.752274178e-21
1.449928549e-20
2.299165415e-21
1.586260988e-21
2.401562932e-20
2.184043835e-20
1.253755291e-20
2.477726648e-21
7.793526432e-21
1.058921515e-20
2.192588595e-20
1.315009471e-20
7.538999154e-21
5.86547205e-21
6.969536501e-22
7.523587484e-22
1.217277485e-20
7.865055935e-21
6.719124664e-21
3.069366453e-21
4.604369413e-20
2.276261671e-20
2.644543184e-20
9.391914601e-21
4.424851968e-21
1.571326067e-20
3.767284278e-21
6.598278401e-21
5.78831606e-21
2.108821686e-22
6.769447968e-22
6.616677601e-21
6.154903752e-21
1.674641822e-21
1.044249408e-20
2.716510951e-22
2.824925187e-20
1.108756495e-21
1.71192766e-20
9.366381493e-22
7.197157384e-21
9.127129853e-21
6.018882069e-21
4.995478339e-22
2.088766194e-20
7.31765366e-22
1.237097513e-20
2.282700621e-21
1.582621534e-20
1.218630468e-20
7.737736042e-21
1.05477262e-20
1.688219593e-20
2.490088144e-20
4.916827275e-21
2.574476774e-20
7.56915125e-21
5.621651803e-22
6.082711541e-21
2.614861598e-21
8.26680647e-21
1.652885338e-20
5.462565151e-22
2.231386782e-20
2.257185574e-21
4.092907558e-20
8.896435224e-21
5.775701208e-21
5.53276949e-21
1.176512188e-21
5.159123644e-22
1.41058131e-21
3.25225092e-22
8.744081219e-21
9.620077833e-21
1.885073011e-21
1.335386016e-21
1.794512322e-20
6.413171252e-21
1.364779117e-22
1.873892028e-21
5.648672919e-21
6.696339305e-21
2.695184582e-22
1.326134848e-20
2.463833622e-20
2.675762093e-21
2.76514926e-21
4.483444639e-21
5.81244636e-20
2.192797327e-21
6.331295707e-21
3.729315428e-21
3.211233168e-20
1.825871807e-20
7.545486866e-21
2.63800616e-21
1.498074099e-20
1.445215212e-20
3.936682212e-21
2.251838299e-20
4.918565723e-22
8.183148756e-22
3.894255604e-21
1.756993392e-20
3.221344926e-21
3.395123262e-21
2.974345315e-20
6.79211556e-21
9.07614303e-21
4.621091261e-21
2.440360306e-21
1.070864882e-20
3.374546924e-20
1.924070255e-21
1.590770724e-20
6.635159515e-21
8.928053694e-22
8.712822688e-21
1.051761748e-20
7.053023752e-21
2.505985352e-21
4.197464453e-21
8.184619048e-21
5.306663759e-21
1.291002827e-21
2.253913319e-20
5.856555415e-23
8.047836805e-21
1.9805055e-20
2.040251166e-20
2.909759098e-22
3.815945794e-20
1.40279475e-21
1.003927336e-20
1.987174817e-20
4.167208376e-21
1.831703827e-21
7.518233571e-21
1.100808413e-21
5.641402492e-21
1.092278164e-20
3.905693847e-21
1.441409e-21
4.60736411e-21
1.319686427e-20
5.422477017e-21
5.420774689e-21
2.759661915e-20
1.151070403e-20
8.010538357e-21
8.377478081e-21
1.893093674e-20
2.783223221e-20
2.667197648e-21
1.711122183e-21
5.923751146e-21
2.139957752e-21
2.434698229e-20
1.452972855e-20
1.289009096e-20
2.686217616e-20
7.504122556e-22
6.235145421e-22
1.351503336e-20
1.152903776e-20
1.259109306e-21
2.947644916e-20
2.210567181e-21
1.102022901e-20
1.559141448e-20
3.820683587e-20
3.27161216e-20
4.651433303e-21
4.009123213e-21
5.497042682e-21
2.919274138e-21
7.87305589e-21
9.332995045e-21
2.274305662e-21
1.282269608e-21
6.363521807e-21
4.148821263e-23
9.628558908e-21
3.512410834e-20
1.030558345e-20
1.365074079e-20
2.412818996e-20
3.060907399e-21
5.045655999e-21
2.034991385e-20
2.289092836e-20
3.194405881e-22
1.233838713e-20
6.515491573e-23
1.237041152e-20
5.581493328e-22
1.345369185e-20
8.514628469e-21
1.315661274e-21
7.71335244e-21
5.454000992e-20
8.834623415e-21
2.699088333e-21
1.13167871e-21
2.242109903e-21
1.557768465e-20
2.758161422e-21
4.042281824e-20
3.078953722e-21
1.530394111e-20
2.829734391e-20
1.911247455e-20
3.78493007e-21
3.69786546e-21
1.500874439e-20
8.822442786e-22
8.086961481e-21
1.667835997e-20
2.614850439e-21
4.648386111e-20
1.120865288e-20
2.490612342e-21
2.492068527e-20
6.097960273e-21
5.665805878e-21
3.13478127e-20
3.93685328e-21
3.298916488e-20
6.153157655e-21
2.120318357e-21
1.829484531e-21
2.250335157e-20
1.986420306e-21
5.818399009e-21
2.543430664e-21
8.070038743e-21
1.885477856e-20
1.161127358e-20
4.624845375e-21
4.11551727e-21
4.873896099e-23
1.000964627e-20
1.101819395e-20
2.262416142e-21
2.256894202e-21
3.79895722e-21
2.987705386e-21
8.533688423e-22
4.672884648e-21
1.273967657e-20
3.793622866e-21
5.726176771e-21
2.900468188e-21
3.277143242e-21
3.524924065e-21
8.46393245e-21
2.695946318e-20
1.382737079e-20
3.790552711e-21
1.006114286e-20
2.324318422e-20
2.568540226e-22
3.324028468e-20
1.107083824e-20
7.670697509e-21
6.787457188e-21
7.228226265e-21
3.533697588e-21
6.239394159e-21
2.038371702e-20
2.691828088e-21
1.09597764e-20
2.349842683e-20
1.459414835e-20
3.111725054e-20
1.884927498e-20
1.218990364e-20
3.913174832e-21
1.248512947e-20
9.127206584e-21
1.977844838e-20
1.290322593e-20
2.229684035e-20
3.911012941e-21
6.157190874e-21
1.177316898e-22
1.83691946e-21
1.053702025e-20
2.875453725e-22
2.670867553e-21
5.584116794e-21
5.315725607e-21
5.087410633e-21
1.196255348e-21
1.409354609e-20
5.934167309e-21
8.916660257e-21
2.442734183e-20
7.421386926e-21
9.925639016e-21
4.468173934e-20
4.955453469e-20
6.184904835e-21
1.902482966e-20
1.181371084e-20
3.305598771e-21
2.123450959e-20
4.094452928e-20
1.315197706e-20
3.370729217e-21
5.63598403e-22
8.287486455e-21
1.416592143e-20
1.536449935e-20
1.172821506e-20
2.703909136e-20
2.573997053e-20
2.386080975e-21
1.098488324e-20
1.45089934e-22
3.186792037e-20
8.979207278e-21
7.344969524e-21
3.377431343e-21
3.379150875e-21
1.117685211e-21
4.228019844e-20
3.494701376e-21
9.007050695e-21
1.849338428e-20
2.806545659e-21
8.145764205e-21
1.376969124e-20
1.462786285e-20
1.740275324e-21
1.847758056e-20
9.065291033e-21
1.223451113e-20
5.471468107e-21
1.030923755e-20
1.530994009e-20
2.778862672e-20
9.28612168e-22
1.375334039e-21
3.985619196e-21
7.169748118e-21
3.772632627e-21
3.754240272e-21
1.106969203e-21
2.024615051e-20
6.326841181e-20
9.270136622e-21
1.99257092e-20
2.464328893e-22
2.44818143e-20
1.095878012e-20
1.09837971e-20
2.448024573e-20
2.497168651e-22
1.03512298e-20
1.092720048e-21
4.463348578e-21
7.627008994e-22
1.046812256e-20
5.570797191e-21
1.873321229e-21
1.439728623e-20
1.09801521e-21
4.833139935e-21
7.556359011e-21
3.29936019e-20
5.065771239e-21
6.184565366e-21
4.111938341e-20
9.509677096e-21
2.144134232e-20
1.256823293e-21
1.600142729e-20
3.615206749e-20
2.631099432e-22
3.295429877e-20
1.944040254e-21
6.074859357e-22
1.740973707e-21
1.887760557e-20
1.66027131e-20
8.604385265e-22
9.607956232e-22
4.747510661e-21
6.014447909e-21
2.850124308e-21
4.996983124e-21
4.903606855e-21
1.943480622e-20
1.865504045e-20
4.138521184e-21
1.938439993e-20
7.066069103e-21
6.824830329e-21
1.226681879e-20
4.712152168e-22
1.644146803e-21
7.316793431e-21
9.936244706e-21
1.374215979e-20
1.239159628e-20
2.573455546e-20
1.565360548e-20
7.495541543e-21
1.885594829e-20
3.903866839e-21
4.59147152e-20
2.415780785e-20
5.600333063e-22
1.230055839e-20
2.073854382e-21
2.694714257e-20
1.831501214e-21
3.783527307e-21
1.209534417e-20
1.587161796e-21
2.041046871e-21
1.186831913e-20
5.772849797e-21
1.319917869e-20
1.835012057e-20
7.175284402e-21
6.751970205e-21
1.016704793e-21
2.378735702e-20
2.188599811e-20
5.655780921e-21
2.135886084e-20
5.831751667e-21
2.455195614e-21
2.864906014e-20
2.065215479e-20
3.717567778e-21
5.283906496e-21
2.69659575e-20
2.31599441e-20
1.4157339e-20
1.978870617e-21
5.943007921e-21
3.758589415e-21
1.989137551e-20
2.027532187e-20
3.760402458e-21
4.35990251e-20
5.807375263e-22
3.950207625e-21
4.238281086e-21
1.420137609e-20
1.56074141e-20
1.743574667e-20
9.939413381e-21
2.099787206e-20
1.139445043e-21
1.016820039e-20
3.036438009e-21
2.461715566e-21
3.525692827e-20
4.269669043e-21
1.40990489e-20
1.098150574e-20
9.218803461e-21
5.39102726e-21
2.755960877e-20
1.387680768e-21
1.285652067e-20
3.751692129e-21
1.304085904e-20
3.333084763e-21
1.988280066e-21
3.842278344e-23
1.173487284e-20
2.316855662e-20
2.771258364e-21
1.40180477e-21
1.607150644e-20
1.075927552e-20
5.764051871e-21
3.88106943e-21
1.141611015e-20
6.608322352e-21
4.629976189e-21
4.93422387e-22
4.320000709e-22
7.326053767e-21
1.795426926e-21
7.010766e-21
1.174396624e-20
8.923242891e-21
1.479585055e-20
1.887574873e-20
4.223454373e-20
2.45985142e-20
9.012142135e-22
3.141835596e-21
2.023888478e-21
1.463346353e-20
7.45491052e-21
2.828677359e-20
1.064851909e-20
1.153278231e-20
2.666441363e-20
1.227715866e-20
2.144898711e-20
6.490449845e-21
2.299129965e-21
1.934727563e-20
1.637331732e-20
1.334769821e-20
1.26746141e-20
1.119721391e-21
7.437873404e-21
6.294232675e-21
8.617240986e-21
5.312955275e-21
3.391075027e-21
3.259956114e-20
7.74988812e-21
3.116393542e-21
4.460101025e-21
2.331901695e-20
3.978254171e-21
1.777050987e-20
6.397078491e-21
2.075792056e-20
3.085676627e-20
2.6776891e-21
7.60767257e-21
4.601860963e-21
1.258425104e-20
1.471204062e-20
8.928742158e-21
1.168941706e-20
2.711964463e-21
6.855761199e-22
2.47427159e-20
9.64323944e-21
1.371255313e-20
6.50926079e-21
1.465948389e-21
1.814920931e-20
2.018360947e-21
8.16146103e-22
1.186030283e-21
1.15775424e-20
4.504200372e-22
9.927510307e-21
1.957398336e-20
1.181293025e-20
5.446846737e-22
1.755990201e-20
1.769058517e-20
1.886162421e-21
6.395764086e-21
6.707231693e-22
5.197889484e-21
5.713341694e-22
1.830484252e-20
1.027778779e-20
7.477026675e-21
2.602447559e-20
5.960526402e-20
4.052164477e-20
1.5076618e-20
2.72226469e-21
3.306851298e-21
1.672495602e-20
9.144234687e-21
8.837653115e-21
1.668564457e-21
5.064535477e-21
1.008138277e-21
3.108574717e-21
1.042456068e-21
1.563560206e-20
1.822720074e-20
2.650654134e-21
3.704850615e-22
1.458946545e-20
6.253741772e-22
2.696534616e-22
2.248032103e-21
1.7442528e-20
3.162780231e-21
1.668879554e-20
4.557017074e-21
9.160538061e-21
8.652731497e-23
4.697200418e-20
1.668573977e-20
4.288584812e-20
2.410801122e-21
3.9341554e-21
1.874613811e-20
1.55538111e-20
2.352640504e-20
1.152018668e-20
6.891409478e-21
3.027490546e-20
6.986342887e-22
1.910016759e-20
5.770655211e-21
1.38128416e-20
2.448519498e-20
6.212520794e-21
2.581254638e-22
4.401100885e-21
1.615630299e-21
6.118230459e-22
1.969524952e-20
8.618055867e-21
1.673938749e-20
4.089231341e-21
3.206623167e-20
1.74300384e-21
2.176021392e-21
2.898772095e-21
2.525304971e-20
8.985864567e-21
1.892353058e-20
6.935915696e-22
1.880490432e-20
1.4583012e-21
3.337314787e-20
5.899177113e-21
1.498606783e-20
1.503651735e-21
7.641908585e-22
1.09859157e-21
2.260728889e-21
1.837572368e-20
1.102836356e-20
3.203643141e-20
9.262845871e-21
1.485876506e-21
1.905456642e-20
6.089602116e-21
2.53300909e-21
1.320158787e-21
4.857839693e-22
5.236669725e-21
5.934858631e-21
5.334006112e-21
5.778697968e-21
1.2272559e-21
6.222986417e-21
4.885913795e-21
1.633558774e-20
4.443065022e-21
1.497325219e-20
1.723805636e-20
4.068963446e-21
1.716141783e-20
4.087207505e-22
2.538655076e-20
3.547743278e-21
4.247698722e-21
6.571268306e-21
3.459894657e-21
1.031053432e-21
6.970588141e-21
2.878988768e-21
1.624090657e-20
1.442233214e-20
2.267985673e-21
8.975929871e-21
1.694173961e-20
2.328218775e-20
8.514854783e-22
8.385765215e-21
6.11812958e-22
1.370656391e-20
1.74068849e-20
4.007013296e-21
1.176754474e-20
1.899256082e-20
7.22796817e-21
1.205606098e-21
3.24692997e-20
3.712213657e-21
1.275979764e-21
1.392486028e-20
3.354785694e-23
3.539671984e-20
2.220202587e-20
5.474956393e-21
9.810970545e-22
8.49728825e-21
4.474034416e-21
1.567243495e-20
1.210481798e-20
3.692918899e-21
8.860841629e-21
2.529979591e-21
6.775484533e-21
3.613364807e-20
5.909809826e-21
2.744962344e-20
8.920108381e-21
1.814898607e-20
3.67149832e-22
2.546688456e-20
1.199926473e-20
1.116464494e-20
1.410840715e-20
2.066566574e-20
4.124938644e-21
5.015145076e-21
1.314661952e-20
2.231164157e-20
2.827236356e-21
1.055081097e-20
1.017115371e-20
1.713349888e-20
6.510037578e-21
1.570821489e-21
3.839032875e-20
4.670207963e-20
4.587236078e-23
1.001170936e-20
1.852375442e-20
7.342639638e-21
5.867943297e-21
9.959465047e-21
2.373408274e-20
1.294466578e-21
1.05010619e-20
1.336802188e-20
3.621473753e-21
1.886631955e-20
1.101023038e-20
1.218716852e-20
3.306731405e-21
9.469483554e-21
2.622642348e-21
5.742899562e-21
2.52202572e-20
1.16161259e-20
1.764930383e-21
4.251480066e-21
2.57202633e-20
4.800607588e-21
2.052772475e-20
2.603936693e-20
3.992860506e-21
2.715419489e-21
2.896525726e-22
7.408605584e-21
1.921183219e-21
8.076260854e-21
3.201148046e-21
7.501404239e-21
2.528054008e-21
1.62455816e-22
2.190177234e-20
5.192196992e-22
1.323201515e-20
7.964758133e-21
7.098934117e-21
1.368443288e-21
1.85186421e-20
7.447279291e-22
1.714163197e-20
3.077044713e-20
1.768739503e-20
5.870986574e-21
1.515793187e-21
8.155156067e-21
9.472953469e-21
1.834926203e-21
5.787280529e-22
1.181575436e-20
8.599672982e-21
5.331983415e-21
1.147020556e-20
5.528231722e-22
3.504576948e-21
2.42345691e-20
1.199414759e-20
1.008802301e-20
8.242545454e-21
2.060536656e-20
1.684208994e-20
1.461262979e-20
9.4422286e-21
7.13942072e-21
2.64421127e-21
3.304459614e-20
8.55533782e-22
3.236131786e-20
8.031321414e-22
2.406778548e-20
1.208592429e-20
8.996906682e-21
1.147957758e-21
1.500699022e-20
7.799336807e-21
4.18011073e-21
3.155618854e-21
2.660544775e-21
2.445520236e-20
2.648200864e-21
4.345802271e-22
5.344135192e-22
6.306907644e-21
3.940633007e-20
1.806487632e-20
2.339131092e-20
2.952277321e-20
1.73658255e-20
1.062241619e-20
1.640164847e-20
2.497090036e-20
2.289732101e-21
7.480887841e-21
9.219502412e-21
3.915917197e-20
2.023607184e-20
3.027926117e-20
8.62411444e-21
9.474002588e-20
9.543216983e-21
1.384772151e-20
8.264701694e-21
1.341233539e-20
1.296004426e-20
6.915911629e-21
4.588555306e-21
1.644047802e-20
2.391541891e-20
9.731348138e-21
8.289538781e-21
1.09515722e-20
1.67962335e-20
8.809725626e-22
2.305327077e-20
3.034277763e-21
1.69855885e-20