/*--------------------------------*- C++ -*----------------------------------*\
  =========                 |
  \\      /  F ield         | OpenFOAM: The Open Source CFD Toolbox
   \\    /   O peration     | Website:  https://openfoam.org
    \\  /    A nd           | Version:  7
     \\/     M anipulation  |
\*---------------------------------------------------------------------------*/
FoamFile
{
    version     2.0;
    format      ascii;
    class       labelField;
    location    "0.005/lagrangian/dsmc";
    object      origId;
}
// * * * * * * * * * * * * * * * * * * * * * * * * * * * * * * * * * * * * * //


3230
(
10909
14580
12024
6762
6373
16902
10008
7068
8502
18420
5729
7801
19731
12536
12163
7967
9607
7204
4822
8155
9484
13441
9774
17949
20219
17610
16566
21123
8511
8519
8556
14769
7905
8624
8643
6500
8657
10888
10105
13603
5270
16658
24901
15177
8850
12019
10768
22664
16898
8910
12896
5049
23783
8689
12902
17460
9586
9031
22298
9034
9055
9078
13907
11947
9313
6147
23946
12853
9158
21929
1413
640
5775
23952
22984
4812
9231
13771
22382
11094
6889
8692
18811
9320
22750
9333
23493
23608
22469
199
17539
27297
14345
21168
14998
8310
9589
2936
14694
7026
7679
10069
24986
9694
20772
8595
15577
14280
5516
16402
5618
8682
9711
22601
7545
19766
9556
9564
9567
9569
20468
12184
6916
23276
7484
21275
13245
9605
8883
9614
23481
9625
10772
23999
23857
20776
16890
6838
10136
20951
259
7180
23685
9735
22912
10347
12346
19843
16434
9765
22508
9788
8204
28830
7023
26040
15773
2520
7134
27817
16116
20903
9817
1216
19968
19638
10456
27401
22847
7392
11471
9312
9893
21351
9897
17923
9900
22865
9905
8718
7685
6016
28362
9925
9926
19147
28250
12838
24545
23986
5235
16834
18350
7188
9963
9973
11131
12986
24930
18722
16963
22579
8983
10017
23229
8510
1248
10053
10058
7858
10067
6816
10074
28834
23088
21470
28890
6731
11026
10089
20387
26976
13659
8880
26910
29428
10129
9369
10147
7403
12146
9586
6865
10156
10404
9301
17453
10161
11066
13387
25395
26677
29047
9462
10980
10181
10194
10559
9600
25985
10218
12489
23054
10235
10131
26227
7902
10245
27754
12203
10266
7747
31145
22948
8716
18021
10285
28187
28435
6914
21423
7255
24276
16850
9559
20235
10307
11867
25959
27989
28846
7800
30090
30661
31733
10334
18592
18634
24800
28074
25179
27530
27611
10347
15846
26621
10356
31859
10365
9904
20830
6209
31196
22707
13310
23113
6259
26764
23846
22467
26475
10393
8733
10399
10405
29595
11647
8805
8651
26800
21927
17932
10437
4293
23970
27488
26777
10456
29106
23828
21146
9546
10460
10821
7092
31955
11806
6644
8241
7212
7395
10481
20270
10499
10502
10503
24920
20896
11645
19753
22637
10535
25196
14669
24250
12805
24294
10534
10538
15344
25906
18186
10554
10561
23489
14457
32462
10567
23939
9503
8974
10573
22906
31682
10830
10584
9588
22272
24580
10061
8428
21423
26485
23235
10616
16835
8824
32021
10628
24955
10633
9913
5117
10061
10640
18129
23286
8392
32305
23831
25450
3090
10647
11660
29928
21863
19311
17275
24540
31816
10669
10672
22306
33203
9870
10685
10689
6333
20125
33233
10691
26015
8727
17013
5369
13809
28778
19628
26220
33040
10724
10726
22364
10663
29823
5477
9172
32623
13392
16731
10739
10748
30593
27623
33743
10751
12766
8164
10752
27594
9742
31433
10756
10757
22035
21998
6575
26152
868
10762
29950
10767
25007
21707
9380
10776
25851
10789
20913
12732
29189
28369
16922
30440
12246
10937
8060
16554
23600
5289
12100
12480
10809
31616
10811
6707
10820
15425
6828
10822
10829
12549
33410
10835
26695
9988
21919
24931
21978
21735
10618
10849
23399
7637
10742
20056
10940
10865
19579
24073
18346
7514
10216
32219
31418
33435
21610
8589
21249
10879
10882
9227
23600
30570
17674
8439
10886
12900
10894
8740
11889
19147
10903
8396
30290
29272
16433
10911
34350
28448
23640
32989
10927
28428
7257
32257
30789
16863
21474
14355
30028
10938
30309
27747
28296
6220
11822
23827
31242
10137
23682
13405
12420
13127
29808
10952
32480
10961
13444
9138
34686
10969
10973
10974
8434
12908
28598
10980
33928
29436
30259
10988
10991
7605
9680
16167
27193
31060
9738
16789
34083
21404
32671
5982
9917
30135
9345
27014
11006
12533
6674
11009
11010
5921
9549
14202
23561
27907
11827
30402
11019
28813
11025
17214
9939
24876
31305
34587
11038
20525
27722
31778
15958
7904
11043
19715
30468
29444
26127
27612
28301
28739
11532
8349
11058
11060
25324
34503
8722
28914
29041
30417
32481
32957
24574
11065
33543
25775
32479
8992
20422
11074
25766
19841
23536
14079
24854
27961
29286
30465
11085
397
5747
19949
20578
29662
8856
26102
10643
11099
24016
32036
17141
11104
8164
21608
7127
28515
11109
11110
11111
26960
6122
10871
22735
26581
15629
25289
16742
30473
24012
32901
5337
11122
7901
11174
26209
11137
27295
9832
10872
28076
23595
1152
15761
8809
11143
11592
32774
7363
8700
9318
27308
10422
10809
31725
16488
26457
10165
16555
6246
7280
11161
30194
11162
25729
8004
27005
25018
6
6668
32890
5716
28869
13116
21802
31830
11184
11185
5937
12640
17115
23194
9920
9791
979
9470
16310
8720
26264
6404
33002
11955
18152
11209
6704
11214
11215
11803
9340
11216
11217
8641
15985
30397
29147
32752
14908
13957
28863
4940
24195
16748
35635
11237
23596
33008
24254
25048
31571
15522
11252
11253
25356
19596
29137
32805
33688
1642
27578
35359
6229
34524
11265
11266
29247
25972
31195
27327
11269
11945
29310
8583
10600
28253
22364
5295
35738
7984
11280
26321
7643
8698
11288
7970
26762
29174
10369
11292
24612
32722
11297
11298
14174
17044
27303
9815
23818
26379
8317
25273
11301
15466
24794
24178
5214
36238
36137
376
27748
12725
20805
8220
30323
28023
5387
20736
16793
11322
28119
14957
11329
34555
33396
7794
11336
16367
11347
27568
20595
27997
31935
21222
34297
9857
29319
11350
26837
15326
11355
11357
31864
18939
36203
11272
6027
25526
11148
11363
34066
11364
11365
11366
10992
15632
9249
35147
30504
32664
6313
26846
17080
25475
13527
6110
19708
7106
10275
22492
30525
28537
23180
19803
10248
33272
11391
10585
28104
25793
18301
22198
11392
11394
11397
28611
11401
11402
27674
18318
32386
30797
25695
32908
32570
9855
11855
25266
11411
30050
7534
33342
11416
26885
11419
17391
33403
8631
7504
8143
20759
24257
10224
11426
10159
31037
16917
25373
271
10468
11781
11432
23671
29462
31118
35907
15810
11434
22341
26663
27457
17497
10979
11439
11441
31905
6823
36311
30376
6465
10363
11450
25465
6686
9983
8287
10023
26107
8293
33864
35516
34242
7880
11078
11460
28416
27598
11470
20315
11473
11475
11476
24613
26758
9448
35102
19465
11271
11478
26790
8001
15966
24734
26158
8559
29438
29891
33156
9894
11488
23573
29101
31480
20888
11496
6938
15377
31568
21623
35363
30539
24300
23300
9353
7449
11436
11499
21210
19080
31339
32162
24877
11501
11502
29455
7400
13428
30227
36949
22874
27823
31053
14632
10529
27533
1970
33127
34347
8520
32500
7003
35153
29884
11518
11520
13800
23316
36968
11523
11524
11526
11528
25875
22395
703
22899
9628
13169
12212
7979
8651
34757
11537
11539
12200
28671
22223
34040
13630
11543
19051
17337
9402
21760
16373
14630
25489
11546
17139
32780
18704
9968
9346
28373
11550
17507
13060
32214
28049
27138
27185
12846
20710
35081
29744
26012
6225
28526
24983
28380
8317
11559
25173
3449
27949
34882
18339
11125
10151
10646
33006
11082
11569
29623
31601
31368
576
13823
20895
25596
32670
33404
10750
249
11577
11580
20506
11583
7320
21705
35888
11865
12563
22900
24935
6166
8261
33507
10054
14640
19081
11591
12876
27863
25949
13845
25337
26803
23987
11599
27943
10528
26776
11604
11606
13185
14294
20404
30779
8126
35277
24944
11270
15020
10164
20978
36920
37315
26291
10892
20738
32360
35701
10480
37061
11621
7528
12840
22856
33713
35260
31658
37344
11028
34087
11626
11627
7063
11428
11180
16216
21647
35031
11632
11633
31285
35084
21769
6781
16897
11634
10996
27364
30286
35626
10454
31780
11635
17754
15698
7007
26541
5621
35657
30409
11642
29830
36632
36903
11643
13729
33540
10783
24677
11646
11647
31883
36841
23321
31466
7968
30326
8927
31239
9608
23735
12952
26602
37560
11657
7113
33399
35755
36111
8380
29038
25310
30332
8398
27290
37851
11663
31481
24544
33087
6843
36751
16655
11669
21094
22415
11675
11676
16824
30125
34119
10195
11685
11686
11690
10196
30861
5882
5501
31347
10988
36753
8638
34457
12564
15025
29232
37427
9221
16026
11697
11699
11700
9437
23561
37984
33400
25338
11703
4931
9980
7760
10720
37822
12829
23812
33537
34791
36038
35818
18840
11709
11710
11711
26320
13923
31921
14547
35521
11715
5694
32053
8971
26478
10791
11718
25736
19762
10810
11027
33864
26761
30102
35706
10857
7182
8509
23576
33148
21797
28276
30191
35171
31469
11730
11731
11732
32633
28932
10509
28103
8086
32140
33850
33339
9628
23342
13312
453
23913
30654
34604
26214
23114
11741
11743
6841
8816
26569
34411
7368
38098
11745
11748
9890
25599
18021
28610
11750
11752
11753
32880
34265
11758
11759
19762
32156
21993
19436
11764
35196
11259
35201
11765
28132
6295
16063
17867
11767
8458
23813
32474
30889
13652
32819
22729
22679
11770
11772
34506
34273
9024
11775
11777
11779
8279
25809
19079
9639
23635
22695
38151
34255
11212
23185
10657
17985
11784
11785
24598
19632
33947
36053
31728
38351
25718
1602
14574
11791
26993
9869
16626
34290
23073
11796
19115
20124
8678
33756
33363
37932
26610
8526
7884
19213
32688
32578
23533
18660
32644
11801
11802
27565
32621
25015
35896
11804
11805
11806
11808
11810
31293
9365
7885
27006
34759
11812
28654
2355
22231
32851
15513
34758
18293
11814
11817
7646
8930
7972
9825
13124
8022
20042
10623
11820
11823
25283
28278
34902
16315
11827
31768
6442
31233
11231
11831
11835
31837
9543
9553
11838
11840
12160
31365
7869
32731
35584
8248
13920
19503
9690
9818
9619
30679
37333
9965
11843
12321
34474
36868
29825
36437
5382
30953
8372
38576
11847
12888
20592
32043
9544
11851
11853
33777
12143
37917
38556
8425
11855
11616
25275
20512
9166
17841
7428
4244
18495
32596
24754
9495
12789
11859
7630
9252
27146
22720
18808
20041
11002
8045
31669
20988
6825
11871
17386
33489
21375
23620
19359
21596
18708
36507
8722
32457
16196
21848
28740
26258
6246
15174
7880
14922
32151
37479
28960
11875
11876
11877
11879
27372
16746
25296
11299
15160
23434
24964
31273
37026
34315
23613
21656
27392
33567
35508
11889
11891
8829
30052
32221
20246
5268
17578
33411
25727
26634
5810
27735
2701
38675
11897
11898
30850
17263
10248
4874
11360
37473
9025
25309
24335
11903
11905
21593
10243
32841
36972
37002
11907
11908
11910
36133
6287
18709
10134
11914
23945
7719
30055
11620
28914
31554
34451
11918
9547
33782
35348
27047
28192
11460
19835
32359
27851
7778
23310
10559
11923
6493
33915
10512
27590
38213
38833
11927
14314
24966
11549
33015
31419
9571
11930
11931
11932
16343
5544
19392
16437
8072
27580
38258
31880
28913
32284
35295
26834
35620
37299
14523
32275
23470
13431
35886
11935
32972
15697
32845
9787
16664
30796
28473
30375
38160
12132
38906
11942
9827
14047
17992
7572
34629
27202
34706
16531
4233
8319
6948
11949
21943
33095
33708
36185
20887
11040
11052
10442
18405
38618
11950
11955
29106
25877
20256
11957
11958
11959
11960
10725
10832
14022
28285
11967
16833
32167
28754
17983
24592
30720
18818
33249
9864
28183
7870
5696
29483
11973
11974
11975
20763
12743
27936
27675
36151
10258
37488
28146
9869
23028
29045
17471
11976
10771
26743
9299
11941
11978
11979
11980
31201
35662
12300
2394
11981
11982
11984
11985
11987
17304
30244
10214
26928
13021
8804
23171
30169
39033
11989
11990
8203
26617
31990
32768
11992
19228
11050
20570
30484
20812
12576
34404
12248
33687
10177
8847
38631
29311
24652
34605
5721
38454
38529
11798
11995
11998
11999
12000
12002
29466
31996
27211
33747
9715
10570
29203
32371
12003
24111
11353
37141
10976
22165
35386
2132
11655
17499
9953
32195
11290
11547
11694
29525
6882
20622
31255
28002
35714
10361
29263
28019
10365
30969
12010
10267
20688
21009
7303
24389
9570
10029
17242
28382
11167
11065
12014
12015
31258
25083
10323
12016
12018
32389
28982
34704
37786
30757
38077
38674
33681
30397
12021
12024
22034
22684
7087
8725
27551
33116
25112
19318
23619
12025
12026
12028
8103
9180
6375
29196
33923
34624
12033
34869
31966
21907
16836
22339
37502
11800
28355
12035
12036
30673
9507
15483
12793
37950
11489
38544
12040
12042
8844
2333
32939
22842
11816
12046
12047
12048
12049
31965
5475
25900
12050
9831
22434
20919
36332
16718
36592
31853
12052
8936
31089
9273
19132
30330
12651
37990
14825
39050
12055
29701
29974
25861
12056
34823
26644
31035
11072
33210
33918
9696
24437
35537
12058
12059
12060
11967
19571
30279
31331
21158
25989
12062
12063
12065
22642
31411
12186
37331
30866
9967
12068
16446
32968
2883
9968
23300
10032
19108
39280
23628
29305
9001
15712
13251
11928
32833
35982
10262
26126
15834
7933
27180
10709
22017
21209
10068
24793
35341
36520
35285
28959
5900
8271
8877
9776
10433
17869
16518
12072
12073
12075
14264
36256
36120
39244
12078
12079
12081
22698
31892
31026
22849
9100
35661
36160
37809
26187
10746
12082
30599
19612
30157
7970
33179
12608
26600
10530
32055
38111
8529
12084
12085
12088
30048
13354
29660
27355
33003
35181
31684
4872
7268
22881
10236
12091
12092
12093
28967
30435
26048
26055
6659
22630
12095
12096
12098
18464
10632
29895
10400
5381
24845
7376
24647
5064
12102
23454
34106
26917
8828
8395
12105
12106
12107
26713
8096
33456
7965
2327
21080
28930
31330
12113
35156
33112
29433
10325
21772
10494
14603
26878
12113
12114
12115
12116
12117
27448
30119
28320
33714
16226
12120
12123
30603
31695
28704
10919
8787
9161
12124
28078
28870
10991
7889
6478
20045
32108
12127
25369
9565
38354
38422
21779
38680
12882
39734
11345
19664
25432
31628
15586
35995
36782
36959
37353
27457
11320
10841
12130
26064
13839
21758
36008
19068
37772
29696
38885
36509
12133
12134
12135
31795
18814
12137
24023
13087
34333
20953
39090
39187
16768
12140
12141
29128
33357
19152
30920
37046
25415
7799
25673
27257
23984
9021
11645
32545
39035
25185
39779
22738
10741
7525
33855
21032
19263
39188
12146
12147
26473
26951
24676
24996
12149
12150
9755
11539
8606
33557
12152
12154
12155
12156
12157
27673
35112
18235
17555
27349
9917
37172
11130
36571
2105
32663
23212
36563
11131
25623
12159
28362
17618
22019
32437
22724
36510
34013
16328
38970
39457
39813
34111
25719
40010
20806
12162
30618
34521
7207
28508
12164
12165
35227
11048
7629
15485
12167
12169
12170
12173
5547
9710
33598
23988
12175
12176
13008
40002
31813
12180
12181
12182
19957
22262
27006
35972
11421
24391
11652
9768
14558
22988
12183
12184
12185
4611
27983
14292
31660
27891
6547
39645
8571
12187
28671
13748
7767
31753
18699
36101
29668
37780
12188
12190
30305
7555
22576
9561
35663
38019
11012
21283
25161
9669
12194
12197
12198
23782
10066
35851
26728
10760
40011
12200
7898
4266
8741
39160
10854
29477
40089
23653
15437
30045
7581
7722
12201
12202
33158
34843
20697
10536
35571
35994
37127
8465
29523
12579
32956
29288
489
15078
31025
29757
8628
38849
15750
6211
36644
12205
12206
29273
10787
18342
35857
3170
22931
18575
22805
27556
12212
12213
7066
22965
35950
22902
12214
12215
12217
15677
7550
24283
36455
25663
34186
34932
39745
27753
12218
34681
26751
10634
36562
15785
11509
7837
20161
27946
16903
34417
29869
24362
30840
20860
23398
194
39964
12219
12220
12221
9194
27712
35280
10855
38592
38843
39718
31510
39194
12222
12223
12224
12225
12226
8200
22522
37909
29728
27814
12227
24400
34381
22044
7835
7346
38562
33124
39159
11001
40212
34133
28301
28931
5675
21327
31668
13476
8913
24192
12232
12233
7872
11591
27822
6513
10848
26938
34178
9972
11334
11187
34141
30016
9568
9265
12234
11689
8781
13964
20452
9229
38994
11317
37330
10797
40211
14468
26077
12235
12237
31736
32841
18576
4906
38918
11062
9642
37173
12238
12239
12241
12242
12243
12244
23082
29025
14495
16999
23001
37892
8081
16456
39805
23825
12245
12246
12247
12248
12249
12250
30181
16464
29457
33020
10038
38265
38486
10443
12252
12253
12254
24450
24714
31160
24114
10007
26833
37283
2114
17251
31426
10326
35483
31072
10775
38577
34404
24113
35979
40161
33984
29107
27253
6928
14322
8095
19104
10275
27098
38194
38968
12262
12264
12265
12266
6595
18369
33982
25832
8897
28487
20552
28941
8940
37996
9021
40058
13693
31489
12267
12268
33320
21785
6985
33867
11456
39018
14136
14611
14109
20504
12273
12274
27730
27099
24505
17728
19131
35890
9355
28684
12121
19960
12275
8121
6190
31050
27625
4904
31814
33050
36844
18602
22031
10186
12276
12277
7240
26962
14127
6465
25326
24555
28511
35077
11409
22265
24939
39784
6021
10532
12278
8708
29980
23804
20900
9824
18346
7608
37730
39189
29087
40470
12279
27399
7372
12053
32029
24923
10608
37543
12281
26813
26357
10426
20755
26318
25097
5554
7795
10102
10928
12285
12286
12287
12288
6382
37572
37691
27484
32101
12289
12290
21360
34699
35409
8413
38023
11080
22079
39148
40229
32779
12292
12293
32229
9744
31089
31708
38936
39876
31012
11337
7163
29020
13840
12294
12295
17593
33717
34712
25409
7356
7710
33120
18076
25119
10305
30993
10361
33329
35545
10008
12296
12297
12298
12299
28433
15362
8361
8806
25744
40302
22966
9397
437
11656
12301
12302
12304
12305
12306
12307
7155
8545
24491
2400
7567
40404
12126
12309
12310
7010
23871
10142
20982
9811
5917
27783
6375
33973
11603
12311
12312
12313
34559
23232
27177
22864
37302
20487
10808
9142
39083
21252
12045
18512
21044
12314
12315
26499
29493
6137
34450
29000
32081
34220
35172
9678
26490
39281
39398
28608
38848
39430
12041
12316
12317
12318
12319
26092
13311
35716
24866
7297
35207
37205
33764
33481
26282
40665
12320
12321
12322
24298
6295
11051
37891
31683
26069
7621
7278
9262
10350
40698
21378
12324
12326
12329
12330
12331
21236
19095
33840
36486
35961
40213
7392
6900
11420
12333
12334
12335
25709
23018
13654
29114
37188
16582
12086
35161
31398
39580
10821
12336
8285
130
24287
11023
28426
5921
12337
27372
34687
30912
24299
21239
16540
28321
32033
16985
8069
11533
39618
37068
30489
40324
28755
29618
12338
12339
12340
12341
12342
12343
6109
30420
27766
15794
29201
33118
34000
27176
26983
12344
12345
12346
12348
18143
30647
32648
25673
7933
39924
36289
6923
12349
12350
12351
24078
34246
28857
8357
25028
22902
35947
34558
22197
8584
39289
25954
36997
13301
6561
8334
27980
26392
34192
37570
11928
7427
40382
12168
11429
12353
25629
30976
32678
19230
29802
38734
9298
12519
8406
15012
27696
26918
8062
27601
26552
10288
8880
40162
40834
12354
12355
12356
12357
12358
12359
12361
12362
31471
12954
18075
23467
29965
8324
37371
38764
38940
39516
40739
10105
16036
12363
12364
12365
15041
105
5992
33287
10625
26651
15011
33359
31494
23490
31774
28833
39282
12506
8016
33698
7667
40837
12367
12368
24207
22733
34289
29217
21890
6217
20686
6755
38644
38934
39345
11655
34255
7058
27480
16124
10947
30354
35944
39503
20015
24951
27209
30628
9633
23208
35903
37320
33037
38799
9945
24170
11574
31289
36279
24717
29950
37867
33775
25456
24460
24392
12369
12370
12371
12372
12373
12374
12375
23993
29040
27966
8043
29076
30580
9862
7131
18967
24153
32169
7940
40791
7201
10863
7374
12377
12378
12379
32567
28600
24803
32385
27030
30447
36834
33733
12380
12381
12382
12383
21954
8731
34700
19141
11164
14662
17311
31879
10735
11920
10817
9334
12384
12385
28096
29149
31238
28094
33211
35610
8460
6654
5489
22718
20803
28906
8341
31666
31101
37589
22465
15780
10732
12787
10395
36596
26287
11947
40342
30775
31985
38758
36341
24381
12386
12387
12388
5725
21684
19490
34419
33324
22449
5242
37616
37708
7324
39619
39746
36595
9075
40902
34136
40971
5450
12389
12390
9784
23268
13035
31772
30620
34205
10577
7325
24863
11719
11882
19745
11295
31817
10163
30615
7415
16536
12391
12392
12393
12394
27543
5596
29386
20864
35758
7104
28001
8321
2150
37412
37960
21184
30555
12395
12396
12397
12398
12399
12400
12401
29417
11718
27708
32753
6955
32791
28461
10563
28611
10274
34642
34770
35856
10982
38569
18792
23152
11964
11861
11747
12376
)


// ************************************************************************* //
