/*--------------------------------*- C++ -*----------------------------------*\
  =========                 |
  \\      /  F ield         | OpenFOAM: The Open Source CFD Toolbox
   \\    /   O peration     | Website:  https://openfoam.org
    \\  /    A nd           | Version:  7
     \\/     M anipulation  |
\*---------------------------------------------------------------------------*/
FoamFile
{
    version     2.0;
    format      ascii;
    class       Cloud<dsmcParcel>;
    location    "0.005/lagrangian/dsmc";
    object      positions;
}
// * * * * * * * * * * * * * * * * * * * * * * * * * * * * * * * * * * * * * //

3230
(
(0.4753123231 0.2623438385 0.08983904369 0.1725047948) 222 438 1
(0.4177074648 0.2852346424 0.005911625192 0.2911462676) 399 785 1
(0.2255949056 0.3872025472 0.0177756708 0.3694268764) 270 473 1
(0.1638578823 0.1950298684 0.4180710589 0.2230411905) 97 192 2
(0.861283764 0.05954834793 0.06935811798 0.009809770043) 423 833 2
(0.5451173114 0.2274413443 0.1901410599 0.03730028437) 468 918 2
(0.1414671576 0.09006507342 0.4292664212 0.3392013478) 205 405 2
(0.9559838584 0.02200807082 0.017420204 0.004587866812) 238 467 2
(0.6222757864 0.01152198716 0.1888621068 0.1773401196) 208 411 2
(0.1302451408 0.4348774296 0.3256080292 0.1092694004) 188 371 1
(0.501209314 0.249395343 0.1919636336 0.0574317094) 25 51 1
(0.6819903549 0.1590048226 0.04000661239 0.1189982102) 292 517 1
(0.06249669029 0.009828818456 0.4687516549 0.4589228364) 365 719 2
(0.4048886432 0.2975556784 0.2689883196 0.02856735878) 247 487 1
(0.1342433971 0.4328783014 0.1094373664 0.323440935) 105 205 2
(0.1297621155 0.4351189422 0.01893663857 0.4161823037) 130 198 1
(0.417587018 0.08361919377 0.291206491 0.2075872972) 71 141 2
(0.3909897331 0.2629619747 0.3045051335 0.04154315878) 107 212 2
(0.02243379878 0.3487793441 0.4887831006 0.1400037565) 393 771 1
(0.1625917235 0.02725151647 0.4187041383 0.3914526218) 161 318 2
(0.3325704335 0.3337147833 0.2259185896 0.1077961937) 427 838 2
(0.2235418934 0.3882290533 0.3091613439 0.0790677094) 526 1018 2
(0.05333435975 0.2975390928 0.4733328201 0.1757937274) 358 706 2
(0.407143225 0.1787468745 0.117681513 0.2964283875) 75 148 1
(0.1583807388 0.178074706 0.4208096306 0.2427349247) 258 509 2
(0.2453312639 0.2368860358 0.377334368 0.1404483322) 333 656 2
(0.1661882382 0.4169058809 0.3721277072 0.04477817373) 109 216 1
(0.2202209358 0.1034835269 0.3898895321 0.2864060053) 259 508 1
(0.5682354586 0.08505719177 0.1308250789 0.2158822707) 495 917 2
(0.007129022412 0.1425329674 0.4964354888 0.3539025214) 301 593 2
(0.1404598426 0.04387335444 0.3858967243 0.4297700787) 41 23 2
(0.5307135689 0.2346432155 0.2021936548 0.03244956074) 192 379 1
(0.08959463788 0.01779181543 0.4374108656 0.4552026811) 222 437 1
(0.1838702813 0.4080648594 0.318678333 0.08938652635) 430 846 2
(0.527565394 0.008343973285 0.236217303 0.2278733297) 382 750 1
(0.5769179855 0.2115410072 0.01651457151 0.1950264357) 220 375 1
(0.04487076617 0.4606449719 0.4775646169 0.01691964498) 210 2185 2
(0.4497411352 0.2129851115 0.06214432085 0.2751294324) 24 48 1
(0.6311756918 0.1844121541 0.1422215079 0.04219064619) 340 670 1
(0.5489208107 0.2127610087 0.01277858596 0.2255395947) 252 496 1
(0.1381350193 0.4309324904 0.05332998996 0.3776025004) 380 690 1
(0.1412793243 0.1792045457 0.2501557921 0.4293603378) 294 521 2
(0.7734524969 0.1132737515 0.1069857719 0.006287979609) 253 440 1
(0.00786332645 0.3222213573 0.4960683368 0.1738469794) 237 465 1
(0.6785397853 0.1607301073 0.1277429799 0.03298712743) 11 22 2
(0.4611440139 0.1827229076 0.2694279931 0.08670508548) 154 304 2
(0.0174792267 0.4912603866 0.1780577829 0.3132026037) 303 538 1
(0.5435843541 0.228207823 0.2139032346 0.0143045884) 406 741 1
(0.471486589 0.01794945101 0.2463072545 0.2642567055) 337 663 1
(0.1445783417 0.4277108291 0.2268150619 0.2008957672) 266 522 2
(0.05075815946 0.2659541683 0.208666752 0.4746209203) 382 694 2
(0.7106060448 0.1413376487 0.1446969776 0.003359328927) 233 457 1
(0.06562762648 0.4671861868 0.4177975348 0.04938865195) 406 741 1
(0.1000909164 0.09418376003 0.3557707818 0.4499545418) 483 893 2
(0.3165934083 0.104639767 0.3417032958 0.2370635289) 243 479 2
(0.3699739762 0.1059303744 0.3150130119 0.2090826375) 33 66 2
(0.6232464912 0.03434806774 0.1540286867 0.1883767544) 447 880 1
(0.7998422754 0.1000788623 0.07001587996 0.03006298232) 486 951 1
(0.1527511822 0.2896187289 0.13400568 0.4236244089) 321 574 2
(0.6045344709 0.1977327646 0.04560232781 0.1521304367) 100 197 2
(0.05021241506 0.4748937925 0.1443161079 0.3305776845) 328 588 1
(0.7510485388 0.05484500778 0.1244757306 0.06963072281) 272 536 2
(0.2739532417 0.03301781238 0.3300055668 0.3630233791) 244 480 1
(0.3584634076 0.3207682962 0.1288152987 0.1919529974) 81 158 2
(0.3658668064 0.3014179859 0.01564861092 0.3170665968) 400 787 1
(0.1381242501 0.1844353425 0.2465025324 0.430937875) 34 67 1
(0.6262198761 0.08016115754 0.1067289044 0.186890062) 41 81 1
(0.4006415199 0.2996792401 0.165736531 0.1339427091) 265 464 1
(0.1764844979 0.411757751 0.1445428973 0.2672148538) 307 604 2
(0.08649935303 0.4567503235 0.4108023014 0.04594802204) 541 1038 2
(0.1866129272 0.4066935364 0.1701306424 0.236562894) 345 680 1
(0.1494226319 0.09875808575 0.4252886841 0.3265305983) 336 659 1
(0.4383006933 0.1008708555 0.1799787978 0.2808496533) 203 342 2
(0.7345174699 0.1327412651 0.03006492031 0.1026763448) 93 184 1
(0.3981764538 0.3009117731 0.1458039399 0.1551078332) 452 888 2
(0.4924624797 0.2461073361 0.2537687601 0.00766142402) 105 208 2
(0.06452978898 0.4677351055 0.1449791929 0.3227559126) 25 50 2
(0.2818118926 0.2909046895 0.3590940537 0.06818936421) 407 802 2
(0.1255830143 0.2474954606 0.1897130322 0.4372084928) 232 457 1
(0.5134244978 0.2432877511 0.05823178255 0.1850559685) 281 551 2
(0.06504616446 0.4674769178 0.202965906 0.2645110118) 95 185 2
(0.870890678 0.02808820853 0.03646645247 0.064554661) 159 255 2
(0.186108465 0.3490598536 0.4069457675 0.05788591391) 351 692 2
(0.2732103217 0.3633948392 0.2228755483 0.1405192908) 507 987 1
(0.8153774121 0.02715990556 0.09231129396 0.06515138841) 184 363 2
(0.09560827838 0.4521958608 0.318316544 0.1338793168) 1 3 1
(0.4694781558 0.2652609221 0.1878511418 0.07740978033) 414 815 2
(0.4347450895 0.006477025981 0.2761504293 0.2826274552) 108 213 1
(0.2731318109 0.3634340945 0.1488657569 0.2145683377) 241 474 2
(0.5527468239 0.2236265881 0.04510915722 0.1785174309) 195 382 2
(0.5706482542 0.2146758729 0.06606803324 0.1486078397) 333 597 1
(0.09158188952 0.0001381566941 0.4540708985 0.4542090552) 310 610 1
(0.3297075045 0.08973809569 0.245408152 0.3351462477) 36 71 1
(0.8102492596 0.0135616241 0.0948753702 0.08131374611) 410 808 2
(0.3611634373 0.3194182813 0.1567652986 0.1626529827) 264 518 2
(0.02796688924 0.04948295288 0.4860165554 0.4365336025) 83 165 2
(0.1286042082 0.4356978959 0.05897619732 0.3767216986) 16 1072 2
(0.8465508129 0.07672459354 0.0109735448 0.06575104875) 97 192 1
(0.02901498936 0.3645624892 0.1209300161 0.4854925053) 257 506 1
(0.05096910536 0.4745154473 0.2197120887 0.2548033587) 20 40 2
(0.2828803702 0.2182773322 0.1402824827 0.3585598149) 222 437 1
(0.1944914788 0.4027542606 0.374988924 0.02776533661) 140 276 2
(0.7970644599 0.10146777 0.01561889773 0.08584887231) 240 473 1
(0.7511543205 0.1244228397 0.0172492551 0.1071735846) 212 418 1
(0.1710897838 0.160427682 0.4144551081 0.2540274261) 156 305 1
(0.3421357911 0.1699964469 0.3289321045 0.1589356576) 283 555 1
(0.04398420753 0.3766634027 0.4780078962 0.1013444936) 173 339 1
(0.2105968614 0.3947015693 0.1460821644 0.2486194049) 513 996 2
(0.3190758816 0.3404620592 0.04075850347 0.2997035557) 106 210 1
(0.6425660004 0.05591871358 0.1227982862 0.1787169998) 65 70 2
(0.2930298039 0.3534850981 0.01757726511 0.3359078329) 77 153 1
(0.662777114 0.168611443 0.05647018495 0.1121412581) 158 309 2
(0.08892891298 0.4555355435 0.07710304919 0.3784324943) 177 350 1
(0.1466078578 0.3110379625 0.1156581087 0.4266960711) 4 8 1
(0.08930505503 0.4553474725 0.1358068267 0.3195406458) 163 319 2
(0.9358116499 0.003463408231 0.02863076682 0.03209417505) 62 122 1
(0.03985515267 0.4800724237 0.01765159614 0.4624208275) 224 442 1
(0.02215492923 0.1094987233 0.3794238121 0.4889225354) 97 133 2
(0.6915138516 0.14186302 0.1542430742 0.01238005421) 205 402 1
(0.4767688403 0.2616155799 0.1107635117 0.1508520682) 226 387 1
(0.1717710395 0.4141144802 0.3188720514 0.09524242887) 367 723 1
(0.4212047354 0.2161392652 0.07325836714 0.2893976323) 42 25 2
(0.1877119509 0.4061440245 0.3595682385 0.04657578604) 427 840 2
(0.3630739429 0.2497200551 0.06874297345 0.3184630286) 371 672 2
(0.276152515 0.06575269695 0.3619237425 0.2961710455) 400 785 1
(0.5932355533 0.1013206632 0.2033822233 0.1020615602) 371 728 1
(0.341365541 0.2131150216 0.3293172295 0.1162022079) 184 363 2
(0.4677499321 0.12221808 0.266125034 0.1439069539) 500 2208 2
(0.2735063544 0.1699327877 0.1933140351 0.3632468228) 141 220 2
(0.3048364678 0.2879792531 0.05960251294 0.3475817661) 68 134 1
(0.1059871742 0.02891018661 0.4470064129 0.4180962263) 44 88 2
(0.6632249087 0.1683875456 0.102315946 0.06607159966) 15 30 2
(0.208844548 0.395577726 0.385692341 0.009885385001) 520 971 1
(0.4257619144 0.005089658632 0.2871190428 0.2820293842) 487 950 1
(0.3058536576 0.3211215887 0.3470731712 0.02595158252) 201 394 1
(0.611623231 0.1941883845 0.07995897973 0.1142294048) 425 836 2
(0.2394024479 0.231630661 0.148668115 0.380298776) 163 263 2
(0.4079146763 0.2960426619 0.06229866264 0.2337439992) 282 553 2
(0.1598947063 0.04182222778 0.378230419 0.4200526468) 110 217 1
(0.05109538048 0.4577063047 0.01674600506 0.4744523098) 206 348 2
(0.2717479118 0.3381156912 0.3641260441 0.02601035289) 73 142 1
(0.5304404622 0.1879636696 0.2347797689 0.04681609928) 362 713 2
(0.2218007734 0.3890996133 0.05996319206 0.3291364212) 424 776 1
(0.7104969623 0.02530036177 0.1447515188 0.1194511571) 55 110 2
(0.6010867424 0.01844349402 0.1994566288 0.1810131348) 308 607 2
(0.7224574581 0.08011996674 0.05865130419 0.1387712709) 154 303 1
(0.1378773892 0.4310613054 0.4268204097 0.004240895673) 240 414 1
(0.3917692737 0.08936260865 0.3041153631 0.2147527545) 72 140 1
(0.4084743686 0.106067975 0.1896948407 0.2957628157) 344 619 2
(0.4561390236 0.2719304882 0.0003428150585 0.2715876731) 385 756 2
(0.02464881478 0.4876755926 0.002529774476 0.4851458181) 321 630 2
(0.8412787569 0.07936062154 0.04274440253 0.03661621901) 340 667 2
(0.1683755126 0.4158122437 0.07057137706 0.3452408666) 55 109 2
(0.240471246 0.379764377 0.002500932437 0.3772634446) 117 173 1
(0.2302178814 0.3348686861 0.05002237317 0.3848910593) 317 624 1
(0.07580343289 0.4620982836 0.368733555 0.09336472857) 27 54 2
(0.1407601305 0.117324157 0.4296199347 0.3122957778) 7 15 2
(0.2342043968 0.02074830249 0.3828978016 0.3621494991) 13 27 2
(0.5943343172 0.04435957777 0.2028328414 0.1584732637) 340 670 2
(0.1131765177 0.4434117412 0.08573399868 0.3576777425) 83 106 1
(0.3769222813 0.08611098927 0.2254278701 0.3115388593) 369 726 1
(0.9238980659 0.03805096704 0.01698977552 0.02106119152) 104 205 2
(0.4343891849 0.1918481143 0.09095729328 0.2828054075) 93 125 2
(0.1070543397 0.1183088669 0.3281639632 0.4464728301) 366 720 1
(0.02475086944 0.2014770886 0.2861474767 0.4876245653) 39 19 2
(0.1498853279 0.2079043073 0.2171530288 0.425057336) 425 836 1
(0.396378826 0.2692033563 0.301810587 0.03260723071) 494 964 1
(0.5213672749 0.2393163626 0.009830252917 0.2294861096) 233 460 1
(0.08138602569 0.2752658852 0.1840411019 0.4593069872) 220 375 2
(0.2180200284 0.3909899858 0.09085540182 0.300134584) 115 227 2
(0.6227238486 0.14359973 0.1886380757 0.04503834574) 251 495 2
(0.3899793164 0.3050103418 0.2239963616 0.08101398018) 115 225 2
(0.06388918853 0.4680554057 0.04203987723 0.4260155285) 13 1069 2
(0.299768467 0.3501157665 0.1242476303 0.2258681361) 73 86 1
(0.05059713921 0.4747014304 0.09702723761 0.3776741928) 159 311 2
(0.3259652157 0.08865915404 0.3370173921 0.2483582381) 133 260 1
(0.4553451746 0.2723274127 0.2054081226 0.06691929011) 68 134 2
(0.2102919156 0.1365724701 0.2582815721 0.3948540422) 293 577 1
(0.214650116 0.392674942 0.1252104516 0.2674644904) 105 208 1
(0.1013457546 0.1935642818 0.2557628409 0.4493271227) 237 409 2
(0.3386882543 0.3114581894 0.01919768347 0.3306558728) 166 327 1
(0.631870584 0.1838300412 0.184064708 0.0002346667404) 341 669 1
(0.4477774482 0.2761112759 0.06861365359 0.2074976223) 3 4 2
(0.4337940981 0.01612501595 0.266977935 0.283102951) 528 991 2
(0.6589558706 0.03981364941 0.1307084153 0.1705220647) 11 1067 1
(0.3214170015 0.3386209795 0.3392914992 0.0006705197624) 365 719 2
(0.1571957647 0.1491708026 0.272231315 0.4214021176) 16 1072 1
(0.6174151315 0.1218864818 0.06940595239 0.1912924342) 489 905 2
(0.4107160687 0.2946419656 0.0657299187 0.2289120469) 56 111 2
(0.3133545638 0.3433227181 0.009839639032 0.3334830791) 313 614 2
(0.3759250411 0.2898998634 0.022137616 0.3120374794) 64 126 1
(0.2189496794 0.3905251603 0.1196545807 0.2708705796) 486 951 1
(0.1111379527 0.3099007629 0.4444310237 0.1345302607) 353 693 1
(0.4019562438 0.2990218781 0.177348503 0.1216733751) 387 763 1
(0.3300076531 0.01179018724 0.3349961734 0.3232059862) 307 605 2
(0.01693836334 0.09928589474 0.3922449236 0.4915308183) 319 570 2
(0.4429891463 0.2785054268 0.1719838373 0.1065215896) 441 868 2
(0.3498273425 0.1325833357 0.192502993 0.3250863287) 203 342 2
(0.112963547 0.09391727338 0.4435182265 0.3496009531) 485 949 2
(0.06365064691 0.4681746765 0.1606611988 0.3075134777) 70 80 1
(0.2580002218 0.3680307309 0.002969158161 0.3709998891) 206 348 2
(0.2852131478 0.3032271708 0.0541662553 0.3573934261) 396 779 1
(0.4840683337 0.2579658331 0.2461234016 0.01184243152) 52 45 1
(0.3526265786 0.2945384826 0.3236867107 0.02914822806) 42 81 1
(0.1138870592 0.4430564704 0.2667826965 0.1762737738) 194 383 1
(0.1870519366 0.2754191337 0.131054898 0.4064740317) 381 750 1
(0.2648542657 0.01093181826 0.3675728671 0.3566410489) 416 817 1
(0.4405297749 0.2797351126 0.1711321561 0.1086029565) 302 595 1
(0.5991035442 0.2004482279 0.126242051 0.07420617687) 318 627 1
(0.3095538996 0.3452230502 0.06533014476 0.2798929054) 387 762 2
(0.3511332594 0.0160209461 0.3084124242 0.3244333703) 101 141 2
(0.1069961704 0.4465019148 0.4126767633 0.03382515154) 185 365 1
(0.6010868826 0.1994565587 0.03036311382 0.1690934449) 429 845 1
(0.1009563346 0.4495218327 0.01172863551 0.4377931972) 469 920 2
(0.7277334381 0.1285685176 0.1361332809 0.007564763312) 422 828 1
(0.130552489 0.4347237555 0.3791722348 0.05555152073) 393 771 2
(0.8172051454 0.07998368026 0.01141374704 0.0913974273) 460 847 2
(0.1657370309 0.4171314846 0.2662973513 0.1508341332) 263 460 1
(0.3990029145 0.2241376775 0.3004985427 0.0763608653) 70 139 2
(0.2010199095 0.3994900452 0.1218285454 0.2776614998) 247 428 1
(0.3040348635 0.1235961107 0.2243864575 0.3479825682) 531 1027 1
(0.6766009392 0.1616995304 0.1057745821 0.05592494834) 190 372 2
(0.7046851005 0.07473956276 0.07291788698 0.1476574497) 376 740 1
(0.06703308776 0.2755448903 0.1909385658 0.4664834561) 11 1067 1
(0.1097323218 0.4451338391 0.07512210394 0.3700117351) 9 19 1
(0.08970500507 0.243212715 0.4551474975 0.2119347824) 75 149 2
(0.0952658358 0.209455661 0.2429114211 0.4523670821) 392 771 1
(0.244258548 0.377870726 0.05093274067 0.3269379853) 387 704 1
(0.7472063249 0.06728479274 0.1263968376 0.05911204481) 228 447 1
(0.3321725685 0.04738903922 0.2865246765 0.3339137157) 479 885 2
(0.1469814071 0.4265092965 0.4077950096 0.01871428691) 69 137 1
(0.6680022168 0.0337098038 0.1659988916 0.1322890878) 76 151 2
(0.5279261758 0.2360369121 0.1376908192 0.09834609292) 124 186 1
(0.003883545711 0.1412586649 0.4980582271 0.3567995622) 132 258 1
(0.2047004063 0.2585702662 0.3976497969 0.1390795307) 93 181 1
(0.4913437768 0.2543281116 0.1126178823 0.1417102293) 161 259 1
(0.2561685385 0.2597153536 0.1122003772 0.3719157308) 117 173 2
(0.2971014962 0.2052853579 0.146163894 0.3514492519) 496 919 2
(0.1768087793 0.2238064211 0.4115956103 0.1877891892) 145 287 2
(0.2062898853 0.2187842567 0.3968550574 0.1780708007) 97 192 2
(0.201457221 0.3992713895 0.1274649443 0.2718064452) 341 671 2
(0.1621173734 0.08026827537 0.3386730379 0.4189413133) 442 870 1
(0.8627170981 0.06542007132 0.003221379648 0.06864145097) 482 942 1
(0.02655412729 0.4867229364 0.2218641158 0.2648588206) 402 792 1
(0.5564090067 0.2217954966 0.118290907 0.1035045896) 263 519 1
(0.7357364605 0.1321317697 0.0602117704 0.07191999933) 541 1021 1
(0.04441154375 0.4777942281 0.06489168862 0.4129025395) 205 405 1
(0.6468674876 0.1066328413 0.1765662562 0.06993341493) 237 468 2
(0.4462350494 0.0138399172 0.2630425581 0.2768824753) 260 454 2
(0.8730196788 0.06349016061 0.02312718052 0.04036298009) 75 149 1
(0.02435566179 0.2533038468 0.4878221691 0.2345183223) 138 273 2
(0.6705074783 0.08883294004 0.07591332083 0.1647462609) 222 379 2
(0.4199627501 0.290018625 0.1852935613 0.1047250637) 286 563 2
(0.4169329136 0.2915335432 0.2293416143 0.06219192886) 24 1080 2
(0.4017563127 0.1039391936 0.2991218436 0.19518265) 72 140 1
(0.468195112 0.04695750454 0.265902444 0.2189449394) 238 470 2
(0.8613586999 0.06932065005 0.04445722639 0.02486342366) 35 69 2
(0.2468220272 0.3765889864 0.3191423803 0.05744660613) 245 424 1
(0.64131531 0.179342345 0.03339384764 0.1459484973) 163 319 2
(0.3048782698 0.2998759667 0.04768489838 0.3475608651) 233 401 2
(0.3702757897 0.3148621052 0.1468890312 0.1679730739) 387 760 2
(0.7221186169 0.1389406915 0.05890051816 0.08004017338) 73 145 1
(0.6238429951 0.1880785024 0.04820254505 0.1398759574) 200 395 1
(0.4252452221 0.287377389 0.1309584078 0.1564189812) 366 720 2
(0.3713814522 0.3143092739 0.3098018957 0.004507378177) 261 515 1
(0.01851988827 0.05348841588 0.4907400559 0.43725164) 340 670 2
(0.8802969292 0.04656046301 0.01329107239 0.0598515354) 495 917 2
(0.4156378294 0.2921810853 0.1188733592 0.1733077261) 73 144 2
(0.2744109973 0.3627945013 0.0202346432 0.3425598581) 129 196 1
(0.2710659338 0.3644670331 0.2862299276 0.07823710554) 240 473 1
(0.05084865923 0.4745756704 0.08540437052 0.3891712999) 336 603 1
(0.1604001331 0.3302269607 0.4197999335 0.08957297272) 223 440 2
(0.7295888162 0.1352055919 0.1245194002 0.0106861917) 516 1002 2
(0.5162783339 0.2418608331 0.1747045371 0.06715629597) 483 945 1
(0.1500162472 0.3207387832 0.4249918764 0.1042530932) 373 732 1
(0.02205454456 0.3686057195 0.4889727277 0.1203670082) 377 743 2
(0.5765317579 0.211734121 0.07195948676 0.1397746343) 144 285 1
(0.3177132072 0.2333566219 0.3411433964 0.1077867745) 74 144 1
(0.476941883 0.09149613816 0.2615290585 0.1700329204) 101 197 1
(0.1256666088 0.4371666956 0.264649907 0.1725167886) 188 370 2
(0.4440715546 0.005056461235 0.2779642227 0.2729077615) 132 258 1
(0.7198016605 0.1400991698 0.02148369524 0.1186154745) 152 300 1
(0.3716459753 0.2808327881 0.3141770124 0.03334422425) 102 202 2
(0.6192329227 0.07513632575 0.1903835386 0.1152472129) 429 842 1
(0.1500195706 0.05349121192 0.3714990028 0.4249902147) 313 616 1
(0.5351187563 0.1409831871 0.2324406218 0.09145743468) 108 214 2
(0.2650656283 0.135453468 0.3674671859 0.2320137179) 279 547 1
(0.4981115334 0.1715287251 0.2509442333 0.07941550823) 114 223 1
(0.05225888564 0.4738705572 0.02579529372 0.4480752635) 37 73 2
(0.229153846 0.385423077 0.2041745252 0.1812485517) 131 256 2
(0.2343400335 0.3828299832 0.08581025774 0.2970197255) 379 688 1
(0.03203014841 0.3350307773 0.1489541485 0.4839849258) 39 77 1
(0.885528323 0.05723583848 0.02074399234 0.03649184614) 162 317 2
(0.1493767761 0.2700169471 0.1552946649 0.425311612) 192 320 2
(0.4182865221 0.2908567389 0.09825902961 0.1925977093) 224 439 2
(0.3350151789 0.3324924105 0.1843008314 0.1481915791) 41 23 1
(0.192191645 0.4039041775 0.383257827 0.02064635046) 289 567 2
(0.08616729015 0.2219025578 0.2350137971 0.4569163549) 279 491 2
(0.3613475317 0.3193262341 0.2788228465 0.04050338766) 134 265 1
(0.07001722079 0.01154989934 0.4534414903 0.4649913896) 216 425 1
(0.5650961708 0.2174519146 0.09895650812 0.1184954065) 303 596 2
(0.4169948184 0.1862070395 0.2915025908 0.1052955512) 245 483 2
(0.2641947472 0.3679026264 0.3499227208 0.01797990561) 397 782 1
(0.8304633678 0.0847683161 0.0297725851 0.05499573099) 100 139 1
(0.6361011499 0.1718182701 0.181949425 0.01013115493) 490 956 1
(0.9308619563 0.03456902183 0.01257459911 0.02199442272) 532 999 1
(0.6949184927 0.1525407536 0.1440664567 0.008474296906) 541 1021 1
(0.1778993527 0.4110503237 0.2302775803 0.1807727433) 342 615 1
(0.415476784 0.1379962838 0.292261608 0.1542653242) 144 285 2
(0.2080056334 0.1234413516 0.2725558317 0.3959971833) 256 446 2
(0.1547560855 0.1214701703 0.4226219573 0.301151787) 274 540 2
(0.3180549276 0.0156168537 0.3409725362 0.3253556825) 260 510 1
(0.1674562711 0.2563970536 0.1598748109 0.4162718644) 53 47 2
(0.6610293654 0.08129064213 0.1694853173 0.08819467517) 491 958 1
(0.1336501891 0.4331749054 0.1796386495 0.253536256) 352 635 1
(0.654727099 0.1726364505 0.1202776687 0.05235878183) 511 994 2
(0.5262686372 0.2368656814 0.01094468004 0.2259210013) 117 232 1
(0.794031184 0.0135334554 0.08945095259 0.102984408) 197 330 2
(0.2745812235 0.3627093883 0.3397008031 0.02300858521) 313 558 1
(0.07953066342 0.4602346683 0.2705399464 0.1896947219) 286 564 1
(0.4890893585 0.2554553208 0.1049697474 0.1504855733) 363 715 1
(0.198645035 0.3179870429 0.4006774825 0.08269043964) 146 286 1
(0.4284696936 0.2857651532 0.06719391201 0.2185712412) 26 1082 2
(0.5974075004 0.2012962498 0.1946949107 0.006601339114) 124 186 1
(0.6015876198 0.1992061901 0.1544743218 0.04473186828) 224 439 2
(0.5568826717 0.2215586641 0.1663296729 0.05522899124) 460 905 1
(0.2405117806 0.3797441097 0.309250663 0.07049344673) 109 213 2
(0.439055814 0.004066854144 0.280472093 0.2764052389) 21 43 2
(0.09923670438 0.4503816478 0.447458229 0.002923418832) 314 560 1
(0.09566575057 0.4521671247 0.2931499554 0.1590171693) 38 75 2
(0.3331826651 0.2921136759 0.3334086674 0.04129499153) 427 841 2
(0.2214321874 0.3892839063 0.1053556043 0.283928302) 39 19 1
(0.8644753925 0.04770616979 0.06776230374 0.02005613395) 255 503 2
(0.1059360371 0.4470319815 0.1938296325 0.2532023489) 45 31 1
(0.08603939058 0.4569803047 0.4031840986 0.05379620614) 198 390 2
(0.01448729617 0.3641210318 0.1286353201 0.4927563519) 460 904 1
(0.5899945575 0.2050027213 0.04259883201 0.1624038892) 473 931 1
(0.2990312741 0.2983474152 0.05213694779 0.350484363) 462 908 1
(0.01070834687 0.4583090134 0.4946458266 0.03633681313) 195 385 2
(0.06268120146 0.4686593993 0.281651625 0.1870077742) 190 374 2
(0.1605062909 0.1521239134 0.2676229411 0.4197468546) 517 965 2
(0.0811872078 0.05827486514 0.401131531 0.4594063961) 371 672 2
(0.7297398797 0.1351300602 0.1282888308 0.006841229364) 364 714 2
(0.1925965961 0.403701702 0.3768968991 0.02680480291) 322 632 2
(0.8379503049 0.03207533289 0.04894951465 0.08102484754) 381 692 2
(0.4281327498 0.1493659195 0.1365677056 0.2859336251) 317 566 2
(0.3993109885 0.3003445058 0.296233195 0.004111310731) 404 737 1
(0.3240539343 0.1661070793 0.3379730328 0.1718659536) 316 623 2
(0.1767075089 0.1882179508 0.2234282947 0.4116462455) 191 318 2
(0.1359195154 0.4320402423 0.3332295896 0.09881065266) 92 181 2
(0.2859414973 0.07723495838 0.3570292513 0.279794293) 122 241 2
(0.5583773693 0.2208113153 0.019432455 0.2013788603) 285 561 2
(0.896227973 0.04541806264 0.006467950882 0.05188601352) 430 846 1
(0.7046919755 0.09992464697 0.1476540122 0.04772936527) 490 959 2
(0.3497630628 0.3251184686 0.02727395143 0.2978445172) 45 31 1
(0.6019426586 0.07396463624 0.1250640344 0.1990286707) 274 481 2
(0.03015947006 0.484920265 0.1199255652 0.3649946998) 488 954 2
(0.4512890344 0.2743554828 0.1247645336 0.1495909492) 125 246 2
(0.41234956 0.1145104654 0.1793147546 0.29382522) 234 403 2
(0.8355944761 0.08220276196 0.006417700523 0.07578506143) 540 1037 2
(0.4062636215 0.1718834127 0.1249847765 0.2968681892) 71 140 1
(0.04338343312 0.4783082834 0.3920275478 0.08628073568) 422 830 2
(0.367414565 0.2809045362 0.0353881813 0.3162927175) 513 957 2
(0.3059786379 0.1717996007 0.1752110803 0.347010681) 138 214 2
(0.09844045129 0.4507797744 0.3772793624 0.07350041196) 455 894 2
(0.3846816303 0.3076591849 0.1919770676 0.1156821172) 234 461 2
(0.2215382315 0.05146678507 0.3377640992 0.3892308843) 25 1081 1
(0.6404167415 0.1797916293 0.01288074348 0.1669108858) 61 62 1
(0.252266962 0.2714102485 0.373866519 0.1024562705) 15 28 1
(0.1830268298 0.4084865851 0.1238150572 0.2846715279) 395 719 1
(0.3021268534 0.3489365733 0.1848820944 0.1640544789) 174 344 1
(0.6305672893 0.1042266941 0.08048966126 0.1847163553) 490 907 2
(0.0918763299 0.4540618351 0.2301401253 0.2239217097) 325 638 2
(0.6989630659 0.1505184671 0.06328788139 0.08723058566) 181 354 2
(0.0476163131 0.4552730629 0.02091878058 0.4761918435) 451 829 2
(0.1553084529 0.1839670165 0.4223457735 0.2383787571) 445 877 2
(0.6490153311 0.1754923344 0.1715189548 0.003973379633) 486 948 2
(0.2668309197 0.2771074259 0.08947711421 0.3665845402) 116 229 1
(0.1729812478 0.4135093761 0.3335569291 0.07995244702) 52 104 1
(0.1007165327 0.3020471659 0.4496417337 0.1475945678) 27 52 1
(0.4902246022 0.2548876989 0.2199979527 0.03488974621) 34 68 1
(0.9257947402 0.0371026299 0.002298676206 0.03480395369) 40 79 2
(0.3462568537 0.3268715732 0.3109381673 0.01593340588) 14 1070 2
(0.2166041713 0.3916979143 0.03222050792 0.3594774064) 100 198 1
(0.4384490367 0.04506434209 0.2807754817 0.2357111396) 136 266 1
(0.2001718535 0.3999140732 0.2487220604 0.1511920128) 23 1079 2
(0.1664939248 0.01630331711 0.4004497205 0.4167530376) 273 537 1
(0.2676183752 0.3104688902 0.05572192224 0.3661908124) 459 845 2
(0.4651999608 0.02253889204 0.2448611276 0.2674000196) 324 638 1
(0.3744314187 0.1168958619 0.3127842907 0.1958884287) 26 53 2
(0.636666255 0.03317074351 0.1816668725 0.148496129) 245 483 2
(0.9575876725 0.02120616376 0.01677020459 0.004435959169) 399 786 1
(0.2732674472 0.3633662764 0.1367079402 0.2266583362) 248 488 2
(0.1344561997 0.4188205762 0.4327719002 0.01395132393) 279 547 1
(0.1747667377 0.4126166311 0.05411708812 0.358499543) 114 223 2
(0.2885935173 0.2549294665 0.3557032414 0.1007737749) 45 87 1
(0.07826323632 0.4608683818 0.2406588026 0.2202095792) 164 321 2
(0.6921765507 0.1539117247 0.1341325105 0.0197792142) 116 171 1
(0.1783829026 0.4108085487 0.3637455827 0.04706296602) 123 240 2
(0.4585212403 0.2269650006 0.04377437923 0.2707393799) 229 451 1
(0.76200855 0.118995725 0.0732047973 0.0457909277) 407 799 2
(0.2684123593 0.1500691958 0.2157246245 0.3657938203) 42 83 1
(0.5356932291 0.06345402458 0.2321533854 0.1686993608) 252 497 2
(0.5707718198 0.2146140901 0.1123740671 0.102240023) 383 754 2
(0.4888399719 0.07475667434 0.255580014 0.1808233397) 268 526 1
(0.07415723049 0.04165518274 0.4629213848 0.421266202) 104 206 2
(0.141618008 0.429190996 0.3980644261 0.03112656993) 161 259 1
(0.05209065017 0.4739546749 0.3531160512 0.1208386237) 374 736 2
(0.06202176079 0.199729772 0.4689891196 0.2692593476) 175 343 1
(0.2741599666 0.1391763549 0.3629200167 0.2237436618) 53 103 1
(0.005003010185 0.3370505754 0.4974984949 0.1604479195) 302 595 2
(0.2648807385 0.09696017009 0.3675596307 0.2705994606) 61 118 1
(0.0386813758 0.01173796468 0.4806593121 0.4689213474) 41 79 1
(0.4232067155 0.2339372463 0.2883966423 0.054459396) 196 387 2
(0.911494587 0.0442527065 0.002997594397 0.0412551121) 92 182 1
(0.8429287393 0.06345492995 0.07853563036 0.01508070041) 305 598 1
(0.4089871151 0.08591418637 0.2095922561 0.2955064424) 518 967 2
(0.1275159091 0.2480956545 0.188146391 0.4362420454) 224 383 2
(0.3278765401 0.1487581835 0.1873035465 0.33606173) 197 388 1
(0.1204104162 0.4397947919 0.244825896 0.1949688959) 528 1022 2
(0.7844752192 0.1077623904 0.0007020356703 0.1070603547) 331 652 1
(0.4517206721 0.07803531148 0.1961043525 0.274139664) 215 423 1
(0.005581575482 0.4972092123 0.01448520889 0.4827240034) 433 850 2
(0.07304921295 0.4634753935 0.1245413896 0.338934004) 123 184 1
(0.6385490818 0.1807254591 0.09444033834 0.08628512075) 6 13 1
(0.6709563909 0.1435637933 0.1645218045 0.02095801128) 436 856 1
(0.3937680114 0.3031159943 0.1848548829 0.1182611114) 440 867 1
(0.1006427871 0.4496786064 0.4445606454 0.005117961047) 64 124 2
(0.4236850675 0.2881574662 0.04266129872 0.2454961675) 282 553 2
(0.3200608904 0.3399695548 0.1037572834 0.2362122714) 344 677 2
(0.05119621069 0.01747842 0.4569234747 0.4744018947) 180 296 2
(0.03542651786 0.0117131272 0.4822867411 0.4705736139) 6 13 2
(0.1477598656 0.4261200672 0.2056510387 0.2204690285) 124 245 1
(0.5416063377 0.10192777 0.1272690611 0.2291968311) 135 266 1
(0.1749326823 0.4125336588 0.09075353089 0.321780128) 211 416 1
(0.5588451173 0.2205774413 0.1438104906 0.07676695069) 76 150 2
(0.00794416617 0.4960279169 0.03416797178 0.4618599451) 287 507 1
(0.8783799897 0.003222679842 0.0575873253 0.06081000514) 541 1038 1
(0.2878812078 0.1840953667 0.3560593961 0.1719640294) 97 189 1
(0.2628355312 0.3685822344 0.07889668388 0.2896855505) 163 321 2
(0.4222214022 0.07751158353 0.2888892989 0.2113777154) 385 759 2
(0.3122474161 0.2006187288 0.1432575631 0.3438762919) 128 252 1
(0.2209931796 0.05402629143 0.3354771188 0.3895034102) 341 613 2
(0.8926826953 0.05365865233 0.01151074442 0.04214790792) 314 616 2
(0.6818367845 0.1590816078 0.01303694956 0.1460446582) 333 653 2
(0.2594002774 0.3702998613 0.0969275905 0.2733722708) 8 17 1
(0.7620596453 0.03666134542 0.1189701773 0.08230883192) 107 209 1
(0.4167455581 0.291627221 0.1666813322 0.1249458888) 307 602 2
(0.226287401 0.3868562995 0.2453287346 0.1415275649) 17 35 1
(0.149771653 0.4251141735 0.1483059538 0.2768082197) 315 618 2
(0.2196271943 0.3300473357 0.3901864028 0.06013906717) 165 323 1
(0.06424490463 0.4678775477 0.2851465402 0.1827310075) 364 716 2
(0.03483611903 0.1965627936 0.2860191469 0.4825819405) 140 218 2
(0.2453726619 0.05264922292 0.3246644461 0.377313669) 77 152 1
(0.01253328019 0.2722764821 0.4937333599 0.2214568778) 322 635 2
(0.5192605478 0.2403697261 0.0801061196 0.1602636065) 96 190 1