/*--------------------------------*- C++ -*----------------------------------*\
  =========                 |
  \\      /  F ield         | OpenFOAM: The Open Source CFD Toolbox
   \\    /   O peration     | Website:  https://openfoam.org
    \\  /    A nd           | Version:  7
     \\/     M anipulation  |
\*---------------------------------------------------------------------------*/
FoamFile
{
    version     2.0;
    format      ascii;
    class       scalarField;
    location    "0.004/lagrangian/dsmc";
    object      Ei;
}
// * * * * * * * * * * * * * * * * * * * * * * * * * * * * * * * * * * * * * //


280573
(
2.90564e-21
1.77497e-21
1.1737e-21
3.51537e-21
4.0856e-22
3.00758e-21
2.90014e-21
5.94802e-21
1.06604e-21
9.56165e-22
1.1391e-21
1.48013e-21
8.89137e-22
2.78158e-22
3.86366e-22
2.28882e-21
1.3153e-20
6.61915e-22
1.81475e-21
3.88576e-21
1.34146e-21
1.91438e-21
4.74178e-21
2.91934e-21
5.70483e-22
5.92209e-21
8.59716e-21
1.18965e-21
1.19563e-21
4.48863e-21
1.26813e-21
1.2976e-20
2.69684e-21
9.16139e-21
3.38452e-22
9.00379e-22
3.09656e-21
1.7026e-21
2.62702e-22
7.75105e-21
1.09106e-21
1.09627e-20
2.41234e-21
1.65565e-21
2.92577e-21
6.12085e-22
2.60939e-21
8.79071e-22
6.01453e-22
9.0565e-21
3.87236e-21
1.47535e-21
1.42581e-22
2.19084e-21
1.97367e-21
1.04811e-22
3.69072e-22
2.20006e-21
8.70207e-22
1.82668e-21
3.08104e-22
7.81525e-22
1.23976e-22
4.08099e-21
7.11021e-21
1.12715e-21
2.02739e-21
2.07711e-21
2.1124e-21
5.86847e-21
1.88296e-21
2.97135e-21
5.34216e-22
1.13012e-20
2.05544e-21
3.09798e-21
5.11712e-22
5.39987e-21
5.33222e-21
4.1346e-22
1.00203e-20
6.67316e-22
2.30038e-21
1.00181e-20
2.20674e-21
2.43838e-21
4.81974e-22
7.80638e-21
1.01997e-21
1.67797e-21
2.55896e-21
3.7175e-21
1.21595e-21
1.58855e-21
2.37381e-21
2.21124e-21
1.22022e-21
8.40945e-21
2.18684e-21
2.75684e-21
3.10811e-22
3.29812e-22
3.01749e-22
6.70369e-22
9.05959e-22
2.94401e-21
4.41359e-22
4.22725e-21
3.52293e-22
1.30104e-21
9.30946e-21
4.97733e-22
3.32111e-22
5.48549e-22
7.60487e-22
9.40061e-21
4.15669e-22
2.31515e-22
1.61539e-21
1.84826e-21
4.45107e-21
3.53169e-21
1.35699e-21
6.33095e-22
2.51172e-21
5.46735e-21
8.15536e-21
3.41652e-21
5.00936e-21
2.93864e-22
4.76686e-21
4.90068e-21
4.05235e-21
8.62641e-21
1.19253e-21
1.73916e-21
4.27174e-21
8.84828e-22
1.5954e-23
1.9062e-20
3.05992e-21
3.77952e-21
4.64534e-23
1.61585e-21
6.5992e-22
6.18962e-21
1.87442e-21
3.01954e-21
2.22444e-21
3.30673e-21
1.87905e-21
2.27421e-21
1.61131e-21
1.82251e-21
3.15598e-21
3.96847e-21
2.55836e-21
5.98316e-22
7.82863e-21
6.54263e-22
4.74079e-21
3.49665e-21
7.02203e-21
6.04067e-21
6.53971e-21
6.64428e-22
2.29309e-21
8.6665e-21
4.92234e-23
2.97825e-23
6.72416e-21
1.06793e-21
1.97524e-21
1.37302e-21
1.99147e-23
1.44374e-21
4.79921e-21
8.76122e-22
1.24147e-21
6.17021e-21
8.30832e-21
3.34136e-22
8.05182e-22
3.62422e-21
7.83276e-21
4.31475e-21
7.40223e-21
7.83065e-21
8.17509e-21
3.14535e-21
2.47245e-22
5.83186e-22
2.79304e-22
3.63225e-21
2.28756e-21
2.71003e-21
1.13987e-21
2.94175e-21
2.70254e-21
6.13533e-21
1.73309e-21
2.16904e-21
4.82539e-21
2.68318e-21
1.45101e-21
3.82515e-21
3.50386e-21
6.49717e-23
8.85094e-21
3.66535e-21
5.76494e-21
7.9791e-21
2.24189e-22
6.29977e-22
1.20545e-20
9.47275e-21
3.65865e-21
3.83949e-21
8.71324e-21
2.29011e-21
4.04586e-22
3.54366e-21
3.14293e-23
5.04043e-21
9.46576e-21
1.47875e-21
1.14198e-21
1.02214e-22
7.26308e-21
1.44554e-22
2.05977e-22
1.31653e-21
2.87861e-21
9.18702e-22
1.15906e-20
1.48835e-21
5.52131e-21
1.69364e-21
2.24738e-21
6.89746e-22
7.7851e-22
4.97997e-21
1.37512e-21
1.49066e-23
2.04502e-21
4.38985e-21
2.31727e-21
2.04329e-21
1.4531e-20
1.55316e-21
2.24536e-21
2.2325e-21
2.26162e-21
1.32451e-21
1.63987e-21
3.60738e-21
3.79248e-21
4.54416e-21
4.72592e-21
2.86986e-21
6.15902e-21
7.07207e-21
1.38422e-21
3.61585e-21
4.84948e-22
1.40987e-21
8.28943e-22
2.98673e-21
4.98189e-22
4.17103e-21
3.58173e-21
1.16115e-20
5.44283e-22
1.19592e-21
3.89804e-23
1.25047e-21
6.55014e-22
1.04489e-20
2.72388e-22
2.54809e-21
1.23664e-20
3.30118e-21
4.67328e-21
3.60065e-21
3.78906e-22
4.76678e-22
1.24116e-20
1.62556e-21
1.45713e-20
1.14921e-21
3.52703e-21
2.92952e-21
7.68504e-23
4.17063e-21
4.28672e-21
3.15004e-21
6.57352e-21
9.29903e-21
5.02596e-22
8.68211e-21
3.15627e-21
4.59005e-21
4.89327e-21
4.2848e-21
7.79766e-21
8.91421e-21
1.10855e-21
2.5609e-21
1.21756e-21
3.23401e-21
5.65635e-21
1.57475e-21
7.09417e-21
6.95423e-21
4.22319e-21
3.13785e-21
1.19814e-21
4.52829e-22
7.02932e-21
1.00168e-20
5.21157e-22
1.25964e-22
4.39849e-22
8.14449e-22
2.25567e-21
1.76453e-21
2.41969e-21
1.0739e-21
9.32297e-22
1.86921e-22
3.82148e-21
2.21948e-21
1.79418e-21
1.02295e-20
7.09087e-21
1.07699e-21
4.60122e-22
2.77974e-22
3.9286e-21
1.69984e-21
1.37477e-21
4.55799e-21
3.10216e-21
2.4879e-21
8.86748e-21
2.98616e-22
3.54599e-21
1.22902e-21
3.26606e-21
8.14189e-21
2.42655e-21
5.10965e-21
2.97563e-21
1.43983e-21
3.52532e-21
4.45225e-21
5.04445e-22
1.20657e-21
3.82365e-21
3.17139e-21
8.46444e-22
1.69578e-21
1.03473e-21
3.83248e-21
4.47355e-21
7.06522e-21
2.10686e-21
5.40969e-21
4.92464e-22
2.81333e-21
1.65426e-21
6.27921e-21
6.69972e-21
1.69249e-21
3.9859e-21
7.6912e-21
3.97698e-21
7.53058e-22
1.36421e-21
1.41049e-22
1.92478e-21
2.20452e-21
5.72374e-22
6.69794e-21
2.79925e-22
4.79236e-22
2.27233e-21
2.79291e-22
2.32035e-21
5.99333e-21
1.95668e-21
2.29187e-21
3.91379e-21
6.09913e-21
1.08699e-20
2.70646e-21
3.67457e-21
3.58832e-21
4.23422e-21
1.79412e-21
3.5644e-22
8.33425e-22
1.02702e-21
1.64057e-21
2.98896e-22
7.77507e-21
6.36715e-21
1.46987e-21
9.89314e-21
1.74832e-21
2.82834e-21
9.31566e-21
5.95321e-21
7.85947e-21
9.03458e-21
1.71929e-21
4.58905e-22
3.48174e-21
1.84759e-21
1.96981e-21
1.05419e-21
3.55895e-22
3.37888e-21
1.07148e-21
1.80851e-21
1.48233e-21
1.07076e-20
5.74529e-21
3.0513e-21
5.51244e-21
7.86676e-22
7.32278e-22
2.734e-21
1.06882e-20
3.95552e-22
3.9826e-21
5.81353e-21
2.62774e-21
7.46875e-21
1.16221e-22
4.34202e-21
3.42297e-21
3.54684e-22
7.41764e-22
1.63103e-21
6.51457e-21
3.20241e-21
6.12657e-22
7.57862e-21
1.73868e-21
3.63555e-22
6.29484e-21
5.19204e-21
1.14724e-21
6.55115e-21
3.76281e-22
1.77142e-20
5.51308e-21
6.15217e-21
2.37084e-23
2.51228e-21
4.82168e-21
1.01226e-21
4.31858e-21
1.0859e-21
7.08364e-23
7.95533e-21
2.00981e-22
1.46959e-21
3.16029e-21
1.68281e-21
3.0801e-23
2.41532e-21
3.54511e-21
3.51795e-21
4.40801e-21
3.19516e-21
3.27207e-21
4.09064e-21
7.56613e-23
1.59086e-21
2.665e-21
5.21604e-22
3.02673e-21
7.09883e-22
2.16815e-22
4.97279e-21
2.66748e-21
3.7044e-21
8.45675e-21
4.36552e-21
2.391e-21
3.757e-21
2.16102e-20
1.64145e-21
7.86293e-21
1.57887e-21
2.12163e-21
4.87967e-21
3.19008e-21
3.02989e-21
2.67368e-21
2.64486e-21
2.71148e-21
1.23409e-21
6.58227e-23
1.64887e-21
1.91516e-22
2.42771e-21
6.25549e-22
7.20154e-22
4.05701e-21
7.08284e-21
4.26425e-21
1.35316e-20
3.0499e-21
5.3437e-21
1.62615e-21
2.87233e-22
3.51148e-21
7.24503e-21
1.28892e-20
6.98161e-21
3.34072e-21
2.78968e-21
1.36723e-22
2.3883e-21
7.61352e-22
7.62033e-22
4.41451e-21
2.49478e-21
6.18059e-21
5.33828e-22
8.29013e-22
2.85661e-21
4.05061e-21
7.08948e-22
2.00931e-23
3.15718e-21
1.68985e-21
1.99751e-21
1.11224e-21
1.12106e-20
1.80777e-21
2.21157e-21
5.22764e-21
8.96068e-21
1.63789e-21
6.71812e-21
2.0212e-21
8.58854e-23
2.57126e-21
6.83446e-22
1.12051e-20
2.20201e-21
1.53105e-21
2.84885e-21
4.61798e-21
3.02123e-21
6.06164e-22
2.51202e-21
3.87048e-21
6.67276e-21
2.12664e-21
3.98455e-21
6.1792e-21
3.5673e-21
3.19269e-21
8.82062e-21
6.97585e-21
8.71181e-21
3.71845e-21
2.35901e-21
6.01504e-21
1.84839e-22
1.04147e-21
1.31111e-21
3.35403e-21
4.75229e-21
1.41357e-22
1.649e-21
6.71312e-22
1.15319e-21
7.53011e-22
6.01913e-22
8.58475e-21
2.82062e-21
2.74738e-21
3.59643e-22
9.35136e-21
6.89767e-21
2.13786e-21
4.20506e-23
5.9518e-21
6.23579e-21
1.18944e-20
2.18665e-21
3.12258e-21
8.57319e-21
5.82896e-22
4.15143e-22
6.29069e-21
1.53596e-21
1.89776e-22
4.82024e-21
2.05341e-20
1.56563e-21
1.8154e-21
5.04487e-21
3.74813e-21
7.08853e-22
1.11434e-21
5.3488e-21
1.42107e-21
5.31663e-21
3.76237e-21
2.47859e-21
1.24355e-21
6.14147e-22
2.56947e-21
7.5645e-21
2.31245e-21
3.63461e-21
8.98976e-21
6.35017e-22
2.54034e-22
5.07792e-21
5.38316e-21
3.42104e-21
2.97124e-21
6.13717e-21
1.33665e-21
1.93126e-21
3.25917e-21
1.95135e-21
9.0783e-21
2.71109e-21
2.07404e-22
7.68113e-22
1.14942e-21
1.38128e-21
1.6634e-21
1.05985e-21
1.73728e-21
3.01985e-21
5.43102e-21
1.86075e-21
8.92871e-21
7.634e-22
2.21743e-21
4.28465e-21
6.63467e-21
2.16178e-21
2.12877e-21
8.5924e-22
6.27026e-21
2.4955e-21
1.56194e-21
8.14233e-21
9.16395e-22
6.27152e-21
9.63875e-22
1.16015e-21
4.95629e-22
1.98976e-22
1.19769e-21
8.81765e-22
3.6072e-22
6.70608e-21
7.488e-21
2.39391e-21
1.48874e-21
4.00227e-22
1.10414e-20
2.15002e-20
2.25825e-21
3.99745e-21
1.29657e-21
1.20587e-20
1.04597e-21
1.45965e-20
2.68262e-21
5.83452e-21
1.1348e-21
1.47199e-21
1.04892e-21
2.5456e-21
6.20346e-22
4.00206e-22
1.53972e-21
4.61552e-21
5.0078e-21
1.4671e-21
3.37183e-21
1.31435e-21
1.32947e-20
5.93653e-23
7.26211e-21
3.4978e-22
9.44286e-22
1.07419e-21
2.43293e-21
4.12737e-21
8.93072e-21
6.80194e-22
8.14267e-21
1.35834e-21
2.77105e-21
1.21634e-21
1.26215e-21
2.34047e-22
2.56807e-21
7.31471e-21
2.14794e-22
1.28169e-20
6.14799e-21
6.21558e-23
3.31222e-21
1.69488e-21
7.15005e-22
4.1681e-21
2.62059e-21
1.5199e-21
3.17135e-21
5.28447e-21
9.93732e-22
2.88578e-21
1.21272e-20
9.64177e-22
1.4985e-21
1.8892e-20
1.21651e-21
1.00692e-20
1.41296e-21
1.06896e-21
4.50827e-22
1.26742e-21
8.65522e-22
5.57187e-21
7.12302e-22
1.17985e-21
1.39566e-21
2.43604e-22
9.09893e-21
9.40686e-22
3.05977e-21
2.51668e-21
8.23235e-21
4.41056e-22
2.16772e-22
3.77551e-21
2.501e-21
9.75454e-22
4.47981e-21
4.10546e-23
5.10722e-21
1.15552e-21
3.61362e-21
3.63322e-21
1.6625e-20
2.85669e-21
5.60163e-22
2.70798e-21
9.89764e-22
1.30142e-20
5.19603e-21
4.37771e-21
1.68012e-21
1.56704e-21
2.66981e-21
8.19286e-22
3.28161e-21
2.19703e-21
1.35704e-21
3.78891e-21
3.72351e-21
1.48822e-22
2.84782e-21
4.61067e-21
2.49766e-22
7.61767e-21
6.07783e-21
2.92677e-21
2.24471e-22
1.13518e-20
2.40092e-22
6.59931e-21
5.64004e-21
1.67127e-21
2.86877e-22
7.28107e-22
1.73253e-21
2.64066e-21
5.41973e-21
2.18383e-21
1.7129e-21
3.24142e-21
3.62091e-21
4.47244e-21
1.22585e-22
6.37141e-21
5.36449e-21
2.0882e-21
2.57359e-21
6.94423e-22
3.79658e-21
9.60484e-21
1.81146e-21
1.85562e-21
3.69598e-22
3.15066e-21
3.89278e-22
4.99546e-22
2.50252e-21
4.15189e-21
6.65836e-22
5.62891e-22
1.26593e-21
2.34433e-22
1.05337e-21
1.17372e-21
1.43148e-21
2.95624e-21
4.14782e-21
9.9091e-22
5.00199e-21
1.0496e-20
7.58551e-22
1.18243e-21
5.44408e-21
7.91741e-21
8.16255e-22
1.55977e-21
6.5289e-22
2.11796e-21
4.50341e-21
1.5812e-21
4.60069e-21
1.92261e-21
2.95327e-21
1.74574e-21
2.3282e-21
8.25858e-22
3.40961e-21
1.22186e-21
4.30389e-21
2.20578e-21
7.98528e-23
1.72306e-21
1.14603e-20
1.03236e-20
3.49832e-21
1.34112e-21
5.88463e-21
7.05041e-22
1.21784e-21
7.40097e-22
4.93429e-21
2.6496e-22
2.79304e-22
1.90197e-21
2.26769e-21
1.16675e-21
6.46657e-22
1.11699e-21
1.78897e-21
9.23169e-22
4.49551e-21
3.45927e-21
2.68325e-22
2.82211e-21
3.66689e-21
6.63723e-21
1.03373e-21
5.03933e-21
1.16809e-20
1.28051e-21
2.55022e-21
2.96241e-21
6.13732e-21
6.97567e-21
5.62726e-22
1.64382e-21
1.25421e-22
1.18739e-21
2.35421e-21
2.80258e-22
4.70397e-21
3.11835e-21
4.81955e-22
6.46223e-21
1.71032e-22
1.16254e-20
1.82495e-21
7.40678e-21
5.98811e-22
1.57386e-20
1.1518e-21
1.08221e-20
2.81055e-21
4.75467e-21
1.496e-21
1.617e-20
6.96157e-21
6.41005e-21
4.03871e-21
2.85038e-21
2.3355e-21
1.12778e-21
4.00364e-21
1.40595e-21
2.79887e-21
7.91022e-23
3.60011e-22
3.10705e-21
1.44419e-22
1.73924e-21
7.09905e-21
9.17726e-22
3.65905e-21
4.3066e-21
1.56586e-21
4.26551e-21
5.12661e-21
3.57217e-21
4.51376e-21
7.76773e-23
8.42292e-22
7.33533e-21
5.71408e-23
7.40002e-22
2.00287e-21
1.97833e-21
5.92225e-22
1.01176e-21
1.29095e-21
6.83254e-21
3.52704e-21
6.52534e-21
6.16668e-21
6.68274e-21
3.21083e-21
1.43206e-21
7.77446e-23
3.48687e-22
8.08129e-21
6.80579e-22
2.04863e-21
6.98212e-22
1.04759e-21
1.31768e-20
7.84287e-21
4.86093e-21
4.23241e-21
1.16475e-20
6.76976e-22
9.73807e-21
2.90774e-21
6.49859e-21
3.75235e-21
1.95088e-21
4.47002e-22
3.97045e-21
4.12086e-21
2.97347e-21
3.6032e-21
9.51972e-21
2.33486e-21
1.49038e-21
5.82162e-22
6.65205e-21
5.11953e-21
5.82923e-22
5.42157e-21
6.05973e-22
3.96427e-22
1.17791e-20
3.61378e-21
2.05677e-21
4.76602e-21
7.87389e-21
1.36521e-21
1.45418e-21
3.01757e-21
2.64574e-21
4.95195e-22
3.24994e-21
4.45966e-22
6.94998e-21
6.82346e-21
5.68894e-21
7.39914e-21
9.64929e-22
6.07723e-22
4.00488e-22
4.36118e-21
1.92431e-21
1.1642e-21
3.10147e-23
3.11081e-21
4.31218e-22
1.89818e-21
1.54955e-21
3.36081e-21
3.99554e-21
5.53571e-21
4.57779e-21
2.51464e-21
9.06416e-22
2.37379e-21
2.37826e-21
6.34196e-22
1.97895e-22
1.76032e-22
2.4685e-21
3.30387e-23
9.68495e-21
1.33968e-21
3.27707e-21
1.42913e-21
1.51504e-21
9.14267e-21
1.35025e-21
2.39874e-21
1.08228e-20
7.07673e-21
3.06069e-21
4.14786e-21
5.69668e-21
1.83205e-20
4.64362e-22
2.34902e-21
4.76412e-21
6.52449e-21
4.52269e-21
1.50423e-21
6.1344e-22
2.21839e-21
1.27092e-21
2.05213e-21
4.871e-22
7.02623e-22
2.33964e-22
8.0146e-21
1.40711e-20
4.62206e-21
4.42411e-21
2.45448e-21
3.55994e-23
1.14443e-21
2.46896e-22
2.64553e-21
7.72194e-22
4.83148e-21
1.2882e-21
1.34733e-21
3.8816e-21
2.16873e-22
4.23709e-21
1.91055e-21
5.17924e-21
3.20423e-21
8.58396e-21
1.87771e-21
3.73652e-21
5.60215e-21
2.77379e-22
1.51396e-21
2.37511e-21
1.77007e-20
2.33897e-21
9.26126e-21
3.91184e-21
1.23422e-21
6.79166e-22
1.58078e-21
3.24479e-22
4.3938e-21
3.07718e-21
8.07386e-21
1.69658e-22
4.97538e-22
2.90384e-21
3.08529e-21
6.15402e-21
4.51185e-21
1.23531e-21
2.67921e-21
7.31208e-21
1.04168e-21
1.93873e-21
5.24177e-22
4.66251e-22
2.29551e-21
5.00846e-21
1.84358e-21
4.13949e-21
5.23366e-21
1.38341e-22
7.98844e-23
1.31884e-21
1.75114e-21
1.81477e-20
7.45933e-23
1.35717e-20
3.25263e-21
1.82319e-21
5.85454e-21
7.61094e-22
2.09407e-21
7.47959e-21
5.08073e-22
8.75668e-21
1.13111e-21
3.05287e-21
4.91264e-22
1.03153e-21
5.36731e-21
5.37506e-22
1.94958e-21
2.01487e-22
2.24502e-22
1.41418e-21
8.60718e-21
2.86941e-21
1.15063e-21
1.92757e-22
8.9424e-22
2.03422e-21
1.84648e-21
2.97572e-21
3.44908e-21
8.31181e-22
3.04885e-21
5.85314e-22
7.09273e-21
3.8248e-21
2.72e-23
1.32209e-21
1.44654e-22
4.1794e-21
7.55639e-21
5.69935e-21
1.07769e-21
3.10888e-21
6.52143e-23
1.68752e-21
7.0192e-21
1.70138e-21
6.66025e-22
1.449e-22
1.00742e-22
6.51077e-21
2.38876e-21
1.4032e-21
2.88013e-21
3.06525e-22
6.737e-21
5.20291e-21
3.4164e-21
5.41762e-21
2.59957e-22
1.57099e-21
4.9866e-23
1.85755e-21
3.74108e-23
3.04722e-22
1.51459e-21
2.95161e-21
9.9466e-21
6.11618e-22
1.19987e-20
4.93432e-22
1.70339e-21
5.96396e-21
4.82436e-21
1.38423e-21
2.60129e-22
1.21931e-22
1.67667e-21
8.36589e-21
9.12573e-21
1.32628e-21
3.29778e-22
1.945e-21
7.59132e-22
5.36599e-21
2.23431e-21
4.52176e-22
1.78249e-21
7.03599e-21
1.41775e-21
3.04923e-21
1.51836e-21
2.73979e-22
5.26798e-21
1.34471e-21
5.06372e-21
1.40153e-21
1.22948e-21
2.09387e-21
1.41054e-21
9.8482e-21
5.63858e-21
3.32285e-21
2.53264e-22
2.91669e-22
4.81104e-21
1.01864e-21
1.57075e-20
6.46193e-21
1.31049e-21
6.13105e-22
5.8631e-21
2.20375e-22
3.16648e-21
8.35501e-22
4.62787e-22
1.58206e-20
2.09276e-21
6.00904e-22
1.70348e-21
7.36978e-21
3.8045e-21
1.4785e-22
7.39325e-22
5.2546e-21
2.89869e-21
3.69589e-22
1.6597e-20
8.43167e-21
5.28362e-21
3.03234e-21
1.71518e-21
6.62915e-22
1.46761e-21
1.63239e-20
4.00986e-21
6.33594e-22
7.13643e-22
7.15019e-22
4.34852e-22
6.57393e-21
6.79464e-22
4.93996e-21
1.0613e-20
8.24708e-22
1.40908e-21
4.60755e-22
1.69666e-23
1.33323e-21
7.45092e-22
1.16756e-20
1.80245e-21
1.62028e-21
1.50374e-21
3.27952e-21
2.52321e-21
1.25843e-21
7.03605e-22
3.2177e-23
4.21426e-22
1.32855e-21
2.54053e-21
5.13537e-22
2.63834e-21
1.4322e-21
2.17153e-23
2.14423e-21
3.41226e-22
3.02977e-22
2.99668e-22
1.55966e-21
2.30409e-22
4.56071e-21
1.99487e-22
1.80143e-21
9.807e-23
6.34993e-21
5.17102e-21
1.16494e-21
2.05896e-22
1.38706e-21
3.6829e-22
1.73144e-20
1.69527e-21
3.66079e-21
1.35625e-21
9.01986e-21
3.33595e-21
2.97834e-21
2.44868e-21
7.02851e-22
4.25332e-21
4.61299e-22
2.14512e-21
1.29362e-20
7.89071e-22
1.07028e-20
1.17223e-21
1.02835e-21
5.62852e-21
1.23174e-20
3.0926e-21
6.9026e-22
5.49681e-22
7.91362e-22
3.3733e-21
7.10693e-22
2.65367e-21
1.59932e-21
7.87104e-22
5.19317e-22
2.47968e-21
7.52134e-21
2.71596e-21
2.8757e-21
5.29235e-21
3.25354e-21
5.1544e-22
5.13468e-22
3.82099e-21
2.18257e-20
6.26851e-22
3.52729e-21
8.86808e-22
1.33106e-21
8.17995e-22
4.67578e-22
3.07682e-21
1.98549e-21
1.58957e-22
4.486e-22
4.27139e-22
7.32289e-21
1.7891e-21
1.84617e-21
5.68223e-21
6.47393e-21
1.7102e-21
6.7306e-21
3.92295e-21
2.65439e-21
9.56688e-21
8.13404e-23
5.13238e-21
4.19965e-21
1.17274e-21
6.36093e-21
7.02588e-23
1.27889e-20
8.95707e-22
6.7623e-21
5.08276e-21
3.16324e-21
2.60284e-21
9.49013e-22
5.36489e-22
1.38259e-20
1.94354e-22
3.80611e-21
4.6836e-21
1.68257e-21
2.00624e-21
7.32404e-21
8.57213e-21
5.36312e-21
3.26984e-22
1.90357e-21
2.05927e-21
7.37605e-21
3.59226e-22
1.92428e-21
3.88018e-21
5.87664e-21
2.52032e-21
3.10741e-21
7.15854e-22
4.84456e-21
1.27895e-21
1.89035e-21
4.4098e-23
1.03409e-21
3.09895e-21
3.801e-21
2.36688e-21
2.84452e-23
9.31404e-22
3.07105e-21
6.44037e-21
2.00276e-21
7.17402e-21
3.04884e-21
1.64675e-21
2.30345e-21
2.70264e-21
1.78578e-21
1.72028e-22
4.84768e-22
2.29742e-21
2.17018e-22
4.04236e-21
3.51731e-23
4.50668e-21
3.13841e-21
3.08242e-21
2.05261e-21
4.4091e-21
8.20557e-21
5.39669e-22
4.55226e-22
9.02293e-21
4.78334e-21
1.52122e-21
5.08553e-21
4.12951e-21
4.3132e-22
2.46373e-21
1.58466e-21
1.54283e-20
4.37045e-21
1.70415e-22
7.65267e-22
3.35781e-21
4.66542e-21
1.48772e-21
2.16925e-21
1.79134e-21
1.51315e-21
2.44804e-21
8.50104e-21
6.45638e-21
7.77766e-22
4.22452e-22
8.64392e-22
9.80445e-22
2.70879e-21
4.75567e-21
2.88286e-21
3.70334e-21
3.05959e-21
5.93737e-22
3.59151e-22
1.86358e-21
6.75744e-21
6.93615e-21
4.7826e-21
2.09289e-22
1.13847e-21
4.65692e-21
6.89133e-22
5.00717e-21
4.18689e-21
2.81975e-21
1.20469e-20
8.96048e-21
5.99072e-21
1.64981e-21
1.02977e-20
3.55149e-21
2.16913e-21
1.0532e-21
1.77658e-22
1.31549e-21
7.02403e-21
1.74933e-21
8.2389e-22
2.48522e-22
2.65995e-21
1.58749e-21
1.16627e-22
4.73937e-21
1.09715e-21
7.01412e-21
7.81876e-22
2.1271e-21
1.92602e-21
1.81792e-21
7.49354e-21
6.03205e-21
1.13706e-20
4.90534e-22
4.32202e-21
3.12299e-21
1.40437e-20
2.24555e-21
7.22381e-22
1.4441e-21
4.18392e-21
5.56322e-21
7.35169e-22
6.15393e-23
1.53576e-21
6.39695e-22
8.6218e-21
7.40691e-21
3.15652e-21
2.09699e-22
6.58224e-21
2.20422e-21
9.72007e-22
3.42036e-21
1.06011e-21
6.4091e-22
1.34028e-21
9.06728e-22
1.60676e-21
1.24926e-21
3.51407e-21
2.84705e-21
3.95225e-21
3.38313e-21
2.36626e-21
7.40884e-22
1.70558e-21
3.50483e-23
4.20063e-21
9.26092e-21
2.92422e-21
5.72651e-21
3.45553e-21
8.5753e-21
5.52881e-21
3.8555e-21
4.66882e-21
1.22523e-20
7.32649e-21
7.89395e-22
2.26504e-21
6.31351e-21
1.44618e-21
7.46982e-21
4.54932e-21
5.07749e-21
1.85204e-21
1.05703e-20
1.3445e-20
3.88671e-21
5.33127e-21
2.97503e-21
1.10635e-21
1.01245e-20
4.13437e-21
6.1456e-22
5.57761e-21
1.04321e-20
1.78665e-21
4.12943e-21
2.35877e-23
2.60359e-21
5.88656e-22
1.00663e-21
4.22668e-22
1.61702e-21
2.40949e-21
3.44642e-22
8.78874e-21
4.0368e-21
2.79905e-21
1.43852e-20
1.49697e-21
1.2172e-21
2.827e-21
1.68416e-21
1.96198e-22
5.60071e-21
1.93832e-21
9.87323e-22
4.56685e-22
1.94549e-21
3.35129e-21
1.38917e-21
1.37783e-21
3.81628e-21
1.71917e-22
5.02005e-22
2.45662e-21
7.60871e-22
8.0067e-21
4.73462e-21
1.55098e-22
2.12788e-21
2.30406e-21
1.20019e-20
1.29628e-21
2.11271e-21
2.38001e-21
5.62668e-21
3.75301e-22
1.45576e-21
7.07918e-24
3.74701e-21
1.23983e-20
1.59664e-21
2.11174e-22
3.80583e-21
1.09886e-21
1.84742e-21
1.01933e-20
2.01121e-21
1.14242e-21
5.05866e-21
6.06263e-23
9.33379e-21
2.64992e-21
1.09757e-21
6.88792e-21
3.56689e-22
1.57747e-20
2.79449e-21
5.92002e-21
1.59991e-21
7.55565e-21
4.72346e-21
2.85509e-21
5.88315e-22
5.19323e-22
5.44856e-22
1.80768e-21
2.90197e-21
2.99856e-21
8.10567e-21
2.30884e-21
4.85472e-22
1.03304e-21
7.62621e-21
4.19999e-21
8.79508e-21
1.59141e-22
4.99806e-21
6.12343e-21
3.29044e-21
5.33513e-21
1.1196e-20
5.92208e-21
1.37664e-21
4.68971e-21
3.28762e-21
2.53617e-21
2.28725e-21
8.35644e-21
2.53262e-21
1.38288e-21
2.12971e-21
5.9976e-22
4.75089e-21
4.27401e-22
6.99526e-21
2.66701e-21
1.52962e-21
1.86166e-22
4.63196e-22
5.2417e-21
2.63221e-21
1.07999e-20
5.6351e-21
1.83118e-21
4.3432e-22
8.50534e-22
1.13362e-20
7.75025e-21
1.40855e-22
6.08718e-22
9.81124e-21
1.30775e-22
2.75079e-21
5.8792e-21
7.42615e-23
5.1658e-22
1.30766e-20
3.56075e-21
3.8919e-21
5.88369e-21
8.41369e-22
1.81087e-21
5.83659e-22
5.69087e-21
9.14519e-22
3.74766e-21
1.2576e-21
6.56372e-21
7.28333e-21
4.80664e-23
1.04736e-21
3.78637e-21
8.46079e-21
3.06934e-21
6.61111e-21
3.95725e-21
1.03968e-20
6.13055e-21
1.51825e-21
2.4876e-21
1.58236e-21
5.0732e-21
5.95959e-21
5.83357e-21
1.38088e-22
2.85982e-21
1.59075e-21
3.24906e-21
1.52154e-21
3.11711e-22
4.77745e-21
4.74648e-21
1.0336e-20
7.67505e-21
1.94668e-21
4.91954e-21
3.44147e-21
6.46682e-21
7.29367e-21
2.03001e-21
2.43587e-21
4.21724e-21
6.95378e-21
8.87179e-21
1.6184e-21
1.97563e-20
4.10263e-21
3.45725e-21
5.84252e-21
2.74295e-23
1.77837e-21
4.68964e-21
3.14123e-21
4.54743e-21
2.29353e-21
2.53184e-21
1.12841e-20
4.33995e-21
7.836e-22
7.61311e-23
9.82404e-21
7.95416e-21
5.76109e-21
8.02954e-21
5.60802e-21
8.43992e-22
1.37577e-21
1.90248e-21
2.00188e-21
5.89367e-23
1.75428e-21
4.0384e-23
1.13881e-21
6.12115e-21
1.09946e-21
4.60557e-21
4.56037e-21
1.15891e-21
3.69002e-23
2.80281e-21
1.66762e-21
3.22432e-23
5.01485e-21
5.90896e-22
2.35791e-21
1.02031e-20
2.84559e-21
9.72488e-22
5.06299e-21
3.20147e-21
3.72985e-21
5.80531e-22
2.23668e-22
1.08716e-21
6.98177e-22
8.82701e-24
3.92321e-21
1.61393e-21
5.26266e-21
1.39938e-21
1.78773e-21
2.83259e-21
5.06313e-22
5.96965e-21
1.47426e-21
2.08709e-20
3.23909e-21
5.72979e-23
3.07295e-22
8.05803e-21
2.24652e-21
8.85143e-22
1.88346e-21
2.72252e-21
5.70772e-22
1.63464e-21
3.67273e-21
1.88199e-21
3.69473e-21
4.95077e-21
7.07127e-23
4.89936e-21
7.0999e-21
5.54975e-21
3.13942e-21
9.25874e-22
1.56293e-21
3.41967e-21
7.98626e-21
3.73487e-21
1.96551e-21
1.17284e-21
2.27327e-21
6.35453e-21
4.28306e-21
1.2509e-21
9.47606e-22
2.30652e-21
3.14417e-21
3.23471e-21
8.59969e-21
8.28948e-21
1.33001e-22
1.35783e-21
1.17649e-21
5.86879e-22
1.96951e-21
2.58172e-21
4.04718e-21
4.44271e-22
2.58792e-21
4.57943e-21
5.35809e-21
6.98534e-21
1.46859e-21
3.33102e-21
3.65332e-22
1.38255e-20
6.2459e-21
1.18423e-21
2.59899e-21
2.9598e-21
2.68415e-21
6.60231e-21
5.26189e-21
5.89519e-22
1.33726e-21
1.0479e-20
5.36376e-21
1.45843e-21
1.04031e-21
9.76038e-22
2.12965e-21
2.15391e-21
5.2274e-21
4.38979e-21
3.79821e-21
1.37065e-21
1.07237e-21
4.05827e-21
6.73714e-21
1.25785e-21
3.36527e-21
9.65831e-23
2.59235e-21
5.65975e-21
3.59579e-21
7.1976e-21
4.36294e-22
2.51049e-22
5.91425e-21
5.69712e-21
2.1612e-21
5.50076e-22
8.29493e-22
4.63619e-22
1.07502e-21
2.28034e-21
3.9712e-21
4.52839e-22
1.26634e-21
1.43818e-20
1.23951e-21
4.82436e-22
4.0338e-22
6.60586e-21
5.20817e-21
4.37673e-22
1.61767e-21
8.77818e-21
1.48314e-21
9.511e-22
2.87484e-21
1.39571e-20
9.62742e-21
1.27934e-21
3.47919e-21
1.25704e-21
2.57165e-24
8.46894e-21
2.22381e-21
1.68038e-21
1.05987e-22
5.40574e-22
2.09865e-21
9.50566e-21
1.65364e-21
3.21566e-21
2.28847e-21
3.27888e-21
6.53602e-21
4.4963e-21
4.56707e-21
5.18595e-21
4.83967e-21
8.6142e-21
6.90485e-22
3.35814e-21
1.63263e-21
7.97777e-21
8.49381e-22
3.03172e-22
1.00623e-21
3.67417e-21
7.56501e-22
1.78868e-20
1.17319e-21
1.6189e-21
4.58619e-21
8.89337e-22
4.32976e-22
2.46426e-22
1.38357e-21
1.3143e-21
1.8585e-21
8.74595e-21
6.21254e-21
8.87678e-22
4.52999e-21
4.36625e-22
2.23229e-21
4.81256e-21
1.83925e-21
2.06148e-22
1.76349e-21
7.90998e-21
2.30044e-21
3.91721e-21
6.84077e-22
8.02683e-21
1.60545e-21
1.12021e-20
1.41404e-21
9.48868e-22
3.38553e-21
1.09767e-21
1.72849e-21
1.7281e-21
4.74659e-21
3.2471e-21
3.03207e-21
5.69707e-21
1.64753e-21
3.57995e-22
1.32187e-20
1.11194e-20
1.99937e-21
6.58028e-21
2.1883e-21
4.61704e-22
2.44427e-22
2.2581e-21
2.53097e-21
3.199e-21
2.65377e-21
1.25254e-22
2.12601e-20
7.37997e-21
4.15705e-21
8.42866e-22
6.26794e-22
1.49674e-21
5.26235e-21
6.37376e-21
4.67214e-22
1.37242e-21
2.21047e-21
9.72049e-21
1.71424e-21
2.41058e-22
6.4892e-21
7.70231e-21
3.52594e-21
5.91873e-21
6.90681e-22
1.19684e-20
6.7738e-21
6.56431e-22
3.89145e-22
5.85874e-21
1.95652e-21
1.63507e-22
4.99218e-21
7.61075e-21
2.05749e-21
5.32694e-22
3.34207e-22
4.06856e-21
5.56589e-21
1.88321e-21
9.03078e-21
3.05036e-22
2.81904e-21
1.7327e-21
1.86966e-21
1.90583e-21
4.00273e-21
6.48319e-22
3.50384e-21
1.14042e-21
1.26859e-22
5.55851e-22
7.47896e-22
3.3354e-21
4.39722e-22
2.95874e-21
3.22896e-21
3.36387e-22
4.56517e-21
6.4469e-21
3.86278e-21
2.23952e-21
2.06628e-21
2.36326e-21
1.9709e-21
2.94648e-21
7.77483e-23
3.10491e-22
1.15052e-21
2.03832e-21
1.57391e-21
1.27749e-21
2.68748e-21
2.92286e-21
2.62278e-21
9.1568e-22
7.97487e-22
2.37754e-21
2.69459e-21
3.41317e-21
1.25883e-20
1.11832e-21
2.0873e-21
2.74708e-21
1.94135e-22
2.3134e-21
1.04917e-21
2.49172e-21
1.70842e-21
2.51779e-21
5.34723e-21
2.28384e-20
5.97731e-21
1.99032e-21
7.99457e-22
1.29634e-21
1.41612e-21
4.24592e-21
4.16306e-21
3.7059e-21
3.04671e-21
2.05154e-21
1.43352e-21
1.27366e-21
6.72441e-21
3.72565e-22
6.10127e-21
3.55941e-22
1.03582e-21
7.93207e-22
1.90847e-21
6.11947e-21
3.0002e-21
1.28998e-21
1.53722e-20
4.04499e-21
8.84702e-22
3.88444e-23
3.70312e-21
1.3888e-21
2.02487e-21
4.21061e-21
3.69379e-22
3.08444e-21
8.72373e-21
3.717e-21
3.52962e-21
9.09524e-22
1.27843e-21
1.77112e-21
5.20308e-21
3.34966e-21
5.30992e-22
2.21708e-21
2.19339e-21
2.55885e-21
4.00568e-22
8.04969e-21
3.67276e-21
3.70628e-21
1.68033e-21
1.31458e-21
2.05715e-21
3.93845e-21
1.78817e-22
1.14721e-21
3.08813e-21
3.00818e-21
3.3478e-23
1.42153e-22
1.04944e-22
5.64038e-21
1.21945e-20
4.72242e-21
2.78169e-21
4.98227e-24
1.13974e-20
3.06264e-21
4.45047e-22
1.01318e-21
3.64913e-22
9.63644e-22
5.65201e-22
5.74357e-21
1.09385e-21
1.56314e-21
1.15339e-20
2.62496e-22
3.42626e-21
7.92093e-21
5.3507e-21
5.22803e-21
4.80519e-21
2.86004e-21
9.79451e-21
8.55155e-22
3.83199e-21
5.51918e-22
7.13905e-22
6.25149e-21
6.03581e-23
5.76534e-24
2.29218e-21
1.14369e-21
1.49252e-22
1.05127e-21
5.87043e-21
7.34141e-22
1.16349e-21
3.27158e-21
2.07007e-22
1.68402e-21
1.55049e-21
4.56898e-22
1.3927e-21
4.39683e-23
4.10463e-21
4.24967e-21
3.29123e-21
1.20537e-21
2.14166e-21
6.73631e-21
2.74147e-21
1.18129e-21
2.46304e-21
5.45487e-21
1.12217e-21
1.12204e-21
1.91272e-21
3.28266e-21
4.37985e-21
6.93989e-21
4.1366e-21
1.84407e-21
3.60407e-21
1.7027e-21
3.20281e-21
1.03301e-21
2.34457e-21
8.91687e-21
1.5147e-21
2.1724e-21
3.80753e-21
2.24655e-21
1.32599e-21
7.01548e-21
8.28285e-21
4.0018e-21
7.80562e-21
1.71497e-21
2.21584e-21
7.90349e-22
8.0174e-22
4.4542e-21
2.17638e-21
2.26514e-21
2.26404e-21
1.26779e-21
1.08119e-21
3.37683e-21
2.55454e-21
2.32673e-21
1.73304e-21
1.67239e-22
4.20796e-21
4.63413e-21
1.56931e-21
1.39462e-21
1.27705e-21
3.54054e-22
6.96879e-21
6.07448e-23
7.10893e-22
4.51948e-21
8.97988e-22
1.90496e-21
1.99426e-21
1.26861e-21
5.8303e-22
1.37533e-21
1.60151e-21
8.74052e-23
7.09148e-22
4.25197e-21
3.49028e-22
2.7512e-21
5.66283e-21
6.87258e-21
1.21995e-21
3.77832e-21
9.15818e-23
8.19208e-22
3.54198e-21
6.69207e-21
1.94626e-21
8.14664e-23
8.49265e-21
3.57577e-22
4.29139e-21
7.44281e-21
3.59911e-22
3.31676e-21
1.2192e-21
9.81136e-22
6.76856e-21
4.38669e-21
1.93757e-21
1.45239e-20
7.75159e-21
3.0218e-22
4.98255e-21
9.03171e-22
2.83744e-21
4.21924e-21
4.01349e-21
6.3345e-22
4.77715e-22
2.03856e-22
5.21314e-21
1.92316e-21
2.91999e-22
4.49278e-21
2.12419e-22
9.64166e-23
1.55425e-21
1.55549e-21
4.77189e-21
3.89263e-21
3.01977e-21
8.22721e-23
6.15365e-21
4.32909e-21
3.38572e-21
3.3628e-21
8.04747e-21
1.58706e-21
4.9874e-21
5.68461e-21
1.7704e-21
1.36773e-22
1.29326e-20
4.09395e-21
3.28273e-21
4.34582e-21
2.85917e-21
2.25505e-22
3.08547e-21
1.62984e-21
1.43259e-22
1.20384e-21
5.07192e-22
5.87204e-22
2.6945e-21
8.77273e-21
2.22154e-21
7.21971e-21
3.44619e-21
8.5224e-21
1.87692e-21
4.85356e-21
4.45163e-22
1.89177e-22
4.40587e-22
6.79629e-21
7.5e-21
1.01806e-21
3.88151e-21
1.30772e-22
2.99901e-22
2.51049e-21
1.85048e-21
9.48296e-22
1.19508e-21
6.86653e-22
1.18915e-21
4.57206e-21
5.01502e-21
7.10492e-22
5.11285e-22
1.21214e-21
1.01582e-21
1.64565e-21
4.91952e-21
2.11671e-22
6.69749e-21
1.82671e-21
1.78538e-22
3.18792e-21
3.28161e-22
3.58809e-22
3.04188e-21
4.12164e-21
9.56e-22
8.13786e-21
3.51945e-21
1.383e-20
6.5362e-21
6.25745e-21
1.25001e-21
5.28528e-22
7.4614e-22
4.08596e-21
2.42548e-21
2.03912e-22
1.8314e-22
1.79375e-21
3.63736e-21
5.19873e-22
5.80576e-22
3.2387e-21
1.05904e-21
5.04044e-21
7.16256e-21
2.28645e-21
7.1645e-21
6.53129e-21
9.56154e-21
9.44325e-23
1.26323e-22
9.83902e-22
9.78356e-22
2.68979e-21
1.0157e-22
5.16936e-21
9.28229e-21
3.52181e-21
3.02613e-21
2.49739e-21
1.50163e-21
2.03443e-22
1.77076e-21
4.85197e-22
7.96813e-21
2.76033e-21
1.05726e-21
3.77933e-21
2.69756e-23
2.17784e-22
2.21342e-22
6.57569e-21
2.30712e-21
2.13565e-21
2.9194e-21
3.01562e-21
1.31255e-21
3.07401e-22
3.65955e-21
1.18199e-22
6.9192e-22
8.92701e-21
4.98908e-22
4.03541e-21
2.98848e-21
1.33519e-20
2.47315e-21
4.99143e-21
1.65768e-21
1.83974e-22
7.32638e-21
1.75045e-21
5.26292e-21
7.15923e-22
4.90657e-22
7.52313e-21
3.09149e-22
4.36146e-21
1.8714e-21
4.8627e-21
4.45161e-21
1.3771e-21
2.52104e-21
1.43995e-20
1.04162e-21
7.02416e-21
2.78129e-21
2.75677e-21
7.87129e-23
1.3675e-21
4.96246e-21
1.28214e-21
3.62627e-23
5.17214e-21
1.85226e-21
3.09555e-21
3.95197e-21
4.26878e-21
7.4986e-22
1.06589e-20
6.25332e-22
8.80806e-21
9.76167e-22
5.45468e-21
5.05256e-21
4.07159e-21
5.10161e-21
5.64293e-21
4.90466e-21
2.47208e-22
3.51644e-21
8.45461e-21
8.82601e-24
2.90365e-21
5.87894e-21
2.98878e-21
5.20554e-21
1.00539e-20
2.04812e-21
6.44846e-21
2.86204e-21
3.76759e-21
2.57483e-21
3.57714e-21
1.59355e-21
1.48992e-21
2.35639e-22
7.82327e-22
4.63787e-21
4.03804e-22
8.10606e-22
3.43739e-21
1.89985e-21
4.79103e-21
3.97385e-21
1.10554e-21
4.99005e-21