/*--------------------------------*- C++ -*----------------------------------*\
  =========                 |
  \\      /  F ield         | OpenFOAM: The Open Source CFD Toolbox
   \\    /   O peration     | Website:  https://openfoam.org
    \\  /    A nd           | Version:  7
     \\/     M anipulation  |
\*---------------------------------------------------------------------------*/
FoamFile
{
    version     2.0;
    format      ascii;
    class       Cloud<dsmcParcel>;
    location    "0.004/lagrangian/dsmc";
    object      positions;
}
// * * * * * * * * * * * * * * * * * * * * * * * * * * * * * * * * * * * * * //

3049
(
(0.289196 0.355402 0.355402 0) 162 162 2
(0.231543 0.384229 0.384229 0) 268 268 2
(0.980679 0.00966052 0 0.00966052) 43 42 2
(0.210147 0.394927 0 0.394927) 24 23 2
(0.880492 0.0597538 0 0.0597538) 18 17 2
(0.277403 0.361298 0 0.361298) 60 59 2
(0.347509 0.326246 0.326246 0) 45 45 2
(0.361961 0.319019 0 0.319019) 61 60 2
(0.0710304 0.464485 0 0.464485) 50 50 1
(0.0474941 0.476253 0.476253 0) 283 283 2
(0.504731 0.247634 0.247634 0) 91 90 1
(0.499916 0.250042 0 0.250042) 75 75 1
(0.928734 0.0356332 0 0.0356332) 60 59 2
(0.170126 0.414937 0 0.414937) 36 35 2
(0.343418 0.328291 0 0.328291) 136 136 1
(0.243694 0.378153 0.378153 0) 190 189 1
(0.426583 0.286709 0.286709 0) 38 38 2
(0.857537 0.0712314 0 0.0712314) 9 8 2
(0.388865 0.305568 0.305568 0) 175 175 2
(0.59841 0.200795 0.200795 0) 2 2 2
(0.726488 0.136756 0.136756 0) 79 79 2
(0.533916 0.233042 0.233042 0) 107 106 1
(0.0435657 0.478217 0 0.478217) 33 32 2
(0.0560474 0.471976 0 0.471976) 1 0 2
(0.411207 0.294396 0 0.294396) 11 11 1
(0.00619447 0.496903 0.496903 0) 118 118 2
(0.676976 0.161512 0.161512 0) 23 23 2
(0.59576 0.20212 0 0.20212) 72 72 1
(0.267308 0.366346 0 0.366346) 65 64 2
(0.600432 0.199784 0.199784 0) 161 160 1
(0.617898 0.191051 0.191051 0) 89 88 1
(0.433314 0.283343 0.283343 0) 24 23 1
(0.284932 0.357534 0 0.357534) 172 172 1
(0.991123 0.00443838 0.00443838 0) 97 96 1
(0.887274 0.056363 0.056363 0) 183 182 1
(0.934392 0.0328041 0 0.0328041) 139 138 2
(0.991889 0.00405552 0.00405552 0) 148 148 2
(0.946113 0.0269433 0 0.0269433) 200 199 2
(0.662703 0.168649 0 0.168649) 8 7 2
(0.883698 0.0581511 0 0.0581511) 155 155 1
(0.910559 0.0447206 0.0447206 0) 83 83 2
(0.384289 0.307856 0.307856 0) 32 32 2
(0.920841 0.0395794 0.0395794 0) 181 181 2
(0.306284 0.346858 0 0.346858) 187 187 1
(0.460306 0.269847 0 0.269847) 22 21 2
(0.88973 0.0551352 0.0551352 0) 142 142 2
(0.920029 0.0399854 0.0399854 0) 111 111 2
(0.795375 0.102312 0 0.102312) 64 63 2
(0.748478 0.125761 0 0.125761) 105 105 1
(0.592356 0.203822 0 0.203822) 86 85 2
(0.433713 0.283144 0.283144 0) 285 285 2
(0.385703 0.307149 0.307149 0) 3 3 2
(0.551437 0.224281 0 0.224281) 93 93 1
(0.00477914 0.49761 0.49761 0) 52 52 2
(0.687422 0.156289 0.156289 0) 17 16 1
(0.65231 0.173845 0 0.173845) 24 23 2
(0.345039 0.327481 0.327481 0) 138 137 1
(0.945192 0.0274038 0 0.0274038) 73 73 1
(0.0602603 0.46987 0 0.46987) 48 48 1
(0.274376 0.362812 0 0.362812) 116 116 1
(0.450887 0.274557 0.274557 0) 111 111 2
(0.127574 0.436213 0.436213 0) 145 145 2
(0.798535 0.100733 0 0.100733) 193 193 1
(0.372624 0.313688 0.313688 0) 98 98 2
(0.951218 0.0243909 0.0243909 0) 4 4 2
(0.787409 0.106295 0 0.106295) 62 61 2
(0.861272 0.069364 0 0.069364) 66 66 1
(0.866014 0.0669931 0.0669931 0) 9 8 1
(0.214999 0.392501 0 0.392501) 35 35 1
(0.619749 0.190125 0.190125 0) 63 63 2
(0.987607 0.00619629 0.00619629 0) 49 49 2
(0.299619 0.35019 0.35019 0) 16 15 1
(0.0958657 0.452067 0.452067 0) 119 119 2
(0.96857 0.0157148 0.0157148 0) 77 77 2
(0.713521 0.14324 0.14324 0) 134 133 1
(0.859096 0.0704522 0 0.0704522) 24 23 2
(0.294231 0.352885 0.352885 0) 72 71 1
(0.63817 0.180915 0 0.180915) 227 226 2
(0.0288444 0.485578 0.485578 0) 155 154 1
(0.763424 0.118288 0.118288 0) 58 57 1
(0.651822 0.174089 0 0.174089) 201 201 1
(0.633923 0.183039 0.183039 0) 21 20 1
(0.065627 0.467187 0.467187 0) 229 228 1
(0.627404 0.186298 0.186298 0) 256 256 2
(0.0351663 0.482417 0.482417 0) 160 159 1
(0.93778 0.0311098 0.0311098 0) 119 119 2
(0.420783 0.289609 0.289609 0) 2 2 2
(0.579421 0.210289 0 0.210289) 200 200 1
(0.465831 0.267084 0 0.267084) 200 200 1
(0.853964 0.0730179 0.0730179 0) 80 80 2
(0.35592 0.32204 0.32204 0) 203 202 1
(0.885274 0.0573628 0 0.0573628) 86 85 2
(0.337743 0.331128 0 0.331128) 142 142 1
(0.93306 0.0334699 0.0334699 0) 24 24 2
(0.987707 0.00614664 0.00614664 0) 181 181 2
(0.460776 0.269612 0 0.269612) 70 69 2
(0.507217 0.246392 0.246392 0) 75 74 1
(0.522436 0.238782 0.238782 0) 79 79 2
(0.564265 0.217867 0.217867 0) 132 132 2
(0.0278854 0.486057 0 0.486057) 201 201 1
(0.459934 0.270033 0.270033 0) 132 131 1
(0.0599597 0.47002 0.47002 0) 28 28 2
(0.0990811 0.450459 0 0.450459) 49 49 1
(0.369562 0.315219 0.315219 0) 37 37 2
(0.72029 0.139855 0 0.139855) 203 203 1
(0.337837 0.331081 0 0.331081) 203 202 2
(0.564834 0.217583 0.217583 0) 165 165 2
(0.536947 0.231526 0 0.231526) 182 182 1
(0.110372 0.444814 0.444814 0) 191 191 2
(0.57793 0.211035 0 0.211035) 152 151 2
(0.730822 0.134589 0.134589 0) 128 127 1
(0.305524 0.347238 0.347238 0) 33 32 1
(0.742834 0.128583 0.128583 0) 64 64 2
(0.865156 0.067422 0 0.067422) 125 125 1
(0.0745798 0.46271 0 0.46271) 6 6 1
(0.40528 0.29736 0 0.29736) 83 83 1
(0.124127 0.437937 0 0.437937) 53 52 2
(0.0628052 0.468597 0.468597 0) 184 183 1
(0.525098 0.237451 0.237451 0) 201 201 2
(0.145754 0.427123 0.427123 0) 119 118 1
(0.000193718 0.499903 0 0.499903) 23 23 1
(0.359591 0.320205 0 0.320205) 235 235 1
(0.83229 0.0838549 0 0.0838549) 250 249 2
(0.79976 0.10012 0 0.10012) 43 42 2
(0.518066 0.240967 0.240967 0) 11 10 1
(0.688344 0.155828 0.155828 0) 115 115 2
(0.640326 0.179837 0.179837 0) 44 43 1
(0.0665126 0.466744 0 0.466744) 137 137 1
(0.188527 0.405737 0 0.405737) 85 84 2
(0.936443 0.0317783 0 0.0317783) 105 105 1
(0.660063 0.169969 0.169969 0) 231 230 1
(0.378541 0.31073 0.31073 0) 213 213 2
(0.647331 0.176335 0 0.176335) 55 55 1
(0.792875 0.103563 0.103563 0) 69 69 2
(0.876494 0.0617532 0 0.0617532) 204 204 1
(0.843564 0.0782178 0.0782178 0) 36 35 1
(0.84921 0.075395 0 0.075395) 69 68 2
(0.0318449 0.484078 0.484078 0) 33 33 2
(0.300002 0.349999 0 0.349999) 150 150 1
(0.75515 0.122425 0 0.122425) 53 53 1
(0.0687314 0.465634 0 0.465634) 187 187 1
(0.78519 0.107405 0 0.107405) 53 53 1
(0.292389 0.353806 0 0.353806) 31 30 2
(0.4765 0.26175 0 0.26175) 163 162 2
(0.824803 0.0875986 0 0.0875986) 87 87 1
(0.252931 0.373535 0.373535 0) 97 96 1
(0.89758 0.0512101 0.0512101 0) 59 59 2
(0.868705 0.0656477 0.0656477 0) 4 4 2
(0.238092 0.380954 0.380954 0) 144 144 2
(0.220616 0.389692 0 0.389692) 70 69 2
(0.9967 0.00164988 0.00164988 0) 171 171 2
(0.834222 0.0828888 0.0828888 0) 71 71 2
(0.95703 0.0214852 0 0.0214852) 197 197 1
(0.258002 0.370999 0 0.370999) 279 278 2
(0.10272 0.44864 0.44864 0) 78 78 2
(0.756299 0.121851 0 0.121851) 343 342 2
(0.733431 0.133285 0.133285 0) 201 200 1
(0.554286 0.222857 0 0.222857) 202 201 2
(0.508956 0.245522 0.245522 0) 42 41 1
(0.29784 0.35108 0 0.35108) 25 24 2
(0.506292 0.246854 0.246854 0) 110 110 2
(0.7019 0.14905 0.14905 0) 291 291 2
(0.259495 0.370253 0 0.370253) 80 80 1
(0.44867 0.275665 0.275665 0) 53 52 1
(0.617361 0.19132 0.19132 0) 308 308 2
(0.877691 0.0611547 0 0.0611547) 53 53 1
(0.708946 0.145527 0 0.145527) 49 48 2
(0.214077 0.392961 0 0.392961) 210 210 1
(0.333914 0.333043 0.333043 0) 204 204 2
(0.528453 0.235774 0.235774 0) 94 94 2
(0.3303 0.33485 0.33485 0) 42 42 2
(0.381951 0.309024 0.309024 0) 159 159 2
(0.944435 0.0277824 0 0.0277824) 100 99 2
(0.333881 0.333059 0.333059 0) 17 16 1
(0.748273 0.125864 0.125864 0) 224 223 1
(0.185001 0.407499 0.407499 0) 133 132 1
(0.839097 0.0804516 0.0804516 0) 90 90 2
(0.592653 0.203673 0 0.203673) 117 116 2
(0.770032 0.114984 0 0.114984) 92 92 1
(0.514016 0.242992 0 0.242992) 200 200 1
(0.540691 0.229655 0 0.229655) 155 155 1
(0.832481 0.0837597 0 0.0837597) 195 195 1
(0.863941 0.0680296 0.0680296 0) 86 86 2
(0.251819 0.374091 0 0.374091) 152 152 1
(0.144924 0.427538 0 0.427538) 118 117 2
(0.481978 0.259011 0.259011 0) 104 104 2
(0.890022 0.054989 0 0.054989) 54 54 1
(0.295253 0.352373 0 0.352373) 269 268 2
(0.588268 0.205866 0 0.205866) 123 123 1
(0.830765 0.0846177 0.0846177 0) 296 295 1
(0.14526 0.42737 0.42737 0) 125 125 2
(0.130121 0.434939 0 0.434939) 152 152 1
(0.233061 0.38347 0.38347 0) 68 67 1
(0.522453 0.238773 0 0.238773) 145 144 2
(0.807596 0.0962022 0 0.0962022) 35 34 2
(0.845019 0.0774903 0 0.0774903) 234 233 2
(0.611065 0.194468 0 0.194468) 131 130 2
(0.981652 0.00917415 0 0.00917415) 174 173 2
(0.709163 0.145419 0.145419 0) 80 80 2
(0.444955 0.277523 0.277523 0) 249 248 1
(0.0974404 0.45128 0.45128 0) 84 84 2
(0.606383 0.196809 0.196809 0) 84 84 2
(0.179022 0.410489 0 0.410489) 164 164 1
(0.395432 0.302284 0 0.302284) 283 282 2
(0.240766 0.379617 0 0.379617) 112 111 2
(0.182074 0.408963 0.408963 0) 265 265 2
(0.748301 0.125849 0 0.125849) 169 169 1
(0.711238 0.144381 0 0.144381) 117 117 1
(0.32153 0.339235 0 0.339235) 108 108 1
(0.788893 0.105553 0 0.105553) 249 248 2
(0.885191 0.0574047 0.0574047 0) 306 306 2
(0.215528 0.392236 0 0.392236) 166 165 2
(0.515926 0.242037 0.242037 0) 131 131 2
(0.920398 0.0398011 0.0398011 0) 259 259 2
(0.176971 0.411514 0 0.411514) 49 48 2
(0.865599 0.0672006 0.0672006 0) 208 207 1
(0.643495 0.178252 0.178252 0) 238 238 2
(0.319671 0.340164 0.340164 0) 113 112 1
(0.641916 0.179042 0 0.179042) 195 194 2
(0.0760906 0.461955 0.461955 0) 116 116 2
(0.306602 0.346699 0 0.346699) 199 199 1
(0.108954 0.445523 0.445523 0) 21 21 2
(0.716237 0.141881 0.141881 0) 228 228 2
(0.803787 0.0981063 0.0981063 0) 76 76 2
(0.937109 0.0314455 0 0.0314455) 297 297 1
(0.979647 0.0101763 0.0101763 0) 77 76 1
(0.0707056 0.464647 0 0.464647) 114 114 1
(0.968182 0.0159092 0.0159092 0) 365 365 2
(0.141295 0.429352 0.429352 0) 172 172 2
(0.54354 0.22823 0 0.22823) 21 21 1
(0.738611 0.130695 0 0.130695) 300 299 2
(0.204852 0.397574 0.397574 0) 17 16 1
(0.821103 0.0894487 0.0894487 0) 212 211 1
(0.599563 0.200218 0 0.200218) 59 58 2
(0.70878 0.14561 0 0.14561) 37 37 1
(0.662421 0.168789 0 0.168789) 414 414 1
(0.0394676 0.480266 0 0.480266) 136 135 2
(0.454881 0.27256 0 0.27256) 205 205 1
(0.644203 0.177898 0.177898 0) 13 12 1
(0.239622 0.380189 0 0.380189) 61 60 2
(0.0444866 0.477757 0.477757 0) 320 319 1
(0.824414 0.0877928 0 0.0877928) 231 230 2
(0.396216 0.301892 0.301892 0) 50 49 1
(0.836142 0.0819288 0 0.0819288) 75 75 1
(0.187938 0.406031 0 0.406031) 116 115 2
(0.00641494 0.496793 0.496793 0) 42 41 1
(0.957825 0.0210875 0 0.0210875) 110 109 2
(0.74134 0.12933 0 0.12933) 220 220 1
(0.0936539 0.453173 0 0.453173) 186 186 1
(0.490769 0.254616 0.254616 0) 156 156 2
(0.729034 0.135483 0.135483 0) 437 437 2
(0.715151 0.142425 0 0.142425) 11 11 1
(0.813993 0.0930033 0.0930033 0) 0 0 2
(0.621645 0.189178 0 0.189178) 197 197 1
(0.263911 0.368045 0.368045 0) 91 90 1
(0.540263 0.229869 0 0.229869) 220 219 2
(0.164401 0.417799 0.417799 0) 163 163 2
(0.795617 0.102191 0 0.102191) 83 83 1
(0.933944 0.0330282 0 0.0330282) 187 186 2
(0.92522 0.03739 0.03739 0) 354 353 1
(0.760476 0.119762 0 0.119762) 158 158 1
(0.336329 0.331835 0 0.331835) 44 44 1
(0.234919 0.382541 0.382541 0) 101 101 2
(0.366849 0.316576 0.316576 0) 84 84 2
(0.0622078 0.468896 0 0.468896) 130 130 1
(0.943764 0.028118 0 0.028118) 402 402 1
(0.644118 0.177941 0.177941 0) 242 242 2
(0.801023 0.0994885 0 0.0994885) 276 275 2
(0.585783 0.207109 0.207109 0) 152 151 1
(0.15523 0.422385 0 0.422385) 122 122 1
(0.82043 0.0897852 0.0897852 0) 160 159 1
(0.96759 0.0162048 0 0.0162048) 119 118 2
(0.232826 0.383587 0.383587 0) 81 81 2
(0.925225 0.0373873 0 0.0373873) 240 240 1
(0.76562 0.11719 0 0.11719) 104 104 1
(0.981336 0.00933192 0.00933192 0) 139 139 2
(0.0510231 0.474488 0.474488 0) 21 21 2
(0.681399 0.159301 0.159301 0) 113 113 2
(0.0685618 0.465719 0 0.465719) 208 208 1
(0.853678 0.0731609 0 0.0731609) 122 122 1
(0.167305 0.416348 0 0.416348) 98 97 2
(0.0283623 0.485819 0 0.485819) 191 190 2
(0.54317 0.228415 0 0.228415) 308 308 1
(0.422653 0.288674 0.288674 0) 206 205 1
(0.584315 0.207843 0.207843 0) 107 106 1
(0.243842 0.378079 0.378079 0) 398 397 1
(0.736712 0.131644 0.131644 0) 172 172 2
(0.731864 0.134068 0 0.134068) 351 351 1
(0.83497 0.0825152 0 0.0825152) 108 108 1
(0.592285 0.203858 0 0.203858) 204 204 1
(0.450563 0.274719 0 0.274719) 167 166 2
(0.503249 0.248375 0 0.248375) 220 219 2
(0.0479818 0.476009 0 0.476009) 38 38 1
(0.0832769 0.458362 0 0.458362) 140 140 1
(0.7413 0.12935 0 0.12935) 173 172 2
(0.097358 0.451321 0.451321 0) 345 344 1
(0.0503883 0.474806 0.474806 0) 144 143 1
(0.465726 0.267137 0 0.267137) 231 231 1
(0.878202 0.060899 0 0.060899) 105 104 2
(0.0653487 0.467326 0 0.467326) 187 187 1
(0.548651 0.225674 0 0.225674) 197 197 1
(0.881581 0.0592095 0 0.0592095) 30 29 2
(0.723177 0.138412 0 0.138412) 100 99 2
(0.0429219 0.478539 0.478539 0) 188 188 2
(0.978786 0.0106072 0 0.0106072) 137 136 2
(0.388408 0.305796 0 0.305796) 403 402 2
(0.878316 0.0608419 0.0608419 0) 108 107 1
(0.897216 0.0513918 0 0.0513918) 241 240 2
(0.491747 0.254126 0 0.254126) 279 279 1
(0.636873 0.181564 0 0.181564) 76 76 1
(0.59663 0.201685 0.201685 0) 156 155 1
(0.801976 0.0990118 0 0.0990118) 110 109 2
(0.437724 0.281138 0.281138 0) 14 14 2
(0.875116 0.0624419 0.0624419 0) 324 324 2
(0.841372 0.079314 0 0.079314) 158 158 1
(0.418082 0.290959 0.290959 0) 143 143 2
(0.887508 0.0562461 0.0562461 0) 210 209 1
(0.328525 0.335737 0 0.335737) 285 284 2
(0.11262 0.44369 0 0.44369) 86 85 2
(0.36378 0.31811 0 0.31811) 111 111 1
(0.31914 0.34043 0 0.34043) 21 21 1
(0.587543 0.206228 0 0.206228) 213 212 2
(0.920488 0.0397562 0 0.0397562) 196 195 2
(0.901637 0.0491815 0 0.0491815) 220 220 1
(0.611908 0.194046 0 0.194046) 62 61 2
(0.829844 0.0850779 0.0850779 0) 157 157 2
(0.477789 0.261105 0.261105 0) 212 212 2
(0.870241 0.0648793 0.0648793 0) 117 116 1
(0.940028 0.0299862 0.0299862 0) 238 237 1
(0.191157 0.404421 0 0.404421) 190 190 1
(0.224961 0.38752 0 0.38752) 244 243 2
(0.192491 0.403755 0.403755 0) 121 121 2
(0.259479 0.37026 0 0.37026) 254 254 1
(0.110245 0.444877 0 0.444877) 228 227 2
(0.687544 0.156228 0.156228 0) 132 132 2
(0.449299 0.27535 0.27535 0) 462 462 2
(0.776985 0.111507 0.111507 0) 101 101 2
(0.108317 0.445842 0.445842 0) 257 256 1
(0.408333 0.295834 0 0.295834) 105 105 1
(0.586908 0.206546 0.206546 0) 466 466 2
(0.777762 0.111119 0 0.111119) 100 99 2
(0.450615 0.274692 0.274692 0) 113 113 2
(0.23662 0.38169 0 0.38169) 337 337 1
(0.338682 0.330659 0.330659 0) 231 231 2
(0.869024 0.065488 0 0.065488) 53 53 1
(0.497795 0.251102 0 0.251102) 296 295 2
(0.156053 0.421974 0.421974 0) 84 83 1
(0.429473 0.285263 0.285263 0) 127 126 1
(0.184045 0.407978 0 0.407978) 318 318 1
(0.568224 0.215888 0.215888 0) 152 152 2
(0.14892 0.42554 0 0.42554) 247 246 2
(0.806205 0.0968973 0.0968973 0) 72 72 2
(0.882226 0.0588872 0.0588872 0) 248 248 2
(0.0500758 0.474962 0 0.474962) 308 308 1
(0.821288 0.0893561 0 0.0893561) 192 192 1
(0.0227374 0.488631 0.488631 0) 265 265 2
(0.0262108 0.486895 0 0.486895) 85 85 1
(0.911322 0.044339 0 0.044339) 176 176 1
(0.201897 0.399051 0 0.399051) 310 310 1
(0.339586 0.330207 0.330207 0) 20 19 1
(0.117504 0.441248 0.441248 0) 177 176 1
(0.00627366 0.496863 0 0.496863) 157 156 2
(0.444669 0.277665 0.277665 0) 85 85 2
(0.949202 0.0253991 0 0.0253991) 209 209 1
(0.934109 0.0329455 0.0329455 0) 282 282 2
(0.485469 0.257265 0.257265 0) 241 240 1
(0.206426 0.396787 0.396787 0) 267 267 2
(0.842124 0.0789379 0.0789379 0) 115 115 2
(0.782802 0.108599 0 0.108599) 32 32 1
(0.331063 0.334468 0.334468 0) 364 364 2
(0.347453 0.326274 0 0.326274) 181 181 1
(0.463827 0.268086 0 0.268086) 215 215 1
(0.402472 0.298764 0.298764 0) 165 164 1
(0.920785 0.0396075 0.0396075 0) 132 131 1
(0.367289 0.316355 0 0.316355) 150 149 2
(0.95758 0.02121 0 0.02121) 155 155 1
(0.462372 0.268814 0.268814 0) 132 131 1
(0.488854 0.255573 0 0.255573) 372 371 2
(0.556697 0.221652 0 0.221652) 225 224 2
(0.652058 0.173971 0.173971 0) 131 130 1
(0.794012 0.102994 0.102994 0) 202 202 2
(0.871943 0.0640287 0.0640287 0) 104 104 2
(0.118958 0.440521 0 0.440521) 229 228 2
(0.0294308 0.485285 0 0.485285) 104 104 1
(0.0198304 0.490085 0 0.490085) 300 300 1
(0.407427 0.296286 0.296286 0) 333 333 2
(0.999715 0.000142623 0.000142623 0) 299 298 1
(0.386805 0.306597 0 0.306597) 292 292 1
(0.192356 0.403822 0.403822 0) 283 282 1
(0.135865 0.432067 0.432067 0) 151 150 1
(0.552015 0.223993 0 0.223993) 183 182 2
(0.00315845 0.498421 0.498421 0) 211 210 1
(0.569905 0.215048 0 0.215048) 140 139 2
(0.895596 0.0522018 0.0522018 0) 163 162 1
(0.25198 0.37401 0 0.37401) 137 136 2
(0.526809 0.236595 0 0.236595) 334 334 1
(0.286332 0.356834 0.356834 0) 65 64 1
(0.79368 0.10316 0 0.10316) 394 394 1
(0.922088 0.038956 0 0.038956) 435 435 1
(0.473884 0.263058 0.263058 0) 223 223 2
(0.958535 0.0207323 0 0.0207323) 245 244 2
(0.472804 0.263598 0 0.263598) 284 284 1
(0.68843 0.155785 0 0.155785) 133 133 1
(0.549223 0.225388 0 0.225388) 129 128 2
(0.811868 0.0940661 0.0940661 0) 68 68 2
(0.388213 0.305894 0.305894 0) 262 261 1
(0.0576445 0.471178 0 0.471178) 234 234 1
(0.0678436 0.466078 0 0.466078) 51 51 1
(0.156587 0.421706 0.421706 0) 254 253 1
(0.596807 0.201596 0.201596 0) 200 200 2
(0.610422 0.194789 0 0.194789) 151 150 2
(0.114631 0.442685 0 0.442685) 366 365 2
(0.514259 0.24287 0 0.24287) 222 222 1
(0.371299 0.314351 0 0.314351) 126 125 2
(0.097506 0.451247 0.451247 0) 318 318 2
(0.576496 0.211752 0 0.211752) 23 23 1
(0.298423 0.350788 0 0.350788) 219 219 1
(0.511339 0.244331 0.244331 0) 104 104 2
(0.927392 0.0363038 0.0363038 0) 199 198 1
(0.61475 0.192625 0 0.192625) 115 115 1
(0.833512 0.0832441 0.0832441 0) 271 270 1
(0.625391 0.187305 0 0.187305) 349 348 2
(0.598951 0.200525 0.200525 0) 240 240 2
(0.750376 0.124812 0.124812 0) 233 233 2
(0.956134 0.0219331 0.0219331 0) 96 96 2
(0.230698 0.384651 0 0.384651) 290 290 1
(0.660179 0.16991 0 0.16991) 118 117 2
(0.97653 0.0117351 0.0117351 0) 206 205 1
(0.612338 0.193831 0.193831 0) 315 314 1
(0.804897 0.0975515 0.0975515 0) 326 325 1
(0.0647566 0.467622 0.467622 0) 244 243 1
(0.093289 0.453355 0 0.453355) 174 174 1
(0.999053 0.00047368 0.00047368 0) 127 127 2
(0.0827581 0.458621 0 0.458621) 437 436 2
(0.974543 0.0127286 0.0127286 0) 265 265 2
(0.00503383 0.497483 0.497483 0) 162 162 2
(0.228203 0.385899 0 0.385899) 169 169 1
(0.0857807 0.45711 0 0.45711) 300 299 2
(0.487747 0.256126 0.256126 0) 284 284 2
(0.91087 0.0445652 0.0445652 0) 238 238 2
(0.408227 0.295886 0 0.295886) 459 459 1
(0.0540291 0.472985 0 0.472985) 222 221 2
(0.346796 0.326602 0 0.326602) 216 216 1
(0.0476401 0.47618 0.47618 0) 140 140 2
(0.298352 0.350824 0 0.350824) 288 287 2
(0.37638 0.31181 0.31181 0) 216 216 2
(0.410444 0.294778 0.294778 0) 367 367 2
(0.325203 0.337399 0.337399 0) 167 166 1
(0.487214 0.256393 0 0.256393) 309 309 1
(0.605994 0.197003 0.197003 0) 88 88 2
(0.940956 0.0295219 0 0.0295219) 27 27 1
(0.544988 0.227506 0.227506 0) 358 357 1
(0.439866 0.280067 0.280067 0) 96 96 2
(0.431778 0.284111 0 0.284111) 179 179 1
(0.141003 0.429498 0.429498 0) 278 277 1
(0.680288 0.159856 0 0.159856) 58 57 2
(0.373618 0.313191 0.313191 0) 147 147 2
(0.98748 0.0062598 0 0.0062598) 406 406 1
(0.0628973 0.468551 0.468551 0) 153 152 1
(0.920956 0.0395222 0 0.0395222) 119 118 2
(0.855204 0.0723982 0 0.0723982) 139 139 1
(0.577118 0.211441 0 0.211441) 208 207 2
(0.955314 0.0223432 0 0.0223432) 220 219 2
(0.535547 0.232226 0.232226 0) 93 92 1
(0.524254 0.237873 0 0.237873) 201 201 1
(0.504567 0.247717 0 0.247717) 391 391 1
(0.722627 0.138687 0.138687 0) 254 253 1
(0.275401 0.3623 0.3623 0) 91 90 1
(0.287529 0.356235 0.356235 0) 328 327 1
(0.0800771 0.459961 0.459961 0) 432 432 2
(0.62799 0.186005 0 0.186005) 168 168 1
(0.347054 0.326473 0.326473 0) 419 418 1
(0.287923 0.356038 0 0.356038) 165 164 2
(0.572103 0.213948 0.213948 0) 226 226 2
(0.166695 0.416653 0.416653 0) 460 459 1
(0.28908 0.35546 0 0.35546) 37 37 1
(0.863352 0.0683241 0 0.0683241) 197 196 2
(0.548556 0.225722 0.225722 0) 57 56 1
(0.309913 0.345044 0.345044 0) 204 204 2
(0.0809161 0.459542 0.459542 0) 88 88 2
(0.959499 0.0202505 0.0202505 0) 259 259 2
(0.350379 0.32481 0.32481 0) 124 123 1
(0.123427 0.438287 0.438287 0) 465 465 2
(0.0153917 0.492304 0 0.492304) 163 163 1
(0.830825 0.0845875 0 0.0845875) 102 102 1
(0.916037 0.0419814 0.0419814 0) 108 108 2
(0.912164 0.0439178 0 0.0439178) 299 299 1
(0.587459 0.20627 0 0.20627) 331 331 1
(0.870079 0.0649606 0.0649606 0) 200 199 1
(0.119894 0.440053 0 0.440053) 96 96 1
(0.287851 0.356074 0.356074 0) 174 174 2
(0.493834 0.253083 0.253083 0) 233 232 1
(0.153255 0.423372 0.423372 0) 55 55 2
(0.298922 0.350539 0 0.350539) 240 239 2
(0.143294 0.428353 0 0.428353) 264 264 1
(0.290416 0.354792 0 0.354792) 267 267 1
(0.648769 0.175615 0.175615 0) 109 109 2
(0.279888 0.360056 0.360056 0) 119 118 1
(0.526895 0.236553 0.236553 0) 291 290 1
(0.920106 0.0399471 0.0399471 0) 135 134 1
(0.815666 0.0921669 0.0921669 0) 278 277 1
(0.091078 0.454461 0.454461 0) 55 55 2
(0.314553 0.342724 0 0.342724) 247 247 1
(0.189284 0.405358 0.405358 0) 465 465 2
(0.959059 0.0204706 0.0204706 0) 11 11 2
(0.361492 0.319254 0 0.319254) 277 276 2
(0.509987 0.245006 0.245006 0) 237 237 2
(0.864275 0.0678623 0 0.0678623) 227 227 1
(0.808013 0.0959937 0 0.0959937) 292 292 1
(0.260686 0.369657 0.369657 0) 348 347 1
(0.0274515 0.486274 0 0.486274) 208 207 2
(0.477034 0.261483 0.261483 0) 275 274 1
(0.356439 0.321781 0 0.321781) 194 193 2
(0.693859 0.153071 0 0.153071) 349 348 2
(0.178585 0.410708 0.410708 0) 423 423 2
(0.357231 0.321385 0 0.321385) 335 334 2
(0.216409 0.391796 0 0.391796) 148 147 2
(0.526891 0.236554 0 0.236554) 286 285 2
(0.174992 0.412504 0.412504 0) 238 238 2
(0.352163 0.323918 0.323918 0) 256 256 2
(0.87486 0.0625702 0 0.0625702) 132 132 1
(0.640478 0.179761 0.179761 0) 231 231 2
(0.95548 0.0222602 0 0.0222602) 98 98 1
(0.393651 0.303174 0.303174 0) 233 233 2
(0.976948 0.0115258 0.0115258 0) 142 141 1
(0.643765 0.178118 0.178118 0) 107 106 1
(0.318855 0.340572 0.340572 0) 279 278 1
(0.368032 0.315984 0.315984 0) 363 362 1
(0.659433 0.170283 0 0.170283) 326 326 1
(0.783227 0.108387 0.108387 0) 233 233 2
(0.237239 0.381381 0.381381 0) 212 212 2
(0.877629 0.0611856 0 0.0611856) 191 191 1
(0.822975 0.0885124 0 0.0885124) 202 202 1
(0.7919 0.10405 0 0.10405) 131 130 2
(0.384155 0.307923 0.307923 0) 289 289 2
(0.514208 0.242896 0 0.242896) 151 151 1
(0.411872 0.294064 0.294064 0) 252 251 1
(0.0549791 0.47251 0 0.47251) 446 446 1
(0.134662 0.432669 0.432669 0) 243 243 2
(0.365437 0.317282 0.317282 0) 120 120 2
(0.608165 0.195917 0 0.195917) 207 207 1
(0.973074 0.013463 0.013463 0) 241 240 1
(0.988313 0.00584327 0.00584327 0) 139 138 1
(0.365527 0.317237 0.317237 0) 177 176 1
(0.641762 0.179119 0 0.179119) 276 275 2
(0.631557 0.184222 0.184222 0) 86 86 2
(0.310056 0.344972 0.344972 0) 309 308 1
(0.139152 0.430424 0 0.430424) 340 340 1
(0.158243 0.420879 0 0.420879) 397 396 2
(0.977885 0.0110575 0.0110575 0) 95 94 1
(0.747788 0.126106 0.126106 0) 306 305 1
(0.784296 0.107852 0.107852 0) 206 206 2
(0.413577 0.293212 0 0.293212) 138 138 1
(0.478625 0.260688 0 0.260688) 37 36 2
(0.155782 0.422109 0.422109 0) 184 184 2
(0.957647 0.0211766 0 0.0211766) 279 278 2
(0.586005 0.206997 0.206997 0) 243 242 1
(0.714192 0.142904 0.142904 0) 49 48 1
(0.0833873 0.458306 0.458306 0) 238 238 2
(0.301138 0.349431 0 0.349431) 137 136 2
(0.58222 0.20889 0 0.20889) 260 259 2
(0.596371 0.201815 0 0.201815) 91 91 1
(0.216908 0.391546 0.391546 0) 344 344 2
(0.0269743 0.486513 0.486513 0) 221 220 1
(0.287285 0.356358 0.356358 0) 280 279 1
(0.510302 0.244849 0.244849 0) 50 49 1
(0.380841 0.309579 0 0.309579) 182 181 2
(0.952092 0.0239541 0 0.0239541) 371 371 1
(0.282756 0.358622 0.358622 0) 343 342 1
(0.927927 0.0360367 0 0.0360367) 354 353 2
(0.277101 0.36145 0 0.36145) 108 107 2
(0.777926 0.111037 0.111037 0) 68 67 1
(0.450557 0.274721 0 0.274721) 247 246 2
(0.273175 0.363412 0.363412 0) 236 236 2
(0.330607 0.334697 0.334697 0) 157 157 2
(0.835446 0.082277 0 0.082277) 354 354 1
(0.645274 0.177363 0.177363 0) 237 236 1
(0.598973 0.200514 0.200514 0) 215 214 1
(0.431582 0.284209 0.284209 0) 173 173 2
(0.0187416 0.490629 0 0.490629) 370 369 2
(0.566057 0.216971 0.216971 0) 237 237 2
(0.446799 0.2766 0 0.2766) 68 67 2
(0.861466 0.0692668 0 0.0692668) 249 249 1
(0.845229 0.0773856 0.0773856 0) 377 376 1
(0.132787 0.433607 0.433607 0) 335 335 2
(0.471411 0.264294 0 0.264294) 202 202 1
(0.538193 0.230904 0.230904 0) 263 262 1
(0.419243 0.290378 0.290378 0) 282 282 2
(0.740271 0.129864 0 0.129864) 294 293 2
(0.480049 0.259976 0 0.259976) 110 109 2
(0.588207 0.205896 0.205896 0) 348 348 2
(0.110426 0.444787 0 0.444787) 362 361 2
(0.984173 0.00791362 0 0.00791362) 242 242 1
(0.482381 0.25881 0.25881 0) 455 455 2
(0.439394 0.280303 0 0.280303) 246 246 1
(0.0616582 0.469171 0 0.469171) 187 186 2
(0.183256 0.408372 0.408372 0) 354 354 2
(0.577578 0.211211 0 0.211211) 243 243 1
(0.436891 0.281554 0 0.281554) 293 293 1
(0.445026 0.277487 0.277487 0) 165 165 2
(0.589066 0.205467 0 0.205467) 137 137 1
(0.133192 0.433404 0.433404 0) 218 218 2
(0.930083 0.0349585 0.0349585 0) 317 316 1
(0.0666942 0.466653 0.466653 0) 305 304 1
(0.966485 0.0167575 0 0.0167575) 533 533 1
(0.949842 0.0250791 0.0250791 0) 122 121 1
(0.305558 0.347221 0 0.347221) 239 239 1
(0.195649 0.402176 0.402176 0) 270 270 2
(0.340472 0.329764 0.329764 0) 143 142 1
(0.381454 0.309273 0.309273 0) 307 307 2
(0.0383132 0.480843 0.480843 0) 228 228 2
(0.335741 0.33213 0 0.33213) 279 279 1
(0.66427 0.167865 0.167865 0) 321 320 1
(0.821564 0.0892178 0.0892178 0) 234 234 2
(0.136532 0.431734 0.431734 0) 268 268 2
(0.460701 0.269649 0.269649 0) 119 118 1
(0.846106 0.0769469 0 0.0769469) 163 162 2
(0.686643 0.156679 0 0.156679) 231 230 2
(0.71522 0.14239 0 0.14239) 243 242 2
(0.64764 0.17618 0 0.17618) 220 220 1
(0.159275 0.420362 0 0.420362) 397 397 1
(0.918062 0.0409688 0 0.0409688) 383 383 1
(0.417912 0.291044 0 0.291044) 267 266 2
(0.209421 0.39529 0.39529 0) 201 200 1
(0.903442 0.0482789 0.0482789 0) 195 195 2
(0.641571 0.179215 0.179215 0) 131 131 2
(0.00017092 0.499915 0 0.499915) 199 198 2
(0.88973 0.055135 0.055135 0) 253 252 1
(0.316496 0.341752 0.341752 0) 299 298 1
(0.832478 0.0837609 0 0.0837609) 299 299 1
(0.829683 0.0851587 0.0851587 0) 313 313 2
(0.0069814 0.496509 0.496509 0) 177 177 2
(0.199353 0.400323 0.400323 0) 224 223 1
(0.0413344 0.479333 0.479333 0) 333 332 1
(0.381651 0.309175 0 0.309175) 237 237 1
(0.115133 0.442434 0.442434 0) 429 429 2
(0.390633 0.304684 0 0.304684) 500 499 2
(0.302871 0.348564 0 0.348564) 287 286 2
(0.911385 0.0443075 0.0443075 0) 339 339 2
(0.344292 0.327854 0.327854 0) 329 328 1
(0.595117 0.202442 0 0.202442) 240 240 1
(0.108637 0.445682 0.445682 0) 440 440 2
(0.728162 0.135919 0 0.135919) 371 371 1
(0.625842 0.187079 0 0.187079) 143 143 1
(0.301364 0.349318 0.349318 0) 603 602 1
(0.616223 0.191888 0 0.191888) 359 359 1
(0.77048 0.11476 0 0.11476) 480 479 2
(0.861157 0.0694217 0.0694217 0) 322 321 1
(0.531857 0.234071 0 0.234071) 143 143 1
(0.653199 0.1734 0.1734 0) 451 450 1
(0.688854 0.155573 0 0.155573) 302 302 1
(0.922081 0.0389593 0 0.0389593) 31 30 2
(0.938072 0.0309642 0.0309642 0) 352 351 1
(0.0663463 0.466827 0.466827 0) 214 213 1
(0.594329 0.202835 0 0.202835) 211 211 1
(0.956534 0.0217329 0.0217329 0) 418 417 1
(0.299856 0.350072 0.350072 0) 63 63 2
(0.795043 0.102479 0 0.102479) 291 291 1
(0.591108 0.204446 0.204446 0) 409 409 2
(0.184918 0.407541 0.407541 0) 445 444 1
(0.626011 0.186995 0.186995 0) 372 371 1
(0.864193 0.0679034 0 0.0679034) 316 315 2
(0.973333 0.0133335 0 0.0133335) 414 413 2
(0.0854252 0.457287 0 0.457287) 306 306 1
(0.836669 0.0816654 0 0.0816654) 292 292 1
(0.165306 0.417347 0.417347 0) 469 469 2
(0.541758 0.229121 0.229121 0) 309 308 1
(0.694438 0.152781 0 0.152781) 324 323 2
(0.150461 0.424769 0 0.424769) 242 242 1
(0.531973 0.234013 0 0.234013) 304 303 2
(0.0594734 0.470263 0.470263 0) 393 393 2
(0.882718 0.0586411 0 0.0586411) 174 174 1
(0.239955 0.380023 0.380023 0) 476 475 1
(0.943978 0.0280112 0 0.0280112) 340 340 1
(0.196244 0.401878 0.401878 0) 360 359 1
(0.426999 0.286501 0 0.286501) 225 225 1
(0.436884 0.281558 0 0.281558) 369 368 2
(0.803895 0.0980527 0 0.0980527) 294 293 2
(0.544327 0.227837 0 0.227837) 408 407 2
(0.552695 0.223652 0.223652 0) 378 378 2
(0.371948 0.314026 0.314026 0) 345 345 2
(0.356468 0.321766 0.321766 0) 198 197 1
(0.321325 0.339338 0.339338 0) 201 200 1
(0.857687 0.0711567 0.0711567 0) 339 338 1
(0.152677 0.423662 0 0.423662) 356 355 2
(0.154626 0.422687 0.422687 0) 217 216 1
(0.841793 0.0791036 0.0791036 0) 181 180 1
(0.931252 0.0343741 0.0343741 0) 207 207 2
(0.158234 0.420883 0 0.420883) 449 448 2
(0.135498 0.432251 0.432251 0) 367 366 1
(0.171344 0.414328 0.414328 0) 150 150 2
(0.530866 0.234567 0 0.234567) 222 222 1
(0.150266 0.424867 0.424867 0) 200 199 1
(0.667049 0.166476 0 0.166476) 389 389 1
(0.200332 0.399834 0 0.399834) 116 115 2
(0.752962 0.123519 0 0.123519) 254 254 1
(0.660682 0.169659 0.169659 0) 429 428 1
(0.94718 0.0264101 0.0264101 0) 432 431 1
(0.0962099 0.451895 0 0.451895) 423 422 2
(0.257054 0.371473 0.371473 0) 232 231 1
(0.0312695 0.484365 0 0.484365) 364 364 1
(0.944227 0.0278867 0 0.0278867) 103 102 2
(0.181047 0.409477 0.409477 0) 68 68 2
(0.118177 0.440911 0.440911 0) 86 85 1
(0.6485 0.17575 0 0.17575) 419 418 2
(0.276446 0.361777 0 0.361777) 272 272 1
(0.934156 0.0329222 0.0329222 0) 169 169 2
(0.193471 0.403265 0.403265 0) 176 175 1
(0.610874 0.194563 0.194563 0) 242 241 1
(0.608229 0.195886 0.195886 0) 187 186 1
(0.881548 0.0592261 0.0592261 0) 534 533 1
(0.373257 0.313372 0.313372 0) 297 297 2
(0.0317058 0.484147 0.484147 0) 222 222 2
(0.428191 0.285904 0.285904 0) 203 203 2
(0.994737 0.00263161 0.00263161 0) 193 193 2
(0.309547 0.345226 0.345226 0) 115 115 2
(0.580428 0.209786 0.209786 0) 274 273 1
(0.709356 0.145322 0.145322 0) 307 307 2
(0.292741 0.353629 0 0.353629) 220 220 1