/*--------------------------------*- C++ -*----------------------------------*\
  =========                 |
  \\      /  F ield         | OpenFOAM: The Open Source CFD Toolbox
   \\    /   O peration     | Website:  https://openfoam.org
    \\  /    A nd           | Version:  7
     \\/     M anipulation  |
\*---------------------------------------------------------------------------*/
FoamFile
{
    version     2.0;
    format      ascii;
    class       Cloud<dsmcParcel>;
    location    "0.004/lagrangian/dsmc";
    object      positions;
}
// * * * * * * * * * * * * * * * * * * * * * * * * * * * * * * * * * * * * * //

10852
(
(0.681498 0.159251 0 0.159251) 3 2 2
(0.0583409 0.47083 0.47083 0) 14 14 2
(0.781555 0.109223 0.109223 0) 22 21 1
(0.229245 0.385378 0 0.385378) 13 12 2
(0.70634 0.14683 0.14683 0) 0 1000 2
(0.259109 0.370446 0.370446 0) 9 9 2
(0.386452 0.306774 0.306774 0) 7 7 2
(0.524123 0.237938 0.237938 0) 2 1 1
(0.82334 0.0883302 0 0.0883302) 7 6 2
(0.93464 0.03268 0.03268 0) 13 13 2
(0.260537 0.369732 0.369732 0) 26 25 1
(0.0137982 0.493101 0 0.493101) 2 2 1
(0.527856 0.236072 0.236072 0) 12 12 2
(0.0695262 0.465237 0 0.465237) 7 7 1
(0.28915 0.355425 0.355425 0) 15 15 2
(0.815298 0.0923512 0 0.0923512) 12 12 1
(0.952229 0.0238857 0 0.0238857) 11 11 1
(0.650152 0.174924 0.174924 0) 10 9 1
(0.726488 0.136756 0 0.136756) 8 7 2
(0.877542 0.0612291 0.0612291 0) 1 1 2
(0.0282377 0.485881 0.485881 0) 1 1 2
(0.849082 0.075459 0.075459 0) 5 5 2
(0.904358 0.047821 0.047821 0) 5 4 1
(0.183891 0.408055 0 0.408055) 15 14 2
(0.115683 0.442159 0.442159 0) 13 12 1
(0.25811 0.370945 0 0.370945) 12 11 2
(0.297162 0.351419 0 0.351419) 8 7 2
(0.496724 0.251638 0.251638 0) 16 16 2
(0.78058 0.10971 0 0.10971) 3 3 1
(0.626272 0.186864 0 0.186864) 7 7 1
(0.197129 0.401435 0.401435 0) 3 2 1
(0.945074 0.027463 0 0.027463) 7 6 2
(0.620107 0.189947 0.189947 0) 3 2 1
(0.0298101 0.485095 0 0.485095) 15 15 1
(0.569984 0.215008 0 0.215008) 9 8 2
(0.981709 0.00914564 0.00914564 0) 4 4 2
(0.69034 0.15483 0 0.15483) 3 2 2
(0.417884 0.291058 0 0.291058) 1 0 2
(0.692846 0.153577 0.153577 0) 10 9 1
(0.819976 0.0900118 0.0900118 0) 2 1 1
(0.312929 0.343535 0.343535 0) 12 11 1
(0.842218 0.0788908 0 0.0788908) 5 4 2
(0.906849 0.0465757 0 0.0465757) 11 11 1
(0.169361 0.415319 0 0.415319) 13 13 1
(0.117447 0.441277 0 0.441277) 10 9 2
(0.251046 0.374477 0.374477 0) 7 7 2
(0.355144 0.322428 0.322428 0) 4 3 1
(0.282993 0.358504 0 0.358504) 0 0 1
(0.014266 0.492867 0.492867 0) 6 5 1
(0.562757 0.218621 0.218621 0) 18 17 1
(0.224662 0.387669 0.387669 0) 9 8 1
(0.726077 0.136962 0 0.136962) 0 0 1
(0.318686 0.340657 0.340657 0) 0 1000 2
(0.333993 0.333004 0.333004 0) 0 1000 2
(0.437672 0.281164 0 0.281164) 22 21 2
(0.931811 0.0340943 0 0.0340943) 6 6 1
(0.0515792 0.47421 0 0.47421) 1 0 2
(0.828894 0.0855528 0 0.0855528) 1 1 1
(0.279628 0.360186 0 0.360186) 30 30 1
(0.858049 0.0709755 0 0.0709755) 1 0 2
(0.569086 0.215457 0 0.215457) 1 1 1
(0.0263161 0.486842 0.486842 0) 12 11 1
(0.538707 0.230646 0 0.230646) 18 18 1
(0.174888 0.412556 0 0.412556) 0 0 1
(0.0553725 0.472314 0.472314 0) 6 5 1
(0.339187 0.330406 0 0.330406) 5 4 2
(0.221159 0.38942 0.38942 0) 15 14 1
(0.611926 0.194037 0 0.194037) 8 7 2
(0.156631 0.421684 0.421684 0) 3 2 1
(0.61099 0.194505 0.194505 0) 3 2 1
(0.473331 0.263334 0 0.263334) 2 1 2
(0.476099 0.26195 0 0.26195) 6 5 2
(0.538067 0.230967 0.230967 0) 3 3 2
(0.168347 0.415826 0 0.415826) 2 2 1
(0.146295 0.426853 0 0.426853) 25 24 2
(0.124066 0.437967 0 0.437967) 17 16 2
(0.440505 0.279747 0 0.279747) 18 17 2
(0.092124 0.453938 0 0.453938) 25 25 1
(0.667245 0.166377 0.166377 0) 4 3 1
(0.859434 0.070283 0.070283 0) 21 20 1
(0.184425 0.407787 0.407787 0) 0 1000 2
(0.345571 0.327215 0 0.327215) 8 8 1
(0.224546 0.387727 0 0.387727) 2 1 2
(0.607137 0.196432 0.196432 0) 9 9 2
(0.960327 0.0198365 0 0.0198365) 2 2 1
(0.863956 0.0680218 0.0680218 0) 0 0 2
(0.384748 0.307626 0.307626 0) 9 8 1
(0.508914 0.245543 0.245543 0) 15 15 2
(0.443866 0.278067 0.278067 0) 10 10 2
(0.654431 0.172785 0 0.172785) 23 22 2
(0.619652 0.190174 0.190174 0) 7 7 2
(0.828035 0.0859825 0.0859825 0) 1 0 1
(0.717352 0.141324 0 0.141324) 5 4 2
(0.759223 0.120388 0.120388 0) 19 19 2
(0.636775 0.181612 0 0.181612) 14 14 1
(0.31696 0.34152 0.34152 0) 18 17 1
(0.438844 0.280578 0.280578 0) 4 3 1
(0.427321 0.28634 0 0.28634) 2 2 1
(0.611973 0.194013 0.194013 0) 2 1 1
(0.32211 0.338945 0 0.338945) 3 2 2
(0.375116 0.312442 0.312442 0) 4 3 1
(0.615032 0.192484 0.192484 0) 19 19 2
(0.729987 0.135006 0 0.135006) 19 18 2
(0.309032 0.345484 0.345484 0) 12 11 1
(0.48933 0.255335 0 0.255335) 4 3 2
(0.479287 0.260357 0 0.260357) 16 15 2
(0.141373 0.429314 0.429314 0) 3 2 1
(0.885559 0.0572205 0.0572205 0) 1 1 2
(0.705532 0.147234 0.147234 0) 16 16 2
(0.451214 0.274393 0.274393 0) 5 4 1
(0.978526 0.0107369 0 0.0107369) 23 23 1
(0.799477 0.100262 0 0.100262) 12 11 2
(0.877548 0.0612258 0 0.0612258) 17 16 2
(0.912327 0.0438367 0 0.0438367) 11 11 1
(0.296776 0.351612 0.351612 0) 19 19 2
(0.555677 0.222162 0 0.222162) 2 2 1
(0.0804904 0.459755 0 0.459755) 15 14 2
(0.980232 0.00988388 0 0.00988388) 3 3 1
(0.942649 0.0286753 0.0286753 0) 17 17 2
(0.817161 0.0914196 0.0914196 0) 6 6 2
(0.374097 0.312951 0 0.312951) 1 0 2
(0.457852 0.271074 0.271074 0) 8 7 1
(0.772297 0.113851 0.113851 0) 7 7 2
(0.245175 0.377412 0 0.377412) 5 5 1
(0.254725 0.372637 0.372637 0) 0 0 2
(0.820112 0.0899438 0.0899438 0) 1 0 1
(0.700203 0.149899 0.149899 0) 6 5 1
(0.197164 0.401418 0 0.401418) 20 19 2
(0.464332 0.267834 0 0.267834) 0 0 1
(0.977579 0.0112103 0 0.0112103) 2 2 1
(0.727991 0.136005 0.136005 0) 1 1 2
(0.136525 0.431738 0.431738 0) 1 0 1
(0.959838 0.0200811 0.0200811 0) 4 4 2
(0.496232 0.251884 0 0.251884) 16 15 2
(0.840341 0.0798294 0 0.0798294) 4 3 2
(0.372505 0.313748 0 0.313748) 5 4 2
(0.145051 0.427475 0 0.427475) 23 23 1
(0.741145 0.129428 0.129428 0) 9 9 2
(0.51927 0.240365 0 0.240365) 26 25 2
(0.777907 0.111046 0 0.111046) 0 0 1
(0.351554 0.324223 0.324223 0) 10 10 2
(0.713987 0.143007 0.143007 0) 4 3 1
(0.431141 0.28443 0 0.28443) 11 11 1
(0.329131 0.335434 0.335434 0) 18 17 1
(0.36428 0.31786 0.31786 0) 3 3 2
(0.440942 0.279529 0.279529 0) 7 7 2
(0.517148 0.241426 0.241426 0) 3 3 2
(0.991206 0.00439685 0.00439685 0) 8 8 2
(0.327427 0.336286 0.336286 0) 6 5 1
(0.447793 0.276103 0.276103 0) 6 6 2
(0.418159 0.290921 0 0.290921) 3 3 1
(0.630809 0.184595 0.184595 0) 22 22 2
(0.471094 0.264453 0 0.264453) 8 8 1
(0.739776 0.130112 0.130112 0) 17 17 2
(0.961013 0.0194935 0 0.0194935) 9 9 1
(0.0347434 0.482628 0 0.482628) 23 23 1
(0.910209 0.0448956 0 0.0448956) 31 31 1
(0.260057 0.369971 0 0.369971) 2 1 2
(0.520423 0.239789 0.239789 0) 20 20 2
(0.0894119 0.455294 0.455294 0) 15 15 2
(0.716036 0.141982 0.141982 0) 0 1000 2
(0.527479 0.236261 0.236261 0) 16 16 2
(0.484178 0.257911 0.257911 0) 3 2 1
(0.310459 0.344771 0 0.344771) 4 4 1
(0.621204 0.189398 0.189398 0) 6 5 1
(0.945946 0.0270269 0.0270269 0) 10 9 1
(0.0580614 0.470969 0.470969 0) 10 10 2
(0.320282 0.339859 0.339859 0) 10 9 1
(0.217277 0.391362 0.391362 0) 13 12 1
(0.630455 0.184772 0 0.184772) 10 10 1
(0.946152 0.0269239 0 0.0269239) 12 11 2
(0.202478 0.398761 0 0.398761) 25 24 2
(0.472816 0.263592 0.263592 0) 8 7 1
(0.047299 0.47635 0 0.47635) 6 6 1
(0.867737 0.0661315 0 0.0661315) 1 0 2
(0.482266 0.258867 0 0.258867) 14 13 2
(0.7271 0.13645 0.13645 0) 6 5 1
(0.451548 0.274226 0.274226 0) 0 1000 2
(0.330082 0.334959 0.334959 0) 16 15 1
(0.990073 0.00496331 0.00496331 0) 11 11 2
(0.535016 0.232492 0.232492 0) 10 9 1
(0.3249 0.33755 0 0.33755) 12 12 1
(0.981858 0.00907083 0 0.00907083) 9 8 2
(0.967179 0.0164105 0.0164105 0) 3 2 1
(0.293163 0.353419 0.353419 0) 30 30 2
(0.986999 0.00650044 0.00650044 0) 2 2 2
(0.502069 0.248965 0.248965 0) 11 10 1
(0.588744 0.205628 0.205628 0) 18 17 1
(0.387267 0.306367 0.306367 0) 16 15 1
(0.434946 0.282527 0.282527 0) 0 0 2
(0.162065 0.418968 0.418968 0) 15 14 1
(0.416779 0.29161 0.29161 0) 2 2 2
(0.0170907 0.491455 0 0.491455) 12 12 1
(0.533108 0.233446 0 0.233446) 2 2 1
(0.758155 0.120923 0 0.120923) 32 32 1
(0.993745 0.00312731 0 0.00312731) 2 1 2
(0.474699 0.262651 0.262651 0) 14 13 1
(0.193272 0.403364 0.403364 0) 13 13 2
(0.0709481 0.464526 0 0.464526) 4 4 1
(0.0425136 0.478743 0 0.478743) 22 22 1
(0.47358 0.26321 0.26321 0) 3 3 2
(0.600594 0.199703 0.199703 0) 5 5 2
(0.539079 0.23046 0 0.23046) 1 1 1
(0.725176 0.137412 0 0.137412) 2 1 2
(0.0911318 0.454434 0.454434 0) 12 11 1
(0.537746 0.231127 0.231127 0) 10 10 2
(0.985089 0.00745542 0 0.00745542) 16 16 1
(0.749134 0.125433 0.125433 0) 18 18 2
(0.158843 0.420578 0 0.420578) 34 34 1
(0.361301 0.31935 0 0.31935) 4 4 1
(0.731317 0.134341 0 0.134341) 3 3 1
(0.808458 0.0957712 0.0957712 0) 15 14 1
(0.55707 0.221465 0 0.221465) 7 6 2
(0.502954 0.248523 0.248523 0) 1 0 1
(0.833132 0.083434 0.083434 0) 15 14 1
(0.315327 0.342336 0 0.342336) 15 15 1
(0.639358 0.180321 0.180321 0) 8 8 2
(0.846081 0.0769594 0.0769594 0) 21 21 2
(0.628171 0.185915 0 0.185915) 18 18 1
(0.363875 0.318062 0 0.318062) 8 7 2
(0.809964 0.0950178 0 0.0950178) 14 14 1
(0.0959961 0.452002 0.452002 0) 7 6 1
(0.132679 0.433661 0.433661 0) 23 22 1
(0.5392 0.2304 0.2304 0) 23 23 2
(0.0174164 0.491292 0 0.491292) 23 22 2
(0.0463336 0.476833 0.476833 0) 30 30 2
(0.523489 0.238256 0 0.238256) 12 11 2
(0.609391 0.195304 0.195304 0) 36 35 1
(0.302696 0.348652 0.348652 0) 18 18 2
(0.227556 0.386222 0.386222 0) 12 12 2
(0.341555 0.329223 0.329223 0) 32 32 2
(0.642304 0.178848 0.178848 0) 21 21 2
(0.984913 0.00754355 0 0.00754355) 2 1 2
(0.459931 0.270034 0 0.270034) 5 5 1
(0.648906 0.175547 0 0.175547) 11 10 2
(0.487425 0.256287 0 0.256287) 25 25 1
(0.10449 0.447755 0 0.447755) 14 13 2
(0.863265 0.0683675 0.0683675 0) 21 21 2
(0.346421 0.32679 0.32679 0) 23 23 2
(0.717941 0.141029 0.141029 0) 0 0 2
(0.766586 0.116707 0.116707 0) 12 12 2
(0.437662 0.281169 0.281169 0) 22 22 2
(0.303549 0.348225 0.348225 0) 18 17 1
(0.570832 0.214584 0.214584 0) 32 31 1
(0.955767 0.0221166 0 0.0221166) 11 10 2
(0.657161 0.17142 0.17142 0) 27 27 2
(0.91061 0.0446951 0 0.0446951) 24 23 2
(0.251163 0.374419 0.374419 0) 2 1 1
(0.542233 0.228883 0.228883 0) 19 18 1
(0.483788 0.258106 0.258106 0) 20 19 1
(0.0307833 0.484608 0.484608 0) 1 0 1
(0.161013 0.419494 0 0.419494) 14 13 2
(0.741598 0.129201 0 0.129201) 7 7 1
(0.469535 0.265232 0.265232 0) 20 19 1
(0.428597 0.285702 0.285702 0) 21 20 1
(0.992942 0.00352888 0 0.00352888) 20 19 2
(0.606284 0.196858 0 0.196858) 23 22 2
(0.615411 0.192294 0 0.192294) 15 15 1
(0.767146 0.116427 0 0.116427) 8 7 2
(0.274279 0.36286 0.36286 0) 18 17 1
(0.517148 0.241426 0 0.241426) 6 6 1
(0.950411 0.0247943 0 0.0247943) 15 15 1
(0.0360552 0.481972 0 0.481972) 16 15 2
(0.317144 0.341428 0.341428 0) 24 24 2
(0.968805 0.0155975 0.0155975 0) 0 0 2
(0.106581 0.446709 0.446709 0) 8 8 2
(0.0726622 0.463669 0 0.463669) 17 16 2
(0.325857 0.337072 0 0.337072) 12 12 1
(0.144366 0.427817 0 0.427817) 35 35 1
(0.562764 0.218618 0.218618 0) 27 26 1
(0.607124 0.196438 0.196438 0) 18 17 1
(0.773006 0.113497 0 0.113497) 10 10 1
(0.48535 0.257325 0 0.257325) 0 0 1
(0.567803 0.216099 0.216099 0) 19 19 2
(0.720884 0.139558 0 0.139558) 26 25 2
(0.890827 0.0545865 0.0545865 0) 17 16 1
(0.497138 0.251431 0.251431 0) 12 12 2
(0.991087 0.00445635 0 0.00445635) 29 28 2
(0.133644 0.433178 0.433178 0) 29 28 1
(0.835262 0.082369 0.082369 0) 33 32 1
(0.786928 0.106536 0 0.106536) 16 16 1
(0.560929 0.219535 0 0.219535) 27 26 2
(0.318977 0.340511 0.340511 0) 22 21 1
(0.397203 0.301399 0.301399 0) 1 0 1
(0.32923 0.335385 0.335385 0) 20 20 2
(0.806335 0.0968325 0.0968325 0) 10 9 1
(0.832061 0.0839694 0.0839694 0) 5 5 2
(0.999308 0.000346074 0 0.000346074) 27 27 1
(0.112084 0.443958 0.443958 0) 12 12 2
(0.438031 0.280985 0 0.280985) 20 20 1
(0.29672 0.35164 0.35164 0) 2 1 1
(0.616496 0.191752 0.191752 0) 21 21 2
(0.745275 0.127362 0.127362 0) 4 3 1
(0.119239 0.44038 0.44038 0) 11 10 1
(0.369072 0.315464 0.315464 0) 0 0 2
(0.258125 0.370938 0.370938 0) 20 19 1
(0.683763 0.158118 0.158118 0) 22 22 2
(0.897343 0.0513286 0 0.0513286) 23 23 1
(0.302994 0.348503 0 0.348503) 23 22 2
(0.77095 0.114525 0 0.114525) 0 0 1
(0.303258 0.348371 0.348371 0) 22 22 2
(0.325019 0.33749 0.33749 0) 4 3 1
(0.132991 0.433505 0 0.433505) 8 7 2
(0.163098 0.418451 0 0.418451) 13 13 1
(0.883187 0.0584067 0 0.0584067) 29 29 1
(0.727223 0.136389 0 0.136389) 24 23 2
(0.54959 0.225205 0.225205 0) 40 39 1
(0.810064 0.0949681 0 0.0949681) 5 4 2
(0.185517 0.407242 0 0.407242) 24 24 1
(0.567239 0.216381 0.216381 0) 22 22 2
(0.448173 0.275913 0 0.275913) 19 18 2
(0.798843 0.100578 0 0.100578) 9 9 1
(0.454642 0.272679 0 0.272679) 6 5 2
(0.584551 0.207724 0.207724 0) 12 12 2
(0.670502 0.164749 0.164749 0) 24 24 2
(0.888897 0.0555517 0 0.0555517) 6 5 2
(0.532016 0.233992 0.233992 0) 34 33 1
(0.248088 0.375956 0.375956 0) 15 15 2
(0.510972 0.244514 0 0.244514) 22 21 2
(0.807093 0.0964535 0 0.0964535) 17 16 2
(0.746012 0.126994 0.126994 0) 31 31 2
(0.358647 0.320677 0 0.320677) 8 7 2
(0.984524 0.00773822 0 0.00773822) 2 1 2
(0.558625 0.220688 0.220688 0) 4 4 2
(0.00966558 0.495167 0 0.495167) 29 28 2
(0.316189 0.341905 0.341905 0) 5 5 2
(0.558432 0.220784 0.220784 0) 24 23 1
(0.0327028 0.483649 0 0.483649) 19 19 1
(0.159406 0.420297 0.420297 0) 17 17 2
(0.771486 0.114257 0.114257 0) 12 12 2
(0.518844 0.240578 0 0.240578) 6 6 1
(0.198036 0.400982 0.400982 0) 17 16 1
(0.919057 0.0404713 0 0.0404713) 12 12 1
(0.651658 0.174171 0 0.174171) 11 10 2
(0.931641 0.0341795 0 0.0341795) 10 9 2
(0.0923799 0.45381 0 0.45381) 35 34 2
(0.972288 0.0138558 0.0138558 0) 13 12 1
(0.552257 0.223872 0.223872 0) 2 2 2
(0.462431 0.268785 0.268785 0) 42 42 2
(0.927807 0.0360967 0.0360967 0) 24 24 2
(0.710595 0.144703 0 0.144703) 24 23 2
(0.483988 0.258006 0 0.258006) 16 16 1
(0.903986 0.048007 0.048007 0) 34 33 1
(0.267656 0.366172 0 0.366172) 17 17 1
(0.816394 0.0918031 0.0918031 0) 27 27 2
(0.162727 0.418637 0.418637 0) 49 48 1
(0.826241 0.0868794 0.0868794 0) 18 17 1
(0.642505 0.178747 0 0.178747) 13 12 2
(0.569363 0.215319 0 0.215319) 37 37 1
(0.540844 0.229578 0.229578 0) 7 7 2
(0.51566 0.24217 0 0.24217) 15 14 2
(0.212231 0.393884 0.393884 0) 30 29 1
(0.0562578 0.471871 0 0.471871) 19 18 2
(0.88419 0.057905 0.057905 0) 25 25 2
(0.873215 0.0633926 0 0.0633926) 39 38 2
(0.0144138 0.492793 0.492793 0) 13 12 1
(0.928161 0.0359196 0.0359196 0) 26 26 2
(0.55589 0.222055 0 0.222055) 22 21 2
(0.969892 0.0150539 0.0150539 0) 42 41 1
(0.665516 0.167242 0.167242 0) 14 13 1
(0.950165 0.0249175 0 0.0249175) 14 14 1
(0.705418 0.147291 0 0.147291) 22 22 1
(0.622694 0.188653 0.188653 0) 10 9 1
(0.0138351 0.493082 0.493082 0) 26 25 1
(0.955833 0.0220836 0 0.0220836) 28 27 2
(0.18962 0.40519 0 0.40519) 22 22 1
(0.206952 0.396524 0.396524 0) 27 26 1
(0.0241235 0.487938 0.487938 0) 30 30 2
(0.786165 0.106917 0 0.106917) 15 14 2
(0.191535 0.404233 0.404233 0) 29 28 1
(0.112063 0.443969 0.443969 0) 13 12 1
(0.618042 0.190979 0 0.190979) 27 27 1
(0.747204 0.126398 0 0.126398) 28 27 2
(0.54665 0.226675 0 0.226675) 28 27 2
(0.181439 0.409281 0.409281 0) 5 5 2
(0.570412 0.214794 0.214794 0) 34 34 2
(0.349625 0.325188 0 0.325188) 10 10 1
(0.762425 0.118787 0.118787 0) 7 6 1
(0.387561 0.306219 0.306219 0) 13 12 1
(0.889328 0.055336 0.055336 0) 17 17 2
(0.370767 0.314617 0.314617 0) 11 11 2
(0.408122 0.295939 0 0.295939) 18 17 2
(0.316848 0.341576 0 0.341576) 29 29 1
(0.5558 0.2221 0 0.2221) 31 31 1
(0.963506 0.0182468 0.0182468 0) 28 27 1
(0.817503 0.0912484 0 0.0912484) 19 19 1
(0.958671 0.0206644 0.0206644 0) 20 19 1
(0.463633 0.268184 0.268184 0) 16 16 2
(0.0571059 0.471447 0 0.471447) 25 24 2
(0.885466 0.0572669 0 0.0572669) 30 29 2
(0.489511 0.255244 0 0.255244) 44 44 1
(0.377078 0.311461 0 0.311461) 16 15 2
(0.983845 0.00807771 0 0.00807771) 7 6 2
(0.791419 0.10429 0.10429 0) 27 26 1
(0.674971 0.162514 0.162514 0) 16 16 2
(0.220143 0.389929 0.389929 0) 8 8 2
(0.85894 0.0705302 0.0705302 0) 24 24 2
(0.0189988 0.490501 0.490501 0) 35 34 1
(0.377843 0.311079 0 0.311079) 28 27 2
(0.89541 0.052295 0.052295 0) 29 28 1
(0.127219 0.43639 0.43639 0) 20 19 1
(0.859497 0.0702516 0 0.0702516) 34 34 1
(0.375825 0.312088 0.312088 0) 28 28 2
(0.319836 0.340082 0 0.340082) 25 25 1
(0.126918 0.436541 0 0.436541) 19 18 2
(0.758908 0.120546 0 0.120546) 37 36 2
(0.106627 0.446686 0 0.446686) 21 20 2
(0.0929302 0.453535 0.453535 0) 23 23 2
(0.216101 0.391949 0.391949 0) 31 30 1
(0.754787 0.122606 0.122606 0) 19 19 2
(0.686402 0.156799 0 0.156799) 31 31 1
(0.416254 0.291873 0.291873 0) 35 35 2
(0.686339 0.156831 0.156831 0) 32 32 2
(0.28611 0.356945 0 0.356945) 44 43 2
(0.117069 0.441465 0.441465 0) 16 16 2
(0.928098 0.0359508 0.0359508 0) 6 6 2
(0.439597 0.280201 0 0.280201) 27 27 1
(0.555288 0.222356 0.222356 0) 24 23 1
(0.357796 0.321102 0 0.321102) 8 8 1
(0.390999 0.304501 0.304501 0) 26 25 1
(0.109222 0.445389 0.445389 0) 6 5 1
(0.027349 0.486326 0 0.486326) 9 9 1
(0.762814 0.118593 0.118593 0) 19 18 1
(0.53347 0.233265 0.233265 0) 25 25 2
(0.26039 0.369805 0 0.369805) 25 25 1
(0.995837 0.00208145 0 0.00208145) 41 40 2
(0.850178 0.0749108 0.0749108 0) 6 5 1
(0.940873 0.0295634 0.0295634 0) 27 27 2
(0.585344 0.207328 0.207328 0) 21 20 1
(0.539016 0.230492 0 0.230492) 12 12 1
(0.357951 0.321025 0 0.321025) 26 26 1
(0.428663 0.285668 0 0.285668) 18 17 2
(0.74745 0.126275 0.126275 0) 34 33 1
(0.767385 0.116308 0.116308 0) 32 31 1
(0.761567 0.119217 0 0.119217) 27 26 2
(0.761856 0.119072 0.119072 0) 8 8 2
(0.166883 0.416558 0.416558 0) 22 22 2
(0.809296 0.0953519 0.0953519 0) 8 8 2
(0.112705 0.443648 0 0.443648) 24 24 1
(0.395869 0.302066 0.302066 0) 15 15 2
(0.107561 0.44622 0 0.44622) 15 14 2
(0.816788 0.0916061 0.0916061 0) 38 37 1
(0.405339 0.29733 0 0.29733) 27 27 1
(0.308725 0.345637 0 0.345637) 29 28 2
(0.17718 0.41141 0.41141 0) 13 12 1
(0.823157 0.0884215 0.0884215 0) 12 11 1
(0.918321 0.0408393 0 0.0408393) 11 11 1
(0.298126 0.350937 0 0.350937) 27 27 1
(0.651573 0.174213 0 0.174213) 9 8 2
(0.5242 0.2379 0 0.2379) 25 24 2
(0.702956 0.148522 0 0.148522) 34 34 1
(0.604071 0.197964 0.197964 0) 34 33 1
(0.759638 0.120181 0.120181 0) 18 18 2
(0.109376 0.445312 0.445312 0) 31 31 2
(0.0419004 0.47905 0 0.47905) 24 23 2
(0.577905 0.211048 0.211048 0) 17 16 1
(0.907142 0.0464288 0 0.0464288) 29 28 2
(0.565495 0.217253 0.217253 0) 12 11 1
(0.708324 0.145838 0 0.145838) 26 26 1
(0.347579 0.326211 0 0.326211) 20 19 2
(0.0689007 0.46555 0.46555 0) 33 32 1
(0.999987 6.33655e-06 0 6.33655e-06) 14 13 2
(0.328389 0.335806 0 0.335806) 36 36 1
(0.641913 0.179043 0.179043 0) 27 26 1
(0.963696 0.0181521 0.0181521 0) 16 16 2
(0.185674 0.407163 0 0.407163) 23 23 1
(0.93231 0.0338449 0 0.0338449) 44 43 2
(0.629532 0.185234 0.185234 0) 32 31 1
(0.360566 0.319717 0.319717 0) 46 45 1
(0.969604 0.0151979 0.0151979 0) 26 25 1
(0.382661 0.30867 0 0.30867) 11 10 2
(0.879344 0.060328 0 0.060328) 36 35 2
(0.403944 0.298028 0 0.298028) 10 9 2
(0.635024 0.182488 0.182488 0) 35 34 1
(0.0281206 0.48594 0.48594 0) 23 23 2
(0.378932 0.310534 0 0.310534) 36 36 1
(0.412697 0.293651 0.293651 0) 14 13 1
(0.242966 0.378517 0 0.378517) 35 35 1
(0.654566 0.172717 0.172717 0) 33 32 1
(0.0749556 0.462522 0.462522 0) 23 23 2
(0.147172 0.426414 0 0.426414) 24 23 2
(0.319904 0.340048 0 0.340048) 35 34 2
(0.884375 0.0578124 0 0.0578124) 27 26 2
(0.962939 0.0185303 0.0185303 0) 41 41 2
(0.880627 0.0596865 0.0596865 0) 35 35 2
(0.84119 0.0794051 0 0.0794051) 18 17 2
(0.947081 0.0264595 0 0.0264595) 30 29 2
(0.194932 0.402534 0.402534 0) 35 34 1
(0.386569 0.306716 0.306716 0) 24 24 2
(0.342641 0.32868 0.32868 0) 17 17 2
(0.930299 0.0348504 0 0.0348504) 12 12 1
(0.223533 0.388234 0.388234 0) 29 28 1
(0.661659 0.169171 0.169171 0) 31 31 2
(0.682466 0.158767 0.158767 0) 24 24 2
(0.502054 0.248973 0 0.248973) 23 22 2
(0.46162 0.26919 0 0.26919) 18 17 2
(0.457294 0.271353 0 0.271353) 24 24 1
(0.166273 0.416864 0.416864 0) 36 35 1
(0.858025 0.0709877 0.0709877 0) 19 18 1
(0.0997846 0.450108 0 0.450108) 25 25 1
(0.942885 0.0285577 0.0285577 0) 27 26 1
(0.762247 0.118877 0.118877 0) 30 29 1
(0.645408 0.177296 0 0.177296) 21 21 1
(0.30578 0.34711 0 0.34711) 20 19 2
(0.398294 0.300853 0.300853 0) 18 18 2
(0.0922685 0.453866 0 0.453866) 38 38 1
(0.976908 0.0115462 0 0.0115462) 27 26 2
(0.986558 0.0067212 0.0067212 0) 24 23 1
(0.403114 0.298443 0 0.298443) 35 34 2
(0.905433 0.0472835 0 0.0472835) 35 34 2
(0.719677 0.140162 0.140162 0) 23 22 1
(0.494892 0.252554 0 0.252554) 24 24 1
(0.0747681 0.462616 0 0.462616) 32 32 1
(0.206503 0.396748 0 0.396748) 38 37 2
(0.961474 0.0192629 0 0.0192629) 33 33 1
(0.312667 0.343667 0 0.343667) 37 36 2
(0.38127 0.309365 0.309365 0) 36 36 2
(0.387678 0.306161 0 0.306161) 29 28 2
(0.864017 0.0679914 0.0679914 0) 27 26 1
(0.356481 0.32176 0.32176 0) 38 37 1
(0.78165 0.109175 0 0.109175) 28 27 2
(0.528032 0.235984 0.235984 0) 34 34 2
(0.18536 0.40732 0.40732 0) 24 23 1
(0.116135 0.441932 0 0.441932) 41 41 1
(0.893384 0.0533082 0.0533082 0) 14 13 1
(0.816952 0.0915242 0.0915242 0) 32 31 1
(0.164414 0.417793 0.417793 0) 48 48 2
(0.781437 0.109282 0.109282 0) 29 28 1
(0.974875 0.0125624 0 0.0125624) 28 28 1
(0.523728 0.238136 0.238136 0) 42 41 1
(0.729915 0.135043 0.135043 0) 32 32 2
(0.14206 0.42897 0.42897 0) 20 20 2
(0.604707 0.197647 0 0.197647) 29 28 2
(0.88035 0.0598248 0.0598248 0) 22 21 1
(0.80697 0.0965152 0.0965152 0) 25 25 2
(0.342273 0.328863 0.328863 0) 39 38 1
(0.202446 0.398777 0.398777 0) 30 29 1
(0.152544 0.423728 0 0.423728) 53 52 2
(0.548394 0.225803 0 0.225803) 35 34 2
(0.964979 0.0175104 0.0175104 0) 44 43 1
(0.890999 0.0545006 0 0.0545006) 34 34 1
(0.108902 0.445549 0 0.445549) 29 28 2
(0.836544 0.0817279 0 0.0817279) 24 24 1
(0.665052 0.167474 0.167474 0) 24 23 1
(0.326654 0.336673 0 0.336673) 24 23 2
(0.455766 0.272117 0 0.272117) 47 47 1
(0.0146044 0.492698 0 0.492698) 31 31 1
(0.855525 0.0722374 0.0722374 0) 37 37 2
(0.580873 0.209563 0.209563 0) 27 27 2
(0.138838 0.430581 0.430581 0) 33 32 1
(0.366993 0.316503 0 0.316503) 34 33 2
(0.143802 0.428099 0.428099 0) 41 40 1
(0.217035 0.391483 0.391483 0) 19 19 2
(0.20529 0.397355 0.397355 0) 23 22 1
(0.516761 0.241619 0 0.241619) 43 42 2
(0.304767 0.347616 0.347616 0) 36 36 2
(0.105874 0.447063 0 0.447063) 12 11 2
(0.724537 0.137731 0 0.137731) 23 22 2
(0.614983 0.192508 0.192508 0) 16 15 1
(0.51339 0.243305 0 0.243305) 23 23 1
(0.611866 0.194067 0 0.194067) 32 31 2
(0.707039 0.14648 0 0.14648) 37 37 1
(0.696336 0.151832 0.151832 0) 32 31 1
(0.298121 0.350939 0.350939 0) 40 40 2
(0.839636 0.0801818 0 0.0801818) 31 31 1
(0.0845474 0.457726 0.457726 0) 38 38 2
(0.0443873 0.477806 0.477806 0) 29 28 1
(0.665887 0.167056 0.167056 0) 35 35 2
(0.981989 0.00900552 0 0.00900552) 43 43 1
(0.375759 0.312121 0 0.312121) 40 39 2
(0.944702 0.0276491 0 0.0276491) 24 24 1
(0.462074 0.268963 0 0.268963) 31 31 1
(0.232639 0.38368 0 0.38368) 12 12 1
(0.761295 0.119353 0 0.119353) 32 31 2
(0.125215 0.437392 0.437392 0) 38 37 1
(0.877088 0.0614558 0.0614558 0) 30 29 1
(0.568756 0.215622 0 0.215622) 26 26 1
(0.796261 0.10187 0.10187 0) 42 41 1
(0.940537 0.0297315 0.0297315 0) 39 39 2
(0.484195 0.257902 0.257902 0) 35 34 1
(0.985273 0.00736337 0 0.00736337) 60 59 2
(0.11965 0.440175 0.440175 0) 22 22 2
(0.235513 0.382243 0.382243 0) 32 31 1
(0.242426 0.378787 0.378787 0) 53 53 2
(0.507647 0.246176 0 0.246176) 36 35 2
(0.995097 0.00245146 0.00245146 0) 37 37 2
(0.141473 0.429264 0.429264 0) 64 63 1
(0.355486 0.322257 0.322257 0) 32 32 2
(0.935465 0.0322674 0 0.0322674) 28 27 2
(0.0882895 0.455855 0.455855 0) 34 34 2
(0.837866 0.081067 0 0.081067) 32 31 2
(0.525395 0.237303 0.237303 0) 49 48 1
(0.283797 0.358101 0.358101 0) 29 28 1
(0.18561 0.407195 0.407195 0) 20 20 2
(0.487072 0.256464 0 0.256464) 24 24 1
(0.825255 0.0873723 0.0873723 0) 31 30 1
(0.321801 0.339099 0 0.339099) 43 42 2
(0.560283 0.219858 0 0.219858) 43 42 2
(0.402738 0.298631 0.298631 0) 44 44 2
(0.471879 0.26406 0 0.26406) 56 55 2
(0.0908249 0.454588 0 0.454588) 42 41 2
(0.99181 0.00409502 0.00409502 0) 18 18 2
(0.236037 0.381982 0 0.381982) 38 37 2
(0.721236 0.139382 0.139382 0) 19 19 2
(0.00900827 0.495496 0.495496 0) 29 29 2
(0.0640297 0.467985 0.467985 0) 30 30 2
(0.556357 0.221821 0 0.221821) 40 39 2
(0.717935 0.141032 0.141032 0) 27 26 1
(0.131113 0.434444 0.434444 0) 38 37 1
(0.744512 0.127744 0.127744 0) 35 34 1
(0.461272 0.269364 0 0.269364) 35 34 2
(0.763493 0.118254 0 0.118254) 51 50 2
(0.437651 0.281174 0.281174 0) 43 42 1
(0.464631 0.267684 0.267684 0) 29 28 1
(0.1209 0.43955 0 0.43955) 50 49 2
(0.761903 0.119048 0.119048 0) 60 59 1
(0.691475 0.154263 0 0.154263) 20 20 1
(0.119166 0.440417 0 0.440417) 44 43 2
(0.118481 0.440759 0 0.440759) 60 59 2
(0.387777 0.306112 0.306112 0) 44 44 2
(0.351185 0.324407 0.324407 0) 48 47 1
(0.924286 0.037857 0 0.037857) 42 42 1
(0.844068 0.0779662 0.0779662 0) 45 44 1
(0.855984 0.0720078 0.0720078 0) 41 40 1
(0.18963 0.405185 0.405185 0) 50 49 1
(0.858254 0.0708729 0.0708729 0) 24 24 2
(0.195579 0.40221 0.40221 0) 15 15 2
(0.732236 0.133882 0.133882 0) 44 44 2
(0.425974 0.287013 0 0.287013) 45 44 2
(0.12599 0.437005 0.437005 0) 41 41 2
(0.100317 0.449842 0.449842 0) 65 64 1
(0.0544299 0.472785 0.472785 0) 42 42 2
(0.101468 0.449266 0 0.449266) 34 33 2
(0.694224 0.152888 0.152888 0) 47 47 2
(0.292032 0.353984 0.353984 0) 46 45 1
(0.444758 0.277621 0.277621 0) 39 39 2
(0.380739 0.30963 0 0.30963) 45 45 1
(0.847796 0.076102 0 0.076102) 45 45 1
(0.568943 0.215529 0.215529 0) 52 52 2
(0.839788 0.0801061 0.0801061 0) 24 23 1
(0.763597 0.118201 0.118201 0) 51 50 1
(0.452801 0.273599 0.273599 0) 52 52 2
(0.104697 0.447651 0 0.447651) 26 25 2
(0.693421 0.153289 0.153289 0) 42 41 1
(0.112662 0.443669 0 0.443669) 48 47 2
(0.50242 0.24879 0.24879 0) 22 21 1
(0.472591 0.263704 0.263704 0) 21 20 1
(0.869825 0.0650873 0.0650873 0) 38 38 2
(0.372411 0.313794 0 0.313794) 34 33 2
(0.25059 0.374705 0.374705 0) 26 25 1
(0.780548 0.109726 0 0.109726) 49 48 2
(0.801057 0.0994714 0.0994714 0) 18 17 1
(0.650705 0.174647 0 0.174647) 43 43 1
(0.361088 0.319456 0.319456 0) 46 45 1
(0.296366 0.351817 0 0.351817) 58 57 2
(0.691926 0.154037 0 0.154037) 35 35 1
(0.846324 0.0768378 0 0.0768378) 44 44 1
(0.778532 0.110734 0 0.110734) 32 31 2
(0.124522 0.437739 0 0.437739) 24 24 1
(0.627865 0.186068 0 0.186068) 43 43 1
(0.0187473 0.490626 0.490626 0) 57 56 1
(0.45859 0.270705 0 0.270705) 37 37 1
(0.82093 0.0895351 0.0895351 0) 42 42 2
(0.582447 0.208777 0 0.208777) 26 25 2
(0.00348981 0.498255 0.498255 0) 44 43 1
(0.791938 0.104031 0.104031 0) 38 38 2
(0.0933324 0.453334 0 0.453334) 60 59 2
(0.37124 0.31438 0.31438 0) 32 32 2
(0.477265 0.261367 0 0.261367) 50 50 1
(0.845012 0.0774941 0.0774941 0) 34 33 1
(0.694438 0.152781 0 0.152781) 41 41 1
(0.669577 0.165211 0 0.165211) 45 45 1
(0.0143484 0.492826 0 0.492826) 57 56 2
(0.291565 0.354217 0.354217 0) 31 31 2
(0.478867 0.260567 0.260567 0) 30 30 2
(0.596896 0.201552 0 0.201552) 35 34 2
(0.506344 0.246828 0.246828 0) 37 36 1
(0.885934 0.0570332 0.0570332 0) 30 29 1
(0.493334 0.253333 0.253333 0) 55 54 1
(0.173589 0.413206 0 0.413206) 37 37 1
(0.495837 0.252082 0.252082 0) 27 27 2
(0.240981 0.37951 0 0.37951) 51 50 2
(0.339714 0.330143 0.330143 0) 28 28 2
(0.219585 0.390207 0 0.390207) 28 28 1
(0.213297 0.393351 0 0.393351) 53 53 1
(0.0503236 0.474838 0 0.474838) 49 48 2
(0.870326 0.0648368 0.0648368 0) 38 37 1
(0.0150034 0.492498 0.492498 0) 34 34 2
(0.851899 0.0740505 0.0740505 0) 67 67 2
(0.888765 0.0556176 0.0556176 0) 58 57 1
(0.714017 0.142991 0 0.142991) 26 26 1
(0.379104 0.310448 0.310448 0) 35 34 1
(0.47245 0.263775 0 0.263775) 39 39 1
(0.701047 0.149476 0.149476 0) 27 26 1
(0.0822778 0.458861 0.458861 0) 55 54 1
(0.941041 0.0294793 0 0.0294793) 50 50 1
(0.628044 0.185978 0 0.185978) 39 38 2
(0.0714832 0.464258 0 0.464258) 45 44 2
(0.764991 0.117504 0.117504 0) 39 38 1
(0.760575 0.119713 0.119713 0) 38 37 1
(0.452869 0.273565 0 0.273565) 37 36 2
(0.767412 0.116294 0.116294 0) 41 41 2
(0.376912 0.311544 0.311544 0) 45 45 2
(0.723706 0.138147 0.138147 0) 32 32 2
(0.93636 0.0318202 0 0.0318202) 36 35 2
(0.731063 0.134468 0 0.134468) 27 27 1
(0.876609 0.0616954 0 0.0616954) 59 58 2
(0.268155 0.365922 0.365922 0) 36 36 2
(0.380438 0.309781 0.309781 0) 32 32 2
(0.10408 0.44796 0.44796 0) 34 34 2
(0.487033 0.256484 0.256484 0) 43 43 2
(0.0179585 0.491021 0.491021 0) 45 44 1
(0.36723 0.316385 0.316385 0) 36 35 1
(0.0333269 0.483337 0 0.483337) 38 38 1
(0.766825 0.116587 0.116587 0) 33 32 1
(0.637002 0.181499 0 0.181499) 43 42 2
(0.925201 0.0373995 0.0373995 0) 32 31 1
(0.811022 0.0944891 0 0.0944891) 34 34 1
(0.089114 0.455443 0.455443 0) 48 48 2
(0.418948 0.290526 0 0.290526) 39 38 2
(0.563163 0.218419 0.218419 0) 40 39 1
(0.844982 0.0775091 0.0775091 0) 52 52 2
(0.0668241 0.466588 0.466588 0) 58 57 1
(0.60615 0.196925 0.196925 0) 39 39 2
(0.755977 0.122012 0 0.122012) 37 36 2
(0.18038 0.40981 0 0.40981) 54 54 1
(0.568226 0.215887 0 0.215887) 56 56 1
(0.0778731 0.461063 0.461063 0) 54 53 1
(0.88913 0.0554348 0.0554348 0) 43 42 1
(0.75592 0.12204 0.12204 0) 57 57 2
(0.119827 0.440086 0.440086 0) 52 51 1
(0.419957 0.290022 0 0.290022) 61 60 2
(0.613182 0.193409 0.193409 0) 33 33 2
(0.607184 0.196408 0 0.196408) 55 55 1
(0.252603 0.373698 0 0.373698) 31 30 2
(0.587894 0.206053 0 0.206053) 43 42 2
(0.450079 0.27496 0 0.27496) 60 60 1
(0.283545 0.358228 0 0.358228) 47 46 2
(0.97025 0.014875 0.014875 0) 43 42 1
(0.615554 0.192223 0.192223 0) 46 45 1
(0.646623 0.176689 0 0.176689) 32 31 2
(0.600231 0.199885 0.199885 0) 44 44 2
(0.162886 0.418557 0.418557 0) 54 54 2
(0.221943 0.389029 0 0.389029) 39 38 2
(0.684872 0.157564 0.157564 0) 42 41 1
(0.467745 0.266127 0 0.266127) 45 45 1
(0.605544 0.197228 0 0.197228) 33 32 2
(0.0862733 0.456863 0 0.456863) 36 35 2
(0.269075 0.365462 0 0.365462) 55 55 1
(0.481194 0.259403 0.259403 0) 46 45 1
(0.0383193 0.48084 0.48084 0) 42 42 2
(0.543422 0.228289 0 0.228289) 38 38 1
(0.204141 0.39793 0.39793 0) 51 51 2
(0.370076 0.314962 0 0.314962) 38 37 2
(0.398979 0.30051 0 0.30051) 40 39 2
(0.852169 0.0739153 0 0.0739153) 47 47 1