/*--------------------------------*- C++ -*----------------------------------*\
  =========                 |
  \\      /  F ield         | OpenFOAM: The Open Source CFD Toolbox
   \\    /   O peration     | Website:  https://openfoam.org
    \\  /    A nd           | Version:  7
     \\/     M anipulation  |
\*---------------------------------------------------------------------------*/
FoamFile
{
    version     2.0;
    format      ascii;
    class       vectorField;
    location    "0.004/lagrangian/dsmc";
    object      U;
}
// * * * * * * * * * * * * * * * * * * * * * * * * * * * * * * * * * * * * * //


10852
(
(-257.905 14.3764 -775.334)
(625.75 -273.337 63.2945)
(272.613 80.9508 -165.342)
(605.686 -614.311 -478.333)
(-98.7366 -501.343 92.5071)
(741.195 82.1168 369.21)
(179.415 -376.581 -78.2196)
(-47.7122 -487.5 360.613)
(-163.022 -422.215 -190.981)
(256.687 -104.265 -44.7136)
(273.677 -444.649 599.911)
(-118.515 343.967 -115.416)
(134.155 -213.399 73.9964)
(-67.8708 -296.066 -145.266)
(144.936 69.2391 87.4228)
(-571.78 251.172 545.299)
(-312.625 173.9 70.9814)
(-158.035 281.752 69.0213)
(136.07 -235.996 509.222)
(-382.775 230.628 -363.605)
(-416.318 53.5414 -48.351)
(92.4379 -151.768 405.112)
(142.354 -428.847 -291.254)
(-400.854 99.6268 629.731)
(-180.487 -181.261 156.128)
(-128.128 474.991 -313.785)
(-330.445 111.01 -98.3815)
(123.154 100.718 -269.343)
(65.5049 -74.34 -115.901)
(-153.341 382.294 28.924)
(270.651 348.1 239.89)
(-255.847 147.852 -88.1918)
(-366.926 233.281 -172.846)
(-283.486 17.3574 271.096)
(871.939 499.742 -632.641)
(-1.89536 -338.681 -550.95)
(-95.8598 -140.576 257.518)
(-60.5228 -290.073 -110.408)
(-353.224 -464.76 -39.4914)
(-207.161 249.485 499.39)
(-541.574 -25.1846 -272.674)
(-58.0874 633.201 557.254)
(233.338 136.25 725.862)
(355.141 -243.348 253.688)
(17.4374 72.4127 350.489)
(680.83 14.7646 -592.581)
(-51.9269 -229.34 388.125)
(144.319 -194.505 621.488)
(-965.138 163.199 447.722)
(-489.811 -245.475 166.027)
(76.7758 279.606 -115.176)
(199.049 -201.557 -302.591)
(317.093 -176.042 481.206)
(611.322 737.142 -474.143)
(119.072 -179.061 155.276)
(-119.018 -452.524 -394.711)
(-380.889 -590.956 447.802)
(-511.572 -517.574 -328.253)
(298.793 464.577 -129.899)
(-8.36068 751.174 187.211)
(-382.466 -353.369 -96.4237)
(-153.098 -383.631 -150.708)
(404.142 93.217 -668.193)
(106.028 -505.111 -475.681)
(-126.305 625.584 -295.509)
(-32.5426 121.487 244.181)
(760.959 78.7029 -236.395)
(-320.62 -505.423 -105.497)
(-828.654 -756.483 300.709)
(-438.928 30.5765 -184.765)
(614.462 26.3664 -52.0492)
(-51.1139 -201.542 81.2415)
(-482.008 192.83 200.314)
(-798.204 101.322 30.7153)
(220.765 -92.2249 481.872)
(-68.9367 275.887 -688.804)
(83.7914 282.247 83.5446)
(-510.836 -172.397 72.8397)
(-61.8709 919.453 -313.799)
(121.001 -114.085 419.327)
(-283.197 480.179 108.901)
(416.21 152.123 -482.297)
(335.243 -291.415 -259.233)
(-252.515 653.048 38.7712)
(556.841 709.254 -496.892)
(-815.598 -288.546 -758.778)
(167.521 251.105 -204.501)
(-165.755 219.788 134.148)
(-563.956 162.879 -16.1274)
(1.54186 32.5548 -27.7022)
(242.99 -327.815 -127.115)
(-227.382 -766.166 121.106)
(-168.72 -619.386 -222.392)
(-115.838 185.707 -106.923)
(251.169 293.571 -55.1501)
(-384.641 -543.977 -849.229)
(148.193 -53.2075 682.601)
(-593.996 -209.481 50.5154)
(-358.875 226.754 375.797)
(371.737 323.363 -588.078)
(60.6897 77.3788 200.387)
(397.511 269.624 455.961)
(381.939 -624.994 -46.752)
(-148.871 451.371 -532.791)
(-31.2866 444.465 261.521)
(-678.416 -202.915 31.8307)
(-266.152 140.372 201.673)
(-303.006 348.549 354.023)
(-253.152 728.292 -223.715)
(-170.748 -181.319 110.897)
(347.326 -47.4346 254.86)
(-777.402 218.633 87.6429)
(342.671 241.89 -74.5321)
(51.6669 377.121 -277.488)
(288.219 -214.281 39.4684)
(119.908 155.776 486.932)
(122.756 65.6704 128.924)
(355.407 468.446 -2.31167)
(314.753 615.653 -714.876)
(-59.2894 19.8754 202.063)
(-847.789 -341.341 -19.5605)
(-322.019 637.781 658.418)
(207.304 195.43 151.667)
(33.3314 783.913 -129.914)
(214.943 29.1043 -313.677)
(-79.0118 775.68 11.6338)
(81.5106 -248.075 656.235)
(-89.0518 229.111 529.894)
(-383.853 361.171 -830.892)
(-142.522 -107.097 80.46)
(65.3875 -423.451 320.7)
(-481.85 68.7598 225.971)
(281.781 -767.812 -528.262)
(449.779 -136.753 99.127)
(-169.641 169.935 -172.029)
(-95.5803 73.2333 -284.499)
(681.449 -133.935 227.575)
(-144.18 209.494 23.7239)
(479.212 178.124 -650.804)
(-74.5256 390.95 -314.739)
(167.262 -741.207 -195.253)
(-455.165 391.167 52.3353)
(632.533 20.6036 397.284)
(-0.517518 -204.577 186.685)
(10.5334 381.206 -427.986)
(-618.758 -505.591 -61.7124)
(132.304 -117.754 196.276)
(-200.92 -375.191 3.91939)
(-23.6445 291.148 121.665)
(174.481 -284.014 -73.2014)
(-718.526 144.34 -395.626)
(-12.7139 79.8553 -387.643)
(-104.21 -35.3895 -190.716)
(-326.471 -633.202 411.572)
(-226.779 580.719 580.603)
(252.493 -219.5 98.7399)
(238.089 219.374 -509.58)
(-57.6034 194.513 -125.227)
(-391.934 450.441 296.911)
(197.844 321.397 -843.476)
(298.446 120.721 -63.3119)
(98.877 52.6036 -403.658)
(-4.07364 289.019 -179.806)
(85.5661 -443.426 192.81)
(763.845 -307.129 -441.572)
(-102.82 -248.232 -170.566)
(119.831 -422.189 -394.928)
(28.7705 -304.869 565.184)
(-51.1238 368.296 196.532)
(-345.548 1.54572 224.362)
(-303.98 291.301 371)
(268.054 219.783 -565.92)
(107.091 -326.007 -97.669)
(49.5854 -764.209 -59.9838)
(-373.597 -0.74986 -181.524)
(266.003 238.183 -177.259)
(56.5843 426.773 194.211)
(515.156 180.461 -111.867)
(622.08 122.364 -7.81477)
(90.9107 -483.492 439.926)
(311.737 -368.34 14.8341)
(-539.449 -424.893 64.501)
(-245.215 327.221 438.853)
(240.419 620.562 -341.625)
(412.47 234.002 -448.572)
(-75.5845 229.916 -592.643)
(-392.599 -281.888 -223.575)
(-94.8222 307.184 -54.2916)
(126.745 4.78698 -252.459)
(-105.213 -189.306 -737.43)
(-120.684 229.538 -242.454)
(463.901 191.262 191.301)
(10.5662 -183.824 259.843)
(319.572 -686.315 30.4857)
(199.392 -752.615 -395.871)
(-381.908 303.832 17.8842)
(-196.662 -101.316 -64.3453)
(-216.603 -353.652 -28.1464)
(-651.224 -146.821 324.124)
(2.11297 -528.444 84.9577)
(352.89 694.92 405.512)
(354.84 86.5458 -12.0355)
(127.477 -15.5633 -217.632)
(253.543 132.723 51.9701)
(348.464 317.325 138.614)
(302.117 824.745 4.2563)
(180.316 143.678 -146.416)
(-268.366 -100.976 18.6637)
(235.858 544.33 -321.487)
(36.4453 -267.233 -42.3276)
(170.328 222.285 448.003)
(0.858446 -569.749 188.762)
(45.9007 64.9575 480.414)
(5.80498 611.011 -99.4296)
(190.861 581.373 559.813)
(357.006 621.831 23.2748)
(367.078 -418.316 331.331)
(-238.312 167.16 -624.692)
(342.924 64.1834 777.278)
(-16.119 -304.903 184.853)
(-902.51 -341.024 101.375)
(300.805 -132.166 -126.643)
(163.56 254.335 -257.218)
(47.9361 1084.03 8.07311)
(-617.033 578.88 303.071)
(6.66107 -43.3088 158.669)
(644.974 475.33 -115.258)
(82.0066 498.166 404.184)
(-55.3184 -322.288 -411.426)
(-185.842 270.109 266.418)
(108.561 -267.388 512.081)
(-525.67 393.649 139.947)
(-304.67 566.481 348.832)
(-158.81 46.3407 -520.44)
(-96.9406 -559.186 4.72746)
(-207.885 -151.266 -713.459)
(457.836 301.132 564.078)
(-27.3268 367.316 -159.974)
(-149.888 -158.069 375.098)
(-600.604 554.59 -61.4535)
(-256.13 80.7602 68.5249)
(63.744 -212.256 130.812)
(95.6823 -671.855 56.8532)
(-104.715 191.043 567.269)
(168.978 164.488 -577.236)
(-725.924 65.334 -146.101)
(243.82 -248.787 304.548)
(-121.935 419.125 130.362)
(-109.332 183.692 372.623)
(-8.92694 -181.161 371.775)
(-530.421 574.175 -88.6095)
(327.94 673.949 619.56)
(-10.6924 313.12 -230.21)
(293.138 72.4474 -27.4648)
(1037.37 -268.259 327.452)
(-211.759 430.036 582.413)
(278.57 -378.848 -386.317)
(-485.637 -77.1256 46.9514)
(87.8101 -120.882 191.465)
(556.958 -216.291 430.019)
(-404.272 -138.873 337.21)
(-67.0538 453.574 -53.5516)
(-262.61 -423.947 -453.739)
(-5.75819 -382.758 0.0721581)
(287.403 391.406 -683.599)
(220.744 261.069 -5.96607)
(617.269 -196.497 -49.2708)
(432.948 299.944 201.162)
(174.086 98.0918 145.748)
(277.98 105.389 -1034.34)
(391.566 186.872 364.979)
(-125.87 -120.354 -227.225)
(76.186 144.636 -63.5252)
(-1.47969 189.67 -232.467)
(145.331 -610.604 -597.73)
(-328.409 -216.613 -452.108)
(-177.774 35.173 -499.044)
(26.5584 -168.473 507.709)
(70.1222 -23.881 221.039)
(79.5979 -196.894 -588.688)
(-5.09163 214.875 -308.293)
(276.046 184.497 13.5288)
(-117.143 -91.3858 162.055)
(-409.49 -105.38 -599.272)
(-86.4699 -166.963 -88.027)
(-96.8134 -539.514 437.168)
(502.846 333.82 -591.018)
(-504.681 333.643 -26.531)
(-209.485 -31.3805 -88.7417)
(426.783 -382.699 -726.66)
(99.9125 -111.134 -148.913)
(199.222 249.361 -365.143)
(-58.7868 71.6059 731.668)
(22.9137 -741.941 -371.096)
(-56.1061 68.3459 131.468)
(-248.496 209.587 -15.3533)
(-0.27112 268.344 455.94)
(315.48 -128.226 -143.277)
(-364.455 381.239 -523.694)
(124.108 30.6974 284.351)
(183.49 42.307 375.005)
(-169.156 215.401 -29.0959)
(-290.741 166.639 -239.579)
(-103.792 324.349 462.228)
(115.309 639.739 -291.247)
(-200.656 353.527 -461.509)
(94.5151 -317.591 194.081)
(236.61 583.989 -16.1622)
(-372.786 -378.505 108.924)
(730.527 -46.496 75.157)
(22.8216 172.906 -116.443)
(16.4144 -741.524 235.331)
(258.831 -785.967 152.113)
(132.173 -358.749 -283.98)
(468.802 272.878 538.893)
(-555.148 696.308 388.862)
(-696.351 415.498 732.906)
(-107.409 -199.38 -600.574)
(314.507 -398.697 -30.8371)
(58.8975 -16.2536 352.604)
(25.48 104.066 -324.786)
(-92.1876 -154.91 69.662)
(-652.229 -244.397 153.493)
(-382.803 -480.71 387.465)
(412.466 48.6222 15.5085)
(40.934 -320.69 258.525)
(-200.92 -398.416 -620.676)
(-452.004 141.05 -42.6999)
(-786.54 -442.589 -154.731)
(181.818 -38.9261 17.3774)
(352.537 -194.73 317.686)
(-30.7243 -473.845 73.5449)
(79.0421 -150.279 -411.878)
(65.2896 -520.362 204.405)
(-17.7287 258.141 -151.721)
(-260.261 429.288 366.814)
(-497.675 -69.3822 -133.555)
(559.153 43.7632 -545.193)
(-273.815 15.5971 106.658)
(-315.201 169.764 63.2783)
(-381.013 -78.3411 -0.993888)
(-235.546 486.115 -290.099)
(96.3972 137.347 181.08)
(446.217 162.347 -131.888)
(-487.521 -112.477 -113.755)
(-424.081 374.051 100.298)
(281.057 428.559 -546.859)
(-207.019 -569.771 -53.173)
(128.379 -127.928 -313.454)
(-52.2123 -305.436 -176.427)
(-193.159 10.8544 -151.199)
(-113.687 -285.315 -182.424)
(-83.1256 43.2418 45.6794)
(-270.651 -113.772 -479.182)
(296.671 -936.59 228.033)
(-17.7838 61.5396 -9.88418)
(34.1771 31.9761 100.609)
(-29.3733 -80.3745 -550.884)
(-10.8638 302.063 -186.944)
(-126.434 42.216 -535.021)
(241.598 170.25 -296.018)
(283.113 -566.569 5.0521)
(247.061 164.602 -145.119)
(489.215 281.491 -570.235)
(48.2952 -165.979 442.182)
(-373.758 653.702 -489.066)
(-198.603 485.679 -218.798)
(23.7794 309.633 644.352)
(224.855 678.646 449.481)
(95.5552 -3.56799 5.49596)
(-153.69 -86.8294 65.0068)
(-189.609 138.784 -28.1047)
(431.634 -747.275 -92.0626)
(-131.543 -123.512 -276.278)
(231.337 -34.9257 48.6559)
(-320.201 545.639 130.905)
(-49.8979 -355.619 79.2576)
(284.963 -10.8158 -174.837)
(-318.219 129.494 -422.281)
(448.672 362.979 -347.435)
(-262.299 -169.374 506.65)
(430.235 -391.859 15.0201)
(-32.1739 -268.039 6.99808)
(416.122 -76.3453 449.214)
(-98.5419 -119.877 783.53)
(277.643 -36.9916 -178.712)
(120.323 574.933 241.411)
(-281.534 -530.652 -204.066)
(-446.348 164.262 -414.243)
(-242.246 254.35 -472.615)
(295.817 736.653 -215.519)
(109.498 179.351 389.677)
(-42.6262 -314.405 -20.5284)
(-264.566 642.018 287.011)
(-389.012 126.039 177.823)
(123.961 267.028 504.106)
(-59.7671 -197.985 23.8866)
(-127.699 -25.9706 132.45)
(-646.577 562.654 -311.866)
(-175.241 384.85 -69.8505)
(-43.385 153.694 112.946)
(-437.946 -607.975 503.38)
(-398.543 -224.494 -177.067)
(23.1608 -188.002 -811.28)
(-388.736 -5.39904 198.561)
(-21.5972 -184.904 -152.065)
(-310.095 105.309 214.139)
(-271.865 92.3516 -763.612)
(-124.645 263.837 359.627)
(-499.808 -413.861 -229.987)
(10.2604 -727.033 -271.701)
(307.078 -17.5688 -9.96138)
(93.1519 -313.772 348.112)
(-90.2397 461.339 325.139)
(219.369 94.9671 332.78)
(71.2267 -438.372 -314.349)
(-594.073 -96.795 209.58)
(509.35 29.2531 435.21)
(-13.7744 -293.472 33.724)
(-57.5569 -250.525 338.361)
(-293.85 159.335 -11.3227)
(-20.438 -4.65714 352.077)
(334.601 -199.637 -34.8889)
(-83.7018 36.9556 503.045)
(-131.876 502.543 485.984)
(272.393 -437.264 19.1951)
(-33.922 91.7353 -219.947)
(-13.0139 571.84 56.7883)
(459.681 382.128 12.1399)
(508.698 84.8764 -40.1508)
(828.434 518.867 8.7076)
(84.7095 67.6968 -243.45)
(281.335 -277.554 34.5717)
(-181.47 -198.479 100.02)
(38.728 210.41 -6.66314)
(358.698 -348.162 269.669)
(417.705 142.52 -189.887)
(-400.865 -293.89 492.098)
(-207.289 -166.911 109.975)
(-39.3193 165.879 24.0837)
(-22.9801 -574.908 44.8276)
(-136.81 40.8966 419.444)
(-270.546 -630.846 -122.5)
(-350.2 317.125 -90.2587)
(195.693 127.453 -459.828)
(-132.593 19.3024 96.3958)
(482.441 -326.962 -157.763)
(283.613 -161.917 -335.257)
(-285.073 -19.0899 444.829)
(382.822 322.436 -6.71681)
(-315.877 -430.078 -296.355)
(-633.78 597.924 507.291)
(174.679 -134.102 125.63)
(268.732 -60.756 -152.108)
(37.6385 -677.247 190.009)
(-27.4003 -117.527 -268.692)
(-360.881 -75.585 -469.581)
(180.457 22.8464 192.619)
(-495.674 -217.587 23.0088)
(-504.024 -324.923 -39.9486)
(300.508 210.252 434.027)
(-451.529 1030.77 -160.367)
(-186.583 -186.76 -436.704)
(338.69 523.661 -99.798)
(-595.412 148.353 -90.1598)
(-415.394 633.101 180.435)
(201.323 -49.4566 101.453)
(-409.32 -383.475 465.033)
(352.453 465.482 160.501)
(314.992 444.328 -406.284)
(-393.474 -443.989 566.219)
(414.526 68.3698 104.192)
(348.115 -174.443 -69.0831)
(95.2019 3.31359 173.785)
(-108.921 -14.3904 371.419)
(228.296 -351.742 128.213)
(330.806 10.9767 61.3896)
(52.2075 -161.231 388.173)
(-72.6513 -134.011 356.989)
(663.943 -613.628 253.688)
(362.496 -102.236 -185.122)
(242.469 360.556 42.2242)
(-21.3956 501.631 382.169)
(181.954 -381.492 206.744)
(-136.762 420.045 253.596)
(551.753 434.807 381.326)
(-330.911 -298.199 11.3035)
(16.9239 48.575 -385.921)
(-363.197 -539.766 131.731)
(-257.148 -32.3435 123.837)
(-244.97 -0.622373 -177.903)
(-29.797 -139.798 -404.779)
(-231.113 525.243 -266.088)
(250.808 -100.595 691.703)
(-246.202 271.962 -6.78612)
(386.961 366.557 -402.593)
(-165.732 -4.28486 476.385)
(-182.389 -119.666 -622.21)
(-180.788 -306.856 -477.368)
(35.4447 123.376 258.247)
(304.074 -65.6355 169.202)
(-44.3987 170.25 -530.798)
(-83.3793 -328.944 -268.209)
(-145.728 -28.4706 35.9877)
(571.742 167.099 -199.069)
(-201.678 -169.07 -575)
(344.409 -346.667 263.646)
(-180.806 -455.456 425.364)
(190.537 286.006 -127.98)
(494.677 -320.374 -224.441)
(111.127 -145.918 51.2746)
(312.947 -422.256 -422.891)
(370.423 136.671 138.947)
(386.353 345.31 -798.709)
(-164.07 -118.057 -388.316)
(-65.4239 21.0515 145.334)
(422.016 -38.1714 470.232)
(-17.4607 -270.291 -57.1444)
(242.776 -168.864 -163.649)
(-9.94748 -284.044 6.57142)
(81.3152 197.975 348.954)
(-132.247 -129.18 209.358)
(-265.615 -182.201 -42.4196)
(-320.443 -50.6682 210.647)
(2.87885 -622.645 328.116)
(-461.405 84.3269 -242.652)
(9.41186 -190.263 -388.077)
(334.702 165.475 -58.5912)
(-190.436 -242.026 -141.919)
(-473.808 -573.699 -209.495)
(221.217 -186.335 536.85)
(492.451 -227.196 658.503)
(-94.0023 397.488 335.767)
(566.752 -0.810104 208.066)
(-343.09 -138.204 -247.012)
(-86.9353 -30.3445 36.8423)
(231.024 53.6968 -197.906)
(38.0228 -202.766 170.005)
(451.199 331.455 -357.495)
(-30.3708 438.843 -129.42)
(-145.069 554.829 89.1943)
(645.248 -0.117402 167.634)
(-30.6744 -98.7675 527.299)
(-473.67 226.897 361.366)
(21.5916 148.506 -292.378)
(-332.407 316.919 -215.025)
(801.631 -139.038 380.29)
(-258.367 994.05 119.628)
(-111.577 -426.249 -454.64)
(-54.4974 288.22 349.374)
(69.0667 -721.798 46.9153)
(-291.05 2.79453 164.352)
(-534.23 -353.626 -462.327)
(234.484 -581.224 124.492)
(-615.366 441.835 237.359)
(-233.035 -377.912 -73.0767)
(81.5991 51.2927 577.264)
(-130.5 142.854 -550.943)
(304.497 463.208 349.564)
(-521.459 -287.578 230.468)
(541.056 -552.752 -612.951)
(-138.669 163.197 -196.283)
(128.069 -311.671 692.759)
(172.042 468.16 460.452)
(-300.337 101.996 741.749)
(279.462 -509.849 -239.075)
(-66.0174 366.904 -182.727)
(420.262 146.56 -199.894)
(-537.817 -7.1676 -490.046)
(50.1436 266.181 235.637)
(142.374 99.7657 -3.2789)
(800.178 -638.927 -63.0001)
(0.708092 -48.9177 -352.691)
(197.388 420.085 74.934)
(-659.182 -182.556 -242.875)
(-106.911 -245.638 -174.486)
(-660.371 135.24 238.076)
(-126.109 -442.318 18.1564)
(115.799 -305.329 134.413)
(-708.141 490.374 157.316)
(191.689 190.848 -560.207)
(194.778 -166.175 167.327)
(652.699 226.024 -174.872)
(-97.2264 469.234 429.724)
(-268.853 596.789 883.866)
(147.909 -86.1253 -350.441)
(206.023 -674.707 -107.76)
(-627.993 9.34486 179.916)
(224.881 505.81 151.828)
(-300.877 249.618 305.291)
(107.248 88.8214 639.585)
(-595.633 185.043 -134.364)
(53.4608 -117.914 382.734)
(-67.5862 -32.9759 220.648)
(-29.3831 -0.552745 511.707)
(-61.2225 -49.2482 -100.225)
(216.544 -260.631 -96.625)
(-252.696 -65.3832 310.398)
(88.136 345.116 11.4282)
(252.134 458.804 293.647)
(246.461 -186.11 -9.1143)
(-346.653 231.695 -209.001)
(932.362 586.926 -424.854)
(-188.132 78.1902 213.514)
(-82.0277 582.634 39.9785)
(40.7651 177.605 897.493)
(234.104 -38.4058 341.761)
(470.552 150.84 -98.8522)
(336.122 1119.82 -244.163)
(127.636 -494.967 -235.706)
(-52.7703 -250.085 -29.5903)
(358.647 34.8376 94.6936)
(346.495 -172.596 309.08)
(175.046 43.7038 -445.071)
(55.3433 189.699 -135.005)
(93.3891 -443.475 550.714)
(-338.355 -123.995 -93.6157)
(-282.409 308.865 -218.08)
(84.9932 378.493 -548.656)
(-113.38 -624.169 -120.62)
(-483.297 -176.901 389.408)
(-396.108 708.512 -476.507)
(464.418 100.39 -261.187)
(423.435 260.633 315.063)
(322.11 -414.839 -59.4482)
(-244.215 571.147 -131.832)
(312.022 59.8017 387.435)
(141.427 225.8 -299.828)
(124.129 -54.5197 321.575)
(735.533 400.734 363.063)
(255.783 -345.193 157.397)
(85.8446 994.925 -78.3053)
(188.797 -597.07 -518.14)
(-31.0999 35.2705 -18.0161)
(-32.0095 -298.834 -279.351)
(187.884 -619.797 -365.284)
(-113.625 595.738 -383.066)
(154.317 205.616 -174.935)
(7.04042 368.819 22.8737)
(-229.603 533.625 142.826)
(-587.806 -132.98 465.972)
(62.3855 -343.171 169.694)
(-530.777 571.126 246.959)
(-351.788 -257.359 167.443)
(735.161 40.6409 -54.3502)
(2.8818 155.044 497.676)
(-4.53665 232.81 154.164)
(-548.762 -925.551 471.939)
(-186.145 270.593 171.956)
(140.191 286.964 237.347)
(-47.083 497.212 -243.933)
(-492.214 -338.825 638.248)
(97.4959 362.173 -316.942)
(215.211 419.116 159.249)
(604.198 363.455 6.07682)
(-130.882 -102.909 369.33)
(-420.768 52.5127 -405.482)
(-543.409 -338.425 -269.172)
(-111.431 -231.966 378.12)
(215.256 -467.225 682.359)
(205.926 13.8962 391.735)
(374.417 -16.2044 -328.263)
(-661.232 -95.8963 75.9524)
(498.701 84.3644 443.124)
(351.681 -145.298 -233.722)
(-58.501 -325.541 248.44)
(-170.825 -13.9913 -222.333)
(-88.5616 -64.0522 -179.422)
(-202.031 147.799 -41.8776)
(362.363 -15.1218 472.666)
(154.128 -25.8395 -448.943)
(139.828 302.626 397.754)
(185.914 205.977 -73.7165)
(-73.7867 -21.637 452.195)
(511.011 -605.876 124.554)
(-456.57 -241.435 -190.973)
(223.195 -195.554 49.2799)
(311.274 -164.477 -289.253)
(8.87651 -94.046 509.844)
(-19.0143 -179.15 482.142)
(-197.623 -320.854 594.791)
(46.66 -701.035 -136.318)
(10.3244 252.648 -956.496)
(-91.8145 -202.389 -286.91)
(139.275 623.624 29.8807)
(-436.411 -121.249 237.088)
(-143.021 -491.327 -513.485)
(-153.474 646.101 44.2208)
(-247.788 565.666 36.3381)
(132.652 -96.3047 453.132)
(-119.47 -11.5167 -95.9345)
(55.1133 283.521 65.0858)
(-48.2961 245.337 180.803)
(-19.1123 -382.961 33.471)
(-448.982 159.885 37.3322)
(-238.625 -49.0655 -185.273)
(-124.697 -119.324 55.2503)
(-453.123 -468.972 261.158)
(-179.271 -358.837 -47.9756)
(-153.581 337.539 -504.279)
(-309.715 379.11 47.1247)
(140.306 -28.6012 208.153)
(153.036 -280.325 333.46)
(98.0657 -304.437 0.37631)
(406.012 515.43 -2.99268)
(424.639 -326.098 -399.822)
(294.066 436.878 -413.827)
(-594.694 -253.85 -45.2193)
(84.7745 1006.88 111.717)
(-197.532 277.605 -655.081)
(257.64 54.6476 -112.465)
(-382.299 245.509 -338.452)
(-58.0865 -339.158 -604.682)
(7.48845 -0.100809 44.9381)
(-170.85 470.21 -578.034)
(-198.817 -131.412 -174.289)
(-92.2768 29.0538 -143.234)
(-639.948 -116.271 760.17)
(-235.825 -608.075 -117.777)
(-41.2204 -87.5969 -341.427)
(-44.7846 -88.2675 -123.671)
(-86.0943 -244.593 -463.76)
(-419.989 475.965 112.665)
(746.162 -100.134 275.419)
(150.914 -479.267 191.982)
(-2.3942 284.012 -82.9141)
(-40.3469 742.351 195.95)
(280.488 -109.409 107.311)
(-489.539 198.484 123.197)
(-110.348 -157.321 -905.745)
(-116.945 -22.4814 19.7465)
(108.664 107.969 263.72)
(-747.434 71.4572 -245.097)
(-322.691 221.805 238.936)
(131.552 286.889 85.1455)
(228.671 857.749 265.237)
(174.934 -398.551 -335.079)
(-662.315 189.291 143.851)
(609.548 92.1874 -580.264)
(61.7574 102.309 482.629)
(292.723 315.759 -276.309)
(832.668 550.262 62.2067)
(696.623 -524.753 361.212)
(74.287 -419.749 516.67)
(-363.984 293.209 281.839)
(54.1369 -162.693 86.6545)
(-342.136 -280.688 -198.87)
(-400.044 -581.725 650.539)
(-280.84 -170.279 163.837)
(241.569 163.508 91.9179)
(170.869 -756.256 5.39509)
(107.756 413.38 593.8)
(214.22 75.1479 -329.964)
(-17.9511 -7.88358 -109.988)
(-407.192 321.502 -985.563)
(458.117 -265.577 410.142)
(104.155 331.039 -223.915)
(-343.495 577.393 509.32)
(183.181 127.634 251.635)
(27.6217 -412.004 -393.436)
(36.1411 626.47 220.843)
(601.103 -172.596 -520.736)
(31.3917 510.87 -312.849)
(-134.611 -723.931 -175.198)
(-78.9537 207.924 557.703)
(-6.63239 193.342 -172.25)
(379.596 -247.261 91.627)
(-17.1656 29.2447 -368.576)
(-107.857 690.598 86.4479)
(-41.1401 95.664 -313.296)
(5.82649 -490.157 -278.816)
(48.7358 -225.269 -531.072)
(257.851 -707.424 -66.8456)
(-236.228 242.284 -220.436)
(182.987 615.526 217.764)
(224.748 0.514233 96.6763)
(-320.942 432.978 -11.1033)
(-135.481 -59.8372 -419.946)
(-351.824 -69.9306 332.517)
(-11.4165 114.488 -189.422)
(280.917 -375.278 -241.328)
(-514.089 344.553 -190.617)
(398.245 -19.3937 552.512)
(-287.778 224.714 -109.065)
(-226.581 260.853 349.171)
(471.64 -677.114 390.986)
(-309.605 -262.606 478.221)
(-596.205 214.55 -3.45508)
(15.3386 -832.846 -423.348)
(167.348 -525.419 110.424)
(-109.934 -1180.29 -836.786)
(-181.24 694.75 -411.122)
(-566.281 -338.002 120.076)
(283.394 -326.046 163.147)
(115.782 87.0612 -430.649)
(369.03 413.13 484.726)
(9.8948 -656.453 183.723)
(-586.47 259.592 689.782)
(65.5182 832.567 95.8742)
(426.283 -122.938 -219.059)
(303.233 97.1834 -19.7276)
(-520.46 175.76 -150.438)
(-167.552 303.666 0.49451)
(60.9956 -31.1757 -698.505)
(284.239 -412.951 -25.6181)
(420.654 -138.342 394.293)
(852.242 -29.916 -282.107)
(-576.154 -187.231 306.569)
(442.819 -340.273 547.712)
(-504.649 155.118 -156.559)
(-99.8308 -228.513 -70.3503)
(-954.188 -142.162 240.892)
(142.617 790.42 -98.802)
(37.6382 758.663 141.905)
(-572.45 -332.628 542.525)
(274.113 -32.3868 -211.935)
(-503.627 -368.676 244.156)
(91.0232 -58.2509 -210.219)
(-273.288 348.626 -122.908)
(107.737 340.743 170.234)
(221.911 362.146 -421.488)
(-304.053 -286.307 -173.986)
(-332.092 15.1867 -200.257)
(240.758 -58.9145 133.093)
(-352.459 313.143 -514.97)
(333.834 -194.386 -196.866)
(306.136 -128.387 -290.772)
(34.7411 -468.084 -191.806)
(69.2364 -91.5383 -64.882)
(15.897 -380.96 203.339)
(-1131.06 -330.618 -504.977)
(187.962 -189.088 -133.645)
(-253.962 -133.476 -36.1793)
(-375.943 17.7879 479.199)
(-293.442 125.56 102.881)
(4.40275 43.5625 854.118)
(-552.667 361.106 320.208)
(-118.789 -22.431 392.605)
(152.676 103.5 418.822)
(-443.482 -165.489 -600.922)
(-394.914 -113.352 449.1)
(-612.87 -102.256 -145.488)
(262.023 -501.442 -3.84674)
(-76.3327 -143.496 -183.094)
(-7.71593 -181.542 60.7459)
(102.63 -288.347 -23.7795)
(-54.8028 -559.682 -51.5783)
(-133.832 369.353 14.8919)
(-156.391 446.689 306.175)
(211.147 165.595 86.4182)
(290.214 234.133 467.55)
(190.88 245.515 442.849)
(25.7278 -101.676 -454.362)
(-137.673 -348.329 -156.386)
(-66.7077 -530.339 562.179)
(-624.701 647.628 -33.3342)
(-456.164 4.09491 -225.777)
(36.5848 -90.6942 -383.715)
(-51.1052 -238.924 10.3116)
(412.638 549.413 -146.883)
(-378.957 -552.722 -103.632)
(224.462 549.196 618.514)
(-47.9069 -544.05 -367.446)
(282.122 87.8899 -350.768)
(-364.984 121.159 597.907)
(-726.111 189.597 -120.783)
(-138.163 -412.74 -75.4169)
(-232.68 -443.363 65.9297)
(-559.251 -616.679 -377.258)
(-233.798 -389.526 -185.535)
(115.946 -193.904 -368.741)
(86.8176 1.11442 -175.141)
(8.59396 -208.257 456.9)
(394.564 -82.0719 230.52)
(225.83 295.697 210.686)
(294.809 -607.492 -240.231)
(-257.221 327.293 -144.683)
(-170.56 135.517 -230.689)
(-472.462 -175.19 420.952)
(121.201 -155.897 -407.997)
(-357.311 -228.41 -315.149)
(80.6716 308.593 415.07)
(374.591 -13.4829 -370.896)
(-395.542 -513.834 304.86)
(-82.5617 -87.7664 -5.76537)
(247.509 -218.756 -450.939)
(-12.9522 -73.9489 -275.853)
(-456.391 400.348 -124.286)
(114.442 312.619 -190.576)
(-252.465 377.829 373.032)
(-388.488 -196.015 -317.324)
(-430.815 329.596 -93.7204)
(359.251 844.385 -995.692)
(-236.309 -2.2762 78.6703)
(-782.089 -482.61 251.456)
(213.768 191.923 176.2)
(40.2843 34.6224 114.485)
(-332.079 -212.406 -339.691)
(266.723 55.1839 424.878)
(574.937 146.329 -888.473)
(-198.713 -54.1825 -274.167)
(-133.562 -137.453 516.295)
(72.7189 -133.415 -92.0269)
(12.4098 193.63 828.35)
(161.522 -435.229 -626.426)
(-420.158 -453.359 -265.359)
(131.145 -637.527 288.991)
(-321.303 -184.139 150.289)
(-286.253 322.977 131.632)
(-450.213 278.147 3.95438)
(176.333 -183.644 -169.085)
(-251.088 -47.0306 195.65)
(251.634 -683.449 389.633)
(31.219 -268.965 -229.992)
(-86.6691 30.8275 81.0503)
(199.273 370.068 -12.6686)
(-114.751 499.521 255.831)
(296.338 -175.188 263.283)
(-355.789 48.0399 -392.598)
(177.733 253.877 788.332)
(107.396 575.819 266.435)
(391.183 683.355 397.543)
(-606.559 276.274 37.7648)
(421.119 207.727 -292.786)
(-403.652 93.9545 309.293)
(582.517 719.893 -239.32)
(224.874 -538.666 -1075.87)
(8.15099 230.181 22.0666)
(218.604 501.321 -308.975)
(-398.962 338.427 -97.4622)
(-258.266 8.80162 -51.215)
(117.376 -57.2248 -141.312)
(-288.247 216.086 19.4829)
(-281.482 -372.013 -218.91)
(11.9761 220.341 418.409)
(278.192 -25.4893 185.053)
(515.785 -372.38 166.889)
(-167.132 -503.547 -772.607)
(121.586 934.996 -274.562)
(-124.279 634.831 81.5818)
(245.601 -201.988 -124.245)
(135.252 -121.193 -405.848)
(76.7207 -62.4266 -173.143)
(10.3479 765.115 -85.0979)
(-519.501 255.337 -577.122)
(-509.604 424.747 -208.311)
(-16.4181 201.303 -327.223)
(94.995 327.606 41.9243)
(348.37 -401.559 -208.21)
(499.266 -101.786 259.372)
(82.0203 174.008 475.111)
(-7.7586 301.56 -174.201)
(164.42 -200.617 6.88414)
(207.323 -382.294 153.637)
(276.647 -21.1611 -73.3265)
(-525.222 82.9301 -102.971)
(25.5562 163.872 -79.7823)
(396.704 -480.225 -335.046)
(-869.726 -64.7143 113.345)
(365.404 760.787 -157.839)
(18.5012 -267.074 -66.5096)
(271.67 253.327 -217.496)
(-214.496 -129.321 -156.908)
(-70.5838 271.772 87.6318)
(-182.241 97.8146 -166.704)
(-448.375 532.197 -190.668)
(273.285 617.446 77.8511)
(389.361 905.749 -183.191)
(-476.835 -347.037 93.6026)
(156.678 -39.1796 87.4974)
(-350.567 724.283 326.746)
(-320.998 -725.272 38.1172)
(305.001 187.468 -194.379)
(-194.609 -104.928 -327.791)
(56.3074 272.485 -418.327)
(262.204 -204.053 337.821)
(170.579 -231.597 132.161)
(214.329 -4.23737 -462.48)
(-602.379 -229.954 -257.992)
(134.11 378.96 -104.846)
(-247.242 -456.617 214.963)
(367.706 -201.584 -772.892)
(228.626 34.3005 -547.903)
(583.352 69.4845 144.876)
(-19.868 525.964 347.256)
(-130.637 307.853 160.941)
(169.126 -262.48 127.629)
(-96.1495 431.294 -388.254)
(8.92269 -51.7212 -284.542)
(295.204 163.082 -273.989)
(-44.6962 1100.88 -78.8337)
(-728.842 335.768 241.071)
(135.133 -84.3123 232.86)
(445.655 -66.0298 -227.848)
(-231.007 600.684 -543.763)
(-80.3742 408.98 -119.738)
(-142.927 -493.115 114.589)
(534.308 285.371 178.93)
(-210.533 102.331 391.944)
(21.0351 -227.215 80.0548)
(-13.439 506.61 -51.0033)
(-357.799 111.999 -1060.8)
(-421.741 -961.805 6.23864)
(121.79 54.4705 -728.122)
(-432.733 325.777 570.861)
(-33.3965 -73.6304 -115.701)
(-185.42 15.9771 311.688)
(214.517 618.468 184.252)
(176.696 273.67 209.479)
(328.163 -629.927 -146.571)
(-518.554 383.133 -876.9)
(-25 6.91694 -795.352)
(93.787 -69.2386 113.866)
(-278.627 -566.093 55.5052)
(26.3577 -483.971 101.111)
(43.4015 -5.89772 366.615)
(265.351 336.028 320.897)
(593.867 -284.924 -194.322)
(-261.497 -536.418 390.852)
(211.356 15.2988 848.002)
(-273.505 235.393 -366.501)
(595.526 -374.119 -626.622)
(-366.419 -710.111 238.676)
(614.144 -373.116 86.3132)
(630.49 117.016 227.47)
(-477.484 -354.223 426.099)
(-153.075 662.789 146.145)
(141.409 31.9632 159.25)
(52.4032 -197.143 -381.5)
(-548.597 205.327 -521.324)
(-107.244 -494.723 -277.401)
(-282.183 -108.681 -56.8979)
(-145.626 -108.534 114.251)
(-98.8123 -99.8454 127.086)
(1.28538 110.608 -487.937)
(-268.588 129.917 -533.079)
(42.0875 -121.706 -27.0079)
(61.4091 17.655 -144.756)
(481.573 758.767 -171.523)
(-474.95 -127.355 508.601)
(742.252 -408.623 28.209)
(614.971 -99.8122 -614.472)
(-613.465 180.886 -20.3626)
(578.527 -181.608 170.755)
(-207.722 356.612 553.567)
(0.441825 -223.193 -142.816)
(582.553 343.944 -249.588)
(393.02 -52.7684 -68.5567)
(120.678 15.221 479.668)
(-25.7234 67.4455 72.6012)
(-84.1736 -392.452 11.5664)
(105.602 -202.337 -931.852)
(-365.985 39.3829 -251.924)
(820.677 -292.981 9.62519)
(129.313 -249.921 233.681)
(-153.585 136.34 179.818)
(566.487 112.452 105.245)
(-286.791 -253.722 191.302)
(-328.165 244.632 -116.026)
(21.5957 -110.846 -719.657)
(-530.885 -622.378 -452.362)
(21.913 -171.906 313.432)
(334.256 170.309 -142.463)
(441.459 225.396 -112.846)
(-66.2293 -613.022 -91.8709)
(-9.61054 7.40357 256.257)
(491.765 353.56 -91.0915)
(-170.908 35.8445 -173.213)
(-73.9067 -343.819 -64.5879)
(-484.884 -716.254 248.82)
(270.075 57.9075 -279.342)
(-99.0005 -262.309 -70.9047)
(327.412 4.19174 63.9023)
(-302.908 446.615 -140.749)
(-408.347 252.942 119.411)
(-211.844 244.102 -321.091)
(53.1553 205.66 -260.441)
(-224.594 -130.699 139.261)
(-376.942 -81.3679 -713.275)
(-550.74 -648.599 81.6784)