/*--------------------------------*- C++ -*----------------------------------*\
  =========                 |
  \\      /  F ield         | OpenFOAM: The Open Source CFD Toolbox
   \\    /   O peration     | Website:  https://openfoam.org
    \\  /    A nd           | Version:  7
     \\/     M anipulation  |
\*---------------------------------------------------------------------------*/
FoamFile
{
    version     2.0;
    format      ascii;
    class       volScalarField;
    location    "0.005";
    object      internalT;
}
// * * * * * * * * * * * * * * * * * * * * * * * * * * * * * * * * * * * * * //

dimensions      [1 2 -2 0 0 0 0];

internalField   nonuniform List<scalar> 
1000
(
218.077
220.769
220.907
226.864
230.236
231.294
235.725
234.338
231.84
234.909
229.274
232.411
234.524
237.167
241.194
242.313
247.573
247.845
250.867
256.089
251.322
255.826
259.915
261.887
263.654
258.995
249.235
249.887
259.097
258.383
259.385
268.146
267.519
265.532
263.397
264.992
261.475
265.918
274.446
271.761
270.045
262.127
266.169
263.615
265.744
273.61
270.632
277.181
279.027
277.937
279.099
285.332
277.388
279.833
277.452
269.071
272.786
278.394
279.514
277.402
280.337
282.756
286.149
282.379
282.166
280.01
283.404
280.397
285.092
280.008
284.381
281.515
283.715
290.133
282.103
281.819
282.02
282.972
282.281
283.487
284.939
284.417
288.976
294.224
289.836
288.646
287.049
290.072
286.954
286.765
289.159
292.318
293.589
294.285
290.149
291.454
286.322
281.295
278.111
290.643
293.83
290.983
294.122
294.053
294.427
296.241
293.447
290.97
291.267
300.085
295.751
296.537
292.348
290.738
285.583
288.323
287.803
290.377
292.633
296.957
298.44
294.96
294.25
297.541
298.77
297.186
302.436
309.118
309.031
297.46
295.527
296.236
297.083
301.321
303.23
300.769
298.875
302.159
297.824
297.058
304.756
303.863
305.133
302.761
302.563
303.157
303.377
295.136
300.115
301.997
298.904
303.624
298.475
296.695
292.179
295.537
296.462
297.547
293.778
299.68
305.812
302.212
298.121
300.742
295.479
298.816
300.819
297.771
303.118
307.432
300.502
299.11
300.624
296.103
298.229
303.355
303.039
307.753
303.381
307.422
310.651
308.188
304.341
306.763
308.185
308.872
312.352
304.712
303.249
305.836
301.173
300.486
296.061
294.662
302.702
301.317
295.426
297.167
301.851
300.271
304.777
302.584
301.582
298.952
297.477
302.821
296.497
297.937
295.471
294.509
293.163
299.047
294.066
295.401
297.709
297.407
307.54
300.092
295.17
296.039
298.717
298.998
296.633
291.625
295.94
299.046
304.696
307.083
304.377
304.491
302.692
296.824
292.732
295.58
296.256
297.736
296.012
298.523
297.891
303.246
295.455
291.277
290.108
301.231
297.598
301.561
302.508
300.06
300.745
301.964
303.567
308.999
301.548
300.142
302.967
305.5
304.437
304.472
295.765
301.149
304.53
303.149
305.586
300.585
297.493
301.74
306.319
312.281
310.267
307.416
297.472
301.39
299.642
299.403
305.756
306.484
305.24
305.026
301.706
300.988
294.274
296.667
303.591
295.732
296.749
296.173
292.887
295.999
296.52
295.064
290.484
295.55
298.446
300.516
296.978
291.858
295.191
301.998
297.866
301.717
302.952
303.4
301.942
294.034
289.252
291.044
290.068
288.646
291.615
296.638
299.798
300.855
301.345
297.976
298.426
301.482
300.828
298.926
294.892
298.659
301.165
300.891
295.184
294.717
290.324
291.387
289.438
292.512
292.513
296.333
292.773
295.397
301.362
305.452
302.564
301.774
302.305
307.501
300.184
299.59
302.868
302.578
301.27
298.751
300.124
298.018
297.641
298.428
301.044
298.099
298.581
295.869
302.407
300.066
299.855
297.607
305.675
302.214
300.301
296.039
296.432
296.633
301.192
297.698
295.514
291.699
299.114
301.909
300.781
295.91
294.131
300.792
304.779
302.211
298.037
299.678
297.602
299.684
295.106
297.081
301.854
304.916
300.79
306.885
308.33
306.998
300.469
302.743
301.72
298.407
298.952
296.447
296.107
298.303
301.492
301.463
303.55
305.081
300.917
299.735
293.808
292.728
297.123
289.359
295.043
290.737
293.651
297.2
298.348
304.987
302.144
293.224
294.5
293.535
294.629
288.152
288.749
292.624
288.869
289.232
290.489
287.97
288.844
292.461
302.81
306.891
301.822
305.891
309.529
308.62
304.433
300.342
293.535
291.321
294.042
300
303.967
296.758
293.955
295.532
290.318
288.918
293.718
296.026
296.315
292.702
295.702
295.432
299.16
293.129
289.441
290.63
294.953
303.385
299.805
296.128
297.073
298.211
299.677
296.915
290.372
294.623
291.609
291.705
297.923
297.308
298.841
296.322
301.199
301.563
296.866
303.364
304.96
304.046
299.745
299.717
298.348
304.333
302.245
304.903
306.731
304.424
301.747
301.422
300.795
294.507
294.254
292.674
292.621
293.86
291.167
294.78
302.447
306.967
304.199
295.037
292.17
290.975
293.577
289.069
291.29
294.641
295.979
294.064
291.254
290.026
291.425
295.108
294.894
294.113
299.72
294.459
296.593
295.464
298.384
302.621
298.343
299.011
302.378
297.933
301.66
304.343
305.352
300.866
300.306
301.457
308.195
303.887
304.145
305.663
304.677
305.361
303.305
303.853
306.3
302.69
302.417
306.711
301.87
300.459
296.157
303.212
304.91
302.274
303.665
304.089
296.696
298.789
300.911
304.493
306.803
304.382
302.854
299.818
300.59
301.429
298.955
300.335
300.154
301.578
306.541
305.246
312.124
304.732
300.211
303.095
305.379
295.893
295.873
292.327
298.182
293.59
298.867
296.812
301.454
299.824
299.609
294.406
293.947
296.293
297.523
293.539
297.308
296.554
293.991
295.995
295.652
300.877
297.145
297.063
297.203
303.837
303.303
301.804
297.533
296.557
296.326
300.593
305.126
301.211
304.669
299.939
302.322
308.461
300.164
301.319
303.636
302.011
303.838
298.285
303.726
301.747
298.29
296.791
291.256
293.846
295.246
296.592
299.91
300.018
293.078
295.09
299.563
298.402
297.902
294.57
295.986
300.535
298.848
294.418
295.428
301.202
291.791
293.99
294.116
296.324
294.018
300.679
299.485
299.231
302.565
301.445
301.128
305.708
310.597
309.846
310.201
311.274
310.976
314.691
316.573
306.602
308.834
306.36
307.833
306.862
307.359
311.37
308.388
308.241
303.491
305.311
304.263
300.469
300.405
303.399
305.72
304.814
302.982
305.939
302.842
303.924
304.516
303.251
297.302
299.224
296.07
293.503
289.851
289.965
295.173
299.864
304.917
304.588
304.848
304.021
309.227
307.704
300.985
301.265
302.394
307.752
302.629
301.266
300.488
299.576
304.482
298.592
304.294
299.201
296.189
300.182
300.867
299.188
304.391
308.383
299.843
296.494
296.785
299.88
304.073
300.068
301.833
305.385
312.689
303.539
300.313
300.22
302.578
300.504
303.646
308.098
302.532
305.596
303.819
303.011
301.071
300.065
304.737
303.583
297.365
301.171
303.513
303.726
301.595
302.521
309.393
307.421
302.771
307.679
305.228
306.464
303.85
304.58
302.465
302.571
300.783
298.967
298.804
294.142
294.037
296.603
297.683
297.079
297.064
300.313
303.495
302.21
303.379
306.001
305.533
310.374
308.878
304.602
303.843
302.62
302.033
297.821
297.801
301.383
302.77
305.471
309.623
307.459
302.966
302.079
302.264
297.913
299.347
300.275
304.197
308.872
305.47
301.671
303.684
303.76
301.852
303.547
305.274
303.006
304.838
300.979
305.535
312.126
306.925
309.055
309.862
307.346
305.611
303.456
307.015
306.183
307.979
309.544
306.414
304.362
306.578
301.678
302.651
306.394
308.378
304.322
295.62
300.651
306.205
304.333
300.958
296.551
299.798
297.76
302.505
301.591
308.574
303.424
302.54
300.176
302.962
299.704
301.145
301.781
299.211
300.927
304.577
299.574
297.864
297.328
292.706
295.886
297.472
302.451
302.23
295.74
291.085
290.181
291.263
295.243
296.781
299.605
296.834
303.569
302.178
299.222
301.251
300.82
303.01
302.962
298.967
305.689
300.728
301.732
303.743
299.551
298.666
298.933
299.524
295.164
294.286
292.863
298.02
301.121
300.268
294.389
300.033
295.537
292.719
295.186
294.605
299.224
294.067
299.7
306.291
301.488
293.422
295.064
296.387
295.656
293.723
293.731
294.575
293.375
295.829
291.745
285.064
287.373
288.745
291.781
293.05
289.296
295.029
294.689
291.428
291.15
293
289.696
292.364
288.576
290.615
289.365
285.852
293.276
295.952
294.761
292.202
289.126
293.919
288.515
292.123
288.228
288.786
290.647
299.017
292.935
287.343
284.356
286.945
289.09
285.774
280.98
278.575
282.174
273.598
280.215
277.177
281.866
280.217
279.107
278.431
276.065
280.614
280.306
281.459
282.195
277.43
276.281
275.571
274.133
271.884
276.546
277.282
274.115
279.002
277.632
272.47
271.151
270.836
269.438
269.241
266.308
266.984
264.06
267.431
268.401
263.85
263.32
270.161
266.688
269.98
269.835
261.491
260.373
263.875
264.669
262.48
260.099
258.33
253.626
257.321
258.379
259.75
260.26
256.546
263.47
257.015
250.332
251.912
252.847
245.48
244.748
240.238
233.633
234.102
236.119
232.298
226.003
226.287
227.929
222.53
222.333
220.259
217.461
)
;

boundaryField
{
    sides
    {
        type            calculated;
        value           nonuniform List<scalar> 2(217.461 218.077);
    }
    empty
    {
        type            empty;
    }
}


// ************************************************************************* //
