/*--------------------------------*- C++ -*----------------------------------*\
  =========                 |
  \\      /  F ield         | OpenFOAM: The Open Source CFD Toolbox
   \\    /   O peration     | Website:  https://openfoam.org
    \\  /    A nd           | Version:  7
     \\/     M anipulation  |
\*---------------------------------------------------------------------------*/
FoamFile
{
    version     2.0;
    format      ascii;
    class       volScalarField;
    location    "0.005";
    object      p;
}
// * * * * * * * * * * * * * * * * * * * * * * * * * * * * * * * * * * * * * //

dimensions      [1 -1 -2 0 0 0 0];

internalField   nonuniform List<scalar> 
1000
(
0.260857
0.305925
0.325784
0.356237
0.386561
0.412606
0.423335
0.44518
0.447557
0.468832
0.471025
0.476702
0.478815
0.491026
0.502815
0.525725
0.530264
0.542846
0.567649
0.574377
0.563411
0.586589
0.600095
0.61343
0.60763
0.629452
0.636103
0.643575
0.642511
0.657872
0.656457
0.670934
0.695288
0.70881
0.69571
0.702986
0.699045
0.698521
0.720462
0.744349
0.761779
0.760464
0.748307
0.750351
0.763506
0.763675
0.769813
0.796136
0.773408
0.787751
0.804488
0.810559
0.813952
0.822237
0.827918
0.824267
0.85262
0.845511
0.850081
0.849601
0.848982
0.862132
0.872044
0.871571
0.85667
0.877131
0.903129
0.898322
0.899533
0.91234
0.905441
0.923444
0.909763
0.92078
0.938732
0.9383
0.933143
0.937009
0.94056
0.946554
0.950824
0.958426
0.963518
0.970958
0.974808
0.969696
0.97597
0.972212
0.986021
0.98376
0.972222
0.988551
1.00137
1.01631
1.00754
1.02197
1.01908
1.02639
1.02706
1.02603
1.02794
1.01908
1.0248
1.04141
1.04558
1.04904
1.04689
1.05224
1.05548
1.03859
1.06027
1.07499
1.06015
1.05393
1.06822
1.07375
1.06754
1.08306
1.09503
1.0954
1.10229
1.08865
1.09309
1.0908
1.09931
1.08114
1.09363
1.10014
1.10455
1.10033
1.12067
1.11715
1.1124
1.11927
1.10807
1.115
1.11224
1.10993
1.12122
1.12921
1.12015
1.11758
1.12836
1.13419
1.1313
1.1278
1.13648
1.12749
1.13977
1.12708
1.13514
1.14296
1.14072
1.13798
1.13215
1.13574
1.1295
1.12528
1.13704
1.12854
1.13918
1.14478
1.16641
1.14024
1.13994
1.14049
1.14651
1.13789
1.14111
1.14616
1.12934
1.12826
1.1254
1.1391
1.14003
1.15559
1.16257
1.14873
1.1415
1.13907
1.13701
1.14395
1.15403
1.14969
1.166
1.15451
1.14473
1.16494
1.13431
1.16006
1.15081
1.14696
1.152
1.13562
1.14213
1.15522
1.13694
1.15331
1.14718
1.15498
1.14542
1.1563
1.14451
1.15195
1.14179
1.14624
1.14058
1.14866
1.14004
1.14449
1.15568
1.14482
1.1511
1.15974
1.1398
1.15267
1.14277
1.14897
1.15189
1.15152
1.13778
1.1369
1.14348
1.1409
1.14474
1.14784
1.14502
1.13281
1.128
1.15621
1.14002
1.15071
1.13787
1.14188
1.14815
1.14184
1.14317
1.14898
1.14374
1.14899
1.15243
1.13941
1.14758
1.15311
1.14564
1.15431
1.14939
1.15627
1.14455
1.14529
1.14045
1.14307
1.14347
1.14077
1.15035
1.14555
1.14299
1.1392
1.1474
1.15187
1.15545
1.14862
1.14701
1.13265
1.13904
1.13895
1.15677
1.1621
1.15804
1.14751
1.15058
1.12962
1.14394
1.15915
1.14773
1.14308
1.13998
1.14265
1.14769
1.14058
1.14235
1.14985
1.16641
1.13937
1.14359
1.1468
1.15
1.14166
1.1408
1.14418
1.13502
1.14605
1.16432
1.15199
1.15512
1.14256
1.15145
1.15487
1.14356
1.14802
1.14909
1.1588
1.13734
1.14273
1.14149
1.14217
1.13013
1.13709
1.13016
1.1454
1.14767
1.13783
1.13618
1.15894
1.15804
1.14678
1.15104
1.14398
1.13455
1.1484
1.15156
1.16148
1.14398
1.14238
1.14205
1.14366
1.14442
1.14906
1.13965
1.13926
1.14352
1.13931
1.13459
1.1397
1.14902
1.15211
1.13861
1.14597
1.13974
1.1389
1.15206
1.14394
1.14395
1.15102
1.15279
1.13786
1.1442
1.15247
1.15075
1.14417
1.16822
1.16548
1.16803
1.13654
1.15098
1.1463
1.14837
1.15113
1.12663
1.14091
1.15284
1.15316
1.14812
1.15638
1.15175
1.15323
1.15206
1.15886
1.1598
1.15293
1.13866
1.13862
1.14704
1.14019
1.13807
1.13826
1.13001
1.13577
1.13211
1.14758
1.14399
1.14077
1.1431
1.13914
1.14243
1.14276
1.14871
1.15569
1.14618
1.15159
1.14159
1.1344
1.15116
1.14243
1.1412
1.13454
1.13784
1.13159
1.13716
1.15966
1.1466
1.15758
1.15144
1.1452
1.15104
1.15011
1.15175
1.13559
1.13599
1.1426
1.13471
1.14019
1.12
1.12986
1.13084
1.13111
1.12753
1.13879
1.13576
1.13543
1.14812
1.13401
1.1374
1.14056
1.15138
1.15337
1.1373
1.12623
1.13112
1.13714
1.12455
1.13016
1.12522
1.1283
1.12042
1.12221
1.13171
1.12233
1.11373
1.13851
1.14125
1.13126
1.12964
1.1231
1.12926
1.1219
1.13515
1.12785
1.14034
1.10981
1.10103
1.1223
1.13305
1.12029
1.12175
1.13021
1.1447
1.14403
1.12692
1.12929
1.12186
1.14437
1.12425
1.12709
1.13096
1.12144
1.14678
1.13388
1.13508
1.13332
1.12437
1.14869
1.14112
1.12344
1.14013
1.13911
1.13552
1.13268
1.14464
1.14441
1.13464
1.13222
1.12934
1.1253
1.12676
1.1325
1.13562
1.13471
1.13352
1.12422
1.14323
1.13636
1.14587
1.13451
1.14252
1.12185
1.13611
1.12944
1.13167
1.13611
1.12205
1.13894
1.13293
1.12076
1.12571
1.1348
1.12648
1.12487
1.14368
1.12763
1.13534
1.13372
1.14164
1.13637
1.13364
1.13067
1.13658
1.1379
1.13604
1.1316
1.12675
1.14828
1.13347
1.13549
1.13064
1.13624
1.14626
1.14859
1.14974
1.15234
1.14917
1.13814
1.1567
1.15219
1.14833
1.14401
1.1447
1.13666
1.15158
1.14183
1.12943
1.1294
1.13819
1.13223
1.1274
1.13948
1.13326
1.1502
1.11645
1.13436
1.14061
1.15485
1.15239
1.14379
1.14428
1.13624
1.1385
1.14044
1.13627
1.14119
1.1533
1.15388
1.15417
1.15358
1.13145
1.14074
1.14
1.1364
1.1529
1.14679
1.15046
1.15201
1.14519
1.15771
1.1472
1.15186
1.15584
1.15683
1.15912
1.16136
1.13943
1.14269
1.14669
1.15147
1.1356
1.1401
1.15526
1.15221
1.14702
1.14807
1.15503
1.1402
1.14514
1.16077
1.14303
1.13655
1.14763
1.1481
1.15322
1.15367
1.1419
1.13905
1.14382
1.15306
1.15183
1.15239
1.15534
1.15194
1.15398
1.15882
1.14365
1.16354
1.14586
1.14915
1.15134
1.16483
1.15845
1.14367
1.1303
1.15009
1.16536
1.15701
1.15489
1.14547
1.13383
1.14704
1.12753
1.1729
1.15955
1.16139
1.15943
1.1535
1.14419
1.14722
1.16408
1.15323
1.16058
1.13388
1.14551
1.15095
1.14894
1.14033
1.14567
1.15267
1.15955
1.16217
1.1676
1.16625
1.15902
1.14747
1.1541
1.14855
1.14602
1.15312
1.16873
1.16833
1.15241
1.16744
1.17427
1.15355
1.16373
1.1628
1.15528
1.15373
1.16403
1.15531
1.14695
1.15925
1.14987
1.15216
1.15057
1.15724
1.15066
1.14203
1.15523
1.15923
1.14672
1.17887
1.15612
1.15455
1.16885
1.17314
1.18187
1.15281
1.16553
1.16786
1.16415
1.17358
1.17168
1.15627
1.16692
1.1617
1.15189
1.16
1.16242
1.16392
1.16762
1.1516
1.15949
1.16671
1.1578
1.15477
1.17401
1.18054
1.16678
1.15907
1.14996
1.15441
1.1566
1.16663
1.15858
1.15053
1.167
1.15176
1.15964
1.15549
1.17345
1.15925
1.17189
1.16973
1.1601
1.17092
1.16502
1.18663
1.16633
1.16763
1.17345
1.16269
1.16405
1.15982
1.17484
1.16559
1.16237
1.15195
1.15217
1.16336
1.16176
1.18249
1.17645
1.17109
1.16346
1.14419
1.17008
1.16498
1.15303
1.15601
1.15275
1.16941
1.15745
1.15993
1.14657
1.16665
1.16397
1.15074
1.16287
1.16781
1.15563
1.15386
1.17115
1.17177
1.15592
1.16835
1.17663
1.17286
1.15974
1.16209
1.16374
1.16573
1.16903
1.18035
1.17396
1.16256
1.17702
1.15827
1.15127
1.16358
1.15507
1.16638
1.14256
1.16876
1.17292
1.16196
1.15755
1.16873
1.15986
1.16132
1.15941
1.15839
1.14676
1.17115
1.15335
1.15268
1.15309
1.14896
1.17297
1.16876
1.17571
1.17449
1.17005
1.16745
1.16138
1.17395
1.15735
1.17088
1.17295
1.15553
1.14352
1.15204
1.16713
1.17944
1.18198
1.15232
1.15487
1.16652
1.15197
1.14281
1.1485
1.15983
1.15602
1.15257
1.14165
1.17375
1.15403
1.15983
1.16059
1.1672
1.15421
1.13617
1.14775
1.15044
1.14733
1.14631
1.15397
1.15226
1.14791
1.14502
1.15052
1.1506
1.15887
1.17537
1.14952
1.14591
1.14101
1.14068
1.15111
1.14212
1.14713
1.15029
1.14492
1.1341
1.13221
1.1273
1.13813
1.12263
1.13991
1.14308
1.12675
1.14515
1.1403
1.11842
1.12536
1.12627
1.13781
1.12517
1.1144
1.11281
1.10647
1.11068
1.10083
1.08823
1.10028
1.10537
1.10835
1.09977
1.10681
1.0806
1.09137
1.08254
1.07263
1.08297
1.08081
1.0796
1.06336
1.05998
1.05965
1.06615
1.05885
1.06044
1.05724
1.0574
1.04977
1.04028
1.05547
1.05865
1.04243
1.0193
1.01858
1.03704
1.02565
1.02661
1.0171
1.01259
0.99631
1.00175
0.997778
1.00182
0.982027
0.995014
1.00197
0.991413
0.992548
0.990157
0.979604
0.978719
0.965208
0.951903
0.968263
0.958852
0.965121
0.956904
0.950179
0.929214
0.919444
0.933747
0.933501
0.924713
0.918845
0.924451
0.921237
0.905088
0.900467
0.895142
0.882495
0.874352
0.868442
0.870959
0.867389
0.861004
0.866748
0.842685
0.844792
0.85064
0.832226
0.830263
0.839306
0.828411
0.823771
0.820829
0.801773
0.812206
0.800791
0.795665
0.794029
0.773514
0.761774
0.753771
0.755722
0.746863
0.731007
0.721935
0.723666
0.721056
0.712111
0.704214
0.689516
0.695319
0.681367
0.669955
0.665187
0.655854
0.668406
0.638584
0.620024
0.616905
0.617447
0.605151
0.596136
0.592073
0.581919
0.573062
0.558816
0.554049
0.544112
0.538755
0.522277
0.522508
0.494907
0.474505
0.464767
0.465737
0.449474
0.436787
0.413361
0.392177
0.363879
0.347568
0.334329
0.319226
0.28184
0.249704
)
;

boundaryField
{
    sides
    {
        type            calculated;
        value           nonuniform List<scalar> 2(0.249704 0.260857);
    }
    empty
    {
        type            empty;
    }
}


// ************************************************************************* //
