/*--------------------------------*- C++ -*----------------------------------*\
  =========                 |
  \\      /  F ield         | OpenFOAM: The Open Source CFD Toolbox
   \\    /   O peration     | Website:  https://openfoam.org
    \\  /    A nd           | Version:  7
     \\/     M anipulation  |
\*---------------------------------------------------------------------------*/
FoamFile
{
    version     2.0;
    format      ascii;
    class       volScalarField;
    location    "0.005";
    object      rhoMMean;
}
// * * * * * * * * * * * * * * * * * * * * * * * * * * * * * * * * * * * * * //

dimensions      [1 -3 0 0 0 0 0];

internalField   nonuniform List<scalar> 
1000
(
4.60178e-06
5.06394e-06
5.26705e-06
5.51144e-06
5.88843e-06
6.15718e-06
6.23167e-06
6.36641e-06
6.42093e-06
6.64483e-06
6.62358e-06
6.71028e-06
6.71021e-06
6.77552e-06
6.92948e-06
7.12057e-06
7.1666e-06
7.36874e-06
7.46569e-06
7.59268e-06
7.39878e-06
7.65278e-06
7.84402e-06
7.90679e-06
7.81128e-06
7.92948e-06
8.09811e-06
8.20792e-06
8.29053e-06
8.49576e-06
8.35731e-06
8.42936e-06
8.62442e-06
8.84081e-06
8.70194e-06
8.70815e-06
8.67023e-06
8.70675e-06
8.78566e-06
9.12411e-06
9.41297e-06
9.36061e-06
9.2983e-06
9.22732e-06
9.35545e-06
9.35334e-06
9.37735e-06
9.6002e-06
9.22276e-06
9.46115e-06
9.58872e-06
9.81717e-06
9.81836e-06
9.88769e-06
1.00246e-05
1.00175e-05
1.02484e-05
1.01777e-05
1.02352e-05
1.02002e-05
1.01135e-05
1.02232e-05
1.03817e-05
1.02495e-05
1.00792e-05
1.03043e-05
1.06063e-05
1.05675e-05
1.06601e-05
1.08521e-05
1.06666e-05
1.08418e-05
1.06749e-05
1.06919e-05
1.09205e-05
1.10279e-05
1.0901e-05
1.08795e-05
1.08006e-05
1.10123e-05
1.1179e-05
1.12068e-05
1.10803e-05
1.14185e-05
1.13836e-05
1.11747e-05
1.12638e-05
1.12774e-05
1.12689e-05
1.12472e-05
1.12974e-05
1.15074e-05
1.16184e-05
1.16585e-05
1.15453e-05
1.18467e-05
1.21016e-05
1.21177e-05
1.19068e-05
1.16293e-05
1.16676e-05
1.15943e-05
1.17123e-05
1.19546e-05
1.20427e-05
1.19507e-05
1.18736e-05
1.20605e-05
1.19842e-05
1.18487e-05
1.21698e-05
1.24508e-05
1.23833e-05
1.23375e-05
1.24729e-05
1.24971e-05
1.23524e-05
1.26251e-05
1.25794e-05
1.25528e-05
1.25379e-05
1.24464e-05
1.24857e-05
1.2531e-05
1.25098e-05
1.25034e-05
1.23974e-05
1.22223e-05
1.23623e-05
1.24838e-05
1.26542e-05
1.2753e-05
1.2578e-05
1.25503e-05
1.24282e-05
1.24529e-05
1.24095e-05
1.25328e-05
1.26041e-05
1.26006e-05
1.24044e-05
1.23887e-05
1.24504e-05
1.24736e-05
1.28001e-05
1.29196e-05
1.27832e-05
1.284e-05
1.27942e-05
1.28026e-05
1.28201e-05
1.30059e-05
1.28297e-05
1.27601e-05
1.28624e-05
1.26412e-05
1.27968e-05
1.27649e-05
1.28041e-05
1.2552e-05
1.27112e-05
1.26355e-05
1.29203e-05
1.26615e-05
1.27166e-05
1.27804e-05
1.28287e-05
1.26727e-05
1.26258e-05
1.28053e-05
1.26762e-05
1.27238e-05
1.27197e-05
1.27829e-05
1.28524e-05
1.30665e-05
1.29521e-05
1.28839e-05
1.26674e-05
1.26382e-05
1.24902e-05
1.25063e-05
1.27014e-05
1.28179e-05
1.28144e-05
1.27846e-05
1.27718e-05
1.2778e-05
1.25286e-05
1.27251e-05
1.28978e-05
1.29534e-05
1.31038e-05
1.29705e-05
1.3076e-05
1.31102e-05
1.30008e-05
1.29662e-05
1.2864e-05
1.29155e-05
1.28336e-05
1.28807e-05
1.26537e-05
1.28367e-05
1.27213e-05
1.27914e-05
1.29039e-05
1.3162e-05
1.31283e-05
1.32642e-05
1.32303e-05
1.30027e-05
1.31181e-05
1.3225e-05
1.28723e-05
1.309e-05
1.2922e-05
1.27779e-05
1.30742e-05
1.29515e-05
1.27435e-05
1.27686e-05
1.29697e-05
1.29775e-05
1.27864e-05
1.27197e-05
1.25873e-05
1.23699e-05
1.23606e-05
1.284e-05
1.29416e-05
1.32472e-05
1.30816e-05
1.27035e-05
1.27272e-05
1.25885e-05
1.29042e-05
1.28827e-05
1.29726e-05
1.28645e-05
1.29996e-05
1.29291e-05
1.29481e-05
1.29765e-05
1.27583e-05
1.29445e-05
1.2812e-05
1.30612e-05
1.28357e-05
1.27901e-05
1.27889e-05
1.26921e-05
1.2768e-05
1.28298e-05
1.26729e-05
1.28444e-05
1.27643e-05
1.27996e-05
1.29844e-05
1.29662e-05
1.27736e-05
1.28153e-05
1.28509e-05
1.25685e-05
1.26191e-05
1.26516e-05
1.24925e-05
1.26364e-05
1.2627e-05
1.26875e-05
1.27627e-05
1.26074e-05
1.27307e-05
1.2981e-05
1.28206e-05
1.28066e-05
1.27866e-05
1.28281e-05
1.2845e-05
1.29354e-05
1.30572e-05
1.29668e-05
1.32304e-05
1.2759e-05
1.27646e-05
1.30546e-05
1.31355e-05
1.30881e-05
1.30179e-05
1.29857e-05
1.29443e-05
1.29813e-05
1.3116e-05
1.29616e-05
1.31854e-05
1.30581e-05
1.29695e-05
1.28826e-05
1.28634e-05
1.28395e-05
1.28236e-05
1.30232e-05
1.2924e-05
1.30253e-05
1.31838e-05
1.32334e-05
1.29743e-05
1.31671e-05
1.31945e-05
1.30724e-05
1.30849e-05
1.2938e-05
1.28204e-05
1.29022e-05
1.29776e-05
1.29485e-05
1.29659e-05
1.27542e-05
1.27676e-05
1.28625e-05
1.29931e-05
1.30909e-05
1.30246e-05
1.31518e-05
1.32268e-05
1.31638e-05
1.30854e-05
1.36286e-05
1.33588e-05
1.31992e-05
1.30574e-05
1.29707e-05
1.29647e-05
1.29311e-05
1.30709e-05
1.29629e-05
1.26775e-05
1.27567e-05
1.27402e-05
1.28746e-05
1.30885e-05
1.28381e-05
1.28674e-05
1.3175e-05
1.30931e-05
1.30007e-05
1.31046e-05
1.30134e-05
1.28505e-05
1.28598e-05
1.30858e-05
1.30956e-05
1.31293e-05
1.2753e-05
1.28657e-05
1.26862e-05
1.28597e-05
1.29401e-05
1.27167e-05
1.28951e-05
1.30931e-05
1.30322e-05
1.30313e-05
1.3044e-05
1.31247e-05
1.30094e-05
1.30256e-05
1.32069e-05
1.30548e-05
1.28339e-05
1.29196e-05
1.29666e-05
1.30251e-05
1.293e-05
1.27261e-05
1.27674e-05
1.25438e-05
1.27885e-05
1.29207e-05
1.30092e-05
1.29443e-05
1.29579e-05
1.29056e-05
1.27495e-05
1.27358e-05
1.26853e-05
1.26349e-05
1.26205e-05
1.27255e-05
1.29935e-05
1.29595e-05
1.28607e-05
1.30263e-05
1.29094e-05
1.27675e-05
1.26771e-05
1.2773e-05
1.26483e-05
1.28851e-05
1.31187e-05
1.29567e-05
1.32222e-05
1.306e-05
1.29934e-05
1.29855e-05
1.3077e-05
1.30916e-05
1.26095e-05
1.26605e-05
1.27349e-05
1.28234e-05
1.28894e-05
1.29112e-05
1.31107e-05
1.30894e-05
1.31519e-05
1.31737e-05
1.3119e-05
1.32167e-05
1.34282e-05
1.35088e-05
1.32409e-05
1.31078e-05
1.31545e-05
1.30278e-05
1.2934e-05
1.26342e-05
1.24706e-05
1.23934e-05
1.23938e-05
1.22983e-05
1.25602e-05
1.26975e-05
1.2973e-05
1.2937e-05
1.28119e-05
1.2753e-05
1.29637e-05
1.27314e-05
1.29344e-05
1.2851e-05
1.31177e-05
1.28938e-05
1.29378e-05
1.28535e-05
1.3016e-05
1.2944e-05
1.28053e-05
1.29996e-05
1.27124e-05
1.26626e-05
1.2835e-05
1.29581e-05
1.27221e-05
1.26174e-05
1.28339e-05
1.2965e-05
1.29405e-05
1.2803e-05
1.28919e-05
1.29205e-05
1.32256e-05
1.29832e-05
1.26709e-05
1.28772e-05
1.27643e-05
1.2943e-05
1.28818e-05
1.27284e-05
1.26384e-05
1.25002e-05
1.27428e-05
1.27438e-05
1.25805e-05
1.26503e-05
1.26318e-05
1.26772e-05
1.24806e-05
1.25779e-05
1.25965e-05
1.25037e-05
1.25242e-05
1.26211e-05
1.25716e-05
1.26059e-05
1.27929e-05
1.29609e-05
1.30311e-05
1.30239e-05
1.28007e-05
1.28573e-05
1.28405e-05
1.27875e-05
1.2623e-05
1.26994e-05
1.26954e-05
1.28679e-05
1.28259e-05
1.29695e-05
1.30868e-05
1.29214e-05
1.31297e-05
1.31322e-05
1.30682e-05
1.29818e-05
1.30155e-05
1.29706e-05
1.29982e-05
1.31225e-05
1.30389e-05
1.30119e-05
1.2939e-05
1.30806e-05
1.29112e-05
1.2825e-05
1.26153e-05
1.27403e-05
1.26651e-05
1.27092e-05
1.27227e-05
1.26167e-05
1.29665e-05
1.27117e-05
1.2564e-05
1.26756e-05
1.26278e-05
1.26525e-05
1.27545e-05
1.2879e-05
1.27878e-05
1.27803e-05
1.25735e-05
1.27764e-05
1.27001e-05
1.27757e-05
1.26681e-05
1.26106e-05
1.25608e-05
1.27531e-05
1.26111e-05
1.25187e-05
1.25607e-05
1.26399e-05
1.25485e-05
1.25804e-05
1.27442e-05
1.27927e-05
1.28328e-05
1.23502e-05
1.26561e-05
1.27721e-05
1.30642e-05
1.29594e-05
1.2868e-05
1.29211e-05
1.26867e-05
1.28256e-05
1.29537e-05
1.2736e-05
1.28285e-05
1.28502e-05
1.28028e-05
1.26352e-05
1.25298e-05
1.25162e-05
1.27763e-05
1.27296e-05
1.26664e-05
1.30016e-05
1.2846e-05
1.2999e-05
1.28638e-05
1.27694e-05
1.29623e-05
1.30556e-05
1.30328e-05
1.30826e-05
1.3105e-05
1.33695e-05
1.31218e-05
1.29224e-05
1.29213e-05
1.30192e-05
1.3138e-05
1.29635e-05
1.31215e-05
1.32061e-05
1.3036e-05
1.29411e-05
1.28385e-05
1.29514e-05
1.27689e-05
1.27908e-05
1.30217e-05
1.26749e-05
1.27744e-05
1.29512e-05
1.28741e-05
1.28162e-05
1.29654e-05
1.28425e-05
1.27478e-05
1.28248e-05
1.29032e-05
1.28607e-05
1.29196e-05
1.28044e-05
1.28178e-05
1.29133e-05
1.29364e-05
1.27183e-05
1.30823e-05
1.29847e-05
1.32971e-05
1.31225e-05
1.33786e-05
1.33268e-05
1.31898e-05
1.31437e-05
1.3323e-05
1.32303e-05
1.32264e-05
1.32438e-05
1.29449e-05
1.30071e-05
1.30204e-05
1.27945e-05
1.30129e-05
1.31221e-05
1.32546e-05
1.31309e-05
1.31277e-05
1.29811e-05
1.27572e-05
1.30027e-05
1.2995e-05
1.30366e-05
1.26854e-05
1.28021e-05
1.2998e-05
1.28092e-05
1.26664e-05
1.2477e-05
1.25226e-05
1.26736e-05
1.28159e-05
1.29087e-05
1.28619e-05
1.27812e-05
1.26547e-05
1.2634e-05
1.26714e-05
1.25474e-05
1.27729e-05
1.28395e-05
1.25918e-05
1.26791e-05
1.27933e-05
1.29583e-05
1.26929e-05
1.28702e-05
1.28323e-05
1.28473e-05
1.2831e-05
1.27193e-05
1.28326e-05
1.27514e-05
1.27324e-05
1.27222e-05
1.28342e-05
1.29408e-05
1.2896e-05
1.29472e-05
1.27973e-05
1.28497e-05
1.31589e-05
1.3066e-05
1.32575e-05
1.31759e-05
1.32389e-05
1.31844e-05
1.29158e-05
1.27962e-05
1.24525e-05
1.27532e-05
1.28108e-05
1.29433e-05
1.29245e-05
1.30213e-05
1.29224e-05
1.28493e-05
1.27646e-05
1.27967e-05
1.2655e-05
1.27068e-05
1.27667e-05
1.30076e-05
1.29439e-05
1.31897e-05
1.32484e-05
1.30345e-05
1.31085e-05
1.30433e-05
1.29161e-05
1.28643e-05
1.30754e-05
1.29842e-05
1.29532e-05
1.29773e-05
1.3133e-05
1.3131e-05
1.31254e-05
1.31309e-05
1.28885e-05
1.28986e-05
1.28154e-05
1.30945e-05
1.30554e-05
1.32898e-05
1.31282e-05
1.29522e-05
1.29537e-05
1.29136e-05
1.30758e-05
1.29371e-05
1.31459e-05
1.32365e-05
1.28733e-05
1.30264e-05
1.303e-05
1.33371e-05
1.29679e-05
1.30295e-05
1.27497e-05
1.29364e-05
1.30263e-05
1.28889e-05
1.30167e-05
1.30148e-05
1.30495e-05
1.29012e-05
1.26543e-05
1.2848e-05
1.3009e-05
1.29764e-05
1.28638e-05
1.29997e-05
1.31694e-05
1.30415e-05
1.33322e-05
1.31336e-05
1.31514e-05
1.29682e-05
1.30026e-05
1.30008e-05
1.30357e-05
1.28961e-05
1.28204e-05
1.29803e-05
1.28337e-05
1.25752e-05
1.26569e-05
1.30246e-05
1.30378e-05
1.27742e-05
1.28111e-05
1.29443e-05
1.29402e-05
1.29408e-05
1.30789e-05
1.28759e-05
1.28695e-05
1.28764e-05
1.28546e-05
1.28438e-05
1.30296e-05
1.27786e-05
1.30136e-05
1.27321e-05
1.29101e-05
1.30315e-05
1.27561e-05
1.27662e-05
1.28874e-05
1.27842e-05
1.29615e-05
1.29813e-05
1.30556e-05
1.27551e-05
1.29324e-05
1.27076e-05
1.26282e-05
1.28089e-05
1.30074e-05
1.29081e-05
1.2963e-05
1.31129e-05
1.28977e-05
1.26437e-05
1.27881e-05
1.28191e-05
1.28929e-05
1.27138e-05
1.2903e-05
1.28436e-05
1.26818e-05
1.26221e-05
1.267e-05
1.27837e-05
1.31097e-05
1.3128e-05
1.29127e-05
1.29369e-05
1.28665e-05
1.2828e-05
1.28057e-05
1.29913e-05
1.30361e-05
1.29265e-05
1.29928e-05
1.29789e-05
1.30774e-05
1.29061e-05
1.29405e-05
1.29204e-05
1.30112e-05
1.28723e-05
1.27796e-05
1.29782e-05
1.29693e-05
1.30016e-05
1.28377e-05
1.28506e-05
1.30415e-05
1.29488e-05
1.2713e-05
1.29833e-05
1.29127e-05
1.29368e-05
1.31366e-05
1.29429e-05
1.29691e-05
1.29827e-05
1.29875e-05
1.3084e-05
1.2989e-05
1.30829e-05
1.29422e-05
1.28852e-05
1.28708e-05
1.2869e-05
1.29229e-05
1.29078e-05
1.25014e-05
1.26104e-05
1.26583e-05
1.27378e-05
1.29561e-05
1.28659e-05
1.25536e-05
1.25907e-05
1.27355e-05
1.28837e-05
1.28967e-05
1.28311e-05
1.26603e-05
1.26629e-05
1.26691e-05
1.24478e-05
1.22457e-05
1.25042e-05
1.25508e-05
1.24845e-05
1.23723e-05
1.2567e-05
1.2344e-05
1.24907e-05
1.24143e-05
1.22335e-05
1.22753e-05
1.2361e-05
1.23501e-05
1.20957e-05
1.20613e-05
1.20608e-05
1.20413e-05
1.20914e-05
1.22648e-05
1.21095e-05
1.20411e-05
1.1981e-05
1.19499e-05
1.21501e-05
1.22947e-05
1.20105e-05
1.19184e-05
1.19378e-05
1.21161e-05
1.19421e-05
1.19036e-05
1.17842e-05
1.19387e-05
1.16529e-05
1.16357e-05
1.15849e-05
1.17659e-05
1.14359e-05
1.1354e-05
1.16484e-05
1.15918e-05
1.14723e-05
1.12562e-05
1.09599e-05
1.11051e-05
1.10678e-05
1.09477e-05
1.09494e-05
1.11658e-05
1.11056e-05
1.11002e-05
1.08871e-05
1.07818e-05
1.07345e-05
1.09276e-05
1.09011e-05
1.07819e-05
1.09324e-05
1.09607e-05
1.09613e-05
1.08729e-05
1.06182e-05
1.05339e-05
1.04416e-05
1.02789e-05
1.01578e-05
1.01885e-05
1.0161e-05
1.03619e-05
1.03034e-05
1.0096e-05
9.99408e-06
1.00727e-05
1.0036e-05
9.93296e-06
9.97499e-06
1.00324e-05
9.8411e-06
9.81359e-06
9.47442e-06
9.58105e-06
9.46098e-06
9.46724e-06
9.40588e-06
9.31539e-06
9.2622e-06
9.22002e-06
9.18924e-06
9.1764e-06
8.9924e-06
8.84365e-06
9.02393e-06
8.95206e-06
8.80194e-06
8.71659e-06
8.53514e-06
8.54091e-06
8.47049e-06
8.36386e-06
8.31129e-06
8.30148e-06
8.46472e-06
8.15612e-06
7.99191e-06
7.90519e-06
7.97621e-06
7.86903e-06
7.73983e-06
7.59398e-06
7.54604e-06
7.56006e-06
7.4639e-06
7.41245e-06
7.28053e-06
7.20206e-06
6.99195e-06
6.96207e-06
6.6697e-06
6.44257e-06
6.41891e-06
6.42837e-06
6.27039e-06
6.20584e-06
6.00064e-06
5.75726e-06
5.52099e-06
5.40951e-06
5.29175e-06
5.13144e-06
4.75665e-06
4.45447e-06
)
;

boundaryField
{
    sides
    {
        type            calculated;
        value           nonuniform List<scalar> 2(4.45447e-06 4.60178e-06);
    }
    empty
    {
        type            empty;
    }
}


// ************************************************************************* //
