/*--------------------------------*- C++ -*----------------------------------*\
  =========                 |
  \\      /  F ield         | OpenFOAM: The Open Source CFD Toolbox
   \\    /   O peration     | Website:  https://openfoam.org
    \\  /    A nd           | Version:  7
     \\/     M anipulation  |
\*---------------------------------------------------------------------------*/
FoamFile
{
    version     2.0;
    format      ascii;
    class       volScalarField;
    location    "0.005";
    object      rhoNMean;
}
// * * * * * * * * * * * * * * * * * * * * * * * * * * * * * * * * * * * * * //

dimensions      [0 -3 0 0 0 0 0];

internalField   nonuniform List<scalar> 
1000
(
9.8963e+19
1.08902e+20
1.1327e+20
1.18525e+20
1.26633e+20
1.32412e+20
1.34014e+20
1.36912e+20
1.38085e+20
1.429e+20
1.42442e+20
1.44307e+20
1.44305e+20
1.4571e+20
1.49021e+20
1.53131e+20
1.54121e+20
1.58468e+20
1.60552e+20
1.63283e+20
1.59114e+20
1.64576e+20
1.68688e+20
1.70039e+20
1.67985e+20
1.70527e+20
1.74153e+20
1.76514e+20
1.78291e+20
1.82705e+20
1.79727e+20
1.81276e+20
1.85472e+20
1.90125e+20
1.87139e+20
1.87272e+20
1.86457e+20
1.87242e+20
1.88939e+20
1.96217e+20
2.0243e+20
2.01304e+20
1.99964e+20
1.98437e+20
2.01192e+20
2.01147e+20
2.01663e+20
2.06456e+20
1.98339e+20
2.03466e+20
2.06209e+20
2.11122e+20
2.11147e+20
2.12638e+20
2.15582e+20
2.15429e+20
2.20396e+20
2.18876e+20
2.20112e+20
2.1936e+20
2.17494e+20
2.19855e+20
2.23261e+20
2.2042e+20
2.16756e+20
2.21598e+20
2.28092e+20
2.27259e+20
2.2925e+20
2.33377e+20
2.2939e+20
2.33158e+20
2.29567e+20
2.29934e+20
2.3485e+20
2.3716e+20
2.3443e+20
2.33967e+20
2.32271e+20
2.36824e+20
2.40409e+20
2.41006e+20
2.38287e+20
2.45559e+20
2.44808e+20
2.40315e+20
2.42233e+20
2.42525e+20
2.42343e+20
2.41876e+20
2.42955e+20
2.4747e+20
2.49857e+20
2.50721e+20
2.48285e+20
2.54767e+20
2.6025e+20
2.60596e+20
2.56061e+20
2.50094e+20
2.50916e+20
2.4934e+20
2.51877e+20
2.57088e+20
2.58983e+20
2.57005e+20
2.55347e+20
2.59366e+20
2.57725e+20
2.5481e+20
2.61717e+20
2.67759e+20
2.66308e+20
2.65322e+20
2.68235e+20
2.68755e+20
2.65644e+20
2.71506e+20
2.70525e+20
2.69952e+20
2.69632e+20
2.67664e+20
2.6851e+20
2.69484e+20
2.69029e+20
2.6889e+20
2.66611e+20
2.62846e+20
2.65856e+20
2.68469e+20
2.72133e+20
2.74258e+20
2.70494e+20
2.69899e+20
2.67273e+20
2.67804e+20
2.66871e+20
2.69523e+20
2.71056e+20
2.70982e+20
2.6676e+20
2.66424e+20
2.6775e+20
2.68249e+20
2.75271e+20
2.77842e+20
2.74906e+20
2.7613e+20
2.75143e+20
2.75326e+20
2.75701e+20
2.79696e+20
2.75908e+20
2.7441e+20
2.76611e+20
2.71853e+20
2.75201e+20
2.74514e+20
2.75357e+20
2.69935e+20
2.73359e+20
2.7173e+20
2.77855e+20
2.72289e+20
2.73475e+20
2.74847e+20
2.75887e+20
2.72531e+20
2.71524e+20
2.75382e+20
2.72607e+20
2.7363e+20
2.73542e+20
2.74902e+20
2.76396e+20
2.81001e+20
2.78539e+20
2.77073e+20
2.72418e+20
2.71789e+20
2.68607e+20
2.68953e+20
2.73148e+20
2.75654e+20
2.75578e+20
2.74937e+20
2.74662e+20
2.74796e+20
2.69433e+20
2.73658e+20
2.77371e+20
2.78568e+20
2.81802e+20
2.78935e+20
2.81204e+20
2.8194e+20
2.79586e+20
2.78843e+20
2.76645e+20
2.77754e+20
2.75991e+20
2.77004e+20
2.72123e+20
2.76059e+20
2.73576e+20
2.75084e+20
2.77503e+20
2.83054e+20
2.8233e+20
2.85252e+20
2.84522e+20
2.79629e+20
2.8211e+20
2.84408e+20
2.76824e+20
2.81505e+20
2.77894e+20
2.74794e+20
2.81166e+20
2.78527e+20
2.74053e+20
2.74592e+20
2.78919e+20
2.79085e+20
2.74977e+20
2.73541e+20
2.70695e+20
2.66019e+20
2.65819e+20
2.7613e+20
2.78314e+20
2.84887e+20
2.81325e+20
2.73194e+20
2.73702e+20
2.70721e+20
2.77509e+20
2.77047e+20
2.7898e+20
2.76656e+20
2.79561e+20
2.78046e+20
2.78453e+20
2.79066e+20
2.74372e+20
2.78377e+20
2.75526e+20
2.80886e+20
2.76037e+20
2.75055e+20
2.75031e+20
2.72948e+20
2.7458e+20
2.7591e+20
2.72535e+20
2.76224e+20
2.74501e+20
2.7526e+20
2.79235e+20
2.78844e+20
2.747e+20
2.75598e+20
2.76364e+20
2.70291e+20
2.71379e+20
2.72077e+20
2.68657e+20
2.71751e+20
2.71549e+20
2.72848e+20
2.74467e+20
2.71127e+20
2.73779e+20
2.7916e+20
2.75711e+20
2.75411e+20
2.7498e+20
2.75874e+20
2.76235e+20
2.7818e+20
2.808e+20
2.78857e+20
2.84525e+20
2.74388e+20
2.74508e+20
2.80744e+20
2.82484e+20
2.81465e+20
2.79954e+20
2.79263e+20
2.78372e+20
2.79169e+20
2.82064e+20
2.78745e+20
2.83557e+20
2.8082e+20
2.78915e+20
2.77046e+20
2.76633e+20
2.76119e+20
2.75777e+20
2.80068e+20
2.77936e+20
2.80114e+20
2.83523e+20
2.84589e+20
2.79017e+20
2.83164e+20
2.83753e+20
2.81126e+20
2.81396e+20
2.78237e+20
2.75707e+20
2.77467e+20
2.79089e+20
2.78462e+20
2.78837e+20
2.74284e+20
2.74572e+20
2.76612e+20
2.79421e+20
2.81524e+20
2.80099e+20
2.82834e+20
2.84446e+20
2.83091e+20
2.81406e+20
2.93088e+20
2.87287e+20
2.83854e+20
2.80804e+20
2.78939e+20
2.78811e+20
2.78088e+20
2.81094e+20
2.78772e+20
2.72635e+20
2.74338e+20
2.73982e+20
2.76873e+20
2.81474e+20
2.76089e+20
2.76719e+20
2.83334e+20
2.81572e+20
2.79584e+20
2.81819e+20
2.79858e+20
2.76355e+20
2.76554e+20
2.81414e+20
2.81625e+20
2.8235e+20
2.74257e+20
2.76681e+20
2.72822e+20
2.76552e+20
2.78282e+20
2.73477e+20
2.77315e+20
2.81573e+20
2.80262e+20
2.80243e+20
2.80517e+20
2.82252e+20
2.79773e+20
2.80121e+20
2.8402e+20
2.80748e+20
2.75997e+20
2.77841e+20
2.78852e+20
2.8011e+20
2.78064e+20
2.73679e+20
2.74567e+20
2.6976e+20
2.75021e+20
2.77863e+20
2.79767e+20
2.78372e+20
2.78664e+20
2.77539e+20
2.74182e+20
2.73888e+20
2.72802e+20
2.71717e+20
2.7141e+20
2.73667e+20
2.7943e+20
2.78699e+20
2.76574e+20
2.80135e+20
2.77621e+20
2.7457e+20
2.72626e+20
2.74689e+20
2.72006e+20
2.77098e+20
2.82122e+20
2.78639e+20
2.84349e+20
2.8086e+20
2.79427e+20
2.79257e+20
2.81226e+20
2.8154e+20
2.71172e+20
2.72269e+20
2.73868e+20
2.75771e+20
2.77192e+20
2.7766e+20
2.8195e+20
2.81493e+20
2.82836e+20
2.83305e+20
2.8213e+20
2.84231e+20
2.88779e+20
2.90511e+20
2.84751e+20
2.81889e+20
2.82891e+20
2.80168e+20
2.78149e+20
2.71703e+20
2.68186e+20
2.66524e+20
2.66532e+20
2.6448e+20
2.70111e+20
2.73064e+20
2.7899e+20
2.78216e+20
2.75524e+20
2.74259e+20
2.78788e+20
2.73793e+20
2.78159e+20
2.76366e+20
2.82101e+20
2.77285e+20
2.78232e+20
2.76419e+20
2.79913e+20
2.78366e+20
2.75382e+20
2.79561e+20
2.73384e+20
2.72313e+20
2.76022e+20
2.78669e+20
2.73593e+20
2.71342e+20
2.75998e+20
2.78817e+20
2.78291e+20
2.75334e+20
2.77246e+20
2.77861e+20
2.84421e+20
2.79209e+20
2.72492e+20
2.76929e+20
2.745e+20
2.78343e+20
2.77028e+20
2.73729e+20
2.71794e+20
2.68821e+20
2.7404e+20
2.74061e+20
2.70548e+20
2.7205e+20
2.71652e+20
2.72627e+20
2.68399e+20
2.70492e+20
2.70893e+20
2.68896e+20
2.69339e+20
2.71422e+20
2.70358e+20
2.71095e+20
2.75116e+20
2.7873e+20
2.80238e+20
2.80083e+20
2.75283e+20
2.765e+20
2.76139e+20
2.75001e+20
2.71462e+20
2.73106e+20
2.7302e+20
2.76729e+20
2.75826e+20
2.78915e+20
2.81436e+20
2.77879e+20
2.8236e+20
2.82412e+20
2.81036e+20
2.79179e+20
2.79902e+20
2.78938e+20
2.79531e+20
2.82204e+20
2.80405e+20
2.79826e+20
2.78257e+20
2.81303e+20
2.77659e+20
2.75806e+20
2.71296e+20
2.73986e+20
2.72367e+20
2.73316e+20
2.73607e+20
2.71326e+20
2.78849e+20
2.7337e+20
2.70194e+20
2.72593e+20
2.71566e+20
2.72097e+20
2.74291e+20
2.76968e+20
2.75007e+20
2.74845e+20
2.70397e+20
2.7476e+20
2.7312e+20
2.74746e+20
2.72431e+20
2.71196e+20
2.70124e+20
2.74261e+20
2.71206e+20
2.6922e+20
2.70123e+20
2.71825e+20
2.69859e+20
2.70546e+20
2.74069e+20
2.75112e+20
2.75975e+20
2.65596e+20
2.72174e+20
2.74669e+20
2.8095e+20
2.78698e+20
2.76731e+20
2.77873e+20
2.72831e+20
2.75819e+20
2.78574e+20
2.73892e+20
2.75881e+20
2.76347e+20
2.75329e+20
2.71724e+20
2.69458e+20
2.69165e+20
2.74759e+20
2.73755e+20
2.72397e+20
2.79605e+20
2.76258e+20
2.79547e+20
2.76641e+20
2.74611e+20
2.7876e+20
2.80765e+20
2.80275e+20
2.81347e+20
2.81827e+20
2.87516e+20
2.82189e+20
2.779e+20
2.77877e+20
2.79983e+20
2.82538e+20
2.78785e+20
2.82183e+20
2.84003e+20
2.80344e+20
2.78304e+20
2.76096e+20
2.78525e+20
2.74601e+20
2.75071e+20
2.80037e+20
2.72579e+20
2.74717e+20
2.7852e+20
2.76863e+20
2.75618e+20
2.78825e+20
2.76183e+20
2.74147e+20
2.75802e+20
2.77487e+20
2.76575e+20
2.7784e+20
2.75365e+20
2.75651e+20
2.77706e+20
2.78203e+20
2.73513e+20
2.8134e+20
2.79242e+20
2.85959e+20
2.82203e+20
2.87712e+20
2.86597e+20
2.83652e+20
2.82659e+20
2.86516e+20
2.84522e+20
2.84439e+20
2.84812e+20
2.78386e+20
2.79722e+20
2.80009e+20
2.75151e+20
2.79848e+20
2.82195e+20
2.85044e+20
2.82384e+20
2.82316e+20
2.79163e+20
2.74348e+20
2.79627e+20
2.79462e+20
2.80356e+20
2.72805e+20
2.75313e+20
2.79527e+20
2.75466e+20
2.72396e+20
2.68322e+20
2.69302e+20
2.72552e+20
2.75611e+20
2.77607e+20
2.76601e+20
2.74864e+20
2.72144e+20
2.71699e+20
2.72502e+20
2.69837e+20
2.74685e+20
2.76118e+20
2.70792e+20
2.72669e+20
2.75125e+20
2.78673e+20
2.72965e+20
2.76778e+20
2.75963e+20
2.76285e+20
2.75935e+20
2.73534e+20
2.75969e+20
2.74224e+20
2.73816e+20
2.73596e+20
2.76004e+20
2.78297e+20
2.77333e+20
2.78434e+20
2.75211e+20
2.76337e+20
2.82988e+20
2.8099e+20
2.85108e+20
2.83353e+20
2.84708e+20
2.83536e+20
2.77759e+20
2.75187e+20
2.67795e+20
2.74263e+20
2.75501e+20
2.7835e+20
2.77946e+20
2.80029e+20
2.77902e+20
2.76328e+20
2.74507e+20
2.75197e+20
2.72152e+20
2.73265e+20
2.74552e+20
2.79733e+20
2.78363e+20
2.8365e+20
2.84911e+20
2.80313e+20
2.81903e+20
2.805e+20
2.77766e+20
2.76653e+20
2.81191e+20
2.7923e+20
2.78563e+20
2.79081e+20
2.8243e+20
2.82388e+20
2.82267e+20
2.82386e+20
2.77172e+20
2.77389e+20
2.75599e+20
2.81602e+20
2.8076e+20
2.85802e+20
2.82326e+20
2.78543e+20
2.78575e+20
2.77712e+20
2.81199e+20
2.78218e+20
2.82709e+20
2.84656e+20
2.76845e+20
2.80138e+20
2.80215e+20
2.86819e+20
2.78881e+20
2.80204e+20
2.74187e+20
2.78202e+20
2.80137e+20
2.77181e+20
2.79928e+20
2.79888e+20
2.80634e+20
2.77444e+20
2.72135e+20
2.76302e+20
2.79763e+20
2.79062e+20
2.76641e+20
2.79564e+20
2.83212e+20
2.80462e+20
2.86715e+20
2.82444e+20
2.82826e+20
2.78887e+20
2.79626e+20
2.79588e+20
2.80337e+20
2.77336e+20
2.75707e+20
2.79147e+20
2.75993e+20
2.70434e+20
2.72192e+20
2.801e+20
2.80383e+20
2.74713e+20
2.75507e+20
2.78372e+20
2.78283e+20
2.78297e+20
2.81266e+20
2.769e+20
2.76763e+20
2.76912e+20
2.76444e+20
2.76211e+20
2.80207e+20
2.74808e+20
2.79862e+20
2.73809e+20
2.77636e+20
2.80247e+20
2.74325e+20
2.74541e+20
2.77149e+20
2.7493e+20
2.78743e+20
2.79167e+20
2.80767e+20
2.74303e+20
2.78117e+20
2.73282e+20
2.71575e+20
2.75461e+20
2.7973e+20
2.77592e+20
2.78774e+20
2.81998e+20
2.7737e+20
2.71908e+20
2.75013e+20
2.7568e+20
2.77267e+20
2.73415e+20
2.77484e+20
2.76207e+20
2.72727e+20
2.71442e+20
2.72473e+20
2.74919e+20
2.8193e+20
2.82322e+20
2.77693e+20
2.78212e+20
2.76698e+20
2.75872e+20
2.75392e+20
2.79383e+20
2.80345e+20
2.7799e+20
2.79416e+20
2.79117e+20
2.81233e+20
2.77551e+20
2.78289e+20
2.77858e+20
2.79812e+20
2.76823e+20
2.7483e+20
2.79101e+20
2.7891e+20
2.79603e+20
2.76079e+20
2.76358e+20
2.80463e+20
2.78469e+20
2.73398e+20
2.7921e+20
2.77692e+20
2.78211e+20
2.82507e+20
2.78341e+20
2.78905e+20
2.79198e+20
2.79301e+20
2.81376e+20
2.79334e+20
2.81352e+20
2.78327e+20
2.771e+20
2.76792e+20
2.76754e+20
2.77912e+20
2.77587e+20
2.68846e+20
2.71191e+20
2.72221e+20
2.73931e+20
2.78625e+20
2.76685e+20
2.69969e+20
2.70769e+20
2.73881e+20
2.77068e+20
2.77348e+20
2.75939e+20
2.72265e+20
2.7232e+20
2.72453e+20
2.67695e+20
2.63349e+20
2.68907e+20
2.6991e+20
2.68484e+20
2.66071e+20
2.70259e+20
2.65463e+20
2.68617e+20
2.66974e+20
2.63085e+20
2.63985e+20
2.65828e+20
2.65595e+20
2.60123e+20
2.59383e+20
2.59371e+20
2.58953e+20
2.60031e+20
2.6376e+20
2.60419e+20
2.58948e+20
2.57656e+20
2.56987e+20
2.61292e+20
2.64402e+20
2.5829e+20
2.56309e+20
2.56727e+20
2.60561e+20
2.56818e+20
2.55991e+20
2.53425e+20
2.56746e+20
2.506e+20
2.5023e+20
2.49138e+20
2.53029e+20
2.45932e+20
2.44171e+20
2.50504e+20
2.49287e+20
2.46715e+20
2.4207e+20
2.35696e+20
2.3882e+20
2.38018e+20
2.35434e+20
2.35472e+20
2.40126e+20
2.3883e+20
2.38713e+20
2.34132e+20
2.31867e+20
2.30848e+20
2.35003e+20
2.34432e+20
2.31869e+20
2.35106e+20
2.35714e+20
2.35726e+20
2.33825e+20
2.28348e+20
2.26536e+20
2.2455e+20
2.21052e+20
2.18447e+20
2.19106e+20
2.18516e+20
2.22836e+20
2.2158e+20
2.17119e+20
2.14927e+20
2.16618e+20
2.15829e+20
2.13612e+20
2.14516e+20
2.15751e+20
2.11636e+20
2.11045e+20
2.03751e+20
2.06044e+20
2.03462e+20
2.03597e+20
2.02277e+20
2.00331e+20
1.99187e+20
1.9828e+20
1.97618e+20
1.97342e+20
1.93385e+20
1.90186e+20
1.94063e+20
1.92518e+20
1.89289e+20
1.87454e+20
1.83551e+20
1.83676e+20
1.82161e+20
1.79868e+20
1.78737e+20
1.78526e+20
1.82037e+20
1.754e+20
1.71869e+20
1.70004e+20
1.71532e+20
1.69227e+20
1.66448e+20
1.63311e+20
1.62281e+20
1.62582e+20
1.60514e+20
1.59407e+20
1.56571e+20
1.54883e+20
1.50365e+20
1.49722e+20
1.43435e+20
1.3855e+20
1.38041e+20
1.38244e+20
1.34847e+20
1.33459e+20
1.29046e+20
1.23812e+20
1.18731e+20
1.16334e+20
1.13801e+20
1.10353e+20
1.02294e+20
9.5795e+19
)
;

boundaryField
{
    sides
    {
        type            calculated;
        value           nonuniform List<scalar> 2(9.5795e+19 9.8963e+19);
    }
    empty
    {
        type            empty;
    }
}


// ************************************************************************* //
