/*--------------------------------*- C++ -*----------------------------------*\
  =========                 |
  \\      /  F ield         | OpenFOAM: The Open Source CFD Toolbox
   \\    /   O peration     | Website:  https://openfoam.org
    \\  /    A nd           | Version:  7
     \\/     M anipulation  |
\*---------------------------------------------------------------------------*/
FoamFile
{
    version     2.0;
    format      ascii;
    class       volScalarField;
    location    "0.005";
    object      linearKE;
}
// * * * * * * * * * * * * * * * * * * * * * * * * * * * * * * * * * * * * * //

dimensions      [1 -1 -2 0 0 0 0];

internalField   nonuniform List<scalar> 
250
(
0.595255
0.591289
0.566476
0.584637
0.572704
0.534035
0.540828
0.595976
0.596058
0.591684
0.591036
0.549172
0.614363
0.615352
0.621852
0.587945
0.575845
0.644194
0.611567
0.58857
0.572561
0.56467
0.580874
0.615041
0.594026
0.612914
0.622921
0.629474
0.597336
0.607875
0.559322
0.60099
0.576199
0.640325
0.578486
0.643945
0.598795
0.600779
0.566006
0.620706
0.596738
0.606787
0.591406
0.605719
0.662722
0.589913
0.633828
0.58258
0.63968
0.613661
0.657272
0.60759
0.608695
0.611322
0.576487
0.635906
0.636855
0.59235
0.588162
0.608625
0.58241
0.597975
0.652249
0.612295
0.610959
0.624075
0.621341
0.610353
0.634692
0.624593
0.597432
0.583322
0.568722
0.596951
0.621024
0.622569
0.628285
0.596713
0.6534
0.663403
0.646503
0.632747
0.642537
0.599329
0.620077
0.628833
0.607757
0.641139
0.619765
0.638133
0.658636
0.641685
0.615548
0.625348
0.638423
0.617438
0.651285
0.638526
0.629649
0.693593
0.608385
0.629567
0.67777
0.580897
0.612776
0.634283
0.601256
0.625534
0.625289
0.589028
0.639736
0.640287
0.601761
0.662253
0.625545
0.642152
0.682355
0.656782
0.667719
0.626134
0.626193
0.675831
0.599683
0.636732
0.673343
0.646897
0.662908
0.600414
0.623131
0.624707
0.603428
0.638857
0.613155
0.66151
0.654205
0.633086
0.60465
0.621325
0.653541
0.688609
0.631549
0.685554
0.693102
0.63193
0.604087
0.659919
0.619935
0.63241
0.700613
0.63013
0.634811
0.661882
0.6382
0.656598
0.670193
0.635726
0.646966
0.658253
0.708582
0.639064
0.649438
0.69691
0.654434
0.641785
0.660581
0.64677
0.651203
0.657968
0.683803
0.648199
0.597659
0.66578
0.619333
0.682352
0.632788
0.675839
0.643269
0.689969
0.609819
0.669875
0.605066
0.633881
0.647911
0.650629
0.642314
0.610602
0.656983
0.646564
0.692251
0.663597
0.664501
0.624911
0.640297
0.64402
0.606584
0.671695
0.641977
0.667238
0.600199
0.676303
0.656812
0.685861
0.629459
0.67022
0.609336
0.679306
0.663092
0.645732
0.633439
0.62592
0.615738
0.678464
0.64795
0.6842
0.646489
0.651501
0.635582
0.64836
0.626152
0.631877
0.630935
0.680192
0.658262
0.639355
0.654712
0.674929
0.620522
0.702472
0.653788
0.699519
0.652935
0.594893
0.649917
0.626792
0.631753
0.659978
0.64294
0.694654
0.695131
0.630816
0.672291
0.64004
0.659559
0.628306
0.645432
0.655728
0.653544
0.717793
0.586683
0.667794
)
;

boundaryField
{
    sides
    {
        type            symmetry;
    }
    empty
    {
        type            empty;
    }
    procBoundary3to2
    {
        type            processor;
        value           uniform 0.575783;
    }
}


// ************************************************************************* //
