/*--------------------------------*- C++ -*----------------------------------*\
  =========                 |
  \\      /  F ield         | OpenFOAM: The Open Source CFD Toolbox
   \\    /   O peration     | Website:  https://openfoam.org
    \\  /    A nd           | Version:  7
     \\/     M anipulation  |
\*---------------------------------------------------------------------------*/
FoamFile
{
    version     2.0;
    format      ascii;
    class       Cloud<dsmcParcel>;
    location    "0.00036/lagrangian/dsmc";
    object      positions;
}
// * * * * * * * * * * * * * * * * * * * * * * * * * * * * * * * * * * * * * //

30503
(
(0.0924369 0.453782 0 0.453782) 1 1 1
(0.526176 0.236912 0.236912 0) 2 1 1
(0.944573 0.0277137 0 0.0277137) 1 1 1
(0.745549 0.127226 0.127226 0) 1 0 1
(0.494439 0.25278 0 0.25278) 0 0 1
(0.474763 0.262619 0.262619 0) 1 1 2
(0.573388 0.213306 0 0.213306) 1 1 1
(0.71572 0.14214 0.14214 0) 2 1 1
(0.402046 0.298977 0 0.298977) 0 0 1
(0.0376211 0.481189 0 0.481189) 1 1 1
(0.0760034 0.461998 0.461998 0) 0 0 2
(0.741878 0.129061 0 0.129061) 2 1 2
(0.795182 0.102409 0 0.102409) 3 2 2
(0.754734 0.122633 0.122633 0) 1 1 2
(0.588967 0.205517 0 0.205517) 1 0 2
(0.549989 0.225005 0.225005 0) 3 2 1
(0.0739889 0.463006 0.463006 0) 2 2 2
(0.151579 0.42421 0.42421 0) 1 1 2
(0.375689 0.312155 0.312155 0) 2 2 2
(0.48172 0.25914 0 0.25914) 0 0 1
(0.651234 0.174383 0 0.174383) 1 0 2
(0.950983 0.0245083 0.0245083 0) 2 2 2
(0.50772 0.24614 0 0.24614) 1 0 2
(0.551588 0.224206 0.224206 0) 1 1 2
(0.135434 0.432283 0.432283 0) 1 0 1
(0.17017 0.414915 0.414915 0) 0 624 2
(0.497599 0.2512 0 0.2512) 3 2 2
(0.839693 0.0801536 0 0.0801536) 0 624 1
(0.523935 0.238033 0 0.238033) 2 1 2
(0.139465 0.430268 0 0.430268) 2 1 2
(0.588722 0.205639 0.205639 0) 0 0 2
(0.61644 0.19178 0.19178 0) 2 2 2
(0.384106 0.307947 0 0.307947) 1 0 2
(0.744475 0.127763 0 0.127763) 1 0 2
(0.987747 0.00612638 0.00612638 0) 0 624 2
(0.275961 0.362019 0.362019 0) 1 0 1
(0.143683 0.428159 0 0.428159) 1 0 2
(0.105006 0.447497 0.447497 0) 1 1 2
(0.985595 0.00720242 0 0.00720242) 1 1 1
(0.987122 0.0064391 0.0064391 0) 1 1 2
(0.567183 0.216408 0.216408 0) 1 0 1
(0.0878361 0.456082 0.456082 0) 3 2 1
(0.631631 0.184184 0.184184 0) 1 1 2
(0.749103 0.125448 0 0.125448) 1 1 1
(0.029638 0.485181 0.485181 0) 1 0 1
(0.863185 0.0684076 0 0.0684076) 1 1 1
(0.645474 0.177263 0 0.177263) 2 2 1
(0.477829 0.261086 0.261086 0) 0 624 2
(0.611776 0.194112 0.194112 0) 1 1 2
(0.393987 0.303006 0 0.303006) 0 0 1
(0.846435 0.0767827 0 0.0767827) 2 2 1
(0.621905 0.189048 0.189048 0) 2 2 2
(0.332366 0.333817 0 0.333817) 1 1 1
(0.171507 0.414246 0.414246 0) 1 0 1
(0.355334 0.322333 0 0.322333) 2 2 1
(0.766825 0.116588 0.116588 0) 0 624 2
(0.178973 0.410514 0.410514 0) 2 1 1
(0.524815 0.237592 0.237592 0) 1 1 2
(0.00243326 0.498783 0.498783 0) 0 0 2
(0.126357 0.436822 0 0.436822) 1 1 1
(0.491726 0.254137 0.254137 0) 0 624 2
(0.150996 0.424502 0.424502 0) 1 0 1
(0.486762 0.256619 0 0.256619) 0 0 1
(0.716595 0.141702 0 0.141702) 2 1 2
(0.685935 0.157033 0.157033 0) 2 1 1
(0.11958 0.44021 0.44021 0) 2 2 2
(0.470426 0.264787 0.264787 0) 2 1 1
(0.389263 0.305369 0 0.305369) 2 2 1
(0.529318 0.235341 0 0.235341) 1 1 1
(0.618956 0.190522 0 0.190522) 1 0 2
(0.423232 0.288384 0 0.288384) 2 2 1
(0.141674 0.429163 0.429163 0) 1 0 1
(0.6974 0.1513 0.1513 0) 1 1 2
(0.962859 0.0185706 0.0185706 0) 1 1 2
(0.873901 0.0630493 0.0630493 0) 2 1 1
(0.640259 0.179871 0.179871 0) 1 0 1
(0.458271 0.270864 0 0.270864) 2 1 2
(0.659251 0.170375 0.170375 0) 2 1 1
(0.409417 0.295291 0 0.295291) 4 4 1
(0.478394 0.260803 0 0.260803) 1 1 1
(0.651855 0.174072 0 0.174072) 2 1 2
(0.0589803 0.47051 0.47051 0) 1 1 2
(0.631312 0.184344 0 0.184344) 1 0 2
(0.862066 0.0689671 0 0.0689671) 3 3 1
(0.434526 0.282737 0 0.282737) 1 0 2
(0.117235 0.441382 0.441382 0) 3 3 2
(0.872016 0.0639921 0.0639921 0) 0 0 2
(0.150363 0.424818 0 0.424818) 2 2 1
(0.143769 0.428115 0 0.428115) 0 0 1
(0.615306 0.192347 0 0.192347) 0 0 1
(0.15412 0.42294 0.42294 0) 1 0 1
(0.2611 0.36945 0 0.36945) 2 1 2
(0.315225 0.342387 0.342387 0) 1 0 1
(0.440296 0.279852 0 0.279852) 2 2 1
(0.966218 0.0168911 0 0.0168911) 2 1 2
(0.299722 0.350139 0.350139 0) 4 3 1
(0.722287 0.138857 0.138857 0) 3 2 1
(0.579675 0.210162 0.210162 0) 3 3 2
(0.0195514 0.490224 0.490224 0) 0 0 2
(0.405421 0.29729 0 0.29729) 0 624 1
(0.315906 0.342047 0.342047 0) 2 2 2
(0.341051 0.329474 0 0.329474) 1 0 2
(0.870371 0.0648143 0 0.0648143) 5 4 2
(0.114149 0.442925 0 0.442925) 2 1 2
(0.962268 0.0188658 0 0.0188658) 1 0 2
(0.458621 0.27069 0.27069 0) 1 0 1
(0.339986 0.330007 0.330007 0) 1 0 1
(0.478778 0.260611 0.260611 0) 1 0 1
(0.231947 0.384026 0.384026 0) 3 2 1
(0.362608 0.318696 0.318696 0) 1 1 2
(0.788563 0.105719 0 0.105719) 2 1 2
(0.18576 0.40712 0 0.40712) 3 2 2
(0.903013 0.0484934 0 0.0484934) 0 0 1
(0.0106642 0.494668 0.494668 0) 1 1 2
(0.360708 0.319646 0.319646 0) 1 1 2
(0.0314787 0.484261 0.484261 0) 0 0 2
(0.500217 0.249892 0.249892 0) 4 3 1
(0.146281 0.426859 0.426859 0) 4 3 1
(0.206444 0.396778 0.396778 0) 2 2 2
(0.10372 0.44814 0 0.44814) 0 0 1
(0.738564 0.130718 0 0.130718) 0 0 1
(0.115832 0.442084 0 0.442084) 1 0 2
(0.929137 0.0354315 0.0354315 0) 2 2 2
(0.644328 0.177836 0 0.177836) 1 1 1
(0.0776871 0.461156 0 0.461156) 1 1 1
(0.310976 0.344512 0 0.344512) 2 1 2
(0.101884 0.449058 0 0.449058) 3 2 2
(0.748184 0.125908 0 0.125908) 2 1 2
(0.80927 0.0953652 0.0953652 0) 1 0 1
(0.491832 0.254084 0 0.254084) 2 2 1
(0.191887 0.404057 0 0.404057) 3 2 2
(0.237751 0.381124 0.381124 0) 0 0 2
(0.0288209 0.48559 0 0.48559) 3 3 1
(0.239175 0.380413 0.380413 0) 1 1 2
(0.921707 0.0391465 0.0391465 0) 1 1 2
(0.507657 0.246172 0.246172 0) 3 2 1
(0.556871 0.221565 0 0.221565) 3 2 2
(0.450118 0.274941 0.274941 0) 3 2 1
(0.712139 0.143931 0 0.143931) 0 0 1
(0.153382 0.423309 0 0.423309) 1 0 2
(0.547605 0.226197 0 0.226197) 1 0 2
(0.372427 0.313786 0 0.313786) 0 0 1
(0.725915 0.137043 0.137043 0) 1 0 1
(0.762028 0.118986 0 0.118986) 1 0 2
(0.978808 0.0105959 0.0105959 0) 2 2 2
(0.0917803 0.45411 0.45411 0) 2 2 2
(0.948859 0.0255704 0 0.0255704) 0 624 1
(0.0141797 0.49291 0 0.49291) 1 0 2
(0.0737171 0.463141 0 0.463141) 2 1 2
(0.200063 0.399969 0.399969 0) 2 2 2
(0.00269817 0.498651 0.498651 0) 1 1 2
(0.5849 0.20755 0.20755 0) 1 1 2
(0.992534 0.00373291 0.00373291 0) 1 1 2
(0.766999 0.116501 0 0.116501) 1 1 1
(0.82037 0.0898149 0.0898149 0) 3 3 2
(0.922639 0.0386805 0.0386805 0) 2 2 2
(0.0128923 0.493554 0.493554 0) 1 1 2
(0.587086 0.206457 0.206457 0) 0 0 2
(0.738421 0.130789 0 0.130789) 0 624 1
(0.773873 0.113063 0.113063 0) 1 1 2
(0.471463 0.264268 0 0.264268) 2 2 1
(0.34575 0.327125 0 0.327125) 3 2 2
(0.654237 0.172881 0.172881 0) 0 0 2
(0.2509 0.37455 0.37455 0) 0 624 2
(0.861084 0.0694579 0 0.0694579) 0 0 1
(0.0907908 0.454605 0 0.454605) 3 2 2
(0.267624 0.366188 0 0.366188) 2 1 2
(0.397013 0.301493 0.301493 0) 2 2 2
(0.60755 0.196225 0.196225 0) 0 0 2
(0.937473 0.0312634 0.0312634 0) 1 1 2
(0.170394 0.414803 0 0.414803) 1 0 2
(0.752909 0.123546 0 0.123546) 2 1 2
(0.0879227 0.456039 0.456039 0) 2 2 2
(0.799499 0.10025 0.10025 0) 1 0 1
(0.0836726 0.458164 0.458164 0) 2 2 2
(0.881141 0.0594293 0.0594293 0) 0 0 2
(0.99711 0.00144482 0.00144482 0) 1 0 1
(0.588062 0.205969 0.205969 0) 1 1 2
(0.508238 0.245881 0 0.245881) 0 0 1
(0.0422536 0.478873 0 0.478873) 1 1 1
(0.0539776 0.473011 0 0.473011) 1 0 2
(0.16172 0.41914 0.41914 0) 0 624 2
(0.0590046 0.470498 0 0.470498) 3 2 2
(0.396483 0.301759 0 0.301759) 3 2 2
(0.0209803 0.48951 0 0.48951) 2 2 1
(0.60248 0.19876 0.19876 0) 1 0 1
(0.471053 0.264474 0.264474 0) 1 0 1
(0.474679 0.262661 0 0.262661) 2 1 2
(0.139868 0.430066 0 0.430066) 1 0 2
(0.245501 0.377249 0.377249 0) 1 1 2
(0.247965 0.376018 0 0.376018) 2 1 2
(0.603574 0.198213 0 0.198213) 1 0 2
(0.73666 0.13167 0 0.13167) 0 0 1
(0.252806 0.373597 0.373597 0) 0 0 2
(0.553287 0.223357 0 0.223357) 2 1 2
(0.834558 0.0827209 0 0.0827209) 1 0 2
(0.546798 0.226601 0 0.226601) 0 0 1
(0.313904 0.343048 0.343048 0) 1 0 1
(0.0106076 0.494696 0 0.494696) 1 1 1
(0.641436 0.179282 0.179282 0) 0 0 2
(0.663588 0.168206 0.168206 0) 1 0 1
(0.553184 0.223408 0.223408 0) 0 0 2
(0.489321 0.255339 0.255339 0) 3 2 1
(0.50585 0.247075 0 0.247075) 2 1 2
(0.536167 0.231917 0 0.231917) 0 0 1
(0.193004 0.403498 0.403498 0) 2 1 1
(0.181609 0.409196 0 0.409196) 2 1 2
(0.757987 0.121007 0 0.121007) 3 2 2
(0.935094 0.0324532 0.0324532 0) 3 2 1
(0.0760784 0.461961 0 0.461961) 1 1 1
(0.201204 0.399398 0 0.399398) 0 0 1
(0.554611 0.222694 0.222694 0) 2 2 2
(0.867379 0.0663106 0.0663106 0) 0 0 2
(0.131252 0.434374 0 0.434374) 2 1 2
(0.995688 0.00215612 0.00215612 0) 2 2 2
(0.498821 0.25059 0.25059 0) 1 0 1
(0.648584 0.175708 0.175708 0) 3 2 1
(0.938279 0.0308606 0 0.0308606) 1 1 1
(0.433615 0.283193 0 0.283193) 1 1 1
(0.771794 0.114103 0.114103 0) 0 624 2
(0.0734515 0.463274 0 0.463274) 1 1 1
(0.659728 0.170136 0 0.170136) 1 0 2
(0.456934 0.271533 0.271533 0) 3 2 1
(0.967558 0.0162208 0.0162208 0) 2 2 2
(0.664072 0.167964 0.167964 0) 3 3 2
(0.858922 0.0705391 0 0.0705391) 1 1 1
(0.0252361 0.487382 0 0.487382) 2 2 1
(0.524782 0.237609 0 0.237609) 0 0 1
(0.48105 0.259475 0.259475 0) 3 2 1
(0.697887 0.151057 0.151057 0) 2 1 1
(0.178834 0.410583 0 0.410583) 0 0 1
(0.938222 0.030889 0 0.030889) 3 2 2
(0.090865 0.454567 0 0.454567) 1 1 1
(0.0909306 0.454535 0.454535 0) 3 2 1
(0.65802 0.17099 0.17099 0) 0 624 2
(0.355878 0.322061 0.322061 0) 2 1 1
(0.162305 0.418847 0 0.418847) 1 0 2
(0.285087 0.357457 0 0.357457) 2 1 2
(0.862966 0.0685171 0 0.0685171) 1 1 1
(0.467736 0.266132 0.266132 0) 1 1 2
(0.347611 0.326194 0.326194 0) 2 1 1
(0.90603 0.0469851 0 0.0469851) 2 2 1
(0.207267 0.396367 0 0.396367) 3 2 2
(0.724072 0.137964 0 0.137964) 2 2 1
(0.940849 0.0295754 0 0.0295754) 2 2 1
(0.92086 0.0395698 0 0.0395698) 0 0 1
(0.274027 0.362986 0.362986 0) 2 1 1
(0.91452 0.0427399 0 0.0427399) 0 0 1
(0.645368 0.177316 0.177316 0) 0 624 2
(0.101859 0.44907 0.44907 0) 2 1 1
(0.764367 0.117816 0.117816 0) 2 1 1
(0.0200529 0.489974 0 0.489974) 0 0 1
(0.504429 0.247786 0.247786 0) 1 0 1
(0.662907 0.168546 0 0.168546) 2 2 1
(0.0111177 0.494441 0.494441 0) 1 0 1
(0.952834 0.0235832 0.0235832 0) 2 1 1
(0.550905 0.224547 0 0.224547) 0 0 1
(0.446099 0.276951 0.276951 0) 2 1 1
(0.541224 0.229388 0.229388 0) 0 624 2
(0.980871 0.00956457 0 0.00956457) 2 2 1
(0.0830188 0.458491 0.458491 0) 3 2 1
(0.57342 0.21329 0 0.21329) 1 0 2
(0.0738424 0.463079 0.463079 0) 1 1 2
(0.336986 0.331507 0 0.331507) 1 0 2
(0.828529 0.0857356 0.0857356 0) 1 1 2
(0.648068 0.175966 0 0.175966) 3 2 2
(0.523564 0.238218 0.238218 0) 1 0 1
(0.524698 0.237651 0.237651 0) 1 1 2
(0.97809 0.0109552 0 0.0109552) 2 1 2
(0.135714 0.432143 0 0.432143) 1 0 2
(0.804185 0.0979074 0.0979074 0) 1 1 2
(0.226688 0.386656 0 0.386656) 0 624 1
(0.563431 0.218284 0 0.218284) 1 0 2
(0.00902845 0.495486 0 0.495486) 2 1 2
(0.311238 0.344381 0.344381 0) 1 1 2
(0.571297 0.214351 0 0.214351) 3 3 1
(0.674895 0.162553 0 0.162553) 1 1 1
(0.424081 0.287959 0 0.287959) 2 2 1
(0.236161 0.381919 0 0.381919) 2 2 1
(0.747594 0.126203 0 0.126203) 3 3 1
(0.306024 0.346988 0 0.346988) 2 2 1
(0.473016 0.263492 0 0.263492) 1 1 1
(0.339339 0.33033 0.33033 0) 3 2 1
(0.926829 0.0365855 0.0365855 0) 1 0 1
(0.851442 0.0742789 0.0742789 0) 3 2 1
(0.480383 0.259808 0.259808 0) 3 2 1
(0.54712 0.22644 0 0.22644) 1 1 1
(0.987143 0.00642859 0.00642859 0) 0 624 2
(0.72459 0.137705 0 0.137705) 3 2 2
(0.509355 0.245323 0 0.245323) 2 1 2
(0.230587 0.384706 0 0.384706) 0 0 1
(0.067352 0.466324 0 0.466324) 3 3 1
(0.37969 0.310155 0.310155 0) 2 1 1
(0.820742 0.089629 0 0.089629) 2 2 1
(0.195689 0.402155 0 0.402155) 3 3 1
(0.0468307 0.476585 0 0.476585) 3 2 2
(0.12656 0.43672 0 0.43672) 4 3 2
(0.197873 0.401063 0.401063 0) 0 0 2
(0.144429 0.427786 0 0.427786) 1 1 1
(0.673262 0.163369 0 0.163369) 0 0 1
(0.728019 0.135991 0.135991 0) 1 1 2
(0.649537 0.175232 0 0.175232) 2 1 2
(0.878245 0.0608773 0.0608773 0) 2 1 1
(0.69049 0.154755 0 0.154755) 1 1 1
(0.93327 0.0333648 0.0333648 0) 1 1 2
(0.849429 0.0752854 0.0752854 0) 3 3 2
(0.0942435 0.452878 0.452878 0) 0 0 2
(0.49008 0.25496 0 0.25496) 3 3 1
(0.620477 0.189761 0.189761 0) 5 5 2
(0.650334 0.174833 0.174833 0) 2 2 2
(0.854822 0.0725888 0 0.0725888) 2 1 2
(0.749945 0.125028 0 0.125028) 1 0 2
(0.764034 0.117983 0 0.117983) 4 4 1
(0.72293 0.138535 0.138535 0) 1 1 2
(0.678265 0.160867 0.160867 0) 2 2 2
(0.989263 0.00536844 0 0.00536844) 0 624 1
(0.204953 0.397524 0.397524 0) 0 624 2
(0.514933 0.242534 0 0.242534) 2 1 2
(0.411734 0.294133 0 0.294133) 2 2 1
(0.795851 0.102075 0 0.102075) 1 1 1
(0.134725 0.432638 0 0.432638) 2 1 2
(0.633118 0.183441 0 0.183441) 3 2 2
(0.599323 0.200338 0 0.200338) 3 2 2
(0.285796 0.357102 0.357102 0) 1 1 2
(0.00205117 0.498974 0.498974 0) 4 4 2
(0.287755 0.356123 0 0.356123) 0 0 1
(0.254649 0.372675 0.372675 0) 4 4 2
(0.956 0.0219998 0 0.0219998) 2 1 2
(0.867892 0.0660538 0 0.0660538) 2 1 2
(0.182379 0.40881 0 0.40881) 4 3 2
(0.616841 0.191579 0.191579 0) 3 3 2
(0.486142 0.256929 0 0.256929) 3 2 2
(0.157313 0.421343 0.421343 0) 1 1 2
(0.0141106 0.492945 0 0.492945) 1 1 1
(0.919566 0.0402169 0.0402169 0) 4 3 1
(0.293051 0.353475 0 0.353475) 3 3 1
(0.26911 0.365445 0.365445 0) 1 1 2
(0.522842 0.238579 0.238579 0) 2 1 1
(0.705107 0.147447 0 0.147447) 1 1 1
(0.610312 0.194844 0 0.194844) 1 0 2
(0.757093 0.121454 0.121454 0) 1 1 2
(0.354892 0.322554 0 0.322554) 2 1 2
(0.480527 0.259736 0.259736 0) 2 2 2
(0.995584 0.00220777 0 0.00220777) 3 3 1
(0.715621 0.142189 0.142189 0) 1 1 2
(0.203829 0.398085 0.398085 0) 4 4 2
(0.419307 0.290347 0.290347 0) 2 2 2
(0.250961 0.374519 0.374519 0) 2 1 1
(0.316661 0.34167 0 0.34167) 3 3 1
(0.964388 0.017806 0.017806 0) 2 1 1
(0.617096 0.191452 0.191452 0) 1 0 1
(0.339417 0.330292 0.330292 0) 2 1 1
(0.658866 0.170567 0.170567 0) 2 2 2
(0.399558 0.300221 0 0.300221) 1 1 1
(0.426239 0.28688 0.28688 0) 1 1 2
(0.644695 0.177653 0 0.177653) 3 3 1
(0.294935 0.352533 0.352533 0) 2 1 1
(0.175278 0.412361 0 0.412361) 1 1 1
(0.121357 0.439322 0 0.439322) 2 1 2
(0.386038 0.306981 0.306981 0) 1 0 1
(0.200976 0.399512 0 0.399512) 4 3 2
(0.350973 0.324513 0.324513 0) 1 1 2
(0.202084 0.398958 0.398958 0) 1 1 2
(0.713147 0.143427 0 0.143427) 3 2 2
(0.0455907 0.477205 0.477205 0) 0 0 2
(0.48651 0.256745 0.256745 0) 1 1 2
(0.182294 0.408853 0 0.408853) 3 2 2
(0.747042 0.126479 0.126479 0) 2 2 2
(0.655962 0.172019 0.172019 0) 2 1 1
(0.624611 0.187695 0 0.187695) 3 2 2
(0.124544 0.437728 0 0.437728) 2 1 2
(0.922635 0.0386823 0.0386823 0) 0 624 2
(0.855002 0.0724991 0.0724991 0) 1 1 2
(0.933386 0.033307 0.033307 0) 2 2 2
(0.429618 0.285191 0 0.285191) 1 1 1
(0.0393617 0.480319 0.480319 0) 0 0 2
(0.00829167 0.495854 0 0.495854) 1 1 1
(0.715313 0.142344 0 0.142344) 2 2 1
(0.405428 0.297286 0.297286 0) 1 0 1
(0.309397 0.345301 0 0.345301) 2 1 2
(0.135751 0.432125 0.432125 0) 1 1 2
(0.726155 0.136923 0 0.136923) 2 2 1
(0.391406 0.304297 0 0.304297) 3 2 2
(0.749173 0.125414 0.125414 0) 4 4 2
(0.669999 0.165001 0.165001 0) 0 0 2
(0.410013 0.294993 0 0.294993) 2 2 1
(0.794378 0.102811 0 0.102811) 2 1 2
(0.0827828 0.458609 0.458609 0) 2 2 2
(0.237239 0.381381 0.381381 0) 1 1 2
(0.602875 0.198562 0.198562 0) 1 1 2
(0.112435 0.443782 0.443782 0) 2 2 2
(0.076924 0.461538 0.461538 0) 1 1 2
(0.67244 0.16378 0.16378 0) 2 2 2
(0.759011 0.120494 0.120494 0) 0 624 2
(0.515342 0.242329 0.242329 0) 3 3 2
(0.726494 0.136753 0 0.136753) 1 0 2
(0.775104 0.112448 0.112448 0) 1 0 1
(0.434189 0.282905 0 0.282905) 2 2 1
(0.580588 0.209706 0 0.209706) 2 2 1
(0.265014 0.367493 0.367493 0) 1 1 2
(0.0476519 0.476174 0.476174 0) 2 1 1
(0.215916 0.392042 0.392042 0) 2 1 1
(0.925901 0.0370497 0.0370497 0) 3 2 1
(0.488086 0.255957 0.255957 0) 2 1 1
(0.406229 0.296886 0 0.296886) 5 4 2
(0.564996 0.217502 0.217502 0) 4 3 1
(0.15571 0.422145 0.422145 0) 2 1 1
(0.198586 0.400707 0 0.400707) 1 1 1
(0.184478 0.407761 0 0.407761) 2 1 2
(0.946457 0.0267716 0.0267716 0) 2 1 1
(0.115798 0.442101 0.442101 0) 0 0 2
(0.40338 0.29831 0 0.29831) 3 3 1
(0.993006 0.00349701 0 0.00349701) 2 1 2
(0.529076 0.235462 0 0.235462) 3 3 1
(0.816143 0.0919284 0 0.0919284) 2 1 2
(0.159021 0.420489 0 0.420489) 2 1 2
(0.0169973 0.491501 0 0.491501) 2 2 1
(0.672501 0.16375 0.16375 0) 3 2 1
(0.72076 0.13962 0.13962 0) 1 0 1
(0.831133 0.0844335 0 0.0844335) 3 3 1
(0.0814849 0.459258 0.459258 0) 0 0 2
(0.424813 0.287594 0.287594 0) 1 0 1
(0.961313 0.0193434 0.0193434 0) 2 2 2
(0.243322 0.378339 0.378339 0) 3 2 1
(0.995299 0.00235051 0.00235051 0) 4 4 2
(0.0376295 0.481185 0 0.481185) 1 1 1
(0.831489 0.0842555 0 0.0842555) 3 3 1
(0.0782746 0.460863 0 0.460863) 2 2 1
(0.154746 0.422627 0.422627 0) 0 624 2
(0.0730088 0.463496 0 0.463496) 2 1 2
(0.449862 0.275069 0.275069 0) 3 3 2
(0.839735 0.0801327 0 0.0801327) 3 3 1
(0.108526 0.445737 0 0.445737) 1 1 1
(0.0698065 0.465097 0.465097 0) 3 2 1
(0.121034 0.439483 0.439483 0) 1 1 2
(0.0670019 0.466499 0 0.466499) 2 1 2
(0.881508 0.0592459 0.0592459 0) 0 0 2
(0.38138 0.30931 0 0.30931) 2 1 2
(0.966345 0.0168277 0.0168277 0) 2 1 1
(0.746397 0.126802 0 0.126802) 3 2 2
(0.738855 0.130572 0 0.130572) 1 0 2
(0.550103 0.224949 0 0.224949) 3 2 2
(0.547133 0.226433 0.226433 0) 2 2 2
(0.848607 0.0756963 0 0.0756963) 0 624 1
(0.777872 0.111064 0 0.111064) 4 3 2
(0.837468 0.0812658 0.0812658 0) 1 0 1
(0.426598 0.286701 0.286701 0) 1 0 1
(0.90318 0.0484102 0.0484102 0) 2 2 2
(0.876088 0.0619558 0 0.0619558) 2 2 1
(0.79612 0.10194 0 0.10194) 2 1 2
(0.969224 0.0153882 0 0.0153882) 3 3 1
(0.156004 0.421998 0 0.421998) 1 1 1
(0.0780697 0.460965 0.460965 0) 0 0 2
(0.429249 0.285375 0.285375 0) 3 2 1
(0.703764 0.148118 0 0.148118) 2 2 1
(0.243244 0.378378 0 0.378378) 2 2 1
(0.919156 0.0404221 0.0404221 0) 2 2 2
(0.904278 0.0478612 0.0478612 0) 1 1 2
(0.740405 0.129797 0 0.129797) 4 4 1
(0.330416 0.334792 0.334792 0) 2 2 2
(0.525246 0.237377 0 0.237377) 2 2 1
(0.176246 0.411877 0 0.411877) 3 3 1
(0.5686 0.2157 0.2157 0) 3 2 1
(0.921039 0.0394804 0.0394804 0) 3 3 2
(0.139806 0.430097 0.430097 0) 2 1 1
(0.272192 0.363904 0.363904 0) 2 1 1
(0.218821 0.39059 0 0.39059) 2 1 2
(0.0512577 0.474371 0.474371 0) 2 1 1
(0.536897 0.231552 0 0.231552) 3 3 1
(0.482981 0.25851 0.25851 0) 1 0 1
(0.310198 0.344901 0.344901 0) 3 2 1
(0.576471 0.211764 0 0.211764) 3 2 2
(0.383314 0.308343 0.308343 0) 3 2 1
(0.396255 0.301872 0.301872 0) 3 2 1
(0.317303 0.341349 0.341349 0) 1 1 2
(0.297825 0.351087 0.351087 0) 2 1 1
(0.639058 0.180471 0.180471 0) 1 0 1
(0.112577 0.443711 0.443711 0) 1 1 2
(0.813084 0.0934579 0.0934579 0) 0 624 2
(0.388622 0.305689 0 0.305689) 4 3 2
(0.244495 0.377752 0.377752 0) 0 0 2
(0.144311 0.427844 0.427844 0) 2 1 1
(0.318813 0.340594 0 0.340594) 2 2 1
(0.78871 0.105645 0 0.105645) 1 1 1
(0.827928 0.0860362 0 0.0860362) 1 1 1
(0.421888 0.289056 0 0.289056) 1 1 1
(0.668116 0.165942 0.165942 0) 2 1 1
(0.695006 0.152497 0.152497 0) 2 2 2
(0.110651 0.444675 0.444675 0) 1 1 2
(0.857379 0.0713106 0.0713106 0) 2 1 1
(0.557261 0.22137 0 0.22137) 2 1 2
(0.968758 0.0156208 0 0.0156208) 2 1 2
(0.470163 0.264919 0 0.264919) 3 2 2
(0.930954 0.0345232 0.0345232 0) 1 1 2
(0.079219 0.460391 0.460391 0) 0 0 2
(0.817601 0.0911993 0 0.0911993) 2 2 1
(0.748418 0.125791 0.125791 0) 2 2 2
(0.312462 0.343769 0.343769 0) 1 0 1
(0.726066 0.136967 0 0.136967) 1 1 1
(0.179262 0.410369 0.410369 0) 4 3 1
(0.986813 0.00659335 0 0.00659335) 3 2 2
(0.402496 0.298752 0.298752 0) 1 1 2
(0.979121 0.0104397 0.0104397 0) 3 3 2
(0.617171 0.191415 0.191415 0) 1 0 1
(0.867553 0.0662235 0 0.0662235) 2 2 1
(0.605956 0.197022 0.197022 0) 2 2 2
(0.641892 0.179054 0.179054 0) 1 1 2
(0.553832 0.223084 0 0.223084) 1 1 1
(0.567305 0.216347 0 0.216347) 1 1 1
(0.115797 0.442102 0.442102 0) 3 2 1
(0.340078 0.329961 0 0.329961) 4 3 2
(0.28868 0.35566 0 0.35566) 3 2 2
(0.905576 0.0472122 0.0472122 0) 5 4 1
(0.906107 0.0469466 0.0469466 0) 3 2 1
(0.279566 0.360217 0.360217 0) 3 2 1
(0.739854 0.130073 0 0.130073) 3 3 1
(0.468576 0.265712 0.265712 0) 4 3 1
(0.930867 0.0345666 0 0.0345666) 2 2 1
(0.450311 0.274845 0.274845 0) 2 2 2
(0.441352 0.279324 0 0.279324) 3 3 1
(0.171912 0.414044 0 0.414044) 4 4 1
(0.997348 0.00132621 0 0.00132621) 5 4 2
(0.282044 0.358978 0 0.358978) 6 5 2
(0.160148 0.419926 0 0.419926) 5 4 2
(0.905984 0.0470082 0.0470082 0) 5 5 2
(0.905475 0.0472627 0.0472627 0) 3 2 1
(0.558709 0.220645 0 0.220645) 3 3 1
(0.639726 0.180137 0 0.180137) 4 4 1
(0.796433 0.101783 0.101783 0) 2 1 1
(0.600405 0.199797 0 0.199797) 4 3 2
(0.844082 0.0779592 0.0779592 0) 4 4 2
(0.967398 0.0163011 0 0.0163011) 4 3 2
(0.905278 0.047361 0.047361 0) 2 1 1
(0.768674 0.115663 0.115663 0) 3 2 1
(0.774251 0.112875 0 0.112875) 5 4 2
(0.340474 0.329763 0 0.329763) 4 4 1
(0.719357 0.140322 0 0.140322) 2 1 2
(0.557416 0.221292 0 0.221292) 3 2 2
(0.609517 0.195241 0 0.195241) 4 4 1
(0.945616 0.0271921 0.0271921 0) 4 4 2
(0.26296 0.36852 0.36852 0) 1 1 2
(0.110602 0.444699 0 0.444699) 2 2 1
(0.720589 0.139705 0.139705 0) 3 2 1
(0.888368 0.0558159 0.0558159 0) 3 2 1
(0.850525 0.0747375 0.0747375 0) 1 1 2
(0.105071 0.447464 0 0.447464) 3 3 1
(0.469487 0.265256 0 0.265256) 3 3 1
(0.886008 0.0569962 0 0.0569962) 4 3 2
(0.20005 0.399975 0 0.399975) 4 3 2
(0.273459 0.363271 0.363271 0) 3 2 1
(0.262511 0.368745 0 0.368745) 3 2 2
(0.319781 0.34011 0.34011 0) 3 2 1
(0.197138 0.401431 0.401431 0) 4 4 2
(0.579435 0.210282 0 0.210282) 3 3 1
(0.708064 0.145968 0 0.145968) 1 0 2
(0.00293243 0.498534 0.498534 0) 2 1 1
(0.456827 0.271587 0 0.271587) 2 2 1
(0.225426 0.387287 0 0.387287) 2 2 1
(0.253332 0.373334 0 0.373334) 5 4 2
(0.698508 0.150746 0 0.150746) 2 2 1
(0.507289 0.246355 0 0.246355) 4 3 2
(0.995854 0.00207276 0.00207276 0) 5 4 1
(0.993075 0.00346266 0.00346266 0) 3 2 1
(0.0439782 0.478011 0.478011 0) 3 2 1
(0.097425 0.451288 0.451288 0) 2 2 2
(0.400038 0.299981 0 0.299981) 4 3 2
(0.769217 0.115391 0 0.115391) 4 4 1
(0.668785 0.165608 0 0.165608) 4 3 2
(0.812166 0.093917 0 0.093917) 3 3 1
(0.908532 0.0457342 0 0.0457342) 3 3 1
(0.772944 0.113528 0.113528 0) 2 1 1
(0.556447 0.221776 0.221776 0) 4 4 2
(0.413292 0.293354 0 0.293354) 2 1 2
(0.482108 0.258946 0.258946 0) 3 3 2
(0.225186 0.387407 0.387407 0) 3 2 1
(0.717128 0.141436 0.141436 0) 3 3 2
(0.64509 0.177455 0 0.177455) 1 0 2
(0.990009 0.00499546 0.00499546 0) 4 4 2
(0.696042 0.151979 0 0.151979) 5 4 2
(0.828814 0.0855932 0 0.0855932) 2 1 2
(0.738006 0.130997 0 0.130997) 3 2 2
(0.144303 0.427848 0.427848 0) 2 2 2
(0.00929359 0.495353 0.495353 0) 2 2 2
(0.0585068 0.470747 0 0.470747) 3 3 1
(0.527053 0.236474 0 0.236474) 3 2 2
(0.908815 0.0455927 0.0455927 0) 4 3 1
(0.795192 0.102404 0 0.102404) 3 3 1
(0.820054 0.089973 0 0.089973) 2 1 2
(0.35875 0.320625 0.320625 0) 1 1 2
(0.28708 0.35646 0 0.35646) 2 1 2
(0.0305668 0.484717 0.484717 0) 2 1 1
(0.0846358 0.457682 0 0.457682) 4 3 2
(0.737694 0.131153 0 0.131153) 1 0 2
(0.988447 0.00577634 0 0.00577634) 3 2 2
(0.72358 0.13821 0 0.13821) 1 0 2
(0.120536 0.439732 0.439732 0) 3 3 2
(0.648988 0.175506 0 0.175506) 3 2 2
(0.0154442 0.492278 0 0.492278) 3 2 2
(0.79927 0.100365 0 0.100365) 3 3 1
(0.666547 0.166727 0.166727 0) 2 2 2
(0.00752267 0.496239 0 0.496239) 1 1 1
(0.125794 0.437103 0.437103 0) 5 4 1
(0.144437 0.427782 0.427782 0) 3 3 2
(0.394128 0.302936 0 0.302936) 5 5 1
(0.881665 0.0591675 0.0591675 0) 2 2 2
(0.982301 0.00884935 0.00884935 0) 5 5 2
(0.963477 0.0182615 0 0.0182615) 3 3 1
(0.940405 0.0297976 0.0297976 0) 5 4 1
(0.29903 0.350485 0.350485 0) 4 3 1
(0.308124 0.345938 0 0.345938) 2 2 1
(0.060655 0.469673 0.469673 0) 4 4 2
(0.685261 0.157369 0 0.157369) 2 1 2
(0.522233 0.238884 0 0.238884) 2 1 2
(0.165872 0.417064 0 0.417064) 5 4 2
(0.77861 0.110695 0.110695 0) 4 4 2
(0.673376 0.163312 0 0.163312) 1 0 2
(0.784409 0.107795 0 0.107795) 2 2 1
(0.792327 0.103836 0.103836 0) 3 3 2
(0.335535 0.332232 0.332232 0) 3 3 2
(0.201633 0.399184 0 0.399184) 2 2 1
(0.695808 0.152096 0 0.152096) 4 4 1
(0.217992 0.391004 0.391004 0) 3 3 2
(0.278181 0.36091 0 0.36091) 4 3 2
(0.636766 0.181617 0 0.181617) 5 4 2
(0.20337 0.398315 0 0.398315) 3 3 1
(0.735883 0.132059 0 0.132059) 2 1 2
(0.90463 0.0476848 0.0476848 0) 3 3 2
(0.411902 0.294049 0 0.294049) 3 3 1
(0.196026 0.401987 0 0.401987) 3 3 1
(0.774731 0.112634 0 0.112634) 2 1 2
(0.807144 0.096428 0 0.096428) 3 3 1
(0.21294 0.39353 0 0.39353) 3 2 2
(0.453892 0.273054 0.273054 0) 3 2 1
(0.468023 0.265989 0 0.265989) 4 4 1
(0.370524 0.314738 0.314738 0) 1 0 1
(0.799139 0.10043 0 0.10043) 3 2 2
(0.771789 0.114106 0 0.114106) 4 3 2
(0.271798 0.364101 0.364101 0) 3 3 2
(0.753245 0.123377 0.123377 0) 3 2 1
(0.608051 0.195974 0.195974 0) 5 4 1
(0.488655 0.255672 0.255672 0) 4 3 1
(0.90612 0.0469402 0 0.0469402) 0 0 1
(0.824395 0.0878025 0.0878025 0) 0 624 2
(0.156873 0.421563 0.421563 0) 3 2 1
(0.392559 0.30372 0 0.30372) 1 1 1
(0.125305 0.437348 0.437348 0) 1 0 1
(0.296157 0.351921 0.351921 0) 2 2 2
(0.994597 0.00270136 0.00270136 0) 3 3 2
(0.912236 0.0438821 0 0.0438821) 1 0 2
(0.457216 0.271392 0.271392 0) 4 3 1
(0.831365 0.0843174 0.0843174 0) 2 1 1
(0.956961 0.0215194 0 0.0215194) 2 2 1
(0.539508 0.230246 0 0.230246) 3 3 1
(0.636986 0.181507 0 0.181507) 0 0 1
(0.00440481 0.497798 0.497798 0) 2 1 1
(0.516215 0.241893 0.241893 0) 4 3 1
(0.194497 0.402751 0.402751 0) 1 1 2
(0.698818 0.150591 0 0.150591) 3 3 1
(0.732511 0.133744 0.133744 0) 2 1 1
(0.00456112 0.497719 0 0.497719) 1 1 1
(0.570457 0.214771 0 0.214771) 4 3 2
(0.26663 0.366685 0 0.366685) 2 2 1
(0.761698 0.119151 0 0.119151) 3 3 1
(0.493645 0.253177 0.253177 0) 5 4 1
(0.00578393 0.497108 0.497108 0) 1 0 1
(0.409306 0.295347 0 0.295347) 2 2 1
(0.99691 0.00154516 0.00154516 0) 4 3 1
(0.796036 0.101982 0 0.101982) 3 2 2
(0.352561 0.32372 0.32372 0) 3 2 1
(0.913535 0.0432325 0.0432325 0) 5 4 1
(0.384593 0.307703 0 0.307703) 3 2 2
(0.375849 0.312076 0 0.312076) 0 624 1
(0.741001 0.129499 0.129499 0) 4 3 1
(0.567442 0.216279 0.216279 0) 3 2 1
(0.946431 0.0267845 0 0.0267845) 3 3 1
(0.175871 0.412064 0.412064 0) 2 2 2
(0.000103689 0.499948 0 0.499948) 3 2 2
(0.0426618 0.478669 0 0.478669) 3 3 1
(0.369233 0.315383 0 0.315383) 4 3 2
(0.598019 0.20099 0 0.20099) 4 4 1
(0.0144494 0.492775 0.492775 0) 4 4 2
(0.567037 0.216481 0 0.216481) 3 2 2
(0.234902 0.382549 0 0.382549) 5 5 1
(0.986495 0.00675262 0 0.00675262) 1 1 1
(0.681063 0.159469 0 0.159469) 3 2 2
(0.553515 0.223243 0 0.223243) 3 3 1
(0.919433 0.0402836 0 0.0402836) 4 4 1
(0.393106 0.303447 0.303447 0) 2 1 1
(0.411536 0.294232 0.294232 0) 4 3 1
(0.59011 0.204945 0.204945 0) 1 0 1
(0.63 0.185 0.185 0) 2 1 1
(0.363819 0.318091 0.318091 0) 3 2 1
(0.0615707 0.469215 0 0.469215) 4 3 2
(0.812992 0.0935038 0 0.0935038) 3 2 2
(0.736954 0.131523 0 0.131523) 3 3 1
(0.41203 0.293985 0.293985 0) 1 0 1
(0.340303 0.329849 0.329849 0) 3 2 1
(0.563708 0.218146 0 0.218146) 2 2 1
(0.502846 0.248577 0.248577 0) 2 2 2
(0.860095 0.0699525 0.0699525 0) 2 1 1
(0.159405 0.420297 0 0.420297) 3 2 2
(0.352249 0.323876 0.323876 0) 4 3 1
(0.0797501 0.460125 0.460125 0) 2 1 1
(0.631911 0.184045 0 0.184045) 2 2 1
(0.722933 0.138534 0 0.138534) 3 2 2
(0.899509 0.0502455 0 0.0502455) 4 3 2
(0.868344 0.065828 0 0.065828) 4 3 2
(0.147703 0.426148 0.426148 0) 3 2 1
(0.786549 0.106726 0.106726 0) 3 3 2
(0.213684 0.393158 0 0.393158) 3 3 1
(0.738609 0.130696 0.130696 0) 4 4 2
(0.787634 0.106183 0.106183 0) 2 1 1
(0.323641 0.338179 0.338179 0) 4 3 1
(0.396313 0.301844 0.301844 0) 4 4 2
(0.819156 0.0904221 0.0904221 0) 2 1 1
(0.528707 0.235647 0.235647 0) 3 2 1
(0.39798 0.30101 0 0.30101) 0 0 1
(0.127866 0.436067 0 0.436067) 3 3 1
(0.136444 0.431778 0.431778 0) 1 1 2
(0.207857 0.396071 0.396071 0) 5 4 1
(0.179079 0.41046 0 0.41046) 3 3 1
(0.666423 0.166789 0.166789 0) 3 2 1
(0.16353 0.418235 0.418235 0) 4 3 1
(0.201954 0.399023 0.399023 0) 2 1 1
(0.448474 0.275763 0.275763 0) 4 3 1
(0.47175 0.264125 0 0.264125) 2 2 1
(0.721517 0.139242 0 0.139242) 3 3 1
(0.324657 0.337672 0.337672 0) 3 3 2
(0.496945 0.251528 0.251528 0) 3 2 1
(0.439146 0.280427 0 0.280427) 4 4 1
(0.690668 0.154666 0.154666 0) 1 0 1
(0.588028 0.205986 0 0.205986) 3 3 1
(0.803902 0.0980492 0.0980492 0) 3 2 1
(0.123743 0.438129 0 0.438129) 2 2 1
(0.653959 0.173021 0.173021 0) 1 1 2
(0.306544 0.346728 0 0.346728) 2 2 1
(0.56069 0.219655 0.219655 0) 3 2 1
(0.262092 0.368954 0.368954 0) 2 2 2
(0.660892 0.169554 0 0.169554) 4 3 2
(0.963859 0.0180704 0 0.0180704) 1 1 1
(0.177448 0.411276 0.411276 0) 1 0 1
(0.60569 0.197155 0 0.197155) 2 2 1
(0.810884 0.0945581 0.0945581 0) 2 2 2
(0.168896 0.415552 0.415552 0) 1 1 2
(0.470703 0.264649 0.264649 0) 2 2 2
(0.433188 0.283406 0 0.283406) 3 2 2
(0.108937 0.445531 0 0.445531) 3 2 2
(0.940898 0.0295511 0.0295511 0) 2 2 2
(0.785414 0.107293 0 0.107293) 2 2 1
(0.458903 0.270548 0 0.270548) 2 2 1
(0.789039 0.105481 0 0.105481) 2 2 1
(0.408857 0.295572 0.295572 0) 2 2 2
(0.912357 0.0438215 0.0438215 0) 4 4 2
(0.929956 0.0350221 0 0.0350221) 3 2 2
(0.351188 0.324406 0 0.324406) 4 3 2
(0.521971 0.239015 0.239015 0) 2 1 1
(0.111402 0.444299 0 0.444299) 4 3 2
(0.0820916 0.458954 0 0.458954) 3 2 2
(0.427955 0.286022 0 0.286022) 4 3 2
(0.942463 0.0287687 0.0287687 0) 3 3 2
(0.475682 0.262159 0.262159 0) 3 2 1
(0.195159 0.40242 0.40242 0) 4 4 2
(0.264117 0.367942 0.367942 0) 3 3 2
(0.492662 0.253669 0 0.253669) 6 5 2
(0.0444803 0.47776 0.47776 0) 6 5 1
(0.00068413 0.499658 0.499658 0) 2 1 1
(0.000766442 0.499617 0 0.499617) 5 5 1
(0.628887 0.185556 0.185556 0) 5 4 1
(0.795562 0.102219 0.102219 0) 6 5 1
(0.0404549 0.479773 0.479773 0) 3 3 2
(0.64716 0.17642 0 0.17642) 5 4 2
(0.847214 0.0763932 0 0.0763932) 3 2 2
(0.388693 0.305653 0.305653 0) 5 4 1
(0.39046 0.30477 0.30477 0) 5 4 1
(0.104319 0.447841 0 0.447841) 5 4 2
(0.247866 0.376067 0.376067 0) 7 6 1
(0.334895 0.332552 0.332552 0) 5 4 1
(0.478707 0.260646 0.260646 0) 4 4 2
(0.076109 0.461946 0.461946 0) 5 5 2
(0.773228 0.113386 0 0.113386) 5 4 2
(0.508947 0.245527 0 0.245527) 5 4 2
(0.694477 0.152762 0 0.152762) 5 5 1
(0.654876 0.172562 0 0.172562) 4 3 2
(0.376658 0.311671 0 0.311671) 3 2 2
(0.329588 0.335206 0 0.335206) 4 4 1
(0.544059 0.227971 0 0.227971) 6 6 1
(0.823645 0.0881773 0 0.0881773) 3 2 2