/*--------------------------------*- C++ -*----------------------------------*\
  =========                 |
  \\      /  F ield         | OpenFOAM: The Open Source CFD Toolbox
   \\    /   O peration     | Website:  https://openfoam.org
    \\  /    A nd           | Version:  7
     \\/     M anipulation  |
\*---------------------------------------------------------------------------*/
FoamFile
{
    version     2.0;
    format      ascii;
    class       vectorField;
    location    "0.00036/lagrangian/dsmc";
    object      U;
}
// * * * * * * * * * * * * * * * * * * * * * * * * * * * * * * * * * * * * * //


30503
(
(113.696 52.4562 431.854)
(389.663 -766.523 -27.4078)
(-592.833 -460.729 -236.28)
(-338.719 -968.118 200.733)
(-1019.45 -226.152 618.07)
(244.097 -756.072 378.325)
(293.778 99.0229 187.954)
(-260.563 184.08 516.909)
(375.341 -523.794 -131.654)
(-225.327 -139.268 1337.57)
(945.605 223.71 -421.876)
(-128.523 -267.133 -48.1817)
(447.525 -539.173 -282.171)
(875.293 975.019 -606.132)
(60.8534 421.61 -340.793)
(-205.369 -320.136 -811.264)
(199.466 -440.767 89.6506)
(436.65 48.7963 -614.595)
(-696.185 42.6621 -443.939)
(418.201 -1118.75 -76.948)
(171.518 388.487 147.616)
(-107.134 -176.201 302.003)
(-115.07 697.462 -466.422)
(129.565 546.39 -236.375)
(681.305 544.016 111.638)
(673.084 -350.441 -88.1685)
(-465.966 189.593 -500.073)
(-1090.77 668.96 -253.536)
(321.077 620.072 346.529)
(503.195 -1010.44 -236.383)
(309.851 290.71 -1089.73)
(-515.082 -246.863 1279.06)
(-263.373 615.879 207.039)
(337.684 -925.323 -595.961)
(-280.246 -220.815 595.191)
(614.954 442.957 -54.217)
(-627.163 267.682 -116.706)
(-608.631 1372.14 -430.376)
(285.228 -420.837 866.415)
(-642.219 337.761 614.516)
(26.3748 -32.839 -283.872)
(-809.953 353.81 990.018)
(83.9577 -176.339 279.477)
(421.679 -399.454 -4.32424)
(609.518 -629.303 407.225)
(-45.0138 -71.709 -339.427)
(39.6325 -115.455 629.146)
(-329.66 -14.5588 924.435)
(-266.372 -754.79 -532.355)
(-45.5468 113.753 625.743)
(442.252 472.037 677.431)
(-833.676 -407.166 390.469)
(497.534 -168.746 218.866)
(-74.4993 793.134 1312.62)
(581.027 930.637 212.33)
(-79.1431 433.048 -735.06)
(322.047 -378.782 133.464)
(-290.787 19.0068 -163.296)
(-1010.96 405.397 -182.954)
(573.085 371.527 164.425)
(313.458 424.128 109.254)
(629.888 1203.25 322.203)
(342.326 -519.651 20.0603)
(-356.029 157.212 -266.25)
(274.257 376.432 -500.459)
(-258.612 423.994 -332.179)
(1261.37 403.744 -417.126)
(-381.552 241.38 -42.255)
(-1016.7 -577.537 326.538)
(220.994 -824.129 -539.812)
(-489.347 -429.022 277.558)
(-52.7418 -359.037 454.394)
(-350.267 216.37 709.458)
(176.579 274.054 -501.778)
(844.981 -11.6188 517.72)
(34.3115 -270.474 276.9)
(500.019 -175.854 78.0653)
(812.148 477.055 912.45)
(564.721 46.3629 -469.77)
(1375.63 34.6923 -606.564)
(61.2861 365.702 -292.41)
(-18.804 -435.961 -110.893)
(-516.413 -186.938 -786.162)
(1015.56 116.75 -8.45937)
(-103.687 -818.295 -936.167)
(117.482 -886.424 1356.35)
(-44.5986 259.872 465.085)
(736.482 -58.94 616.539)
(-661.751 -1146.77 85.6602)
(-163.461 691.033 -325.46)
(-354.953 13.1041 -0.853369)
(-83.9927 591.889 -857.837)
(-96.0569 705.253 61.1743)
(-291.451 142.083 -31.3125)
(-215.417 217.364 -236.447)
(-66.5457 130.283 501.535)
(370.469 -892.018 -333.48)
(-354.27 -242.482 3.35199)
(909.479 1187.87 423.123)
(566.76 215.415 -12.8017)
(-3.72553 406.415 -1168.08)
(-48.8896 265.415 594.366)
(-55.786 -544.697 -581.429)
(198.216 362.042 -1153.9)
(-180.724 610.648 -498.396)
(-220.555 509.502 -269.521)
(-340.651 -171.657 73.5644)
(-186.206 994.924 347.127)
(625.456 88.6195 -635.426)
(40.4491 -72.6545 -289.992)
(-35.9641 -396.395 -869.922)
(50.4401 6.16095 -279.063)
(-707.372 -540.901 -420.933)
(-130.393 -1104.5 -988.195)
(-628.166 413.048 486.033)
(-415.058 -1810.65 -163.576)
(-622.37 -168.833 195.365)
(-701.662 -339.696 -460.489)
(-758.909 878.538 -14.1326)
(-522.161 270.182 -77.7678)
(-370.479 -180.247 -35.5998)
(178.699 -395.285 -480.382)
(-247.715 -399.254 441.851)
(-342.107 -18.3089 -132.566)
(-398.743 612.801 565.848)
(195.062 104.748 -331.574)
(-737.027 162.707 -174.629)
(164.694 -246.447 299.766)
(-556.73 559.859 60.7374)
(248.135 199.664 -731.972)
(1065.55 -1231.72 -376.838)
(-618.118 -75.7367 -438.542)
(-275.646 -265.678 -689.353)
(-489.637 -495.023 -732.285)
(776.927 -351.74 210.739)
(-3.94173 740.801 268.671)
(461.775 357.731 -695.208)
(-98.6978 -230.837 -597.696)
(-145.719 745.285 -138.828)
(258.145 -638.813 -393.055)
(262.874 -872.082 133.11)
(-966.133 51.509 -900.291)
(-22.4192 -415.969 -699.782)
(350.044 841.194 742.428)
(-104.877 343.437 547.563)
(688.143 190.952 -240.533)
(110.106 376.558 262.3)
(361.161 -157.575 -441.001)
(-601.735 366.086 -203.563)
(1143.65 465.815 -1172.45)
(-84.4961 -95.6032 439.11)
(421.022 -847.169 -336.103)
(-349.866 -323.142 1017.21)
(418.14 1310.99 -483.754)
(-400.513 -355.799 316.342)
(386.905 204.018 555.243)
(130.726 328.307 -439.73)
(-414.376 -278.031 -246.115)
(697.453 588.094 1180.92)
(102.565 -283.487 -619.65)
(-850.597 -276.732 -10.5533)
(-26.6349 -416.47 96.3317)
(-1006.08 -131.582 -164.752)
(257.101 19.3207 808.558)
(-346.361 489.085 -1218.41)
(-359.352 35.8625 520.99)
(-467.935 775.652 -24.0464)
(191.074 351.295 109.177)
(-544.754 674.853 732.166)
(-341.37 860.419 60.1478)
(-54.9273 -251.56 135.319)
(299.871 146.558 211.8)
(-339.943 135.086 169.369)
(268.476 -107.635 281.544)
(-380.835 -493.321 -965.655)
(-810.64 -410.567 -628.364)
(-291.804 -40.9219 -142.127)
(451.398 95.7547 -513.481)
(-1047.96 -767.234 -243.482)
(-481.44 327.955 341.363)
(746.249 -939.211 60.1474)
(162.482 462.001 -59.3215)
(88.6226 -1509.29 1057.13)
(-143.973 -718.03 -190.172)
(347.952 145.391 -681.283)
(195.392 186.302 1751.8)
(205.132 323.601 -254.533)
(828.275 367.641 1233.51)
(778.27 232.053 302.337)
(-328.62 -1048.33 393.922)
(928.8 1055.58 253.719)
(525.591 -219.974 1059.76)
(-285.796 -977.469 -121.851)
(-222.902 757.213 479.896)
(-518.17 -174.295 675.057)
(-64.7268 -398.322 -483.38)
(-280.201 -756.16 -370.918)
(-1038.66 -84.1198 -487.612)
(-34.3846 190.818 -603.371)
(-1129.46 -798.231 -449.818)
(-372.486 37.5854 471.747)
(-484.741 -144.715 213.012)
(-31.8114 -905.499 -13.6263)
(54.1365 474.64 -251.574)
(-1383.66 996.518 53.3449)
(-746.455 -624.729 485.055)
(340.22 -244.468 -896.062)
(-830.832 -367.567 -395.643)
(-1127.28 -23.0735 -557.03)
(107.294 270.224 142.016)
(-400.68 377.173 -528.076)
(414.76 403.194 -126.322)
(855.548 -366.455 -89.8449)
(-348.927 54.4469 53.1842)
(-801.768 -119.229 61.8614)
(367.348 156.365 -99.3227)
(-529.271 -866.066 -109.872)
(-272.366 -336.591 1301.82)
(-608.272 388.925 555.802)
(-242.363 -1005.86 -423.02)
(72.276 179.755 -15.1236)
(177.206 826.213 90.9729)
(208.326 -107.791 -198.77)
(-564.194 -138.898 278.509)
(-280.364 201.411 335.994)
(-214.491 -277.185 -965.073)
(600.715 264.396 -446.492)
(-56.5903 340.239 -363.193)
(194.184 681.649 -56.1628)
(-227.595 369.59 -315.994)
(-95.8827 338.614 755.844)
(-478.495 182.683 -938.29)
(-466.578 -495.753 -507.798)
(-684.698 501.064 370.994)
(501.451 453.596 150.173)
(81.957 653.233 191.026)
(-352.715 510.648 -941.672)
(294.713 982.503 600.281)
(-113.244 -140.903 541.663)
(-46.0743 431.26 -845.992)
(417.058 167.639 -517.365)
(295.174 -82.1914 -538.356)
(-6.51201 -157.189 799.679)
(194.015 914.894 269.01)
(23.1539 -201.646 -48.575)
(147.298 648.159 -27.2574)
(280.56 -576.89 290.033)
(769.254 -258.299 -1099.31)
(-291.813 147.536 657.337)
(-533.438 -161.388 58.147)
(-198.344 -205.431 639.097)
(151.459 1099.86 56.3648)
(761.513 764.703 920.23)
(199.464 -650.491 70.7621)
(826.136 -136.816 252.725)
(-38.5311 525.232 -292.379)
(-404.936 -168.242 -131.233)
(138.159 -527.032 46.57)
(630.413 -214.439 668.529)
(211.757 -320.194 194.436)
(247.511 411.136 -436.57)
(191.323 -1450.68 -235.607)
(-1138.84 -446.638 -1031.79)
(-400.572 176.073 365.042)
(227.259 -277.956 -362.31)
(237.199 -404.375 82.6482)
(588.812 -756.109 -312.987)
(-205.968 -198.674 185.427)
(193.545 483.36 -898.542)
(-427.577 898.818 -323.409)
(-452.745 -540.282 -963.415)
(290.566 -1072.65 -870.597)
(-823.024 183.42 627.24)
(-1500.05 -736.539 -413.037)
(68.7309 -155.531 392.352)
(55.452 -376.683 384.305)
(-1019.28 64.9144 -549.906)
(-836.178 557.034 -618.969)
(-199.928 97.3946 245.633)
(357.735 268.077 580.946)
(-749.031 188.653 -51.1154)
(-340.189 147.927 106.992)
(-544.102 565.002 -195.931)
(-340.813 -454.222 -79.5087)
(354.057 -534.618 -114.65)
(139.481 -196.912 113.854)
(56.4394 206.948 -19.5528)
(-302.434 811.927 -187.544)
(172.618 -529.302 -500.476)
(56.5812 240.936 -197.924)
(168.865 563.75 -393.184)
(-552.371 72.3923 300.132)
(-650.016 -814.808 -617.156)
(-390.564 678.6 -544.605)
(-230.47 872.276 776.717)
(580.8 141.991 75.1322)
(-296.853 -952.611 165.407)
(705.424 -385.167 -43.142)
(-768.002 91.7054 193.06)
(543.878 40.5877 104.501)
(647.409 -222.215 -327.945)
(1021.6 0.0940072 199.908)
(-608.352 -393.79 -162.693)
(436.308 524.291 -733.781)
(105.871 1305.95 671.923)
(457.67 -192.653 416.156)
(349.887 -730.263 269.313)
(-678.846 162.55 -328.531)
(-1148.14 452.51 22.6793)
(-336.226 -700.257 -295.578)
(130.266 189.73 207.876)
(323.426 -300.568 60.1321)
(-369.322 892.511 575.433)
(-373.146 -290.48 1520.13)
(-272.012 -35.2234 -184.866)
(734.827 201.425 -403.353)
(416.051 -88.8512 645.619)
(-82.7003 805.791 -232.08)
(713.52 133.948 28.1252)
(-1299.05 -942.397 429.836)
(-710.078 376.984 396.117)
(2.69566 -875.486 468.327)
(823.326 3.48488 338.181)
(748.926 441.843 -787.881)
(430.343 -57.5162 -108.242)
(-69.6611 733.852 333.777)
(837.013 1231.79 156.803)
(-204.864 608.809 242.535)
(-628.342 -395.218 394.577)
(503.385 1253.89 -239.664)
(170.347 139.532 -541.721)
(-721.311 1017.06 -109.489)
(-10.1616 -192.73 195.034)
(231.737 225.264 660.208)
(-753.131 406.842 -418.244)
(-561.118 -641.932 -781.045)
(166.001 -374.124 -293.655)
(-448.436 -302.585 -672.583)
(-310.335 -78.6751 1033.04)
(-207.676 779.66 125.68)
(-419.871 98.0169 -405.813)
(240.242 -603.427 -93.4039)
(-109.06 559.902 606.221)
(-9.3407 -454.281 179.404)
(73.1809 75.4951 -43.1383)
(936.569 255.55 -574.731)
(794.581 -442.984 186.273)
(211.665 391.394 346.512)
(-751.129 -983.083 -126.282)
(230.595 -466.003 -1001.99)
(80.7157 386.204 -710.341)
(-196.175 -901.797 -229.77)
(-525.692 -12.5577 193.167)
(552.315 -209.164 -284.259)
(-120.409 19.9629 -666.233)
(-172.552 15.1039 395.446)
(-706.796 565.248 -298.569)
(-286.949 -679.089 -688.651)
(275.948 152.48 -548.215)
(358.446 -277.679 -290.731)
(415.366 -603.086 297.857)
(-396.712 -838.784 364.518)
(-392.546 -308.115 -104.664)
(-1123.65 210.818 46.5468)
(202.006 330.07 502.293)
(-153.787 349.002 50.0027)
(457.841 -625.566 449.538)
(-100.367 -304.968 -129.366)
(-140.044 226.593 -178.442)
(-69.5957 -496.234 291.245)
(615.338 149.464 -197.986)
(35.6388 417.461 -671.734)
(453.371 579.814 -847.093)
(-341.831 -580.305 530.546)
(724.344 -80.3908 -447.083)
(-556.394 67.2024 490.697)
(-340.187 112.7 235.564)
(947.339 510.252 457.191)
(569.7 462.946 378.425)
(232.396 -303.427 -401.458)
(-27.4375 474.31 -180.053)
(-253.5 37.0935 -230.322)
(457.086 -395.251 311.356)
(-539.581 -204.945 -208.687)
(-704.32 -582.513 -888.354)
(162.92 677.948 -220.297)
(-309.681 423.943 870.852)
(579.457 -226.566 257.292)
(-142.781 734.732 454.816)
(383.948 122.839 295.401)
(1081.74 62.4009 193.857)
(406.814 -222.169 -566.719)
(-265.704 666.738 -382.49)
(225.679 820.126 67.3192)
(-22.957 -553.059 757.959)
(-697.945 -419.088 -239.088)
(40.2338 -665.843 325.101)
(252.284 -994.643 369.736)
(436.65 -128.2 -66.4489)
(276.358 159.853 221.333)
(-305.397 -116.232 395.634)
(865.612 -644.31 -97.0515)
(254.286 -669.957 88.604)
(-290.496 -129.98 336.899)
(125.93 367.537 -150.576)
(792.151 73.2995 325.798)
(-610.112 59.2031 -191.794)
(820.409 281.559 59.2178)
(-32.3375 202.142 -1111.94)
(-155.049 -181.311 -47.1908)
(306.719 -499.906 101.874)
(729.091 -386.583 357.208)
(-183.722 -998.801 86.0855)
(-1062.7 441.827 277.268)
(-92.7458 -245.991 527.606)
(-533.563 58.7549 -192.218)
(135.378 50.1824 366.209)
(-156.105 897.751 825.887)
(609.039 -92.7734 1142.04)
(246.837 843.273 517.801)
(-318.713 1414.54 371.654)
(-720.652 644.69 499.033)
(540.239 -254.468 -705.242)
(-375.387 -751.734 -5.87919)
(253.07 225.594 -1111.21)
(45.3425 -169.544 -349.676)
(25.4216 -328.646 -380.569)
(192.646 -1.84727 -307.087)
(-305.151 -491.412 -303.907)
(53.2039 908.685 552.89)
(-514.602 108.501 -648.591)
(-402.125 273.037 644.484)
(307.807 11.7984 -368.167)
(-852.806 215.421 26.524)
(-410.509 233.224 -1497.93)
(-150.247 63.1456 -1110.01)
(1012.93 -289.219 -658.653)
(222.957 1184.92 402.404)
(-145.54 -660.044 -264.505)
(-244.849 -668.998 1154.19)
(230.504 -376.842 -165.053)
(213.201 77.5614 1018.62)
(302.54 -42.3571 -525.615)
(152.564 -1328.73 195.808)
(429.125 -106.262 -380.367)
(453.928 -110.33 245.021)
(955.046 693.773 -407.369)
(-518.991 916.287 497.322)
(-199.376 -1320.8 276.276)
(574.013 -117.649 48.3671)
(24.1143 -873.713 -87.0432)
(-172.844 37.6004 -246.957)
(-411.871 -50.4429 -519.023)
(-386.698 -777.412 360.605)
(-382.449 722.575 -518.115)
(-174.313 919.764 140.668)
(530.342 329.407 565.741)
(-218.276 -442.167 539.387)
(-187.704 31.6803 692.748)
(-315.431 -967.432 102.535)
(-332.142 -402.669 -188.646)
(-359.431 171.057 -0.63913)
(335.713 -31.4634 469.253)
(0.297828 340.467 125.279)
(1042.77 928.242 9.55002)
(-194.185 91.3818 -706.174)
(444.883 -1133.49 543.916)
(-464.607 308.097 350.715)
(779.106 827.684 703.282)
(749.185 -134.605 339.777)
(-260.057 131.467 -1021)
(389.985 332.148 334.139)
(-836.46 1339.74 -87.9918)
(-940.634 349.789 215.724)
(523.553 -266.427 765.047)
(175.656 -24.574 -1316.14)
(205.753 -27.5356 -355.033)
(426.424 -485.347 576.584)
(-429.114 240.725 -819.148)
(-533.059 60.7093 704.543)
(219.329 -135.013 -522.225)
(399.565 -294.001 -1093.37)
(-361.455 612.452 749.441)
(285.649 96.4353 591.745)
(-307.713 211.993 360.976)
(505.547 211.225 89.8602)
(-897.497 -507.044 -268.156)
(-790.079 -134.433 -520.653)
(-972.838 -227.342 142.653)
(446.713 310.532 353.852)
(35.2247 -244.659 308.762)
(-722.879 32.4203 923.156)
(296.608 132.301 912.988)
(314.245 284.817 203.39)
(31.9194 -146.128 221.331)
(346.297 -376.593 -582.819)
(-601.737 129.171 -524.329)
(586.872 1035.07 -734.77)
(-215.612 154.536 607.089)
(308.986 95.223 355.563)
(298.538 712.782 371.314)
(214.849 -199.512 112.165)
(138.048 -110 961.308)
(188.515 -368.176 -142.473)
(-229.517 744.477 291.085)
(-649.205 -56.4869 -254.965)
(-178.762 -214.952 917.115)
(-17.887 -677.761 957.87)
(94.0347 291.776 -59.2628)
(191.097 -1092.04 -44.678)
(792.594 68.5261 -147.93)
(107.946 199.65 497.042)
(-888.3 -3.28555 -82.0596)
(-867.143 -320.271 -517.768)
(-348.908 543.004 584.827)
(1153.72 322.981 408.464)
(-181.422 1209 115.619)
(766.99 26.2215 62.1182)
(-965.694 -355.456 886.432)
(-278.204 -393.266 1368.61)
(109.555 382.048 3.55021)
(-90.1652 172.119 54.0032)
(-183.517 -630.718 -985.022)
(647.266 -215.962 -52.5342)
(-1048.4 -239.763 -295.821)
(91.9846 707.816 975.337)
(2.95438 199.809 -107.481)
(546.16 34.1569 -1126.86)
(306.079 -322.046 638.515)
(432.737 244.341 -337.229)
(161.005 -362.968 -199.146)
(142.401 115.082 -96.3128)
(-510.438 -255.368 -835.206)
(-0.463181 272.885 -292.494)
(-289.428 594.211 536.037)
(29.085 47.9569 -37.6779)
(-354.362 -21.983 -437.461)
(-50.4821 -9.14577 1158.34)
(-304.203 705.312 -147.306)
(-331.958 858.809 -377.085)
(-1135.26 32.8614 682.805)
(-189.263 787.202 -353.387)
(145.622 -660.524 14.6099)
(-1337.21 75.1176 -335.999)
(-637.332 10.3326 626.162)
(19.6553 -329.526 -577.882)
(-336.998 -469.658 -44.179)
(1188.49 -500.056 -1094.31)
(-543.146 412.893 -465.57)
(-455.248 -47.9045 -507.019)
(-529.258 -136.564 209.78)
(-127.765 611.833 61.6649)
(-252.915 659.484 -933.422)
(542.571 481.448 -202.08)
(643.473 503.271 252.105)
(-1308.14 -188.311 -803.081)
(243.213 142.983 247.776)
(-351.578 447.653 -2.8114)
(301.463 288.123 -68.3413)
(84.2682 46.4078 -609.048)
(-185.964 -0.683965 -536.587)
(242.853 -600.187 -194.908)
(-75.1069 -376.548 -273.373)
(13.268 -635.011 523.624)
(-128.608 104.52 397.315)
(-613.596 -833.493 957.727)
(-141.079 -582.096 -138.749)
(-697.359 -369.884 506.598)
(179.578 300 1184.15)
(788.398 -554.736 413.027)
(-94.2313 176.034 242.573)
(-925.903 -8.63902 234.989)
(-749.905 -341.248 856.257)
(-537.131 6.24441 -220.968)
(-315.825 -1272.59 597.911)
(257.394 876.327 -1183.36)
(26.5879 315.73 52.8821)
(-220.721 465.777 -1587.54)
(-738.545 308.06 -367.637)
(132.367 97.6209 -120.423)
(195.235 -361.04 1158.86)
(-621.989 -339.47 436.714)
(359.403 -516.322 -350.802)
(-635.742 -107.847 109.994)
(-362.94 530.62 470.12)
(451.341 -155.061 229.312)
(-818.583 -163.305 -243.822)
(11.8394 466.669 46.572)
(-223.962 -624.351 -77.4407)
(-11.9461 337.347 -237.54)
(655.107 179.618 -281.08)
(543.504 814.464 348.087)
(119.397 560.432 -111.749)
(83.3649 592.002 52.1377)
(-623.774 571.225 23.6818)
(-4.92985 1033.22 1098.54)
(701.452 214.505 787.334)
(-192.075 -206.207 166.106)
(379.116 -131.457 -679.334)
(388.415 -808.753 -104.077)
(1088.24 94.0026 999.996)
(127.592 -260.082 -308.965)
(248.772 799.234 352.129)
(853.094 563.378 -366.439)
(-617.329 -258.252 -367.842)
(493.771 1109.98 1100.71)
(287.604 541.457 120.306)
(-8.39962 682.663 -129.895)
(-450.02 145.819 -441.143)
(-348.284 1234 918.031)
(-145.543 -348.967 -48.8621)
(-88.969 -235.201 -653.281)
(-103.675 373.159 -226.05)
(129.315 113.599 -38.462)
(440.375 -310.989 -299.593)
(-99.3166 -25.4196 -161.821)
(793.923 220.769 -227.888)
(96.3722 729.418 45.3231)
(-135.639 104.224 -548.167)
(142.845 415.998 523.729)
(-416.55 -262.224 -132.7)
(-684.305 -671.969 321.733)
(-340.88 -20.3902 -219.357)
(-473.708 136.324 481.257)
(115.214 -558.622 316.795)
(-42.042 -141.923 403.413)
(12.9773 656.199 -1171.61)
(424.109 311.441 237.169)
(134.899 -462.187 426.167)
(-480.214 1025.52 -766.655)
(163.49 -238.34 -781.583)
(-235.429 -1.51744 329.472)
(816.838 -134.371 -317.502)
(-54.0801 -188.578 242.632)
(231.459 465.586 -223.096)
(-62.2606 -524.158 -647.439)
(187.565 -928.053 375.18)
(42.8578 -726.234 325.887)
(-676.526 362.099 483.124)
(-1081.55 357.316 100.146)
(-741.929 -105.924 -453.347)
(536.743 -464.161 190.89)
(-141.547 -242.9 -790.881)
(-476.082 115.506 1021.82)
(-714.436 348.712 1.2783)
(37.9826 717.914 599.643)
(-581.962 610.772 -454.57)
(-245.663 503.332 -682.645)
(-387.619 194.269 -481.547)
(-348.156 -125.677 1020.87)
(653.501 -139.462 -525.994)
(-413.679 -203.606 502.727)
(-436.968 -206.634 444.481)
(-812.362 463.572 -778.897)
(166.884 -296.144 923.15)
(322.62 -860.577 -87.4176)
(-571.659 752.426 379.358)
(267.543 -322.484 -486.597)
(430.879 302.345 -1298.2)
(374.547 -169.438 133.262)
(-74.366 -169.734 -980.429)
(-476.873 -60.6342 167.336)
(-68.2998 623.861 -70.4393)
(-271.528 1174.99 -1396.1)
(917.776 -487.961 847.016)
(-21.1824 -112.28 -13.9329)
(-88.9707 -326.676 -864.408)
(257.868 -449.208 -641.926)
(330.98 322.734 339.509)
(36.1599 -347.527 100.566)
(300.391 536.053 51.4469)
(931.026 306.109 483.254)
(-58.8581 -558.572 -552.655)
(-835.153 747.723 -497.488)
(-269.785 706.319 -173.94)
(-1190.07 52.748 752.037)
(-22.3234 -488.43 450.722)
(555.697 100.713 546.604)
(19.1102 -93.6858 484.83)
(-294.917 -360.075 -368.379)
(-59.9774 -511.809 -855.54)
(248.239 322.81 -169.419)
(526.245 742.981 261.539)
(1073.38 251.334 -50.0511)
(-1149.3 20.1501 318.49)
(574.12 370.99 -162.93)
(237.935 335.944 96.9842)
(-318.061 150.135 438.018)
(-582.13 -151.897 383.615)
(-832.483 283.97 423.251)
(-88.1053 274.13 216.129)
(-20.697 -1077.29 -21.1775)
(727.878 538.448 144.909)
(-1730.83 715.565 80.5296)
(393.139 73.3902 89.6249)
(-448.238 56.2417 -601.196)
(287.794 198.643 -578.621)
(148.177 903.044 -326.8)
(-608.873 187.655 303.303)
(436.761 -476.908 979.712)
(712.339 -593.78 861.29)
(-220.709 784.157 -357.485)
(105.137 -222.716 -612.954)
(592.493 196.145 -469.606)
(601.179 46.5307 980.975)
(-481.638 625.662 -281.684)
(1.27065 213.2 89.3339)
(-709.925 191.859 464.715)
(1208.67 -995.453 -364.858)
(578.226 -208.04 -202.988)
(379.285 -599.411 206.142)
(-448.936 -533.838 -693.446)
(-707.973 -145.968 175.9)
(375.567 589.352 500.477)
(-320.615 1666.85 -621.868)
(-19.868 -139.602 -110.985)
(-70.5619 533.521 78.9074)
(1117.22 788.19 -66.9984)
(-42.6773 445.662 -893.146)
(-215.815 -608.426 -545.252)
(-624.723 -254.751 77.3096)
(232.851 482.503 -694.202)
(-87.1057 330.71 491.473)
(45.399 339.598 -204.692)
(470.407 -724.541 483.564)
(717.435 391.115 -878.316)
(67.2519 -512.286 -347.802)
(-157.657 -256.339 270.267)
(304.754 -16.9519 123.23)
(322.855 -1497.07 -214.968)
(971.373 445.973 225.837)
(-481.886 398.838 76.2342)
(1085.07 -446.811 580.178)
(-13.5032 983.272 1056.01)
(-626.784 633.969 363.661)
(-465.098 438.34 -140.851)
(966.274 -414.311 208.942)
(-123.385 23.6549 1140.63)
(128.064 -498.879 758.064)
(722.438 502.28 -148.969)
(-96.288 673.232 205.4)
(-259.376 318.755 -385.284)
(767.622 204.385 -117.176)
(306.675 515.289 -175.832)
(-119.497 -429.46 11.8978)
(174.196 -985.849 -141.739)
(1007.22 -306.902 458.952)
(1147.61 -406.957 -336.671)
(150.456 -637.859 -161.886)
(-847.41 -576.629 604.914)
(896.674 316.574 555.052)
(-852.885 1038.53 -769.694)
(-433.239 -223.733 648.868)
(647.245 506.638 -580.619)
(333.299 81.0103 66.7354)
(525.768 -169.627 -470.365)
(-1196.65 -369.161 597.232)
(305.669 -470.686 -41.8473)
(243.076 1351.32 110.967)
(-329.038 13.5455 233.915)
(401.209 -610.58 705.407)
(133.064 -650.043 86.5283)
(-745.56 140.04 -653.893)
(-548.651 -84.2291 401.197)
(420.242 300.391 256.723)
(-26.9059 383.468 -58.4143)
(223.015 -155.265 -539.266)
(694.807 -290.416 -413.505)
(619.7 366.715 -322.102)
(420.053 -309.55 224.557)
(577.72 -1169.71 908.518)
(-144.009 -358.553 775.707)
(107.587 -513.532 -504.83)
(-20.501 151.241 581.035)
(263.642 502.931 -974.477)
(-356.725 304.949 -198.542)
(357.951 -291.483 532.341)
(-214.745 -923.667 -152.788)
(-17.0923 -995.43 -219.801)
(-68.735 99.7135 1074.58)
(462.506 -124.266 349.294)
(-354.272 348.691 636.975)
(350.664 -26.2917 -488.37)
(154.572 -708.948 -157.749)
(1139.25 -459.388 -342.627)
(764.272 -96.5422 124.913)
(186.074 496.295 60.8388)
(-124.743 472.63 -63.4125)
(474.631 -550.99 -750.082)
(-393.651 211.743 553.475)
(-559.465 1333.08 -254.409)
(481.426 132.328 370.907)
(421.754 1177.39 344.901)
(-591.321 0.821546 -286.957)
(-815.882 473.819 -443.821)
(918.724 619.894 -954.038)
(-80.4069 699.521 -566.609)
(-322.175 246.062 -596.859)
(-171.004 57.6685 295.956)
(30.2222 416.193 -848.37)
(-354.385 -187.146 293.624)
(170.294 -728.346 626.5)
(503.25 -752.862 355.509)
(-401.216 -250.645 -662.958)
(374.502 120.787 74.7497)
(334.122 -791.593 369.659)
(654.69 -319.431 -1039.8)
(480.332 53.8555 877.986)
(-415.626 148.633 184.683)
(518.193 1052.56 607.003)
(-1280.16 105.521 188.223)
(480.688 -192.129 -730.884)
(-495.271 182.154 208.621)
(-198.313 607.594 132.552)
(-292.239 264.736 517.976)
(-503.257 -473.998 -177.578)
(287.911 444.933 498.461)
(379.301 -1004.09 -61.1616)
(604.216 -53.9679 871.814)
(-604.226 611.371 -540.176)
(-131.502 -42.4987 -683.806)
(544.877 -1085.04 253.061)
(-230.502 -261.862 327.785)
(564.77 -31.2062 -299.946)
(-49.868 270.661 749.301)
(128.496 95.3712 -776.664)
(881.854 -451.367 211.972)
(-275.765 -532.644 -619.056)
(909.552 281.423 -217.432)
(445.03 -361.07 692.379)
(-105.179 525.832 505.507)
(-33.8587 -239.613 51.7872)
(107.323 -276.878 -292.835)
(-591.187 266.161 -614.717)
(81.9373 235.035 213.079)
(-50.5776 209.318 112.986)
(-461.667 -322.725 -188.207)
(923.271 189.757 -174.414)
(-286.201 324.536 320.301)
(487.669 -328.953 884.887)
(-1140.86 -909.726 -452.117)
(-506.222 960.651 177.573)
(-338.762 -250.677 9.1508)
(-50.9306 568.787 -229.27)
(-21.7316 -911.881 -210.172)
(384.178 644.701 522.703)
(-470.835 -84.8806 -894.26)
(88.154 -409.1 -237.246)
(-643.507 742.875 262.374)
(259.506 -427.319 -431.204)
(-1028.73 -13.7114 313.503)
(666.281 286.019 793.672)
(653.571 314.439 618.277)
(1058.26 375.157 -577.551)
(291.616 -880.952 -129.174)
(505.232 407.022 522.347)
(-106.047 -113.487 525.474)
(-485.745 818.02 432.275)
(223.449 -385.893 126.798)
(13.6624 -1017.28 752.236)
(722.771 432.178 -350.418)
(-107.136 -268.309 998.607)
(-203.313 -48.3616 314.809)
(-126.359 -717.339 -529.845)
(-978.247 -614.664 11.1162)
(-278.523 262.12 -369.587)
(-30.3981 319.304 -445.811)
(-38.3961 -245.495 456.521)
(468.927 940.422 -539.225)
(-765.285 -16.3844 -171.683)
(62.5667 -84.5779 245.261)
(-389.581 -84.9261 -76.7539)
(-1223.17 -963.806 -573.18)
(110.158 486.286 -33.1687)
(1246.63 270.983 -90.1539)
(844.404 454.572 -155.342)
(-847.674 414.41 206.807)
(24.5223 319.113 -192.675)
(1220.37 -194.703 -82.3557)
(22.0633 303.331 667.424)
(506.59 -689.654 -1217.51)
(116.608 298.36 -831.489)
(15.4934 -7.84981 41.9598)
(291.195 -794.261 404.46)
(229.33 209.179 -319.221)
(523.866 -163.026 484.481)
(223.757 11.7528 -358.253)
(473.075 -1214.74 -651.067)
(-1101.61 201.519 -523.453)
(102.687 327.656 624.758)
(500.747 395.452 -40.6518)
(-50.4789 285.144 -130.039)
(-421.06 1058.46 -189.535)
(86.3108 -32.9524 -721.129)
(14.6704 -208.417 745.456)
(-1496.64 -593.528 531.863)
(71.9404 -165.37 372.496)
(3.18743 -839.611 113.208)
(-384.798 379.568 272.787)
(154.416 -490.543 -581.387)
(746.74 694.183 204.084)
(-305.324 -67.6009 878.394)
(54.8039 -100.572 179.252)
(108.994 245.556 468.623)
(-276.146 45.1625 396.649)
(-165.449 743.345 -245.468)
(-492.385 201.023 -399.479)
(99.3805 348.482 288.237)
(656.202 -158.777 -1195.81)
(-1510.34 -678.832 783.658)
(-408.474 -490.647 372.872)
(1280.02 426.621 -920.679)
(485.67 -522.628 289.14)
(-200.314 -636.573 -212.015)
(-506.735 285.039 539.771)
(77.2231 -379.885 437.962)
(384.173 -313.63 371.553)
(-404.944 -4.84761 -387.573)
(-65.3845 152.508 566.562)
(-115.351 -12.6977 459.737)
(-1.892 -87.2023 -630.964)
(160.152 -117.719 248.115)
(581.435 -578.5 12.0012)
(-168.756 -398.14 -238.342)
(-349.029 53.7694 35.6515)
(143.948 -411.518 413.722)
(-418.504 -162.566 422.503)
(-953.254 872.438 -390.994)
(220.837 401.432 319.977)
(-792.945 389.614 -187.799)
(-464.772 329.041 705.113)
(414.234 692.786 -106.064)
(-886.321 -883.855 91.8991)
(-31.1339 -102.021 301.342)
(-983.263 177.241 -844.425)
(-171.35 -111.759 253.45)
(-745.928 -282.53 996.915)
(-86.1961 899.045 322.108)
(1174.38 -927.292 -690.333)
(240.7 400.716 -491.222)
(-270.925 825.01 361.457)
(-329.682 2.69812 -197.179)
(637.812 174.706 704.177)
(-309.978 615.938 217.626)
(-338.67 827.161 -302.139)
(323.513 -885.88 384.214)
(660.931 11.6234 -127.009)
(-173.082 -46.4014 328.416)
(-134.625 360.276 509.696)
(197.655 -70.7479 -696.136)
(1096.66 -405.65 -16.0891)
(-0.136057 50.2635 -139.316)
(1116.18 595.888 362.193)
(440.567 -41.5687 299.21)
(385.716 -351.29 72.023)
(122.24 542.05 -944.402)
(141.036 41.6724 18.1494)
(-576.81 -474.567 343.673)
(89.2727 649.638 425.962)
(-504.889 621.26 -128.43)
(-39.1772 713.605 580.489)
(-408.813 -643.208 974.174)
(-233.018 -75.4256 -545.313)
(-509.001 -422.731 -105.433)
(-73.3884 -774.347 -328.774)
(-249.889 -891.298 -74.9231)
(605.63 -851.652 -499.044)
(1307.64 -467.596 558.25)
(-817.931 1037.26 -407.715)
(-426.359 866.993 -222.021)
(-468.672 -94.7069 -1160.39)
(-270.455 751.412 135.564)
(342.763 61.9076 457.5)
(-650.365 -103.503 -203.186)
(189.461 -155.774 -233.015)
(-167.132 -1002.82 221.232)
(-483.411 1060.52 388.343)
(-798.403 -223.897 219.539)
(391.458 -170.129 -264.515)
(-322.786 26.7575 -285.329)
(661.657 -136.439 -834.051)
(42.6101 -345.253 -1152.97)
(-644.093 -430.893 -1044.87)
(-473.65 220.951 -325.19)
(324.676 549.481 -10.9307)
(1740.56 104.376 -335.973)
(-426.426 -984.954 529.177)
(390.554 -17.2038 222.93)
(-142.259 252.294 338.731)
(95.6181 -365.925 -1267.29)
(-224.608 -66.5743 -43.2892)
(-1032.47 -209.512 -621.158)
(-188.171 -320.393 924.762)
(-529.021 418.398 345.495)
(-304.059 351.581 541.124)
(-1596.05 -47.9028 -274.591)
(88.8737 -456.452 -77.0888)
(-141.932 113.216 -41.4279)
(525.671 -106.489 427.203)
(-159.918 292.494 -754.859)
(-219.937 144.036 510.57)
(395.884 -1119.71 -912.197)
(-159.567 -676.21 500.536)
(465.602 633.812 174.503)
(-231.563 -967.602 -397.876)
(523.112 323.728 157.939)
(154.472 -167.802 1.53346)
(-515.237 -778.065 45.6088)
(644.257 585.728 1072.82)
(-267.684 -559.156 443.732)
(-607.936 -711.135 845.72)
(-273.233 13.4755 221.105)
(-11.8031 -155.446 463.15)
(-237.835 -829.836 -310.232)
(30.9818 630.263 103.853)
(356.636 -325.362 1021.59)
(-505.267 194.803 -206.586)
(-222.252 4.49616 -9.29903)
(280.343 962.961 274.81)
(-305.316 808.052 -630.456)
(272.424 464.576 414.861)
(-565.87 209.637 4.00936)
(172.619 -231.542 412.933)
(187.117 -357.841 561.043)
(143.564 -318.252 113.943)
(-403.39 590.07 650.895)
(-436.976 61.7781 692.717)
(-521.27 138.798 -456.993)
(1094.5 -606.844 532.922)
(240.092 -185.673 419.383)
(-858.624 271.53 367.49)
(813.608 741.333 605.36)
(924.865 -1044.02 -426.682)
(-139.4 439.165 1207.82)
(66.1108 -559.058 362.298)
(690.06 -712.034 -114.688)
(335.439 -47.0882 -463.297)
(-971.143 537.118 157.527)
(-952.565 -160.232 657.409)
(-136.087 880.418 148.886)
(-167.835 -181.017 892.683)
(1265.49 -410.232 -364.591)
(-84.439 588.972 -661.991)
(113.499 352.859 109.28)
(-338.168 60.2482 804.774)
(610.811 156.429 -404.098)
(-725.051 78.5429 -382.048)
(-300.569 692.808 243.029)
(811.398 620.471 -213.271)
(-96.0564 -652.817 399.651)
(-721.79 -573.458 -342.9)
(-94.6614 364.164 654.22)
(-431.882 -113.296 284.224)
(-130.759 -105.972 1613.83)
(473.658 -514.922 25.5278)
(1214.81 -29.5897 -171.674)
(-40.9925 246.215 374.918)
(-451.632 -55.5861 -360.25)
(12.3953 -313.729 -735.702)
(-727.714 239.759 -55.203)
(107.364 723.048 -533.678)
(44.5724 737.406 -206.814)
(-47.3102 -353 163.723)
(101.208 -301.838 -57.2832)
(-813.204 -229.177 20.3063)
(-53.249 -325.987 551.222)
(542.593 123.545 -705.596)
(247.863 49.0072 121.298)
(-85.7244 -54.8223 -643.587)
(541.328 421.926 -885.291)
(-548.698 -546.803 -86.5159)
(65.605 692.223 352.147)
(321.381 -845.31 264.743)
(-48.104 240.663 21.7718)
(-2.48153 639.604 -750.112)
(-710.441 566.474 353.244)
(463.165 254.358 528.391)
(-513.343 579.838 -61.4115)
(-77.5363 366.31 -172.09)
(-1036.62 -273.807 525.733)
(-1787.58 -123.832 -277.593)