/*--------------------------------*- C++ -*----------------------------------*\
  =========                 |
  \\      /  F ield         | OpenFOAM: The Open Source CFD Toolbox
   \\    /   O peration     | Website:  https://openfoam.org
    \\  /    A nd           | Version:  7
     \\/     M anipulation  |
\*---------------------------------------------------------------------------*/
FoamFile
{
    version     2.0;
    format      ascii;
    class       volScalarField;
    location    "0.00144";
    object      linearKE;
}
// * * * * * * * * * * * * * * * * * * * * * * * * * * * * * * * * * * * * * //

dimensions      [1 -1 -2 0 0 0 0];

internalField   nonuniform List<scalar> 
125
(
709.68
754.4
822.191
717.328
953.699
934.587
834.45
828.786
913.36
961.412
813.862
832.878
916.977
801.103
852.858
698.059
906.458
857.945
793.748
718.453
737.208
933.433
987.365
754.543
661.186
877.416
675.995
846.26
825.58
707.694
868.426
780.632
781.387
656.557
891.351
840.718
758.53
741.538
800.86
670.975
884.317
813.131
817.495
845.695
825.853
843.672
877.113
780.489
824.53
919.795
715.425
888.59
881.215
942.196
973.168
760.573
1032.88
921.324
790.206
919.409
954.582
788.426
912.43
935.495
789.221
809.673
818.3
570.038
192.18
143.919
141.61
136.107
194.255
176.817
159.498
154.612
187.005
123.471
126.253
185.846
153.738
141.663
175.327
197.872
168.528
135.136
175.023
148.103
156.677
226.58
211.994
208.658
148.341
187.407
182.735
142.708
147.906
185.742
171.145
189.364
186.261
193.558
143.989
197.591
132.452
157.815
143.588
163.786
128.164
148.182
149.772
214.808
162.858
175.265
206.563
150.574
175.457
135.859
138.414
199.847
172.132
195.983
131.599
147.125
172.748
)
;

boundaryField
{
    sides
    {
        type            symmetry;
    }
    empty
    {
        type            empty;
    }
    procBoundary2to1
    {
        type            processor;
        value           uniform 835.776;
    }
    procBoundary2to3
    {
        type            processor;
        value           uniform 175.269;
    }
}


// ************************************************************************* //
