/*--------------------------------*- C++ -*----------------------------------*\
  =========                 |
  \\      /  F ield         | OpenFOAM: The Open Source CFD Toolbox
   \\    /   O peration     | Website:  https://openfoam.org
    \\  /    A nd           | Version:  7
     \\/     M anipulation  |
\*---------------------------------------------------------------------------*/
FoamFile
{
    version     2.0;
    format      ascii;
    class       volScalarField;
    location    "0.006";
    object      internalEMean;
}
// * * * * * * * * * * * * * * * * * * * * * * * * * * * * * * * * * * * * * //

dimensions      [1 -1 -2 0 0 0 0];

internalField   nonuniform List<scalar> 
546
(
2.982612888
2.962470088
3.002536428
2.953018363
2.957249838
2.957102354
2.97719459
2.932645054
2.82122504
2.818965517
2.757846735
2.800713782
2.805302924
2.741907818
2.816109868
2.854871111
2.829307825
2.747384483
2.725783986
2.649861816
2.67721355
2.690772504
2.63738537
2.61743926
2.547010958
2.442791934
2.372703348
2.272161708
2.059615211
1.70973474
2.8971175
2.908077029
2.971297077
2.96135404
2.948369073
2.944701091
2.962198022
2.93857007
2.884878861
2.874021857
2.912640529
2.85613693
2.89188888
2.845806868
2.863816274
2.770687082
2.723850645
2.724224864
2.728042536
2.721597322
2.689432788
2.673511084
2.679472843
2.611917083
2.51985394
2.430392939
2.363626733
2.245398658
2.035333818
1.745151382
2.698979884
2.798174709
2.832276689
2.870015638
2.869563211
2.906420542
2.921378067
2.803171297
2.90828187
2.910130862
2.901731275
2.810907119
2.832535516
2.850289122
2.883050966
2.784421112
2.716683833
2.756897353
2.755463233
2.744574938
2.717560454
2.618051994
2.677810324
2.617243929
2.610889701
2.532038809
2.367500536
2.234646066
2.069055332
1.801942372
2.434232964
2.567058966
2.665352273
2.735286749
2.758271545
2.784804417
2.829521511
2.823978564
2.823791076
2.82009351
2.802580755
2.844120022
2.852919655
2.843663106
2.868730147
2.783869818
2.755188182
2.744578823
2.694793619
2.672723176
2.665423635
2.710463855
2.681047965
2.647098144
2.589062728
2.488701511
2.411037456
2.308247527
2.140567188
1.876064435
2.125597242
2.273038722
2.358779692
2.492029263
2.619388683
2.643290655
2.700897945
2.743054138
2.741351701
2.766424983
2.805924832
2.791260333
2.807339059
2.790566475
2.799099654
2.747219458
2.718416805
2.697986815
2.723201643
2.672716874
2.692847487
2.714052507
2.662993243
2.574714231
2.52802317
2.514399166
2.382213865
2.29502896
2.178847246
1.958893935
1.811271323
1.979594601
2.115269946
2.192452831
2.329197415
2.43129972
2.574977991
2.589294244
2.649959395
2.681143916
2.74740895
2.723301083
2.734063307
2.734728918
2.748710987
2.751924935
2.79957802
2.76703379
2.731070096
2.763829147
2.718867872
2.711636756
2.653668864
2.634084247
2.565467483
2.503897997
2.415301616
2.332860174
2.231117472
2.074927485
1.558338027
1.711917038
1.834082191
1.954586392
2.114052384
2.215362834
2.312340965
2.406015546
2.532146216
2.577934197
2.604244778
2.562219733
2.636944546
2.650048965
2.691628119
2.729729577
2.741368062
2.765461308
2.692809407
2.667055957
2.724002413
2.701805127
2.626995476
2.588318666
2.571973717
2.546795512
2.468114679
2.433236716
2.289366014
2.125255349
1.28157705
1.422739209
1.580003247
1.703052867
1.820753292
1.971660936
2.076730621
2.19830538
2.310334593
2.405235268
2.473564415
2.527118463
2.597804827
2.668841559
2.623280793
2.654170448
2.690154846
2.72487463
2.720398041
2.638524887
2.655126645
2.746996031
2.68884895
2.639555729
2.591013306
2.548569251
2.52581137
2.427377135
2.325708873
2.219075635
1.054551209
1.159863791
1.314273084
1.443305309
1.586377483
1.734332447
1.863875892
1.976620875
2.127555645
2.22327368
2.322890283
2.402381237
2.484332115
2.501431884
2.529990748
2.58355261
2.571346944
2.645281893
2.689157542
2.704647576
2.660107605
2.720063376
2.639075238
2.600322482
2.602761345
2.543930945
2.473660006
2.449223645
2.368991352
2.236804673
0.8905062585
0.9916253119
1.110547516
1.214346342
1.318972827
1.464223723
1.614860264
1.747303916
1.851854134
1.943881584
2.032024411
2.144122807
2.230907654
2.314550765
2.407342185
2.462402114
2.52310402
2.547260992
2.567776401
2.617233922
2.570777134
2.557637576
2.628912825
2.622910787
2.605417335
2.590621578
2.528818459
2.451730093
2.385355806
2.308867938
0.7877902626
0.8523972738
0.9645497979
1.045501122
1.116726102
1.244538755
1.386451907
1.488389999
1.601994466
1.714188593
1.82358078
1.990727692
2.095652839
2.212515148
2.281784099
2.355251796
2.401670827
2.384881382
2.429912071
2.477897867
2.551132091
2.567166158
2.614934115
2.559704021
2.562965694
2.552959477
2.494384751
2.443712109
2.38428853
2.351589777
0.6774588996
0.7417269432
0.7985811448
0.886744088
0.9842665939
1.057023742
1.154370512
1.279513452
1.392409614
1.530758735
1.635510234
1.764499486
1.889078172
2.00484606
2.128542865
2.190032272
2.24589887
2.300989141
2.340426468
2.447042562
2.484221665
2.480572909
2.504954774
2.513259728
2.499118757
2.526648219
2.516569058
2.450672173
2.403031315
2.348873069
0.6051276259
0.6461005753
0.7062957596
0.7668140749
0.8220578403
0.8921919794
0.9801375338
1.074316758
1.201101822
1.295171577
1.414225088
1.551944441
1.674985769
1.804835933
1.911538307
2.042487202
2.155557075
2.226991699
2.312174662
2.343203426
2.40252398
2.496979234
2.494540798
2.453303593
2.450530867
2.474962734
2.480231804
2.504234872
2.433870441
2.37791455
0.5372160309
0.567730319
0.6102434838
0.6715266766
0.7163875113
0.7736316638
0.837984824
0.9241486986
1.018570052
1.120698402
1.194465962
1.316557262
1.425052608
1.561524105
1.696035615
1.812971486
1.911740588
2.022561772
2.099317593
2.192363797
2.296265917
2.297717499
2.358200598
2.416417324
2.43078513
2.442391158
2.468861943
2.440224329
2.460177308
2.395950768
0.5211545378
0.5418219329
0.5630934576
0.591236564
0.6396065348
0.6873117315
0.7366783291
0.8080070137
0.8697914441
0.9530210781
1.056913699
1.140293052
1.23102957
1.351452283
1.476524853
1.589544635
1.708379007
1.796171431
1.929528683
2.037396228
2.109285209
2.224834404
2.255277774
2.298321013
2.370106657
2.381397086
2.409625935
2.376116429
2.377799565
2.31446255
0.4955231995
0.5061675478
0.5266803562
0.5510965393
0.5748727407
0.614153975
0.6678092068
0.7004169612
0.7713488587
0.8130268573
0.8720182392
0.975525264
1.07694118
1.170554727
1.27912658
1.399317908
1.518116824
1.626634026
1.739292535
1.845035906
1.954262002
2.032466435
2.153213919
2.230025729
2.269210509
2.271106387
2.320182392
2.343364168
2.337406211
0.4751982423
0.490714139
0.506289007
0.5281594468
0.5467421538
0.5705981665
0.5980333437
0.6386204528
0.6864753297
0.7478372474
0.7996927397
0.8509239833
0.9475487154
1.019578608
1.136174092
1.217736271
1.303376049
1.429424045
1.544492912
1.639974228
1.775311165
1.87756763
1.969736863
2.097916136
0.4561152115
0.4662406121
0.4779251206
0.4908843077
0.5103497146
0.5275099877
0.5663558382
0.5927488682
0.6221661306
0.6559313539
0.7052844675
0.7501626156
0.7995919768
0.8784999368
0.9555865551
1.034689251
1.155962273
1.248434927
1.367946002
0.4395926457
0.4506090058
0.4583641494
0.4723451986
0.4838118381
0.4994615483
0.5128869037
0.5351792393
0.5547028772
0.5882040239
0.6323614759
0.6862486891
0.7308206507
0.7863201016
0.4382889089
0.4467785023
0.4476003606
0.4550210138
0.4644965728
0.4757264236
0.4914939645
0.5109266764
0.4337668425
0.4388861812
)
;

boundaryField
{
    flow
    {
        type            calculated;
        value           nonuniform List<scalar> 
15
(
1.70973474
1.745151382
1.801942372
1.876064435
1.958893935
2.074927485
2.125255349
2.219075635
2.236804673
2.308867938
2.351589777
2.348873069
2.37791455
2.395950768
2.31446255
)
;
    }
    obstacle
    {
        type            calculated;
        value           nonuniform List<scalar> 
30
(
1.252548451e-18
1.09506957e-18
1.253190415e-18
1.189237296e-18
1.123677962e-18
1.210586501e-18
1.161547092e-18
1.1795012e-18
1.131836169e-18
1.081440436e-18
1.059334416e-18
1.086960344e-18
1.133229881e-18
1.137957904e-18
1.082600324e-18
1.119611905e-18
1.072232036e-18
1.097462771e-18
1.080446913e-18
1.066737365e-18
1.054341743e-18
1.057000551e-18
1.045787837e-18
1.016731396e-18
1.008698459e-18
9.583169565e-19
9.947293265e-19
9.261441535e-19
8.222305323e-19
7.296889993e-19
)
;
    }
    frontAndBack
    {
        type            empty;
    }
    procBoundary1to0
    {
        type            processor;
        value           nonuniform List<scalar> 
21
(
3.033973603
2.905162386
2.662580889
2.31603645
1.95838374
1.708102848
1.408904567
1.155230088
0.9286155975
0.809201219
0.7279164961
0.6193414892
0.5692666027
0.5271027306
0.4946526635
0.4794425068
0.4677994084
0.4486542566
0.4380687551
0.4328759366
0.4252741789
)
;
    }
    procBoundary1to3
    {
        type            processor;
        value           nonuniform List<scalar> 
36
(
2.383425519
2.185474915
2.237967335
2.262361225
2.28928792
2.383425519
2.324166866
1.491537504
1.585995744
1.680855151
1.805892901
2.185474915
1.900657882
0.8520004274
0.9235850177
1.025874469
1.117189581
1.491537504
1.196912941
0.5306689904
0.5505342461
0.5764050816
0.6141567118
0.6462779302
0.8520004274
0.6862059496
0.4415546415
0.4446854926
0.4544347269
0.4652556626
0.4771704317
0.5306689904
0.4876719872
0.4289434187
0.4415546415
0.4331356079
)
;
    }
}


// ************************************************************************* //
