/*--------------------------------*- C++ -*----------------------------------*\
  =========                 |
  \\      /  F ield         | OpenFOAM: The Open Source CFD Toolbox
   \\    /   O peration     | Website:  https://openfoam.org
    \\  /    A nd           | Version:  7
     \\/     M anipulation  |
\*---------------------------------------------------------------------------*/
FoamFile
{
    version     2.0;
    format      ascii;
    class       volScalarField;
    location    "0.006";
    object      internalEMean;
}
// * * * * * * * * * * * * * * * * * * * * * * * * * * * * * * * * * * * * * //

dimensions      [1 -1 -2 0 0 0 0];

internalField   nonuniform List<scalar> 
546
(
0.4127745728
0.4330989274
0.4393186022
0.4700220287
0.465170333
0.4539028724
0.4280866714
0.4571323098
0.4356566016
0.4288685526
0.4419665429
0.4633616142
0.4685393452
0.4766299892
0.4867674712
0.4593550546
0.4674957093
0.471526331
0.4543281028
0.4871295126
0.4498730597
0.4799278525
0.4728713672
0.4827236944
0.5083527573
0.4809166101
0.486439777
0.5029321275
0.484790292
0.5088824271
0.4092347507
0.4333312513
0.4556874029
0.4267472314
0.4353974754
0.4204019224
0.4253025953
0.443839674
0.4367977821
0.419382209
0.4421248749
0.4650142168
0.4786511187
0.4542715122
0.457372869
0.4443792864
0.4494633342
0.4791572726
0.447244804
0.4398443267
0.4512304436
0.4642191551
0.4849104513
0.5019069455
0.4740939254
0.5101815315
0.4780071808
0.471597309
0.4948573966
0.4724506682
0.423455639
0.4165700192
0.426890341
0.4275593359
0.4556151596
0.4219961676
0.4479438232
0.4426306972
0.4508189235
0.4307881442
0.4234638005
0.4569100233
0.4838099909
0.4417590931
0.457157018
0.4545808119
0.4698137205
0.4519650077
0.476486833
0.4415482079
0.4510490511
0.4666686472
0.4704582914
0.4735907695
0.4729837062
0.4991257669
0.4632711287
0.4681234085
0.4943692658
0.4493549657
0.4280507078
0.4118426249
0.4383704475
0.4482635496
0.4439907238
0.4282898815
0.434974042
0.4251875228
0.437425613
0.4257287794
0.4179344595
0.4327855769
0.4532576638
0.4352774962
0.4494608833
0.4782768047
0.4642020023
0.4621933669
0.4815290976
0.4460956531
0.4392986545
0.460341006
0.4624667309
0.4608422456
0.4717479743
0.4901866532
0.4788459623
0.4840612816
0.4759012669
0.4599389763
0.4267764126
0.4127260435
0.410102132
0.4247242119
0.4322133637
0.4349907853
0.4270293451
0.424916846
0.4326139216
0.4328471894
0.4328508513
0.4546871322
0.442950993
0.4500756859
0.4285113256
0.4433572964
0.4495886953
0.462600268
0.469344866
0.4423940253
0.4512136411
0.4323739454
0.4455805808
0.4581063355
0.4653974628
0.4689715032
0.4606748021
0.468717781
0.4567769554
0.4622008763
0.401883103
0.3795982483
0.3690189566
0.4169900741
0.4157365327
0.4134541704
0.3973191738
0.4277876523
0.4401117449
0.4301915843
0.4114781739
0.3964189855
0.4602314002
0.4475187006
0.4486333525
0.4474860578
0.4572220837
0.4415219835
0.4340219857
0.4391136862
0.4288884925
0.4229207861
0.4351623723
0.4518708208
0.4599068362
0.4462793648
0.4605544762
0.495819786
0.481719908
0.4578379988
0.3938689385
0.3974059345
0.3923733263
0.4092124169
0.4253647667
0.4313485237
0.4185016583
0.4149886934
0.4419025092
0.4407111662
0.4371917932
0.4273514831
0.4216558808
0.4577244134
0.4448211125
0.455292357
0.4391201061
0.4410552118
0.4422621365
0.4249735839
0.4308737279
0.4363612277
0.427489302
0.424294252
0.4405154069
0.4415826436
0.445398231
0.4386180779
0.4752355611
0.463031389
0.3742801351
0.3855125881
0.3899490853
0.3948676097
0.4075699468
0.4006186328
0.4050094451
0.3848277517
0.4215495671
0.4580065669
0.4553956766
0.4230952199
0.4179683252
0.4450889236
0.4655008802
0.4048412453
0.4359219322
0.4139471444
0.4486058212
0.4002500762
0.4156628867
0.459225581
0.438947622
0.4352790944
0.4509890997
0.4422367466
0.441312383
0.4444468003
0.4546340188
0.4656166981
0.3880484938
0.3782612485
0.3993785488
0.3775093169
0.4079696232
0.3867015123
0.435296767
0.4131616287
0.4277540748
0.4305488155
0.4290348634
0.4438050835
0.4172201085
0.4070577924
0.4312467512
0.39682607
0.4042173762
0.4220546279
0.4201926555
0.4249205699
0.4241103041
0.4437687712
0.4576932838
0.462105492
0.4440597997
0.4523833096
0.434130513
0.4535636034
0.4537887907
0.4605308059
0.3979748471
0.3706013666
0.3713467469
0.4033752424
0.3902329479
0.3836309122
0.3948454533
0.4127543107
0.404847471
0.4443572217
0.4388098344
0.4267480353
0.4055506817
0.4251618352
0.4028444222
0.4144727482
0.4272239419
0.4006042979
0.4202585704
0.3977482537
0.4340240507
0.4616112708
0.4664701946
0.4526435371
0.428048839
0.4515976407
0.4347149386
0.4579826471
0.4690746199
0.4416566831
0.3894962627
0.388790542
0.4142336986
0.4131848122
0.4015729222
0.4140019581
0.421905471
0.4333871776
0.4071572164
0.4316825273
0.3895338765
0.42800763
0.3988999546
0.3827786762
0.4084930625
0.4185007744
0.4078823002
0.3874381883
0.3839198355
0.3894444491
0.3953421763
0.4137021505
0.4352599866
0.4388566538
0.432617925
0.4549694315
0.4388364217
0.4445352626
0.4482843943
0.474886646
0.3754311403
0.3672703646
0.3876906947
0.3944811387
0.4077327295
0.4252898168
0.4268410385
0.4010091066
0.3994439643
0.4009304812
0.4028618474
0.4154564221
0.3933849135
0.3874554964
0.4329427219
0.4217441392
0.4025053635
0.3898618809
0.3895769224
0.4219553637
0.4028372062
0.3955136427
0.4076623921
0.4444282505
0.4224738258
0.4367989031
0.4635182795
0.4295938628
0.4378536772
0.4940390292
0.3779045629
0.384028762
0.3851172177
0.3931188838
0.385110969
0.4146328548
0.4148492362
0.4017595575
0.3795420814
0.3899409025
0.384273053
0.4080020806
0.3974404442
0.396346828
0.4449736563
0.4068438893
0.4137914014
0.4081355282
0.3947794088
0.4206709089
0.3995822055
0.3891919541
0.4200380917
0.4138824714
0.4128635555
0.4140003708
0.4318919433
0.4500196726
0.4363155062
0.4640055986
0.4100543265
0.3987291949
0.3741405663
0.3634662988
0.4100625477
0.4136209549
0.4166656001
0.4022326688
0.4118421985
0.3976917896
0.3755366156
0.3869544619
0.3865239647
0.4106774885
0.3986076758
0.4119935729
0.4283279127
0.385371494
0.4006434715
0.4077346092
0.4266826284
0.4034341244
0.4045039819
0.4088188442
0.4387231421
0.4255247087
0.4080295992
0.4357707492
0.423194502
0.4367186574
0.3897194503
0.4140326781
0.389183428
0.3945031525
0.4035894381
0.4192569576
0.4026573829
0.3944978686
0.3808718796
0.3977254551
0.3893376446
0.3951885004
0.3865168145
0.4186085488
0.3935776277
0.4130332196
0.4217911016
0.3932224331
0.3805897255
0.40666346
0.4093027409
0.4155037929
0.3981317507
0.3861537227
0.4218522084
0.4354938361
0.4256784211
0.4182041013
0.418620528
0.4350889382
0.3851918924
0.3766074482
0.3920407697
0.3729443149
0.3754916782
0.393032186
0.3972327546
0.4049685491
0.3872406475
0.4106668106
0.3843578887
0.3781885509
0.3977815031
0.3927234049
0.3852546432
0.3777523746
0.3794039708
0.4011851238
0.3820921356
0.4160550501
0.401702581
0.420155076
0.4027389956
0.4104744249
0.4023778352
0.4282964074
0.4261400717
0.4190653835
0.4141036483
0.3826159111
0.3796875573
0.402423519
0.4017857501
0.3864152855
0.4022456935
0.3999125358
0.417615956
0.3864514488
0.388210686
0.3968872843
0.4046084909
0.3956016346
0.3804592422
0.3854177307
0.369842625
0.3647624141
0.3938313918
0.4122272846
0.4126496974
0.4054267465
0.3940889928
0.410597117
0.4247737937
0.3807935503
0.3871952638
0.3878991734
0.3951705675
0.4295470287
0.393898678
0.4074492826
0.4074947469
0.3828715475
0.4009021645
0.4102876692
0.399109296
0.3821165815
0.4013818186
0.4010023342
0.3901520038
0.4117668041
0.4091295298
0.4074734291
0.3978365533
0.3911659566
0.3917942218
0.3916893644
0.4166900679
0.3975304727
0.3972122068
0.408044954
0.3964430294
0.397446757
0.4108502837
0.4132790891
0.3876981632
0.4028237334
0.3846652009
0.4107061894
0.3810156666
0.3987644335
0.4142883884
0.4175812848
0.3812414237
0.3852605752
0.3820670225
0.393902474
)
;

boundaryField
{
    flow
    {
        type            calculated;
        value           nonuniform List<scalar> 
15
(
0.5088824271
0.4724506682
0.4493549657
0.4599389763
0.4622008763
0.4578379988
0.463031389
0.4656166981
0.4605308059
0.4416566831
0.474886646
0.4940390292
0.4640055986
0.4367186574
0.4350889382
)
;
    }
    obstacle
    {
        type            calculated;
        value           nonuniform List<scalar> 
30
(
1.540347072e-19
1.691132905e-19
1.701218397e-19
1.86993289e-19
1.860218238e-19
1.729173928e-19
2.040560975e-19
1.911042392e-19
1.730417122e-19
1.794922625e-19
1.732855181e-19
1.715649912e-19
1.962757686e-19
1.830062238e-19
1.988960343e-19
1.922923231e-19
2.002884895e-19
1.97075952e-19
2.253969894e-19
1.970308132e-19
1.730464589e-19
2.003527154e-19
2.023613768e-19
2.070594112e-19
1.895854508e-19
1.864086579e-19
2.038254683e-19
2.127373922e-19
2.004234642e-19
1.955144157e-19
)
;
    }
    frontAndBack
    {
        type            empty;
    }
    procBoundary1to0
    {
        type            processor;
        value           nonuniform List<scalar> 
21
(
0.4154685201
0.4205395446
0.4130417298
0.4001356748
0.3919088088
0.3781294589
0.3706241117
0.3778571953
0.400158521
0.4033040031
0.3735584319
0.3861352896
0.3689324467
0.3795071195
0.3809867129
0.399193687
0.3904759357
0.3878685655
0.3792513975
0.3840290813
0.3814985014
)
;
    }
    procBoundary1to3
    {
        type            processor;
        value           nonuniform List<scalar> 
36
(
0.4332946203
0.437973499
0.4441738981
0.4065659397
0.4377676543
0.4332946203
0.4433764996
0.4151067183
0.396950287
0.4031971579
0.3864412973
0.437973499
0.4310334862
0.4057721596
0.4084477163
0.4154300506
0.4094337919
0.4151067183
0.3995320598
0.3805170582
0.4078509278
0.3917972637
0.3990755191
0.4108221698
0.4057721596
0.4116742735
0.4057692369
0.4082770331
0.4236081247
0.4136668606
0.4017854975
0.3805170582
0.4029035691
0.3663397167
0.4057692369
0.3722669502
)
;
    }
}


// ************************************************************************* //
