/*--------------------------------*- C++ -*----------------------------------*\
  =========                 |
  \\      /  F ield         | OpenFOAM: The Open Source CFD Toolbox
   \\    /   O peration     | Website:  https://openfoam.org
    \\  /    A nd           | Version:  7
     \\/     M anipulation  |
\*---------------------------------------------------------------------------*/
FoamFile
{
    version     2.0;
    format      ascii;
    class       volScalarField;
    location    "0.006";
    object      linearKEMean;
}
// * * * * * * * * * * * * * * * * * * * * * * * * * * * * * * * * * * * * * //

dimensions      [1 -1 -2 0 0 0 0];

internalField   nonuniform List<scalar> 
546
(
6.979920676
6.756281496
6.660036254
6.432344337
6.240219718
6.171966413
6.116599191
5.991584876
5.801174731
5.693538967
5.483040273
5.468380836
5.483600929
5.33257801
5.36424101
5.447516689
5.216035442
5.170704354
5.052129266
4.95961864
4.986583626
4.928016373
4.881475346
4.831401468
4.726968122
4.61348083
4.415444965
4.297274739
3.95978305
3.518584809
8.796130593
8.565964593
8.269064699
8.068374642
7.841973712
7.560559355
7.311249833
7.144395967
7.029409377
6.915297952
6.77091739
6.611372916
6.538862865
6.344929243
6.24982401
6.108316845
6.001592658
5.962273796
5.790422091
5.763162778
5.682306168
5.588385092
5.47525479
5.450159888
5.323800812
5.159176375
5.106292587
4.81531978
4.489816287
4.156269991
10.33473049
10.11304064
9.931271453
9.550315279
9.278139348
9.147859273
8.8864346
8.474434361
8.267239064
8.010325199
7.924826599
7.69469362
7.475812444
7.308722115
7.193223517
7.014092755
6.925715887
6.767404264
6.686157634
6.569194732
6.480567232
6.317528603
6.250854189
6.087606528
6.065874499
5.851981512
5.613686174
5.393451477
5.19640022
4.866480012
11.48064964
11.27975484
11.10329242
10.88653174
10.62359708
10.351362
10.16383202
9.859556924
9.583481842
9.308325387
8.974591424
8.853694436
8.710463131
8.449214489
8.331626796
8.120038513
7.882132012
7.707154029
7.649535027
7.467740002
7.280265645
7.154151596
7.060993389
6.877048355
6.66676646
6.479328003
6.352962904
6.14127465
5.915455126
5.480315445
11.93067028
12.06768771
11.96261842
11.87521407
11.66722338
11.5935726
11.3891532
11.14568227
10.7507492
10.54250982
10.31374013
10.10525357
9.906915582
9.668869843
9.393272677
9.127209201
8.821070202
8.644810116
8.501455604
8.259213144
8.112073408
8.017486787
7.811106171
7.601848838
7.370250641
7.29345928
7.051005399
6.803771725
6.575485006
6.283337878
11.83536751
12.15452902
12.4007942
12.34348023
12.48960523
12.38878197
12.37626795
12.19562379
12.03526822
11.80193322
11.60872363
11.20931185
10.99537403
10.67106514
10.52581574
10.34851871
10.09421233
9.780850549
9.521156164
9.386278647
9.129929747
8.881788021
8.732996551
8.624926763
8.329845072
8.064922678
7.807116713
7.70055096
7.389738929
7.122923868
11.48838408
11.82084817
12.22471003
12.58250975
12.76166639
12.79221742
12.82668656
12.85884324
12.89894323
12.66314456
12.47256962
12.12383431
11.90771763
11.70008129
11.52155558
11.31962918
11.06982728
10.83373219
10.51343271
10.30176652
10.06931353
9.912392543
9.589476098
9.391996315
9.244673781
8.962303576
8.789945864
8.553555839
8.198288723
7.828254808
11.09150341
11.56684025
11.93565871
12.31411461
12.77288234
13.06859563
13.22866516
13.27595293
13.19832975
13.20978652
13.10381137
13.04451546
12.99091842
12.73700868
12.31342376
12.22704006
12.05071908
11.88860193
11.67000933
11.23294557
11.04475289
10.89011734
10.59770926
10.35494986
10.07091721
9.817483555
9.580890074
9.32075
9.045234713
8.83005061
10.45591323
10.96790618
11.46301404
11.85083937
12.2229108
12.71241881
13.0189824
13.20106041
13.43429162
13.63803301
13.75592855
13.67441326
13.57139734
13.47196228
13.18799453
12.92787227
12.75037051
12.67903519
12.62864713
12.37000197
12.06781972
11.87531506
11.52083212
11.25290097
11.02687911
10.80810861
10.4037115
10.22119248
9.901101481
9.462012108
9.843774791
10.34565675
10.854515
11.12554385
11.50493813
11.98816474
12.44075465
12.98600063
13.28972645
13.41987555
13.63339178
13.81090854
13.81110599
13.87309936
13.95972969
13.79854294
13.58025592
13.47282729
13.24942489
13.09591815
12.76069388
12.44252574
12.37557096
12.13316452
11.93729755
11.67286077
11.371888
11.04265329
10.67628196
10.27637454
9.481228941
9.66350345
10.06544277
10.59711101
10.93620801
11.47686247
11.93882237
12.31736113
12.78878149
13.16287159
13.40877618
13.82009917
13.96208996
14.27015081
14.38672522
14.39097554
14.23887321
13.86219055
13.76569418
13.7225244
13.58451433
13.50628808
13.3492187
12.95958559
12.69328591
12.47297485
12.04877685
11.79248245
11.47789569
11.14527246
8.9374041
9.274852491
9.594337891
10.04796258
10.55194485
10.94119165
11.30028962
11.74239693
12.11982043
12.70285955
13.15118425
13.49891344
13.79983992
14.09358369
14.3724812
14.50151453
14.53267401
14.5902017
14.50239321
14.4850819
14.30472629
14.0063299
13.79260755
13.69409979
13.41723932
13.1990014
12.93379112
12.57459574
12.31834908
12.07261692
8.827748265
9.032311603
9.22007852
9.40696195
9.711006425
10.07949015
10.52416076
11.00899023
11.5941435
12.07641679
12.56749202
12.98334569
13.38526928
13.82020152
14.02453663
14.45183682
14.81481651
14.95614708
14.86883437
14.8510925
14.89078603
14.92356219
14.59211331
14.25375835
14.00957563
13.75674936
13.67293779
13.42478225
13.11088435
12.70705014
8.336236009
8.549093853
8.805857013
9.080132658
9.269052492
9.608652854
9.971577179
10.45627086
10.80665055
11.40937336
11.91615605
12.43804572
12.81695409
13.25468481
13.69091974
14.06642547
14.33467581
14.60926081
14.7761742
14.8497581
14.94106782
14.87225724
14.88696936
14.88508302
14.51453011
14.41774523
14.18021726
14.02656968
13.83635595
13.62265866
8.402957068
8.51167722
8.610923657
8.779599415
9.036744972
9.307159684
9.572980912
9.915239516
10.24410262
10.68288386
11.09910191
11.57070822
11.92813954
12.42400072
12.94304355
13.32456937
13.78913988
14.11498829
14.54769815
14.89238752
14.95211065
15.18390626
15.22439438
15.2588647
15.26295923
14.99544
14.83475905
14.59409757
14.3449678
14.00398554
8.206922489
8.288634585
8.427213201
8.56288607
8.725680099
8.879205785
9.141071718
9.393367251
9.762736597
10.00921768
10.34934105
10.83332066
11.38452862
11.81160389
12.28900411
12.90610889
13.34946277
13.82048115
14.11534739
14.54476478
14.76773328
15.05197598
15.37647561
15.55886864
15.46119356
15.40777704
15.30412874
15.13749039
14.94016811
8.100235812
8.176402229
8.291270748
8.472269629
8.61738205
8.740518018
8.88768647
9.069774898
9.291722726
9.664805138
10.05629737
10.3291607
10.82985506
11.18431186
11.66757268
12.05266886
12.53520496
13.0722897
13.63188742
13.97125065
14.56030199
14.74133301
15.02285228
15.42713158
8.029679751
8.124899875
8.172976446
8.245640452
8.281073376
8.352305057
8.529676005
8.706179495
8.917306641
9.1076719
9.349330074
9.694581564
9.952019928
10.4289479
10.87967081
11.31985451
11.93365309
12.42634999
12.98022701
8.062285394
8.13341118
8.119643951
8.17766177
8.282248112
8.39650628
8.447246257
8.518919398
8.591734142
8.810811716
9.047589905
9.317747116
9.617614848
9.949266749
7.935662718
7.970347921
7.957356458
7.9839185
8.044006791
8.096436196
8.209458737
8.389333975
7.92131702
7.906859814
)
;

boundaryField
{
    flow
    {
        type            calculated;
        value           nonuniform List<scalar> 
15
(
3.518584809
4.156269991
4.866480012
5.480315445
6.283337878
7.122923868
7.828254808
8.83005061
9.462012108
10.27637454
11.14527246
12.07261692
12.70705014
13.62265866
14.00398554
)
;
    }
    obstacle
    {
        type            calculated;
        value           nonuniform List<scalar> 
30
(
2.409006488e-18
2.262262941e-18
2.388487276e-18
2.299885659e-18
2.239678835e-18
2.204554195e-18
2.085584566e-18
2.131160041e-18
2.091751351e-18
2.043843139e-18
1.994934341e-18
1.993602111e-18
2.027863825e-18
1.946995245e-18
1.934957141e-18
2.036469071e-18
1.90378169e-18
1.942337979e-18
1.840386987e-18
1.887738892e-18
1.842470554e-18
1.823771553e-18
1.845548866e-18
1.860855768e-18
1.747579931e-18
1.702778245e-18
1.693522546e-18
1.593040342e-18
1.500309208e-18
1.26336229e-18
)
;
    }
    frontAndBack
    {
        type            empty;
    }
    procBoundary1to0
    {
        type            processor;
        value           nonuniform List<scalar> 
21
(
7.238722561
9.14375686
10.6817973
11.45318996
11.82640087
11.62186201
11.03486668
10.65105194
9.940101497
9.502059916
9.161264902
8.688978813
8.681171771
8.27145989
8.194253905
8.130115584
8.083577227
7.972207469
8.024275206
7.984399554
7.800479236
)
;
    }
    procBoundary1to3
    {
        type            processor;
        value           nonuniform List<scalar> 
36
(
14.82314883
15.62204798
15.7183987
15.60938292
15.5536277
14.82314883
15.52657289
13.51360829
13.90021745
14.38890233
14.71845016
15.62204798
14.99958756
10.28230667
10.74230181
11.34177966
11.87143557
13.51360829
12.27447863
8.497156626
8.650243985
8.773405379
8.937955873
9.146290817
10.28230667
9.416770877
7.973266809
7.988384588
8.006534683
8.085800877
8.175082648
8.497156626
8.171416271
7.852861686
7.973266809
7.931644908
)
;
    }
}


// ************************************************************************* //
