/*--------------------------------*- C++ -*----------------------------------*\
  =========                 |
  \\      /  F ield         | OpenFOAM: The Open Source CFD Toolbox
   \\    /   O peration     | Website:  https://openfoam.org
    \\  /    A nd           | Version:  7
     \\/     M anipulation  |
\*---------------------------------------------------------------------------*/
FoamFile
{
    version     2.0;
    format      ascii;
    class       volVectorField;
    location    "0.006";
    object      momentumMean;
}
// * * * * * * * * * * * * * * * * * * * * * * * * * * * * * * * * * * * * * //

dimensions      [1 -2 -1 0 0 0 0];

internalField   nonuniform List<vector> 
546
(
(0.0001647439672 3.987572637e-05 7.677028056e-05)
(0.0001407061519 6.148540811e-05 1.287100318e-05)
(0.0001458795926 2.763027003e-05 -4.2730575e-05)
(0.0001431376874 4.801909675e-05 1.428648857e-05)
(0.0001620584567 2.477036147e-05 4.303682261e-06)
(0.0001566415385 5.893549089e-05 8.045226257e-06)
(0.0001440198004 4.369707805e-05 -5.256460601e-06)
(0.0001445880215 4.704663087e-05 4.849038647e-05)
(0.0001324368515 3.079553148e-05 2.100501067e-05)
(0.0001573553961 4.164065195e-05 1.431599303e-05)
(0.0001843120059 3.403556604e-05 1.313076118e-05)
(0.0001660859656 5.814117101e-05 7.024955464e-05)
(0.0001401201473 2.727453449e-05 4.972155647e-05)
(0.0002096696973 4.021550238e-05 2.414081782e-05)
(0.000202294017 5.626503141e-05 6.580385212e-06)
(0.0002414793393 5.445428283e-05 1.746244399e-05)
(0.0002173432341 7.141021416e-05 1.734710682e-05)
(0.0002165698341 5.831506471e-05 -5.924740491e-05)
(0.0001797309409 5.976096264e-05 -3.247667553e-05)
(0.0001736292976 4.2799344e-05 1.39984114e-05)
(0.0002118477943 5.529695192e-05 3.562033177e-05)
(0.0001854324613 5.342137589e-05 7.769287748e-06)
(0.0001493215297 5.51879936e-05 2.70226662e-05)
(0.0001734215293 4.580708036e-05 3.297275253e-06)
(0.0002087642382 4.345285376e-05 -2.003710085e-05)
(0.0002049416274 5.455738789e-05 -5.022948684e-05)
(0.0002024311452 5.871650604e-05 -6.494153782e-06)
(0.0002082772787 5.982888327e-05 -1.853123444e-05)
(0.0002230191469 4.790843392e-05 5.286369388e-05)
(0.0002386973064 6.739497428e-05 1.703375855e-05)
(0.0001756820236 6.480693494e-05 2.822375126e-05)
(0.000193544519 5.066881348e-05 -4.665734562e-05)
(0.0001869574608 6.178784639e-05 -1.170013761e-05)
(0.0002068308645 1.794914492e-05 -6.248321491e-06)
(0.000205235711 6.326324023e-05 3.897342341e-05)
(0.0001993855365 5.817377916e-05 1.496080528e-05)
(0.0002412358274 7.602992431e-05 -5.346688873e-06)
(0.0002255816055 6.334274853e-05 1.456100788e-05)
(0.0002598741596 7.152665407e-05 -1.320584392e-05)
(0.0002655124669 3.325820814e-05 4.917611415e-05)
(0.0002419880298 6.435255388e-05 5.126817223e-05)
(0.0002704656611 9.108266963e-05 4.271618828e-05)
(0.0002750023 7.545680899e-05 4.839281082e-05)
(0.0002380599772 3.735887859e-05 -5.406083871e-05)
(0.000272139592 4.746290692e-05 -3.074946778e-05)
(0.0002463278793 6.186980056e-05 4.865565331e-05)
(0.0002535070848 8.027358803e-05 5.47847658e-05)
(0.000241337321 9.454602776e-05 7.071772875e-06)
(0.0002889099131 7.328590163e-05 3.079728488e-05)
(0.0002930858472 8.454431165e-05 2.365256891e-05)
(0.0002222141796 6.282825739e-05 2.653689393e-05)
(0.0002617670515 9.06158156e-05 1.327658848e-05)
(0.0002866112292 7.808184762e-05 2.943556072e-05)
(0.000284186586 4.732330797e-05 2.273167237e-05)
(0.0002570405183 7.403680283e-05 4.352977853e-06)
(0.0002491389634 8.702100728e-05 2.47854918e-05)
(0.0002519945106 3.251794477e-05 -1.493187678e-05)
(0.0002560718859 8.245270085e-05 1.894574865e-05)
(0.0002423731503 6.885610611e-05 7.210313818e-05)
(0.0002667939732 6.086331753e-05 -1.447373738e-05)
(0.0002161200385 6.737472963e-05 1.219883188e-05)
(0.0002007415584 4.34980036e-05 -2.298447467e-05)
(0.0002411038344 7.641732218e-05 -3.165914141e-06)
(0.0002331933872 3.926389007e-05 1.967243412e-05)
(0.0002419297582 6.946191134e-05 1.020446101e-05)
(0.0002652164943 3.9585719e-05 2.86320573e-06)
(0.0002815250893 8.151297962e-05 1.908310778e-05)
(0.0003145361442 6.494305235e-05 -1.282521881e-06)
(0.0003062600557 6.80895059e-05 -2.987388245e-06)
(0.0002904219143 9.399313782e-05 -5.31838769e-06)
(0.0002735564578 5.320905558e-05 -2.04221877e-05)
(0.0002845754872 9.346048408e-05 -3.504780671e-05)
(0.0002860014159 7.664029459e-05 -2.999378392e-05)
(0.0002829539393 3.93224318e-05 -2.550129041e-05)
(0.000273291735 7.190950189e-05 8.860259438e-07)
(0.0002888565947 7.069259421e-05 4.445164862e-05)
(0.0003006830173 9.167439135e-05 2.741318364e-05)
(0.0002818158714 8.600123397e-05 7.761349012e-07)
(0.0002755839076 8.49950541e-05 6.592390548e-05)
(0.0002751377069 0.0001075860487 4.837336178e-05)
(0.0003130047857 6.446933979e-05 2.390938309e-05)
(0.0003274473304 8.146186366e-05 2.125641997e-05)
(0.0003242120482 0.0001036971956 2.411444626e-05)
(0.0002869668817 8.244246364e-05 2.361718461e-05)
(0.0002817608026 6.426642656e-05 3.698946916e-05)
(0.000275010468 9.22510324e-05 5.066256546e-06)
(0.0002728231351 5.913473735e-05 -3.682635867e-05)
(0.0002747641359 8.81693773e-05 9.658100554e-06)
(0.0002565093033 6.464289091e-05 2.784968069e-05)
(0.0002843878987 6.580563998e-05 -3.863942257e-05)
(0.0002648419568 7.696573689e-05 -4.7710396e-05)
(0.0002873654278 7.108922982e-05 1.343024892e-05)
(0.0002774133712 6.197801927e-05 1.661388573e-05)
(0.0002817810824 5.807053454e-05 1.519912617e-06)
(0.0002720524633 4.555545042e-05 -7.945538438e-06)
(0.0002831210813 6.049987583e-05 -1.725745373e-05)
(0.0002810035857 7.457196884e-05 -1.937033089e-05)
(0.0002806913321 5.495913687e-05 3.188677619e-05)
(0.0003023088013 7.66785629e-05 8.455228426e-06)
(0.0002907493976 9.4409087e-05 -4.859295657e-05)
(0.0002862752652 7.643148518e-05 -1.307677977e-05)
(0.0003236046157 7.08822296e-05 -1.082648418e-06)
(0.0003203050848 0.0001012480721 9.271922229e-06)
(0.0002953022905 5.732498288e-05 -4.277941731e-05)
(0.0003235945005 6.584856316e-05 -1.472210559e-06)
(0.000360701905 7.44781431e-05 4.824119246e-05)
(0.000335733577 0.0001261862253 1.266551682e-05)
(0.0003506464711 0.000107661567 6.981019659e-05)
(0.0003460425505 6.044128813e-05 5.965031558e-05)
(0.0003329582574 0.0001361771978 6.951212149e-05)
(0.0003296646316 7.652490439e-05 1.406901392e-05)
(0.0003092656387 8.166300178e-05 -3.022778677e-05)
(0.0003212384146 0.0001076285823 -1.438807537e-06)
(0.0003383604912 9.373580562e-05 -9.428094407e-06)
(0.0003419230234 9.525244731e-05 1.544635253e-05)
(0.0003392297006 0.0001090713057 -6.705781631e-05)
(0.0003568166685 6.834703499e-05 -3.437599871e-05)
(0.0003428829578 0.0001261055361 -2.338719559e-05)
(0.0002956668033 0.0001011628063 1.675045952e-05)
(0.0003387553908 7.721172697e-05 -1.910745111e-05)
(0.000263131146 1.352708325e-05 -3.494220732e-06)
(0.000273967227 0.0001001102409 -6.409253419e-06)
(0.000249517 5.071587541e-05 -2.16656944e-05)
(0.0002610395769 6.444163211e-05 5.686446344e-06)
(0.0002278178788 5.874368394e-05 1.852450088e-06)
(0.0002585636723 5.188371916e-05 4.084031611e-06)
(0.0002860126306 3.385898071e-05 -2.003084945e-05)
(0.0002849862296 6.400470677e-05 4.119644656e-05)
(0.0002846405372 7.31047826e-05 2.196566528e-05)
(0.0002837459768 8.872738304e-05 -4.538054685e-05)
(0.0003357505836 6.85118394e-05 1.422625548e-05)
(0.0003175546935 8.011321444e-05 2.339054016e-06)
(0.0003303865336 9.547428454e-05 -1.639848632e-06)
(0.0003406581363 6.856457469e-05 -1.841291003e-05)
(0.0003324992022 6.71213111e-05 8.273684807e-06)
(0.0003267576985 6.481054603e-05 3.361840819e-05)
(0.0003501783998 0.0001132645881 2.464913058e-05)
(0.0003481203677 0.0001204000929 4.649145188e-05)
(0.000327330792 6.970235518e-05 4.717851689e-05)
(0.0003704864988 0.0001256792438 -4.054661271e-05)
(0.0003688889029 0.0001039351441 -5.152038075e-05)
(0.0003192393585 0.0001054227072 -3.918921125e-05)
(0.0003497849602 8.65871714e-05 -1.97865775e-05)
(0.0003589570359 0.0001084565804 -4.544516414e-06)
(0.0003450699264 9.688875612e-05 -4.278352312e-05)
(0.000370009554 9.439559935e-05 -1.65192417e-05)
(0.000370961191 0.0001038248905 -4.483149399e-05)
(0.0003237828303 0.0001123975176 -2.627345947e-06)
(0.0003518767595 0.0001272521572 1.190004706e-05)
(0.0003828188339 7.577607037e-05 3.256285186e-06)
(0.000223743335 1.357932251e-05 -2.885669626e-05)
(0.0002187290062 8.417097316e-05 -5.576708464e-05)
(0.0002680347836 3.701585022e-05 -9.083466703e-06)
(0.0002800698544 9.03972319e-05 -1.232479368e-05)
(0.0002766033838 7.339255882e-05 -3.877890624e-05)
(0.0002635113832 1.829150365e-05 2.919142221e-05)
(0.0002778474104 3.379727445e-05 4.15538177e-05)
(0.0003034788977 7.328786756e-05 8.230099848e-05)
(0.0002891833191 6.200143354e-05 7.791266441e-06)
(0.0003331961542 7.954336163e-05 -1.176469801e-05)
(0.0003274943919 6.125249362e-05 4.560022118e-05)
(0.0003172111075 9.403589958e-05 1.678088528e-06)
(0.0003326717739 9.041014058e-05 -5.0210988e-05)
(0.0003572481423 4.529350715e-05 -1.992259947e-05)
(0.0003639807703 0.0001052937997 2.388594377e-05)
(0.0003239981404 6.298138852e-05 3.785834937e-05)
(0.0003354474256 0.0001143066201 6.670288063e-06)
(0.0003435249029 0.0001326260297 1.424890804e-05)
(0.0003436359899 7.279141058e-05 4.036501911e-05)
(0.0003341080686 9.440243542e-05 -1.953755797e-05)
(0.0003098955858 0.0001142281338 -3.332455527e-05)
(0.0003399799408 9.143644982e-05 -2.206929277e-05)
(0.0003612277751 7.27791648e-05 -5.535606024e-05)
(0.0004045834493 0.0001296002023 -4.015669842e-09)
(0.0003929270029 0.0001149427141 -5.906593594e-05)
(0.0003878233464 8.408137171e-05 3.724294467e-07)
(0.0003829876656 0.0001111202045 -2.82714572e-05)
(0.0004081550976 0.0001360759761 -2.238998038e-05)
(0.0003840560412 0.0001639990355 -3.516550805e-05)
(0.0003777883279 5.695051914e-05 -6.89116676e-06)
(0.0002668760938 6.224601339e-05 6.384846484e-06)
(0.000255667392 6.553197086e-05 -1.540269788e-05)
(0.0002284044924 2.874944959e-05 -4.648182015e-05)
(0.0002476531097 8.467712737e-05 -2.357693685e-05)
(0.0002877991035 5.515880894e-05 -5.073285788e-05)
(0.0002936259182 2.359840496e-05 4.606822134e-05)
(0.0002898938642 2.073293368e-05 6.087069914e-05)
(0.0002647234975 7.804552247e-05 9.930635493e-05)
(0.000293041749 6.687978415e-05 4.391515446e-05)
(0.0003004542572 4.16446982e-05 -1.616576962e-05)
(0.0003351200097 7.174725356e-05 -2.081846592e-05)
(0.0003347577511 8.287656589e-05 -1.576642522e-05)
(0.0003186073093 9.089965712e-05 -2.78202847e-05)
(0.0003592212851 4.579538171e-05 4.830586282e-05)
(0.0003568556655 8.254891326e-05 2.847083199e-05)
(0.0003717668872 9.677542048e-05 1.060657704e-05)
(0.00037856655 9.777957373e-05 -3.074500285e-05)
(0.0003956294613 0.0001438514051 1.973040651e-05)
(0.0003824793255 0.0001034956627 5.957937263e-06)
(0.0003720995227 0.0001208548309 -2.652697952e-05)
(0.0003968756924 9.971098904e-05 -3.944862252e-05)
(0.0003785935456 0.0001035989063 2.269941878e-05)
(0.0003836500633 8.77397565e-05 9.170190055e-06)
(0.0003289528725 8.034765717e-05 3.079603623e-06)
(0.0004047532377 0.0001011810964 -1.501235942e-05)
(0.0003748612839 0.0001133478415 -3.020968769e-05)
(0.0003536118996 0.0001013022057 -7.620965741e-05)
(0.0003972921481 0.000129107623 -1.084336841e-05)
(0.0004073838502 0.0001579894757 -3.404648138e-05)
(0.0003987619887 0.0001031564766 -5.666331739e-06)
(0.0001918664408 5.930512452e-05 2.25110233e-05)
(0.0002363592067 2.597159359e-05 -3.707454621e-05)
(0.0002740692235 4.630239139e-05 -3.235123848e-05)
(0.0002587916391 5.920451703e-05 -1.603139893e-05)
(0.0002905388191 3.289160023e-05 2.988250788e-05)
(0.0003078616304 3.228318397e-05 7.081896151e-05)
(0.0002860013648 5.510993937e-05 3.234437028e-05)
(0.0002841687369 6.208990104e-05 6.605688267e-06)
(0.0002588581605 7.329652787e-05 -6.228021463e-06)
(0.0002910930642 8.999463399e-06 -4.6981142e-05)
(0.0003199695238 6.525125837e-05 -2.247188571e-05)
(0.0003102637705 7.120577449e-05 2.633186223e-08)
(0.0003663663612 6.148561894e-05 5.684860254e-05)
(0.0003466402338 5.90769135e-05 3.791613551e-05)
(0.0003485103899 6.506895043e-05 -4.552352226e-07)
(0.0003686158001 0.000102627557 1.435160177e-07)
(0.0003509923492 9.284924546e-05 -2.726278302e-06)
(0.0003551679259 0.0001261442392 1.085340576e-05)
(0.0003662363544 0.0001062222256 2.192695893e-05)
(0.0003776536187 9.879708305e-05 -4.944320131e-06)
(0.0003685093094 0.0001409326116 -1.981989209e-06)
(0.000384829025 9.399063963e-05 2.347080706e-06)
(0.0003573792694 7.835568593e-05 2.102685466e-05)
(0.0003954481456 0.0001095495812 2.56361818e-05)
(0.0003571878904 8.222740016e-05 -2.954298443e-05)
(0.0004236279027 0.000114776024 -5.655038096e-05)
(0.0004111574915 0.000121869266 -2.794180045e-05)
(0.0003795716555 0.000106140465 -3.061091363e-05)
(0.0003880872514 0.0001593239916 -1.514217401e-05)
(0.0004591794711 0.0001296157077 -1.224790832e-05)
(0.0002711328001 5.990148302e-05 2.150428665e-05)
(0.0002574571418 3.820277681e-05 -2.034559435e-05)
(0.0002763693708 4.03306978e-05 2.537679811e-05)
(0.0003081580564 4.222041991e-05 5.7250914e-05)
(0.0003032411049 5.043717802e-05 4.461644299e-05)
(0.0003012383492 3.774088818e-05 6.599625179e-05)
(0.0002812077246 4.417693714e-05 4.269943541e-05)
(0.0002990755166 7.232822596e-05 1.542568034e-05)
(0.0003118654376 7.605146093e-05 -2.628669249e-06)
(0.0003077955131 1.367166654e-05 -1.488045781e-05)
(0.0003005449225 5.521993008e-05 -8.379856212e-06)
(0.0003548667199 2.500910332e-05 1.632888962e-05)
(0.0003612562664 9.205961119e-05 3.304200589e-05)
(0.0003347865483 5.587604657e-05 -1.962138535e-05)
(0.0003086223029 7.610282956e-05 4.103952808e-05)
(0.0003000696547 7.012696675e-05 -1.052208475e-05)
(0.0003511348595 8.699909585e-05 -2.116888087e-05)
(0.0003621023027 0.0001124310781 -4.220552787e-05)
(0.0003528003087 9.989177431e-05 1.071664954e-05)
(0.0003900293899 8.096033813e-05 2.795623178e-05)
(0.0003631042515 0.0001461149903 5.703288056e-05)
(0.0004069512403 9.969868292e-05 3.976884966e-05)
(0.0003943443119 8.776684499e-05 3.832732282e-05)
(0.0004170782863 0.0001124960617 -4.492161856e-06)
(0.0004173646725 0.0001010641529 5.31026887e-06)
(0.0003762242134 9.419940903e-05 4.478051933e-06)
(0.0003769139618 0.0001149197795 1.095655253e-05)
(0.0003828761518 0.0001201220954 -2.572343872e-05)
(0.0004341519994 0.0001370658227 3.516422557e-05)
(0.0004828386324 0.0001263546085 1.041211555e-05)
(0.0002668464682 4.710748496e-05 6.670474502e-07)
(0.0002785900092 2.520441823e-05 -1.916734062e-05)
(0.0002901927513 4.991929449e-05 3.273098193e-05)
(0.0002768682853 3.967673668e-05 7.737400208e-05)
(0.0002655006481 2.101898054e-05 7.453089821e-05)
(0.0002673468468 6.304793787e-05 4.474017565e-05)
(0.0002640512173 3.687426329e-05 2.516102556e-05)
(0.0002919815531 4.930988348e-05 -1.423360021e-05)
(0.0002970942147 7.340016735e-05 -2.104594019e-05)
(0.0003294131121 1.640130976e-05 -7.21946991e-06)
(0.0003246210227 4.054875551e-05 9.186108725e-06)
(0.0003474280093 2.836934435e-05 1.462943198e-05)
(0.0002928040354 6.604630204e-05 2.328408188e-05)
(0.0003171951162 6.881666113e-05 -1.543348999e-05)
(0.0003296031676 9.601195951e-05 -1.551837421e-05)
(0.0003582978574 7.45802486e-05 -7.052442555e-06)
(0.0003018855413 5.38374418e-05 1.831619975e-05)
(0.0003150078309 0.0001187399544 1.964201779e-06)
(0.000350874528 9.308643979e-05 -6.390733933e-07)
(0.0003647742147 6.651477888e-05 5.113966203e-06)
(0.0003941900366 0.0001266995099 -1.317968423e-05)
(0.0003892080933 8.284279145e-05 -1.563259839e-05)
(0.000410259319 9.881406103e-05 3.686652256e-06)
(0.0004007964684 9.138817097e-05 2.641077267e-05)
(0.0004501230977 0.0001051741893 3.294323316e-05)
(0.0004491741231 0.000127250401 -5.947465862e-07)
(0.000406922422 0.0001421159154 1.452626658e-05)
(0.0004172163426 0.0001284779752 5.326143536e-05)
(0.0003874717376 0.0001027032504 2.63277816e-05)
(0.000412779953 9.58150234e-05 3.550126633e-05)
(0.0002036441008 1.280921101e-05 -1.112215574e-05)
(0.0002194330352 1.77322183e-05 -1.109854303e-07)
(0.0001980237243 5.011972128e-05 1.02061894e-05)
(0.0001917449768 6.19668788e-06 6.559499878e-05)
(0.0002783285379 1.002914825e-05 4.325434932e-05)
(0.0002773716044 6.067060672e-05 1.512634824e-05)
(0.0002823895618 4.385845048e-05 5.763583527e-05)
(0.000266603037 3.791233839e-05 7.885033308e-06)
(0.0003015511211 3.537165792e-05 -2.998349598e-05)
(0.0002962968398 2.482944476e-05 -3.705793557e-05)
(0.0003092211194 3.440577333e-05 1.02467423e-05)
(0.0002714748829 5.118540563e-05 -2.028516733e-05)
(0.0002878554921 6.054317897e-05 -1.071564383e-05)
(0.0003341515264 3.906044916e-05 -6.227227149e-05)
(0.0003839554109 7.964953692e-05 -3.05019294e-05)
(0.0003324326902 0.0001054295902 3.186968391e-05)
(0.0003440830859 7.04483899e-05 1.641510528e-05)
(0.0003461223556 9.908887477e-05 2.051575072e-05)
(0.0003717005063 6.281801787e-05 1.927347552e-06)
(0.0003262705631 0.0001014634505 -1.565358793e-05)
(0.0003523569809 9.499942934e-05 4.790981364e-06)
(0.0003446542091 8.500061311e-05 1.816313883e-06)
(0.0003425634567 8.951849883e-05 -2.109722097e-05)
(0.0003637269035 5.932579807e-05 2.985297582e-05)
(0.0003921379382 7.932803072e-05 3.319729673e-06)
(0.0003625236063 0.0001252097753 2.257090334e-05)
(0.0004031866445 0.0001559147162 -1.03631651e-05)
(0.0004275717894 0.0001024934456 8.892669046e-06)
(0.0004500534738 0.0001084120335 0.0001090970773)
(0.0005177964025 0.0001199688864 3.955762874e-05)
(0.0002434187009 4.220242046e-05 1.570983773e-05)
(0.000222183516 1.8368817e-05 -8.658412155e-06)
(0.0002319305384 4.972421199e-05 7.973003254e-06)
(0.0002446831636 -1.843820249e-05 -1.317609912e-05)
(0.000223760327 -1.202582938e-05 -8.847733479e-06)
(0.0002286518499 4.971841115e-05 -2.552587275e-06)
(0.0002348281164 4.761415843e-05 3.885558648e-05)
(0.0002656915251 1.550636816e-05 1.001135032e-05)
(0.0002865949897 1.659966331e-05 1.792224028e-05)
(0.0002752745675 2.646284485e-05 3.645160697e-05)
(0.0002967303127 2.29944133e-05 1.041114426e-05)
(0.0003076790754 6.66813747e-05 -5.352983918e-05)
(0.0003346694982 7.23624605e-05 -2.085126008e-05)
(0.000299587374 2.505764066e-05 -4.096499078e-05)
(0.000296078882 5.333447163e-05 -4.507381025e-05)
(0.0003417931826 0.0001022218557 -1.661277651e-05)
(0.0003598478706 7.335488135e-05 4.18841215e-06)
(0.0003635341414 8.38397941e-05 5.245493104e-06)
(0.0003274869815 9.493597996e-05 -1.801051555e-05)
(0.000303848771 0.0001002105354 4.638075934e-05)
(0.000307686821 7.806918419e-05 1.141199692e-05)
(0.0003269193148 7.506829133e-05 -2.450698342e-05)
(0.0003479018116 6.474358459e-05 7.045635194e-05)
(0.0003990979758 7.681220372e-05 8.452437141e-05)
(0.0003718648673 4.96415768e-05 4.377240244e-05)
(0.0003933780242 0.0001158505152 7.302452087e-05)
(0.0004237718021 0.0001381574162 4.385695126e-05)
(0.0004306864242 9.933131542e-05 2.295312136e-05)
(0.0004744763442 0.0001029014949 8.949469654e-05)
(0.0004983318525 9.41712823e-05 3.971244576e-05)
(0.0001792094544 -1.219527109e-06 -1.72295734e-05)
(0.0001888001261 2.186011493e-05 -2.004847419e-05)
(0.0002204086574 2.438694839e-05 -3.856513443e-05)
(0.0002379736765 -1.149046678e-05 -1.224965596e-05)
(0.0002438972166 8.505009286e-06 -1.034517393e-05)
(0.0002495204044 1.99783463e-05 4.290603257e-06)
(0.0002650683089 4.04038583e-05 -2.55344227e-06)
(0.000261652645 1.400317005e-05 -2.193967234e-05)
(0.0002603577577 -3.274619054e-06 1.16909169e-05)
(0.0002977259365 3.903377013e-05 -9.43079555e-07)
(0.0002782506384 1.464116376e-05 2.292852622e-05)
(0.0002850218354 5.071589537e-05 -8.049059707e-06)
(0.000287292664 3.569863053e-05 -2.340195191e-05)
(0.0003429602186 5.453212633e-05 1.068070668e-05)
(0.0003510470852 4.690702633e-05 -1.377637169e-05)
(0.0003459496231 8.588936974e-05 -1.388250097e-05)
(0.0003516491149 8.913623861e-05 2.954634041e-06)
(0.0003249674384 9.55387501e-05 -1.135794373e-05)
(0.0003442293034 0.0001199662496 1.175676449e-05)
(0.0003568940412 9.977409055e-05 5.553677229e-06)
(0.0003515134102 7.413813899e-05 2.992444465e-06)
(0.0003774736769 7.61312672e-05 -1.183473183e-05)
(0.0003525688553 3.186420917e-05 5.793758338e-05)
(0.0003933586333 5.772139237e-05 4.24411624e-05)
(0.0003759039177 9.809024591e-05 4.737507439e-05)
(0.0004162557011 7.73784886e-05 5.027634223e-05)
(0.0004446064636 0.0001136365699 -1.138219535e-05)
(0.0004746283151 9.828472449e-05 1.75462019e-06)
(0.0004834028203 0.0001032260231 2.884543869e-05)
(0.0004776255094 0.0001197275278 -1.161298328e-05)
(0.0002445400565 1.107380214e-05 -4.318729808e-05)
(0.0002423276607 1.109308431e-05 1.707209017e-05)
(0.0002231348844 2.888295684e-05 -1.997508421e-05)
(0.0002490973724 -3.828177237e-05 3.455476285e-05)
(0.0002352496039 1.782267867e-05 3.712702195e-05)
(0.0002364524334 1.095826267e-05 -5.606640403e-06)
(0.0002620449375 2.668992531e-05 -6.617770312e-06)
(0.0002756285162 1.937393022e-05 -2.264247279e-05)
(0.0002806546737 -5.106692965e-07 -3.160380475e-05)
(0.0002943279117 2.631228273e-05 -3.976625169e-05)
(0.0002991717788 1.637380139e-05 -2.034448569e-05)
(0.0002965867682 5.327010422e-05 -2.601847703e-05)
(0.0003404061491 2.974712148e-05 -7.84392173e-06)
(0.0003123339854 5.026700062e-05 1.006767194e-05)
(0.000274150109 5.092567854e-05 -1.726966333e-05)
(0.0002860878169 4.750892445e-05 -5.183498228e-05)
(0.0002991148928 9.024012048e-05 5.201771904e-05)
(0.0003431402579 8.607088275e-05 -3.849298444e-06)
(0.0003197887825 0.000100921117 4.637406337e-06)
(0.0003739646249 0.0001016277386 -4.148054545e-05)
(0.0003928839689 7.068164018e-05 -3.77249875e-05)
(0.0003354364895 8.348431739e-05 -5.49504495e-06)
(0.000365426929 4.456558363e-05 2.045261689e-05)
(0.0003626079677 3.185478831e-05 2.121627863e-05)
(0.0003544243654 9.350481153e-05 1.956551064e-05)
(0.0003716605073 5.623895125e-05 -9.42119249e-06)
(0.0003738200183 7.253961163e-05 3.812909503e-05)
(0.0003936591474 9.858131528e-05 1.63808155e-05)
(0.0003905870384 9.032817399e-05 4.215390351e-05)
(0.0004731811011 8.133350658e-05 2.80952133e-05)
(0.0002525551414 3.950724127e-06 1.670236461e-05)
(0.00025652318 5.089026353e-05 1.240749322e-05)
(0.0002662856986 3.153303056e-06 1.593219823e-05)
(0.0002688307818 -3.226976794e-05 2.575319426e-05)
(0.0002587610393 5.047485601e-05 2.988936217e-05)
(0.0002601298855 6.050056233e-06 5.044727992e-05)
(0.0002552683278 1.752270346e-05 -2.090650238e-06)
(0.0002301313947 1.271828456e-05 -2.952120072e-07)
(0.0002336050564 -1.808930244e-05 1.771213539e-05)
(0.0002360077902 -1.626731733e-05 1.313997048e-05)
(0.0002538981839 3.75949319e-05 -3.084847387e-05)
(0.0002677519612 2.933190529e-05 -3.039852425e-06)
(0.0002904096324 -1.322949123e-06 -4.454992525e-05)
(0.0002945012513 6.038415839e-05 -4.048187896e-05)
(0.0003082604344 7.346006021e-05 -1.726694972e-05)
(0.0003204250965 5.065052893e-05 8.780974067e-06)
(0.0003120208041 6.132149222e-05 5.819094111e-05)
(0.0003075807333 8.990223542e-05 2.054215764e-05)
(0.0003444475459 9.683273373e-05 -1.471904275e-06)
(0.0003471514715 5.717756226e-05 2.596944891e-05)
(0.0003389983868 9.422846504e-05 2.189704233e-05)
(0.0003869910093 8.363492892e-05 -6.828367054e-06)
(0.0003734799015 3.703767527e-05 3.19477522e-05)
(0.0003600219329 4.887792078e-05 8.197851102e-06)
(0.0003651985009 0.0001026607562 -8.670369818e-06)
(0.0003499412002 6.388283916e-05 -1.741232637e-05)
(0.0003876643162 2.320475886e-05 2.92355073e-05)
(0.0003841064639 8.933783473e-05 -2.345052915e-05)
(0.0004003743541 7.989188648e-05 1.242104131e-05)
(0.0004189594768 5.321172624e-05 -5.090751169e-07)
(0.0001723053051 8.547253392e-06 -2.153082676e-05)
(0.0002110802106 2.809785129e-05 9.15864123e-06)
(0.0002377380631 -2.211911799e-05 5.402220634e-05)
(0.0002391396052 2.510364213e-06 1.017022828e-05)
(0.0002502622428 1.882306286e-05 -1.042633915e-06)
(0.0002394248599 -1.211632454e-05 4.097261558e-05)
(0.0002706421952 3.500786929e-05 3.725111358e-05)
(0.0002959883623 3.009380847e-05 2.585098379e-05)
(0.0002570693865 -6.852581946e-06 2.871366893e-05)
(0.0002763435209 -9.794775664e-06 5.776993653e-05)
(0.0002579896143 3.015378408e-05 -2.77450944e-05)
(0.0003044590129 1.231069587e-05 2.001346882e-05)
(0.0002806746324 7.467751203e-06 -3.075585845e-05)
(0.0002837258641 3.560335925e-05 3.636937365e-05)
(0.0003199186646 5.08678074e-05 4.893824321e-06)
(0.0003040912032 5.649863866e-05 1.140730698e-05)
(0.0003082633301 6.923026976e-05 8.16736462e-05)
(0.0003075168462 7.100376443e-05 3.191835742e-05)
(0.0003282654626 9.29947727e-05 1.150840453e-05)
(0.0002978594757 7.339906433e-05 1.046477457e-05)
(0.0003311368661 6.303185855e-05 3.523019222e-05)
(0.0003637763811 3.843613961e-05 -6.990800394e-06)
(0.0003694690711 6.040985406e-05 -2.146102251e-05)
(0.0003320054534 7.805711636e-05 -1.458530022e-05)
(0.0003628059275 6.136295083e-05 2.678252661e-05)
(0.0004033582524 5.749335154e-05 1.365472254e-06)
(0.0003969182271 4.581852903e-05 -6.61523616e-07)
(0.0003898767119 8.943551069e-05 -4.792909545e-07)
(0.0004196295444 6.293395563e-05 1.003512095e-05)
(0.0002327848751 1.215964224e-06 -4.903224725e-06)
(0.0002283570512 -1.1994597e-05 2.909597698e-05)
(0.0002363553241 -1.886198346e-05 4.492578364e-05)
(0.0002395509897 -1.437064006e-05 4.374165178e-05)
(0.0002469259511 1.034480105e-05 3.38849646e-05)
(0.0002634958668 4.568641801e-06 5.935149327e-05)
(0.0002633094345 -1.336501952e-05 4.439263147e-05)
(0.000255718805 6.803262025e-05 3.311960961e-05)
(0.0002606901532 -2.317748758e-06 3.61914169e-06)
(0.0002636620308 -2.707886062e-05 -2.805440652e-05)
(0.0002832148401 1.463207775e-05 -4.745826572e-05)
(0.0002704223541 -1.036043972e-06 -7.198662163e-05)
(0.000280294552 5.144362492e-05 1.911207515e-06)
(0.0002549807256 2.843318333e-05 5.453625092e-05)
(0.0002549226347 2.159451619e-05 3.42047431e-06)
(0.000282369478 7.373358926e-05 3.758566122e-05)
(0.0002947535442 4.590563031e-05 -7.751437657e-06)
(0.0002969289873 7.117278075e-05 -2.314966565e-05)
(0.0003319274178 5.676087382e-05 6.310182678e-06)
(0.0003694816654 8.917666289e-05 3.329307544e-05)
(0.0003749608236 3.314954203e-05 4.738301753e-05)
(0.0003531160623 4.829586869e-05 -7.775663342e-06)
(0.0003236029296 8.013388345e-05 2.94692109e-05)
(0.0003267515154 6.883261162e-05 2.500360594e-05)
(0.00022979294 -2.693403873e-05 2.299047662e-05)
(0.0002599608031 -8.593785397e-06 2.479506013e-06)
(0.0002319800511 -1.614447064e-05 2.784282742e-05)
(0.0002695762853 -2.562910662e-05 3.517666195e-05)
(0.0002596183931 1.949594578e-05 1.242248874e-05)
(0.000252871295 -7.270669188e-07 -1.086866246e-05)
(0.0002268866477 -1.302510912e-05 -3.804554271e-05)
(0.0002450062418 3.854335728e-05 1.65023151e-05)
(0.0002705351534 5.487242861e-06 3.264030634e-05)
(0.0002520541079 -1.6888197e-05 -2.915546275e-05)
(0.0002313413426 2.219169372e-05 -4.692936518e-05)
(0.0002287043285 -2.425853852e-05 -4.387698329e-05)
(0.0002498748783 4.306179748e-05 2.489964678e-05)
(0.0002811094268 2.075539598e-05 1.852860835e-05)
(0.0003037801369 3.029852595e-05 2.425731906e-06)
(0.0002853786992 6.358474714e-05 -2.435488968e-05)
(0.0002971574782 3.539433109e-05 -4.335650976e-05)
(0.0003049622537 7.189539051e-05 -2.33315366e-05)
(0.0003089000013 2.778267728e-05 -1.355929617e-05)
(0.0002327958039 -2.527502677e-06 -7.130896169e-06)
(0.0002093449348 -2.297641156e-05 1.317957234e-05)
(0.0002422886024 -2.151313028e-05 4.672043229e-05)
(0.000240537198 -4.04618838e-05 1.212576663e-05)
(0.0002176757649 2.103606109e-05 3.552088984e-06)
(0.0002265946164 -7.320238706e-06 3.717719101e-06)
(0.0002223055919 1.219863193e-05 -2.378607088e-05)
(0.0002434113194 -2.432233765e-07 -1.103418734e-05)
(0.0002643184132 4.703492382e-06 1.002108443e-05)
(0.0002829791959 1.512847657e-06 -2.987760779e-05)
(0.000268965055 2.785452949e-05 -3.169013823e-05)
(0.0002873279662 -1.4388501e-05 -2.226287191e-06)
(0.0002780265714 1.408446728e-05 -4.688422914e-05)
(0.0002940895042 1.704889508e-05 4.589251087e-05)
(0.0002104425745 -2.866592235e-05 -3.024796142e-05)
(0.0002270257286 -1.769567979e-05 1.732765221e-05)
(0.0002331239912 -4.254858759e-05 2.881649144e-05)
(0.0002146728414 -2.487154029e-06 2.801174038e-05)
(0.0002113797526 2.687511379e-05 -1.408813394e-05)
(0.0002017177111 -2.477350249e-06 -3.572163209e-05)
(0.0002352864763 7.176804014e-06 -0.0001066767203)
(0.0002516247596 -1.433188333e-05 -6.065202737e-05)
(0.0001896648073 -3.717428263e-05 -3.831730901e-05)
(0.0002237228157 -2.347487286e-05 -5.76138459e-07)
)
;

boundaryField
{
    flow
    {
        type            calculated;
        value           nonuniform List<vector> 
15
(
(0.0002386973064 6.739497428e-05 1.703375855e-05)
(0.0002667939732 6.086331753e-05 -1.447373738e-05)
(0.0002843878987 6.580563998e-05 -3.863942257e-05)
(0.0003387553908 7.721172697e-05 -1.910745111e-05)
(0.0003828188339 7.577607037e-05 3.256285186e-06)
(0.0003777883279 5.695051914e-05 -6.89116676e-06)
(0.0003987619887 0.0001031564766 -5.666331739e-06)
(0.0004591794711 0.0001296157077 -1.224790832e-05)
(0.0004828386324 0.0001263546085 1.041211555e-05)
(0.000412779953 9.58150234e-05 3.550126633e-05)
(0.0005177964025 0.0001199688864 3.955762874e-05)
(0.0004983318525 9.41712823e-05 3.971244576e-05)
(0.0004776255094 0.0001197275278 -1.161298328e-05)
(0.0004731811011 8.133350658e-05 2.80952133e-05)
(0.0004189594768 5.321172624e-05 -5.090751169e-07)
)
;
    }
    obstacle
    {
        type            calculated;
        value           nonuniform List<vector> 
30
(
(3.494853328e-23 9.364431286e-24 1.512112295e-23)
(3.372453787e-23 9.036462704e-24 1.830532045e-23)
(1.306193817e-23 3.499935775e-24 -2.116112188e-23)
(8.823807869e-23 2.364332197e-23 -1.256043744e-24)
(1.293532709e-23 3.466010437e-24 1.184591315e-23)
(1.929734289e-23 5.170707452e-24 -1.283531337e-23)
(6.762542337e-23 1.812017761e-23 -3.658313052e-23)
(2.707065843e-23 7.253561043e-24 -2.720893434e-24)
(7.230784137e-23 1.937482774e-23 1.333688306e-23)
(7.011634532e-23 1.878761814e-23 -2.012091608e-24)
(2.478341492e-23 6.640695992e-24 -7.619049898e-24)
(1.18263036e-23 3.168848505e-24 1.757326558e-23)
(3.090914526e-23 8.282080526e-24 -5.221533814e-25)
(5.13342507e-23 1.375497098e-23 1.358741365e-23)
(3.20800933e-23 8.595835108e-24 -8.395020546e-24)
(3.628102236e-23 9.721470612e-24 3.294539251e-23)
(8.781964206e-23 2.353120221e-23 4.770501063e-24)