/*--------------------------------*- C++ -*----------------------------------*\
  =========                 |
  \\      /  F ield         | OpenFOAM: The Open Source CFD Toolbox
   \\    /   O peration     | Website:  https://openfoam.org
    \\  /    A nd           | Version:  7
     \\/     M anipulation  |
\*---------------------------------------------------------------------------*/
FoamFile
{
    version     2.0;
    format      ascii;
    class       volScalarField;
    location    "0.006";
    object      p;
}
// * * * * * * * * * * * * * * * * * * * * * * * * * * * * * * * * * * * * * //

dimensions      [1 -1 -2 0 0 0 0];

internalField   nonuniform List<scalar> 
546
(
3.922158043
3.827232859
3.832700348
3.731020922
3.641587158
3.624068929
3.610911348
3.562672115
3.450044058
3.403761969
3.276403667
3.286790593
3.321859363
3.221768526
3.251627368
3.312760621
3.169919096
3.158070255
3.089782111
3.0366617
3.059303271
3.019822291
2.992235139
2.960478454
2.886615013
2.808771838
2.670287396
2.562955943
2.297654166
1.841644662
3.876461477
3.833926082
3.836895045
3.787143617
3.722125484
3.654176428
3.608155154
3.563269466
3.531908211
3.478460681
3.445193895
3.385631064
3.388179992
3.308094425
3.326561534
3.258896794
3.198723067
3.19301028
3.099991983
3.116361526
3.097717422
3.053296889
2.984385563
2.982332937
2.91247545
2.779865187
2.71621609
2.484060393
2.16415365
1.738748115
3.674710317
3.710109542
3.725653821
3.644317103
3.610915473
3.642378208
3.611761253
3.453083327
3.465293546
3.421481195
3.431963982
3.36723131
3.349051168
3.288471174
3.309585931
3.256058085
3.217310227
3.166834538
3.163026872
3.113282093
3.104977713
3.02933598
3.039393338
2.93806247
2.918956831
2.809774309
2.623084405
2.423210005
2.173357722
1.758542626
3.458011346
3.470566744
3.491895007
3.469966547
3.492816682
3.493253917
3.485998079
3.469678218
3.432642024
3.349797429
3.323298041
3.315074588
3.320256891
3.278491107
3.274003038
3.215093434
3.159786622
3.123573655
3.157649031
3.0947155
3.045009788
3.02834675
3.01975478
2.933498121
2.849377638
2.742343914
2.601393212
2.430603175
2.171389937
1.790815654
3.106596279
3.191786466
3.243446455
3.304922103
3.327880832
3.350666017
3.384190839
3.37888073
3.260828455
3.28165321
3.278093509
3.271953387
3.254482583
3.201224177
3.205227518
3.160213096
3.109806381
3.079346321
3.09968996
3.044561393
3.03365262
3.03472898
2.960646995
2.877280862
2.794278559
2.733847482
2.582038089
2.38871615
2.215433133
1.899620994
2.767366882
2.916758933
3.020002266
3.035405604
3.16971669
3.158021292
3.24619918
3.203361105
3.188441087
3.193666449
3.223321072
3.14387826
3.171300318
3.123972492
3.156643214
3.138534732
3.145785883
3.062832406
3.058121375
3.072772823
3.022644932
3.002095127
2.941198772
2.916437827
2.821673473
2.706600292
2.551011391
2.469757073
2.244933629
2.016718778
2.457464603
2.593626355
2.70988474
2.825640597
2.909375032
2.959004504
3.026273522
3.05638464
3.150518009
3.12590581
3.140086781
3.071046835
3.068209813
3.046472904
3.08382139
3.104422422
3.077558982
3.080410946
3.030753968
2.98992749
2.993275193
3.023881456
2.911612049
2.846646754
2.805288369
2.709608033
2.628832047
2.505094683
2.300214912
2.065563313
2.137380293
2.316691327
2.442814053
2.557259002
2.682646605
2.779284992
2.842982881
2.909867918
2.950544793
2.979433094
2.988322639
3.005315026
3.052181689
3.05120352
2.993153776
3.00179521
3.017878276
3.049481217
3.051551231
2.951422059
2.92088911
2.976812173
2.886045258
2.848550903
2.765925733
2.693661325
2.614383136
2.486637347
2.33575386
2.191936343
1.819149518
1.970918621
2.143334494
2.263766477
2.384005946
2.541724599
2.639141746
2.70001987
2.789621678
2.850914033
2.897703919
2.941171761
2.943074885
2.975012938
2.937750181
2.949617861
2.931603807
2.979304562
2.980544265
2.96534573
2.905044432
2.902579804
2.866884795
2.791404383
2.775158667
2.71440781
2.60640427
2.539122181
2.418881104
2.224713513
1.52954535
1.691129149
1.883040539
1.974068389
2.071394034
2.225577026
2.367068088
2.508822295
2.579312263
2.615818181
2.696666817
2.758149049
2.772743874
2.836117038
2.923897325
2.906923856
2.907431985
2.897899742
2.878662704
2.923065708
2.826415217
2.850550538
2.865470178
2.795832941
2.763312731
2.726987128
2.640173725
2.545817122
2.422355391
2.267240763
1.31500364
1.402903465
1.577170321
1.739561825
1.815505826
1.975716238
2.128281174
2.196914892
2.303483627
2.440072688
2.485888907
2.609199833
2.662598497
2.739864173
2.81305241
2.853235654
2.870514522
2.776783856
2.818730562
2.845537484
2.849814829
2.866985205
2.854421641
2.782601463
2.768504066
2.748824055
2.62256522
2.532063605
2.442827536
2.338781238
1.092183469
1.23854396
1.29909908
1.454027757
1.611389339
1.727632009
1.833817613
1.958110561
2.084981221
2.22838453
2.349136627
2.443203378
2.502983843
2.577625352
2.666191596
2.719471187
2.741922772
2.743123632
2.757346484
2.825505722
2.827609305
2.818999717
2.76102423
2.775022275
2.698375435
2.696805834
2.661272419
2.559873046
2.517322646
2.400592538
0.9526159915
1.038886107
1.122896438
1.226117915
1.33607812
1.460797705
1.587934027
1.698499944
1.854308177
1.971334117
2.12846353
2.226222381
2.322041277
2.424812554
2.479457403
2.565030591
2.687086649
2.71813901
2.74133246
2.745862865
2.781257944
2.849934393
2.793171336
2.713398654
2.675702827
2.650371046
2.684798972
2.618945124
2.560835316
2.456919341
0.8089081017
0.8886803329
0.97791393
1.067329732
1.135630887
1.253768202
1.37042362
1.488588365
1.59897178
1.758978365
1.886524477
2.026690686
2.111415079
2.228955089
2.308510697
2.409898614
2.480431637
2.533694787
2.57001311
2.631005105
2.720493648
2.681300584
2.721564024
2.720055096
2.669281051
2.660334461
2.659927446
2.63598387
2.595273505
2.519897632
0.728109372
0.7617686573
0.8234307704
0.9067713845
0.9890635638
1.087378614
1.189390655
1.30186534
1.394586501
1.525387232
1.650955249
1.76705772
1.870147584
1.971892769
2.099565572
2.204937723
2.316310319
2.364617725
2.450252278
2.556042303
2.55796017
2.645895862
2.676017974
2.698363011
2.719201622
2.621720918
2.667317831
2.612713678
2.557376138
2.462446142
0.6361337765
0.6681439201
0.7226776998
0.7896613324
0.8392701286
0.9317319865
1.031509191
1.107622184
1.221131908
1.30494917
1.408415861
1.528206716
1.651288448
1.763304985
1.895398947
2.029602152
2.120364598
2.231380993
2.303425823
2.411059281
2.461883459
2.509362904
2.598583503
2.680960874
2.67051354
2.648138355
2.617860163
2.587032042
2.578760636
0.5805552861
0.6128213175
0.6587878428
0.7251258698
0.7561389839
0.8212563178
0.8975935147
0.9665958089
1.052667872
1.141974135
1.249286238
1.341654321
1.472457852
1.56079712
1.692511218
1.790468735
1.898799639
2.030646999
2.144425745
2.216255557
2.342652001
2.411839829
2.467816895
2.555476543
0.5420853259
0.5707882089
0.6118272669
0.6430303603
0.6759204403
0.7155553899
0.7717927229
0.8415714018
0.8888092575
0.9760329952
1.061241006
1.175462923
1.229188767
1.367401578
1.491577554
1.584627057
1.747356897
1.820433702
1.972806636
0.5076103642
0.5358825825
0.5555154885
0.5883642267
0.6239619373
0.6674225474
0.6967141986
0.7438703118
0.7888949203
0.8513173428
0.9202857049
1.007561971
1.092476756
1.193509795
0.4855657788
0.5075228958
0.5195999174
0.5402614508
0.5709329102
0.5997432228
0.6291333591
0.6726719502
0.4715225317
0.4778233846
)
;

boundaryField
{
    flow
    {
        type            calculated;
        value           nonuniform List<scalar> 
15
(
1.841644662
1.738748115
1.758542626
1.790815654
1.899620994
2.016718778
2.065563313
2.191936343
2.224713513
2.267240763
2.338781238
2.400592538
2.456919341
2.519897632
2.462446142
)
;
    }
    obstacle
    {
        type            calculated;
        value           nonuniform List<scalar> 
30
(
3.24411757
3.179748672
3.213416014
3.245792545
3.172042114
3.116164675
3.081132495
3.108353701
3.052071097
3.05274827
2.929779472
2.939309453
2.982763132
2.936801163
2.886132694
2.999873787
2.852716869
2.796140301
2.77946798
2.811241898
2.763745141
2.833893862
2.732565436
2.699639337
2.627078741
2.634984929
2.478532169
2.380017629
2.210104427
1.861513673
)
;
    }
    frontAndBack
    {
        type            empty;
    }
    procBoundary1to0
    {
        type            processor;
        value           nonuniform List<scalar> 
21
(
4.055872972
3.964885306
3.745908138
3.373927233
3.02273458
2.704010797
2.32899431
2.021214633
1.646034511
1.387619566
1.159119808
0.9958544736
0.8563774532
0.7409376903
0.6546593237
0.5935841629
0.5539076027
0.5151456234
0.4893199895
0.4827922597
0.4537336051
)
;
    }
    procBoundary1to3
    {
        type            processor;
        value           nonuniform List<scalar> 
36
(
2.574134046
2.599892713
2.616038489
2.594633716
2.586394758
2.574134046
2.558131114
2.071197045
2.161905166
2.258611577
2.336994763
2.599892713
2.40062177
1.295391662
1.386731769
1.544480948
1.664466452
2.071197045
1.752918
0.7109314046
0.7645394213
0.8139676352
0.8725762297
0.9402008624
1.295391662
1.009951784
0.499291853
0.5126864661
0.5324171322
0.5560454756
0.5908478177
0.7109314046
0.615048568
0.4539740047
0.499291853
0.4693006144
)
;
    }
}


// ************************************************************************* //
