/*--------------------------------*- C++ -*----------------------------------*\
  =========                 |
  \\      /  F ield         | OpenFOAM: The Open Source CFD Toolbox
   \\    /   O peration     | Website:  https://openfoam.org
    \\  /    A nd           | Version:  7
     \\/     M anipulation  |
\*---------------------------------------------------------------------------*/
FoamFile
{
    version     2.0;
    format      ascii;
    class       volScalarField;
    location    "0.006";
    object      p;
}
// * * * * * * * * * * * * * * * * * * * * * * * * * * * * * * * * * * * * * //

dimensions      [1 -1 -2 0 0 0 0];

internalField   nonuniform List<scalar> 
546
(
0.4862599497
0.496458484
0.5179714961
0.5133281144
0.5091509739
0.5185566772
0.5205037243
0.5223921502
0.4965797852
0.4917982412
0.5185104782
0.5327889892
0.5160511149
0.5324369981
0.5406219186
0.5242289499
0.5415584736
0.5425165843
0.545433578
0.5604863719
0.5571130359
0.562116321
0.545569525
0.5407855335
0.5753712166
0.5761668677
0.5806959778
0.6156110865
0.5841029874
0.5890968042
0.508889842
0.5241664641
0.5341518044
0.5058815013
0.5091418078
0.508872844
0.5100586097
0.526472489
0.5331052638
0.5293231042
0.5395620799
0.5492856166
0.5361212002
0.5471987388
0.5676061342
0.5640411165
0.577039828
0.5798720557
0.5548313886
0.5655622308
0.5606921218
0.5807701655
0.5949830886
0.6149003232
0.5926625547
0.6251376141
0.6267325849
0.6149403795
0.633618213
0.6215714798
0.5321583943
0.5370735207
0.538415362
0.5364195928
0.5561644415
0.5295975985
0.5487833202
0.5737076475
0.5660682387
0.5615369356
0.5519888234
0.5554812643
0.5899756675
0.5741031242
0.5742723241
0.5700108533
0.6045121584
0.5978945657
0.6110002129
0.5807796838
0.6059130834
0.6007311604
0.6150209783
0.605444111
0.6057088407
0.6359971726
0.6217547296
0.6371955881
0.6449194206
0.6110544191
0.5556507165
0.5377043773
0.5621111294
0.5550239823
0.5456605716
0.5483334937
0.5483599298
0.5715550503
0.5576915737
0.5581786432
0.5707295119
0.5733963561
0.57858804
0.6117552267
0.6113277593
0.6220397933
0.6246190549
0.6253184666
0.633657395
0.621022963
0.6070838426
0.6170130583
0.6196771887
0.6194504214
0.6310544056
0.650619532
0.6507960541
0.6658130365
0.6599103442
0.6402570817
0.5397433041
0.5179043657
0.5101013774
0.5136454586
0.5408755637
0.5489033058
0.5511598096
0.5574263311
0.5580701368
0.5603492287
0.5707318173
0.6105735371
0.6065724066
0.5822805581
0.6067784705
0.6032077924
0.6181961252
0.6159659521
0.6109181231
0.5933716322
0.6112908465
0.6108455734
0.6264474448
0.6356410546
0.6456601041
0.6446361019
0.656677587
0.6580489856
0.6509045328
0.6626722904
0.5175717668
0.5150879021
0.5006386664
0.5397537195
0.537161972
0.5402204151
0.5426410336
0.5579177173
0.5644531111
0.5831149965
0.5876085766
0.5673388689
0.6038636082
0.5986412613
0.6103763537
0.6170491108
0.6224816045
0.6214523251
0.6151453099
0.6060424916
0.6160140865
0.6122992473
0.6458895452
0.6433261218
0.6536947752
0.6447742269
0.6639544259
0.6533523386
0.6576904947
0.6505903119
0.5106689128
0.5265244639
0.5077224376
0.5275783635
0.5285431053
0.5384014095
0.5516968764
0.5599534203
0.5717167176
0.5719902496
0.603624571
0.5973702519
0.5937306172
0.5942448183
0.6311419412
0.626518107
0.6300828029
0.6498075139
0.6399063757
0.6260672752
0.6167847586
0.6275740384
0.6375849719
0.6552115474
0.6696385589
0.658030562
0.6545333825
0.667148751
0.6812140805
0.6912317382
0.4960282625
0.5239701794
0.5292869524
0.522518884
0.5347842347
0.5522436901
0.5542652773
0.5370263847
0.5876514608
0.5943405491
0.5932056988
0.5964730101
0.5813870374
0.5988051666
0.6284519652
0.611118888
0.6207660098
0.6178292597
0.6387297454
0.6150571647
0.6146880213
0.6580786526
0.6553929993
0.643779185
0.6431691088
0.6536421163
0.6535943668
0.6595486846
0.6639216836
0.6969236105
0.4955206894
0.5174707418
0.5325017454
0.5354253112
0.5275967621
0.5449148575
0.5667028602
0.5449680647
0.5525093422
0.581317021
0.5832762657
0.599556097
0.5946728689
0.588164893
0.5922738881
0.6036575963
0.6028125274
0.6126086696
0.6230479627
0.6243728125
0.6041483143
0.626859389
0.6619481419
0.6781900706
0.661995461
0.6553947687
0.6783912824
0.693153544
0.7062069579
0.7116380259
0.5285797904
0.5229399846
0.5171796146
0.5437577482
0.5549463578
0.5404636046
0.5356639779
0.5342911673
0.5455315328
0.5655030576
0.576579633
0.5887979094
0.5793182329
0.5909766922
0.6068805339
0.6137208462
0.607815809
0.5961699822
0.6108719787
0.6117133113
0.6478112253
0.661032591
0.6666526032
0.6687332207
0.6530079841
0.6752851164
0.668456401
0.6969030135
0.6914485699
0.6924940293
0.508141047
0.5118653642
0.5299300989
0.5280404137
0.5261312715
0.5352353269
0.5302352478
0.5476801603
0.5496073727
0.5569188678
0.5630338106
0.5824134838
0.5809888417
0.5722531996
0.6045075716
0.6043141161
0.6139031594
0.6136729343
0.6147610235
0.6072841413
0.6154660223
0.6406350649
0.639927947
0.650586287
0.6471163802
0.66479761
0.6944860187
0.6953742149
0.7280732333
0.730758116
0.4983651122
0.5075098423
0.5121246505
0.5079703471
0.5368863534
0.536447039
0.5339768996
0.5265871163
0.5309019052
0.5545457225
0.5444662396
0.563147236
0.559297912
0.5545969185
0.5784673709
0.5874521602
0.6021074987
0.5916250404
0.6006345537
0.6131092257
0.6106450324
0.6055862698
0.6306380948
0.6669880813
0.6606678656
0.663972681
0.6816683725
0.6720904181
0.7127810482
0.7354718813
0.4954264167
0.506118146
0.505145509
0.5263865427
0.523283754
0.5318294591
0.5380283511
0.5384761888
0.5229284744
0.5384663292
0.5372229932
0.569525542
0.5485150939
0.5523070821
0.5871756229
0.5683049297
0.5987901693
0.6012185183
0.6012460871
0.6173563647
0.6130676181
0.6274849762
0.6373767472
0.6443569002
0.6515776011
0.6525323821
0.6669327615
0.6913527503
0.7007531223
0.7118810768
0.5073624173
0.493338805
0.5139917996
0.5143756964
0.5165090428
0.5192244568
0.5458463097
0.5509854829
0.5573648835
0.5561545261
0.5530118631
0.5524548686
0.5626625434
0.5555139456
0.5740369611
0.5886098138
0.6017524974
0.5947017299
0.6158489401
0.636722514
0.6464157386
0.6279102295
0.6344900514
0.6371320827
0.6691642664
0.6377108644
0.6388914041
0.6586372138
0.6925215575
0.7276386854
0.5196140842
0.5136701947
0.502632478
0.5123264012
0.5243091139
0.5364811783
0.5396318954
0.5445047242
0.5378467961
0.5458962867
0.5452203401
0.5503460336
0.5435269583
0.5685862891
0.5811891706
0.5902532492
0.5897404482
0.5926337123
0.6016112809
0.5941039247
0.6124953953
0.6080499239
0.6207246427
0.6406790099
0.635275054
0.6491377762
0.6600942021
0.6683912721
0.6681190247
0.682188311
0.5005395522
0.5033561361
0.5062095788
0.5122581279
0.5256018721
0.5168150006
0.5427636711
0.5423707444
0.5654530999
0.5672570909
0.5376608897
0.544110039
0.5623729367
0.5567053428
0.5591512696
0.566521266
0.5591273546
0.5833849889
0.5766175036
0.5993123709
0.5921766188
0.6182047512
0.6107877369
0.6024675225
0.6434898296
0.6471830041
0.6653299835
0.6657192518
0.6816435566
0.5178412628
0.5178081787
0.5188427236
0.5130949695
0.5035294047
0.5097330612
0.5216704267
0.5366788698
0.5224459864
0.5404627865
0.5410854283
0.5555645365
0.5480086979
0.5360377902
0.551039464
0.561008288
0.5653303314
0.5961413817
0.6155081689
0.6209392313
0.5984090457
0.6016879541
0.6240336749
0.611112569
0.5143365918
0.5201166266
0.4998731232
0.5075691626
0.5106850114
0.5137337065
0.5312231331
0.5353761945
0.5354550434
0.5539396228
0.5440255829
0.5467092549
0.5398880882
0.5439135712
0.5475672838
0.5631656648
0.5807338309
0.5789139174
0.5799665796
0.5034951124
0.5118179557
0.5038092001
0.4973797844
0.5112621513
0.5088105438
0.5117084094
0.5215681243
0.5212538452
0.5576122484
0.5571970833
0.5530722258
0.5539381044
0.5671732435
0.5085233166
0.504794567
0.5050413174
0.512980444
0.5101473979
0.5173236695
0.5147552741
0.5127356572
0.4843010502
0.4886609323
)
;

boundaryField
{
    flow
    {
        type            calculated;
        value           nonuniform List<scalar> 
15
(
0.5890968042
0.6215714798
0.6110544191
0.6402570817
0.6626722904
0.6505903119
0.6912317382
0.6969236105
0.7116380259
0.6924940293
0.730758116
0.7354718813
0.7118810768
0.7276386854
0.682188311
)
;
    }
    obstacle
    {
        type            calculated;
        value           nonuniform List<scalar> 
30
(
0.4470625997
0.4413471172
0.4630151151
0.4663371005
0.4445198336
0.4632557683
0.4623246962
0.4848006259
0.4569356749
0.434823656
0.4664181595
0.4696493549
0.4664417326
0.4866392274
0.4955071993
0.4510295267
0.4834835531
0.4795285576
0.4797494704
0.4813263674
0.4734888818
0.4775667346
0.4919865529
0.4937954442
0.49129944
0.4844312767
0.4987665289
0.5487560827
0.5300280984
0.5146281523
)
;
    }
    frontAndBack
    {
        type            empty;
    }
    procBoundary1to0
    {
        type            processor;
        value           nonuniform List<scalar> 
21
(
0.4895767416
0.5125350335
0.5250927529
0.532037835
0.5161643302
0.4926121056
0.489749182
0.4771040918
0.5104177695
0.5223278923
0.4849502837
0.4896904124
0.5033955786
0.4892730799
0.5073596768
0.4956997012
0.5058776695
0.5052371164
0.4882117659
0.499840525
0.4875376783
)
;
    }
    procBoundary1to3
    {
        type            processor;
        value           nonuniform List<scalar> 
36
(
0.6898339989
0.6444188782
0.6359496669
0.6041354813
0.6522261663
0.6898339989
0.665699825
0.5931870497
0.5708119669
0.6117558363
0.5924128066
0.6444188782
0.5992332193
0.5658604445
0.5725363491
0.5627203842
0.5638364419
0.5931870497
0.5837830358
0.53520788
0.5457203475
0.553657924
0.5487229143
0.5443501295
0.5658604445
0.5529927509
0.5068196566
0.5250529949
0.5342709858
0.5299438502
0.5228914518
0.53520788
0.5201947935
0.500765357
0.5068196566
0.5148851851
)
;
    }
}


// ************************************************************************* //
