/*--------------------------------*- C++ -*----------------------------------*\
  =========                 |
  \\      /  F ield         | OpenFOAM: The Open Source CFD Toolbox
   \\    /   O peration     | Website:  https://openfoam.org
    \\  /    A nd           | Version:  7
     \\/     M anipulation  |
\*---------------------------------------------------------------------------*/
FoamFile
{
    version     2.0;
    format      ascii;
    class       volScalarField;
    location    "0.006";
    object      rhoM;
}
// * * * * * * * * * * * * * * * * * * * * * * * * * * * * * * * * * * * * * //

dimensions      [1 -3 0 0 0 0 0];

internalField   nonuniform List<scalar> 
546
(
1.087730178e-05
1.425986416e-05
1.716340248e-05
1.424582807e-05
1.304921748e-05
1.206564133e-05
1.465116338e-05
1.075923529e-05
1.804411785e-05
1.715028673e-05
1.463198014e-05
1.037348057e-05
2.270881409e-05
1.638887172e-05
1.245411082e-05
1.607076562e-05
1.797686229e-05
1.225594072e-05
1.690763551e-05
1.194496583e-05
1.719806702e-05
1.188863227e-05
1.341332307e-05
9.85679463e-06
1.247617839e-05
1.194953298e-05
1.601582854e-05
1.281820659e-05
1.031131328e-05
1.031299299e-05
1.415534356e-05
8.556641684e-06
9.829710665e-06
9.903379457e-06
1.458474582e-05
1.245104697e-05
1.052140132e-05
1.586395434e-05
1.242636215e-05
1.044917336e-05
1.085427506e-05
1.086004249e-05
1.012921041e-05
1.177668867e-05
1.037742571e-05
1.540333483e-05
1.20700519e-05
1.421308815e-05
9.269569877e-06
1.419634299e-05
1.527750275e-05
1.364818273e-05
1.216959036e-05
1.164952782e-05
1.22959639e-05
1.4594883e-05
1.537143715e-05
1.216792665e-05
1.012445072e-05
1.28682358e-05
1.013294491e-05
1.163447442e-05
1.111448987e-05
9.903379457e-06
7.752291848e-06
1.562255104e-05
1.231349136e-05
1.225208244e-05
1.416747798e-05
1.858514162e-05
1.58377955e-05
1.10215791e-05
1.494857951e-05
1.383456539e-05
1.635523891e-05
1.012916967e-05
1.21541735e-05
8.596123684e-06
1.235942651e-05
8.136546882e-06
1.134936253e-05
8.718471744e-06
1.332479071e-05
1.281491233e-05
1.356182096e-05
1.067231592e-05
7.916175106e-06
1.13324917e-05
9.281311033e-06
6.906762324e-06
7.226184209e-06
9.306494751e-06
9.451084436e-06
1.256995625e-05
1.865029052e-05
1.624106303e-05
1.324931109e-05
1.358649341e-05
1.503898913e-05
1.738878873e-05
9.968977566e-06
1.061578547e-05
9.231651189e-06
1.22691508e-05
9.713446464e-06
1.339297682e-05
1.156328914e-05
1.29365985e-05
7.552523422e-06
1.506113454e-05
1.012699409e-05
1.074343963e-05
5.862394364e-06
1.774223032e-05
9.221428467e-06
1.496074388e-05
1.417439352e-05
7.430811985e-06
9.561604885e-06
8.137233213e-06
1.132463379e-05
1.118383938e-05
1.240109047e-05
7.618266509e-06
1.412205351e-05
1.376515208e-05
1.020883566e-05
9.109843738e-06
1.036781324e-05
1.30823026e-05
1.423133279e-05
1.458709704e-05
2.940865463e-06
1.18587657e-05
1.311809007e-05
1.138463522e-05
1.046564204e-05
1.251246876e-05
1.098661634e-05
9.348506096e-06
1.545152593e-05
1.311946909e-05
7.727993447e-06
1.326363528e-05
1.69967854e-05
7.936050012e-06
9.571914519e-06
1.058963429e-05
1.162386754e-05
9.744908045e-06
8.417873101e-06
1.283315457e-05
1.088840699e-05
9.218212594e-06
1.143719008e-05
7.888356652e-06
1.176790942e-05
1.303480445e-05
1.480043767e-05
1.363880725e-05
1.21402199e-05
1.69371862e-05
1.364196547e-05
1.06236429e-05
1.212112122e-05
1.339297682e-05
9.790636077e-06
1.336277844e-05
1.484842026e-05
1.047419469e-05
1.126235095e-05
8.277523542e-06
7.727993493e-06
1.890761484e-05
1.591114268e-05
1.733114888e-05
1.279387161e-05
1.216792666e-05
8.905327727e-06
1.097537887e-05
8.195104441e-06
1.088281337e-05
7.561596108e-06
9.445989849e-06
8.750477707e-06
7.888356652e-06
1.137767166e-05
1.641375152e-05
1.242636215e-05
1.15660256e-05
9.888848104e-06
1.288510637e-05
8.250706777e-06
1.622273395e-05
9.630699042e-06
1.23877978e-05
1.333594221e-05
1.012914136e-05
1.115770078e-05
1.194496593e-05
1.457930701e-05
9.157298803e-06
6.572793114e-06
1.16495279e-05
1.51881072e-05
8.574658633e-06
1.122987132e-05
1.430392151e-05
7.686204831e-06
1.154346405e-05
6.407571121e-06
8.481837173e-06
1.050978076e-05
1.036076907e-05
1.136069099e-05
9.589730374e-06
1.184558152e-05
1.185882965e-05
1.329596682e-05
1.531600706e-05
1.173763589e-05
1.150814101e-05
7.188344951e-06
1.12001658e-05
1.203837384e-05
1.682565812e-05
1.654272875e-05
6.04314437e-06
1.356115222e-05
1.064673593e-05
1.274575411e-05
8.10199263e-06
1.36789201e-05
1.442686114e-05
7.05232109e-06
1.496074374e-05
1.00328275e-05
1.095994414e-05
6.843065076e-06
1.513829642e-05
4.768550236e-06
9.306494758e-06
8.090944264e-06
7.542340759e-06
8.442632478e-06
1.245104697e-05
8.649761892e-06
8.088521572e-06
9.023012176e-06
1.252195502e-05
8.280448685e-06
1.596406238e-05
1.446007512e-05
1.37524884e-05
1.959438771e-05
1.247324299e-05
1.392682654e-05
1.37020823e-05
1.296028939e-05
9.954485673e-06
1.257173101e-05
1.047802226e-05
1.083732528e-05
1.156021494e-05
1.328932134e-05
1.131092445e-05
1.251865412e-05
1.263305163e-05
9.46817357e-06
8.893920168e-06
7.525003785e-06
4.80376038e-06
9.829710665e-06
7.846043784e-06
9.825162651e-06
9.202461757e-06
7.871163634e-06
8.325229964e-06
1.36133999e-05
8.694394329e-06
1.133698859e-05
7.779134372e-06
7.760234532e-06
1.276359666e-05
7.887003513e-06
1.389556634e-05
1.569947973e-05
1.089462515e-05
8.153386307e-06
1.436888434e-05
6.285865507e-06
1.540985435e-05
8.172795084e-06
1.209825075e-05
1.365192826e-05
1.039737091e-05
7.824435916e-06
1.281820661e-05
1.218671334e-05
6.812461308e-06
6.929159345e-06
5.254395398e-06
9.905071585e-06
6.01832043e-06
1.274137225e-05
7.657113286e-06
5.611163758e-06
8.088521609e-06
9.10189384e-06
1.044917334e-05
6.914374349e-06
8.26569629e-06
1.176346189e-05
8.976151294e-06
1.104140502e-05
1.557019255e-05
1.654272862e-05
1.557440366e-05
1.004151716e-05
1.047419464e-05
1.134936255e-05
9.422716225e-06
1.501118532e-05
9.588856013e-06
9.493927971e-06
9.76095974e-06
1.150508881e-05
9.846776827e-06
1.612437623e-05
1.447591075e-05
1.050422602e-05
6.604492569e-06
6.427538871e-06
8.684897249e-06
7.752291837e-06
7.580032115e-06
1.114465528e-05
9.031571441e-06
6.885581565e-06
6.86011473e-06
8.683032806e-06
9.967687028e-06
9.229683433e-06
6.834213813e-06
1.054492045e-05
1.079861688e-05
1.36724287e-05
1.106427705e-05
9.955974963e-06
1.237840411e-05
9.515809784e-06
1.144768392e-05
1.554451904e-05
9.767481747e-06
1.835274991e-05
9.760959826e-06
1.086069741e-05
7.523389476e-06
1.049817582e-05
1.078677693e-05
3.79962999e-06
5.929443938e-06
7.258330831e-06
5.636856611e-06
8.82697678e-06
6.574251559e-06
7.170237551e-06
5.732788463e-06
5.06558415e-06
9.252820455e-06
1.037156152e-05
9.725381967e-06
9.557320762e-06
1.152847388e-05
1.004643603e-05
1.397899508e-05
1.207005188e-05
1.123392896e-05
1.115770073e-05
1.108017434e-05
1.326992696e-05
1.091897049e-05
9.416527809e-06
1.406960968e-05
1.202346428e-05
1.112909259e-05
1.44518282e-05
1.263305163e-05
1.256043847e-05
7.474847246e-06
4.768550219e-06
5.478808951e-06
4.839494359e-06
6.627561523e-06
5.602921951e-06
5.568470904e-06
4.364655597e-06
4.554921855e-06
6.331503562e-06
1.204495102e-05
1.053182046e-05
1.118311569e-05
1.15172418e-05
8.894074202e-06
1.228661602e-05
1.213751129e-05
1.232241668e-05
1.404343617e-05
1.67365511e-05
1.445515487e-05
1.536451422e-05
1.118438781e-05
7.905058212e-06
1.236618935e-05
1.446507116e-05
1.678345623e-05
8.835783961e-06
1.402618891e-05
1.012445069e-05
1.362492274e-05
4.694294037e-06
5.779835001e-06
3.780798076e-06
4.799838227e-06
6.063765388e-06
6.109901815e-06
6.624655543e-06
7.303907819e-06
7.597422973e-06
6.939615341e-06
8.360578194e-06
7.050267603e-06
8.659761611e-06
1.325804252e-05
9.465204266e-06
8.454543476e-06
9.283873308e-06
8.000291866e-06
1.064238014e-05
6.838317042e-06
9.078648843e-06
1.012696065e-05
1.154772401e-05
1.51435227e-05
1.347171377e-05
1.176770132e-05
7.916175148e-06
1.4396499e-05
1.124788432e-05
1.409870675e-05
6.556083534e-06
4.353125325e-06
1.588044465e-06
4.418374381e-06
4.528237008e-06
6.186982941e-06
3.896745803e-06
7.303907819e-06
6.33150361e-06
5.105335716e-06
5.708558978e-06
8.913794743e-06
7.025510117e-06
8.399628413e-06
3.570138425e-06
9.040561828e-06
1.03815205e-05
7.489285972e-06
1.038575345e-05
1.056046537e-05
1.152338586e-05
1.426466183e-05
6.929062359e-06
1.613028147e-05
1.699678528e-05
1.012462318e-05
1.389917597e-05
1.467646899e-05
1.068729654e-05
2.160609106e-06
3.752881303e-06
4.385507199e-06
4.418374381e-06
5.987266265e-06
3.944178308e-06
4.442327694e-06
5.654516176e-06
3.87854636e-06
7.019116059e-06
2.251371838e-06
6.888730997e-06
7.106927576e-06
8.563782455e-06
1.079316269e-05
9.626580102e-06
1.046564202e-05
4.936306679e-06
1.23594265e-05
1.575338473e-05
1.571466363e-05
7.661044412e-06
1.62549179e-05
1.344226111e-05
6.034495355e-06
4.427929867e-06
4.385507135e-06
5.485005058e-06
6.830605051e-06
3.867097212e-06
5.688835873e-06
5.182991277e-06
2.770390278e-06
5.105335676e-06
7.959930781e-06
5.915607107e-06
7.67881719e-06
5.434936989e-06
2.573169603e-06
2.427502277e-06
5.486202384e-06
8.596123642e-06
1.004151716e-05
8.12084826e-06
7.73017614e-06
2.117392636e-06
3.960984779e-06
7.138450286e-06
4.408528048e-06
6.857671784e-06
4.476649654e-06
2.770390278e-06
6.860114678e-06
4.743132052e-06
5.915607107e-06
5.800313496e-06
1.070571994e-05
3.278041767e-06
6.15385747e-06
7.182969868e-06
5.560930854e-06
4.375238883e-06
3.790016086e-06
7.71581945e-06
8.40350219e-06
3.725373801e-06
5.404004479e-06
)
;

boundaryField
{
    flow
    {
        type            zeroGradient;
    }
    obstacle
    {
        type            calculated;
        value           nonuniform List<scalar> 
30
(
2.666624981e-24
2.225073859e-308
4.124241719e-24
2.225073859e-308
5.1525729e-24
2.225073859e-308
1.433914026e-23
5.432646332e-24
2.225073859e-308
5.65708885e-24
3.961052788e-24
2.225073859e-308
1.53330198e-23
2.383241172e-23
5.72993211e-24
1.120319746e-22
2.78505643e-23
1.215812593e-23
4.977104656e-24
2.225073859e-308
2.225073859e-308
2.956362335e-24
7.591386552e-24
2.225073859e-308
1.107267816e-23
2.225073859e-308
8.708606867e-24
7.230718905e-24
2.225073859e-308
3.579575334e-24
)
;
    }
    frontAndBack
    {
        type            empty;
    }
    procBoundary1to0
    {
        type            processor;
        value           nonuniform List<scalar> 
21
(
1.604979993e-05
1.612351583e-05
1.072443859e-05
1.109479974e-05
1.294304222e-05
1.383119633e-05
1.16125927e-05
5.325361345e-06
9.985497935e-06
4.289775436e-06
5.843154299e-06
6.878740238e-06
4.289775436e-06
5.325361307e-06
8.505834972e-06
2.588964772e-06
6.582094954e-06
5.325361345e-06
2.662680691e-06
4.73385249e-06
1.035585909e-06
)
;
    }
    procBoundary1to3
    {
        type            processor;
        value           nonuniform List<scalar> 
36
(
1.078677703e-05
1.57309285e-05
1.77879258e-05
1.30690891e-05
1.003193181e-05
1.078677703e-05
1.274955919e-05
1.263721604e-05
1.379409947e-05
6.252555683e-06
7.905058212e-06
1.57309285e-05
6.900835539e-06
7.556013857e-06
6.863346063e-06
7.258855446e-06
8.085117819e-06
1.263721604e-05
9.955974963e-06
6.885581617e-06
4.4674089e-06
5.868817917e-06
7.617597768e-06
4.81936912e-06
7.556013857e-06
2.306091523e-06
4.990216321e-06
3.199892151e-06
6.063765344e-06
5.49138982e-06
3.896745803e-06
6.885581617e-06
3.298783115e-06
4.768550219e-06
4.990216321e-06
5.4040044e-06
)
;
    }
}


// ************************************************************************* //
