/*--------------------------------*- C++ -*----------------------------------*\
  =========                 |
  \\      /  F ield         | OpenFOAM: The Open Source CFD Toolbox
   \\    /   O peration     | Website:  https://openfoam.org
    \\  /    A nd           | Version:  7
     \\/     M anipulation  |
\*---------------------------------------------------------------------------*/
FoamFile
{
    version     2.0;
    format      ascii;
    class       volScalarField;
    location    "0.006";
    object      rhoMMean;
}
// * * * * * * * * * * * * * * * * * * * * * * * * * * * * * * * * * * * * * //

dimensions      [1 -3 0 0 0 0 0];

internalField   nonuniform List<scalar> 
546
(
1.467697283e-05
1.459389666e-05
1.493049349e-05
1.469161671e-05
1.458623127e-05
1.464451102e-05
1.484155545e-05
1.467074319e-05
1.433233371e-05
1.41881498e-05
1.389266143e-05
1.399194143e-05
1.414517703e-05
1.388571922e-05
1.416360598e-05
1.441360335e-05
1.396730921e-05
1.379103377e-05
1.369570982e-05
1.34641674e-05
1.364429624e-05
1.36326608e-05
1.340597256e-05
1.338813049e-05
1.323129715e-05
1.289752166e-05
1.224702779e-05
1.170071769e-05
1.065266988e-05
8.800501219e-06
1.310993621e-05
1.311767197e-05
1.334281793e-05
1.341722697e-05
1.328449545e-05
1.314559627e-05
1.313334211e-05
1.311669483e-05
1.285615808e-05
1.298718418e-05
1.295633816e-05
1.276655102e-05
1.296880582e-05
1.270375564e-05
1.290789171e-05
1.285208717e-05
1.259424214e-05
1.261765377e-05
1.250996113e-05
1.263879938e-05
1.252254264e-05
1.253052288e-05
1.246441466e-05
1.239620471e-05
1.20594174e-05
1.177780131e-05
1.149194604e-05
1.076965311e-05
9.703234655e-06
8.30302592e-06
1.226335073e-05
1.253228622e-05
1.272876329e-05
1.256319816e-05
1.257491766e-05
1.268085561e-05
1.270353788e-05
1.226499033e-05
1.240265906e-05
1.225923392e-05
1.233686819e-05
1.21143273e-05
1.22277001e-05
1.218884963e-05
1.235381337e-05
1.212253709e-05
1.199710813e-05
1.191025462e-05
1.195396329e-05
1.192830084e-05
1.194033054e-05
1.170101432e-05
1.177876701e-05
1.148423048e-05
1.160773501e-05
1.139265233e-05
1.073454806e-05
1.021455436e-05
9.556944133e-06
8.347721167e-06
1.159054432e-05
1.177450996e-05
1.193129176e-05
1.20654218e-05
1.215718268e-05
1.216470013e-05
1.219916391e-05
1.222839126e-05
1.218793438e-05
1.196815068e-05
1.195717685e-05
1.200289151e-05
1.19692046e-05
1.189188076e-05
1.191157619e-05
1.171757077e-05
1.176944187e-05
1.172351596e-05
1.17079204e-05
1.159654033e-05
1.146586373e-05
1.151245262e-05
1.15305833e-05
1.133526408e-05
1.117743635e-05
1.097705158e-05
1.062309154e-05
1.016298117e-05
9.445980335e-06
8.411502113e-06
1.080929752e-05
1.11655864e-05
1.142414373e-05
1.172213751e-05
1.186726057e-05
1.196141097e-05
1.210583162e-05
1.207427338e-05
1.184911657e-05
1.192505803e-05
1.189193314e-05
1.186475602e-05
1.187018851e-05
1.17914027e-05
1.18202053e-05
1.169249691e-05
1.148659778e-05
1.157964049e-05
1.161253293e-05
1.137568591e-05
1.14275362e-05
1.139588901e-05
1.124859414e-05
1.099810819e-05
1.07786942e-05
1.07275565e-05
1.039715374e-05
9.955986586e-06
9.473185021e-06
8.637965123e-06
9.897655612e-06
1.042686882e-05
1.080807463e-05
1.101484614e-05
1.142654838e-05
1.153641895e-05
1.187035438e-05
1.190536063e-05
1.186594648e-05
1.197859512e-05
1.205422573e-05
1.184226166e-05
1.19220713e-05
1.176140737e-05
1.185523336e-05
1.178535331e-05
1.183123169e-05
1.149127737e-05
1.14271983e-05
1.150005206e-05
1.138463047e-05
1.124700093e-05
1.114226763e-05
1.11479965e-05
1.096262005e-05
1.060951556e-05
1.029185464e-05
1.007197731e-05
9.577179177e-06
8.990506973e-06
9.058947043e-06
9.512749696e-06
9.967276366e-06
1.042872352e-05
1.08115836e-05
1.10363676e-05
1.128443057e-05
1.154508141e-05
1.182826282e-05
1.179168114e-05
1.182426765e-05
1.16424583e-05
1.161900983e-05
1.161796833e-05
1.17158298e-05
1.17630909e-05
1.176414924e-05
1.172931257e-05
1.148101265e-05
1.141966483e-05
1.145207786e-05
1.146207835e-05
1.114619181e-05
1.096088819e-05
1.094078264e-05
1.075511767e-05
1.050997508e-05
1.02586139e-05
9.781320404e-06
9.21484382e-06
8.235332391e-06
8.736918521e-06
9.159758614e-06
9.648138328e-06
1.012430748e-05
1.048883754e-05
1.078979213e-05
1.10764391e-05
1.126584151e-05
1.142704979e-05
1.153307189e-05
1.167404007e-05
1.180190947e-05
1.182467952e-05
1.161885887e-05
1.16573313e-05
1.172525667e-05
1.180498726e-05
1.177509716e-05
1.149773242e-05
1.147300577e-05
1.15721273e-05
1.130822994e-05
1.111305222e-05
1.093340654e-05
1.079282963e-05
1.061614907e-05
1.024454529e-05
9.908265105e-06
9.637583866e-06
7.378897993e-06
7.890002789e-06
8.394621928e-06
8.833923662e-06
9.309664564e-06
9.82627652e-06
1.022369387e-05
1.049120802e-05
1.08801223e-05
1.117646089e-05
1.139567912e-05
1.153827272e-05
1.166726962e-05
1.169660756e-05
1.171791359e-05
1.167058488e-05
1.159420851e-05
1.176468281e-05
1.185845873e-05
1.181117001e-05
1.165371924e-05
1.169222601e-05
1.14456387e-05
1.121310151e-05
1.11434233e-05
1.096313733e-05
1.070161015e-05
1.05184255e-05
1.018279218e-05
9.732794882e-06
6.757151588e-06
7.207308944e-06
7.700443414e-06
8.024443314e-06
8.385423256e-06
8.904462089e-06
9.357393561e-06
9.873034761e-06
1.022907987e-05
1.046822042e-05
1.079457534e-05
1.109159423e-05
1.124012902e-05
1.148531244e-05
1.168543414e-05
1.171802868e-05
1.171711052e-05
1.172789013e-05
1.169263867e-05
1.182216401e-05
1.153963433e-05
1.14608422e-05
1.155970513e-05
1.144760364e-05
1.131958487e-05
1.121286357e-05
1.095596146e-05
1.077168059e-05
1.051944305e-05
1.00997435e-05
6.323473003e-06
6.561549911e-06
6.971523611e-06
7.42541049e-06
7.727239511e-06
8.225965629e-06
8.686318738e-06
9.060022932e-06
9.486693066e-06
9.93732109e-06
1.021020224e-05
1.063979131e-05
1.096020279e-05
1.130133056e-05
1.156222666e-05
1.168616348e-05
1.168981435e-05
1.149209183e-05
1.154570344e-05
1.161424236e-05
1.165374921e-05
1.173933278e-05
1.168569222e-05
1.157127777e-05
1.151785129e-05
1.140584658e-05
1.111693367e-05
1.09039301e-05
1.066898946e-05
1.042511412e-05
5.867385288e-06
6.1672205e-06
6.422772916e-06
6.781088344e-06
7.227933562e-06
7.595071551e-06
7.935025929e-06
8.367156647e-06
8.75381177e-06
9.247615675e-06
9.68789938e-06
1.005991101e-05
1.038706101e-05
1.070342178e-05
1.103789112e-05
1.125908902e-05
1.143991222e-05
1.155628757e-05
1.159365635e-05
1.177663517e-05
1.181725198e-05
1.171085019e-05
1.161937985e-05
1.160598603e-05
1.152037377e-05
1.149717576e-05
1.136401596e-05
1.105744344e-05
1.095906009e-05
1.078949922e-05
5.653410094e-06
5.824420665e-06
6.002864618e-06
6.238987007e-06
6.496617777e-06
6.815644805e-06
7.191469176e-06
7.604811464e-06
8.128055782e-06
8.561713339e-06
9.051803257e-06
9.432339359e-06
9.860347889e-06
1.026052682e-05
1.051138375e-05
1.087651086e-05
1.126749962e-05
1.149222023e-05
1.166182125e-05
1.171381859e-05
1.180682997e-05
1.204064758e-05
1.186147409e-05
1.164714568e-05
1.15440833e-05
1.150002178e-05
1.156455629e-05
1.146216426e-05
1.120306412e-05
1.089878075e-05
5.294828249e-06
5.465247864e-06
5.667681063e-06
5.884583884e-06
6.060239298e-06
6.351024493e-06
6.680924977e-06
7.059386669e-06
7.39398688e-06
7.904606648e-06
8.302820355e-06
8.776680655e-06
9.177407484e-06
9.609814831e-06
1.000947968e-05
1.038001746e-05
1.066179766e-05
1.096236622e-05
1.112874595e-05
1.139808687e-05
1.166013154e-05
1.157650312e-05
1.170984194e-05
1.178771334e-05
1.163328167e-05
1.162474144e-05
1.160044662e-05
1.162572238e-05
1.152403942e-05
1.137609882e-05
5.260061721e-06
5.354950422e-06
5.444767547e-06
5.603060321e-06
5.795695743e-06
6.024143047e-06
6.248243026e-06
6.543740888e-06
6.838957558e-06
7.171181961e-06
7.549381249e-06
7.946769412e-06
8.308444041e-06
8.748190014e-06
9.215898473e-06
9.593737275e-06
1.003292431e-05
1.031540458e-05
1.076174157e-05
1.11153579e-05
1.123494711e-05
1.160776202e-05
1.172360155e-05
1.173415314e-05
1.180913418e-05
1.171489998e-05
1.173757488e-05
1.157553644e-05
1.150993244e-05
1.124038852e-05
5.129164576e-06
5.166169147e-06
5.272969632e-06
5.391541486e-06
5.508954889e-06
5.679077083e-06
5.900491011e-06
6.091224068e-06
6.388173364e-06
6.613192232e-06
6.904528108e-06
7.311631439e-06
7.749861643e-06
8.120337999e-06
8.569332522e-06
9.069989107e-06
9.460927921e-06
9.895597092e-06
1.017412463e-05
1.056488394e-05
1.085136649e-05
1.110162911e-05
1.145961888e-05
1.174196005e-05
1.175521256e-05
1.169560363e-05
1.171445974e-05
1.16827022e-05
1.15904638e-05
5.012306679e-06
5.076971547e-06
5.155596374e-06
5.308176305e-06
5.409229211e-06
5.510691188e-06
5.639112661e-06
5.816185238e-06
6.005839869e-06
6.292937696e-06
6.565129795e-06
6.815993324e-06
7.202591057e-06
7.542154733e-06
7.957594057e-06
8.296566724e-06
8.667699782e-06
9.156763723e-06
9.640152471e-06
9.963378153e-06
1.044674474e-05
1.073626112e-05
1.105018768e-05
1.144558121e-05
4.933643284e-06
5.010809179e-06
5.070601958e-06
5.126946763e-06
5.161714169e-06
5.222894679e-06
5.357914173e-06
5.514954719e-06
5.640480845e-06
5.818962056e-06
6.014724563e-06
6.30665941e-06
6.515132186e-06
6.882532629e-06
7.278514171e-06
7.652731552e-06
8.149079864e-06
8.492068765e-06
9.005290739e-06
4.946460595e-06
5.001040373e-06
4.997859502e-06
5.036258492e-06
5.113718971e-06
5.206012476e-06
5.246783234e-06
5.336480974e-06
5.415601256e-06
5.588994337e-06
5.772924855e-06
5.989051522e-06
6.235857161e-06
6.519216837e-06
4.874425898e-06
4.908574428e-06
4.900700059e-06
4.939965977e-06
4.994596768e-06
5.04048363e-06
5.124381434e-06
5.248581411e-06
4.865007209e-06
4.864831714e-06
)
;

boundaryField
{
    flow
    {
        type            calculated;
        value           nonuniform List<scalar> 
15
(
8.800501219e-06
8.30302592e-06
8.347721167e-06
8.411502113e-06
8.637965123e-06
8.990506973e-06
9.21484382e-06
9.637583866e-06
9.732794882e-06
1.00997435e-05
1.042511412e-05
1.078949922e-05
1.089878075e-05
1.137609882e-05
1.124038852e-05
)
;
    }
    obstacle
    {
        type            calculated;
        value           nonuniform List<scalar> 
30
(
6.619582112e-24
6.234683338e-24
6.65910366e-24
6.592751457e-24
6.329888938e-24
6.569916043e-24
6.42328549e-24
6.308370152e-24
6.282812853e-24
6.078537206e-24
5.971977082e-24
6.068814087e-24
6.179862404e-24
6.283551637e-24
6.029193403e-24
6.378075524e-24
5.915137157e-24
6.074963544e-24
5.995945364e-24
5.808402276e-24
5.884200997e-24
5.8878336e-24
5.845214969e-24
5.809581617e-24
5.626034369e-24
5.418324613e-24
5.457275293e-24
4.997379245e-24
4.614700264e-24
3.854490721e-24
)
;
    }
    frontAndBack
    {
        type            empty;
    }
    procBoundary1to0
    {
        type            processor;
        value           nonuniform List<scalar> 
21
(
1.496273442e-05
1.325682221e-05
1.228596844e-05
1.123266785e-05
1.03785238e-05
9.576715288e-06
8.539650972e-06
7.765235746e-06
6.914702952e-06
6.429910371e-06
6.026973693e-06
5.640943072e-06
5.490624153e-06
5.221858245e-06
5.115084921e-06
5.062151337e-06
4.989224189e-06
4.90491547e-06
4.916276217e-06
4.89428197e-06
4.79746419e-06
)
;
    }
    procBoundary1to3
    {
        type            processor;
        value           nonuniform List<scalar> 
36
(
1.162772741e-05
1.168130305e-05
1.181579866e-05
1.176475619e-05
1.178427183e-05
1.162772741e-05
1.180267917e-05
9.466027013e-06
9.805394998e-06
1.019398054e-05
1.054423195e-05
1.168130305e-05
1.087572203e-05
6.794055004e-06
7.142734154e-06
7.604471455e-06
8.011911569e-06
9.466027013e-06
8.345148402e-06
5.342712307e-06
5.446431953e-06
5.539840368e-06
5.676493565e-06
5.843599969e-06
6.794055004e-06
6.025888811e-06
4.92718048e-06
4.957905635e-06
4.973391156e-06
5.033562941e-06
5.090240323e-06
5.342712307e-06
5.103359204e-06
4.830262369e-06
4.92718048e-06
4.867598807e-06
)
;
    }
}


// ************************************************************************* //
