/*--------------------------------*- C++ -*----------------------------------*\
  =========                 |
  \\      /  F ield         | OpenFOAM: The Open Source CFD Toolbox
   \\    /   O peration     | Website:  https://openfoam.org
    \\  /    A nd           | Version:  7
     \\/     M anipulation  |
\*---------------------------------------------------------------------------*/
FoamFile
{
    version     2.0;
    format      ascii;
    class       volScalarField;
    location    "0.003";
    object      dsmcRhoNMean;
}
// * * * * * * * * * * * * * * * * * * * * * * * * * * * * * * * * * * * * * //

dimensions      [0 -3 0 0 0 0 0];

internalField   nonuniform List<scalar> 
654
(
8.539333333
8.314
8.380666667
7.97
7.771333333
8.124666667
8.122666667
8.312666667
7.930666667
8.078666667
8.006666667
7.479333333
7.853333333
7.131333333
7.352666667
7.034666667
6.957333333
7.617333333
7.088
6.682666667
8.859333333
8.256
8.073333333
8.234666667
7.61
7.923333333
7.858
7.84
7.734666667
7.893333333
7.938666667
7.359333333
7.366
7.315333333
7.446
7.21
7.351333333
6.716
6.542
6.330666667
8.437333333
8.218666667
7.957333333
8.028
8.008666667
7.788666667
7.766666667
7.83
7.565333333
7.934666667
7.521333333
7.35
7.572666667
7.447333333
7.168
6.701333333
6.446666667
6.146
6.018666667
6.086666667
8.635333333
8.049333333
7.667333333
8.143333333
7.434666667
7.489333333
7.238
7.274666667
7.572
7.215333333
7.237333333
7.510666667
7.572666667
7.503333333
6.934666667
6.981333333
6.567333333
6.852666667
6.406
6.146
8.177333333
8.065333333
7.765333333
7.495333333
7.881333333
7.622666667
7.681333333
7.757333333
7.432666667
7.183333333
6.983333333
7.126666667
7.484
7.602
7.132
6.858666667
6.776
6.755333333
6.19
5.752666667
8.252666667
7.592
7.556
7.641333333
7.91
7.159333333
7.482666667
7.312
7.330666667
7.15
7.348
7.442666667
7.020666667
7.255333333
6.756
7.074666667
6.534666667
6.35
5.990666667
5.674666667
8.14
8.189333333
7.871333333
7.951333333
7.470666667
7.494
7.746666667
7.484
7.443333333
7.15
7.475333333
7.486
7.006
6.968666667
6.911333333
6.398
6.458
6.128666667
6.151333333
6.062666667
8.498666667
7.923333333
7.760666667
7.770666667
7.57
7.891333333
7.307333333
7.439333333
7.648666667
7.418666667
7.225333333
7.37
7.231333333
6.727333333
6.77
6.804666667
6.595333333
6.431333333
6.490666667
6.086666667
7.950666667
8.21
7.84
7.960666667
7.834
8.038
7.508
7.09
7.150666667
7.229333333
7.151333333
7.384666667
7.156
6.454666667
6.836666667
6.906
6.468666667
6.255333333
5.886666667
5.992
7.814
7.911333333
7.199333333
7.466
7.464666667
7.526666667
7.528666667
7.463333333
7.428666667
7.252
7.452666667
7.235333333
6.819333333
6.615333333
6.646
6.784666667
6.371333333
6.393333333
6.074
6.180666667
7.896
7.140666667
7.262
7.505333333
7.648
7.54
7.262
7.503333333
7.008
6.679333333
7.089333333
6.765333333
6.704
6.633333333
6.62
6.464666667
6.265333333
6.480666667
6.372666667
6.078666667
7.528
7.334
7.502
7.781333333
7.188
7.176666667
7.944
7.192
6.949333333
7.007333333
7.134666667
7.158
6.857333333
6.582666667
6.295333333
6.696666667
5.774666667
6.366666667
6.446666667
6.247333333
7.644666667
7.475333333
7.505333333
7.088
6.688
7.136
7.356
7.216666667
7.496
7.003333333
7.520666667
6.858666667
6.636
6.382666667
6.428666667
6.494
6.384
6.122666667
6.15
6.203333333
7.51
7.675333333
7.066666667
7.165333333
6.878
7.518
7.262666667
7.653333333
7.312
7.440666667
7.31
7.021333333
6.757333333
6.117333333
6.337333333
6.516666667
6.331333333
5.968
6.138666667
6.507333333
7.474666667
7.418
7.545333333
7.444666667
7.144666667
7.418
7.038666667
7.018
6.848666667
7.028
7.417333333
6.903333333
6.581333333
6.258666667
6.334666667
6.416666667
6.564666667
6.335333333
6.612666667
6.042666667
7.992666667
7.784666667
7.132666667
7.124666667
7.41
7.107333333
7.293333333
7.271333333
7.149333333
6.918
6.703333333
6.833333333
6.494
6.759333333
6.146
6.208
6.761333333
6.655333333
6.675333333
6.363333333
7.750666667
7.384
7.566
7.501333333
7.124666667
7.037333333
6.934666667
6.872666667
6.838666667
6.568
6.622
7.072
6.440666667
6.86
6.232
6.226
6.629333333
6.770666667
6.432666667
6.191333333
7.720666667
7.767333333
7.400666667
7.580666667
7.310666667
7.246666667
6.767333333
7.01
6.848666667
6.764666667
6.819333333
6.891333333
6.458
6.476
6.589333333
6.541333333
6.844
6.629333333
6.354
6.377333333
7.604666667
7.436666667
7.284
7.658
7.518666667
7.240666667
7.268
7.236666667
6.729333333
7.068666667
6.765333333
6.692
6.510666667
6.531333333
6.408
6.768
6.6
6.226666667
6.222666667
6.176666667
7.52
7.524
7.097333333
7.215333333
7.404666667
7.433333333
7.039333333
7.561333333
6.877333333
6.888666667
6.551333333
6.462666667
6.578
6.159333333
6.276666667
6.228
6.624
6.748
6.143333333
6.514666667
7.526666667
7.639333333
7.59
7.681333333
7.436666667
7.338
7.409333333
7.326666667
7.069333333
6.468
6.622
6.688
7.027333333
6.264
6.622666667
6.264666667
6.76
6.583333333
6.051333333
6.274666667
7.846
7.658666667
7.701333333
7.352
7.674
7.27
7.028
7.165333333
7.095333333
6.589333333
6.791333333
6.718
6.744
6.696666667
6.724666667
6.492
6.436666667
6.167333333
6.394
6.368
5.782666667
5.424666667
5.558666667
5.396
5.247333333
5.165333333
5.137333333
5.058666667
5.216
5.241333333
5.96
5.299333333
5.76
5.456
5.278
5.482
5.022666667
5.032
5.17
5.161333333
5.811333333
5.716
5.567333333
5.451333333
5.462
5.479333333
5.2
5.313333333
5.295333333
5.307333333
5.876
5.642666667
5.53
5.305333333
5.453333333
5.354
5.327333333
5.524
5.612666667
5.372666667
5.673333333
5.540666667
5.738666667
5.588
5.172
5.347333333
5.43
5.610666667
5.485333333
5.592666667
6.022666667
6.192666667
5.840666667
5.650666667
5.424
5.432
5.49
5.572
5.189333333
5.226
6.252
5.771333333
5.465333333
5.367333333
5.548666667
5.535333333
5.298666667
5.282666667
5.048
5.068666667
6.079333333
5.939333333
5.884666667
5.426666667
5.352666667
5.258
5.423333333
5.482666667
5.092666667
4.962666667
6.280666667
6.250666667
5.884
5.534666667
5.545333333
5.242666667
5.460666667
5.25
5.178666667
5.392
6.272
6.214
5.718
5.678
5.519333333
5.477333333
5.472
5.026666667
4.986666667
5.242
6.302
5.906666667
5.542666667
5.835333333
5.814
5.508666667
5.608
5.187333333
5.320666667
5.164
6.26
5.988666667
5.822
5.431333333
5.464666667
5.594
5.446
5.128
5.402
4.983333333
6.096
6.041333333
5.846666667
5.571333333
5.639333333
5.528666667
5.442
5.725333333
5.381333333
5.182666667
6.257333333
5.98
5.748666667
5.541333333
5.713333333
5.348
5.681333333
5.772666667
5.435333333
5.294666667
5.966
5.932
5.853333333
5.950666667
5.781333333
5.628
5.778
5.949333333
5.543333333
5.258666667
5.882
5.968
6.062
6.026
5.902
5.777333333
5.813333333
5.835333333
5.334
5.168666667
6.157333333
6.266666667
6.177333333
5.750666667
5.624666667
5.513333333
5.844666667
6.027333333
5.711333333
5.274666667
6.089333333
6.162666667
6.014666667
6.198
5.706666667
5.793333333
5.602
5.695333333
5.772
5.583333333
6.372666667
6.126
5.991333333
6.277333333
6.036
5.834666667
5.925333333
5.638
5.8
5.427333333
6.484
6.232
6.006
6.112666667
6.235333333
6.233333333
5.586
5.665333333
5.831333333
5.868
6.200666667
5.675333333
5.901333333
6.024
6.029333333
5.912
5.865333333
6.188
5.941333333
5.752
6.446666667
6.134
6.248666667
6.251333333
)
;

boundaryField
{
    flow
    {
        type            calculated;
        value           nonuniform List<scalar> 
42
(
8.539333333
8.859333333
8.437333333
8.635333333
8.177333333
8.252666667
8.14
8.498666667
7.950666667
7.814
7.896
7.528
7.644666667
7.51
7.474666667
7.992666667
7.750666667
7.720666667
7.604666667
7.52
7.526666667
7.846
8.539333333
8.314
8.380666667
7.97
7.771333333
8.124666667
8.122666667
8.312666667
7.930666667
8.078666667
8.006666667
7.479333333
7.853333333
7.131333333
7.352666667
7.034666667
6.957333333
7.617333333
7.088
6.682666667
)
;
    }
    obstacle
    {
        type            calculated;
        value           nonuniform List<scalar> 10(5.782666667 5.424666667 5.558666667 5.396 5.247333333 5.165333333 5.137333333 5.058666667 5.216 5.241333333);
    }
    frontAndBack
    {
        type            empty;
    }
    procBoundary0to1
    {
        type            processor;
        value           nonuniform List<scalar> 
21
(
5.188666667
5.077333333
5.476666667
5.515333333
5.616666667
5.311333333
5.241333333
5.006666667
5.276666667
5.210666667
5.327333333
5.324
5.176666667
5.592666667
5.413333333
5.38
5.348
5.318666667
5.540666667
5.947333333
5.690666667
)
;
    }
    procBoundary0to2
    {
        type            processor;
        value           nonuniform List<scalar> 
31
(
7.502666667
7.582
7.699333333
7.386
7.606666667
7.196666667
7.179333333
7.13
7.355333333
6.944666667
6.998666667
6.892666667
7.008
6.793333333
6.900666667
6.478666667
6.182666667
6.478666667
6.676666667
6.372666667
6.153333333
5.674
5.842666667
5.983333333
5.632666667
5.839333333
6.469333333
6.609333333
5.952666667
6.153333333
6.453333333
)
;
    }
}


// ************************************************************************* //
