/*--------------------------------*- C++ -*----------------------------------*\
  =========                 |
  \\      /  F ield         | OpenFOAM: The Open Source CFD Toolbox
   \\    /   O peration     | Website:  https://openfoam.org
    \\  /    A nd           | Version:  7
     \\/     M anipulation  |
\*---------------------------------------------------------------------------*/
FoamFile
{
    version     2.0;
    format      ascii;
    class       volScalarField;
    location    "0.003";
    object      internalEMean;
}
// * * * * * * * * * * * * * * * * * * * * * * * * * * * * * * * * * * * * * //

dimensions      [1 -1 -2 0 0 0 0];

internalField   nonuniform List<scalar> 
654
(
0.3581322199
0.3463867265
0.3741044377
0.3277872555
0.3445825188
0.3619937387
0.3610359752
0.3807606221
0.3783970537
0.3707209385
0.3702679296
0.3443172563
0.3632442338
0.3500683399
0.3728282657
0.3406718308
0.3258619837
0.3656957048
0.3581540306
0.3673155886
0.386243451
0.3610102579
0.3400497673
0.3508905923
0.3453502426
0.3479003466
0.3520355325
0.3507577233
0.3408875674
0.3709182649
0.3705200847
0.3314225294
0.344004265
0.3386164863
0.3663161576
0.3622006273
0.3601625513
0.3212250443
0.336089731
0.3450484473
0.3743293147
0.374316652
0.3651650815
0.3667560737
0.3574920692
0.3428558795
0.3497780437
0.3513549834
0.3507280478
0.3719976532
0.330634103
0.3352613657
0.3529100223
0.3795287706
0.3624582159
0.3245031912
0.3041006217
0.3241325872
0.3120256248
0.3297416404
0.3695950687
0.369210823
0.3427797616
0.3673757661
0.3404895216
0.3279433002
0.3026326346
0.3306263644
0.3641412268
0.3405514918
0.3265084573
0.3421043261
0.3661137028
0.3721510418
0.3312953481
0.3479194287
0.3414323764
0.3706733091
0.3471735131
0.3428127242
0.3707523422
0.3423676064
0.3545097477
0.3306342534
0.3673232879
0.3307403277
0.3488787721
0.3610211221
0.3324512046
0.3231585069
0.3193204983
0.3481490614
0.3598127406
0.3964154715
0.3515839714
0.3413672176
0.3411916233
0.3601567621
0.3462683611
0.3194691823
0.3503164035
0.3291538659
0.3205094304
0.3314001486
0.3596646729
0.3211905125
0.3080142038
0.3222856383
0.345058885
0.3199347322
0.3319359479
0.3590048761
0.3445646787
0.3476614756
0.3297612334
0.3522432155
0.3332919911
0.335452581
0.3096360202
0.3289653443
0.3544128627
0.3456126397
0.3450447266
0.3484212835
0.3363765615
0.335971008
0.3459552857
0.3346235196
0.3426457853
0.3284625889
0.3372288936
0.3583043584
0.3368249566
0.3529533325
0.3363170687
0.3185515044
0.344051638
0.3169584214
0.3085276981
0.3393714081
0.3443649266
0.3504385311
0.33586341
0.3481508881
0.3380908121
0.3408
0.3359587284
0.3247217946
0.3592168929
0.3321991228
0.3299064643
0.3426290431
0.3573615439
0.3211591243
0.3293539424
0.3341435961
0.3225866778
0.3263044573
0.3460595773
0.334576585
0.3321833752
0.373795395
0.3457069416
0.3610567218
0.3348490367
0.3493240275
0.3304201546
0.3251036882
0.3405961489
0.3246564034
0.3428546017
0.362148409
0.3366496324
0.3102345401
0.3304677825
0.3559790271
0.3114196305
0.3067021771
0.3230393981
0.3445553981
0.3416521117
0.3487886751
0.3147631861
0.365437464
0.3268022818
0.3308853931
0.3161428105
0.3367760328
0.3321441275
0.328206391
0.3574468031
0.3476840119
0.3238147444
0.3347815873
0.3291827711
0.3212243167
0.3214460377
0.3429195494
0.3467942744
0.3374251655
0.3454398032
0.3309911314
0.336977404
0.3538062836
0.3309858215
0.3263146367
0.3001252259
0.3194259466
0.3076115174
0.3271273548
0.3471988349
0.3277554366
0.326488918
0.3525331155
0.3253610971
0.3198142398
0.3057072826
0.3287691949
0.3365828757
0.3287211165
0.3376164277
0.3182593542
0.3360445968
0.342419743
0.3037711234
0.3085226388
0.3397022207
0.324063494
0.3389968098
0.3366423723
0.3434351184
0.3465079414
0.3222332428
0.3378117573
0.33186245
0.3263165066
0.2964583453
0.3320166044
0.3457626499
0.3439107751
0.3487052195
0.3232310848
0.3298819622
0.3192525661
0.2924478595
0.3256018173
0.3451247576
0.3532124645
0.3301676302
0.3251386842
0.3645204927
0.3349031845
0.3229592656
0.3108071329
0.3110792991
0.2988583703
0.330961541
0.2991619509
0.3058725573
0.3385386646
0.3341763394
0.3546143228
0.3206633996
0.313352919
0.3214668623
0.3475464129
0.3086558232
0.3666713548
0.3366329109
0.331543582
0.3347518819
0.3481015156
0.3480062883
0.3054313363
0.319706746
0.3327521546
0.3297136129
0.3049805843
0.3136157268
0.3398124648
0.3198489569
0.3413605039
0.3158525524
0.3322927428
0.3299234167
0.3219784753
0.3118056626
0.3228778983
0.3199016118
0.3269003927
0.3485646948
0.3354419851
0.3296884651
0.3052668125
0.30971623
0.3306544714
0.3314511553
0.3142143404
0.3509056089
0.3121020995
0.3573886063
0.3500188876
0.2868767532
0.3215637022
0.3409288063
0.3044123177
0.3247785037
0.3314791842
0.3366392275
0.3339384257
0.3203682931
0.3369218885
0.3294375871
0.3390297038
0.304238539
0.3344343245
0.3084956144
0.3183381242
0.3388862169
0.3186926438
0.3481267764
0.326863727
0.3236250475
0.3339808185
0.3207172494
0.3248780331
0.3279372957
0.3170126094
0.3141326304
0.304621225
0.3157833877
0.3391549906
0.3062320299
0.3380911957
0.2981122238
0.3144895524
0.3219400795
0.3425429076
0.3305159746
0.3208949867
0.3327258789
0.3419308863
0.3190251965
0.3326754017
0.333754231
0.3269278449
0.310473181
0.335868944
0.3302787528
0.3255359177
0.322871418
0.3308211011
0.3156296004
0.313170834
0.3370147699
0.3337604506
0.3536432873
0.3302487817
0.3274829883
0.3297299935
0.3369569856
0.3365754697
0.3159471403
0.3453466382
0.350277286
0.3267789043
0.3452289197
0.365409723
0.3187786177
0.3294244029
0.3177286902
0.3185327051
0.3275914629
0.3244606413
0.3171517432
0.3382732928
0.3300916223
0.3116541308
0.3271057717
0.3065992718
0.3296944506
0.3387883182
0.3289359606
0.3270974601
0.3234636085
0.3492944799
0.3239749992
0.3728862778
0.3072059126
0.3173681484
0.3097990817
0.3038100064
0.3115209019
0.3042131119
0.3018201298
0.301910517
0.3197992242
0.3360861348
0.3089425929
0.3399936675
0.3314406694
0.339023077
0.354020531
0.3645918259
0.3456373089
0.3361721695
0.3566141224
0.3539137464
0.3397683059
0.3073809228
0.3035195968
0.3301874241
0.3529178807
0.3173668403
0.3172714862
0.3127631293
0.3239631253
0.3204184844
0.301908074
0.3177127659
0.335472512
0.3336128958
0.3622913918
0.3454026965
0.3645583752
0.3468934093
0.3358493953
0.3445785521
0.3369501908
0.3153354593
0.3226478278
0.3280201641
0.3144835967
0.3216207929
0.3373245293
0.3414472299
0.3309891408
0.3041725869
0.3410877343
0.3310792058
0.3891974377
0.3603282497
0.3871679462
0.3912262239
0.3997524013
0.378583396
0.3840484419
0.4045237194
0.4148389987
0.3975544467
0.3513773921
0.3360045825
0.3469000163
0.3540042329
0.3415071407
0.3861092635
0.3816255518
0.4068100331
0.4001415945
0.3885080902
0.3336534874
0.3316928977
0.3382785161
0.3383227602
0.387107238
0.3779702498
0.360692769
0.38423032
0.3658899534
0.4026768206
0.3203500027
0.3319685084
0.3382004886
0.3394548331
0.3755625066
0.355596651
0.3524471443
0.3828900865
0.4048633924
0.4148141615
0.3138183099
0.3408330765
0.3530674462
0.3704380627
0.3633985257
0.3585555711
0.3734430274
0.3909684783
0.3946337948
0.3976293581
0.3527075478
0.3554176216
0.3731714479
0.3705195809
0.3544491893
0.339006841
0.3708162283
0.3751867507
0.3490239901
0.3461023007
0.3661636562
0.3451373008
0.337106586
0.3608902427
0.3466347694
0.3505983293
0.3371641419
0.3557043418
0.3436904678
0.3444522834
0.3630304709
0.3529420268
0.348512834
0.3201665346
0.3140565066
0.3311955035
0.3560505252
0.3574467407
0.3450870377
0.3360117834
0.349921002
0.3781775373
0.3405628439
0.346459167
0.3296510052
0.3340676778
0.3678063662
0.3580142116
0.346844013
0.3863311366
0.348476326
0.3651913609
0.3374545243
0.3434413872
0.3490505379
0.3191711326
0.3373647094
0.3413685687
0.3249385616
0.3663713877
0.3472456064
0.3538827117
0.3210578005
0.343834633
0.3634444538
0.321205018
0.3364735728
0.3368330846
0.342882663
0.3508835421
0.3501936722
0.3459088072
0.3368955915
0.3104846898
0.3484643972
0.3430863162
0.3407878734
0.3293813066
0.3585064207
0.3306530091
0.3562065353
0.3270759142
0.3245270351
0.3262566445
0.355894694
0.3427865887
0.3369391647
0.3605925205
0.3393487596
0.3369083165
0.3412432883
0.3449102536
0.3229295681
0.3353540953
0.3486307535
0.3263531517
0.3639485411
0.3718067679
0.3301580617
0.3425089074
0.3110707237
0.3087440495
0.3371773826
0.3417133906
0.3430309431
0.335919722
0.3507445316
0.3687229804
0.3285105957
0.3518330035
0.3169583743
0.332224701
0.3709201594
0.3403790786
0.3355739994
0.3490715091
0.3540413441
0.3514977504
0.3234865276
0.3442673959
0.3103032156
0.3439745505
0.3496443801
0.3350702744
0.3285623339
0.3340632341
0.3533899514
0.3666347402
0.3459902833
0.3384266156
0.3297603265
0.3454042588
0.3586812132
0.3608914202
0.3494920154
0.331426457
0.3111930081
0.3442343371
0.3475966472
0.3552327149
0.3306081059
0.3411440056
0.3554909588
0.3689918562
0.3813629733
0.3359923689
0.3332232351
0.3022245756
0.3156628128
0.3326140299
0.3318204111
0.3290782456
0.3505668963
0.3540491936
0.3455850306
0.3564231997
0.3172688639
0.3385109704
0.3398300164
0.3452042166
0.3358525328
0.3116432128
0.3229579652
0.3400117827
0.3503373317
0.3245586339
0.3123935595
0.342482173
0.3503518013
0.3303776094
0.337361756
0.3360255819
0.348183293
0.3382285282
)
;

boundaryField
{
    flow
    {
        type            calculated;
        value           nonuniform List<scalar> 
42
(
0.3581322199
0.386243451
0.3743293147
0.3695950687
0.3707523422
0.3503164035
0.3544128627
0.3443649266
0.3321833752
0.3416521117
0.3454398032
0.3376164277
0.3487052195
0.3341763394
0.3198489569
0.3573886063
0.3481267764
0.3327258789
0.3369569856
0.3296944506
0.3314406694
0.335472512
0.3581322199
0.3463867265
0.3741044377
0.3277872555
0.3445825188
0.3619937387
0.3610359752
0.3807606221
0.3783970537
0.3707209385
0.3702679296
0.3443172563
0.3632442338
0.3500683399
0.3728282657
0.3406718308
0.3258619837
0.3656957048
0.3581540306
0.3673155886
)
;
    }
    obstacle
    {
        type            calculated;
        value           nonuniform List<scalar> 10(1.817186102e-19 1.616091255e-19 1.643981093e-19 1.703992227e-19 1.833304395e-19 1.658034871e-19 1.458609319e-19 1.625559915e-19 1.465702842e-19 1.732028841e-19);
    }
    frontAndBack
    {
        type            empty;
    }
    procBoundary0to1
    {
        type            processor;
        value           nonuniform List<scalar> 
21
(
0.394967192
0.3942627538
0.4057412674
0.4172651549
0.3997594905
0.3817510622
0.3690936221
0.3575100952
0.3708073029
0.3533191233
0.3597748658
0.3541645829
0.3308280853
0.3693054804
0.3645587848
0.3479555421
0.3339996294
0.3324668716
0.3561589582
0.3496178567
0.3486913252
)
;
    }
    procBoundary0to2
    {
        type            processor;
        value           nonuniform List<scalar> 
31
(
0.3209788427
0.3311824477
0.3600747205
0.3334854128
0.3543661012
0.3421777738
0.3169661306
0.3491408751
0.3412136003
0.3337664306
0.3332726744
0.3422452107
0.3665472741
0.3553814901
0.3505422983
0.3287239503
0.3141729293
0.3095362059
0.3401813337
0.3311199906
0.3506664518
0.3178740256
0.3219923966
0.3415873386
0.3225085929
0.3525410087
0.3350261176
0.3552133176
0.3297480444
0.3506664518
0.3645851388
)
;
    }
}


// ************************************************************************* //
