/*--------------------------------*- C++ -*----------------------------------*\
  =========                 |
  \\      /  F ield         | OpenFOAM: The Open Source CFD Toolbox
   \\    /   O peration     | Website:  https://openfoam.org
    \\  /    A nd           | Version:  7
     \\/     M anipulation  |
\*---------------------------------------------------------------------------*/
FoamFile
{
    version     2.0;
    format      ascii;
    class       volVectorField;
    location    "0.003";
    object      momentum;
}
// * * * * * * * * * * * * * * * * * * * * * * * * * * * * * * * * * * * * * //

dimensions      [1 -2 -1 0 0 0 0];

internalField   nonuniform List<vector> 
654
(
(0.007016586429 -5.15795519e-05 -0.0005656934712)
(0.004420901149 9.953507518e-05 0.0003479354079)
(0.008206130879 0.0001636885782 -1.159115123e-05)
(0.01199435721 -0.00051019882 -8.334089634e-06)
(0.01134042775 0.0002598381977 -0.0003393037138)
(0.003262414028 -0.0006885237678 0.0003132596338)
(0.007083230491 0.0008234064146 -0.000252210913)
(0.005782824153 -0.0002552017658 -0.0006716951687)
(0.01080577735 -0.0001327949039 -0.0008744928183)
(0.008161546943 0.0002555753997 -0.0001833048177)
(0.01149446459 -0.0005010811193 0.0005980850774)
(0.008504181375 -0.0001081051343 5.688000982e-05)
(0.01123493477 -0.0004171069562 -0.0001926743096)
(0.008323262283 0.0006336560033 -0.0008641087232)
(0.01192668558 -8.152447717e-05 -0.0007558879382)
(0.007358717589 -3.19716377e-05 -0.0003773593212)
(0.004156247006 0.0005102600792 -2.776449354e-06)
(0.005328940371 -0.0004275644883 -0.0003800206485)
(0.007402623798 0.001029534732 -0.0008193451095)
(0.006669608014 0.0002033446987 -3.59270716e-05)
(0.006680205602 -0.000716275805 -0.0004675610435)
(0.009777975841 0.0002670368848 0.0005730077494)
(0.008502432977 -0.0001074421051 0.0003097375808)
(0.008408527748 -0.0001557349983 -0.0007961912575)
(0.004098618551 0.0003574464039 2.925645679e-05)
(0.008470307757 6.051910377e-05 0.0001343698988)
(0.00817213857 -0.0001095267313 0.0002205351024)
(0.006964927949 -0.0001496468434 0.0006477072811)
(0.006574823074 0.0006447069132 0.0003318971719)
(0.01086414353 0.0002026210218 0.0004265948114)
(0.01160715098 -0.0002907833354 0.0006752558627)
(0.008796303327 -0.0006246896562 -0.000563997302)
(0.007592934831 -0.0002120235827 4.421208141e-05)
(0.00703420168 0.0006485462179 0.0006469336941)
(0.007937555669 -0.0006270999388 -0.0005007747051)
(0.01055941261 0.000880700712 -7.994642151e-05)
(0.005506965982 0.0003519505426 0.0006503037238)
(0.006410307561 1.274652402e-05 -0.0004205383558)
(0.007092529001 -0.0003045200696 -0.0005825747082)
(0.004051874147 -0.0001329193468 -0.0002120113539)
(0.005962039928 0.000402999431 5.345601571e-05)
(0.007196859077 0.0004744936451 -0.0001174280191)
(0.01204576107 0.0001476753316 -0.0002068361174)
(0.008772074272 -0.0003175423531 2.596610697e-05)
(0.007429420403 0.0008277374166 -0.0003879230268)
(0.009839020864 0.0008841617823 0.001026604747)
(0.01789625697 -6.233269689e-05 0.0007015909378)
(0.004673384884 -0.0007432704538 0.0002272445178)
(0.008451975363 0.0004894858184 5.114856184e-05)
(0.008284989253 -0.0001828455112 0.000235313218)
(0.01011357236 3.248826184e-05 -0.0003164553096)
(0.007511935813 1.359709439e-05 -0.0002212069181)
(0.007970161164 9.57238859e-05 0.0001552726644)
(0.003789745275 1.94121803e-05 -4.852364523e-05)
(0.004556949486 -0.0004482784705 -0.0001509196892)
(0.004469293924 0.0002431168997 -0.0005281880529)
(0.0108993644 0.0005465923981 0.0003105781706)
(0.005840188066 0.0005095278658 -0.0003016318845)
(0.0118704455 -0.0008547311311 0.0005255005806)
(0.007214524984 0.0008966145252 0.000100829159)
(0.006282922384 -0.0001816409695 0.0003440494719)
(0.01226095422 0.0001427371837 -0.0008775449457)
(0.004711338445 0.0005042660712 0.0002883599575)
(0.007459426443 0.0005954304497 5.438310018e-05)
(0.008963733163 2.204678075e-05 0.000597472507)
(0.006811280076 -0.000526924301 5.612426425e-05)
(0.007580924534 0.0006005209142 -0.0008617241793)
(0.01190668527 -7.666266894e-05 8.098586949e-05)
(0.009353543673 0.0004412737747 -8.40159894e-06)
(0.00820839055 -0.0002541831777 3.328168779e-05)
(0.00966715361 -0.0001656499884 0.0001566541291)
(0.0100096495 0.0001156724953 0.0002766601508)
(0.007515643789 -0.0002480691856 -0.0001764802622)
(0.01150346242 -0.0006744569678 -0.001001292329)
(0.007697662269 -9.448434992e-05 -0.0006167898025)
(0.007685462419 -2.286914085e-06 0.0003021335458)
(0.007237269487 -0.000117728236 -0.0002134385069)
(0.004402350577 1.76914407e-05 4.881550676e-05)
(0.008252075793 0.001470047475 -0.0008549282505)
(0.01033858451 0.000291430874 4.147567111e-05)
(0.006517557045 -0.000110822619 0.0001388494089)
(0.008362839251 0.0006908650799 0.0002387658331)
(0.007773726671 0.0002458570576 -0.0005119057058)
(0.008505918676 -0.0003359210764 -7.044129671e-05)
(0.01234315304 -0.0009094055108 -0.0001212934215)
(0.007332115158 0.0004040964316 -0.0002765916497)
(0.005412427698 -0.000535753705 -0.0002328509705)
(0.01007753286 0.0001661411705 0.0002281154054)
(0.004653298379 0.0001806025625 -0.0002128436877)
(0.009851245026 0.0004297231887 0.0002533757235)
(0.008625069791 0.000147410241 -0.0001218999943)
(0.01133027485 0.00067363089 -0.0002126939347)
(0.01090886897 -0.0004882315679 -0.0001467632287)
(0.009274789601 -0.0004234781585 -0.0006552880082)
(0.006530047388 6.621212655e-05 -0.000129815234)
(0.007865344486 -0.0004626276101 0.000159595484)
(0.01020344327 0.0002919845452 0.0003727693296)
(0.0109884465 2.98138596e-05 -0.0001229880563)
(0.01094037016 -0.0006544266978 1.820954878e-05)
(0.006764675997 -0.0001390895623 0.0005017246976)
(0.008528597082 -0.0005237895142 -0.0003592665331)
(0.005782627408 0.000316209587 0.0005208963718)
(0.01181373797 0.0001082054992 -0.0005753402872)
(0.007750271124 0.0006345277339 -2.175828381e-05)
(0.00703218663 5.582461632e-05 -0.0004826576376)
(0.008666886915 -0.000361768532 0.0006682968647)
(0.009027505793 0.0003546159131 0.0002181473575)
(0.01037154873 0.0003786339065 -4.294211664e-05)
(0.005423307936 -0.0004707957662 6.75759043e-05)
(0.00648244329 3.510565635e-05 -0.0007500638134)
(0.005046881942 0.00063694599 -0.000317599865)
(0.006882967198 0.0003358667858 0.0002991888361)
(0.01135043172 0.0005897662572 1.191976727e-05)
(0.00666557277 0.0007932859888 -0.0002254084984)
(0.0103335104 0.0002654886252 0.0001626787965)
(0.00292174864 1.576386391e-05 -0.0003593345307)
(0.008420748237 -3.061768834e-05 0.0001164607198)
(0.0132401605 -0.0014140299 0.0004617365467)
(0.003816345414 -0.0005035025251 0.0004086665954)
(0.01068639813 0.0005376902895 0.0006281228713)
(0.005272913189 1.638100476e-05 0.0001205402817)
(0.006763949745 -0.0004643976466 -0.000183895496)
(0.005491252132 0.0003959750701 -0.0001241778793)
(0.01424333814 -0.0006372852293 -0.0001786010784)
(0.003457615804 -0.0004066340418 -0.0001743176557)
(0.009735840258 0.0003365220085 0.0006603423752)
(0.01135205781 0.0005880538412 6.526424174e-05)
(0.009066399371 -0.0005611633177 0.0003725846206)
(0.009090992718 -8.272453654e-05 5.497704392e-06)
(0.01263249355 2.444657231e-05 -4.97800787e-05)
(0.01102231955 0.0001288057727 0.00163296628)
(0.004953500861 0.0004311940761 -0.0002594601163)
(0.008787115636 0.0004364042534 -0.0002938112952)
(0.00493663551 0.000125344788 -0.0004337984509)
(0.009520269224 -0.0003948584852 0.0007936317797)
(0.008636402302 -0.0001436018312 -0.0009067814249)
(0.00685959273 0.0003682163113 -2.936593311e-05)
(0.008564435022 -0.0002301590464 -0.0006417919981)
(0.005026087529 0.0001529917205 0.0003112217682)
(0.008088332406 0.001134508096 0.0010564409)
(0.006774870306 0.0007723668865 0.0006800805864)
(0.009367936628 -0.0001153444319 0.0002633344175)
(0.008164541968 0.0001217794699 -0.0002223525902)
(0.009640430119 -0.0006860092011 0.0008706951373)
(0.005606956946 0.0003235844699 0.000642160396)
(0.004742174317 6.072209198e-05 1.468345789e-06)
(0.009294652058 -0.0001396350254 -0.0003787482877)
(0.007498319858 0.000679871376 -0.0004339736951)
(0.01426588798 -0.0004606092372 0.0003281737483)
(0.006183530827 -0.0006325992514 3.551199316e-05)
(0.008337068718 0.0004329041873 9.839863828e-05)
(0.01142582439 0.001258156865 8.270647755e-05)
(0.009880318051 -0.0007923155183 0.0006519904579)
(0.00766751148 -0.0001924518452 -0.0004718127496)
(0.006315897473 -5.928405232e-05 -0.0003322759968)
(0.005785993772 6.725586553e-05 -0.0003930773233)
(0.007006704083 0.0001266198133 -0.0003175533999)
(0.002804378675 -0.0002755748616 -3.221965349e-05)
(0.01074083268 0.0004218222886 0.0009457150548)
(0.009389151628 -0.000598819067 0.0009467898001)
(0.0059348446 -0.0005635130614 0.0001755526379)
(0.00958347231 0.0003876504376 -0.0001731523507)
(0.00908731233 1.398018074e-05 0.0005383834117)
(0.005849765171 -0.000122442511 0.000204879617)
(0.008369068846 0.0009352060049 -0.0002475535925)
(0.009774316221 -1.675313877e-05 -0.0001415233947)
(0.005475981489 -9.114596033e-06 0.0002370788648)
(0.007500327377 8.637947391e-05 -0.0006690533979)
(0.01083918579 -0.0004957741963 -0.0003411008817)
(0.005414178967 8.049664759e-05 -0.000393280267)
(0.006376102487 -0.0001928860929 2.72519482e-05)
(0.009863260884 0.0002636801679 0.0001289945263)
(0.01110692602 0.0001824068056 -0.0001042739271)
(0.00767665832 0.000470034782 4.256777318e-06)
(0.007581524308 0.0006622340258 0.0002857587003)
(0.006870022496 -0.0002752961259 -0.0003976073592)
(0.006501896116 0.0002851761579 -5.116014893e-05)
(0.008183970547 -0.0008779679197 0.0002452111803)
(0.008836452305 0.0004830037736 -0.0001861203328)
(0.009677644755 0.0003868448375 -0.0004436453113)
(0.005268317552 0.0002300915901 0.0002764133784)
(0.00700781426 0.0002931632986 0.0009083152967)
(0.00933365462 0.000613157711 -0.0001594397512)
(0.01204187965 0.0002829352647 0.0007720428869)
(0.00844016841 -4.666763042e-05 0.0003936286361)
(0.0103199315 0.0003344590795 -0.0008145966373)
(0.0054317517 0.0002022219192 2.042519326e-05)
(0.00734281826 -0.0002596077883 -0.000481934514)
(0.007684329271 -9.550284541e-05 0.0003640980948)
(0.009054050522 -0.0006769166063 -0.0002619131389)
(0.01006857741 0.0001478237253 2.213092497e-05)
(0.001519040384 1.213791936e-05 -0.000112200008)
(0.009362956283 -1.950735357e-05 0.0002868364044)
(0.01258834637 0.0005997978483 5.271210713e-05)
(0.006226183653 -0.0005509428224 -2.326251078e-05)
(0.01295804543 -9.121178723e-05 8.443503152e-05)
(0.01020940158 0.0003247645013 -0.0004268532777)
(0.01310073875 0.0001224127463 0.0001668971544)
(0.008272540255 -0.0003187192955 -0.0001944856685)
(0.01033226521 -0.0003266688194 -0.0005500722987)
(0.005742860099 0.000521708282 -0.0002952876384)
(0.0116541177 -0.0005135982177 0.0005519199328)
(0.004890540812 -7.138438988e-05 -0.0003187128989)
(0.006520273178 0.0001591214217 0.0002449333998)
(0.008217315871 -0.0003451917606 0.0006306098688)
(0.006740756765 -0.0003239499986 6.917964455e-05)
(0.01059872626 -0.0008430231762 0.0006186814184)
(0.007161716417 -0.0001171973023 0.0001626450611)
(0.00554787761 -6.21255976e-05 0.0002773364999)
(0.004671466742 0.0002215198653 0.0002085988277)
(0.006200145326 -8.156764114e-05 -0.0001909877246)
(0.008798033039 -0.0002557336224 -0.0003092736958)
(0.009465150367 0.001160612009 6.014111114e-05)
(0.009661338115 -0.000400232621 0.0001033809915)
(0.00574914414 -7.462880988e-05 0.0007240212023)
(0.01280893864 -0.0001035519217 0.0001649144228)
(0.01013467191 -0.00120699659 0.0002531239859)
(0.01182052453 0.0005223055911 0.0004556229217)
(0.008724309655 0.0009465872781 0.0004257151977)
(0.01096320102 -4.412043881e-05 5.721301655e-06)
(0.006112711572 0.0003643430382 0.0002681679032)
(0.007490123005 0.0004644847823 0.0006815838461)
(0.007757226202 -0.0009415649231 0.0002683089183)
(0.01351414267 2.605523868e-06 0.0001422965841)
(0.01103115466 0.0005785018701 -0.0003132657589)
(0.01252385088 -0.0008483960832 0.0003237120813)
(0.004297177723 0.0005749913329 -0.0003724074464)
(0.008273581508 -0.0007463289393 0.0002205574453)
(0.0101373895 6.018675601e-06 0.0001384530401)
(0.009087338922 7.113687572e-05 0.0004323517181)
(0.01136904537 -0.0002054214896 0.00096884427)
(0.01051819816 -6.091572554e-05 0.0003257289125)
(0.007979854721 -0.0003419284468 0.0003892639194)
(0.007567595409 -0.001046228609 0.00032223273)
(0.004051847375 0.0005268988205 0.0003321318798)
(0.007719621163 -0.0005730227569 -0.0001428959335)
(0.009839365618 -0.0004491541553 -0.0001213488663)
(0.005088366643 0.0001695964943 -0.0002558434085)
(0.01078114644 0.0006662524643 0.001928706811)
(0.01119529175 0.0006070184356 9.965016862e-05)
(0.004799542638 0.0005536499555 0.00101218139)
(0.01042951869 -0.0007899202767 -0.0001185375643)
(0.00651975566 0.0008093148779 -0.0001424077901)
(0.005685543687 0.0002767592489 0.0003732212519)
(0.007282642415 -0.0009173237767 0.0003582696553)
(0.007567714056 -0.0002354458146 0.0001689472655)
(0.01398456191 0.0005028017784 -2.215773564e-05)
(0.008642768103 -0.0006385123874 7.653149013e-05)
(0.004505934177 -0.0002338040201 -0.0002613219288)
(0.009518193446 0.0006042195385 0.0001384629082)
(0.008702215487 0.0004457013903 6.230380453e-05)
(0.008294121719 0.0004578171728 0.0004639921294)
(0.005511524023 0.0001729634412 0.0002046337661)
(0.007689336551 -0.0007582977652 -0.00074145928)
(0.00370487867 -0.0002239541144 -0.0001077510957)
(0.01330905584 7.744503356e-05 0.0005651335166)
(0.00935277993 0.0007284627674 -0.0001176908448)
(0.00927555179 -0.0001151016776 -0.0001790683507)
(0.009018561364 4.0930085e-05 0.0002336361264)
(0.008632159913 0.0002297435492 4.96115645e-05)
(0.005466179681 -0.0001868733191 0.00078139759)
(0.006218561432 -0.0005854233755 -0.0005217061242)
(0.01146846413 -1.783440352e-05 -0.0001113700843)
(0.01006566404 0.0005534709915 -0.001033024262)
(0.006176456049 -0.0004378413175 -0.0002022560308)
(0.007821006281 0.0002735021726 0.0007423495678)
(0.008210990508 0.000253416707 0.0002823770624)
(0.003892934709 8.773872572e-05 8.831698897e-05)
(0.01024766097 -0.000664127621 -0.0002839320238)
(0.006980937428 0.0004033140157 1.949479876e-05)
(0.01248129239 -0.0004192175966 -0.0001587466215)
(0.006012397285 0.0001517050904 7.013659273e-05)
(0.007115474292 0.0004479488178 0.0009393628136)
(0.005002738135 -7.43066806e-05 0.0001658738608)
(0.01203125629 0.0004058137371 -0.0007365899799)
(0.008629648913 0.0002233660504 0.0001681935435)
(0.00712085559 0.00027435226 -0.000729722434)
(0.007981773992 -0.0003981511173 -0.0007594416132)
(0.004414740043 0.0002802901906 0.0001851483236)
(0.00539760843 0.0003309858787 2.435882232e-05)
(0.008408787497 0.0002190949261 -0.0002880352864)
(0.007284274181 0.0005604847253 0.0002437709267)
(0.009321890235 5.206471633e-05 9.079803451e-05)
(0.006125313904 9.371146524e-05 6.796048467e-05)
(0.008490687316 0.0001825914202 -0.0002965443768)
(0.01026433132 -0.0002955073981 -0.0008006310637)
(0.007683854791 -0.0004258452537 0.0004535867895)
(0.007466879519 -0.0003409434543 -0.0005246135722)
(0.006076884157 8.845003327e-05 -0.0001299197862)
(0.008772459955 -3.978167993e-05 0.000372454315)
(0.01146901807 -6.73143839e-05 -8.113302762e-05)
(0.009494105984 0.001260994496 1.276206329e-05)
(0.01102757665 0.000204055035 -0.0004289283707)
(0.005634534334 -0.0002890986457 -0.0002298187379)
(0.007576157906 -0.000777612474 3.067219679e-05)
(0.007627001461 0.0001167297133 0.0001367570809)
(0.008327969582 1.417609115e-05 9.530121733e-05)
(0.005471409189 -2.147122584e-06 -0.0001240207582)
(0.01082186902 0.0001431529109 -0.0001648266431)
(0.003265251232 0.0001297679485 -2.319762508e-06)
(0.004755115861 0.0001499313213 -0.000138099408)
(0.007751845318 -0.000141867384 -0.001118547814)
(0.009870149999 0.0002018081233 0.0001294563917)
(0.002889104591 -2.695137696e-05 -3.219409878e-05)
(0.006540207411 0.0001930956416 0.0003719115342)
(0.00850543828 -0.0005118950694 -0.0005825874685)
(0.01127834003 -9.414886219e-05 0.0005582891854)
(0.0106541615 -0.0003054832374 0.0008687838267)
(0.01040218026 -0.0003234126255 7.539895863e-05)
(0.009265192404 0.0003201146127 0.0003661342636)
(0.01183271257 0.0005309002891 -0.0005010645695)
(0.009985707923 0.000937759606 0.0001926187471)
(0.007352221771 -0.0001994735562 0.0003119325191)
(0.01304592712 0.0005195694159 -0.0003886605779)
(0.008078499769 -0.0002863365096 0.0002841779478)
(0.01177115981 0.0002502322275 -0.0002805032168)
(0.01122310708 -0.001480469846 -0.0003071440965)
(0.004039403878 0.0003077588906 0.0002951020457)
(0.006194907248 -6.653614472e-05 -0.0006262758569)
(0.01297837756 -0.000510930102 -0.0003201632055)
(0.007950178848 0.0001706770289 4.220139773e-05)
(0.003543614254 0.0005567279973 0.0006871437294)
(0.01286036229 -0.0002466390761 0.0008139551905)
(0.008928059662 0.0006363661939 0.0001856265513)
(0.005940461554 -0.000367445825 -0.0004705121623)
(0.01293086286 -0.0001656277488 -0.0003281509297)
(0.01308724558 -0.0009876443115 9.831422636e-05)
(0.01000055989 -5.999296293e-05 0.0002773114844)
(0.009204942827 0.0003474368225 -0.0004570632047)
(0.002472609937 0.0002487950387 -3.859692612e-05)
(0.01194284743 -0.0002012913561 0.0002918865603)
(0.006829524652 -0.001115264716 -0.000408287763)
(0.01020828536 -0.0003929066059 -0.0001855838557)
(0.007901191377 0.0003107466128 -0.0001275125899)
(0.01132092052 6.142409677e-05 -0.0002168344841)
(0.01130259138 0.0001430841251 3.349963289e-05)
(0.008216304294 2.692517668e-05 0.0002962522123)
(0.007064668881 -2.869502674e-05 -0.0001880637601)
(0.008102289409 0.0003789302409 0.0002743570677)
(0.005540444034 0.0003767806272 -0.0001850119189)
(0.007292181286 0.0004673093975 0.0001845577224)
(0.006149192482 0.0003738439898 -4.064636673e-06)
(0.01167383412 0.0002671099739 0.000672968923)
(0.005175405715 0.0002632307926 -4.81571847e-05)
(0.008401835718 -0.0008059742395 0.0008479786165)
(0.00443848929 -0.0004313271129 -0.0006464117965)
(0.007376889328 -0.0002418988349 0.0007114923715)
(0.01091262006 -0.0007320879606 -0.0004504515609)
(0.0106301457 4.901364964e-05 -0.0008743422239)
(0.008665738646 0.0007330804302 0.0003560593401)
(0.007893192028 0.0004811971605 0.0006463840592)
(0.004649607859 -0.0001748543752 0.0003711926149)
(0.007038043685 8.776217971e-05 -9.102607925e-06)
(0.005094751147 0.0004756989061 0.0003965253139)
(0.007416801835 -3.598659144e-05 -3.283471003e-05)
(0.008179417485 -9.514410783e-05 -0.0003673715724)
(0.005079870051 -0.0004001773789 -0.0003150131388)
(0.009619270048 -3.361543e-05 0.0004226432714)
(0.007805166722 0.0003900096596 -0.0005117470492)
(0.009784911311 -0.0002890521737 0.0007490382896)
(0.005374746849 1.701980342e-05 -0.000341999686)
(0.007470055666 0.0007080946582 0.0004283282729)
(0.01403387845 0.0001783706978 3.559405745e-05)
(0.006529248324 0.0005292445869 8.594893688e-05)
(0.006067455474 -0.001185229049 -0.0001405425656)
(0.003462777081 -0.0004210306948 0.0007967077914)
(0.008430358126 0.0002016619341 -0.0001236267234)
(0.006320776102 0.0003284270092 0.0002718580846)
(0.005767275022 8.874230587e-05 0.0002111734324)
(0.008276481731 -4.710999599e-05 -0.0003629061025)
(0.009785698185 0.0001140503846 0.0005078513277)
(0.005810678792 0.0002244409732 -7.552202785e-05)
(0.007817854635 1.469898662e-05 0.0004353304216)
(0.007180835269 0.0004738978846 0.0004342240472)
(0.008177078402 -0.0004070865146 -5.062363975e-06)
(0.007023596997 -0.0001763500874 0.0002512394715)
(0.01080269929 -0.0002390435173 0.0006110377958)
(0.01071765786 1.941930151e-05 1.915734853e-05)
(0.004896457211 -0.0002171610872 0.0001204006685)
(0.009535816389 0.0002321644689 0.0003534301919)
(0.006184931393 0.0002736602293 -0.0002950642368)
(0.01028694006 -0.0003375354552 0.00107259136)
(0.009575377304 0.0002868702297 0.0005090259253)
(0.009255096973 0.0003569350315 3.183364975e-06)
(0.005575102071 0.0003604217565 -0.0001927478103)
(0.01138387307 0.001203687404 0.0002053462416)
(0.008195007525 -7.013473429e-05 -0.0003869502391)
(0.009784702363 -0.0009039059325 7.749288861e-06)
(0.008941330808 0.0005554118233 0.0001328898733)
(0.005110670234 0.0009120600884 0.0003113406372)
(0.01046147886 0.0005811065415 -0.0003901660755)
(0.009288216771 0.000169832837 0.0002002586478)
(0.0111924693 0.0002719810072 -0.0002017430034)
(0.010109815 -0.0006141999077 -8.533750585e-05)
(0.006940891798 4.647420122e-05 0.0002624330269)
(0.004187784119 -0.0004945608222 -0.0002182929435)
(0.005086482459 7.913233069e-05 2.344561048e-05)
(0.003151510048 0.0001461802613 -0.0004169807795)
(0.01275016241 0.0004154963378 -2.243827849e-06)
(0.006726163646 8.544440414e-05 0.0003187857093)
(0.004370603385 0.0006918344535 0.0003545290754)
(0.009313156816 0.0002289361296 4.902981209e-05)
(0.008922729092 0.0005309300365 2.349603909e-05)
(0.00576431629 -0.0002870630391 0.0002900794496)
(0.009722716194 -0.0002855197733 0.0002422591717)
(0.005027215252 0.0003212110575 0.0004399286138)
(0.005304085037 -0.0005005417628 0.0003483937313)
(0.008085172923 -0.0002006313712 0.0006057670586)
(0.01016694211 -8.002661757e-05 0.0002216386851)
(0.006891308284 -0.0007019687157 0.0003566086084)
(0.007127919366 -2.082559341e-05 0.00058582225)
(0.01199814184 -0.0002095021885 0.0002973040485)
(0.006732464007 -0.0003537671136 0.0002110048052)
(0.008257714485 -0.0002197246885 0.0002407452837)
(0.006988267059 0.0003031814256 0.0007736964982)
(0.007047509362 -7.800657412e-05 -4.839252016e-05)
(0.007189987196 -9.691316082e-06 -2.194797903e-05)
(0.004366838834 -0.0003232205584 -0.0005561539253)
(0.008563550697 -0.0002107462402 -0.0001281823522)
(0.01328534328 -0.0008404763165 0.0003825798336)
(0.005821718836 -0.0008009489185 -0.000193687616)
(0.01239665696 -0.0004410024096 0.0003416025877)
(0.00597077705 0.000399985269 4.908623633e-05)
(0.004779586422 0.0003868036453 0.0002932381465)
(0.006048888906 -0.0002898241405 0.0002151688714)
(0.008130589819 0.0005952516866 -3.309551103e-05)
(0.006978039093 0.0004463229709 0.0001413437525)
(0.008187951269 -0.000100998146 0.0004492424846)
(0.01598764075 0.000387075688 0.0005292409857)
(0.008467420627 -0.0006901453548 0.0003279865186)
(0.009024451009 -0.0002490232038 0.0001791528629)
(0.00798893011 -2.335612261e-05 5.807132947e-05)
(0.006933070747 0.0005495200907 -9.435408388e-05)
(0.01103026422 2.113417871e-06 0.0003979540727)
(0.007513269843 -9.397460929e-05 -0.0006032583347)
(0.005154614097 -0.0003150196444 -0.0002738391845)
(0.008767900655 9.561598966e-05 -0.0003174710556)
(0.01148852728 -9.819761123e-05 -0.0001677552592)
(0.005641684161 0.0005011415877 -0.000251148319)
(0.01306476229 -0.0004271285891 -0.0009909261615)
(0.008952661824 0.001898088571 -9.842328706e-05)
(0.01402111369 0.00339892764 0.00192013776)
(0.005985657281 0.0002808868256 -0.000660144896)
(0.007803760963 0.003849843668 0.002165825877)
(0.007726502158 0.0008607112378 -0.0002632520925)
(0.004839971841 0.002047971673 -0.0007321179469)
(0.007205421919 0.001770534884 0.000946133337)
(0.003239952727 0.002641964886 0.001731035449)
(0.005533531768 0.001889351709 -0.0003848388577)
(0.003994399803 0.001291076098 0.001791345825)
(0.00751096695 0.0008507541429 0.0009384520329)
(0.004557031531 0.003064453251 -0.001189150755)
(0.003481816923 0.001095849859 -0.0004459899963)
(0.009789289513 0.002855920663 0.0002163972828)
(0.006616742409 0.003522482394 -4.379005247e-05)
(0.01094638023 0.003830361351 4.527641006e-05)
(0.01392413381 -1.797397006e-05 0.00147324071)
(0.00973148963 0.00451927722 -0.0004577230202)
(0.01154542081 0.002773071293 0.001711595015)
(0.007768301867 0.003663448538 -0.0009178270648)
(0.009272446071 0.0004436701209 -0.0002381563781)
(0.010844074 0.000996912218 1.244327971e-05)
(0.009346096793 0.0009640249057 0.0007793297435)
(0.01122897541 0.0009485017892 0.0002090025916)
(0.00880262304 0.003455547456 -0.000179703175)
(0.01463556461 0.0052266557 -0.002711784237)
(0.01292133826 0.00440501215 0.000661635622)
(0.0136533962 0.004054162529 -0.003017142948)
(0.01094333928 0.00384404543 -0.0006996887607)
(0.01373605306 0.003944224457 -0.002191930363)
(0.01256997215 0.0003883045801 0.0009361737191)
(0.007898457645 0.0009382588836 -3.00619088e-05)
(0.005129135265 0.002786375651 2.423845061e-05)
(0.01082825572 0.002173739061 -0.0001536546993)
(0.008491383494 0.001345289637 2.177875868e-05)
(0.01557075625 0.003177569953 -2.78397589e-05)
(0.01822050475 0.004817241726 -0.0008465065725)
(0.011239872 0.00409376229 -0.0007663326793)
(0.01303837244 0.0051474186 -0.0004719336817)
(0.01158536327 0.003118071607 -0.0008514940856)
(0.01154902349 -0.0003147608544 -0.0001710020276)
(0.01128126519 -0.001113402757 3.165611865e-05)
(0.008921488493 0.0008704060765 -0.0006494248393)
(0.01188656768 0.001296278154 -0.0008048002894)
(0.01273368823 0.001761366617 -0.0009156686689)
(0.0144312112 0.003653331073 -0.0003719275377)
(0.01569054251 0.001897318132 0.0003844471999)
(0.01034734666 0.004742046397 -0.0004214461899)
(0.005372100474 0.003261443993 0.0004430936515)
(0.01071701031 0.004349706395 0.0002002435341)
(0.005718642667 -0.0007826130897 0.0003748935937)
(0.009163962541 0.001218724578 0.0004661161412)
(0.006871947618 0.0006861470794 -0.0004624105409)
(0.009622678811 -0.0001600120128 -0.0002785490703)
(0.006852256155 0.0003915551752 -0.0003738214247)
(0.00998516542 0.002083386365 -0.000310629999)
(0.007461889884 0.002802274756 0.0001631928187)
(0.01101017936 0.003350169609 -0.001425825262)
(0.01018361785 0.0002072476738 -0.000157082096)
(0.008365846509 0.004229862185 -0.001253608582)
(0.005510673471 -0.0003651377693 -0.000152411113)
(0.0113982965 0.001590397528 -9.039097751e-05)
(0.004161630431 0.001201521453 0.00131500695)
(0.01049554464 0.0004745990369 0.000434394012)
(0.005293283479 0.0001272908515 0.000474939975)
(0.00850060639 0.0006966547115 6.260160365e-05)
(0.009073327268 0.002137778853 -0.001928143181)
(0.008782691256 0.003185445312 -0.001797380069)
(0.005574579085 0.003296568011 -0.0001307315622)
(0.009981869897 0.003569012184 0.001038881026)
(0.01128651163 0.0002256176185 0.0002853444407)
(0.009224200977 0.001222434787 -0.0006256176262)
(0.00799654421 0.0006711715822 -0.000276818522)
(0.009081851476 0.0006786373538 1.787696011e-05)
(0.006176434514 0.0002544015747 0.0007639064163)
(0.01124040178 0.0005797384434 0.0001635309751)
(0.006967375305 0.000534725701 0.0007004214061)
(0.01231366548 0.002081992377 5.468297256e-05)
(0.004840581865 0.0018327501 0.0001769765765)
(0.0110465337 0.0009720449062 -4.313811586e-05)
(0.008127524187 -3.724043825e-05 0.0003057401461)
(0.009172508765 -6.729524399e-05 -0.0008762947872)
(0.01084506819 0.0003138073217 -0.0006432124949)
(0.009376078693 0.001007147237 -5.228646955e-05)
(0.01279509095 0.0004574171512 0.0005379359205)
(0.01091502842 0.001913413098 -0.0007283700179)
(0.003887707941 0.001349651891 -0.0003129328903)
(0.007944467037 0.001468033576 0.000273941973)
(0.01138131456 0.002115257305 -0.001358696598)
(0.00685607881 0.0001807435695 0.0006984040018)
(0.01053089965 0.0007607426192 -0.0007222641535)
(0.009877398722 -0.0002682395252 -0.0005784071135)
(0.004218608911 -0.0002673481149 -0.0002619703742)
(0.007992868066 -0.0001463645372 -0.0003421833912)
(0.01362478304 -0.001034563762 -0.000910602601)
(0.007447813815 -0.000183753229 0.0001946639027)
(0.01123505177 4.816537354e-05 -0.000182740812)
(0.009105466062 0.0002734086634 3.780329459e-05)
(0.01033833403 0.0009374871997 -0.0006488310251)
(0.01197438207 0.002987474148 0.0003246097437)
(0.005742392842 -0.0008277830762 0.0002247169056)
(0.007334489154 -0.000536138136 -5.531460934e-05)
(0.01021431282 0.0001481583658 -0.0003880881773)
(0.01370163142 0.0006874985447 8.242775323e-05)
(0.00462772169 0.0004115134245 0.0007174087367)
(0.009356822978 0.0008520612264 0.0008943943914)
(0.003462494919 -0.0002930380741 0.00034456527)
(0.005155677198 0.001517538422 9.405102251e-05)
(0.006968329344 0.0003896059843 -0.0001072934983)
(0.007140850405 0.002079431367 -1.315819655e-05)
(0.009133126865 -5.67343668e-05 -0.00173102114)
(0.01007665168 -0.0004624637023 0.0007398072937)
(0.01061250839 0.0004900811272 0.0002553975208)
(0.003273165189 -0.0004470337964 0.0002637503651)
(0.006771032701 0.0001785813278 0.0009368599274)
(0.004108239172 0.0002125632476 -3.757080286e-05)
(0.005395302901 0.0007603578798 -0.0001734223521)
(0.008308173671 -0.0004808800337 0.0003600078223)
(0.006636939933 0.000271107794 -0.0001733382684)
(0.00959400007 0.001001276711 -0.0006276789094)
(0.008843359028 6.534064724e-05 -0.0005281029374)
(0.01330136855 4.052113814e-05 0.001042380351)
(0.006245636343 0.000558185599 -0.000134024446)
(0.006586138192 -3.846466794e-06 0.0002496813922)
(0.009778708393 0.0002287922387 -0.0004771419504)
(0.006148766519 -0.000238049369 -0.0002986789231)
(0.007271689479 -0.0002396888952 0.00074378612)
(0.009011728508 -0.0003801952002 0.0001745284235)
(0.004005496755 -0.0003723846998 0.00100776804)
(0.01092344887 0.0002599724923 0.0005423475998)
(0.01025634739 0.0004843983239 -0.00103913446)
(0.008061948213 -0.0001862975486 -0.0004868210771)
(0.00434480435 -0.000358152721 7.99552757e-05)
(0.006853703759 -0.0002382339008 -9.998498731e-05)
(0.007043775369 0.0004960457274 -0.0001010423737)
(0.004092604492 8.33168494e-05 7.420341933e-05)
(0.01014985161 0.0006013086515 -0.0001520901928)
(0.008293791862 0.0007248711152 0.000390100794)
(0.00849820305 0.0006173591955 -0.0003084752115)
(0.01263961584 0.0003561762703 -0.0005407415623)
(0.008509928437 -0.000626257319 -0.0005872090443)
(0.006186165231 -0.0001691513693 -0.0007975934442)
(0.01150907811 0.0005114638815 0.0001169215989)
(0.006632429738 -0.0004068867965 -0.0004081019216)
(0.01081003526 -0.0003074618269 -0.0009429150135)
(0.007142440969 -0.0002581815188 -6.355320286e-05)
(0.007033638235 -0.0002178869119 3.379366764e-05)
(0.01172486761 0.0007872496264 0.0005811140505)
(0.004373862501 0.0003410631781 -7.511899619e-05)
(0.005392165716 0.0007743353339 -0.0005718214747)
(0.013724635 -0.0004732209411 0.0001147286832)
(0.004355099739 7.021891285e-05 -0.000333680807)
(0.003972718291 7.022288966e-05 -2.022424748e-05)
(0.007036317645 0.0008450194867 -0.0001623467254)
(0.006029191902 0.0009483701762 0.0004489023875)
(0.01156836505 -0.0002436794064 0.0002849751461)
(0.010237582 -0.001225812486 0.0004419446817)