/*--------------------------------*- C++ -*----------------------------------*\
  =========                 |
  \\      /  F ield         | OpenFOAM: The Open Source CFD Toolbox
   \\    /   O peration     | Website:  https://openfoam.org
    \\  /    A nd           | Version:  7
     \\/     M anipulation  |
\*---------------------------------------------------------------------------*/
FoamFile
{
    version     2.0;
    format      ascii;
    class       volScalarField;
    location    "0.003";
    object      p;
}
// * * * * * * * * * * * * * * * * * * * * * * * * * * * * * * * * * * * * * //

dimensions      [1 -1 -2 0 0 0 0];

internalField   nonuniform List<scalar> 
654
(
0.3037872607
0.4176347111
0.4097304433
0.4008259097
0.4046359391
0.4057144589
0.4069554465
0.4075406625
0.4001994529
0.3996072581
0.4139830408
0.4041801174
0.411215451
0.3989747763
0.4039394566
0.4243268522
0.4715312932
0.6011740224
0.9609192207
2.365762812
0.307596966
0.4146142976
0.4096973178
0.4119199246
0.4205506585
0.4160448719
0.4150272672
0.4167298473
0.4193084412
0.4149447589
0.4146561997
0.4123364222
0.4128730074
0.4283486474
0.4287296562
0.4513306009
0.5117062469
0.6867201869
1.150422525
2.0388751
0.3118553508
0.4335814999
0.4246319703
0.4190448144
0.4170664156
0.4119244098
0.4062621842
0.4079703352
0.4083465232
0.4137057085
0.4184839172
0.4166794963
0.4201833643
0.4225339852
0.4401494136
0.4608819289
0.5332179957
0.6774499453
1.009673071
1.493205216
0.3098709339
0.4151528868
0.4118863888
0.4198280265
0.4162552608
0.4154496949
0.4157340636
0.4182663295
0.4191229196
0.422453812
0.4260602968
0.4216896957
0.4253343501
0.4328060064
0.4292597664
0.4529135564
0.4977789242
0.6121976369
0.8277643876
1.137917324
0.3119886707
0.4205614389
0.4091154209
0.4075461936
0.414998535
0.4163640683
0.4186603626
0.4167110408
0.4155199765
0.4145014061
0.414349699
0.4161003999
0.4190120168
0.4272313759
0.433029778
0.4707145393
0.5131618021
0.580501859
0.6876284569
0.9524536943
0.3155926356
0.4286185351
0.4237180549
0.415019883
0.4119382891
0.4059510266
0.4060335334
0.4059675266
0.40525574
0.40710635
0.4045824295
0.399803247
0.4081521619
0.4267662689
0.4356692418
0.4618359315
0.4788258097
0.5259659444
0.601424176
0.7796442035
0.3140471211
0.4183372712
0.4155460975
0.4182937682
0.4172604299
0.413682273
0.4060676647
0.4130420373
0.4116354304
0.4083979466
0.414535621
0.4214073663
0.4297677502
0.4348828394
0.4384083664
0.4513788715
0.4777165705
0.4950145397
0.5354276344
0.664250186
0.3120954296
0.4237825624
0.406854133
0.4008932935
0.4087975268
0.4077535592
0.4136764478
0.4105753421
0.4118498542
0.4212807042
0.423488164
0.4273673592
0.4285913445
0.4325356801
0.4314534849
0.4502837454
0.4612288906
0.4586213133
0.5227682622
0.5940649002
0.3098436701
0.4240988375
0.4139951432
0.4165736417
0.4162086116
0.4216259518
0.4199601686
0.4238784336
0.4247024021
0.4249041088
0.4180128687
0.4201853816
0.4225955764
0.4326578201
0.4406016725
0.439783054
0.4364834807
0.4716711803
0.4925503026
0.5269958752
0.3149770248
0.4246118976
0.4246355719
0.4329481985
0.4318380102
0.4277658521
0.4275727921
0.4295805238
0.4181954617
0.4173913979
0.4117388869
0.423205061
0.4238966838
0.4281795416
0.427929575
0.4348685769
0.4346080306
0.460682967
0.4752444732
0.5038451873
0.311277753
0.423657922
0.4165099336
0.4230722372
0.4165608098
0.4196529329
0.4158432342
0.4136581728
0.4165006524
0.4217069051
0.4171265094
0.4142878915
0.4160421707
0.4276641502
0.4228927531
0.421734522
0.4360392965
0.4450592328
0.4655412037
0.4976529627
0.3072474847
0.420170671
0.4113792125
0.4088454971
0.4232495487
0.4197220898
0.4119007749
0.4150344081
0.4091804697
0.4055981125
0.4123987762
0.4146528365
0.4183351365
0.4216280651
0.4188044609
0.4199603252
0.427611484
0.4247311337
0.4562537258
0.4748751923
0.31220621
0.4236761391
0.4186326118
0.4115716792
0.411226338
0.411014257
0.4178890557
0.4229264729
0.4259821971
0.4212018128
0.415354029
0.4115204156
0.4075618602
0.4083651991
0.4135632529
0.4041814363
0.4110505034
0.4185431769
0.4380683246
0.4589732371
0.315144949
0.4193425323
0.4117749481
0.4241390527
0.4221976451
0.420909969
0.4152889153
0.4128877884
0.4149167327
0.4183803456
0.4166520375
0.4298556543
0.4171457017
0.4115502198
0.4157179281
0.4182406596
0.4225744694
0.4287136888
0.4319133511
0.4337232634
0.3064851628
0.420791331
0.4176270558
0.4056180479
0.409690657
0.4110627071
0.4059576385
0.4069155988
0.4016148062
0.3966148062
0.4002259901
0.415785256
0.4138099995
0.4135968995
0.4272728303
0.4188777635
0.4275193197
0.4179524184
0.4331520737
0.4341831493
0.3068011875
0.4122279446
0.4007704182
0.4062607696
0.4084282908
0.4091586153
0.4101403633
0.4181939967
0.4135697761
0.4119831837
0.4138939484
0.409125191
0.4143788738
0.416215921
0.4131304226
0.4110894151
0.4125531131
0.4123760435
0.4360054698
0.4353685632
0.3061730196
0.4161123385
0.4096401161
0.4064777669
0.4116346987
0.411637777
0.4168950334
0.4189696475
0.4270008463
0.4247237267
0.4176739058
0.4165516682
0.4102561069
0.4215855507
0.428434084
0.428125538
0.4318808022
0.4267714373
0.4327367415
0.4366758583
0.3082032323
0.4158399471
0.4124561271
0.4115910244
0.4115453973
0.4081237996
0.4067750946
0.4065965447
0.4003220331
0.4113729242
0.4168945935
0.4289928946
0.4328652956
0.4278550834
0.4269605465
0.4277519827
0.4217793533
0.4283406994
0.4273828647
0.4314731179
0.3097977658
0.4190516254
0.4154846581
0.4154882068
0.4131630221
0.4155418115
0.4143249185
0.4139910198
0.4129874935
0.414469821
0.4154460223
0.4071379306
0.4125714736
0.4157298521
0.4206051453
0.427962192
0.4244051276
0.4216973783
0.4314307876
0.430235808
0.3164495859
0.4354189228
0.4221108164
0.4154196807
0.4127843226
0.406685281
0.4069401254
0.413182093
0.4165091774
0.4214190793
0.4167846215
0.4169545934
0.4163331124
0.4112341661
0.4126071869
0.4147494141
0.4206524235
0.4256904662
0.4363314977
0.4350696622
0.3095893709
0.4169158379
0.4093434002
0.4149903501
0.4218381593
0.4241603073
0.4183890228
0.4168758941
0.4114900627
0.405408595
0.417600118
0.4172117572
0.4203690028
0.4190318013
0.4227841038
0.4161099953
0.4264351369
0.4236352747
0.4274513663
0.4141904466
0.3109911327
0.4218088875
0.4138726273
0.4119077105
0.4121194999
0.4176640521
0.4166689251
0.4164407933
0.4161066288
0.4178926496
0.4147322206
0.4128249403
0.4135729887
0.4188449642
0.4211594729
0.4208782293
0.4254114423
0.4224204652
0.4248406876
0.4162674645
4.624953282
4.903292461
4.863410254
4.660216913
4.44196162
4.409155421
4.356306194
4.281943124
4.155887723
4.105100577
3.055698456
3.52281678
3.758620743
3.982023265
3.928695736
4.0499956
3.977797437
3.997616948
4.053593075
3.975161362
2.174525082
2.662551213
2.913234492
3.261327068
3.368540985
3.443506379
3.606863098
3.695731724
3.674396412
3.681569562
1.590188135
1.879191972
2.249561892
2.536699932
2.724427637
2.93960919
3.124560577
3.245661818
3.24730822
3.32719809
1.241098014
1.461404506
1.747943745
1.939559272
2.224721282
2.421401288
2.668399498
2.822094099
2.903794098
2.946847874
0.937740646
1.145914393
1.330940551
1.581029863
1.767906001
1.931786883
2.286947309
2.335487843
2.495967137
2.677925065
0.788266902
0.9858912904
1.065162114
1.293934855
1.429911778
1.558580999
1.805903723
1.953574161
2.15893074
2.275960912
0.6814900068
0.7858257491
0.9180307365
1.040205845
1.210415888
1.320457949
1.466764439
1.642203703
1.835407882
2.014827721
0.6145937607
0.6981431874
0.7878255817
0.8622659014
0.9837254326
1.10670328
1.250740618
1.348778043
1.475227129
1.625639207
0.5586793686
0.6060306493
0.6839012209
0.7486317649
0.8265147913
0.8911612392
0.9922072332
1.099258202
1.243323031
1.367556757
0.5209966403
0.5628126636
0.6330951957
0.6695414051
0.6755157497
0.7604396762
0.8378918555
0.9651900409
1.067184914
1.150052134
0.4749403259
0.488085728
0.5284894854
0.5816292007
0.6002236865
0.6846904826
0.7572265714
0.8304997366
0.875892872
0.9759590224
0.4846569972
0.4836128199
0.5093067811
0.5371415027
0.5652587089
0.6016112596
0.6826552604
0.7224568769
0.7890887953
0.8293106869
0.4440385655
0.452077007
0.4835502523
0.519106387
0.5303049646
0.5567999869
0.5965950655
0.6354896644
0.7053979125
0.7481036843
0.4475794077
0.4600751096
0.4914225152
0.4922981807
0.5311270306
0.5512908737
0.5664096058
0.5745563894
0.6078358595
0.6656797441
0.438272911
0.4406525851
0.4577896771
0.4589830532
0.4861626891
0.5073182905
0.5062658168
0.521679728
0.5585941431
0.587560308
0.4432404253
0.4449178298
0.4473372863
0.4465490214
0.4633860039
0.4824179974
0.499031298
0.5036582829
0.526467641
0.5445307244
0.4267454835
0.4358957361
0.4508356699
0.4629559213
0.4749147594
0.4647182812
0.4907859621
0.4932805092
0.5126540995
0.5185650552
0.4421186166
0.4463830697
0.4542455301
0.4587184754
0.4542596282
0.4662876641
0.4719197344
0.4808617704
0.4817723807
0.4861967068
0.4372299073
0.4342079812
0.4343812012
0.4508237917
0.4537227263
0.4539427865
0.4599624664
0.4714439381
0.4836722167
0.4896812692
0.4184795708
0.4121640979
0.4237755161
0.4290527206
0.438989297
0.4356771719
0.4404680729
0.447806909
0.4368557697
0.4542953919
0.4245139452
0.4155819082
0.4204279498
0.4208234691
)
;

boundaryField
{
    flow
    {
        type            calculated;
        value           nonuniform List<scalar> 
42
(
0.3037872607
0.307596966
0.3118553508
0.3098709339
0.3119886707
0.3155926356
0.3140471211
0.3120954296
0.3098436701
0.3149770248
0.311277753
0.3072474847
0.31220621
0.315144949
0.3064851628
0.3068011875
0.3061730196
0.3082032323
0.3097977658
0.3164495859
0.3095893709
0.3109911327
0.3037872607
0.4176347111
0.4097304433
0.4008259097
0.4046359391
0.4057144589
0.4069554465
0.4075406625
0.4001994529
0.3996072581
0.4139830408
0.4041801174
0.411215451
0.3989747763
0.4039394566
0.4243268522
0.4715312932
0.6011740224
0.9609192207
2.365762812
)
;
    }
    obstacle
    {
        type            calculated;
        value           nonuniform List<scalar> 10(3.58404858 3.695358 3.743930586 3.53931313 3.424544364 3.415016294 3.443726775 3.350925212 3.343972697 3.370443797);
    }
    frontAndBack
    {
        type            empty;
    }
    procBoundary0to1
    {
        type            processor;
        value           nonuniform List<scalar> 
21
(
3.960032643
3.851695622
3.605307595
3.442420362
3.077698899
2.715460911
2.383278745
2.094298718
1.766228544
1.536863877
1.309702071
1.043616131
0.9314072992
0.8077316808
0.7395530905
0.6447950006
0.5649904064
0.5438530984
0.490544966
0.4860266602
0.4750457935
)
;
    }
    procBoundary0to2
    {
        type            processor;
        value           nonuniform List<scalar> 
31
(
0.3189770069
0.4247831602
0.4174093237
0.411779986
0.4157487797
0.4130798415
0.4201957999
0.4262979327
0.4299422691
0.4224225424
0.4237959105
0.4227888788
0.4135811237
0.4102824549
0.4067243117
0.4012343586
0.4011914206
0.4085678049
0.4146703023
0.4096233175
0.4226706688
0.4356728367
0.429053981
0.4379017104
0.4440575795
0.4475452445
0.4152566576
0.4202127575
0.4109344351
0.4226706688
0.4196380922
)
;
    }
}


// ************************************************************************* //
