/*--------------------------------*- C++ -*----------------------------------*\
  =========                 |
  \\      /  F ield         | OpenFOAM: The Open Source CFD Toolbox
   \\    /   O peration     | Website:  https://openfoam.org
    \\  /    A nd           | Version:  7
     \\/     M anipulation  |
\*---------------------------------------------------------------------------*/
FoamFile
{
    version     2.0;
    format      ascii;
    class       volScalarField;
    location    "0.003";
    object      rhoM;
}
// * * * * * * * * * * * * * * * * * * * * * * * * * * * * * * * * * * * * * //

dimensions      [1 -3 0 0 0 0 0];

internalField   nonuniform List<scalar> 
654
(
3.942947953e-06
4.01188862e-06
4.01188862e-06
6.571024508e-06
7.055275419e-06
4.080829287e-06
4.842509107e-06
3.458697042e-06
5.049331109e-06
4.01188862e-06
2.559135888e-06
5.464641352e-06
1.937003643e-06
5.049331109e-06
4.496139531e-06
2.974446132e-06
3.458697042e-06
5.53358202e-06
5.049331109e-06
3.596578377e-06
6.502083841e-06
7.954836573e-06
6.502083841e-06
3.52763771e-06
6.086773598e-06
5.464641352e-06
2.974446132e-06
3.389756375e-06
4.565080198e-06
6.848453417e-06
4.634020865e-06
6.086773598e-06
5.049331109e-06
2.905505464e-06
1.937003643e-06
2.697017223e-06
3.942947953e-06
4.496139531e-06
6.433143174e-06
2.00594431e-06
4.01188862e-06
7.055275419e-06
6.01783293e-06
6.433143174e-06
6.433143174e-06
3.874007286e-06
2.00594431e-06
5.879951596e-06
4.496139531e-06
3.942947953e-06
4.565080198e-06
3.458697042e-06
4.358258196e-06
3.942947953e-06
6.917394084e-06
5.118271776e-06
4.01188862e-06
3.52763771e-06
2.490195221e-06
4.980390442e-06
3.942947953e-06
3.942947953e-06
4.01188862e-06
5.395700685e-06
4.01188862e-06
3.874007286e-06
5.879951596e-06
2.00594431e-06
3.942947953e-06
1.937003643e-06
2.00594431e-06
3.942947953e-06
5.53358202e-06
4.496139531e-06
5.395700685e-06
3.458697042e-06
2.00594431e-06
3.112327466e-06
3.942947953e-06
7.055275419e-06
2.490195221e-06
1.937003643e-06
5.464641352e-06
4.565080198e-06
5.049331109e-06
7.055275419e-06
5.049331109e-06
5.948892263e-06
4.01188862e-06
5.326760018e-06
8.092717908e-06
5.948892263e-06
3.458697042e-06
3.389756375e-06
6.364202506e-06
3.458697042e-06
1.521693399e-06
4.358258196e-06
2.559135888e-06
4.565080198e-06
5.049331109e-06
4.080829287e-06
7.608466997e-06
3.52763771e-06
3.043386799e-06
1.937003643e-06
5.602522687e-06
4.634020865e-06
3.389756375e-06
4.01188862e-06
4.01188862e-06
4.842509107e-06
3.043386799e-06
3.52763771e-06
2.490195221e-06
5.879951596e-06
4.634020865e-06
2.074884977e-06
4.842509107e-06
2.559135888e-06
6.502083841e-06
5.464641352e-06
6.986334752e-06
4.565080198e-06
2.974446132e-06
2.559135888e-06
6.433143174e-06
3.458697042e-06
4.080829287e-06
6.295261839e-06
5.948892263e-06
5.948892263e-06
5.118271776e-06
5.879951596e-06
4.149769955e-06
4.911449774e-06
2.421254554e-06
2.905505464e-06
2.421254554e-06
4.634020865e-06
6.708905843e-06
5.948892263e-06
4.496139531e-06
4.842509107e-06
2.074884977e-06
2.490195221e-06
3.043386799e-06
3.043386799e-06
4.565080198e-06
4.496139531e-06
4.980390442e-06
4.080829287e-06
5.049331109e-06
3.942947953e-06
4.427198864e-06
4.911449774e-06
2.905505464e-06
6.433143174e-06
4.842509107e-06
4.842509107e-06
3.942947953e-06
6.433143174e-06
4.080829287e-06
4.149769955e-06
2.905505464e-06
4.980390442e-06
4.980390442e-06
2.905505464e-06
3.52763771e-06
5.464641352e-06
2.00594431e-06
2.559135888e-06
9.614411307e-06
5.602522687e-06
5.602522687e-06
5.464641352e-06
5.53358202e-06
4.01188862e-06
3.52763771e-06
5.395700685e-06
4.634020865e-06
6.364202506e-06
3.874007286e-06
2.559135888e-06
7.677407664e-06
2.628076555e-06
2.00594431e-06
4.565080198e-06
4.565080198e-06
6.502083841e-06
7.401644995e-06
3.112327466e-06
6.433143174e-06
4.496139531e-06
3.596578377e-06
9.685018214e-07
2.974446132e-06
6.086773598e-06
4.427198864e-06
5.948892263e-06
2.00594431e-06
5.811010928e-06
5.879951596e-06
4.565080198e-06
3.52763771e-06
5.049331109e-06
4.01188862e-06
4.496139531e-06
6.01783293e-06
5.53358202e-06
5.049331109e-06
5.53358202e-06
6.571024508e-06
3.389756375e-06
2.421254554e-06
4.01188862e-06
4.911449774e-06
4.496139531e-06
3.458697042e-06
4.358258196e-06
4.496139531e-06
5.464641352e-06
3.458697042e-06
5.53358202e-06
7.816955239e-06
5.879951596e-06
4.565080198e-06
7.124216086e-06
2.421254554e-06
2.00594431e-06
4.565080198e-06
7.193156754e-06
3.389756375e-06
4.358258196e-06
1.937003643e-06
2.490195221e-06
5.671463354e-06
2.00594431e-06
1.937003643e-06
3.665519044e-06
3.52763771e-06
3.389756375e-06
7.332704328e-06
3.52763771e-06
6.986334752e-06
4.358258196e-06
3.458697042e-06
3.596578377e-06
1.937003643e-06
7.470585662e-06
4.911449774e-06
4.911449774e-06
3.458697042e-06
4.842509107e-06
2.559135888e-06
7.193156754e-06
4.427198864e-06
3.874007286e-06
6.502083841e-06
4.980390442e-06
5.602522687e-06
4.565080198e-06
4.149769955e-06
4.427198864e-06
3.112327466e-06
2.490195221e-06
2.974446132e-06
7.332704328e-06
3.52763771e-06
2.559135888e-06
3.043386799e-06
5.326760018e-06
6.502083841e-06
4.01188862e-06
2.559135888e-06
3.596578377e-06
2.421254554e-06
3.043386799e-06
4.427198864e-06
2.421254554e-06
4.01188862e-06
4.980390442e-06
3.942947953e-06
4.427198864e-06
5.118271776e-06
4.980390442e-06
4.496139531e-06
4.980390442e-06
5.53358202e-06
4.01188862e-06
4.427198864e-06
4.427198864e-06
1.452752732e-06
3.458697042e-06
3.874007286e-06
4.01188862e-06
3.52763771e-06
8.645909486e-06
3.389756375e-06
4.565080198e-06
5.118271776e-06
3.458697042e-06
5.948892263e-06
1.521693399e-06
8.576968818e-06
4.01188862e-06
4.427198864e-06
3.043386799e-06
4.7719022e-06
5.53358202e-06
6.502083841e-06
6.571024508e-06
2.00594431e-06
4.496139531e-06
3.043386799e-06
2.490195221e-06
3.942947953e-06
5.118271776e-06
4.01188862e-06
2.974446132e-06
4.980390442e-06
4.496139531e-06
5.256153111e-06
4.427198864e-06
4.01188862e-06
1.521693399e-06
5.948892263e-06
7.401644995e-06
4.702961533e-06
5.395700685e-06
2.974446132e-06
3.52763771e-06
4.911449774e-06
1.521693399e-06
4.01188862e-06
4.427198864e-06
2.00594431e-06
3.043386799e-06
2.421254554e-06
2.905505464e-06
6.433143174e-06
1.937003643e-06
1.937003643e-06
4.01188862e-06
2.974446132e-06
3.942947953e-06
3.942947953e-06
6.01783293e-06
3.52763771e-06
7.53952633e-06
4.634020865e-06
6.639965176e-06
3.389756375e-06
2.490195221e-06
3.942947953e-06
4.01188862e-06
4.427198864e-06
3.458697042e-06
4.911449774e-06
4.496139531e-06
6.01783293e-06
4.911449774e-06
3.043386799e-06
7.470585662e-06
2.490195221e-06
6.224654932e-06
2.905505464e-06
4.980390442e-06
5.948892263e-06
4.842509107e-06
4.149769955e-06
4.080829287e-06
5.602522687e-06
5.118271776e-06
4.01188862e-06
3.665519044e-06
4.565080198e-06
2.490195221e-06
4.911449774e-06
5.464641352e-06
2.974446132e-06
5.049331109e-06
5.53358202e-06
3.942947953e-06
6.086773598e-06
3.043386799e-06
3.52763771e-06
4.080829287e-06
4.01188862e-06
6.433143174e-06
5.464641352e-06
2.559135888e-06
7.055275419e-06
4.358258196e-06
4.01188862e-06
4.080829287e-06
6.502083841e-06
4.01188862e-06
2.905505464e-06
4.980390442e-06
5.118271776e-06
1.521693399e-06
7.055275419e-06
5.395700685e-06
2.559135888e-06
3.52763771e-06
4.842509107e-06
4.080829287e-06
3.458697042e-06
2.00594431e-06
5.879951596e-06
5.879951596e-06
4.01188862e-06
6.01783293e-06
3.874007286e-06
3.942947953e-06
3.112327466e-06
4.911449774e-06
6.01783293e-06
2.974446132e-06
2.974446132e-06
4.427198864e-06
3.458697042e-06
4.842509107e-06
7.954836573e-06
1.521693399e-06
3.596578377e-06
2.00594431e-06
3.52763771e-06
5.53358202e-06
3.458697042e-06
4.911449774e-06
5.049331109e-06
3.52763771e-06
4.01188862e-06
6.502083841e-06
3.874007286e-06
3.942947953e-06
2.905505464e-06
2.00594431e-06
5.48402037e-06
1.95723903e-06
4.08186716e-06
5.457459479e-06
3.996927969e-06
4.025188565e-06
4.777006467e-06
1.603755718e-06
2.716629368e-06
2.662680672e-06
2.499026091e-06
3.564490049e-06
2.53363118e-06
3.969061441e-06
1.998463985e-06
2.515742855e-06
1.59233549e-06
3.790535691e-06
2.570262587e-06
3.698266581e-06
3.470962467e-06
4.123460679e-06
2.673917548e-06
6.024224384e-06
3.068824107e-06
2.587373897e-06
4.198133889e-06
1.603755719e-06
2.12939346e-06
2.588964772e-06
2.984994279e-06
4.053799808e-06
2.53363118e-06
1.559030262e-06
3.139952229e-06
2.012594282e-06
1.013462911e-06
5.686681584e-06
2.643445978e-06
3.771982481e-06
6.455956746e-06
3.634150921e-06
5.982514373e-06
2.055162944e-06
1.998463987e-06
2.659004942e-06
2.605798401e-06
2.624487185e-06
4.405153705e-06
3.845698384e-06
2.568211239e-06
9.786195149e-07
4.011723974e-06
4.606458563e-06
5.280672467e-06
3.593671035e-06
3.112529853e-06
4.373559937e-06
1.615340942e-06
3.698266584e-06
2.499026091e-06
3.634150921e-06
4.574564761e-06
6.732253736e-06
1.998463987e-06
3.018891425e-06
6.731791169e-06
1.166048505e-06
3.303865276e-06
1.700810664e-06
2.499026091e-06
4.123460681e-06
3.941580792e-06
6.236121047e-06
3.568440098e-06
2.084225326e-06
3.619261313e-06
2.259438491e-06
1.028105035e-06
6.952456108e-06
4.026115804e-06
2.585870533e-06
5.207548727e-06
3.472928761e-06
4.0680561e-06
5.60626532e-06
2.533657276e-06
4.155584385e-06
2.570262587e-06
5.177929544e-07
2.984994281e-06
2.446548789e-06
1.548235982e-06
4.110325886e-06
1.998463985e-06
3.018891425e-06
2.099066946e-06
2.697145705e-06
3.450232058e-06
2.810112473e-06
3.540147616e-06
3.564490048e-06
4.152010344e-06
6.094856607e-06
4.139184224e-06
6.109413891e-06
2.026925821e-06
3.062194397e-06
1.028105035e-06
3.698266581e-06
2.013057902e-06
3.564490051e-06
2.603774365e-06
3.543560981e-06
3.211080358e-06
1.509445713e-06
2.533657287e-06
2.624487202e-06
2.05621008e-06
5.546509069e-06
5.969988558e-06
2.516209667e-06
3.659312761e-06
1.062897583e-06
2.498079971e-06
4.814861304e-06
4.12599276e-06
5.759340055e-06
4.185603512e-06
2.588964772e-06
9.719363736e-07
5.102080163e-06
2.533631161e-06
3.684825416e-06
4.0680561e-06
5.031485695e-07
2.533657264e-06
2.551828662e-06
1.688524326e-06
2.144887703e-06
3.540147635e-06
3.425168311e-06
4.504421573e-06
5.739988391e-06
4.567672128e-06
2.012594292e-06
2.099066949e-06
4.665950144e-06
2.129393466e-06
2.144887718e-06
4.581269135e-06
2.935858553e-06
1.478092806e-06
4.606458582e-06
1.569976117e-06
2.730635997e-06
3.184670985e-06
4.300901387e-06
3.230681872e-06
6.508379054e-06
4.442898838e-06
5.102080173e-06
5.207548691e-06
6.165488808e-06
4.567672097e-06
2.155856365e-06
3.184670985e-06
3.645218672e-06
5.947311271e-06
5.843154299e-06
1.59627486e-06
3.144841172e-06
3.096471983e-06
1.984530714e-06
3.211080338e-06
3.59367103e-06
5.862610472e-06
4.08292586e-06
6.534547181e-06
5.472793145e-06
2.499026104e-06
3.425168311e-06
4.504421573e-06
3.614193218e-06
3.63956823e-06
3.736933118e-06
3.547120194e-06
5.394291402e-06
2.643445966e-06
1.035585916e-06
2.429840939e-06
4.543109575e-06
6.122800739e-06
3.118060515e-06
7.136880207e-06
3.162153526e-06
6.369341969e-06
4.300901418e-06
4.331970323e-06
4.289775436e-06
3.540147611e-06
5.521729056e-06
4.644707943e-06
2.05516295e-06
4.28144048e-06
4.240081687e-06
4.125992774e-06
2.041462944e-06
2.570262594e-06
3.845698382e-06
3.054179423e-06
3.564490034e-06
3.589169561e-06
3.684825441e-06
)
;

boundaryField
{
    flow
    {
        type            zeroGradient;
    }
    obstacle
    {
        type            calculated;
        value           nonuniform List<scalar> 10(2.225073859e-308 2.225073859e-308 2.225073859e-308 1.780799027e-24 2.225073859e-308 7.837249705e-24 2.225073859e-308 2.225073859e-308 4.794478119e-24 2.225073859e-308);
    }
    frontAndBack
    {
        type            empty;
    }
    procBoundary0to1
    {
        type            processor;
        value           nonuniform List<scalar> 
21
(
3.203785561e-06
3.352297995e-06
2.682197336e-06
2.160609112e-06
4.842806449e-06
3.203785565e-06
2.682197336e-06
5.885982897e-06
3.725373787e-06
3.278041777e-06
1.639020888e-06
6.034495351e-06
5.215882226e-07
5.88598288e-06
3.799630017e-06
3.203785551e-06
3.725373774e-06
2.756453564e-06
6.556083581e-06
3.79962999e-06
3.203785574e-06
)
;
    }
    procBoundary0to2
    {
        type            processor;
        value           nonuniform List<scalar> 
31
(
2.974446132e-06
6.01783293e-06
4.427198864e-06
3.942947953e-06
1.521693399e-06
8.02377724e-06
4.980390442e-06
5.395700685e-06
3.112327466e-06
3.389756375e-06
3.043386799e-06
1.937003643e-06
2.00594431e-06
3.942947953e-06
3.942947953e-06
2.974446132e-06
3.112327466e-06
2.490195221e-06
5.53358202e-06
2.074884977e-06
5.067288093e-06
3.090522461e-06
3.619261292e-06
5.759340096e-06
2.716629376e-06
3.771982481e-06
4.998052174e-06
3.703811804e-06
7.53075035e-06
5.067288093e-06
3.614193194e-06
)
;
    }
}


// ************************************************************************* //
