/*--------------------------------*- C++ -*----------------------------------*\
  =========                 |
  \\      /  F ield         | OpenFOAM: The Open Source CFD Toolbox
   \\    /   O peration     | Website:  https://openfoam.org
    \\  /    A nd           | Version:  7
     \\/     M anipulation  |
\*---------------------------------------------------------------------------*/
FoamFile
{
    version     2.0;
    format      ascii;
    class       volScalarField;
    location    "0.003";
    object      rhoM;
}
// * * * * * * * * * * * * * * * * * * * * * * * * * * * * * * * * * * * * * //

dimensions      [1 -3 0 0 0 0 0];

internalField   nonuniform List<scalar> 
654
(
3.942947953e-06
2.490195221e-06
5.049331109e-06
6.986334752e-06
6.086773598e-06
1.937003643e-06
3.52763771e-06
3.52763771e-06
6.639965176e-06
4.496139531e-06
6.502083841e-06
5.118271776e-06
6.086773598e-06
4.496139531e-06
6.917394084e-06
4.218710622e-06
2.143825645e-06
2.905505464e-06
4.496139531e-06
6.986334752e-06
3.52763771e-06
5.395700685e-06
4.911449774e-06
5.53358202e-06
2.490195221e-06
5.049331109e-06
4.565080198e-06
4.01188862e-06
3.942947953e-06
6.433143174e-06
6.433143174e-06
4.980390442e-06
4.980390442e-06
4.496139531e-06
4.427198864e-06
5.948892263e-06
3.043386799e-06
4.496139531e-06
4.080829287e-06
3.458697042e-06
3.52763771e-06
4.01188862e-06
7.055275419e-06
5.118271776e-06
4.842509107e-06
6.01783293e-06
9.891840216e-06
2.974446132e-06
4.980390442e-06
4.565080198e-06
6.086773598e-06
4.01188862e-06
4.496139531e-06
2.00594431e-06
2.559135888e-06
2.490195221e-06
6.917394084e-06
3.112327466e-06
7.401644995e-06
4.911449774e-06
3.458697042e-06
6.571024508e-06
2.421254554e-06
4.01188862e-06
4.911449774e-06
3.942947953e-06
4.358258196e-06
6.708905843e-06
5.464641352e-06
4.080829287e-06
5.53358202e-06
6.01783293e-06
4.01188862e-06
6.433143174e-06
4.565080198e-06
4.911449774e-06
4.080829287e-06
2.559135888e-06
6.571024508e-06
6.571024508e-06
3.52763771e-06
4.911449774e-06
4.01188862e-06
4.496139531e-06
6.708905843e-06
4.01188862e-06
2.974446132e-06
5.53358202e-06
2.974446132e-06
5.395700685e-06
4.842509107e-06
6.364202506e-06
5.948892263e-06
5.53358202e-06
3.874007286e-06
4.496139531e-06
6.571024508e-06
6.639965176e-06
6.571024508e-06
4.080829287e-06
5.049331109e-06
3.458697042e-06
6.917394084e-06
4.01188862e-06
4.01188862e-06
4.980390442e-06
4.842509107e-06
5.879951596e-06
3.52763771e-06
3.942947953e-06
2.974446132e-06
4.01188862e-06
6.502083841e-06
3.458697042e-06
5.395700685e-06
1.590634067e-06
4.842509107e-06
7.816955239e-06
2.974446132e-06
6.01783293e-06
3.458697042e-06
4.01188862e-06
3.389756375e-06
8.02377724e-06
2.074884977e-06
5.464641352e-06
6.433143174e-06
5.464641352e-06
5.118271776e-06
7.055275419e-06
6.571024508e-06
3.043386799e-06
4.980390442e-06
2.974446132e-06
5.464641352e-06
4.911449774e-06
4.080829287e-06
5.049331109e-06
2.905505464e-06
4.911449774e-06
3.942947953e-06
5.118271776e-06
4.496139531e-06
5.53358202e-06
3.389756375e-06
2.974446132e-06
5.464641352e-06
4.358258196e-06
8.02377724e-06
3.458697042e-06
4.565080198e-06
6.571024508e-06
5.464641352e-06
4.358258196e-06
3.458697042e-06
3.389756375e-06
4.080829287e-06
1.452752732e-06
6.086773598e-06
5.948892263e-06
3.458697042e-06
5.879951596e-06
6.01783293e-06
3.52763771e-06
5.049331109e-06
6.01783293e-06
3.458697042e-06
4.496139531e-06
6.433143174e-06
2.974446132e-06
3.389756375e-06
4.980390442e-06
6.155714265e-06
4.496139531e-06
4.634020865e-06
3.942947953e-06
4.01188862e-06
4.842509107e-06
5.118271776e-06
5.464641352e-06
3.043386799e-06
4.496139531e-06
5.53358202e-06
6.502083841e-06
5.049331109e-06
6.155714265e-06
2.905505464e-06
3.874007286e-06
4.149769955e-06
5.118271776e-06
5.53358202e-06
1.037442489e-06
5.602522687e-06
6.986334752e-06
3.458697042e-06
7.816955239e-06
5.948892263e-06
7.53952633e-06
4.980390442e-06
6.01783293e-06
3.52763771e-06
6.433143174e-06
2.974446132e-06
4.149769955e-06
4.980390442e-06
3.389756375e-06
6.155714265e-06
4.01188862e-06
3.458697042e-06
2.974446132e-06
3.942947953e-06
5.464641352e-06
5.326760018e-06
5.53358202e-06
3.596578377e-06
7.332704328e-06
6.502083841e-06
7.055275419e-06
4.565080198e-06
6.086773598e-06
3.458697042e-06
3.942947953e-06
4.149769955e-06
6.848453417e-06
6.917394084e-06
7.055275419e-06
2.905505464e-06
4.427198864e-06
5.464641352e-06
5.395700685e-06
6.502083841e-06
6.086773598e-06
4.565080198e-06
4.565080198e-06
2.490195221e-06
4.496139531e-06
5.948892263e-06
3.043386799e-06
6.433143174e-06
6.917394084e-06
2.974446132e-06
6.01783293e-06
3.389756375e-06
3.458697042e-06
4.01188862e-06
4.634020865e-06
8.02377724e-06
4.911449774e-06
2.559135888e-06
5.464641352e-06
5.602522687e-06
4.496139531e-06
3.458697042e-06
4.358258196e-06
2.490195221e-06
8.02377724e-06
5.879951596e-06
4.980390442e-06
4.980390442e-06
5.118271776e-06
3.043386799e-06
3.458697042e-06
7.470585662e-06
5.53358202e-06
3.596578377e-06
4.496139531e-06
5.118271776e-06
1.937003643e-06
6.433143174e-06
4.565080198e-06
6.917394084e-06
2.974446132e-06
3.874007286e-06
2.974446132e-06
6.986334752e-06
4.980390442e-06
3.942947953e-06
4.427198864e-06
2.559135888e-06
3.043386799e-06
4.980390442e-06
4.427198864e-06
5.464641352e-06
3.942947953e-06
4.358258196e-06
6.01783293e-06
4.702961533e-06
3.874007286e-06
3.458697042e-06
4.911449774e-06
6.986334752e-06
5.53358202e-06
5.879951596e-06
2.974446132e-06
5.049331109e-06
4.496139531e-06
4.634020865e-06
2.974446132e-06
6.086773598e-06
2.421254554e-06
2.490195221e-06
4.496139531e-06
5.602522687e-06
1.521693399e-06
3.596578377e-06
4.911449774e-06
6.848453417e-06
6.086773598e-06
5.948892263e-06
5.187212443e-06
7.055275419e-06
5.464641352e-06
4.01188862e-06
7.331038088e-06
4.149769955e-06
6.502083841e-06
6.364202506e-06
2.559135888e-06
3.52763771e-06
7.746348332e-06
4.496139531e-06
2.00594431e-06
7.816955239e-06
4.980390442e-06
3.458697042e-06
7.332704328e-06
7.470585662e-06
5.53358202e-06
5.464641352e-06
1.521693399e-06
6.571024508e-06
4.080829287e-06
5.53358202e-06
4.980390442e-06
6.01783293e-06
6.433143174e-06
4.565080198e-06
4.01188862e-06
4.496139531e-06
3.389756375e-06
3.942947953e-06
3.043386799e-06
7.055275419e-06
2.974446132e-06
4.565080198e-06
2.421254554e-06
3.942947953e-06
6.571024508e-06
5.948892263e-06
5.049331109e-06
4.565080198e-06
2.974446132e-06
3.942947953e-06
2.559135888e-06
4.080829287e-06
4.565080198e-06
2.905505464e-06
5.464641352e-06
4.911449774e-06
5.811010928e-06
3.043386799e-06
3.942947953e-06
7.470585662e-06
4.080829287e-06
4.080829287e-06
1.937003643e-06
4.980390442e-06
3.52763771e-06
3.112327466e-06
4.911449774e-06
6.086773598e-06
3.458697042e-06
3.942947953e-06
4.149769955e-06
4.496139531e-06
4.01188862e-06
5.879951596e-06
6.01783293e-06
2.905505464e-06
5.395700685e-06
3.389756375e-06
5.879951596e-06
5.948892263e-06
5.464641352e-06
2.974446132e-06
6.433143174e-06
4.149769955e-06
5.464641352e-06
4.565080198e-06
2.974446132e-06
6.01783293e-06
5.118271776e-06
6.571024508e-06
6.086773598e-06
3.942947953e-06
2.421254554e-06
2.905505464e-06
2.074884977e-06
7.53952633e-06
3.942947953e-06
2.628076555e-06
5.049331109e-06
5.464641352e-06
2.974446132e-06
5.602522687e-06
2.974446132e-06
3.043386799e-06
4.427198864e-06
6.01783293e-06
3.942947953e-06
4.080829287e-06
6.571024508e-06
4.01188862e-06
4.496139531e-06
3.942947953e-06
4.01188862e-06
4.496139531e-06
2.490195221e-06
5.049331109e-06
7.124216086e-06
3.458697042e-06
7.470585662e-06
3.596578377e-06
2.974446132e-06
3.389756375e-06
4.496139531e-06
4.149769955e-06
4.911449774e-06
8.439087484e-06
5.187212443e-06
5.395700685e-06
4.427198864e-06
4.01188862e-06
6.086773598e-06
4.427198864e-06
2.974446132e-06
4.980390442e-06
6.917394084e-06
2.974446132e-06
7.124216086e-06
1.05512577e-05
1.684383073e-05
8.516145548e-06
1.509587707e-05
1.534412052e-05
1.717695118e-05
1.606938073e-05
1.159133872e-05
1.806325272e-05
1.368376452e-05
8.12141676e-06
7.898616995e-06
4.997119175e-06
1.275647812e-05
8.706856317e-06
1.566750548e-05
1.353572346e-05
1.210170446e-05
1.424533492e-05
1.494049813e-05
6.177544004e-06
8.527248496e-06
6.545355153e-06
8.64615223e-06
1.041908869e-05
1.128416168e-05
1.310113312e-05
1.37781187e-05
1.042741713e-05
1.405234402e-05
7.704633717e-06
6.01103884e-06
5.06726236e-06
8.716784446e-06
7.778752446e-06
1.401479767e-05
1.425887829e-05
1.115363151e-05
1.468620405e-05
1.20548881e-05
7.98304646e-06
6.500348593e-06
5.559959959e-06
9.071652694e-06
8.278368454e-06
9.343198452e-06
1.259440167e-05
9.477217275e-06
6.314996995e-06
1.116851565e-05
3.470962467e-06
5.452068205e-06
4.081867159e-06
5.598723923e-06
4.638800217e-06
7.402235202e-06
7.166381492e-06
9.039510048e-06
7.635835582e-06
7.914326123e-06
3.540147616e-06
7.198640969e-06
3.166615149e-06
7.087121972e-06
3.139952234e-06
6.181044939e-06
6.803932293e-06
7.217778784e-06
5.360075346e-06
7.396533163e-06
7.14948038e-06
5.591389955e-06
4.152010347e-06
6.165488825e-06
5.067288086e-06
7.330604163e-06
5.211596803e-06
8.821534503e-06
4.25878692e-06
6.878740208e-06
4.442898844e-06
6.011038836e-06
6.615498338e-06
6.236121052e-06
7.778752457e-06
7.330604163e-06
3.112529855e-06
5.176315851e-06
8.003521324e-06
4.73385249e-06
5.484020373e-06
5.661050828e-06
2.603774365e-06
4.535826344e-06
7.778752452e-06
4.671599226e-06
6.803932293e-06
5.686681584e-06
6.31499699e-06
8.579550872e-06
3.123364576e-06
4.47344869e-06
6.192943924e-06
7.865783537e-06
3.139952231e-06
5.677896364e-06
2.099066944e-06
3.062194397e-06
4.112420139e-06
4.881284291e-06
5.48402037e-06
6.080699713e-06
6.685641527e-06
2.055162942e-06
4.281440478e-06
2.515742855e-06
3.691402449e-06
5.176315884e-06
4.11242016e-06
5.990586125e-06
4.928867033e-06
8.107599633e-06
3.941580805e-06
3.684825428e-06
5.138416195e-06
3.593671033e-06
4.12599276e-06
5.686681536e-06
2.643445966e-06
6.434663154e-06
6.525141873e-06
4.40378779e-06
2.67391753e-06
4.110325872e-06
4.0680561e-06
2.659004935e-06
5.862610472e-06
5.248974363e-06
5.286891933e-06
8.06175786e-06
4.928867059e-06
3.564490058e-06
6.475211968e-06
3.543560996e-06
5.851416638e-06
4.096819628e-06
4.270275021e-06
6.852730128e-06
2.643445985e-06
3.180473627e-06
8.052231598e-06
2.58587054e-06
2.533631195e-06
4.1103259e-06
3.710696357e-06
7.258973155e-06
6.152918599e-06
6.852730032e-06
5.286891933e-06
6.360947254e-06
6.594327035e-06
8.527248461e-06
3.026328756e-06
5.243855673e-06
5.56690409e-06
4.671599213e-06
2.605798405e-06
5.10365736e-06
4.699656061e-06
4.80756839e-06
4.928867026e-06
3.984138943e-06
3.589169585e-06
4.251590316e-06
6.066520045e-06
9.343198426e-06
7.166381462e-06
5.904657134e-06
6.534547181e-06
6.878740208e-06
4.85968191e-06
1.467929276e-06
4.574564758e-06
4.677090805e-06
4.210312354e-06
4.168450643e-06
5.139455687e-06
4.738608631e-06
4.185603512e-06
1.035585916e-06
5.900803402e-06
7.478968128e-06
4.574564758e-06
6.165488808e-06
6.20877634e-06
3.736933144e-06
5.21159681e-06
4.593291592e-06
4.331970323e-06
4.289775436e-06
4.928867026e-06
6.500348567e-06
3.729455931e-06
3.543560996e-06
3.497311977e-06
5.821158439e-06
7.020355673e-06
3.645218672e-06
3.157498504e-06
1.553378863e-06
5.622390659e-06
6.430687694e-06
4.504421573e-06
5.173223487e-06
)
;

boundaryField
{
    flow
    {
        type            zeroGradient;
    }
    obstacle
    {
        type            calculated;
        value           nonuniform List<scalar> 10(2.225073859e-308 5.720555307e-24 2.328116446e-24 1.018765528e-23 1.750695303e-23 2.851016556e-24 2.225073859e-308 5.061906144e-24 2.237700911e-23 8.298626789e-24);
    }
    frontAndBack
    {
        type            empty;
    }
    procBoundary0to1
    {
        type            processor;
        value           nonuniform List<scalar> 
21
(
1.34852429e-05
1.288939847e-05
1.370801155e-05
1.020720112e-05
9.164024674e-06
8.046592021e-06
1.460267556e-05
7.003415561e-06
5.290138461e-06
9.984432474e-06
2.904965984e-06
8.64243648e-06
8.120848202e-06
7.97233577e-06
4.84280647e-06
4.917062651e-06
8.642436425e-06
1.564764679e-06
5.885982922e-06
4.768550219e-06
5.065575119e-06
)
;
    }
    procBoundary0to2
    {
        type            processor;
        value           nonuniform List<scalar> 
31
(
4.080829287e-06
4.980390442e-06
5.395700685e-06
4.080829287e-06
7.332704328e-06
4.980390442e-06
6.01783293e-06
3.874007286e-06
4.427198864e-06
5.879951596e-06
2.00594431e-06
6.433143174e-06
3.52763771e-06
4.565080198e-06
5.118271776e-06
2.00594431e-06
4.634020865e-06
3.112327466e-06
5.395700685e-06
3.458697042e-06
4.781056477e-06
5.749527396e-06
5.139455651e-06
4.373559937e-06
5.433258752e-06
4.73385249e-06
2.499026087e-06
7.548629001e-06
4.504421573e-06
4.781056477e-06
5.528091685e-06
)
;
    }
}


// ************************************************************************* //
