/*--------------------------------*- C++ -*----------------------------------*\
  =========                 |
  \\      /  F ield         | OpenFOAM: The Open Source CFD Toolbox
   \\    /   O peration     | Website:  https://openfoam.org
    \\  /    A nd           | Version:  7
     \\/     M anipulation  |
\*---------------------------------------------------------------------------*/
FoamFile
{
    version     2.0;
    format      ascii;
    class       volScalarField;
    location    "0.003";
    object      rhoNMean;
}
// * * * * * * * * * * * * * * * * * * * * * * * * * * * * * * * * * * * * * //

dimensions      [0 -3 0 0 0 0 0];

internalField   nonuniform List<scalar> 
654
(
8.892860093e+19
8.658198003e+19
8.727624657e+19
8.299956469e+19
8.093065041e+19
8.461026306e+19
8.458943507e+19
8.65680947e+19
8.258994744e+19
8.413121915e+19
8.338141129e+19
7.788976297e+19
8.178459825e+19
7.426569164e+19
7.657065655e+19
7.325900516e+19
7.245365597e+19
7.932689471e+19
7.381441839e+19
6.959327783e+19
9.226108032e+19
8.597796815e+19
8.407567783e+19
8.575580285e+19
7.925052539e+19
8.251357812e+19
8.183319691e+19
8.164574494e+19
8.054880381e+19
8.220115818e+19
8.267325942e+19
7.66400832e+19
7.670950985e+19
7.618186729e+19
7.75426297e+19
7.508492615e+19
7.655677122e+19
6.99404111e+19
6.812837544e+19
6.592755051e+19
8.786637313e+19
8.558917888e+19
8.286765405e+19
8.360357658e+19
8.340223929e+19
8.111115971e+19
8.088205175e+19
8.154160496e+19
7.878536681e+19
8.263160343e+19
7.832715089e+19
7.654288589e+19
7.886173612e+19
7.755651503e+19
7.464753823e+19
6.978767246e+19
6.713557429e+19
6.40044322e+19
6.267838311e+19
6.338653498e+19
8.992834475e+19
8.382574188e+19
7.984759461e+19
8.48046577e+19
7.742460439e+19
7.799390295e+19
7.53765181e+19
7.57583647e+19
7.885479346e+19
7.514046748e+19
7.536957544e+19
7.821606824e+19
7.886173612e+19
7.813969892e+19
7.221760535e+19
7.270359193e+19
6.839219672e+19
7.136365751e+19
6.67120717e+19
6.40044322e+19
8.515873363e+19
8.399236585e+19
8.086816642e+19
7.805638694e+19
8.20761902e+19
7.938243603e+19
7.999339058e+19
8.078485444e+19
7.740377639e+19
7.480721954e+19
7.272441992e+19
7.421709298e+19
7.793836163e+19
7.91672134e+19
7.42726343e+19
7.14261415e+19
7.056525099e+19
7.035002836e+19
6.446264811e+19
5.990825962e+19
8.594325482e+19
7.906307342e+19
7.868816949e+19
7.957683066e+19
8.237472481e+19
7.455728358e+19
7.79244763e+19
7.614715396e+19
7.634154859e+19
7.446008627e+19
7.652205789e+19
7.750791637e+19
7.311320918e+19
7.55570274e+19
7.035697103e+19
7.367556508e+19
6.805200612e+19
6.612888781e+19
6.238679116e+19
5.909596777e+19
8.476994437e+19
8.528370161e+19
8.197205022e+19
8.280517006e+19
7.779950832e+19
7.804250161e+19
8.067377179e+19
7.793836163e+19
7.751485904e+19
7.446008627e+19
7.784810698e+19
7.795918962e+19
7.296047055e+19
7.257168128e+19
7.197461206e+19
6.662875971e+19
6.72535996e+19
6.38239229e+19
6.405997352e+19
6.313659902e+19
8.850509835e+19
8.251357812e+19
8.081956776e+19
8.092370774e+19
7.883396546e+19
8.218033018e+19
7.60985553e+19
7.747320305e+19
7.965319998e+19
7.725798042e+19
7.524460746e+19
7.675116585e+19
7.530709145e+19
7.005843641e+19
7.0502767e+19
7.08637856e+19
6.868378867e+19
6.697589298e+19
6.75937902e+19
6.338653498e+19
8.27982274e+19
8.549892423e+19
8.164574494e+19
8.290236738e+19
8.158326096e+19
8.370771656e+19
7.818829758e+19
7.383524638e+19
7.446702893e+19
7.528626345e+19
7.44739716e+19
7.690390449e+19
7.452257026e+19
6.721888627e+19
7.119703354e+19
7.191907074e+19
6.736468224e+19
6.514302932e+19
6.130373536e+19
6.240067649e+19
8.137498099e+19
8.238861014e+19
7.497384351e+19
7.775090966e+19
7.773702433e+19
7.838269221e+19
7.840352021e+19
7.7723139e+19
7.73621204e+19
7.552231407e+19
7.761205636e+19
7.534874744e+19
7.101652424e+19
6.889206863e+19
6.921143124e+19
7.065550564e+19
6.63510531e+19
6.658016106e+19
6.325462434e+19
6.43654508e+19
8.222892884e+19
7.436288895e+19
7.562645405e+19
7.816052692e+19
7.964625731e+19
7.852154552e+19
7.562645405e+19
7.813969892e+19
7.298129854e+19
6.955856451e+19
7.382830372e+19
7.045416834e+19
6.981544313e+19
6.90795206e+19
6.894066729e+19
6.732302625e+19
6.52471693e+19
6.748965022e+19
6.636493843e+19
6.330322299e+19
7.839657754e+19
7.637626192e+19
7.812581359e+19
8.103479039e+19
7.48558182e+19
7.473779289e+19
8.272880074e+19
7.489747419e+19
7.237034399e+19
7.297435588e+19
7.430040497e+19
7.454339825e+19
7.141225616e+19
6.855187803e+19
6.555958924e+19
6.973907381e+19
6.013736758e+19
6.630245444e+19
6.713557429e+19
6.505971734e+19
7.961154399e+19
7.784810698e+19
7.816052692e+19
7.381441839e+19
6.964881916e+19
7.43142903e+19
7.660536987e+19
7.515435281e+19
7.806332961e+19
7.293269988e+19
7.832020822e+19
7.14261415e+19
6.910729126e+19
6.646907841e+19
6.694812232e+19
6.762850353e+19
6.648296374e+19
6.376143891e+19
6.404608819e+19
6.460150142e+19
7.820912558e+19
7.993090659e+19
7.35922531e+19
7.461976757e+19
7.162747879e+19
7.829243756e+19
7.563339672e+19
7.970179864e+19
7.614715396e+19
7.748708838e+19
7.612632596e+19
7.312015185e+19
7.037085636e+19
6.370589759e+19
6.599697716e+19
6.786455415e+19
6.593449318e+19
6.215074054e+19
6.392806288e+19
6.776735684e+19
7.784116431e+19
7.725103775e+19
7.857708684e+19
7.752874437e+19
7.440454495e+19
7.725103775e+19
7.330066115e+19
7.308543852e+19
7.132200151e+19
7.31895785e+19
7.724409509e+19
7.189130008e+19
6.853799269e+19
6.517774265e+19
6.59692065e+19
6.682315434e+19
6.836442606e+19
6.597614917e+19
6.886429797e+19
6.292831906e+19
8.323561532e+19
8.106950372e+19
7.427957697e+19
7.419626498e+19
7.716772577e+19
7.401575568e+19
7.595275933e+19
7.572365137e+19
7.44531436e+19
7.204403872e+19
6.980850046e+19
7.116232021e+19
6.762850353e+19
7.039168435e+19
6.40044322e+19
6.465010008e+19
7.041251235e+19
6.930862855e+19
6.951690851e+19
6.626774111e+19
8.071542778e+19
7.689696182e+19
7.879230947e+19
7.811887093e+19
7.419626498e+19
7.328677582e+19
7.221760535e+19
7.157193747e+19
7.121786153e+19
6.839913939e+19
6.896149528e+19
7.364779442e+19
6.70730903e+19
7.144002683e+19
6.490003603e+19
6.483755204e+19
6.90378646e+19
7.050970966e+19
6.698977831e+19
6.447653344e+19
8.040300784e+19
8.088899442e+19
7.707052845e+19
7.894504811e+19
7.613326863e+19
7.546677275e+19
7.047499634e+19
7.300212654e+19
7.132200151e+19
7.044722568e+19
7.101652424e+19
7.17663321e+19
6.72535996e+19
6.744105156e+19
6.862130468e+19
6.812143277e+19
7.127340286e+19
6.90378646e+19
6.61705438e+19
6.641353709e+19
7.919498406e+19
7.744543239e+19
7.585556201e+19
7.975039729e+19
7.829938023e+19
7.540428876e+19
7.568893804e+19
7.536263277e+19
7.007926441e+19
7.361308109e+19
7.045416834e+19
6.969047515e+19
6.780207016e+19
6.801729279e+19
6.673289969e+19
7.0481939e+19
6.873238733e+19
6.484449471e+19
6.480283872e+19
6.432379481e+19
7.831326556e+19
7.835492155e+19
7.39116157e+19
7.514046748e+19
7.711218445e+19
7.741071906e+19
7.330760382e+19
7.874371081e+19
7.162053613e+19
7.173856144e+19
6.822557275e+19
6.730219826e+19
6.850327937e+19
6.414328551e+19
6.536519461e+19
6.485838004e+19
6.898232328e+19
7.027365904e+19
6.397666154e+19
6.784372616e+19
7.838269221e+19
7.955600266e+19
7.904224542e+19
7.999339058e+19
7.744543239e+19
7.641791791e+19
7.71607831e+19
7.62998926e+19
7.362002376e+19
6.735773958e+19
6.896149528e+19
6.964881916e+19
7.318263584e+19
6.523328397e+19
6.896843795e+19
6.524022664e+19
7.039862702e+19
6.855882069e+19
6.301857371e+19
6.534436662e+19
8.170822893e+19
7.975733996e+19
8.020167054e+19
7.656371388e+19
7.991702126e+19
7.570976604e+19
7.31895785e+19
7.461976757e+19
7.389078771e+19
6.862130468e+19
7.072493229e+19
6.99612391e+19
7.023200305e+19
6.973907381e+19
7.003066575e+19
6.760767553e+19
6.703143431e+19
6.422659749e+19
6.658710372e+19
6.631633977e+19
6.043423751e+19
5.708263079e+19
5.889767137e+19
5.757272991e+19
5.637960581e+19
5.589096953e+19
5.598383647e+19
5.552193807e+19
5.766232109e+19
5.836398864e+19
6.228753557e+19
5.576377439e+19
6.103092839e+19
5.821290114e+19
5.670910169e+19
5.931742937e+19
5.473426217e+19
5.522925525e+19
5.715379602e+19
5.747316205e+19
6.07338308e+19
6.01482704e+19
5.898950031e+19
5.816311005e+19
5.868607685e+19
5.928857493e+19
5.666674338e+19
5.83170594e+19
5.853934259e+19
5.909892058e+19
6.140965753e+19
5.937659914e+19
5.859392951e+19
5.660536009e+19
5.859295838e+19
5.793241821e+19
5.805435214e+19
6.062925398e+19
6.204742859e+19
5.982642896e+19
5.929160263e+19
5.830327447e+19
6.080488792e+19
5.962127782e+19
5.557019214e+19
5.786028226e+19
5.917315707e+19
6.158047327e+19
6.063977227e+19
6.227620212e+19
6.294246042e+19
6.516413386e+19
6.18856439e+19
6.028990099e+19
5.827778843e+19
5.877640932e+19
5.982700403e+19
6.115608304e+19
5.736752391e+19
5.819324692e+19
6.533920675e+19
6.073053147e+19
5.790874432e+19
5.72668704e+19
5.961726079e+19
5.989451734e+19
5.774195855e+19
5.798047412e+19
5.580509909e+19
5.644128792e+19
6.353467971e+19
6.249836032e+19
6.235185242e+19
5.789992851e+19
5.751135242e+19
5.689365987e+19
5.91005074e+19
6.017559555e+19
5.629888431e+19
5.526094269e+19
6.563880004e+19
6.577445571e+19
6.234478861e+19
5.905223671e+19
5.958144602e+19
5.672774708e+19
5.950734552e+19
5.762193762e+19
5.724960509e+19
6.004171205e+19
6.554822537e+19
6.538862011e+19
6.05859112e+19
6.058153458e+19
5.93020908e+19
5.926693417e+19
5.963085e+19
5.517071868e+19
5.512706567e+19
5.83714122e+19
6.586175319e+19
6.215461579e+19
5.872814101e+19
6.226020573e+19
6.246811618e+19
5.960597331e+19
6.111290325e+19
5.693413286e+19
5.881939988e+19
5.750285627e+19
6.542281418e+19
6.301748465e+19
6.168785852e+19
5.794971961e+19
5.871472863e+19
6.05293141e+19
5.934751649e+19
5.62829139e+19
5.971853146e+19
5.549107313e+19
6.370886186e+19
6.357168508e+19
6.194921803e+19
5.944345245e+19
6.059142215e+19
5.982238122e+19
5.930392636e+19
6.283900903e+19
5.949006312e+19
5.771071581e+19
6.539494482e+19
6.292628671e+19
6.091084393e+19
5.912336664e+19
6.138651027e+19
5.786749569e+19
6.191204933e+19
6.335852154e+19
6.008702733e+19
5.895787262e+19
6.235024145e+19
6.242119331e+19
6.201985543e+19
6.349075725e+19
6.211713194e+19
6.089720793e+19
6.296546999e+19
6.529754593e+19
6.128095619e+19
5.855700107e+19
6.147236302e+19
6.280001377e+19
6.423081426e+19
6.429452776e+19
6.341362607e+19
6.251305425e+19
6.335051325e+19
6.40463258e+19
5.89667982e+19
5.755482116e+19
6.434985207e+19
6.594282009e+19
6.545284471e+19
6.135685282e+19
6.043383747e+19
5.965646839e+19
6.36919667e+19
6.615364329e+19
6.313817819e+19
5.873516639e+19
6.363918892e+19
6.484845032e+19
6.372928696e+19
6.612968476e+19
6.131488031e+19
6.26861802e+19
6.104751825e+19
6.250974125e+19
6.38088417e+19
6.217227231e+19
6.660028585e+19
6.446261467e+19
6.348205475e+19
6.69761338e+19
6.485337969e+19
6.313342338e+19
6.457102772e+19
6.188047311e+19
6.411837824e+19
6.043516089e+19
6.776382214e+19
6.557803047e+19
6.363745758e+19
6.521921905e+19
6.699510275e+19
6.744715638e+19
6.087315946e+19
6.218047304e+19
6.446476534e+19
6.534213025e+19
6.480272565e+19
5.972034335e+19
6.25284465e+19
6.427318872e+19
6.478175016e+19
6.397020092e+19
6.391718068e+19
6.791705752e+19
6.568080356e+19
6.40504317e+19
6.737365413e+19
6.454679656e+19
6.620866799e+19
6.669872628e+19
)
;

boundaryField
{
    flow
    {
        type            calculated;
        value           nonuniform List<scalar> 
42
(
8.892860093e+19
9.226108032e+19
8.786637313e+19
8.992834475e+19
8.515873363e+19
8.594325482e+19
8.476994437e+19
8.850509835e+19
8.27982274e+19
8.137498099e+19
8.222892884e+19
7.839657754e+19
7.961154399e+19
7.820912558e+19
7.784116431e+19
8.323561532e+19
8.071542778e+19
8.040300784e+19
7.919498406e+19
7.831326556e+19
7.838269221e+19
8.170822893e+19
8.892860093e+19
8.658198003e+19
8.727624657e+19
8.299956469e+19
8.093065041e+19
8.461026306e+19
8.458943507e+19
8.65680947e+19
8.258994744e+19
8.413121915e+19
8.338141129e+19
7.788976297e+19
8.178459825e+19
7.426569164e+19
7.657065655e+19
7.325900516e+19
7.245365597e+19
7.932689471e+19
7.381441839e+19
6.959327783e+19
)
;
    }
    obstacle
    {
        type            calculated;
        value           nonuniform List<scalar> 10(25.40297139 24.28082132 26.31330859 23.86304907 25.29940832 23.33713315 23.08438399 21.64091045 22.28415697 22.44078029);
    }
    frontAndBack
    {
        type            empty;
    }
    procBoundary0to1
    {
        type            processor;
        value           nonuniform List<scalar> 
21
(
5.820102004e+19
5.695219953e+19
6.143150195e+19
6.186522406e+19
6.30018751e+19
5.957696613e+19
5.879177947e+19
5.615953495e+19
5.918811178e+19
5.844779297e+19
5.975643726e+19
5.971904764e+19
5.806641647e+19
6.273266809e+19
6.072109531e+19
6.034719651e+19
5.998825407e+19
5.965922394e+19
6.214938708e+19
6.671094672e+19
6.383192975e+19
)
;
    }
    procBoundary0to2
    {
        type            processor;
        value           nonuniform List<scalar> 
31
(
7.813275626e+19
7.895893344e+19
8.018084255e+19
7.691778982e+19
7.921581206e+19
7.494607285e+19
7.476556355e+19
7.425180631e+19
7.659842721e+19
7.232174533e+19
7.288410123e+19
7.178021743e+19
7.298129854e+19
7.074576029e+19
7.186352942e+19
6.746882223e+19
6.438627879e+19
6.746882223e+19
6.953079385e+19
6.636493843e+19
6.611405948e+19
6.139494588e+19
6.367017136e+19
6.567071611e+19
6.226852662e+19
6.502291739e+19
6.761054185e+19
6.954863009e+19
6.307235639e+19
6.611405948e+19
6.885396885e+19
)
;
    }
}


// ************************************************************************* //
