/*--------------------------------*- C++ -*----------------------------------*\
  =========                 |
  \\      /  F ield         | OpenFOAM: The Open Source CFD Toolbox
   \\    /   O peration     | Website:  https://openfoam.org
    \\  /    A nd           | Version:  7
     \\/     M anipulation  |
\*---------------------------------------------------------------------------*/
FoamFile
{
    version     2.0;
    format      ascii;
    class       volVectorField;
    location    "0.003";
    object      UMean;
}
// * * * * * * * * * * * * * * * * * * * * * * * * * * * * * * * * * * * * * //

dimensions      [0 1 -1 0 0 0 0];

internalField   nonuniform List<vector> 
654
(
(13.87500759 20.35910126 -14.35981148)
(27.25753925 29.28888263 -5.882425931)
(28.39952316 22.82692315 4.728357258)
(31.29811253 24.41579313 12.32254326)
(40.40835266 21.51911207 13.78302277)
(37.21662571 43.65465629 2.459430826)
(27.91353838 36.3081344 -0.2976703777)
(11.88958919 34.13981509 3.905390194)
(9.669395007 44.81426742 5.803437897)
(0.6930704901 29.08752287 -1.6464775)
(8.340498958 36.0527618 -14.72512617)
(16.9675811 32.01601418 -11.28880189)
(25.12415055 40.71211772 -4.537894494)
(19.05889502 32.19596159 16.58048256)
(20.51567294 36.81072163 10.86188416)
(30.71164933 32.42536661 0.8820142821)
(50.22918861 42.4661562 20.54482826)
(42.40296103 45.75200922 -5.44749439)
(51.14451317 44.35411744 -0.487888171)
(53.75752206 52.11136904 -0.1849678429)
(22.94859688 24.80037477 -15.67679798)
(26.83950374 29.90148191 17.68016821)
(25.77286407 33.26660111 1.733705535)
(29.49468748 28.02139803 -5.982476887)
(21.63083475 36.07918732 -4.697474977)
(32.54061035 40.79106613 3.907524826)
(34.95533968 52.45278535 -3.990092243)
(47.13590592 52.95189851 -2.700819452)
(43.35338801 52.81117169 7.484944224)
(46.58191548 40.15797499 7.076948468)
(31.07066888 30.43729153 -15.74345872)
(37.49806294 48.32496393 12.88858639)
(41.7123726 36.46944068 14.18470415)
(52.89095599 45.68444123 5.217628599)
(47.71633415 37.21536649 4.153918382)
(47.59463507 36.92405665 -3.532276987)
(41.55629389 40.70222464 5.241145045)
(65.54144435 52.02797027 -19.71822417)
(81.18506037 43.53427973 -4.819932776)
(95.94707884 66.26526279 3.751919804)
(16.8293819 28.97598228 -21.99533703)
(23.49133692 28.93931406 -0.6213505347)
(32.8093593 32.65435657 6.440649694)
(29.20655062 34.39417933 16.34917265)
(31.67045014 22.27640731 4.847913588)
(36.26419984 46.50115396 -2.919969349)
(47.6811919 39.33888975 -6.551946709)
(46.59735401 48.92285124 0.8705652258)
(54.45113028 48.3994153 4.941383138)
(58.59585616 47.10081821 11.63777038)
(64.16924147 39.89184503 -3.080127257)
(58.42420139 45.66357036 21.91035407)
(50.63856984 30.1231751 8.534586829)
(57.99859004 42.69950158 -6.375552579)
(65.54307194 37.91577626 -12.14035287)
(81.35698231 35.48751044 15.40376326)
(92.24303766 38.97879325 -20.8464959)
(95.47492348 55.52536811 -17.40084356)
(104.5898378 39.424791 -18.39665191)
(108.0438918 53.17045596 -10.16527265)
(21.02146428 29.49818391 -14.96590478)
(41.79710667 22.90379115 -14.33150917)
(33.73942091 35.63350174 -1.945722558)
(27.59373526 35.50758099 23.793905)
(26.49749034 21.6140087 -11.60938928)
(28.13742455 43.15026012 -11.88335837)
(31.39944776 45.97761258 -12.15552825)
(47.53793176 34.12402449 0.0179667855)
(62.84567524 39.12597806 -6.599373597)
(60.92509331 54.42666702 9.426253536)
(56.11432919 38.78137835 -5.998874391)
(61.06108365 46.63549325 3.021074886)
(52.745143 42.03303127 9.439971109)
(51.04549552 36.66913354 -11.11317533)
(65.50915397 27.08432694 -7.879045339)
(72.70874837 31.31181058 2.608215313)
(89.80147753 33.04042154 -3.134183455)
(102.9463561 38.79737057 -11.62971504)
(108.6002141 31.70830634 -15.23160694)
(110.5394735 52.9546516 -17.05589842)
(41.55876891 24.87526443 -1.726126812)
(40.27759734 28.16923143 -12.6972993)
(40.63336524 42.52950149 -18.15681997)
(39.29886277 38.76359441 0.4148511862)
(40.53108374 27.97449095 11.13949624)
(39.00860738 29.91445992 2.60753428)
(38.83454444 42.36081247 11.29575521)
(39.20480423 19.16205989 -13.12267162)
(41.2922349 45.38222418 1.204302827)
(56.5517884 47.51089248 4.219778494)
(64.36964071 38.34966216 18.13637698)
(66.44788357 40.9841818 13.17662504)
(73.87047917 52.8497974 -7.729030715)
(65.0629373 31.87458412 -10.50566318)
(87.14792884 19.11141057 16.96453741)
(84.14639625 34.25590339 22.79059579)
(77.29524695 16.48585874 3.141464597)
(85.64059879 41.51700375 -13.17074009)
(108.8119006 21.93382571 -10.08289733)
(134.0566419 44.54525679 0.5881634557)
(33.97918471 21.04306979 3.122163383)
(47.5794407 33.69625293 3.289207132)
(51.40217503 33.18755332 8.823137205)
(50.78308195 47.94299358 -4.054789651)
(43.22072539 27.59480344 5.540464882)
(37.76806528 35.17326721 -4.81530522)
(46.9497374 36.95451671 -11.80116285)
(45.64995169 34.22585919 8.076312649)
(43.73653763 25.82001334 2.085540901)
(57.49532835 31.53877226 8.52593554)
(68.35424708 40.67728697 20.95151044)
(57.98195511 33.75003462 9.555126831)
(79.04541506 47.55050744 9.410830551)
(88.7746833 23.78452845 4.167469776)
(89.83403042 24.75868958 9.734052549)
(87.112089 28.46493821 3.071835245)
(90.90785675 33.30418374 4.297215272)
(97.98027294 35.41635774 -3.978712651)
(97.94040805 27.9741136 0.1977823921)
(98.77425787 28.75129761 26.93592041)
(27.43956167 20.99578036 -9.758984157)
(37.65757907 21.96695434 -0.6411941628)
(40.71385141 39.54718951 4.341242931)
(41.10487221 45.63570039 -1.834734759)
(48.37931427 26.78152542 -3.41897817)
(55.27159492 33.21901612 -0.4764610062)
(48.67695439 33.92662065 -5.529820706)
(48.32412093 38.1399501 10.70167998)
(60.01605471 16.46510122 1.666426748)
(61.00917218 28.46357941 -1.906807416)
(66.8787055 37.25080997 -2.321120879)
(75.04595 34.55343272 10.44478313)
(67.21874743 34.7864471 6.561598823)
(77.43957246 24.15435453 -14.61150044)
(72.40382792 25.53161186 14.83855325)
(82.90388416 27.61907236 20.95167949)
(101.1988243 32.93160884 0.1495138252)
(100.3540935 25.38600373 -20.58967774)
(103.308881 37.13486198 1.027175809)
(109.4468487 14.56869204 4.222779264)
(28.86551739 15.45139593 5.583377767)
(46.79144344 27.39489545 6.820726583)
(40.900101 31.71822083 6.068589072)
(53.51469417 36.08039506 9.238834918)
(65.00564904 32.40311347 -2.9649307)
(49.64089444 33.90336236 -11.56703803)
(53.84165004 34.12226678 -17.18780529)
(73.67329834 29.18289142 -16.92515691)
(68.52035823 21.02748741 -12.32600867)
(66.86278798 29.84001826 -16.70264996)
(61.69859748 30.73187573 -9.677729057)
(65.05676819 25.2451985 10.26255218)
(84.60017559 26.5418245 10.66722916)
(89.76635513 36.88552825 8.639891679)
(83.78167503 25.14680058 18.80961438)
(87.79640323 21.6399429 11.53761031)
(91.16267524 18.1042439 -0.5881108103)
(98.09379164 28.60849492 18.43713761)
(103.7128841 42.43967508 -1.495691393)
(104.7023958 16.11708446 3.063096374)
(36.39759089 8.362679913 3.150831018)
(39.76180609 20.088899 9.805935145)
(56.82615709 32.92468612 2.850392286)
(57.04283529 16.20531318 0.549608256)
(62.28408404 36.03590583 -1.235995418)
(61.08383242 37.9784136 6.903806102)
(77.11130978 32.83419455 -12.92351762)
(75.38302257 21.57637523 -8.696760731)
(82.02886673 19.3230344 -19.31605661)
(82.31508537 39.10046794 -22.98998021)
(87.62785721 27.14702268 -0.1828443942)
(79.76300401 24.79292232 0.8843504515)
(78.93039119 22.19094669 5.165008743)
(95.10466148 32.81486169 3.584859599)
(98.08121305 24.51849032 17.02668201)
(87.45754587 21.46216725 14.73789742)
(89.4253719 27.12136451 18.04704179)
(94.5609539 23.67054888 9.826980715)
(117.211984 26.36741584 0.8878781351)
(119.4066368 18.40158099 4.038023303)
(34.64634264 1.919818794 -5.254753768)
(42.43397225 16.02034082 -11.37854674)
(50.23765357 30.32718788 -24.55886375)
(51.33819616 16.5588537 -8.002055534)
(54.52298568 35.00895887 16.65219605)
(72.7108818 37.90302975 7.975600937)
(66.37249539 13.12512888 0.2835547284)
(73.74125931 28.90416082 -5.543383421)
(74.61295503 17.90753188 0.558651777)
(69.87111199 43.54201391 9.934369492)
(68.37244281 26.60732896 8.416463788)
(72.43006719 26.3641938 3.345234848)
(82.22874997 19.34911654 13.33677882)
(79.70946549 23.84599219 -9.447367095)
(88.52538684 20.47648104 4.129696531)
(97.11242735 24.00563437 22.51687343)
(110.3163551 20.64202826 17.97035609)
(110.4544642 22.8455614 -0.4347384634)
(115.9506531 23.7433093 -0.7003914322)
(110.9713311 12.51306714 18.50026014)
(34.50273804 8.352373551 12.41617299)
(47.32967356 13.03715502 0.6673097049)
(54.34986474 15.88172431 -6.286610366)
(55.25795844 23.25693453 -12.43481317)
(49.81358163 20.67703118 3.250114236)
(60.45636174 36.16820913 18.329536)
(61.34933951 23.25711393 15.17151595)
(62.926637 20.18972308 9.645272724)
(61.24147072 33.88865855 5.963439459)
(64.64696183 32.21046019 -5.548757236)
(74.12100181 13.26436825 6.515745122)
(88.89967827 23.57339743 -6.353717532)
(87.34683943 27.77984496 16.58221532)
(88.10989262 30.56934101 16.90397506)
(99.6476307 8.11570477 4.405058008)
(100.9144146 27.04895857 -4.255861495)
(101.0663061 14.29619668 -4.876340224)
(109.2137066 15.04175968 -5.661044288)
(112.1032695 19.73705122 -0.24179544)
(118.7507543 19.34926286 -2.004382737)
(46.30924712 4.887345221 13.90478301)
(54.7760605 14.77263413 14.10987152)
(50.82570847 14.72562693 4.683634089)
(45.16582979 24.68065741 -4.644372362)
(55.27701918 19.84073443 -5.227296016)
(47.52604888 23.87651933 6.869388916)
(60.17228493 21.25588393 -1.186645362)
(66.0979832 20.50375742 0.6247429589)
(77.3212671 27.99926416 23.29030261)
(94.47558473 27.22195313 -9.255936227)
(79.20771732 16.46796372 -5.597885346)
(73.86943498 19.16072063 -20.92628802)
(80.48298098 22.68486716 -9.298209678)
(95.59826092 23.14804445 5.136467787)
(94.27187581 5.551195007 7.077478954)
(105.1545762 22.9065214 -23.3674939)
(118.8627157 14.37834654 -9.389804372)
(105.0292883 10.38008398 -21.52202201)
(110.0211611 25.02789315 -2.907958168)
(110.6250086 20.00402279 5.141888647)
(51.43421912 8.855756699 4.777776143)
(51.77140011 16.98109673 -1.603285951)
(47.64670717 19.00659077 -1.308502334)
(57.10818552 14.1131738 4.863363912)
(71.67960934 23.63519016 -7.805232539)
(79.53749991 26.90683505 -16.64156862)
(77.09970791 11.28904902 -2.775380212)
(82.02851819 15.98002586 -14.97790373)
(84.04324348 16.36176488 3.866349715)
(91.20909154 23.80031421 -5.989085907)
(79.16629059 28.39650433 -8.266554132)
(84.21873825 25.723448 2.658618846)
(91.32083965 4.537083215 0.4701467146)
(113.5630611 11.66191379 -0.4863830616)
(110.8546793 17.08215313 -3.681156812)
(101.0743158 30.00631189 -8.816799285)
(100.4810251 15.71827897 -9.996084015)
(104.2115419 5.767653624 -8.725453838)
(111.4818133 15.61539368 4.512263196)
(122.7855097 10.69746326 -28.97325584)
(33.27294117 2.966798303 -6.182428125)
(55.99771227 14.92696118 3.00418638)
(63.07572433 15.74547849 15.66251676)
(76.8272929 11.17378619 -19.60957563)
(74.52434287 12.9100004 -17.88698022)
(79.48392825 16.50520094 3.555535943)
(78.10657284 17.14044748 -9.797414896)
(85.72333542 5.044870454 -2.500858628)
(82.56251054 20.65546324 -13.07099315)
(76.66286356 29.33557278 -11.83866576)
(83.49927192 22.37224266 -18.4066572)
(93.29698111 23.94630562 7.256948564)
(97.57386786 7.640350702 -3.229330891)
(100.5783443 -5.951337362 12.02621336)
(109.7514526 23.12890062 -17.16640418)
(107.2895906 26.00098076 6.045381902)
(107.6667105 23.40552197 -19.69359132)
(108.9352369 2.385308561 -9.153647287)
(110.805643 12.3064776 -26.1444942)
(107.6821815 3.926079326 -20.63627149)
(32.39004212 0.3052284247 -8.161037168)
(50.87280315 2.661906659 8.849244742)
(56.304678 13.42157272 -4.30294452)
(47.29785757 8.464981421 12.73381117)
(61.21509619 12.29772133 -6.149310122)
(58.20983097 3.845123336 -6.887007992)
(76.38290001 17.56720937 -6.111987644)
(72.47397692 14.00145387 -10.0640001)
(60.6934835 28.41644842 -9.898458041)
(60.72657635 18.85629715 -20.23325854)
(86.86193337 12.23366052 -9.904999769)
(88.91052542 18.54664716 -18.84044167)
(94.84606769 17.10319037 -3.892497195)
(90.50640482 11.35430122 8.323708175)
(87.42879439 15.83699377 2.167453301)
(103.7162634 11.86507106 1.144431058)
(99.02925212 31.5887607 -18.08944282)
(105.4838634 0.7158964415 -48.38804137)
(103.7250246 2.944699726 -20.18051492)
(123.5615833 6.77390363 -17.92900313)
(44.72156548 2.140001726 16.93371991)
(49.91562341 -0.1844644188 11.43496061)
(58.12357878 9.279243371 -0.5661165319)
(65.91052321 12.65840462 3.198040168)
(56.31148787 1.049069403 -16.10413842)
(65.47347096 11.33828109 -10.49113443)
(55.06687848 7.842453407 0.6016616726)
(48.05139398 16.37810888 -4.193180698)
(68.06956848 21.86796906 6.133668778)
(88.35211595 2.348868512 -11.48683073)
(79.15036939 13.58291343 -21.35164605)
(87.98356357 13.09866289 -12.0590399)
(98.58331434 15.29569355 3.475735547)
(98.13090821 17.49460921 -0.3768767089)
(117.5473566 1.395576697 9.866313306)
(110.0085707 18.93159221 -11.46934806)
(111.6522979 16.55161015 -28.05592371)
(115.8544113 12.42365231 -27.44360016)
(113.8853709 1.345865075 -2.109473512)
(106.2461297 8.968588473 -16.5359823)
(35.42725486 7.396405573 10.99732901)
(41.43250325 1.369757742 12.56509557)
(47.21284445 -4.441499621 8.421124366)
(56.86694164 12.83584181 16.96841007)
(69.71948093 0.3861079022 -2.17410355)
(74.05934542 14.82973974 -1.427044409)
(69.91361428 14.28243283 -1.016987033)
(74.59496073 12.78424021 14.39135188)
(78.86745743 -2.850029784 5.014787403)
(86.62639668 16.18121929 10.33084377)
(78.33828831 13.46148511 -4.271502747)
(76.97753586 10.56473701 7.052753712)
(88.69700109 3.70360815 1.162993431)
(94.4096383 12.51081034 -6.425580189)
(100.2684867 8.844155639 -6.275363948)
(104.088803 10.66737673 -11.35570073)
(108.2864721 10.92694391 -18.99150617)
(115.3017154 6.464575408 -15.56780133)
(126.7780148 7.14978778 -27.47167427)
(124.1051884 12.32068996 -19.13050994)
(52.77106446 -3.775550568 8.866691948)
(68.67858049 -3.876914999 17.30837043)
(53.35556072 11.27434759 3.794638651)
(40.03807932 -0.9949277778 3.316823224)
(56.95138893 -7.640447095 7.856849436)
(59.48582476 10.66615749 10.23470311)
(76.33902542 20.11510368 1.464813657)
(66.62088099 10.68458122 -5.942041758)
(64.79229682 -5.364845579 6.799576764)
(74.38713207 11.26466922 -5.69975491)
(81.66454775 3.958433608 -8.395052746)
(85.80190109 7.126169396 18.49105026)
(95.94832547 9.459900826 11.28709592)
(87.41983833 5.882420023 -6.966324376)
(99.14555331 8.078488045 -16.34842997)
(113.1203938 -1.435639174 -6.182198745)
(106.9090616 2.331715845 1.041158917)
(125.7415997 0.7557358296 -2.491248836)
(126.2675056 14.55879832 -11.41564467)
(120.557892 17.22549786 -8.301481819)
(37.26807352 -9.904053006 -3.019357647)
(43.53658412 10.76540307 -3.369089029)
(48.14475737 9.850353021 -0.1358540349)
(52.61451056 1.221197928 -14.12586741)
(46.48223775 -15.86906 0.4160753639)
(50.35353009 5.47913854 -3.367288388)
(53.99105918 13.19079507 -6.095819785)
(55.64202416 12.22056875 -18.57606168)
(68.27277769 -8.80078576 -4.974910812)
(71.28674602 6.795137785 -23.26416975)
(73.55231523 -0.2885266614 -1.436737476)
(78.75430946 2.12521634 -7.010123586)
(91.13405134 2.0694509 -5.128375225)
(94.82192311 -2.660860307 -8.407768986)
(108.4925755 -1.998309002 -20.47036353)
(99.72402056 3.612428142 -0.3127806452)
(113.6165585 -8.956047897 9.319465642)
(123.5596038 -6.903793375 -21.33188294)
(123.2672645 21.97578009 -20.55756582)
(139.6560954 17.27942518 9.211157653)
(36.5306247 1.305778411 4.434862547)
(41.04429592 -0.6494086255 1.065345196)
(46.99235825 4.230346025 -15.54714101)
(61.44991932 -3.036194541 -24.84881985)
(51.80339194 -2.430283757 -19.36959195)
(49.30618007 3.03194806 -19.39898751)
(63.68494515 2.546876426 -11.47039264)
(73.83767948 9.635926357 -4.102518992)
(76.99162255 -11.68093483 -2.17264075)
(74.16267603 -0.1649334911 -20.99441446)
(84.50978325 0.7229472344 -5.691051601)
(91.11020405 -3.604678574 -7.286271585)
(81.54782821 3.408154612 2.633640748)
(99.7336261 -1.357157656 -22.52608614)
(93.24568783 -5.947860332 3.757783449)
(106.5457353 -13.32027112 2.200337417)
(110.4102682 -12.21287455 -11.82324979)
(103.8678845 -7.992902344 -11.95958952)
(122.4638781 16.75138243 3.845857466)
(118.6515124 11.45098564 -9.49891372)
(34.79393717 4.010592188 -1.63170164)
(40.93366591 3.694994946 10.40732351)
(51.0656787 -5.739263393 -5.742799194)
(55.67453877 -9.318772761 -8.623435216)
(61.89434565 7.16910208 -4.37471756)
(60.55918559 -6.349797228 6.806465298)
(71.31778717 -10.21457634 -7.185955813)
(77.39775853 7.035164366 -14.53544707)
(82.22477587 -8.331126199 -15.59070373)
(96.21192097 1.448405342 -7.236877347)
(80.97306456 -3.194122576 -22.75599914)
(77.69462917 -3.098080773 -7.28081005)
(85.99341758 1.392613164 -19.08223207)
(92.06126534 -7.987252432 -8.553503107)
(97.62210497 -12.64774031 -22.86784561)
(109.3636402 -21.08569675 3.879697786)
(101.0163857 -5.808396018 -13.07951765)
(99.74561678 -3.849029702 23.91930055)
(110.6055084 -0.002140320351 6.158560063)
(119.6996938 6.347925251 19.18000246)
(39.5074437 0.3289690583 0.1332680678)
(53.34570372 -4.617595157 2.225775705)
(59.98174456 -12.5395939 -20.26028127)
(66.94309324 -10.95896617 -24.71495956)
(66.11837381 -7.963414374 -18.63106342)
(76.82233053 6.261208786 -10.356088)
(71.22453994 -15.49506232 -37.51041659)
(81.09063661 -5.07989085 -26.72182233)
(83.1031002 -4.396990816 -9.343653168)
(78.79092204 8.195582339 -2.106898655)
(81.66538679 7.93461504 -12.68831372)
(79.88405394 -5.948111445 -7.201052511)
(82.97621717 -6.382706666 8.286997177)
(90.85103557 -10.73175375 8.279037404)
(87.45852466 -13.78344375 -6.811460469)
(90.79669366 -21.48266196 3.031542104)
(92.871841 -12.90779295 10.8901303)
(106.1290771 -5.555209489 2.049953789)
(106.096545 -6.101942358 25.3074984)
(114.9556976 -9.478663835 25.12349155)
(56.3766533 21.51999013 2.580827361)
(71.19029602 7.900493166 9.323559783)
(94.78854218 11.04150958 11.70535355)
(111.3792725 36.72910933 -1.745774406)
(105.9244033 29.8876971 31.71653104)
(105.9755004 28.08121867 6.873967623)
(99.47109743 34.24967273 -0.4261520381)
(111.8838692 22.51111188 1.642792544)
(114.5379473 32.3991874 17.38747508)
(115.9911471 26.4176739 9.896478897)
(115.412613 40.28946811 4.928377362)
(121.6970013 18.67888306 23.24094671)
(101.3454307 2.962958781 20.71145431)
(108.9390967 27.92730799 35.23286386)
(134.8514946 33.45839411 25.42944581)
(126.8750919 44.38015016 1.870145313)
(143.4882921 29.7282179 -11.5560713)
(142.4704984 34.92371819 22.07491619)
(140.0207934 24.86982903 4.260094647)
(148.718167 36.22754206 19.1697964)
(112.1836058 37.03044724 1.844950073)
(119.5515254 21.36202297 0.8660620639)
(128.6025313 25.61843499 14.99978828)
(135.9622827 11.09302303 21.0956737)
(136.1870878 35.17605133 21.59163493)
(136.6743796 41.84183335 4.682835914)
(152.4511694 36.857902 7.297045214)
(148.0799784 38.97188134 -7.819128049)
(160.5489665 24.37866564 -11.70256707)
(162.6818125 41.09286511 -12.6163644)
(129.9074923 41.02485234 -6.528282159)
(128.6753971 11.88251649 26.59383408)
(130.6052288 33.26712747 16.69914601)
(130.6392895 17.21680335 16.24667189)
(129.3419298 23.85381142 26.06770362)
(146.720326 34.09818216 30.70219191)
(147.6142057 41.59238107 0.3466603253)
(155.347823 26.09981681 -7.564136282)
(149.2784061 30.43958341 -5.461956719)
(168.2464604 26.23646415 -11.67505894)
(138.3674937 41.96744705 14.07321325)
(128.077051 21.84749743 7.348920297)
(118.9682325 29.16351259 21.70522798)
(129.3947765 6.151566779 5.134135316)
(147.5183929 26.80686546 13.94083053)
(150.5511601 35.40067499 4.758976918)
(148.0603404 32.7344159 3.303607687)
(153.9104244 17.30816521 -2.471144119)
(164.3293821 32.16142207 -18.33703993)
(157.4488217 20.8949235 -16.52747516)
(111.2977225 23.90133117 21.00865039)
(128.1529525 27.67311872 -8.232310424)
(140.4945612 32.5852247 35.4097003)
(146.5759799 8.702083781 24.5499835)
(150.6803021 25.89485104 6.775339267)
(135.4083104 39.01921885 1.314819518)
(137.2206974 21.10213412 8.949586991)
(138.0622648 17.14397184 -15.35095538)
(160.1232263 11.27186415 -2.644114575)
(166.6733168 20.71351896 14.78967265)
(110.3455906 22.34070487 18.64441561)
(119.5886113 14.7202094 11.72038193)
(135.6489496 20.79734799 -2.855831496)
(155.7652016 15.53803855 23.88051547)
(130.8681872 18.21947122 10.87611679)
(141.9811095 36.28339824 15.23248819)
(155.8635688 26.94584035 -15.39892322)
(141.5047332 15.26164634 -1.666908872)
(167.1419124 6.490775099 -1.91015555)
(177.897475 21.1402496 -12.2463674)
(102.5365711 19.33168526 4.616466215)
(106.2198962 2.678291649 12.16676286)
(122.1308768 -0.4537982399 -4.302987602)
(107.8257443 16.07589625 -5.6206837)
(120.7450332 19.82762818 25.70108053)
(140.5106974 22.98670617 21.01955394)
(153.8991608 24.24757024 10.46198193)
(155.1664039 19.19720134 16.80707441)
(163.5127904 -5.584642902 -5.407963524)
(151.3561986 18.3351276 -6.441975362)
(111.0952007 27.78421877 18.04661165)
(111.6026404 1.501592976 19.56629472)
(101.9417535 9.374068984 -17.51205487)
(121.6270154 9.898167441 11.83139813)
(133.3343939 10.08267544 7.242427359)
(138.8841749 5.75726819 18.01747996)
(158.8678521 15.35159378 -3.510022599)
(167.0035793 21.55804379 -1.064677806)
(176.8940843 4.745346245 -4.821756775)
(166.0015343 20.99984177 -17.46226687)
(119.8716219 28.87399222 15.50931343)
(120.7370136 13.7571145 0.4980663312)
(141.6226015 5.703975388 -3.94036273)
(141.3322414 15.07377152 -2.663582027)
(134.5774636 5.373995887 8.792851975)
(138.7757807 -0.4004310766 3.62370702)
(150.6466357 0.6587377041 -8.082701994)
(171.4024068 20.79021405 -19.44078769)
(183.3634023 -3.116474021 1.014556464)
(179.38459 19.38268473 -12.62701392)
(108.3359361 25.66910742 9.36014398)
(122.5191208 3.319587584 -6.303298102)
(133.6839032 8.664997542 -2.597749339)
(125.0302546 10.8154891 -4.682896124)
(128.1211269 5.525543392 27.9511092)
(156.3289685 0.8956570499 37.00948206)
(137.407893 -2.743160156 7.168472225)
(155.3412689 -2.897389644 -4.3952883)
(155.5126717 4.633706742 7.355526755)
(164.210279 13.75155972 -9.875897206)
(123.5544538 16.81810441 2.01716988)
(124.8746552 6.978832694 9.989416939)
(128.6039109 0.4838602505 -25.23623812)
(156.6217654 17.11558641 -0.5756291341)
(160.5544058 -3.853776408 0.5489019431)
(148.9993938 1.389870672 1.419960734)
(150.4457747 0.3686108573 2.334152699)
(161.1316305 -0.7565964688 0.2613828162)
(152.4565957 -8.151625292 -8.441215708)
(159.2989192 15.46024502 -10.17592236)
(127.5112279 19.40473782 -0.6466698962)
(132.9213314 7.209387935 1.992475806)
(130.4374802 -10.31009181 0.005089473047)
(150.2575939 11.61728832 24.94548574)
(153.7916777 11.5610382 8.286442794)
(129.2544507 -7.607306077 -19.09673703)
(153.6383422 5.43312032 -17.64746807)
(150.4414453 2.604780167 -24.39349955)
(146.7390857 -2.361311123 -20.47398173)
(153.3139594 17.69617337 10.7058098)
(112.043097 14.48395421 -6.251897215)
(134.4377399 6.940057128 0.07976979833)
(122.967183 -3.976589892 8.512355852)
(120.5084511 -13.26283028 24.60114274)
(120.3801143 11.51122957 32.67295746)
(131.1417582 -2.303687969 0.0504474525)
(117.9322506 -9.339330826 14.18626245)
(115.0543497 5.720966307 -17.44252325)
(124.7794117 -0.9100160494 1.355579604)
(132.8850025 6.866837739 21.49152491)
(125.3198383 12.97021186 -0.1483920795)
(118.2177492 6.752176301 -14.47489209)
(129.9077341 12.61233296 -13.1399251)
(123.0712115 -14.49103914 3.56949871)
(119.1914977 13.54513044 0.8521442409)
(141.5227997 3.944239683 1.766266307)
(130.3181482 -3.433571027 11.27261354)
(138.9146316 1.87880368 13.72618225)
(151.8576208 -13.00096582 17.19325439)
(176.3901296 2.506414137 31.79359595)
(113.4104145 5.684301267 -16.46933995)
(127.8092999 -0.85323029 -12.37506391)
(146.4410073 4.639863981 9.798849209)
(140.4782699 8.792293626 -3.5791496)
(135.6765302 -1.538146442 -6.675574298)
(151.5604953 -3.529938227 -12.01015981)
(143.5277392 8.419273765 0.6831315525)
(135.8147489 4.3306522 -13.96871237)
(160.3808654 -21.56737486 0.6654118513)
(156.3061642 -11.25932696 18.90898254)
(136.8472393 8.157937935 -5.416515957)
(136.8153719 -6.333816399 -3.749172834)
(111.0453095 2.654584151 -25.81733626)
(131.1698253 5.422397475 -6.721985671)
(138.0157499 0.8072389672 -10.55647206)
(133.4637884 -7.089967286 -4.580530077)
(135.1626173 3.480339027 -0.8948815453)
(138.6074013 6.999323138 -6.962697747)
(129.6800661 -14.53824618 9.037110138)
(147.8065134 -0.7418212457 9.625963641)
(118.2580065 -8.078297255 8.943010041)
(109.6098303 9.918870575 5.106175696)
(131.4182488 3.617559678 2.723423478)
(130.9630122 -12.3644562 -0.4897561239)
(147.8651822 9.959577893 -18.09090795)
(143.2303504 -4.600316161 -8.434835588)
(157.3250467 -6.172520873 -30.58102037)
(162.7705451 4.810998076 -0.304369047)
(155.9429971 -0.9119302219 -8.851699399)
(150.5294683 -13.92625331 10.29968413)
(132.5787248 12.90754457 -6.136857226)
(135.0570326 4.664972391 -17.59575934)
(130.2344785 -4.260090658 0.4472919247)
(129.9941313 -10.087656 -13.34852606)
(139.5521313 -2.999558519 -7.663948296)
(148.8782865 -2.727734118 5.893479878)
(147.7667894 -6.10261499 0.489408073)
(149.7476613 -1.630505522 8.701864873)
(145.1968422 -3.095337739 8.582372021)
(164.9890578 -15.09089453 -33.10679807)
(128.1896495 2.491475571 -6.099881716)
(153.175726 0.1197017262 8.700565516)
(140.9276937 8.662630418 -6.512346018)
(128.0131603 -8.278388011 -9.953273175)
(122.2579177 -2.512814909 -20.96434291)
(124.5611355 -11.75061447 8.739949196)
(130.2854981 -7.685928166 4.866551468)
(133.8001945 -3.485782161 9.61101481)
(124.8845174 -1.339991656 0.7767119693)
(137.3710859 -26.33128588 -29.68307393)
(131.9640921 -14.13282734 2.477149193)
(134.0729895 7.249151865 3.960348986)
(124.4759312 21.92690379 -11.39012777)
(113.3352708 -3.800822434 -5.237588226)
(121.3319745 -1.532845039 -9.019777508)
(116.153769 -21.31829822 -1.261877931)
(129.4578972 -13.14281911 5.222579806)
(129.8007836 -1.913517216 5.295475513)
(133.0315685 -4.920435348 5.680949567)
(128.792655 -22.22132363 -5.391939206)
(122.332691 -7.663196029 11.83469708)
(125.3960325 16.69158848 -4.970207234)
(127.3093623 14.22193858 -17.21678802)
(131.2090332 -1.618979818 -0.7104409617)
)
;

boundaryField
{
    flow
    {
        type            calculated;
        value           nonuniform List<vector> 
42
(
(13.87500759 20.35910126 -14.35981148)
(22.94859688 24.80037477 -15.67679798)
(16.8293819 28.97598228 -21.99533703)
(21.02146428 29.49818391 -14.96590478)
(41.55876891 24.87526443 -1.726126812)
(33.97918471 21.04306979 3.122163383)
(27.43956167 20.99578036 -9.758984157)
(28.86551739 15.45139593 5.583377767)
(36.39759089 8.362679913 3.150831018)
(34.64634264 1.919818794 -5.254753768)
(34.50273804 8.352373551 12.41617299)
(46.30924712 4.887345221 13.90478301)
(51.43421912 8.855756699 4.777776143)
(33.27294117 2.966798303 -6.182428125)
(32.39004212 0.3052284247 -8.161037168)
(44.72156548 2.140001726 16.93371991)
(35.42725486 7.396405573 10.99732901)
(52.77106446 -3.775550568 8.866691948)
(37.26807352 -9.904053006 -3.019357647)
(36.5306247 1.305778411 4.434862547)
(34.79393717 4.010592188 -1.63170164)
(39.5074437 0.3289690583 0.1332680678)
(13.87500759 20.35910126 -14.35981148)
(27.25753925 29.28888263 -5.882425931)
(28.39952316 22.82692315 4.728357258)
(31.29811253 24.41579313 12.32254326)
(40.40835266 21.51911207 13.78302277)
(37.21662571 43.65465629 2.459430826)
(27.91353838 36.3081344 -0.2976703777)
(11.88958919 34.13981509 3.905390194)
(9.669395007 44.81426742 5.803437897)
(0.6930704901 29.08752287 -1.6464775)
(8.340498958 36.0527618 -14.72512617)
(16.9675811 32.01601418 -11.28880189)
(25.12415055 40.71211772 -4.537894494)
(19.05889502 32.19596159 16.58048256)
(20.51567294 36.81072163 10.86188416)
(30.71164933 32.42536661 0.8820142821)
(50.22918861 42.4661562 20.54482826)
(42.40296103 45.75200922 -5.44749439)
(51.14451317 44.35411744 -0.487888171)
(53.75752206 52.11136904 -0.1849678429)
)
;
    }
    obstacle
    {
        type            calculated;
        value           nonuniform List<vector> 10((58.24965627 15.60794835 -25.23156003) (74.54110152 19.97322796 13.36419176) (76.26600664 20.43541489 -28.00139239) (100.0450405 26.8069878 -21.13463884) (148.7915631 39.86857915 38.7634059) (72.31606633 19.37703161 8.232797842) (82.35365378 22.06659495 11.61457235) (12.12667443 3.249332626 23.85766077) (78.91069175 21.14405617 11.7098743) (50.64593585 13.57053757 14.57734901));
    }
    frontAndBack
    {
        type            empty;
    }
    procBoundary0to1
    {
        type            processor;
        value           nonuniform List<vector> 
21
(
(122.5917397 33.14815557 25.63761812)
(148.4872913 42.5757315 -4.116967308)
(153.9503715 43.63715188 -13.46842135)
(183.3991949 48.96632856 -12.48499468)
(174.4795049 19.38806684 -0.3349577013)
(145.7251368 16.00816373 -12.21775027)
(177.5349338 30.66872348 -13.85784371)
(142.3543942 28.88934658 -1.172113556)
(180.0815081 29.77593088 -4.477509794)
(185.8685696 28.06657688 -6.372405419)
(152.3743629 15.61138632 8.202438997)
(162.5534884 20.02334553 6.596852503)
(139.530275 8.960423247 -13.30366853)
(150.5934532 6.707464631 -1.078478801)
(171.3922443 1.774236714 24.13526185)
(133.921304 0.9510312009 11.1172992)
(171.4940512 -16.53777183 11.89654858)
(162.6302902 -24.10124634 16.10235062)
(154.8654276 -11.02926711 -5.560379993)
(138.3990738 -20.69143241 -15.52469837)
(137.9562538 -32.00750803 -10.83836437)
)
;
    }
    procBoundary0to2
    {
        type            processor;
        value           nonuniform List<vector> 
31
(
(47.34643483 -1.156341293 -4.683409888)
(57.82720987 -7.122117592 11.61136193)
(56.2741195 -18.39372523 -14.48523713)
(54.14496398 -9.404607775 -10.34344774)
(57.62384345 -7.848326624 -3.479972154)
(66.39846039 -4.293924171 0.7129533231)
(73.33570544 -8.18114431 -19.79785354)
(67.61676168 -8.020542127 -6.203362532)
(66.72697495 -0.1776363022 -0.4638919467)
(75.4017913 0.7955976736 4.688415837)
(89.17822951 0.09893739228 8.058728448)
(94.40422549 6.784720416 -18.86568426)
(83.69586378 -8.96851005 11.44531442)
(91.77928447 -18.48815513 -8.15489613)
(101.6491771 -10.85295731 21.95249499)
(105.6960935 -24.66138872 7.13616815)
(94.24484751 -9.067280801 4.551049418)
(99.3481364 -13.04342794 11.14767174)
(101.7256878 -12.14892054 16.28965992)