/*--------------------------------*- C++ -*----------------------------------*\
  =========                 |
  \\      /  F ield         | OpenFOAM: The Open Source CFD Toolbox
   \\    /   O peration     | Website:  https://openfoam.org
    \\  /    A nd           | Version:  7
     \\/     M anipulation  |
\*---------------------------------------------------------------------------*/
FoamFile
{
    version     2.0;
    format      ascii;
    class       volScalarField;
    location    "0.005";
    object      dsmcSigmaTcRMax;
}
// * * * * * * * * * * * * * * * * * * * * * * * * * * * * * * * * * * * * * //

dimensions      [0 3 -1 0 0 0 0];

internalField   nonuniform List<scalar> 
1000
(
5.42874e-16
5.57796e-16
5.54611e-16
5.55287e-16
5.50743e-16
5.42568e-16
5.53241e-16
5.46779e-16
5.7231e-16
6.0312e-16
5.50589e-16
5.40594e-16
5.72125e-16
5.52014e-16
5.4235e-16
5.75525e-16
5.43159e-16
5.57194e-16
5.51777e-16
5.49604e-16
5.39229e-16
5.57762e-16
5.52472e-16
5.41294e-16
5.4257e-16
5.60088e-16
5.41537e-16
5.46495e-16
5.55293e-16
5.59408e-16
5.37648e-16
5.63452e-16
5.54207e-16
5.51085e-16
5.40825e-16
5.50696e-16
5.48467e-16
5.37892e-16
5.49907e-16
5.40912e-16
5.57866e-16
5.47297e-16
5.59163e-16
5.39561e-16
5.50025e-16
5.46227e-16
5.66196e-16
5.53206e-16
5.54237e-16
5.32146e-16
5.61476e-16
5.49676e-16
5.4674e-16
5.37232e-16
5.45956e-16
5.59745e-16
5.42416e-16
5.31711e-16
5.53683e-16
5.86752e-16
5.54736e-16
5.51135e-16
5.60732e-16
5.66043e-16
5.52139e-16
5.55387e-16
5.83405e-16
5.84165e-16
5.41851e-16
5.50878e-16
5.38322e-16
5.58712e-16
5.3767e-16
5.58786e-16
5.45238e-16
5.62644e-16
5.53154e-16
5.33452e-16
5.65086e-16
5.44105e-16
5.40546e-16
5.45938e-16
5.67871e-16
5.98564e-16
5.42242e-16
5.37429e-16
5.41312e-16
5.3862e-16
5.45061e-16
5.90701e-16
5.98003e-16
5.45334e-16
5.50978e-16
5.44197e-16
5.59817e-16
5.53432e-16
5.53178e-16
5.43942e-16
5.44872e-16
5.53507e-16
5.61777e-16
5.44067e-16
5.72119e-16
5.3994e-16
5.4076e-16
5.67738e-16
5.64633e-16
5.36884e-16
5.41099e-16
5.62961e-16
5.62723e-16
5.69289e-16
5.71724e-16
5.78937e-16
5.37022e-16
5.512e-16
5.34063e-16
5.48329e-16
5.41377e-16
5.48014e-16
5.52887e-16
5.3418e-16
5.50552e-16
5.40519e-16
5.3582e-16
5.86558e-16
5.47804e-16
5.56236e-16
5.49072e-16
5.50116e-16
5.32988e-16
5.46461e-16
5.41129e-16
5.41366e-16
5.36433e-16
5.28549e-16
5.70315e-16
5.39297e-16
5.45204e-16
5.55522e-16
5.448e-16
5.51278e-16
5.5105e-16
5.70556e-16
5.45755e-16
5.46587e-16
5.44196e-16
5.44834e-16
5.78262e-16
5.40921e-16
5.39138e-16
5.34571e-16
5.3458e-16
5.2482e-16
5.55775e-16
5.50638e-16
5.40895e-16
5.56893e-16
5.81628e-16
5.54408e-16
5.32512e-16
5.3675e-16
5.80042e-16
5.52527e-16
5.79858e-16
5.60572e-16
5.64681e-16
5.52164e-16
5.473e-16
5.45993e-16
5.67036e-16
5.32316e-16
5.59587e-16
5.44598e-16
5.46275e-16
5.47469e-16
5.39955e-16
5.45368e-16
5.41954e-16
5.38896e-16
5.60692e-16
5.38382e-16
5.36391e-16
5.35356e-16
5.50299e-16
5.88792e-16
5.91154e-16
5.54412e-16
5.26116e-16
5.47352e-16
5.34095e-16
5.42154e-16
5.5077e-16
5.36373e-16
5.71511e-16
5.30387e-16
5.41072e-16
5.55975e-16
5.39371e-16
5.53529e-16
5.57262e-16
5.46721e-16
5.38501e-16
5.54952e-16
5.5765e-16
5.42132e-16
5.48968e-16
5.53851e-16
5.51405e-16
5.78998e-16
5.44197e-16
5.48462e-16
5.36932e-16
5.50123e-16
5.26907e-16
5.3997e-16
5.61224e-16
5.39002e-16
5.59043e-16
5.44064e-16
5.46012e-16
5.55194e-16
5.42883e-16
5.5266e-16
5.49447e-16
5.27772e-16
5.37594e-16
5.32631e-16
5.62733e-16
5.69155e-16
5.94435e-16
5.32778e-16
5.28234e-16
5.44593e-16
5.31136e-16
5.31401e-16
5.41186e-16
5.45726e-16
5.47619e-16
5.48976e-16
5.59798e-16
5.44818e-16
5.54403e-16
5.4853e-16
5.50616e-16
5.45102e-16
5.3493e-16
5.63349e-16
5.50954e-16
5.74166e-16
5.60155e-16
5.38893e-16
5.31856e-16
5.62958e-16
5.37386e-16
5.40362e-16
5.95777e-16
5.27715e-16
5.74648e-16
5.60773e-16
5.37644e-16
5.30527e-16
5.33132e-16
5.45333e-16
5.48408e-16
5.36955e-16
5.49346e-16
5.33375e-16
5.57843e-16
5.34531e-16
5.35602e-16
5.41375e-16
5.65431e-16
5.59358e-16
5.3803e-16
5.40191e-16
5.44809e-16
5.38773e-16
5.59224e-16
5.38662e-16
5.47714e-16
5.38159e-16
5.87232e-16
5.30687e-16
5.39466e-16
5.27368e-16
5.56788e-16
5.43864e-16
5.43855e-16
5.50805e-16
5.3556e-16
5.33988e-16
5.48293e-16
5.42513e-16
5.43579e-16
5.61552e-16
5.73609e-16
5.65966e-16
5.42219e-16
5.34606e-16
5.49156e-16
5.42846e-16
5.39353e-16
5.40891e-16
5.47949e-16
5.39662e-16
5.51164e-16
5.36486e-16
5.2542e-16
5.32623e-16
5.56583e-16
5.36939e-16
5.50237e-16
5.20503e-16
5.38338e-16
5.29429e-16
5.44617e-16
5.36701e-16
5.58446e-16
5.39319e-16
5.55521e-16
5.40258e-16
5.26878e-16
5.25299e-16
5.33085e-16
5.34825e-16
5.16401e-16
5.53676e-16
5.34365e-16
5.59163e-16
5.35717e-16
5.37447e-16
5.25127e-16
5.32118e-16
5.61505e-16
5.4074e-16
5.36602e-16
5.33072e-16
5.39597e-16
5.27688e-16
5.2542e-16
5.36571e-16
5.40412e-16
5.321e-16
5.39764e-16
5.26221e-16
5.3965e-16
5.38456e-16
5.72049e-16
5.25628e-16
5.33434e-16
5.34602e-16
5.30782e-16
5.69081e-16
5.46764e-16
5.49649e-16
5.38756e-16
5.38208e-16
5.3465e-16
5.47367e-16
5.24859e-16
5.28516e-16
5.32694e-16
5.32483e-16
5.42073e-16
5.63647e-16
5.32872e-16
5.4487e-16
5.30448e-16
5.55376e-16
5.16014e-16
5.41004e-16
5.28215e-16
5.32137e-16
5.23835e-16
5.2834e-16
5.67208e-16
5.51481e-16
5.535e-16
5.43e-16
5.44481e-16
5.17095e-16
5.48119e-16
5.32068e-16
5.2099e-16
5.49484e-16
5.45777e-16
5.6836e-16
5.27776e-16
5.38013e-16
5.30605e-16
5.48338e-16
5.26648e-16
5.58261e-16
5.25209e-16
5.4162e-16
5.19023e-16
5.19191e-16
5.20252e-16
5.51133e-16
5.29429e-16
5.2391e-16
5.18398e-16
5.33538e-16
5.52345e-16
5.3846e-16
5.25721e-16
5.39383e-16
5.46967e-16
5.27536e-16
5.34183e-16
5.2995e-16
5.19365e-16
5.42592e-16
5.19508e-16
5.33707e-16
5.18419e-16
5.28995e-16
5.34449e-16
5.27487e-16
5.51618e-16
5.23645e-16
5.36539e-16
5.21167e-16
5.18969e-16
5.18537e-16
5.23695e-16
5.36104e-16
5.25086e-16
5.28532e-16
5.1422e-16
5.1936e-16
5.3643e-16
5.35389e-16
5.44941e-16
5.08235e-16
5.3259e-16
5.4355e-16
5.28996e-16
5.01863e-16
5.24352e-16
5.1622e-16
5.06496e-16
5.13782e-16
5.1394e-16
5.26714e-16
5.11085e-16
5.28385e-16
5.23876e-16
5.21878e-16
5.18952e-16
5.15243e-16
5.16872e-16
5.38736e-16
5.23921e-16
5.12909e-16
5.2428e-16
5.17831e-16
5.06758e-16
5.02157e-16
5.29112e-16
5.2514e-16
5.00488e-16
5.1116e-16
5.14398e-16
5.17157e-16
5.57775e-16
5.15174e-16
5.12064e-16
5.36558e-16
5.18182e-16
5.08702e-16
5.36674e-16
5.11073e-16
5.14402e-16
5.41626e-16
5.37741e-16
4.98868e-16
5.19837e-16
5.11134e-16
5.16831e-16
5.20803e-16
5.1901e-16
5.40243e-16
4.9646e-16
5.08128e-16
5.06494e-16
5.33101e-16
5.00676e-16
5.05387e-16
5.12051e-16
5.05703e-16
5.20795e-16
5.14896e-16
5.12987e-16
5.19493e-16
4.98945e-16
4.995e-16
5.60002e-16
5.07463e-16
5.22944e-16
5.25134e-16
5.15738e-16
5.24265e-16
5.26715e-16
5.39731e-16
5.14427e-16
5.42836e-16
5.16815e-16
5.09898e-16
5.28709e-16
5.13838e-16
5.60707e-16
5.51596e-16
5.02022e-16
5.27826e-16
5.38595e-16
5.29731e-16
5.10382e-16
5.21869e-16
5.26982e-16
5.02372e-16
5.12601e-16
5.30612e-16
5.12684e-16
5.27488e-16
5.20246e-16
5.68074e-16
5.20481e-16
5.30392e-16
5.22575e-16
5.13503e-16
5.35239e-16
5.39378e-16
5.13967e-16
5.30416e-16
5.1973e-16
5.19289e-16
5.10568e-16
5.2852e-16
5.43631e-16
5.09213e-16
5.38449e-16
5.1985e-16
5.34761e-16
5.11293e-16
5.13985e-16
5.23975e-16
5.27292e-16
5.1809e-16
5.19574e-16
5.15976e-16
5.40605e-16
5.36694e-16
5.2191e-16
5.23814e-16
5.4894e-16
5.89196e-16
5.22045e-16
5.61262e-16
5.49194e-16
5.49027e-16
5.24142e-16
5.27015e-16
5.20664e-16
5.44713e-16
5.52094e-16
5.62548e-16
5.33589e-16
5.19381e-16
5.60938e-16
5.19811e-16
5.33141e-16
6.2973e-16
5.34502e-16
5.21684e-16
5.7487e-16
5.54692e-16
5.2832e-16
5.39103e-16
5.27736e-16
5.40931e-16
5.52512e-16
5.5125e-16
5.39162e-16
5.46097e-16
5.32402e-16
5.19065e-16
5.5127e-16
5.55559e-16
5.53138e-16
5.53909e-16
5.34228e-16
5.84368e-16
5.3473e-16
5.4546e-16
5.59388e-16
5.45472e-16
5.48621e-16
5.40213e-16
5.43233e-16
5.40169e-16
5.63271e-16
5.30317e-16
5.35526e-16
5.31875e-16
5.53568e-16
5.80727e-16
5.46037e-16
5.73969e-16
5.57067e-16
5.4023e-16
6.20184e-16
5.33304e-16
5.50632e-16
5.36978e-16
5.60717e-16
5.76992e-16
5.34759e-16
5.30976e-16
5.6033e-16
5.44681e-16
5.48841e-16
5.48615e-16
5.62624e-16
5.22829e-16
5.34011e-16
5.41339e-16
5.3906e-16
5.5137e-16
5.54747e-16
5.28814e-16
5.94767e-16
5.63951e-16
5.29893e-16
5.48402e-16
5.3903e-16
5.4846e-16
5.44764e-16
5.48462e-16
5.38665e-16
5.42519e-16
5.67603e-16
5.2875e-16
5.37343e-16
5.61033e-16
5.41558e-16
5.79134e-16
5.39802e-16
5.40879e-16
5.61689e-16
5.48777e-16
5.56939e-16
5.23183e-16
5.42318e-16
5.26666e-16
5.43561e-16
5.51256e-16
5.36326e-16
5.50429e-16
5.38952e-16
5.77182e-16
5.47319e-16
5.35505e-16
5.42233e-16
5.24362e-16
5.38303e-16
5.84426e-16
5.46456e-16
5.53376e-16
5.56116e-16
5.24425e-16
5.52702e-16
5.53077e-16
5.40907e-16
5.46249e-16
5.25298e-16
5.37257e-16
5.85853e-16
5.39754e-16
5.25037e-16
5.64234e-16
5.59008e-16
5.42507e-16
5.66538e-16
5.4432e-16
5.5899e-16
5.5974e-16
5.41303e-16
5.90032e-16
5.46384e-16
5.41227e-16
5.40286e-16
5.76077e-16
5.58264e-16
5.62031e-16
5.33153e-16
5.54831e-16
5.6802e-16
5.42567e-16
5.49978e-16
5.67296e-16
5.49905e-16
5.54265e-16
5.52371e-16
5.47291e-16
5.95921e-16
5.5243e-16
5.4382e-16
5.61031e-16
5.4088e-16
5.65227e-16
5.91287e-16
5.45284e-16
5.48135e-16
5.60127e-16
5.47406e-16
5.7465e-16
5.48524e-16
5.45953e-16
5.63606e-16
5.65043e-16
5.71739e-16
5.43788e-16
5.72673e-16
5.67622e-16
5.40122e-16
5.46383e-16
5.70262e-16
5.53556e-16
5.5399e-16
5.89237e-16
5.6091e-16
5.594e-16
5.68544e-16
5.50929e-16
5.49586e-16
5.45406e-16
5.60297e-16
5.57495e-16
5.55346e-16
5.50574e-16
5.69858e-16
5.63331e-16
5.45916e-16
5.44228e-16
5.57942e-16
5.56615e-16
5.67583e-16
5.56809e-16
5.76912e-16
5.58817e-16
5.79263e-16
5.62683e-16
5.55953e-16
5.53949e-16
5.68171e-16
5.78523e-16
5.52889e-16
5.87914e-16
5.83108e-16
5.66661e-16
5.63029e-16
5.60124e-16
5.5671e-16
5.57271e-16
5.57787e-16
5.62347e-16
5.92254e-16
5.52903e-16
5.58154e-16
5.67517e-16
5.8891e-16
5.85552e-16
5.72576e-16
5.62706e-16
5.66444e-16
5.58389e-16
5.78476e-16
5.62702e-16
5.82409e-16
5.75734e-16
5.51437e-16
5.72897e-16
5.78854e-16
5.5555e-16
5.87512e-16
5.68144e-16
5.75575e-16
5.72794e-16
5.70902e-16
5.64142e-16
5.78551e-16
5.9219e-16
5.87814e-16
5.93397e-16
5.97934e-16
5.48634e-16
6.00996e-16
5.87647e-16
6.02116e-16
5.85865e-16
5.68685e-16
5.71691e-16
5.67187e-16
5.81013e-16
5.70663e-16
5.73933e-16
5.80377e-16
5.7988e-16
5.85499e-16
5.81624e-16
5.86905e-16
5.91207e-16
5.69874e-16
5.78378e-16
6.05311e-16
5.95164e-16
5.90055e-16
5.94024e-16
5.83309e-16
5.75655e-16
5.85618e-16
5.8589e-16
5.70962e-16
5.9347e-16
5.81135e-16
5.97018e-16
6.36328e-16
5.80689e-16
5.90383e-16
5.7448e-16
5.98678e-16
5.63856e-16
6.21134e-16
5.94203e-16
5.90878e-16
5.94959e-16
5.88534e-16
6.05474e-16
5.86653e-16
5.77017e-16
5.84457e-16
5.89868e-16
6.38369e-16
5.98178e-16
5.88085e-16
5.92934e-16
6.13205e-16
5.94339e-16
5.98527e-16
5.76535e-16
5.94506e-16
5.91119e-16
6.02168e-16
6.36661e-16
5.92097e-16
6.05143e-16
5.91103e-16
5.94993e-16
6.04278e-16
6.11981e-16
6.18757e-16
6.02429e-16
6.29945e-16
5.95318e-16
6.11248e-16
5.97135e-16
5.82296e-16
5.89695e-16
6.06385e-16
6.00217e-16
6.04838e-16
6.02807e-16
6.26021e-16
6.16473e-16
6.0755e-16
6.09265e-16
5.89927e-16
5.9214e-16
5.96342e-16
6.0993e-16
6.04131e-16
6.2869e-16
6.59512e-16
6.31789e-16
6.10854e-16
6.15986e-16
6.13877e-16
5.96559e-16
6.2537e-16
6.2576e-16
5.99778e-16
6.21359e-16
5.99003e-16
5.89683e-16
6.04694e-16
6.0957e-16
6.34183e-16
6.24365e-16
6.18647e-16
6.36505e-16
6.29835e-16
6.02058e-16
6.11088e-16
6.28571e-16
6.20482e-16
6.34308e-16
6.06954e-16
6.30753e-16
6.03849e-16
6.18534e-16
6.1796e-16
6.26257e-16
6.25557e-16
6.22639e-16
6.28533e-16
6.05185e-16
6.26514e-16
6.08575e-16
6.22639e-16
6.18026e-16
6.22233e-16
6.18462e-16
6.33365e-16
6.28006e-16
6.09702e-16
6.4841e-16
6.02189e-16
6.39875e-16
6.12852e-16
6.7094e-16
6.22629e-16
6.35367e-16
6.12462e-16
6.19389e-16
6.3613e-16
6.66391e-16
6.67202e-16
6.26347e-16
6.35449e-16
6.46523e-16
6.41897e-16
6.13907e-16
6.24815e-16
6.26412e-16
6.4086e-16
6.12462e-16
6.46631e-16
6.2323e-16
6.26695e-16
6.44641e-16
6.16155e-16
6.57845e-16
6.52653e-16
6.31902e-16
6.36377e-16
6.50889e-16
6.3545e-16
6.41593e-16
6.28494e-16
6.19849e-16
6.52968e-16
6.21343e-16
6.43516e-16
6.36304e-16
6.59455e-16
6.24079e-16
6.51793e-16
6.34827e-16
6.59667e-16
6.39332e-16
6.4288e-16
6.38781e-16
6.50439e-16
6.11706e-16
6.52994e-16
6.32076e-16
6.47791e-16
6.16837e-16
6.16346e-16
6.16626e-16
6.32411e-16
6.22427e-16
6.19301e-16
6.34896e-16
6.41434e-16
6.45205e-16
6.63384e-16
6.39835e-16
6.38404e-16
6.24662e-16
6.326e-16
6.37273e-16
6.31489e-16
6.4211e-16
6.38999e-16
6.28198e-16
6.1821e-16
6.51048e-16
)
;

boundaryField
{
    sides
    {
        type            symmetry;
    }
    empty
    {
        type            empty;
    }
}


// ************************************************************************* //
