/*--------------------------------*- C++ -*----------------------------------*\
  =========                 |
  \\      /  F ield         | OpenFOAM: The Open Source CFD Toolbox
   \\    /   O peration     | Website:  https://openfoam.org
    \\  /    A nd           | Version:  7
     \\/     M anipulation  |
\*---------------------------------------------------------------------------*/
FoamFile
{
    version     2.0;
    format      ascii;
    class       volScalarField;
    location    "0.005";
    object      rhoM;
}
// * * * * * * * * * * * * * * * * * * * * * * * * * * * * * * * * * * * * * //

dimensions      [1 -3 0 0 0 0 0];

internalField   nonuniform List<scalar> 
1000
(
3.86415e-06
4.19198e-06
4.1292e-06
3.906e-06
3.91297e-06
3.66188e-06
3.8781e-06
4.09433e-06
3.96877e-06
3.6828e-06
3.7107e-06
3.85718e-06
3.94087e-06
3.80138e-06
4.05248e-06
3.85718e-06
3.8223e-06
3.7665e-06
3.95483e-06
4.21988e-06
4.05247e-06
4.17803e-06
4.33845e-06
4.2129e-06
3.78742e-06
3.78045e-06
3.94785e-06
4.15013e-06
3.8502e-06
3.9897e-06
4.0734e-06
4.06643e-06
4.16407e-06
4.2966e-06
3.88507e-06
3.68978e-06
3.99667e-06
3.94785e-06
3.89902e-06
3.92693e-06
3.87112e-06
4.14315e-06
3.85717e-06
3.78743e-06
3.9339e-06
3.87113e-06
3.7665e-06
3.80138e-06
3.87112e-06
4.08735e-06
4.03852e-06
4.00365e-06
4.0734e-06
4.05945e-06
4.23382e-06
4.0176e-06
4.09432e-06
3.8502e-06
3.87112e-06
3.91995e-06
4.0455e-06
3.94785e-06
4.25475e-06
4.21988e-06
3.77347e-06
4.16408e-06
3.906e-06
4.22685e-06
3.71767e-06
4.1292e-06
4.12222e-06
4.16408e-06
4.06642e-06
4.05248e-06
4.01062e-06
4.11525e-06
4.0176e-06
3.99668e-06
4.25475e-06
4.03155e-06
3.88507e-06
4.2966e-06
4.08735e-06
3.81533e-06
3.87112e-06
4.1292e-06
4.10827e-06
3.8502e-06
4.15012e-06
3.8781e-06
3.68977e-06
3.86415e-06
3.75255e-06
4.20593e-06
4.1292e-06
3.9339e-06
4.1292e-06
3.92692e-06
3.906e-06
3.99668e-06
3.9618e-06
3.92692e-06
3.81533e-06
4.2408e-06
4.10828e-06
4.12222e-06
4.27568e-06
4.15013e-06
3.99668e-06
4.08037e-06
4.05945e-06
4.1292e-06
3.84323e-06
3.62002e-06
4.1292e-06
4.1013e-06
4.02458e-06
4.02457e-06
4.03853e-06
3.97575e-06
3.99668e-06
3.81532e-06
3.91298e-06
3.92693e-06
3.97575e-06
4.20592e-06
3.94785e-06
3.80835e-06
3.97575e-06
3.9618e-06
3.5991e-06
3.92693e-06
3.91298e-06
4.06642e-06
4.03853e-06
3.906e-06
4.08038e-06
3.96877e-06
3.91995e-06
3.9618e-06
4.15013e-06
3.82927e-06
4.00365e-06
4.0455e-06
4.21988e-06
3.92692e-06
4.1571e-06
4.33148e-06
4.03155e-06
4.26172e-06
4.3245e-06
4.19198e-06
3.73163e-06
3.85717e-06
4.05248e-06
3.98273e-06
3.98273e-06
3.97575e-06
3.89903e-06
3.78742e-06
3.97575e-06
3.6549e-06
3.96878e-06
4.12222e-06
3.8502e-06
4.08037e-06
3.97575e-06
3.89902e-06
3.94088e-06
4.28962e-06
3.96878e-06
4.13617e-06
3.74558e-06
4.03852e-06
4.0734e-06
4.01062e-06
3.98273e-06
3.99667e-06
3.64095e-06
4.09432e-06
3.91995e-06
4.0734e-06
4.03853e-06
3.64095e-06
4.0176e-06
3.52237e-06
3.97575e-06
4.02457e-06
3.80138e-06
4.01062e-06
4.05945e-06
4.0176e-06
4.23383e-06
3.97575e-06
4.13618e-06
3.9897e-06
3.89903e-06
3.906e-06
3.9897e-06
3.64792e-06
4.05945e-06
3.86415e-06
3.89903e-06
4.17105e-06
3.73163e-06
3.87112e-06
3.9897e-06
3.89205e-06
3.89205e-06
4.0176e-06
4.02458e-06
4.06642e-06
4.02458e-06
3.8781e-06
3.95483e-06
4.1292e-06
3.66188e-06
3.80137e-06
3.62003e-06
3.99668e-06
4.08038e-06
4.12223e-06
4.35938e-06
4.1292e-06
4.03853e-06
3.75255e-06
3.87113e-06
3.77348e-06
3.906e-06
3.7386e-06
4.2408e-06
3.81533e-06
3.75953e-06
4.01063e-06
3.9339e-06
3.7386e-06
4.17803e-06
3.70373e-06
3.97575e-06
3.78045e-06
4.09433e-06
4.23383e-06
4.1013e-06
3.80835e-06
4.13618e-06
3.97575e-06
4.03155e-06
4.14315e-06
4.2129e-06
3.89205e-06
4.05945e-06
4.06643e-06
3.92693e-06
4.1571e-06
3.85718e-06
4.15013e-06
4.05248e-06
3.8502e-06
3.9897e-06
3.9618e-06
4.17105e-06
4.2408e-06
3.99668e-06
3.91995e-06
3.8781e-06
3.8223e-06
3.89903e-06
3.80835e-06
3.7944e-06
4.19198e-06
4.17105e-06
3.87113e-06
3.906e-06
4.14315e-06
4.08735e-06
4.03853e-06
3.89903e-06
3.78743e-06
4.10828e-06
3.9339e-06
3.82928e-06
4.0455e-06
3.89205e-06
4.1013e-06
4.2408e-06
3.82928e-06
4.00365e-06
3.9618e-06
3.75255e-06
3.9897e-06
3.9897e-06
3.8781e-06
3.87113e-06
3.9618e-06
4.1013e-06
4.17105e-06
3.8223e-06
3.87113e-06
3.91297e-06
3.77348e-06
3.89902e-06
3.87113e-06
4.19198e-06
3.75953e-06
4.09433e-06
3.87113e-06
3.89205e-06
4.08735e-06
4.0734e-06
4.19198e-06
4.1013e-06
4.06643e-06
3.9339e-06
4.00365e-06
3.906e-06
3.9339e-06
4.0176e-06
3.80138e-06
4.17803e-06
4.1571e-06
4.14315e-06
4.00365e-06
3.78742e-06
3.92693e-06
4.02458e-06
3.89903e-06
3.84322e-06
3.96878e-06
3.74558e-06
4.09433e-06
4.2129e-06
4.10828e-06
3.83625e-06
3.91298e-06
4.00365e-06
4.25475e-06
3.97575e-06
3.5991e-06
3.9618e-06
3.6828e-06
3.83625e-06
3.94088e-06
4.1571e-06
3.91298e-06
4.20593e-06
4.40123e-06
3.92693e-06
4.08735e-06
4.0455e-06
4.15013e-06
4.09433e-06
3.94088e-06
3.89205e-06
4.03853e-06
4.1013e-06
4.00365e-06
4.06643e-06
3.87113e-06
4.06643e-06
3.9618e-06
4.10828e-06
3.77348e-06
4.36635e-06
4.24778e-06
4.11525e-06
4.11525e-06
4.10828e-06
4.11525e-06
4.31055e-06
3.7386e-06
4.6314e-06
4.0734e-06
4.4082e-06
4.27568e-06
4.30358e-06
4.2966e-06
4.40123e-06
4.56165e-06
3.88508e-06
4.1571e-06
4.37333e-06
4.49888e-06
4.3245e-06
4.23383e-06
4.20593e-06
4.77788e-06
4.15013e-06
4.53375e-06
4.44308e-06
4.5756e-06
4.4919e-06
4.6593e-06
4.72208e-06
4.47795e-06
4.8546e-06
4.74998e-06
5.07083e-06
4.79183e-06
5.00108e-06
5.21033e-06
4.81973e-06
4.9104e-06
5.00108e-06
4.7151e-06
4.8546e-06
5.14755e-06
4.70115e-06
5.3847e-06
5.62185e-06
5.02898e-06
5.25915e-06
5.26613e-06
5.36378e-06
5.17545e-06
5.47538e-06
5.23823e-06
5.7195e-06
5.42655e-06
5.6358e-06
5.58698e-06
5.59395e-06
5.61488e-06
5.75438e-06
5.74043e-06
5.92875e-06
5.56605e-06
5.78925e-06
6.22868e-06
6.3054e-06
5.86598e-06
6.06825e-06
6.01943e-06
6.15893e-06
6.31238e-06
6.5286e-06
6.29843e-06
6.14498e-06
6.70995e-06
6.63323e-06
6.80063e-06
6.98895e-06
7.35863e-06
6.92618e-06
6.9471e-06
6.52163e-06
6.79365e-06
7.06568e-06
7.0866e-06
7.2819e-06
6.8076e-06
6.78668e-06
6.7518e-06
7.53998e-06
7.69343e-06
7.28888e-06
7.07963e-06
7.4214e-06
7.4214e-06
7.63763e-06
7.43535e-06
7.0866e-06
7.63065e-06
7.23308e-06
7.67948e-06
7.87478e-06
7.812e-06
7.84688e-06
7.88175e-06
7.79805e-06
7.65855e-06
7.812e-06
8.26538e-06
7.7004e-06
8.32118e-06
8.19563e-06
8.27933e-06
7.99335e-06
8.3979e-06
8.091e-06
8.1747e-06
8.39093e-06
8.01428e-06
8.25143e-06
8.4258e-06
8.30025e-06
7.8399e-06
8.34908e-06
8.35605e-06
8.21655e-06
7.812e-06
8.35605e-06
8.2863e-06
8.649e-06
8.26538e-06
8.26538e-06
8.04915e-06
8.53043e-06
8.2863e-06
8.72573e-06
8.2305e-06
8.48858e-06
8.55833e-06
8.63505e-06
8.4816e-06
8.2584e-06
8.25143e-06
8.4258e-06
8.85128e-06
8.53043e-06
8.96985e-06
8.83035e-06
8.6211e-06
9.0396e-06
8.99078e-06
8.60715e-06
9.25583e-06
8.62808e-06
8.92103e-06
8.9559e-06
8.5932e-06
9.14423e-06
8.76758e-06
8.80245e-06
9.10935e-06
8.78153e-06
8.649e-06
8.73968e-06
9.3744e-06
8.69783e-06
9.01868e-06
8.80245e-06
8.75363e-06
9.45113e-06
9.36743e-06
9.11633e-06
9.26978e-06
8.62808e-06
8.87918e-06
9.486e-06
9.31163e-06
9.27675e-06
8.94893e-06
9.19305e-06
8.78153e-06
9.11633e-06
9.47903e-06
8.96985e-06
9.24885e-06
9.10238e-06
9.1233e-06
9.3465e-06
9.58365e-06
9.13725e-06
9.486e-06
8.7606e-06
9.0117e-06
9.7092e-06
9.4023e-06
9.17213e-06
9.43718e-06
9.32558e-06
9.10238e-06
9.45113e-06
9.29768e-06
9.61155e-06
9.52785e-06
9.44415e-06
9.06053e-06
9.4023e-06
9.69525e-06
9.35348e-06
9.3186e-06
9.68828e-06
9.41625e-06
9.38835e-06
9.97425e-06
9.86265e-06
9.28373e-06
9.15818e-06
9.02565e-06
9.9324e-06
9.31163e-06
9.32558e-06
9.86963e-06
9.63945e-06
9.69525e-06
9.59063e-06
9.486e-06
9.08145e-06
9.75803e-06
9.54878e-06
9.4581e-06
9.38835e-06
9.89055e-06
9.93938e-06
9.7371e-06
9.5418e-06
9.77895e-06
9.36045e-06
9.54878e-06
9.4581e-06
9.44415e-06
9.54878e-06
9.52785e-06
9.52088e-06
9.49298e-06
9.30465e-06
9.63945e-06
9.10238e-06
9.57668e-06
9.77895e-06
1.0037e-05
9.4023e-06
9.9603e-06
1.02533e-05
1.00231e-05
9.4581e-06
1.01207e-05
9.89055e-06
9.85568e-06
9.70223e-06
9.9324e-06
9.7929e-06
1.01347e-05
1.0058e-05
9.97425e-06
1.01207e-05
1.01696e-05
9.5976e-06
9.7092e-06
9.7929e-06
9.75803e-06
9.79988e-06
1.00231e-05
9.7929e-06
9.80685e-06
1.0058e-05
9.6813e-06
1.00719e-05
9.99518e-06
9.8766e-06
9.68828e-06
9.2628e-06
1.0058e-05
9.486e-06
9.91845e-06
1.01975e-05
9.5139e-06
1.02393e-05
1.00859e-05
9.77895e-06
1.02393e-05
1.0058e-05
1.0044e-05
9.94635e-06
9.61155e-06
1.0037e-05
9.96728e-06
9.8766e-06
1.01277e-05
9.7371e-06
1.01626e-05
1.01835e-05
9.77895e-06
1.02533e-05
9.63945e-06
9.74408e-06
1.01626e-05
1.00928e-05
9.96728e-06
1.00022e-05
1.0323e-05
1.01068e-05
9.3744e-06
9.7929e-06
1.0051e-05
9.61155e-06
1.02533e-05
1.04555e-05
9.9045e-06
1.01138e-05
1.00649e-05
9.86963e-06
1.00301e-05
9.84173e-06
1.04834e-05
1.02463e-05
9.85568e-06
9.9324e-06
9.77895e-06
9.9603e-06
1.02533e-05
1.01138e-05
1.06229e-05
1.01556e-05
1.02742e-05
1.0316e-05
9.92543e-06
1.01975e-05
9.49995e-06
9.53483e-06
1.02742e-05
9.8766e-06
9.85568e-06
1.05253e-05
1.02602e-05
1.02881e-05
1.02533e-05
1.0051e-05
1.05183e-05
1.00161e-05
9.89055e-06
9.74408e-06
9.9045e-06
9.89753e-06
9.72315e-06
9.69525e-06
1.01626e-05
9.95333e-06
1.04067e-05
9.49995e-06
9.72315e-06
1.0037e-05
1.00859e-05
1.04207e-05
9.486e-06
9.79988e-06
1.01207e-05
9.9045e-06
9.71618e-06
9.7929e-06
1.00649e-05
1.04695e-05
1.00928e-05
9.77198e-06
9.84173e-06
9.93938e-06
9.54878e-06
9.765e-06
8.9001e-06
9.73013e-06
9.75803e-06
9.73013e-06
9.91845e-06
9.67433e-06
9.78593e-06
9.93938e-06
9.66735e-06
9.5976e-06
9.4581e-06
9.7371e-06
9.5697e-06
9.06053e-06
9.5139e-06
9.33953e-06
9.31163e-06
8.8722e-06
9.38138e-06
9.44415e-06
9.61853e-06
9.486e-06
8.94195e-06
9.63945e-06
9.54878e-06
1.01696e-05
9.0954e-06
9.36045e-06
9.74408e-06
9.31163e-06
9.2349e-06
9.16515e-06
9.24885e-06
9.3465e-06
9.70223e-06
9.40928e-06
9.4302e-06
9.41625e-06
9.61155e-06
9.46508e-06
9.22095e-06
8.7048e-06
9.14423e-06
9.02565e-06
9.71618e-06
9.13027e-06
9.42323e-06
9.19305e-06
9.2349e-06
8.57925e-06
9.45113e-06
9.18607e-06
8.94893e-06
9.00472e-06
8.928e-06
9.47902e-06
9.03263e-06
9.52785e-06
8.7606e-06
9.50692e-06
8.94195e-06
9.40927e-06
8.8443e-06
9.11632e-06
8.97683e-06
8.62807e-06
9.30465e-06
9.15817e-06
8.86523e-06
8.4816e-06
9.04658e-06
8.69782e-06
8.61413e-06
9.1791e-06
8.93498e-06
8.75362e-06
9.0954e-06
8.8722e-06
8.92103e-06
8.85825e-06
8.92103e-06
8.49555e-06
8.69085e-06
8.33512e-06
8.39093e-06
8.57227e-06
8.64203e-06
8.94195e-06
8.7048e-06
8.91405e-06
9.26978e-06
8.7048e-06
8.47463e-06
8.71875e-06
8.4816e-06
8.55135e-06
8.66295e-06
8.48857e-06
8.79548e-06
8.48857e-06
8.62808e-06
8.94195e-06
8.86523e-06
8.37697e-06
8.43278e-06
8.60715e-06
8.16773e-06
8.58622e-06
8.5374e-06
8.46765e-06
8.89313e-06
8.05612e-06
8.3421e-06
8.46068e-06
7.88873e-06
8.1468e-06
8.52345e-06
8.091e-06
7.99335e-06
8.04915e-06
7.90268e-06
8.49555e-06
8.38395e-06
8.13285e-06
8.2026e-06
8.1468e-06
8.30723e-06
8.72572e-06
8.2305e-06
8.4537e-06
8.04218e-06
8.34907e-06
8.61413e-06
7.79108e-06
8.08403e-06
8.27932e-06
8.19563e-06
8.1747e-06
7.83293e-06
7.9794e-06
7.81898e-06
7.77015e-06
7.79805e-06
7.69342e-06
8.12588e-06
7.62368e-06
7.90268e-06
7.41442e-06
7.30283e-06
7.99335e-06
8.20958e-06
7.55392e-06
7.97243e-06
8.19563e-06
7.52603e-06
7.40745e-06
8.18168e-06
7.70738e-06
7.60275e-06
8.4537e-06
7.7004e-06
7.82595e-06
7.81898e-06
7.88175e-06
7.71435e-06
7.7841e-06
7.19123e-06
7.72133e-06
7.90965e-06
7.87478e-06
7.63065e-06
7.8399e-06
8.20957e-06
7.74225e-06
7.44232e-06
7.8678e-06
7.40745e-06
7.65855e-06
7.58182e-06
7.812e-06
7.53997e-06
7.32375e-06
7.63762e-06
7.13543e-06
7.8957e-06
7.32375e-06
7.9794e-06
7.66553e-06
7.69342e-06
6.98895e-06
7.66552e-06
6.99593e-06
7.17727e-06
7.45628e-06
7.30282e-06
7.45628e-06
7.26795e-06
7.74923e-06
7.5051e-06
7.59578e-06
7.60275e-06
7.31678e-06
6.96105e-06
7.51208e-06
7.17727e-06
7.0029e-06
7.51207e-06
7.28888e-06
7.5609e-06
6.77273e-06
7.37257e-06
7.3098e-06
7.85385e-06
6.8913e-06
7.32375e-06
6.87735e-06
7.28887e-06
7.21913e-06
7.06567e-06
7.13543e-06
7.06567e-06
6.73088e-06
7.7004e-06
7.04475e-06
7.38652e-06
7.16333e-06
7.4772e-06
7.04475e-06
7.0866e-06
7.1703e-06
7.15635e-06
6.99593e-06
7.27492e-06
7.40048e-06
7.04475e-06
7.07963e-06
7.59577e-06
7.00988e-06
7.6446e-06
7.40048e-06
7.43535e-06
7.2819e-06
6.9471e-06
6.98198e-06
6.78667e-06
7.21215e-06
7.33073e-06
7.14938e-06
7.35165e-06
7.37955e-06
7.18425e-06
7.12148e-06
6.8355e-06
7.44233e-06
6.93315e-06
7.21215e-06
7.2819e-06
7.20518e-06
7.3935e-06
6.81458e-06
7.14937e-06
)
;

boundaryField
{
    sides
    {
        type            symmetry;
    }
    empty
    {
        type            empty;
    }
}


// ************************************************************************* //
