/*--------------------------------*- C++ -*----------------------------------*\
  =========                 |
  \\      /  F ield         | OpenFOAM: The Open Source CFD Toolbox
   \\    /   O peration     | Website:  https://openfoam.org
    \\  /    A nd           | Version:  7
     \\/     M anipulation  |
\*---------------------------------------------------------------------------*/
FoamFile
{
    version     2.0;
    format      ascii;
    class       volScalarField;
    location    "0.01";
    object      dsmcRhoNMean;
}
// * * * * * * * * * * * * * * * * * * * * * * * * * * * * * * * * * * * * * //

dimensions      [0 -3 0 0 0 0 0];

internalField   nonuniform List<scalar> 
654
(
6.5248
6.1972
6.1338
6.0056
6.307
6.4752
6.5762
6.1084
5.8286
5.9628
5.926
5.9796
6.0522
6.1366
6.1312
6.2718
6.3722
6.6472
6.125
6.1218
5.9566
6.1636
5.994
6.18
5.8206
6.046
6.05
6.0904
6.1326
6.382
6.2744
6.2628
6.5482
6.5644
6.1354
6.2006
6.1284
6.2148
6.1626
6.1614
6.0936
5.9252
5.9736
6.245
6.1794
6.0698
6.0366
5.9722
6.2736
6.169
6.0726
6.15
6.3972
6.3674
6.4952
6.4764
6.7794
6.688
6.7676
6.505
6.3446
6.4864
6.0722
6.1854
6.2694
6.1552
6.0054
6.1238
6.0828
6.0734
6.0022
6.0544
5.976
6.0088
6.1144
6.1648
6.3182
6.1238
6.3796
6.298
6.4984
6.7594
6.5602
6.5962
6.5738
6.6942
6.512
6.5928
6.614
6.5304
6.372
6.4696
6.3102
6.3186
6.259
6.1706
6.206
6.1548
6.2634
6.235
6.1068
6.0378
5.9838
6.0872
6.0574
6.0928
6.1914
6.249
6.269
6.2618
6.4496
6.628
6.5294
6.8444
6.7786
6.7544
6.5694
6.6868
6.5902
6.551
6.5876
6.54
6.3868
6.4226
6.4178
6.0888
6.3344
6.1678
6.2654
6.2086
6.1586
6.2602
6.2724
6.258
6.345
6.401
6.3012
6.3144
6.2588
6.4636
6.4008
6.401
6.4308
6.7068
7.0026
6.8002
6.6784
6.7984
6.7246
6.5906
6.6394
6.6066
6.4388
6.3966
6.5432
6.3818
6.6664
6.3896
6.1848
6.3814
6.3436
6.3878
6.2682
6.372
6.3682
6.2274
6.2128
6.2632
6.5264
6.5122
6.3106
6.6474
6.5356
6.6556
6.7152
7.06
6.9616
6.9388
6.6612
6.584
6.6972
6.7826
6.6082
6.4762
6.3936
6.5496
6.497
6.2166
6.2344
6.2414
6.3464
6.4426
6.4744
6.4504
6.3462
6.2968
6.278
6.4114
6.3428
6.4944
6.6824
6.6952
6.7274
6.9236
6.9556
7.2334
7.0752
7.1778
6.9532
6.5368
6.8194
6.7112
6.7298
6.7408
6.4684
6.5768
6.5308
6.2666
6.4122
6.3726
6.286
6.3758
6.4454
6.618
6.5502
6.383
6.3552
6.4532
6.6618
6.6432
6.6936
6.735
6.6102
6.6998
7.1728
7.2122
7.0098
6.864
6.7962
6.7918
6.8204
6.8222
6.6716
6.8514
6.6324
6.7028
6.4688
6.4806
6.232
6.2492
6.4254
6.4782
6.5528
6.4366
6.3474
6.4004
6.4316
6.441
6.575
6.5374
6.8046
6.6958
6.5976
6.9936
7.2862
7.2216
6.9236
6.8568
7.228
7.2016
6.749
6.7926
6.6476
6.7678
6.827
6.88
6.516
6.5822
6.4834
6.6052
6.3994
6.3392
6.4028
6.5474
6.5184
6.7456
6.4068
6.4978
6.4338
6.4898
6.9586
6.6624
6.6856
6.7548
7.2848
6.9528
7.0088
7.1388
7.0762
7.0288
7.1406
7.1276
7.0066
6.9114
6.7964
6.7282
6.6442
6.6168
6.5662
6.5694
6.6168
6.595
6.4378
6.5116
6.5362
6.5022
6.462
6.48
6.4196
6.6074
6.8188
6.6514
6.8544
6.736
7.3668
7.2188
7.1004
7.0848
7.344
7.1674
6.9756
7.0778
6.9352
6.9286
6.625
6.6258
6.7018
6.7744
6.443
6.6394
6.491
6.692
6.6758
6.5206
6.6004
6.5496
6.7204
6.745
6.497
6.726
6.9056
6.8648
6.903
6.831
7.4618
7.4128
7.364
7.3294
7.286
7.2882
7.2512
7.1442
7.0234
6.9964
6.8492
6.7498
6.7834
6.7178
6.8396
6.7852
6.7582
6.769
6.8122
6.7184
6.566
6.7466
6.6876
6.6566
6.6066
6.7348
6.8286
6.9374
7.0782
6.806
7.5054
7.5032
7.4156
7.3884
7.1848
7.2242
7.2068
7.1458
6.9736
7.0982
6.9284
7.0256
7.026
6.5396
6.8908
6.9514
6.836
6.7434
6.9048
6.6986
6.632
6.7632
6.8218
6.6628
6.6916
6.6322
6.825
6.7882
7.0664
6.8282
7.4734
7.4094
7.4956
7.5176
7.2684
7.397
7.0888
7.1524
7.2144
7
7.134
6.991
7.0638
6.776
6.8428
7.0246
6.8726
6.9628
6.9174
6.97
6.8392
6.8264
7.0188
6.8762
6.791
6.8814
6.8234
6.9744
6.8224
6.7264
7.822
7.51
7.5616
7.3676
7.252
7.3638
7.0988
7.4394
7.4024
7.1036
7.2844
7.0496
7.1452
7.0476
6.9096
6.9808
6.8158
6.7434
6.9494
7.0664
6.911
6.8128
6.942
6.8688
6.8428
6.8814
6.986
6.7844
7.0042
6.8248
7.7994
7.6494
7.7402
7.4366
7.2658
7.3354
7.3368
7.529
7.3764
7.2224
7.163
7.091
7.162
7.3102
7.1142
7.0936
6.9634
6.8436
6.963
7.121
7.0346
6.9724
6.8268
7.0564
7.2248
7.0158
6.7878
6.7776
6.7336
6.7854
7.9022
7.8044
7.8538
7.7476
7.6574
7.6202
7.5162
7.3014
7.156
7.1798
7.3682
7.2216
7.3226
7.2382
7.0456
7.1954
7.1072
6.8256
7.0734
7.1426
7.077
6.8548
6.9692
6.9884
6.8636
7.0892
6.9356
7.0884
6.909
6.8928
8.3406
7.9884
7.6368
7.8778
7.8252
7.4878
7.525
7.594
7.394
7.3594
7.23
7.339
7.1978
7.1608
7.1878
7.5734
7.4746
7.166
7.2514
7.2992
7.2224
6.7482
7.0768
6.9078
6.8764
6.8872
6.9204
6.8558
6.929
6.9462
8.3482
8.2134
8.065
7.875
8.0222
7.7254
7.4998
7.698
7.5016
7.4806
7.3198
7.4088
7.25
7.411
7.24
7.3948
7.2744
7.1326
7.2668
7.2802
7.1052
6.8476
6.8224
6.955
6.8714
6.9798
6.9062
6.9104
6.8372
6.7168
8.2588
8.1848
8.1444
7.8658
7.9568
7.9516
7.733
7.825
7.843
7.6532
7.642
7.472
7.463
7.5888
7.3684
7.3128
7.2646
7.1108
7.2572
7.2278
7.1032
7.2276
6.826
6.86
6.9854
7.0514
6.9142
6.9368
6.896
6.7648
8.3828
8.1956
8.047
7.7766
8.009
7.8424
7.8556
7.62
7.7776
7.7534
7.5514
7.5082
7.5388
7.4634
7.358
7.265
7.2832
7.1918
7.3468
7.1876
7.0224
7.1088
7.054
7.125
7.023
7.0284
6.8246
6.6824
6.8304
6.676
)
;

boundaryField
{
    flow
    {
        type            calculated;
        value           nonuniform List<scalar> 
55
(
6.5248
6.5762
6.6472
6.5644
6.4764
6.5962
6.8444
6.7068
6.6556
6.9236
6.6998
6.9936
6.7548
6.736
6.831
6.806
6.8282
6.7264
6.8248
6.7854
6.8928
6.9462
6.7168
6.7648
6.676
8.3828
8.1956
8.047
7.7766
8.009
7.8424
7.8556
7.62
7.7776
7.7534
7.5514
7.5082
7.5388
7.4634
7.358
7.265
7.2832
7.1918
7.3468
7.1876
7.0224
7.1088
7.054
7.125
7.023
7.0284
6.8246
6.6824
6.8304
6.676
)
;
    }
    obstacle
    {
        type            calculated;
        value           nonuniform 0();
    }
    frontAndBack
    {
        type            empty;
    }
    procBoundary3to1
    {
        type            processor;
        value           nonuniform List<scalar> 
36
(
6.6334
6.0274
5.9208
6.1234
6.2352
6.4492
6.4492
6.0484
5.9026
5.861
6.0032
5.9662
5.9662
5.7618
6.0332
6.0848
6.0786
6.093
6.093
6.0612
6.1806
6.2058
6.1606
5.966
6.2394
6.2394
6.5194
6.4214
6.3546
6.4802
6.2832
6.1374
6.1374
6.6768
6.689
6.689
)
;
    }
    procBoundary3to2
    {
        type            processor;
        value           nonuniform List<scalar> 
19
(
6.775
6.8556
6.8846
6.9658
7.1824
7.2718
7.2314
7.6416
7.5488
7.4672
7.74
7.8226
7.6824
7.882
7.952
8.208
8.0624
8.3038
8.2852
)
;
    }
}


// ************************************************************************* //
