/*--------------------------------*- C++ -*----------------------------------*\
  =========                 |
  \\      /  F ield         | OpenFOAM: The Open Source CFD Toolbox
   \\    /   O peration     | Website:  https://openfoam.org
    \\  /    A nd           | Version:  7
     \\/     M anipulation  |
\*---------------------------------------------------------------------------*/
FoamFile
{
    version     2.0;
    format      ascii;
    class       volScalarField;
    location    "0.01";
    object      iDofMean;
}
// * * * * * * * * * * * * * * * * * * * * * * * * * * * * * * * * * * * * * //

dimensions      [0 -3 0 0 0 0 0];

internalField   nonuniform List<scalar> 
654
(
1.858897121e+20
1.68704721e+20
1.684772923e+20
1.664497636e+20
1.764006745e+20
1.827752959e+20
1.873540819e+20
1.592071329e+20
1.532192861e+20
1.581049957e+20
1.585023683e+20
1.61345987e+20
1.647574218e+20
1.685541971e+20
1.699308614e+20
1.754161646e+20
1.798679177e+20
1.893768536e+20
1.531202146e+20
1.543005212e+20
1.513833007e+20
1.579556632e+20
1.549063283e+20
1.610732908e+20
1.530089861e+20
1.603110612e+20
1.618189889e+20
1.643356745e+20
1.669461295e+20
1.752946086e+20
1.738997596e+20
1.751644433e+20
1.848358666e+20
1.870179049e+20
1.462146453e+20
1.48928041e+20
1.483581394e+20
1.516491979e+20
1.515839542e+20
1.527822829e+20
1.523352392e+20
1.493452017e+20
1.518153464e+20
1.600417154e+20
1.596977253e+20
1.582010765e+20
1.586870848e+20
1.583542388e+20
1.677996048e+20
1.664565178e+20
1.65312767e+20
1.689222583e+20
1.773032533e+20
1.780900023e+20
1.833398353e+20
1.845108097e+20
1.543510928e+20
1.534113169e+20
1.564094155e+20
1.514842067e+20
1.488816899e+20
1.533851383e+20
1.447085062e+20
1.485629636e+20
1.517715119e+20
1.501948816e+20
1.477172425e+20
1.518499288e+20
1.520652488e+20
1.530805948e+20
1.525421952e+20
1.55157173e+20
1.544411429e+20
1.566111945e+20
1.607322505e+20
1.634610687e+20
1.689925169e+20
1.65236898e+20
1.736701445e+20
1.729873763e+20
1.801080881e+20
1.890538638e+20
1.851745886e+20
1.879238762e+20
1.474759853e+20
1.512859077e+20
1.482630177e+20
1.512275901e+20
1.528594884e+20
1.520757042e+20
1.49524653e+20
1.529878632e+20
1.503803578e+20
1.517622036e+20
1.515197432e+20
1.505706593e+20
1.52651479e+20
1.526186236e+20
1.565801078e+20
1.5715374e+20
1.55200542e+20
1.547317645e+20
1.546427252e+20
1.586545864e+20
1.59233866e+20
1.615519752e+20
1.656010063e+20
1.686151384e+20
1.706593132e+20
1.719930727e+20
1.787555607e+20
1.853787332e+20
1.843051978e+20
1.949950259e+20
1.520704484e+20
1.526464017e+20
1.495698837e+20
1.533837909e+20
1.523094346e+20
1.525554236e+20
1.545839002e+20
1.546526278e+20
1.522058377e+20
1.542601097e+20
1.553640211e+20
1.485746341e+20
1.55809788e+20
1.529409817e+20
1.56630105e+20
1.56488323e+20
1.565170056e+20
1.604312484e+20
1.621011768e+20
1.631062534e+20
1.667941465e+20
1.697239667e+20
1.685378203e+20
1.703798081e+20
1.703816384e+20
1.775359186e+20
1.774030316e+20
1.790297633e+20
1.815220199e+20
1.910748407e+20
1.570956436e+20
1.536814611e+20
1.520515578e+20
1.559437047e+20
1.554156208e+20
1.534776038e+20
1.557994333e+20
1.562275295e+20
1.53445066e+20
1.536356332e+20
1.58399743e+20
1.557242162e+20
1.639761257e+20
1.58440886e+20
1.546151679e+20
1.608437639e+20
1.612186674e+20
1.637012761e+20
1.619926338e+20
1.660775082e+20
1.674040177e+20
1.651209247e+20
1.661733908e+20
1.689982919e+20
1.776664432e+20
1.788708164e+20
1.749030686e+20
1.859213324e+20
1.844802051e+20
1.896161672e+20
1.50648139e+20
1.595528243e+20
1.58499361e+20
1.591642413e+20
1.539503514e+20
1.533239061e+20
1.571557618e+20
1.603894362e+20
1.574820906e+20
1.555474932e+20
1.547781814e+20
1.598187518e+20
1.598093244e+20
1.541510598e+20
1.558551304e+20
1.573150513e+20
1.61289825e+20
1.65105644e+20
1.673215769e+20
1.681208989e+20
1.668256943e+20
1.669610801e+20
1.679172899e+20
1.729971338e+20
1.726683479e+20
1.783819032e+20
1.852077894e+20
1.87258252e+20
1.898941385e+20
1.972514098e+20
1.560412491e+20
1.634715851e+20
1.610857651e+20
1.646464926e+20
1.606989118e+20
1.522247455e+20
1.600232948e+20
1.587010268e+20
1.603799784e+20
1.619027415e+20
1.565889622e+20
1.604824697e+20
1.606407179e+20
1.553908939e+20
1.602999903e+20
1.606219591e+20
1.59754799e+20
1.6339375e+20
1.665721136e+20
1.724891634e+20
1.721883401e+20
1.692466926e+20
1.699821551e+20
1.741250123e+20
1.813523996e+20
1.824689962e+20
1.855182026e+20
1.883714178e+20
1.865859372e+20
1.908754127e+20
1.609138938e+20
1.62992477e+20
1.595967623e+20
1.574484557e+20
1.570704033e+20
1.581630173e+20
1.600467583e+20
1.613258626e+20
1.589929947e+20
1.645591685e+20
1.60559122e+20
1.635570309e+20
1.591156776e+20
1.606973841e+20
1.55795131e+20
1.575116497e+20
1.632975624e+20
1.660179729e+20
1.693477124e+20
1.677612193e+20
1.668572379e+20
1.69708059e+20
1.720256214e+20
1.737958229e+20
1.78989468e+20
1.795629872e+20
1.885946552e+20
1.872750335e+20
1.862302791e+20
1.992456919e+20
1.634578983e+20
1.632049116e+20
1.576341898e+20
1.572833011e+20
1.67049952e+20
1.677061729e+20
1.583712949e+20
1.606259081e+20
1.584210444e+20
1.625512363e+20
1.652700583e+20
1.678809438e+20
1.602766763e+20
1.632167271e+20
1.620799359e+20
1.664846645e+20
1.626367885e+20
1.62455794e+20
1.654711777e+20
1.706490719e+20
1.713523993e+20
1.788611138e+20
1.713622972e+20
1.75328444e+20
1.751456181e+20
1.782555548e+20
1.928628821e+20
1.863408695e+20
1.887142527e+20
1.924423455e+20
1.634264896e+20
1.571301514e+20
1.595739935e+20
1.637519003e+20
1.635416257e+20
1.636821202e+20
1.675605376e+20
1.685477158e+20
1.669764862e+20
1.660002681e+20
1.645292831e+20
1.641768252e+20
1.63430062e+20
1.64074691e+20
1.641498699e+20
1.655823196e+20
1.681618749e+20
1.69011227e+20
1.663757038e+20
1.697159936e+20
1.718203167e+20
1.724073091e+20
1.728387283e+20
1.748481497e+20
1.747590553e+20
1.81485678e+20
1.889882173e+20
1.860332085e+20
1.934789641e+20
1.919067405e+20
1.652660708e+20
1.63141634e+20
1.616595114e+20
1.625132311e+20
1.697308865e+20
1.669097456e+20
1.636886657e+20
1.67370087e+20
1.652749304e+20
1.664133846e+20
1.603799831e+20
1.616781321e+20
1.648468724e+20
1.679826496e+20
1.610699662e+20
1.673466773e+20
1.649647471e+20
1.714970631e+20
1.725264709e+20
1.699505664e+20
1.735079738e+20
1.736641279e+20
1.797501362e+20
1.819985756e+20
1.768660933e+20
1.847432682e+20
1.913939469e+20
1.920017996e+20
1.94850795e+20
1.946132619e+20
1.673972903e+20
1.675259444e+20
1.676610673e+20
1.681239393e+20
1.683904192e+20
1.697228586e+20
1.701558664e+20
1.689402604e+20
1.673768523e+20
1.68041826e+20
1.658074812e+20
1.647038933e+20
1.668540218e+20
1.665791573e+20
1.709846563e+20
1.710215781e+20
1.717554684e+20
1.734703557e+20
1.760515332e+20
1.751059528e+20
1.72603684e+20
1.788876306e+20
1.788728381e+20
1.796133015e+20
1.798497048e+20
1.849849764e+20
1.892598317e+20
1.940323512e+20
1.997961624e+20
1.939010225e+20
1.683754084e+20
1.695689449e+20
1.688358799e+20
1.694772987e+20
1.660515362e+20
1.682324682e+20
1.691139783e+20
1.689780947e+20
1.661900528e+20
1.704868917e+20
1.677247785e+20
1.714337718e+20
1.728213517e+20
1.621603884e+20
1.722646177e+20
1.752106669e+20
1.737327072e+20
1.728142986e+20
1.784446473e+20
1.745898927e+20
1.743386586e+20
1.793277834e+20
1.824622775e+20
1.797805944e+20
1.821636386e+20
1.82166862e+20
1.89160055e+20
1.898593702e+20
1.994630824e+20
1.945334907e+20
1.676575248e+20
1.674491071e+20
1.706572917e+20
1.724409264e+20
1.679836568e+20
1.722565209e+20
1.663450045e+20
1.691341661e+20
1.71928632e+20
1.681282919e+20
1.727020061e+20
1.705894868e+20
1.737511322e+20
1.680223243e+20
1.710646538e+20
1.770556767e+20
1.746628735e+20
1.784369024e+20
1.787702762e+20
1.816635659e+20
1.797854273e+20
1.810035442e+20
1.877314247e+20
1.855387126e+20
1.848695782e+20
1.890116452e+20
1.891157115e+20
1.950672053e+20
1.925757009e+20
1.916332392e+20
1.754779818e+20
1.697226219e+20
1.721599574e+20
1.690001809e+20
1.676046281e+20
1.714833822e+20
1.665796634e+20
1.759209098e+20
1.764089204e+20
1.70616592e+20
1.763429343e+20
1.72019403e+20
1.757533621e+20
1.747571048e+20
1.72734603e+20
1.759516951e+20
1.732193381e+20
1.728142986e+20
1.795972688e+20
1.841760992e+20
1.816728693e+20
1.806429371e+20
1.856772581e+20
1.853390387e+20
1.862797158e+20
1.890116452e+20
1.936222922e+20
1.897530896e+20
1.977073646e+20
1.944366257e+20
1.749709756e+20
1.728729979e+20
1.762262619e+20
1.705829245e+20
1.679235668e+20
1.708220202e+20
1.721645453e+20
1.780396994e+20
1.757893062e+20
1.73469968e+20
1.734040468e+20
1.730296181e+20
1.761665985e+20
1.812687124e+20
1.778494432e+20
1.787948293e+20
1.769704979e+20
1.753821416e+20
1.799487428e+20
1.855991739e+20
1.84922002e+20
1.848747673e+20
1.825960122e+20
1.904010006e+20
1.96678798e+20
1.927032145e+20
1.881290304e+20
1.895629001e+20
1.900691474e+20
1.933141343e+20
1.772771833e+20
1.763759307e+20
1.788126697e+20
1.777167343e+20
1.769740319e+20
1.774542572e+20
1.763743261e+20
1.726575988e+20
1.705368846e+20
1.724467872e+20
1.783715884e+20
1.762164252e+20
1.801169399e+20
1.794833512e+20
1.761344954e+20
1.813607075e+20
1.806250887e+20
1.749208539e+20
1.828018723e+20
1.8616215e+20
1.860365949e+20
1.817565782e+20
1.864047765e+20
1.885661743e+20
1.86845947e+20
1.947192948e+20
1.922254196e+20
1.982556748e+20
1.950201568e+20
1.963739265e+20
1.871122034e+20
1.805342454e+20
1.738720856e+20
1.807033003e+20
1.808521423e+20
1.743710135e+20
1.765808259e+20
1.795767655e+20
1.762087373e+20
1.767604788e+20
1.750260028e+20
1.790811405e+20
1.770471841e+20
1.775640865e+20
1.796893843e+20
1.908882302e+20
1.899623308e+20
1.836443446e+20
1.874020285e+20
1.902437159e+20
1.898587933e+20
1.789300534e+20
1.892827473e+20
1.863913655e+20
1.871943996e+20
1.89170954e+20
1.918041384e+20
1.917500783e+20
1.955846963e+20
1.978952792e+20
1.872827011e+20
1.856191455e+20
1.836211987e+20
1.806390717e+20
1.8540511e+20
1.799040877e+20
1.759894855e+20
1.820360733e+20
1.787729854e+20
1.796715015e+20
1.771999081e+20
1.807843499e+20
1.783311699e+20
1.83768218e+20
1.809943435e+20
1.863866025e+20
1.848743732e+20
1.82788397e+20
1.878000178e+20
1.897485052e+20
1.867779006e+20
1.81565667e+20
1.824783241e+20
1.876649524e+20
1.87058286e+20
1.917144013e+20
1.914105746e+20
1.932771856e+20
1.929934601e+20
1.913597362e+20
1.852771116e+20
1.849727983e+20
1.854289511e+20
1.804280407e+20
1.838936162e+20
1.851716861e+20
1.814617311e+20
1.850392665e+20
1.869089974e+20
1.838170634e+20
1.849998221e+20
1.82326512e+20
1.835704153e+20
1.881770683e+20
1.842042447e+20
1.843197851e+20
1.846253093e+20
1.82229723e+20
1.875519196e+20
1.883827721e+20
1.867253256e+20
1.916414532e+20
1.825746146e+20
1.851015906e+20
1.901616775e+20
1.936810409e+20
1.916323007e+20
1.940155698e+20
1.946532079e+20
1.927272461e+20
1.880589141e+20
1.852168735e+20
1.832113821e+20
1.783819448e+20
1.851000367e+20
1.826287062e+20
1.843386493e+20
1.801915938e+20
1.853504295e+20
1.862236998e+20
1.828065488e+20
1.832098391e+20
1.854348998e+20
1.850675642e+20
1.839442513e+20
1.831149818e+20
1.850980198e+20
1.843055258e+20
1.89867503e+20
1.873350122e+20
1.846012961e+20
1.884914458e+20
1.88672917e+20
1.922520165e+20
1.911852506e+20
1.930492991e+20
1.891489704e+20
1.869002485e+20
1.928015167e+20
1.901973557e+20
)
;

boundaryField
{
    flow
    {
        type            calculated;
        value           nonuniform List<scalar> 
55
(
1.858897121e+20
1.873540819e+20
1.893768536e+20
1.870179049e+20
1.845108097e+20
1.879238762e+20
1.949950259e+20
1.910748407e+20
1.896161672e+20
1.972514098e+20
1.908754127e+20
1.992456919e+20
1.924423455e+20
1.919067405e+20
1.946132619e+20
1.939010225e+20
1.945334907e+20
1.916332392e+20
1.944366257e+20
1.933141343e+20
1.963739265e+20
1.978952792e+20
1.913597362e+20
1.927272461e+20
1.901973557e+20
1.880589141e+20
1.852168735e+20
1.832113821e+20
1.783819448e+20
1.851000367e+20
1.826287062e+20
1.843386493e+20
1.801915938e+20
1.853504295e+20
1.862236998e+20
1.828065488e+20
1.832098391e+20
1.854348998e+20
1.850675642e+20
1.839442513e+20
1.831149818e+20
1.850980198e+20
1.843055258e+20
1.89867503e+20
1.873350122e+20
1.846012961e+20
1.884914458e+20
1.88672917e+20
1.922520165e+20
1.911852506e+20
1.930492991e+20
1.891489704e+20
1.869002485e+20
1.928015167e+20
1.901973557e+20
)
;
    }
    obstacle
    {
        type            calculated;
        value           nonuniform 0();
    }
    frontAndBack
    {
        type            empty;
    }
    procBoundary3to1
    {
        type            processor;
        value           nonuniform List<scalar> 
36
(
1.889836954e+20
1.640822981e+20
1.626268113e+20
1.697146785e+20
1.743924981e+20
1.820413946e+20
1.820413946e+20
1.576433146e+20
1.551645593e+20
1.554057429e+20
1.605672308e+20
1.609844197e+20
1.609844197e+20
1.440404996e+20
1.520673527e+20
1.546414243e+20
1.55777352e+20
1.574648413e+20
1.574648413e+20
1.444463617e+20
1.484476745e+20
1.502318629e+20
1.503266475e+20
1.467481036e+20
1.547164242e+20
1.547164242e+20
1.484314994e+20
1.472959674e+20
1.468643654e+20
1.509066804e+20
1.474408831e+20
1.451322687e+20
1.451322687e+20
1.497866783e+20
1.511683923e+20
1.511683923e+20
)
;
    }
    procBoundary3to2
    {
        type            processor;
        value           nonuniform List<scalar> 
19
(
1.508837534e+20
1.52678769e+20
1.533246182e+20
1.551329951e+20
1.599568222e+20
1.619478196e+20
1.610480859e+20
1.701835114e+20
1.681167937e+20
1.662995075e+20
1.723749448e+20
1.742145017e+20
1.710921545e+20
1.75537378e+20
1.77096327e+20
1.827976159e+20
1.795550071e+20
1.849311456e+20
1.845169112e+20
)
;
    }
}


// ************************************************************************* //
