/*--------------------------------*- C++ -*----------------------------------*\
  =========                 |
  \\      /  F ield         | OpenFOAM: The Open Source CFD Toolbox
   \\    /   O peration     | Website:  https://openfoam.org
    \\  /    A nd           | Version:  7
     \\/     M anipulation  |
\*---------------------------------------------------------------------------*/
FoamFile
{
    version     2.0;
    format      ascii;
    class       volScalarField;
    location    "0.01";
    object      iDofMean;
}
// * * * * * * * * * * * * * * * * * * * * * * * * * * * * * * * * * * * * * //

dimensions      [0 -3 0 0 0 0 0];

internalField   nonuniform List<scalar> 
654
(
4.895331266e+20
4.864103488e+20
4.957854547e+20
4.959236229e+20
4.96013972e+20
4.965463283e+20
4.911798278e+20
3.974027305e+20
4.119197696e+20
4.290800097e+20
4.43084464e+20
4.581669108e+20
4.765502666e+20
4.834582414e+20
4.926309863e+20
4.966628535e+20
4.947002843e+20
4.966042746e+20
2.86346051e+20
2.990079851e+20
3.162413061e+20
3.345576598e+20
3.51281241e+20
3.665173212e+20
3.884029777e+20
4.076397937e+20
4.250356286e+20
4.396567518e+20
4.501224379e+20
4.645883936e+20
4.76433901e+20
4.85889183e+20
4.887331066e+20
4.919547526e+20
2.249104111e+20
2.282749875e+20
2.324045117e+20
2.381469254e+20
2.449606145e+20
2.528468176e+20
2.641167457e+20
2.757436891e+20
2.884074786e+20
3.022161635e+20
3.179740545e+20
3.364033896e+20
3.541976909e+20
3.739548527e+20
3.936347207e+20
4.11977858e+20
4.290683803e+20
4.445594366e+20
4.568000531e+20
4.687665384e+20
4.791528675e+20
4.813166919e+20
2.064617193e+20
2.076282709e+20
2.090019543e+20
2.109973564e+20
2.132861734e+20
2.141678775e+20
2.165551523e+20
2.193209567e+20
2.221547213e+20
2.281619153e+20
2.343099391e+20
2.397888862e+20
2.495222039e+20
2.593301321e+20
2.699515507e+20
2.832622993e+20
2.990772373e+20
3.124196289e+20
3.297187739e+20
3.481873492e+20
3.671552466e+20
3.847037052e+20
4.037621244e+20
4.18910713e+20
4.349434056e+20
4.496804763e+20
4.620473218e+20
4.712712131e+20
2.02833882e+20
2.038479412e+20
2.050501213e+20
2.059675369e+20
2.071114333e+20
2.08491636e+20
2.092453439e+20
2.110322568e+20
2.126134513e+20
2.149784414e+20
2.208038948e+20
2.240429724e+20
2.2735379e+20
2.308075239e+20
2.382175571e+20
2.468889036e+20
2.552925401e+20
2.637292703e+20
2.763193988e+20
2.923610572e+20
3.067645397e+20
3.208978835e+20
3.381187714e+20
3.573917797e+20
3.76076612e+20
3.965910086e+20
4.128927514e+20
4.260410518e+20
4.403407796e+20
4.571859008e+20
2.045164246e+20
2.042547345e+20
2.037887957e+20
2.038113386e+20
2.03972891e+20
2.040530673e+20
2.0527961e+20
2.065913176e+20
2.097918253e+20
2.110874724e+20
2.123987734e+20
2.152487457e+20
2.205058767e+20
2.256349377e+20
2.292928341e+20
2.362977207e+20
2.42407447e+20
2.508849296e+20
2.617746381e+20
2.723441775e+20
2.867965545e+20
3.00820551e+20
3.137576581e+20
3.306141063e+20
3.480154127e+20
3.671793055e+20
3.85171449e+20
4.063956049e+20
4.220497048e+20
4.344795955e+20
2.005007576e+20
2.005755278e+20
2.024591628e+20
2.028938068e+20
2.032749236e+20
2.041555332e+20
2.059788935e+20
2.061278311e+20
2.065841304e+20
2.089738596e+20
2.130427158e+20
2.168250713e+20
2.178395182e+20
2.217121024e+20
2.236480105e+20
2.27218849e+20
2.338631341e+20
2.39844742e+20
2.458963518e+20
2.54177821e+20
2.641472522e+20
2.783091258e+20
2.900866159e+20
3.059249e+20
3.242880819e+20
3.425413764e+20
3.610365627e+20
3.761219264e+20
3.958324885e+20
4.162176863e+20
2.009449474e+20
2.011811957e+20
2.017397061e+20
2.015404474e+20
2.019945463e+20
2.027769206e+20
2.054485644e+20
2.061940448e+20
2.078185925e+20
2.092620811e+20
2.099101619e+20
2.112615717e+20
2.140416775e+20
2.144417149e+20
2.174432061e+20
2.204487617e+20
2.251155005e+20
2.308290996e+20
2.353004902e+20
2.40504838e+20
2.495839828e+20
2.591810388e+20
2.713691048e+20
2.847380532e+20
2.985190404e+20
3.166729241e+20
3.343296603e+20
3.546361173e+20
3.729573495e+20
3.886567295e+20
2.005231901e+20
1.991743542e+20
1.990713331e+20
2.002650768e+20
2.015785407e+20
2.013610527e+20
2.023651479e+20
2.041083626e+20
2.052114467e+20
2.049579952e+20
2.051169187e+20
2.071767973e+20
2.074495753e+20
2.112231055e+20
2.147482886e+20
2.15518646e+20
2.181621295e+20
2.207729975e+20
2.263741229e+20
2.308195877e+20
2.383487039e+20
2.467029731e+20
2.589585268e+20
2.672964106e+20
2.791255658e+20
2.930183122e+20
3.084431357e+20
3.267062407e+20
3.439851844e+20
3.65625645e+20
2.004155088e+20
2.018004249e+20
2.017943485e+20
2.026368964e+20
2.039682672e+20
2.053105841e+20
2.050731086e+20
2.039144525e+20
2.041866987e+20
2.044055737e+20
2.057802245e+20
2.071231112e+20
2.080300724e+20
2.095716464e+20
2.103484261e+20
2.129628482e+20
2.156359383e+20
2.187894541e+20
2.22859398e+20
2.273114219e+20
2.31456125e+20
2.361552179e+20
2.435790361e+20
2.541827994e+20
2.660532119e+20
2.755108299e+20
2.878946773e+20
3.059867859e+20
3.227641489e+20
3.399792009e+20
2.001104077e+20
2.004263707e+20
2.011932822e+20
1.996962085e+20
1.996926404e+20
1.995446365e+20
1.991737853e+20
2.00022128e+20
2.017797375e+20
2.013408351e+20
2.026234639e+20
2.044048097e+20
2.033910038e+20
2.051082434e+20
2.075785144e+20
2.090459805e+20
2.11584886e+20
2.13274484e+20
2.155560066e+20
2.204618993e+20
2.234910144e+20
2.284180727e+20
2.321473938e+20
2.391426226e+20
2.48113431e+20
2.586845227e+20
2.699293222e+20
2.821292055e+20
2.974784263e+20
3.1572875e+20
2.041709425e+20
2.023970501e+20
2.01726044e+20
2.024488039e+20
2.023458411e+20
2.033730782e+20
2.035994522e+20
2.033374626e+20
2.03347838e+20
2.045929166e+20
2.036111609e+20
2.033409114e+20
2.052161295e+20
2.067795382e+20
2.059285643e+20
2.076294511e+20
2.091451054e+20
2.097123083e+20
2.113745195e+20
2.150719387e+20
2.21009475e+20
2.244354876e+20
2.294459528e+20
2.341885897e+20
2.381444663e+20
2.467638301e+20
2.568585679e+20
2.67188147e+20
2.794639694e+20
2.944355377e+20
2.000475928e+20
2.012263963e+20
2.01716937e+20
2.026231335e+20
2.023273519e+20
2.012865302e+20
2.025200212e+20
2.013416412e+20
2.018321664e+20
2.022871588e+20
2.020327829e+20
2.033506719e+20
2.025940464e+20
2.045924724e+20
2.055135772e+20
2.07705068e+20
2.094805769e+20
2.14642977e+20
2.163003012e+20
2.171413917e+20
2.182966056e+20
2.222559321e+20
2.238932861e+20
2.270651465e+20
2.346163981e+20
2.390455937e+20
2.465760235e+20
2.549992436e+20
2.639109072e+20
2.750055475e+20
1.999533689e+20
1.997303032e+20
1.992443688e+20
1.98585995e+20
1.972936663e+20
1.985525969e+20
1.982398443e+20
1.996579613e+20
1.988961485e+20
1.990638977e+20
2.004350321e+20
2.007738947e+20
2.02840022e+20
2.036006051e+20
2.03983625e+20
2.055727157e+20
2.067256563e+20
2.068523154e+20
2.093328761e+20
2.122883403e+20
2.14526979e+20
2.163324342e+20
2.203412944e+20
2.245557518e+20
2.266782493e+20
2.304044629e+20
2.368256173e+20
2.442479483e+20
2.512878071e+20
2.607208078e+20
1.988047532e+20
1.984918492e+20
1.985340192e+20
1.984162517e+20
1.997342426e+20
1.99544638e+20
1.998214423e+20
1.989343557e+20
2.000400516e+20
1.997412145e+20
2.002026324e+20
2.013156035e+20
2.005278662e+20
2.022070315e+20
2.018386937e+20
2.026640516e+20
2.031981403e+20
2.050789131e+20
2.073067406e+20
2.086759199e+20
2.090066053e+20
2.107748426e+20
2.136064148e+20
2.175942051e+20
2.191375543e+20
2.217853117e+20
2.257337705e+20
2.31303879e+20
2.393365045e+20
2.480485766e+20
2.029954075e+20
2.019676601e+20
2.019355065e+20
2.005541008e+20
1.996233059e+20
1.993071056e+20
1.993568192e+20
2.007551894e+20
2.010695628e+20
2.016963063e+20
2.021150896e+20
2.022282121e+20
2.031991425e+20
2.036601171e+20
2.054035807e+20
2.052299265e+20
2.053634455e+20
2.037770543e+20
2.041383196e+20
2.038489357e+20
2.071349358e+20
2.081657425e+20
2.086903272e+20
2.105355223e+20
2.134098913e+20
2.162973964e+20
2.195365288e+20
2.243116235e+20
2.294401277e+20
2.347153908e+20
1.986791233e+20
1.987314045e+20
1.99836328e+20
2.006550278e+20
2.02405931e+20
2.023018602e+20
2.028860891e+20
2.014409579e+20
2.007025621e+20
2.016146456e+20
2.019843648e+20
2.023892607e+20
2.026038869e+20
2.021971144e+20
2.019986887e+20
2.02396876e+20
2.024306276e+20
2.042229655e+20
2.048360941e+20
2.047559486e+20
2.047690614e+20
2.063096766e+20
2.059728363e+20
2.075890054e+20
2.086132458e+20
2.112874095e+20
2.139157709e+20
2.164187631e+20
2.211075253e+20
2.268750183e+20
2.005231901e+20
2.006614046e+20
2.005102508e+20
2.003384808e+20
2.011394206e+20
2.015659784e+20
2.028907823e+20
2.034462412e+20
2.049921986e+20
2.027050761e+20
2.022264478e+20
2.01632822e+20
2.01703622e+20
2.008233766e+20
2.015887015e+20
2.013231391e+20
2.012310656e+20
2.010349448e+20
2.002152664e+20
2.012269319e+20
2.03286445e+20
2.041142158e+20
2.045445514e+20
2.083984876e+20
2.101104942e+20
2.131606612e+20
2.152239566e+20
2.171851145e+20
2.19758278e+20
2.23587309e+20
1.994643127e+20
2.006659274e+20
2.00824446e+20
2.006917305e+20
1.998035757e+20
2.004575006e+20
1.995680122e+20
1.998187622e+20
1.999637913e+20
2.000294344e+20
2.020182548e+20
2.020085988e+20
2.011182022e+20
2.023706896e+20
2.022686786e+20
2.019935945e+20
2.015157099e+20
2.03126124e+20
2.02582537e+20
2.035778738e+20
2.025241111e+20
2.036793679e+20
2.059353923e+20
2.061535237e+20
2.073609983e+20
2.083374501e+20
2.125743301e+20
2.153000019e+20
2.181267569e+20
2.202369141e+20
2.005904918e+20
2.001822942e+20
1.994356172e+20
1.99205329e+20
2.006494567e+20
1.999218931e+20
2.000044778e+20
1.987735548e+20
1.998541673e+20
2.004713716e+20
1.99902451e+20
2.005884463e+20
2.001097087e+20
1.99276062e+20
1.990987777e+20
1.998158731e+20
2.004940502e+20
2.014398558e+20
2.009233817e+20
2.019775664e+20
2.037648774e+20
2.040399732e+20
2.042931302e+20
2.045183697e+20
2.046387268e+20
2.059478181e+20
2.064879475e+20
2.072561087e+20
2.105337012e+20
2.12869475e+20
1.99746977e+20
2.001822956e+20
2.015712239e+20
2.00893586e+20
2.015045839e+20
2.006717457e+20
2.015156811e+20
2.010673323e+20
1.999828549e+20
1.992416348e+20
1.985903612e+20
1.979433439e+20
2.009411025e+20
2.015226431e+20
2.034786408e+20
2.02406958e+20
2.012005716e+20
2.010964516e+20
2.016263251e+20
2.022382011e+20
2.019142395e+20
2.025710296e+20
2.02688312e+20
2.041514062e+20
2.050525123e+20
2.058928841e+20
2.073970244e+20
2.080783964e+20
2.102965946e+20
2.11165788e+20
2.00411022e+20
2.001461363e+20
2.006969457e+20
2.001045102e+20
1.994430362e+20
1.993909415e+20
1.991878648e+20
1.998376784e+20
1.997016469e+20
2.00365691e+20
1.992004104e+20
1.996709559e+20
1.988011269e+20
1.970493214e+20
1.968638491e+20
1.987118918e+20
1.994469761e+20
2.013014674e+20
2.00546064e+20
2.015553354e+20
2.004999724e+20
2.010225404e+20
2.019287006e+20
2.025324401e+20
2.040289376e+20
2.038548302e+20
2.056065864e+20
2.049178978e+20
2.060173874e+20
2.086586966e+20
1.975305075e+20
1.96896321e+20
1.964667154e+20
1.958242243e+20
1.959115984e+20
1.962471479e+20
1.965643782e+20
1.960399411e+20
1.955168681e+20
1.958118161e+20
1.97418678e+20
1.981873569e+20
1.985256376e+20
1.982792369e+20
1.979838126e+20
1.975776627e+20
1.965548227e+20
1.971293648e+20
1.971398822e+20
1.974268533e+20
1.990383877e+20
1.991028397e+20
1.991309707e+20
1.982044087e+20
1.985136102e+20
1.983339564e+20
1.982729983e+20
1.998610971e+20
2.015349422e+20
2.03388095e+20
)
;

boundaryField
{
    flow
    {
        type            calculated;
        value           nonuniform List<scalar> 
55
(
4.895331266e+20
4.911798278e+20
4.966042746e+20
4.919547526e+20
4.813166919e+20
4.712712131e+20
4.571859008e+20
4.344795955e+20
4.162176863e+20
3.886567295e+20
3.65625645e+20
3.399792009e+20
3.1572875e+20
2.944355377e+20
2.750055475e+20
2.607208078e+20
2.480485766e+20
2.347153908e+20
2.268750183e+20
2.23587309e+20
2.202369141e+20
2.12869475e+20
2.11165788e+20
2.086586966e+20
2.03388095e+20
1.975305075e+20
1.96896321e+20
1.964667154e+20
1.958242243e+20
1.959115984e+20
1.962471479e+20
1.965643782e+20
1.960399411e+20
1.955168681e+20
1.958118161e+20
1.97418678e+20
1.981873569e+20
1.985256376e+20
1.982792369e+20
1.979838126e+20
1.975776627e+20
1.965548227e+20
1.971293648e+20
1.971398822e+20
1.974268533e+20
1.990383877e+20
1.991028397e+20
1.991309707e+20
1.982044087e+20
1.985136102e+20
1.983339564e+20
1.982729983e+20
1.998610971e+20
2.015349422e+20
2.03388095e+20
)
;
    }
    obstacle
    {
        type            calculated;
        value           nonuniform 0();
    }
    frontAndBack
    {
        type            empty;
    }
    procBoundary3to1
    {
        type            processor;
        value           nonuniform List<scalar> 
36
(
4.742968254e+20
4.940163718e+20
4.944999889e+20
4.934513728e+20
4.904313535e+20
4.876266048e+20
4.876266048e+20
4.202709674e+20
4.398633718e+20
4.535641626e+20
4.675097659e+20
4.803359335e+20
4.803359335e+20
3.056404505e+20
3.223781499e+20
3.437396661e+20
3.590316102e+20
3.796574753e+20
3.796574753e+20
2.258731962e+20
2.34269962e+20
2.417101837e+20
2.505574265e+20
2.615392619e+20
2.74171965e+20
2.74171965e+20
2.049772662e+20
2.069630604e+20
2.090712904e+20
2.115841976e+20
2.147645229e+20
2.202593939e+20
2.202593939e+20
2.04722818e+20
2.048558841e+20
2.048558841e+20
)
;
    }
    procBoundary3to2
    {
        type            processor;
        value           nonuniform List<scalar> 
19
(
2.03438068e+20
2.030550125e+20
2.014470705e+20
2.003424441e+20
1.991398297e+20
1.991131049e+20
2.007655896e+20
2.026942278e+20
2.001152848e+20
2.014871577e+20
1.978748559e+20
2.025160624e+20
1.981064708e+20
2.000083842e+20
1.993759001e+20
2.013758044e+20
1.996654174e+20
2.006275101e+20
1.969973917e+20
)
;
    }
}


// ************************************************************************* //
