/*--------------------------------*- C++ -*----------------------------------*\
  =========                 |
  \\      /  F ield         | OpenFOAM: The Open Source CFD Toolbox
   \\    /   O peration     | Website:  https://openfoam.org
    \\  /    A nd           | Version:  7
     \\/     M anipulation  |
\*---------------------------------------------------------------------------*/
FoamFile
{
    version     2.0;
    format      ascii;
    class       volScalarField;
    location    "0.01";
    object      linearKE;
}
// * * * * * * * * * * * * * * * * * * * * * * * * * * * * * * * * * * * * * //

dimensions      [1 -1 -2 0 0 0 0];

internalField   nonuniform List<scalar> 
654
(
0.3978319854
0.5657379123
0.2600491673
0.4954960457
1.255868829
1.006936449
1.028376463
0.448822228
0.875097474
0.3842902236
0.6021176599
0.5313291353
0.4920280157
0.7046330404
0.451782912
0.1516654264
0.5136525681
0.5693453559
0.9705292712
0.1073006732
1.191606025
0.5614061157
0.5145049095
0.7703813004
1.034234648
1.14146874
0.2857051507
0.1829523031
0.3280545589
0.4593909582
0.5048459769
0.1321095861
0.6063483727
0.7326566058
0.2036548172
0.4484519512
1.321232736
0.4286153927
0.3534143331
0.5362689223
0.6115236882
0.4288722816
0.3913757042
1.216463697
0.8622254192
0.5805866881
0.804530885
1.292121867
1.471658199
0.8332172153
0.6533280464
0.3657757192
0.6749503286
1.052911138
1.305727052
0.456363118
0.9491934235
0.8448609355
0.2842213042
0.6650037418
0.7892486138
0.4978337673
0.584245676
0.4474409706
0.4728780463
0.2138984643
0.7224505741
0.1378409276
0.8826736892
0.6754297602
0.7951901278
0.9162849074
1.606941979
0.7457909403
0.3983266041
1.209918583
0.6667868312
0.1550831645
0.5955882699
0.4634071632
0.6585684043
0.6677545008
0.4098643231
1.123915303
0.6265677555
1.514740513
0.2907927168
0.1931253428
0.5394152487
0.8646453874
0.8494292532
1.285454415
0.4000377433
0.684968104
0.7619007182
0.2749416497
0.9212476171
0.2144374197
0.5803200395
0.4266688248
0.2759628694
0.1644357144
0.441655762
0.5153736676
0.4366918307
0.9169638531
0.9125592008
0.4245714286
0.6173222139
0.2319204255
0.8504663504
0.3856864506
0.6789966567
1.254256097
1.550554126
0.484203242
0.7715862752
0.4905578182
0.6192702063
1.04521264
0.4450129148
0.7645444534
0.6453187529
0.4749550035
0.7481409557
0.2414950413
0.6689216604
1.006949561
0.6938846503
0.6180980484
0.2952178228
0.7428735142
0.5260814689
0.2801160575
0.4605734684
0.4940807588
0.5911819581
1.526847006
0.3750068321
0.4312169658
0.3512196428
0.1620371236
0.3193401486
0.9012471021
0.581595217
0.2159035659
0.5153122608
0.4594821454
0.4871894126
0.8668931598
0.8434445943
0.5296972575
0.1259689067
0.2305282154
0.5755875003
0.6195385701
0.4541896972
1.142277417
0.5274064219
0.8430055206
0.3934351277
0.3378276467
0.3519253923
0.3113766815
0.616389427
0.2309766076
0.179042238
0.2068651692
0.5383234294
0.9482740079
0.3489133595
0.2472446635
0.5836265747
0.5695001074
0.7184745973
0.8527526284
0.6008694445
0.9968573076
0.5506439737
0.5144056767
0.5532300158
0.3026321407
0.5373882
1.00820602
0.4934951328
1.308714237
0.8274899835
0.3512220657
0.2104949511
1.27063024
0.6814595952
0.3383692706
1.516771968
0.5472360802
0.8422689258
0.6677202338
0.3033963339
1.158758848
1.839733973
0.4590979163
0.4456146771
0.6163729997
0.6278028682
0.422448948
0.3730734878
0.8800738457
1.743671913
0.6540356952
0.7058559571
0.1635765056
0.6198340733
0.7166414476
0.3667351476
0.7644453556
0.8823026696
0.4438054115
0.8097005171
0.4205475703
1.061713855
0.332235156
0.1413677293
1.248533257
0.6301638143
0.299059297
0.698587125
0.4996414612
0.7196043306
0.6359748807
0.1958301078
1.124901759
0.5491347472
0.5644622482
0.8900014736
0.6132567319
0.7219089088
0.3574800949
0.7113328005
0.6365787979
1.023255335
0.5152268945
0.6058629483
1.303957017
1.399552989
0.6820049117
0.9805918927
0.427898927
0.2491818993
0.4415840372
0.3519748645
0.7367269312
0.7566897735
0.2143143495
0.4294125438
0.2610232499
0.8692216895
0.6648497023
0.3953723885
0.9825729217
1.147661813
0.3966735932
0.4178239574
0.6329884297
0.3694348244
0.3453842886
1.047465874
0.243392325
0.6169809841
0.6212478141
1.146530188
1.544518153
0.2870936886
0.6543555285
0.9732958389
0.7591624886
0.3595189177
1.382873023
0.743647094
1.707457166
0.8711126769
0.9660124983
0.8426568038
0.7125836314
0.5573452495
0.5166499964
1.577814229
0.5913857975
1.222610925
0.3740625876
0.8162441508
0.6138467468
1.182666821
0.6709708059
0.9226149959
0.2897739948
1.780016591
0.2949242968
0.5120256909
0.4798176794
0.5559300136
0.3626609087
0.4657750668
0.7916783211
0.7585520487
0.7023599542
0.5228927036
0.8301357907
0.6324807157
0.5360047756
0.770166895
0.8034912418
0.7835137447
0.9265547627
0.4299233672
0.7445935279
0.5858235471
0.6675262195
0.7493703283
0.4780991463
0.9894788955
0.4313227857
0.5475856636
0.5980752955
0.9999978786
0.6840977879
0.7428474555
0.9947617203
0.7281951631
0.3820790764
1.016752392
0.5672637263
0.4748403176
0.7632423091
0.7685114185
0.7469029945
0.8501046515
0.985012101
0.7394743108
1.531474079
0.8120968046
0.5872401853
1.342280297
1.040759753
0.7076689704
0.3309242253
1.063341837
0.6073607988
1.182826895
0.5690246187
0.3645841822
1.101480227
0.266546301
0.2390026129
0.3435809766
0.3641330877
1.110320926
0.7091488571
0.2752311448
0.6681376379
0.4189640044
0.3829278906
0.4618448939
0.6604695323
0.6378428099
1.150319669
0.722838401
0.2974356954
1.546159473
1.072484487
1.012221751
0.8569561997
0.7385874329
0.9540555145
0.6589200903
0.4899874978
1.099853206
0.5182513455
0.3103046778
0.6871506907
0.6214587322
0.3881707304
0.4461909801
0.3767692582
0.3656437629
0.3531552007
0.6298966139
0.5929969794
0.6104725367
0.5119556398
0.7261315286
0.6662185647
0.1249184936
0.5854598012
0.2877529835
1.103035622
0.7456288436
0.6504526444
1.255658918
0.2014383645
0.305947574
0.01111806133
1.148969521
0.6143981227
0.6292603564
0.2649069743
0.2246942557
0.6201988138
0.3628307655
0.3308511106
0.5048021538
0.7314104214
0.419662223
0.8897769246
0.9138000534
0.08440510631
0.5803339017
0.3079146688
1.095896157
0.628949488
1.353725485
0.4701616957
0.3406480272
0.5969569666
1.011626697
0.2662405551
0.6049796065
1.263883784
0.5005595047
0.4747907362
0.2599686707
0.650387285
0.4818321994
0.7305733086
0.2864726057
0.9639671459
0.3298533302
0.1553582932
0.7082996325
0.2740297051
0.5835956962
0.2209488578
0.7677736999
0.649459716
0.2791856135
0.5168381337
0.319308203
0.5552280958
0.5306590834
0.563407172
0.297967477
1.028061344
0.4953777926
0.6143423624
1.633232871
0.8447259555
0.7925971154
0.6126898129
0.9584918779
0.6771295379
1.183300135
1.084874962
0.6819721999
1.210675345
0.2862650762
0.5044833861
0.3592319911
0.4578456592
0.7460266426
0.1942520079
0.7678001696
0.475527237
0.838475802
0.8387662479
0.5748220801
0.9728357101
0.76639002
0.5163176236
0.8887508796
0.6043512983
0.523406006
0.6772046807
0.5891468512
0.511141234
0.604615771
0.5891582267
0.5092654432
0.2568649036
0.6112334425
0.6025548873
1.18452818
0.400799912
0.3036777613
0.2945401663
0.6649797978
0.2684104773
0.3687022036
1.363010578
1.152712391
0.5782658811
0.4348135601
0.9039506411
1.515212664
0.6619398175
0.819092597
0.9884862705
0.799645953
0.4013193037
0.8463313798
0.5532880466
0.552138694
0.3722661564
0.4076538451
0.5837336388
1.036035171
0.5391193251
0.1743180788
0.876746261
1.195959985
0.2076679526
1.006588666
0.545100614
0.6674908732
0.3568643369
0.3349882391
0.3839374327
0.4830429209
0.4601282112
0.4567240271
1.206890025
0.5425175397
0.3972909855
0.5472777773
0.7659906532
0.6805654882
0.4439337672
0.5418863209
0.8163263803
0.5231054406
0.2511731395
0.822159082
0.4131212438
0.5593018596
0.8581473644
0.7128529569
0.4310377154
1.059855413
0.5677015495
1.233104865
0.7151309002
0.2938524077
0.7391585092
0.5085771287
0.5919378247
0.6575794581
0.3597109081
0.9376715166
0.1382504055
0.5650348109
0.05075492402
0.8161975842
0.6821921299
0.4789095331
0.5554539294
0.5340568412
0.3336040291
0.4826323529
0.9233722351
0.6995779869
0.3528179594
0
0.4741761514
0.1341538545
0.6811848496
1.077656493
0.09426793065
0.6606762908
0.6793212845
0.9186803406
0.3093170155
0.3779860147
0.9539171191
0.1996999873
0.7154422524
0.3607597415
0.4340658209
0.73851675
1.211094178
0.9248851824
1.241645756
0.7114835007
0.5239291882
0.2045215561
0.465357049
1.118270662
0.7191627715
0.7312899522
0.7567942478
1.009402776
0.5164162769
0.4011118543
1.105055921
1.035395233
0.4776982529
0.07493401293
0.391516792
1.048089299
1.197317478
0.7144557015
1.033829644
0.3447522279
0.569303991
0.8496765295
0.5245364139
0.9914019158
1.189465238
0.8836600626
0.3579410686
0.2549795745
0.7005696487
0.8072614043
1.374912827
1.330147697
0.3429703365
0.9323396791
0.4787813404
0.3695122917
0.3290422019
0.5833780889
0.5099582984
0.7484273143
0.5756111817
0.5369598204
0.3912896166
0.3506559258
1.029220706
0.9999884087
0.5843707
0.7244264177
1.170393525
0.4669247393
0.3466899088
0.9729517144
0.3775358635
1.145027882
0.2974192762
0.2535219482
0.5498858614
0.7149695684
0.3901842508
0.6830397862
0.5994253609
0.393382311
1.118447869
0.2596980263
0.4937924182
)
;

boundaryField
{
    flow
    {
        type            zeroGradient;
    }
    obstacle
    {
        type            calculated;
        value           nonuniform 0();
    }
    frontAndBack
    {
        type            empty;
    }
    procBoundary3to1
    {
        type            processor;
        value           nonuniform List<scalar> 
36
(
0.3529154009
0.5024253898
1.290567148
0.6065625876
0.0807814492
0.3908881688
0.3908881688
1.12311823
1.174219066
0.8989331662
0.8441980471
0.3766552076
0.3766552076
0.7068675522
0.9603581191
0.4722407759
0.3431146575
0.6746052826
0.6746052826
0.765270847
0.4847273016
0.3988486546
0.3236849965
0.5140140126
1.247937908
1.247937908
0.6948220659
0.8137594505
0.9273069922
1.211595028
0.3625118234
0.6318456991
0.6318456991
1.057533072
0.3821194769
0.3821194769
)
;
    }
    procBoundary3to2
    {
        type            processor;
        value           nonuniform List<scalar> 
19
(
0.6900368458
0.923027341
1.136669486
0.51250955
0.4912257969
0.5694061085
0.4751682694
0.6859680931
0.9978835397
0.738594588
0.5246449771
0.4176851098
1.133553292
0.4628163079
0.7661953105
0.3325231008
0
0.2217679999
0.2370720514
)
;
    }
}


// ************************************************************************* //
