/*--------------------------------*- C++ -*----------------------------------*\
  =========                 |
  \\      /  F ield         | OpenFOAM: The Open Source CFD Toolbox
   \\    /   O peration     | Website:  https://openfoam.org
    \\  /    A nd           | Version:  7
     \\/     M anipulation  |
\*---------------------------------------------------------------------------*/
FoamFile
{
    version     2.0;
    format      ascii;
    class       volScalarField;
    location    "0.01";
    object      rhoNMean;
}
// * * * * * * * * * * * * * * * * * * * * * * * * * * * * * * * * * * * * * //

dimensions      [0 -3 0 0 0 0 0];

internalField   nonuniform List<scalar> 
654
(
2.447665633e+20
2.432051744e+20
2.478927274e+20
2.479618114e+20
2.48006986e+20
2.482731642e+20
2.455899139e+20
1.987013652e+20
2.059598848e+20
2.145400048e+20
2.21542232e+20
2.290834554e+20
2.382751333e+20
2.417291207e+20
2.463154932e+20
2.483314267e+20
2.473501421e+20
2.483021373e+20
1.431730255e+20
1.495039925e+20
1.581206531e+20
1.672788299e+20
1.756406205e+20
1.832586606e+20
1.942014889e+20
2.038198968e+20
2.125178143e+20
2.198283759e+20
2.250612189e+20
2.322941968e+20
2.382169505e+20
2.429445915e+20
2.443665533e+20
2.459773763e+20
1.124552055e+20
1.141374937e+20
1.162022558e+20
1.190734627e+20
1.224803072e+20
1.264234088e+20
1.320583729e+20
1.378718445e+20
1.442037393e+20
1.511080817e+20
1.589870272e+20
1.682016948e+20
1.770988454e+20
1.869774264e+20
1.968173603e+20
2.05988929e+20
2.145341901e+20
2.222797183e+20
2.284000266e+20
2.343832692e+20
2.395764338e+20
2.40658346e+20
1.032308597e+20
1.038141355e+20
1.045009772e+20
1.054986782e+20
1.066430867e+20
1.070839388e+20
1.082775762e+20
1.096604783e+20
1.110773607e+20
1.140809577e+20
1.171549695e+20
1.198944431e+20
1.247611019e+20
1.29665066e+20
1.349757754e+20
1.416311497e+20
1.495386187e+20
1.562098145e+20
1.648593869e+20
1.740936746e+20
1.835776233e+20
1.923518526e+20
2.018810622e+20
2.094553565e+20
2.174717028e+20
2.248402381e+20
2.310236609e+20
2.356356065e+20
1.01416941e+20
1.019239706e+20
1.025250606e+20
1.029837684e+20
1.035557166e+20
1.04245818e+20
1.046226719e+20
1.055161284e+20
1.063067257e+20
1.074892207e+20
1.104019474e+20
1.120214862e+20
1.13676895e+20
1.15403762e+20
1.191087785e+20
1.234444518e+20
1.276462701e+20
1.318646351e+20
1.381596994e+20
1.461805286e+20
1.533822699e+20
1.604489417e+20
1.690593857e+20
1.786958899e+20
1.88038306e+20
1.982955043e+20
2.064463757e+20
2.130205259e+20
2.201703898e+20
2.285929504e+20
1.022582123e+20
1.021273673e+20
1.018943979e+20
1.019056693e+20
1.019864455e+20
1.020265336e+20
1.02639805e+20
1.032956588e+20
1.048959127e+20
1.055437362e+20
1.061993867e+20
1.076243728e+20
1.102529383e+20
1.128174688e+20
1.14646417e+20
1.181488603e+20
1.212037235e+20
1.254424648e+20
1.308873191e+20
1.361720887e+20
1.433982772e+20
1.504102755e+20
1.568788291e+20
1.653070532e+20
1.740077064e+20
1.835896528e+20
1.925857245e+20
2.031978024e+20
2.110248524e+20
2.172397978e+20
1.002503788e+20
1.002877639e+20
1.012295814e+20
1.014469034e+20
1.016374618e+20
1.020777666e+20
1.029894468e+20
1.030639156e+20
1.032920652e+20
1.044869298e+20
1.065213579e+20
1.084125357e+20
1.089197591e+20
1.108560512e+20
1.118240052e+20
1.136094245e+20
1.16931567e+20
1.19922371e+20
1.229481759e+20
1.270889105e+20
1.320736261e+20
1.391545629e+20
1.45043308e+20
1.5296245e+20
1.621440409e+20
1.712706882e+20
1.805182813e+20
1.880609632e+20
1.979162442e+20
2.081088431e+20
1.004724737e+20
1.005905979e+20
1.00869853e+20
1.007702237e+20
1.009972731e+20
1.013884603e+20
1.027242822e+20
1.030970224e+20
1.039092963e+20
1.046310405e+20
1.04955081e+20
1.056307858e+20
1.070208388e+20
1.072208575e+20
1.087216031e+20
1.102243809e+20
1.125577502e+20
1.154145498e+20
1.176502451e+20
1.20252419e+20
1.247919914e+20
1.295905194e+20
1.356845524e+20
1.423690266e+20
1.492595202e+20
1.58336462e+20
1.671648302e+20
1.773180587e+20
1.864786748e+20
1.943283648e+20
1.00261595e+20
9.958717711e+19
9.953566656e+19
1.001325384e+20
1.007892703e+20
1.006805264e+20
1.011825739e+20
1.020541813e+20
1.026057234e+20
1.024789976e+20
1.025584593e+20
1.035883987e+20
1.037247876e+20
1.056115527e+20
1.073741443e+20
1.07759323e+20
1.090810647e+20
1.103864988e+20
1.131870614e+20
1.154097938e+20
1.191743519e+20
1.233514866e+20
1.294792634e+20
1.336482053e+20
1.395627829e+20
1.465091561e+20
1.542215679e+20
1.633531203e+20
1.719925922e+20
1.828128225e+20
1.002077544e+20
1.009002124e+20
1.008971742e+20
1.013184482e+20
1.019841336e+20
1.026552921e+20
1.025365543e+20
1.019572263e+20
1.020933493e+20
1.022027868e+20
1.028901122e+20
1.035615556e+20
1.040150362e+20
1.047858232e+20
1.051742131e+20
1.064814241e+20
1.078179691e+20
1.09394727e+20
1.11429699e+20
1.136557109e+20
1.157280625e+20
1.18077609e+20
1.217895181e+20
1.270913997e+20
1.33026606e+20
1.37755415e+20
1.439473387e+20
1.52993393e+20
1.613820745e+20
1.699896004e+20
1.000552038e+20
1.002131854e+20
1.005966411e+20
9.984810426e+19
9.984632022e+19
9.977231826e+19
9.958689263e+19
1.00011064e+20
1.008898687e+20
1.006704175e+20
1.013117319e+20
1.022024048e+20
1.016955019e+20
1.025541217e+20
1.037892572e+20
1.045229903e+20
1.05792443e+20
1.06637242e+20
1.077780033e+20
1.102309497e+20
1.117455072e+20
1.142090364e+20
1.160736969e+20
1.195713113e+20
1.240567155e+20
1.293422614e+20
1.349646611e+20
1.410646028e+20
1.487392131e+20
1.57864375e+20
1.020854713e+20
1.01198525e+20
1.00863022e+20
1.01224402e+20
1.011729206e+20
1.016865391e+20
1.017997261e+20
1.016687313e+20
1.01673919e+20
1.022964583e+20
1.018055804e+20
1.016704557e+20
1.026080648e+20
1.033897691e+20
1.029642821e+20
1.038147255e+20
1.045725527e+20
1.048561541e+20
1.056872598e+20
1.075359694e+20
1.105047375e+20
1.122177438e+20
1.147229764e+20
1.170942948e+20
1.190722331e+20
1.233819151e+20
1.284292839e+20
1.335940735e+20
1.397319847e+20
1.472177688e+20
1.000237964e+20
1.006131981e+20
1.008584685e+20
1.013115667e+20
1.01163676e+20
1.006432651e+20
1.012600106e+20
1.006708206e+20
1.009160832e+20
1.011435794e+20
1.010163915e+20
1.01675336e+20
1.012970232e+20
1.022962362e+20
1.027567886e+20
1.03852534e+20
1.047402885e+20
1.073214885e+20
1.081501506e+20
1.085706959e+20
1.091483028e+20
1.111279661e+20
1.119466431e+20
1.135325733e+20
1.17308199e+20
1.195227968e+20
1.232880117e+20
1.274996218e+20
1.319554536e+20
1.375027737e+20
9.997668447e+19
9.986515158e+19
9.96221844e+19
9.929299752e+19
9.864683316e+19
9.927629847e+19
9.911992215e+19
9.982898063e+19
9.944807424e+19
9.953194883e+19
1.00217516e+20
1.003869473e+20
1.01420011e+20
1.018003026e+20
1.019918125e+20
1.027863579e+20
1.033628282e+20
1.034261577e+20
1.046664381e+20
1.061441701e+20
1.072634895e+20
1.081662171e+20
1.101706472e+20
1.122778759e+20
1.133391246e+20
1.152022314e+20
1.184128086e+20
1.221239741e+20
1.256439036e+20
1.303604039e+20
9.940237658e+19
9.924592462e+19
9.926700959e+19
9.920812583e+19
9.986712132e+19
9.9772319e+19
9.991072117e+19
9.946717786e+19
1.000200258e+20
9.987060724e+19
1.001013162e+20
1.006578018e+20
1.002639331e+20
1.011035158e+20
1.009193468e+20
1.013320258e+20
1.015990701e+20
1.025394566e+20
1.036533703e+20
1.0433796e+20
1.045033027e+20
1.053874213e+20
1.068032074e+20
1.087971025e+20
1.095687771e+20
1.108926558e+20
1.128668853e+20
1.156519395e+20
1.196682522e+20
1.240242883e+20
1.014977038e+20
1.0098383e+20
1.009677533e+20
1.002770504e+20
9.981165297e+19
9.965355278e+19
9.96784096e+19
1.003775947e+20
1.005347814e+20
1.008481532e+20
1.010575448e+20
1.011141061e+20
1.015995712e+20
1.018300586e+20
1.027017903e+20
1.026149632e+20
1.026817228e+20
1.018885271e+20
1.020691598e+20
1.019244678e+20
1.035674679e+20
1.040828712e+20
1.043451636e+20
1.052677612e+20
1.067049456e+20
1.081486982e+20
1.097682644e+20
1.121558117e+20
1.147200639e+20
1.173576954e+20
9.933956166e+19
9.936570224e+19
9.991816401e+19
1.003275139e+20
1.012029655e+20
1.011509301e+20
1.014430446e+20
1.00720479e+20
1.00351281e+20
1.008073228e+20
1.009921824e+20
1.011946303e+20
1.013019435e+20
1.010985572e+20
1.009993443e+20
1.01198438e+20
1.012153138e+20
1.021114827e+20
1.024180471e+20
1.023779743e+20
1.023845307e+20
1.031548383e+20
1.029864181e+20
1.037945027e+20
1.043066229e+20
1.056437047e+20
1.069578855e+20
1.082093815e+20
1.105537626e+20
1.134375092e+20
1.00261595e+20
1.003307023e+20
1.002551254e+20
1.001692404e+20
1.005697103e+20
1.007829892e+20
1.014453912e+20
1.017231206e+20
1.024960993e+20
1.01352538e+20
1.011132239e+20
1.00816411e+20
1.00851811e+20
1.004116883e+20
1.007943508e+20
1.006615696e+20
1.006155328e+20
1.005174724e+20
1.001076332e+20
1.006134659e+20
1.016432225e+20
1.020571079e+20
1.022722757e+20
1.041992438e+20
1.050552471e+20
1.065803306e+20
1.076119783e+20
1.085925573e+20
1.09879139e+20
1.117936545e+20
9.973215637e+19
1.003329637e+20
1.00412223e+20
1.003458653e+20
9.990178783e+19
1.002287503e+20
9.978400611e+19
9.990938108e+19
9.998189567e+19
1.000147172e+20
1.010091274e+20
1.010042994e+20
1.005591011e+20
1.011853448e+20
1.011343393e+20
1.009967973e+20
1.00757855e+20
1.01563062e+20
1.012912685e+20
1.017889369e+20
1.012620555e+20
1.018396839e+20
1.029676962e+20
1.030767618e+20
1.036804991e+20
1.04168725e+20
1.06287165e+20
1.076500009e+20
1.090633785e+20
1.10118457e+20
1.002952459e+20
1.000911471e+20
9.971780858e+19
9.96026645e+19
1.003247284e+20
9.996094653e+19
1.000022389e+20
9.938677741e+19
9.992708365e+19
1.002356858e+20
9.995122552e+19
1.002942232e+20
1.000548544e+20
9.9638031e+19
9.954938885e+19
9.990793655e+19
1.002470251e+20
1.007199279e+20
1.004616909e+20
1.009887832e+20
1.018824387e+20
1.020199866e+20
1.021465651e+20
1.022591848e+20
1.023193634e+20
1.029739091e+20
1.032439738e+20
1.036280544e+20
1.052668506e+20
1.064347375e+20
9.987348852e+19
1.000911478e+20
1.00785612e+20
1.00446793e+20
1.007522919e+20
1.003358729e+20
1.007578406e+20
1.005336662e+20
9.999142744e+19
9.962081741e+19
9.929518062e+19
9.897167194e+19
1.004705513e+20
1.007613215e+20
1.017393204e+20
1.01203479e+20
1.006002858e+20
1.005482258e+20
1.008131625e+20
1.011191005e+20
1.009571198e+20
1.012855148e+20
1.01344156e+20
1.020757031e+20
1.025262562e+20
1.02946442e+20
1.036985122e+20
1.040391982e+20
1.051482973e+20
1.05582894e+20
1.00205511e+20
1.000730682e+20
1.003484728e+20
1.000522551e+20
9.97215181e+19
9.969547075e+19
9.95939324e+19
9.99188392e+19
9.985082345e+19
1.001828455e+20
9.960020519e+19
9.983547795e+19
9.940056346e+19
9.852466072e+19
9.843192457e+19
9.935594588e+19
9.972348803e+19
1.006507337e+20
1.00273032e+20
1.007776677e+20
1.002499862e+20
1.005112702e+20
1.009643503e+20
1.0126622e+20
1.020144688e+20
1.019274151e+20
1.028032932e+20
1.024589489e+20
1.030086937e+20
1.043293483e+20
9.876525376e+19
9.84481605e+19
9.82333577e+19
9.791211216e+19
9.795579919e+19
9.812357395e+19
9.828218912e+19
9.801997054e+19
9.775843406e+19
9.790590806e+19
9.870933901e+19
9.909367844e+19
9.926281879e+19
9.913961846e+19
9.899190628e+19
9.878883135e+19
9.827741137e+19
9.856468238e+19
9.856994109e+19
9.871342665e+19
9.951919386e+19
9.955141984e+19
9.956548534e+19
9.910220437e+19
9.925680509e+19
9.916697821e+19
9.913649915e+19
9.993054856e+19
1.007674711e+20
1.016940475e+20
)
;

boundaryField
{
    flow
    {
        type            calculated;
        value           nonuniform List<scalar> 
55
(
2.447665633e+20
2.455899139e+20
2.483021373e+20
2.459773763e+20
2.40658346e+20
2.356356065e+20
2.285929504e+20
2.172397978e+20
2.081088431e+20
1.943283648e+20
1.828128225e+20
1.699896004e+20
1.57864375e+20
1.472177688e+20
1.375027737e+20
1.303604039e+20
1.240242883e+20
1.173576954e+20
1.134375092e+20
1.117936545e+20
1.10118457e+20
1.064347375e+20
1.05582894e+20
1.043293483e+20
1.016940475e+20
9.876525376e+19
9.84481605e+19
9.82333577e+19
9.791211216e+19
9.795579919e+19
9.812357395e+19
9.828218912e+19
9.801997054e+19
9.775843406e+19
9.790590806e+19
9.870933901e+19
9.909367844e+19
9.926281879e+19
9.913961846e+19
9.899190628e+19
9.878883135e+19
9.827741137e+19
9.856468238e+19
9.856994109e+19
9.871342665e+19
9.951919386e+19
9.955141984e+19
9.956548534e+19
9.910220437e+19
9.925680509e+19
9.916697821e+19
9.913649915e+19
9.993054856e+19
1.007674711e+20
1.016940475e+20
)
;
    }
    obstacle
    {
        type            calculated;
        value           nonuniform 0();
    }
    frontAndBack
    {
        type            empty;
    }
    procBoundary3to1
    {
        type            processor;
        value           nonuniform List<scalar> 
36
(
2.371484127e+20
2.470081859e+20
2.472499944e+20
2.467256864e+20
2.452156767e+20
2.438133024e+20
2.438133024e+20
2.101354837e+20
2.199316859e+20
2.267820813e+20
2.337548829e+20
2.401679667e+20
2.401679667e+20
1.528202252e+20
1.61189075e+20
1.718698331e+20
1.795158051e+20
1.898287377e+20
1.898287377e+20
1.129365981e+20
1.17134981e+20
1.208550918e+20
1.252787132e+20
1.307696309e+20
1.370859825e+20
1.370859825e+20
1.024886331e+20
1.034815302e+20
1.045356452e+20
1.057920988e+20
1.073822615e+20
1.101296969e+20
1.101296969e+20
1.02361409e+20
1.02427942e+20
1.02427942e+20
)
;
    }
    procBoundary3to2
    {
        type            processor;
        value           nonuniform List<scalar> 
19
(
1.01719034e+20
1.015275063e+20
1.007235353e+20
1.001712221e+20
9.956991484e+19
9.955655244e+19
1.003827948e+20
1.013471139e+20
1.000576424e+20
1.007435789e+20
9.893742796e+19
1.012580312e+20
9.905323542e+19
1.000041921e+20
9.968795007e+19
1.006879022e+20
9.983270868e+19
1.00313755e+20
9.849869587e+19
)
;
    }
}


// ************************************************************************* //
