/*--------------------------------*- C++ -*----------------------------------*\
  =========                 |
  \\      /  F ield         | OpenFOAM: The Open Source CFD Toolbox
   \\    /   O peration     | Website:  https://openfoam.org
    \\  /    A nd           | Version:  7
     \\/     M anipulation  |
\*---------------------------------------------------------------------------*/
FoamFile
{
    version     2.0;
    format      ascii;
    class       volScalarField;
    location    "0.01";
    object      rhoN;
}
// * * * * * * * * * * * * * * * * * * * * * * * * * * * * * * * * * * * * * //

dimensions      [0 -3 0 0 0 0 0];

internalField   nonuniform List<scalar> 
654
(
2.564074621e+20
2.722273301e+20
2.609368218e+20
3.880206291e+20
2.796903036e+20
2.399292709e+20
2.991420364e+20
1.824454736e+20
1.708687094e+20
1.193185216e+20
2.139755226e+20
2.293532828e+20
1.088909301e+20
2.746703339e+20
1.662945538e+20
2.517212732e+20
2.399292709e+20
3.133868981e+20
1.499953123e+20
8.821781572e+19
1.779006656e+20
2.434581739e+20
1.550613897e+20
2.60636393e+20
2.1029995e+20
1.590913608e+20
1.872285822e+20
1.888791741e+20
2.586159591e+20
2.334697858e+20
2.49441833e+20
2.237522429e+20
3.104967063e+20
1.709383081e+20
1.310722282e+20
3.602749113e+19
9.683319584e+19
1.708090985e+20
1.106883124e+20
1.363817567e+20
1.249960936e+20
1.512305424e+20
8.895033354e+19
2.050174096e+20
1.292178248e+20
1.69413654e+20
1.577249625e+20
1.988642026e+20
2.006020524e+20
1.888791741e+20
1.905591294e+20
3.433379234e+20
2.355839513e+20
3.635973914e+20
1.975888113e+20
1.709383081e+20
7.968681962e+19
4.587658998e+19
1.040017687e+20
9.314939689e+19
8.213061732e+19
9.458876315e+19
8.340959977e+19
9.607331042e+19
1.694580953e+20
1.098058499e+20
8.609090961e+19
4.959336647e+19
1.249960946e+19
8.821781572e+19
1.779006642e+20
1.665766426e+20
1.292178237e+20
1.433500149e+20
1.971562015e+20
2.121218125e+20
1.471081705e+20
2.023705437e+20
1.361136627e+20
2.334697838e+20
2.632997103e+20
2.657057884e+20
1.552483518e+20
2.27917742e+20
1.570373143e+20
1.129977501e+20
6.830298725e+19
1.032223267e+20
2.311150415e+19
1.397240943e+20
1.055965064e+20
1.773539282e+20
8.340959913e+19
1.321008008e+20
8.472904636e+19
4.880259919e+19
1.229870118e+20
1.363817556e+20
1.37495704e+20
2.268458155e+20
2.033150481e+20
1.537630572e+20
1.679831736e+20
1.824454766e+20
1.314374699e+20
1.590913621e+20
2.139755226e+20
1.888791757e+20
2.177818641e+20
2.746703387e+20
2.078681941e+20
3.496128795e+20
1.693618383e+20
2.421626031e+20
8.973560819e+19
1.355973011e+20
1.024544824e+20
1.146914749e+20
9.24460166e+19
1.397240943e+20
1.877271239e+20
9.458876315e+19
1.549035424e+20
1.441099645e+20
7.262489688e+19
1.952103983e+20
1.352857151e+20
1.487800982e+20
1.124964842e+20
1.512305412e+20
2.287294272e+20
8.96951167e+19
9.045247734e+19
3.909545862e+19
1.182937209e+20
7.954568038e+19
1.337347016e+20
1.079309566e+20
1.633363952e+20
1.648022018e+20
2.217260738e+20
2.237522429e+20
1.975888131e+20
1.994280261e+20
8.973560883e+19
1.24297526e+20
1.366059755e+20
9.175317996e+19
9.24460166e+19
1.164367461e+20
1.173294524e+20
1.418831437e+20
9.532525688e+19
1.321008008e+20
9.683319659e+19
8.540454992e+19
1.229870137e+20
1.115850737e+20
4.999843743e+19
6.301272602e+19
1.524862861e+20
1.025087048e+20
1.162960423e+20
6.51590977e+19
1.840124563e+20
1.856065891e+20
1.872285822e+20
1.484050653e+20
1.633363966e+20
2.334697858e+20
2.078681923e+20
1.678141821e+20
2.96383217e+20
2.279177441e+20
1.121695102e+20
1.016979758e+20
4.55353255e+19
1.490989174e+20
8.089026452e+19
1.397240943e+20
1.290623977e+20
1.537067401e+20
1.310722282e+20
1.080824742e+20
1.331456453e+20
8.540454859e+19
1.106883115e+20
8.678839064e+19
1.874941419e+20
1.512305424e+20
7.62431418e+19
1.02508704e+20
1.809049547e+20
1.303181965e+20
1.577249639e+20
1.723489741e+20
1.203612304e+20
2.023705437e+20
1.769477615e+20
2.472033026e+20
5.543151844e+19
2.517212732e+20
1.834753248e+20
2.27917742e+20
2.243390205e+19
4.519910004e+19
1.479898057e+20
9.175317928e+19
8.089026512e+19
1.047930723e+20
5.866472665e+19
1.064123585e+20
1.429878853e+20
1.681282919e+20
8.472904702e+19
1.464077999e+20
1.721818192e+20
9.918673216e+19
1.249960936e+20
1.008203616e+20
1.01657524e+20
1.665766453e+20
9.045247734e+19
1.303181954e+20
7.88624806e+19
1.060609072e+20
1.203612314e+20
1.349136958e+20
1.225022964e+20
1.78535717e+20
1.52436673e+20
1.538296656e+20
2.258157844e+20
1.994280261e+20
1.682542666e+20
1.807964028e+20
1.024544824e+20
9.175317928e+19
1.271132719e+20
5.821837262e+19
9.386356124e+19
7.094157129e+19
8.340959913e+19
1.200916371e+20
1.089373453e+20
8.540454859e+19
7.379220766e+19
1.115850737e+20
6.249804679e+19
1.386279961e+20
1.016575232e+20
1.025087048e+20
1.421396072e+20
9.122273678e+19
3.943124063e+19
6.628806754e+19
6.68673508e+19
1.484050653e+20
1.225022975e+20
1.098681355e+20
1.662945553e+20
1.53829667e+20
1.270213799e+20
1.994280261e+20
6.730170662e+19
9.039820073e+19
1.024544824e+20
1.032223275e+20
9.24460166e+19
6.986204714e+19
5.866472621e+19
8.276516776e+19
1.07240914e+20
1.441099645e+20
1.210414957e+20
9.760519991e+19
1.352857151e+20
8.678839064e+19
7.499765675e+19
1.134229078e+20
1.397790944e+20
8.969511596e+19
7.753069486e+19
6.515909824e+19
1.05149975e+20
1.060609072e+20
1.471081718e+20
2.428446545e+20
1.497250302e+20
8.240110088e+19
4.157363883e+19
1.39845153e+20
1.693618398e+20
2.136728831e+20
1.458203633e+20
1.242975251e+20
3.415149387e+19
6.881488497e+19
8.089026452e+19
1.630114445e+20
8.21306167e+19
1.418831437e+20
1.191565711e+20
1.441099645e+20
7.262489688e+19
3.660194968e+19
7.379220766e+19
2.479668284e+19
8.749726551e+19
7.561527061e+19
1.143647136e+20
1.537630572e+20
9.045247808e+19
5.212727859e+19
9.200622814e+19
9.280329456e+19
1.069877613e+20
1.079309566e+20
8.166819831e+19
1.648022018e+20
1.801524333e+20
1.398451518e+20
1.975888113e+20
1.709383081e+20
6.730170662e+19
6.779865104e+19
3.415149387e+19
8.028403187e+19
1.155575207e+20
5.821837262e+19
8.21306167e+19
3.547078618e+19
1.07240914e+20
1.561191294e+20
8.472904767e+19
8.540454926e+19
1.721818179e+20
1.487800982e+20
8.749726551e+19
8.821781643e+19
1.779006671e+20
1.409494691e+20
1.162960423e+20
1.824454751e+20
1.445812157e+20
6.628806642e+19
5.349388018e+19
6.745684789e+19
1.361136627e+20
1.236016513e+20
1.385787961e+20
1.817986973e+20
1.129078922e+20
1.566934476e+20
8.973560819e+19
1.355973001e+20
1.252221442e+20
8.028403246e+19
3.466725622e+19
8.150572227e+19
1.05596508e+20
3.547078618e+19
5.957828555e+19
1.080824734e+20
1.210414948e+20
1.220064989e+20
8.609090961e+19
6.19917076e+19
1.499953123e+20
3.780763531e+19
6.353595201e+19
8.96951167e+19
1.162960423e+20
7.819091724e+19
1.182937219e+20
6.628806754e+19
6.68673508e+19
1.079309566e+20
1.361136627e+20
5.493406677e+19
1.385787949e+20
4.195354554e+19
9.879440656e+19
5.697943654e+19
6.730170614e+19
1.016979758e+20
1.366059765e+20
3.440744248e+19
5.77787608e+19
1.513677699e+20
8.213061608e+19
9.458876244e+19
8.340959977e+19
1.321008008e+20
7.262489688e+19
7.320389936e+19
1.229870137e+20
4.959336608e+19
6.249804729e+19
1.260254531e+20
1.524862848e+20
1.15322292e+20
6.460891238e+19
1.172863759e+20
1.314374688e+20
9.280329456e+19
9.361429112e+19
1.349136958e+20
6.805683193e+19
1.236016524e+20
1.247209154e+20
9.789160537e+19
8.468091915e+19
1.282037299e+20
1.570373155e+20
1.24297526e+20
1.366059755e+20
9.175317996e+19
1.50224777e+20
8.150572167e+19
1.173294524e+20
1.300595484e+20
1.310722272e+20
1.200916371e+20
1.089373462e+20
9.760519915e+19
1.106883115e+20
7.439004912e+19
6.249804679e+19
1.386279961e+20
1.524862848e+20
1.025087048e+20
1.292178248e+20
1.172863768e+20
1.314374688e+19
1.193185206e+20
5.349388064e+19
6.745684847e+19
8.166819831e+19
6.866758407e+19
1.524366757e+20
1.957832125e+20
5.64539461e+19
7.122429502e+19
1.009525592e+20
1.016979758e+20
7.968681904e+19
1.032223267e+20
8.089026452e+19
1.513677699e+20
8.21306167e+19
4.729438122e+19
1.07240914e+20
1.20091638e+20
8.472904702e+19
9.760519915e+19
1.475844165e+20
6.199170809e+19
1.249960946e+19
8.821781643e+19
1.01657524e+20
1.15322292e+20
1.292178237e+20
3.909545862e+19
7.886248126e+19
9.280329377e+19
4.012041014e+19
1.484050653e+20
4.083409916e+19
1.373351681e+20
1.108630359e+20
6.992257589e+19
7.056743262e+19
1.282037299e+20
1.121695102e+20
5.649887505e+19
1.024544816e+20
1.032223275e+20
1.271132728e+20
1.280804198e+20
1.642612334e+20
1.300595493e+20
1.906505138e+20
1.200916371e+20
8.472904702e+19
8.540454992e+19
1.229870137e+20
1.611784398e+20
9.999687567e+19
1.26025452e+20
1.27071903e+20
1.02508704e+20
7.753069486e+19
9.122273678e+19
1.182937209e+20
6.628806698e+19
1.069877613e+20
1.618964349e+20
1.769477615e+20
1.510686849e+20
5.543151844e+19
5.593806071e+19
1.552483532e+20
9.971401394e+19
6.730170711e+19
7.909842621e+19
1.479898079e+20
6.881488497e+19
4.62230083e+19
6.986204714e+19
1.055965072e+20
1.182359539e+20
1.07240914e+20
6.004581855e+19
8.472904636e+19
1.098058482e+20
2.459740255e+19
4.959336608e+19
4.999843743e+19
1.008203616e+20
8.895033354e+19
6.40679405e+19
1.421396072e+20
1.303181965e+20
1.051499759e+20
7.954568105e+19
9.361429112e+19
8.094821746e+19
1.769477615e+20
1.236016513e+20
1.108630369e+20
1.118761214e+20
1.552483518e+20
1.424485887e+20
1.346034123e+20
9.039820007e+19
1.252221442e+20
8.028403246e+19
4.62230083e+19
4.657469844e+19
1.173294524e+20
1.18235953e+20
5.957828555e+19
9.607330968e+19
1.089373462e+20
7.320389993e+19
1.229870128e+20
9.918673137e+19
4.999843743e+19
1.512305412e+20
1.397790944e+20
5.12543524e+19
7.75306955e+19
1.694136554e+20
5.257498707e+19
9.280329377e+19
1.069877613e+20
1.214223262e+20
1.225022975e+20
8.240110088e+19
6.928939743e+19
8.390709107e+19
5.64539461e+19
5.697943602e+19
1.009525592e+20
1.129977509e+20
4.553532517e+19
9.175317928e+19
5.77787608e+19
1.047930715e+20
9.386356194e+19
1.18235953e+20
1.191565702e+20
1.561191294e+20
1.089373462e+20
1.09805849e+20
1.352857151e+20
6.19917076e+19
9.999687487e+19
7.561527122e+19
1.651934766e+20
6.40679405e+19
7.753069486e+19
5.212727816e+19
6.571873439e+19
1.590913608e+20
1.069877604e+20
2.293532848e+20
5.444546554e+19
2.060027522e+20
6.928939743e+19
6.992257527e+19
9.879440567e+19
8.546915325e+19
8.973560883e+19
1.016979758e+20
9.107065033e+19
9.175317996e+19
1.271132728e+20
1.047930715e+20
8.21306167e+19
1.300595484e+20
1.429878853e+20
8.406414597e+19
7.262489744e+19
6.100324947e+19
7.379220766e+19
9.918673216e+19
6.249804729e+19
7.561527122e+19
1.397790933e+20
1.409494679e+20
1.162960423e+20
3.909545894e+19
7.886248126e+19
1.193185206e+20
1.471081718e+20
6.745684789e+19
5.444546554e+19
1.236016513e+20
1.662945538e+20
1.53829667e+20
1.552483532e+20
1.566934505e+20
5.608475512e+19
7.909842564e+19
1.593736392e+20
8.028403246e+19
1.271132728e+20
1.047930707e+20
7.039767146e+19
3.547078618e+19
8.340959977e+19
4.803665484e+19
1.694580927e+20
1.09805849e+20
6.149350687e+19
1.239834152e+20
8.749726551e+19
7.561527122e+19
8.895033354e+19
2.56271762e+19
1.162960423e+20
1.303181954e+20
1.05149975e+20
7.954568105e+19
9.361429112e+19
1.484050653e+20
6.805683133e+19
1.098681345e+20
1.108630369e+20
9.789160625e+19
1.270213787e+20
5.69794355e+19
)
;

boundaryField
{
    flow
    {
        type            zeroGradient;
    }
    obstacle
    {
        type            calculated;
        value           nonuniform 0();
    }
    frontAndBack
    {
        type            empty;
    }
    procBoundary3to1
    {
        type            processor;
        value           nonuniform List<scalar> 
36
(
2.279177441e+20
3.402841567e+20
2.334697838e+20
2.355839513e+20
2.517212732e+20
2.822697305e+20
2.822697305e+20
2.606363908e+20
2.365874418e+20
2.121218125e+20
3.343367511e+20
2.293532848e+20
2.293532848e+20
1.749945324e+20
2.142432702e+20
1.779006656e+20
2.178309959e+20
2.325920846e+20
2.325920846e+20
1.191565711e+20
1.441099645e+20
1.573539445e+20
9.760519915e+19
7.379220766e+19
8.678839064e+19
8.678839064e+19
1.138383129e+20
1.032223275e+20
8.089026512e+19
8.150572227e+19
1.759941786e+20
9.458876315e+19
9.458876315e+19
1.12169511e+20
1.016979766e+20
1.016979766e+20
)
;
    }
    procBoundary3to2
    {
        type            processor;
        value           nonuniform List<scalar> 
19
(
1.670299853e+20
2.227066471e+19
1.336239882e+20
1.22488655e+20
1.113533235e+20
1.447593206e+20
6.68119946e+19
8.908265883e+19
1.336239882e+20
1.447593206e+20
8.908265883e+19
1.113533235e+20
1.224886559e+20
1.447593196e+20
7.794732703e+19
1.224886559e+20
1.336239882e+20
1.336239882e+20
1.224886559e+20
)
;
    }
}


// ************************************************************************* //
