/*--------------------------------*- C++ -*----------------------------------*\
  =========                 |
  \\      /  F ield         | OpenFOAM: The Open Source CFD Toolbox
   \\    /   O peration     | Website:  https://openfoam.org
    \\  /    A nd           | Version:  7
     \\/     M anipulation  |
\*---------------------------------------------------------------------------*/
FoamFile
{
    version     2.0;
    format      ascii;
    class       volVectorField;
    location    "0.01";
    object      UMean;
}
// * * * * * * * * * * * * * * * * * * * * * * * * * * * * * * * * * * * * * //

dimensions      [0 1 -1 0 0 0 0];

internalField   nonuniform List<vector> 
654
(
(1306.578831 407.7885838 -3.142192191)
(1351.833845 436.8882425 -0.8006225429)
(1343.182989 434.6536928 0.5007698821)
(1341.652257 432.2689026 1.407927827)
(1337.986841 428.3649332 1.097360563)
(1339.423156 426.6391979 0.02910445501)
(1335.692523 419.5738614 2.733830577)
(1431.87095 376.4842176 0.7508170047)
(1418.339709 395.5860787 -3.154921044)
(1405.872974 408.7349508 -1.28410402)
(1395.596612 417.1273313 0.2106280065)
(1384.96639 422.5203631 3.230504525)
(1375.070111 428.4282167 4.416156188)
(1370.007823 435.6240565 0.7546657257)
(1362.657895 434.4383443 1.134042232)
(1353.765605 432.4015042 2.339903518)
(1356.885827 429.506734 1.862516265)
(1351.264947 428.6292179 0.7159762276)
(1551.086334 230.6932008 -0.6472231965)
(1535.952301 256.5998226 -0.7020568774)
(1513.471835 284.8962938 -2.474035195)
(1495.819405 309.2701322 -0.3670132265)
(1479.579437 329.0947355 -3.71176862)
(1466.025659 352.1722733 -3.151060917)
(1444.257012 372.4179662 0.4974966356)
(1429.923001 384.9319258 -0.2491186149)
(1422.606711 400.9767718 -0.1658425897)
(1410.220678 409.4346447 -0.4799990444)
(1402.069736 422.1064668 0.1149988151)
(1391.806853 428.3015624 1.377570082)
(1383.188989 434.6410923 -1.259770039)
(1375.212317 436.0873168 -5.226665015)
(1370.916361 433.2632909 -2.13986049)
(1370.585856 433.0838389 -3.660909652)
(1668.48021 75.17312214 -2.382446431)
(1659.544293 93.97727277 -2.167314524)
(1648.146831 109.9787642 3.926645412)
(1633.244755 128.8739157 2.629962615)
(1616.552833 149.2037142 2.737066089)
(1604.02615 169.6802034 -0.1663245554)
(1580.444841 196.4802375 -4.796412177)
(1566.282579 219.5863625 -4.49755022)
(1548.339561 243.2083046 -4.267210058)
(1529.572061 273.0021172 -2.232573799)
(1512.643001 301.4037965 -0.07900029185)
(1496.013741 319.0584609 -1.658646124)
(1477.784174 340.077549 -0.1665418778)
(1461.127769 360.98907 -0.06008135955)
(1446.780179 375.9072549 -0.1957905913)
(1430.950917 392.6130738 -1.848015776)
(1417.597581 404.8813624 1.595495414)
(1413.684974 418.4488595 1.156825632)
(1405.017591 425.8666403 -1.963007017)
(1397.270132 434.0069717 0.0126761966)
(1390.48555 437.4356868 -2.974089797)
(1389.828821 433.1893308 -5.113625302)
(1716.340147 24.17719427 -2.68237904)
(1711.096803 25.7012272 -1.606174261)
(1706.550764 28.65944296 0.09027407756)
(1703.417553 33.87592096 -0.9191282417)
(1696.559891 41.14085791 -0.8420543215)
(1689.556769 51.49095684 -0.3371268251)
(1685.856515 63.26489572 -1.378853124)
(1673.517659 76.2851235 0.1094311609)
(1665.600334 90.20429806 1.540498596)
(1650.221986 106.3127396 -0.9319506946)
(1644.548729 121.3325999 1.499148995)
(1632.82313 134.9224079 2.995865823)
(1615.104635 157.9447352 5.410295889)
(1595.55108 180.6537475 6.295516567)
(1581.185113 205.4671888 7.963452937)
(1562.443898 232.0746601 6.389205222)
(1543.196335 257.9664847 6.39615518)
(1528.078508 284.8550532 3.854561586)
(1510.79015 306.3236554 2.92109352)
(1494.018031 327.6450501 -3.118649206)
(1478.95012 352.395096 -1.717426641)
(1457.284201 372.1345796 -2.690996131)
(1444.409895 387.9539787 -4.393045632)
(1434.998206 400.6884273 -2.336675531)
(1424.501919 412.2106342 -0.09965410643)
(1418.334605 424.3275957 -2.955638245)
(1405.708277 429.7064462 0.2119058894)
(1403.102504 434.1371135 -1.129961513)
(1725.526118 9.44393656 -0.7320243869)
(1725.698393 9.307604257 -0.6167158673)
(1725.86739 8.764491304 0.4363235481)
(1723.541212 15.34355144 -0.6501692117)
(1719.906335 23.13473601 1.382645212)
(1712.644383 31.81504876 1.35985258)
(1708.835277 38.42846313 1.694240861)
(1702.18459 43.94147709 2.184919812)
(1698.709275 51.44390352 1.989487353)
(1691.730319 62.09197132 -0.9198115321)
(1679.797793 72.50340483 -0.4946788549)
(1672.761131 84.09008989 1.152264463)
(1661.874403 95.49143954 1.793239984)
(1651.80061 112.5840076 3.485227748)
(1639.663266 128.8415006 3.664675305)
(1622.56377 146.9333242 3.101697142)
(1606.803228 168.0837398 2.141187812)
(1590.134691 192.0679258 2.198089725)
(1575.41006 215.9690587 1.083568359)
(1554.812943 244.4917716 0.9629312861)
(1537.034833 269.9471085 1.07184728)
(1521.335484 294.840867 2.632114775)
(1500.342254 319.5739658 0.9057217485)
(1485.152932 342.6884747 -1.227107103)
(1474.281781 365.3093444 -1.327881929)
(1454.371885 379.9738833 1.273365242)
(1443.73637 392.6449322 1.636103508)
(1434.392716 405.9718847 2.24560269)
(1426.979518 419.5347888 3.49684456)
(1420.694012 425.2750615 6.366842428)
(1732.008043 8.634155745 0.7034918408)
(1730.919288 8.754744815 -0.04408391232)
(1727.548668 13.41358796 1.16166541)
(1723.826294 17.91963935 0.1832184237)
(1721.27377 19.95436149 2.003867672)
(1718.761218 24.45323349 2.555887635)
(1714.497933 30.38193681 0.9769550927)
(1706.895798 34.73820363 -0.4990840421)
(1705.262899 37.09270436 0.01789211823)
(1699.502389 44.8124443 1.265643111)
(1692.376338 55.11056404 1.761884709)
(1683.744659 67.83615939 -0.4013202895)
(1674.163502 78.23350939 0.5050588944)
(1669.682651 86.8458444 -1.452278748)
(1662.303038 101.2745938 -0.9749285664)
(1643.351361 121.7893051 -3.379814742)
(1635.622867 137.8366122 -1.604761909)
(1619.104651 157.6483375 -1.726827724)
(1605.544363 176.3225956 1.871412785)
(1591.488814 202.5757719 3.014251708)
(1568.368156 233.3859871 3.953300269)
(1547.456697 261.1788691 1.548983966)
(1534.330556 280.380193 2.656635577)
(1516.497911 309.6306697 -0.2380740742)
(1501.802847 331.9510955 -2.416359787)
(1480.230373 355.6266503 -2.69189052)
(1469.821197 372.7024631 -1.480069284)
(1457.211405 389.4960016 -2.041083094)
(1450.907942 404.8129698 -1.596955687)
(1440.792816 413.4159664 -2.483210846)
(1727.844914 7.593657851 3.690599601)
(1723.973947 9.684450142 2.775053478)
(1722.875072 11.32289525 4.13765047)
(1721.765012 12.90164863 3.174492568)
(1720.804926 17.37859078 3.381383382)
(1717.458218 18.15638802 1.801519414)
(1715.460829 21.3810407 2.637726836)
(1715.059751 27.67023722 3.884434941)
(1712.651901 32.28604368 1.261119265)
(1711.424553 36.71131538 1.043260582)
(1702.77113 41.36680905 0.1223855114)
(1700.092855 48.84588325 0.04702025061)
(1694.857352 59.97070428 -1.612666867)
(1681.411539 72.7269182 -5.118783736)
(1678.107376 80.25771508 -3.531346646)
(1669.513044 92.61801981 -2.559510684)
(1654.094816 110.0255148 -1.834970497)
(1644.392597 128.69599 -0.2150106718)
(1632.245421 148.198368 -0.7363177496)
(1617.314049 172.6847176 -0.335252828)
(1602.794768 196.474798 -1.000160683)
(1580.768395 221.6102053 0.0130265231)
(1567.094511 249.2971906 3.249956166)
(1548.567836 274.0500732 2.500197765)
(1527.615381 298.8460841 -0.6184309026)
(1510.946182 321.0852553 0.1026622972)
(1491.832769 346.6036453 -2.020482985)
(1483.676963 361.1178909 -2.338433349)
(1468.498509 382.9130693 -1.861079387)
(1455.33549 400.0800955 -0.5625672204)
(1729.805774 4.704399227 1.546373022)
(1729.76061 5.886367557 1.34217383)
(1729.396842 8.604593942 2.82585026)
(1729.978664 9.958896922 0.2173013029)
(1729.374492 11.87050855 -0.3007682014)
(1726.075513 14.97197287 0.326921431)
(1723.262367 15.57917606 2.451478629)
(1721.243248 18.24998997 2.532767563)
(1718.345651 21.4197886 -1.055379955)
(1713.236312 26.34908907 -1.51098251)
(1706.852154 32.7187209 -2.962969817)
(1705.106447 36.74728919 -1.745734356)
(1698.147303 45.42957003 0.6113581235)
(1695.107253 58.70853715 0.4674517354)
(1688.75222 68.75833058 0.63570515)
(1681.862054 75.8202978 -1.681076211)
(1672.980897 90.97969067 -1.545605577)
(1660.09198 108.332827 -1.768850143)
(1650.490374 119.3959912 -0.1352625803)
(1636.456765 136.6666243 -1.405888568)
(1623.934226 160.7934037 0.09821481046)
(1606.326058 189.1977492 1.793550707)
(1590.749401 210.1658829 0.227230214)
(1574.277445 235.4752841 3.373536068)
(1557.806108 260.001274 1.971848995)
(1545.105287 284.7894322 2.0061445)
(1522.73142 311.2143436 2.025058615)
(1505.173209 336.7187928 2.535976144)
(1492.663498 352.859543 -1.014966067)
(1480.33426 374.0403773 -0.6984990666)
(1734.583416 3.161806335 -1.555742524)
(1732.846968 4.311582163 0.1238323849)
(1732.433336 4.835079016 -1.645704864)
(1729.272577 3.359432407 -0.2099404168)
(1727.970838 6.3002067 -1.468129996)
(1726.99578 7.173631586 -2.504732676)
(1725.927177 10.741862 -3.404590563)
(1723.240145 13.62081127 -3.502205388)
(1721.471226 14.1234085 1.199677973)
(1718.645972 18.10489997 1.967512917)
(1716.79154 24.24633884 2.128350639)
(1712.896379 31.41434158 2.424785193)
(1709.342437 36.59637033 0.4981004847)
(1702.885961 42.57675782 1.690937957)
(1696.468941 51.848776 0.1703320054)
(1690.769354 63.88077162 1.912527744)
(1685.630262 72.79054417 0.3381473383)
(1675.542462 86.93221179 -2.328111946)
(1666.523944 101.2851928 -3.224701029)
(1658.924409 114.3669012 -3.414550159)
(1646.204637 129.697925 -5.963631116)
(1632.403294 150.0811563 -4.114984364)
(1616.385817 173.6219659 -4.777924419)
(1603.329907 198.0060554 -3.877874357)
(1586.696158 223.5221743 -0.513425753)
(1573.88552 244.861289 0.1527942512)
(1553.451589 274.1693468 0.3308197554)
(1534.185714 303.4676984 3.359220958)
(1519.638529 323.6175111 4.376961851)
(1499.706859 348.7714672 1.273876461)
(1734.595276 1.710355263 1.436452546)
(1734.184863 2.237077241 0.9600320659)
(1734.273103 2.792929143 -0.06177171065)
(1734.486116 3.850087873 0.4852799271)
(1731.610117 5.708093024 1.581909102)
(1730.804488 5.271171821 2.388312557)
(1727.88203 7.563825977 3.964750418)
(1727.72975 9.011963083 2.995667889)
(1725.421886 14.1504727 0.9752075264)
(1726.156859 16.69612913 -1.265395117)
(1721.47977 22.19087219 -2.86871596)
(1717.082694 25.99517501 -1.255895935)
(1714.941383 29.77870922 -0.8463375978)
(1709.522546 35.23874122 -1.732341797)
(1709.43848 42.37165453 -0.1163285829)
(1704.277266 50.03356406 -1.742010715)
(1698.031848 58.12521728 -0.5165042408)
(1690.298437 68.33708745 -1.377519238)
(1678.522681 82.84739044 -2.428959783)
(1669.45742 94.21357153 -2.483249682)
(1660.67881 102.798675 -3.361364078)
(1651.977805 122.2439251 -2.885449244)
(1637.836671 139.5368812 -2.849278864)
(1621.004297 161.5594382 -0.4738653437)
(1608.35381 188.7897867 -0.07816556774)
(1592.406096 212.5685661 -1.501069445)
(1583.457049 235.7320242 -2.34644826)
(1559.725829 260.8305522 0.8455921809)
(1540.101233 291.7773326 1.347526857)
(1524.99975 312.1800683 3.687221901)
(1733.302126 0.8931253324 -3.510844417)
(1733.792345 -0.348567556 -4.003943364)
(1732.971315 -2.127948163 -1.413160847)
(1733.701813 -1.063846857 -0.3122392451)
(1733.128741 -0.9332031676 -0.3628463888)
(1732.374074 0.5940243197 0.7777095636)
(1731.433661 5.180372646 -1.397001921)
(1729.192328 8.803916402 -1.984720928)
(1728.245235 10.0847543 -0.4943711997)
(1726.176389 13.60712407 1.447837339)
(1725.346061 15.71271771 -1.142624601)
(1725.027668 16.41397068 -3.69657886)
(1723.822338 23.14132148 -4.374975638)
(1721.163695 30.03869734 -2.416497691)
(1712.507062 33.26720541 -1.351061204)
(1707.267465 40.59155973 -1.542625928)
(1702.523684 45.14739903 -2.061488406)
(1699.19363 53.69036899 -2.14108051)
(1694.193093 62.61445841 -0.5123253784)
(1683.377246 77.3324498 -1.295823605)
(1675.569687 90.48003348 -0.6353022311)
(1670.313891 96.58777673 -2.762210141)
(1658.874496 112.9702968 -2.373030341)
(1651.615362 128.238455 -4.702572525)
(1631.940227 151.1508531 -5.436073445)
(1614.359362 177.6858511 -2.699547765)
(1605.55848 197.8423368 -4.287515527)
(1587.597381 226.5815648 -3.136960596)
(1570.396692 253.3006795 -2.508358922)
(1548.340168 279.4910525 -3.699710344)
(1736.287719 0.5151807094 0.7361014165)
(1736.261172 4.152711279 2.152907645)
(1735.021403 5.507992163 0.04551094201)
(1732.830628 2.059749891 -0.4345468685)
(1734.475544 3.706307391 -1.338352881)
(1732.124389 5.217486634 -2.073477582)
(1731.50719 6.398508053 -1.408047276)
(1730.843663 6.415912266 -3.446229288)
(1730.016709 9.773004472 -5.403683004)
(1730.36421 9.935478388 -4.038489332)
(1729.349807 11.22566963 -2.319758653)
(1727.302851 16.94598639 1.255441935)
(1723.209273 18.50360686 0.7641645267)
(1722.742592 22.37792905 1.805662203)
(1717.798219 29.13500402 -0.9506621852)
(1715.444419 33.14931633 -3.50217714)
(1709.931127 41.15173676 -3.935452901)
(1710.299679 45.81857359 -4.937251128)
(1706.04171 50.19395841 -2.050434197)
(1697.025621 57.61757948 -2.013180751)
(1690.061578 69.76609118 -0.4587707616)
(1681.470564 79.55892569 -2.962882038)
(1674.070143 89.86491373 -4.909417202)
(1663.029292 105.860049 -2.481343287)
(1656.010379 121.1703131 -2.950704266)
(1639.333023 142.4758158 -1.956911356)
(1625.308044 168.0912114 -2.822190204)
(1609.59713 192.3142855 -3.869489319)
(1597.395846 215.0251537 -3.813921886)
(1580.179894 243.4986054 -2.068186939)
(1735.2533 -1.561175304 2.47061951)
(1734.090002 -1.851326959 1.00364337)
(1733.801824 -0.6482258152 -0.3124422092)
(1733.447203 2.321926061 -0.133644753)
(1733.498653 4.450589967 -2.625428945)
(1733.785018 5.025598042 -2.55332079)
(1733.867754 4.722918987 -4.741692012)
(1733.665277 6.97297801 -2.174186746)
(1732.041553 4.432830838 0.8897000159)
(1728.47741 7.497990684 0.8971467308)
(1725.641882 13.11158987 -0.3579524781)
(1725.490266 14.63142761 -3.020681709)
(1725.925916 19.27058615 -4.450144847)
(1723.965093 20.37700074 -4.942764471)
(1725.553649 21.35749189 -4.773317158)
(1721.90016 26.34388529 -3.447377509)
(1717.844936 32.03591578 -1.840603836)
(1714.550122 34.94935907 -1.511455779)
(1711.982868 38.86000325 -2.968881772)
(1705.760459 46.04615672 -1.010612197)
(1700.809214 50.69321598 -1.283438186)
(1690.199598 64.18344421 1.671245099)
(1684.586514 75.49668234 -0.3155191586)
(1675.882784 88.01894504 2.445009836)
(1665.411199 102.5547851 2.217405533)
(1659.191054 116.803908 -0.7636340252)
(1643.649854 137.7360367 -1.33897622)
(1633.246913 158.4456576 -6.61087873)
(1616.473089 180.3711922 -3.850136737)
(1602.758373 205.1299618 -2.897241814)
(1734.581705 -0.7021289089 1.321219999)
(1735.26707 1.166807473 3.154261982)
(1735.339628 0.2080912446 2.433967164)
(1735.151467 2.986530043 2.432094008)
(1736.11154 2.057092932 3.62217112)
(1736.27073 3.730673619 3.213347576)
(1735.240075 4.010227639 4.9160535)
(1732.497595 3.345023761 3.50337186)
(1735.417924 6.29832211 1.969741455)
(1735.206942 7.617735726 2.204398792)
(1736.287145 6.944794916 1.545075791)
(1736.207812 7.986688265 1.724448831)
(1731.542683 8.939215628 -0.4311759664)
(1728.691962 10.48221909 1.223224375)
(1726.827876 11.9020862 -0.06949293121)
(1725.139204 13.33803829 -0.1516295138)
(1722.130436 19.22243853 -0.363474364)
(1718.17064 24.24639236 2.095533394)
(1716.136706 27.20183646 1.395626252)
(1709.698459 36.58875986 2.939673791)
(1709.856172 42.86040653 5.1146746)
(1703.224928 54.65341257 6.022875922)
(1695.035539 63.41002571 3.563041571)
(1690.248113 69.06967589 0.2024284269)
(1683.519701 81.58317713 -0.6958362114)
(1677.553052 93.45517238 1.817747225)
(1667.264692 111.5920033 1.649302024)
(1653.213238 133.7164776 -2.394965426)
(1637.952843 154.2635609 -4.483898814)
(1623.570259 178.0581954 -2.616909758)
(1736.772155 2.057877443 -1.758581407)
(1734.761334 1.652769285 -0.4385606827)
(1735.013919 1.400720879 -1.640848516)
(1735.836742 0.6710091034 -0.348999199)
(1735.651725 3.250206124 0.3165684018)
(1732.211949 0.3289527052 0.4318294757)
(1731.73211 2.774751762 0.9236836531)
(1732.454388 4.844546848 -0.252631505)
(1731.520183 3.689798353 0.7194096003)
(1730.630412 4.113243621 2.866674265)
(1729.747931 1.766152246 3.620579361)
(1726.046854 4.708996791 4.147498994)
(1727.137377 5.801470153 5.640293367)
(1725.817512 6.634558481 4.171338573)
(1724.29746 8.274502638 5.196409856)
(1724.293979 10.8586913 4.655519737)
(1723.802084 9.395426078 3.256132761)
(1720.619439 13.34590369 3.477792374)
(1717.196918 20.03781105 3.786328025)
(1715.202458 26.07099497 0.2903948707)
(1711.291676 30.99736807 -0.4656728839)
(1710.189633 35.1731576 -1.155648763)
(1704.505011 44.08012865 -1.231790038)
(1697.636433 57.06325432 0.7270622899)
(1694.651852 65.59389029 -0.02731246691)
(1690.272951 77.30781934 1.603747511)
(1684.474864 93.47459332 2.060077394)
(1671.638035 111.5564996 5.795235728)
(1657.691372 127.1252918 5.24288559)
(1645.819482 147.2851006 3.807231398)
(1735.311 3.927840624 -1.393641064)
(1735.763521 4.875313889 -1.797311273)
(1735.799905 4.40356712 -2.476334515)
(1734.677798 3.564511537 -2.655939498)
(1734.292851 3.768191011 -2.107496148)
(1734.636517 5.593067345 -2.614050971)
(1733.68719 3.509138199 -4.459309544)
(1735.438954 2.580201124 -2.208021804)
(1735.100607 2.52429119 -0.9654854435)
(1733.366226 1.503797367 -0.0362145479)
(1735.70296 3.299218265 -1.737647773)
(1737.728442 3.906930525 -2.520538381)
(1734.010708 3.286869239 -2.044056091)
(1734.377712 2.117669143 -1.298156567)
(1729.236955 6.323515967 -1.072510278)
(1723.956768 7.425310345 0.6082717062)
(1725.153491 9.302023413 1.914632494)
(1724.680594 12.13329283 1.623611811)
(1722.857582 13.36139421 -1.580062948)
(1717.059623 17.69596595 -2.340020171)
(1716.543359 25.33274387 -1.31325473)
(1710.663216 31.53290562 -0.3367055512)
(1709.035216 35.05232506 2.311961951)
(1707.492506 42.51623232 1.159861573)
(1696.962022 56.96465427 0.5328036046)
(1689.681389 67.43584033 -0.08902964344)
(1686.983184 72.00417995 3.202173053)
(1679.580391 85.00690605 2.197712663)
(1669.077142 102.5362832 5.346691164)
(1658.600567 122.2358753 3.610641012)
(1735.632153 2.12207627 0.7761692813)
(1735.021077 0.4512016026 -0.876512776)
(1737.186374 3.347778773 -2.037963425)
(1736.795556 4.001191056 -0.8890229957)
(1736.641561 3.659279882 0.3421989068)
(1737.098793 1.883828335 -0.1049493555)
(1737.596883 1.186864937 -1.221280129)
(1735.254828 3.614483251 -1.892913131)
(1733.724409 1.049961006 -1.985965573)
(1733.957024 1.944894559 -3.893441614)
(1731.468231 0.2732604123 -2.1149334)
(1727.806989 -2.167069672 -1.700879122)
(1728.559496 0.6261667826 -2.657204188)
(1726.222889 3.098691694 -0.2897676654)
(1728.728952 2.944680696 0.2016789603)
(1729.889524 6.708783203 -2.673410829)
(1726.46246 9.672477777 -0.8498218554)
(1725.170243 12.28745201 -0.6487781228)
(1724.765496 12.58682301 2.138810001)
(1722.851948 17.17477298 2.050327624)
(1720.253446 20.76686762 3.20616928)
(1716.769514 26.31305466 5.07679841)
(1714.109811 36.92815267 5.021525894)
(1711.921601 38.11666388 3.967976384)
(1708.978394 41.75284541 4.965408886)
(1701.195851 52.47223315 2.59660702)
(1696.625983 59.12166659 2.975221348)
(1690.539967 66.18073851 2.547014552)
(1686.934788 82.57151336 2.306543253)
(1673.964191 99.60521832 4.297786494)
(1734.7597 1.348988831 -1.942135413)
(1732.864571 2.383190106 1.283415143)
(1732.886281 0.2627133329 0.798774638)
(1733.316737 -0.4373047017 1.104605795)
(1732.557076 0.9254193716 -0.8555144745)
(1733.343604 1.255093748 -0.3105426313)
(1730.855704 -1.143899654 0.5757313819)
(1729.912094 -1.251565313 1.772018048)
(1730.289418 2.562543367 3.06770584)
(1731.209469 2.992238076 2.070289705)
(1731.12123 2.659320415 2.369867032)
(1732.581878 3.824345227 3.587187475)
(1731.584539 0.7928298479 2.782430252)
(1733.551591 3.765700625 1.31963471)
(1732.53882 4.3389855 1.186592096)
(1730.992873 6.917472605 2.680758782)
(1729.646458 6.19293637 -0.8698390034)
(1729.431086 9.426410304 1.079196301)
(1727.565641 14.67779735 1.373920812)
(1727.391547 13.59512779 2.081645746)
(1723.793581 18.01869318 0.4569549571)
(1723.042047 21.36173172 -1.088686496)
(1719.028511 23.83747904 -0.4667324182)
(1717.499432 30.90863357 1.071924359)
(1715.278919 33.69182581 0.4791053638)
(1711.110068 39.31248871 0.1053011857)
(1706.439604 46.8270966 0.7699520636)
(1704.454401 59.05284307 -0.6626107224)
(1697.233377 66.21418787 1.269789784)
(1691.29703 74.94007037 2.081526592)
(1735.135178 -2.489507122 -4.945222807)
(1735.732817 -3.564060658 -3.845135049)
(1733.09517 -0.8998970001 -3.442661103)
(1733.365948 -0.8911703369 -3.295875731)
(1734.817455 -4.553050202 -1.339768466)
(1734.14853 -4.190690751 -0.08806200183)
(1733.87702 -1.447186443 0.5703265814)
(1733.363801 0.7485059306 0.09051257147)
(1734.971458 -1.055395737 -0.5987142982)
(1734.385444 1.445947511 -1.846837704)
(1733.31235 2.458821676 -0.7262985306)
(1732.708347 3.233041815 -2.288346169)
(1734.397267 5.873036541 -2.565926647)
(1732.800671 6.830453753 -1.579320363)
(1734.07043 7.270586815 -0.9280149662)
(1733.932709 6.025239564 -1.15488104)
(1733.456048 7.093873989 1.212474177)
(1734.002223 7.648134011 0.270273363)
(1730.426638 9.640999713 -1.601549418)
(1730.496775 11.97630823 -3.920269212)
(1731.142278 14.52420556 -2.930741106)
(1728.078984 15.40635827 -1.348739991)
(1726.678995 14.30676143 -0.2818293019)
(1725.079768 19.28981067 -1.972712668)
(1722.707201 24.67707284 -2.582221929)
(1721.175753 29.22129553 -0.6451946434)
(1713.968188 41.52950237 -1.361733687)
(1708.152453 44.3685424 0.5608623935)
(1703.988514 51.34255838 -0.1044151117)
(1698.170533 65.05867377 -2.218678305)
(1734.837175 -1.369848205 3.768417019)
(1733.660235 -1.698239499 3.757119175)
(1735.593055 -1.492975154 2.117898965)
(1735.515877 -2.466953 2.439549539)
(1735.865805 -1.894913222 2.082655185)
(1737.017723 -1.729361223 0.7590274674)
(1736.091233 -0.7737176277 -0.9330911053)
(1736.778047 -2.505822948 -1.587397461)
(1734.647671 -0.4666891781 0.05969921356)
(1734.242314 -2.597534296 -0.5488769079)
(1734.759269 -0.9683719203 -2.498737878)
(1735.302811 1.40928769 -3.278263973)
(1738.772644 2.572750795 -3.665844186)
(1735.411686 3.384453638 -2.284973898)
(1733.891585 4.204473889 -2.235553505)
(1730.482919 5.169278459 -3.532415738)
(1731.227296 6.950525893 -2.78562342)
(1731.62435 6.174464177 -4.896067131)
(1734.542697 7.036015211 -2.602856866)
(1732.872284 8.360420209 -0.8022680618)
(1731.234274 9.117529182 -0.5867420866)
(1726.745288 10.60083752 1.084479797)
(1729.582521 13.37788682 -1.356709366)
(1727.670089 16.75490731 0.3959966635)
(1725.598956 20.36641803 1.391813896)
(1722.934679 24.58007785 0.1109863836)
(1719.04845 26.24859689 0.9390594806)
(1715.442815 35.27839248 1.791847881)
(1711.72063 39.40841481 0.9053446979)
(1705.88727 48.53104694 1.517469805)
(1736.856162 -1.103245155 1.202807798)
(1739.110933 -1.425637616 -0.309628377)
(1737.551804 -2.675668347 2.403583489)
(1737.123211 -2.13535454 2.167647055)
(1736.703426 -0.5727280615 1.162551228)
(1734.926841 -0.02036239726 1.14918355)
(1736.662069 -0.9967197701 1.263350132)
(1737.674661 -1.136246376 2.220639287)
(1737.298631 -1.197863308 1.063246879)
(1738.935051 -0.7946523611 0.9197076513)
(1738.427207 -1.209572465 1.393277815)
(1736.55286 2.546311803 2.212015022)
(1732.081618 0.5998955918 2.547765369)
(1731.956551 3.084826202 2.505899021)
(1732.758217 6.20696996 2.694450639)
(1732.746264 4.860974918 0.8545773023)
(1732.453451 3.539172959 0.7836400921)
(1733.192438 6.106484782 -0.8375557018)
(1732.612247 4.317487013 -0.9800853934)
(1732.829231 4.507443299 0.3557322593)
(1731.247933 5.859941437 -0.7620233837)
(1731.103271 10.91705519 -1.468125716)
(1729.579661 13.95359053 -0.2268250191)
(1726.389835 15.82376484 1.239940777)
(1724.799469 14.75891408 1.052668683)
(1722.266127 16.67846065 0.7591600696)
(1722.319139 21.26069917 0.7201646541)
(1718.810849 26.78834575 -0.04682795496)
(1718.516412 33.71214166 1.285744561)
(1714.359027 38.6153751 1.939547254)
(1733.667009 -1.923689087 2.134844708)
(1733.914528 -3.055982112 2.391118552)
(1732.540863 -2.070018315 -0.8257865222)
(1732.155892 -2.016856961 -1.189492732)
(1733.994825 -2.433556739 -1.760481537)
(1733.503339 0.429966544 -0.9608250239)
(1734.26361 1.631287342 -0.7895928304)
(1732.291783 2.247885191 -0.03533811063)
(1733.279349 0.7513011141 1.292662211)
(1731.838906 1.2749715 2.116849935)
(1732.806406 1.842305675 3.692740217)
(1733.045684 1.023981742 2.863513354)
(1735.211288 1.825257951 4.277994563)
(1736.167222 -2.142673417 4.368343774)
(1734.994848 -2.482727145 2.562468739)
(1734.972297 -0.8932710467 2.401197062)
(1735.980656 4.379307718 2.004981781)
(1733.123571 5.39428021 3.042355225)
(1732.803071 7.193968631 3.390221859)
(1730.248242 10.01792155 1.453963173)
(1730.919047 8.45731115 0.6921461842)
(1730.523815 5.35617563 0.7048657762)
(1729.172762 5.833512273 0.4627296277)
(1728.783753 7.099641961 -0.3918036366)
(1728.062298 9.257312014 -1.281226308)
(1727.538362 13.63185786 -0.8528559267)
(1720.49326 18.49018736 0.3982995546)
(1721.454522 22.62086253 -0.53095237)
(1715.639257 29.53695646 -3.064342614)
(1714.45578 32.08410828 -1.890088954)
(1734.532344 4.590930939 1.179662367)
(1733.378858 7.42317433 1.557698822)
(1734.976432 8.65258607 4.126648365)
(1737.00286 8.249011406 5.14902727)
(1733.62026 6.747498722 5.363618031)
(1735.370358 4.253682629 5.302345493)
(1735.480248 5.570590153 3.154424799)
(1734.550937 6.447799826 4.494907072)
(1737.207047 8.892205654 4.053123319)
(1734.993587 8.054031502 1.200222849)
(1735.254868 8.360929776 -1.129416654)
(1736.584335 8.752814434 0.614168407)
(1733.380102 6.590946777 -0.05273659949)
(1731.678164 10.25485083 -2.13230911)
(1732.211739 7.683376992 -2.242346191)
(1733.418765 8.388935418 -1.640588822)
(1733.28076 7.010536918 -1.206178423)
(1732.795416 8.186335988 -0.3542030752)
(1732.678121 9.786466345 0.8663456834)
(1733.970845 9.721845469 1.835068728)
(1732.222327 12.16194173 -0.4196220007)
(1732.480457 14.8226678 -2.688215273)
(1730.922986 16.18475912 -1.640790409)
(1728.572684 18.26223404 -1.344378211)
(1726.804681 19.35162631 -1.476180978)
(1726.5425 18.66562804 0.04999175399)
(1728.030637 20.28349107 -0.860047247)
(1725.025604 22.98902048 0.01633138434)
(1724.014441 25.14102825 1.590091009)
(1719.387224 32.9625236 -0.7144537589)
)
;

boundaryField
{
    flow
    {
        type            calculated;
        value           nonuniform List<vector> 
55
(
(1306.578831 407.7885838 -3.142192191)
(1335.692523 419.5738614 2.733830577)
(1351.264947 428.6292179 0.7159762276)
(1370.585856 433.0838389 -3.660909652)
(1389.828821 433.1893308 -5.113625302)
(1403.102504 434.1371135 -1.129961513)
(1420.694012 425.2750615 6.366842428)
(1440.792816 413.4159664 -2.483210846)
(1455.33549 400.0800955 -0.5625672204)
(1480.33426 374.0403773 -0.6984990666)
(1499.706859 348.7714672 1.273876461)
(1524.99975 312.1800683 3.687221901)
(1548.340168 279.4910525 -3.699710344)
(1580.179894 243.4986054 -2.068186939)
(1602.758373 205.1299618 -2.897241814)
(1623.570259 178.0581954 -2.616909758)
(1645.819482 147.2851006 3.807231398)
(1658.600567 122.2358753 3.610641012)
(1673.964191 99.60521832 4.297786494)
(1691.29703 74.94007037 2.081526592)
(1698.170533 65.05867377 -2.218678305)
(1705.88727 48.53104694 1.517469805)
(1714.359027 38.6153751 1.939547254)
(1714.45578 32.08410828 -1.890088954)
(1719.387224 32.9625236 -0.7144537589)
(1734.532344 4.590930939 1.179662367)
(1733.378858 7.42317433 1.557698822)
(1734.976432 8.65258607 4.126648365)
(1737.00286 8.249011406 5.14902727)
(1733.62026 6.747498722 5.363618031)
(1735.370358 4.253682629 5.302345493)
(1735.480248 5.570590153 3.154424799)
(1734.550937 6.447799826 4.494907072)
(1737.207047 8.892205654 4.053123319)
(1734.993587 8.054031502 1.200222849)
(1735.254868 8.360929776 -1.129416654)
(1736.584335 8.752814434 0.614168407)
(1733.380102 6.590946777 -0.05273659949)
(1731.678164 10.25485083 -2.13230911)
(1732.211739 7.683376992 -2.242346191)
(1733.418765 8.388935418 -1.640588822)
(1733.28076 7.010536918 -1.206178423)
(1732.795416 8.186335988 -0.3542030752)
(1732.678121 9.786466345 0.8663456834)
(1733.970845 9.721845469 1.835068728)
(1732.222327 12.16194173 -0.4196220007)
(1732.480457 14.8226678 -2.688215273)
(1730.922986 16.18475912 -1.640790409)
(1728.572684 18.26223404 -1.344378211)
(1726.804681 19.35162631 -1.476180978)
(1726.5425 18.66562804 0.04999175399)
(1728.030637 20.28349107 -0.860047247)
(1725.025604 22.98902048 0.01633138434)
(1724.014441 25.14102825 1.590091009)
(1719.387224 32.9625236 -0.7144537589)
)
;
    }
    obstacle
    {
        type            calculated;
        value           nonuniform 0();
    }
    frontAndBack
    {
        type            empty;
    }
    procBoundary3to1
    {
        type            processor;
        value           nonuniform List<vector> 
36
(
(1285.827361 400.8547564 0.2500257077)
(1327.730243 436.9938398 1.873032279)
(1323.427341 432.5623258 0.4274976044)
(1320.759239 428.7986546 -1.853799695)
(1318.528501 425.7036498 -3.34012064)
(1313.204009 416.8407228 0.1822398778)
(1313.204009 416.8407228 0.1822398778)
(1404.90456 400.3608105 -2.445902704)
(1394.154963 413.1881844 1.299488281)
(1379.678357 419.9796647 -2.194712904)
(1368.411002 427.0412016 -2.541906746)
(1356.860192 434.0072274 -1.706594007)
(1356.860192 434.0072274 -1.706594007)
(1517.136021 272.3987745 1.428296453)
(1498.407738 298.5321759 -0.1648925414)
(1476.714818 324.6340971 -0.1336152957)
(1467.818094 340.7657953 -1.994370119)
(1446.36271 363.0094246 0.5010609039)
(1446.36271 363.0094246 0.5010609039)
(1648.084223 103.8164706 -2.489587745)
(1633.29546 121.4695073 -2.752727909)
(1622.168974 136.1274394 -2.222696475)
(1607.94832 159.4529544 -1.820010018)
(1587.733307 183.5678177 0.968060515)
(1570.100675 209.8801544 -2.019137398)
(1570.100675 209.8801544 -2.019137398)
(1709.465957 22.73892091 -2.353495706)
(1702.169835 32.84822699 -4.435470807)
(1697.410072 39.93785508 -4.557314504)
(1688.427219 51.17412982 -5.4789984)
(1684.595511 57.67916447 -4.922268388)
(1677.326415 65.80756344 -5.640674334)
(1677.326415 65.80756344 -5.640674334)
(1723.230603 13.22096679 -2.263144997)
(1719.920164 19.88574846 -0.587521294)
(1719.920164 19.88574846 -0.587521294)
)
;
    }
    procBoundary3to2
    {
        type            processor;