/*--------------------------------*- C++ -*----------------------------------*\
  =========                 |
  \\      /  F ield         | OpenFOAM: The Open Source CFD Toolbox
   \\    /   O peration     | Website:  https://openfoam.org
    \\  /    A nd           | Version:  7
     \\/     M anipulation  |
\*---------------------------------------------------------------------------*/
FoamFile
{
    version     2.0;
    format      ascii;
    class       volScalarField;
    location    "0.9";
    object      alpha.water;
}
// * * * * * * * * * * * * * * * * * * * * * * * * * * * * * * * * * * * * * //

dimensions      [0 0 0 0 0 0 0];

internalField   nonuniform List<scalar> 
2268
(
1
1
1
1
1
1
1
1
1
1
1
1
0.999999
0.999993
0.999518
0.980855
0.967201
0.967201
0.967201
0.967226
0.96735
0.987732
0.999764
1
1
1
1
1
1
1
1
1
1
1
1
0.999999
0.999999
0.99998
0.999537
0.994308
0.985281
0.982261
0.98652
0.994821
0.996581
0.99977
1
1
1
1
1
1
1
1
1
1
1
1
1
1
1
1
1
1
1
1
1
1
0.99979
1
1
1
1
1
1
1
1
1
1
1
1
1
1
1
1
1
1
1
1
1
0.999886
0.999701
1
1
1
1
1
1
1
1
1
1
1
1
1
1
1
1
1
1
1
0.999999
0.999993
0.999787
0.999701
1
1
1
1
1
1
1
1
1
1
1
1
1
1
1
1
1
0.999998
0.999994
0.999989
0.999977
0.999882
0.999801
1
1
1
1
1
1
1
1
1
1
1
1
1
1
1
0.999999
0.999996
0.999984
0.999944
0.999904
0.999903
0.999845
0.999812
1
1
1
1
1
1
1
1
1
1
1
1
1
1
0.999999
0.999994
0.99997
0.999859
0.999557
0.999263
0.999475
0.999575
0.999794
0.995369
0.986446
0.990063
0.996687
0.996722
0.996659
0.994991
0.992509
0.99128
0.989417
0.987753
0.983017
0.90986
0.905697
0.917255
0.941119
0.943552
0.944615
0.937685
0.986177
0.98619
0.996607
0.996722
0.996674
0.996204
0.983398
0.964598
0.956289
0.951647
0.966687
0.976647
0.931275
0.905425
0.905318
0.905093
0.903951
0.948605
0.954728
0.989887
0.990899
0.996388
0.996625
0.996201
0.986576
0.971952
0.952579
0.913306
0.879782
0.879628
0.93938
0.952462
0.950731
0.910725
0.904758
0.902797
0.905993
0.939242
0.994349
0.995338
0.996271
0.996243
0.972961
0.748972
0.659896
0.754887
0.87296
0.877032
0.846741
0.918003
0.952244
0.952464
0.951854
0.950509
0.946429
0.890833
0.890833
0.994314
0.994387
0.995253
0.953266
0.437637
0.191126
0.226203
0.615499
0.861963
0.765718
0.766365
0.902014
0.936995
0.951854
0.950509
0.94869
0.943323
0.930085
0.898431
0.994282
0.994157
0.992422
0.667852
0.0972879
0.12367
0.229998
0.651198
0.732015
0.266313
0.233327
0.656907
0.887685
0.935935
0.946977
0.906843
0.842349
0.861818
0.894425
0.994125
0.99426
0.863038
0.103082
0.0880393
0.122948
0.575363
0.661609
0.616716
0.126138
0.0874286
0.144185
0.545661
0.668931
0.626961
0.384145
0.238519
0.285939
0.568048
0.993608
0.992775
0.742232
0.084805
0.0844484
0.0880393
0.307291
0.661609
0.635557
0.288734
0.0872008
0.086407
0.0977306
0.187041
0.179021
0.0943424
0.0946739
0.0945876
0.0945297
1
1
1
1
1
1
1
1
1
1
1
1
0.999999
0.999995
0.999993
0.999947
0.999724
0.998194
0.981978
0.976195
0.996698
0.997115
0.999383
1
1
1
1
1.00001
1.00004
1.00015
1
1
1
1
1
0.999998
0.999942
0.99992
0.998882
0.949892
0.729747
0.556752
0.636672
0.716849
0.633376
0.83996
0.96103
0.89772
0.814649
0.737237
0.676339
0.638118
0.619781
0.616728
0.617407
0.61975
0.641927
0.698982
0.751345
0.767894
0.760102
0.6542
0.367801
0.204144
0.27005
0.360573
0.132171
0.0352723
0.559023
0.339966
0.22019
0.128856
0.074104
0.0448269
0.0305864
0.0242226
0.0220398
0.0215201
0.0223251
0.0260955
0.0308269
0.0329992
0.0369802
0.0597415
0.0721128
0.0736878
0.14181
0.270178
0.187996
0.0192266
0.0177686
0.196318
0.00275335
0.00156295
0.00112162
0.000710926
0.000427448
0.000253071
0.000150232
9.10263e-05
5.81299e-05
4.27065e-05
4.94367e-05
0.000126198
0.000433264
0.00142328
0.00393226
0.0282035
0.213636
0.268389
0.270409
0.142193
0.017729
0.0155141
0.0157657
0.000377203
0.000192175
0.000142611
8.83267e-05
4.9473e-05
2.64931e-05
1.40732e-05
7.69428e-06
4.64844e-06
4.07707e-06
9.2903e-06
4.03136e-05
0.000127779
0.000432109
0.00151269
0.00491018
0.0615134
0.239368
0.264133
0.206082
0.0154413
0.0137585
0.0119748
5.24547e-05
2.73568e-05
1.93616e-05
1.14837e-05
6.06682e-06
3.01846e-06
1.48933e-06
7.7092e-07
4.75511e-07
5.90199e-07
2.34247e-06
9.98759e-06
3.85648e-05
0.000177322
0.000749006
0.00203816
0.00518975
0.0691941
0.256553
0.238437
0.154482
0.0120025
0.0110105
7.04397e-06
3.75814e-06
2.64367e-06
1.53948e-06
7.80713e-07
3.70101e-07
1.74814e-07
8.86684e-08
5.80116e-08
9.98839e-08
5.42123e-07
2.25878e-06
1.28817e-05
6.82049e-05
0.000241338
0.000683455
0.00170657
0.0144065
0.143663
0.221208
0.221208
0.107482
0.0100589
9.37161e-07
5.15061e-07
3.6526e-07
2.10361e-07
1.04468e-07
4.83112e-08
2.24206e-08
1.1409e-08
7.86051e-09
1.6371e-08
9.91438e-08
5.30716e-07
3.73914e-06
1.91804e-05
5.78046e-05
0.000145185
0.000339961
0.00172037
0.0390844
0.215363
0.21697
0.216519
0.0524876
1.22168e-07
7.03723e-08
5.05708e-08
2.90326e-08
1.44799e-08
6.78109e-09
3.2228e-09
1.69825e-09
1.14533e-09
2.477e-09
1.63501e-08
1.01778e-07
7.8196e-07
3.71673e-06
1.08799e-05
2.642e-05
6.54767e-05
0.000157362
0.00118728
0.0573197
0.216519
0.219312
0.223682
1.5629e-08
9.6239e-09
6.98066e-09
4.11851e-09
2.19613e-09
1.12407e-09
5.97573e-10
3.51707e-10
2.4012e-10
3.72609e-10
2.47461e-09
1.64083e-08
1.24616e-07
6.21268e-07
1.92696e-06
4.36318e-06
9.01082e-06
1.39665e-05
3.44705e-05
0.000405482
0.044006
0.220333
0.226008
1.98884e-09
1.44713e-09
1.09153e-09
7.04101e-10
4.1703e-10
2.30481e-10
1.278e-10
8.70116e-11
6.68518e-11
7.27382e-11
3.71656e-10
2.56689e-09
1.92037e-08
1.07417e-07
3.2021e-07
7.0543e-07
1.29156e-06
2.164e-06
1.60857e-06
-7.98146e-06
8.29332e-06
-5.09557e-05
0.128758
3.30181e-10
2.65229e-10
2.04563e-10
1.33356e-10
8.77682e-11
7.82113e-11
5.55419e-11
3.637e-11
2.14747e-11
1.82806e-11
7.31971e-11
4.01243e-10
3.16648e-09
1.83544e-08
5.54838e-08
1.12873e-07
1.94933e-07
2.78122e-07
3.22881e-07
9.29805e-08
-1.17154e-06
-5.35452e-07
-3.30244e-05
5.33006e-11
5.38575e-11
5.45106e-11
4.68753e-11
3.54792e-11
2.55489e-11
1.63471e-11
8.75764e-12
3.27257e-12
1.84746e-12
9.45712e-12
6.99822e-11
4.96165e-10
2.87863e-09
8.88165e-09
1.74849e-08
2.92429e-08
3.88073e-08
4.49381e-08
1.05428e-07
1.33995e-08
1.70805e-08
1.30349e-08
1.71295e-11
1.75378e-11
1.55123e-11
1.2259e-11
8.46255e-12
4.92459e-12
2.59081e-12
9.28318e-13
1.06001e-13
-4.11244e-16
8.93831e-14
9.54383e-12
8.91284e-11
4.4015e-10
1.30716e-09
2.69802e-09
4.40751e-09
5.64618e-09
6.13482e-09
1.52316e-08
1.07585e-08
2.56344e-08
1.36619e-08
3.31977e-12
3.28146e-12
2.61175e-12
1.83314e-12
1.13837e-12
6.37106e-13
2.65794e-13
3.03315e-14
-2.83402e-13
-1.44938e-12
0
3.79279e-13
1.16733e-11
7.26943e-11
2.38643e-10
4.92272e-10
7.65931e-10
9.4683e-10
9.7666e-10
1.11245e-09
2.03186e-09
4.59109e-09
5.67901e-09
3.76581e-13
3.79086e-13
3.07753e-13
2.15543e-13
1.33201e-13
6.4875e-14
8.05349e-15
-4.94827e-14
-4.80405e-13
-1.28489e-12
-1.81559e-12
1.28226e-28
8.40533e-13
8.69511e-12
3.28763e-11
7.52596e-11
1.23818e-10
1.57931e-10
1.84435e-10
3.06785e-10
4.72608e-10
5.5359e-10
4.86294e-10
3.95538e-14
4.2098e-14
3.45585e-14
2.3931e-14
1.35902e-14
3.28206e-15
-1.32978e-15
-9.03076e-14
-2.97918e-13
-6.77009e-13
-1.1415e-12
-7.66321e-13
1.28226e-28
8.05993e-13
3.88995e-12
1.13646e-11
2.39596e-11
4.25588e-11
6.33628e-11
9.1415e-11
1.39503e-10
1.76908e-10
2.20171e-10
4.0681e-15
4.51379e-15
3.66458e-15
2.36764e-15
8.42391e-16
0
-1.29354e-14
-5.11236e-14
-1.307e-13
-2.73713e-13
-4.80935e-13
-5.63208e-13
-1.88238e-14
-8.14172e-30
3.97493e-13
1.62531e-12
4.39902e-12
9.50402e-12
1.66692e-11
2.44091e-11
3.78508e-11
5.34818e-11
7.37893e-11
3.89382e-16
4.51148e-16
3.48284e-16
1.66727e-16
2.50408e-17
-1.43647e-15
-7.19858e-15
-2.01278e-14
-4.54921e-14
-9.06055e-14
-1.60593e-13
-2.23997e-13
-1.55088e-13
0
2.00595e-14
1.40504e-13
4.62168e-13
1.13874e-12
2.34574e-12
4.24524e-12
6.96279e-12
1.1045e-11
1.6597e-11
3.22963e-17
4.01829e-17
2.56595e-17
4.1273e-18
-1.32919e-16
-8.67328e-16
-2.63321e-15
-6.26057e-15
-1.31141e-14
-2.52125e-14
-4.45923e-14
-6.72332e-14
-6.84192e-14
-1.84422e-14
-2.12224e-19
7.62752e-15
2.90862e-14
7.83925e-14
1.78264e-13
3.71504e-13
6.9675e-13
1.271e-12
2.26426e-12
1.75179e-18
2.7012e-18
7.21719e-19
-9.52565e-18
-9.52995e-17
-3.05625e-16
-7.50833e-16
-1.61318e-15
-3.19855e-15
-5.97721e-15
-1.04947e-14
-1.64288e-14
-1.98094e-14
-1.29784e-14
-5.5206e-18
4.98416e-17
1.45128e-15
4.12561e-15
9.22463e-15
1.90807e-14
3.89933e-14
7.67447e-14
1.59135e-13
7.59642e-21
6.14995e-20
-2.16077e-19
-9.40052e-18
-3.30418e-17
-8.19666e-17
-1.76848e-16
-3.52611e-16
-6.68278e-16
-1.21671e-15
-2.11218e-15
-3.36001e-15
-4.4299e-15
-3.93049e-15
-1.51639e-15
-2.52715e-18
1.80519e-17
1.67191e-16
4.14961e-16
8.14523e-16
1.57927e-15
2.92755e-15
6.42622e-15
-3.24549e-19
-8.04605e-20
-7.81981e-19
-3.26347e-18
-8.46578e-18
-1.80438e-17
-3.53811e-17
-6.6296e-17
-1.20558e-16
-2.13711e-16
-3.65191e-16
-5.82061e-16
-8.04528e-16
-8.34454e-16
-5.10981e-16
-1.22894e-16
0
2.91016e-18
1.53018e-17
3.23029e-17
5.44949e-17
1.0624e-16
7.57277e-16
-1.72663e-19
-1.02152e-19
-2.81854e-19
-8.07632e-19
-1.76657e-18
-3.37273e-18
-6.10995e-18
-1.08189e-17
-1.88821e-17
-3.24986e-17
-5.43743e-17
-8.58635e-17
-1.21105e-16
-1.37046e-16
-1.04848e-16
-4.36573e-17
-7.38394e-18
0
3.69191e-19
9.56698e-19
2.09823e-18
3.12617e-17
7.45098e-16
-4.86981e-20
-3.29446e-20
-6.84799e-20
-1.61275e-19
-3.12653e-19
-5.45482e-19
-9.20281e-19
-1.54226e-18
-2.57792e-18
-4.28883e-18
-6.98111e-18
-1.08093e-17
-1.52435e-17
-1.80343e-17
-1.56455e-17
-8.40853e-18
-2.51537e-18
-3.45695e-19
3.82144e-36
1.71774e-20
7.64581e-19
3.20469e-17
7.89125e-16
-1.04598e-20
-7.44552e-21
-1.32452e-20
-2.72631e-20
-4.79636e-20
-7.72571e-20
-1.21794e-19
-1.92985e-19
-3.07781e-19
-4.92105e-19
-7.73433e-19
-1.16187e-18
-1.60966e-18
-1.92875e-18
-1.79026e-18
-1.11111e-18
-4.23628e-19
-1.01067e-19
-1.31344e-20
2.89356e-21
7.3366e-19
3.15669e-17
7.53897e-16
-1.86928e-21
-1.35808e-21
-2.16079e-21
-3.99946e-21
-6.46507e-21
-9.6635e-21
-1.42441e-20
-2.12826e-20
-3.22232e-20
-4.91725e-20
-7.39747e-20
-1.06591e-19
-1.42643e-19
-1.68454e-19
-1.60101e-19
-1.07176e-19
-4.63588e-20
-1.34905e-20
-2.74112e-21
5.20654e-21
6.79032e-19
2.7629e-17
6.31436e-16
-2.88387e-22
-2.1055e-22
-3.05844e-22
-5.1689e-22
-7.72968e-22
-1.07449e-21
-1.47918e-21
-2.07601e-21
-2.96613e-21
-4.28587e-21
-6.11077e-21
-8.3396e-21
-1.0593e-20
-1.20102e-20
-1.12384e-20
-7.6785e-21
-3.49646e-21
-1.09616e-21
-2.13001e-22
5.18902e-21
5.65059e-19
2.14417e-17
4.58164e-16
-3.91578e-23
-2.84693e-23
-3.81898e-23
-5.94654e-23
-8.2571e-23
-1.06788e-22
-1.36984e-22
-1.79746e-22
-2.40714e-22
-3.26446e-22
-4.36265e-22
-5.55993e-22
-6.57634e-22
-6.96441e-22
-6.16557e-22
-4.07089e-22
-1.82081e-22
-5.56785e-23
6.76995e-24
3.81285e-21
4.11458e-19
1.42479e-17
2.65455e-16
-4.73485e-24
-3.409e-24
-4.25394e-24
-6.13767e-24
-7.92855e-24
-9.53338e-24
-1.1361e-23
-1.38648e-23
-1.72758e-23
-2.17789e-23
-2.69487e-23
-3.15677e-23
-3.40323e-23
-3.26473e-23
-2.61492e-23
-1.56628e-23
-6.32214e-24
-1.57921e-24
9.07662e-24
2.03117e-21
2.25026e-19
7.06081e-18
1.10438e-16
-5.14023e-25
-3.65251e-25
-4.26233e-25
-5.72049e-25
-6.88061e-25
-7.68174e-25
-8.47544e-25
-9.56616e-25
-1.10044e-24
-1.27643e-24
-1.44297e-24
-1.52639e-24
-1.46369e-24
-1.22742e-24
-8.4262e-25
-4.21296e-25
-1.34336e-25
-1.0637e-26
2.12744e-24
5.68675e-22
6.3039e-20
2.11169e-18
3.55513e-17
-5.04255e-26
-3.52947e-26
-3.86819e-26
-4.84281e-26
-5.42515e-26
-5.6143e-26
-5.7142e-26
-5.93075e-26
-6.24816e-26
-6.59678e-26
-6.71604e-26
-6.29108e-26
-5.21825e-26
-3.66609e-26
-2.01226e-26
-7.41871e-27
-1.37529e-27
2.53209e-27
3.6813e-25
8.22777e-23
1.00815e-20
5.12608e-19
1.52451e-17
-4.49612e-27
-3.09708e-27
-3.19976e-27
-3.74524e-27
-3.90739e-27
-3.7413e-27
-3.49982e-27
-3.32108e-27
-3.1784e-27
-3.02077e-27
-2.72783e-27
-2.2148e-27
-1.53933e-27
-8.60584e-28
-3.43812e-28
-7.53524e-29
-2.85186e-30
5.03162e-28
5.42677e-26
9.05673e-24
1.47429e-21
1.62498e-19
1.01859e-17
-3.66528e-28
-2.48415e-28
-2.42775e-28
-2.66159e-28
-2.5854e-28
-2.28612e-28
-1.95851e-28
-1.68967e-28
-1.45725e-28
-1.23284e-28
-9.71999e-29
-6.68455e-29
-3.75534e-29
-1.56917e-29
-3.99547e-30
-3.55999e-31
7.15557e-31
5.70863e-29
5.32148e-27
8.95336e-25
2.19805e-22
4.47788e-20
4.18817e-18
-2.74976e-29
-1.83385e-29
-1.70071e-29
-1.74909e-29
-1.58127e-29
-1.28884e-29
-1.00774e-29
-7.86245e-30
-6.06361e-30
-4.51611e-30
-3.05921e-30
-1.73911e-30
-7.5875e-31
-2.19631e-31
-2.93653e-32
-1.54289e-33
3.8233e-32
3.12964e-30
3.24162e-28
6.36294e-26
2.26819e-23
6.44485e-21
6.76758e-19
-1.913e-30
-1.2553e-30
-1.1078e-30
-1.07006e-30
-8.99864e-31
-6.74868e-31
-4.80087e-31
-3.37078e-31
-2.30782e-31
-1.49726e-31
-8.57686e-32
-3.93052e-32
-1.27496e-32
-2.3371e-33
-1.34854e-34
-4.64508e-37
7.69908e-34
5.93964e-32
7.98681e-30
2.57377e-27
1.51204e-24
6.93747e-22
9.79371e-20
-1.24531e-31
-8.03262e-32
-6.75991e-32
-6.13749e-32
-4.79793e-32
-3.30538e-32
-2.13335e-32
-1.34214e-32
-8.10502e-33
-4.53617e-33
-2.16442e-33
-7.7985e-34
-1.79651e-34
-1.88865e-35
-7.14395e-37
1.56324e-38
1.27112e-37
8.44729e-36
1.88733e-33
7.35496e-29
6.83286e-26
3.94069e-23
7.57064e-21
-7.66453e-33
-4.8467e-33
-3.89387e-33
-3.32409e-33
-2.41394e-33
-1.52543e-33
-8.91191e-34
-5.00599e-34
-2.65205e-34
-1.26984e-34
-4.97952e-35
-1.37792e-35
-2.1543e-36
-1.18602e-37
-3.5379e-39
-1.0168e-40
6.60049e-41
3.44899e-38
1.32422e-34
1.29624e-29
1.96092e-27
1.30859e-24
3.74436e-22
-4.51042e-34
-2.78135e-34
-2.13299e-34
-1.71194e-34
-1.15415e-34
-6.68271e-35
-3.52796e-35
-1.76482e-35
-8.16987e-36
-3.3262e-36
-1.06095e-36
-2.212e-37
-2.25659e-38
-6.22523e-40
-1.41234e-41
-3.04393e-43
1.04081e-44
1.89202e-41
8.06383e-38
3.24398e-32
1.07941e-29
1.1305e-27
3.21029e-25
-2.56563e-35
-1.52994e-35
-1.11859e-35
-8.43866e-36
-5.27958e-36
-2.79909e-36
-1.33394e-36
-5.9338e-37
-2.39535e-37
-8.26745e-38
-2.1347e-38
-3.32229e-39
-2.1676e-40
-3.34439e-42
-4.93852e-44
-6.85902e-46
-8.7975e-48
-5.93284e-50
3.5135e-41
7.27414e-35
5.21936e-32
2.75888e-30
1.11472e-28
-1.42226e-36
-8.11756e-37
-5.64843e-37
-4.00446e-37
-2.32452e-37
-1.1281e-37
-4.85138e-38
-1.91849e-38
-6.75409e-39
-1.9786e-39
-4.15145e-40
-4.87569e-41
-2.10738e-42
-2.07402e-44
-1.5842e-46
-8.8445e-49
-4.0246e-51
-1.6322e-53
-6.19691e-56
4.26467e-47
7.93586e-40
1.23548e-35
7.95338e-34
0.999122
0.999161
0.999163
0.999085
0.999046
0.999161
0.999063
0.998259
0.998996
0.998987
0.998613
0.997413
0.957693
0.998549
0.998293
0.997801
0.365444
0.903619
0.997787
0.996091
0.0130914
0.212032
0.579198
0.748641
0.0100433
0.0123615
0.0405848
0.0688787
0.0100589
0.0100261
0.0102665
0.0107889
0.0100127
0.010271
0.0113358
0.0132512
0.0327535
0.0203768
0.0190765
0.00984952
0.226714
0.225827
0.220626
0.049298
0.226465
0.220118
0.219735
0.222294
-2.19787e-05
0.000862964
0.014271
0.151016
7.25868e-09
-7.84949e-07
-2.68191e-07
2.39932e-09
7.5206e-09
7.13053e-09
6.06606e-09
5.14194e-09
1.5363e-08
1.79858e-08
1.71558e-08
4.2994e-09
6.16869e-10
1.22211e-09
2.66676e-09
2.29078e-09
2.52545e-10
2.45164e-10
2.33454e-10
2.91694e-10
8.87819e-11
9.38865e-11
9.66936e-11
1.1387e-10
2.16371e-11
2.54644e-11
2.92425e-11
3.29431e-11
3.32814e-12
4.22174e-12
5.36415e-12
6.44165e-12
2.61598e-13
3.55969e-13
4.92436e-13
6.61201e-13
1.15538e-14
1.70654e-14
2.67613e-14
4.23532e-14
2.21611e-15
4.4348e-15
9.37866e-15
1.74882e-14
2.38273e-15
4.89665e-15
1.05408e-14
1.9475e-14
2.5231e-15
5.1689e-15
1.11704e-14
2.04114e-14
2.39313e-15
4.87751e-15
1.05284e-14
1.90894e-14
1.99124e-15
4.04894e-15
8.74183e-15
1.61131e-14
1.43255e-15
2.916e-15
6.29701e-15
1.22128e-14
8.16786e-16
1.65863e-15
3.57084e-15
7.35374e-15
3.31112e-16
6.61274e-16
1.43099e-15
2.77403e-15
1.07837e-16
2.20166e-16
5.06598e-16
9.49725e-16
5.30621e-17
1.29999e-16
4.33068e-16
1.02906e-15
4.37001e-17
1.40626e-16
7.10493e-16
1.87162e-15
2.31804e-17
1.00868e-16
7.73766e-16
2.08403e-15
4.40352e-18
2.4483e-17
2.7478e-16
6.78711e-16
7.64634e-19
4.70483e-18
5.23748e-17
9.19308e-17
7.74589e-20
6.46924e-19
6.80329e-18
9.2844e-18
4.81623e-21
4.21998e-20
3.24419e-19
3.20804e-19
6.27628e-24
1.57133e-22
1.69182e-21
1.27717e-21
2.6913e-27
2.53032e-25
3.79849e-24
1.8493e-24
1.096e-33
1.10112e-29
1.17217e-27
2.00896e-28
0.997398
0.953953
0.291194
0.0835162
0.0839823
0.0844388
0.105247
0.40161
0.615049
0.420832
0.0863866
0.0863995
0.086437
0.0865524
0.0870193
0.090382
0.0941048
0.0945196
0.0945358
0.99319
0.644993
0.0834175
0.0834775
0.0835162
0.284623
0.456001
0.314772
0.347371
0.481002
0.105947
0.0864591
0.0865524
0.0901303
0.117328
0.141238
0.115593
0.0945196
0.0945196
0.990617
0.556644
0.083505
0.0835162
0.10586
0.607932
0.631361
0.320788
0.539973
0.49416
0.0892546
0.0865756
0.0940838
0.199225
0.198253
0.197402
0.194821
0.138762
0.0946149
0.994734
0.839303
0.459252
0.291429
0.541262
0.753324
0.753179
0.6335
0.609893
0.530987
0.169338
0.0870415
0.138289
0.199228
0.199225
0.157383
0.0905142
0.0983337
0.112982
0.995316
0.993515
0.979295
0.914845
0.866999
0.816156
0.748784
0.515094
0.519462
0.539316
0.336832
0.0882761
0.108588
0.199228
0.19613
0.00151447
0.000682554
0.0193035
0.0877831
0.803136
0.767334
0.659742
0.605952
0.582723
0.658617
0.599971
0.151391
0.189906
0.53924
0.310201
0.0896224
0.109491
0.199228
0.0741529
0.000452294
0.000464299
0.000684175
0.00117917
0.101088
0.122351
0.114738
0.129686
0.25212
0.287127
0.120758
0.00284618
0.064814
0.53924
0.106221
0.0978657
0.165357
0.198217
0.0195807
0.000105648
0.000191796
0.000863471
0.00356498
0.0141683
0.0206137
0.0755081
0.0630757
0.0287198
0.00144819
0.00162602
0.00192666
0.0942437
0.536125
0.0898969
0.0543938
0.135912
0.140987
0.0115744
3.27856e-05
6.32878e-05
0.00309877
0.0086715
0.0456876
0.0481337
0.0410873
0.00263514
0.00122198
0.00116105
0.00142096
0.00153177
0.168801
0.29648
0.0789916
0.0314725
0.0394631
5.9191e-06
0.000951134
1.12943e-05
2.80051e-05
0.00136122
0.0086715
0.00705888
0.00612759
0.00318676
0.00122205
0.001161
0.00116081
0.00116086
0.0879942
0.206561
0.0271312
0.0125566
0.00789234
0.00885746
3.30154e-06
5.7163e-06
4.58841e-06
3.47329e-06
0.000806315
0.00530169
0.0327736
0.025636
0.00350421
0.00156667
0.00183061
0.00201237
0.00684153
0.199918
0.206561
0.00901551
0.00216685
0.00262533
0.00334157
2.56838e-06
3.27585e-06
3.32476e-06
3.26109e-06
0.000908009
5.92966e-05
0.222294
0.222294
0.0654297
0.0939054
0.113162
0.109679
0.130132
0.15347
0.05675
0.00178368
0.00211953
0.00291936
0.00218176
2.36938e-06
2.57749e-06
2.93772e-06
3.26863e-06
0.000911005
3.70931e-05
0.201966
0.178743
0.184125
0.184125
0.184125
0.177009
0.139966
0.0087828
8.11429e-05
0.00160897
0.00218077
0.00122203
2.34613e-06
2.33657e-06
2.37429e-06
2.96379e-06
3.02049e-06
0.000577974
1.97645e-05
-2.95112e-08
-7.91371e-08
0.0531679
0.0585954
0.0112706
1.86912e-07
2.60244e-07
8.34717e-07
2.73357e-05
0.00145239
0.00176345
0.000152659
2.33894e-06
2.35636e-06
6.91204e-06
2.52477e-05
5.29518e-06
4.94674e-06
4.9562e-06
6.06539e-09
1.16023e-08
7.39612e-09
2.68083e-09
7.64118e-09
3.80697e-08
3.39072e-07
0.000100288
0.000348353
0.000133011
2.99319e-07
4.83663e-07
4.88246e-06
3.96707e-05
4.93957e-05
4.9262e-05
9.10314e-06
4.85939e-06
4.97171e-06
4.83767e-08
1.4998e-07
1.33769e-07
1.63675e-10
5.32041e-08
4.93332e-08
1.07427e-06
0.000135698
0.000199427
3.00346e-07
5.41782e-08
7.99319e-06
4.94272e-05
4.94272e-05
4.94272e-05
4.49375e-05
6.74745e-06
5.00747e-06
5.17967e-06
2.4709e-09
1.92194e-08
9.92303e-11
1.15368e-10
8.81533e-08
4.69482e-09
4.27511e-07
2.76991e-05
5.42241e-05
2.35682e-07
1.83064e-09
8.31315e-08
1.10189e-05
3.03541e-05
2.94993e-05
3.48091e-06
8.99512e-06
6.62834e-06
5.05615e-06
1.046e-10
1.03833e-10
1.03932e-10
1.13967e-10
1.14833e-10
9.32618e-11
2.32087e-10
9.97051e-07
1.78006e-05
1.83045e-09
1.71774e-09
1.67611e-09
1.62142e-09
2.05014e-09
1.14282e-08
3.14584e-06
1.53768e-05
1.51245e-05
4.29338e-06
1.36093e-10
1.34786e-10
1.44053e-10
1.97799e-10
1.83359e-10
9.22769e-11
2.79147e-11
2.88336e-07
1.09357e-05
4.78308e-06
1.67611e-09
1.60356e-09
1.46016e-09
1.40055e-09
4.49923e-06
1.55236e-05
1.55635e-05
4.15048e-06
4.8786e-06
4.04856e-11
5.25129e-11
6.87001e-11
1.1322e-10
1.80773e-10
1.38228e-10
2.50543e-11
5.07664e-07
5.05267e-07
1.63303e-06
5.25839e-07
1.4603e-09
1.43184e-09
1.36435e-09
1.53802e-05
1.55637e-05
1.52991e-05
1.84685e-06
2.2432e-05
7.79715e-12
1.10294e-11
1.77168e-11
3.19584e-11
6.20471e-11
4.63544e-11
2.18861e-11
3.96637e-07
7.06195e-07
4.5371e-07
1.13232e-07
2.67568e-08
1.41884e-09
1.3714e-09
4.4132e-06
1.54551e-05
3.2436e-06
1.68677e-06
0.000166288
9.01038e-13
1.48081e-12
2.87405e-12
7.6362e-12
2.06066e-11
1.57078e-11
1.62491e-11
2.74573e-08
4.39874e-07
3.44628e-07
3.81777e-08
1.02988e-08
3.67881e-09
1.36429e-09
1.3714e-09
4.2682e-06
1.29511e-07
1.25299e-06
0.000195143
9.13421e-14
4.0512e-13
1.69673e-12
7.32154e-12
1.52334e-11
1.50191e-11
2.10688e-09
1.08775e-08
1.04275e-08
1.26584e-08
1.07784e-08
6.44138e-09
1.4662e-09
1.3714e-09
2.75208e-07
1.29526e-07
1.28298e-07
1.60527e-06
0.000195773
7.15979e-14
6.03374e-13
2.8871e-12
1.16654e-11
1.949e-11
1.53435e-11
2.03267e-09
1.012e-08
8.47856e-09
2.46122e-09
1.36814e-09
1.08529e-09
6.08407e-10
2.16225e-09
3.97674e-07
1.32508e-07
1.27629e-07
1.89431e-05
0.000196075
8.73669e-14
1.06524e-12
6.20125e-12
1.97021e-11
3.22066e-11
1.60408e-11
7.97964e-10
2.77402e-09
2.59119e-09
1.45497e-09
1.02394e-09
7.71088e-10
5.90469e-10
8.73718e-09
3.97845e-07
1.34231e-07
1.0514e-07
0.000136189
0.000197827
1.05168e-13
1.5997e-12
9.90965e-12
2.81854e-11
4.40625e-11
6.39125e-11
1.2048e-10
1.87497e-10
3.39359e-10
5.51837e-10
7.81542e-10
5.7172e-10
5.80606e-10
9.57415e-08
3.97285e-07
6.33106e-08
5.48562e-08
0.00020495
0.000201282
1.16929e-13
2.08691e-12
1.12992e-11
3.00376e-11
5.83406e-11
1.08978e-10
1.67078e-10
2.25543e-10
2.93106e-10
3.72134e-10
5.6687e-10
5.63056e-10
5.69564e-10
2.7231e-07
3.68936e-07
7.16513e-09
1.79529e-08
0.000209692
0.000138906
1.04461e-13
2.0882e-12
1.15274e-11
3.05691e-11
6.04753e-11
1.25087e-10
2.50254e-10
3.02531e-10
3.29987e-10
3.90602e-10
5.95538e-10
5.69564e-10
5.80606e-10
4.61866e-08
1.08562e-08
5.74374e-09
6.96676e-09
0.000216593
7.70283e-05
6.3333e-14
1.39362e-12
1.0806e-11
2.9106e-11
5.57438e-11
1.25082e-10
3.65199e-10
1.32831e-09
1.99068e-09
1.81056e-09
1.30492e-09
8.32205e-10
1.9922e-09
2.03009e-09
2.19327e-09
2.31456e-09
5.23278e-05
0.000223268
7.6898e-05
2.86965e-14
6.26497e-13
8.31682e-12
2.78051e-11
3.45013e-11
1.20743e-10
1.30224e-09
3.88123e-09
5.02636e-09
4.1058e-09
1.73199e-09
8.45752e-10
7.30683e-09
7.94298e-09
2.31283e-09
2.56595e-09
0.000172114
0.000223579
7.88601e-05
1.29066e-14
2.35755e-13
3.51375e-12
1.34209e-11
2.58431e-11
1.56668e-10
1.31417e-09
3.70811e-09
5.05516e-09
5.62664e-09
6.1179e-09
7.24376e-09
8.90883e-09
6.42024e-09
2.56595e-09
2.96714e-09
0.000213124
0.000223575
4.62045e-05
1.45395e-14
1.80263e-13
2.05305e-12
2.00879e-11
5.53382e-11
2.57574e-10
9.39725e-10
1.65919e-09
3.142e-09
9.73916e-09
1.2973e-08
1.2973e-08
1.13639e-08
6.19325e-09
2.95968e-09
4.6298e-09
0.000214003
0.000223577
1.72793e-05
3.72183e-14
3.32177e-13
3.77868e-12
5.28784e-11
9.94268e-11
2.6534e-10
6.83484e-10
1.25231e-09
7.184e-09
1.29553e-08
1.29642e-08
9.43803e-09
6.77324e-09
6.46999e-09
4.44545e-09
0.000106482
0.000224743
0.000141683
2.06444e-06
1.23151e-13
1.37266e-12
5.34513e-12
6.49501e-11
1.0136e-10
1.03476e-10
1.74372e-09
7.51013e-09
9.99199e-09
9.81913e-09
5.91078e-09
5.52415e-09
3.59173e-08
6.77324e-09
8.88441e-09
0.00020419
0.000224743
7.2436e-05
2.96288e-07
2.32108e-13
4.7225e-12
1.67694e-11
7.44839e-11
1.06845e-10
1.04248e-10
2.26965e-09
7.60079e-09
7.70826e-09
4.76445e-09
4.90789e-09
1.86176e-06
1.63376e-06
9.1972e-09
3.30465e-05
0.000212211
0.000217115
2.48214e-05
4.08898e-09
2.31675e-13
5.95194e-12
3.50756e-11
1.33708e-10
1.65187e-10
1.70274e-10
9.48816e-10
1.82436e-09
6.9418e-10
6.92627e-10
2.75943e-06
5.62954e-06
2.72256e-06
6.89982e-08
3.52675e-05
0.000146038
6.42571e-06
3.95115e-10
1.10222e-10
6.01366e-14
3.61079e-12
5.00119e-11
1.74825e-10
2.32689e-10
2.18627e-10
2.20714e-10
2.08773e-10
2.08499e-10
2.94439e-06
5.62954e-06
5.62954e-06
3.66767e-06
1.1271e-06
7.19994e-06
9.51835e-09
3.62225e-10
8.21489e-11
1.05758e-10
4.52133e-15
7.37632e-13
1.89243e-11
1.59914e-10
2.65303e-10
2.6477e-10
2.17377e-10
2.08499e-10
2.08498e-10
1.83572e-06
3.2681e-06
2.31894e-06
5.41582e-06
5.39234e-06
7.89574e-07
3.56884e-11
3.99733e-11
5.56983e-11
1.05487e-10
4.03995e-16
5.63517e-14
3.18357e-12
6.8431e-11
2.49554e-10
3.20134e-10
3.24674e-10
2.08496e-10
2.08499e-10
4.31648e-08
3.49059e-08
5.43018e-08
3.31091e-08
2.47557e-09
3.38908e-11
2.87106e-11
3.92513e-11
6.19851e-11
8.94364e-11
1.12805e-17
2.93011e-15
2.21673e-13
1.23759e-11
1.30016e-10
1.99931e-10
7.3352e-10
2.01063e-09
2.27605e-09
2.27461e-09
2.99169e-09
1.83118e-08
1.34905e-08
3.8025e-09
6.63014e-11
2.56216e-11
5.01306e-11
1.02474e-10
9.07905e-11
4.65242e-20
4.00605e-17
6.84966e-15
7.91391e-13
3.00803e-11
5.1146e-11
1.24881e-09
2.77966e-09
2.82275e-09
2.34307e-09
3.681e-09
3.00161e-09
2.18253e-10
7.78338e-13
3.60168e-12
2.4752e-11
1.30234e-11
1.31434e-11
9.54496e-07
6.41262e-23
6.02289e-20
3.7481e-17
1.05523e-14
1.56528e-12
1.21309e-11
3.21458e-10
1.24067e-09
1.41662e-09
1.2436e-09
8.20826e-10
1.61965e-10
3.89468e-12
7.25557e-13
2.66846e-13
4.45575e-13
3.20997e-14
1.04861e-09
2.18036e-06
)
;

boundaryField
{
    leftWall
    {
        type            zeroGradient;
    }
    rightWall
    {
        type            zeroGradient;
    }
    lowerWall
    {
        type            zeroGradient;
    }
    atmosphere
    {
        type            inletOutlet;
        inletValue      uniform 0;
        value           nonuniform List<scalar> 
46
(
-1.42226e-36
-8.11756e-37
-5.64843e-37
-4.00446e-37
-2.32452e-37
-1.1281e-37
-4.85138e-38
-1.91849e-38
-6.75409e-39
-1.9786e-39
-4.15145e-40
-4.87569e-41
-2.10738e-42
-2.07402e-44
0
0
0
0
0
0
0
0
0
0
0
0
0
0
0
0
0
0
0
0
0
0
1.2436e-09
8.20826e-10
1.61965e-10
3.89468e-12
0
0
0
3.20997e-14
1.04861e-09
2.18036e-06
)
;
    }
    defaultFaces
    {
        type            empty;
    }
}


// ************************************************************************* //
