/*--------------------------------*- C++ -*----------------------------------*\
  =========                 |
  \\      /  F ield         | OpenFOAM: The Open Source CFD Toolbox
   \\    /   O peration     | Website:  https://openfoam.org
    \\  /    A nd           | Version:  7
     \\/     M anipulation  |
\*---------------------------------------------------------------------------*/
FoamFile
{
    version     2.0;
    format      ascii;
    class       volScalarField;
    location    "0.008";
    object      dsmcRhoNMean;
}
// * * * * * * * * * * * * * * * * * * * * * * * * * * * * * * * * * * * * * //

dimensions      [0 -3 0 0 0 0 0];

internalField   nonuniform List<scalar> 
546
(
7.4545
9.52075
9.6135
9.56825
9.581
9.565
9.584
9.64575
9.70375
9.6655
9.70225
9.70225
9.6355
9.58275
9.6045
9.51975
9.51275
9.559
9.608
9.6265
7.45975
9.5925
9.6135
9.66175
9.73225
9.7445
9.721
9.63175
9.61
9.64125
9.6675
9.63275
9.6055
9.6385
9.60375
9.63625
9.60975
9.6245
9.58525
9.49575
7.436
9.57375
9.659
9.60225
9.54525
9.59675
9.53525
9.60175
9.54075
9.58375
9.59925
9.6305
9.60075
9.64075
9.641
9.6205
9.576
9.557
9.5895
9.67875
7.4155
9.52075
9.531
9.51125
9.51475
9.5015
9.5915
9.54575
9.58525
9.51875
9.48375
9.49225
9.483
9.4905
9.54825
9.54275
9.5955
9.62975
9.64225
9.62625
7.44725
9.523
9.57775
9.55
9.58925
9.56625
9.49325
9.473
9.49175
9.49675
9.50625
9.49225
9.5765
9.5735
9.561
9.59525
9.62075
9.659
9.639
9.66675
7.43425
9.583
9.6435
9.6155
9.64775
9.68075
9.64575
9.64575
9.6485
9.70475
9.71275
9.644
9.6155
9.6595
9.70675
9.716
9.70025
9.62525
9.593
9.6135
7.4515
9.58475
9.6735
9.657
9.62825
9.6455
9.67475
9.7225
9.6775
9.6505
9.60325
9.69275
9.70725
9.61275
9.49475
9.46475
9.4765
9.49875
9.53325
9.5025
7.452
9.599
9.688
9.64575
9.672
9.707
9.68225
9.664
9.69325
9.7235
9.72775
9.63425
9.56825
9.59425
9.61425
9.66425
9.69375
9.61475
9.56275
9.58725
7.45775
9.54125
9.59875
9.5705
9.5815
9.53
9.58175
9.56425
9.5195
9.53
9.50875
9.57225
9.63525
9.6165
9.65575
9.66525
9.67775
9.713
9.75375
9.79375
7.43025
9.5355
9.57875
9.5285
9.57575
9.599
9.55875
9.537
9.57075
9.6125
9.628
9.599
9.6705
9.683
9.64875
9.62925
9.6195
9.68775
9.66275
9.64925
7.46275
9.6265
9.6775
9.63275
9.6275
9.673
9.7175
9.6945
9.65525
9.64675
9.673
9.6745
9.62975
9.68525
9.73175
9.75275
9.69625
9.65525
9.657
9.6845
7.4495
9.505
9.63475
9.6135
9.62325
9.60725
9.55775
9.50525
9.54575
9.6255
9.6155
9.57275
9.572
9.60075
9.54875
9.54125
9.6215
9.63125
9.55175
9.49875
7.45825
9.59975
9.6145
9.63725
9.582
9.593
9.66975
9.698
9.71825
9.709
9.6635
9.644
9.59475
9.5995
9.598
9.567
9.57875
9.57075
9.57375
9.61075
7.4855
9.63575
9.6535
9.66525
9.665
9.60225
9.56325
9.54975
9.5
9.4375
9.5205
9.5205
9.594
9.6265
9.57075
9.57275
9.58075
9.583
9.61625
9.57525
7.4675
9.55
9.58425
9.553
9.582
9.5395
9.57425
9.644
9.68575
9.703
9.68925
9.6665
9.5835
9.5405
9.54525
9.55575
9.57275
9.563
9.5995
9.60475
7.462
9.5735
9.567
9.67125
9.65675
9.71525
9.70575
9.6585
9.59225
9.5045
9.57375
9.58625
9.5745
9.595
9.57075
9.592
9.58075
9.51325
9.463
9.4575
7.44525
9.57575
9.6155
9.54925
9.509
9.476
9.461
9.514
9.53125
9.588
9.51725
9.54925
9.54125
9.55
9.54125
9.46925
9.53225
9.65375
9.6835
9.67525
7.284
9.38625
9.4465
9.4425
9.48675
9.513
9.52175
9.51
9.5345
9.526
9.58875
9.5745
9.60025
9.57875
9.5965
9.60275
9.5705
9.47375
9.44775
9.43675
9.3555
9.2625
9.2435
9.14925
9.11
9.11925
9.56925
9.477
9.31975
9.19925
9.197
9.20925
9.2075
9.143
9.15425
9.09175
9.50375
9.51325
9.48725
9.42975
9.4145
9.3275
9.27475
9.28225
9.10725
8.9965
9.63925
9.5045
9.47075
9.45725
9.38725
9.29925
9.1755
9.0555
9.06875
9.01975
9.6055
9.55
9.4685
9.333
9.2205
9.09275
9.11125
9.049
9.00175
8.99425
9.587
9.51275
9.426
9.4185
9.3785
9.36475
9.26025
9.18425
9.0785
8.90525
9.60725
9.582
9.51375
9.39875
9.3125
9.23475
9.27225
9.18475
9.1255
9.05275
9.462
9.38775
9.3965
9.358
9.28175
9.211
9.14625
9.10775
9.10425
9.078
9.539
9.449
9.3965
9.363
9.3565
9.348
9.2615
9.2045
9.11625
9.00575
9.786
9.69025
9.618
9.52225
9.381
9.27975
9.188
9.1415
9.1155
9.02575
9.65125
9.6065
9.5765
9.55075
9.41125
9.3495
9.27475
9.138
8.98125
8.89075
9.652
9.48225
9.402
9.29175
9.228
9.22425
9.146
9.10425
9.10675
9.1045
9.42375
9.376
9.334
9.2605
9.20725
9.163
9.08175
9.05425
8.9975
8.8805
9.6395
9.58075
9.48075
9.455
9.348
9.2685
9.2485
9.11025
9.08325
9.044
9.539
9.4635
9.42275
9.3865
9.38675
9.27125
9.18275
9.1275
9.01525
8.94925
9.5575
9.4795
9.405
9.31225
9.24675
9.173
9.12375
9.127
9.0835
9.03575
9.4595
9.44675
9.44875
9.4195
9.36025
9.26525
9.20325
9.082
8.974
8.958
9.644
9.498
9.39625
9.38925
9.276
9.2165
9.20575
9.19
9.08525
8.99725
9.3995
9.39225
9.25125
9.15675
9.11125
9.07075
8.98075
8.907
8.889
8.828
)
;

boundaryField
{
    flow
    {
        type            calculated;
        value           nonuniform List<scalar> 
48
(
7.4545
7.45975
7.436
7.4155
7.44725
7.43425
7.4515
7.452
7.45775
7.43025
7.46275
7.4495
7.45825
7.4855
7.4675
7.462
7.44525
7.284
7.284
9.38625
9.4465
9.4425
9.48675
9.513
9.52175
9.51
9.5345
9.526
9.58875
9.5745
9.60025
9.57875
9.5965
9.60275
9.5705
9.47375
9.44775
9.43675
9.3995
9.39225
9.25125
9.15675
9.11125
9.07075
8.98075
8.907
8.889
8.828
)
;
    }
    obstacle
    {
        type            calculated;
        value           nonuniform 0();
    }
    frontAndBack
    {
        type            empty;
    }
    procBoundary2to0
    {
        type            processor;
        value           nonuniform List<scalar> 
31
(
7.43625
9.5755
9.59725
9.56325
9.5605
9.575
9.6005
9.58175
9.56725
9.54925
9.54425
9.553
9.59475
9.596
9.6645
9.6535
9.72925
9.67275
9.6105
9.5965
9.3555
9.26325
9.187
9.113
9.01475
9.0015
9.56825
9.5345
9.47725
9.4165
9.4165
)
;
    }
    procBoundary2to3
    {
        type            processor;
        value           nonuniform List<scalar> 
19
(
9.0455
9.12575
8.87925
8.9775
9.0125
8.93725
8.938
9.102
8.88225
8.93025
8.84325
9.0545
8.87975
8.96375
8.91325
8.931
8.87725
8.9305
8.795
)
;
    }
}


// ************************************************************************* //
