/*--------------------------------*- C++ -*----------------------------------*\
  =========                 |
  \\      /  F ield         | OpenFOAM: The Open Source CFD Toolbox
   \\    /   O peration     | Website:  https://openfoam.org
    \\  /    A nd           | Version:  7
     \\/     M anipulation  |
\*---------------------------------------------------------------------------*/
FoamFile
{
    version     2.0;
    format      ascii;
    class       volScalarField;
    location    "0.008";
    object      iDofMean;
}
// * * * * * * * * * * * * * * * * * * * * * * * * * * * * * * * * * * * * * //

dimensions      [0 -3 0 0 0 0 0];

internalField   nonuniform List<scalar> 
546
(
1.800788548e+20
1.835310952e+20
1.802454788e+20
1.784959271e+20
1.79110353e+20
1.752259317e+20
1.765068535e+20
1.718413823e+20
1.742990859e+20
1.720756973e+20
1.641714727e+20
1.658272984e+20
1.661293044e+20
1.62937414e+20
1.664781733e+20
1.561631082e+20
1.588915757e+20
1.658897824e+20
1.602818444e+20
1.554289213e+20
1.782824401e+20
1.838799641e+20
1.859367287e+20
1.804745867e+20
1.78693793e+20
1.78818761e+20
1.801986158e+20
1.824011764e+20
1.744344678e+20
1.716643443e+20
1.730285781e+20
1.719455223e+20
1.695294747e+20
1.68133999e+20
1.690035678e+20
1.596153486e+20
1.583083918e+20
1.62697892e+20
1.611514133e+20
1.57506514e+20
1.84114279e+20
1.855618248e+20
1.795841899e+20
1.771629353e+20
1.769338274e+20
1.796258459e+20
1.793811169e+20
1.756372846e+20
1.774909763e+20
1.712894404e+20
1.707843615e+20
1.698731367e+20
1.723724962e+20
1.675351941e+20
1.630623819e+20
1.569441581e+20
1.599850455e+20
1.639631928e+20
1.620313961e+20
1.568035691e+20
1.84504804e+20
1.84510011e+20
1.73757558e+20
1.775586673e+20
1.759965675e+20
1.802610998e+20
1.773555943e+20
1.665458643e+20
1.68227725e+20
1.722839772e+20
1.729713011e+20
1.710499185e+20
1.701959706e+20
1.666604183e+20
1.619428771e+20
1.659626804e+20
1.596517976e+20
1.639892278e+20
1.618803931e+20
1.618022882e+20
1.848120169e+20
1.821252054e+20
1.801048898e+20
1.822293454e+20
1.774336993e+20
1.762100545e+20
1.84541253e+20
1.811514966e+20
1.759080486e+20
1.715445834e+20
1.723620822e+20
1.676705761e+20
1.639944348e+20
1.68352693e+20
1.636195308e+20
1.617085622e+20
1.62656236e+20
1.656867094e+20
1.646453096e+20
1.62723927e+20
1.804641727e+20
1.824949023e+20
1.838643431e+20
1.832290892e+20
1.84541253e+20
1.767359614e+20
1.782459911e+20
1.781418512e+20
1.794227729e+20
1.708728805e+20
1.758611856e+20
1.726953302e+20
1.62911379e+20
1.698054457e+20
1.664833803e+20
1.67998617e+20
1.619689121e+20
1.655304995e+20
1.632810759e+20
1.652961845e+20
1.818388205e+20
1.882017733e+20
1.889203392e+20
1.840934511e+20
1.797456069e+20
1.827812873e+20
1.78740656e+20
1.779023292e+20
1.799330588e+20
1.801934088e+20
1.718517963e+20
1.723412542e+20
1.635414258e+20
1.673269141e+20
1.703938366e+20
1.719194873e+20
1.692326758e+20
1.650358346e+20
1.652805635e+20
1.606307134e+20
1.853223028e+20
1.852077488e+20
1.803131698e+20
1.782043351e+20
1.796570879e+20
1.801257178e+20
1.809171816e+20
1.786313091e+20
1.784334431e+20
1.802506858e+20
1.793394609e+20
1.719975923e+20
1.677226461e+20
1.774284923e+20
1.749187187e+20
1.712946474e+20
1.662594793e+20
1.674050191e+20
1.641558517e+20
1.646140676e+20
1.839424481e+20
1.809484236e+20
1.838695501e+20
1.794904639e+20
1.861814577e+20
1.869677145e+20
1.812972926e+20
1.708416385e+20
1.742470159e+20
1.773920433e+20
1.809744586e+20
1.807401437e+20
1.773972503e+20
1.771316933e+20
1.802610998e+20
1.748666488e+20
1.686182499e+20
1.697325477e+20
1.653638755e+20
1.714404434e+20
1.806984877e+20
1.928672444e+20
1.943147902e+20
1.833592642e+20
1.840726231e+20
1.90013809e+20
1.839216201e+20
1.796310529e+20
1.779960552e+20
1.781730931e+20
1.777825682e+20
1.724453942e+20
1.73288928e+20
1.723256332e+20
1.777929822e+20
1.723308402e+20
1.687484249e+20
1.687015619e+20
1.68003824e+20
1.702272126e+20
1.84353801e+20
1.969807737e+20
1.89899255e+20
1.891390331e+20
1.84525632e+20
1.815784705e+20
1.822814154e+20
1.779491922e+20
1.78850003e+20
1.779596062e+20
1.717372423e+20
1.744344678e+20
1.755643866e+20
1.728307121e+20
1.752936227e+20
1.730546131e+20
1.73747144e+20
1.764287485e+20
1.742886719e+20
1.722162862e+20
1.802246508e+20
1.874363444e+20
1.922736465e+20
1.863428746e+20
1.837706171e+20
1.8982115e+20
1.84588116e+20
1.777148772e+20
1.804537587e+20
1.833124012e+20
1.801413388e+20
1.794227729e+20
1.755591796e+20
1.771733493e+20
1.698054457e+20
1.738512839e+20
1.7363259e+20
1.725703622e+20
1.67936133e+20
1.738616979e+20
1.856347228e+20
1.912999377e+20
1.868791955e+20
1.871395455e+20
1.848745009e+20
1.863376676e+20
1.853275098e+20
1.860148337e+20
1.761840195e+20
1.835571302e+20
1.793082189e+20
1.768973784e+20
1.799122308e+20
1.803183767e+20
1.729556801e+20
1.728463331e+20
1.743823978e+20
1.73429517e+20
1.739189749e+20
1.754185907e+20
1.905553369e+20
1.909927248e+20
1.932942184e+20
1.879414233e+20
1.891338261e+20
1.839476551e+20
1.806724527e+20
1.803079628e+20
1.833071942e+20
1.866292596e+20
1.839684831e+20
1.721069393e+20
1.828593923e+20
1.860877317e+20
1.728202981e+20
1.764339555e+20
1.796466739e+20
1.753665207e+20
1.739762519e+20
1.764131275e+20
1.864990846e+20
1.917685676e+20
1.918050166e+20
1.892483801e+20
1.981211065e+20
1.869677145e+20
1.860408687e+20
1.854680988e+20
1.854628918e+20
1.89649319e+20
1.903626779e+20
1.809796656e+20
1.835571302e+20
1.881653243e+20
1.78985385e+20
1.73294135e+20
1.766526494e+20
1.796987439e+20
1.778606732e+20
1.804693797e+20
1.907584098e+20
1.9535619e+20
1.862126997e+20
1.777929822e+20
1.935701893e+20
1.889463742e+20
1.873426185e+20
1.89602456e+20
1.849317779e+20
1.867750556e+20
1.884204673e+20
1.827656663e+20
1.873426185e+20
1.830624652e+20
1.867958836e+20
1.835310952e+20
1.813337416e+20
1.822657944e+20
1.806568317e+20
1.772983173e+20
1.906542698e+20
2.002351481e+20
1.956634029e+20
1.864626356e+20
1.886235402e+20
1.890817561e+20
1.90013809e+20
1.856034808e+20
1.870562335e+20
1.866813296e+20
1.881757383e+20
1.850567459e+20
1.882798783e+20
1.806620387e+20
1.828854273e+20
1.822345524e+20
1.761683985e+20
1.774753553e+20
1.868010906e+20
1.84567288e+20
1.930286614e+20
1.991625063e+20
1.928984864e+20
1.935753963e+20
1.906282348e+20
1.847130839e+20
1.852389908e+20
1.918935356e+20
1.913624217e+20
1.943356182e+20
1.920289176e+20
1.873530325e+20
1.846974629e+20
1.849890549e+20
1.879830793e+20
1.804173097e+20
1.770744163e+20
1.758247366e+20
1.839268271e+20
1.851869209e+20
1.489446614e+20
1.48050114e+20
1.484287259e+20
1.528133783e+20
1.47162734e+20
1.483281946e+20
1.63588388e+20
1.609776492e+20
1.539335637e+20
1.572847286e+20
1.541019878e+20
1.569607129e+20
1.503085371e+20
1.481322819e+20
1.486938356e+20
1.478159693e+20
1.570304313e+20
1.602042241e+20
1.553057e+20
1.559990514e+20
1.592163354e+20
1.565657694e+20
1.586287407e+20
1.531481344e+20
1.514354501e+20
1.488404199e+20
1.618221811e+20
1.570052958e+20
1.574036382e+20
1.628808918e+20
1.613974558e+20
1.640480745e+20
1.581002144e+20
1.608584995e+20
1.574437833e+20
1.493359411e+20
1.634995551e+20
1.621825077e+20
1.583360552e+20
1.615311986e+20
1.590820311e+20
1.553538836e+20
1.532780914e+20
1.5575484e+20
1.549066854e+20
1.573979228e+20
1.583211199e+20
1.544535181e+20
1.543997722e+20
1.609710488e+20
1.592754308e+20
1.58372775e+20
1.559479679e+20
1.571322809e+20
1.58726152e+20
1.584947531e+20
1.595177513e+20
1.529171917e+20
1.56179841e+20
1.610030563e+20
1.633636865e+20
1.643672774e+20
1.577732908e+20
1.574670358e+20
1.593507534e+20
1.567242363e+20
1.613623413e+20
1.606987953e+20
1.633372007e+20
1.607523237e+20
1.639438857e+20
1.669804027e+20
1.65308878e+20
1.623072785e+20
1.596215971e+20
1.66634681e+20
1.64319953e+20
1.675123022e+20
1.621716806e+20
1.629929229e+20
1.612362893e+20
1.64578274e+20
1.6764638e+20
1.639316684e+20
1.647952881e+20
1.681546539e+20
1.654329769e+20
1.654287885e+20
1.692495707e+20
1.69741392e+20
1.668072752e+20
1.664664349e+20
1.65668495e+20
1.690792293e+20
1.676585054e+20
1.654153621e+20
1.633689185e+20
1.655498017e+20
1.730640061e+20
1.709150415e+20
1.660659118e+20
1.703942399e+20
1.644152859e+20
1.679652028e+20
1.723347239e+20
1.684219018e+20
1.667079914e+20
1.674386426e+20
1.748175845e+20
1.672020485e+20
1.690260011e+20
1.630201365e+20
1.633037471e+20
1.650402059e+20
1.703116797e+20
1.730430648e+20
1.654486533e+20
1.731367325e+20
1.670880587e+20
1.638784919e+20
1.632078922e+20
1.605747263e+20
1.702345245e+20
1.699133743e+20
1.697368253e+20
1.722301855e+20
1.710451257e+20
1.7327353e+20
1.732335364e+20
1.703442222e+20
1.683061243e+20
1.720714018e+20
1.731114539e+20
1.714499605e+20
1.711573778e+20
1.736388038e+20
1.729106165e+20
1.710058674e+20
1.761844218e+20
1.711070917e+20
1.693375896e+20
1.715033296e+20
1.74152158e+20
1.786938587e+20
1.764913636e+20
1.746409862e+20
1.716826324e+20
1.746572769e+20
1.773764345e+20
1.740465445e+20
1.733936107e+20
1.705024427e+20
1.749858142e+20
1.833255675e+20
1.776852932e+20
1.792510126e+20
1.785123155e+20
1.779666945e+20
1.756334494e+20
1.775354787e+20
1.822362778e+20
1.830108243e+20
1.848752494e+20
1.865853215e+20
1.845669641e+20
1.802309218e+20
1.811825266e+20
1.87384592e+20
1.810849099e+20
1.833183573e+20
1.790559265e+20
1.835247946e+20
1.839326225e+20
1.804280059e+20
1.849981036e+20
1.830091872e+20
1.8634006e+20
1.866374726e+20
1.828702765e+20
1.806509786e+20
1.815056566e+20
1.867546825e+20
1.837037734e+20
1.841103221e+20
1.772873171e+20
1.840057995e+20
)
;

boundaryField
{
    flow
    {
        type            calculated;
        value           nonuniform List<scalar> 
48
(
1.800788548e+20
1.782824401e+20
1.84114279e+20
1.84504804e+20
1.848120169e+20
1.804641727e+20
1.818388205e+20
1.853223028e+20
1.839424481e+20
1.806984877e+20
1.84353801e+20
1.802246508e+20
1.856347228e+20
1.905553369e+20
1.864990846e+20
1.907584098e+20
1.906542698e+20
1.930286614e+20
1.930286614e+20
1.991625063e+20
1.928984864e+20
1.935753963e+20
1.906282348e+20
1.847130839e+20
1.852389908e+20
1.918935356e+20
1.913624217e+20
1.943356182e+20
1.920289176e+20
1.873530325e+20
1.846974629e+20
1.849890549e+20
1.879830793e+20
1.804173097e+20
1.770744163e+20
1.758247366e+20
1.839268271e+20
1.851869209e+20
1.8634006e+20
1.866374726e+20
1.828702765e+20
1.806509786e+20
1.815056566e+20
1.867546825e+20
1.837037734e+20
1.841103221e+20
1.772873171e+20
1.840057995e+20
)
;
    }
    obstacle
    {
        type            calculated;
        value           nonuniform 0();
    }
    frontAndBack
    {
        type            empty;
    }
    procBoundary2to0
    {
        type            processor;
        value           nonuniform List<scalar> 
31
(
1.867854696e+20
1.820366864e+20
1.797976768e+20
1.779752272e+20
1.838851711e+20
1.719715573e+20
1.716435163e+20
1.743251209e+20
1.73794007e+20
1.725339132e+20
1.611722413e+20
1.62526061e+20
1.637549128e+20
1.650983186e+20
1.619637051e+20
1.581209398e+20
1.62500026e+20
1.606150924e+20
1.622188481e+20
1.589071967e+20
1.505455814e+20
1.477633734e+20
1.471700713e+20
1.58191427e+20
1.513746482e+20
1.471367141e+20
1.586764515e+20
1.541483572e+20
1.51973369e+20
1.524887804e+20
1.524887804e+20
)
;
    }
    procBoundary2to3
    {
        type            processor;
        value           nonuniform List<scalar> 
19
(
1.429993001e+20
1.485741248e+20
1.519504281e+20
1.456016328e+20
1.522420678e+20
1.600434584e+20
1.611371111e+20
1.591461011e+20
1.623653672e+20
1.643675918e+20
1.641993376e+20
1.67575641e+20
1.727354373e+20
1.737561798e+20
1.761958692e+20
1.838514358e+20
1.84490802e+20
1.822754554e+20
1.874464686e+20
)
;
    }
}


// ************************************************************************* //
