/*--------------------------------*- C++ -*----------------------------------*\
  =========                 |
  \\      /  F ield         | OpenFOAM: The Open Source CFD Toolbox
   \\    /   O peration     | Website:  https://openfoam.org
    \\  /    A nd           | Version:  7
     \\/     M anipulation  |
\*---------------------------------------------------------------------------*/
FoamFile
{
    version     2.0;
    format      ascii;
    class       volScalarField;
    location    "0.008";
    object      linearKE;
}
// * * * * * * * * * * * * * * * * * * * * * * * * * * * * * * * * * * * * * //

dimensions      [1 -1 -2 0 0 0 0];

internalField   nonuniform List<scalar> 
546
(
4.652045839
7.899844107
4.957407994
9.34967983
12.32657374
6.317909162
7.383959744
5.231575756
5.956424961
5.235041441
7.271888356
6.840944366
7.027176867
2.120549732
6.925678126
8.591904501
6.136681829
6.276301422
7.32018726
6.832031073
5.901989903
11.43961833
10.29202832
6.891101487
5.539985049
7.633362234
4.933990843
4.959967218
5.192177354
5.060537468
3.359321466
5.177454976
5.329811115
9.272613652
9.588245785
5.955526229
6.884697103
8.76324959
8.309327929
6.997700475
6.415093203
3.893816563
11.34421789
10.30060411
9.504761097
11.3503204
5.014591975
11.5703433
12.12745154
8.091455991
7.713276886
12.09556706
9.426535791
7.415192151
8.156657837
6.683984994
6.725884547
8.460784397
10.31540011
8.402686445
5.812975809
6.218931297
6.838320806
5.175065978
7.614021979
7.629561837
13.17549148
7.633857507
10.6624127
4.93138238
12.74292769
5.490891092
8.350044737
3.373909232
13.85285414
8.790560939
5.083414882
8.490790983
14.20816117
3.904492897
8.235249066
9.663574147
9.42805492
9.130480786
6.434981841
5.013987037
6.075992734
5.517890556
13.34638634
13.08973295
3.878139096
7.510121744
5.54254161
12.28209242
8.050433491
7.055778957
5.38936437
6.096205523
9.390957946
6.969673784
6.246869502
9.054242302
3.061963616
8.981079009
2.397151367
3.549351621
14.11958487
9.708404267
7.771238494
7.984450385
3.132278167
11.45042239
6.469092327
3.87266162
6.25252192
9.950779159
6.257100451
9.540970337
6.919890843
7.43013132
8.107542159
9.548804524
6.551553679
8.637595813
9.455155426
8.339612664
8.213417838
9.279331931
7.464787703
8.123472794
7.766063554
4.391605462
6.048961116
16.02268329
7.704503096
8.583404008
6.780209276
6.912053894
12.4559581
3.400692113
8.015009926
5.969166861
8.56138654
9.162888459
7.508919938
4.072327866
9.204605647
5.308399615
4.783509373
9.464272852
7.229807238
9.790396365
11.38548151
9.51359838
4.418864259
5.992810713
12.66191218
6.84706416
10.23470307
11.7736495
5.960527969
6.337600192
9.665032581
7.555355753
5.640458538
4.434399645
12.06947235
7.491951875
15.27167357
9.037596948
5.98808875
7.292795228
9.570171428
7.657934854
4.886817691
12.38659883
6.221211864
7.186532159
8.822505606
5.603453037
4.734666082
9.283519148
11.44008495
8.878832701
7.728049302
6.91492545
10.67727951
8.298123771
9.618847041
11.69138826
7.652555256
7.616093465
10.94280368
9.707887904
11.64843538
10.60491922
6.423845467
5.805623313
8.185033368
6.004441545
6.855548577
6.488197683
8.547807647
4.709084249
9.388694977
9.754138796
7.941831114
6.230930222
6.013080336
5.198356689
1.407582409
7.255548567
4.566321351
4.408900372
7.617367369
6.996393616
5.85841398
6.394738948
8.936177401
5.477005869
9.000881034
5.464074283
8.536023877
8.20090157
7.460026334
8.315715545
11.63055544
6.481247416
2.977494209
11.43573696
8.503054815
9.869165336
5.011182402
6.293142245
11.53396427
9.105271248
7.746329764
8.703382241
3.597387415
9.084325349
6.796463624
6.407177178
7.890330474
4.963531949
8.294937026
7.581954352
7.684296671
9.669986541
6.2210363
14.13818055
4.567066911
10.50877103
7.527803959
3.945709237
7.613993549
9.898267915
4.569783081
7.609820044
11.41781344
1.893492479
5.726391294
11.17028393
8.272638594
3.603327178
9.959311614
7.816546231
7.66590599
9.999785075
4.242156497
3.812040102
10.39249648
11.13621745
11.49995821
8.141376973
6.448499346
6.465897431
5.861875261
8.647743212
10.79816604
11.78125918
7.87288954
8.886506138
9.852951752
9.554747848
6.947651667
9.124976729
9.832867538
7.692050151
4.028317064
13.04367394
10.69314286
7.359133638
4.506741425
10.0746421
2.7456813
7.927818365
6.021917966
5.630058808
3.388292206
10.20945036
5.205458362
8.164184514
6.563913082
4.75552163
7.860388052
7.341247308
4.708900547
6.050402326
8.007748438
6.809005252
6.111132645
12.40209652
5.955550333
12.58562126
7.973412366
7.912049363
5.529674374
7.301801016
3.397115344
8.401401672
7.155654545
7.694382913
10.77658081
6.51951908
9.717699717
7.880213838
8.212300734
6.942748967
8.38336621
10.70953658
5.763158961
5.560468493
10.46673315
5.479407818
5.511846473
5.091644126
5.697164573
11.386645
7.193042131
8.14126676
4.908444455
6.825919157
6.778117544
8.531397262
9.339791854
8.973491487
3.45984232
9.273770039
6.959022288
5.696447577
10.08425983
6.398440661
7.649312867
10.77153361
7.071024938
9.854749783
6.319108302
7.135762364
8.004270509
13.18979314
13.69628543
4.162952864
8.405778743
7.124897109
4.378164657
6.809247124
6.845635785
5.163508888
5.444644009
14.2041443
8.555187715
8.784437714
4.931009388
2.781059662
12.0981672
4.804845599
6.653395005
6.888944332
13.37622484
10.30066077
8.809615054
15.15891371
8.089754126
8.227168738
12.47179292
7.750068501
5.677785323
4.948557884
5.545274661
7.813778137
7.063387431
10.4287806
8.076598888
6.051969873
4.578783426
9.143970141
7.789349854
10.00865969
9.491885776
5.877240923
7.525654192
7.963944845
5.56441541
6.450739072
6.61868866
12.34874373
11.98893412
6.94718025
9.846564002
7.465286459
9.265520003
8.161380713
6.167149259
5.483987708
6.849992153
3.484336052
10.02334095
10.42125416
8.336037134
7.816705347
6.992901646
9.15055749
2.581525359
6.008708186
14.0981918
10.66256144
12.34663132
7.298023679
5.042680759
8.506268555
7.452461796
12.98106174
7.168469622
12.0937175
5.607334051
8.650234963
11.53227339
7.597992814
9.413480262
6.344647193
9.065697805
8.442528828
5.184566776
6.85825005
7.085287113
7.642135336
8.03843567
8.20689006
7.986958225
3.40367914
3.396056153
8.45665513
5.114729555
6.986723297
7.897761994
8.176171019
4.492580849
8.84717053
5.032012307
12.31307912
3.825081477
10.63570662
10.76415629
10.69355446
9.243826516
8.70099649
9.413676768
6.799957033
9.548838189
10.81569986
8.45001931
4.663911847
10.6219323
6.318756317
6.19399631
6.57807102
10.61514308
1.396603334
3.465757783
4.059032371
5.299331259
3.884408554
5.861725595
8.424390538
6.506863909
9.854181658
11.99540057
9.613497203
9.333934927
6.034711014
10.50950327
7.919936158
16.12566852
10.23427855
14.02650268
12.08300298
9.287720018
7.629538591
8.104881507
9.746156033
10.3313148
4.420207623
5.880714939
4.887289497
8.831152848
8.697026467
6.726970695
11.05592408
7.772436223
8.106985384
4.903818436
4.573839181
6.888865519
7.202875087
4.683243998
11.88739517
5.414852901
5.545776185
12.72846467
7.53383306
4.197899473
9.757162964
4.288677516
7.392882375
6.386434428
3.961709738
7.672879918
7.694915011
5.936714633
2.504786733
5.965922279
8.385649225
6.137367336
9.911018811
10.58574104
11.13853654
7.472579337
6.293923636
12.0145708
7.166281705
15.00692475
11.96123292
9.012107293
5.004983043
2.683479899
9.024584197
)
;

boundaryField
{
    flow
    {
        type            zeroGradient;
    }
    obstacle
    {
        type            calculated;
        value           nonuniform 0();
    }
    frontAndBack
    {
        type            empty;
    }
    procBoundary2to0
    {
        type            processor;
        value           nonuniform List<scalar> 
31
(
5.948995668
8.539918375
7.588115037
3.668010012
9.926560918
6.864064235
5.837263133
8.309181935
5.690551602
6.920817547
7.967766112
5.79539572
13.07821292
9.815012394
14.90488644
2.940512512
6.040097215
10.57685369
6.439892326
9.822630897
4.149401607
12.15071127
7.869228869
7.637086819
9.637910239
9.955736151
8.078496121
6.04801535
6.361210888
8.537592786
8.537592786
)
;
    }
    procBoundary2to3
    {
        type            processor;
        value           nonuniform List<scalar> 
19
(
8.282972603
8.585247069
8.252084382
7.676899118
5.650785152
10.5205807
6.437713142
5.54559696
9.229554073
9.135362096
6.802222429
3.49534165
10.54703205
12.42252025
9.006914134
4.557647169
7.81398884
10.18965191
2.323805559
)
;
    }
}


// ************************************************************************* //
