/*--------------------------------*- C++ -*----------------------------------*\
  =========                 |
  \\      /  F ield         | OpenFOAM: The Open Source CFD Toolbox
   \\    /   O peration     | Website:  https://openfoam.org
    \\  /    A nd           | Version:  7
     \\/     M anipulation  |
\*---------------------------------------------------------------------------*/
FoamFile
{
    version     2.0;
    format      ascii;
    class       volVectorField;
    location    "0.008";
    object      momentum;
}
// * * * * * * * * * * * * * * * * * * * * * * * * * * * * * * * * * * * * * //

dimensions      [1 -2 -1 0 0 0 0];

internalField   nonuniform List<vector> 
546
(
(0.005245439783 -1.379983857e-05 0.0007244107867)
(0.00817514046 -0.0003472260816 0.0001524028244)
(0.005177685757 -3.100220897e-06 -0.0004588216957)
(0.01003001255 0.0005181812297 -0.001142530708)
(0.0131941199 -0.000365886242 0.000363383482)
(0.007112165933 -0.0007553116652 -0.0008270661885)
(0.007455833454 0.0003934943083 0.0005077061379)
(0.00495819102 -0.0005822680127 0.0005641717652)
(0.005785839199 -8.725927056e-05 0.000543341076)
(0.00573064996 0.0002710560007 -0.0004285998653)
(0.008251466137 0.0008193095691 -0.0004462947501)
(0.007057122165 -0.0003981226668 0.0002165998566)
(0.007718099017 0.0002323474956 -2.144755964e-05)
(0.00232782806 0.0001084033353 0.0005996498809)
(0.007595084466 -3.705999473e-05 0.0002778252192)
(0.008879853532 -0.0003320730141 0.0001121084378)
(0.006316931973 0.0002142364408 -0.0006020692377)
(0.00710766905 -0.0001098972276 -7.290510419e-05)
(0.008493890092 0.001078136815 -0.0003571697843)
(0.007442080816 -0.0005747306323 -0.0002947022461)
(0.006818804526 -9.144157764e-06 0.000970587683)
(0.01177110762 0.0005968861441 -0.0002242222216)
(0.01013662739 -0.0003557162677 0.0001554071797)
(0.006796966306 0.0009587312348 -4.935914553e-05)
(0.005518588895 0.0004055927123 -2.735724213e-05)
(0.008592623125 0.000468515282 -0.0007394421654)
(0.006094542845 0.0004974445139 -0.0003778757869)
(0.005145281348 -3.7027071e-05 1.448936727e-05)
(0.005836725314 -0.0003124092384 -3.660474607e-05)
(0.004850191888 0.0001863444967 0.0007174773402)
(0.003946602161 0.0002721625644 0.0004019402317)
(0.006040884954 0.0002104965142 1.839181979e-05)
(0.005825936407 0.0001496727099 0.001073253669)
(0.01046931961 -0.000184235927 3.720866965e-05)
(0.01011548625 0.0005302626485 -6.587403883e-05)
(0.006621980658 -0.0003856077994 0.0001243039392)
(0.0074517899 -0.000417548943 -0.000226305073)
(0.009952548971 0.0002581552368 -0.0004149627278)
(0.00884406919 0.0002867413513 0.0001272871878)
(0.007478143693 0.0002665801875 -8.119488731e-05)
(0.007284323967 2.723920949e-05 -0.0002754232676)
(0.003729188396 -0.0003014050987 4.908588943e-05)
(0.01206280852 -0.0002313587147 0.0003930006455)
(0.01114043977 -0.0006833372451 0.0002492905726)
(0.01027211696 -0.0001165571419 -0.0003247617294)
(0.01124787408 0.0002488053902 -0.0004124659337)
(0.005279416104 0.0005711790167 -6.010872284e-05)
(0.01129186508 0.000687755729 -0.0008638186663)
(0.0125815279 -0.0003122664038 0.0005751519876)
(0.008501214844 0.0003245855345 0.0008835287172)
(0.00790246212 0.0003110699756 -0.0002804559897)
(0.01254786482 -0.0002946820077 4.594139324e-05)
(0.009391311907 0.0002926516606 0.001201377148)
(0.00819975812 -0.000498952017 -0.0005216044955)
(0.008769783674 -0.0001542971964 0.0004607361945)
(0.007480484104 -0.000268040153 -0.0001693979323)
(0.007361807927 -0.0002283637909 -4.729834841e-05)
(0.008853840201 -0.0006789468241 0.0005288787282)
(0.01030475002 -0.000507080444 0.0003840852429)
(0.008955471568 0.0001084837343 -0.0001266662108)
(0.006677370037 0.0004181789631 0.0006144851489)
(0.006465257804 -0.0002747620915 -0.0001614844106)
(0.00720765984 -8.506042795e-06 0.0003662237187)
(0.005588663272 -0.0005189575936 0.0005674470078)
(0.007930237588 -7.783083426e-05 0.0009520415978)
(0.008043383933 0.0003605902207 -0.0005352709338)
(0.01334894872 -0.0006351617805 0.0005337661222)
(0.008589597719 -0.0001205891553 0.0003604469038)
(0.01102656148 0.0001258109678 -5.793680837e-05)
(0.00479436671 -0.0001703874953 -4.496523473e-05)
(0.01363786632 -0.0004774649832 -0.0009330018565)
(0.006229949602 0.0001193988981 -0.0002542402348)
(0.009222318489 -0.0006566064275 0.0002829604885)
(0.003881987402 4.668035807e-05 5.877481448e-05)
(0.01401299612 0.0005413173724 -0.000416020586)
(0.008613237286 2.069396859e-05 0.0003006245971)
(0.00572182976 -0.0003477338941 0.0007561865447)
(0.009206526183 -0.0002094396608 1.538389786e-05)
(0.01466107824 0.0006152803465 0.0002011947519)
(0.003765441311 0.0001027529211 2.917961625e-05)
(0.008959267754 3.960224004e-05 -7.051812169e-06)
(0.01062996564 0.0001827929474 6.622522018e-05)
(0.009611695382 0.0003271120877 0.00026231121)
(0.009856880393 -0.0003285509662 -7.10911e-05)
(0.007329510787 -0.0001923840611 -2.176513251e-05)
(0.005686473594 0.0003367211914 0.0005301700025)
(0.006200748601 0.0003606632078 0.0002700790482)
(0.005970414444 -0.0001610278891 4.00317289e-05)
(0.01462752927 0.0004234266196 -0.0003444842157)
(0.01436255841 -0.0004354555281 -6.981732966e-05)
(0.004121561802 -0.0002092352849 -1.851733898e-06)
(0.008450476006 4.275735986e-05 0.0005373811199)
(0.005569294529 0.0001888376787 0.000480975081)
(0.01249939009 0.000435986465 0.0005552654985)
(0.00940379723 -0.0005321695094 -0.0004787889723)
(0.00757693984 -0.0008370068798 0.0002811216139)
(0.005775514337 -0.0002374868266 0.0005029087022)
(0.00653567002 -0.0003064373475 -4.471211752e-05)
(0.009673645155 0.0006768524818 0.0001057922179)
(0.007065382966 0.0006354090455 -0.0002879497638)
(0.007101748711 0.0005734018723 0.0001675434919)
(0.009125179524 -0.000317951626 -0.0005178452143)
(0.003397494221 4.403924135e-05 1.511815423e-05)
(0.009919375214 -0.0004223332431 -6.269661717e-05)
(0.002616004748 -0.0004670805131 0.000101451692)
(0.003559083423 5.783962004e-05 -0.0003635655905)
(0.01489469328 0.0002324634148 -0.0009514866296)
(0.01098248398 0.0002717884247 0.0001167696185)
(0.007984864034 0.000324432675 0.0001967719458)
(0.009162799533 -0.0007590279481 0.001179594427)
(0.003401978177 0.0002089286984 -6.683972546e-05)
(0.01124461306 0.0004014014956 -0.0001634894038)
(0.006620609823 0.0006753300729 -0.0002548300876)
(0.004287510697 -0.0003883121638 -0.0003704112101)
(0.007195881276 -0.0001440816709 -0.0003028728587)
(0.01042842112 0.0004523890081 0.0002514775477)
(0.006809033515 2.352509142e-05 2.079956223e-06)
(0.009261021317 0.0002893816207 -0.000314932077)
(0.007310787251 0.0006267149971 -0.0002615219554)
(0.007727132927 -0.0008466094278 9.93649475e-06)
(0.008618388936 5.956191038e-05 -0.0004699084129)
(0.009249999163 -0.0007254376917 3.371806005e-06)
(0.007426807444 0.0001714945527 -2.291172522e-05)
(0.008836799872 0.0007012350899 -0.0004418904668)
(0.0106225262 0.0006719246124 -0.0001004682711)
(0.008821024538 -0.0004741779877 0.0002101819156)
(0.008560353792 -0.0002184741055 -8.639792813e-05)
(0.009587728457 0.0002407781257 0.0005766988918)
(0.008540494335 0.0007256554279 -0.0001789194588)
(0.008798566524 -0.001088661876 0.000248214229)
(0.008202984006 -0.0001477479439 0.0004485005329)
(0.005263274373 0.000117858706 0.0006019474319)
(0.006116035871 -0.0005132623451 9.635270827e-05)
(0.01601273535 0.0004197359044 0.0005913691354)
(0.008157408371 -0.0005329936686 0.0004941636263)
(0.008817658542 0.0004022462346 -0.0003493665946)
(0.007140252203 -0.0005310670026 0.001001238533)
(0.007712330541 -0.0002442846479 0.0002719450152)
(0.01357645422 -0.0006086055861 0.001106409711)
(0.004003508536 1.723901694e-05 -9.215171101e-05)
(0.008727024917 -0.0006602925095 -5.215743658e-05)
(0.00585060201 -0.0002042319481 -4.179872111e-05)
(0.009849256904 -0.0007657697536 7.400393059e-05)
(0.009878396578 0.0002742612193 -0.0003403395257)
(0.00744098233 0.0007262703586 -0.0002247762655)
(0.004532405871 0.0002071991721 0.0003496976673)
(0.009199866075 -0.0001308717621 -0.001273721954)
(0.00572164574 -0.0001213767967 -0.0006305890795)
(0.005517280199 3.305900166e-05 0.0009791218835)
(0.01024577399 0.0002540619107 0.0008381524391)
(0.007889939855 0.0002531711925 -5.25479328e-05)
(0.009931948848 -0.0005740327864 0.0003733505538)
(0.01158780778 0.001026820143 -0.0004084622335)
(0.01058150891 1.529675141e-06 -0.0004970805037)
(0.005068060184 0.0006489143482 0.0001278940319)
(0.006943149014 0.0001344874882 0.0002774499521)
(0.01352701923 -0.0007588239153 0.0002228099553)
(0.006818941274 -0.00011444209 -0.0002922187839)
(0.01107870248 -0.0008489775427 3.212405913e-05)
(0.01249959886 -0.0003500897055 0.0004831887931)
(0.006703309391 -0.0009097052806 -0.0006504474652)
(0.006895775901 -0.0001608188428 -0.0002763128739)
(0.01109428194 -0.0002941619454 0.0004996893565)
(0.006956332491 -0.0003678933872 0.0003994242237)
(0.005715108424 0.000495836668 0.0002659723591)
(0.004992900678 0.0002795925011 -9.126128919e-05)
(0.01276089159 -0.001259742498 0.000102007889)
(0.007636432957 -0.0003582053154 0.0002472361501)
(0.01581796654 -0.0004443856778 0.0003396028491)
(0.009893606258 0.0004381184709 0.0004215780538)
(0.006560466632 0.0005259061829 0.0005852558494)
(0.007210818282 2.107988658e-05 -0.0002174762711)
(0.009511730653 -0.0001786416451 0.0003554794138)
(0.007581322154 0.0002694170415 0.0001060301488)
(0.005123792309 -4.190747554e-05 0.0003403356684)
(0.01258528367 -0.0008418417974 0.0005890178606)
(0.006673497099 -6.790996949e-05 -1.912015566e-05)
(0.007835517039 2.705186653e-05 0.0005139195616)
(0.00862763532 5.475679418e-05 0.0005253351858)
(0.006264627635 0.0005585213308 0.0003096467136)
(0.00505113697 0.0002812478363 0.0002656110312)
(0.009307712133 0.0008407105473 -1.730700629e-05)
(0.01127319874 -6.788307841e-05 0.0003176595635)
(0.008798016647 0.0003192585282 -0.0002850341265)
(0.007508395142 0.0004347513648 0.0001439977055)
(0.007060903636 0.0002434089868 5.687278865e-05)
(0.01094743312 0.0006144186625 -0.0002748406929)
(0.009638391759 -1.770033664e-06 0.0006410434448)
(0.009981756862 0.0003371312223 0.0007143692738)
(0.01187110067 -0.0004501542577 0.0006039304643)
(0.00860204492 0.0001417365952 -3.938117329e-05)
(0.007954909475 0.0009510117738 7.599240135e-05)
(0.01086167124 0.0001176798015 -0.0002651642604)
(0.01088190961 -0.0009286301472 0.0001816513905)
(0.01198528935 0.001125732832 -0.0006415972528)
(0.01227132311 -0.0002007636249 7.943607017e-05)
(0.00727025515 -0.0002552437095 -0.0002723270817)
(0.006033249142 -0.0005039766367 -8.643802965e-05)
(0.00829448165 0.0007273924324 0.0002420595806)
(0.006520801902 0.0007759896868 -4.399761895e-05)
(0.006098536991 -0.0002429827881 -0.0005346871044)
(0.006380524916 0.0006623194184 0.0002557778099)
(0.008929580283 -0.0002304752259 -0.0003115386451)
(0.005532686513 8.162648493e-05 -0.000522807073)
(0.01033383173 0.0004765091357 -0.0004763339963)
(0.01025399457 0.0009166564542 7.821130694e-05)
(0.008464888702 -0.0001101683895 0.0002897232464)
(0.0072719964 -0.001141443525 -0.0002947785758)
(0.007142917022 -0.0003139621628 5.417545247e-05)
(0.005843534669 4.489433509e-05 -0.0004744666125)
(0.001603600172 -0.0003920032259 -3.988474218e-05)
(0.007611148953 -8.056022384e-05 -0.0004205984933)
(0.00518900583 -0.0001743599589 0.000103322525)
(0.005004714801 0.000457153132 0.0001665151505)
(0.008388037852 -0.0001229676076 0.0003114831072)
(0.00742538556 -0.000726215361 0.0007211754748)
(0.006174440858 0.0004568269298 -0.000202850841)
(0.006842396527 7.650735632e-05 0.000563527523)
(0.009974892641 0.0001601756644 0.0005238385695)
(0.006280536071 -7.506116157e-05 5.470294867e-05)
(0.009247201509 -0.0002785205079 0.000511701904)
(0.006009333751 0.0002228000341 -0.0002975420366)
(0.009695190091 0.000187852059 0.0004650042714)
(0.008781443685 0.0005980616387 0.000108632213)
(0.008323375794 0.0006862112596 0.0003824291162)
(0.008795072454 0.0004993304782 0.000655239069)
(0.0121682308 0.0004096136257 0.001019408751)
(0.006711900516 0.0002911758467 5.648086248e-05)
(0.003324546996 -0.0001562520361 -1.272118286e-06)
(0.01316724617 -0.0006127432863 5.579489547e-06)
(0.009026065101 -0.0001887726278 -0.0003051954485)
(0.01154830311 0.0001525968617 0.000324903556)
(0.005612877642 0.0005042824119 6.353126079e-05)
(0.006891394348 0.0002240368837 -0.0002809631196)
(0.01208906263 9.331061546e-05 -0.0004574418901)
(0.009202984625 -0.0004643774223 0.000399125673)
(0.008122390476 7.907165962e-05 0.0002715916756)
(0.009808868655 -0.0001825860841 0.0008630866379)
(0.003994003067 0.0004769261673 0.0006418766002)
(0.009287009207 0.0004783030898 -0.0003794718632)
(0.007381749106 -4.244817986e-05 0.000180722214)
(0.006934713558 -0.000317415744 -0.0003923267777)
(0.008084391952 4.414582028e-06 -0.0004817667896)
(0.005620183 -0.0002253168737 0.0004083435094)
(0.008597880263 0.0002287084345 0.001092324443)
(0.008346285539 6.867025181e-05 0.0003999294587)
(0.007454039694 0.0008810862596 0.0001393672814)
(0.0102780251 -9.865226838e-05 -0.0001758467661)
(0.006635166646 0.0001251190591 0.0003411535211)
(0.01413513193 -0.0008154174095 -0.00041358594)
(0.005104068791 -0.0003824947347 6.38187573e-05)
(0.01054632567 0.0007808164621 0.0002767725336)
(0.007952085145 -0.0002190806732 -0.0002640865979)
(0.004319593547 0.0002371588061 0.000125159052)
(0.007841701895 -0.0007506840888 0.0003827573579)
(0.009629031541 0.0004636372454 -2.417094852e-05)
(0.005427312324 0.0002034395692 -5.885923621e-05)
(0.008009248653 -9.890878232e-05 0.0002223169582)
(0.0118050199 0.0001164677658 0.000305909249)
(0.001962393837 -4.456516521e-06 -0.0002774422231)
(0.006099783671 0.0001083921985 2.729161407e-06)
(0.01155825141 0.001014678218 8.322135682e-05)
(0.00918476888 -0.0001448003583 -0.000237838064)
(0.003702395645 0.0004214523643 -0.0003827654834)
(0.01051779956 -0.000423909644 0.0004046169818)
(0.00761869338 0.0003304099421 -0.0001226972858)
(0.008476922298 0.0001510877452 0.0005687915823)
(0.01004467692 -6.198798347e-05 0.0001656397839)
(0.004467464093 0.0005815326217 0.0002592047796)
(0.004161792034 0.0002360606582 -0.0005377406542)
(0.01146681966 -0.0008150681336 -0.0003062498406)
(0.01239860319 4.375721871e-05 -9.846653642e-05)
(0.01297598516 -0.0001171492887 -0.001113133694)
(0.008517941201 -0.0007861879182 0.0001773386657)
(0.006428791575 -0.001398083321 -0.0005948743148)
(0.006939552765 -0.0005527733555 -5.441389381e-05)
(0.007102143182 6.188867551e-05 0.0004943598832)
(0.009554494148 5.429697621e-05 -0.0003514729435)
(0.01085645205 -0.0005171961405 0.000383533938)
(0.0126787561 -0.0009073254998 0.0005022503093)
(0.007671648648 0.0002361086622 -7.098523596e-05)
(0.009511784485 0.0004591989024 0.0003267632857)
(0.01131352457 -0.0007197065522 -2.723201209e-05)
(0.01006828639 -0.0004933583252 9.026627853e-05)
(0.007150798663 0.0008119924232 0.0001743443452)
(0.00956594305 0.0004761065749 0.0005425796825)
(0.01012915045 -7.798709994e-05 2.087750193e-05)
(0.008179063148 -0.0001915477322 -9.106288805e-05)
(0.004251739463 -2.903956698e-05 1.624746681e-05)
(0.01416173012 -0.0002089112802 -0.001207223087)
(0.01165987007 0.0009727375146 0.0002165150905)
(0.008271019849 -0.0001269691326 2.131727964e-05)
(0.004595943542 -0.0003478401092 7.374128428e-05)
(0.01132018666 -0.0003302165907 0.0005114783513)
(0.003239135995 -0.0001744379369 -0.000233121206)
(0.00943967597 -0.0006398924983 -0.0004211578665)
(0.006997145012 0.0002299797009 0.0005485056549)
(0.005574794492 0.000789869596 -0.0002115430181)
(0.003656463685 0.0001006805412 -8.0250079e-05)
(0.01108777146 0.0004177001086 7.030647224e-05)
(0.005503089787 0.000205776683 0.0006379149259)
(0.007670688579 0.0003610325967 0.0002358955396)
(0.007388221893 -0.000447279247 -0.0003129824697)
(0.005464261904 -0.0002880082265 0.0008987041977)
(0.008238899128 -0.0002670268242 -0.0001332279927)
(0.007880150545 0.0005358875842 -0.000116561977)
(0.005108104217 0.0003149950307 -0.0002886485713)
(0.006917080087 -0.0002127123465 0.0008326321058)
(0.008516793193 0.0004343139809 -0.0001573115831)
(0.007574821212 -0.0001717727622 0.0004397407269)
(0.006314581999 -0.0001252616316 0.0001442344915)
(0.01309945579 -0.00101510901 -4.094306402e-05)
(0.006650022058 0.001011709056 0.000238383141)
(0.01268052524 -0.0002175181376 -0.0002169330394)
(0.008325737793 0.0002689261073 0.0003259040894)
(0.008543444474 0.0006445041598 -0.0006832258938)
(0.005950116793 0.0003995139671 -0.0004577185323)
(0.007294422648 -0.0009652261148 -0.0005949024559)
(0.003958580366 -0.0002674240856 -0.0003306223785)
(0.009172106043 -0.0001602160103 0.0001321955964)
(0.007582912903 -0.00036871138 -0.0004014457285)
(0.007957023849 -0.0001129449892 0.0002675831257)
(0.01088363231 0.001150044875 7.612443434e-05)
(0.006935068212 0.0001716503947 -0.001081818623)
(0.01128109 0.0007868195296 0.000293056224)
(0.008751704927 0.0002182581171 -0.0001952234469)
(0.008509578736 -0.0006652267746 4.760106367e-05)
(0.006841058396 4.832263035e-05 0.0005345035465)
(0.008726554731 -3.131181665e-06 0.0008025856133)
(0.01079119897 -0.0002062342817 0.0002408309745)
(0.006161333799 0.0004226494072 0.0002015019327)
(0.005903122264 0.0002790860431 0.0008537192156)
(0.01142577117 -0.000338814046 0.0002027281538)
(0.005967710492 0.0002978018007 -0.0004822190681)
(0.0055664493 0.0001427850824 -0.0002661542962)
(0.00569928635 0.0003054437128 -7.891694089e-05)
(0.00614040939 1.176245211e-05 -0.0001202981305)
(0.01161399679 0.000444954903 0.0002617433554)
(0.008142762905 -0.0002221046409 -5.257564347e-05)
(0.008164544828 -0.0006155943503 -0.0004177623094)
(0.005281471726 0.0005200478126 -0.0002724312985)
(0.006388212751 -0.0006297177629 0.0002406338309)
(0.006589742645 -9.334352668e-05 -0.0003720856466)
(0.008604059268 -0.0002535599331 0.0001444367343)
(0.009591040467 3.706492277e-05 -0.0002480487893)
(0.009669346325 -0.0002481084469 -0.0001291098171)
(0.004010112985 -5.019250636e-05 -0.0003281975511)
(0.009934742666 9.655649263e-05 -0.001422293119)
(0.00752210568 6.087300071e-05 -0.0003639157706)
(0.00622593409 -0.0001308531285 -0.0003993588912)
(0.01111206352 -0.0001274440373 0.0006163959798)
(0.007596533592 0.0003317338651 0.0008113546704)
(0.007768629351 -0.001127367039 0.0003144467323)
(0.01150915926 0.0006625963414 -0.0007898888477)
(0.007273128062 -0.0001398735745 0.0006301776219)
(0.01024988015 0.0009052737222 -0.0005176424177)
(0.006517069885 -0.0004463005458 -0.0002670421801)
(0.007553681769 -0.000216499206 -0.0005322506822)
(0.008842076574 -0.0002317887944 -0.0001115461975)
(0.01314108682 0.0003794060348 -0.0002412372201)
(0.01342851401 -0.0006835525078 6.198968396e-05)
(0.004901393467 -0.0003398193295 0.0003403082671)
(0.00804166068 -0.0004678612245 0.0003048785762)
(0.008116014446 -0.0004160399793 -0.0008294347363)
(0.004607256843 -0.0005439917424 0.0001880198747)
(0.006894249609 0.0002534942783 0.001061450654)
(0.008193445269 -0.0001833536814 -0.0001549364393)
(0.005291688252 0.0002277249972 -0.000380365852)
(0.006344162931 -0.0005104673161 0.0001465341852)
(0.01458967712 -2.218399476e-05 0.0004957894485)
(0.009055960112 2.729197141e-05 -0.0006158971859)
(0.009307413455 0.0004326135521 -0.0001106865977)
(0.004898475954 0.0004517912844 -0.0003710562821)
(0.002899236268 0.0007119748214 -0.0001691061903)
(0.01300105007 -3.791238178e-05 -0.0001304694034)
(0.005242745641 -0.0003242826596 0.0001509998739)
(0.007012789122 0.0001534762247 0.001160145889)
(0.00732637643 0.0009166221987 -0.0009622292742)
(0.01390648116 -0.0007098936159 -0.0002279267976)
(0.01061288116 -0.0002188460478 -0.001245979239)
(0.00935167427 0.0003464290646 -0.0002631102922)
(0.01667289246 -0.000358176509 5.014429945e-05)
(0.008769946196 -0.0001025579433 -0.0001571531969)
(0.008846370063 0.000449176328 -5.251809238e-05)
(0.01260468709 0.0002624599425 -7.225043498e-05)
(0.008426440081 0.0008497578944 -2.111772733e-05)
(0.006187612686 0.0006691751083 -0.0001423640315)
(0.005241753834 -0.0001436833156 -0.0004391779062)
(0.006039981099 -0.0003568216583 -0.0001205468953)
(0.008683521827 -0.0003452558814 0.0005574756616)
(0.007782527419 -0.0001253804909 6.346784087e-05)
(0.01173795243 0.000972048582 -0.0001696742355)
(0.009265893708 0.0003073762951 -0.0002057971768)
(0.006814699705 -0.0001878768101 -0.0002895077915)
(0.005533944252 0.0003267095281 0.00015135706)
(0.009188837166 0.0006839008084 0.000293645557)
(0.008247663668 0.0003310099283 0.0004496628643)
(0.01035389075 2.223990595e-05 0.0003799906321)
(0.01026698329 -0.0001631309279 0.0004442501847)
(0.005820836637 0.0006567159811 -0.0006800949207)
(0.00804319863 -0.0005823694775 -4.330998336e-05)
(0.00670121264 5.359722758e-05 0.0002646267172)
(0.006189890994 -0.0004097592028 0.0001237785794)
(0.006995753995 -9.731139229e-06 -0.0001035815749)
(0.007544567589 -0.0003826605625 0.0004363680343)
(0.01415887285 -0.0004409973364 -0.0002182478515)
(0.01317169374 -0.0001037028893 0.0007285247842)
(0.006722202058 -0.0003970136142 0.0002772702777)
(0.01102579206 -0.0007163591198 0.000603483355)
(0.008292252101 0.0006055516671 0.0004792017676)
(0.009501643002 0.0004282763078 -0.0005714780005)
(0.008886441357 5.06638993e-05 0.0003478508568)
(0.006841832113 -0.0002515956983 -0.0001063934924)
(0.006288041489 0.0003994657137 0.0001606819157)
(0.007362289534 0.0001913592195 -0.0005066167846)
(0.003659968131 -0.0001808159147 8.510070099e-05)
(0.01071939306 0.001016423955 0.0007546957969)
(0.0108946797 0.0005025201998 0.0002147210286)
(0.008706458845 -0.0001605388334 -0.0007540300863)
(0.007904159791 5.876684134e-05 0.0003429141612)
(0.007629344503 7.091251331e-05 0.000132610475)
(0.009289644697 0.0004139787367 -0.0002037848284)
(0.002699582066 -0.0001142214515 -4.685729569e-05)
(0.006003534615 0.0005354414461 0.0005399375161)
(0.01395031471 -0.001381898437 0.0004142059248)
(0.01154726727 -0.0008199583479 0.0007290182548)
(0.01213818158 0.0003494958497 -0.000665646266)
(0.007731901023 0.0001755918482 -0.0004993292127)
(0.005795733471 0.0002667436497 0.0002768322954)
(0.008599692291 0.0004348214421 -0.0002825963187)
(0.007976229975 0.0003509791405 0.0002458245354)
(0.01374327483 -0.0006963439148 -0.0001566355021)
(0.007469786716 0.0002486988644 0.0002747437226)
(0.01291930393 -0.0009665807336 -0.0006893228835)
(0.006167190231 1.755621658e-05 -0.0007345564711)
(0.008866823197 0.00029072706 -0.0002756918135)
(0.01183066827 6.427927056e-05 0.0003542346093)
(0.007970676557 -2.226590141e-05 -0.0001826409092)
(0.009465741676 0.001105803716 -0.001387552565)
(0.007321375996 -1.120340241e-06 -0.0001000789366)
(0.009810411525 0.0002384844965 -0.0002498985223)
(0.009020158248 -0.0001441673045 0.0001595378863)
(0.005509474126 -9.314872637e-05 0.0003041508195)
(0.006829996248 -0.0002878717198 -0.0002540421323)
(0.007113529663 -0.0004506406553 -4.846205914e-05)
(0.007782847586 -0.0002043076466 0.0002520131573)
(0.00858609501 -0.0008750612403 -0.0001426041285)
(0.009183579714 0.0007022705861 0.0002249569431)
(0.008618988206 0.0003351187889 0.0005405235801)
(0.004155221722 -9.15411171e-05 0.0001699439838)
(0.003640116534 0.0001929103037 0.0003997796265)
(0.009163245571 -0.0004796988553 -0.0004367204938)
(0.006203870043 0.0008654823002 0.0004965205412)
(0.007512818957 4.719201752e-05 -0.0002880788651)
(0.008642203039 0.001158090154 -6.059338946e-05)
(0.007577662761 0.0006600322182 -0.0003234618695)
(0.005045443032 -0.0004041567597 0.0005202126221)
(0.009414756223 0.001060860786 -0.0003687870027)
(0.006171438422 3.173165061e-05 3.433011513e-05)
(0.0129938159 0.0001337935123 7.302803206e-06)
(0.004244399244 -0.0004086252574 -0.0001466526858)
(0.01159553543 -0.0001782432118 -1.005503796e-05)
(0.01141795911 -0.0005655587293 0.0005103314702)
(0.0116580351 0.000189083102 -0.0002231367802)
(0.009875331765 0.0004843621929 0.0005472736729)
(0.008485655906 0.000215531657 0.0003143260804)
(0.009560833453 -0.0001673922633 2.837557488e-05)
(0.007542862934 -0.0004423761348 -0.000327624305)
(0.01047572962 0.0003267330396 -0.000298906888)
(0.01139443037 -0.0005786243075 0.0009488713098)
(0.008060024091 -0.0001177780014 4.246264773e-05)
(0.004802201758 0.0001845908265 -0.0001936498813)
(0.01148956084 -0.0008160213867 0.0001579414802)
(0.006012139017 7.416724766e-06 0.0001872550106)
(0.006660054775 -0.001040714976 -4.408902752e-05)
(0.007243866689 -0.0005571608843 0.0004509759951)
(0.01142687946 0.0002808632483 0.0002055955734)
(0.001588623165 -7.386193568e-05 0.0002615749022)
(0.003631251706 -0.0003826049744 0.0001176133836)
(0.004357874119 -4.909146164e-05 0.0001887362683)
(0.005478456487 1.837930573e-06 -0.0003039407298)
(0.004239079349 0.0001960323964 1.749522026e-05)
(0.006447612692 -0.0006511451002 -0.0002471101664)
(0.009197475986 -0.0005636171036 -0.0007681815636)
(0.006907493126 -0.0009470964942 0.0007599268849)
(0.01036031622 -0.0004710395532 0.0002609630357)
(0.01301571734 -0.0004555492811 -0.000372896633)
(0.01030406632 0.0003046201297 -0.0007074276896)
(0.01004258631 -0.0001171724643 -0.0008100765054)
(0.006786467022 -0.0001328452509 0.0002277685721)
(0.01106043406 0.000901636872 -5.724000692e-06)
(0.008241643047 0.0008127978786 0.0007920202447)
(0.01775439142 -0.0009055908343 0.0001805198552)
(0.01081973145 -0.00140318544 0.0005402058956)
(0.01477251319 -0.0001659443662 0.0003958883224)
(0.0126684437 -4.553847348e-05 0.0004576925085)
(0.01006836531 -0.0003674523214 -0.0002988186293)
(0.0084002741 0.001022572136 -0.0001000653927)
(0.008268372802 -0.0007847431902 0.0002062166597)
(0.01008301185 0.0002372391212 -0.0002849771739)
(0.01067422755 0.001104884633 -0.0001898827297)
(0.004535948771 0.0002093304092 1.795283324e-05)
(0.00635128359 -0.0006041595175 -0.0005947373657)
(0.005246880071 3.271247287e-06 -6.338560388e-05)
(0.009985755942 0.0005591920833 -0.0002082797767)
(0.009329437165 -0.0001074696873 -0.0004691077757)
(0.006748124641 1.259683569e-05 0.0002996854331)
(0.0113890717 -0.001233980954 0.0001296316339)
(0.008219549738 0.000764279748 0.0002158481098)
(0.008626954745 -0.0002260613303 -0.0001005251994)
(0.005640666237 0.0001732088235 5.417266425e-06)
(0.005202693114 -6.581393527e-06 6.472027667e-05)
(0.00723465792 0.0003953019678 0.0003791177988)
(0.007180608023 -0.000598320758 -0.0001245294807)
(0.005212991402 -0.0001521237676 -0.0001786490089)
(0.01186645313 -0.0002490543577 -0.0005293432027)
(0.005971504646 0.0002946978957 0.0002703718067)
(0.006170533544 0.0004795230574 -0.000546494058)
(0.0136227346 0.0002733635258 0.000477617547)
(0.008929270461 0.0004711214893 -0.0001061573171)
(0.003854016383 -0.0002298758276 0.0001818407146)
(0.009896625007 -0.0006246433503 0.0002153522004)
(0.005074216219 0.0002946990431 0.0001318830157)
(0.007954276307 0.0003859420677 0.0007768728951)
(0.007059084453 0.0002747134878 0.0001845582436)
(0.004426339066 -0.0002225126104 -0.000340179229)
(0.007904467361 -0.0002890114143 -0.0005177063264)
(0.008838979524 0.0005284235802 0.0001962227492)
(0.006385052101 0.0002316925572 7.124628047e-05)
(0.002806271886 0.0002416447831 -4.618627282e-06)
(0.006355133893 0.0002036939088 0.0003140632838)
(0.008915500802 -0.0005375069401 0.0001416059526)
(0.006520970931 -0.0002509629318 -6.588466097e-05)
(0.009853275191 0.0005733207615 0.0001306866841)
(0.01056674132 0.0004165201499 -0.000395875555)
(0.01250882937 0.0002411339618 0.001058453681)
(0.007993081798 -0.0004641373519 2.209589598e-05)
(0.006403201545 -0.0003825581724 -0.0002742597444)
(0.01278609433 3.312979541e-05 -0.0005708001028)
(0.007516580316 0.0004784245786 2.600291349e-05)
(0.01565425668 0.001048776316 0.000695178714)
(0.01231072164 -0.000628159929 -0.0003052680284)
(0.00938365922 -0.0007669761718 0.001289420897)
(0.005869044719 -0.0005347955997 0.0002108550849)
(0.003200724562 -0.0002701425466 0.0002896625477)
(0.009363049826 -0.000125816867 -0.0005876286306)
)
;

boundaryField
{
    flow
    {
        type            zeroGradient;
    }
    obstacle
    {
        type            calculated;
        value           nonuniform 0();
    }
    frontAndBack
    {
        type            empty;
    }
    procBoundary2to0
    {
        type            processor;
        value           nonuniform List<vector> 
31
(
(0.006607357469 0.0001752136642 -0.0005906449869)
(0.00852169049 0.0002507320557 0.0003550071037)
(0.00787880559 0.0007346611472 0.0005225636296)
(0.003600466166 -0.0007428254527 0.0008451598852)
(0.01046925406 -0.0005574329373 0.0001027060994)
(0.007565654388 -3.634163014e-05 6.034740804e-05)
(0.006872043021 0.0006882113968 -0.0001518824449)
(0.008587165716 -0.001046592633 -1.360018176e-05)
(0.006115986601 8.911297866e-05 -4.776446778e-05)
(0.007663296637 -0.0001461981164 -0.0005183401962)
(0.00857343328 0.000442387334 0.0003834146016)
(0.006196894152 -0.0001693112733 0.0004167089558)
(0.01345412512 -0.0005524446596 -0.0006847124006)
(0.01046251465 0.0004619546002 0.0001786997492)
(0.01649483153 -0.0001376230954 -0.0003899294864)
(0.003267345298 -0.000240134455 -9.251140031e-05)
(0.006117023918 -0.0002032557404 0.00029491746)
(0.0108206728 0.0006558509811 8.530084152e-05)
(0.006944927208 2.952787483e-05 0.0005920312698)
(0.009469214733 -0.0004911843506 0.001261644624)
(0.004223033904 -0.0004452137319 1.888533812e-05)
(0.01254762599 0.0006488802485 0.000758082232)
(0.008091243575 -8.749529003e-07 0.0001644628723)
(0.007663846233 0.000173594167 8.220086343e-05)
(0.01106551527 -0.000415184347 0.0001887418542)
(0.01072331479 0.0002630760323 0.0005189767628)
(0.009119228181 -8.030119354e-05 -4.229516163e-06)
(0.005859452042 0.0002580587868 -0.0006978350366)
(0.006905233794 -0.0002112195733 -4.190716381e-05)
(0.008508698729 -1.57040127e-05 -0.0002332107659)
(0.008508698729 -1.57040127e-05 -0.0002332107659)
)
;
    }
    procBoundary2to3
    {
        type            processor;
        value           nonuniform List<vector> 
19
(
(0.008942286013 -0.0008126637565 2.566278634e-05)
(0.008770575687 -0.0004091558299 -0.0001246017797)
(0.008714492235 8.005280806e-05 -0.0001752457561)
(0.007903128875 0.0001671267698 -0.0003086792491)
(0.006519674386 -0.0002324539069 0.0008207412097)
(0.01128883639 0.0002958228495 -0.0002801641489)
(0.006730566942 -0.0002703558698 0.0001216192919)