/*--------------------------------*- C++ -*----------------------------------*\
  =========                 |
  \\      /  F ield         | OpenFOAM: The Open Source CFD Toolbox
   \\    /   O peration     | Website:  https://openfoam.org
    \\  /    A nd           | Version:  7
     \\/     M anipulation  |
\*---------------------------------------------------------------------------*/
FoamFile
{
    version     2.0;
    format      ascii;
    class       volScalarField;
    location    "0.008";
    object      rhoNMean;
}
// * * * * * * * * * * * * * * * * * * * * * * * * * * * * * * * * * * * * * //

dimensions      [0 -3 0 0 0 0 0];

internalField   nonuniform List<scalar> 
546
(
7.763114868e+19
9.914907222e+19
1.001149705e+20
9.964373713e+19
9.97765156e+19
9.960989163e+19
9.98077576e+19
1.00450822e+20
1.010548339e+20
1.006564984e+20
1.010392129e+20
1.010392129e+20
1.003440785e+20
9.97947401e+19
1.000212446e+20
9.913865822e+19
9.906576023e+19
9.954740764e+19
1.000576935e+20
1.002503525e+20
7.768582217e+19
9.989627658e+19
1.001149705e+20
1.006174459e+20
1.013516328e+20
1.014792043e+20
1.012344753e+20
1.00305026e+20
1.000785215e+20
1.00403959e+20
1.006773264e+20
1.0031544e+20
1.000316586e+20
1.003753205e+20
1.000134341e+20
1.00351889e+20
1.00075918e+20
1.002295245e+20
9.982077509e+19
9.888872226e+19
7.743848972e+19
9.970101412e+19
1.005888075e+20
9.999781306e+19
9.940421517e+19
9.994053607e+19
9.930007519e+19
9.999260606e+19
9.935735218e+19
9.98051541e+19
9.996657107e+19
1.002920085e+20
9.998219206e+19
1.00398752e+20
1.004013555e+20
1.001878685e+20
9.972444561e+19
9.952657965e+19
9.986503458e+19
1.007944839e+20
7.722500276e+19
9.914907222e+19
9.92558157e+19
9.905013924e+19
9.908658823e+19
9.894860275e+19
9.988586258e+19
9.940942217e+19
9.982077509e+19
9.912824422e+19
9.876375429e+19
9.885227327e+19
9.875594379e+19
9.883404878e+19
9.943545716e+19
9.937818017e+19
9.992751857e+19
1.00284198e+20
1.00414373e+20
1.00247749e+20
7.75556472e+19
9.917250371e+19
9.974267011e+19
9.945368166e+19
9.986243109e+19
9.962290913e+19
9.886268727e+19
9.865180381e+19
9.884706627e+19
9.889913626e+19
9.899806924e+19
9.885227327e+19
9.972965261e+19
9.969841062e+19
9.956823564e+19
9.992491507e+19
1.00190472e+20
1.005888075e+20
1.003805275e+20
1.006695159e+20
7.742026522e+19
9.97973436e+19
1.004273905e+20
1.001357985e+20
1.0047165e+20
1.008153119e+20
1.00450822e+20
1.00450822e+20
1.004794605e+20
1.010652479e+20
1.011485598e+20
1.004325975e+20
1.001357985e+20
1.005940145e+20
1.010860759e+20
1.011824053e+20
1.010183849e+20
1.00237335e+20
9.990148358e+19
1.001149705e+20
7.759990669e+19
9.981556809e+19
1.007398104e+20
1.005679795e+20
1.00268577e+20
1.004482185e+20
1.007528279e+20
1.012500963e+20
1.007814664e+20
1.005002885e+20
1.000082271e+20
1.009402799e+20
1.010912829e+20
1.0010716e+20
9.887830827e+19
9.856588832e+19
9.86882528e+19
9.891996426e+19
9.927924719e+19
9.895901675e+19
7.760511369e+19
9.996396757e+19
1.008908134e+20
1.00450822e+20
1.007241894e+20
1.010886794e+20
1.008309329e+20
1.006408774e+20
1.009454869e+20
1.012605103e+20
1.013047698e+20
1.00331061e+20
9.964373713e+19
9.991450108e+19
1.00122781e+20
1.006434809e+20
1.009506939e+20
1.00127988e+20
9.958646014e+19
9.984160309e+19
7.766499418e+19
9.936255918e+19
9.996136407e+19
9.966716862e+19
9.97817226e+19
9.92454017e+19
9.97843261e+19
9.960208113e+19
9.913605472e+19
9.92454017e+19
9.902410424e+19
9.968539312e+19
1.00341475e+20
1.001462125e+20
1.00554962e+20
1.006538949e+20
1.007840699e+20
1.011511633e+20
1.015755338e+20
1.019920937e+20
7.737860923e+19
9.930267869e+19
9.975308411e+19
9.92297807e+19
9.972184211e+19
9.996396757e+19
9.954480414e+19
9.931829969e+19
9.966977212e+19
1.001045565e+20
1.002659735e+20
9.996396757e+19
1.007085684e+20
1.008387434e+20
1.00482064e+20
1.00278991e+20
1.001774545e+20
1.008882099e+20
1.006278599e+20
1.00487271e+20
7.771706417e+19
1.002503525e+20
1.007814664e+20
1.0031544e+20
1.002607665e+20
1.007346034e+20
1.011980263e+20
1.009585044e+20
1.00549755e+20
1.00461236e+20
1.007346034e+20
1.007502244e+20
1.00284198e+20
1.008621749e+20
1.013464258e+20
1.015651198e+20
1.009767289e+20
1.00549755e+20
1.005679795e+20
1.008543644e+20
7.757907869e+19
9.898505175e+19
1.00336268e+20
1.001149705e+20
1.00216507e+20
1.000498831e+20
9.953439015e+19
9.898765525e+19
9.940942217e+19
1.002399385e+20
1.001357985e+20
9.969060012e+19
9.968278962e+19
9.998219206e+19
9.944066416e+19
9.936255918e+19
1.001982825e+20
1.00299819e+20
9.947190616e+19
9.891996426e+19
7.767020118e+19
9.997177807e+19
1.001253845e+20
1.00362303e+20
9.97869296e+19
9.990148358e+19
1.007007579e+20
1.009949534e+20
1.012058368e+20
1.011095074e+20
1.006356704e+20
1.004325975e+20
9.991970807e+19
9.996917457e+19
9.995355357e+19
9.963071963e+19
9.975308411e+19
9.966977212e+19
9.970101412e+19
1.00086332e+20
7.795398263e+19
1.00346682e+20
1.005315305e+20
1.006538949e+20
1.006512914e+20
9.999781306e+19
9.959166714e+19
9.945107816e+19
9.893298176e+19
9.828210688e+19
9.914646872e+19
9.914646872e+19
9.991189758e+19
1.002503525e+20
9.966977212e+19
9.969060012e+19
9.97739121e+19
9.97973436e+19
1.00143609e+20
9.971663511e+19
7.776653066e+19
9.945368166e+19
9.981036109e+19
9.948492365e+19
9.97869296e+19
9.934433468e+19
9.970622111e+19
1.004325975e+20
1.008673819e+20
1.010470234e+20
1.009038309e+20
1.006669124e+20
9.98025506e+19
9.935474868e+19
9.940421517e+19
9.951356215e+19
9.969060012e+19
9.958906364e+19
9.996917457e+19
1.000238481e+20
7.770925367e+19
9.969841062e+19
9.963071963e+19
1.007163789e+20
1.00565376e+20
1.011745948e+20
1.010756619e+20
1.005836005e+20
9.989367308e+19
9.897984475e+19
9.970101412e+19
9.983118909e+19
9.970882461e+19
9.992231157e+19
9.966977212e+19
9.989106958e+19
9.97739121e+19
9.907096723e+19
9.854766383e+19
9.849038684e+19
7.75348192e+19
9.972184211e+19
1.001357985e+20
9.944587116e+19
9.902670774e+19
9.86830458e+19
9.852683583e+19
9.907877773e+19
9.92584192e+19
9.984941359e+19
9.911262322e+19
9.944587116e+19
9.936255918e+19
9.945368166e+19
9.936255918e+19
9.861275132e+19
9.926883319e+19
1.00534134e+20
1.008439504e+20
1.007580349e+20
7.585556201e+19
9.774838948e+19
9.837583286e+19
9.833417687e+19
9.879499628e+19
9.906836373e+19
9.915948621e+19
9.903712174e+19
9.929226469e+19
9.920374571e+19
9.985722409e+19
9.970882461e+19
9.997698506e+19
9.975308411e+19
9.993793257e+19
1.000030201e+20
9.966716862e+19
9.865961431e+19
9.838885036e+19
9.827429638e+19
1.005195152e+20
1.002239489e+20
1.007305846e+20
1.004185737e+20
1.007100741e+20
1.015458796e+20
1.000075501e+20
9.972448568e+19
9.874878376e+19
9.815158156e+19
9.881652304e+19
9.964776266e+19
1.003382771e+20
1.003499762e+20
1.011992524e+20
1.012396579e+20
9.932301495e+19
1.001059368e+20
1.005235547e+20
1.006109059e+20
1.011534359e+20
1.009272756e+20
1.010711306e+20
1.018783295e+20
1.006796732e+20
1.001790175e+20
1.007391151e+20
1.000138624e+20
1.003487265e+20
1.009043177e+20
1.008606508e+20
1.006215986e+20
9.998955865e+19
9.938961124e+19
1.002540591e+20
1.004379133e+20
1.003863963e+20
1.004926487e+20
1.003248863e+20
9.957863053e+19
9.906901714e+19
9.838718614e+19
9.928939675e+19
9.93182684e+19
9.951338127e+19
1.00153963e+20
1.001930541e+20
1.001006748e+20
9.987457129e+19
1.004908745e+20
1.007666371e+20
1.013303348e+20
1.009131176e+20
1.008027207e+20
1.00361845e+20
9.916291844e+19
1.004046854e+20
1.008293787e+20
1.008043393e+20
1.002801508e+20
1.000575047e+20
9.992368354e+19
1.01043887e+20
1.008082078e+20
1.00881425e+20
1.008053807e+20
9.888668867e+19
9.878532662e+19
9.956199969e+19
9.984536853e+19
9.972711348e+19
9.966669836e+19
9.967080822e+19
9.996308602e+19
1.006465078e+20
1.010865471e+20
9.969140953e+19
9.942984754e+19
9.956200037e+19
9.989871613e+19
1.005302596e+20
1.011490931e+20
1.009267387e+20
1.01024976e+20
1.007791672e+20
1.002820193e+20
1.022727889e+20
1.019684701e+20
1.019089349e+20
1.015978358e+20
1.007934975e+20
1.004106015e+20
1.001257775e+20
1.003335135e+20
1.00770876e+20
1.00504726e+20
1.008645263e+20
1.01087187e+20
1.014692169e+20
1.019019185e+20
1.011185179e+20
1.011653244e+20
1.010711299e+20
1.002950974e+20
9.928675596e+19
9.900145612e+19
1.008723652e+20
9.977973033e+19
9.962027575e+19
9.913851283e+19
9.914960037e+19
9.981006865e+19
9.966808386e+19
9.992467209e+19
1.006741457e+20
1.013816334e+20
9.848693999e+19
9.866168317e+19
9.889977107e+19
9.880508965e+19
9.892665344e+19
9.914731919e+19
9.896792196e+19
9.937589103e+19
9.946639867e+19
9.888731897e+19
1.007417279e+20
1.008162252e+20
1.004546837e+20
1.00880312e+20
1.00438932e+20
1.00288872e+20
1.007850733e+20
9.999052574e+19
1.00414355e+20
1.007079451e+20
9.969140953e+19
9.958242733e+19
9.984013476e+19
1.001494492e+20
1.008552786e+20
1.003186274e+20
1.000685645e+20
1.001798536e+20
9.966262232e+19
9.965287378e+19
9.988475171e+19
9.975079265e+19
9.965206337e+19
9.935723731e+19
9.935105775e+19
9.925552319e+19
9.942561558e+19
1.001743672e+20
1.004171195e+20
1.006160793e+20
9.886056135e+19
9.940617126e+19
1.001156223e+20
1.00501544e+20
1.005705512e+20
1.00253705e+20
1.002919622e+20
9.968046413e+19
9.920660869e+19
9.975030722e+19
1.00788757e+20
9.994546428e+19
9.955935078e+19
1.001787903e+20
9.966533301e+19
9.972621125e+19
1.003192072e+20
1.008658297e+20
1.004364648e+20
1.00187369e+20
9.823350496e+19
9.883267851e+19
9.802298193e+19
9.769812762e+19
9.789518816e+19
9.814913735e+19
9.786727945e+19
9.775973288e+19
9.82669428e+19
9.830271402e+19
)
;

boundaryField
{
    flow
    {
        type            calculated;
        value           nonuniform List<scalar> 
48
(
7.763114868e+19
7.768582217e+19
7.743848972e+19
7.722500276e+19
7.75556472e+19
7.742026522e+19
7.759990669e+19
7.760511369e+19
7.766499418e+19
7.737860923e+19
7.771706417e+19
7.757907869e+19
7.767020118e+19
7.795398263e+19
7.776653066e+19
7.770925367e+19
7.75348192e+19
7.585556201e+19
7.585556201e+19
9.774838948e+19
9.837583286e+19
9.833417687e+19
9.879499628e+19
9.906836373e+19
9.915948621e+19
9.903712174e+19
9.929226469e+19
9.920374571e+19
9.985722409e+19
9.970882461e+19
9.997698506e+19
9.975308411e+19
9.993793257e+19
1.000030201e+20
9.966716862e+19
9.865961431e+19
9.838885036e+19
9.827429638e+19
9.823350496e+19
9.883267851e+19
9.802298193e+19
9.769812762e+19
9.789518816e+19
9.814913735e+19
9.786727945e+19
9.775973288e+19
9.82669428e+19
9.830271402e+19
)
;
    }
    obstacle
    {
        type            calculated;
        value           nonuniform 0();
    }
    frontAndBack
    {
        type            empty;
    }
    procBoundary2to0
    {
        type            processor;
        value           nonuniform List<scalar> 
31
(
7.744109322e+19
9.971923861e+19
9.994574307e+19
9.959166714e+19
9.956302864e+19
9.971403161e+19
9.997958856e+19
9.97843261e+19
9.963332313e+19
9.944587116e+19
9.939380117e+19
9.948492365e+19
9.991970807e+19
9.993272557e+19
1.006460844e+20
1.005315305e+20
1.013203908e+20
1.007319999e+20
1.000837285e+20
9.993793257e+19
1.005195152e+20
1.002320642e+20
1.001148793e+20
1.000207087e+20
9.965709558e+19
1.002346942e+20
9.999709919e+19
1.003295455e+20
1.004175982e+20
1.004695355e+20
1.004695355e+20
)
;
    }
    procBoundary2to3
    {
        type            processor;
        value           nonuniform List<scalar> 
19
(
1.014629305e+20
1.023630908e+20
9.959811309e+19
1.007001778e+20
1.010927711e+20
1.002486963e+20
1.00257109e+20
1.020966882e+20
9.963176394e+19
1.001701769e+20
9.919430214e+19
1.015638838e+20
9.960372085e+19
1.005459447e+20
9.997949015e+19
1.001785896e+20
9.957567847e+19
1.001729818e+20
9.865308425e+19
)
;
    }
}


// ************************************************************************* //
