/*--------------------------------*- C++ -*----------------------------------*\
  =========                 |
  \\      /  F ield         | OpenFOAM: The Open Source CFD Toolbox
   \\    /   O peration     | Website:  https://openfoam.org
    \\  /    A nd           | Version:  7
     \\/     M anipulation  |
\*---------------------------------------------------------------------------*/
FoamFile
{
    version     2.0;
    format      ascii;
    class       volScalarField;
    location    "0.008";
    object      translationalT;
}
// * * * * * * * * * * * * * * * * * * * * * * * * * * * * * * * * * * * * * //

dimensions      [1 2 -2 0 0 0 0];

internalField   nonuniform List<scalar> 
546
(
293.1921865
305.6684114
297.9326307
299.0228243
299.5094161
299.2250818
299.678331
301.4555202
303.0929907
302.630439
302.7097949
301.3644633
301.2365063
301.4363375
302.4897589
300.0015013
299.2059537
298.7689202
300.6676329
300.6299307
288.2805097
305.5497873
298.3645284
298.2678655
298.9436526
300.1867556
299.8177106
297.8052777
298.4565326
300.00228
302.2126157
300.4460037
301.8092959
300.9772753
299.6229847
299.5141706
300.2292843
300.537648
301.1124305
298.7008654
287.0451454
302.5533411
296.9264576
298.7872128
298.4129977
298.2984056
299.1050557
299.1670193
299.3803248
299.3357491
299.6476147
298.3965436
297.231979
299.0571178
299.7010247
299.0472946
300.9467972
300.7664357
298.1983825
301.265227
289.6315175
304.7842182
298.2911901
298.5927698
298.7945634
298.6101492
300.3327583
299.8707932
300.4372411
299.6511889
297.7878799
297.5691784
298.5673155
296.9688951
298.2780846
298.694237
298.4809197
299.3854453
302.3412904
301.9130947
292.2658407
305.9655375
298.9844344
300.2065638
301.3591106
301.1224482
300.2229275
301.1677396
299.7104325
298.9665638
298.9792685
301.6203302
301.4804449
301.2883376
300.6446214
302.6982274
305.4006739
305.7882908
304.9136613
305.8531446
289.1455146
309.0295849
301.5456133
301.1229621
302.1032373
301.0652335
299.3703658
298.4760248
298.7322515
300.5033811
300.9915124
296.0361773
296.2726545
299.1025015
300.8925559
300.7166222
299.8772673
299.1978288
297.2663805
297.6426474
291.8137186
305.9209766
298.2220786
298.4376626
298.3623736
298.5068984
299.514101
301.4244244
300.0798064
300.1310945
299.2816246
301.1156752
300.8770359
298.9361238
296.0589751
297.5702283
297.1527769
297.2443618
297.8944424
299.2669681
291.4292258
307.3034988
299.4788586
300.3572469
300.2771471
300.6896676
300.377306
299.7451315
299.4917262
299.6570504
299.7290928
296.7462746
296.9202284
298.984046
299.7314427
298.0262444
298.768179
298.0943221
297.3535775
298.2001862
287.1352153
303.6325151
299.1263256
297.9748027
298.5665494
298.6586434
300.0475599
299.728863
300.3357041
299.0568183
298.1665427
299.7146166
301.7720691
299.4756002
298.1014484
297.6527728
297.7779164
296.8227915
295.9402886
298.3809715
291.1942215
306.0599836
298.4386997
300.0866695
300.8586923
300.7120805
300.2415395
299.6419186
299.0480874
299.8901003
299.6008788
297.4102784
296.6192491
296.9543497
298.9826176
300.1403474
300.112088
302.7487679
303.256122
301.4154232
285.8241961
302.1818865
294.4895945
296.3569375
294.9480147
295.4354547
296.8863814
297.0770282
297.3342632
297.0977212
298.3135141
300.0515383
301.7581663
301.5583865
302.4030389
301.6698569
301.3287063
300.3382409
300.4453468
300.0494701
288.553073
304.1638884
297.7531365
296.8865855
297.493509
299.3261867
298.5722767
295.9386359
296.7831968
298.5613782
299.14962
298.237262
299.7880815
301.9217735
301.1304041
300.1064421
300.2742596
300.947137
300.5080459
299.81331
288.6186183
303.86122
297.8529852
298.3608782
300.3557063
298.0730167
299.7426029
300.6005428
300.8577567
299.0796105
299.3239087
300.7261227
298.5161173
296.3235176
299.6384933
299.6423765
298.2500985
297.7185304
298.5421307
297.4347793
289.6014872
306.3264105
299.2487014
300.9657143
300.5458049
300.2748108
299.9715261
298.8106648
298.3244408
299.7968543
298.394157
298.3177992
298.2544768
297.1776881
295.0804583
296.4465195
297.8078292
297.9852534
297.5045065
298.7476946
289.6389371
305.7325085
298.7392551
298.6500226
297.173761
296.1373688
296.9745446
297.1284558
296.7334983
297.8974414
296.7685271
297.5166021
299.6588166
300.2738449
300.0525649
300.1928637
299.0142938
298.0352414
298.7191526
295.975674
288.7524333
304.0699055
295.8054063
297.1762233
297.4478778
297.6525594
297.6954844
297.2636056
295.9516839
295.494168
295.9281683
295.6367714
294.1351984
294.5197348
295.1072749
295.4475548
296.896522
294.2556064
292.4984186
295.2043008
291.5830264
307.152457
299.3891041
299.4150985
299.2003726
299.6221256
298.6370336
298.817781
300.1512892
300.1195289
300.053105
298.6994269
297.5727054
297.2060725
294.8465141
295.4950063
296.3301852
297.6191281
300.5751216
299.1473436
289.1877464
303.9362461
299.0880174
298.9810537
299.7864156
297.1894553
297.0104929
296.0833119
297.1649206
294.4689177
295.0141483
294.6797431
296.4489892
296.7132249
298.4559465
299.7736792
299.3482264
299.2646186
298.6661486
300.9801919
305.5463376
309.6977989
312.4530655
315.7851859
319.4509992
321.0401746
301.2246443
301.1070725
301.6778909
303.5499024
302.1338179
307.0860384
308.6030256
311.9365512
316.2260665
312.765392
298.6157579
301.0216601
301.6742809
302.7322734
303.0679473
305.0431981
305.3695542
309.2037209
308.6121216
310.1401925
300.0102265
303.7065396
301.4305504
302.5935234
303.2179344
304.5234754
302.5613246
303.9164254
308.5535225
306.5599768
302.5579985
304.4238071
304.3170115
302.6117166
302.0356796
300.2949703
303.4512066
304.4960128
302.8667126
307.681626
303.9484818
305.8686726
303.9794265
301.032995
300.349995
303.7022813
304.3896364
303.1223829
301.442884
301.2332159
297.8079722
299.919735
301.889264
302.9124727
300.4735439
300.8025298
303.1797806
302.5209694
303.1462936
303.5443132
299.6523793
297.7050249
298.9664702
298.4345581
299.5155344
299.9097604
300.4042198
301.4133376
301.6827236
304.3696046
298.4246794
300.0456884
299.396243
300.7565413
298.1042351
300.0506847
299.7183642
300.5708679
301.8564796
301.5090564
299.5173188
300.1413201
299.3500324
301.3911099
300.9652432
300.1765817
300.9928687
300.5792803
297.397412
297.9638034
301.9184554
300.3389106
301.615338
300.4756569
298.4235583
298.6488148
299.0024962
298.3468735
300.4154446
301.546463
299.1276202
297.0698765
295.9641899
296.634837
299.2301751
298.8386421
298.9520736
300.9978195
299.7273792
300.4695901
298.0399691
300.4086742
301.3926221
300.6458224
299.0109456
300.4327533
300.3119033
303.0969132
304.4550505
304.763051
299.9036928
299.897133
300.6029296
298.3264449
299.5806178
300.4407001
301.8914329
298.1207734
298.8003486
299.689739
297.2695293
297.361013
299.1394497
301.0981429
300.6668125
299.6507757
297.9166556
298.7556184
297.0329884
296.7111902
296.1884502
296.4810925
297.045156
297.0617238
296.0705882
297.8370921
297.3299345
298.7695259
298.7326458
300.0854229
296.1998828
297.9565173
299.3941791
299.2785872
300.7652512
300.5605782
302.1016377
302.9243351
301.4364736
301.4381046
298.8250051
299.1871263
299.7016598
299.5029401
299.0160195
299.2360944
300.4992891
301.1043896
300.7067855
301.3484867
300.2101462
301.2468914
300.2750539
298.6372059
298.9968445
299.6905661
299.5471145
297.1882568
296.896846
296.5026853
)
;

boundaryField
{
    flow
    {
        type            calculated;
        value           nonuniform List<scalar> 
48
(
293.1921865
288.2805097
287.0451454
289.6315175
292.2658407
289.1455146
291.8137186
291.4292258
287.1352153
291.1942215
285.8241961
288.553073
288.6186183
289.6014872
289.6389371
288.7524333
291.5830264
289.1877464
289.1877464
303.9362461
299.0880174
298.9810537
299.7864156
297.1894553
297.0104929
296.0833119
297.1649206
294.4689177
295.0141483
294.6797431
296.4489892
296.7132249
298.4559465
299.7736792
299.3482264
299.2646186
298.6661486
300.9801919
300.2101462
301.2468914
300.2750539
298.6372059
298.9968445
299.6905661
299.5471145
297.1882568
296.896846
296.5026853
)
;
    }
    obstacle
    {
        type            calculated;
        value           nonuniform 0();
    }
    frontAndBack
    {
        type            empty;
    }
    procBoundary2to0
    {
        type            processor;
        value           nonuniform List<scalar> 
31
(
291.6878617
307.0852916
301.0393217
301.522963
300.9439068
301.5339364
301.843824
301.9019547
302.5831103
302.7155097
302.0720667
300.2035613
298.8497643
300.2218117
301.8641373
302.1421487
303.2472999
302.1854893
301.162691
300.1073694
312.2866361
314.7492341
317.344364
322.0559652
320.0285463
326.9208732
303.1531666
303.0889035
305.2878838
304.9727302
304.9727302
)
;
    }
    procBoundary2to3
    {
        type            processor;
        value           nonuniform List<scalar> 
19
(
323.4721185
323.2011078
314.3756824
310.4437787
309.8831793
305.5529802
303.9636599
307.9833561
300.0564852
297.3341589
299.3371545
301.9515891
301.7511394
299.937228
296.6537761
299.5547081
300.999779
302.4436348
297.0922474
)
;
    }
}


// ************************************************************************* //
