/*--------------------------------*- C++ -*----------------------------------*\
  =========                 |
  \\      /  F ield         | OpenFOAM: The Open Source CFD Toolbox
   \\    /   O peration     | Website:  https://openfoam.org
    \\  /    A nd           | Version:  7
     \\/     M anipulation  |
\*---------------------------------------------------------------------------*/
FoamFile
{
    version     2.0;
    format      ascii;
    class       surfaceScalarField;
    location    "0.35";
    object      alphaPhi0.water;
}
// * * * * * * * * * * * * * * * * * * * * * * * * * * * * * * * * * * * * * //

dimensions      [0 3 -1 0 0 0 0];

internalField   nonuniform List<scalar> 
3781
(
-3.30362e-06
3.30362e-06
-4.08483e-06
7.81214e-07
-2.92288e-06
-1.16195e-06
-9.10645e-07
-2.01223e-06
1.39226e-06
-2.3029e-06
3.73109e-06
-2.33883e-06
5.98044e-06
-2.24935e-06
8.09869e-06
-2.11824e-06
1.00857e-05
-1.98702e-06
1.19588e-05
-1.87306e-06
1.37412e-05
-1.78241e-06
1.54565e-05
-1.71527e-06
1.71254e-05
-1.66891e-06
1.87649e-05
-1.63953e-06
2.0388e-05
-1.62314e-06
2.2004e-05
-1.61601e-06
2.36189e-05
-1.61484e-06
2.52356e-05
-1.61669e-06
2.68546e-05
-1.61899e-06
2.84739e-05
-1.61937e-06
3.00895e-05
-1.61559e-06
3.16949e-05
-1.60537e-06
3.32811e-05
-1.58623e-06
3.48365e-05
-1.55539e-06
3.63461e-05
-1.50958e-06
3.77909e-05
-1.44479e-06
3.9147e-05
-1.35607e-06
4.03841e-05
-1.2371e-06
4.14635e-05
-1.07946e-06
4.23344e-05
-8.70913e-07
4.29263e-05
-5.91906e-07
4.31309e-05
-2.04559e-07
4.27735e-05
3.57434e-07
4.16727e-05
1.10071e-06
3.96666e-05
2.00619e-06
3.65906e-05
3.07594e-06
3.23008e-05
4.28988e-06
2.67223e-05
5.57848e-06
1.9923e-05
6.79932e-06
1.21723e-05
7.75067e-06
3.93966e-06
8.23262e-06
-4.00271e-06
8.22859e-06
-1.11748e-05
7.10642e-06
4.10727e-06
-1.63415e-06
4.93777e-06
-1.20973e-06
3.56793e-07
9.26121e-08
-2.46429e-06
1.87006e-06
-3.78968e-06
3.89166e-06
-4.3245e-06
5.97411e-06
-4.42129e-06
8.03147e-06
-4.30672e-06
1.00258e-05
-4.11261e-06
1.19477e-05
-3.90891e-06
1.3803e-05
-3.72831e-06
1.56037e-05
-3.58314e-06
1.73634e-05
-3.47497e-06
1.90946e-05
-3.40006e-06
2.08075e-05
-3.35247e-06
2.25101e-05
-3.32578e-06
2.42079e-05
-3.31381e-06
2.5904e-05
-3.31095e-06
2.75995e-05
-3.31218e-06
2.92935e-05
-3.31293e-06
3.09831e-05
-3.30897e-06
3.26636e-05
-3.29611e-06
3.43283e-05
-3.27004e-06
3.59681e-05
-3.22603e-06
3.75713e-05
-3.15868e-06
3.91234e-05
-3.06162e-06
4.06057e-05
-2.92713e-06
4.19954e-05
-2.74571e-06
4.32638e-05
-2.50548e-06
4.43756e-05
-2.19128e-06
4.52881e-05
-1.78338e-06
4.59521e-05
-1.25594e-06
4.63232e-05
-5.75637e-07
4.63715e-05
3.09117e-07
4.60206e-05
1.4516e-06
4.51325e-05
2.89424e-06
4.35372e-05
4.67127e-06
4.10311e-05
6.79595e-06
3.73847e-05
9.22489e-06
3.23783e-05
1.18057e-05
2.58971e-05
1.42319e-05
1.8092e-05
1.60377e-05
9.52084e-06
1.67998e-05
1.65936e-06
1.55584e-05
9.64396e-06
-1.03779e-07
5.04155e-06
7.31118e-07
-4.78104e-07
2.05546e-06
-3.78864e-06
3.7305e-06
-5.46472e-06
5.57337e-06
-6.16737e-06
7.47866e-06
-6.32658e-06
9.38709e-06
-6.21515e-06
1.12701e-05
-5.99563e-06
1.31177e-05
-5.75649e-06
1.49302e-05
-5.54079e-06
1.67127e-05
-5.3657e-06
1.84722e-05
-5.23446e-06
2.02154e-05
-5.14323e-06
2.1948e-05
-5.08514e-06
2.36747e-05
-5.0524e-06
2.53982e-05
-5.03731e-06
2.71199e-05
-5.03271e-06
2.88398e-05
-5.03204e-06
3.0556e-05
-5.02918e-06
3.22654e-05
-5.01829e-06
3.39628e-05
-4.99351e-06
3.56414e-05
-4.94865e-06
3.72922e-05
-4.8769e-06
3.8904e-05
-4.77041e-06
4.04623e-05
-4.61993e-06
4.19495e-05
-4.41433e-06
4.33438e-05
-4.14001e-06
4.46185e-05
-3.78022e-06
4.57414e-05
-3.31421e-06
4.66742e-05
-2.71616e-06
4.73725e-05
-1.9542e-06
4.77869e-05
-9.90014e-07
4.78707e-05
2.25301e-07
4.75711e-05
1.75119e-06
4.68202e-05
3.64513e-06
4.55353e-05
5.95619e-06
4.36193e-05
8.71188e-06
4.09555e-05
1.18887e-05
3.74004e-05
1.53608e-05
3.28003e-05
1.8832e-05
2.70756e-05
2.17624e-05
2.04879e-05
2.33875e-05
1.35801e-05
2.24702e-05
1.67421e-05
8.59702e-07
4.18185e-06
1.976e-06
-1.5944e-06
3.43435e-06
-5.24699e-06
5.09256e-06
-7.12293e-06
6.8461e-06
-7.92091e-06
8.63828e-06
-8.11876e-06
1.04396e-05
-8.01647e-06
1.22353e-05
-7.79128e-06
1.4019e-05
-7.54022e-06
1.57895e-05
-7.31132e-06
1.75482e-05
-7.12442e-06
1.92977e-05
-6.9839e-06
2.10407e-05
-6.88621e-06
2.27797e-05
-6.82416e-06
2.45166e-05
-6.7893e-06
2.62523e-05
-6.77306e-06
2.79869e-05
-6.76727e-06
2.97191e-05
-6.76424e-06
3.14466e-05
-6.75667e-06
3.31657e-05
-6.73736e-06
3.48711e-05
-6.69899e-06
3.65562e-05
-6.63369e-06
3.8212e-05
-6.53271e-06
3.98275e-05
-6.38596e-06
4.13892e-05
-6.18156e-06
4.28801e-05
-5.90523e-06
4.42798e-05
-5.53973e-06
4.55636e-05
-5.06403e-06
4.67019e-05
-4.45256e-06
4.76601e-05
-3.67434e-06
4.83983e-05
-2.69241e-06
4.8872e-05
-1.46372e-06
4.9035e-05
6.23381e-08
4.88407e-05
1.94549e-06
4.8241e-05
4.24486e-06
4.71857e-05
7.01147e-06
4.56235e-05
1.0274e-05
4.34981e-05
1.40141e-05
4.07362e-05
1.81228e-05
3.7233e-05
2.23352e-05
3.28574e-05
2.6138e-05
2.75621e-05
2.86827e-05
2.14463e-05
2.8586e-05
2.36921e-05
1.22154e-06
2.9603e-06
2.71372e-06
-3.08657e-06
4.36033e-06
-6.8936e-06
6.06526e-06
-8.82785e-06
7.78671e-06
-9.64237e-06
9.51336e-06
-9.84541e-06
1.12433e-05
-9.74644e-06
1.2976e-05
-9.524e-06
1.47108e-05
-9.27499e-06
1.64471e-05
-9.04757e-06
1.81845e-05
-8.86187e-06
1.99232e-05
-8.72259e-06
2.16633e-05
-8.62632e-06
2.3405e-05
-8.56584e-06
2.51481e-05
-8.53242e-06
2.68921e-05
-8.51702e-06
2.86356e-05
-8.51086e-06
3.03769e-05
-8.50546e-06
3.21128e-05
-8.49259e-06
3.38394e-05
-8.46399e-06
3.55515e-05
-8.41105e-06
3.72422e-05
-8.32443e-06
3.89031e-05
-8.19363e-06
4.05237e-05
-8.00653e-06
4.2091e-05
-7.74885e-06
4.35893e-05
-7.40354e-06
4.49996e-05
-6.95008e-06
4.62993e-05
-6.36372e-06
4.74615e-05
-5.61472e-06
4.84549e-05
-4.66771e-06
4.92439e-05
-3.48145e-06
4.97893e-05
-2.00911e-06
5.00496e-05
-1.97947e-07
4.99847e-05
2.0104e-06
4.95558e-05
4.67369e-06
4.87272e-05
7.84008e-06
4.74653e-05
1.1536e-05
4.57344e-05
1.5745e-05
4.34847e-05
2.03725e-05
4.06303e-05
2.51896e-05
3.70252e-05
2.97431e-05
3.24763e-05
3.32316e-05
2.67568e-05
3.43055e-05
3.09161e-05
1.3725e-06
1.58781e-06
3.15979e-06
-4.87387e-06
4.97323e-06
-8.70704e-06
6.73304e-06
-1.05877e-05
8.44486e-06
-1.13542e-05
1.01327e-05
-1.15332e-05
1.18158e-05
-1.14296e-05
1.35049e-05
-1.12132e-05
1.52045e-05
-1.09746e-05
1.69153e-05
-1.07583e-05
1.86365e-05
-1.05831e-05
2.03668e-05
-1.04529e-05
2.21047e-05
-1.03642e-05
2.38487e-05
-1.03098e-05
2.55971e-05
-1.02809e-05
2.73482e-05
-1.02682e-05
2.90999e-05
-1.02625e-05
3.08494e-05
-1.02549e-05
3.25933e-05
-1.02365e-05
3.43275e-05
-1.01982e-05
3.60466e-05
-1.01302e-05
3.77442e-05
-1.0022e-05
3.9412e-05
-9.86143e-06
4.10401e-05
-9.6347e-06
4.26166e-05
-9.32536e-06
4.4127e-05
-8.91391e-06
4.55539e-05
-8.37699e-06
4.68768e-05
-7.6866e-06
4.80715e-05
-6.8094e-06
4.91101e-05
-5.70627e-06
4.99609e-05
-4.33233e-06
5.05895e-05
-2.63772e-06
5.09599e-05
-5.68269e-07
5.1037e-05
1.93327e-06
5.07885e-05
4.92214e-06
5.01855e-05
8.44308e-06
4.92011e-05
1.25205e-05
4.78046e-05
1.71414e-05
4.59491e-05
2.2228e-05
4.35473e-05
2.75914e-05
4.04367e-05
3.28537e-05
3.63451e-05
3.73232e-05
3.08459e-05
3.98047e-05
3.84582e-05
1.49831e-06
8.94969e-08
3.47011e-06
-6.84566e-06
5.38476e-06
-1.06217e-05
7.17255e-06
-1.23755e-05
8.872e-06
-1.30536e-05
1.05301e-05
-1.31913e-05
1.21794e-05
-1.30788e-05
1.38374e-05
-1.28712e-05
1.55117e-05
-1.26489e-05
1.72042e-05
-1.24508e-05
1.89139e-05
-1.22928e-05
2.06386e-05
-1.21776e-05
2.23757e-05
-1.21013e-05
2.41225e-05
-1.20566e-05
2.58764e-05
-1.20347e-05
2.76345e-05
-1.20263e-05
2.9394e-05
-1.2022e-05
3.11517e-05
-1.20126e-05
3.29038e-05
-1.19887e-05
3.46461e-05
-1.19404e-05
3.63732e-05
-1.18573e-05
3.80789e-05
-1.17276e-05
3.97556e-05
-1.15381e-05
4.1394e-05
-1.12731e-05
4.29831e-05
-1.09145e-05
4.45098e-05
-1.04407e-05
4.59587e-05
-9.82585e-06
4.73114e-05
-9.03927e-06
4.85465e-05
-8.04449e-06
4.96393e-05
-6.7991e-06
5.05621e-05
-5.25509e-06
5.12845e-05
-3.36011e-06
5.17752e-05
-1.05897e-06
5.20039e-05
1.70457e-06
5.19428e-05
4.98317e-06
5.15672e-05
8.81873e-06
5.08528e-05
1.32348e-05
4.97701e-05
1.82241e-05
4.82701e-05
2.3728e-05
4.62599e-05
2.96016e-05
4.3562e-05
3.55516e-05
3.98535e-05
4.10317e-05
3.45758e-05
4.50823e-05
4.61826e-05
1.6315e-06
-1.542e-06
3.71098e-06
-8.92515e-06
5.66194e-06
-1.25726e-05
7.44177e-06
-1.41553e-05
9.11499e-06
-1.47269e-05
1.07422e-05
-1.48186e-05
1.23622e-05
-1.46988e-05
1.39952e-05
-1.45042e-05
1.56499e-05
-1.43036e-05
1.73285e-05
-1.41294e-05
1.90297e-05
-1.3994e-05
2.07507e-05
-1.38985e-05
2.24879e-05
-1.38386e-05
2.42379e-05
-1.38066e-05
2.5997e-05
-1.37939e-05
2.77619e-05
-1.37911e-05
2.9529e-05
-1.37891e-05
3.12946e-05
-1.37783e-05
3.3055e-05
-1.3749e-05
3.48055e-05
-1.3691e-05
3.65412e-05
-1.3593e-05
3.82561e-05
-1.34425e-05
3.99429e-05
-1.3225e-05
4.15935e-05
-1.29236e-05
4.31978e-05
-1.25188e-05
4.47442e-05
-1.19871e-05
4.62192e-05
-1.13008e-05
4.76069e-05
-1.04269e-05
4.88887e-05
-9.32629e-06
5.00432e-05
-7.95363e-06
5.10462e-05
-6.25809e-06
5.18712e-05
-4.18512e-06
5.24909e-05
-1.67872e-06
5.28792e-05
1.31632e-06
5.30121e-05
4.85024e-06
5.28684e-05
8.96251e-06
5.24267e-05
1.36765e-05
5.16595e-05
1.89913e-05
5.05195e-05
2.4868e-05
4.89151e-05
3.1206e-05
4.66663e-05
3.78004e-05
4.34292e-05
4.42688e-05
3.85669e-05
4.99447e-05
5.3774e-05
1.77195e-06
-3.31395e-06
3.9047e-06
-1.10579e-05
5.8401e-06
-1.4508e-05
7.58052e-06
-1.58957e-05
9.21252e-06
-1.63589e-05
1.08037e-05
-1.64098e-05
1.2394e-05
-1.6289e-05
1.40036e-05
-1.61138e-05
1.56408e-05
-1.59408e-05
1.73072e-05
-1.57959e-05
1.90009e-05
-1.56877e-05
2.07185e-05
-1.56161e-05
2.24557e-05
-1.55758e-05
2.42083e-05
-1.55591e-05
2.59719e-05
-1.55575e-05
2.77426e-05
-1.55618e-05
2.95163e-05
-1.55628e-05
3.12892e-05
-1.55511e-05
3.30571e-05
-1.55169e-05
3.48155e-05
-1.54494e-05
3.65596e-05
-1.53371e-05
3.82837e-05
-1.51666e-05
3.99814e-05
-1.49226e-05
4.16449e-05
-1.45872e-05
4.32657e-05
-1.41395e-05
4.48335e-05
-1.35549e-05
4.63369e-05
-1.28042e-05
4.77627e-05
-1.18526e-05
4.90953e-05
-1.06589e-05
5.03166e-05
-9.17502e-06
5.1406e-05
-7.34741e-06
5.23402e-05
-5.11937e-06
5.30957e-05
-2.43415e-06
5.36497e-05
7.62316e-07
5.39822e-05
4.5177e-06
5.40758e-05
8.86886e-06
5.3914e-05
1.38383e-05
5.34753e-05
1.943e-05
5.27215e-05
2.56218e-05
5.15756e-05
3.23519e-05
4.98804e-05
3.94956e-05
4.7319e-05
4.68302e-05
4.32646e-05
5.3999e-05
6.0551e-05
1.91189e-06
-5.22585e-06
4.0558e-06
-1.32018e-05
5.93774e-06
-1.639e-05
7.61641e-06
-1.75744e-05
9.19593e-06
-1.79384e-05
1.07459e-05
-1.79597e-05
1.23043e-05
-1.78475e-05
1.38896e-05
-1.76991e-05
1.55088e-05
-1.75599e-05
1.71623e-05
-1.74494e-05
1.88477e-05
-1.73731e-05
2.05607e-05
-1.73291e-05
2.22964e-05
-1.73115e-05
2.40498e-05
-1.73126e-05
2.58162e-05
-1.73239e-05
2.75909e-05
-1.73365e-05
2.93696e-05
-1.73415e-05
3.1148e-05
-1.73296e-05
3.2922e-05
-1.72908e-05
3.46871e-05
-1.72145e-05
3.64385e-05
-1.70886e-05
3.81711e-05
-1.68992e-05
3.98787e-05
-1.66303e-05
4.15548e-05
-1.62633e-05
4.31916e-05
-1.57763e-05
4.47806e-05
-1.5144e-05
4.63125e-05
-1.43361e-05
4.77769e-05
-1.3317e-05
4.91616e-05
-1.20437e-05
5.04522e-05
-1.04656e-05
5.16311e-05
-8.52629e-06
5.26784e-05
-6.16673e-06
5.35735e-05
-3.32924e-06
5.4297e-05
3.88571e-08
5.48325e-05
3.98213e-06
5.51676e-05
8.53383e-06
5.52923e-05
1.37136e-05
5.51957e-05
1.95266e-05
5.4857e-05
2.59605e-05
5.42297e-05
3.29792e-05
5.321e-05
4.05153e-05
5.1575e-05
4.84652e-05
4.88502e-05
5.67239e-05
6.54415e-05
2.08034e-06
-7.30619e-06
4.23853e-06
-1.536e-05
6.07372e-06
-1.82252e-05
7.70629e-06
-1.92069e-05
9.25421e-06
-1.94863e-05
1.07862e-05
-1.94917e-05
1.23376e-05
-1.93988e-05
1.39242e-05
-1.92857e-05
1.55516e-05
-1.91873e-05
1.72193e-05
-1.91171e-05
1.89237e-05
-1.90775e-05
2.06599e-05
-1.90653e-05
2.24223e-05
-1.90739e-05
2.42053e-05
-1.90955e-05
2.60033e-05
-1.91219e-05
2.78112e-05
-1.91445e-05
2.96242e-05
-1.91545e-05
3.14377e-05
-1.91431e-05
3.32474e-05
-1.91005e-05
3.50487e-05
-1.90158e-05
3.68369e-05
-1.88769e-05
3.86072e-05
-1.86694e-05
4.03538e-05
-1.83769e-05
4.20708e-05
-1.79802e-05
4.37512e-05
-1.74568e-05
4.53881e-05
-1.67809e-05
4.69742e-05
-1.59222e-05
4.85021e-05
-1.48449e-05
4.99633e-05
-1.35048e-05
5.13469e-05
-1.18492e-05
5.26388e-05
-9.8182e-06
5.38218e-05
-7.34966e-06
5.48771e-05
-4.3846e-06
5.57879e-05
-8.71952e-07
5.65413e-05
3.22876e-06
5.71298e-05
7.94529e-06
5.75521e-05
1.32914e-05
5.78105e-05
1.92682e-05
5.79074e-05
2.58635e-05
5.78371e-05
3.30495e-05
5.75728e-05
4.07796e-05
5.70451e-05
4.89929e-05
5.61045e-05
5.76645e-05
6.70387e-05
2.2195e-06
-9.52569e-06
4.34258e-06
-1.74831e-05
6.09926e-06
-1.99818e-05
7.66586e-06
-2.07735e-05
9.16617e-06
-2.09866e-05
1.06646e-05
-2.09902e-05
1.21925e-05
-2.09267e-05
1.37635e-05
-2.08567e-05
1.53814e-05
-2.08052e-05
1.70449e-05
-2.07807e-05
1.87499e-05
-2.07825e-05
2.04907e-05
-2.0806e-05
2.2261e-05
-2.08442e-05
2.40547e-05
-2.08892e-05
2.58657e-05
-2.09328e-05
2.76882e-05
-2.0967e-05
2.9517e-05
-2.09834e-05
3.13474e-05
-2.09734e-05
3.31746e-05
-2.09277e-05
3.49942e-05
-2.08354e-05
3.68016e-05
-2.06843e-05
3.8592e-05
-2.04598e-05
4.03603e-05
-2.01452e-05
4.21009e-05
-1.97208e-05
4.38078e-05
-1.91637e-05
4.54751e-05
-1.84482e-05
4.7098e-05
-1.7545e-05
4.86723e-05
-1.64192e-05
5.01942e-05
-1.50268e-05
5.16574e-05
-1.33124e-05
5.30514e-05
-1.12122e-05
5.43617e-05
-8.65989e-06
5.55713e-05
-5.59421e-06
5.6665e-05
-1.96568e-06
5.76329e-05
2.26084e-06
5.84731e-05
7.10517e-06
5.91926e-05
1.25718e-05
5.98084e-05
1.86524e-05
6.0346e-05
2.5326e-05
6.08392e-05
3.25563e-05
6.13313e-05
4.02875e-05
6.18838e-05
4.84404e-05
6.26196e-05
5.69287e-05
6.57302e-05
2.33646e-06
-1.18621e-05
4.40239e-06
-1.9549e-05
6.07822e-06
-2.16577e-05
7.58259e-06
-2.22779e-05
9.03765e-06
-2.24417e-05
1.05021e-05
-2.24546e-05
1.20037e-05
-2.24284e-05
1.35548e-05
-2.24077e-05
1.51583e-05
-2.24088e-05
1.68125e-05
-2.24349e-05
1.85127e-05
-2.24827e-05
2.02528e-05
-2.25461e-05
2.20261e-05
-2.26175e-05
2.38257e-05
-2.26888e-05
2.56449e-05
-2.27521e-05
2.74776e-05
-2.27997e-05
2.93181e-05
-2.28239e-05
3.11612e-05
-2.28165e-05
3.3002e-05
-2.27685e-05
3.4836e-05
-2.26694e-05
3.66587e-05
-2.25069e-05
3.84654e-05
-2.22665e-05
4.02513e-05
-2.19311e-05
4.20111e-05
-2.14806e-05
4.37393e-05
-2.08919e-05
4.54309e-05
-2.01398e-05
4.70828e-05
-1.91969e-05
4.8695e-05
-1.80314e-05
5.0269e-05
-1.66008e-05
5.18041e-05
-1.48476e-05
5.32944e-05
-1.27025e-05
5.47276e-05
-1.00931e-05
5.60878e-05
-6.95443e-06
5.73603e-05
-3.23819e-06
5.85371e-05
1.08407e-06
5.96206e-05
6.02166e-06
6.06258e-05
1.15666e-05
6.15816e-05
1.76967e-05
6.25315e-05
2.4376e-05
6.35362e-05
3.15516e-05
6.46781e-05
3.91456e-05
6.60736e-05
4.70449e-05
6.79066e-05
5.50957e-05
6.31232e-05
2.42424e-06
-1.42864e-05
4.42462e-06
-2.15494e-05
6.03172e-06
-2.32648e-05
7.48566e-06
-2.37319e-05
8.9009e-06
-2.38569e-05
1.03312e-05
-2.38849e-05
1.18031e-05
-2.39003e-05
1.33288e-05
-2.39334e-05
1.49117e-05
-2.39917e-05
1.65501e-05
-2.40732e-05
1.82389e-05
-2.41716e-05
1.99719e-05
-2.42791e-05
2.17419e-05
-2.43875e-05
2.35416e-05
-2.44885e-05
2.53635e-05
-2.45741e-05
2.7201e-05
-2.46372e-05
2.90479e-05
-2.46707e-05
3.08985e-05
-2.46671e-05
3.27479e-05
-2.46179e-05
3.45914e-05
-2.45129e-05
3.64243e-05
-2.43399e-05
3.82422e-05
-2.40843e-05
4.00403e-05
-2.37292e-05
4.18135e-05
-2.32539e-05
4.35564e-05
-2.26348e-05
4.52636e-05
-2.18471e-05
4.69336e-05
-2.08669e-05
4.85706e-05
-1.96683e-05
5.01828e-05
-1.82131e-05
5.17769e-05
-1.64416e-05
5.3352e-05
-1.42776e-05
5.48985e-05
-1.16396e-05
5.64003e-05
-8.45625e-06
5.78416e-05
-4.67949e-06
5.92147e-05
-2.88967e-07
6.05249e-05
4.71149e-06
6.17929e-05
1.02985e-05
6.30564e-05
1.64332e-05
6.43701e-05
2.30622e-05
6.58078e-05
3.01139e-05
6.74643e-05
3.74892e-05
6.9459e-05
4.50502e-05
7.19448e-05
5.26098e-05
5.99381e-05
2.47829e-06
-1.67647e-05
4.42576e-06
-2.34969e-05
5.99199e-06
-2.4831e-05
7.41341e-06
-2.51533e-05
8.79486e-06
-2.52384e-05
1.01894e-05
-2.52794e-05
1.16261e-05
-2.5337e-05
1.31193e-05
-2.54266e-05
1.46738e-05
-2.55462e-05
1.62884e-05
-2.56878e-05
1.79582e-05
-2.58414e-05
1.96766e-05
-2.59975e-05
2.14363e-05
-2.61471e-05
2.32291e-05
-2.62813e-05
2.50472e-05
-2.63922e-05
2.68831e-05
-2.6473e-05
2.873e-05
-2.65176e-05
3.0582e-05
-2.65191e-05
3.24338e-05
-2.64698e-05
3.42805e-05
-2.63596e-05
3.61173e-05
-2.61767e-05
3.79398e-05
-2.59068e-05
3.97435e-05
-2.55329e-05
4.15233e-05
-2.50337e-05
4.32729e-05
-2.43843e-05
4.49858e-05
-2.356e-05
4.66602e-05
-2.25413e-05
4.83046e-05
-2.13127e-05
4.99359e-05
-1.98444e-05
5.15696e-05
-1.80753e-05
5.3212e-05
-1.592e-05
5.48562e-05
-1.32837e-05
5.64845e-05
-1.00846e-05
5.80783e-05
-6.27326e-06
5.96279e-05
-1.83858e-06
6.11398e-05
3.19955e-06
6.26387e-05
8.79971e-06
6.41672e-05
1.49048e-05
6.57856e-05
2.14438e-05
6.75713e-05
2.83283e-05
6.96169e-05
3.54436e-05
7.2027e-05
4.26402e-05
7.49147e-05
4.97221e-05
5.64464e-05
2.49759e-06
-1.92623e-05
4.43559e-06
-2.54349e-05
6.00459e-06
-2.64e-05
7.41354e-06
-2.65622e-05
8.76391e-06
-2.65887e-05
1.0117e-05
-2.66325e-05
1.15098e-05
-2.67298e-05
1.29613e-05
-2.68781e-05
1.44784e-05
-2.70633e-05
1.60604e-05
-2.72698e-05
1.77027e-05
-2.74836e-05
1.93983e-05
-2.76931e-05
2.11395e-05
-2.78883e-05
2.29179e-05
-2.80596e-05
2.47246e-05
-2.81988e-05
2.65514e-05
-2.82998e-05
2.8391e-05
-2.83571e-05
3.02369e-05
-2.83651e-05
3.20837e-05
-2.83165e-05
3.39262e-05
-2.8202e-05
3.57592e-05
-2.80097e-05
3.75783e-05
-2.77259e-05
3.93795e-05
-2.7334e-05
4.1158e-05
-2.68121e-05
4.29061e-05
-2.61324e-05
4.46141e-05
-2.52679e-05
4.62777e-05
-2.42049e-05
4.79089e-05
-2.29438e-05
4.95352e-05
-2.14706e-05
5.11835e-05
-1.97236e-05
5.28688e-05
-1.76053e-05
5.4588e-05
-1.50029e-05
5.6321e-05
-1.18176e-05
5.80439e-05
-7.99616e-06
5.97433e-05
-3.5379e-06
6.14249e-05
1.51795e-06
6.31154e-05
7.10917e-06
6.486e-05
1.31601e-05
6.67203e-05
1.95835e-05
6.87711e-05
2.62775e-05
7.10972e-05
3.31174e-05
7.37829e-05
3.99545e-05
7.69036e-05
4.66014e-05
5.28308e-05
2.48852e-06
-2.17508e-05
4.5016e-06
-2.74479e-05
6.12862e-06
-2.80269e-05
7.53977e-06
-2.79733e-05
8.85321e-06
-2.79021e-05
1.01529e-05
-2.7932e-05
1.14896e-05
-2.80664e-05
1.28886e-05
-2.82769e-05
1.43587e-05
-2.85331e-05
1.58993e-05
-2.88102e-05
1.75053e-05
-2.90895e-05
1.91695e-05
-2.9357e-05
2.0884e-05
-2.96025e-05
2.26395e-05
-2.98149e-05
2.44264e-05
-2.99854e-05
2.62356e-05
-3.01086e-05
2.80592e-05
-3.01803e-05
2.98903e-05
-3.01959e-05
3.17233e-05
-3.01491e-05
3.35523e-05
-3.00306e-05
3.53722e-05
-2.98291e-05
3.71781e-05
-2.95314e-05
3.89669e-05
-2.91224e-05
4.07348e-05
-2.85797e-05
4.2473e-05
-2.78701e-05
4.41664e-05
-2.69609e-05
4.58043e-05
-2.58422e-05
4.74003e-05
-2.45393e-05
4.89951e-05
-2.3065e-05
5.06284e-05
-2.13564e-05
5.23263e-05
-1.93029e-05
5.40907e-05
-1.67671e-05
5.58986e-05
-1.36254e-05
5.77194e-05
-9.81688e-06
5.95343e-05
-5.35278e-06
6.13476e-05
-2.95325e-07
6.31867e-05
5.27008e-06
6.50968e-05
1.125e-05
6.71374e-05
1.7543e-05
6.93777e-05
2.40372e-05
7.18931e-05
3.0602e-05
7.47477e-05
3.70999e-05
7.79834e-05
4.33656e-05
4.92022e-05
2.47403e-06
-2.42246e-05
4.69214e-06
-2.96653e-05
6.4305e-06
-2.97646e-05
7.84081e-06
-2.93828e-05
9.09714e-06
-2.91574e-05
1.03242e-05
-2.91578e-05
1.15909e-05
-2.93317e-05
1.29272e-05
-2.96116e-05
1.43418e-05
-2.9946e-05
1.58334e-05
-3.02999e-05
1.73954e-05
-3.06494e-05
1.90196e-05
-3.0979e-05
2.06983e-05
-3.12789e-05
2.24218e-05
-3.15359e-05
2.41791e-05
-3.17402e-05
2.59604e-05
-3.18872e-05
2.77573e-05
-3.19743e-05
2.95625e-05
-3.19981e-05
3.137e-05
-3.19535e-05
3.31739e-05
-3.18313e-05
3.49679e-05
-3.16199e-05
3.67465e-05
-3.1307e-05
3.8508e-05
-3.08809e-05
4.02514e-05
-3.03199e-05
4.19679e-05
-2.95834e-05
4.36358e-05
-2.86253e-05
4.52321e-05
-2.74349e-05
4.67725e-05
-2.60753e-05
4.83138e-05
-2.46023e-05
4.99084e-05
-2.29477e-05
5.15921e-05
-2.09838e-05
5.33699e-05
-1.85439e-05
5.52158e-05
-1.54705e-05
5.7095e-05
-1.16959e-05
5.89844e-05
-7.24204e-06
6.0887e-05
-2.19779e-06
6.2831e-05
3.32616e-06
6.48593e-05
9.22171e-06
6.70259e-05
1.53764e-05
6.93914e-05
2.16717e-05
7.2024e-05
2.79694e-05
7.49704e-05
3.41536e-05
7.82466e-05
4.00894e-05
4.56126e-05
2.49884e-06
-2.6721e-05
5.08805e-06
-3.22485e-05
6.95764e-06
-3.1628e-05
8.32649e-06
-3.07444e-05
9.48588e-06
-3.03078e-05
1.06163e-05
-3.02776e-05
1.18007e-05
-3.05039e-05
1.30675e-05
-3.08648e-05
1.44212e-05
-3.12848e-05
1.58574e-05
-3.17199e-05
1.73672e-05
-3.2142e-05
1.8941e-05
-3.25344e-05
2.05722e-05
-3.28908e-05
2.22498e-05
-3.31934e-05
2.39615e-05
-3.3431e-05
2.56968e-05
-3.36008e-05
2.74472e-05
-3.37019e-05
2.92048e-05
-3.3732e-05
3.09638e-05
-3.36879e-05
3.27166e-05
-3.35594e-05
3.44532e-05
-3.33341e-05
3.61621e-05
-3.29955e-05
3.78412e-05
-3.25389e-05
3.95033e-05
-3.19551e-05
4.11378e-05
-3.1187e-05
4.27062e-05
-3.01633e-05
4.41507e-05
-2.88468e-05
4.55409e-05
-2.74273e-05
4.7025e-05
-2.60456e-05
4.8694e-05
-2.45727e-05
5.0524e-05
-2.27769e-05
5.23772e-05
-2.03823e-05
5.42433e-05
-1.73322e-05
5.61545e-05
-1.36053e-05
5.80839e-05
-9.17044e-06
6.00349e-05
-4.14799e-06
6.20463e-05
1.31603e-06
6.41562e-05
7.11212e-06
6.64084e-05
1.31241e-05
6.885e-05
1.92301e-05
7.15486e-05
2.52708e-05
7.45353e-05
3.11668e-05
7.78064e-05
3.68182e-05
4.20857e-05
2.68019e-06
-2.93779e-05
5.74629e-06
-3.52655e-05
7.62143e-06
-3.34522e-05
8.81885e-06
-3.18815e-05
9.80076e-06
-3.12143e-05
1.07944e-05
-3.11812e-05
1.18731e-05
-3.14803e-05
1.30491e-05
-3.19274e-05
1.4317e-05
-3.24298e-05
1.56685e-05
-3.294e-05
1.70919e-05
-3.34266e-05
1.85732e-05
-3.38698e-05
2.01139e-05
-3.42796e-05
2.16967e-05
-3.46189e-05
2.33076e-05
-3.48784e-05
2.49421e-05
-3.50629e-05
2.66055e-05
-3.51783e-05
2.82949e-05
-3.52264e-05
2.99938e-05
-3.51872e-05
3.15959e-05
-3.49591e-05
3.31621e-05
-3.43883e-05
3.46799e-05
-3.33632e-05
3.61267e-05
-3.20643e-05
3.74419e-05
-3.04368e-05
3.86735e-05
-2.86905e-05
3.94973e-05
-2.62249e-05
3.93434e-05
-2.21566e-05
3.93677e-05
-1.75996e-05
4.09008e-05
-1.6384e-05
4.35552e-05
-1.63982e-05
4.73323e-05
-1.81422e-05
5.01973e-05
-2.02075e-05
5.23163e-05
-1.93298e-05
5.45216e-05
-1.57733e-05
5.6681e-05
-1.13153e-05
5.87704e-05
-6.22965e-06
6.08474e-05
-7.45959e-07
6.304e-05
4.92497e-06
6.53625e-05
1.08017e-05
6.78472e-05
1.67453e-05
7.05809e-05
2.25371e-05
7.35763e-05
2.81714e-05
7.68127e-05
3.35818e-05
3.86352e-05
3.55467e-06
-3.23045e-05
6.50845e-06
-3.39532e-05
7.78419e-06
-2.90287e-05
8.36638e-06
-2.43802e-05
8.77566e-06
-2.06095e-05
9.3185e-06
-1.83951e-05
1.00028e-05
-1.71825e-05
1.0797e-05
-1.65014e-05
1.16871e-05
-1.61396e-05
1.2659e-05
-1.6007e-05
1.36823e-05
-1.59888e-05
1.47343e-05
-1.5895e-05
1.58527e-05
-1.59901e-05
1.6907e-05
-1.59506e-05
1.78248e-05
-1.56361e-05
1.85966e-05
-1.50658e-05
1.9208e-05
-1.42843e-05
1.96087e-05
-1.32731e-05
1.98092e-05
-1.21414e-05
1.96877e-05
-1.08533e-05
1.9167e-05
-9.44552e-06
1.80899e-05
-6.8001e-06
1.71874e-05
-2.94104e-06
1.64755e-05
-3.58971e-07
1.53548e-05
-4.65601e-08
1.31108e-05
-6.1373e-09
9.72353e-06
-8.31287e-10
8.52877e-06
-1.15865e-10
9.5859e-06
6.88154e-12
1.33421e-05
1.89024e-11
2.1966e-05
2.12782e-11
3.34338e-05
-4.09025e-06
4.18598e-05
-6.9716e-06
4.71746e-05
-8.44646e-06
5.14666e-05
-8.08755e-06
5.54295e-05
-6.19015e-06
5.88019e-05
-2.63837e-06
6.14442e-05
2.29389e-06
6.40175e-05
8.22657e-06
6.65746e-05
1.41885e-05
6.93357e-05
1.97762e-05
7.23114e-05
2.51955e-05
7.54802e-05
3.04131e-05
7.88364e-05
3.5279e-05
3.97789e-05
3.92566e-06
-8.5326e-06
3.02111e-06
-1.34178e-06
2.73079e-06
-4.31821e-08
2.22335e-06
-1.1293e-09
1.8877e-06
-3.57893e-11
1.7794e-06
-1.35315e-12
1.75226e-06
1.24371e-12
1.76841e-06
8.8125e-13
1.82367e-06
5.40764e-10
1.91088e-06
6.8906e-10
2.00704e-06
1.17442e-09
2.10052e-06
1.8372e-09
2.22853e-06
1.52474e-09
2.28587e-06
8.58154e-10
2.23698e-06
3.88346e-10
2.10703e-06
1.52883e-10
1.9028e-06
6.10054e-11
1.6173e-06
2.47798e-11
1.28917e-06
1.01415e-11
8.99953e-07
4.15386e-12
1.22714e-06
1.71818e-12
8.23885e-07
7.45016e-13
4.14027e-07
3.50443e-13
5.36819e-08
1.55931e-13
7.10602e-09
2.13459e-13
9.68295e-10
3.35024e-13
1.36477e-10
5.306e-13
1.98337e-11
7.7802e-13
-1.08148e-11
9.138e-11
-3.25336e-11
1.97975e-10
-4.09869e-11
2.20224e-10
9.36538e-07
1.91092e-10
5.338e-06
9.96296e-11
1.06706e-05
4.77211e-11
1.66029e-05
1.80835e-11
2.51973e-05
5.09492e-12
3.75184e-05
-4.69387e-07
5.0642e-05
4.9724e-08
5.96578e-05
3.53306e-06
6.44519e-05
9.40757e-06
6.80124e-05
1.62023e-05
7.10629e-05
2.21452e-05
7.41325e-05
2.73435e-05
7.73528e-05
3.20586e-05
3.64544e-05
4.85262e-07
3.62759e-16
4.43486e-08
2.56189e-17
1.1665e-09
1.23356e-17
3.72035e-11
4.27054e-18
1.4142e-12
1.35391e-18
6.10557e-14
8.12025e-19
-4.85395e-13
7.44293e-12
-3.719e-13
3.41305e-12
-2.4468e-10
1.58935e-12
-3.32599e-10
4.62069e-12
-6.02959e-10
5.12998e-11
-1.00131e-09
2.94701e-10
-8.80123e-10
4.87539e-10
-5.23779e-10
4.72065e-10
-2.5043e-10
3.3478e-10
-1.04113e-10
1.93813e-10
-4.38579e-11
9.74712e-11
-1.88007e-11
4.38696e-11
-8.11941e-12
1.87218e-11
-3.51065e-12
7.82392e-12
-1.53581e-12
3.30592e-12
-7.05651e-13
1.48191e-12
-3.55522e-13
7.36864e-13
-1.70985e-13
4.78648e-13
-2.52793e-13
5.05093e-13
-4.29383e-13
7.615e-13
-7.32927e-13
1.17618e-12
-1.15539e-12
1.65875e-12
-1.46412e-10
1.06548e-10
-3.42053e-10
2.24536e-10
-4.08225e-10
2.54864e-10
-3.37418e-10
2.06317e-10
-2.26853e-10
1.39444e-10
-1.29618e-10
7.84937e-11
-6.35458e-11
3.75088e-11
-2.6591e-11
1.53934e-11
1.1517e-07
5.49044e-12
3.06975e-06
8.4922e-13
1.13036e-05
6.14541e-08
3.1217e-05
4.64748e-07
5.97433e-05
4.193e-06
6.75533e-05
1.4351e-05
7.27956e-05
2.21178e-05
7.61008e-05
2.87526e-05
3.32619e-05
-1.73358e-17
1.89384e-16
-4.92062e-18
7.38552e-17
-2.26061e-18
2.19115e-17
-8.64816e-19
7.6783e-18
-3.59044e-19
2.61768e-18
-2.684e-19
1.7266e-18
-2.89088e-12
3.09924e-18
-1.49714e-12
6.83331e-15
-7.68059e-13
4.66812e-13
-2.42209e-12
3.19246e-12
-2.88721e-11
4.1623e-11
-1.76879e-10
2.38962e-10
-3.1073e-10
3.90742e-10
-3.18576e-10
3.74538e-10
-2.38736e-10
2.63808e-10
-1.45919e-10
1.52311e-10
-7.74616e-11
7.67967e-11
-3.68062e-11
3.54037e-11
-1.65919e-11
1.55191e-11
-7.32908e-12
6.75811e-12
-3.27368e-12
3.06688e-12
-1.54882e-12
1.51168e-12
-8.10421e-13
8.41772e-13
-5.50262e-13
6.02807e-13
-6.24235e-13
6.6766e-13
-1.00508e-12
9.98271e-13
-1.66453e-12
1.52594e-12
-2.52988e-12
2.14111e-12
-1.76962e-10
2.70778e-12
-4.12317e-10
3.09858e-12
-5.29055e-10
3.2438e-12
-4.90266e-10
3.17355e-12
-3.64834e-10
2.95309e-12
-2.34547e-10
2.52937e-12
-1.35773e-10
1.93115e-12
-7.26448e-11
1.26161e-12
-3.64987e-11
6.33841e-13
-1.76702e-11
1.9028e-13
6.13496e-08
3.4284e-14
5.20038e-07
9.23923e-09
6.87553e-06
1.63714e-07
2.55636e-05
4.93735e-07
5.89528e-05
2.68729e-06
7.13714e-05
1.78449e-05
2.68262e-05
1.66083e-17
1.51984e-16
6.97892e-19
9.2037e-17
-2.47694e-18
2.25731e-17
-1.42638e-18
7.03739e-18
-6.76987e-19
2.61971e-18
-5.743e-19
2.15659e-18
-1.23954e-18
4.40807e-18
-3.13766e-15
1.42249e-17
-2.38634e-13
7.88835e-16
-1.78097e-12
1.18692e-13
-2.50033e-11
2.83544e-12
-1.53283e-10
1.96545e-11
-2.66272e-10
3.90103e-11
-2.70105e-10
4.48952e-11
-2.00762e-10
3.75564e-11
-1.2212e-10
2.55906e-11
-6.48326e-11
1.53202e-11
-3.14702e-11
8.56801e-12
-1.45324e-11
4.7344e-12
-6.66902e-12
2.70695e-12
-3.18808e-12
1.63969e-12
-1.65303e-12
1.04853e-12
-9.66624e-13
7.13291e-13
-7.2677e-13
5.78357e-13
-8.54839e-13
6.61164e-13
-1.35766e-12
9.71616e-13
-2.21723e-12
1.46686e-12
-3.35753e-12
2.05369e-12
-4.65278e-12
2.61251e-12
-5.9491e-12
3.0299e-12
-7.09105e-12
3.23666e-12
-7.92404e-12
3.23314e-12
-8.30086e-12
3.0455e-12
-8.1818e-12
2.65936e-12
-7.61198e-12
2.10211e-12
-6.68482e-12
1.44803e-12
-5.55553e-12
8.19308e-13
-4.47137e-12
3.51179e-13
-4.43959e-12
7.32264e-14
9.09578e-09
1.3296e-10
1.68523e-07
6.46212e-09
6.40287e-07
2.98476e-08
4.48412e-06
1.95663e-07
2.42645e-05
6.82506e-07
2.8714e-06
1.78734e-17
6.19389e-17
9.5776e-19
4.97638e-17
-2.22656e-18
1.00269e-17
-1.33852e-18
3.28943e-18
-7.03344e-19
1.60702e-18
-7.4368e-19
2.07832e-18
-1.83154e-18
5.15067e-18
-6.80985e-18
1.69592e-17
-4.21869e-16
4.29906e-17
-6.9432e-14
9.27327e-17
-1.78819e-12
7.06876e-15
-1.32367e-11
1.21642e-13
-2.78853e-11
4.42032e-13
-3.39138e-11
8.97834e-13
-2.98821e-11
1.33608e-12
-2.14008e-11
1.63758e-12
-1.34507e-11
1.75425e-12
-7.89486e-12
1.69941e-12
-4.57943e-12
1.52124e-12
-2.74927e-12
1.27728e-12
-1.74844e-12
1.01737e-12
-1.17357e-12
7.76168e-13
-8.38303e-13
5.85854e-13
-7.15335e-13
4.9152e-13
-8.64739e-13
5.41281e-13
-1.34759e-12
7.56743e-13
-2.1716e-12
1.11404e-12
-3.28297e-12
1.54909e-12
-4.58088e-12
1.97657e-12
-5.93222e-12
2.31436e-12
-7.18727e-12
2.50674e-12
-8.19078e-12
2.53731e-12
-8.81046e-12
2.41168e-12
-8.99542e-12
2.13577e-12
-8.76715e-12
1.73629e-12
-8.19469e-12
1.26411e-12
-7.35818e-12
7.94901e-13
-6.30396e-12
4.03263e-13
-5.0067e-12
9.10379e-14
1.23148e-10
3.37275e-12
6.19841e-09
2.10804e-10
3.50148e-08
1.39322e-09
2.23252e-07
1.23898e-08
8.56151e-07
6.23097e-08
2.47879e-07
3.59943e-18
1.01921e-17
-4.26337e-19
8.47458e-18
-1.13827e-18
1.92862e-18
-6.64894e-19
7.89904e-19
-4.52013e-19
8.21897e-19
-7.41173e-19
1.89312e-18
-2.1998e-18
5.58705e-18
-8.33315e-18
1.87611e-17
-2.36131e-17
4.71488e-17
-5.57745e-17
9.94711e-17
-4.58764e-15
3.20068e-15
-8.43235e-14
4.78359e-14
-3.25047e-13
1.93504e-13
-6.96911e-13
4.49822e-13
-1.09073e-12
7.53676e-13
-1.40245e-12
1.01371e-12
-1.57364e-12
1.16441e-12
-1.59563e-12
1.18769e-12
-1.49495e-12
1.10432e-12
-1.31402e-12
9.53729e-13
-1.09605e-12
7.76241e-13
-8.76181e-13
6.02931e-13
-6.93907e-13
4.60054e-13
-6.12412e-13
3.77261e-13
-7.12045e-13
3.83461e-13
-1.05525e-12
4.91923e-13
-1.65853e-12
6.89941e-13
-2.4894e-12
9.40853e-13
-3.47788e-12
1.19475e-12
-4.52809e-12
1.4025e-12
-5.52907e-12
1.52869e-12
-6.36806e-12
1.55792e-12
-6.95585e-12
1.49028e-12
-7.25505e-12
1.33437e-12
-7.27685e-12
1.10895e-12
-7.06163e-12
8.42319e-13
-6.64959e-12
5.6927e-13
-6.06371e-12
3.19532e-13
-5.16541e-12
9.5198e-14
-4.3642e-13
-1.65099e-14
1.99182e-10
8.88488e-12
1.53215e-09
6.59451e-11
1.31142e-08
6.99687e-10
7.20536e-08
4.29882e-09
2.07907e-08
1.45377e-19
3.78818e-18
-4.1521e-19
2.86305e-18
-2.57762e-19
7.70637e-19
-1.69336e-19
3.23643e-19
-2.38543e-19
5.99297e-19
-6.8677e-19
1.82806e-18
-2.40988e-18
5.99839e-18
-9.28501e-18
2.03831e-17
-2.60766e-17
5.0226e-17
-6.02863e-17
1.02792e-16
-2.09513e-15
2.37489e-15
-3.34664e-14
2.88881e-14