/*--------------------------------*- C++ -*----------------------------------*\
  =========                 |
  \\      /  F ield         | OpenFOAM: The Open Source CFD Toolbox
   \\    /   O peration     | Website:  https://openfoam.org
    \\  /    A nd           | Version:  7
     \\/     M anipulation  |
\*---------------------------------------------------------------------------*/
FoamFile
{
    version     2.0;
    format      ascii;
    class       volScalarField;
    location    "0.35";
    object      epsilon;
}
// * * * * * * * * * * * * * * * * * * * * * * * * * * * * * * * * * * * * * //

dimensions      [0 2 -3 0 0 0 0];

internalField   nonuniform List<scalar> 
1935
(
0.0331854
0.0894319
0.165189
0.238393
0.305509
0.364296
0.418247
0.470778
0.524243
0.58054
0.641114
0.706967
0.778675
0.856439
0.940123
1.02931
1.12332
1.22131
1.32224
1.42495
1.52814
1.63042
1.73027
1.8261
1.91617
1.99871
2.07184
2.13364
2.18219
2.21546
2.23117
2.22608
2.20473
2.1717
2.12182
2.05281
1.96438
1.85801
1.73751
1.60918
1.47863
1.33104
1.18342
1.02146
0.0494681
0.0670603
0.099973
0.131561
0.157624
0.179689
0.199397
0.218047
0.236641
0.255934
0.276477
0.29865
0.322692
0.348725
0.376765
0.406735
0.43848
0.471772
0.506327
0.541805
0.577821
0.613949
0.649728
0.684668
0.718261
0.74999
0.779348
0.805866
0.829143
0.848896
0.865025
0.877899
0.891848
0.909482
0.93142
0.959185
0.995238
1.0428
1.10526
1.18426
1.27172
1.32872
1.29499
1.09521
0.0614388
0.0744213
0.0987488
0.120504
0.138797
0.154329
0.168081
0.180932
0.193581
0.206549
0.2202
0.23478
0.250442
0.267266
0.285269
0.304417
0.32463
0.345788
0.367731
0.390269
0.413179
0.436215
0.459106
0.481567
0.503305
0.524034
0.54349
0.561462
0.577827
0.592603
0.606032
0.618803
0.632863
0.650534
0.673756
0.705144
0.748237
0.807647
0.888927
0.997011
1.12926
1.2556
1.31318
1.26414
0.0784652
0.0874564
0.105949
0.122341
0.13653
0.149004
0.160357
0.171151
0.181846
0.19279
0.204228
0.216321
0.22917
0.242826
0.257301
0.272568
0.288575
0.305236
0.322442
0.340056
0.35792
0.375854
0.393663
0.411139
0.428074
0.444272
0.459567
0.473853
0.487119
0.499504
0.511377
0.52349
0.537286
0.554794
0.578111
0.609914
0.653592
0.713329
0.793992
0.900143
1.03183
1.1732
1.28937
1.3781
0.0959008
0.101311
0.115201
0.127445
0.138586
0.149001
0.158989
0.168832
0.178772
0.188997
0.199644
0.210805
0.222537
0.234868
0.247799
0.261311
0.27536
0.289884
0.304798
0.319997
0.335355
0.350732
0.365971
0.38091
0.395388
0.409259
0.422414
0.434805
0.446488
0.457671
0.468793
0.480627
0.49446
0.512185
0.535865
0.568095
0.612007
0.671254
0.749845
0.851533
0.97787
1.12415
1.28305
1.48519
0.111211
0.113187
0.123442
0.132592
0.141543
0.15058
0.159783
0.169215
0.178941
0.18902
0.199495
0.210399
0.221752
0.23356
0.24582
0.258511
0.271599
0.285035
0.298751
0.312662
0.326667
0.340648
0.354478
0.368023
0.381154
0.393761
0.405772
0.41718
0.428086
0.438744
0.449633
0.461545
0.475705
0.493893
0.518158
0.551001
0.595374
0.654615
0.732308
0.831999
0.956815
1.11009
1.30456
1.59911
0.124273
0.122393
0.129571
0.136545
0.14411
0.152376
0.161247
0.17063
0.180461
0.1907
0.201323
0.212317
0.223672
0.23538
0.247427
0.259797
0.27246
0.285377
0.298493
0.311739
0.32503
0.338267
0.351344
0.364148
0.376575
0.388542
0.400004
0.410986
0.42162
0.432191
0.443203
0.455459
0.470154
0.488973
0.513964
0.547564
0.59264
0.652434
0.730515
0.830827
0.958372
1.12257
1.35012
1.72299
0.136242
0.129379
0.133691
0.139138
0.145937
0.153911
0.162797
0.172381
0.182515
0.193092
0.204041
0.215316
0.226888
0.238734
0.250838
0.263183
0.275746
0.288492
0.30138
0.314349
0.327331
0.34024
0.352985
0.365474
0.37762
0.389362
0.400678
0.411617
0.422331
0.433127
0.444524
0.457323
0.472695
0.49225
0.518036
0.552457
0.598359
0.659046
0.738345
0.840992
0.974082
1.1521
1.41257
1.85953
0.147539
0.134856
0.13638
0.140704
0.147136
0.155125
0.164239
0.174173
0.184718
0.195724
0.207091
0.21875
0.230657
0.242784
0.25511
0.267618
0.280288
0.293095
0.306002
0.31896
0.33191
0.34478
0.357491
0.369966
0.382134
0.393952
0.405418
0.416598
0.427661
0.438923
0.450904
0.464399
0.480546
0.500894
0.527478
0.56268
0.60937
0.670975
0.751704
0.85722
0.99671
1.18913
1.48172
2.00478
0.159352
0.139524
0.138283
0.141713
0.14798
0.156126
0.165557
0.175893
0.18688
0.198342
0.210157
0.222244
0.234548
0.247035
0.259684
0.272476
0.285396
0.298422
0.311523
0.324661
0.337781
0.350824
0.363721
0.376407
0.388827
0.400951
0.412795
0.42444
0.436065
0.447988
0.460719
0.475032
0.492025
0.513185
0.540505
0.576356
0.623618
0.685837
0.767563
0.875259
1.01979
1.22353
1.54177
2.13492
0.172505
0.143971
0.139954
0.142591
0.148751
0.157069
0.166805
0.177518
0.188919
0.200815
0.213068
0.225588
0.238314
0.251206
0.264239
0.277397
0.290665
0.304026
0.317453
0.330913
0.34436
0.35774
0.370996
0.384071
0.396923
0.409538
0.421947
0.434244
0.446614
0.45937
0.473001
0.488244
0.506148
0.528136
0.55608
0.592366
0.639841
0.702091
0.783847
0.891992
1.03816
1.24582
1.57087
2.16969
0.187791
0.148704
0.141839
0.143677
0.149678
0.158088
0.168042
0.179047
0.19079
0.203059
0.21571
0.228641
0.241786
0.255099
0.268555
0.282134
0.295822
0.309605
0.32346
0.337357
0.351256
0.365108
0.378865
0.392477
0.405913
0.419172
0.432302
0.445411
0.458689
0.472436
0.48711
0.503393
0.522262
0.545051
0.573503
0.609956
0.657171
0.718663
0.79911
0.905313
1.04852
1.25039
1.559
2.09575
0.20559
0.154067
0.144257
0.145211
0.15092
0.159275
0.169306
0.180476
0.192452
0.205009
0.21799
0.231287
0.244825
0.258555
0.272446
0.286477
0.300635
0.314903
0.329263
0.343685
0.358134
0.372567
0.386938
0.401206
0.415348
0.429373
0.443346
0.457395
0.471716
0.486591
0.502436
0.519861
0.539747
0.56331
0.592149
0.628483
0.674933
0.734828
0.812575
0.914454
1.05044
1.23848
1.51498
1.96083
0.225971
0.160306
0.147446
0.147366
0.152591
0.160701
0.170636
0.181823
0.193906
0.206647
0.219876
0.233477
0.247368
0.261494
0.275818
0.290316
0.304973
0.319772
0.334694
0.349712
0.364791
0.379891
0.394971
0.409993
0.424939
0.439827
0.45474
0.469828
0.485301
0.501423
0.518558
0.537228
0.558195
0.582533
0.611672
0.647628
0.692858
0.750418
0.824288
0.91997
1.04576
1.21553
1.45474
1.81323
0.248456
0.167548
0.151588
0.150278
0.154784
0.162432
0.172085
0.183132
0.19519
0.208002
0.221389
0.235223
0.249416
0.263904
0.278645
0.293611
0.308783
0.324144
0.339671
0.355338
0.371109
0.386949
0.402817
0.418678
0.434512
0.450343
0.466271
0.482474
0.499181
0.516646
0.535177
0.555199
0.577336
0.602491
0.631922
0.66732
0.711013
0.765719
0.834918
0.923253
1.03735
1.18743
1.39051
1.6759
0.271845
0.175848
0.156883
0.154104
0.157616
0.164568
0.173751
0.1845
0.1964
0.209169
0.222615
0.236603
0.251035
0.265842
0.280973
0.296397
0.312089
0.328029
0.344193
0.36055
0.377066
0.393704
0.410429
0.427205
0.444008
0.460859
0.477867
0.495243
0.513243
0.532119
0.552131
0.573612
0.597032
0.623103
0.652861
0.687727
0.72979
0.781429
0.845619
0.926183
1.02828
1.15924
1.33006
1.55745
0.294184
0.185338
0.163631
0.159067
0.161262
0.167277
0.175804
0.186104
0.197711
0.210318
0.22372
0.237771
0.252372
0.267443
0.282928
0.298789
0.314996
0.331525
0.348347
0.365427
0.382728
0.400216
0.417859
0.435623
0.453479
0.471437
0.489606
0.508214
0.527549
0.547868
0.569414
0.592448
0.617296
0.644467
0.674756
0.709313
0.749906
0.798615
0.857921
0.930916
1.02157
1.13508
1.2784
1.46087
0.31314
0.196526
0.172337
0.165505
0.166003
0.170831
0.17852
0.188214
0.199387
0.211704
0.224944
0.23896
0.253645
0.268915
0.284707
0.300975
0.317686
0.334804
0.352296
0.370122
0.388243
0.406623
0.425236
0.444057
0.463056
0.482233
0.501678
0.521607
0.542318
0.564081
0.587168
0.61183
0.638288
0.666853
0.698073
0.732826
0.772406
0.818689
0.873665
0.939777
1.0201
1.11829
1.23876
1.38667
0.32728
0.21064
0.183711
0.173866
0.172237
0.175624
0.182277
0.191183
0.20175
0.21362
0.226563
0.240424
0.255093
0.270481
0.286519
0.303154
0.320342
0.33804
0.356202
0.374787
0.393752
0.41306
0.432687
0.452623
0.472856
0.493396
0.5143
0.535711
0.557862
0.581046
0.605633
0.631963
0.66025
0.690642
0.723414
0.759108
0.79858
0.843349
0.894932
0.95518
1.02649
1.11153
1.21311
1.33422
0.338959
0.229835
0.198528
0.184669
0.180498
0.182175
0.187534
0.195404
0.205144
0.216377
0.228862
0.242433
0.256972
0.272386
0.288603
0.305561
0.323202
0.341468
0.360306
0.379671
0.399529
0.419834
0.44055
0.461682
0.483255
0.505344
0.52798
0.551129
0.574831
0.599405
0.62541
0.653392
0.683704
0.716422
0.75154
0.7892
0.829786
0.874245
0.923723
0.979396
1.04308
1.1168
1.20256
1.30233
0.359366
0.257871
0.217755
0.198703
0.191609
0.191222
0.194925
0.20144
0.210093
0.220487
0.232361
0.245525
0.259838
0.275208
0.29156
0.308823
0.326921
0.345778
0.36533
0.385544
0.40642
0.42787
0.449806
0.47226
0.495291
0.51912
0.543767
0.56894
0.594325
0.620324
0.64773
0.677401
0.710029
0.745705
0.784091
0.82481
0.867643
0.912785
0.961364
1.0139
1.07126
1.13515
1.20734
1.2895
1.38257
0.414397
0.301643
0.243463
0.217439
0.206829
0.203803
0.20533
0.21009
0.217373
0.226732
0.237865
0.250536
0.264563
0.279852
0.296334
0.313919
0.332512
0.352021
0.372367
0.393564
0.415746
0.438607
0.461872
0.485764
0.510274
0.535891
0.56261
0.589861
0.617064
0.644763
0.673987
0.705757
0.741342
0.781032
0.823945
0.869025
0.91512
0.961568
1.01043
1.06082
1.11154
1.16609
1.22647
1.2938
1.36876
0.536954
0.372318
0.278276
0.242453
0.22734
0.220801
0.219432
0.221903
0.227439
0.235499
0.24571
0.257764
0.271415
0.286553
0.3031
0.320938
0.339945
0.360003
0.380994
0.402886
0.425691
0.449173
0.473262
0.498063
0.523624
0.550109
0.577568
0.605959
0.635383
0.666358
0.699908
0.737042
0.778083
0.823768
0.873262
0.924972
0.976635
1.02447
1.07615
1.1251
1.166
1.21057
1.25937
1.31293
1.37248
0.707095
0.421952
0.313368
0.270495
0.248795
0.238622
0.234242
0.234096
0.237449
0.243754
0.252585
0.263593
0.276507
0.291136
0.307339
0.324986
0.343943
0.364065
0.385204
0.407214
0.429755
0.452935
0.477017
0.501713
0.527278
0.553652
0.581254
0.610704
0.642595
0.677419
0.715635
0.758244
0.805457
0.857112
0.912997
0.971026
1.03077
1.08931
1.15338
1.20906
1.23709
1.2727
1.30839
1.34749
1.39259
0.844715
0.43692
0.343001
0.293831
0.26785
0.254521
0.247604
0.245168
0.246434
0.250882
0.258091
0.267715
0.279462
0.293078
0.308365
0.325166
0.343328
0.362696
0.383111
0.404434
0.426611
0.449686
0.473608
0.498231
0.523673
0.550056
0.578031
0.608362
0.641643
0.678174
0.718008
0.761404
0.809209
0.863142
0.923436
0.98738
1.05179
1.11763
1.1848
1.25257
1.30225
1.34621
1.37358
1.39991
1.43121
0.881041
0.437224
0.356516
0.309738
0.283817
0.268957
0.260319
0.256149
0.255723
0.258572
0.264307
0.272593
0.283124
0.295618
0.309844
0.325613
0.342757
0.361111
0.380515
0.400828
0.422
0.444068
0.467
0.490752
0.515419
0.541287
0.56902
0.599315
0.632609
0.669007
0.708451
0.751175
0.798347
0.851852
0.912426
0.97825
1.04616
1.11414
1.1838
1.25313
1.31579
1.37089
1.42046
1.45933
1.487
0.790765
0.396849
0.345336
0.313025
0.291357
0.2772
0.268296
0.263511
0.262272
0.264191
0.268937
0.276212
0.285729
0.297217
0.310434
0.32518
0.341281
0.358577
0.376918
0.396172
0.416273
0.437218
0.459011
0.48167
0.505334
0.530325
0.55722
0.586593
0.618775
0.653825
0.691739
0.732853
0.778248
0.829495
0.887402
0.951138
1.01857
1.08826
1.16172
1.23741
1.30676
1.36763
1.42634
1.47822
1.52264
0.694518
0.367164
0.329661
0.307592
0.290975
0.27909
0.271273
0.266981
0.265843
0.267574
0.27192
0.278636
0.287483
0.298218
0.310621
0.324496
0.339676
0.356012
0.373369
0.391633
0.410731
0.430645
0.451386
0.473008
0.495658
0.519635
0.545396
0.573389
0.603901
0.637037
0.672896
0.711853
0.754796
0.802942
0.857126
0.917241
0.982408
1.05211
1.12726
1.20666
1.28336
1.35379
1.42033
1.47952
1.53252
0.641483
0.357972
0.318596
0.299441
0.285997
0.276508
0.270418
0.267339
0.266993
0.269161
0.273651
0.280275
0.288841
0.299153
0.311019
0.324268
0.338744
0.354314
0.37086
0.388284
0.406523
0.425555
0.445396
0.46611
0.487836
0.510822
0.535413
0.561962
0.590735
0.621903
0.65566
0.692403
0.732871
0.778054
0.828829
0.885618
0.94839
1.01716
1.09234
1.17287
1.25428
1.3328
1.40749
1.47582
1.53806
0.631886
0.363222
0.313219
0.291892
0.279355
0.271561
0.267175
0.265564
0.266378
0.269393
0.274438
0.281362
0.290013
0.300233
0.311866
0.324764
0.338794
0.353838
0.369797
0.38659
0.404165
0.422505
0.441629
0.461603
0.482548
0.504663
0.528214
0.553488
0.580744
0.610212
0.642166
0.677038
0.715505
0.758461
0.80684
0.861393
0.922595
0.990746
1.06596
1.14725
1.23167
1.31565
1.39686
1.47287
1.54263
0.649165
0.375322
0.311703
0.285894
0.272728
0.265797
0.262745
0.262514
0.26457
0.268615
0.27446
0.281959
0.29098
0.30139
0.313062
0.325871
0.339705
0.354463
0.370064
0.386442
0.403558
0.421402
0.439997
0.459404
0.47973
0.50114
0.523851
0.548113
0.57419
0.602367
0.632991
0.66655
0.703733
0.745433
0.792655
0.846363
0.90733
0.976043
1.05253
1.13582
1.22348
1.31221
1.39893
1.48068
1.55559
0.686426
0.390268
0.312289
0.281325
0.266762
0.260049
0.257885
0.258772
0.261959
0.267042
0.273777
0.281998
0.29157
0.302373
0.314293
0.327223
0.341068
0.355743
0.37118
0.387329
0.404161
0.421674
0.439893
0.458877
0.478726
0.499584
0.521645
0.545149
0.570379
0.597672
0.627455
0.660294
0.696944
0.738361
0.785649
0.839939
0.902218
0.973129
1.05272
1.14001
1.23265
1.32715
1.41992
1.50727
1.58626
0.738602
0.405686
0.313728
0.27775
0.261529
0.254625
0.252958
0.254657
0.258772
0.264782
0.272377
0.281351
0.291552
0.302855
0.315151
0.328339
0.342335
0.357065
0.372473
0.388519
0.405183
0.42247
0.440408
0.459057
0.478513
0.498916
0.520457
0.543384
0.568013
0.594745
0.62409
0.656717
0.693486
0.735465
0.783889
0.840057
0.905146
0.979969
1.06465
1.15821
1.25823
1.36089
1.46142
1.55559
1.63933
0.800507
0.420023
0.31518
0.274728
0.256873
0.249559
0.248097
0.250327
0.255136
0.2619
0.270241
0.279908
0.290723
0.302543
0.315253
0.328753
0.342962
0.357811
0.37325
0.389247
0.405787
0.42288
0.440558
0.458884
0.477957
0.497923
0.518984
0.541415
0.565577
0.591943
0.621123
0.653904
0.69128
0.734466
0.78486
0.843945
0.913101
0.993328
1.08488
1.18681
1.29661
1.41002
1.52136
1.62451
1.71476
0.867243
0.432384
0.31616
0.271942
0.252617
0.244801
0.243343
0.24587
0.251148
0.258468
0.267393
0.277629
0.288966
0.301241
0.314325
0.328112
0.342516
0.357471
0.372926
0.388852
0.405239
0.422096
0.439461
0.457402
0.476026
0.495493
0.516028
0.537944
0.561661
0.587733
0.616881
0.650024
0.688309
0.733118
0.786036
0.848748
0.922848
1.00955
1.10928
1.22119
1.34268
1.46917
1.59415
1.70983
1.8091
0.9348
0.44242
0.316487
0.269227
0.248653
0.240316
0.238729
0.24137
0.246914
0.254591
0.263916
0.274557
0.286274
0.298882
0.312235
0.326216
0.340732
0.355711
0.371101
0.386869
0.403006
0.419523
0.436459
0.453891
0.471938
0.490778
0.510671
0.531976
0.55518
0.580928
0.610057
0.643625
0.68294
0.729563
0.785271
0.851958
0.931441
1.02516
1.13374
1.25649
1.39085
1.532
1.67279
1.80423
1.91666
1.00021
0.450154
0.316181
0.266548
0.244948
0.236112
0.234312
0.236924
0.24256
0.250409
0.259946
0.27081
0.282735
0.295516
0.308989
0.323024
0.337517
0.352387
0.367578
0.383051
0.398794
0.414819
0.431168
0.447925
0.465225
0.483274
0.502365
0.522914
0.545479
0.570801
0.599831
0.63377
0.674081
0.722503
0.781
0.851668
0.936538
1.03727
1.15471
1.28836
1.43583
1.59227
1.75023
1.89983
2.0298
1.06139
0.4558
0.31537
0.263943
0.241522
0.232226
0.230163
0.232637
0.238222
0.246075
0.255647
0.266552
0.278504
0.291279
0.304699
0.318619
0.332923
0.347521
0.362347
0.377357
0.392535
0.407891
0.423471
0.43937
0.455741
0.472816
0.490933
0.510562
0.532336
0.557087
0.58588
0.620045
0.661195
0.711229
0.772285
0.846646
0.936531
1.0438
1.1695
1.31339
1.47331
1.64475
1.82037
1.99
2.1412
1.11695
0.459637
0.314209
0.261472
0.238411
0.228704
0.226348
0.228605
0.234023
0.241739
0.251186
0.261962
0.273765
0.286357
0.299545
0.313171
0.327109
0.341258
0.355542
0.369912
0.384345
0.398852
0.413484
0.428345
0.443611
0.459543
0.476521
0.495071
0.515898
0.539918
0.5683
0.602486
0.644222
0.695547
0.758755
0.836285
0.930521
1.04348
1.1764
1.32927
1.50034
1.6857
1.87883
2.07008
2.24656
1.16598
0.461945
0.312832
0.259189
0.235643
0.225575
0.222915
0.224899
0.230061
0.237524
0.246711
0.257209
0.268704
0.280946
0.293733
0.306895
0.320295
0.333823
0.347395
0.360954
0.374474
0.387966
0.401487
0.415156
0.429166
0.443813
0.459515
0.476852
0.496589
0.51972
0.547496
0.581458
0.623458
0.675654
0.74047
0.820478
0.918194
1.03576
1.17457
1.33484
1.51533
1.71312
1.92322
2.13773
2.34449
1.20793
0.462968
0.311331
0.257111
0.233215
0.222839
0.219878
0.221554
0.226394
0.233515
0.242333
0.252428
0.26348
0.275229
0.287466
0.300012
0.312721
0.325475
0.338184
0.350785
0.363249
0.375589
0.387871
0.400227
0.412871
0.426129
0.440456
0.456475
0.475004
0.497096
0.524067
0.557531
0.599423
0.651997
0.717781
0.799459
0.899658
1.02062
1.16386
1.32983
1.5179
1.72647
1.95293
2.19258
2.43575
1.24259
0.462918
0.309751
0.255221
0.23109
0.22046
0.217211
0.218563
0.223039
0.229754
0.238121
0.247717
0.258216
0.269357
0.280921
0.292726
0.304618
0.316474
0.328199
0.339726
0.351028
0.362118
0.373073
0.384039
0.395251
0.40706
0.419951
0.434583
0.451811
0.472728
0.498695
0.531373
0.572755
0.625164
0.691212
0.773681
0.875297
0.998404
1.14462
1.31465
1.50852
1.72625
1.96844
2.23525
2.52185
1.27
0.462003
0.308097
0.253461
0.229195
0.218367
0.214855
0.215882
0.219971
0.226239
0.234099
0.243126
0.252994
0.263439
0.274239
0.285208
0.29619
0.307057
0.317712
0.32809
0.338165
0.347946
0.35753
0.367076
0.376835
0.387177
0.398612
0.411819
0.427678
0.447301
0.472069
0.503668
0.54412
0.595795
0.66137
0.743714
0.845658
0.969658
1.11747
1.29006
1.48813
1.71348
1.97051
2.26591
2.60268
1.29043
0.460455
0.306337
0.251738
0.227427
0.21646
0.21272
0.213435
0.217133
0.222934
0.230252
0.238667
0.247852
0.257543
0.267518
0.27759
0.287602
0.297425
0.306963
0.316154
)
;

boundaryField
{
    leftWall
    {
        type            epsilonWallFunction;
        value           nonuniform List<scalar> 
44
(
0.0331854
0.0494681
0.0614388
0.0784652
0.0959008
0.111211
0.124273
0.136242
0.147539
0.159352
0.172505
0.187791
0.20559
0.225971
0.248456
0.271845
0.294184
0.31314
0.32728
0.338959
0.359366
0.414397
0.536954
0.707095
0.844715
0.881041
0.790765
0.694518
0.641483
0.631886
0.649165
0.686426
0.738602
0.800507
0.867243
0.9348
1.00021
1.06139
1.11695
1.16598
1.20793
1.24259
1.27
1.29043
)
;
    }
    rightWall
    {
        type            epsilonWallFunction;
        value           nonuniform 0();
    }
    lowerWall
    {
        type            epsilonWallFunction;
        value           nonuniform List<scalar> 
44
(
0.0331854
0.0894319
0.165189
0.238393
0.305509
0.364296
0.418247
0.470778
0.524243
0.58054
0.641114
0.706967
0.778675
0.856439
0.940123
1.02931
1.12332
1.22131
1.32224
1.42495
1.52814
1.63042
1.73027
1.8261
1.91617
1.99871
2.07184
2.13364
2.18219
2.21546
2.23117
2.22608
2.20473
2.1717
2.12182
2.05281
1.96438
1.85801
1.73751
1.60918
1.47863
1.33104
1.18342
1.02146
)
;
    }
    atmosphere
    {
        type            inletOutlet;
        inletValue      nonuniform 0();
        value           nonuniform 0();
    }
    defaultFaces
    {
        type            empty;
    }
    procBoundary0to1
    {
        type            processor;
        value           nonuniform List<scalar> 
44
(
0.889969
0.888139
1.22557
1.57214
1.89979
2.22013
2.53072
2.86751
3.26381
3.69521
3.59188
3.19233
2.75828
2.38615
2.09092
1.86417
1.69326
1.56714
1.47732
1.41743
1.41743
1.48674
1.45191
1.43836
1.44267
1.46513
1.5064
1.55446
1.57682
1.59124
1.60385
1.6217
1.65469
1.70961
1.78798
1.88743
2.00315
2.12934
2.26102
2.39301
2.52643
2.66432
2.81071
2.96678
)
;
    }
    procBoundary0to2
    {
        type            processor;
        value           nonuniform List<scalar> 
46
(
0.324964
0.333425
0.34164
0.349777
0.358103
0.367
0.376992
0.388769
0.403214
0.421443
0.444831
0.475064
0.514169
0.564538
0.628897
0.710195
0.811382
0.935064
1.08318
1.25698
1.45781
1.68917
1.95947
2.28312
2.67406
1.30451
0.458527
0.304401
0.249933
0.225662
0.214619
0.210694
0.211122
0.214439
0.21977
0.226534
0.234315
0.242789
0.251695
0.260814
0.269958
0.278973
0.287732
0.296139
0.324964
0.304136
)
;
    }
}


// ************************************************************************* //
