/*--------------------------------*- C++ -*----------------------------------*\
  =========                 |
  \\      /  F ield         | OpenFOAM: The Open Source CFD Toolbox
   \\    /   O peration     | Website:  https://openfoam.org
    \\  /    A nd           | Version:  7
     \\/     M anipulation  |
\*---------------------------------------------------------------------------*/
FoamFile
{
    version     2.0;
    format      ascii;
    class       volScalarField;
    location    "0.35";
    object      k;
}
// * * * * * * * * * * * * * * * * * * * * * * * * * * * * * * * * * * * * * //

dimensions      [0 2 -2 0 0 0 0];

internalField   nonuniform List<scalar> 
1935
(
0.00370713
0.00657139
0.00987696
0.0126193
0.0148877
0.0167542
0.0183808
0.019901
0.0213929
0.0229108
0.02449
0.0261505
0.0278995
0.0297346
0.0316459
0.0336186
0.0356347
0.0376742
0.039716
0.0417386
0.0437201
0.0456386
0.0474715
0.0491961
0.0507888
0.0522255
0.0534813
0.0545306
0.0553469
0.0559019
0.0561611
0.0560714
0.0557164
0.05516
0.054313
0.0531305
0.0515959
0.0497203
0.0475531
0.0451905
0.042718
0.0398132
0.0368086
0.0333527
0.00534907
0.0131281
0.0198158
0.0254516
0.02997
0.0337966
0.0372029
0.0403925
0.0435143
0.0466686
0.0499157
0.053285
0.0567831
0.0604
0.0641149
0.0678994
0.0717209
0.0755447
0.0793348
0.083055
0.0866687
0.0901396
0.0934312
0.0965072
0.0993319
0.101871
0.104091
0.105965
0.107472
0.108598
0.10934
0.109696
0.109595
0.109149
0.108435
0.107564
0.106693
0.106034
0.105829
0.106246
0.106963
0.106155
0.101523
0.0902922
0.00616742
0.0168386
0.0244789
0.0309656
0.0365582
0.0415024
0.0460237
0.0503119
0.0545115
0.058721
0.0629989
0.0673726
0.0718469
0.0764101
0.0810403
0.0857085
0.0903817
0.0950242
0.099599
0.104068
0.108394
0.112537
0.116458
0.120118
0.123481
0.126512
0.129179
0.131461
0.133347
0.134841
0.135967
0.136764
0.137262
0.137578
0.137805
0.138054
0.138436
0.139066
0.14007
0.141537
0.143197
0.143477
0.139779
0.1304
0.00724447
0.0194406
0.0277055
0.0347196
0.0409806
0.0467125
0.0520898
0.0572597
0.0623361
0.0673975
0.0724899
0.0776342
0.0828323
0.0880727
0.0933354
0.0985942
0.103819
0.108978
0.114035
0.118957
0.123704
0.128241
0.132529
0.136531
0.14021
0.143535
0.146482
0.149035
0.151196
0.152986
0.154455
0.155675
0.156741
0.157805
0.159004
0.160453
0.16222
0.1643
0.16661
0.168976
0.171019
0.171683
0.169292
0.162633
0.00827952
0.0217141
0.0304304
0.0378135
0.0445698
0.0509307
0.0570267
0.0629575
0.0687988
0.0746024
0.080398
0.0861976
0.0919997
0.0977933
0.103561
0.10928
0.114925
0.120468
0.125878
0.131123
0.136169
0.140982
0.145525
0.149766
0.153671
0.157214
0.160376
0.163151
0.165553
0.16762
0.169421
0.171059
0.172667
0.174416
0.17649
0.179014
0.182035
0.185474
0.189107
0.192566
0.195349
0.196751
0.195972
0.19198
0.00914179
0.0236504
0.0327948
0.0405516
0.0477689
0.0546924
0.0614237
0.0680251
0.0745397
0.0809953
0.087406
0.0937752
0.100098
0.106364
0.112557
0.118659
0.124649
0.130502
0.136192
0.141693
0.146972
0.152
0.156745
0.161176
0.165265
0.168993
0.172346
0.175328
0.177963
0.180305
0.18244
0.184492
0.18662
0.189009
0.191874
0.195353
0.199488
0.204171
0.209117
0.213863
0.217846
0.220524
0.221539
0.219727
0.00984707
0.0252425
0.0348531
0.0430533
0.0507591
0.0582246
0.0655365
0.0727349
0.0798414
0.0868666
0.0938131
0.100677
0.107452
0.114126
0.120685
0.127115
0.133398
0.139514
0.145441
0.151155
0.15663
0.161839
0.166755
0.171352
0.175607
0.179506
0.183043
0.186231
0.189104
0.191726
0.194199
0.196661
0.199289
0.202277
0.205862
0.210195
0.215324
0.221149
0.227378
0.233538
0.239058
0.243452
0.246445
0.246445
0.0104771
0.0265915
0.0367034
0.0454084
0.0536309
0.0616243
0.0694703
0.0771998
0.0848239
0.0923434
0.0997537
0.107047
0.114213
0.121241
0.128119
0.134834
0.141372
0.147716
0.153849
0.159751
0.165398
0.17077
0.175842
0.180593
0.185007
0.189074
0.192797
0.196196
0.199315
0.202226
0.20504
0.207907
0.211013
0.21456
0.218798
0.22389
0.229903
0.236762
0.24421
0.251816
0.259051
0.265452
0.270671
0.272655
0.0110586
0.0278186
0.0384575
0.0476952
0.0564344
0.0649262
0.0732552
0.081452
0.0895247
0.0974701
0.10528
0.112943
0.120448
0.127784
0.134941
0.141907
0.14867
0.155218
0.161536
0.167607
0.173414
0.178937
0.184157
0.189059
0.193631
0.197869
0.201784
0.205403
0.208776
0.211983
0.215142
0.218407
0.221969
0.226033
0.230854
0.23661
0.24339
0.251153
0.259698
0.268668
0.27761
0.286111
0.293788
0.29848
0.0116538
0.0290238
0.0402029
0.0499651
0.0591889
0.0681299
0.0768823
0.0854821
0.0939386
0.102248
0.110399
0.11838
0.126179
0.133785
0.141187
0.148376
0.155342
0.162075
0.168563
0.174793
0.18075
0.18642
0.191786
0.196839
0.201571
0.205986
0.210101
0.213948
0.217585
0.221096
0.2246
0.228254
0.232248
0.236786
0.242118
0.248436
0.255851
0.264357
0.273812
0.283934
0.294361
0.304751
0.314819
0.323117
0.0123015
0.0302757
0.0419964
0.0522489
0.0619038
0.0712335
0.080347
0.0892888
0.0980712
0.106691
0.115136
0.123393
0.131449
0.139294
0.146916
0.154307
0.161459
0.168365
0.175015
0.181398
0.187503
0.193319
0.198835
0.204042
0.208941
0.213541
0.217864
0.221951
0.225863
0.229688
0.233542
0.237579
0.241984
0.246963
0.252729
0.259508
0.267418
0.276483
0.286605
0.297565
0.309055
0.320761
0.332403
0.34308
0.0130339
0.0316143
0.0438615
0.0545479
0.0645647
0.0742139
0.0836237
0.0928478
0.101902
0.110783
0.11948
0.127976
0.136259
0.144316
0.152138
0.159715
0.167043
0.174113
0.18092
0.187455
0.193709
0.199675
0.205344
0.210713
0.215786
0.220578
0.225119
0.229457
0.233656
0.237803
0.242013
0.246428
0.251224
0.256594
0.26273
0.269863
0.278118
0.287535
0.298042
0.309449
0.321453
0.333672
0.345602
0.35606
0.0138593
0.0330309
0.0457655
0.0568119
0.0671123
0.0770087
0.0866502
0.0960996
0.105375
0.114474
0.123383
0.132086
0.140568
0.148815
0.156818
0.164569
0.172062
0.179292
0.186253
0.19294
0.199346
0.205465
0.211293
0.216831
0.222085
0.227077
0.231842
0.236436
0.24093
0.245407
0.249974
0.254762
0.259926
0.265643
0.272084
0.279468
0.287918
0.297481
0.308095
0.319571
0.331579
0.343623
0.354922
0.363871
0.01477
0.0344941
0.0476571
0.0589827
0.0694903
0.0795676
0.0893839
0.099009
0.108463
0.117741
0.126829
0.13571
0.144367
0.152786
0.160956
0.168869
0.17652
0.183906
0.191021
0.197862
0.204424
0.210703
0.216698
0.222411
0.227854
0.23305
0.238044
0.242898
0.247689
0.252501
0.257428
0.262582
0.268098
0.274127
0.280819
0.288357
0.29687
0.3064
0.316884
0.328127
0.33977
0.351239
0.361608
0.369194
0.0157343
0.0359487
0.0494663
0.0609936
0.0716432
0.0818484
0.0917951
0.101557
0.111154
0.12058
0.12982
0.138854
0.147665
0.156239
0.164563
0.17263
0.180435
0.187975
0.195245
0.202244
0.208967
0.215413
0.221583
0.227481
0.23312
0.238526
0.243751
0.248865
0.253954
0.2591
0.264386
0.269904
0.275761
0.282077
0.288983
0.296601
0.305076
0.31444
0.324623
0.335428
0.34649
0.357211
0.366658
0.373299
0.0166945
0.0373179
0.0511124
0.0627794
0.073527
0.0838275
0.0938777
0.103751
0.113466
0.123015
0.132381
0.141547
0.150494
0.159207
0.167675
0.175888
0.183843
0.191536
0.198964
0.206125
0.213016
0.219637
0.225992
0.232087
0.237933
0.243558
0.249016
0.25439
0.259772
0.265246
0.270886
0.276763
0.282955
0.289546
0.296635
0.304307
0.312694
0.321816
0.331604
0.341864
0.352245
0.362175
0.370788
0.376781
0.0175711
0.0385042
0.0525117
0.0642877
0.0751221
0.0855136
0.095661
0.105634
0.11545
0.1251
0.134572
0.143848
0.152913
0.161751
0.170351
0.178704
0.186805
0.194652
0.202241
0.209569
0.216635
0.223441
0.229992
0.236297
0.242366
0.248224
0.253926
0.25956
0.265229
0.271017
0.276996
0.283225
0.289751
0.296624
0.303904
0.311646
0.319941
0.328813
0.338186
0.347877
0.357565
0.366732
0.374609
0.380125
0.0182827
0.0393923
0.0535877
0.0654952
0.0764521
0.086964
0.0972222
0.107294
0.117196
0.126929
0.136484
0.145848
0.155011
0.163958
0.172678
0.181163
0.189407
0.197407
0.205159
0.212661
0.21991
0.22691
0.233669
0.240198
0.246508
0.252623
0.25859
0.264497
0.270446
0.276526
0.28282
0.289385
0.296253
0.303437
0.310957
0.318838
0.327099
0.335779
0.344788
0.353949
0.362984
0.371443
0.378665
0.383784
0.0188002
0.0398469
0.0542814
0.0664311
0.0776073
0.0882991
0.098691
0.108856
0.118827
0.128616
0.138226
0.147652
0.156888
0.165923
0.174748
0.183355
0.191737
0.199888
0.207805
0.215483
0.222923
0.230127
0.237104
0.243871
0.250444
0.256848
0.263122
0.269333
0.275564
0.281911
0.288481
0.295359
0.30258
0.310132
0.317987
0.32612
0.334494
0.343113
0.351869
0.360584
0.369024
0.376817
0.383417
0.388141
0.0192626
0.0397123
0.0545856
0.0672259
0.0787786
0.0897163
0.100247
0.110482
0.120485
0.130291
0.13992
0.149374
0.158654
0.167755
0.176668
0.185386
0.1939
0.202203
0.210288
0.218152
0.225798
0.233227
0.240444
0.24747
0.25433
0.261066
0.267712
0.274281
0.280808
0.287394
0.294192
0.301342
0.30892
0.316905
0.325219
0.33377
0.34245
0.351185
0.359857
0.368247
0.37615
0.383279
0.38922
0.393472
0.0201675
0.0389943
0.0547263
0.0682474
0.0803286
0.0915239
0.10215
0.112398
0.12238
0.132161
0.141774
0.151229
0.16053
0.169677
0.178669
0.187496
0.196147
0.204609
0.212875
0.220947
0.228839
0.236536
0.244026
0.251338
0.258508
0.265616
0.272691
0.279679
0.286517
0.293325
0.300318
0.30771
0.315664
0.324169
0.333082
0.342209
0.351345
0.360304
0.369022
0.377233
0.384649
0.391082
0.39628
0.39993
0.401601
0.0225054
0.0385419
0.0555878
0.0702502
0.0828131
0.0941412
0.104744
0.114914
0.124814
0.134527
0.144097
0.153537
0.162845
0.172032
0.181103
0.190045
0.198845
0.207485
0.215954
0.224272
0.232493
0.240529
0.248308
0.255922
0.263388
0.270862
0.278363
0.28576
0.292918
0.299992
0.307251
0.314945
0.323371
0.33257
0.342275
0.352158
0.361845
0.371019
0.379882
0.387952
0.39462
0.400183
0.404567
0.407509
0.408685
0.0271107
0.041019
0.0588885
0.0741742
0.086784
0.0979473
0.108319
0.118268
0.127985
0.137562
0.147042
0.156433
0.165726
0.174932
0.184061
0.193096
0.202016
0.210799
0.219419
0.227884
0.236209
0.244334
0.252254
0.260026
0.267682
0.275287
0.282874
0.29045
0.298047
0.305798
0.313949
0.322729
0.332186
0.342463
0.353318
0.364318
0.374891
0.384106
0.393448
0.401336
0.406459
0.410803
0.414097
0.416069
0.416589
0.0321291
0.048492
0.065649
0.0797523
0.0914135
0.102141
0.112126
0.121688
0.131049
0.140316
0.149538
0.158729
0.167881
0.176989
0.186048
0.195043
0.203951
0.212743
0.221386
0.229848
0.238036
0.246009
0.253871
0.261561
0.269168
0.276695
0.284268
0.292057
0.300212
0.308841
0.318026
0.327974
0.33869
0.350085
0.362071
0.374111
0.386037
0.39713
0.408649
0.41774
0.420606
0.423716
0.425382
0.42591
0.425472
0.0359289
0.0582827
0.0741388
0.085411
0.0958816
0.106034
0.11564
0.124841
0.133823
0.142711
0.151566
0.160417
0.169266
0.178095
0.186889
0.19563
0.204294
0.212851
0.221266
0.229513
0.237592
0.245538
0.253354
0.261014
0.268575
0.276087
0.283735
0.291725
0.300203
0.309228
0.318777
0.328872
0.339664
0.351493
0.364338
0.377508
0.390243
0.402695
0.414732
0.426063
0.433014
0.437822
0.438488
0.437574
0.435922
0.0362079
0.0624391
0.0788922
0.0897598
0.100003
0.109897
0.119268
0.128208
0.136886
0.145435
0.153937
0.162434
0.170934
0.179423
0.187881
0.196286
0.204614
0.212836
0.220919
0.228839
0.236604
0.244244
0.25177
0.259185
0.266535
0.273914
0.281508
0.289503
0.298003
0.307015
0.316495
0.326458
0.337136
0.348906
0.361846
0.375445
0.388932
0.401835
0.414395
0.426115
0.435621
0.442682
0.447592
0.449351
0.447878
0.0334688
0.0607321
0.0794152
0.0918818
0.102716
0.112733
0.12209
0.130941
0.139457
0.147779
0.156008
0.164198
0.172371
0.180522
0.188631
0.196679
0.204643
0.212498
0.220221
0.22779
0.235207
0.242494
0.249673
0.256766
0.263833
0.270978
0.278364
0.286144
0.294396
0.303118
0.31228
0.321931
0.332285
0.343649
0.356119
0.369396
0.382908
0.396267
0.40968
0.422724
0.433658
0.442048
0.448956
0.453467
0.455419
0.0308348
0.058965
0.0784067
0.0924358
0.104146
0.114574
0.124129
0.133056
0.141551
0.149771
0.157827
0.165789
0.173693
0.181543
0.18933
0.19704
0.204653
0.212152
0.219518
0.226738
0.233813
0.240758
0.247598
0.254368
0.26113
0.267984
0.275064
0.282494
0.290341
0.29862
0.30733
0.316533
0.326403
0.337165
0.348925
0.361545
0.374714
0.388208
0.402099
0.416012
0.428508
0.438876
0.447513
0.453752
0.457728
0.0294655
0.0580346
0.0775063
0.0924467
0.104892
0.115796
0.125652
0.134763
0.143346
0.151568
0.159548
0.16737
0.175078
0.182692
0.190212
0.197629
0.204933
0.212111
0.21915
0.226045
0.232798
0.239424
0.245949
0.252413
0.258875
0.265421
0.27216
0.279193
0.286585
0.294371
0.302579
0.311277
0.320604
0.330733
0.34178
0.35373
0.366452
0.379826
0.393811
0.408066
0.421597
0.433639
0.44399
0.452174
0.458193
0.0293147
0.0577793
0.0771645
0.0925516
0.105475
0.116768
0.126921
0.136249
0.144975
0.153267
0.16125
0.169009
0.1766
0.184049
0.191368
0.198556
0.205607
0.212515
0.219276
0.225887
0.232357
0.2387
0.244945
0.25113
0.257311
0.263561
0.269967
0.276614
0.283571
0.290887
0.298614
0.306826
0.315644
0.325215
0.33567
0.347067
0.359387
0.372564
0.386499
0.400872
0.414992
0.428107
0.439762
0.449519
0.457177
0.0299318
0.0581256
0.0774379
0.093023
0.106198
0.117738
0.128113
0.137629
0.146503
0.154896
0.162929
0.170686
0.178225
0.185579
0.192764
0.199786
0.206647
0.213346
0.219883
0.226263
0.232495
0.2386
0.244604
0.250545
0.256475
0.262455
0.26856
0.274866
0.281441
0.28835
0.29566
0.303455
0.311853
0.320994
0.331018
0.342027
0.354064
0.367099
0.381014
0.395506
0.410015
0.423852
0.436424
0.447232
0.455967
0.0311128
0.0590076
0.0782852
0.0939176
0.107165
0.118805
0.129298
0.138938
0.14793
0.156422
0.164525
0.172317
0.179852
0.187164
0.194273
0.201189
0.207918
0.214463
0.22083
0.227028
0.23307
0.238978
0.244779
0.250511
0.25622
0.261964
0.267808
0.273822
0.28008
0.286654
0.293627
0.301095
0.309181
0.318027
0.327783
0.338576
0.350483
0.363499
0.377505
0.392208
0.407097
0.421523
0.434814
0.446379
0.455787
0.0326846
0.0603364
0.0796121
0.0951754
0.108353
0.119962
0.130467
0.140154
0.149214
0.15778
0.165948
0.173788
0.181345
0.188652
0.195727
0.202581
0.209223
0.21566
0.221901
0.227958
0.233847
0.239591
0.245219
0.250768
0.256283
0.261816
0.267431
0.273197
0.279191
0.285496
0.292207
0.299435
0.30731
0.315984
0.325615
0.336347
0.348274
0.361408
0.375635
0.390667
0.406013
0.421019
0.434964
0.447162
0.457065
0.034477
0.0619909
0.0812823
0.0966796
0.109676
0.121149
0.131573
0.141231
0.150301
0.1589
0.167112
0.174991
0.182576
0.189892
0.196955
0.203774
0.210358
0.216716
0.222859
0.228801
0.23456
0.24016
0.245632
0.251012
0.256344
0.261681
0.267086
0.272631
0.278399
0.284482
0.290989
0.298045
0.305792
0.314391
0.32401
0.334801
0.34687
0.360235
0.374786
0.39024
0.406112
0.421736
0.436341
0.449145
0.459497
0.0363432
0.0638489
0.083149
0.0983031
0.111037
0.122294
0.132565
0.142128
0.15115
0.159737
0.167956
0.175852
0.183451
0.190771
0.197822
0.204613
0.211149
0.217439
0.223494
0.22933
0.234966
0.240427
0.245743
0.250953
0.2561
0.26124
0.266439
0.271772
0.277331
0.28322
0.289561
0.296491
0.304167
0.31276
0.322444
0.333375
0.345661
0.359323
0.374251
0.390162
0.406575
0.422819
0.438087
0.451521
0.462351
0.0381752
0.0658064
0.0850838
0.0999386
0.112357
0.123346
0.13341
0.142824
0.151748
0.160274
0.16846
0.176336
0.183921
0.191223
0.198248
0.204997
0.211476
0.217691
0.223652
0.229375
0.234878
0.240187
0.245334
0.250357
0.255304
0.260233
0.265214
0.270331
0.275683
0.281388
0.28758
0.294412
0.302051
0.310678
0.320469
0.33158
0.344114
0.358087
0.373384
0.38972
0.406621
0.423419
0.439297
0.453362
0.464755
0.0399016
0.0677818
0.0869906
0.101512
0.113588
0.124279
0.134101
0.143326
0.152107
0.160528
0.168635
0.176451
0.183983
0.191234
0.198201
0.204883
0.211281
0.217398
0.223243
0.228829
0.234176
0.23931
0.244262
0.249073
0.253794
0.258487
0.263229
0.268114
0.27325
0.278769
0.284817
0.29156
0.299176
0.307852
0.317764
0.329062
0.341838
0.356094
0.371702
0.388376
0.405649
0.422875
0.439262
0.45392
0.465959
0.0414788
0.0697115
0.0888054
0.102981
0.114708
0.125091
0.134651
0.14366
0.152263
0.160538
0.168524
0.176234
0.183671
0.190829
0.197699
0.204277
0.210558
0.216543
0.222238
0.227656
0.232814
0.237738
0.242461
0.247027
0.25149
0.255919
0.260397
0.265028
0.269934
0.275256
0.281155
0.287808
0.295402
0.304125
0.314152
0.325621
0.338608
0.353093
0.36893
0.385824
0.403323
0.420824
0.437596
0.452812
0.465604
0.0428816
0.0715463
0.0904891
0.104325
0.115717
0.125796
0.135088
0.143862
0.15226
0.160356
0.168181
0.175744
0.183041
0.190061
0.196792
0.203222
0.209344
0.215157
0.220663
0.225872
0.230803
0.235479
0.239937
0.244223
0.248395
0.252529
0.256718
0.261075
0.265732
0.270845
0.276585
0.283139
0.290701
0.299459
0.309581
0.321194
0.334351
0.349005
0.364986
0.381988
0.399575
0.417212
0.43428
0.450079
0.463827
0.0440971
0.0732464
0.0920193
0.10554
0.116621
0.126411
0.135438
0.14397
0.152146
0.160035
0.167665
0.175043
0.182158
0.188997
0.195544
0.201782
0.207703
0.2133
0.218575
0.223536
0.228199
0.232591
0.236747
0.240719
0.24457
0.248383
0.25226
0.256323
0.260717
0.265607
0.271176
0.277618
0.285131
0.293903
0.304096
0.315821
0.329108
0.343881
0.359941
0.376968
0.394553
0.412248
0.429601
0.446121
0.46119
0.0451209
0.0747799
0.0933822
0.106624
0.117428
0.126953
0.135727
0.144016
0.151958
0.15962
0.16703
0.174189
0.181087
0.187706
0.194027
0.200033
0.20571
0.211051
0.216055
0.220729
0.225089
0.229161
0.232984
0.236614
0.240119
0.24359
0.247137
0.250892
0.255011
0.259666
0.26505
0.271363
0.278806
0.287567
0.297801
0.309605
0.322988
0.337847
0.353953
0.370972
0.388529
0.406289
0.424021
0.441543
0.458497
0.0459545
0.0761208
0.0945666
0.107572
0.118138
0.127427
0.135965
0.144017
0.151722
0.159146
0.166315
0.17323
0.179881
0.186247
0.192308
0.198044
0.203442
0.208491
0.21319
0.217544
0.22157
0.225295
0.228762
0.232028
0.23517
0.238285
0.241491
0.244929
0.248762
0.253172
0.258356
0.26452
0.271867
0.280585
0.290826
0.302676
0.316129
0.331059
0.34721
0.364241
0.381811
0.399723
0.418025
0.436945
0.456516
0.046604
0.0772476
0.0955607
0.108376
0.118745
0.127828
0.136151
0.143978
0.151448
0.158628
0.165544
0.172199
0.178579
0.184667
0.190441
0.19588
0.20097
0.205699
0.210065
0.214075
0.217746
0.221104
0.224197
0.227088
0.229859
0.232612
0.235472
0.238587
0.242127
0.24628
0.251248
0.257239
0.264459
0.273099
0.283307
0.295169
0.308669
0.323667
0.339891
0.356993
0.374672
0.392877
0.411979
0.43272
0.455691
0.0470806
0.0781421
0.0963507
0.109021
0.119232
0.128139
0.13627
0.143887
0.15113
0.158067
0.164725
0.171108
0.177206
0.182998
0.188466
0.193588
0.198349
0.202739
0.206755
0.210406
)
;

boundaryField
{
    leftWall
    {
        type            kqRWallFunction;
        value           nonuniform List<scalar> 
44
(
0.00370713
0.00534907
0.00616742
0.00724447
0.00827952
0.00914179
0.00984707
0.0104771
0.0110586
0.0116538
0.0123015
0.0130339
0.0138593
0.01477
0.0157343
0.0166945
0.0175711
0.0182827
0.0188002
0.0192626
0.0201675
0.0225054
0.0271107
0.0321291
0.0359289
0.0362079
0.0334688
0.0308348
0.0294655
0.0293147
0.0299318
0.0311128
0.0326846
0.034477
0.0363432
0.0381752
0.0399016
0.0414788
0.0428816
0.0440971
0.0451209
0.0459545
0.046604
0.0470806
)
;
    }
    rightWall
    {
        type            kqRWallFunction;
        value           nonuniform 0();
    }
    lowerWall
    {
        type            kqRWallFunction;
        value           nonuniform List<scalar> 
44
(
0.00370713
0.00657139
0.00987696
0.0126193
0.0148877
0.0167542
0.0183808
0.019901
0.0213929
0.0229108
0.02449
0.0261505
0.0278995
0.0297346
0.0316459
0.0336186
0.0356347
0.0376742
0.039716
0.0417386
0.0437201
0.0456386
0.0474715
0.0491961
0.0507888
0.0522255
0.0534813
0.0545306
0.0553469
0.0559019
0.0561611
0.0560714
0.0557164
0.05516
0.054313
0.0531305
0.0515959
0.0497203
0.0475531
0.0451905
0.042718
0.0398132
0.0368086
0.0333527
)
;
    }
    atmosphere
    {
        type            inletOutlet;
        inletValue      nonuniform 0();
        value           nonuniform 0();
    }
    defaultFaces
    {
        type            empty;
    }
    procBoundary0to1
    {
        type            processor;
        value           nonuniform List<scalar> 
44
(
0.0304428
0.0693317
0.111083
0.145721
0.176676
0.20519
0.232069
0.25936
0.289221
0.32277
0.346921
0.358384
0.365007
0.370108
0.374401
0.378198
0.38185
0.385738
0.390191
0.395439
0.395439
0.400861
0.407825
0.4154
0.423602
0.432858
0.443525
0.453906
0.458976
0.461523
0.462339
0.462314
0.462724
0.464293
0.466929
0.470028
0.472811
0.474618
0.475157
0.47468
0.473957
0.474049
0.475971
0.48029
)
;
    }
    procBoundary0to2
    {
        type            processor;
        value           nonuniform List<scalar> 
46
(
0.213705
0.216686
0.219401
0.221914
0.224312
0.226704
0.229219
0.232012
0.235255
0.23914
0.243873
0.249664
0.256723
0.26524
0.275372
0.287205
0.300729
0.315798
0.332138
0.349397
0.36731
0.385962
0.406055
0.428931
0.455914
0.0474013
0.0787908
0.0969215
0.109486
0.119572
0.128334
0.136295
0.14372
0.150748
0.157447
0.163849
0.169958
0.175766
0.181256
0.186407
0.191201
0.195623
0.199663
0.203321
0.213705
0.206603
)
;
    }
}


// ************************************************************************* //
