/*--------------------------------*- C++ -*----------------------------------*\
  =========                 |
  \\      /  F ield         | OpenFOAM: The Open Source CFD Toolbox
   \\    /   O peration     | Website:  https://openfoam.org
    \\  /    A nd           | Version:  7
     \\/     M anipulation  |
\*---------------------------------------------------------------------------*/
FoamFile
{
    version     2.0;
    format      ascii;
    class       volScalarField;
    location    "0.35";
    object      p_rgh;
}
// * * * * * * * * * * * * * * * * * * * * * * * * * * * * * * * * * * * * * //

dimensions      [1 -1 -2 0 0 0 0];

internalField   nonuniform List<scalar> 
1935
(
1133.65
1133.45
1137.26
1143.89
1151.22
1158.28
1164.71
1170.47
1175.69
1180.5
1185.01
1189.3
1193.44
1197.47
1201.42
1205.33
1209.22
1213.12
1217.07
1221.11
1225.28
1229.67
1234.36
1239.45
1245.09
1251.44
1258.73
1267.22
1277.28
1289.36
1304.04
1322.2
1344.58
1371.81
1404.41
1442.82
1486.88
1535.3
1585.36
1632.95
1673.47
1703.43
1717.24
1722.13
1132.16
1131.09
1134.13
1140.04
1146.4
1152.8
1158.85
1164.41
1169.53
1174.26
1178.68
1182.86
1186.84
1190.68
1194.41
1198.08
1201.71
1205.36
1209.07
1212.89
1216.88
1221.13
1225.73
1230.8
1236.5
1243.02
1250.58
1259.49
1270.1
1282.88
1298.36
1317.14
1340.15
1368.28
1402.27
1442.6
1489.28
1541.25
1595.76
1648.06
1691.91
1722.36
1729.4
1717.36
1130.02
1130.04
1132.77
1137.25
1142.43
1147.83
1153.1
1158.09
1162.75
1167.08
1171.12
1174.89
1178.45
1181.84
1185.11
1188.31
1191.48
1194.68
1197.97
1201.42
1205.09
1209.09
1213.52
1218.53
1224.29
1230.99
1238.9
1248.32
1259.63
1273.29
1289.84
1309.88
1334.19
1363.62
1398.88
1440.39
1488.08
1540.98
1596.61
1650.57
1696.61
1728.62
1741.09
1728.46
1127.67
1128.89
1131.52
1135.17
1139.42
1143.91
1148.37
1152.66
1156.7
1160.46
1163.95
1167.18
1170.2
1173.05
1175.77
1178.42
1181.06
1183.74
1186.55
1189.54
1192.83
1196.5
1200.69
1205.55
1211.26
1218.04
1226.16
1235.93
1247.74
1262.03
1279.34
1300.21
1325.31
1355.37
1391.03
1432.6
1479.9
1531.94
1586.53
1639.95
1687.05
1722.49
1742.05
1746.85
1124.85
1127.07
1129.75
1132.91
1136.5
1140.27
1144.02
1147.65
1151.08
1154.27
1157.2
1159.9
1162.39
1164.7
1166.89
1169.02
1171.14
1173.33
1175.65
1178.2
1181.07
1184.38
1188.27
1192.9
1198.46
1205.17
1213.31
1223.19
1235.2
1249.77
1267.38
1288.56
1313.85
1343.86
1379.12
1419.84
1465.79
1516.07
1568.85
1621.24
1669.33
1708.92
1736.79
1756.15
1121.45
1124.35
1127.15
1130.01
1133.09
1136.26
1139.42
1142.45
1145.32
1147.96
1150.38
1152.57
1154.56
1156.39
1158.09
1159.74
1161.39
1163.11
1164.98
1167.1
1169.57
1172.51
1176.06
1180.4
1185.71
1192.23
1200.24
1210.03
1221.99
1236.51
1254.05
1275.08
1300.05
1329.45
1363.71
1402.96
1446.94
1494.89
1545.38
1596.27
1644.73
1687.71
1723.14
1756.51
1117.48
1120.83
1123.73
1126.32
1128.97
1131.63
1134.24
1136.75
1139.08
1141.23
1143.15
1144.88
1146.41
1147.79
1149.05
1150.26
1151.47
1152.77
1154.22
1155.93
1158
1160.56
1163.76
1167.76
1172.76
1179
1186.73
1196.27
1207.97
1222.19
1239.36
1259.86
1284.09
1312.44
1345.21
1382.5
1424.04
1469.18
1516.79
1565.29
1612.73
1657.05
1697.5
1741.61
1112.97
1116.63
1119.52
1121.84
1124.08
1126.28
1128.39
1130.38
1132.23
1133.9
1135.37
1136.65
1137.76
1138.73
1139.59
1140.39
1141.2
1142.1
1143.16
1144.47
1146.16
1148.33
1151.15
1154.78
1159.42
1165.28
1172.64
1181.79
1193.05
1206.77
1223.31
1243.01
1266.19
1293.11
1324.03
1358.96
1397.64
1439.47
1483.52
1528.51
1572.98
1615.53
1656.31
1704.22
1107.94
1111.79
1114.59
1116.62
1118.45
1120.18
1121.81
1123.32
1124.69
1125.91
1126.95
1127.82
1128.53
1129.11
1129.59
1130.02
1130.46
1130.97
1131.65
1132.59
1133.89
1135.67
1138.09
1141.31
1145.52
1150.95
1157.84
1166.48
1177.17
1190.23
1205.96
1224.64
1246.52
1271.76
1300.53
1332.81
1368.28
1406.35
1446.11
1486.36
1525.64
1562.49
1596.75
1636.51
1102.41
1106.36
1109
1110.71
1112.13
1113.39
1114.53
1115.56
1116.47
1117.25
1117.87
1118.34
1118.68
1118.89
1119.01
1119.08
1119.16
1119.31
1119.62
1120.18
1121.09
1122.47
1124.46
1127.24
1130.98
1135.89
1142.23
1150.27
1160.28
1172.56
1187.35
1204.87
1225.29
1248.68
1275.11
1304.52
1336.52
1370.46
1405.34
1439.72
1471.69
1498.78
1518.67
1534
1096.39
1100.38
1102.8
1104.15
1105.13
1105.91
1106.55
1107.09
1107.54
1107.87
1108.08
1108.16
1108.12
1107.97
1107.73
1107.45
1107.18
1106.98
1106.92
1107.09
1107.59
1108.55
1110.09
1112.37
1115.59
1119.93
1125.64
1132.98
1142.23
1153.63
1167.4
1183.66
1202.51
1223.93
1247.9
1274.29
1302.65
1332.22
1361.81
1389.61
1412.9
1427.53
1427.32
1402.91
1089.9
1093.87
1096.04
1097.01
1097.51
1097.77
1097.89
1097.92
1097.89
1097.77
1097.55
1097.23
1096.81
1096.29
1095.7
1095.07
1094.44
1093.87
1093.43
1093.2
1093.28
1093.78
1094.84
1096.59
1099.22
1102.92
1107.93
1114.5
1122.91
1133.38
1146.06
1161.03
1178.26
1197.66
1219.12
1242.43
1267.1
1292.27
1316.56
1337.83
1352.75
1356.04
1339.21
1286.42
1083.07
1086.99
1088.87
1089.41
1089.4
1089.1
1088.67
1088.17
1087.62
1087.02
1086.36
1085.62
1084.81
1083.91
1082.96
1081.96
1080.96
1080.01
1079.17
1078.53
1078.16
1078.18
1078.72
1079.9
1081.89
1084.88
1089.1
1094.83
1102.36
1111.87
1123.48
1137.17
1152.82
1170.24
1189.22
1209.52
1230.64
1251.65
1271.09
1286.68
1294.97
1290.76
1266.48
1210.79
1076.03
1079.85
1081.43
1081.5
1080.92
1080.02
1078.98
1077.9
1076.8
1075.68
1074.54
1073.36
1072.13
1070.84
1069.49
1068.11
1066.72
1065.38
1064.13
1063.04
1062.2
1061.71
1061.69
1062.25
1063.56
1065.77
1069.12
1073.93
1080.53
1089.12
1099.72
1112.23
1126.4
1141.94
1158.57
1176.01
1193.83
1211.12
1226.43
1237.56
1241.3
1233.15
1207.4
1157.44
1068.94
1072.65
1073.88
1073.43
1072.21
1070.64
1068.93
1067.19
1065.48
1063.8
1062.14
1060.47
1058.79
1057.07
1055.32
1053.53
1051.73
1049.96
1048.27
1046.73
1045.39
1044.36
1043.74
1043.66
1044.24
1045.6
1047.98
1051.77
1057.42
1065.13
1074.86
1086.38
1099.25
1113.07
1127.51
1142.32
1157.17
1171.29
1183.33
1191.29
1192.35
1182.78
1158.18
1114.25
1062.02
1065.6
1066.46
1065.42
1063.45
1061.1
1058.61
1056.15
1053.76
1051.45
1049.21
1047.02
1044.85
1042.69
1040.49
1038.27
1036.04
1033.83
1031.69
1029.66
1027.8
1026.21
1024.98
1024.23
1024.05
1024.48
1025.76
1028.4
1033.06
1039.98
1049.06
1059.86
1071.7
1084
1096.43
1108.84
1121.08
1132.59
1142.23
1148.27
1148.32
1139.29
1117.75
1080.77
1055.55
1058.99
1059.46
1057.71
1054.86
1051.57
1048.19
1044.89
1041.74
1038.74
1035.87
1033.1
1030.42
1027.77
1025.11
1022.43
1019.74
1017.06
1014.43
1011.89
1009.49
1007.28
1005.4
1003.96
1002.97
1002.36
1002.25
1003.42
1007.05
1013.38
1022.23
1032.87
1044.14
1055.2
1065.8
1076.01
1085.95
1095.39
1103.45
1108.66
1109.13
1102.25
1085.28
1056.26
1049.96
1053.19
1053.22
1050.6
1046.59
1042.11
1037.62
1033.31
1029.24
1025.42
1021.8
1018.36
1015.08
1011.87
1008.66
1005.42
1002.16
998.897
995.675
992.51
989.412
986.441
983.765
981.567
979.749
977.88
975.831
974.894
977.381
983.522
992.974
1004.59
1016.23
1026.6
1035.64
1043.88
1051.89
1059.84
1067.13
1072.49
1074.56
1071.04
1059.57
1038.77
1045.51
1048.32
1047.86
1043.96
1038.25
1032.08
1026.09
1020.45
1015.2
1010.31
1005.73
1001.41
997.378
993.48
989.569
985.608
981.617
977.627
973.694
969.809
965.945
962.176
958.791
956.161
954.009
951.233
947.157
943.835
945.139
951.102
961.437
974.731
987.442
997.371
1004.74
1010.88
1017.26
1024.55
1032.29
1039.05
1044.09
1045.05
1039.63
1026.93
1041.88
1044.6
1042.99
1036.63
1028.32
1020.2
1012.85
1006.23
1000.18
994.647
989.502
984.674
980.31
976.161
972
967.825
963.692
959.703
955.933
952.335
947.548
941.577
934.977
927.764
921.043
909.511
880.031
829.752
822.117
839.328
886.242
942.18
966.855
973.81
976.739
978.045
980.489
986.337
995.129
1004.66
1015.21
1022.82
1024.42
1019.96
1038.18
1018.53
1002.29
967.177
917.678
874.338
841.894
817.728
799.664
786.659
776.791
766.293
760.415
753.407
741.911
725.434
704.663
678.739
649.497
615.936
578.014
528.202
469.86
424.655
389.657
342.558
259.569
170.604
165.884
191.328
281.742
470.314
672.905
807.214
880.752
924.753
949.397
960.411
961.24
967.697
983.507
1000.26
1010.97
1016.23
1014.92
621.793
439.629
379.411
295.385
214.791
165.867
137.45
119.582
107.947
100.717
95.8691
90.4308
88.4054
85.0235
78.4729
69.295
58.3585
45.6707
32.7936
19.4767
3.3954
-1.59866
-1.57658
-1.57703
-1.57874
-1.60537
-1.68364
-1.7812
-1.83188
-1.85931
-1.87837
1.63648
46.9019
126.05
211.973
317.004
473.244
673.002
924.868
970.441
968.845
981.254
996.386
1012.08
1021.57
-0.0497874
-0.692547
-0.90287
-1.09268
-1.06047
-1.03683
-1.02932
-1.0338
-1.0637
-1.08691
-1.1258
-1.17299
-1.19235
-1.2047
-1.22774
-1.25948
-1.29594
-1.33346
-1.37041
-1.40607
-1.38715
-1.34805
-1.33667
-1.34952
-1.37552
-1.41138
-1.45736
-1.5077
-1.55516
-1.5925
-1.60382
-1.61366
-1.72974
-2.03383
-2.25162
-2.44543
-2.6761
20.4568
76.3921
213.571
733.724
1021.4
1008.52
1014.62
1027.94
-1.138
-1.02893
-1.01549
-1.02103
-0.994895
-0.969326
-0.951996
-0.941324
-0.936819
-0.938075
-0.946102
-0.964977
-0.98658
-1.00668
-1.02848
-1.05553
-1.08953
-1.13117
-1.18136
-1.24338
-1.31629
-1.37026
-1.39558
-1.42133
-1.45409
-1.49287
-1.53723
-1.58393
-1.63072
-1.67047
-1.69384
-1.71102
-1.76383
-1.86162
-1.93772
-1.98183
-1.98785
-2.22382
-2.99775
-3.43196
31.0934
141.228
536.137
1070.85
1062.93
-1.11114
-1.07783
-1.04152
-1.02866
-1.01197
-0.995189
-0.983254
-0.977105
-0.976719
-0.981861
-0.99332
-1.01424
-1.03791
-1.0611
-1.08654
-1.1171
-1.15378
-1.19652
-1.24488
-1.29855
-1.35583
-1.40417
-1.4401
-1.47482
-1.51162
-1.55243
-1.59731
-1.64378
-1.68784
-1.72736
-1.76265
-1.80099
-1.85839
-1.93581
-2.00987
-2.06657
-2.09012
-2.11448
-2.24242
-2.31706
-2.59964
-3.46897
7.76077
124.52
472.591
-1.09093
-1.07008
-1.04946
-1.03496
-1.02213
-1.01043
-1.00253
-0.999658
-1.0021
-1.00975
-1.02248
-1.04023
-1.06232
-1.08839
-1.11868
-1.15343
-1.19259
-1.23589
-1.28272
-1.33192
-1.3811
-1.42632
-1.46721
-1.50704
-1.54789
-1.59108
-1.63668
-1.68332
-1.72911
-1.77348
-1.81745
-1.86619
-1.92783
-2.00183
-2.07739
-2.14784
-2.20969
-2.27717
-2.3777
-2.4134
-2.41964
-2.58709
-2.80758
-3.18185
1.77646
-1.08066
-1.06887
-1.05437
-1.04077
-1.02948
-1.02034
-1.0148
-1.01385
-1.01782
-1.02671
-1.04042
-1.05872
-1.08137
-1.10836
-1.13971
-1.17535
-1.21503
-1.25836
-1.30472
-1.35313
-1.40186
-1.44888
-1.49368
-1.53767
-1.58205
-1.62773
-1.67473
-1.72252
-1.77044
-1.81848
-1.86783
-1.92157
-1.98365
-2.05377
-2.12683
-2.19997
-2.27432
-2.35857
-2.45887
-2.53542
-2.58956
-2.67302
-2.73006
-2.82585
-2.97318
-1.08562
-1.07365
-1.0607
-1.0483
-1.03845
-1.03134
-1.02781
-1.0286
-1.03402
-1.04414
-1.05889
-1.07815
-1.10176
-1.12964
-1.16176
-1.19796
-1.23799
-1.28146
-1.32778
-1.37612
-1.42533
-1.47414
-1.52201
-1.56941
-1.61693
-1.66508
-1.71398
-1.76357
-1.81375
-1.86484
-1.91781
-1.9746
-2.03718
-2.10528
-2.17686
-2.25067
-2.32755
-2.41156
-2.50462
-2.59421
-2.68424
-2.78928
-2.87267
-2.95389
-3.03324
-1.09386
-1.08129
-1.06909
-1.05798
-1.0497
-1.04451
-1.0429
-1.0454
-1.05228
-1.06366
-1.07953
-1.09979
-1.12435
-1.1531
-1.18596
-1.22276
-1.26324
-1.30701
-1.35354
-1.40211
-1.45189
-1.50201
-1.55202
-1.60192
-1.65192
-1.7023
-1.75321
-1.80477
-1.85721
-1.91093
-1.96675
-2.02587
-2.08939
-2.15729
-2.22869
-2.30304
-2.38076
-2.46352
-2.55192
-2.64209
-2.73706
-2.8436
-2.94939
-3.05824
-3.156
-1.10382
-1.09076
-1.07942
-1.06978
-1.06316
-1.05977
-1.05992
-1.064
-1.07226
-1.08483
-1.10173
-1.12293
-1.14833
-1.17785
-1.21137
-1.24873
-1.28967
-1.3338
-1.38065
-1.42961
-1.48
-1.53119
-1.58272
-1.63446
-1.68642
-1.73873
-1.79153
-1.84504
-1.89957
-1.95558
-2.01371
-2.07477
-2.13941
-2.20775
-2.27946
-2.35431
-2.43255
-2.51492
-2.60167
-2.69148
-2.78587
-2.88811
-2.99478
-3.1074
-3.22146
-1.11457
-1.10186
-1.09171
-1.08368
-1.07866
-1.07691
-1.07864
-1.08415
-1.09365
-1.10729
-1.1251
-1.1471
-1.17322
-1.20338
-1.23747
-1.27531
-1.31665
-1.36114
-1.40834
-1.45772
-1.5087
-1.56074
-1.61343
-1.66655
-1.72004
-1.77394
-1.8284
-1.88364
-1.93999
-1.99792
-2.05793
-2.12056
-2.18627
-2.25522
-2.32735
-2.4026
-2.48117
-2.56346
-2.64971
-2.73962
-2.834
-2.93426
-3.03934
-3.14957
-3.26344
-1.12593
-1.11445
-1.10584
-1.09942
-1.0959
-1.09561
-1.09873
-1.10549
-1.11609
-1.13066
-1.14927
-1.17194
-1.19864
-1.22932
-1.26386
-1.30209
-1.34378
-1.38858
-1.4361
-1.48585
-1.53733
-1.59004
-1.64357
-1.6977
-1.75234
-1.8075
-1.8633
-1.91996
-1.97782
-2.03727
-2.09873
-2.16261
-2.22923
-2.29876
-2.37129
-2.44688
-2.52571
-2.6081
-2.69432
-2.78453
-2.87928
-2.97923
-3.08391
-3.19302
-3.30556
-1.13797
-1.12839
-1.12145
-1.11657
-1.11441
-1.11539
-1.11971
-1.12755
-1.1391
-1.15448
-1.17376
-1.19699
-1.22416
-1.25524
-1.29012
-1.32865
-1.37059
-1.41563
-1.46339
-1.51342
-1.56527
-1.61844
-1.67257
-1.7274
-1.78284
-1.83891
-1.89573
-1.95349
-2.01248
-2.07307
-2.1356
-2.20038
-2.26767
-2.33768
-2.41055
-2.48645
-2.56559
-2.64827
-2.7348
-2.82549
-2.92079
-3.02108
-3.12606
-3.23521
-3.34768
-1.15076
-1.14341
-1.13807
-1.13457
-1.13363
-1.13571
-1.14104
-1.14981
-1.16217
-1.17822
-1.19807
-1.22176
-1.24931
-1.28069
-1.31582
-1.35455
-1.39665
-1.44183
-1.48972
-1.53991
-1.59196
-1.64541
-1.69989
-1.75516
-1.8111
-1.86777
-1.92525
-1.98375
-2.04352
-2.10486
-2.16808
-2.23344
-2.30118
-2.37154
-2.44471
-2.52093
-2.60046
-2.6836
-2.77069
-2.86208
-2.95817
-3.05923
-3.16503
-3.27498
-3.38827
-1.16419
-1.15912
-1.15514
-1.15287
-1.153
-1.15605
-1.16226
-1.17182
-1.18485
-1.20147
-1.22178
-1.24583
-1.27366
-1.30526
-1.34054
-1.37938
-1.42156
-1.46677
-1.51469
-1.56489
-1.61698
-1.67051
-1.72514
-1.78059
-1.83678
-1.89372
-1.95154
-2.01042
-2.07058
-2.13231
-2.19587
-2.26153
-2.32954
-2.40013
-2.47358
-2.55015
-2.63013
-2.71386
-2.80169
-2.89401
-2.99121
-3.09352
-3.20078
-3.31235
-3.42734
-1.17792
-1.17496
-1.1721
-1.1709
-1.17201
-1.17591
-1.1829
-1.19313
-1.20674
-1.22383
-1.24451
-1.26883
-1.29685
-1.32856
-1.36391
-1.40275
-1.4449
-1.49006
-1.53788
-1.58799
-1.63997
-1.69343
-1.74799
-1.80341
-1.85958
-1.91651
-1.97433
-2.03323
-2.09343
-2.1552
-2.21882
-2.28456
-2.35269
-2.42347
-2.49719
-2.57413
-2.65463
-2.73905
-2.82777
-2.92126
-3.01994
-3.12409
-3.23356
-3.34769
-3.46536
-1.19145
-1.19031
-1.18837
-1.18813
-1.19013
-1.19482
-1.2025
-1.21333
-1.22743
-1.24491
-1.26587
-1.29038
-1.3185
-1.35023
-1.38553
-1.42428
-1.46629
-1.51129
-1.55894
-1.60884
-1.6606
-1.71383
-1.76816
-1.82334
-1.87925
-1.9359
-1.99341
-2.05201
-2.11193
-2.17347
-2.23692
-2.3026
-2.37077
-2.44172
-2.51572
-2.59308
-2.67415
-2.75932
-2.8491
-2.94404
-3.04468
-3.15134
-3.26389
-3.38157
-3.50297
-1.20421
-1.20456
-1.20342
-1.20408
-1.2069
-1.21231
-1.22062
-1.23198
-1.2465
-1.2643
-1.28547
-1.31009
-1.33823
-1.36989
-1.40505
-1.44361
-1.4854
-1.53015
-1.57752
-1.62713
-1.67856
-1.73143
-1.78536
-1.84011
-1.89554
-1.95166
-2.00861
-2.06664
-2.12603
-2.18713
-2.25028
-2.31581
-2.384
-2.45514
-2.52947
-2.60728
-2.68895
-2.77499
-2.86604
-2.96281
-3.06598
-3.17593
-3.29247
-3.41472
-3.54093
-1.21566
-1.21721
-1.2168
-1.21831
-1.2219
-1.228
-1.23688
-1.24871
-1.2636
-1.28165
-1.30296
-1.32762
-1.3557
-1.38721
-1.42216
-1.46045
-1.50192
-1.54633
-1.59334
-1.64256
-1.69357
-1.74596
-1.79937
-1.85352
-1.90827
-1.96364
-2.0198
-2.07704
-2.13572
-2.19625
-2.25902
-2.3244
-2.39267
-2.46405
-2.53874
-2.61704
-2.69939
-2.78644
-2.87903
-2.9781
-3.08445
-3.19849
-3.32
-3.44787
-3.57999
-1.22531
-1.22783
-1.22815
-1.23048
-1.23482
-1.24156
-1.25098
-1.26323
-1.27841
-1.29664
-1.31803
-1.34265
-1.37059
-1.40189
-1.43655
-1.47449
-1.51558
-1.55957
-1.60615
-1.65491
-1.70542
-1.75725
-1.81001
-1.86342
-1.91732
-1.97175
-2.02692
-2.08319
-2.14102
-2.20091
-2.26332
-2.32861
-2.39703
-2.46873
-2.54385
-2.62267
-2.70577
-2.79399
-2.88846
-2.99033
-3.10054
-3.21951
-3.3469
-3.4814
-3.62047
-1.23278
-1.23607
-1.23717
-1.24031
-1.24538
-1.25275
-1.26266
-1.27527
-1.29069
-1.30903
-1.33041
-1.35492
-1.38265
-1.41366
-1.44795
-1.48548
-1.52611
-1.56964
-1.61573
-1.66398
-1.71396
-1.76517
-1.81721
-1.86975
-1.92266
-1.97598
-2.02998
-2.08513
-2.14201
-2.20123
-2.26332
-2.32865
-2.39735
-2.46947
-2.54506
-2.62443
-2.70829
-2.79781
-2.89445
-2.99963
-3.11439
-3.23908
-3.37319
-3.51513
-3.66199
-1.23784
-1.24171
-1.24365
-1.24759
-1.25339
-1.26136
-1.27173
-1.28465
-1.30024
-1.31863
-1.33992
-1.36423
-1.39166
-1.42228
-1.45613
-1.49318
-1.53331
-1.57631
-1.62188
-1.66961
-1.719
-1.76954
-1.82079
-1.8724
-1.92421
-1.9763
-2.02902
-2.08295
-2.13882
-2.19739
-2.25924
-2.3247
-2.3938
-2.46642
-2.54252
-2.62241
-2.70705
-2.79796
-2.897
-3.00588
-3.12571
-3.25669
-3.39805
-3.54795
-3.70316
-1.24044
-1.24464
-1.24747
-1.25221
-1.25872
-1.26728
-1.27808
-1.29126
-1.30697
-1.32533
-1.34647
-1.3705
-1.39755
-1.42771
-1.46103
-1.49751
-1.53706
-1.57948
-1.62447
-1.67157
-1.72021
-1.76993
-1.82027
-1.87088
-1.92158
-1.97248
-2.02399
-2.07682
-2.13181
-2.1898
-2.25142
-2.31696
-2.38637
-2.4594
-2.53596
-2.61645
-2.70202
-2.79453
-2.89616
-3.00883
-3.13373
-3.27097
-3.41963
-3.57763
-3.74175
-1.24057
-1.24484
-1.2486
-1.25414
-1.26137
-1.2705
-1.2817
-1.29512
-1.31092
-1.32923
-1.35017
-1.37388
-1.4005
-1.43012
-1.46284
-1.49866
-1.53751
-1.5792
-1.62339
-1.66959
)
;

boundaryField
{
    leftWall
    {
        type            fixedFluxPressure;
        gradient        uniform 0;
        value           nonuniform List<scalar> 
44
(
1133.65
1132.16
1130.02
1127.67
1124.85
1121.45
1117.48
1112.97
1107.94
1102.41
1096.39
1089.9
1083.07
1076.03
1068.94
1062.02
1055.55
1049.96
1045.51
1041.88
1038.18
621.793
-0.0497874
-1.138
-1.11114
-1.09093
-1.08066
-1.08562
-1.09386
-1.10382
-1.11457
-1.12593
-1.13797
-1.15076
-1.16419
-1.17792
-1.19145
-1.20421
-1.21566
-1.22531
-1.23278
-1.23784
-1.24044
-1.24057
)
;
    }
    rightWall
    {
        type            fixedFluxPressure;
        gradient        nonuniform 0();
        value           nonuniform 0();
    }
    lowerWall
    {
        type            fixedFluxPressure;
        gradient        uniform 0;
        value           nonuniform List<scalar> 
44
(
1133.65
1133.45
1137.26
1143.89
1151.22
1158.28
1164.71
1170.47
1175.69
1180.5
1185.01
1189.3
1193.44
1197.47
1201.42
1205.33
1209.22
1213.12
1217.07
1221.11
1225.28
1229.67
1234.36
1239.45
1245.09
1251.44
1258.73
1267.22
1277.28
1289.36
1304.04
1322.2
1344.58
1371.81
1404.41
1442.82
1486.88
1535.3
1585.36
1632.95
1673.47
1703.43
1717.24
1722.13
)
;
    }
    atmosphere
    {
        type            totalPressure;
        rho             rho;
        psi             none;
        gamma           1;
        p0              nonuniform 0();
        value           nonuniform 0();
    }
    defaultFaces
    {
        type            empty;
    }
    procBoundary0to1
    {
        type            processor;
        value           nonuniform List<scalar> 
44
(
1744.68
1721.9
1724.69
1754.11
1786.89
1812.93
1819.5
1796.28
1728.45
1593.25
1356.38
1180.49
1113.33
1077.27
1047.02
1026.48
1014.63
1008.49
1006.81
1009.17
1009.17
1008.42
1025.16
1041.02
1064.07
1108.45
132.064
-2.91938
-3.0674
-3.23468
-3.33324
-3.38043
-3.42102
-3.46262
-3.50387
-3.54449
-3.58499
-3.62602
-3.66844
-3.71305
-3.76015
-3.80913
-3.85857
-3.90624
)
;
    }
    procBoundary0to2
    {
        type            processor;
        value           nonuniform List<scalar> 
46
(
-1.71728
-1.76595
-1.81519
-1.8647
-1.91433
-1.96421
-2.01481
-2.06687
-2.12126
-2.17882
-2.24018
-2.30559
-2.37497
-2.44811
-2.52499
-2.60616
-2.69294
-2.78733
-2.89162
-3.00781
-3.13718
-3.28
-3.43548
-3.60174
-3.77517
-1.23815
-1.24234
-1.24706
-1.25344
-1.26139
-1.27106
-1.28264
-1.29629
-1.31217
-1.33041
-1.35116
-1.37455
-1.40072
-1.42979
-1.46183
-1.49689
-1.53487
-1.5756
-1.61873
-1.71728
-1.66378
)
;
    }
}


// ************************************************************************* //
