/*--------------------------------*- C++ -*----------------------------------*\
  =========                 |
  \\      /  F ield         | OpenFOAM: The Open Source CFD Toolbox
   \\    /   O peration     | Website:  https://openfoam.org
    \\  /    A nd           | Version:  7
     \\/     M anipulation  |
\*---------------------------------------------------------------------------*/
FoamFile
{
    version     2.0;
    format      ascii;
    class       volScalarField;
    location    "0.0025";
    object      dsmcRhoN;
}
// * * * * * * * * * * * * * * * * * * * * * * * * * * * * * * * * * * * * * //

dimensions      [0 -3 0 0 0 0 0];

internalField   nonuniform List<scalar> 
250
(
1391
1404
1309
1355
1349
1394
1387
1354
1311
1390
1391
1392
1354
1380
1326
1327
1381
1358
1345
1389
1361
1402
1388
1319
1343
1317
1331
1327
1368
1338
1370
1318
1374
1379
1341
1307
1350
1318
1428
1423
1320
1427
1378
1333
1334
1355
1338
1409
1414
1446
1326
1427
1374
1325
1318
1401
1322
1304
1379
1332
1427
1273
1312
1355
1324
1369
1390
1366
1373
1348
1347
1385
1325
1313
1323
1381
1336
1391
1302
1314
1333
1345
1346
1428
1360
1357
1344
1343
1306
1307
1325
1332
1347
1350
1270
1322
1314
1293
1338
1344
1341
1343
1328
1282
1367
1299
1325
1376
1380
1303
1329
1314
1366
1303
1300
1317
1345
1331
1283
1247
1335
1293
1224
1273
1341
1295
1333
1321
1229
1201
1271
1294
1291
1221
1257
1346
1291
1312
1281
1297
1276
1311
1287
1358
1272
1218
1196
1321
1272
1282
1243
1293
1254
1286
1335
1227
1251
1290
1363
1281
1247
1301
1261
1258
1255
1232
1264
1235
1240
1233
1250
1218
1236
1251
1254
1203
1265
1239
1294
1208
1255
1217
1263
1259
1266
1236
1238
1220
1228
1214
1217
1204
1204
1230
1246
1245
1233
1209
1300
1168
1207
1155
1237
1232
1235
1210
1206
1214
1166
1228
1184
1212
1154
1166
1126
1194
1145
1157
1163
1170
1198
1127
1152
1252
1196
1235
1192
1185
1140
1198
1123
1169
1185
1151
1151
1162
1212
1136
1121
1112
1187
1135
1137
1153
1080
1189
1151
1112
1119
1101
)
;

boundaryField
{
    sides
    {
        type            symmetry;
    }
    empty
    {
        type            empty;
    }
    procBoundary0to1
    {
        type            processor;
        value           uniform 1174;
    }
}


// ************************************************************************* //
