/*--------------------------------*- C++ -*----------------------------------*\
  =========                 |
  \\      /  F ield         | OpenFOAM: The Open Source CFD Toolbox
   \\    /   O peration     | Website:  https://openfoam.org
    \\  /    A nd           | Version:  7
     \\/     M anipulation  |
\*---------------------------------------------------------------------------*/
FoamFile
{
    version     2.0;
    format      ascii;
    class       volScalarField;
    location    "0.0025";
    object      internalE;
}
// * * * * * * * * * * * * * * * * * * * * * * * * * * * * * * * * * * * * * //

dimensions      [1 -1 -2 0 0 0 0];

internalField   nonuniform List<scalar> 
250
(
0.324715
0.316641
0.301465
0.31132
0.294856
0.312651
0.308541
0.309415
0.289202
0.324656
0.319819
0.32397
0.316704
0.314271
0.309832
0.308253
0.32046
0.324326
0.317544
0.318291
0.321796
0.324166
0.328664
0.281754
0.313646
0.300404
0.308328
0.302655
0.31662
0.302068
0.316215
0.30804
0.326839
0.324655
0.313513
0.295779
0.312779
0.299676
0.323701
0.31958
0.310761
0.324342
0.311311
0.318287
0.296384
0.313288
0.310872
0.311224
0.335137
0.336973
0.302776
0.320626
0.305021
0.298195
0.306532
0.330447
0.304841
0.29696
0.312072
0.297402
0.35371
0.288711
0.306007
0.332628
0.302675
0.317931
0.322093
0.314058
0.301731
0.299429
0.316216
0.316813
0.299336
0.297555
0.294014
0.320043
0.29653
0.326044
0.305283
0.295838
0.311818
0.310716
0.308992
0.328574
0.309542
0.31656
0.303302
0.320976
0.299138
0.292201
0.290819
0.31007
0.314758
0.295958
0.305102
0.301521
0.29043
0.287614
0.303617
0.301091
0.291534
0.290059
0.302286
0.29711
0.317148
0.29781
0.29681
0.309507
0.311006
0.294458
0.301181
0.297477
0.308788
0.292199
0.303237
0.309857
0.298853
0.312518
0.30089
0.27621
0.309595
0.302758
0.286077
0.294482
0.295487
0.284716
0.29403
0.305014
0.274969
0.259545
0.308931
0.287037
0.290918
0.27379
0.280245
0.303142
0.2772
0.304465
0.282776
0.284434
0.295209
0.294568
0.290403
0.293417
0.28821
0.284701
0.275957
0.298987
0.282017
0.291075
0.280811
0.291566
0.273834
0.301099
0.308316
0.27148
0.279685
0.278623
0.301551
0.28037
0.29304
0.289007
0.279289
0.285067
0.277267
0.283557
0.281896
0.263677
0.272227
0.280062
0.286533
0.279714
0.265
0.272855
0.264749
0.276119
0.275924
0.28318
0.30952
0.264525
0.28123
0.264966
0.270154
0.274363
0.277726
0.267761
0.269199
0.275838
0.260977
0.289457
0.287492
0.27631
0.257417
0.281317
0.281483
0.279356
0.269503
0.265736
0.288958
0.267183
0.273085
0.268783
0.268829
0.275797
0.274304
0.250945
0.26407
0.268638
0.252644
0.26176
0.269831
0.259219
0.261541
0.261872
0.235815
0.257837
0.257293
0.260302
0.244791
0.247833
0.262498
0.255108
0.261888
0.269893
0.25215
0.269872
0.260982
0.260431
0.239969
0.258564
0.244857
0.256445
0.272426
0.250252
0.253065
0.238158
0.265172
0.246563
0.23604
0.246386
0.265994
0.24677
0.245285
0.25308
0.233068
0.249521
0.246599
0.241896
0.241945
0.241321
)
;

boundaryField
{
    sides
    {
        type            symmetry;
    }
    empty
    {
        type            empty;
    }
    procBoundary0to1
    {
        type            processor;
        value           uniform 0.245458;
    }
}


// ************************************************************************* //
