/*--------------------------------*- C++ -*----------------------------------*\
  =========                 |
  \\      /  F ield         | OpenFOAM: The Open Source CFD Toolbox
   \\    /   O peration     | Website:  https://openfoam.org
    \\  /    A nd           | Version:  7
     \\/     M anipulation  |
\*---------------------------------------------------------------------------*/
FoamFile
{
    version     2.0;
    format      ascii;
    class       volScalarField;
    location    "0.3";
    object      nut;
}
// * * * * * * * * * * * * * * * * * * * * * * * * * * * * * * * * * * * * * //

dimensions      [0 2 -1 0 0 0 0];

internalField   nonuniform List<scalar> 
1915
(
9.53622e-05
9.13583e-05
0.000504428
0.00015674
0.000917251
0.00018712
0.00124106
0.000214944
0.00152854
0.000239685
0.00178996
0.000260494
0.00203146
0.000278839
0.00225941
0.000297669
0.00248354
0.000318832
0.00273422
0.000344022
0.000183949
0.000280139
6.78239e-05
6.92019e-05
0.000303452
7.03992e-05
7.24077e-05
7.39116e-05
7.5084e-05
7.56631e-05
7.5765e-05
7.54853e-05
7.49026e-05
7.4086e-05
7.30998e-05
7.20126e-05
7.09343e-05
7.01045e-05
6.95853e-05
6.91851e-05
6.92356e-05
6.89013e-05
6.8628e-05
6.95276e-05
0.000301592
0.000305958
6.78599e-05
6.84954e-05
6.83244e-05
0.000295997
0.000295876
0.000295356
0.000296681
0.000298239
0.00029308
0.000291158
0.000283148
0.00024951
0.000192322
0.00018206
7.85559e-05
0.000395235
0.000441056
0.000487302
0.000551841
0.000587378
0.000634495
0.000671646
0.000696666
0.000715461
0.000728854
0.00073714
0.000740608
0.000739643
0.000734745
0.000726439
0.000714812
0.000698847
0.000682977
0.000668046
0.000657972
0.000643963
0.000629397
0.000622211
0.000629009
0.000629907
0.000590255
0.000576656
0.000570654
0.000573943
0.000566463
0.000556381
0.00055393
0.000557516
0.00053798
0.000536039
0.000523556
0.000449285
0.000326028
0.0002939
9.14236e-05
0.000555007
0.000779859
0.000924796
0.00104763
0.00115458
0.00125022
0.00133036
0.00139418
0.00144607
0.00148652
0.00151521
0.001532
0.00153714
0.00153146
0.00151625
0.00149296
0.00146315
0.00143126
0.0013981
0.00136608
0.00133287
0.00130019
0.00127069
0.00124287
0.0012171
0.00118847
0.00116052
0.00113471
0.00110383
0.00107029
0.00103444
0.000994554
0.000951258
0.000898033
0.00083695
0.000754864
0.00061754
0.000402012
6.90198e-05
0.000104021
0.00070061
0.00105035
0.00127278
0.00144703
0.00159557
0.00172667
0.00184248
0.00194348
0.00203198
0.00210681
0.00216585
0.00220737
0.00223049
0.00223554
0.0022239
0.00219792
0.00216057
0.00211591
0.00206656
0.00201528
0.00196348
0.00191254
0.00186362
0.00181685
0.00177193
0.00172742
0.00168192
0.00163509
0.0015834
0.00152658
0.00146403
0.00139348
0.00131333
0.00121955
0.00110673
0.000962107
0.000760307
0.000467179
6.93267e-05
0.000117039
0.000826838
0.00126588
0.00153963
0.00174468
0.00191625
0.00206953
0.00221103
0.00234319
0.00246698
0.00257918
0.00267523
0.00275091
0.00280324
0.002831
0.00283482
0.00281697
0.00278098
0.0027313
0.00267213
0.00260747
0.00254045
0.00247322
0.00240731
0.00234338
0.0022809
0.00221868
0.00215504
0.00208845
0.00201631
0.00193719
0.00184928
0.00174999
0.00163637
0.00150369
0.00134456
0.00114582
0.000884786
0.000525702
7.3629e-05
0.000131881
0.000940471
0.00144249
0.00174759
0.00196705
0.00214728
0.00231026
0.00246661
0.00262163
0.00277569
0.00292391
0.00305932
0.00317482
0.00326461
0.00332505
0.003355
0.00335578
0.00333074
0.00328466
0.00322289
0.00315067
0.00307252
0.00299175
0.00291084
0.00283095
0.0027518
0.00267229
0.00259072
0.00250505
0.00241268
0.0023116
0.00219916
0.00207222
0.00192689
0.00175762
0.00155605
0.00130875
0.000993837
0.000576214
7.73687e-05
0.000150017
0.00105036
0.00159711
0.00191961
0.00214145
0.00231921
0.00248112
0.00264203
0.00281052
0.00298707
0.00316612
0.00333891
0.00349566
0.00362745
0.00372751
0.0037921
0.00382068
0.00381562
0.00378155
0.00372441
0.00365051
0.00356569
0.00347456
0.00338083
0.00328637
0.00319145
0.00309523
0.00299606
0.00289168
0.00277936
0.00265658
0.00252014
0.00236633
0.00219056
0.00198663
0.00174557
0.00145373
0.00108962
0.00061951
8.04319e-05
0.000172722
0.00116397
0.0017411
0.00207072
0.00228648
0.00245411
0.00260697
0.00276452
0.00293768
0.0031279
0.00333008
0.00353484
0.00373043
0.00390498
0.00404833
0.00415344
0.00421711
0.0042399
0.00422555
0.00418003
0.00411037
0.00402353
0.00392555
0.00382144
0.00371403
0.00360436
0.00349206
0.00337565
0.00325287
0.00312084
0.00297662
0.0028166
0.00263659
0.00243147
0.00219452
0.00191636
0.00158326
0.00117406
0.000656778
8.29787e-05
0.00020077
0.00128491
0.00187639
0.00220354
0.002408
0.0025619
0.00270219
0.0028521
0.00302364
0.00321969
0.00343677
0.00366614
0.00389532
0.00411018
0.00429733
0.00444613
0.00455003
0.004607
0.00461912
0.00459173
0.00453207
0.00444799
0.00434693
0.00423512
0.00411658
0.00399335
0.00386569
0.0037325
0.00359163
0.00344014
0.00327476
0.00309158
0.00288603
0.00265256
0.00238407
0.00207095
0.00169943
0.00124883
0.000689065
8.51282e-05
0.000235875
0.00141903
0.00199373
0.00230693
0.00249864
0.00263992
0.0027695
0.00291241
0.00308021
0.00327728
0.00350241
0.00374889
0.00400492
0.00425535
0.00448417
0.00467725
0.00482433
0.00492011
0.00496429
0.00496084
0.00491666
0.00484011
0.00473982
0.0046232
0.0044956
0.00436016
0.00421802
0.0040686
0.00391
0.00373937
0.00355318
0.00334731
0.00311688
0.00285606
0.00255746
0.00221134
0.00180402
0.00131536
0.000717235
8.69669e-05
0.00319811
0.000739854
0.0037529
0.00141455
0.00439338
0.00225996
0.00509757
0.0031701
0.00582531
0.00408353
0.0065402
0.0049598
0.00721751
0.00577799
0.00784315
0.00652995
0.00840978
0.00721292
0.00891325
0.00782567
0.00836686
0.00883554
0.00923203
0.00955983
0.00982547
0.0100343
0.0101826
0.0102451
0.0102346
0.0101344
0.00992992
0.00961791
0.00920411
0.00870541
0.00815059
0.00757897
0.00703539
0.00656099
0.00619012
0.0059337
0.00577738
0.00569722
0.00565695
0.000248876
0.000230491
0.0002562
0.000237143
0.00059848
0.00052073
0.000913089
0.00102265
0.0011366
0.000765533
0.000837917
0.00116073
0.00185726
0.001165
0.000915622
0.00108271
0.0026905
0.00173506
0.00117893
0.00111234
0.0035609
0.0024356
0.00162247
0.00129424
0.00441598
0.00320578
0.00221148
0.00162927
0.00522797
0.00399349
0.00289156
0.00209837
0.00598345
0.00476368
0.00361037
0.00266543
0.00667542
0.00549459
0.00432883
0.00328807
0.00729934
0.00617255
0.00502085
0.00392868
0.00785187
0.00678858
0.00566935
0.0045588
0.00833125
0.0073371
0.00626334
0.00515869
0.00873833
0.00781575
0.00679637
0.0057155
0.00907656
0.00822439
0.00726485
0.00622097
0.00934929
0.00856312
0.0076656
0.00666843
0.00955803
0.00883002
0.00799433
0.00705065
0.00968094
0.00902072
0.00824645
0.00736048
0.00971787
0.00911827
0.00841512
0.00759195
0.00967088
0.00912576
0.008489
0.00773677
0.00952184
0.0090411
0.00847126
0.007787
0.00926687
0.00885471
0.00835527
0.00774609
0.00891312
0.00857377
0.00815221
0.00762213
0.00847959
0.00821831
0.0078795
0.0074264
0.00799672
0.00781798
0.00756246
0.00718037
0.00750386
0.0074089
0.00723118
0.00690563
0.00704203
0.007026
0.0069113
0.00662361
0.00664561
0.00669621
0.00661706
0.00634981
0.00634091
0.00644046
0.00636564
0.00609726
0.00613835
0.00627044
0.00617931
0.0058947
0.00602375
0.00618192
0.00608386
0.00577142
0.00596798
0.0061718
0.00608963
0.0057441
0.0059429
0.00622022
0.00620025
0.00582619
0.000625046
0.00159288
0.00206848
0.00235539
0.00253979
0.0026753
0.00280264
0.00294461
0.00311163
0.00330909
0.00353844
0.00379604
0.00407231
0.00435255
0.00461929
0.0048554
0.00504687
0.00518471
0.00526554
0.00529126
0.00526777
0.00520351
0.00510793
0.00498958
0.00485513
0.00470899
0.0045533
0.0043882
0.00421221
0.00402264
0.00381588
0.00358763
0.00333284
0.00304543
0.00271787
0.00234034
0.00189935
0.00137535
0.000742201
8.85732e-05
0.0011544
0.00163303
0.00201886
0.00230356
0.00250288
0.00264905
0.00278806
0.00294013
0.00311418
0.00331603
0.00354958
0.0038149
0.00410597
0.00441019
0.00471007
0.00498646
0.00522195
0.00540367
0.00552468
0.00558411
0.00558609
0.00553882
0.00545206
0.00533527
0.00519642
0.00504126
0.00487309
0.00469295
0.00449994
0.00429169
0.00406458
0.00381428
0.00353561
0.00322235
0.00286689
0.00245944
0.00198672
0.0014298
0.00076451
8.99923e-05
0.00138673
0.00155693
0.00186002
0.00214336
0.0023753
0.00255099
0.00271585
0.00289013
0.00308155
0.00329532
0.00353679
0.00380954
0.00411191
0.00443489
0.00476261
0.00507519
0.00535262
0.00557836
0.00574162
0.00583794
0.00586967
0.0058439
0.00577009
0.00565833
0.00551775
0.0053555
0.00517617
0.00498187
0.00477243
0.00454594
0.0042989
0.00402705
0.00372518
0.003387
0.00300487
0.00256907
0.00206661
0.00147918
0.000784462
9.12528e-05
0.00139802
0.00157513
0.00179178
0.00199384
0.00220859
0.00240458
0.00259277
0.00279264
0.00300873
0.0032426
0.00349818
0.00378102
0.00409369
0.0044317
0.00478235
0.00512654
0.00544276
0.00571134
0.00591712
0.00605289
0.00611832
0.00611832
0.00606152
0.0059583
0.00581883
0.0056516
0.00546262
0.00525519
0.00503005
0.00478586
0.00451942
0.00422663
0.00390231
0.00354019
0.00313264
0.00267008
0.0021398
0.00152409
0.000802384
9.23817e-05
0.00132152
0.00159825
0.0018167
0.00198845
0.0021247
0.00228183
0.00245533
0.00266135
0.00289743
0.00315509
0.00343085
0.0037283
0.0040525
0.00440364
0.00477328
0.00514457
0.00549579
0.00580395
0.00605223
0.00622977
0.00633227
0.00636192
0.00632604
0.00623488
0.00609941
0.00592946
0.00573248
0.0055131
0.00527313
0.0050119
0.00472669
0.00441364
0.00406769
0.00368265
0.00325098
0.00276322
0.00220695
0.00156504
0.000818545
9.34008e-05
0.00131652
0.00153348
0.00182077
0.00205593
0.00217863
0.00226441
0.00236707
0.00253157
0.0027616
0.00303537
0.00333316
0.00364952
0.00398791
0.00435198
0.00473792
0.00513225
0.00551261
0.00585812
0.00614905
0.00636992
0.00651222
0.00657496
0.00656362
0.00648793
0.0063594
0.00618905
0.00598583
0.00575581
0.00550204
0.00522447
0.00492118
0.00458864
0.00422196
0.00381508
0.00336056
0.00284914
0.00226864
0.00160247
0.000833173
9.43275e-05
0.00142946
0.00150836
0.00174757
0.00204623
0.00227671
0.00235393
0.00237968
0.00245273
0.00263019
0.00289496
0.0032073
0.00354361
0.00389872
0.00427668
0.00467741
0.00508865
0.00549559
0.0058771
0.0062102
0.00647523
0.00665938
0.00675812
0.00677459
0.00671757
0.00659883
0.00643043
0.00622281
0.00598352
0.00571695
0.00542395
0.00510338
0.00475217
0.00436571
0.00393809
0.00346203
0.00292843
0.00232539
0.00163676
0.000846459
9.5176e-05
0.00166417
0.0015735
0.00170432
0.00197354
0.00228009
0.00247882
0.0024889
0.00246172
0.00254158
0.00275603
0.00306167
0.00341207
0.00378411
0.00417717
0.00458815
0.00501613
0.00544871
0.00586463
0.00623886
0.00654816
0.0067755
0.00691253
0.00695963
0.00692422
0.00681797
0.00665383
0.00644363
0.00619651
0.00591822
0.00561072
0.00527374
0.00490475
0.00449948
0.00405225
0.00355593
0.00300162
0.00237763
0.00166824
0.00085856
9.59582e-05
0.00201149
0.00173432
0.00173167
0.00192012
0.00222219
0.00251259
0.00263422
0.00257123
0.002529
0.0026486
0.00291214
0.0032605
0.00364491
0.00404833
0.0044732
0.0049192
0.00537638
0.00582484
0.00623866
0.00659165
0.00686281
0.00703977
0.00711983
0.0071086
0.00701731
0.00685961
0.00664865
0.00639516
0.00610622
0.00578519
0.00543271
0.00504687
0.0046238
0.00415808
0.00364279
0.00306917
0.00242576
0.00169717
0.000869605
9.66839e-05
0.00245117
0.00198449
0.00183249
0.00191303
0.00215696
0.00247117
0.0027083
0.00273399
0.00261572
0.00260156
0.00278068
0.00309817
0.00348225
0.00389823
0.0043388
0.00480299
0.00528341
0.00576225
0.00621362
0.00660911
0.006924
0.00714188
0.00725663
0.00727171
0.00719758
0.0070483
0.00683829
0.00657986
0.00628135
0.00594777
0.00558072
0.00517898
0.00473915
0.00425607
0.00372305
0.00313148
0.0024701
0.00172378
0.000879698
9.73612e-05
0.00295512
0.00231127
0.0020023
0.00196171
0.00212124
0.00240801
0.00270779
0.0028571
0.00277251
0.00264768
0.00270339
0.00295252
0.00331757
0.00373855
0.00419232
0.00467324
0.00517492
0.00568164
0.0061681
0.0066043
0.00696218
0.00722129
0.00737187
0.00741488
0.00735971
0.00722061
0.00701308
0.00675089
0.00644398
0.00609885
0.00571819
0.00530153
0.00484595
0.00434665
0.00379712
0.00318893
0.00251094
0.00174826
0.000888927
9.79967e-05
0.00349355
0.00269705
0.00223283
0.0020643
0.00212855
0.00235997
0.00267033
0.00291221
0.00292622
0.00276552
0.00270239
0.00285285
0.00317138
0.00358212
0.00404215
0.00453625
0.00505635
0.005588
0.0061067
0.00658132
0.0069808
0.00728077
0.00746769
0.00753972
0.00750489
0.0073774
0.00717374
0.00690883
0.00659456
0.00623886
0.00584553
0.00541491
0.00494462
0.00443021
0.00386536
0.00324181
0.00254853
0.00177077
0.000897357
9.85958e-05
0.00403988
0.0031215
0.00251253
0.00221441
0.00217797
0.00233996
0.00262712
0.00291925
0.00303679
0.00291382
0.00276809
0.00281193
0.00306009
0.00344172
0.00389731
0.0043988
0.00493339
0.0054865
0.00603418
0.00654445
0.00698358
0.00732341
0.00754651
0.00764807
0.00763446
0.00751963
0.00732078
0.00705419
0.00673353
0.00636817
0.0059631
0.00551949
0.00503552
0.00450708
0.00392808
0.00329039
0.00258305
0.00179144
0.000905042
9.91627e-05
0.0045733
0.00356444
0.00282775
0.00240363
0.0022645
0.00235159
0.00259747
0.00290426
0.00310225
0.00305203
0.00287433
0.00282652
0.00299271
0.00332813
0.00376671
0.00426789
0.0048119
0.00538238
0.00595538
0.00649812
0.00697444
0.0073525
0.007611
0.007742
0.00774998
0.00764847
0.007455
0.00718756
0.00686134
0.00648718
0.00607126
0.0056156
0.00511896
0.00457757
0.00398555
0.00333488
0.00261468
0.00181037
0.000912024
9.97003e-05
0.00507866
0.00400798
0.00316412
0.00262216
0.00238148
0.00239223
0.0025884
0.00288626
0.00313696
0.00316213
0.00299525
0.00288284
0.00296961
0.00324808
0.0036579
0.00415015
0.00469761
0.00528083
0.00587514
0.00644681
0.00695739
0.00737151
0.00766402
0.00782371
0.00785309
0.00776488
0.00757726
0.00730953
0.00697844
0.00659626
0.00617033
0.00570354
0.00519521
0.00464192
0.00403798
0.00337547
0.00264353
0.00182763
0.00091833
0.000100211
0.00554432
0.0044369
0.00350745
0.00285932
0.00252132
0.00245684
0.00260065
0.00287626
0.00315547
0.0032448
0.00311208
0.00296376
0.00298409
0.00320329
0.00357601
0.00405126
0.00459587
0.00518685
0.00579817
0.00639497
0.00693651
0.00738401
0.00770852
0.00789555
0.00794547
0.00787018
0.00768844
0.00742074
0.00708527
0.00669572
0.00626058
0.00578356
0.00526451
0.00470034
0.00408556
0.0034123
0.00266972
0.00184328
0.000923983
0.000100696
0.0059594
0.00483731
0.00384384
0.00310382
0.00267565
0.00253934
0.00263192
0.00287903
0.00316787
0.00330576
0.00321368
0.00305482
0.00302639
0.00319127
0.00352327
0.0039753
0.00451122
0.00510498
0.00572896
0.00634691
0.00691581
0.00739356
0.00774749
0.00795987
0.00802886
0.00796566
0.00778944
0.00752177
0.00718225
0.00678589
0.00634226
0.00585586
0.00532704
0.00475301
0.00412842
0.00344547
0.00269331
0.00185735
0.000928992
0.000101157
0.00631288
0.00519522
0.00415896
0.00334358
0.00283534
0.00263316
0.00267811
0.0028948
0.00318152
0.00335401
0.00329947
0.00314689
0.00308685
0.00320701
0.00349927
0.00392457
0.00444714
0.0050392
0.00567163
0.00630674
0.0068992
0.00740366
0.00778389
0.00801902
0.00810511
0.00805264
0.00788114
0.00761321
0.00726976
0.00686703
0.00641558
0.00592062
0.00538295
0.00480004
0.00416667
0.00347507
0.00271435
0.00186987
0.000933362
0.000101594
0.00659446
0.00549651
0.00443776
0.00356563
0.00299059
0.0027313
0.00273433
0.00292225
0.0032006
0.00339533
0.0033706
0.00323211
0.00315767
0.00324485
0.00350185
0.00389972
0.00440599
0.00499272
0.00562985
0.00627826
0.00689033
0.00741772
0.00782072
0.0080754
0.008176
0.00813236
0.00796437
0.0076956
0.00734814
0.00693936
0.00648069
0.00597796
0.00543236
0.00484154
0.00420038
0.00350113
0.00273286
0.00188083
0.000937093
0.000102006
0.00679484
0.00572826
0.00466557
0.00375674
0.00313127
0.00282653
0.00279531
0.00295835
0.00322574
0.00343199
0.00342901
0.00330888
0.00323417
0.00329967
0.00352795
0.0039002
0.00438909
0.00496806
0.00560678
0.00626489
0.00689286
0.00743915
0.00786078
0.00813123
0.00824317
0.00820596
0.00803986
0.00776938
0.00741767
0.00700306
0.00653774
0.00602801
0.00547535
0.00487757
0.0042296
0.0035237
0.00274885
0.00189024
0.000940178
0.000102393
0.00690905
0.00588279
0.00483148
0.00390555
0.00324815
0.00291219
0.00285621
0.0029997
0.00325542
0.00346475
0.00347775
0.00337832
0.00331184
0.0033678
0.00357479
0.00392502
0.00439714
0.00496712
0.00560518
0.00627015
0.00691013
0.00747084
0.00790651
0.00818845
0.00830805
0.0082744
0.00810824
0.00783493
0.00747857
0.00705827
0.0065868
0.00607082
0.00551198
0.00490818
0.00425438
0.00354279
0.00276232
0.00189808
0.000942609
0.000102755
0.006941
0.00595994
0.00493055
0.00400475
0.00333443
0.00298308
0.00291324
0.00304377
0.00328876
0.00349504
0.00352061
0.00344294
0.00339019
0.00344548
0.00364017
0.00397335
0.00443053
0.0049915
0.00562747
0.00629643
0.00694456
0.0075151
0.00795993
0.00824861
0.00837174
0.00833841
0.00816993
0.00789249
0.00753097
0.00710508
0.00662795
0.00610645
0.00554231
0.00493342
0.00427473
0.0035584
0.00277326
0.00190433
0.000944377
0.000103089
0.00689004
0.00595974
0.00496206
0.00405163
0.00338674
0.00303615
0.00296383
0.0030885
0.00332546
0.00352504
0.0035605
0.00350526
0.00347015
0.00353078
0.00371988
0.00404179
0.00448758
0.00504082
0.00567416
0.00634501
0.0069978
0.00757361
0.00802247
0.00831284
0.00843502
0.00839846
0.0082252
0.00794221
0.00757495
0.00714353
0.00666124
0.00613496
0.00556638
0.00495332
0.00429067
0.00357053
0.00278167
0.00190899
0.000945473
0.000103396
0.00676422
0.00588845
0.00493
0.00404848
0.00340582
0.00307101
0.00300685
0.00313251
0.00336429
0.00355512
0.00360014
0.00356811
0.00355348
0.003624
0.0038127
0.00412812
0.00456618
0.00511389
0.00574509
0.00641649
0.00707083
0.00764741
0.00809504
0.00838178
0.00849826
0.00845473
0.00827412
0.00798408
0.00761052
0.00717365
0.00668671
0.00615639
0.00558423
0.00496792
0.00430223
0.00357921
0.00278753
0.00191203
0.000945889
0.000103673
0.00658082
0.00575725
0.00484403
0.00400303
0.00339678
0.00309012
0.00304279
0.00317537
0.00340426
0.00358595
0.00364213
0.00363449
0.00364227
0.00372587
0.00391806
0.004231
0.00466498
0.00520984
0.00584002
0.00651113
0.00716415
0.00773698
0.00817794
0.00845552
0.0085614
0.00850708
0.00831652
0.008018
0.00763762
0.00719545
0.0067044
0.00617082
0.00559595
0.00497728
0.00430945
0.00358443
0.00279084
0.00191345
0.000945622
0.000103919
0.00635711
0.00558394
0.00472009
0.0039284
0.00336892
0.00309877
0.00307382
0.00321725
0.0034439
0.00361898
0.00368977
0.00370753
0.00373874
0.00383731
0.00403578
0.0043497
0.0047832
0.00532819
0.00595885
0.00662902
0.00727784
0.00784225
0.0082709
0.00853364
0.00862396
0.00855506
0.00835206
0.00804376
0.00765617
0.00720893
0.00671437
0.00617833
0.00560162
0.00498147
0.00431238
0.00358625
0.00279163
0.00191326
0.000944673
0.000104134
0.00611332
0.00539007
0.00457865
0.00384208
0.00333499
0.00310475
0.00310402
0.0032593
0.00348306
0.00365728
0.00374659
0.0037905
0.00384515
0.00395934
0.00416602
0.00448404
0.00492074
0.00546903
0.00610171
0.00677018
0.00741162
0.00796262
0.00837308
0.00861518
0.00868503
0.00859791
0.00838022
0.00806105
0.00766606
0.00721411
0.00671674
0.00617905
0.00560136
0.00498061
0.00431112
0.00358471
0.00278992
0.00191146
0.000943048
0.000104316
0.00587175
0.00519868
0.00444273
0.00376445
0.00331051
0.00311849
0.00313997
0.00330534
0.00352734
0.00370732
0.00381772
0.00388734
0.00396398
0.00409329
0.00430949
0.00463463
0.00507829
0.00563304
0.00626904
0.00693453
0.00756486
0.00809694
0.00848302
0.00869866
0.00874328
0.00863465
0.00840034
0.00806955
0.0076672
0.00721108
0.00671164
0.00617316
0.00559537
0.00497484
0.00430577
0.00357991
0.00278578
0.00190809
0.000940762
0.000104465
0.00565234
0.00503209
0.0043359
0.00371686
0.00331256
0.00315299
0.00319089
0.00336322
0.00358681
0.00377775
0.00390977
0.00400243
0.0040979
0.00424087
0.00446763
0.00480297
0.00525741
0.00582151
0.00646148
0.00712184
0.00773641
0.00824342
0.00859864
0.00878205
0.00879704
0.00866404
0.0084117
0.00806894
0.00765955
0.00719996
0.00669932
0.00616092
0.00558386
0.00496438
0.0042965
0.00357195
0.00277927
0.0019032
0.000937836
0.000104581
0.00547771
0.00491113
0.00427877
0.00371847
0.00335827
0.00322396
0.00326991
0.00344346
0.00367265
0.00387824
0.00402949
0.00413988
0.00424952
0.00440418
0.00464263
0.00499151
0.00546049
0.00603622
0.00667969
0.00733146
0.00792449
0.00839954
0.0087172
0.00886284
0.00884433
0.00868476
0.00841357
0.00805895
0.00764319
0.007181
0.00668008
0.00614264
0.00556713
0.00494944
0.00428349
0.00356098
0.0027705
0.00189685
0.000934303
0.000104663
0.00536896
0.00485246
0.00428626
0.00378412
0.0034623
0.00334739
0.00339431
0.00356414
0.00379976
0.00401916
0.00418296
0.00430299
0.00442114
0.00458566
0.00483751
0.00520359
0.00569051
0.00627908
0.00692402
0.00756207
0.00812645
0.00856195
0.0088353
0.00893812
0.00888298
0.00869545
0.00840528
0.00803944
0.00761828
0.00715454
0.00665431
0.00611871
0.00554552
0.00493034
0.00426698
0.00354718
0.00275959
0.00188911
0.000930197
0.000104714
0.00534275
0.00486795
0.00436622
0.00392209
0.00363164
0.00352989
0.00357771
0.00374237
0.0039825
0.00420772
0.00437297
0.00449312
0.00461444
0.00478805
0.00505597
0.00544319
0.00595078
0.00655177
0.00719404
0.00781128
0.00833855
0.0087264
0.00894894
0.00900463
0.00891074
0.00869485
0.00838636
0.00801046
0.00758517
0.00712105
0.00662251
0.00608959
0.00551944
0.00490741
0.00424725
0.00353076
0.0027467
0.00188009
0.000925557
0.000104735
0.0054112
0.00496547
0.00452129
0.00413333
0.00387294
0.00377301
0.00381959
0.00397854
0.00421681
0.00443888
0.00459575
0.00470886
0.00483037
0.00501428
0.00530221
0.00571464
0.00624437
0.00685511
0.007488
0.00807523
0.00855577
0.00888767
0.00905358
0.009059
0.0089255
0.00868192
0.00835658
0.00797229
0.00754439
0.00708114
0.00658529
0.00605582
0.00548935
0.00488103
0.0042246
0.00351195
0.00273199
0.00186987
0.000920417
0.000104724
)
;

boundaryField
{
    leftWall
    {
        type            nutkWallFunction;
        Cmu             0.09;
        kappa           0.41;
        E               9.8;
        value           nonuniform 0();
    }
    rightWall
    {
        type            nutkWallFunction;
        Cmu             0.09;
        kappa           0.41;
        E               9.8;
        value           nonuniform List<scalar> 
43
(
0
0
0
0
7.05718e-07
1.32243e-06
1.82291e-06
2.23559e-06
2.58154e-06
2.87566e-06
3.13114e-06
3.35563e-06
3.55394e-06
3.73059e-06
3.8892e-06
4.03263e-06
4.16321e-06
4.28287e-06
4.39322e-06
4.49561e-06
4.59111e-06
4.68062e-06
4.76482e-06
4.84426e-06
4.91933e-06
4.99032e-06
5.0574e-06
5.12065e-06
5.1801e-06
5.2357e-06
5.28735e-06
5.33494e-06
5.37831e-06
5.41731e-06
5.45179e-06
5.48163e-06
5.50671e-06
5.52697e-06
5.5424e-06
5.55307e-06
5.55915e-06
5.56084e-06
5.558e-06
)
;
    }
    lowerWall
    {
        type            nutkWallFunction;
        Cmu             0.09;
        kappa           0.41;
        E               9.8;
        value           nonuniform List<scalar> 
66
(
1.13385e-05
1.09092e-05
1.09092e-05
1.80989e-05
2.13479e-05
2.42601e-05
2.68607e-05
2.89623e-05
3.08263e-05
3.27312e-05
3.48598e-05
3.73728e-05
2.78747e-05
2.49235e-05
2.85562e-05
2.58662e-05
0
1.48729e-06
3.53096e-06
5.50737e-06
7.5309e-06
9.82268e-06
1.26097e-05
1.60834e-05
2.03359e-05
2.55304e-05
0
0
0
2.26788e-09
7.47574e-08
8.07473e-08
4.1043e-07
6.59035e-07
8.43646e-07
9.30907e-07
9.40744e-07
8.89142e-07
7.89283e-07
6.52693e-07
4.89979e-07
3.1238e-07
1.40064e-07
3.0817e-08
0
0
4.43718e-08
1.18171e-08
0
3.67405e-08
4.79796e-08
1.03326e-07
0
0
0
0
0
0
0
2.57721e-08
0
0
0
0
0
0
)
;
    }
    atmosphere
    {
        type            calculated;
        value           nonuniform 0();
    }
    defaultFaces
    {
        type            empty;
    }
    procBoundary1to0
    {
        type            processor;
        value           nonuniform List<scalar> 
44
(
0.000100328
0.000649229
0.00115782
0.00168946
0.00224224
0.00279006
0.00331263
0.0037989
0.00424684
0.00467288
0.00514658
0.00566846
0.00622822
0.00681435
0.00740624
0.00798185
0.00852415
0.00902197
0.00946841
0.00985911
0.00935109
0.00935109
0.00972231
0.0100285
0.0102763
0.0104758
0.0106347
0.0107215
0.0107347
0.0106785
0.0105316
0.0102824
0.00992727
0.00947048
0.00892581
0.00831817
0.00768431
0.00707201
0.006525
0.0060949
0.00579473
0.00561249
0.00552332
0.00549494
)
;
    }
    procBoundary1to3
    {
        type            processor;
        value           nonuniform List<scalar> 
45
(
0.00564031
0.00591827
0.00622153
0.00633716
0.00602804
0.00558115
0.00515028
0.00475222
0.00441517
0.00418533
0.00408861
0.00412165
0.00426761
0.00449419
0.00470501
0.00484674
0.00494856
0.00507002
0.00526775
0.00558086
0.0060221
0.00657338
0.00718818
0.00780208
0.00834806
0.00877145
0.00903956
0.00914424
0.00909783
0.00892537
0.00865597
0.00831603
0.00792545
0.00749665
0.00703556
0.00654333
0.006018
0.00545576
0.00485162
0.00419937
0.00349102
0.00271564
0.00185857
0.00091481
0.000104678
)
;
    }
}


// ************************************************************************* //
