/*--------------------------------*- C++ -*----------------------------------*\
  =========                 |
  \\      /  F ield         | OpenFOAM: The Open Source CFD Toolbox
   \\    /   O peration     | Website:  https://openfoam.org
    \\  /    A nd           | Version:  7
     \\/     M anipulation  |
\*---------------------------------------------------------------------------*/
FoamFile
{
    version     2.0;
    format      ascii;
    class       volScalarField;
    location    "0.3";
    object      p;
}
// * * * * * * * * * * * * * * * * * * * * * * * * * * * * * * * * * * * * * //

dimensions      [1 -1 -2 0 0 0 0];

internalField   nonuniform List<scalar> 
1915
(
2249.92
2293.02
2176.68
2234.9
2147.8
2206.66
2138.75
2207.81
2129.55
2222.97
2103.24
2224.66
2046.07
2192.29
1943.83
2100.11
1778.09
1899.34
1524.72
1501.85
2.14056
2.13372
2.12797
2.12169
2.11678
2.11343
2.11123
2.11093
2.1122
2.11472
2.11796
2.12149
2.12493
2.12803
2.1306
2.13254
2.13381
2.13442
2.13443
2.13388
2.13284
2.13137
2.12958
2.12761
2.12536
2.1231
2.1208
2.11854
2.11659
2.11472
2.11299
2.11148
2.11028
2.10941
2.10875
2.10829
2.10804
2.10798
2.10801
2.10792
2.09511
2.08962
2.08469
2.07883
2.07244
2.06684
2.0635
2.06237
2.06314
2.06519
2.06808
2.07141
2.07481
2.07798
2.08069
2.08283
2.08431
2.08516
2.08543
2.08515
2.08438
2.08317
2.08164
2.07977
2.07776
2.07563
2.0735
2.07143
2.06935
2.06755
2.06604
2.06473
2.06362
2.0627
2.06203
2.06155
2.06123
2.06101
2.06087
2.06067
2.05022
2.04347
2.03794
2.03162
2.02499
2.01905
2.0151
2.01333
2.01345
2.01501
2.01756
2.0207
2.02407
2.02734
2.03025
2.03264
2.03442
2.03558
2.03615
2.03618
2.03572
2.0348
2.0335
2.03188
2.03003
2.02808
2.02609
2.02411
2.02217
2.02043
2.01893
2.01766
2.01659
2.01573
2.01507
2.01455
2.01414
2.01383
2.01361
2.01351
2.00561
1.99658
1.98932
1.98237
1.97543
1.96945
1.96535
1.96337
1.96327
1.96465
1.9671
1.97022
1.97365
1.97707
1.98021
1.98287
1.98493
1.98635
1.98717
1.98745
1.98724
1.98657
1.98547
1.98403
1.98233
1.98053
1.97866
1.97677
1.97489
1.97316
1.97165
1.97041
1.9694
1.96858
1.96792
1.96736
1.96686
1.96646
1.9662
1.9662
1.95989
1.94841
1.93874
1.931
1.92386
1.91802
1.91414
1.91239
1.91251
1.91412
1.91679
1.9201
1.92373
1.92737
1.93077
1.9337
1.93603
1.93768
1.93868
1.93911
1.93907
1.93858
1.93766
1.93635
1.93478
1.93307
1.93128
1.92942
1.92755
1.92579
1.92426
1.92302
1.92206
1.92128
1.92061
1.91999
1.91942
1.91893
1.91867
1.91875
1.91151
1.89769
1.88538
1.87714
1.87009
1.86468
1.86138
1.86024
1.86099
1.86321
1.8664
1.87016
1.87415
1.8781
1.88179
1.88502
1.88763
1.88951
1.89065
1.89118
1.89122
1.89085
1.89006
1.88886
1.88735
1.88567
1.88391
1.88206
1.88017
1.87836
1.87679
1.87555
1.87461
1.87385
1.87316
1.87248
1.87181
1.87126
1.87102
1.8712
1.85793
1.84279
1.82799
1.82015
1.81377
1.80921
1.80688
1.80676
1.80852
1.8117
1.81576
1.82023
1.82478
1.82915
1.83318
1.83672
1.83963
1.84175
1.84305
1.84364
1.8437
1.84338
1.84266
1.84151
1.84001
1.83832
1.83653
1.83467
1.83276
1.83092
1.82931
1.82803
1.82708
1.8263
1.82556
1.8248
1.82404
1.82344
1.82323
1.82348
1.79344
1.78114
1.76472
1.75911
1.75438
1.7513
1.75042
1.75175
1.75494
1.75945
1.76471
1.7702
1.77554
1.78049
1.78492
1.78879
1.79198
1.79437
1.79585
1.7965
1.79655
1.79619
1.79546
1.7943
1.79275
1.79098
1.78915
1.78727
1.78535
1.78347
1.7818
1.78047
1.77945
1.77862
1.77781
1.77695
1.7761
1.77545
1.77528
1.7756
1.70143
1.70795
1.69341
1.69303
1.69136
1.69056
1.69173
1.69503
1.7001
1.70637
1.71319
1.72001
1.72639
1.73209
1.73703
1.74124
1.7447
1.74733
1.74901
1.74974
1.74974
1.74928
1.74844
1.7472
1.74555
1.74368
1.74177
1.73986
1.73793
1.73602
1.73428
1.73284
1.73172
1.73079
1.72988
1.72891
1.72797
1.72729
1.72715
1.72753
1.54631
1.61252
1.61381
1.62184
1.62447
1.62671
1.63057
1.63642
1.64392
1.6524
1.66118
1.66965
1.67733
1.68398
1.68955
1.69414
1.69783
1.70065
1.7025
1.70331
1.70325
1.70262
1.70161
1.70022
1.69843
1.69643
1.69441
1.69245
1.69049
1.68854
1.6867
1.68513
1.68387
1.68281
1.68177
1.68069
1.67966
1.67895
1.67885
1.67928
1147.55
728.879
850.132
527.18
687.455
511.167
565.005
434.673
451.414
336.848
351.393
257.817
263.781
191.386
184.882
129.598
113.655
72.4023
50.2461
21.2304
-23.3958
-62.5922
-99.3904
-121.447
-78.7462
-18.2637
-6.48311
-5.74751
-5.92996
-6.09887
-6.21695
-6.3278
-6.4365
-6.54095
-6.64296
-6.74338
-6.84151
-6.93224
-6.99894
-7.02472
-7.0046
-6.93285
-6.7993
-66.357
-3.98795
0.1832
0.0830358
10.2333
-3.84143
0.643807
0.890187
186.2
33.0459
1.25076
0.98883
232.494
76.1493
5.44064
-1.62239
198.132
86.7217
18.1183
-7.18907
157.892
79.0126
27.5179
-2.38781
118.538
59.7723
21.63
0.314117
75.8142
31.6885
2.46126
-11.0652
32.8543
0.173331
-22.0631
-31.398
-6.83849
-30.3845
-46.8018
-53.3856
-41.603
-57.623
-69.2181
-73.7752
-71.0602
-80.253
-87.7346
-90.8728
-97.1421
-98.4394
-101.541
-103.552
-119.902
-114.539
-111.486
-111.634
-110.899
-122.438
-118.794
-116.489
-46.664
-87.6502
-111.214
-118.014
-9.48927
-25.7111
-64.9829
-102.751
-6.14778
-7.30435
-17.9899
-57.0568
-6.04933
-6.14089
-7.4396
-20.9639
-6.23818
-6.31155
-6.43167
-7.89969
-6.37317
-6.5026
-6.55939
-6.62286
-6.48658
-6.63854
-6.74805
-6.71423
-6.59708
-6.74706
-6.85801
-6.83468
-6.70448
-6.84994
-6.94013
-6.89743
-6.81267
-6.95704
-7.0403
-6.99176
-6.92399
-7.07202
-7.15535
-7.1571
-7.03701
-7.18672
-7.25185
-7.40167
-7.14763
-7.31787
-7.41961
-7.70953
-7.22846
-7.42669
-7.696
-8.0227
-7.2448
-7.42443
-7.96639
-9.092
-7.22054
-7.38481
-7.82779
-8.85528
-7.1449
-7.28854
-7.29299
-5.3623
-6.97896
-7.07616
-6.45984
-6.0143
1.20687
1.46761
1.5288
1.5471
1.55374
1.55914
1.56617
1.57523
1.5858
1.59708
1.60826
1.61873
1.62799
1.63579
1.64213
1.64714
1.65102
1.65393
1.65587
1.65673
1.65659
1.65577
1.65454
1.65294
1.65099
1.64882
1.64666
1.64461
1.6426
1.64058
1.63862
1.63688
1.63544
1.63421
1.63303
1.63183
1.63073
1.62999
1.62993
1.63041
1.319
1.4111
1.46476
1.47616
1.48071
1.48769
1.49803
1.51098
1.5254
1.54015
1.55428
1.56713
1.57825
1.58741
1.59464
1.60013
1.60415
1.60705
1.60894
1.60977
1.60952
1.60849
1.60699
1.60516
1.603
1.60063
1.5983
1.59611
1.594
1.59187
1.58976
1.58782
1.58617
1.58474
1.58341
1.5821
1.58092
1.58017
1.58015
1.58068
1.52375
1.46049
1.4376
1.41287
1.40558
1.41211
1.42605
1.44376
1.46296
1.48195
1.4996
1.51524
1.52848
1.53918
1.54741
1.5534
1.55754
1.56029
1.56199
1.56265
1.56223
1.56094
1.55915
1.55704
1.55463
1.55203
1.54949
1.54712
1.54486
1.54257
1.54028
1.53812
1.53623
1.53459
1.5331
1.53167
1.53044
1.52968
1.5297
1.53028
1.45108
1.59551
1.44328
1.35617
1.32676
1.33163
1.35007
1.37367
1.39867
1.42273
1.44452
1.46334
1.47894
1.49129
1.50057
1.50709
1.51129
1.51378
1.51511
1.51544
1.51474
1.51313
1.511
1.50856
1.50586
1.50298
1.50017
1.49758
1.49512
1.49265
1.49014
1.48773
1.48559
1.48374
1.48207
1.48054
1.47925
1.4785
1.47857
1.47919
0.786117
1.58327
1.44402
1.30558
1.24669
1.24909
1.27193
1.30175
1.3332
1.36301
1.38946
1.41181
1.42993
1.44399
1.45433
1.46134
1.46555
1.46767
1.46845
1.46826
1.46711
1.46509
1.46253
1.45969
1.45662
1.45341
1.45029
1.44742
1.44473
1.44204
1.4393
1.43663
1.43423
1.43214
1.43031
1.42867
1.42734
1.42661
1.42673
1.4274
-4.14166
0.928095
1.36318
1.26234
1.18415
1.17787
1.19866
1.23097
1.26795
1.30362
1.33503
1.36113
1.38185
1.3976
1.40891
1.41633
1.42045
1.42208
1.42215
1.42125
1.41947
1.41688
1.41377
1.41042
1.40688
1.40325
1.39976
1.39657
1.39362
1.3907
1.3877
1.38477
1.38209
1.37977
1.37777
1.37604
1.37468
1.37397
1.37415
1.37487
-9.09853
-4.67365
0.781158
1.25455
1.17273
1.14142
1.14209
1.16587
1.20468
1.24558
1.28199
1.31191
1.33521
1.35249
1.36458
1.37222
1.37612
1.37713
1.37634
1.37451
1.37189
1.36855
1.36476
1.36075
1.35662
1.35247
1.34852
1.34497
1.34172
1.33854
1.3353
1.33209
1.32915
1.3266
1.32443
1.32261
1.32124
1.32056
1.3208
1.32158
-16.1167
-14.99
-3.27259
0.833111
1.21825
1.1421
1.10499
1.10937
1.14485
1.18993
1.23125
1.26487
1.29054
1.30904
1.32162
1.32921
1.33267
1.33291
1.33107
1.32812
1.32445
1.32017
1.31552
1.31073
1.30587
1.30106
1.29655
1.29255
1.28897
1.28551
1.28202
1.27856
1.27536
1.27258
1.27026
1.26836
1.26697
1.26634
1.26664
1.26748
-31.1558
-27.2038
-13.777
-0.819906
0.964352
1.10643
1.06051
1.05876
1.09077
1.13838
1.18392
1.22082
1.24838
1.2677
1.28029
1.28745
1.29017
1.2894
1.28633
1.28206
1.27711
1.27171
1.26606
1.26035
1.25463
1.24904
1.24386
1.23932
1.23533
1.23157
1.22781
1.2241
1.22065
1.21767
1.2152
1.21323
1.21184
1.21125
1.21163
1.21253
-50.3752
-41.4726
-28.4019
-7.92506
-0.149966
0.974387
1.0342
1.02605
1.04948
1.09374
1.14126
1.18053
1.20927
1.22874
1.2408
1.24705
1.24864
1.24657
1.24204
1.23622
1.2298
1.22307
1.21628
1.20955
1.20289
1.19641
1.19044
1.18527
1.18079
1.17667
1.17263
1.16866
1.16498
1.16181
1.1592
1.15718
1.1558
1.15527
1.15572
1.15669
-69.7217
-57.7097
-41.2841
-21.3536
-3.0108
0.588277
1.07211
1.02195
1.02318
1.05845
1.10441
1.14453
1.17357
1.19243
1.2033
1.20806
1.20806
1.20432
1.19805
1.19046
1.18234
1.17411
1.16604
1.15821
1.15055
1.14312
1.1363
1.1304
1.12536
1.12081
1.11643
1.1122
1.10829
1.10494
1.10222
1.10015
1.09879
1.09832
1.09886
1.09989
-87.0454
-74.7481
-56.116
-36.0489
-9.86891
-0.200616
0.968113
1.01333
1.0062
1.03346
1.07448
1.11331
1.14148
1.15887
1.1678
1.17046
1.16835
1.16256
1.15424
1.14463
1.13458
1.12465
1.11516
1.10615
1.09745
1.08907
1.08137
1.07469
1.06901
1.06396
1.0592
1.05466
1.05053
1.047
1.04418
1.04209
1.04076
1.04036
1.04098
1.04209
-100.757
-89.9592
-71.5066
-49.7622
-23.3982
-2.77955
0.485412
1.01991
1.00792
1.02025
1.05271
1.08729
1.11303
1.12798
1.13422
1.13415
1.12942
1.12115
1.11049
1.09861
1.08642
1.07457
1.06348
1.05319
1.04342
1.0341
1.02553
1.01807
1.0117
1.00609
1.00089
0.996022
0.991641
0.987948
0.985044
0.982931
0.98164
0.981313
0.982021
0.98321
-110.051
-101.653
-84.959
-62.8288
-38.2396
-8.09773
-0.122854
0.980739
1.01883
1.01963
1.03978
1.06654
1.08797
1.09945
1.10227
1.09887
1.09104
1.07992
1.06664
1.05229
1.03776
1.0238
1.01094
0.99921
0.988292
0.978022
0.968628
0.960413
0.953365
0.94716
0.941475
0.936232
0.931583
0.927721
0.924733
0.922613
0.921367
0.921118
0.921917
0.923186
-115.293
-109.446
-95.6006
-74.8982
-50.5494
-16.973
-1.14287
0.787924
1.03768
1.0302
1.03338
1.05014
1.06572
1.07271
1.07145
1.06422
1.05286
1.03856
1.02242
1.00544
0.988451
0.972252
0.957457
0.944146
0.931973
0.920716
0.910514
0.901587
0.893884
0.887084
0.880888
0.875242
0.870305
0.866264
0.863193
0.861067
0.85987
0.859702
0.860594
0.861946
-118.102
-113.835
-102.947
-84.4656
-61.1119
-28.2633
-3.42279
0.39519
1.0448
1.04514
1.03173
1.0373
1.04556
1.04705
1.04111
1.02962
1.01438
0.99663
0.977441
0.957722
0.938229
0.919755
0.902951
0.887933
0.874387
0.862074
0.851059
0.841458
0.833137
0.825759
0.81905
0.812987
0.807747
0.803518
0.800361
0.79823
0.797082
0.796993
0.797979
0.799413
-118.259
-116.251
-107.285
-91.165
-69.3012
-39.1354
-6.94316
0.0102893
1.00504
1.05409
1.03185
1.02627
1.02638
1.02158
1.01042
0.99437
0.975024
0.953634
0.931258
0.908725
0.886723
0.86601
0.84721
0.830443
0.815444
0.802011
0.790163
0.779904
0.771
0.763073
0.755864
0.749386
0.743841
0.739419
0.736173
0.734033
0.73293
0.732918
0.733993
0.735509
-105.28
-116.747
-109.669
-95.2321
-74.8768
-47.2871
-10.5745
-0.298623
0.891659
1.05679
1.03399
1.01624
1.00703
0.995269
0.97852
0.957712
0.93416
0.909058
0.883427
0.858039
0.833548
0.810672
0.78995
0.771462
0.754996
0.740415
0.727722
0.716816
0.707357
0.698912
0.69123
0.684354
0.678513
0.673901
0.670562
0.668406
0.667341
0.667399
0.66856
0.670154
-67.4198
-109.798
-110.64
-97.2044
-78.2433
-52.1917
-14.0386
-0.84357
0.755593
1.05803
1.03621
1.00465
0.985888
0.96688
0.94443
0.91884
0.891128
0.862379
0.833531
0.805308
0.778376
0.753419
0.730869
0.710737
0.692851
0.677145
0.663617
0.65208
0.64209
0.633161
0.625041
0.617799
0.611682
0.60689
0.603456
0.601277
0.600239
0.600359
0.6016
0.60327
-26.4617
-93.173
-110.342
-97.8369
-79.4344
-54.7504
-17.0489
-1.64256
0.588826
1.0517
1.0306
0.988088
0.961173
0.935231
0.907158
0.876929
0.845235
0.813024
0.781119
0.750185
0.720916
0.693979
0.669702
0.648024
0.628803
0.612035
0.597715
0.585577
0.575087
0.565711
0.557195
0.549626
0.543262
0.538305
0.534781
0.532572
0.531552
0.531724
0.533037
0.534778
-10.8402
-66.7605
-106.749
-97.3094
-78.3826
-54.6014
-18.5541
-2.36533
0.519757
1.04875
1.01671
0.965813
0.932008
0.899402
0.865814
0.831172
0.795776
0.760387
0.725678
0.692257
0.660848
0.632093
0.60622
0.583111
0.562661
0.544922
0.529876
0.517184
0.506233
0.496452
0.487587
0.479737
0.473165
0.468067
0.46446
0.462218
0.461206
0.46142
0.462795
0.4646
-7.47255
-37.3599
-99.0166
-95.1777
-75.2214
-51.9581
-17.9704
-2.48822
0.611721
1.05629
0.997285
0.938455
0.897658
0.858357
0.819533
0.780806
0.742072
0.703847
0.666648
0.631054
0.597804
0.567471
0.540182
0.51579
0.494247
0.475653
0.459967
0.446778
0.435412
0.425275
0.416116
0.408041
0.401305
0.396095
0.392417
0.390142
0.38913
0.389374
0.390802
0.392662
-7.39953
-27.2169
-90.6513
-90.6415
-69.7076
-46.3358
-15.1376
-1.98444
0.735616
1.0431
0.965894
0.903696
0.856031
0.81061
0.767238
0.725002
0.68345
0.64283
0.603532
0.566148
0.531414
0.4998
0.471328
0.445852
0.423389
0.404083
0.387859
0.374243
0.362516
0.352077
0.342687
0.334447
0.327599
0.322312
0.31858
0.316273
0.315254
0.315518
0.316986
0.318892
-7.45335
-22.4285
-81.1526
-82.4485
-61.1514
-37.1024
-10.3917
-1.19714
0.8954
1.00578
0.920813
0.858654
0.805065
0.754717
0.707848
0.662979
0.619334
0.576886
0.535957
0.49721
0.461371
0.428793
0.399406
0.373083
0.349915
0.330067
0.313426
0.299463
0.287439
0.276764
0.267211
0.258873
0.251969
0.246641
0.242874
0.24054
0.239509
0.239784
0.241281
0.243224
-7.54643
-21.8658
-73.2933
-71.1044
-49.6495
-24.8856
-5.38081
-0.510858
1.02104
0.951741
0.864301
0.801285
0.742953
0.689478
0.640538
0.594149
0.549277
0.505666
0.463654
0.424013
0.387456
0.354229
0.324206
0.297302
0.273668
0.25347
0.236547
0.222331
0.210086
0.199251
0.18961
0.181245
0.174342
0.169012
0.165232
0.162877
0.161834
0.162113
0.163628
0.165596
-7.67758
-24.9917
-65.6153
-56.9942
-36.0988
-12.5561
-2.10174
0.114292
0.987289
0.864822
0.789393
0.727092
0.667457
0.61384
0.564742
0.518158
0.472989
0.428922
0.386426
0.346391
0.309507
0.275944
0.245571
0.218366
0.19452
0.174173
0.157112
0.142748
0.130372
0.11946
0.109814
0.101496
0.0946498
0.0893591
0.085589
0.0832259
0.0821715
0.0824498
0.0839725
0.0859552
-8.6226
-30.6785
-55.0126
-40.4581
-20.5174
-3.53668
-0.702911
0.422436
0.808907
0.742466
0.690479
0.633492
0.578108
0.527662
0.480455
0.435002
0.39041
0.346566
0.304175
0.264233
0.227402
0.193817
0.163391
0.136173
0.112371
0.0920753
0.0750237
0.060626
0.0482192
0.0373275
0.0277659
0.0195682
0.0128378
0.00762621
0.00389208
0.00153431
0.000474117
0.000748341
0.00226884
0.00425402
-10.5576
-35.5218
-38.8742
-20.3451
-2.8254
1.84068
0.100034
0.457491
0.607309
0.6042
0.571838
0.524535
0.477295
0.432231
0.388429
0.345089
0.301747
0.258697
0.216922
0.177502
0.14107
0.107774
0.0775997
0.0506594
0.0271485
0.00709717
-0.00979877
-0.024108
-0.0364323
-0.0471969
-0.0565802
-0.0645808
-0.0711393
-0.0762326
-0.0799049
-0.0822413
-0.0832997
-0.0830305
-0.0815214
-0.0795456
-15.6591
-35.8612
-23.7571
-4.39929
6.87924
2.64045
0.420053
0.400031
0.443252
0.462767
0.442821
0.406881
0.368633
0.329663
0.289904
0.249128
0.207418
0.165558
0.124787
0.0862248
0.0504961
0.0177903
-0.0118252
-0.0382051
-0.0611936
-0.0808248
-0.0974228
-0.111513
-0.123627
-0.134147
-0.143253
-0.150982
-0.157315
-0.162254
-0.165839
-0.168137
-0.169183
-0.168917
-0.167427
-0.165472
-19.5478
-24.6527
-12.5899
0.0274133
2.06676
0.202385
0.220131
0.268857
0.293768
0.319297
0.310779
0.285806
0.255523
0.222118
0.186157
0.147888
0.107916
0.0674516
0.0279228
-0.00953086
-0.044285
-0.076101
-0.104859
-0.13042
-0.152686
-0.171741
-0.1879
-0.201628
-0.213391
-0.223538
-0.232266
-0.239652
-0.245714
-0.250467
-0.25394
-0.256178
-0.257197
-0.256931
-0.255468
-0.253545
-11.6591
-9.7625
-1.20856
5.50212
3.22618
0.773766
0.156882
0.144237
0.170772
0.19077
0.184894
0.165865
0.14074
0.111272
0.078163
0.0419792
0.00365333
-0.03536
-0.073521
-0.109674
-0.143192
-0.173819
-0.201442
-0.225965
-0.247348
-0.26569
-0.281266
-0.294474
-0.305728
-0.315367
-0.323619
-0.330599
-0.336352
-0.34089
-0.344225
-0.346379
-0.347354
-0.347082
-0.345651
-0.343774
-2.33638
-0.394525
3.19532
6.14966
3.75672
0.930331
0.205007
0.0723747
0.0730877
0.0777065
0.0662559
0.0477357
0.0249284
-0.00233357
-0.0336461
-0.0682918
-0.105168
-0.142739
-0.179433
-0.214091
-0.246099
-0.275247
-0.301485
-0.324789
-0.345153
-0.362653
-0.377499
-0.390025
-0.400615
-0.409623
-0.417313
-0.423836
-0.429246
-0.433542
-0.436711
-0.438752
-0.43966
-0.439373
-0.43798
-0.436163
1.14474
5.37718
4.81634
5.60127
3.89068
0.912349
0.0947383
-0.0725728
-0.0513992
-0.0421691
-0.0544105
-0.0722153
-0.0934406
-0.119188
-0.14927
-0.182801
-0.218465
-0.254625
-0.289722
-0.322649
-0.352868
-0.380262
-0.404882
-0.426775
-0.445956
-0.462462
-0.476435
-0.488153
-0.497983
-0.506294
-0.513378
-0.519408
-0.524441
-0.528457
-0.53142
-0.533315
-0.534133
-0.53382
-0.532466
-0.530713
)
;

boundaryField
{
    leftWall
    {
        type            calculated;
        value           nonuniform 0();
    }
    rightWall
    {
        type            calculated;
        value           nonuniform List<scalar> 
43
(
2.10792
2.06067
2.01351
1.9662
1.91875
1.8712
1.82348
1.7756
1.72753
1.67928
1.63041
1.58068
1.53028
1.47919
1.4274
1.37487
1.32158
1.26748
1.21253
1.15669
1.09989
1.04209
0.98321
0.923186
0.861946
0.799413
0.735509
0.670154
0.60327
0.534778
0.4646
0.392662
0.318892
0.243224
0.165596
0.0859552
0.00425402
-0.0795456
-0.165472
-0.253545
-0.343774
-0.436163
-0.530713
)
;
    }
    lowerWall
    {
        type            calculated;
        value           nonuniform List<scalar> 
66
(
2270.86
2315.42
2293.02
2234.9
2206.66
2207.81
2222.97
2224.66
2192.29
2100.11
1899.34
1501.85
-52.1328
-3.96398
0.207165
0.107001
2.14056
2.09511
2.05022
2.00561
1.95989
1.91151
1.85793
1.79344
1.70143
1.54631
2.1641
2.15726
2.15151
2.14523
2.14032
2.13698
2.13478
2.13447
2.13574
2.13826
2.14151
2.14503
2.14848
2.15158
2.15414
2.15608
2.15735
2.15797
2.15798
2.15743
2.15639
2.15491
2.15313
2.15115
2.14891
2.14664
2.14434
2.14208
2.14013
2.13826
2.13653
2.13503
2.13382
2.13295
2.13229
2.13183
2.13158
2.13152
2.13156
2.13146
)
;
    }
    atmosphere
    {
        type            calculated;
        value           nonuniform 0();
    }
    defaultFaces
    {
        type            empty;
    }
    procBoundary1to0
    {
        type            processor;
        value           nonuniform List<scalar> 
44
(
2228.72
2186.29
2152.26
2120.03
2079.44
2022.16
1940.1
1824.57
1666.42
1461.49
1218.65
993.361
821.322
678.729
549.23
432.61
328.727
235.551
151.775
76.803
-5.81437
-5.81437
-57.4916
-105.082
-110.775
-42.1996
-8.01819
-5.61285
-5.61276
-5.81632
-5.94896
-6.05826
-6.16588
-6.26885
-6.36526
-6.45583
-6.54177
-6.62295
-6.69522
-6.7478
-6.7686
-6.75088
-6.68835
-6.57988
)
;
    }
    procBoundary1to3
    {
        type            processor;
        value           nonuniform List<scalar> 
45
(
-6.62788
-6.76139
-6.80811
-6.51083
-6.50238
1.79367
8.34334
5.91079
4.80925
5.87246
1.64304
-0.173404
-0.236357
-0.189951
-0.172423
-0.179875
-0.195276
-0.215105
-0.239804
-0.269
-0.301629
-0.336176
-0.370883
-0.404211
-0.435169
-0.463352
-0.488755
-0.511525
-0.531777
-0.549548
-0.564866
-0.577834
-0.588681
-0.597738
-0.605361
-0.611845
-0.617364
-0.621976
-0.62566
-0.628373
-0.630089
-0.630794
-0.630441
-0.629118
-0.627427
)
;
    }
}


// ************************************************************************* //
