/*--------------------------------*- C++ -*----------------------------------*\
  =========                 |
  \\      /  F ield         | OpenFOAM: The Open Source CFD Toolbox
   \\    /   O peration     | Website:  https://openfoam.org
    \\  /    A nd           | Version:  7
     \\/     M anipulation  |
\*---------------------------------------------------------------------------*/
FoamFile
{
    version     2.0;
    format      ascii;
    class       labelField;
    location    "0.0025/lagrangian/dsmc";
    object      origId;
}
// * * * * * * * * * * * * * * * * * * * * * * * * * * * * * * * * * * * * * //


241432
(
447873
447875
447887
447889
447890
447919
447930
447937
447939
447940
447970
447971
447973
447999
448015
448024
448035
448062
448065
448070
448099
448136
448143
448169
448172
448174
448176
448183
448185
448218
448249
448257
448266
448269
448294
448303
448308
448319
448355
448373
448390
448391
448414
448418
448422
448449
448455
448459
448464
448470
448483
448502
448505
448546
448559
448560
448567
448571
448584
448608
448609
448623
448630
448631
448642
448649
448677
448687
448714
448734
448746
448752
448769
448800
448801
448803
448822
448829
448841
448868
448869
448871
448881
448892
448894
448896
448909
448919
448949
448966
448969
448970
448976
448981
448988
448991
449024
449027
449036
449043
449048
449052
449059
449064
449073
449077
449080
449087
449093
449095
449096
449097
449116
449148
449179
449188
449190
449199
449200
449209
449218
449221
449240
449244
449257
449326
449335
449374
449379
449385
449386
449400
449402
449405
449411
449412
449413
449415
449423
449426
449459
449479
449483
449501
449506
449509
449522
449526
449527
449537
449584
449590
449594
449605
449627
449650
449653
449663
449666
449670
449701
449705
449716
449719
449723
449724
449731
449748
449781
449783
449786
449788
449799
449812
449820
449821
449826
449847
449848
449850
449855
449870
449883
449919
449923
449928
449961
449971
449987
449988
449997
450002
450018
450036
450040
450041
450045
450049
450054
450069
450086
450149
450151
450152
450155
450157
450165
450169
450173
450179
450180
450201
450202
450216
450219
450229
450230
450236
450240
450250
450270
450272
450275
450286
450296
450303
450311
450334
450343
450367
450375
450378
450383
450405
450420
450441
450488
450491
450499
450516
450518
450531
450548
450569
450579
450609
450616
450651
450685
450687
450727
450740
450746
450769
450774
450791
450792
450801
450828
450832
450845
450849
450857
450864
450890
450894
450896
450910
450969
450988
451013
451015
451017
451023
451028
451046
451048
451051
451057
451058
451062
451101
451137
451145
451156
451159
451171
451188
451192
451198
451204
451208
451209
451218
451234
451258
451262
451263
451270
451271
451274
451283
451284
451290
451307
451309
451318
451319
451342
451351
451369
451373
451385
451389
451393
451401
451412
451434
451442
451448
451456
451467
451471
451472
451491
451493
451505
451547
451573
451587
451607
451616
451627
451629
451631
451650
451660
451667
451686
451692
451713
451720
451737
451767
451780
451797
451800
451825
451845
451874
451899
451905
451908
451915
451918
451920
451921
451928
451940
451950
451957
451961
451964
451993
451995
451999
452003
452022
452038
452044
452091
452096
452107
452141
452150
452213
452215
452248
452253
452255
452273
452277
452283
452294
452302
452304
452308
452313
452330
452344
452350
452408
452438
452441
452447
452457
452461
452476
452481
452501
452508
452514
452537
452545
452556
452567
452574
452600
452607
452617
452631
452640
452641
452646
452668
452673
452684
452695
452696
452697
452699
452702
452711
452716
452744
452763
452773
452776
452796
452801
452809
452814
452815
452818
452830
452841
452851
452857
452890
452891
452935
452942
452945
452950
453013
453018
453050
453061
453107
453119
453135
453141
453157
453159
453175
453187
453191
453199
453209
453220
453238
453251
453258
453274
453287
453296
453305
453323
453328
453332
453348
453361
453366
453367
453373
453377
453382
453384
453416
453417
453422
453428
453431
453457
453464
453510
453511
453516
453537
453551
453570
453575
453581
453582
453583
453609
453618
453629
453632
453646
453654
453663
453664
453693
453706
453719
453724
453742
453743
453744
453766
453769
453770
453784
453801
453802
453824
453836
453841
453847
453879
453888
453889
453897
453909
453914
453920
453938
453941
453948
453954
453958
453972
453974
453983
453984
453989
453992
454007
454011
454018
454041
454053
454066
454068
454081
454083
454084
454086
454087
454089
454157
454158
454161
454163
454170
454171
454173
454187
454189
454209
454211
454218
454223
454241
454255
454262
454276
454288
454290
454292
454305
454319
454331
454332
454338
454356
454357
454359
454368
454378
454385
454393
454415
454429
454433
454458
454464
454471
454476
454488
454496
454497
454509
454511
454534
454535
454543
454572
454576
454578
454581
454582
454603
454608
454610
454611
454617
454618
454632
454636
454637
454688
454690
454691
454698
454700
454757
454761
454762
454767
454768
454829
454840
454841
454850
454862
454886
454891
454916
454933
454934
454935
454943
454959
454960
454974
454975
454996
455004
455007
455010
455015
455041
455047
455048
455061
455063
455100
455106
455109
455113
455121
455126
455131
455143
455149
455178
455208
455213
455215
455224
455245
455248
455260
455263
455284
455296
455304
455305
455318
455324
455335
455340
455343
455361
455382
455465
455488
455492
455494
455520
455522
455527
455536
455548
455554
455555
455559
455562
455581
455594
455606
455609
455613
455630
455631
455633
455636
455647
455652
455666
455675
455686
455694
455726
455752
455755
455758
455760
455764
455767
455773
455778
455781
455784
455797
455808
455829
455834
455873
455877
455887
455888
455894
455923
455925
455937
455948
455949
455968
455989
455993
455999
456000
456009
456012
456017
456034
456047
456077
456080
456084
456091
456107
456119
456120
456127
456133
456134
456135
456146
456151
456156
456161
456173
456186
456190
456208
456211
456233
456238
456240
456246
456248
456252
456259
456267
456269
456285
456287
456288
456291
456309
456321
456328
456339
456351
456360
456367
456383
456412
456413
456414
456419
456423
456433
456436
456442
456451
456452
456455
456474
456487
456491
456531
456532
456556
456559
456574
456589
456591
456595
456614
456648
456669
456693
456698
456703
456717
456729
456736
456748
456749
456753
456767
456780
456784
456798
456801
456804
456812
456816
456824
456829
456841
456842
456845
456847
456849
456850
456852
456860
456861
456862
456863
456896
456900
456923
456927
456929
456930
456963
456966
456967
456977
456988
456992
457006
457010
457023
457033
457050
457059
457075
457084
457091
457094
457104
457105
457107
457111
457112
457117
457121
457135
457146
457157
457166
457170
457191
457218
457226
457233
457243
457244
457248
457268
457271
457274
457275
457279
457312
457332
457342
457345
457354
457360
457361
457374
457378
457396
457401
457408
457421
457438
457442
457444
457475
457484
457486
457487
457488
457494
457498
457503
457511
457512
457520
457525
457527
457530
457534
457537
457539
457546
457548
457557
457572
457579
457584
457586
457603
457605
457635
457642
457645
457647
457651
457656
457663
457670
457685
457713
457715
457716
457723
457746
457754
457759
457767
457770
457777
457796
457797
457803
457806
457812
457815
457821
457829
457849
457855
457861
457866
457867
457870
457888
457911
457917
457930
457949
457960
457968
457969
457981
457986
458004
458006
458010
458018
458020
458029
458037
458050
458056
458076
458077
458084
458090
458094
458099
458103
458105
458109
458117
458119
458126
458144
458163
458167
458186
458194
458204
458209
458226
458230
458231
458233
458239
458271
458275
458276
458286
458297
458300
458362
458369
458370
458379
458389
458410
458412
458421
458424
458437
458440
458447
458452
458465
458466
458469
458486
458496
458497
458500
458509
458517
458540
458556
458565
458571
458577
458578
458580
458582
458590
458595
458600
458614
458620
458622
458625
458637
458641
458650
458651
458660
458670
458682
458694
458697
458718
458722
458754
458757
458763
458766
458767
458779
458798
458810
458814
458817
458820
458821
458828
458857
458866
458873
458878
458885
458898
458902
458918
458921
458924
458930
458936
458945
458946
458957
458958
458960
458962
458966
458988
458995
458997
458999
459010
459013
459019
459021
459025
459031
459035
459042
459052
459096
459098
459125
459131
459138
459143
459152
459157
459164
459167
459181
459183
459187
459204
459207
459208
459213
459220
459224
459229
459250
459262
459275
459283
459289
459306
459310
459314
459325
459326
459338
459347
459355
459365
459388
459397
459399
459413
459431
459432
459446
459455
459465
459468
459475
459477
459478
459485
459502
459503
459524
459538
459540
459552
459555
459557
459558
459565
459566
459574
459580
459585
459599
459604
459609
459619
459622
459632
459648
459672
459679
459691
459693
459699
459702
459711
459720
459727
459733
459755
459763
459767
459788
459793
459797
459806
459811
459816
459824
459825
459830
459831
459835
459845
459846
459854
459866
459870
459906
459908
459913
459915
459916
459923
459924
459943
459962
459966
459971
459976
459990
459991
459992
460013
460037
460046
460060
460073
460080
460084
460113
460117
460127
460129
460136
460150
460152
460153
460154
460158
460159
460167
460175
460178
460186
460190
460229
460233
460237
460245
460247
460250
460281
460297
460300
460312
460314
460316
460317
460320
460322
460328
460335
460341
460345
460347
460369
460372
460379
460393
460400
460409
460428
460435
460439
460444
460452
460456
460470
460514
460516
460519
460521
460525
460546
460548
460549
460567
460572
460579
460584
460588
460597
460600
460601
460606
460611
460621
460625
460626
460635
460668
460673
460685
460688
460693
460699
460700
460704
460710
460725
460728
460730
460742
460751
460752
460765
460767
460780
460781
460788
460789
460807
460811
460834
460842
460847
460862
460878
460886
460892
460893
460894
460896
460903
460912
460913
460936
460941
460961
460972
460974
460978
460986
460989
460990
461005
461014
461019
461020
461025
461058
461081
461086
461094
461098
461105
461122
461135
461140
461145
461154
461176
461187
461200
461207
461208
461270
461294
461302
461318
461324
461331
461338
461344
461348
461364
461389
461396
461404
461409
461414
461424
461432
461436
461438
461440
461442
461467
461469
461470
461471
461477
461498
461501
461504
461552
461554
461568
461588
461590
461602
461603
461605
461617
461627
461633
461635
461636
461642
461644
461651
461655
461667
461681
461682
461684
461707
461709
461719
461721
461754
461761
461762
461785
461790
461795
461808
461822
461830
461836
461848
461857
461864
461872
461874
461885
461889
461891
461894
461897
461909
461915
461924
461936
461946
461963
461965
461968
461975
461976
461978
461981
461995
462004
462005
462007
462017
462018
462034
462054
462066
462079
462106
462108
462111
462135
462138
462147
462155
462157
462167
462173
462188
462192
462196
462201
462214
462221
462223
462249
462253
462262
462265
462266
462268
462272
462281
462285
462289
462292
462302
462317
462320
462323
462326
462333
462335
462336
462348
462370
462377
462385
462387
462389
462397
462402
462406
462416
462421
462432
462437
462441
462457
462462
462478
462480
462481
462485
462487
462494
462495
462497
462499
462503
462504
462506
462508
462511
462524
462529
462530
462536
462539
462553
462565
462568
462582
462587
462592
462595
462624
462637
462650
462664
462666
462669
462671
462676
462679
462686
462693
462711
462718
462720
462724
462738
462740
462742
462777
462783
462785
462787
462789
462796
462815
462824
462832
462854
462860
462861
462865
462867
462870
462871
462873
462883
462891
462892
462895
462897
462898
462906
462924
462955
462957
462962
462964
462967
462995
462996
463007
463009
463019
463023
463043
463064
463068
463071
463082
463084
463086
463094
463107
463112
463114
463115
463118
463132
463143
463154
463156
463164
463185
463228
463263
463271
463277
463295
463301
463309
463311
463329
463343
463344
463345
463355
463358
463369
463375
463380
463385
463389
463391
463397
463400
463403
463439
463448
463457
463464
463468
463480
463494
463497
463517
463525
463534
463537
463540
463542
463543
463547
463555
463565
463575
463577
463584
463591
463615
463617
463620
463627
463635
463638
463641
463644
463645
463649
463651
463652
463653
463662
463665
463668
463669
463670
463682
463685
463688
463697
463716
463731
463733
463755
463776
463780
463799
463800
463802
463807
463813
463824
463828
463842
463848
463854
463876
463879
463882
463889
463892
463894
463896
463898
463901
463902
463905
463906
463914
463915
463937
463938
463945
463956
463962
463963
463965
463975
463980
463983
463987
463988
463995
464002
464003
464005
464018
464021
464029
464031
464034
464038
464046
464057
464088
464107
464109
464115
464124
464129
464133
464135
464141
464154
464163
464169
464186
464191
464202
464208
464214
464230
464237
464242
464252
464259
464262
464266
464272
464278
464280
464292
464307
464322
464326
464341
464349
464360
464393
464400
464402
464422
464431
464436
464444
464458
464477
464478
464485
464487
464488
464493
464508
464510
464514
464549
464551
464554
464561
464583
464586
464590
464593
464595
464598
464599
464603
464613
464618
464640
464667
464669
464674
464679
464681
464695
464696
464697
464702
464713
464724
464727
464733
464744
464746
464747
464758
464759
464760
464761
464762
464765
464781
464785
464786
464787
464788
464809
464819
464820
464835
464841
464849
464881
464899
464922
464924
464928
464938
464941
464942
464945
464946
464949
464957
464959
464975
464979
464981
464982
464998
465003
465012
465024
465039
465041
465051
465052
465053
465054
465057
465059
465070
465074
465075
465077
465090
465100
465103
465115
465119
465125
465126
465133
465148
465150
465155
465161
465165
465169
465171
465172
465176
465188
465205
465214
465233
465236
465241
465256
465268
465269
465270
465271
465277
465306
465319
465323
465331
465333
465343
465344
465346
465351
465353
465355
465362
465363
465364
465368
465372
465375
465390
465394
465401
465412
465431
465440
465442
465443
465445
465452
465457
465459
465464
465475
465487
465496
465497
465500
465506
465513
465514
465529
465531
465544
465564
465589
465592
465595
465606
465624
465643
465648
465655
465670
465679
465690
465696
465703
465706
465708
465720
465725
465731
465745
465755
465756
465774
465783
465784
465792
465799
465823
465825
465846
465870
465873
465877
465910
465916
465963
465964
465965
465966
465967
465978
465982
465997
466018
466030
466040
466048
466050
466054
466072
466080
466083
466085
466088
466089
466093
466095
466104
466106
466108
466120
466129
466130
466134
466135
466141
466147
466163
466166
466167
466169
466170
466180
466194
466203
466214
466220
466225
466234
466241
466245
466256
466261
466263
466267
466280
466294
466298
466310
466318
466319
466324
466333
466353
466355
466363
466364
466365
466373
466375
466379
466391
466401
466404
466405
466413
466427
466428
466430
466433
466439
466444
466451
466458
466467
466474
466485
466497
466519
466521
466538
466541
466542
466545
466546
466549
466558
466568
466576
466591
466593
466594
466599
466612
466613
466631
466632
466633
466634
466637
466644
466648
466650
466654
466660
466665
466666
466668
466689
466690
466697
466703
466705
466706
466720
466724
466751
466754
466755
466765
466769
466780
466784
466810
466813
466816
466822
466824
466830
466852
466854
466857
466859
466862
466874
466898
466925
466971
466976
466977
466983
466986
466993
467012
467015
467018
467026
467027
467028
467031
467050
467055
467059
467070
467072
467091
467096
467098
467105
467112
467118
467121
467124
467125
467126
467131
467133
467141
467163
467195
467196
467202
467207
467228
467229
467238
467239
467241
467247
467262
467272
467273
467275
467279
467307
467309
467321
467332
467346
467354
467380
467383
467389
467392
467399
467401
467411
467418
467420
467429
467432
467434
467438
467440
467457
467464
467468
467474
467482
467487
467494
467503
467508
467514
467518
467523
467530
467540
467560
467566
467591
467605
467622
467630
467631
467638
467645
467655
467662
467669
467671
467690
467693
467695
467697
467703
467704
467708
467709
467716
467721
467734
467743
467752
467762
467767
467781
467795
467807
467810
467824
467838
467847
467857
467858
467872
467873
467883
467896
467917
467919
467922
467926
467939
467951
467956
467960
467985
467988
467992
467997
468005
468006
468009
468025
468029
468030
468032
468037
468039
468040
468050
468054
468058
468065
468077
468078
468084
468091
468097
468116
468118
468134
468139
468143
468146
468152
468170
468174
468186
468189
468192
468199
468205
468206
468211
468219
468223
468226
468235
468244
468249
468250
468251
468271
468276
468277
468280
468288
468293
468294
468297
468299
468300
468303
468305
468306
468317
468319
468322
468336
468340
468363
468384
468394
468417
468421
468430
468445
468449
468454
468458
468459
468468
468473
468475
468486
468488
468497
468499
468501
468511
468518
468526
468533
468544
468546
468549
468561
468562
468565
468567
468574
468580
468583
468584
468585
468594
468600
468602
468604
468609
468616
468619
468626
468633
468637
468655
468660
468662
468674
468676
468685
468688
468701
468705
468708
468721
468726
468749
468753
468764
468775
468776
468786
468790
468795
468800
468808
468814
468821
468825
468826
468828
468832
468833
468836
468841
468847
468853
468854
468856
468859
468864
468868
468874
468881
468882
468885
468889
468895
468908
468909
468913
468920
468922
468928
468929
468930
468936
468948
468954
468957
468959
468966
468979
468984
468986
468992
468998
469002
469007
469008
469010
469023
469029
469030
469047
469057
469058
469062
469065
469071
469072
469073
469076
469079
469083
469087
469089
469090
469101
469106
469122
469138
469145
469153
469154
469160
469168
469170
469185
469193
469203
469219
469224
469225
469227
469243
469244
469248
469251
469259
469272
469289
469290
469296
469300
469304
469313
469314
469324
469325
469331
469342
469354
469369
469374
469375
469384
469387
469388
469398
469400
469401
469406
469419
469429
469430
469434
469439
469453
469469
469475
469483
469487
469517
469522
469528
469536
469541
469542
469548
469553
469562
469583
469586
469595
469596
469610
469618
469637
469640
469643
469646
469649
469652
469657
469660
469677
469679
469681
469685
469691
469692
469695
469701
469711
469714
469716
469728
469730
469733
469738
469756
469763
469769
469775
469777
469783
469788
469797
469799
469803
469807
469810
469818
469827
469831
469832
469839
469847
469852
469857
469866
469872
469873
469879
469880
469885
469886
469890
469891
469897
469900
469901
469903
469907
469918
469925
469931
469939
469959
469964
469967
469968
469969
469970
469982
469983
469985
469991
469992
470003
470016
470017
470023
470026
470027
470029
470034
470040
470045
470070
470072
470085
470101
470102
470106
470116
470122
470124
470126
470130
470136
470138
470157
470158
470167
470169
470173
470177
470185
470186
470191
470192
470194
470210
470224
470226
470230
470233
470240
470242
470246
470247
470258
470270
470273
470279
470282
470283
470285
470286
470291
470294
470297
470305
470319
470325
470328
470334
470337
470341
470343
470360
470366
470371
470372
470376
470392
470393
470401
470415
470422
470430
470434
470440
470444
470445
470455
470459
470461
470470
470489
470491
470497
470503
470507
470519
470520
470521
470526
470530
470531
470537
470558
470565
470566
470581
470592
470595
470597
470607
470612
470614
470622
470640
470644
470651
470659
470671
470674
470676
470681
470688
470696
470703
470714
470715
470721
470729
470733
470734
470736
470756
470765
470767
470774
470778
470783
470784
470806
470814
470836
470838
470845
470846
470852
470855
470865
470876
470882
470886
470895
470896
470898
470899
470916
470922
470926
470934
470939
470948
470950
470953
470955
470956
470959
470963
470976
470990
470991
470993
470996
471015
471018
471023
471025
471031
471040
471041
471042
471058
471063
471069
471074
471078
471084
471086
471093
471097
471110
471118
471124
471125
471126
471131
471133
471135
471136
471148
471151
471152
471159
471163
471170
471175
471176
471183
471205
471208
471209
471213
471214
471222
471223
471227
471239
471240
471245
471249
471250
471255
471256
471260
471264
471273
471276
471287
471304
471306
471309
471323
471328
471334
471340
471343
471345
471346
471350
471351
471353
471358
471361
471374
471382
471401
471404
471407
471408
471428
471431
471434
471444
471447
471454
471457
471476
471478
471482
471486
471510
471514
471519
471530
471535
471536
471538
471539
471548
471556
471558
471560
471561
471563
471566
471567
471572
471574
471582
471597
471600
471605
471627
471632
471633
471637
471639
471641
471643
471645
471653
471654
471657
471662
471670
471681
471687
471691
471696
471703
471704
471726
471732
471741
471744
471746
471748
471756
471775
471782
471784
471786
471792
471804
471809
471812
471815
471818
471819
471826
471828
471832
471841
471844
471858
471860
471871
471876
471880
471881
471883
471895
471896
471898
471902
471904
471909
471911
471921
471924
471925
471927
471928
471930
471945
471952
471954
471958
471959
471970
471971
471987
471989
472005
472006
472014
472016
472018
472035
472036
472047
472055
472056
472059
472061
472064
472065
472068
472071
472075
472079
472095
472106
472112
472113
472118
472120
472122
472123
472134
472165
472179
472182
472203
472223
472225
472229
472231
472234
472247
472256
472262
472268
472269
472278
472281
472287
472292
472298
472300
472303
472305
472317
472321
472322
472329
472334
472338
472343
472356
472375
472383
472385
472388
472404
472410
472419
472422
472430
472434
472437
472444
472452
472457
472458
472469
472476
472478
472479
472498
472512
472514
472518
472519
472523
472528
472530
472535
472539
472544
472552
472554
472555
472558
472562
472564
472566
472569
472574
472584
472589
472594
472597
472601
472602
472603
472607
472612
472617
472618
472625
472626
472632
472635
472652
472655
472664
472670
472674
472677
472683
472688
472700
472708
472710
472714
472722
472723
472731
472738
472743
472747
472753
472761
472763
472764
472769
472770
472771
472791
472792
472794
472799
472805
472806
472811
472813
472819
472823
472843
472844
472851
472853
472860
472863
472873
472880
472881
472883
472887
472903
472904
472915
472917
472935
472945
472969
472978
472981
472983
472986
472988
472993
472998
473000
473014
473017
473025
473027
473033
473044
473047
473051
473052
473059
473063
473064
473066
473077
473085
473087
473093
473094
473105
473114
473115
473117
473122
473126
473129
473134
473142
473147
473152
473159
473160
473178
473182
473192
473201
473202
473203
473213
473214
473222
473223
473228
473229
473231
473239
473241
473244
473250
473255
473258
473276
473280
473288
473305
473310
473311
473320
473328
473336
473341
473344
473347
473364
473371
473378
473380
473385
473388
473396
473400
473402
473424
473435
473436
473437
473439
473442
473452
473457
473463
473471
473482
473483
473485
473488
473490
473499
473500
473515
473544
473547
473555
473569
473574
473578
473581
473586
473589
473591
473599
473601
473607
473628
473631
473635
473640
473647
473648
473656
473661
473671
473674
473687
473688
473692
473695
473704
473706
473722
473725
473728
473731
473732
473740
473746
473748
473755
473759
473778
473780
473788
473797
473798
473810
473816
473827
473831
473843
473855
473858
473861
473868
473869
473884
473886
473889
473900
473903
473916
473930
473936
473937
473951
473955
473956
473978
473987
473995
474005
474011
474020
474023
474039
474041
474043
474047
474052
474053
474062
474065
474068
474070
474078
474083
474086
474088
474103
474113
474116
474117
474129
474130
474134
474140
474144
474152
474155
474159
474160
474163
474164
474167
474172
474173
474175
474181
474183
474186
474187
474192
474193
474198
474200
474203
474210
474212
474222
474239
474241
474243
474248
474253
474267
474273
474280
474289
474302
474311
474319
474320
474333
474334
474337
474341
474384
474391
474394
474404
474412
474420
474421
474424
474426
474448
474452
474463
474466
474469
474470
474476
474482
474490
474492
474511
474512
474523
474525
474527
474529
474530
474541
474543
474548
474557
474559
474560
474561
474568
474573
474579
474583
474587
474588
474590
474601
474602
474613
474616
474617
474629
474635
474637
474638
474639
474647
474648
474649
474653
474656
474671
474675
474677
474679
474691
474695
474698
474700
474704
474713
474715
474731
474734
474735
474746
474747
474761
474766
474771
474773
474776
474779
474783
474789
474790
474791
474794
474809
474815
474816
474819
474821
474822
474824
474835
474836
474839
474844
474852
474857
474870
474874
474876
474893
474894
474904
474905
474909
474911
474914
474923
474925
474930
474938
474950
474962
474974
474977
474980
474995
475000
475003
475005
475006
475009
475013
475017
475020
475022
475023
475029
475031
475037
475040
475041
475042
475052
475060
475061
475066
475067
475071
475073
475083
475087
475088
475089
475094
475098
475105
475133
475138
475143
475147
475148
475149
475153
475163
475168
475169
475179
475191
475194
475200
475207
475214
475215
475220
475226
475234
475242
475247
475249
475251
475261
475264
475267
475274
475278
475285
475286
475290
475291
475297
475324
475326
475327
475353
475357
475359
475366
475369
475374
475377
475380
475382
475385
475396
475399
475400
475409
475411
475413
475432
475434
475436
475438
475447
475449
475465
475470
475473
475482
475486
475492
475493
475496
475506
475509
475516
475518
475519
475526
475529
475540
475548
475550
475560
475567
475575
475584
475593
475597
475609
475621
475624
475630
475635
475639
475641
475647
475648
475651
475658
475667
475676
475681
475687
475689
475693
475717
475720
475735
475736
475739
475757
475769
475775
475784
475799
475801
475803
475805
475815
475823
475825
475834
475842
475843
475860
475861
475868
475871
475872
475881
475887
475897
475908
475910
475918
475927
475930
475936
475937
475950
475951
475953
475954
475967
475971
475996
476012
476015
476023
476026
476033
476047
476048
476079
476090
476091
476097
476101
476114
476116
476118
476130
476140
476147
476148
476165
476167
476169
476171
476174
476176
476177
476182
476186
476189
476194
476196
476200
476202
476208
476214
476215
476234
476240
476242
476246
476248
476253
476256
476278
476288
476289
476290
476291
476298
476314
476318
476323
476326
476330
476348
476352
476358
476360
476368
476371
476379
476383
476386
476394
476396
476398
476400
476414
476416
476419
476449
476468
476479
476480
476486
476491
476496
476497
476505
476506
476507
476509
476511
476539
476541
476557
476564
476565
476575
476577
476578
476579
476581
476583
476593
476602
476610
476612
476613
476618
476619
476620
476627
476631
476632
476634
476656
476660
476662
476671
476672
476673
476677
476678
476679
476680
476681
476682
476686
476689
476690
476692
476695
476702
476710
476719
476723
476733
476737
476738
476748
476752
476753
476756
476769
476776
476778
476781
476784
476791
476799
476800
476827
476830
476832
476843
476850
476852
476854
476858
476864
476867
476875
476880
476881
476882
476884
476896
476903
476904
476917
476920
476922
476927
476930
476944
476946
476953
476955
476957
476964
476978
476984
476995
477006
477016
477017
477022
477024
477027
477034
477036
477039
477040
477043
477049
477053
477058
477074
477076
477080
477082
477086
477087
477093
477096
477100
477110
477119
477120
477132
477133
477141
477144
477145
477148
477153
477155
477161
477170
477172
477173
477175
477176
477179
477182
477192
477213
477217
477223
477226
477228
477230
477232
477242
477248
477252
477254
477257
477258
477262
477266
477280
477281
477289
477292
477296
477298
477300
477306
477311
477312
477326
477333
477338
477339
477348
477350
477351
477357
477363
477366
477370
477373
477374
477382
477396
477399
477412
477423
477439
477443
477444
477445
477449
477452
477470
477472
477482
477491
477495
477515
477518
477522
477524
477533
477535
477547
477548
477552
477558
477563
477569
477575
477582
477585
477595
477599
477600
477601
477606
477609
477613
477616
477628
477629
477631
477632
477636
477640
477642
477650
477653
477657
477674
477675
477677
477698
477702
477703
477705
477706
477708
477710
477724
477730
477735
477737
477738
477739
477742
477753
477754
477755
477762
477765
477775
477780
477783
477787
477789
477791
477794
477796
477802
477803
477807
477809
477810
477826
477829
477837
477839
477840
477844
477849
477852
477861
477867
477868
477875
477876
477905
477909
477915
477926
477930
477946
477951
477958
477967
477968
477970
477972
477977
477982
477983
477985
477987
477989
477994
478003
478007
478014
478023
478046
478049
478057
478062
478067
478073
478075
478086
478092
478096
478101
478103
478111
478115
478119
478120
478121
478127
478133
478137
478142
478146
478154
478164
478166
478178
478181
478182
478186
478189
478191
478196
478197
478205
478215
478218
478230
478243
478248
478253
478254
478265
478267
478272
478281
478282
478288
478290
478294
478304
478323
478329
478330
478332
478345
478350
478354
478357
478361
478364
478367
478371
478380
478389
478393
478394
478415
478418
478423
478426
478427
478428
478437
478439
478441
478445
478446
478448
478449
478455
478456
478457
478477
478479
478482
478491
478493
478499
478501
478502
478513
478514
478520
478535
478541
478545
478549
478552
478553
478560
478563
478572
478575
478576
478581
478589
478590
478593
478603
478604
478607
478608
478612
478619
478621
478629
478633
478651
478652
478657
478661
478662
478663
478664
478665
478670
478671
478682
478686
478708
478713
478718
478720
478728
478732
478736
478745
478748
478751
478761
478762
478765
478770
478779
478783
478789
478790
478793
478794
478800
478806
478815
478831
478841
478842
478844
478846
478850
478854
478861
478863
478865
478874
478875
478877
478880
478887
478888
478895
478897
478898
478901
478904
478913
478915
478922
478939
478943
478946
478964
478984
478986
479007
479011
479012
479015
479016
479017
479019
479025
479026
479027
479033
479034
479039
479040
479047
479057
479064
479082
479093
479095
479097
479102
479107
479109
479129
479133
479134
479136
479145
479151
479152
479164
479165
479168
479171
479172
479173
479181
479184
479190
479203
479208
479213
479214
479225