/*--------------------------------*- C++ -*----------------------------------*\
  =========                 |
  \\      /  F ield         | OpenFOAM: The Open Source CFD Toolbox
   \\    /   O peration     | Website:  https://openfoam.org
    \\  /    A nd           | Version:  7
     \\/     M anipulation  |
\*---------------------------------------------------------------------------*/
FoamFile
{
    version     2.0;
    format      ascii;
    class       scalarField;
    location    "0.00216/lagrangian/dsmc";
    object      Ei;
}
// * * * * * * * * * * * * * * * * * * * * * * * * * * * * * * * * * * * * * //


23992
(
1.13672e-21
2.28755e-22
2.87282e-22
4.98248e-21
6.63002e-21
2.04709e-20
1.00773e-21
7.94394e-21
1.71409e-21
1.9896e-20
2.16426e-20
1.02024e-20
1.62376e-20
6.98328e-21
5.91282e-21
1.37724e-20
4.45803e-21
3.33816e-20
9.27207e-22
1.06984e-20
4.42719e-21
8.17031e-21
3.34387e-21
3.58416e-20
1.76467e-20
2.27954e-20
3.5155e-21
6.28471e-21
2.38979e-20
9.6609e-21
2.16835e-20
2.90373e-21
2.17679e-20
3.57321e-22
4.6023e-21
1.12221e-20
4.71603e-21
1.07425e-20
5.01818e-21
9.73022e-22
2.5432e-20
1.58203e-20
2.70551e-20
3.07607e-20
3.66366e-20
3.98325e-22
3.71371e-21
2.17911e-20
9.38165e-21
4.30939e-21
5.73904e-21
6.23561e-21
1.38927e-20
1.69347e-20
2.5203e-21
8.4343e-23
4.87861e-22
2.78171e-21
8.7123e-22
8.20232e-21
2.23516e-20
1.40047e-20
2.15862e-20
1.112e-21
2.87329e-21
2.25302e-21
1.48337e-21
1.06225e-20
2.35655e-21
8.04368e-22
2.40998e-20
1.61069e-20
2.23645e-20
1.20645e-22
5.47742e-20
8.56123e-21
4.18489e-21
1.6549e-21
6.40338e-21
1.17827e-20
1.98677e-21
1.1651e-20
5.60834e-21
1.73272e-20
3.11807e-20
1.46418e-21
2.45719e-20
1.00155e-21
1.69466e-21
7.18732e-21
2.32456e-20
2.77547e-20
1.47338e-20
5.82192e-20
1.23603e-21
2.85093e-20
2.45849e-21
1.79107e-20
2.41443e-21
2.76435e-20
3.42451e-21
1.39614e-21
1.50442e-21
1.61244e-20
2.69314e-20
2.80765e-21
9.44575e-21
2.67458e-21
4.22374e-22
8.40158e-21
2.27381e-20
1.48175e-20
1.72468e-21
8.14779e-21
1.57826e-20
7.95286e-21
5.35282e-21
4.81834e-21
1.71185e-20
8.36509e-21
4.71651e-21
1.89511e-20
2.04041e-20
6.74476e-21
2.19708e-21
2.73235e-20
2.80047e-22
1.13765e-20
3.88722e-21
3.14271e-21
2.08785e-22
1.25798e-20
6.32563e-21
4.98786e-21
2.28592e-20
9.4263e-22
5.58834e-21
1.47469e-20
1.76735e-20
1.71077e-20
1.9434e-21
5.3771e-22
6.94973e-21
1.91947e-21
4.75119e-21
2.92935e-20
1.50635e-20
3.11855e-21
2.33587e-21
1.33486e-20
5.05404e-20
1.36795e-20
5.47509e-21
2.55828e-20
2.10897e-20
1.82226e-20
1.26191e-20
6.89977e-20
3.67019e-21
3.8605e-21
1.76461e-20
1.9348e-20
1.4378e-21
4.80544e-21
2.79638e-20
2.13383e-21
1.46614e-20
3.59818e-21
7.04532e-21
6.65895e-22
3.08007e-20
8.62693e-21
4.51776e-21
1.99634e-21
8.50486e-21
1.53215e-20
1.50609e-20
4.50167e-21
6.24811e-21
2.45067e-20
1.04227e-20
2.46225e-21
2.41822e-21
6.90452e-21
3.17893e-20
1.47487e-20
5.05073e-21
3.33964e-21
2.14903e-21
6.77371e-20
1.70806e-21
7.50809e-21
5.42669e-21
1.50052e-21
5.7124e-21
6.04889e-21
7.62319e-21
6.13839e-21
2.3658e-20
6.57674e-21
1.0112e-20
2.06521e-20
1.11131e-21
1.51722e-20
6.39209e-21
2.29617e-21
1.16736e-20
1.265e-20
7.03766e-21
3.83064e-20
6.38844e-22
4.85647e-21
4.00291e-20
2.50531e-20
5.60675e-21
1.56189e-21
8.21946e-21
2.4583e-21
3.96029e-21
2.13484e-20
3.94141e-21
8.19467e-21
4.64775e-22
1.85412e-23
4.97158e-21
4.00164e-22
3.73632e-20
2.30271e-21
1.832e-21
1.12381e-20
2.75916e-20
1.08745e-20
1.55275e-20
3.29109e-21
3.02841e-20
1.00861e-20
5.43328e-21
4.48414e-20
7.44298e-21
4.33854e-21
4.23934e-20
4.25808e-21
2.5781e-20
1.60336e-20
2.96513e-21
9.31889e-21
5.56449e-21
2.41416e-20
1.70839e-20
8.88064e-21
9.2824e-21
3.43255e-20
7.40179e-22
4.80296e-21
1.44872e-20
3.02952e-21
8.65303e-21
2.72302e-21
3.13809e-21
7.31968e-21
1.80393e-20
6.65842e-21
9.92563e-21
3.21573e-21
1.61338e-20
8.73168e-21
9.02757e-21
4.99242e-20
2.56443e-20
1.40167e-20
1.92483e-20
5.28077e-20
2.08663e-20
3.54515e-21
1.1013e-20
5.71709e-22
2.29422e-21
3.60609e-21
6.69424e-21
1.02799e-20
2.74e-21
1.20642e-20
1.01311e-20
9.32896e-21
2.03019e-20
1.02015e-20
1.27207e-20
1.02301e-20
4.88753e-21
1.11476e-20
4.17631e-21
3.23409e-22
1.68721e-20
2.3428e-20
2.71586e-21
5.29593e-21
2.04825e-20
9.47992e-22
2.21817e-20
1.5878e-20
9.49873e-22
7.14402e-21
1.02059e-20
5.33308e-21
3.96532e-21
4.45996e-21
1.28971e-20
2.83898e-20
1.55779e-20
3.69265e-21
4.04461e-20
9.42383e-21
3.40806e-21
6.61947e-21
4.50311e-21
6.99203e-21
7.49097e-21
9.35365e-21
1.0656e-20
6.72811e-22
3.28731e-21
1.48074e-21
7.36978e-21
4.66564e-21
9.88526e-22
5.10136e-21
7.06346e-21
1.72151e-20
9.64581e-22
1.06069e-20
5.66564e-21
1.90154e-20
1.83735e-20
1.35903e-20
4.47501e-20
1.08473e-20
4.92483e-21
2.31089e-20
3.13487e-20
1.64937e-20
6.14656e-20
9.27715e-21
6.69002e-21
5.42305e-21
4.64459e-21
6.00385e-20
5.65444e-20
2.89517e-20
2.69926e-21
1.9891e-20
3.99617e-21
2.44936e-21
1.08332e-20
1.8385e-20
3.60329e-21
6.19635e-20
4.03125e-21
4.33771e-22
1.05351e-20
2.03769e-20
1.72061e-22
2.11703e-20
1.55943e-20
8.0344e-21
2.64312e-20
2.60693e-21
3.58858e-21
2.57176e-21
2.72279e-20
1.98313e-20
1.11478e-20
1.89893e-20
9.40002e-21
5.81923e-20
6.39512e-21
3.54065e-21
5.88463e-21
1.47785e-20
1.47587e-20
6.99075e-21
4.10236e-21
8.4977e-21
8.8604e-21
1.52911e-21
4.3754e-21
1.42981e-21
1.59404e-20
1.10072e-20
5.60786e-21
6.84327e-22
6.19541e-21
9.09668e-21
1.75622e-20
5.43333e-20
3.58951e-21
1.38778e-20
1.06341e-20
1.61732e-20
1.59448e-21
8.66834e-21
4.99566e-21
1.48932e-20
1.73228e-20
6.91482e-21
8.63058e-21
1.66782e-21
3.83185e-21
9.56988e-21
3.16189e-20
9.39514e-21
8.56259e-21
2.09195e-20
6.0182e-21
1.98088e-20
7.97252e-21
1.67825e-20
2.5187e-20
2.43016e-20
2.94941e-20
8.14672e-21
6.48253e-22
1.81273e-20
3.88576e-20
2.06294e-20
8.61451e-21
1.40738e-20
3.6706e-21
1.2179e-20
9.51431e-23
1.49118e-21
3.83696e-21
4.57156e-22
4.09531e-21
2.21352e-20
5.75885e-21
1.13652e-20
4.5473e-21
4.81192e-21
1.69829e-20
1.16368e-20
4.95912e-22
7.34387e-22
1.64444e-20
2.86006e-20
1.82339e-21
3.50286e-20
1.188e-21
1.2185e-20
3.19854e-21
9.67677e-21
2.32986e-21
4.77e-22
1.05316e-20
2.68258e-20
3.04136e-21
1.06965e-20
1.4702e-20
3.15538e-21
1.01153e-21
9.7341e-21
1.80023e-21
2.25811e-21
1.92302e-21
2.76743e-20
9.94154e-21
1.04087e-20
6.15446e-21
2.48128e-20
2.44528e-20
3.50863e-22
3.40637e-21
4.30241e-22
1.46429e-20
3.79387e-21
5.85634e-21
3.87273e-21
1.76442e-20
3.37493e-20
2.00981e-20
3.46793e-21
1.18135e-20
1.58384e-20
1.25767e-20
3.32531e-21
7.55368e-21
1.25865e-20
1.64465e-20
6.16181e-21
2.25517e-21
6.90584e-21
9.05324e-21
1.21609e-20
1.3275e-20
2.19084e-21
1.35373e-20
1.01853e-20
1.38169e-20
2.58391e-20
1.32333e-20
7.91582e-21
7.51792e-21
1.08145e-20
1.53792e-21
3.09006e-21
1.42212e-21
2.31412e-20
1.4812e-20
1.94484e-21
4.81435e-22
1.53427e-21
1.72525e-21
2.13757e-20
4.71297e-20
6.44874e-21
8.07796e-22
5.78935e-20
3.50755e-22
9.06954e-21
8.17028e-21
7.36019e-21
2.78931e-20
4.88566e-21
1.56467e-20
2.50078e-20
5.73824e-21
8.95453e-21
3.91421e-21
1.71187e-20
4.41604e-20
8.59523e-21
1.30412e-20
1.92138e-21
2.8145e-22
5.86515e-21
3.02864e-20
2.25807e-20
2.81475e-20
4.62746e-21
2.96534e-21
1.30513e-20
1.8217e-20
1.2577e-20
2.00036e-20
4.51721e-21
6.28227e-21
5.23856e-21
1.11437e-20
1.13897e-20
1.95048e-22
5.84777e-21
3.92688e-21
2.18523e-22
3.46412e-21
2.59117e-20
1.83775e-21
3.66501e-20
1.2085e-21
5.84175e-21
3.19537e-21
1.03751e-20
6.22795e-21
1.446e-20
8.01664e-21
3.29366e-21
7.01851e-21
5.30487e-21
2.89144e-20
3.65976e-21
3.38311e-21
9.97219e-21
2.18383e-20
2.21289e-20
8.32175e-21
3.35365e-21
2.38217e-20
4.11661e-21
6.85398e-21
5.74065e-21
1.4232e-20
7.87113e-21
4.58048e-21
1.74078e-20
1.14238e-20
4.63374e-21
1.7618e-20
3.06724e-21
8.31797e-21
2.3368e-21
7.14687e-20
2.77961e-20
2.19544e-20
2.79219e-20
5.54995e-20
8.99097e-21
5.10301e-21
2.67301e-20
6.5853e-21
9.95767e-21
1.03835e-20
5.87112e-21
2.19738e-20
3.03322e-20
1.66491e-20
5.80454e-21
9.03142e-21
6.28074e-21
1.44368e-20
6.4697e-21
9.36624e-21
2.14128e-20
1.97174e-21
4.7965e-21
9.37344e-22
1.52586e-21
6.84086e-22
1.14073e-20
1.68531e-21
4.10324e-21
1.11664e-21
1.94579e-21
3.84754e-22
2.28105e-21
2.29041e-20
5.22063e-21
4.30312e-21
2.38399e-20
5.34648e-21
9.93581e-21
2.89671e-21
1.6899e-20
9.77837e-21
1.13446e-20
1.71327e-21
2.14384e-20
2.66502e-20
1.53398e-20
1.95421e-22
5.07015e-22
1.53149e-20
9.93701e-21
1.405e-21
2.81111e-21
6.80035e-22
4.45553e-22
5.43308e-21
3.02224e-20
5.99934e-21
1.48784e-20
1.92347e-20
1.82074e-21
4.67525e-21
3.76741e-21
1.38261e-20
1.25611e-21
4.17135e-20
6.573e-22
6.51205e-20
1.2326e-20
5.94e-22
1.95504e-21
4.88939e-21
1.81924e-20
9.76817e-22
2.82929e-21
1.87822e-20
2.56631e-21
2.3972e-20
9.20922e-21
3.50999e-20
1.22839e-20
7.80779e-21
1.5829e-21
1.34499e-20
2.19503e-20
2.83748e-21
2.20056e-21
6.16753e-22
5.90036e-22
9.73015e-21
1.88665e-20
6.43514e-21
6.1288e-21
1.42836e-20
1.10362e-20
4.0944e-20
2.15559e-22
8.93884e-21
3.52214e-21
1.34429e-20
2.95076e-21
4.21409e-21
1.34218e-20
4.49821e-20
6.1547e-21
1.66963e-20
2.3814e-20
8.63757e-21
4.38176e-20
6.25118e-21
2.07788e-20
6.39885e-22
3.77335e-20
1.70778e-20
6.72777e-21
4.91937e-21
1.22123e-20
1.12825e-20
1.16875e-20
5.2352e-21
6.43571e-21
1.37178e-21
1.24044e-20
2.69886e-21
7.70857e-21
1.08996e-20
5.88163e-21
6.56201e-21
5.59509e-21
1.25198e-20
1.84393e-22
5.42431e-22
1.47407e-20
5.40631e-21
3.17659e-21
2.56832e-21
3.66537e-20
7.16125e-21
2.6411e-20
1.5443e-21
1.3678e-20
1.22011e-20
1.49525e-20
5.00876e-21
6.1415e-21
8.26697e-21
6.14081e-21
5.9298e-21
4.13085e-21
4.18522e-21
4.82152e-21
1.0933e-20
1.98489e-20
2.045e-20
6.05821e-21
1.48651e-20
8.95231e-21
2.50759e-21
1.06433e-20
8.60699e-21
1.07619e-20
1.19017e-20
4.14145e-20
5.07019e-21
1.97466e-20
1.98948e-20
9.52782e-21
9.89321e-21
1.35501e-21
1.21528e-20
2.91482e-20
1.42494e-20
2.74823e-21
8.16634e-21
4.35308e-21
5.90526e-21
1.08961e-20
3.38166e-21
3.7726e-21
4.51467e-21
5.27968e-21
1.07627e-20
1.83267e-20
1.41361e-20
1.71738e-21
8.46335e-21
2.20916e-20
4.34172e-23
2.3485e-21
6.48432e-22
2.14355e-21
6.01834e-21
3.54261e-21
8.1599e-21
1.59956e-20
2.80951e-21
2.47643e-20
4.32436e-21
4.91616e-21
1.8402e-21
1.52806e-21
9.10917e-21
2.10796e-20
2.57198e-22
2.63162e-23
2.37528e-21
2.30582e-21
4.55318e-21
2.63157e-21
1.28202e-20
8.86832e-21
1.78474e-20
1.23439e-20
1.00911e-20
5.37387e-23
3.01761e-20
3.48012e-20
1.14882e-20
2.71747e-20
2.21888e-20
3.72293e-20
1.1565e-20
2.44826e-20
5.41935e-21
3.2548e-21
1.57535e-20
5.68669e-21
5.88697e-21
3.84443e-21
4.21019e-22
3.57385e-21
2.57659e-21
1.87859e-21
2.02882e-21
7.09694e-21
2.27311e-20
1.9824e-20
1.7725e-20
1.28761e-20
1.85805e-20
5.95833e-22
3.12603e-20
2.09073e-20
9.78965e-21
1.98854e-21
7.30439e-21
3.56519e-21
2.1049e-20
2.53991e-20
1.34677e-21
7.72682e-21
1.82489e-20
4.36782e-21
1.33243e-20
1.24918e-20
3.47565e-21
6.41015e-21
2.11989e-21
1.53669e-20
7.39972e-21
2.18729e-21
3.07748e-20
1.54319e-20
8.58163e-22
4.30853e-20
2.9211e-20
1.04896e-20
1.45733e-20
6.39663e-20
8.19287e-21
4.14569e-21
1.87025e-21
2.16019e-20
1.21119e-20
9.69817e-21
3.75654e-22
2.29625e-21
1.93703e-20
4.22045e-20
1.81105e-20
1.50928e-20
2.03072e-20
9.34056e-21
1.13969e-20
1.05235e-21
4.12179e-20
2.203e-21
1.18272e-20
7.07763e-21
2.76187e-20
1.49225e-20
4.48386e-21
2.3466e-21
2.40362e-20
6.06154e-21
1.58095e-20
1.31492e-20
5.7851e-21
2.07607e-21
2.9396e-20
3.849e-21
1.60821e-20
1.83025e-20
3.59573e-21
8.83959e-21
9.89411e-22
1.03123e-21
5.98911e-21
4.70726e-21
9.51404e-21
2.02598e-20
2.52877e-20
6.67234e-21
1.21739e-20
1.61716e-20
8.30244e-22
1.94991e-20
7.60599e-21
4.28862e-20
1.50265e-20
1.49037e-21
1.52611e-20
1.05547e-21
9.86091e-22
1.46484e-20
3.34058e-20
4.19404e-21
2.82923e-20
4.87731e-21
1.98087e-20
2.91485e-20
5.99053e-21
1.36858e-20
4.33985e-22
6.8888e-21
4.54091e-21
2.11048e-20
1.75114e-21
2.60841e-20
7.57612e-21
5.50077e-21
1.13458e-20
5.43843e-21
3.99562e-21
1.43076e-21
1.23854e-21
2.34944e-21
7.94981e-21
2.12437e-20
6.70708e-22
4.20506e-21
5.70509e-21
1.44111e-21
2.20235e-21
1.27902e-20
1.48183e-20
2.98677e-20
4.38119e-21
3.95445e-21
6.28316e-22
4.83495e-21
2.42436e-20
9.29286e-21
1.63149e-20
3.42323e-20
8.25158e-21
1.16631e-20
6.26443e-21
3.43001e-21
7.20421e-20
1.32669e-21
1.07984e-20
1.03511e-20
1.06025e-20
9.77875e-21
6.68044e-21
1.22539e-20
2.41785e-21
1.10591e-20
5.54303e-21
3.26473e-21
4.55933e-20
4.47949e-21
1.40601e-20
2.39883e-20
2.02065e-21
5.07909e-21
2.73236e-20
3.26711e-20
1.36976e-20
3.87538e-21
1.66346e-20
1.73715e-20
1.21013e-20
1.07943e-20
1.62548e-20
6.70808e-21
1.38539e-20
6.24526e-21
5.14968e-21
9.64792e-21
9.84132e-22
2.88496e-20
9.79164e-22
5.54704e-21
6.33883e-21
1.90973e-20
3.43239e-21
6.01707e-21
1.78281e-21
1.25763e-20
3.2118e-20
1.02462e-20
1.4529e-20
1.1041e-21
7.03767e-23
3.7911e-21
4.24624e-21
1.83485e-20
6.41563e-21
7.05483e-21
3.14388e-21
3.60776e-21
7.90663e-20
4.44083e-21
1.38392e-20
8.37747e-21
2.38802e-20
5.45552e-21
2.18483e-21
8.31338e-22
3.60387e-21
2.29548e-20
9.5701e-21
5.70595e-23
1.31144e-21
2.91284e-20
1.45612e-20
2.45666e-21
5.64277e-21
1.40719e-20
3.15369e-20
3.64746e-21
6.46146e-21
2.33281e-22
8.2274e-21
6.23824e-21
6.92156e-21
1.0763e-20
2.78496e-21
3.42838e-20
7.12695e-21
6.66779e-21
2.92534e-20
1.37857e-20
8.47627e-22
3.64026e-20
4.45389e-21
2.99991e-20
8.44611e-21
3.31934e-20
3.28005e-21
9.37458e-21
1.02985e-20
5.75596e-21
5.61968e-21
5.60049e-21
2.6434e-20
2.28215e-21
3.60688e-20
2.37253e-21
9.54553e-21
1.52159e-21
4.63773e-21
3.10587e-21
1.2794e-20
1.76099e-20
2.59887e-20
1.79307e-20
3.11843e-20
4.88941e-21
2.36373e-21
2.28412e-22
3.28019e-21
4.63471e-20
2.55309e-21
3.58898e-20
1.70387e-20
1.00247e-20
2.78311e-20
7.51799e-21
9.31485e-22
1.14419e-20
5.69198e-20
1.24143e-20
1.00942e-20
1.10384e-20
3.57659e-21
1.05735e-20
6.84108e-21
3.67002e-20
2.50639e-21
7.29403e-22
4.47057e-21
1.59676e-20
4.74495e-20
1.00493e-21
4.03e-21
1.44738e-20
9.836e-21
4.00059e-20
1.18887e-20
1.93508e-20
8.45136e-22
6.36831e-21
1.42742e-20
7.09954e-21
5.14234e-21
1.18143e-20
2.10995e-20
3.93212e-21
6.83093e-20
2.45288e-21
1.54234e-21
2.05741e-23
5.32224e-21
6.92311e-21
2.70073e-20
1.72632e-20
4.70686e-22
4.47545e-21
6.91209e-21
3.55325e-20
5.2158e-21
1.41137e-20
9.45804e-21
1.53942e-20
4.73182e-21
1.02505e-20
4.15201e-20
9.41426e-21
5.19561e-21
9.0587e-21
1.11713e-21
1.2381e-20
3.88559e-22
6.47514e-21
8.33189e-22
2.03974e-20
2.63629e-21
4.84321e-21
9.43384e-21
2.18719e-21
3.25936e-21
1.06495e-21
1.05559e-20
9.29011e-21
1.36971e-20
1.87082e-20
1.99367e-21
2.50235e-20
1.01221e-20
1.37766e-20
9.68717e-22
8.84137e-21
8.92439e-21
9.78029e-21
1.25728e-21
7.1339e-21
3.51803e-21
1.32796e-20
5.81874e-21
1.4005e-21
5.38945e-20
2.47285e-20
7.09619e-21
9.17367e-21
7.38909e-21
9.66818e-21
4.26982e-20
1.37846e-20
4.06531e-21
1.1668e-20
1.4505e-20
1.21135e-20
9.63061e-21
2.42049e-20
3.71973e-20
8.15195e-21
3.66657e-20
3.34066e-21
1.97836e-21
1.60854e-20
1.21799e-20
2.37218e-20
2.56309e-20
3.34392e-22
1.1848e-20
1.70598e-21
1.5255e-20
1.56275e-20
9.47015e-22
5.84848e-21
4.18458e-21
1.56998e-20
4.35219e-21
1.01844e-20
9.53573e-21
5.18201e-21
5.9474e-21
2.01576e-21
4.11371e-21
1.63859e-20
1.47204e-20
8.57541e-21
5.31722e-21
1.97414e-21
1.95028e-20
1.79913e-21
4.67063e-21
5.58843e-21
6.79387e-21
9.15723e-21
6.6487e-21
1.90305e-20
3.83837e-21
2.28913e-20
1.12527e-21
7.7228e-22
1.77904e-20
1.1777e-20
3.28682e-21
1.37496e-20
2.38329e-20
7.24039e-21
2.4826e-21
6.37571e-21
2.47584e-21
3.32197e-22
6.79835e-22
7.7696e-21
8.06106e-21
1.38882e-20
2.85783e-21
6.69793e-21
2.97129e-21
3.93506e-20
9.41042e-21
1.117e-20
1.5818e-20
4.32057e-22
5.14719e-21
3.09026e-21
4.83087e-22
3.07506e-20
5.65995e-21
2.22494e-20
1.42857e-20
3.00897e-20
2.15944e-20
9.45839e-21
2.46518e-21
7.55193e-21
4.37496e-21
1.9969e-21
1.81683e-20
8.83449e-21
1.72887e-21
5.75861e-21
2.09121e-21
8.94372e-20
1.65e-20
8.06848e-21
2.65453e-21
1.02456e-21
5.72652e-21
2.10281e-20
7.63074e-21
8.88682e-21
1.09805e-20
2.06217e-20
1.98708e-21
1.31328e-21
2.30124e-20
1.94323e-20
5.2093e-21
2.87591e-20
6.28661e-21
1.62083e-20
4.50994e-20
3.22298e-20
8.25091e-21
6.53298e-21
3.17407e-20
1.78486e-20
2.98775e-20
8.79026e-21
2.67683e-20
3.67837e-21
2.38621e-20
9.51006e-21
4.55483e-21
1.61034e-20
3.38673e-20
3.87203e-20
7.32415e-21
1.78343e-20
4.39226e-21
4.90707e-21
7.69276e-21
7.56549e-21
2.20554e-20
7.57403e-21
6.94049e-21
2.80086e-21
2.84902e-20
1.49005e-21
1.11125e-21
4.51708e-21
5.77504e-21
7.48669e-21
7.41355e-22
2.08099e-20
1.24187e-20
3.66824e-21
2.34777e-20
1.72563e-20
1.76912e-21
7.49351e-21
4.30885e-21
2.21101e-20
1.83487e-20
6.64905e-21
1.23398e-21
1.74947e-21
1.37134e-21
1.54133e-21
1.72959e-20
3.38283e-21
6.07639e-21
1.00393e-20
2.26349e-21
1.10142e-20
6.08961e-21
5.10449e-21
1.27153e-20
4.34574e-22
2.31276e-21
5.31415e-21
4.85398e-21
3.26192e-21
2.70943e-20
2.44516e-20
2.54237e-20
4.0153e-20
2.04515e-20
1.99928e-21
1.62636e-20
8.72173e-21
6.23504e-21
1.38354e-21
1.16798e-21
1.57748e-20
1.11437e-21
2.10388e-21
1.10617e-20
5.91603e-21
1.61735e-20
4.59717e-21
1.28527e-20
2.91411e-20
5.88055e-21
2.09422e-21
7.08146e-21
4.34414e-20
1.43172e-20
1.22638e-21
4.41973e-21
3.38535e-20
4.19964e-21
1.72421e-20
1.40844e-20
9.3115e-21
9.72124e-21
3.07975e-20
6.96113e-21
6.3428e-21
5.12077e-20
3.68478e-21
1.53082e-20
1.5768e-20
4.85556e-21
2.47845e-20
5.76307e-21
3.70446e-21
1.1231e-20
7.12955e-21
3.55443e-21
5.34129e-21
5.00253e-21
1.76223e-20
9.08514e-22
2.10631e-21
4.58555e-20
1.79531e-20
1.72702e-20
8.89923e-21
8.02403e-21
7.60948e-22
2.90255e-21
3.93381e-21
1.17573e-20
1.96355e-20
3.21642e-21
4.50976e-21
7.63135e-21
4.49591e-21
1.09883e-20
9.84968e-21
1.69795e-20
1.37553e-20
5.08044e-21
1.42642e-20
1.96795e-20
1.41318e-20
3.00539e-20
1.51195e-21
9.94883e-21
2.44802e-20
1.49703e-21
2.31332e-20
4.50288e-21
9.31603e-21
1.19468e-21
1.77477e-20
6.68955e-21
1.31902e-22
2.61733e-21
1.05008e-21
5.99265e-21
9.10161e-22
3.96957e-20
2.54989e-20
1.3183e-20
6.85258e-21
2.56533e-20
3.90908e-21
7.00312e-22
1.19466e-21
3.38462e-21
1.50755e-20
1.73081e-20
1.65922e-21
9.20764e-21
2.88504e-20
3.58655e-22
5.67813e-21
1.77101e-20
1.4632e-21
2.43805e-20
1.62132e-20
1.27118e-20
1.53127e-20
4.55116e-20
2.4701e-20
3.25078e-20
1.64433e-20
8.81503e-22
1.69301e-21
1.32283e-20
1.30708e-20
9.97665e-21
5.51951e-20
3.86334e-21
1.36579e-20
7.9523e-21
3.24166e-20
1.94951e-21
4.1246e-22
1.21109e-20
4.99095e-23
3.9403e-20
4.99004e-21
5.3663e-21
2.49622e-21
1.1357e-20
2.47596e-20
7.08198e-21
9.03565e-21
4.76762e-20
1.10868e-20
1.42872e-20
2.27191e-20
7.71899e-21
1.45363e-20
1.23765e-20
1.49335e-20
2.58255e-20
4.0807e-20
7.66563e-21
1.83861e-21
4.65621e-21
8.01744e-21
6.16421e-21
2.54626e-20
2.35874e-20
1.2994e-21
1.60964e-20
1.1601e-21
4.15657e-21
1.8488e-20
2.00668e-20
1.27965e-22
7.49432e-21
1.02683e-20
1.82358e-20
2.79519e-20
2.65162e-20
1.10876e-22
4.00061e-21
3.73239e-20
8.35688e-21
5.68217e-22
2.07613e-20
4.695e-21
8.33535e-21
1.15517e-21
7.90114e-22
1.98467e-21
1.33994e-20
1.68608e-20
8.02733e-22
3.4593e-21
1.82135e-20
2.54117e-20
4.15295e-21
3.96034e-21
1.83759e-21
3.44904e-20
4.03595e-21
3.14932e-21
1.44331e-21
5.10702e-21
1.63348e-21
7.86436e-21
1.062e-20
2.20848e-21
2.92926e-20
6.09981e-21
9.49188e-21
2.69777e-20
7.45979e-21
3.35413e-20
4.45345e-21
1.3269e-20
5.56488e-21
2.47227e-20
1.35315e-20
3.25918e-23
1.05568e-20
1.10399e-20
2.4903e-21
1.19355e-20
4.23684e-21
3.59759e-21
1.48958e-20
1.79026e-20
6.93393e-21
9.71279e-21
4.5967e-21
2.1117e-22
9.49196e-21
2.03099e-21
3.58564e-21
2.80696e-20
1.50118e-21
5.95832e-21
1.51113e-21
7.41391e-20
1.9076e-20
2.30685e-20
2.35963e-20
4.90297e-22
1.26235e-20
1.31902e-21
1.25716e-20
2.6e-20
4.9979e-21
6.74953e-22
2.87857e-20
1.67858e-20
3.05226e-20
3.32721e-21
1.04457e-20
8.96327e-21
8.63009e-22
5.88081e-21
2.78604e-20
1.3116e-20
1.09903e-20
4.09607e-20
1.41284e-22
1.03329e-20
1.83779e-20
1.61663e-21
2.28827e-20
9.37496e-21
3.07223e-21
1.60497e-20
1.51747e-20
7.13278e-21
4.64366e-21
1.32822e-20
2.56701e-21
1.69453e-20
7.75196e-21
8.45458e-21
5.58856e-20
1.66807e-20
9.81581e-21
1.68396e-20
7.37745e-21
5.50311e-21
7.25713e-21
2.24763e-20
2.57749e-20
7.14204e-21
8.42345e-21
3.4606e-22
6.64068e-21
4.47212e-20
1.2706e-20
1.97957e-20
3.27379e-21
2.34678e-21
3.01987e-21
2.39351e-20
5.23008e-21
2.77819e-22
1.07726e-21
3.93479e-20
7.84892e-21
1.79938e-20
9.63516e-21
2.76495e-21
6.57095e-21
1.17801e-21
1.22402e-20
3.24469e-21
9.50658e-22
2.15347e-21
3.03987e-21
1.07172e-20
1.08996e-20
2.88247e-20
1.05857e-20
5.84363e-21
7.37313e-20
1.15002e-21
1.80672e-21
5.82989e-20
1.17838e-20
8.84133e-21
2.36129e-20
2.38719e-20
1.06888e-20
3.51248e-21
4.98316e-21
4.63977e-21
2.16326e-20
5.64714e-22
1.36157e-20
6.52027e-21
4.7096e-21
7.01888e-21
2.59775e-20
7.61023e-21
4.75212e-21
1.93319e-20
1.94622e-21
1.28547e-20
1.54088e-20
2.75331e-21
3.57825e-21
1.96443e-20
1.52615e-20
2.31487e-20
1.34835e-20
1.59127e-20
3.00118e-21
8.84459e-21
8.87777e-22
1.73483e-20
1.21332e-20
1.16775e-21
2.6028e-21
3.49204e-21
4.15064e-21
9.85029e-21
1.55587e-20
5.51738e-21
1.56191e-21
2.89185e-21
3.35462e-21
5.87659e-21
2.57022e-20
1.83795e-21
1.28943e-20
5.24008e-21
6.79357e-21
3.65536e-20
9.29485e-21
5.91402e-21
2.21227e-20
3.32835e-21
4.36122e-21
3.33247e-20
2.67913e-20
4.47375e-22
6.16833e-21
9.08132e-21
5.93884e-21
2.8469e-21
1.22997e-21
4.34479e-20
2.18109e-20
2.26602e-20
1.92907e-20
7.15498e-22
7.84642e-21
5.06244e-21
2.13115e-20
1.9388e-21
2.33667e-20
4.05024e-21
9.35234e-21
2.45845e-20
7.51966e-21
2.88981e-21
7.67176e-21
1.21032e-21
2.66227e-21
9.69234e-21
4.07378e-21
1.13891e-20
4.50361e-21
2.52393e-21
1.17288e-20
4.1744e-21
1.13924e-20
4.56429e-20
9.37323e-21
1.0604e-20
8.66659e-21
1.70438e-20
3.19027e-22
4.57893e-21
3.0351e-20
2.48626e-21
2.04465e-21
3.62981e-21
1.18807e-20
3.65346e-20
9.35242e-21
2.41966e-20
1.88423e-20
2.04855e-20
7.805e-22
5.65572e-20
1.99409e-20
2.62429e-20
4.28505e-21
1.12047e-20
7.14062e-21
2.80882e-20
2.44882e-20
7.74541e-21
5.51016e-20
2.12485e-21
1.11233e-20
1.18781e-21
2.62219e-20
1.40145e-21
9.77556e-21
5.50144e-20
4.84102e-21
1.38867e-20
2.89885e-21
6.08919e-21
4.83031e-20
1.86407e-20
4.97656e-21
2.69229e-20
1.66082e-21
2.60497e-20
1.65265e-20
5.85074e-21
3.25274e-22
1.47844e-20
6.63415e-21
6.31151e-21
2.68276e-20
5.48844e-21
1.91189e-20
1.29128e-20
4.55535e-21
2.79828e-21
2.76872e-20
2.8146e-20
1.95599e-20
4.75831e-20
6.73779e-21
1.54015e-21
2.15092e-20
1.79833e-21
1.35141e-21
1.25644e-20
1.30778e-20
1.31537e-20
6.61742e-21
1.66516e-21
2.9938e-20
6.60413e-21
1.50086e-20
6.94903e-21
1.00383e-21
1.43597e-20
4.52831e-21
1.13152e-20
1.6029e-20
3.31239e-21
4.00079e-20
7.68593e-21
2.81432e-21
5.07993e-21
5.2916e-21
3.60126e-20
1.85911e-21
1.33631e-20
3.66041e-21
3.50615e-20
2.40862e-20
8.4545e-22
1.58048e-20
2.45967e-20
8.3486e-21
1.61015e-20
5.4009e-21
9.84818e-21
4.57658e-22
7.46674e-21
5.95713e-21
2.69268e-23
4.80464e-21
1.97466e-20
3.13144e-20
9.27703e-21
1.83599e-20
2.9734e-21
3.02562e-21
1.5999e-21
3.4956e-20
2.82446e-21
4.42016e-21
8.5715e-21
4.91079e-21
2.43505e-20
1.85959e-20
2.65528e-20
5.51934e-21
1.28149e-20
2.01803e-20
5.68708e-21
1.1094e-20
4.06767e-20
1.15457e-20
1.01204e-20
1.7464e-20
4.67901e-21
4.02719e-21
1.82422e-20
3.48387e-20
9.54779e-22
2.43752e-20
4.57602e-21
6.73892e-22
9.66508e-21
1.31398e-20
7.10032e-22
9.5541e-22
2.60589e-21
7.59943e-21
1.63273e-20
1.77314e-20
4.66843e-21
5.14327e-21
5.17479e-21
8.03881e-21
4.19031e-21
1.6077e-20
6.13971e-20
1.91854e-20
9.89412e-20
1.07659e-22
2.33906e-21
2.46564e-20
6.00211e-21
9.63271e-22
2.34528e-20
3.00188e-21
5.76004e-21
2.23505e-20
5.04431e-20
8.97961e-21
2.31559e-20
1.90348e-21
1.16512e-20
5.54714e-22
4.46662e-20
3.04696e-20
6.4773e-21
2.028e-21
1.44738e-20
1.66273e-20
7.14285e-22
2.98204e-22
4.47401e-21
2.37466e-22
3.87112e-21
3.62864e-21
2.09667e-20
2.01344e-20
1.24996e-20
1.39498e-20
2.39518e-20
2.6375e-21
5.29656e-21
1.09615e-21
8.67671e-21
1.52908e-20
3.35558e-21
2.94415e-22
1.77291e-20
7.80569e-21
9.52327e-21
2.29294e-20
2.92566e-20
1.69792e-20
1.18718e-20
4.5746e-21
2.47944e-20
1.59683e-23
4.62726e-21
9.18577e-21
2.60532e-21
1.19575e-20
6.86615e-21
1.28424e-21
6.06401e-21
2.85878e-20
1.45556e-20
6.26594e-21
1.18333e-21
8.81008e-21
8.81768e-21
4.28271e-20
4.11178e-21
6.37098e-22
1.81386e-20
5.33053e-21
9.83457e-21
1.82784e-21
1.51174e-20
8.54275e-21
5.58315e-21
4.98144e-22
2.70689e-20
9.99777e-22
2.63347e-20
8.52731e-21
4.24397e-21
3.34356e-21
6.41537e-21
6.70096e-22
1.04372e-20
1.70224e-20
4.01917e-21
1.07478e-21
3.01372e-21
7.12183e-21
5.08399e-21
1.64133e-20
1.46534e-21
3.45435e-20
1.59098e-20
2.10455e-21
1.08941e-20
2.20361e-20
2.30473e-20
1.87938e-21
5.14754e-21
4.07161e-21
4.59268e-21
8.57726e-22
9.42032e-21
3.41857e-20
2.37443e-20
1.74078e-21
1.08378e-20
2.46651e-21
1.0034e-20
4.73579e-21
3.48307e-21
2.11532e-20
7.44805e-21
3.61917e-20
9.06626e-21
4.23269e-21
1.75754e-22
3.13175e-20
5.72916e-21
6.50719e-21
2.71505e-21
2.21901e-21
3.1486e-20
2.76091e-20
1.20275e-20
1.02683e-20
1.65899e-22
2.9821e-21
1.86484e-20
2.45578e-21
2.09158e-20
1.81542e-20
4.44588e-20
1.88497e-20
5.3588e-21
1.23597e-21
9.45247e-21
3.46658e-20
1.90763e-20
1.13217e-20
1.97179e-21
1.33673e-20
6.63996e-21
2.08512e-21
1.00559e-20
1.52246e-20
9.25441e-21
4.24665e-21
9.88062e-21
1.63215e-20
1.16918e-20
3.21928e-22
2.90888e-20
7.21675e-21
2.54723e-20
1.135e-20
9.25852e-21
2.97256e-21
5.83716e-20
6.57819e-21
8.384e-21
9.25318e-21
5.29675e-20
7.67808e-20
3.9673e-20
5.32183e-21
5.03544e-21
1.13291e-21
2.76986e-20
2.61753e-20
2.15554e-20
4.92552e-20
2.12042e-21
4.0266e-22
3.08885e-20
2.6631e-20
1.18512e-20
2.79337e-21
2.71505e-21
3.56556e-20
5.71471e-20
1.1735e-20
5.27042e-21
1.23758e-21
9.39618e-21
2.5402e-21
9.98147e-21
2.4322e-20
3.14347e-21
5.84212e-21
1.03122e-21
2.08631e-21
8.63811e-22
8.52665e-21
3.52743e-21
3.57417e-20
1.91547e-21
1.6816e-20
5.07427e-22
3.29792e-21
3.00758e-20
9.97314e-21
1.1374e-21
2.55463e-21
2.0638e-20
6.64556e-21
1.09284e-20
3.25426e-20
1.07345e-21
1.39844e-21
1.20599e-20
3.10326e-21
8.70613e-21
1.33455e-20
7.38345e-21
1.67727e-20
6.8603e-21
1.34381e-20
2.35768e-20
1.13512e-21
3.79104e-21
4.06992e-21
1.84298e-20
1.4087e-21
4.6244e-21
1.60135e-20
1.98201e-20
3.2011e-21
1.91021e-20
2.11234e-20
5.11972e-21
1.50619e-20
8.58303e-21
1.17168e-21
1.8591e-21
1.14146e-20
1.20503e-20
2.34333e-20
1.29261e-20
1.44132e-20
5.65805e-21
4.89613e-21
1.10153e-20
1.22929e-20
6.87349e-21
2.51491e-21
4.79097e-22
4.37163e-20
2.58714e-20
1.32547e-20
7.42946e-20
7.19865e-21
5.06879e-21
2.30191e-21
2.37256e-21
3.37014e-21
1.82653e-21
2.18632e-21
3.57758e-21
1.07694e-20
1.35859e-20
1.21348e-20
4.39012e-22
4.93839e-21
2.70411e-21
2.32148e-20
2.03692e-20
1.58803e-21
7.63721e-21
6.51862e-21
2.06836e-20
5.98844e-21
5.67584e-21
5.53038e-20
1.60912e-20
5.1311e-20
9.45696e-21
1.01549e-20
7.60965e-21
9.15273e-23
5.87987e-21
2.99905e-21
2.65862e-22
2.66906e-21
2.37136e-21
4.75838e-22
1.44433e-20
2.17172e-20
1.16023e-20
1.20529e-20
1.07159e-20
2.46248e-20
1.72527e-21
1.42459e-20
2.85261e-20
3.64413e-21
2.72159e-20
1.75396e-20
4.24179e-21
8.77033e-21
3.3964e-20
1.51994e-20
9.48401e-21
1.09119e-20
3.50028e-20
5.06973e-22
2.07237e-20
4.19112e-22
3.43025e-21
1.19133e-20
1.4451e-20
6.58869e-21
9.28807e-21
4.53998e-22
2.46571e-20
1.32287e-21
1.50973e-20
1.58467e-21
2.52042e-20
2.73272e-21
8.17444e-22
1.21989e-22
8.67948e-21
2.88216e-21
5.78029e-20
3.06474e-21
6.26401e-21
1.21343e-21
2.12977e-20
2.63932e-20
9.70893e-21
2.76762e-20
7.932e-21
2.70987e-20
2.01558e-20
3.44134e-21
1.72811e-20
2.32572e-20
3.30664e-21
1.51078e-20
1.75808e-20
3.20472e-21
2.60334e-20
5.04952e-22
7.23557e-21
7.85667e-21
3.47442e-21
3.90728e-20
1.02823e-20
2.67596e-20
2.38221e-21
1.23268e-20
1.69779e-20
5.84295e-21
2.58928e-20
1.83405e-20
7.94792e-21
7.92098e-21
2.55846e-20
1.91801e-20
2.31922e-21
6.40373e-21
2.11673e-20
5.06787e-22
8.43789e-21
2.06536e-20
4.42426e-21
6.35367e-21
2.24055e-20
2.68555e-21
4.60777e-21
3.16316e-20
1.72518e-20
3.21875e-21
7.79044e-21
2.08514e-21
2.73261e-21
1.67352e-22
1.43972e-21
1.27492e-21
2.7174e-20
1.34068e-20
7.34026e-21
2.20765e-21
2.01998e-20
3.99034e-21
5.1564e-21
5.80931e-21
1.33075e-20
7.40682e-21
8.03331e-21
2.27249e-20
1.49319e-20
2.00118e-20
1.66824e-21
1.74331e-20
7.68719e-21
1.56134e-20
4.49968e-21
4.17369e-20
6.66016e-22
6.68034e-20
4.40532e-20
4.94614e-21
2.81969e-21
5.37252e-21
1.01537e-20
1.17249e-22
7.74805e-21
8.39212e-21
1.36329e-20
1.96388e-21
3.12409e-20
1.7263e-20
9.34751e-21
1.94524e-20
1.12246e-20
3.01728e-21
9.92915e-22
2.21621e-21
1.07464e-20
4.61577e-20
2.93301e-20
7.4383e-21
1.68185e-20
4.11829e-20
5.68626e-20
6.74829e-22
2.55356e-20
1.51237e-21
1.59558e-20
1.16741e-20
1.88104e-20
1.09045e-20
9.49538e-21
2.64029e-20
1.31568e-20
2.71715e-21
1.14722e-21
4.19188e-20
4.67411e-21
2.53931e-21
8.04745e-21
4.64341e-21
7.41573e-21
1.06393e-20
1.94674e-20
1.17955e-20
2.87395e-20
1.07577e-20
6.35257e-21
1.88785e-20
3.61844e-21
9.09959e-21
4.95574e-21
1.9313e-20
7.12799e-24
1.38527e-20
5.77409e-22
3.62211e-20
1.99859e-20
1.13426e-20
9.69236e-21
1.56489e-20
1.90327e-21
7.75427e-21
7.9547e-21
5.56581e-21
4.29832e-21
2.87439e-20
1.67324e-20
2.22379e-21
2.95418e-20
6.28306e-21
2.11564e-20
2.43158e-20
2.8253e-21
9.96767e-21
2.38876e-20
1.94247e-20
4.06796e-20
3.05765e-21
6.96895e-21
1.04737e-20
1.42701e-20
1.43843e-20
2.21239e-21
1.87867e-21
1.97261e-20
3.75731e-21
8.26631e-21
1.22404e-20
1.92647e-20
1.32997e-20
2.75497e-20
8.19657e-22
1.82707e-20
1.62322e-20
1.51558e-20
6.73944e-20
1.4371e-20
8.83978e-21
2.0663e-21
6.52339e-21
5.60369e-21
4.19135e-21
5.57481e-21
9.9416e-21
3.10898e-21
2.05858e-20
7.57672e-21
1.60126e-20
1.80131e-21
3.33643e-20
5.84661e-21
7.19161e-21
5.17481e-22
1.34089e-20
1.52186e-21
2.45054e-20
2.98475e-20
8.67633e-21
9.23139e-21
2.11041e-20
5.33249e-20
7.62811e-21
3.84016e-21
8.12165e-21
3.20557e-21
4.94434e-21
1.28254e-20
1.11871e-21
1.10294e-20
6.07319e-21
6.79477e-22
1.38231e-20
1.23138e-20
7.1507e-20
1.07652e-21
9.97741e-21
3.4447e-20
2.56417e-20
4.98815e-21
2.49462e-20
2.26344e-20
1.96103e-21
5.05898e-21
1.10709e-20
4.05028e-21
2.45999e-20
8.15517e-21
5.90578e-21
3.08379e-20
5.52668e-21
8.95327e-21
1.17215e-20
2.92672e-20
4.67868e-21
5.51012e-21
2.05411e-21
1.59777e-20
2.29094e-21
1.12661e-20
2.71423e-20
2.08773e-20
2.58085e-20
1.95821e-20
1.95444e-20
1.99287e-21
1.42518e-20
3.41113e-20
1.31406e-20
1.24095e-20
4.0776e-21
1.28367e-21
1.08362e-21
3.50321e-21