/*--------------------------------*- C++ -*----------------------------------*\
  =========                 |
  \\      /  F ield         | OpenFOAM: The Open Source CFD Toolbox
   \\    /   O peration     | Website:  https://openfoam.org
    \\  /    A nd           | Version:  7
     \\/     M anipulation  |
\*---------------------------------------------------------------------------*/
FoamFile
{
    version     2.0;
    format      ascii;
    class       Cloud<dsmcParcel>;
    location    "0.00216/lagrangian/dsmc";
    object      positions;
}
// * * * * * * * * * * * * * * * * * * * * * * * * * * * * * * * * * * * * * //

23991
(
(0.388902 0.305549 0.305549 0) 5 4 1
(0.0425009 0.47875 0 0.47875) 3 3 1
(0.0273063 0.486347 0 0.486347) 4 4 1
(0.573467 0.213266 0.213266 0) 4 3 1
(0.277108 0.361446 0 0.361446) 9 8 2
(0.588832 0.205584 0.205584 0) 4 3 1
(0.671791 0.164104 0 0.164104) 4 3 2
(0.00708292 0.496459 0 0.496459) 4 3 2
(0.388956 0.305522 0 0.305522) 11 10 2
(0.350776 0.324612 0 0.324612) 9 8 2
(0.239982 0.380009 0.380009 0) 7 6 1
(0.0164357 0.491782 0 0.491782) 1 1 1
(0.137048 0.431476 0 0.431476) 3 3 1
(0.927912 0.0360439 0.0360439 0) 5 4 1
(0.936726 0.0316368 0 0.0316368) 9 8 2
(0.22514 0.38743 0.38743 0) 3 3 2
(0.979814 0.0100932 0 0.0100932) 0 0 1
(0.503302 0.248349 0 0.248349) 9 9 1
(0.260024 0.369988 0 0.369988) 4 4 1
(0.846368 0.0768162 0 0.0768162) 4 4 1
(0.527208 0.236396 0.236396 0) 0 624 2
(0.553727 0.223137 0 0.223137) 5 5 1
(0.0899061 0.455047 0.455047 0) 3 2 1
(0.83312 0.0834402 0.0834402 0) 5 5 2
(0.490742 0.254629 0.254629 0) 5 4 1
(0.799728 0.100136 0 0.100136) 3 3 1
(0.651987 0.174007 0 0.174007) 8 7 2
(0.336657 0.331671 0 0.331671) 7 7 1
(0.269589 0.365205 0 0.365205) 2 2 1
(0.98431 0.00784496 0.00784496 0) 9 8 1
(0.861989 0.0690057 0 0.0690057) 3 3 1
(0.576606 0.211697 0 0.211697) 7 6 2
(0.968496 0.0157522 0 0.0157522) 1 0 2
(0.477024 0.261488 0.261488 0) 3 2 1
(0.69091 0.154545 0 0.154545) 13 13 1
(0.888492 0.0557542 0.0557542 0) 5 5 2
(0.583518 0.208241 0.208241 0) 5 4 1
(0.0440629 0.477969 0 0.477969) 3 2 2
(0.285431 0.357284 0.357284 0) 8 8 2
(0.443818 0.278091 0.278091 0) 4 4 2
(0.389824 0.305088 0 0.305088) 4 3 2
(0.559785 0.220108 0 0.220108) 5 5 1
(0.771588 0.114206 0.114206 0) 3 3 2
(0.810093 0.0949533 0.0949533 0) 2 2 2
(0.790847 0.104577 0 0.104577) 1 0 2
(0.376027 0.311986 0.311986 0) 7 7 2
(0.278669 0.360665 0 0.360665) 5 5 1
(0.0312803 0.48436 0.48436 0) 5 4 1
(0.849108 0.0754458 0 0.0754458) 6 6 1
(0.377101 0.31145 0 0.31145) 6 6 1
(0.403821 0.29809 0 0.29809) 5 4 2
(0.0362717 0.481864 0.481864 0) 5 5 2
(0.319187 0.340407 0.340407 0) 1 1 2
(0.64419 0.177905 0 0.177905) 1 0 2
(0.52637 0.236815 0 0.236815) 1 0 2
(0.362323 0.318839 0 0.318839) 8 8 1
(0.562188 0.218906 0 0.218906) 6 5 2
(0.980893 0.00955358 0.00955358 0) 7 7 2
(0.0465438 0.476728 0.476728 0) 1 0 1
(0.649492 0.175254 0.175254 0) 2 1 1
(0.0197174 0.490141 0 0.490141) 0 0 1
(0.77249 0.113755 0.113755 0) 7 6 1
(0.41784 0.29108 0.29108 0) 5 5 2
(0.643478 0.178261 0 0.178261) 8 7 2
(0.14485 0.427575 0.427575 0) 6 6 2
(0.134308 0.432846 0.432846 0) 3 2 1
(0.85221 0.073895 0.073895 0) 1 1 2
(0.92305 0.0384749 0.0384749 0) 4 4 2
(0.73021 0.134895 0.134895 0) 4 3 1
(0.351949 0.324026 0.324026 0) 3 2 1
(0.474951 0.262525 0.262525 0) 3 2 1
(0.0104576 0.494771 0.494771 0) 8 7 1
(0.599704 0.200148 0.200148 0) 7 6 1
(0.267189 0.366405 0 0.366405) 1 1 1
(0.405367 0.297317 0 0.297317) 7 7 1
(0.137845 0.431077 0 0.431077) 7 7 1
(0.105417 0.447291 0 0.447291) 2 1 2
(0.263444 0.368278 0 0.368278) 5 5 1
(0.347727 0.326137 0 0.326137) 6 6 1
(0.656042 0.171979 0 0.171979) 9 8 2
(0.786074 0.106963 0 0.106963) 5 5 1
(0.659192 0.170404 0.170404 0) 2 2 2
(0.849123 0.0754386 0.0754386 0) 5 4 1
(0.374315 0.312843 0 0.312843) 2 2 1
(0.174502 0.412749 0.412749 0) 11 11 2
(0.257249 0.371375 0 0.371375) 5 5 1
(0.451083 0.274458 0.274458 0) 7 6 1
(0.890442 0.0547791 0.0547791 0) 2 2 2
(0.566462 0.216769 0 0.216769) 7 7 1
(0.0939888 0.453006 0 0.453006) 7 6 2
(0.651952 0.174024 0 0.174024) 6 5 2
(0.667163 0.166419 0 0.166419) 0 0 1
(0.870831 0.0645847 0.0645847 0) 1 1 2
(0.256428 0.371786 0.371786 0) 3 2 1
(0.507973 0.246014 0 0.246014) 2 2 1
(0.64548 0.17726 0.17726 0) 6 5 1
(0.313124 0.343438 0.343438 0) 3 3 2
(0.188416 0.405792 0 0.405792) 3 3 1
(0.00249211 0.498754 0 0.498754) 3 3 1
(0.972331 0.0138346 0.0138346 0) 9 9 2
(0.91567 0.042165 0.042165 0) 4 4 2
(0.00695687 0.496522 0.496522 0) 3 2 1
(0.285596 0.357202 0.357202 0) 1 1 2
(0.465046 0.267477 0.267477 0) 5 5 2
(0.642017 0.178991 0.178991 0) 6 6 2
(0.84099 0.0795048 0.0795048 0) 3 3 2
(0.00341734 0.498291 0.498291 0) 6 5 1
(0.0839096 0.458045 0 0.458045) 4 4 1
(0.805553 0.0972235 0.0972235 0) 1 0 1
(0.935926 0.0320371 0.0320371 0) 2 1 1
(0.627772 0.186114 0 0.186114) 4 4 1
(0.654385 0.172807 0 0.172807) 1 1 1
(0.777221 0.11139 0 0.11139) 0 0 1
(0.291084 0.354458 0.354458 0) 4 3 1
(0.507194 0.246403 0 0.246403) 2 2 1
(0.0761502 0.461925 0.461925 0) 6 5 1
(0.955386 0.0223069 0.0223069 0) 5 5 2
(0.728164 0.135918 0.135918 0) 9 8 1
(0.64849 0.175755 0.175755 0) 11 10 1
(0.586936 0.206532 0 0.206532) 6 6 1
(0.762017 0.118992 0 0.118992) 5 5 1
(0.0777238 0.461138 0 0.461138) 10 9 2
(0.929716 0.0351421 0 0.0351421) 10 9 2
(0.0208381 0.489581 0.489581 0) 16 15 1
(0.913417 0.0432916 0 0.0432916) 3 2 2
(0.912899 0.0435504 0 0.0435504) 5 5 1
(0.0956047 0.452198 0 0.452198) 8 8 1
(0.239737 0.380131 0 0.380131) 7 6 2
(0.737276 0.131362 0 0.131362) 0 624 1
(0.397463 0.301269 0 0.301269) 8 7 2
(0.761059 0.11947 0 0.11947) 3 2 2
(0.651941 0.17403 0.17403 0) 9 9 2
(0.658037 0.170981 0.170981 0) 0 0 2
(0.472116 0.263942 0.263942 0) 11 11 2
(0.620266 0.189867 0 0.189867) 3 2 2
(0.189286 0.405357 0 0.405357) 0 624 1
(0.0406551 0.479672 0 0.479672) 4 4 1
(0.344439 0.327781 0 0.327781) 3 2 2
(0.652866 0.173567 0 0.173567) 2 1 2
(0.720303 0.139848 0.139848 0) 16 15 1
(0.0505348 0.474733 0 0.474733) 4 3 2
(0.427241 0.28638 0.28638 0) 4 4 2
(0.517063 0.241468 0.241468 0) 5 5 2
(0.376025 0.311987 0 0.311987) 10 9 2
(0.0448529 0.477574 0 0.477574) 3 3 1
(0.0153651 0.492317 0.492317 0) 3 2 1
(0.764128 0.117936 0 0.117936) 1 0 2
(0.911342 0.0443292 0 0.0443292) 3 3 1
(0.10463 0.447685 0 0.447685) 8 8 1
(0.146745 0.426628 0.426628 0) 2 2 2
(0.806664 0.0966678 0.0966678 0) 3 3 2
(0.22932 0.38534 0.38534 0) 4 4 2
(0.736113 0.131944 0 0.131944) 3 2 2
(0.900739 0.0496303 0 0.0496303) 6 5 2
(0.309505 0.345247 0 0.345247) 3 2 2
(0.46926 0.26537 0 0.26537) 4 4 1
(0.101711 0.449144 0.449144 0) 1 1 2
(0.87973 0.0601351 0 0.0601351) 5 4 2
(0.861435 0.0692827 0.0692827 0) 6 5 1
(0.573208 0.213396 0.213396 0) 7 6 1
(0.541454 0.229273 0 0.229273) 5 4 2
(0.732596 0.133702 0 0.133702) 2 1 2
(0.311462 0.344269 0 0.344269) 5 4 2
(0.794884 0.102558 0.102558 0) 6 6 2
(0.20083 0.399585 0.399585 0) 4 4 2
(0.400678 0.299661 0.299661 0) 10 10 2
(0.219454 0.390273 0.390273 0) 6 6 2
(0.305032 0.347484 0 0.347484) 4 3 2
(0.136784 0.431608 0 0.431608) 2 1 2
(0.511328 0.244336 0.244336 0) 9 9 2
(0.52321 0.238395 0 0.238395) 5 5 1
(0.424772 0.287614 0 0.287614) 7 6 2
(0.972182 0.0139092 0 0.0139092) 3 3 1
(0.785494 0.107253 0 0.107253) 6 5 2
(0.472223 0.263889 0.263889 0) 7 6 1
(0.411434 0.294283 0 0.294283) 9 8 2
(0.0321996 0.4839 0.4839 0) 2 1 1
(0.603753 0.198123 0 0.198123) 7 7 1
(0.337591 0.331205 0 0.331205) 3 3 1
(0.380128 0.309936 0 0.309936) 9 8 2
(0.469517 0.265241 0 0.265241) 3 2 2
(0.518085 0.240958 0.240958 0) 10 9 1
(0.403712 0.298144 0.298144 0) 2 1 1
(0.112311 0.443844 0 0.443844) 3 2 2
(0.335624 0.332188 0 0.332188) 9 9 1
(0.306874 0.346563 0 0.346563) 2 2 1
(0.0617406 0.46913 0 0.46913) 6 6 1
(0.226314 0.386843 0.386843 0) 3 2 1
(0.980992 0.00950387 0 0.00950387) 9 8 2
(0.400697 0.299652 0 0.299652) 6 6 1
(0.991206 0.00439706 0.00439706 0) 9 8 1
(0.956118 0.021941 0 0.021941) 5 5 1
(0.416188 0.291906 0.291906 0) 10 9 1
(0.281083 0.359459 0.359459 0) 5 5 2
(0.950297 0.0248514 0.0248514 0) 6 5 1
(0.955226 0.0223868 0 0.0223868) 4 4 1
(0.521832 0.239084 0 0.239084) 8 8 1
(0.501419 0.249291 0 0.249291) 1 0 2
(0.775296 0.112352 0.112352 0) 2 1 1
(0.998593 0.000703591 0.000703591 0) 8 8 2
(0.596261 0.201869 0 0.201869) 4 4 1
(0.554293 0.222853 0.222853 0) 1 0 1
(0.672447 0.163776 0 0.163776) 4 4 1
(0.723275 0.138363 0 0.138363) 8 8 1
(0.735269 0.132366 0 0.132366) 6 5 2
(0.186304 0.406848 0 0.406848) 12 11 2
(0.741712 0.129144 0.129144 0) 3 2 1
(0.319411 0.340294 0.340294 0) 6 6 2
(0.353345 0.323327 0 0.323327) 6 5 2
(0.616717 0.191642 0.191642 0) 3 3 2
(0.504023 0.247988 0.247988 0) 2 2 2
(0.244835 0.377582 0 0.377582) 5 4 2
(0.784414 0.107793 0 0.107793) 8 7 2
(0.586549 0.206726 0 0.206726) 2 1 2
(0.904576 0.047712 0.047712 0) 9 9 2
(0.614692 0.192654 0 0.192654) 4 3 2
(0.234246 0.382877 0 0.382877) 7 6 2
(0.393681 0.303159 0.303159 0) 6 5 1
(0.0511544 0.474423 0 0.474423) 8 7 2
(0.613459 0.19327 0 0.19327) 4 3 2
(0.786387 0.106807 0 0.106807) 3 3 1
(0.42487 0.287565 0 0.287565) 3 3 1
(0.93452 0.0327399 0 0.0327399) 2 2 1
(0.316868 0.341566 0.341566 0) 2 1 1
(0.0385699 0.480715 0 0.480715) 11 11 1
(0.016302 0.491849 0.491849 0) 5 5 2
(0.26392 0.36804 0.36804 0) 12 11 1
(0.500468 0.249766 0.249766 0) 6 6 2
(0.794089 0.102956 0 0.102956) 9 9 1
(0.814449 0.0927754 0.0927754 0) 5 4 1
(0.299684 0.350158 0.350158 0) 5 4 1
(0.975563 0.0122185 0 0.0122185) 5 4 2
(0.732734 0.133633 0.133633 0) 9 9 2
(0.0626706 0.468665 0 0.468665) 1 1 1
(0.272954 0.363523 0 0.363523) 5 5 1
(0.711838 0.144081 0 0.144081) 1 0 2
(0.731098 0.134451 0 0.134451) 6 5 2
(0.73176 0.13412 0 0.13412) 4 3 2
(0.386741 0.306629 0.306629 0) 10 9 1
(0.475542 0.262229 0.262229 0) 7 6 1
(0.39501 0.302495 0.302495 0) 0 624 2
(0.129196 0.435402 0 0.435402) 7 7 1
(0.37279 0.313605 0.313605 0) 6 6 2
(0.443338 0.278331 0.278331 0) 11 11 2
(0.448629 0.275686 0.275686 0) 7 7 2
(0.580748 0.209626 0 0.209626) 1 0 2
(0.543576 0.228212 0 0.228212) 2 2 1
(0.359867 0.320066 0 0.320066) 5 4 2
(0.0327289 0.483636 0 0.483636) 11 11 1
(0.702755 0.148623 0.148623 0) 4 3 1
(0.749718 0.125141 0 0.125141) 8 7 2
(0.145591 0.427205 0 0.427205) 1 1 1
(0.714856 0.142572 0.142572 0) 5 4 1
(0.00679827 0.496601 0.496601 0) 7 7 2
(0.561376 0.219312 0.219312 0) 6 5 1
(0.31031 0.344845 0.344845 0) 8 8 2
(0.831757 0.0841215 0 0.0841215) 3 3 1
(0.559821 0.22009 0 0.22009) 9 8 2
(0.962579 0.0187105 0.0187105 0) 4 4 2
(0.196362 0.401819 0.401819 0) 5 5 2
(0.551088 0.224456 0.224456 0) 6 6 2
(0.204064 0.397968 0.397968 0) 3 3 2
(0.0653797 0.46731 0 0.46731) 6 5 2
(0.204113 0.397943 0 0.397943) 3 3 1
(0.0755822 0.462209 0.462209 0) 4 3 1
(0.296833 0.351584 0 0.351584) 2 1 2
(0.993204 0.00339817 0 0.00339817) 14 13 2
(0.586508 0.206746 0.206746 0) 3 3 2
(0.469483 0.265259 0.265259 0) 9 8 1
(0.527382 0.236309 0.236309 0) 2 2 2
(0.795302 0.102349 0 0.102349) 5 4 2
(0.148984 0.425508 0 0.425508) 0 0 1
(0.988336 0.00583179 0 0.00583179) 3 2 2
(0.385993 0.307003 0 0.307003) 2 1 2
(0.0347426 0.482629 0 0.482629) 1 1 1
(0.908219 0.0458907 0.0458907 0) 7 7 2
(0.882205 0.0588974 0.0588974 0) 12 12 2
(0.325572 0.337214 0 0.337214) 5 4 2
(0.466347 0.266826 0.266826 0) 11 11 2
(0.441704 0.279148 0.279148 0) 8 8 2
(0.983252 0.0083738 0.0083738 0) 6 6 2
(0.777919 0.11104 0.11104 0) 10 10 2
(0.567374 0.216313 0.216313 0) 5 4 1
(0.835291 0.0823547 0.0823547 0) 8 8 2
(0.175062 0.412469 0 0.412469) 7 7 1
(0.0125044 0.493748 0 0.493748) 4 3 2
(0.378361 0.31082 0.31082 0) 4 3 1
(0.83251 0.0837449 0.0837449 0) 6 6 2
(0.00901427 0.495493 0 0.495493) 11 10 2
(0.731102 0.134449 0.134449 0) 6 6 2
(0.19073 0.404635 0 0.404635) 13 13 1
(0.333319 0.33334 0 0.33334) 5 4 2
(0.190974 0.404513 0 0.404513) 6 5 2
(0.869139 0.0654306 0.0654306 0) 7 6 1
(0.721558 0.139221 0 0.139221) 10 9 2
(0.598044 0.200978 0 0.200978) 2 2 1
(0.310685 0.344658 0.344658 0) 8 7 1
(0.161518 0.419241 0 0.419241) 1 1 1
(0.556032 0.221984 0.221984 0) 5 5 2
(0.670694 0.164653 0 0.164653) 6 5 2
(0.117192 0.441404 0 0.441404) 5 5 1
(0.75042 0.12479 0.12479 0) 6 6 2
(0.417279 0.29136 0.29136 0) 11 10 1
(0.766512 0.116744 0.116744 0) 9 8 1
(0.0808453 0.459577 0 0.459577) 11 11 1
(0.58293 0.208535 0 0.208535) 1 1 1
(0.18591 0.407045 0.407045 0) 7 6 1
(0.422714 0.288643 0.288643 0) 7 6 1
(0.523018 0.238491 0.238491 0) 3 2 1
(0.119106 0.440447 0 0.440447) 4 3 2
(0.350458 0.324771 0.324771 0) 14 13 1
(0.966157 0.0169215 0 0.0169215) 6 5 2
(0.752089 0.123955 0 0.123955) 6 5 2
(0.642115 0.178943 0.178943 0) 4 4 2
(0.106463 0.446768 0 0.446768) 2 1 2
(0.673688 0.163156 0 0.163156) 11 10 2
(0.00600402 0.496998 0.496998 0) 9 8 1
(0.266837 0.366581 0 0.366581) 3 3 1
(0.47804 0.26098 0 0.26098) 6 5 2
(0.569167 0.215416 0 0.215416) 1 0 2
(0.907773 0.0461135 0.0461135 0) 4 4 2
(0.162469 0.418765 0.418765 0) 7 6 1
(0.373586 0.313207 0.313207 0) 3 2 1
(0.332877 0.333561 0 0.333561) 7 7 1
(0.35988 0.32006 0.32006 0) 7 7 2
(0.554955 0.222523 0 0.222523) 2 1 2
(0.476142 0.261929 0 0.261929) 9 9 1
(0.762564 0.118718 0.118718 0) 4 3 1
(0.746887 0.126557 0.126557 0) 8 7 1
(0.504206 0.247897 0.247897 0) 5 4 1
(0.457805 0.271097 0 0.271097) 7 6 2
(0.676798 0.161601 0.161601 0) 2 2 2
(0.161739 0.41913 0 0.41913) 5 4 2
(0.700733 0.149633 0 0.149633) 7 6 2
(0.609458 0.195271 0 0.195271) 3 3 1
(0.257615 0.371193 0.371193 0) 2 1 1
(0.986675 0.00666271 0 0.00666271) 7 7 1
(0.907737 0.0461316 0 0.0461316) 11 11 1
(0.0194367 0.490282 0 0.490282) 5 5 1
(0.321511 0.339244 0 0.339244) 7 7 1
(0.278368 0.360816 0 0.360816) 9 9 1
(0.272616 0.363692 0.363692 0) 8 7 1
(0.477167 0.261417 0 0.261417) 7 7 1
(0.402581 0.298709 0.298709 0) 3 2 1
(0.0677694 0.466115 0 0.466115) 0 0 1
(0.849497 0.0752516 0 0.0752516) 5 5 1
(0.512532 0.243734 0.243734 0) 0 624 2
(0.920469 0.0397655 0.0397655 0) 0 624 2
(0.0844801 0.45776 0 0.45776) 5 5 1
(0.384622 0.307689 0 0.307689) 4 4 1
(0.11199 0.444005 0 0.444005) 4 4 1
(0.603969 0.198016 0.198016 0) 3 2 1
(0.513903 0.243049 0.243049 0) 1 0 1
(0.381294 0.309353 0 0.309353) 8 7 2
(0.753118 0.123441 0 0.123441) 6 5 2
(0.944527 0.0277364 0.0277364 0) 1 1 2
(0.0374028 0.481299 0 0.481299) 4 4 1
(0.0998044 0.450098 0 0.450098) 7 6 2
(0.685041 0.15748 0.15748 0) 5 5 2
(0.0155816 0.492209 0 0.492209) 11 10 2
(0.161686 0.419157 0.419157 0) 2 2 2
(0.739937 0.130031 0 0.130031) 5 5 1
(0.679557 0.160222 0.160222 0) 4 3 1
(0.617384 0.191308 0 0.191308) 0 624 1
(0.941741 0.0291296 0.0291296 0) 5 5 2
(0.596822 0.201589 0 0.201589) 1 1 1
(0.123971 0.438015 0 0.438015) 3 2 2
(0.830394 0.0848032 0 0.0848032) 2 2 1
(0.822796 0.0886022 0 0.0886022) 7 7 1
(0.39262 0.30369 0.30369 0) 16 15 1
(0.472403 0.263799 0 0.263799) 5 4 2
(0.372182 0.313909 0.313909 0) 4 3 1
(0.551695 0.224152 0 0.224152) 2 2 1
(0.0381077 0.480946 0.480946 0) 7 7 2
(0.161831 0.419084 0.419084 0) 4 4 2
(0.835298 0.0823509 0.0823509 0) 4 3 1
(0.47672 0.26164 0 0.26164) 5 4 2
(0.890695 0.0546526 0.0546526 0) 2 2 2
(0.727399 0.136301 0.136301 0) 2 2 2
(0.719907 0.140046 0.140046 0) 7 6 1
(0.648328 0.175836 0 0.175836) 7 7 1
(0.466258 0.266871 0.266871 0) 7 6 1
(0.913806 0.043097 0 0.043097) 6 5 2
(0.293633 0.353184 0.353184 0) 2 2 2
(0.935803 0.0320984 0.0320984 0) 3 3 2
(0.062562 0.468719 0 0.468719) 11 11 1
(0.732831 0.133585 0.133585 0) 3 3 2
(0.61373 0.193135 0.193135 0) 7 7 2
(0.306369 0.346816 0 0.346816) 1 1 1
(0.923738 0.0381312 0 0.0381312) 7 7 1
(0.460224 0.269888 0.269888 0) 10 9 1
(0.38715 0.306425 0.306425 0) 8 8 2
(0.179175 0.410412 0 0.410412) 10 10 1
(0.336857 0.331571 0.331571 0) 8 7 1
(0.713821 0.143089 0.143089 0) 7 7 2
(0.549985 0.225008 0.225008 0) 8 7 1
(0.503879 0.24806 0 0.24806) 3 3 1
(0.660983 0.169509 0.169509 0) 1 1 2
(0.994957 0.00252142 0.00252142 0) 1 1 2
(0.729039 0.135481 0 0.135481) 9 9 1
(0.955495 0.0222526 0.0222526 0) 3 3 2
(0.769145 0.115428 0 0.115428) 14 13 2
(0.0886787 0.455661 0.455661 0) 4 4 2
(0.774723 0.112638 0.112638 0) 3 3 2
(0.437163 0.281419 0 0.281419) 5 4 2
(0.379422 0.310289 0.310289 0) 1 0 1
(0.666287 0.166856 0 0.166856) 2 1 2
(0.250477 0.374762 0.374762 0) 9 8 1
(0.184475 0.407763 0.407763 0) 5 5 2
(0.402382 0.298809 0.298809 0) 4 4 2
(0.0305017 0.484749 0 0.484749) 10 9 2
(0.413375 0.293312 0.293312 0) 8 7 1
(0.514663 0.242668 0.242668 0) 0 624 2
(0.0602676 0.469866 0.469866 0) 4 4 2
(0.0127417 0.493629 0 0.493629) 8 7 2
(0.0261983 0.486901 0 0.486901) 2 1 2
(0.748056 0.125972 0.125972 0) 2 1 1
(0.464811 0.267594 0 0.267594) 11 10 2
(0.516434 0.241783 0.241783 0) 8 8 2
(0.133561 0.433219 0 0.433219) 5 5 1
(0.398534 0.300733 0.300733 0) 13 12 1
(0.406756 0.296622 0.296622 0) 2 2 2
(0.0245247 0.487738 0 0.487738) 5 4 2
(0.756247 0.121876 0.121876 0) 6 6 2
(0.553593 0.223204 0 0.223204) 2 1 2
(0.853443 0.0732784 0.0732784 0) 3 3 2
(0.104939 0.44753 0.44753 0) 9 8 1
(0.397525 0.301237 0 0.301237) 13 12 2
(0.270332 0.364834 0.364834 0) 7 6 1
(0.895351 0.0523247 0.0523247 0) 3 2 1
(0.61948 0.19026 0.19026 0) 4 4 2
(0.153555 0.423222 0.423222 0) 11 10 1
(0.61079 0.194605 0.194605 0) 6 5 1
(0.943743 0.0281284 0.0281284 0) 4 3 1
(0.545726 0.227137 0.227137 0) 8 7 1
(0.762308 0.118846 0 0.118846) 5 5 1
(0.560471 0.219764 0.219764 0) 3 3 2
(0.278241 0.360879 0.360879 0) 4 3 1
(0.140563 0.429718 0.429718 0) 3 2 1
(0.0573439 0.471328 0 0.471328) 6 5 2
(0.177743 0.411129 0 0.411129) 9 8 2
(0.367405 0.316297 0 0.316297) 4 3 2
(0.910621 0.0446897 0 0.0446897) 14 14 1
(0.995996 0.00200207 0 0.00200207) 11 11 1
(0.9861 0.00694985 0 0.00694985) 2 1 2
(0.482842 0.258579 0 0.258579) 10 9 2
(0.04664 0.47668 0.47668 0) 6 5 1
(0.057773 0.471114 0.471114 0) 4 4 2
(0.475491 0.262254 0 0.262254) 6 5 2
(0.589244 0.205378 0 0.205378) 5 4 2
(0.968742 0.0156289 0 0.0156289) 10 9 2
(0.450988 0.274506 0 0.274506) 11 11 1
(0.92541 0.0372948 0 0.0372948) 12 11 2
(0.936636 0.0316818 0.0316818 0) 0 624 2
(0.637648 0.181176 0 0.181176) 6 6 1
(0.673599 0.1632 0 0.1632) 5 4 2
(0.179443 0.410279 0.410279 0) 4 3 1
(0.443942 0.278029 0 0.278029) 7 6 2
(0.375768 0.312116 0 0.312116) 6 5 2
(0.512529 0.243736 0 0.243736) 5 5 1
(0.931242 0.0343792 0.0343792 0) 4 3 1
(0.277268 0.361366 0 0.361366) 5 5 1
(0.308073 0.345963 0.345963 0) 4 3 1
(0.0137996 0.4931 0 0.4931) 8 8 1
(0.525499 0.237251 0 0.237251) 7 7 1
(0.2555 0.37225 0.37225 0) 0 624 2
(0.124874 0.437563 0.437563 0) 2 1 1
(0.892904 0.0535482 0.0535482 0) 6 5 1
(0.715916 0.142042 0 0.142042) 4 3 2
(0.415271 0.292364 0 0.292364) 6 6 1
(0.0598508 0.470075 0.470075 0) 6 6 2
(0.221291 0.389354 0.389354 0) 0 0 2
(0.777954 0.111023 0 0.111023) 2 1 2
(0.845881 0.0770594 0 0.0770594) 8 7 2
(0.890515 0.0547423 0.0547423 0) 1 0 1
(0.968451 0.0157745 0 0.0157745) 1 0 2
(0.0688213 0.465589 0 0.465589) 1 0 2
(0.797164 0.101418 0 0.101418) 3 2 2
(0.572222 0.213889 0 0.213889) 8 8 1
(0.397208 0.301396 0 0.301396) 3 3 1
(0.998371 0.000814616 0.000814616 0) 2 1 1
(0.000231353 0.499884 0 0.499884) 8 8 1
(0.888234 0.0558829 0 0.0558829) 3 3 1
(0.3281 0.33595 0.33595 0) 6 6 2
(0.140512 0.429744 0.429744 0) 9 8 1
(0.38898 0.30551 0.30551 0) 10 9 1
(0.242779 0.378611 0.378611 0) 6 5 1
(0.289248 0.355376 0.355376 0) 8 7 1
(0.305605 0.347197 0 0.347197) 8 8 1
(0.623722 0.188139 0.188139 0) 16 16 2
(0.385574 0.307213 0.307213 0) 6 5 1
(0.457248 0.271376 0.271376 0) 7 6 1
(0.877868 0.0610658 0 0.0610658) 7 6 2
(0.666772 0.166614 0 0.166614) 5 4 2
(0.665229 0.167385 0 0.167385) 6 5 2
(0.193001 0.4035 0 0.4035) 4 3 2
(0.0373187 0.481341 0.481341 0) 1 1 2
(0.136748 0.431626 0.431626 0) 4 3 1
(0.00563907 0.49718 0.49718 0) 3 3 2
(0.523372 0.238314 0 0.238314) 11 11 1
(0.666564 0.166718 0.166718 0) 0 624 2
(0.757533 0.121233 0 0.121233) 4 4 1
(0.114681 0.442659 0 0.442659) 5 4 2
(0.218275 0.390863 0.390863 0) 1 1 2
(0.465428 0.267286 0.267286 0) 5 5 2
(0.272857 0.363571 0 0.363571) 9 9 1
(0.835979 0.0820105 0.0820105 0) 1 1 2
(0.659301 0.17035 0 0.17035) 4 4 1
(0.0695833 0.465208 0 0.465208) 1 1 1
(0.620906 0.189547 0 0.189547) 10 9 2
(0.699791 0.150104 0.150104 0) 0 624 2
(0.276732 0.361634 0.361634 0) 1 0 1
(0.150418 0.424791 0 0.424791) 10 9 2
(0.417443 0.291278 0 0.291278) 3 3 1
(0.395211 0.302395 0.302395 0) 4 4 2
(0.32578 0.33711 0.33711 0) 2 2 2
(0.572955 0.213523 0 0.213523) 7 7 1
(0.389008 0.305496 0 0.305496) 8 7 2
(0.310921 0.344539 0 0.344539) 4 3 2
(0.918468 0.0407662 0.0407662 0) 5 4 1
(0.199141 0.40043 0.40043 0) 7 6 1
(0.212727 0.393636 0 0.393636) 2 2 1
(0.00750436 0.496248 0 0.496248) 14 14 1
(0.0304137 0.484793 0.484793 0) 10 9 1
(0.160224 0.419888 0.419888 0) 9 8 1
(0.965703 0.0171487 0.0171487 0) 5 4 1
(0.017459 0.491271 0.491271 0) 5 5 2
(0.0532852 0.473357 0 0.473357) 3 2 2
(0.398315 0.300842 0 0.300842) 9 8 2
(0.50246 0.24877 0 0.24877) 3 3 1
(0.816168 0.0919159 0 0.0919159) 6 5 2
(0.500322 0.249839 0.249839 0) 7 7 2
(0.409333 0.295333 0 0.295333) 2 1 2
(0.395394 0.302303 0 0.302303) 9 8 2
(0.399073 0.300464 0.300464 0) 3 2 1
(0.41834 0.29083 0.29083 0) 4 4 2
(0.383011 0.308495 0 0.308495) 3 2 2
(0.113481 0.443259 0.443259 0) 7 7 2
(0.0828658 0.458567 0.458567 0) 2 2 2
(0.544707 0.227647 0.227647 0) 8 7 1
(0.855401 0.0722993 0 0.0722993) 1 1 1
(0.202845 0.398577 0.398577 0) 8 7 1
(0.579912 0.210044 0.210044 0) 11 10 1
(0.661723 0.169138 0 0.169138) 7 7 1
(0.802968 0.0985161 0 0.0985161) 6 6 1
(0.711425 0.144287 0.144287 0) 4 3 1
(0.602112 0.198944 0.198944 0) 3 2 1
(0.409203 0.295398 0.295398 0) 3 2 1
(0.255631 0.372185 0.372185 0) 2 2 2
(0.676192 0.161904 0.161904 0) 5 4 1
(0.837831 0.0810845 0 0.0810845) 4 4 1
(0.963611 0.0181943 0 0.0181943) 6 6 1
(0.604123 0.197939 0.197939 0) 2 2 2
(0.948104 0.0259482 0 0.0259482) 5 5 1
(0.096047 0.451976 0.451976 0) 4 3 1
(0.593505 0.203248 0 0.203248) 9 9 1
(0.81686 0.0915699 0.0915699 0) 10 9 1
(0.897776 0.0511118 0 0.0511118) 10 9 2
(0.960584 0.0197082 0.0197082 0) 8 7 1
(0.331896 0.334052 0.334052 0) 5 5 2
(0.733351 0.133325 0 0.133325) 11 10 2
(0.0367591 0.48162 0.48162 0) 3 3 2
(0.625859 0.18707 0 0.18707) 6 5 2
(0.00472058 0.49764 0 0.49764) 9 8 2
(0.617873 0.191064 0.191064 0) 7 7 2
(0.486437 0.256781 0.256781 0) 13 13 2
(0.376712 0.311644 0.311644 0) 5 5 2
(0.853823 0.0730885 0.0730885 0) 12 11 1
(0.436393 0.281804 0 0.281804) 9 8 2
(0.542018 0.228991 0 0.228991) 17 16 2
(0.161983 0.419009 0 0.419009) 6 5 2
(0.766984 0.116508 0 0.116508) 9 8 2
(0.981804 0.00909815 0.00909815 0) 6 6 2
(0.344041 0.327979 0.327979 0) 5 5 2
(0.705899 0.14705 0 0.14705) 2 1 2
(0.486665 0.256667 0 0.256667) 7 6 2
(0.167099 0.41645 0 0.41645) 9 8 2
(0.131127 0.434437 0 0.434437) 10 10 1
(0.66509 0.167455 0 0.167455) 11 10 2
(0.0681043 0.465948 0.465948 0) 5 4 1
(0.10274 0.44863 0 0.44863) 10 9 2
(0.950711 0.0246446 0.0246446 0) 13 12 1
(0.582069 0.208965 0.208965 0) 6 6 2
(0.38449 0.307755 0 0.307755) 5 5 1
(0.0127125 0.493644 0 0.493644) 1 0 2
(0.839714 0.080143 0 0.080143) 6 5 2
(0.0616087 0.469196 0 0.469196) 13 12 2
(0.675565 0.162217 0 0.162217) 7 6 2
(0.227755 0.386122 0.386122 0) 7 7 2
(0.512554 0.243723 0 0.243723) 5 5 1
(0.450342 0.274829 0 0.274829) 6 6 1
(0.808148 0.0959262 0.0959262 0) 2 1 1
(0.206632 0.396684 0 0.396684) 7 7 1
(0.442153 0.278924 0.278924 0) 8 7 1
(0.867441 0.0662794 0.0662794 0) 7 6 1
(0.161722 0.419139 0 0.419139) 6 6 1
(0.559356 0.220322 0.220322 0) 2 1 1
(0.450791 0.274604 0.274604 0) 1 1 2
(0.20955 0.395225 0 0.395225) 5 5 1
(0.018852 0.490574 0 0.490574) 2 2 1
(0.430229 0.284885 0 0.284885) 9 8 2
(0.144001 0.427999 0 0.427999) 5 4 2
(0.117577 0.441211 0 0.441211) 11 10 2
(0.789039 0.10548 0 0.10548) 4 4 1
(0.364701 0.317649 0 0.317649) 1 0 2
(0.670382 0.164809 0 0.164809) 12 11 2
(0.217998 0.391001 0 0.391001) 5 5 1
(0.835467 0.0822664 0.0822664 0) 3 2 1
(0.892544 0.0537279 0 0.0537279) 5 4 2
(0.276921 0.36154 0 0.36154) 6 6 1
(0.943199 0.0284004 0 0.0284004) 8 7 2
(0.96253 0.0187352 0.0187352 0) 3 3 2
(0.271893 0.364054 0 0.364054) 3 2 2
(0.308676 0.345662 0.345662 0) 8 8 2
(0.536011 0.231995 0.231995 0) 6 5 1
(0.187318 0.406341 0.406341 0) 7 7 2
(0.580343 0.209828 0.209828 0) 4 4 2
(0.747127 0.126436 0 0.126436) 14 13 2
(0.808088 0.0959559 0 0.0959559) 13 12 2
(0.805282 0.0973588 0.0973588 0) 5 5 2
(0.976373 0.0118136 0.0118136 0) 15 15 2
(0.266794 0.366603 0.366603 0) 1 1 2
(0.755114 0.122443 0.122443 0) 11 10 1
(0.0724989 0.463751 0 0.463751) 19 18 2
(0.959984 0.0200082 0.0200082 0) 9 9 2
(0.149658 0.425171 0.425171 0) 1 1 2
(0.544424 0.227788 0 0.227788) 4 4 1
(0.332935 0.333532 0.333532 0) 12 11 1
(0.520323 0.239839 0.239839 0) 12 12 2
(0.34556 0.32722 0.32722 0) 9 9 2
(0.695109 0.152446 0.152446 0) 4 4 2
(0.162856 0.418572 0 0.418572) 8 7 2
(0.868068 0.0659662 0 0.0659662) 4 4 1
(0.519605 0.240198 0.240198 0) 12 11 1
(0.40056 0.29972 0.29972 0) 9 8 1
(0.0330858 0.483457 0 0.483457) 2 1 2
(0.375813 0.312094 0 0.312094) 6 5 2
(0.4751 0.26245 0 0.26245) 2 1 2
(0.646374 0.176813 0.176813 0) 7 6 1
(0.35788 0.32106 0 0.32106) 14 13 2
(0.186775 0.406612 0 0.406612) 3 3 1
(0.522129 0.238936 0 0.238936) 2 1 2
(0.803495 0.0982527 0.0982527 0) 4 3 1
(0.178514 0.410743 0 0.410743) 9 9 1
(0.1013 0.44935 0 0.44935) 7 6 2
(0.99727 0.0013652 0 0.0013652) 6 6 1
(0.0110362 0.494482 0 0.494482) 7 7 1
(0.851971 0.0740143 0.0740143 0) 9 8 1
(0.977938 0.0110311 0.0110311 0) 7 6 1
(0.925201 0.0373993 0 0.0373993) 13 12 2
(0.847969 0.0760157 0 0.0760157) 11 10 2
(0.0179886 0.491006 0.491006 0) 5 5 2
(0.414413 0.292794 0 0.292794) 7 6 2
(0.82064 0.0896801 0 0.0896801) 1 1 1
(0.361433 0.319284 0 0.319284) 3 3 1
(0.0224619 0.488769 0 0.488769) 15 15 1
(0.656705 0.171648 0.171648 0) 4 4 2
(0.396995 0.301502 0.301502 0) 2 1 1
(0.171858 0.414071 0.414071 0) 10 9 1
(0.988827 0.00558638 0.00558638 0) 1 1 2
(0.742692 0.128654 0.128654 0) 7 6 1
(0.667858 0.166071 0 0.166071) 12 12 1
(0.845473 0.0772637 0 0.0772637) 8 8 1
(0.624643 0.187678 0.187678 0) 2 2 2
(0.257677 0.371162 0 0.371162) 5 4 2
(0.550459 0.22477 0.22477 0) 12 12 2
(0.251197 0.374401 0.374401 0) 3 2 1
(0.772629 0.113685 0.113685 0) 10 9 1
(0.953951 0.0230243 0 0.0230243) 9 9 1
(0.677282 0.161359 0 0.161359) 12 11 2
(0.0216383 0.489181 0.489181 0) 2 1 1
(0.526593 0.236704 0 0.236704) 8 8 1
(0.81888 0.0905601 0.0905601 0) 0 624 2
(0.930098 0.0349509 0 0.0349509) 5 4 2
(0.416163 0.291918 0 0.291918) 10 10 1
(0.342616 0.328692 0.328692 0) 10 9 1
(0.374964 0.312518 0.312518 0) 1 0 1
(0.583885 0.208058 0 0.208058) 6 6 1
(0.860351 0.0698243 0 0.0698243) 2 2 1
(0.0915481 0.454226 0 0.454226) 11 10 2
(0.661428 0.169286 0 0.169286) 6 5 2
(0.140869 0.429565 0.429565 0) 5 4 1
(0.0321126 0.483944 0.483944 0) 4 3 1
(0.0171392 0.49143 0.49143 0) 2 1 1
(0.922652 0.038674 0.038674 0) 8 7 1
(0.75698 0.12151 0.12151 0) 17 17 2
(0.930059 0.0349703 0 0.0349703) 7 6 2
(0.132551 0.433725 0 0.433725) 3 3 1
(0.0692153 0.465392 0 0.465392) 10 10 1
(0.630411 0.184794 0 0.184794) 5 5 1
(0.900416 0.0497919 0.0497919 0) 2 1 1
(0.994306 0.00284679 0 0.00284679) 2 2 1
(0.157699 0.42115 0.42115 0) 12 11 1
(0.0754284 0.462286 0.462286 0) 14 13 1
(0.421475 0.289263 0.289263 0) 10 9 1
(0.164142 0.417929 0 0.417929) 6 5 2
(0.385063 0.307469 0.307469 0) 6 6 2
(0.424632 0.287684 0 0.287684) 5 5 1
(0.549568 0.225216 0 0.225216) 7 6 2
(0.314013 0.342993 0.342993 0) 3 3 2
(0.489616 0.255192 0.255192 0) 7 6 1
(0.0508315 0.474584 0 0.474584) 3 3 1
(0.618879 0.190561 0.190561 0) 4 3 1
(0.238406 0.380797 0.380797 0) 4 3 1
(0.314695 0.342653 0.342653 0) 9 8 1
(0.479488 0.260256 0 0.260256) 9 8 2
(0.979494 0.0102532 0 0.0102532) 4 3 2
(0.199892 0.400054 0 0.400054) 9 9 1
(0.977411 0.0112943 0 0.0112943) 1 0 2
(0.0419018 0.479049 0.479049 0) 3 2 1
(0.131144 0.434428 0.434428 0) 6 5 1
(0.960275 0.0198627 0.0198627 0) 7 7 2
(0.919992 0.0400041 0.0400041 0) 3 2 1
(0.62928 0.18536 0 0.18536) 9 9 1
(0.648702 0.175649 0.175649 0) 6 6 2
(0.110358 0.444821 0 0.444821) 2 2 1
(0.116341 0.44183 0.44183 0) 15 14 1
(0.903358 0.0483212 0 0.0483212) 8 8 1
(0.13545 0.432275 0.432275 0) 2 1 1
(0.953485 0.0232576 0.0232576 0) 15 15 2
(0.276567 0.361717 0 0.361717) 1 1 1
(0.390474 0.304763 0 0.304763) 2 2 1
(0.179697 0.410151 0 0.410151) 7 6 2
(0.83306 0.0834699 0 0.0834699) 9 9 1
(0.673482 0.163259 0 0.163259) 1 0 2
(0.635104 0.182448 0.182448 0) 6 5 1
(0.344365 0.327818 0.327818 0) 3 3 2
(0.250963 0.374519 0 0.374519) 5 5 1
(0.485507 0.257246 0.257246 0) 9 8 1
(0.734806 0.132597 0.132597 0) 5 5 2
(0.87469 0.0626551 0 0.0626551) 7 6 2
(0.19364 0.40318 0 0.40318) 8 7 2
(0.574748 0.212626 0.212626 0) 9 8 1
(0.1382 0.4309 0.4309 0) 4 4 2
(0.769747 0.115127 0.115127 0) 5 5 2
(0.786815 0.106592 0.106592 0) 2 1 1
(0.766319 0.116841 0.116841 0) 8 8 2
(0.895895 0.0520523 0.0520523 0) 10 10 2
(0.815988 0.0920062 0.0920062 0) 3 3 2
(0.245753 0.377124 0.377124 0) 5 5 2
(0.0990984 0.450451 0.450451 0) 8 8 2
(0.774591 0.112705 0 0.112705) 7 7 1
(0.359111 0.320444 0 0.320444) 2 2 1
(0.24144 0.37928 0 0.37928) 6 5 2
(0.0474631 0.476268 0.476268 0) 8 8 2
(0.955869 0.0220657 0.0220657 0) 5 5 2
(0.597643 0.201179 0 0.201179) 6 6 1
(0.19264 0.40368 0.40368 0) 4 4 2
(0.817706 0.0911471 0 0.0911471) 6 6 1
(0.514415 0.242792 0 0.242792) 2 2 1
(0.579694 0.210153 0.210153 0) 3 2 1
(0.583218 0.208391 0.208391 0) 4 3 1
(0.834033 0.0829836 0.0829836 0) 1 0 1
(0.664696 0.167652 0 0.167652) 7 7 1
(0.883264 0.0583682 0.0583682 0) 3 3 2
(0.665512 0.167244 0 0.167244) 7 7 1
(0.580779 0.20961 0 0.20961) 3 3 1
(0.565008 0.217496 0 0.217496) 8 7 2
(0.24871 0.375645 0 0.375645) 6 6 1
(0.674517 0.162741 0.162741 0) 11 10 1
(0.768521 0.115739 0 0.115739) 10 9 2
(0.0228029 0.488599 0 0.488599) 7 6 2
(0.859155 0.0704227 0 0.0704227) 6 5 2
(0.386499 0.306751 0 0.306751) 4 3 2
(0.772339 0.11383 0.11383 0) 4 3 1
(0.247648 0.376176 0.376176 0) 8 7 1
(0.133172 0.433414 0 0.433414) 9 9 1
(0.972892 0.0135542 0 0.0135542) 10 9 2
(0.920624 0.0396879 0.0396879 0) 2 1 1
(0.833058 0.0834711 0 0.0834711) 9 8 2
(0.972223 0.0138886 0.0138886 0) 13 13 2
(0.692127 0.153936 0 0.153936) 6 6 1
(0.344076 0.327962 0.327962 0) 3 3 2
(0.281603 0.359198 0 0.359198) 7 7 1
(0.218318 0.390841 0 0.390841) 4 3 2
(0.801925 0.0990373 0 0.0990373) 6 5 2
(0.757722 0.121139 0.121139 0) 2 2 2
(0.153352 0.423324 0.423324 0) 5 5 2
(0.935958 0.0320212 0.0320212 0) 0 624 2
(0.961422 0.0192889 0 0.0192889) 16 15 2
(0.42232 0.28884 0.28884 0) 6 6 2
(0.932961 0.0335195 0 0.0335195) 12 11 2