/*--------------------------------*- C++ -*----------------------------------*\
  =========                 |
  \\      /  F ield         | OpenFOAM: The Open Source CFD Toolbox
   \\    /   O peration     | Website:  https://openfoam.org
    \\  /    A nd           | Version:  7
     \\/     M anipulation  |
\*---------------------------------------------------------------------------*/
FoamFile
{
    version     2.0;
    format      ascii;
    class       volScalarField;
    location    "0.009";
    object      iDofMean;
}
// * * * * * * * * * * * * * * * * * * * * * * * * * * * * * * * * * * * * * //

dimensions      [0 -3 0 0 0 0 0];

internalField   nonuniform List<scalar> 
546
(
6.157507892e+20
6.151296228e+20
6.228119411e+20
6.096183211e+20
6.082896538e+20
6.102475716e+20
6.139094122e+20
6.044799981e+20
5.984996244e+20
6.002767151e+20
5.866424017e+20
5.873392863e+20
5.938632918e+20
5.850364085e+20
5.865705591e+20
5.962236121e+20
5.80927565e+20
5.773916682e+20
5.780114312e+20
5.746511163e+20
5.745686713e+20
5.727583615e+20
5.678553728e+20
5.566898867e+20
5.48447321e+20
5.390008603e+20
5.135914928e+20
4.883703459e+20
4.452460014e+20
3.654850948e+20
5.486086133e+20
5.476624323e+20
5.53906875e+20
5.554992372e+20
5.551023788e+20
5.485930214e+20
5.479494014e+20
5.448312733e+20
5.37353768e+20
5.409354336e+20
5.439066844e+20
5.383523214e+20
5.447395452e+20
5.367379799e+20
5.423330522e+20
5.371204757e+20
5.251797087e+20
5.299244426e+20
5.26806714e+20
5.323643102e+20
5.258900751e+20
5.247658014e+20
5.254644449e+20
5.161798009e+20
5.035237626e+20
4.963842321e+20
4.820324822e+20
4.500279134e+20
4.08243576e+20
3.473086547e+20
5.139307855e+20
5.213666002e+20
5.24187486e+20
5.219736448e+20
5.262540861e+20
5.276758065e+20
5.244522227e+20
5.117672458e+20
5.175790735e+20
5.147768067e+20
5.183265813e+20
5.114892015e+20
5.188794759e+20
5.132031725e+20
5.158838791e+20
5.064486813e+20
5.026964531e+20
5.038587571e+20
5.01560423e+20
5.029876929e+20
4.994915888e+20
4.923936551e+20
4.917989627e+20
4.845440382e+20
4.853147792e+20
4.752468234e+20
4.525121188e+20
4.31605645e+20
4.021779131e+20
3.519872998e+20
4.83555282e+20
4.917712334e+20
4.980603283e+20
5.029756396e+20
5.065425406e+20
5.066809675e+20
5.070666055e+20
5.038165348e+20
5.072680578e+20
5.033387454e+20
5.034142694e+20
5.014738232e+20
5.015738366e+20
4.985510885e+20
5.005343588e+20
4.942830244e+20
4.989181819e+20
4.947070077e+20
4.943357104e+20
4.854208001e+20
4.830297769e+20
4.853641742e+20
4.850765646e+20
4.746263821e+20
4.672812311e+20
4.590717925e+20
4.413334297e+20
4.281499167e+20
3.988722213e+20
3.556782998e+20
4.518437151e+20
4.671628343e+20
4.777465134e+20
4.897682784e+20
4.931378682e+20
4.985821453e+20
5.028688185e+20
5.008842831e+20
4.956066014e+20
4.984656932e+20
5.006007271e+20
4.997277754e+20
4.962826624e+20
4.948205652e+20
4.971622419e+20
4.929051461e+20
4.872388623e+20
4.886931645e+20
4.87645099e+20
4.832951651e+20
4.80465285e+20
4.793422708e+20
4.741519255e+20
4.608052239e+20
4.517763733e+20
4.460402102e+20
4.382908534e+20
4.20355881e+20
3.954285305e+20
3.643581691e+20
4.148576891e+20
4.350212525e+20
4.527071446e+20
4.642557977e+20
4.785108544e+20
4.834867681e+20
4.940873608e+20
4.99675649e+20
4.980056204e+20
5.027249433e+20
5.048075911e+20
4.995542543e+20
5.001799834e+20
4.966004153e+20
4.988677438e+20
4.982934343e+20
4.924742244e+20
4.784878527e+20
4.791167226e+20
4.835905538e+20
4.802608276e+20
4.756772788e+20
4.657949954e+20
4.64348957e+20
4.598947931e+20
4.495376799e+20
4.343367423e+20
4.245263734e+20
4.033320816e+20
3.81122782e+20
3.774678516e+20
3.982794055e+20
4.17144055e+20
4.356848763e+20
4.520250703e+20
4.630715254e+20
4.736981093e+20
4.817878629e+20
4.947592658e+20
4.934325197e+20
4.937578483e+20
4.892189489e+20
4.891439495e+20
4.907814611e+20
4.915901934e+20
4.910567724e+20
4.885208763e+20
4.865233962e+20
4.823557843e+20
4.797099707e+20
4.814583722e+20
4.775451309e+20
4.682735436e+20
4.623402452e+20
4.57481053e+20
4.517289428e+20
4.405820267e+20
4.317050912e+20
4.151811413e+20
3.901951814e+20
3.463993898e+20
3.667856771e+20
3.850365918e+20
4.047283736e+20
4.236441431e+20
4.37445091e+20
4.52823896e+20
4.619557524e+20
4.705413551e+20
4.786425673e+20
4.840799075e+20
4.893436659e+20
4.920245783e+20
4.928588721e+20
4.878069799e+20
4.923226296e+20
4.958628077e+20
4.95361922e+20
4.896321796e+20
4.845983454e+20
4.819490648e+20
4.843506976e+20
4.759409957e+20
4.695116536e+20
4.612075346e+20
4.529374843e+20
4.454107199e+20
4.298218393e+20
4.147044154e+20
4.000209614e+20
3.094632166e+20
3.295165078e+20
3.503234949e+20
3.692555745e+20
3.883092215e+20
4.105042159e+20
4.272877925e+20
4.398955509e+20
4.553581597e+20
4.676475104e+20
4.759136406e+20
4.837801703e+20
4.891166194e+20
4.919000678e+20
4.915179742e+20
4.903958362e+20
4.892889545e+20
4.946785347e+20
4.983098764e+20
4.950122172e+20
4.895666004e+20
4.895948285e+20
4.816232387e+20
4.733851757e+20
4.694408988e+20
4.625387425e+20
4.493525247e+20
4.414818212e+20
4.288555379e+20
4.114358454e+20
2.832703893e+20
3.013574681e+20
3.204320839e+20
3.366577087e+20
3.530924248e+20
3.745899482e+20
3.927564304e+20
4.147769801e+20
4.285770581e+20
4.406028723e+20
4.556324684e+20
4.659943333e+20
4.737787697e+20
4.839706388e+20
4.907791065e+20
4.905134639e+20
4.920901881e+20
4.906920851e+20
4.931756215e+20
4.954639911e+20
4.878783591e+20
4.858002007e+20
4.860988934e+20
4.814020473e+20
4.765853579e+20
4.725733654e+20
4.607283e+20
4.514636573e+20
4.396758775e+20
4.228380598e+20
2.647001037e+20
2.756542458e+20
2.920332181e+20
3.087698388e+20
3.24043832e+20
3.456463615e+20
3.657185122e+20
3.823172708e+20
4.005196585e+20
4.167660174e+20
4.291055481e+20
4.450905531e+20
4.565551254e+20
4.712251437e+20
4.826793635e+20
4.881777922e+20
4.896052184e+20
4.836759298e+20
4.873005177e+20
4.888438226e+20
4.89554917e+20
4.916512316e+20
4.9188812e+20
4.883755864e+20
4.858047858e+20
4.78042357e+20
4.692339626e+20
4.588847734e+20
4.502954961e+20
4.369436436e+20
2.460400833e+20
2.5940266e+20
2.703432275e+20
2.844858319e+20
3.005676794e+20
3.15165807e+20
3.300659984e+20
3.486226461e+20
3.659059957e+20
3.874102869e+20
4.040418955e+20
4.216327736e+20
4.342425481e+20
4.474423695e+20
4.625022124e+20
4.751999712e+20
4.809191557e+20
4.865917369e+20
4.881217688e+20
4.946878697e+20
4.954958864e+20
4.921049283e+20
4.909608843e+20
4.877759699e+20
4.813342166e+20
4.81375028e+20
4.780475741e+20
4.706877042e+20
4.66027325e+20
4.529168707e+20
2.376398317e+20
2.433419104e+20
2.520683817e+20
2.637649054e+20
2.743386901e+20
2.877229621e+20
3.030593706e+20
3.185802092e+20
3.396597778e+20
3.570297684e+20
3.77305168e+20
3.942870439e+20
4.125695e+20
4.292526249e+20
4.393529359e+20
4.537532361e+20
4.705049033e+20
4.821269133e+20
4.890808522e+20
4.942245203e+20
4.945787533e+20
4.996529379e+20
4.976000777e+20
4.919193194e+20
4.895494239e+20
4.856598768e+20
4.833443593e+20
4.780218055e+20
4.694772884e+20
4.593112296e+20
2.211683623e+20
2.28958554e+20
2.372086872e+20
2.456997219e+20
2.541340996e+20
2.661485248e+20
2.809753559e+20
2.974606381e+20
3.103419655e+20
3.301132295e+20
3.479916077e+20
3.676625177e+20
3.859113817e+20
4.031720215e+20
4.204146389e+20
4.349334389e+20
4.465927948e+20
4.603722844e+20
4.679637881e+20
4.79431953e+20
4.916228624e+20
4.875855593e+20
4.911510932e+20
4.965003889e+20
4.916123021e+20
4.886995661e+20
4.86842704e+20
4.847405838e+20
4.829823269e+20
4.735497617e+20
2.205651412e+20
2.227461903e+20
2.277626387e+20
2.352602508e+20
2.419671785e+20
2.516327458e+20
2.60127218e+20
2.720688124e+20
2.844664541e+20
2.980514311e+20
3.143582135e+20
3.317112719e+20
3.482062994e+20
3.677292991e+20
3.867490274e+20
4.035222952e+20
4.202747916e+20
4.33794059e+20
4.509414971e+20
4.658325292e+20
4.732449876e+20
4.869374135e+20
4.882505361e+20
4.907800482e+20
4.96947962e+20
4.940403825e+20
4.940611239e+20
4.887184058e+20
4.815208013e+20
4.726887391e+20
2.131968491e+20
2.156549505e+20
2.192728286e+20
2.242753562e+20
2.297026718e+20
2.363148449e+20
2.449734692e+20
2.53592474e+20
2.667041832e+20
2.772408868e+20
2.904350321e+20
3.068870113e+20
3.255930846e+20
3.412905246e+20
3.597832004e+20
3.795774593e+20
3.979609684e+20
4.151545595e+20
4.291352676e+20
4.451901269e+20
4.588628115e+20
4.688068905e+20
4.815994636e+20
4.909719255e+20
4.922354002e+20
4.92984419e+20
4.92084062e+20
4.888364972e+20
4.855792084e+20
2.082962879e+20
2.100301751e+20
2.13069907e+20
2.180973088e+20
2.246284127e+20
2.293079386e+20
2.348570595e+20
2.428776654e+20
2.495932957e+20
2.614048028e+20
2.724402007e+20
2.847469032e+20
2.988201808e+20
3.145266381e+20
3.340228944e+20
3.501155063e+20
3.651368805e+20
3.837470313e+20
4.028380045e+20
4.190511891e+20
4.401928417e+20
4.536990957e+20
4.672096058e+20
4.798190641e+20
2.049062775e+20
2.087696225e+20
2.113092046e+20
2.13698252e+20
2.153735392e+20
2.192167556e+20
2.244955686e+20
2.298139099e+20
2.375452443e+20
2.460864453e+20
2.536115195e+20
2.65415649e+20
2.751684115e+20
2.890687101e+20
3.043127142e+20
3.21308894e+20
3.429360069e+20
3.583533442e+20
3.797166284e+20
2.056092064e+20
2.068913487e+20
2.080407832e+20
2.101606587e+20
2.122765977e+20
2.162514982e+20
2.195207965e+20
2.233188132e+20
2.261168052e+20
2.343014527e+20
2.416795198e+20
2.504766311e+20
2.607160688e+20
2.737939534e+20
2.027027683e+20
2.04661525e+20
2.043726583e+20
2.063885835e+20
2.089023196e+20
2.11433606e+20
2.144417365e+20
2.197875011e+20
2.037596558e+20
2.045209085e+20
)
;

boundaryField
{
    flow
    {
        type            calculated;
        value           nonuniform List<scalar> 
15
(
3.654850948e+20
3.473086547e+20
3.519872998e+20
3.556782998e+20
3.643581691e+20
3.81122782e+20
3.901951814e+20
4.000209614e+20
4.114358454e+20
4.228380598e+20
4.369436436e+20
4.529168707e+20
4.593112296e+20
4.735497617e+20
4.726887391e+20
)
;
    }
    obstacle
    {
        type            calculated;
        value           nonuniform List<scalar> 
30
(
275.0550352
266.0032851
283.1901161
276.9863733
261.2969416
273.2044265
262.8738297
267.0208296
261.6467983
260.5581533
254.9785253
256.1037947
260.943827
264.2370565
254.8003849
259.2389253
246.0648883
253.8860275
250.8539319
249.985293
249.4704801
249.7159099
245.4363854
238.5193362
231.5547362
226.3424322
226.0487205
212.9371472
193.298317
159.0433571
)
;
    }
    frontAndBack
    {
        type            empty;
    }
    procBoundary1to0
    {
        type            processor;
        value           nonuniform List<scalar> 
21
(
6.29007705e+20
5.539456668e+20
5.146651633e+20
4.699654647e+20
4.367772256e+20
3.988280129e+20
3.579737155e+20
3.253843094e+20
2.910033522e+20
2.687029932e+20
2.52311784e+20
2.353761818e+20
2.30407348e+20
2.175299532e+20
2.141151195e+20
2.112941687e+20
2.067064117e+20
2.030441247e+20
2.045634804e+20
2.030144304e+20
2.014554839e+20
)
;
    }
    procBoundary1to3
    {
        type            processor;
        value           nonuniform List<scalar> 
36
(
4.882504562e+20
4.867969117e+20
4.950536109e+20
4.953298897e+20
4.953812503e+20
4.882504562e+20
4.959353712e+20
3.968507605e+20
4.121294854e+20
4.298471836e+20
4.449204928e+20
4.867969117e+20
4.599657601e+20
2.865632665e+20
2.992516343e+20
3.161097161e+20
3.351351255e+20
3.968507605e+20
3.515241705e+20
2.248563934e+20
2.279606142e+20
2.322651795e+20
2.382814037e+20
2.447714878e+20
2.865632665e+20
2.526175861e+20
2.066393071e+20
2.080860173e+20
2.089279975e+20
2.107815603e+20
2.131276483e+20
2.248563934e+20
2.14206764e+20
2.028772542e+20
2.066393071e+20
2.037977199e+20
)
;
    }
}


// ************************************************************************* //
