/*--------------------------------*- C++ -*----------------------------------*\
  =========                 |
  \\      /  F ield         | OpenFOAM: The Open Source CFD Toolbox
   \\    /   O peration     | Website:  https://openfoam.org
    \\  /    A nd           | Version:  7
     \\/     M anipulation  |
\*---------------------------------------------------------------------------*/
FoamFile
{
    version     2.0;
    format      ascii;
    class       volVectorField;
    location    "0.009";
    object      momentum;
}
// * * * * * * * * * * * * * * * * * * * * * * * * * * * * * * * * * * * * * //

dimensions      [1 -2 -1 0 0 0 0];

internalField   nonuniform List<vector> 
546
(
(0.002135607008 0.003194600099 -0.0005213490645)
(0.00460577265 8.016956817e-05 -9.853861402e-05)
(0.00810189692 0.00069119545 -0.001835946632)
(0.006405764689 0.000600807703 0.0005915667738)
(0.004482503706 -0.0006469952965 0.0001956011505)
(0.004353754782 0.0005835820505 0.0004165841318)
(0.00399152265 0.002635853169 -0.0003855406309)
(0.003363924634 0.001546156542 0.001224088509)
(0.004428833124 0.0009965344865 -0.001084644334)
(0.009403740842 0.000403966427 -0.001357220474)
(0.00759586449 0.001883807217 0.0031322292)
(0.006136652104 0.003370815006 0.002754562125)
(0.002162472746 0.001902652913 -0.001864178689)
(0.003279868742 0.0001843221189 -0.0004551774788)
(0.005778062682 -0.0006631617429 0.002100080028)
(0.003235543245 -0.001320752645 -0.002894597092)
(0.000934219984 0.001152708087 -0.0004477719563)
(0.001567147341 -0.001491773968 0.0001727616044)
(0.003400330111 0.0002411708872 -0.002562189267)
(0.0008383956376 0.002046108602 0.0009600027562)
(0.005516710255 0.0001463803672 0.0006053802251)
(0.003105808573 0.0001614144727 0.001256074039)
(0.004580421026 0.003623186699 -0.0007456882998)
(0.00115269369 0.0005652101079 -0.0003605239125)
(0.001688708195 -0.0005088724869 0.0006847190025)
(0.003055224435 0.00137188475 6.539714675e-05)
(0.00430794664 0.001922697542 -0.001004724599)
(0.003344680463 -0.0008305477195 0.001636815776)
(0.004364908098 -0.0003306920519 0.0008225586764)
(0.005127933664 -0.0006128417145 0.0001452995091)
(0.009739457203 0.002495092659 0.0004049850905)
(0.009046397592 0.00232451933 0.001196989597)
(0.0103283861 0.003563958711 -0.0003667822166)
(0.009634319143 -0.0006674864246 0.0003757129182)
(0.009284085085 0.004596826771 0.0006023787673)
(0.01162986195 0.0007204699975 0.0006674894475)
(0.008074109563 0.004168684611 -0.002061520097)
(0.003173526322 0.0004521960565 -0.0002763719012)
(0.005370105988 0.001614764835 -0.001354137856)
(0.005918223818 0.001190569824 -0.0001840548177)
(0.005024838145 0.004365972495 -0.002536711339)
(0.00457306979 0.001763429286 0.002935695262)
(0.004135667221 0.0005113600671 0.0008802162131)
(0.005420227389 0.004049406005 0.0001872800383)
(0.006010838587 0.00146350838 0.001288173147)
(0.00301301514 0.001313322925 0.0008607873795)
(0.007536702296 0.001458251301 -0.003886912524)
(0.004119307464 0.000374183593 0.002340357757)
(0.005212980351 0.00204902294 0.0003972823176)
(0.00478041323 0.0003157633241 0.00141304416)
(0.005394461127 0.002650088326 -0.001800378839)
(0.004936010439 -0.0001046444066 0.0009023164848)
(0.00252000608 0.00197473311 -8.337651716e-05)
(0.007190241401 -0.001559479123 -0.001151902669)
(0.006193721588 0.0001280205123 0.001017578248)
(0.005502990902 0.001392755671 -0.0003558034825)
(0.005982406983 0.0008581666581 -0.002005496748)
(0.00642295238 0.001420122063 -0.003898869653)
(0.005437973868 0.0001016836995 -0.001405212549)
(0.005122182007 0.001296613607 -0.0006992531592)
(0.01200926469 0.005522724083 -0.0002685965674)
(0.007811565071 0.001384556346 0.002149364241)
(0.005510978781 0.001986690262 -0.0003161132477)
(0.008291933591 0.003546728565 -0.0006854356004)
(0.008513167318 0.002536337885 0.002221484006)
(0.01545044333 0.004199703734 0.002021250575)
(0.01400790719 0.0053449591 0.0003063247797)
(0.008043673129 0.002475917787 -0.0007586730881)
(0.004752047109 0.003003588918 -0.0001415691024)
(0.008977749746 0.001295469536 -2.917551685e-06)
(0.004433844849 -0.0003903689496 0.0007453023997)
(0.007572758966 0.002441847005 -0.0009965515278)
(0.007782036281 0.004660166357 0.0005517641161)
(0.005626396381 0.002835416334 -0.001417028117)
(0.006008609316 0.005332336092 -1.226044297e-05)
(0.007854446912 0.001486889414 0.0007295108253)
(0.006057272279 0.002175712032 -0.0001526644478)
(0.002642359739 0.003419174649 0.0001457108218)
(0.007618377226 0.002169859903 -0.001306386866)
(0.003997283813 0.001064126824 -0.0005874347507)
(0.004499742982 0.001330472814 -0.0003848128229)
(0.007420861194 0.002628302299 -0.001717297005)
(0.007258303506 0.0008839686238 -0.001541005091)
(0.006425193258 0.00466383975 -0.002398908363)
(0.003642534949 0.001625005097 3.868792965e-05)
(0.005194821475 0.0007635282578 -0.0006597883785)
(0.0059426583 0.00129497268 0.003294397491)
(0.006182317731 0.001989167815 0.0004734719646)
(0.00572729478 -0.0006577498765 -0.0008073009052)
(0.008175703916 0.001883103459 0.0009118973749)
(0.009400142487 0.002601673556 0.001255578279)
(0.011356959 0.003575528023 0.001462268294)
(0.01384830222 0.005718467169 -0.001457453117)
(0.01350188394 0.002499561017 0.001821666227)
(0.01514057747 0.003935846003 -0.0005574735016)
(0.01235020828 0.002470027232 0.0005323323556)
(0.01144445156 0.005163846035 -0.001887958853)
(0.01152070942 0.003068050363 0.0004060002364)
(0.01060714555 0.003688242799 0.0009813966849)
(0.01003737869 0.004871989932 -6.997852412e-05)
(0.006829976309 0.002590289566 0.0002511651141)
(0.01056107828 0.004364427796 0.0003529523738)
(0.007172602971 0.001153556484 -0.001752240269)
(0.008068278732 0.001573810142 0.001095427895)
(0.005448400036 0.005081279425 -0.001178300485)
(0.007987317359 0.00159489097 0.001579775784)
(0.005907823598 0.002624869294 0.0002000673928)
(0.004660585412 0.00250925993 -0.0005104844828)
(0.004633681447 0.005058111122 -0.0002608355976)
(0.009284726367 0.001157199105 -0.0003862065237)
(0.005679147149 0.001845058844 -0.0004750334986)
(0.004384465674 -0.0003365675727 0.0009882653957)
(0.01000801016 0.0005761005272 -0.0002650057642)
(0.004509454882 0.005323353767 0.001500810003)
(0.009169584177 0.001664378873 -0.0003805305466)
(0.007893031299 0.003589985541 -0.00101596793)
(0.007567622132 0.001959002401 -0.0006553951127)
(0.007077817855 0.003372826297 -0.0009541689351)
(0.009269369193 0.0002405696342 -0.002544232736)
(0.006532167312 0.001659299952 0.000818075074)
(0.012330077 0.003838494211 -0.001636877045)
(0.007340750612 -0.0001834856891 -0.0008028955122)
(0.007162627413 0.002396956806 0.0006801393556)
(0.01287391516 0.004884999483 -0.0008106731928)
(0.01502204989 0.006018017052 -0.0002756704725)
(0.01235078664 0.002929280966 -0.001052323041)
(0.01461794976 0.003500208053 -0.002433721544)
(0.01566811509 0.002727064885 -2.961493138e-05)
(0.01168977597 0.00426025504 -0.002228337952)
(0.0057570702 0.00223995721 -0.0005946040465)
(0.009770920656 0.002423493216 -0.0001892482906)
(0.01024506616 0.003754533401 -0.0004978822038)
(0.009192977323 0.003425720682 -0.002108009363)
(0.00951093732 0.00419923458 -0.00116816368)
(0.01343026408 0.004377551406 0.002156262899)
(0.01206313235 0.0007183786957 0.001887433981)
(0.01123718024 0.005200202671 -0.001881304873)
(0.008112043595 0.002950464147 -0.001794047198)
(0.009788237108 0.00267670163 -0.0006835811008)
(0.007887067271 0.003627293302 0.0008673828124)
(0.008656061103 0.00275834818 0.000148022508)
(0.009290649972 -0.0004337013335 -0.001940962496)
(0.0138314101 0.003721755929 -0.0005066235569)
(0.01265308889 0.003027996557 0.001146078318)
(0.00970060301 0.003153616045 -0.001195037451)
(0.007605929987 0.003900272441 0.0003158302654)
(0.01256654202 0.001725905798 -0.0005061427986)
(0.005160152908 0.0007758793782 -0.0001286630533)
(0.008533086137 0.001432344673 0.0002463742337)
(0.009491763176 0.0001983876952 0.002715652642)
(0.01818434687 0.002991798856 0.0001875460841)
(0.01518363399 0.003962772101 0.000916783777)
(0.01162185071 0.00198356257 0.001960510555)
(0.008784360566 9.104415404e-05 0.0008251614742)
(0.009972333436 0.002928943838 0.0009262339101)
(0.01797225511 0.003468637852 0.0001854743897)
(0.01093550326 0.003790544142 -0.001041663737)
(0.01048848942 0.00241239382 -0.0005896675954)
(0.009939257048 0.003344287928 -0.001869712977)
(0.01299190845 0.003682963804 8.389366309e-05)
(0.01047946262 0.004257096148 0.001539941368)
(0.015810069 0.007339074259 9.08578573e-05)
(0.01230753645 0.004723846755 0.003146930771)
(0.01321289339 0.003634272633 0.001025551257)
(0.01095119224 0.003287734491 0.001727756896)
(0.01835882976 0.004755051639 -0.000385639258)
(0.01063315923 0.002381988454 0.001407153605)
(0.008493074035 -3.74711388e-05 -0.001136189985)
(0.009814004433 0.003465044114 0.001720437899)
(0.008326195333 0.003336983392 -0.0003917225427)
(0.01017725894 0.005785462294 -0.00135883766)
(0.01157021249 0.002843709598 0.0001782437399)
(0.009569268088 0.001659048569 0.0002843451847)
(0.009037495233 0.001771254895 2.838287515e-05)
(0.0102365458 0.001690673501 -0.0004981680102)
(0.01297359216 0.0005338821008 0.001644906393)
(0.0107422065 0.001804263591 0.0001007359562)
(0.008245317233 0.003655397364 -0.0006463801771)
(0.01251342287 0.002884186436 -0.0006972408825)
(0.005839303488 0.001417358716 -2.506462075e-05)
(0.01127865348 0.002396422896 -5.210051391e-05)
(0.01506317056 0.003080550997 -0.001132836046)
(0.01051450052 0.002433666547 -0.001697211467)
(0.01331301515 0.003477914814 -0.001312027166)
(0.006077266702 0.003336809413 -0.001388127177)
(0.01762298742 0.005186273841 -0.0006057459838)
(0.02171817005 0.007772257255 -0.0002427712515)
(0.01479748684 0.004572654578 -9.65806746e-05)
(0.01365080132 0.005591903356 -0.0009798399682)
(0.01411105642 0.00505654956 -0.0007179680941)
(0.01353952624 0.002642891855 -0.002836400131)
(0.01080751807 0.004463867605 0.0001903488635)
(0.0140759514 0.004835220001 -0.002471844852)
(0.01646051316 0.003626286046 0.001130937451)
(0.007562094341 0.00278760253 -0.0007737689506)
(0.01061507099 0.003124477258 0.0003816525081)
(0.009829635196 0.004188222706 0.0004852689335)
(0.01143854396 0.001668967273 -0.001119214937)
(0.002481858598 0.000649363861 -0.0004651583362)
(0.006705681558 0.00384278341 -0.0002647077805)
(0.0126183352 0.004631557066 -0.0006114687091)
(0.005462259995 0.00214979067 0.002405125224)
(0.009390589133 0.005724996991 -0.0002472103431)
(0.01050787334 0.003385685786 -0.001841227061)
(0.004756100323 0.002257426866 0.001325825211)
(0.008582574214 0.004275610253 -0.0008785404261)
(0.01263212877 0.00203880258 -0.0005661967679)
(0.006054202435 0.0008984505626 0.001037451864)
(0.008361583224 0.002584103342 0.002406941833)
(0.007048062076 0.001327894067 -1.816566201e-05)
(0.0117480561 0.002288578083 1.470921353e-05)
(0.01459049896 0.004072440139 0.002281834089)
(0.007255622061 0.003145340292 3.413212945e-05)
(0.01027890407 0.004636115432 -0.001434460133)
(0.01006877027 0.002091815842 -0.002218898938)
(0.011402752 0.003715233564 -0.0005636987316)
(0.01152712416 0.003222876241 -5.224707304e-05)
(0.01496364442 0.006926075678 0.0007974402728)
(0.01380955277 0.003193831518 -0.0001373339582)
(0.008734909119 0.002725188405 0.0001177871356)
(0.01261622335 0.00319390251 0.0004499353453)
(0.01022285476 0.002483277925 -0.0003968296136)
(0.008447267864 0.002247806028 -0.0005568181455)
(0.01126198343 0.003738337682 -0.00101461923)
(0.01223086851 0.001388850108 0.001794497077)
(0.008312255806 0.003101579197 -0.001915592743)
(0.009693514817 0.003148059119 0.000294843289)
(0.01049276903 0.005984630761 -4.34282904e-05)
(0.01090360331 0.003515581993 -0.002412939054)
(0.0147147446 0.0008311258272 5.377965198e-05)
(0.009005520618 0.00394701098 0.001271773988)
(0.006105319531 0.001860040519 0.000962994794)
(0.01391186928 0.005419100357 -0.001147124139)
(0.01202119445 0.004331621003 -0.0004356659497)
(0.01023062931 0.005116659476 0.0002481748153)
(0.01215902818 0.002985157212 0.001832985535)
(0.01006808991 0.001826259219 -2.011496888e-05)
(0.00837750098 0.0002998529649 0.000773397628)
(0.009166108143 0.00292635688 -0.0002964368757)
(0.01057405858 0.000312464654 -0.001826700991)
(0.007942836059 0.001380786201 0.0009533367214)
(0.005085508234 0.000739645585 -5.786331362e-05)
(0.01492212901 0.00380381748 0.0009036047845)
(0.0105473475 0.00425824733 1.792467928e-05)
(0.02140860318 0.003819051045 -0.001485431261)
(0.01345074784 0.002120542692 -0.001091513072)
(0.009728407691 0.003683337463 0.0002371664251)
(0.01758130827 0.005462388938 0.0006484252564)
(0.01369648464 0.002556256153 0.00139785039)
(0.016854617 0.007419185823 0.0006360800989)
(0.01852856451 0.007522340516 6.509461445e-05)
(0.01948233278 0.008376356754 0.0003206007935)
(0.01417793886 0.005411231119 -0.0008303009306)
(0.009193913958 0.002938644766 0.0007374054365)
(0.01112393955 0.004907624309 0.0005395759501)
(0.01067000035 0.005431761673 0.00102327415)
(0.01277961917 0.00669128966 -0.002622938607)
(0.0155599721 0.001806659757 0.0002174564592)
(0.01085865215 0.00450698543 0.0002140685855)
(0.005963003344 0.001136851466 -0.000621725766)
(0.009622713271 0.001686332939 -0.0007637378401)
(0.01126031604 0.002224669813 -0.001016308032)
(0.01451436178 0.003838849473 -0.001089664155)
(0.007892059338 0.005674764617 0.0004411837711)
(0.01021674824 0.0008112990717 0.0007974266033)
(0.01218709289 0.004353790441 0.0007030796643)
(0.01284172606 0.003880303994 0.00162368523)
(0.008589779294 0.005163459737 0.0002695197934)
(0.007938940981 0.003354379754 -2.805497386e-05)
(0.01087580017 0.001857754953 -0.0004900890968)
(0.01436870024 0.004984681432 -5.061660411e-05)
(0.01061654246 0.00159831747 -0.0003595715861)
(0.0122225981 0.002366308361 -0.0008230530724)
(0.01270438421 0.001865513716 -0.0003933380025)
(0.01346199943 0.003998485585 0.0004495028757)
(0.01254005168 0.005341321548 1.80868649e-05)
(0.01588466808 0.006656262646 -0.001001252632)
(0.01451449366 0.005263528463 -0.001758310589)
(0.009501447973 0.001195882017 0.001161065963)
(0.0122175926 0.002763729566 -0.0003594075474)
(0.009434695585 0.003733048782 -0.001313319036)
(0.009281417136 0.005116039377 0.001027749882)
(0.01143572357 0.006538028518 0.000822282131)
(0.006372890566 0.002860343494 0.0009089038481)
(0.007441338354 0.004153133265 0.001317879277)
(0.01332046534 0.003440006273 0.00106259201)
(0.0105246804 0.006219707304 -0.002143860946)
(0.01793435145 0.005636241785 0.0009507565146)
(0.01668471 0.007209633269 -0.001679142115)
(0.02156178694 0.005258589963 0.0005945124335)
(0.01381338707 0.002328386033 -0.0007956965979)
(0.0147706219 0.003256734098 -0.001538520891)
(0.01711638485 0.008549123389 -0.002221977802)
(0.01521030371 0.003677795522 0.002176473395)
(0.008207357398 0.002205590151 -0.001001967569)
(0.01228474001 0.004927620034 0.001000604316)
(0.01394589445 0.004722226719 0.0007090878813)
(0.009717345378 0.003626405746 -0.0004110260489)
(0.01323659139 0.002800567771 2.241017215e-07)
(0.007026903683 0.001810464618 0.001259389004)
(0.008879113069 0.001451423755 0.0004395810129)
(0.009676943665 0.0001815796336 -5.075528652e-05)
(0.01277938753 0.001131826752 -0.0003190229078)
(0.007885006832 0.002062556323 0.0009191145403)
(0.00905485323 0.00206442118 -0.0007868558235)
(0.008375002446 0.001855340612 -0.0002175207709)
(0.01214720425 0.003274654366 0.0002571336028)
(0.01450825929 0.004588372955 -0.0006123059349)
(0.009068399125 0.002797260252 -0.001616342811)
(0.01779752204 0.005864452686 -0.00035211328)
(0.01325494096 0.00575435757 -0.001094088271)
(0.01386818547 0.004919709721 0.0003159496783)
(0.01340718161 0.005043129462 0.0004133281806)
(0.014430618 0.00429299586 -6.997604504e-06)
(0.01065596247 0.005057175034 0.0009180977827)
(0.01183628997 0.007074701535 -0.001708234221)
(0.01703663076 0.007455934048 0.0006500585417)
(0.01221333384 0.003551744745 -0.00152461906)
(0.019405286 0.004223153028 0.0007885992368)
(0.007407357525 0.001372943415 -0.0007386977785)
(0.009346895398 0.002455495421 0.001246520474)
(0.0114240644 0.001977053287 -0.0003212190818)
(0.009632086814 0.003108995477 0.000832979388)
(0.009883448738 0.002959469514 -0.001236588265)
(0.01108407716 0.006189226325 -0.002099267492)
(0.01832045669 0.005556046405 0.002450725347)
(0.01402681628 0.004409461216 0.002595339366)
(0.01506653813 0.004445023217 -0.002370533267)
(0.01380322315 0.00336686907 0.003384992119)
(0.01183663979 0.005627534588 5.856031651e-05)
(0.01408444566 0.001814753069 0.0007651843784)
(0.007669490206 0.001216117591 -0.000600214008)
(0.008523557612 0.000416193628 -0.0004854003723)
(0.01361087701 0.002249285358 5.823571004e-05)
(0.01179040805 0.002036225364 0.0005167154947)
(0.01336786055 0.003228740322 -0.0004906849131)
(0.009538773269 0.00148795782 0.0005674832492)
(0.01156128022 0.003211780908 0.0003966839506)
(0.01733865796 0.006362988128 0.000421189859)
(0.0127440111 0.002376370449 0.0001093684998)
(0.0159857658 0.005788610171 0.0011755432)
(0.007938563732 0.002988651897 -0.0004143728831)
(0.0182735374 0.003682755659 -0.0009509870607)
(0.00913666809 0.00216323415 -0.0004742278836)
(0.01522481838 0.005972574071 0.0008359524215)
(0.01753527634 0.003061000528 0.0004768867401)
(0.01568863492 0.004253586722 -0.0001905244955)
(0.01432371639 0.003156468441 0.000201436876)
(0.01547953441 0.004601658705 0.0007994405837)
(0.01382323379 0.004728879368 0.002303307531)
(0.007091642064 0.00272033618 0.0002966510783)
(0.01835379328 0.005408698653 -0.001244660328)
(0.01724857785 0.01190298645 -0.002311530015)
(0.01595620112 0.00611071727 0.001161144473)
(0.01378412999 0.005489899836 -0.0009973640822)
(0.009690608107 0.002993887824 -0.0002143417091)
(0.01355378946 0.00645722871 -0.003215700193)
(0.01332846119 0.003705895324 0.0006034213218)
(0.01552049508 0.005245551262 -0.00300425683)
(0.009204040179 0.003608346713 6.326232339e-05)
(0.009035827366 0.0006362233786 0.0002211995204)
(0.009864748354 0.00220341469 0.000275010472)
(0.008304457817 0.001117593792 -9.424413117e-05)
(0.01220902974 0.001526285738 0.0006698229269)
(0.01257422277 0.001028255701 -0.001166277088)
(0.0101348028 0.001586972595 -0.0001819189337)
(0.01306682789 0.003222781943 -0.0005199781143)
(0.00729619674 0.002857360906 -0.0001868929099)
(0.01194356787 0.006089449736 -0.0008596280594)
(0.01783541204 0.005706956956 -4.088936293e-05)
(0.007706086987 0.002597404683 0.0003098017634)
(0.009928310322 0.005980227793 3.779385284e-05)
(0.01507183675 0.001474855958 0.002165739424)
(0.01722235967 0.003427379121 0.002265265843)
(0.01377685213 0.003241717549 0.0001624105391)
(0.0149507386 0.001797033552 0.0003864864229)
(0.01176831203 0.004586946529 -0.001316163339)
(0.01697814046 0.00621883333 0.0004012115028)
(0.01191561924 0.003986989493 0.001375206086)
(0.01019461232 0.003404630681 0.0006616070546)
(0.01770395307 0.005372598391 0.001300240623)
(0.01206980848 0.004156135865 -0.001362277518)
(0.01281304441 0.003497724381 -0.002704971492)
(0.01750565447 0.006233037018 -0.0001130580565)
(0.01282693007 0.004720249246 0.001865326972)
(0.01270052388 0.004377597214 -0.0002341739332)
(0.01218894554 0.004193034343 0.0002965196476)
(0.006219485651 0.003296469441 4.367285055e-05)
(0.0163050089 0.003804974521 -0.002465237415)
(0.007899294715 0.005609671891 -0.0003634633703)
(0.01053589828 -0.0001255330842 0.0009710472711)
(0.004306010906 0.0002273882606 -0.0003891236712)
(0.007844561871 0.001743829384 -0.0002850297807)
(0.004950364181 0.001430292602 -8.620661665e-06)
(0.01307819447 0.001218061057 -0.0002399192004)
(0.008979756165 0.0002512049738 -0.0002750256129)
(0.007844074877 0.001656158545 0.0003698019242)
(0.01526954608 0.001863121805 -0.001008949898)
(0.01010437716 0.0002054090472 -2.656880276e-05)
(0.003743969772 0.002760367716 -0.000132619944)
(0.008625117952 0.002121660343 -0.0001527111965)
(0.006939377668 0.001497761369 0.0005441685518)
(0.01346172112 0.00453758722 0.0004169860597)
(0.01427757066 0.004791650098 -0.000100545952)
(0.01362318492 0.002687433844 -0.0003353838145)
(0.01888468928 0.007091228891 -0.001195264035)
(0.01410100816 0.003533700558 0.000325398136)
(0.01786634368 0.006640335103 -0.001403842952)
(0.01437608012 0.003257708536 0.0009394637295)
(0.01100034667 0.00573025079 0.0008663949248)
(0.01246171386 0.003412338078 5.343985801e-05)
(0.01239597118 0.003947683487 -0.0007428879451)
(0.02011600678 0.00933761509 0.0004902268891)
(0.01716943509 0.00564141008 0.0008375372428)
(0.01311656356 0.001828696689 0.001744873947)
(0.01728365193 0.005457122358 0.001077454299)
(0.01177830472 0.004235664847 0.0006020096161)
(0.004997060926 0.001645623794 0.000713246051)
(0.01493529813 0.006122437608 0.001411367564)
(0.01404823585 0.003035156823 0.0002117088125)
(0.006667288393 0.0002847030225 -0.0001360085066)
(0.01104301302 0.001154562467 -0.0004053553095)
(0.006343958029 0.000774628539 -0.0003550904988)
(0.01302808459 0.001363899722 0.0003521395694)
(0.005741498511 0.0006598802192 0.0005700071415)
(0.007968589226 0.001287931542 0.001232448831)
(0.01024671315 0.0001580044402 -0.002175103061)
(0.01149423845 0.002496624771 -0.0002522926245)
(0.008144419103 -0.0001843943197 -0.0003272096345)
(0.005709730922 0.001300080196 -0.001102079256)
(0.0103173099 0.00350511502 0.00184396389)
(0.01227420007 0.004140104861 0.0005465482032)
(0.01861853547 0.004515337005 -0.0008254211867)
(0.01100720844 0.004673755705 0.000300288427)
(0.01249669141 0.00498645856 0.0001707048019)
(0.0185284728 0.004530418537 0.0003170124703)
(0.01656508519 0.005270300747 0.0006131536614)
(0.01631777297 0.006284425441 -0.0002818742555)
(0.01151006922 0.004122641769 0.0008980013254)
(0.01388940198 0.005025781144 -0.00115466403)
(0.01536350647 0.004953277436 -0.001933477462)
(0.01350526107 0.005339201213 -0.0002149462722)
(0.0147823016 0.003776070067 0.002921405125)
(0.01839496781 0.003095264397 -0.001166331601)
(0.01008955239 0.003653414635 -0.0007965144612)
(0.01889444121 0.004920775018 0.0005226928612)
(0.0142250704 0.004538752165 -0.003353463486)
(0.0158661407 0.007607271586 -0.002097557129)
(0.01965799083 0.008504621779 0.0004099579511)
(0.0114345591 0.001628784332 -0.00202585015)
(0.01216697108 0.000298972752 -0.0001874329855)
(0.01471769596 -9.961261407e-05 0.001002325268)
(0.01184720815 -3.247398438e-05 -0.0001495330968)
(0.006495418696 -0.0001882888759 0.0003038485317)
(0.01200323228 -0.0005316234741 0.0007992248489)
(0.005992498831 0.000948799605 -0.0003227500392)
(0.008408174918 0.001621318798 -0.001078262623)
(0.009246914504 -0.0005399331309 -0.0002744028932)
(0.02164329443 0.005506302522 0.0006673441988)
(0.01276155684 0.002038472622 0.0006825305439)
(0.004511905918 0.001217150613 0.0006571832452)
(0.003836220272 0.0004220470857 3.50729642e-05)
(0.01053634176 0.001118440277 -0.000890036544)
(0.01341891503 0.003885472349 0.002033073603)
(0.01705109189 0.002058836359 0.00021354374)
(0.01141570172 0.004290528528 -0.0002583310322)
(0.01840989306 0.008219116365 -0.001474561105)
(0.00882518067 0.002833329973 -7.70395237e-05)
(0.0222338977 0.004908163196 -0.0001375981015)
(0.01790951628 0.005492058849 -0.0005956112762)
(0.009272027156 0.003821230618 -0.001156081476)
(0.01635701457 0.00571824858 0.0003833024087)
(0.02368970824 0.006266710755 7.480556628e-05)
(0.01447563392 0.006621104929 0.0017523606)
(0.01705928493 0.005049512192 -0.001714948871)
(0.03047244379 0.006498126618 0.002396029629)
(0.01765992155 0.006275808722 -0.001905703771)
(0.01651312593 0.005443031688 0.0009519815763)
(0.0122567916 0.005673970541 -0.0002016412247)
(0.01118141718 -0.0004296738956 0.0002791597464)
(0.01001690442 0.0002472024343 -0.0004276670639)
(0.007558944881 1.042762066e-05 -0.0002223954062)
(0.01014187047 0.0003073887585 2.362566277e-05)
(0.006401970442 0.001390201306 -0.0009194976604)
(0.00566698695 0.000197307932 0.0003702162472)
(0.009306069981 0.001430538024 0.001045348783)
(0.006802237357 0.0005308181084 0.0004714376099)
(0.006646161244 0.002388029626 7.638714504e-05)
(0.01198224302 0.002402841457 -0.0008072551815)
(0.01249927241 0.00212152739 0.000638714597)
(0.01212125508 0.002774419206 -0.0009627156732)
(0.006297857988 0.0008132263933 -0.0007301245528)
(0.01403058163 0.003157833895 -0.0001412068271)
(0.01693342722 0.004705884815 -0.0007226186219)
(0.02039802116 0.005138067876 -0.001958699073)
(0.01022058768 0.003535272701 0.00136138037)
(0.01282820246 0.004936533734 -0.001202083061)
(0.01182420984 0.004340622326 -0.0005553627886)
(0.01802416796 0.004759847111 -0.0003677697607)
(0.01811071872 0.004724725989 -3.355899081e-05)
(0.01034141905 0.005116250132 -0.002450961834)
(0.01873157776 0.006121428817 -0.0009315542697)
(0.02065665853 0.003172602223 0.000589124799)
(0.007442346915 -0.0003966381466 0.0001368251543)
(0.00752851277 -0.0006848299058 -0.0001954069685)
(0.004229751575 0.0005046629034 0.0003308639282)
(0.005152624148 0.0008862660188 0.0002266915163)
(0.01407546691 0.0007725570162 0.001432428301)
(0.002799153734 0.0006080393444 0.0001157358794)
(0.008378856805 -0.0002514368161 -0.0008222452832)
(0.009582277494 -0.0003168579321 0.0003294329396)
(0.006430051037 0.001200827366 0.0002419878367)
(0.00709907271 0.0002498932329 -0.0006538805954)
(0.01236406022 0.003172715077 -0.0002687495306)
(0.007730141044 0.003400223405 0.000735041355)
(0.009051574259 0.0002349348936 -0.0007544052582)
(0.01319184478 0.001801180208 0.001561600057)
(0.01113255016 0.001758878989 0.0006618090151)
(0.01712009434 0.003702959558 -0.0009302353869)
(0.01496295645 0.006108498714 0.0006291884877)
(0.01332906038 0.002763438726 -0.000554347188)
(0.01456133794 0.004393559633 -0.0007699500336)
(0.01248408142 0.0005694869689 -0.0007908398697)
(0.009050778996 -0.001272759826 -0.0006731666241)
(0.008113587989 -0.00085902735 0.0001842070788)
(0.008311089888 0.0006781856987 -3.436033798e-05)
(0.007099613811 0.0006538946645 0.0005955210536)
(0.01063951716 0.000950553036 -0.000762349237)
(0.008520722236 0.0002208229411 0.001811464491)
(0.007638887047 -0.0004146775917 0.0003576433705)
(0.01116367736 0.001596705677 0.0001190883443)
(0.005733372564 0.002135351628 -3.864523959e-05)
(0.01266647967 0.0002221288222 -0.0004738413367)
(0.01347002927 0.0005293108453 3.892382081e-06)
(0.01773418436 0.003322161086 0.001061193674)
(0.01456798282 0.001509618917 0.001800292459)
(0.006896320892 0.0002325725843 7.137271401e-05)
(0.01069060687 -0.0001660844461 -0.000422307017)
(0.005877705696 0.0004770040543 -6.072496852e-05)
(0.01022176128 -0.0003728220963 -1.397776271e-05)
(0.006286444537 -2.603251722e-06 -0.0006961966302)
(0.01019091438 0.0001880319056 -0.0006246051694)
(0.01338702251 0.001110329307 -3.452276316e-05)
(0.009002665404 0.001364238553 -0.0005718745074)
(0.01073716656 0.0005354642849 -0.0005425134833)
(0.01274587734 0.0006191881376 0.0005144975755)
)
;

boundaryField
{
    flow
    {
        type            zeroGradient;
    }
    obstacle
    {
        type            calculated;
        value           nonuniform List<vector> 
30
(
(1.390865756e-21 3.726813568e-22 -5.397850189e-22)
(5.123044618e-22 1.372715671e-22 5.091427046e-22)
(1.467553255e-21 3.932297083e-22 -3.033162316e-22)
(2.671228409e-21 7.157534962e-22 -2.981120576e-21)
(1.983418079e-21 5.314552709e-22 -9.581303256e-22)
(0 0 0)
(2.614529681e-21 7.005611179e-22 -8.808035014e-22)
(3.393000156e-21 9.091516488e-22 -4.260328497e-21)
(-3.165616593e-21 -8.482244112e-22 3.635785525e-21)
(1.663385292e-21 4.457027464e-22 8.24915421e-22)
(0 0 0)
(7.941530793e-21 2.127926767e-21 2.400133173e-22)
(0 0 0)
(2.626459208e-22 7.037576215e-23 1.597250356e-22)
(0 0 0)
(0 0 0)
(0 0 0)
(-7.397239459e-22 -1.982084343e-22 4.669762999e-23)
(1.714722171e-21 4.594584194e-22 -6.641241609e-22)
(0 0 0)
(-3.342219846e-21 -8.955451104e-22 -4.501401998e-21)
(6.622544874e-22 1.774505545e-22 7.179177102e-22)
(1.655118396e-21 4.434876384e-22 -3.02444449e-22)
(4.493644547e-22 1.20406843e-22 1.423077092e-21)
(2.685887937e-23 7.196815015e-24 7.968831474e-22)
(-2.459536072e-22 -6.590307055e-23 -1.083428562e-21)
(1.402319686e-21 3.757504262e-22 -8.68319032e-22)
(1.349319618e-21 3.615491025e-22 -1.141673982e-21)
(-1.691751054e-21 -4.533033295e-22 -5.265473304e-21)
(0 0 0)
)
;
    }
    frontAndBack
    {
        type            empty;
    }
    procBoundary1to0
    {
        type            processor;
        value           nonuniform List<vector> 
21
(
(0.007567791929 0.001628102231 0.0003973573507)
(0.006690324398 0.003028765776 -0.00247817667)
(0.01109545513 0.002633111674 0.0005195869938)
(0.009483423943 0.002653039335 -0.0007400187169)
(0.01240338382 0.004791057052 -0.0005488375548)
(0.01200901986 0.003387706867 0.000309379799)
(0.01562342029 0.004795662366 -0.002327909515)
(0.00912799375 0.002581580639 -0.001897654697)
(0.008395257991 0.001940710027 0.0001505858855)
(0.01138824604 0.0007883952503 -0.0003803748624)
(0.006623609889 0.000178579474 -0.0003456673242)
(0.009628595498 0.0001295469853 -7.479151641e-05)
(0.006200591949 -0.0006335710467 0.0003633574863)
(0.007738695432 0.000551790341 -0.0001716418076)
(0.01162311176 0.0005213228261 1.190285073e-05)
(0.00434367619 -0.0001759787771 0.0002930079331)
(0.008398818659 -0.000176872283 0.001002153745)
(0.003429409483 7.134890147e-05 2.695877414e-05)
(0.0112559747 -4.951156134e-05 -0.0004376760392)
(0.009264839474 -0.0003645840529 7.633569532e-05)
(0.007121514649 0.0004754886964 0.0003597985469)
)
;
    }
    procBoundary1to3
    {
        type            processor;
        value           nonuniform List<vector> 
36
(
(0.01614367272 0.005558463582 0.001037061185)
(0.01838383162 0.003879728106 -0.0003950151341)
(0.01883112238 0.003895068486 0.0002998205078)
(0.01055283482 0.004235846925 -0.0003990814717)
(0.01849195812 0.005582136672 -0.0008163436199)
(0.01614367272 0.005558463582 0.001037061185)
(0.01680184396 0.007935031905 0.002360145407)
(0.01481288295 0.004929769366 0.001266637908)
(0.01312337346 0.002813204768 0.0004268082756)
(0.01409710654 0.00513004565 -0.0008707245433)
(0.01159678843 0.004316593315 -0.002124886376)
(0.01838383162 0.003879728106 -0.0003950151341)
(0.01045731759 0.003925064707 -0.00097645723)