/*--------------------------------*- C++ -*----------------------------------*\
  =========                 |
  \\      /  F ield         | OpenFOAM: The Open Source CFD Toolbox
   \\    /   O peration     | Website:  https://openfoam.org
    \\  /    A nd           | Version:  7
     \\/     M anipulation  |
\*---------------------------------------------------------------------------*/
FoamFile
{
    version     2.0;
    format      ascii;
    class       volVectorField;
    location    "0.009";
    object      momentum;
}
// * * * * * * * * * * * * * * * * * * * * * * * * * * * * * * * * * * * * * //

dimensions      [1 -2 -1 0 0 0 0];

internalField   nonuniform List<vector> 
546
(
(0.001285546995 0.0006351963203 -0.0008914245043)
(0.0005557117922 0.0004690657711 -0.000441162917)
(-0.0002150956201 -5.635018906e-05 0.0004451077508)
(3.929131711e-05 -0.0002560314146 0.0003272421851)
(0.0001524819803 -3.234007683e-05 -5.832902625e-05)
(-0.0005128721851 -0.0005501171996 0.0006397893684)
(-0.0002548327687 0.0005833295877 -0.0007926399755)
(-0.0007636034636 3.591325057e-05 -0.0001322106481)
(0.0005579122481 0.0006648323984 -6.840435758e-05)
(0.0003058268409 -0.0004430943248 1.482804121e-05)
(1.703492225e-05 -0.0001514000839 0.001037189928)
(0.0001548338628 0.0007647483516 0.0001594169487)
(-5.155542203e-05 -0.0004176338694 0.0001652899419)
(-0.0005018346812 -0.0004924706695 0.0009041513803)
(0.0002456302617 0.000332189071 0.0002138404009)
(0.0006546725789 0.0007481311437 -0.0004815364334)
(0.0001093734569 0.0004245817206 0.0002969730306)
(-0.0001696484923 0.000750400933 -0.0009211800997)
(-0.0003262356194 0.0004375059573 0.0006591164202)
(6.033577666e-05 -0.0007859103004 -0.001082492516)
(0.0002167537391 0.0003340319192 0.0001479001138)
(0.0001885095796 0.0001643727805 0.0007109183608)
(0.0005938388025 -5.890097838e-05 -0.0003626036667)
(-0.001199808059 -0.0003566017892 -0.0007280865371)
(-0.0001950169695 0.000359810525 -0.0006020058693)
(0.0002659434912 -0.0003148408995 -0.0003999246331)
(0.00081575646 1.125397453e-05 3.346805751e-05)
(-3.704233595e-05 0.001007408278 0.0001113744299)
(0.0001931898892 -1.179186754e-05 0.001051881013)
(-0.0001289033686 0.0002705608803 0.0003875934493)
(0.0007126785393 0.0006599583129 -0.0006980483924)
(0.0006788093888 0.0001682753557 -0.0002983023251)
(-0.0006030392383 0.0001717889197 -7.339838281e-05)
(-0.001322122862 0.0006875345297 -0.000223422487)
(0.0005393209491 0.001653251486 -0.0007009739446)
(0.0002907034608 0.0001959562134 0.000184560762)
(0.0005276123648 0.000691613715 0.0003559128901)
(0.001244266409 0.0004261735857 0.0004764512883)
(0.0004550814446 -0.0007174590695 -0.0004927169775)
(-0.0005427394393 5.213249425e-05 0.0002074617264)
(-0.0001120971095 -0.000343202375 0.0002252597114)
(0.0002727737438 0.0001758077659 -0.0002690605957)
(2.649900635e-05 -3.995864964e-05 0.0005883606752)
(0 0 0)
(-0.0002046685985 0.0003786102889 0.0001578460993)
(-0.0005633494168 0.0002197393923 -9.954026629e-05)
(-0.0001769058361 -0.0006952593685 -0.0009616924999)
(-0.0005632498208 0.001154262951 0.0006343167495)
(-0.0002101552151 -0.0004848205552 0.0004561653867)
(1.024118856e-05 -0.0002951172657 0.0002431805676)
(0.001085975506 -0.0007460414904 -0.000283563192)
(0.0008713982505 0.0001374732431 0.0002666190133)
(-0.0003402217508 -0.000483384901 -0.0004740172871)
(-0.0005263000655 0.0002527471622 0.0005465074204)
(-0.0008064798247 -0.001830668959 3.335954965e-05)
(-0.0007300243316 5.654274051e-06 -0.0009402546781)
(0.0001210897177 0.0001573458568 -0.0007283038238)
(-0.0008376431207 -0.0001629459245 -0.0007126461978)
(7.932220804e-05 0.0002865777403 0.0002629954901)
(-0.0001530762968 -0.0002594849116 8.228617763e-05)
(0.0001900649849 0.000301906432 0.0002233332352)
(8.024057341e-05 -0.0002278490261 0.0001214281492)
(-0.0003929125903 0.0003611036471 4.94588022e-05)
(-0.000759833637 0.0005311254804 -0.0008509348248)
(-3.218083094e-05 -0.0002644571343 3.131493365e-05)
(-0.000514066587 -0.0003710153997 0.001456168494)
(-0.0007932915282 -0.0002048203711 0.001136432232)
(-0.0003476390621 -0.0005220804135 -5.508249173e-05)
(-0.0002533734505 0.0001340819181 -0.0003784225075)
(-0.0005194329333 -0.0005386646502 -0.0006926671435)
(-0.0008591349622 -0.001101608013 0.0002392571722)
(-4.683070349e-05 0.0001253037949 0.001022820045)
(-7.680403283e-06 -0.0002860939787 -7.836956416e-05)
(6.776554691e-05 -9.619225652e-06 -0.000233430498)
(0.0001491416328 -0.001040158972 -2.098971785e-05)
(0.0004726099714 0.000648630872 -0.0002291724654)
(0.0002622909942 -0.0001459902672 0.0001444483614)
(-0.0005169527268 -1.213423644e-05 0.0003543179918)
(7.31145242e-05 0.0003286135523 0.00107158824)
(-0.001115243554 -0.0001451674672 -0.0006329970351)
(-0.0001868934629 0.0002416923285 -0.0001927484848)
(0.0005580221677 0.0002812572624 0.0004976607057)
(0.0002120485676 -6.401122693e-06 -0.0002861249433)
(-0.0005430851813 -0.001063565953 -0.0002490136568)
(-0.001055334976 0.0006109692744 0.0003605248288)
(-0.0003172121685 0.0004242739771 0.0003632007606)
(0.0002942580121 0.0008050730035 -0.0003822394667)
(-0.0002007642394 0.0001725987449 0.0004506386862)
(-0.00070039425 -4.582998997e-05 -2.608830093e-06)
(-0.0008020185765 0.0003173893419 -0.0003092903812)
(-0.0003806760148 -0.0003985094455 3.572286406e-05)
(0.0004016888488 0.0001501787163 -0.0003926889021)
(0.0003596556813 0.0009771148139 -0.0004435669648)
(-0.0001356373394 -0.0005889678693 0.0006446726542)
(0.0003931841899 -0.0003526621706 -0.0003271943741)
(-7.764151349e-05 0.000237988848 0.0003963326031)
(-0.000430356045 -0.0003920679556 0.0004001244121)
(0.0003628433438 -0.0006350417296 0.0001362119763)
(-0.0005393385965 -0.0002232162753 -0.000141875105)
(0.0005178154905 0.0001424604829 -3.966477247e-07)
(-0.0006225866768 -0.0003843736766 -7.122612103e-05)
(-8.436706805e-05 0.0003798016537 -0.000294516551)
(-0.0002559196959 0.0003046386195 0.0001956885076)
(-0.000459268955 0.000116288697 -2.610348234e-05)
(-0.000340527286 -0.0001787536175 7.483697128e-05)
(0.0008008242283 0.001236282804 0.0006109908217)
(0.0004523398241 -0.0005527932492 -0.001332900672)
(4.5374593e-05 0.0009458658559 0.0006794413506)
(0.0003113337741 -0.0006212774799 -0.0002700621826)
(-0.0001948632031 0.0003022193396 0.000625166156)
(-3.350965019e-05 4.909497707e-05 0.0002711953713)
(5.879655925e-05 0.0007961576158 -0.0002665957036)
(0.001209302401 -0.0001996065195 -0.001017464263)
(-0.0002931190896 -0.0004821615726 -0.0002620158132)
(-7.16962337e-06 -0.0007437838543 -0.000263569114)
(-0.000209995177 -5.344155162e-05 -5.849739816e-05)
(-1.060043886e-05 5.71187615e-05 -2.828212632e-06)
(3.027688104e-06 0.000693402679 8.730222912e-05)
(-0.00065912453 0.0005258197508 0.0003883018187)
(0.0005391164668 -0.0001328186305 -0.0004186855885)
(-0.0001361496226 0.0002033608292 -0.0004272509254)
(-0.0004233512073 -0.0007980263248 -0.0002558793399)
(0.0001744698777 0.0001697072338 0.0005718383133)
(-0.000362812058 0.0004899449861 -0.0006669969926)
(-0.0003117741793 4.501369247e-05 -0.0004923515171)
(0.0008179147205 0.0003053406019 -0.0002620099766)
(-0.0003922093638 0.0001998660761 1.35962157e-05)
(-0.0001733216434 0.0006355641739 0.0004959340048)
(0.0009332217704 -0.0002743477469 -0.0004396294479)
(-0.0007617656103 0.0005131425553 8.831004583e-06)
(0.0003605400958 0.0001542967451 -0.0003021838478)
(-0.000376487932 -0.0003182940618 -0.0008915717932)
(-0.0002261175349 -0.001105526161 0.0005303530274)
(-7.236576092e-05 -0.0001244012646 0.0005523765116)
(-0.0007801202101 -7.141145794e-05 9.128923624e-05)
(0.0006780096103 0.000890737545 0.000443532557)
(-0.0006209547354 -0.0001861456487 0.0008231063258)
(6.35389499e-05 -0.0004516458957 8.901273699e-05)
(2.173299758e-06 -0.0002608800657 5.580113217e-05)
(0.0004694795825 0.000373264719 5.542247678e-06)
(0.0003246963524 0.0008807571372 -0.0002074753594)
(0.0004179566769 0.0006154403158 -5.251514054e-05)
(0.0001778007546 -0.000164235613 -0.0003893483253)
(0.0002974451204 -0.0004218435751 0.000556247513)
(-0.0004762747097 -0.0005739348016 -0.0007510056346)
(-0.0005383261398 -0.0001009977461 -0.0003435689436)
(-0.0007549075039 0.0002513544772 -0.0001277950802)
(-0.0003311731336 0.000251022073 -0.001583834464)
(-0.0003007166432 -4.989230286e-05 -0.0003120036257)
(4.054849239e-05 -0.0002459553253 0.0001563459267)
(-0.0003798251439 0.000213459368 9.604375356e-05)
(0.0005222963653 0.001140405621 -0.0008407717068)
(-0.0004322558708 -7.87712293e-05 4.440350139e-05)
(-0.0002734241065 0.0003812889185 -0.0007314983961)
(6.181564931e-05 -0.0007507788107 -1.742831348e-05)
(0.0003829603381 -0.0005250796529 9.046535635e-05)
(0.000713658591 0.0002097805554 -0.0002059152023)
(0.0004859414277 -0.0002555216087 0.0002368405651)
(0.0002513894838 0.0004521217855 -0.000680754969)
(2.330255039e-05 -0.0003186817055 -0.0001761292287)
(-4.765221912e-05 -9.953628001e-06 0.0006631335191)
(-0.001603502158 -0.0004955767145 -5.998117899e-05)
(0.0002464139308 0.0005667690671 0.0004023252334)
(-0.0005555649637 -0.0009382118865 0.0002883680407)
(0 0 0)
(0.0008811636251 -0.0004865455892 0.0004196497801)
(0.0003555718182 0.0006866048168 0.0001869408202)
(-2.035527824e-06 -0.0001736135516 0.0004068781384)
(0.0006859923655 0.0001012839605 -2.999221373e-05)
(-0.0009016337903 0.0001369670237 -0.0004636742165)
(-0.0004938549965 8.149457577e-05 0.0003781189671)
(-0.0005520539474 -0.0004394003247 0.0004516187044)
(-0.0005392775678 0.0001622650728 -0.0005146417929)
(0.0005893382429 -0.0004654007248 -0.0005140287188)
(4.036209386e-05 0.0002132062566 -0.000218934266)
(-0.0006699194678 0.0002921327429 0.000569550184)
(0.0008942466119 0.0006007733737 0.0004534777159)
(0.0001421720924 -7.084805313e-05 0.0005348391325)
(-0.000227817021 2.499473355e-05 -0.0007623217982)
(1.884773826e-05 0.0001852720266 7.194126952e-05)
(0.0006535335527 0.0007145093039 0.0005507711042)
(0.0002435734926 0.0001603914363 -0.0008207515122)
(7.895918369e-05 -9.257814965e-05 -0.0001913908457)
(-0.0007297038295 0.0001111472447 -0.0001259795034)
(-0.0005960331597 0.001181995639 0.0001588528421)
(0.0004002193028 0.0006462642061 0.001312759443)
(-0.0008477473594 0.000607762064 -0.0003068841598)
(-1.420602998e-05 0.0002614182978 0.0005947394928)
(0.001051266425 0.0001676486511 -0.000366461967)
(-0.0002087962946 8.035560659e-05 -0.000296429066)
(0.000105183745 0.0004867971496 0.0001797136802)
(-0.0004672881529 -9.649256634e-05 -0.0004594470345)
(0.0006890843322 1.288004156e-06 0.0008154815604)
(-0.0007950328513 -0.0005919224505 -0.0002913825528)
(-0.0003146474804 -0.0004731442585 0.0001149552865)
(-0.0008857436214 0.0004003709157 9.656587719e-05)
(-0.0002624357307 -0.000302834879 0.0007628679887)
(0.0004298281351 -0.0003332212538 0.0004084654406)
(0.0002258893045 0.0003870642758 0.0003145068313)
(1.094058722e-05 0.001021404602 -0.0007765204629)
(-0.0007427053931 0.000908582129 0.0004702513518)
(-0.0005133124595 -0.0002561991492 0.000402510881)
(0.001067526306 0.0008055946478 -0.0009868474181)
(7.779028575e-05 0.0002781124616 -0.0001080979979)
(0.0001889587404 -8.096482483e-05 0.0004065386682)
(-0.0005116632974 0.0003868204778 0.0007500931869)
(0.000593197736 -0.0003159194743 -0.0006490288788)
(0.0006165793699 -0.0007761700781 0.0007359610549)
(0.0009063954592 0.0005516875717 -9.482050832e-05)
(-0.00032740226 0.001109754402 0.0001056510308)
(0.0004106572799 -6.510448156e-05 0.000888166618)
(-2.860892243e-05 -1.530609033e-05 -0.0002601781794)
(0.0001099093163 -0.0001921216035 -0.0003793941724)
(-0.0003481114714 -0.000197094421 -0.0001955663206)
(0.0007537472356 -0.0004524298957 0.0006448675229)
(0.000729002237 -0.0004461581905 -0.0002502069017)
(-0.0002214077345 0.0003596659347 -0.0005044817468)
(-0.0004784470245 0.000295814906 1.925999417e-05)
(-0.0002445193603 -9.953981097e-05 0.0007377494314)
(0.0002409016684 -0.0008208484696 -0.0004026587369)
(-0.0002271044964 7.414053475e-05 -0.0001178499463)
(-0.0003508683757 -0.0006194848121 -0.0003333413692)
(0.0003408952209 0.0008357559116 -0.0001060484509)
(0.0001669418131 8.063421732e-05 -0.001261531497)
(-0.0007167915224 0.000306403125 0.0001736470162)
(0.0005439222571 3.632551962e-05 -8.870373159e-05)
(0.000888690375 0.0001563076999 0.0007052337554)
(0.001312756731 -1.98273348e-05 0.001223405346)
(0.0002193049662 6.173585829e-06 7.665700828e-05)
(0.0003538916597 -0.0001507980406 -0.00128122469)
(-9.761528516e-06 -0.0001718164742 5.436657406e-05)
(0.0007124507609 0.000213793639 0.0005250272862)
(0.001208213729 -0.0007667844978 -0.00045204905)
(-5.512577563e-05 0.0005160301529 0.0001530754994)
(-0.0001827741587 0.0006212700146 8.09556039e-05)
(-9.279363925e-05 8.547398122e-05 -0.0002353819937)
(-0.0002104235513 0.000287343471 -0.0002520599138)
(0.0002064911764 5.562010692e-05 0.0001872265426)
(-0.0002773414817 0.0004489835981 -0.0004886032081)
(0.0006086989693 0.000655844983 0.0004634432086)
(-0.0003527329075 8.359226632e-05 -0.0003139807063)
(-0.0002013807988 -0.0002001537025 0.0007230674938)
(-9.968168017e-05 8.876061931e-05 0.0009592376747)
(0.0001799449125 -0.0001240293719 -0.0006501605153)
(-0.0006683585637 0.0005007726682 -8.073001715e-05)
(-0.0001350675183 0.000427972821 0.0008685350027)
(0.0008839739525 0.00102794929 0.0005307657362)
(7.463552155e-05 0.001039021455 0.0004475439426)
(0.0009555918139 0.0001775045612 -0.0004659162917)
(0.0009570330424 3.296995775e-05 0.0008989578849)
(0.0001797887914 0.0002624850564 0.0001105471184)
(0.0004330960324 -0.0002653615924 -0.0008863309733)
(-7.527044072e-05 -0.0008880223374 0.0002317462336)
(1.412103843e-05 0.0001875914264 -0.0002215536324)
(8.793802498e-05 -0.0001326414148 -0.000314167219)
(-0.0001985817716 0.0002090136019 0.001416476496)
(5.992056158e-05 0.000188610489 9.83648053e-05)
(0.0007627289315 -9.167322904e-05 -0.0003113028121)
(6.153018592e-05 0.0002142009019 -0.0007264300446)
(-0.0003005375103 -0.0007717574296 6.746129697e-05)
(-0.0002116395909 0.0002729909949 0.0002582786494)
(-0.0008146302628 -0.0002514075255 0.001650373627)
(0.0007974618744 0.000511135341 0.0009101711723)
(-0.0004371992923 0.0001885482468 0.0001267765237)
(0.0005079401898 0.0006633585425 -7.646879908e-05)
(0.00011811604 -0.001592691328 0.0001321076576)
(-0.0004725031332 0.0002396258547 0.0003212346237)
(-0.0006117723119 5.783725439e-06 0.0009290634731)
(-0.0003548812114 0.001244403657 -0.001010285341)
(-9.636407435e-05 -0.000563703631 -0.0005069070203)
(8.662372984e-05 -0.0005764055989 0.0003651931474)
(-0.0001158947873 -7.576567239e-05 8.999272687e-06)
(-6.957602056e-05 0.0001376366694 0.0005060037561)
(-0.0005320837091 -0.0001417313746 -0.000947118449)
(0.0003678070515 0.0005099308186 4.328306832e-05)
(-9.91095106e-05 -0.0001616326653 -0.0006886891464)
(0.0006247215798 0.001103984219 -0.0007610602504)
(-0.000360404034 -0.0003467302758 0.0002293435476)
(-0.0002166273143 0.000274212716 -7.780595467e-05)
(-0.0003935434959 -0.0003691130809 0.0003305393032)
(0.0007578911862 -0.0007103638019 -0.0008490393034)
(-0.0004099999671 0.0002727567183 0.001215860934)
(-0.0006477231231 0.0001583683473 0.0005110303732)
(0.0001832164495 2.899209738e-05 0.0007001699307)
(0.0004365513303 0.0002036816672 -7.952389872e-05)
(0.0003693008275 -0.0004788144873 -0.0005045418615)
(0.0001352707263 -0.001104001632 3.121406915e-05)
(-0.0002719183298 0.0004977318619 0.000189014534)
(0 0 0)
(-6.806306901e-05 -0.0001790618206 -0.0003422370186)
(-0.0009958832481 0.0001550710466 0.0006230004161)
(0.0001007026242 0.0004101826653 -0.0003458619498)
(5.144196458e-05 0.0004131977581 0.001734186204)
(-0.0007573125811 -0.0002347869957 5.663291541e-05)
(0.0001622818923 0.000243533048 -0.0001971072883)
(0.00014225037 0.0001633049936 -0.001343947073)
(-0.0001912600852 -0.0003796575069 0.0002563098032)
(-5.633576257e-05 5.65258822e-06 -1.760608446e-05)
(-0.0001453575515 0.0002376843748 0.0002897893775)
(-5.819538739e-05 -0.0005951199561 -0.0002856539872)
(0.0004072709528 0.0006122029249 5.156134699e-05)
(-0.0001972799803 -0.0001081015832 -0.0001737269688)
(-0.0002705441728 -0.0005823586747 -4.369294481e-05)
(0.0001563010266 -0.0004683639914 0.0001035497351)
(-0.001050038973 0.0002167399242 -0.0002235039846)
(0.0001022385073 -0.0001892182118 -0.0004931109691)
(-2.058809659e-05 0.0009639252432 0.0006939624113)
(-0.0001921330968 -0.0004960353516 -0.0006747430756)
(0.0002013940709 0.0001969993671 0.0006693720369)
(0.0001961664316 9.621074464e-05 -0.0008413371496)
(-4.959301069e-05 -0.0002356555676 -0.0003733361316)
(0.0002547616281 0.001229403713 -0.0004609201196)
(0.0006558157364 0.001199359828 0.0006400024177)
(5.976891811e-05 2.379013473e-05 -0.0001318382245)
(-0.0001424181309 2.640216334e-05 -0.0004844232564)
(-0.0004235066737 0.0007826967982 -0.0006997450274)
(-6.747020367e-05 -4.809063471e-05 0.0002254492949)
(-0.0001822862419 0.0006068150074 -4.648796642e-06)
(-0.000181319003 0.0003841937272 -0.0004448337236)
(8.740808754e-05 0.0005901512895 0.0001455053531)
(0.0002629916396 -0.0003770416832 0.0003856028419)
(4.004851025e-05 0.0001109146931 -2.786997384e-07)
(6.497881833e-05 -0.0006761458228 0.0002707699599)
(-4.345429947e-05 0.0001079865864 0.0004385237262)
(0.0001842843432 -0.0001018300878 -0.000163735385)
(0.001369819082 -0.0003219420834 0.001114584809)
(-0.000256311765 -0.0003569916537 0.0002018505738)
(-0.0003173238566 0.0003966278654 -0.0006786922844)
(-0.0003672744337 -0.001011385933 -0.0007851552418)
(0.0002026115834 0.0006707602162 -0.0001039597437)
(-5.432368772e-05 -0.0008465340316 -0.00038451294)
(0.0005699824412 0.000577559365 -0.0005588543479)
(-2.390714603e-05 0.0006684584318 4.0931364e-05)
(0.0008268277153 0.0009957429111 0.000293746507)
(-7.041602974e-05 0.0005755461798 0.0001833443306)
(0.0001255782934 -0.0002898408635 -0.0005023111858)
(9.106319361e-05 -0.0009982522794 -0.0007503606618)
(-0.0001219509599 0.0005347427148 3.149700639e-05)
(0.0001890937543 -0.0002062771795 -0.0003898737533)
(0.0002911870296 0.0004017765142 0.0003219411856)
(0.000289372897 8.048845525e-05 0.0001624536505)
(-0.0003678655023 -0.0007976732976 0.0001083863957)
(0.0009539514505 7.348989169e-05 -0.0001076554989)
(-0.001169079228 0.0003301755994 0.0006611083293)
(0.0009524813229 -0.0003533370927 9.534178261e-05)
(0.0002805047621 0.0007753826473 0.0003490731041)
(0.0001716524315 -2.548921434e-06 -0.0002818868778)
(0.0005274130824 0.0004417650343 0.0003014645138)
(7.698245491e-05 0.001042669571 -0.0002946945881)
(-0.0003940698054 -0.0006944520085 0.0008139361018)
(-0.0001414852735 -0.0001065921074 0.0009370944915)
(-0.0007790065207 -0.001074212524 0.0004820917225)
(0.0002091603499 0.0002572450243 -0.0006127424968)
(-0.0007496006349 -0.000941732286 4.936810047e-05)
(0.0002955430207 0.0004824065618 -0.0004177281111)
(0.000649302374 0.0007554923911 0.0006008617006)
(0.0009789697376 0.001164106646 -0.00109504556)
(0.0004272864617 -0.0001054088919 -7.239975064e-06)
(0.0004376830156 -0.0001482956425 -0.0003107611533)
(0.0009248307035 0.0001672824215 0.001210082689)
(0.0006898640758 0.0002705083292 -0.0006842581668)
(-0.0001626210287 -0.0001061538176 0.0001852227808)
(0.0003741628624 -0.0003611581569 -0.00060919184)
(-9.754908563e-05 0.00036135814 0.0003048729265)
(0.0001730222029 -3.330250916e-05 -3.232880956e-05)
(-0.0007735406154 0.0001121724518 -8.729472097e-05)
(0.0002855809337 -0.0004344172653 -0.0002854809821)
(-9.046138097e-05 -0.0004717945261 -0.001118055797)
(0.0002248775015 -0.0007945823149 -0.0005136583698)
(0.0003348244065 -0.0003062825552 0.0004896176867)
(0.0005575482947 0.0002231875498 0.0004484315264)
(-0.000781862952 -0.0004141016571 -0.0004689095286)
(0.0007638304333 -0.0006507208228 0.0004066948852)
(-0.0002824779715 -0.000250743764 -0.00130473176)
(-0.0001702437438 0.0002793337662 -0.000553732694)
(0.0009333655558 0.0001624512283 -0.0009856536431)
(-0.0001230387607 -0.0001399344571 5.539287435e-05)
(0.0003423886601 -1.696567917e-05 -0.0009317757044)
(7.729454347e-05 0.001020415343 0.0001260749233)
(-0.0001889355295 0.0003189531411 -0.0006949542206)
(0.0004220312072 -4.116476109e-05 0.0004053670369)
(-0.00097759865 -0.0007712732516 -0.0002148856274)
(-0.0004145315631 -0.0005816916191 0.0003539785351)
(-0.0003125877978 0.0007403012478 -5.328644252e-05)
(-0.0002017412248 4.773671935e-05 0.0002004896916)
(0.0007896101569 -0.0006382582705 9.84421064e-05)
(-0.0003011985811 0.0003086446686 5.918739086e-05)
(0.0002124941669 0.0003873070819 0.0006638488196)
(-0.0002366527604 -0.0005735111538 0.000425337191)
(0.0006229268816 0.0005257261176 0.0001420958982)
(-0.0002069798717 -9.610499147e-05 -9.405767293e-05)
(0.0001424118173 3.32895218e-05 2.075539946e-05)
(0.000454286714 -0.0003361020388 0.0003847158885)
(-8.840528597e-05 -0.0001737091481 3.822692612e-05)
(-0.0007837730761 0.0003279512125 0.0004492953649)
(0.0001990544223 -0.0002766988379 8.092976949e-05)
(-0.0008075206596 6.869033996e-05 -0.0009680875751)
(0.0003538854409 -0.0007846433996 -1.285550109e-05)
(-0.0001393077906 0.0003284608485 -0.0003672966548)
(0.0007603256067 0.001702964196 -0.0002116972032)
(-0.000385175568 -0.0001100365092 -0.0007130286664)
(0.0005514367755 3.669917164e-05 0.0004412488477)
(-0.0007726212689 0.0005879040065 1.986461763e-05)
(5.931172501e-05 -0.0009574936748 -0.0001740629916)
(0.0004159973232 0.0006847183152 0.0003093530793)
(-0.0002059113931 0.0002410265318 0.0003379046534)
(0.0006284474573 0.0004111538066 -0.0007097957153)
(-0.0004912965117 5.121890842e-05 0.001151963688)
(0.0009421745325 -6.146697962e-05 -0.0001058708263)
(-0.0005493754383 0.0007897944886 0.0001377890515)
(0.000234270714 0.0002087886361 0.0005862407427)
(-0.0003285163211 0.0006424043753 8.908552696e-05)
(0.0002693918755 -0.0002788246614 0.0001066350452)
(-0.0002773855259 0.0005042084994 0.0001195132417)
(-0.0002340893317 -0.0003216550032 0.000309531636)
(8.370332409e-05 0.0007873504865 0.0002228951726)
(-1.196836632e-05 -0.0004421503062 0.000646470178)
(-0.0004328948289 -0.0002064965251 0.0009475526535)
(0.0003485310535 -0.000399260728 0.0001816694909)
(-0.0004857259916 0.0007096813265 0.0001380533755)
(0.000908463856 -0.0002000577127 0.0005599245233)
(0.0005681112448 -6.441948462e-05 -0.0001724654968)
(-0.0006025929378 -0.001013209641 -0.0001560219047)
(-0.0002764211431 0.0005557034353 -0.000973754587)
(-0.0009745188912 0.0003554763837 -0.0005386101153)
(8.699673386e-05 0.0003788092084 0.0005618138183)
(0.0001421298954 -1.297195464e-05 -0.0007817233618)
(-1.106753812e-06 0.0001426580462 0.0001095770031)
(0.0001757013461 -0.0001796688297 3.878768158e-05)
(4.549641683e-05 -4.140899183e-07 -0.000128175592)
(0.0004533940946 -0.0004996663044 -0.0004636705265)
(0.0003106610826 0.000316101004 0.0003126659174)
(-0.0003553350251 -0.0002038831326 0.0003398043584)
(-0.0002225695979 -0.0001172747504 0.0001453573489)
(0.0001084602746 0.0005542914075 0.0004392097828)
(8.894590625e-05 -0.0005693648248 -1.413119524e-06)
(-0.0006444303932 -0.0006904220751 -0.0005117268686)
(-0.000355460925 -0.0001213769664 0.001178492668)
(-0.0001188529172 -0.0005792206175 -0.0002799790612)
(0.0001270522364 0.0001408486481 -2.318005543e-06)
(0.0007725173555 0.0002040844476 -0.000447630962)
(0.0001679898814 7.523300922e-05 -4.315846125e-05)
(0.0003292015114 0.001204175732 -0.0005828763711)
(0.0001006649149 0.0003356629777 0.0002582668242)
(-8.690226338e-05 0.001238120121 0.0004274522342)
(-0.0003447290542 0.000380356277 9.437058719e-05)
(-0.0008769623994 0.0003470944533 -0.0007351510965)
(-8.884089315e-05 -0.0001656888546 0.0004206697605)
(0.0003342892175 0.0001067802635 -0.0003224216605)
(0.000144655012 -0.0008227937163 -8.614890566e-05)
(0.0009930465674 0.0003862858744 0.0005497756788)
(-0.0001834003306 -0.0001552069134 -0.0003504516447)
(0.0001040891542 3.381527984e-05 0.0006680478823)
(-0.001087906345 -0.0003043570357 0.0008631660424)
(-2.918080441e-05 0.000210380889 -0.0006203327009)
(-0.0001437715992 0.0005131287231 -0.001032413092)
(0.0001548376555 -0.0001819998579 0.001092738155)
(1.262316455e-05 -0.001257459054 0.0005145663337)
(-0.000439576372 -0.00059074228 -0.0006535820303)
(0.0002683090598 0.001240645538 -0.0003311405032)
(4.997940524e-05 0.0008004883654 0.0003289652602)
(0.0002600010837 -4.756952488e-05 -0.0001215924617)
(5.6489716e-05 -0.0004520398412 0.0009287767496)
(2.620043942e-05 0.0004125943731 -0.0002357089485)
(0.0004285803356 -0.0005402417819 0.0003530076012)
(8.253779901e-05 0.000670112415 1.672025388e-05)
(-0.0001844127594 -0.0006947817364 0.0002038818785)
(-0.0005792386704 -0.0007263163625 -0.0005067120297)
(0.0003657162089 -0.0004429295696 -2.771838288e-05)
(0.0002317820841 -8.559635432e-05 0.0002907571938)
(0.0005484885117 -7.893893534e-05 6.713964549e-05)
(-0.0003985230195 0.0005866040278 0.000397847788)
(0.000227064785 -0.001199724417 0.0002381090404)
(2.199428729e-05 0.0005357657118 0.000186382748)
(-0.0002168383628 0.0002455998994 0.0008241130934)
(0.0004750912533 -0.0008808548763 -0.001108801132)
(-0.0003900660129 0.0003169808711 0.000408005169)
(0.0005758405265 0.0007096025179 -0.0005448283797)
(0.000505564534 -0.000426305317 3.630517954e-05)
(0.000172342128 -0.0004303021613 -0.0004219425474)
(-0.000442022199 -0.001093652358 0.0006120365297)
(-0.0006472570285 0.0007476747934 -0.0003000373003)
(-0.0002323321312 0.0001353579672 -0.0005279950254)
(-0.0002107506764 0.0001471675565 0.0006115068442)
(0.000740386437 -3.200529623e-05 -0.0009038373265)
(-0.0001255506207 0.0005626969258 -9.885620583e-05)
(-0.0004934956829 -9.45624217e-05 -1.949206122e-05)
(-0.0003285055101 -0.0004198498301 -0.0008282814859)
(-0.0001604996182 -0.0007636037123 -0.0001787632848)
(-0.0005238337431 -0.0005037821694 0.0005144869832)
(-0.0005377080105 0.0001268216818 9.124029765e-05)
(-0.0003479439545 -0.0004599661608 2.976400949e-05)
(-0.0003497966928 0.0007384596395 2.079046567e-06)
(0.0008885454335 0.0003613299354 0.0003145457947)
(0.0003587346714 0.0006201284529 -0.0002967918262)
(0.0002835967802 0.0003308205177 -7.450560246e-05)
(0.0005596301666 5.424708828e-05 7.78375304e-05)
(0.0002363222493 -0.000658921386 0.0005190462366)
(-0.0004683119056 -0.000685942544 0.0006527962027)
(0.0005799771651 0.0006576450128 0.0005610449919)
(0.0005047912861 -0.0008153525425 0.0003597945023)
(-0.0005101560613 -0.0001751620178 -0.0003284099148)
(3.443354975e-05 0.0001516099773 -0.0001155949428)
(0.0001247702772 0.0001991818549 0.0002379248538)
(3.610983801e-05 -0.0001427075997 1.606148414e-05)
(-0.0001382742212 0.0004053362538 0.0007232807029)
(7.206924234e-05 -0.0001564447146 -0.0003072352077)
(-5.795771338e-05 0.000284709445 0.0003486280555)
(-8.427811261e-05 2.81877665e-05 6.731788612e-06)
(0.001278043278 0.0006384323094 0.0005008273846)
(0.0005939421867 0.000858746272 0.0002539790197)
(-2.0599292e-05 0.0003265443737 -0.0005172103285)
(-0.0002296359866 0.0002123154083 -1.403775454e-05)
(-3.528026539e-05 -0.0003426813573 -0.0007309910249)
(-9.879199747e-05 0.0004361058735 -0.0004616643347)
(0.0004746826855 -6.58514832e-05 0.0005289714407)
(0.0001009969673 1.646067628e-05 -9.608568491e-05)
(-0.0003522407976 -6.644764454e-05 -8.804624339e-05)
(0.0006299476294 -0.0006056495452 -5.904369377e-05)
(2.281146034e-05 0.0002138208375 -0.0004528446889)
(9.112718885e-05 0.0001598087905 0.0003435729937)
(0.0001718116008 0.0009830651965 -0.0003733990957)
(0.0005447089642 0.0004210279389 3.543523211e-05)
(-0.0009277428195 -0.0001914438513 -0.0003954873453)
(0.000374460118 0.0002059190831 -2.821302123e-05)
(-0.0003214535596 -0.0003499636959 -0.000878871165)
(-0.0001839464382 -6.147427115e-05 -0.0004469896527)
(5.115785231e-05 0.0002390271644 0.0001099596941)
(5.042044522e-05 -0.0005707028325 0.0001074134062)
(-0.001404208168 -0.0007734500262 -0.00042636594)
(0.0008347611735 9.762386605e-05 0.0004867524504)
(-0.0006660987665 0.0008661528875 0.000861163196)
(-0.0009692328415 -0.0003817616124 0.000683408342)
(-0.0007250944051 0.0005822095127 0.0002203730524)
(-0.0003114838802 0.0001980042868 2.041395872e-05)
(-7.822744207e-05 -0.0004579398234 0.0009698991623)
(0.0002783722901 0.0001326677165 0.0003600363662)
(-4.878868705e-05 -0.0003404492536 8.950051459e-05)
(0.0001967548273 0.001268428122 0.0002635572541)
(-0.0002253167598 0.000177949469 0.0007345344774)
(0.0004475611749 -0.000114365222 0.0004777102955)
(-0.0003715999109 -4.641791837e-05 -0.0003126398791)
(0.00036765355 0.0002026666175 -0.0001384690728)
(0.0005954177545 4.662007061e-05 9.333196619e-05)
(0.000351282461 -0.0005687642898 0.0001516068841)
(0.0009250879501 -0.0003504969261 -0.0004175593867)
)
;

boundaryField
{
    flow
    {
        type            zeroGradient;
    }
    obstacle
    {
        type            calculated;
        value           nonuniform List<vector> 
30
(
(0 0 0)
(0 0 0)
(0 0 0)
(-4.446498005e-25 -1.191435552e-25 -9.040034857e-22)
(0 0 0)
(3.681271306e-21 9.863936754e-22 7.055485503e-23)
(0 0 0)
(0 0 0)
(0 0 0)
(0 0 0)
(0 0 0)
(0 0 0)
(0 0 0)
(0 0 0)
(0 0 0)
(0 0 0)
(0 0 0)
(1.558808645e-21 4.176815184e-22 -1.224765009e-21)
(0 0 0)
(0 0 0)
(0 0 0)
(4.884960871e-23 1.308921316e-23 8.551518772e-22)
(0 0 0)
(-2.712426355e-21 -7.267924526e-22 2.464291284e-21)
(0 0 0)
(0 0 0)
(0 0 0)
(1.05379575e-21 2.823637206e-22 9.994940566e-23)
(0 0 0)
(0 0 0)
)
;
    }
    frontAndBack
    {
        type            empty;
    }
    procBoundary1to0
    {
        type            processor;
        value           nonuniform List<vector> 
21
(
(-8.074961324e-05 -0.0002652875971 -4.615446234e-05)
(-0.0005006975337 0.0005311635007 -0.0006386236111)
(-0.0003589536124 -0.0003802464844 -0.0006066282614)
(-0.0001199458637 0.0004819933417 0.0008567469727)
(-0.0006907844942 -0.0004315231372 0.000384061926)
(-0.0003748479955 -0.0001400665682 -5.133942946e-05)
(0.0004509864147 0.0009007507563 -0.001262584939)
(-0.0006129831585 0.0003786685438 0.0008385377512)
(-0.0007762380964 9.577531435e-05 -9.926516047e-05)
(0.0004909263772 0.0004893102475 0.0002790693943)
(6.897318598e-05 -0.0004305977021 0.0003707740042)
(-0.0004210027666 0.0004237714938 0.000174377888)
(-0.0003892247479 -0.0001738825268 0.000324478693)
(7.610829777e-05 -0.0007502298369 0.0002186764734)