/*--------------------------------*- C++ -*----------------------------------*\
  =========                 |
  \\      /  F ield         | OpenFOAM: The Open Source CFD Toolbox
   \\    /   O peration     | Website:  https://openfoam.org
    \\  /    A nd           | Version:  7
     \\/     M anipulation  |
\*---------------------------------------------------------------------------*/
FoamFile
{
    version     2.0;
    format      ascii;
    class       volScalarField;
    location    "0.009";
    object      overallT;
}
// * * * * * * * * * * * * * * * * * * * * * * * * * * * * * * * * * * * * * //

dimensions      [1 2 -2 0 0 0 0];

internalField   nonuniform List<scalar> 
546
(
835.6696192
826.7729472
814.8536932
808.4446409
801.1522813
792.0739049
787.2149973
785.9876814
776.343995
771.2666215
767.1309386
764.9019755
761.8155591
752.692045
753.3276972
752.1396705
748.370074
753.2845743
745.9361908
738.6370453
738.3584113
735.5165116
734.5203282
730.7643963
723.7840279
713.103269
717.1619896
722.6290035
715.8476811
708.892583
922.5940165
916.0321836
905.2693253
892.4355712
890.3663799
885.9819883
880.4893841
872.461314
877.4393164
864.4193928
860.861072
855.9005044
849.3158278
848.826976
836.4975086
825.0874267
829.896508
831.1728517
817.5671576
813.0378826
807.5755615
804.1798285
793.0406156
790.7782961
791.0218255
777.6381405
775.9267126
766.8105566
751.6517873
726.6012294
927.1880046
924.8252758
921.1096529
921.8323968
915.6612327
915.7433411
910.4229059
902.7034211
904.2154639
906.2326105
901.9310058
896.4766098
889.3149055
882.921027
881.131854
872.8407563
871.4316489
874.337659
866.410322
859.2616287
853.8698777
847.4088521
843.9146584
840.7337338
832.2080465
821.7755848
810.1535148
792.9833834
775.4994576
737.9627615
913.1664535
915.6927446
916.0014582
910.2211491
912.5101536
916.9184884
913.0045173
910.3956129
910.6678037
910.184492
909.6656771
907.2287554
906.1639934
900.3294841
899.6226372
898.1399357
885.3434022
879.7031362
879.9064599
877.7418093
879.3421411
874.0003372
866.5985467
860.0287846
852.9134963
835.9826468
824.187635
813.5385773
788.4106425
754.9700979
878.0500456
880.8602224
880.5957117
884.2194133
890.7649893
892.2826571
892.025912
895.114928
896.7306578
899.2683035
900.7703805
900.0943258
900.6445649
894.0420381
892.7669376
891.4029886
891.6249456
880.6482221
882.7102981
885.3957495
884.8299734
887.4209186
877.4106377
868.5087374
863.5131659
855.5680222
834.7710337
820.1509433
802.196671
772.348212
839.0565246
852.2494146
856.0112071
850.9871408
857.3835035
861.2548118
869.1487115
865.5863866
869.716466
870.8792561
877.6323709
875.4668111
874.5270123
879.0897634
878.9101165
884.1446763
884.7218152
887.879499
889.2847053
888.2039389
882.4252014
888.8387565
878.3818862
874.4868522
861.0533642
855.1493557
841.3855002
829.6439265
808.797357
786.5668188
803.6588888
817.2272767
824.3258673
827.0360125
831.0954038
835.1629532
841.1804793
842.3969485
852.1095334
857.1197574
859.3383377
860.9174321
865.8599894
866.1392103
868.8967568
875.3953292
869.7444757
873.8813244
877.7949294
870.1773354
875.3294298
877.4681311
869.3650634
869.6140734
862.4745082
857.8353857
846.8324126
834.1838964
815.2821048
786.9022376
755.370675
775.1495801
794.7253967
796.241611
801.7783138
810.8124306
816.9553636
822.4817943
828.7661436
833.6263813
836.9181192
836.4666101
842.6229221
852.0965199
851.8141748
851.8026585
854.8782617
857.8641737
860.0640231
859.5985927
855.3400477
866.7435383
863.5799642
862.8097324
856.0274512
851.2903508
845.638634
836.0883571
820.0831607
796.9365977
715.179743
730.7247704
753.7013053
763.4203305
774.8060494
784.0022987
790.9763073
798.5019874
804.7796939
807.0489587
815.0463886
821.5438441
821.9206947
826.3446804
823.9638245
835.1478908
835.0391522
836.940636
837.827986
844.0984961
840.8730933
841.1638066
843.4648865
842.1651275
843.7797657
839.3680121
828.4650415
822.7824522
815.2828114
793.7868153
662.0531011
683.9884891
708.8155211
723.7005615
735.4616829
751.8031957
765.6482344
773.1984324
775.3156832
778.9716199
785.4855461
788.0208276
793.1521342
799.1485541
809.9742156
812.1863295
819.8469592
822.9146175
827.6161833
825.7139364
823.6851776
830.561048
835.1686246
828.7490305
828.5960135
827.2970916
822.0027746
810.5978287
797.9841997
787.1935516
609.6423932
633.3781674
665.4852236
682.7710493
690.5725523
713.1103655
728.6156987
733.8302773
743.4670395
752.0204947
757.508073
771.3938963
771.0303807
780.8103815
787.3928171
792.7025053
798.4368729
795.9098457
804.1118194
809.8501187
816.7113586
816.4954893
820.0977302
811.0399836
812.6163865
814.0821312
804.9724765
801.3417325
794.730098
781.0390969
554.8178769
586.921211
601.5613289
634.3751513
654.29826
671.4471643
685.5250833
703.0523529
717.7199291
730.7604887
739.4406665
747.8455117
751.190287
760.6783103
770.8408967
776.2558856
775.1989152
774.0650205
778.9745177
791.6143392
794.6880861
797.6832967
799.378928
805.1654636
795.9502158
795.8354616
796.0491372
791.5326611
784.6826779
770.2084162
504.4944169
527.8328543
555.7683708
588.2515831
607.3297711
632.8978474
653.95782
665.5754185
684.43108
692.1705898
705.9983377
721.3516692
728.1491828
733.8243193
741.2451599
753.826832
764.1322045
764.3541694
767.7378297
771.1651193
775.4808654
782.0783452
785.4359112
782.1485474
781.9546256
782.4786486
783.6129747
782.3710744
779.6865267
770.4257186
462.7042764
485.0962824
511.536381
541.0828924
560.7514619
587.3397045
605.7119947
623.4578527
642.7082788
660.4909714
675.3290431
690.4004279
698.6974539
711.2869283
717.9100078
724.599175
733.5449138
738.9589602
745.2978632
751.9373592
761.6885329
760.4755094
763.2474871
769.8090099
771.6702859
769.3659804
773.3349538
766.1479654
768.9972674
756.4940934
427.6324799
435.3159507
463.5501872
489.3012537
510.8502902
541.3534763
563.2363995
589.6280883
605.4691058
628.1301199
652.4915264
667.0194429
677.7180975
688.5571434
700.9817279
712.202489
717.0620848
722.6713388
725.3952373
732.2861211
741.8713231
745.9264176
748.0684378
753.595067
759.6762845
754.470657
760.4135613
754.8265448
749.2100461
745.6027868
394.2003977
409.616579
425.8386725
450.8016079
471.47767
500.083905
524.3185416
544.2328912
573.5242423
587.5229932
606.3095567
624.5709189
642.7051085
656.4469068
672.2921689
683.0712753
690.8425259
700.0711929
710.2892562
718.4427274
725.074289
730.0223517
735.7834622
739.0490659
741.8330691
741.5644565
743.8815458
743.3924212
743.543646
376.3987434
389.9775362
406.1865969
422.4427969
436.0101694
456.281231
476.3711638
500.1349181
525.4782923
547.2788506
565.6042438
590.0831177
607.3466341
620.822983
642.7005143
656.885305
669.3749365
681.5193746
689.6240301
695.3566472
703.3765649
711.959736
717.9801945
724.5350536
357.8439102
368.4510741
381.303746
391.2621463
407.459186
427.5846183
447.7922567
464.2856394
480.9798866
506.9581475
526.5012424
550.8687989
563.6678614
588.8989779
608.1403492
622.5160601
643.5827578
651.6949248
667.0996705
338.0580657
349.2774283
360.330459
372.97804
381.5537235
398.6521401
412.6236127
430.2594274
449.0528478
468.230011
487.181665
510.8185667
527.3672045
547.8947489
329.5968324
339.1286428
347.9787426
356.232018
365.2392488
379.0552435
385.7750106
403.9163849
322.6971946
328.769074
)
;

boundaryField
{
    flow
    {
        type            calculated;
        value           nonuniform List<scalar> 
15
(
708.892583
726.6012294
737.9627615
754.9700979
772.348212
786.5668188
786.9022376
796.9365977
793.7868153
787.1935516
781.0390969
770.2084162
770.4257186
756.4940934
745.6027868
)
;
    }
    obstacle
    {
        type            calculated;
        value           nonuniform List<scalar> 
30
(
737.0240243
731.6667098
741.4125724
705.8493947
714.9577678
699.3079955
685.7988454
699.6245248
696.37488
693.680944
686.3350032
695.3904042
686.3250706
670.4106698
677.5429015
680.61212
679.8387695
675.6508356
668.5762668
674.4257424
669.6925392
660.753479
675.8217673
670.6431079
665.3452822
659.4160283
659.6123991
677.9132379
667.8162511
690.4023496
)
;
    }
    frontAndBack
    {
        type            empty;
    }
    procBoundary1to0
    {
        type            processor;
        value           nonuniform List<scalar> 
21
(
844.3080409
925.9560607
931.177052
914.0929596
874.6360257
839.2935155
796.2494855
746.8189682
685.7408794
628.5311191
573.3386117
522.1169864
474.0527571
438.6993317
402.8725031
378.3478459
363.803967
343.3282624
331.0093058
325.8163847
317.9807694
)
;
    }
    procBoundary1to3
    {
        type            processor;
        value           nonuniform List<scalar> 
36
(
745.3784815
727.861168
729.8575026
730.3759213
729.4143804
745.3784815
728.013939
672.9375691
683.9983222
689.5401729
699.2212891
727.861168
703.1357755
570.7417958
586.904199
609.2337447
625.0499014
672.9375691
638.4612774
415.4432643
433.7675001
450.9369232
472.0334216
491.8513147
570.7417958
509.8667546
333.1829713
340.9006843
351.6859714
358.39167
368.3924487
415.4432643
380.8305937
318.2882937
333.1829713
324.5097695
)
;
    }
}


// ************************************************************************* //
