/*--------------------------------*- C++ -*----------------------------------*\
  =========                 |
  \\      /  F ield         | OpenFOAM: The Open Source CFD Toolbox
   \\    /   O peration     | Website:  https://openfoam.org
    \\  /    A nd           | Version:  7
     \\/     M anipulation  |
\*---------------------------------------------------------------------------*/
FoamFile
{
    version     2.0;
    format      ascii;
    class       volScalarField;
    location    "0.009";
    object      p;
}
// * * * * * * * * * * * * * * * * * * * * * * * * * * * * * * * * * * * * * //

dimensions      [1 -1 -2 0 0 0 0];

internalField   nonuniform List<scalar> 
546
(
0.4601690411
0.4820412545
0.4952072833
0.4933873328
0.4876501134
0.488185474
0.4908958973
0.4938471623
0.481012743
0.4713964175
0.4868891329
0.4897459332
0.4883185258
0.5046381755
0.5066608645
0.4996418573
0.508393874
0.5057988412
0.5095273093
0.5272971668
0.517363525
0.5107471585
0.5086866094
0.5125256543
0.5400826931
0.5258622679
0.5434012679
0.5701941376
0.5397615242
0.5361436037
0.4861707896
0.4888718184
0.5130430529
0.4904293676
0.4903139101
0.4809903667
0.4831024838
0.4974895267
0.5072171598
0.4984925358
0.5055102515
0.5088990306
0.5005291694
0.5134062202
0.5288387262
0.5179549112
0.5269888697
0.5316125693
0.5179601902
0.5222019084
0.5228520758
0.5323677404
0.5408144715
0.553647841
0.5445969875
0.5661718332
0.5684182797
0.5595299366
0.5603955098
0.5590367778
0.4965839001
0.499642169
0.5081771102
0.5012521171
0.5138410335
0.495146134
0.5122189199
0.5268368666
0.524738034
0.5291655208
0.5151706446
0.5190108339
0.5381456815
0.5274745889
0.5340468136
0.5323211996
0.5494768455
0.5433700784
0.547275243
0.5283375212
0.5513598753
0.5384209257
0.555006098
0.5445802344
0.5477102589
0.5684457924
0.5589670231
0.5666140785
0.56942416
0.5453433204
0.5161797427
0.5001889797
0.5177212589
0.517708468
0.5098468076
0.5071083627
0.5201272027
0.526061303
0.5194774887
0.525564035
0.5296250478
0.5313523834
0.5256763558
0.555142159
0.559726585
0.5638755023
0.5618897301
0.5592067436
0.5682755045
0.5531150914
0.5484836532
0.5506683872
0.5573673563
0.5614583982
0.5684295263
0.5821349809
0.5890928775
0.5865090653
0.5918173573
0.5707031409
0.5030451174
0.4847377113
0.490667713
0.4856933902
0.5018097603
0.5065984233
0.5208908189
0.5186200273
0.5146056183
0.5207729513
0.5278914504
0.553380063
0.5505721357
0.533265886
0.5532157291
0.5514636836
0.5545447342
0.5539696169
0.5614261926
0.538531665
0.554195938
0.5546718852
0.5717171434
0.5748316493
0.5778898961
0.5783426952
0.581629615
0.5799731216
0.5850492183
0.5915314538
0.4866606332
0.4848406774
0.4828252879
0.5086920714
0.5097375952
0.5109437889
0.5074935888
0.5145674771
0.5261183728
0.5417698091
0.5438291342
0.5269307773
0.5420752419
0.5469228326
0.5485233067
0.5629287109
0.5561259602
0.5554045004
0.5550941444
0.5522858831
0.5504585336
0.55469431
0.5780023664
0.5680847016
0.5821987086
0.573334597
0.5873478946
0.583645648
0.5798207869
0.5740033366
0.476874874
0.4933887203
0.4876244855
0.502754069
0.4961060266
0.5043604546
0.518170001
0.5125281001
0.5318712029
0.5345062807
0.5615205
0.5449450695
0.5380160772
0.5404741461
0.5653611173
0.5724827229
0.5701842688
0.5782090417
0.5696321398
0.5596646953
0.5569621801
0.55810718
0.576112278
0.5727419653
0.5911416054
0.5856649913
0.5780701571
0.5877722964
0.597354865
0.6134835272
0.4689039493
0.498035727
0.5022106846
0.4967541827
0.5023102077
0.5141765861
0.5205349677
0.5060592238
0.540359164
0.5440763756
0.547917278
0.5430916226
0.525227566
0.5355526536
0.562295881
0.5584319791
0.5568114711
0.5488558112
0.5729901292
0.5564219214
0.559957178
0.5857053027
0.5802056297
0.5779870306
0.577611631
0.5765427672
0.5714050646
0.5839112552
0.585701902
0.6082454187
0.4695447872
0.4863647713
0.5033244078
0.5056447096
0.4999667548
0.5090292977
0.5239424551
0.5090174506
0.5160924862
0.5395300128
0.5323364844
0.5527998932
0.5424616992
0.5325617311
0.5449717768
0.5536295724
0.549189056
0.5613155755
0.5595167511
0.5692283214
0.5476063477
0.5577329398
0.5909697397
0.6104432586
0.5941207954
0.5707190692
0.5884751283
0.6064635495
0.6100128635
0.6166921691
0.4935442371
0.4947884439
0.4854734831
0.5059287718
0.5117593665
0.5061389009
0.4970582662
0.4966720043
0.5175115735
0.5200043097
0.5293416249
0.542971084
0.5344726687
0.5387085919
0.5531809012
0.5539200806
0.5502110574
0.5485112713
0.5524332188
0.5520707431
0.5748152316
0.5801607525
0.5975206919
0.5989247195
0.591251146
0.6026051581
0.5857469372
0.6137721159
0.6062729838
0.6045742461
0.4792311931
0.4790548835
0.4956929311
0.4916386949
0.4962228355
0.4927006653
0.4926009557
0.503794075
0.5078849039
0.5188147758
0.5249800484
0.5398229037
0.5296293592
0.5197156953
0.546390954
0.551144976
0.5560261158
0.5548070205
0.5526178682
0.545128546
0.5507647191
0.5712064503
0.5707375014
0.5801720451
0.5797048406
0.5862115154
0.6061223186
0.6026214058
0.6249986841
0.6390497622
0.4739927964
0.4840417149
0.477983539
0.4727429139
0.5017258474
0.4931354048
0.5022833318
0.495346678
0.4955959204
0.5144177044
0.5032091804
0.5231224396
0.5196384121
0.5127851384
0.5251007218
0.537395078
0.5469967542
0.5423828846
0.5414811194
0.5522137463
0.5489612178
0.5528062795
0.5771620649
0.5869865978
0.5902739561
0.5942052999
0.6082122412
0.5893643599
0.6237930625
0.6261829146
0.4685878706
0.4733384263
0.4767261841
0.493144241
0.4958530557
0.5059074717
0.4964480076
0.5022217529
0.4843954947
0.502261895
0.5063631902
0.5245820536
0.5101660895
0.5111794255
0.5397864762
0.5264132931
0.5497633011
0.5477049188
0.5354640971
0.559253208
0.5594732403
0.5740016996
0.5743740332
0.5784552619
0.5838017563
0.589982493
0.5882835876
0.6048546823
0.6162857345
0.6156216267
0.4806812656
0.4708594998
0.4878899432
0.4857063252
0.4961342254
0.4928618516
0.5083974461
0.5132704726
0.5215532255
0.517137596
0.5225678677
0.5100660732
0.5156153913
0.5156583965
0.5323323945
0.5371536494
0.5494870252
0.5510553419
0.5514711068
0.5698367983
0.5807324225
0.5666617642
0.5745128432
0.5688134306
0.5913804792
0.572190307
0.5708864122
0.587645769
0.6101725018
0.6279278192
0.497378487
0.4857269048
0.4797107188
0.4825181775
0.4942351118
0.5045955739
0.5122779738
0.509884461
0.5050330124
0.5114170014
0.5108143232
0.5102221735
0.5011683512
0.5120007964
0.5259801914
0.5365617211
0.5368148302
0.5376395174
0.5407240334
0.5368416323
0.5569887222
0.5500118081
0.5537538046
0.5672480015
0.5668523386
0.5713642957
0.5733112028
0.5808102322
0.5999873695
0.5933308684
0.4750142945
0.4787845696
0.4795804927
0.4842484848
0.4905470727
0.4889624923
0.5163443303
0.5181228919
0.5196790615
0.5234937393
0.4997271179
0.5113389238
0.5165568126
0.5121276973
0.5155815331
0.5190537969
0.5187972649
0.5343444591
0.5307797057
0.5407296283
0.5369395841
0.560147468
0.5404438963
0.541773212
0.5725241954
0.5663358943
0.5809812498
0.5842569116
0.6037344986
0.4886323807
0.4891590112
0.492502455
0.4866805845
0.473976681
0.4782551401
0.4987109893
0.5075047473
0.4925141096
0.501252222
0.505693325
0.5208387617
0.5130338248
0.4985845352
0.5094403908
0.5151059758
0.5175429479
0.5456803127
0.5609183733
0.558614149
0.5374912975
0.5480073181
0.550885374
0.5438609152
0.4878455873
0.4916961959
0.4878088689
0.4842493341
0.4789335516
0.4861790168
0.4969031593
0.4969652383
0.4981121016
0.5138575115
0.5108389872
0.5134493343
0.5137051441
0.5007135557
0.5057810282
0.5180871792
0.5307058561
0.535919508
0.5337878188
0.4759406755
0.4903224058
0.4856389669
0.4719568144
0.4844685802
0.486876919
0.4817752795
0.4916605129
0.4907940892
0.5126129573
0.5140598743
0.5186626702
0.5233834186
0.5250650633
0.48014962
0.4821245041
0.4819396653
0.4809232363
0.4795933217
0.4887643515
0.4830242023
0.4776372027
0.4644284469
0.4627823739
)
;

boundaryField
{
    flow
    {
        type            calculated;
        value           nonuniform List<scalar> 
15
(
0.5361436037
0.5590367778
0.5453433204
0.5707031409
0.5915314538
0.5740033366
0.6134835272
0.6082454187
0.6166921691
0.6045742461
0.6390497622
0.6261829146
0.6156216267
0.6279278192
0.5933308684
)
;
    }
    obstacle
    {
        type            calculated;
        value           nonuniform List<scalar> 
30
(
0.4422194332
0.4318791892
0.4572339976
0.4624822944
0.4387333018
0.4521648487
0.4479430397
0.4670469291
0.4544908007
0.4382400822
0.4400637401
0.4403928873
0.4522694703
0.4682430642
0.4735309616
0.450930035
0.4680166637
0.4662070662
0.453515622
0.471674423
0.4628112147
0.4486015019
0.4658200229
0.4798016199
0.4925425203
0.4556095479
0.4848988666
0.5232473508
0.5010546632
0.4858893008
)
;
    }
    frontAndBack
    {
        type            empty;
    }
    procBoundary1to0
    {
        type            processor;
        value           nonuniform List<scalar> 
21
(
0.4690285695
0.4815675022
0.4893404816
0.4983480096
0.4911267727
0.4712198621
0.4666066417
0.4571119492
0.4812976544
0.4874487836
0.4570422679
0.4663764121
0.476989395
0.4629348311
0.4830026527
0.4748397069
0.4808762467
0.4829835295
0.4632955064
0.4722703326
0.4648450459
)
;
    }
    procBoundary1to3
    {
        type            processor;
        value           nonuniform List<scalar> 
36
(
0.5973355209
0.5706231026
0.5661655073
0.5436286246
0.576266247
0.5973355209
0.5927621883
0.5370166504
0.5181510202
0.5504605171
0.5407908965
0.5706231026
0.5387655836
0.5238153781
0.5229689715
0.5149933262
0.5252444862
0.5370166504
0.5363081147
0.4942332638
0.5031448719
0.5141320722
0.5119835271
0.516030789
0.5238153781
0.5134656636
0.4863311396
0.4914133478
0.5006143086
0.4917078299
0.4912271684
0.4942332638
0.4881087244
0.4713708325
0.4863311396
0.4838681309
)
;
    }
}


// ************************************************************************* //
