/*--------------------------------*- C++ -*----------------------------------*\
  =========                 |
  \\      /  F ield         | OpenFOAM: The Open Source CFD Toolbox
   \\    /   O peration     | Website:  https://openfoam.org
    \\  /    A nd           | Version:  7
     \\/     M anipulation  |
\*---------------------------------------------------------------------------*/
FoamFile
{
    version     2.0;
    format      ascii;
    class       volScalarField;
    location    "0.009";
    object      rhoMMean;
}
// * * * * * * * * * * * * * * * * * * * * * * * * * * * * * * * * * * * * * //

dimensions      [1 -3 0 0 0 0 0];

internalField   nonuniform List<scalar> 
546
(
1.478053822e-05
1.477298228e-05
1.495612302e-05
1.463196445e-05
1.460475489e-05
1.465447694e-05
1.474274043e-05
1.451568764e-05
1.435545117e-05
1.438566654e-05
1.406652591e-05
1.408694114e-05
1.426743842e-05
1.403876449e-05
1.407595903e-05
1.431206587e-05
1.395039145e-05
1.387299133e-05
1.388381333e-05
1.380351361e-05
1.378944839e-05
1.375748727e-05
1.364169896e-05
1.337096758e-05
1.316272978e-05
1.294077025e-05
1.232090427e-05
1.171897497e-05
1.069440556e-05
8.794932746e-06
1.316646369e-05
1.314871555e-05
1.329819589e-05
1.333062054e-05
1.332760623e-05
1.317414333e-05
1.31568537e-05
1.307519485e-05
1.289761209e-05
1.298409257e-05
1.304409168e-05
1.291426895e-05
1.308358941e-05
1.288421725e-05
1.301650785e-05
1.289407146e-05
1.261352024e-05
1.272935933e-05
1.264340404e-05
1.277487115e-05
1.262044939e-05
1.259877222e-05
1.261505054e-05
1.239042569e-05
1.209002344e-05
1.192459842e-05
1.157555737e-05
1.080235291e-05
9.798346131e-06
8.336014165e-06
1.233952796e-05
1.251595998e-05
1.258878178e-05
1.252882834e-05
1.262730378e-05
1.266834225e-05
1.259122984e-05
1.229064522e-05
1.242714007e-05
1.236081703e-05
1.245257727e-05
1.228350918e-05
1.247072725e-05
1.232266038e-05
1.238834338e-05
1.216478558e-05
1.208126946e-05
1.209239894e-05
1.203513727e-05
1.207200338e-05
1.199034574e-05
1.182772809e-05
1.179325579e-05
1.163742858e-05
1.165451011e-05
1.14064648e-05
1.086201336e-05
1.036465399e-05
9.657236419e-06
8.45610878e-06
1.160240692e-05
1.17986607e-05
1.195024315e-05
1.206930747e-05
1.215860648e-05
1.215909202e-05
1.217303326e-05
1.209963378e-05
1.217941562e-05
1.208426435e-05
1.209534235e-05
1.2041462e-05
1.203721541e-05
1.197125646e-05
1.202310034e-05
1.187003154e-05
1.197688074e-05
1.188721741e-05
1.187484249e-05
1.165722743e-05
1.159815335e-05
1.165512605e-05
1.164307861e-05
1.139924156e-05
1.122213453e-05
1.102193005e-05
1.059631907e-05
1.027651122e-05
9.58291211e-06
8.545717522e-06
1.084103747e-05
1.120606885e-05
1.146099911e-05
1.175587543e-05
1.183202202e-05
1.19612706e-05
1.206768476e-05
1.202173578e-05
1.18960338e-05
1.196170848e-05
1.201977776e-05
1.199244853e-05
1.19142137e-05
1.187735373e-05
1.193296688e-05
1.183988693e-05
1.170625255e-05
1.174611374e-05
1.1717727e-05
1.160782559e-05
1.154384629e-05
1.15180228e-05
1.138982836e-05
1.107329506e-05
1.08488914e-05
1.071130883e-05
1.052721009e-05
1.008972467e-05
9.493274785e-06
8.746392874e-06
9.949182197e-06
1.043518872e-05
1.086361088e-05
1.113772225e-05
1.148352905e-05
1.15971479e-05
1.185876924e-05
1.198993015e-05
1.195210899e-05
1.20683151e-05
1.211208512e-05
1.199008338e-05
1.200372276e-05
1.192477246e-05
1.197683073e-05
1.195656219e-05
1.181928216e-05
1.148388256e-05
1.150512819e-05
1.160857775e-05
1.152563486e-05
1.14200565e-05
1.117882663e-05
1.114782732e-05
1.103938674e-05
1.079240276e-05
1.043134242e-05
1.01916878e-05
9.678319621e-06
9.142834055e-06
9.057674118e-06
9.553379469e-06
1.000429684e-05
1.045520927e-05
1.084451285e-05
1.110820781e-05
1.135699884e-05
1.155970662e-05
1.187244176e-05
1.183963448e-05
1.184465493e-05
1.174639526e-05
1.173760009e-05
1.177722495e-05
1.180328804e-05
1.179046041e-05
1.173022695e-05
1.168054875e-05
1.156836542e-05
1.151097326e-05
1.155096411e-05
1.146399115e-05
1.124166644e-05
1.109917974e-05
1.097623892e-05
1.083983421e-05
1.057589291e-05
1.036562888e-05
9.964752104e-06
9.356512553e-06
8.306884001e-06
8.79375521e-06
9.232460289e-06
9.704830324e-06
1.016072058e-05
1.049267757e-05
1.086218012e-05
1.107951163e-05
1.129053138e-05
1.148060996e-05
1.161296535e-05
1.173689251e-05
1.180298254e-05
1.183145254e-05
1.170813849e-05
1.181221614e-05
1.189696379e-05
1.189036118e-05
1.175299623e-05
1.163404106e-05
1.156380356e-05
1.162362482e-05
1.142642708e-05
1.126996383e-05
1.107022836e-05
1.087118557e-05
1.069123839e-05
1.031739955e-05
9.951550447e-06
9.603591612e-06
7.41415813e-06
7.89732522e-06
8.402805992e-06
8.85668574e-06
9.316896924e-06
9.843743145e-06
1.024393859e-05
1.054911376e-05
1.091818732e-05
1.121884451e-05
1.141524696e-05
1.160488486e-05
1.173343658e-05
1.179849032e-05
1.17925435e-05
1.176384001e-05
1.173527959e-05
1.186691349e-05
1.196224238e-05
1.187990197e-05
1.174775618e-05
1.174512179e-05
1.15572801e-05
1.136581863e-05
1.126750103e-05
1.110182952e-05
1.078245724e-05
1.059472768e-05
1.029324994e-05
9.873912274e-06
6.792617344e-06
7.22723444e-06
7.681186398e-06
8.071199002e-06
8.466248783e-06
8.982032094e-06
9.417489368e-06
9.941747087e-06
1.027384302e-05
1.056164843e-05
1.092704278e-05
1.117826173e-05
1.136311726e-05
1.161092098e-05
1.176243784e-05
1.176435009e-05
1.180235242e-05
1.176540664e-05
1.18212763e-05
1.18888145e-05
1.170653231e-05
1.165798889e-05
1.166535254e-05
1.155618036e-05
1.1436373e-05
1.133992274e-05
1.105903319e-05
1.084007481e-05
1.055661594e-05
1.015183869e-05
6.347970624e-06
6.610650798e-06
7.001084461e-06
7.406169848e-06
7.76766428e-06
8.283314349e-06
8.763847355e-06
9.169230178e-06
9.60357605e-06
9.996223129e-06
1.028530929e-05
1.066986705e-05
1.094736106e-05
1.129806338e-05
1.157457853e-05
1.17115289e-05
1.174734353e-05
1.16095195e-05
1.169043998e-05
1.172939343e-05
1.175197048e-05
1.180321147e-05
1.180309988e-05
1.172024033e-05
1.165911468e-05
1.147885545e-05
1.1263497e-05
1.101642173e-05
1.081149488e-05
1.048744237e-05
5.898960382e-06
6.22041713e-06
6.481736735e-06
6.821269203e-06
7.206339919e-06
7.555542466e-06
7.911469434e-06
8.354121212e-06
8.770831698e-06
9.284340151e-06
9.684986503e-06
1.010444314e-05
1.041337763e-05
1.073125198e-05
1.10915582e-05
1.139258968e-05
1.153176488e-05
1.16704317e-05
1.171052256e-05
1.186733802e-05
1.188742966e-05
1.18091376e-05
1.178343033e-05
1.170490993e-05
1.154930697e-05
1.155553191e-05
1.147318391e-05
1.129427552e-05
1.118280348e-05
1.086462464e-05
5.696294916e-06
5.832675478e-06
6.044504118e-06
6.324001935e-06
6.576184164e-06
6.898671398e-06
7.265994185e-06
7.635649056e-06
8.141289893e-06
8.559601941e-06
9.045889358e-06
9.454942255e-06
9.889034446e-06
1.028884256e-05
1.052880751e-05
1.088027076e-05
1.127791257e-05
1.155548407e-05
1.172267024e-05
1.18507946e-05
1.185560692e-05
1.19861501e-05
1.193999506e-05
1.180860616e-05
1.174509623e-05
1.164969969e-05
1.160173658e-05
1.147835083e-05
1.126961761e-05
1.101863721e-05
5.302838373e-06
5.488005913e-06
5.68710919e-06
5.891399616e-06
6.090277629e-06
6.378394968e-06
6.732052668e-06
7.131069239e-06
7.439281761e-06
7.911496892e-06
8.346061757e-06
8.823070888e-06
9.26105527e-06
9.673057034e-06
1.008409729e-05
1.043125291e-05
1.071537586e-05
1.104175301e-05
1.122303022e-05
1.14970709e-05
1.179285724e-05
1.169132654e-05
1.17813013e-05
1.191416336e-05
1.179409939e-05
1.172534253e-05
1.167801724e-05
1.163176453e-05
1.159104273e-05
1.136380727e-05
5.28841745e-06
5.338830841e-06
5.458428499e-06
5.640937486e-06
5.804523747e-06
6.038813352e-06
6.243881369e-06
6.529107613e-06
6.825528347e-06
7.14985961e-06
7.53422376e-06
7.94988947e-06
8.3474667e-06
8.819921996e-06
9.277007313e-06
9.678399493e-06
1.007861968e-05
1.040248968e-05
1.081178832e-05
1.116922817e-05
1.134828535e-05
1.167920217e-05
1.171032205e-05
1.177144026e-05
1.192175777e-05
1.185406231e-05
1.18585259e-05
1.172749939e-05
1.155207926e-05
1.134355799e-05
5.112533776e-06
5.17543898e-06
5.264774968e-06
5.383733341e-06
5.513679035e-06
5.671349797e-06
5.87593599e-06
6.079738575e-06
6.394360185e-06
6.649796323e-06
6.964405587e-06
7.358474289e-06
7.80895406e-06
8.185394329e-06
8.627893914e-06
9.104977749e-06
9.543485013e-06
9.956491676e-06
1.029258946e-05
1.067803879e-05
1.10051986e-05
1.124545837e-05
1.154954637e-05
1.177276553e-05
1.180203862e-05
1.181924776e-05
1.18020194e-05
1.172285939e-05
1.16488872e-05
5.001136939e-06
5.04263492e-06
5.114025758e-06
5.233648485e-06
5.388494597e-06
5.498692743e-06
5.63178854e-06
5.825070643e-06
5.986663075e-06
6.269823605e-06
6.536196546e-06
6.831152822e-06
7.161932178e-06
7.535556087e-06
8.006091736e-06
8.391640072e-06
8.753910783e-06
9.205456013e-06
9.6609141e-06
1.004713044e-05
1.055058706e-05
1.087072001e-05
1.120250895e-05
1.150734853e-05
4.916807737e-06
5.007774913e-06
5.066105978e-06
5.121128872e-06
5.163373909e-06
5.25792338e-06
5.383254754e-06
5.51359808e-06
5.69599327e-06
5.900492348e-06
6.078842502e-06
6.361832158e-06
6.5978981e-06
6.931785454e-06
7.295176456e-06
7.707332639e-06
8.220523586e-06
8.584628544e-06
9.100644908e-06
4.926137748e-06
4.958636008e-06
4.987954835e-06
5.038727978e-06
5.089109045e-06
5.184613214e-06
5.263276183e-06
5.356151364e-06
5.421692725e-06
5.619088874e-06
5.797880007e-06
6.008289805e-06
6.252056765e-06
6.56285842e-06
4.861681822e-06
4.908155709e-06
4.901398166e-06
4.948800075e-06
5.008413108e-06
5.069274168e-06
5.141407997e-06
5.269038938e-06
4.889307213e-06
4.905318582e-06
)
;

boundaryField
{
    flow
    {
        type            calculated;
        value           nonuniform List<scalar> 
15
(
8.794932746e-06
8.336014165e-06
8.45610878e-06
8.545717522e-06
8.746392874e-06
9.142834055e-06
9.356512553e-06
9.603591612e-06
9.873912274e-06
1.015183869e-05
1.048744237e-05
1.086462464e-05
1.101863721e-05
1.136380727e-05
1.134355799e-05
)
;
    }
    obstacle
    {
        type            calculated;
        value           nonuniform List<scalar> 
30
(
6.604384182e-24
6.389213269e-24
6.811208048e-24
6.654059117e-24
6.277264267e-24
6.554303232e-24
6.309249942e-24
6.404580671e-24
6.268007673e-24
6.250285678e-24
6.103631684e-24
6.144620561e-24
6.261956442e-24
6.337097406e-24
6.112184239e-24
6.220748257e-24
5.906431228e-24
6.093619636e-24
6.033352887e-24
6.011050251e-24
5.989598573e-24
5.994193879e-24
5.893780275e-24
5.735193562e-24
5.55453496e-24
5.41872422e-24
5.42310512e-24
5.107195541e-24
4.643618295e-24
3.833667991e-24
)
;
    }
    frontAndBack
    {
        type            empty;
    }
    procBoundary1to0
    {
        type            processor;
        value           nonuniform List<scalar> 
21
(
1.510736657e-05
1.329651789e-05
1.235454613e-05
1.127946859e-05
1.047732365e-05
9.568565017e-06
8.586742663e-06
7.801927903e-06
6.9767537e-06
6.440021575e-06
6.052504486e-06
5.642468712e-06
5.52537072e-06
5.215339819e-06
5.133438596e-06
5.067736819e-06
4.962234544e-06
4.874760223e-06
4.902369646e-06
4.869810692e-06
4.831157132e-06
)
;
    }
    procBoundary1to3
    {
        type            processor;
        value           nonuniform List<scalar> 
36
(
1.171919872e-05
1.16733511e-05
1.187650868e-05
1.188512983e-05
1.188755372e-05
1.171919872e-05
1.189994543e-05
9.515307563e-06
9.883612093e-06
1.030641135e-05
1.066425908e-05
1.16733511e-05
1.103119129e-05
6.869611587e-06
7.172086797e-06
7.578810301e-06
8.032948178e-06
9.515307563e-06
8.425058341e-06
5.389671118e-06
5.462936974e-06
5.565089678e-06
5.709171461e-06
5.861786988e-06
6.869611587e-06
6.052542132e-06
4.956408821e-06
4.992736595e-06
5.010795097e-06
5.054165491e-06
5.109250223e-06
5.389671118e-06
5.135147072e-06
4.865936635e-06
4.956408821e-06
4.88996729e-06
)
;
    }
}


// ************************************************************************* //
