/*--------------------------------*- C++ -*----------------------------------*\
  =========                 |
  \\      /  F ield         | OpenFOAM: The Open Source CFD Toolbox
   \\    /   O peration     | Website:  https://openfoam.org
    \\  /    A nd           | Version:  7
     \\/     M anipulation  |
\*---------------------------------------------------------------------------*/
FoamFile
{
    version     2.0;
    format      ascii;
    class       volScalarField;
    location    "0.009";
    object      rhoMMean;
}
// * * * * * * * * * * * * * * * * * * * * * * * * * * * * * * * * * * * * * //

dimensions      [1 -3 0 0 0 0 0];

internalField   nonuniform List<scalar> 
546
(
2.902005407e-06
2.974374608e-06
2.980383472e-06
3.102594931e-06
2.974420079e-06
2.989605042e-06
2.99662107e-06
3.085213708e-06
2.978218134e-06
2.848382666e-06
2.882513159e-06
2.946120919e-06
2.95935626e-06
3.043327161e-06
3.027010798e-06
2.977523758e-06
3.048520213e-06
3.007343254e-06
3.13244734e-06
3.151409229e-06
3.089150291e-06
3.160506094e-06
3.164599958e-06
3.246681605e-06
3.34843532e-06
3.321255293e-06
3.434726686e-06
3.629382945e-06
3.620896334e-06
3.876798386e-06
2.949992074e-06
3.031345312e-06
3.098284751e-06
3.030122663e-06
2.970993927e-06
2.854137204e-06
2.913352254e-06
3.010197619e-06
3.012577911e-06
2.876202239e-06
2.97360915e-06
3.047513905e-06
3.02144934e-06
2.955491963e-06
3.000851002e-06
2.999895461e-06
3.043956581e-06
3.090144202e-06
3.030322873e-06
3.048169767e-06
3.131377589e-06
3.254006269e-06
3.283648928e-06
3.318040577e-06
3.329198951e-06
3.55372284e-06
3.484944689e-06
3.562097603e-06
3.739597217e-06
4.053132836e-06
3.036931719e-06
3.042690085e-06
3.091758628e-06
3.094601088e-06
3.057155722e-06
2.914699421e-06
3.024481442e-06
3.011257119e-06
3.083850065e-06
3.060163575e-06
3.014458662e-06
3.094986525e-06
3.16327288e-06
3.047195938e-06
3.101529636e-06
3.137987373e-06
3.153598907e-06
3.115403258e-06
3.196159194e-06
3.139620358e-06
3.229440917e-06
3.168829459e-06
3.293614659e-06
3.318560144e-06
3.405014927e-06
3.641092053e-06
3.551259874e-06
3.598335083e-06
3.927886057e-06
3.96490816e-06
3.141212771e-06
3.053870633e-06
3.085737492e-06
3.147661598e-06
3.088636927e-06
3.003511367e-06
3.085490465e-06
3.031130743e-06
3.005821256e-06
3.111666768e-06
3.049127477e-06
3.080331752e-06
3.032692484e-06
3.103550315e-06
3.148956209e-06
3.133297882e-06
3.183041072e-06
3.140016224e-06
3.306286891e-06
3.255968907e-06
3.255861782e-06
3.255966216e-06
3.340230769e-06
3.382838123e-06
3.598622759e-06
3.600997814e-06
3.63272758e-06
3.76203857e-06
4.020004975e-06
4.114711641e-06
3.194264114e-06
2.96951731e-06
3.00817631e-06
3.073121259e-06
3.052790779e-06
3.079201464e-06
3.129661927e-06
3.074630591e-06
3.022897664e-06
3.113951923e-06
3.058053131e-06
3.166270966e-06
3.14692758e-06
3.059742676e-06
3.122608366e-06
3.102240786e-06
3.124999768e-06
3.097861062e-06
3.287190969e-06
3.220107364e-06
3.319738692e-06
3.268993672e-06
3.457222421e-06
3.464640917e-06
3.608498992e-06
3.661976758e-06
3.73825045e-06
3.846449919e-06
3.991247523e-06
4.296090693e-06
3.154102299e-06
3.072580805e-06
3.017658085e-06
3.118315006e-06
3.119208879e-06
3.085869098e-06
3.048594368e-06
3.065745186e-06
3.154741815e-06
3.148991781e-06
3.114004264e-06
3.089268213e-06
3.209344195e-06
3.18607086e-06
3.222940617e-06
3.260567457e-06
3.20514266e-06
3.15978685e-06
3.202337242e-06
3.264387234e-06
3.264504117e-06
3.385001218e-06
3.448068093e-06
3.380936622e-06
3.656073831e-06
3.637147177e-06
3.858999547e-06
4.005209462e-06
4.062075884e-06
4.172531128e-06
3.130871889e-06
3.130243502e-06
3.123832444e-06
3.187136869e-06
3.131748922e-06
3.148092688e-06
3.130228185e-06
3.066399004e-06
3.254777145e-06
3.207408038e-06
3.266105281e-06
3.18333691e-06
3.120921402e-06
3.277240609e-06
3.293536077e-06
3.339989647e-06
3.351382768e-06
3.317308275e-06
3.193584554e-06
3.332962602e-06
3.271605559e-06
3.317459051e-06
3.390888235e-06
3.482630393e-06
3.62561257e-06
3.754696531e-06
3.732635517e-06
3.838192584e-06
4.078569506e-06
4.377000836e-06
3.109013342e-06
3.19362791e-06
3.217368736e-06
3.161198811e-06
3.139999574e-06
3.222119339e-06
3.22331148e-06
3.039582144e-06
3.249684767e-06
3.229224205e-06
3.287684177e-06
3.205933268e-06
3.131905835e-06
3.245347446e-06
3.344821819e-06
3.213490574e-06
3.313666579e-06
3.166613174e-06
3.326689855e-06
3.320976417e-06
3.346193702e-06
3.445497901e-06
3.453822805e-06
3.573988161e-06
3.721370525e-06
3.703198463e-06
3.723737276e-06
3.934421241e-06
4.079335988e-06
4.315060121e-06
3.163677285e-06
3.164131982e-06
3.233993324e-06
3.206974674e-06
3.237730938e-06
3.196929364e-06
3.220065418e-06
3.132768681e-06
3.210902955e-06
3.316392424e-06
3.159135253e-06
3.372029396e-06
3.131933826e-06
3.176003031e-06
3.282524927e-06
3.262268444e-06
3.197077147e-06
3.280726346e-06
3.280449242e-06
3.394077221e-06
3.381583765e-06
3.540974755e-06
3.630550449e-06
3.751947781e-06
3.665846556e-06
3.645490075e-06
3.856055517e-06
4.136122238e-06
4.18158042e-06
4.531218552e-06
3.272397108e-06
3.218610505e-06
3.15428465e-06
3.299371655e-06
3.19209157e-06
3.14022684e-06
3.078829328e-06
3.132379138e-06
3.302362823e-06
3.293308079e-06
3.34027796e-06
3.309813831e-06
3.220923057e-06
3.256317058e-06
3.273497918e-06
3.289858802e-06
3.361462416e-06
3.264784306e-06
3.336335549e-06
3.347681886e-06
3.500534324e-06
3.612097048e-06
3.659754779e-06
3.70255138e-06
3.667003796e-06
3.861491804e-06
3.884780096e-06
4.1469805e-06
4.251515192e-06
4.367351858e-06
3.26307971e-06
3.239426593e-06
3.317070641e-06
3.295176132e-06
3.244684108e-06
3.091537295e-06
3.126457492e-06
3.234196489e-06
3.203658346e-06
3.292085658e-06
3.198358605e-06
3.296986447e-06
3.192500456e-06
3.166572021e-06
3.292792841e-06
3.287790137e-06
3.37278588e-06
3.296345342e-06
3.272814536e-06
3.242576585e-06
3.383241046e-06
3.453491357e-06
3.603171983e-06
3.637971971e-06
3.720130197e-06
3.810247352e-06
3.957755601e-06
4.074673222e-06
4.282704091e-06
4.619433144e-06
3.300416615e-06
3.308469749e-06
3.253033939e-06
3.239528199e-06
3.39379306e-06
3.266817944e-06
3.252416252e-06
3.256764583e-06
3.218010757e-06
3.181327087e-06
3.186247512e-06
3.36588235e-06
3.279542683e-06
3.219407526e-06
3.363892204e-06
3.353646669e-06
3.318314953e-06
3.33748627e-06
3.316956953e-06
3.517574794e-06
3.44876645e-06
3.497572333e-06
3.670323502e-06
3.738425891e-06
3.800657587e-06
3.879182072e-06
4.1028832e-06
4.060351152e-06
4.215139405e-06
4.450783933e-06
3.327465099e-06
3.312361154e-06
3.276625464e-06
3.293399499e-06
3.282969545e-06
3.330604295e-06
3.272314907e-06
3.267833672e-06
3.14878219e-06
3.253019742e-06
3.246056163e-06
3.396709815e-06
3.314753949e-06
3.229024176e-06
3.434349002e-06
3.387364667e-06
3.523906367e-06
3.443998566e-06
3.369031277e-06
3.599170347e-06
3.483950567e-06
3.569284355e-06
3.680866674e-06
3.731579231e-06
3.854997966e-06
3.941293146e-06
3.962654665e-06
4.072634528e-06
4.358499497e-06
4.541845049e-06
3.45703908e-06
3.315064838e-06
3.27024895e-06
3.314445411e-06
3.404300268e-06
3.38683173e-06
3.360129695e-06
3.359145697e-06
3.4743118e-06
3.348770139e-06
3.32681607e-06
3.283146084e-06
3.339433124e-06
3.357905846e-06
3.467386636e-06
3.488368885e-06
3.43891006e-06
3.441012459e-06
3.515185309e-06
3.579466206e-06
3.589820818e-06
3.62472955e-06
3.737684605e-06
3.743604718e-06
3.931602917e-06
3.889027322e-06
4.015306046e-06
4.137742167e-06
4.361107544e-06
4.596443988e-06
3.435012502e-06
3.4330765e-06
3.294532002e-06
3.356250733e-06
3.423155737e-06
3.487121571e-06
3.462578721e-06
3.402779782e-06
3.365042576e-06
3.432292858e-06
3.409271069e-06
3.341104403e-06
3.356653464e-06
3.411425931e-06
3.38436248e-06
3.490831031e-06
3.494462394e-06
3.552888608e-06
3.518800163e-06
3.643723127e-06
3.654559468e-06
3.68476471e-06
3.65091444e-06
3.735906842e-06
3.837684402e-06
3.981142937e-06
4.021909146e-06
4.093882166e-06
4.369991051e-06
4.512484663e-06
3.414567466e-06
3.308596923e-06
3.362559882e-06
3.407102435e-06
3.38419819e-06
3.368885851e-06
3.466454269e-06
3.429909993e-06
3.446829872e-06
3.506157728e-06
3.388339203e-06
3.423651019e-06
3.361284855e-06
3.388519141e-06
3.375591838e-06
3.40092761e-06
3.501312728e-06
3.535349141e-06
3.559818868e-06
3.601348746e-06
3.555310481e-06
3.701464589e-06
3.668527241e-06
3.8236384e-06
3.880162055e-06
3.872033068e-06
4.057240236e-06
4.15936357e-06
4.369505947e-06
3.456581977e-06
3.492487428e-06
3.420091715e-06
3.442315675e-06
3.365594867e-06
3.3507485e-06
3.446906505e-06
3.459577391e-06
3.339311086e-06
3.422981246e-06
3.470175304e-06
3.527619047e-06
3.445105451e-06
3.387090466e-06
3.433499862e-06
3.428616438e-06
3.46724252e-06
3.622219745e-06
3.780155992e-06
3.731830649e-06
3.64158101e-06
3.674086376e-06
3.794540543e-06
3.826161739e-06
3.501516958e-06
3.480279452e-06
3.415119765e-06
3.404336562e-06
3.493263998e-06
3.419264564e-06
3.468455493e-06
3.522908982e-06
3.451593408e-06
3.521542454e-06
3.550034608e-06
3.537613249e-06
3.544161651e-06
3.501042852e-06
3.451616046e-06
3.621372256e-06
3.717914384e-06
3.732258993e-06
3.77676388e-06
3.489597427e-06
3.579199642e-06
3.527557462e-06
3.449656082e-06
3.503657806e-06
3.525821393e-06
3.583957108e-06
3.532899999e-06
3.453246083e-06
3.571640789e-06
3.587375991e-06
3.638794486e-06
3.543011558e-06
3.713711494e-06
3.561942249e-06
3.57514822e-06
3.528832627e-06
3.512040445e-06
3.485803733e-06
3.588687068e-06
3.510581329e-06
3.394258543e-06
3.496410055e-06
3.565236611e-06
)
;

boundaryField
{
    flow
    {
        type            calculated;
        value           nonuniform List<scalar> 
15
(
3.876798386e-06
4.053132836e-06
3.96490816e-06
4.114711641e-06
4.296090693e-06
4.172531128e-06
4.377000836e-06
4.315060121e-06
4.531218552e-06
4.367351858e-06
4.619433144e-06
4.450783933e-06
4.541845049e-06
4.596443988e-06
4.512484663e-06
)
;
    }
    obstacle
    {
        type            calculated;
        value           nonuniform List<scalar> 
30
(
1.123219434e-24
1.143955241e-24
1.174669597e-24
1.263318607e-24
1.112904385e-24
1.242704435e-24
1.222638807e-24
1.196818846e-24
1.162159572e-24
1.248034199e-24
1.092911251e-24
1.129940753e-24
1.241185088e-24
1.251452244e-24
1.258534981e-24
1.179672769e-24
1.259656337e-24
1.233807547e-24
1.315896659e-24
1.248576175e-24
1.231694422e-24
1.195855402e-24
1.237873433e-24
1.326391687e-24
1.3302321e-24
1.346056852e-24
1.366558805e-24
1.47476418e-24
1.460382352e-24
1.457556992e-24
)
;
    }
    frontAndBack
    {
        type            empty;
    }
    procBoundary1to0
    {
        type            processor;
        value           nonuniform List<scalar> 
21
(
2.996607712e-06
2.950421966e-06
2.975543672e-06
3.018855463e-06
3.096746224e-06
3.039196896e-06
3.015966413e-06
3.093990598e-06
3.244056226e-06
3.218173062e-06
3.139709749e-06
3.229935599e-06
3.287845995e-06
3.294580521e-06
3.338342797e-06
3.416549156e-06
3.483042531e-06
3.536648467e-06
3.402122689e-06
3.467312414e-06
3.566699066e-06
)
;
    }
    procBoundary1to3
    {
        type            processor;
        value           nonuniform List<scalar> 
36
(
4.476428012e-06
3.967298885e-06
4.048551921e-06
3.964478151e-06
4.239191658e-06
4.476428012e-06
4.407572341e-06
3.781351969e-06
3.628682001e-06
3.757653301e-06
3.78278375e-06
3.967298885e-06
3.848601571e-06
3.69028117e-06
3.693696691e-06
3.637258345e-06
3.786334472e-06
3.781351969e-06
3.712772859e-06
3.42944469e-06
3.545122154e-06
3.588794462e-06
3.644719935e-06
3.653407955e-06
3.69028117e-06
3.673454905e-06
3.673582875e-06
3.653849165e-06
3.708114498e-06
3.625041621e-06
3.541021048e-06
3.42944469e-06
3.618268907e-06
3.484102691e-06
3.673582875e-06
3.575208435e-06
)
;
    }
}


// ************************************************************************* //
