/*--------------------------------*- C++ -*----------------------------------*\
  =========                 |
  \\      /  F ield         | OpenFOAM: The Open Source CFD Toolbox
   \\    /   O peration     | Website:  https://openfoam.org
    \\  /    A nd           | Version:  7
     \\/     M anipulation  |
\*---------------------------------------------------------------------------*/
FoamFile
{
    version     2.0;
    format      ascii;
    class       volScalarField;
    location    "0.009";
    object      translationalT;
}
// * * * * * * * * * * * * * * * * * * * * * * * * * * * * * * * * * * * * * //

dimensions      [1 2 -2 0 0 0 0];

internalField   nonuniform List<scalar> 
546
(
923.5556853
906.6579599
890.0166606
879.4310975
868.1934168
856.6286896
847.5891841
846.604156
835.3702212
826.921175
816.9001088
812.0468081
808.50221
800.716936
796.2843655
795.7549779
784.3876189
796.2282038
781.152024
773.535079
772.1784855
768.366348
769.1211128
765.9923463
759.2869824
747.6071092
748.5864469
757.7629633
745.9115657
732.2904523
1026.298676
1012.672627
992.5506351
977.4716924
970.798865
962.8175964
950.4329374
941.652148
945.628281
927.414701
919.4080114
912.5429606
900.5295364
898.0769817
884.3941595
873.6455064
877.7265344
879.9222391
859.0255116
854.1738165
848.8979227
845.3320617
829.9615566
830.4607745
831.7094462
815.0157823
813.0385455
796.6984448
774.1204548
723.8212872
1037.495986
1027.12472
1019.790971
1009.873381
997.04499
996.2148635
988.8860814
973.7357067
966.3284738
964.0549501
960.8804895
957.9284729
946.0331096
930.227436
927.5383355
924.9409926
924.4870012
920.2394603
911.6964092
901.6020472
899.7772832
891.7274435
884.9889328
879.9236322
865.743502
853.1474992
841.4084738
819.8284018
790.5761582
732.2466444
1033.224151
1024.612787
1013.941799
996.7823991
995.178059
996.1675723
989.226238
981.998205
979.9915453
971.4695593
967.5807011
960.2259758
958.2787863
950.0798272
942.1089228
944.0176039
932.0133394
920.4449159
926.1073463
921.6958864
921.2585732
908.6556394
903.5621523
889.9573205
883.6535025
865.7971244
849.1154976
830.0465388
789.0689031
736.3861454
1002.231354
993.1323002
985.3509997
980.8568695
976.0372589
972.4814761
969.8956497
969.1491399
961.0101907
961.1472168
957.258879
955.6042953
952.3719358
941.0356259
937.2759754
938.0266177
936.3925782
924.058519
924.7286745
926.3869347
919.6580944
919.1650345
910.9340428
903.2623403
896.5160865
880.8876331
855.1270113
831.9233125
801.872888
757.4420692
971.9588155
976.0151907
968.1350924
954.2287807
954.7081184
947.9227018
946.4315243
939.205972
934.9147069
931.6068557
932.0544919
926.2974295
923.8505327
925.4454798
925.0987292
928.607776
921.7463045
924.2705427
926.8704395
922.410482
917.9926943
922.8803206
909.547843
904.1565852
887.268686
877.5154028
855.0798946
843.6951016
805.367106
775.6321134
942.7074623
947.3616428
944.8607157
942.1459674
932.3713633
926.9703903
926.2118351
918.3326828
922.5408091
920.6247355
920.0498347
918.1813573
914.8398365
913.2157714
916.1514688
919.397647
912.2300751
911.4521599
918.7644259
908.555677
906.8983856
910.6675383
900.1842048
898.7965389
887.1439945
877.4277716
864.7783096
840.4511767
817.9964135
775.6193089
902.3148699
916.4742625
927.0074039
918.0030818
916.2895726
914.6553042
917.7005081
910.8047891
908.2388534
904.8506727
901.3489384
895.493003
898.2479995
902.1782711
895.2291693
893.6674396
893.6677153
897.0497565
897.8318265
896.1458303
886.3417815
891.9013497
885.0806172
884.4700335
876.6923135
867.7122255
853.5663492
840.908174
821.3588531
792.1514488
860.2124157
874.2268331
893.4616019
892.1376381
893.9002385
895.1679019
894.3687271
895.4412356
891.5678586
887.0316193
887.8152678
889.3998233
879.3857831
884.3076311
874.8081746
879.4253952
876.7386688
873.6816603
871.5335113
875.1571308
866.6048344
864.0920521
870.1412352
866.4302294
865.5778241
860.4171767
845.0447635
831.3681968
818.8802685
789.524372
795.3924524
821.817627
849.0525646
856.4700784
858.998765
872.1937692
876.9595878
878.2451093
872.5713618
869.6175677
870.3743912
864.0193846
857.4664983
859.9711681
869.4960526
862.1193253
864.8391953
860.5884299
862.4473695
859.984884
853.880786
863.8029603
861.4318753
851.4175389
850.6408479
847.1816916
835.1938152
821.6252568
802.8448091
779.9878204
727.6322373
754.153065
788.0288097
810.0142455
816.4518951
837.5814103
846.707821
843.6397823
847.8236133
854.3294887
848.216213
853.5740402
844.0206481
848.4126554
848.3871548
849.3675819
851.9949175
843.0061087
848.3235687
852.6360556
852.6158375
850.3389625
848.71866
836.9932502
836.3916213
833.6127201
819.3214006
811.5869819
802.9616143
780.9918726
655.5669567
700.0264237
714.3418911
754.648766
776.2596216
796.0822763
808.2432169
819.0426795
828.3217604
834.5146341
839.0619302
842.1304081
834.0976908
836.3524251
840.0392625
843.693625
834.511577
827.5114773
829.1006875
837.0448538
834.4267702
835.375137
830.023679
836.224959
820.8563383
816.7852805
813.2535693
807.3584092
800.3015358
776.6696813
591.5476533
620.0301202
654.265574
693.0250066
718.410668
748.9027969
771.3597932
781.3019041
797.3778692
801.2438579
813.044623
819.1951027
819.3185254
819.7370459
819.6503731
823.7526554
830.8050872
823.5357827
818.2522513
820.2863011
819.690956
821.8457505
821.0530426
813.3895568
810.1556964
804.6487185
808.0938012
797.6694158
795.792723
779.5550826
533.301893
564.5830471
600.909147
636.5794572
658.7429561
693.2356633
715.8320528
734.9548989
753.2812164
771.2594214
789.9716002
799.5077876
800.0455008
806.5082554
803.2090631
804.8044346
809.9350114
806.0945116
806.8682573
806.9630162
813.2072889
806.8562577
805.0907617
805.9752837
801.0187666
793.9005069
796.3273325
787.6487774
785.2782638
769.3698691
481.3863894
489.9046164
530.5667126
569.0157409
594.8607458
636.3035438
663.4686632
695.5220264
712.5609422
738.9630296
764.0400744
776.9047617
783.6674651
787.6275166
794.9274427
801.3804932
798.3584462
799.9124959
792.6306233
796.9319015
799.9529108
797.3962469
797.6776909
799.6705777
801.2484714
782.9558149
788.4461056
779.8096105
769.3230706
760.6647766
435.2234849
457.6943065
477.8725979
514.4327799
541.4703526
579.9741776
610.7774449
637.482224
673.7742467
690.2475816
713.1327217
730.5529507
745.7465273
756.9721956
772.5314302
779.5703479
778.9044549
783.334563
786.4822678
791.3572068
790.1180036
789.1976156
789.7618462
789.2397543
788.2211238
783.4753302
778.8168758
770.9363068
769.2073255
408.909891
425.9827216
448.3201871
471.1087296
491.998553
521.2516142
548.9950523
579.8244602
613.6154208
638.1686266
661.2051842
692.7639817
708.749876
721.517585
741.3719691
753.6129308
764.8859947
771.669208
776.3017068
776.2444582
779.0957245
779.2934575
778.2159906
778.7705976
382.6623098
398.369467
417.8215042
432.3269709
452.36463
479.5795323
503.5469898
526.8108312
548.5572293
585.3396646
607.5880663
644.1303134
656.3747109
688.1286184
711.1060768
723.6556112
742.544233
744.5818237
759.5285435
357.335715
373.2608733
387.8059912
403.9159127
417.0111827
441.5752283
460.2039685
483.5660871
507.9461705
535.1316867
557.4526456
587.1920049
609.2557552
633.455869
342.8322898
356.7866276
369.2110935
380.9055968
393.9609923
413.3026704
421.9886092
447.3757788
332.8666353
340.7441539
)
;

boundaryField
{
    flow
    {
        type            calculated;
        value           nonuniform List<scalar> 
15
(
732.2904523
723.8212872
732.2466444
736.3861454
757.4420692
775.6321134
775.6193089
792.1514488
789.524372
779.9878204
780.9918726
776.6696813
779.5550826
769.3698691
760.6647766
)
;
    }
    obstacle
    {
        type            calculated;
        value           nonuniform List<scalar> 
30
(
797.138783
794.3566881
779.4234155
756.317509
776.0517208
747.4486987
724.2834394
743.801551
743.7994907
743.6615283
729.0984122
740.269461
721.3208625
698.8283185
712.3812165
719.5076932
714.7259265
710.7822404
696.6500783
704.1581565
693.0627634
686.6893369
706.7718814
710.6568283
692.8586017
689.0040925
680.6257597
699.9437496
706.8702105
716.9439968
)
;
    }
    frontAndBack
    {
        type            empty;
    }
    procBoundary1to0
    {
        type            processor;
        value           nonuniform List<scalar> 
21
(
939.5769009
1041.410089
1053.897296
1043.386503
1015.492166
981.7151712
948.1636995
900.8936689
831.3389759
755.1580443
678.5486418
614.6202259
548.8426182
497.043717
446.240655
412.711766
389.2643983
361.2824789
345.6933591
339.0256621
325.3067071
)
;
    }
    procBoundary1to3
    {
        type            processor;
        value           nonuniform List<scalar> 
36
(
766.4943698
774.9550487
774.4782127
769.2710212
764.083861
766.4943698
754.4806836
756.9158672
764.5901887
767.7912224
769.299629
774.9550487
765.1221978
659.948788
678.6123672
705.1090357
720.7680801
756.9158672
731.7457474
462.7117516
488.0754902
510.0776145
535.1561021
562.5521411
659.948788
586.3585072
349.0516512
359.8712335
373.2989741
383.9541831
397.1226685
462.7117516
414.7021419
323.9045046
349.0516512
333.6497369
)
;
    }
}


// ************************************************************************* //
