/*--------------------------------*- C++ -*----------------------------------*\
  =========                 |
  \\      /  F ield         | OpenFOAM: The Open Source CFD Toolbox
   \\    /   O peration     | Website:  https://openfoam.org
    \\  /    A nd           | Version:  7
     \\/     M anipulation  |
\*---------------------------------------------------------------------------*/
FoamFile
{
    version     2.0;
    format      ascii;
    class       volScalarField;
    location    "0.3";
    object      epsilon;
}
// * * * * * * * * * * * * * * * * * * * * * * * * * * * * * * * * * * * * * //

dimensions      [0 2 -3 0 0 0 0];

internalField   nonuniform List<scalar> 
7700
(
0.034815
0.101548
0.194821
0.283817
0.358392
0.421802
0.478791
0.532527
0.58557
0.639947
0.697224
0.758589
0.824922
0.896842
0.974733
1.05874
1.14877
1.24447
1.3452
1.45008
1.55793
1.66731
1.77652
1.88364
1.98653
2.08292
2.17041
2.24653
2.30884
2.35491
2.38219
2.38773
2.36757
2.33528
2.28539
2.214
2.11902
2.00014
1.85939
1.70212
1.53742
1.37316
1.20002
1.07653
0.926308
0.821844
0.0511241
0.0800497
0.120567
0.155104
0.182767
0.205561
0.2253
0.243432
0.261039
0.278899
0.297561
0.317427
0.338789
0.361861
0.386784
0.413634
0.442416
0.473062
0.505424
0.539276
0.574308
0.610132
0.646285
0.682239
0.717414
0.751198
0.782969
0.812128
0.83814
0.860583
0.879209
0.894056
0.905984
0.924185
0.947881
0.979047
1.02084
1.07771
1.15542
1.25985
1.39098
1.52069
1.55251
1.40121
1.04995
1.35915
0.0725563
0.0940313
0.12185
0.14496
0.163273
0.178044
0.190557
0.201874
0.212786
0.223846
0.235432
0.247801
0.261134
0.27555
0.291126
0.307894
0.325849
0.344939
0.36507
0.3861
0.40784
0.430054
0.452464
0.474756
0.496589
0.517614
0.537494
0.555933
0.572717
0.587765
0.601201
0.613478
0.625772
0.64151
0.663023
0.69333
0.736648
0.798796
0.887727
1.01354
1.18465
1.38872
1.55155
1.58099
1.51698
2.32553
0.0967307
0.112419
0.132862
0.14928
0.162414
0.173198
0.182509
0.191081
0.199473
0.208078
0.217167
0.226919
0.237458
0.248861
0.261171
0.274399
0.288527
0.303506
0.319252
0.335647
0.352539
0.369739
0.387027
0.404158
0.420872
0.436911
0.452039
0.466073
0.478924
0.490649
0.501528
0.512176
0.523794
0.538705
0.559473
0.589224
0.632011
0.693033
0.778948
0.898133
1.05935
1.26276
1.47874
1.67306
1.93153
3.52825
0.11855
0.129544
0.144468
0.15599
0.165453
0.173627
0.181068
0.188229
0.195458
0.203007
0.211054
0.219717
0.229076
0.239183
0.25006
0.261708
0.274104
0.287198
0.300913
0.315144
0.329754
0.344576
0.359417
0.374065
0.388298
0.401902
0.414695
0.426556
0.43747
0.447579
0.457258
0.467221
0.478697
0.493717
0.514865
0.545272
0.588846
0.650316
0.735288
0.850391
1.00329
1.20109
1.44769
1.76861
2.32439
4.93014
0.136677
0.14276
0.153332
0.161424
0.168447
0.174993
0.181382
0.18786
0.194615
0.201785
0.209471
0.217744
0.226654
0.23623
0.246488
0.257422
0.269008
0.281201
0.293929
0.307096
0.320574
0.33421
0.347827
0.361228
0.374214
0.386597
0.398227
0.409026
0.419029
0.428442
0.437711
0.447626
0.459453
0.47514
0.497296
0.529073
0.574352
0.637726
0.724466
0.840657
0.993956
1.19611
1.47163
1.8896
2.69361
6.30146
0.151109
0.152144
0.15883
0.164533
0.170105
0.175817
0.181783
0.188092
0.194819
0.202021
0.209744
0.218024
0.22689
0.236362
0.246448
0.257145
0.268433
0.280271
0.292596
0.305317
0.318316
0.331447
0.344542
0.357415
0.369877
0.381758
0.392927
0.403336
0.413058
0.422349
0.431715
0.442006
0.454537
0.471238
0.494764
0.528325
0.575883
0.642154
0.732627
0.853835
1.01466
1.23102
1.54056
2.04281
3.06881
7.73048
0.163385
0.158531
0.161475
0.165436
0.170229
0.175677
0.181675
0.188184
0.195194
0.202704
0.210723
0.219264
0.228343
0.237977
0.248176
0.258941
0.270258
0.282095
0.294396
0.307078
0.32003
0.333113
0.34616
0.358993
0.371428
0.383299
0.39449
0.404971
0.414846
0.424408
0.434213
0.445166
0.458628
0.476546
0.501613
0.537143
0.587243
0.656912
0.752191
0.880681
1.05338
1.29072
1.64087
2.2294
3.49589
9.41216
0.174285
0.16272
0.16205
0.164669
0.169085
0.174615
0.180934
0.187885
0.195383
0.203384
0.211869
0.220839
0.230304
0.240282
0.250789
0.261833
0.273411
0.285499
0.298052
0.310993
0.324218
0.337592
0.350951
0.364114
0.376897
0.389135
0.400716
0.411618
0.421966
0.432082
0.442564
0.454361
0.468878
0.488095
0.514711
0.55218
0.604769
0.677809
0.778013
0.914297
1.10017
1.36099
1.75572
2.44073
4.02027
11.5772
0.184457
0.165359
0.161271
0.162808
0.167064
0.172859
0.179653
0.187177
0.195281
0.203881
0.212938
0.222444
0.232409
0.242856
0.253808
0.265285
0.277296
0.289827
0.302843
0.316278
0.330031
0.343969
0.35793
0.371726
0.385169
0.398083
0.410352
0.421955
0.433025
0.443906
0.455225
0.467967
0.483572
0.504044
0.532086
0.571261
0.625968
0.701815
0.806099
0.948885
1.1459
1.42682
1.86086
2.64268
4.62253
14.5542
0.0543474
0.0823296
0.366694
0.369652
0.0864136
0.373242
0.405506
0.43122
0.450742
0.460041
0.460875
0.454973
0.443953
0.429313
0.412414
0.394593
0.377975
0.368476
0.366416
0.366
0.374834
0.372481
0.370783
0.372287
0.0861557
0.0865439
0.367194
0.367354
0.366653
0.0855414
0.0857006
0.0857666
0.0855625
0.0864654
0.085207
0.0851662
0.0834005
0.0737284
0.0569263
0.0306982
0.139087
0.114881
0.154641
0.176813
0.185803
0.198432
0.2019
0.203711
0.204597
0.203194
0.19986
0.195092
0.189358
0.183078
0.176615
0.170302
0.164574
0.160128
0.1559
0.151916
0.147016
0.144042
0.141853
0.137937
0.132498
0.127809
0.131955
0.130234
0.126937
0.121689
0.117588
0.113472
0.106679
0.0980267
0.0923951
0.0822048
0.0712823
0.0621958
0.0498343
0.0226785
0.216325
0.149973
0.166533
0.178107
0.18216
0.182059
0.179257
0.175661
0.171555
0.166527
0.160819
0.154757
0.148628
0.142664
0.137039
0.131882
0.127305
0.123394
0.11987
0.116832
0.114125
0.112025
0.110326
0.108739
0.107361
0.105944
0.104814
0.103586
0.101898
0.100394
0.0985404
0.0961464
0.0931503
0.0892064
0.0846154
0.0786168
0.0715324
0.0648362
0.0582371
0.0962716
0.316757
0.196218
0.201091
0.206087
0.204276
0.198152
0.190112
0.181707
0.173112
0.164266
0.15547
0.147027
0.139153
0.131985
0.125591
0.11999
0.115174
0.111104
0.107665
0.104826
0.102504
0.100646
0.0991544
0.0979415
0.0969199
0.0959926
0.0951202
0.0942667
0.0932896
0.0923046
0.0911501
0.089664
0.0877779
0.0853246
0.0822245
0.078369
0.0739434
0.0698534
0.068315
0.0964055
0.450793
0.263869
0.258006
0.256086
0.247202
0.233928
0.219133
0.204504
0.190083
0.176116
0.163024
0.151107
0.140511
0.131266
0.123325
0.116596
0.110968
0.10632
0.102521
0.0994616
0.0970282
0.095115
0.093618
0.0924534
0.0915293
0.0907656
0.0901008
0.0894868
0.0888554
0.0881976
0.0874378
0.0864825
0.0852568
0.0836663
0.0816544
0.0792303
0.0766397
0.0747664
0.0769183
0.115773
0.647577
0.367926
0.345666
0.332602
0.312805
0.289162
0.264801
0.241476
0.218988
0.197979
0.179
0.162326
0.147986
0.135855
0.125723
0.117352
0.110504
0.104957
0.10051
0.0969864
0.0942279
0.092094
0.090459
0.0892231
0.088289
0.0875722
0.0870048
0.086531
0.0860974
0.0856686
0.0851912
0.0846061
0.0838574
0.0828936
0.0817004
0.0803515
0.0791605
0.0791341
0.0843622
0.134161
0.963117
0.532375
0.475859
0.442114
0.404877
0.366154
0.328506
0.293138
0.259655
0.229173
0.202355
0.179397
0.160149
0.144256
0.131278
0.120774
0.112335
0.105606
0.100285
0.0961179
0.0928896
0.0904188
0.0885508
0.087166
0.0861511
0.0854119
0.0848732
0.0844738
0.084162
0.0838965
0.083634
0.083333
0.0829578
0.0824875
0.0819443
0.081451
0.0813884
0.0829155
0.0908081
0.150538
1.49675
0.793606
0.660985
0.589517
0.526026
0.466805
0.412039
0.360535
0.312723
0.27
0.233098
0.202098
0.176608
0.155967
0.139428
0.126273
0.115868
0.107682
0.101282
0.0963139
0.0924947
0.0895916
0.087415
0.0858193
0.0846689
0.083857
0.083299
0.0829279
0.0826896
0.0825414
0.0824454
0.0823716
0.0823004
0.0822341
0.0822245
0.0824352
0.0833102
0.0861603
0.0963885
0.165068
2.40663
1.19142
0.907929
0.774011
0.675234
0.590836
0.515367
0.444098
0.37876
0.320973
0.271584
0.230601
0.197375
0.170881
0.149985
0.133614
0.120844
0.110919
0.103234
0.0973163
0.0927942
0.0893721
0.0868234
0.0849618
0.0836295
0.082704
0.0820896
0.0817114
0.0815114
0.0814452
0.0814788
0.0815895
0.0817703
0.0820414
0.0824787
0.0832802
0.0849483
0.0889371
0.101227
0.177989
3.98155
1.76013
1.20999
0.987897
0.848229
0.73647
0.637356
0.54366
0.458045
0.382533
0.31824
0.265225
0.222636
0.189068
0.162932
0.142724
0.127157
0.115191
0.106011
0.0989935
0.0936588
0.0896384
0.0866569
0.084479
0.082923
0.0818484
0.0811459
0.0807316
0.0805418
0.0805296
0.0806628
0.0809239
0.0813152
0.0818708
0.0826866
0.0839899
0.0863364
0.0913135
0.105434
0.189522
0.194447
0.166969
0.159699
0.160329
0.164532
0.170667
0.177999
0.18615
0.19491
0.204161
0.213846
0.22395
0.234487
0.245486
0.256983
0.26901
0.281588
0.294716
0.308371
0.322494
0.336991
0.351731
0.366548
0.381247
0.395624
0.40949
0.422711
0.435257
0.447257
0.459069
0.471336
0.48507
0.50173
0.523332
0.552559
0.593036
0.649214
0.726847
0.833541
0.979982
1.18298
1.47389
1.9238
2.72781
4.59493
9.94687
0.20482
0.167983
0.157752
0.157589
0.161784
0.168277
0.176152
0.184931
0.194348
0.204254
0.214579
0.225305
0.236452
0.248057
0.260169
0.272833
0.286085
0.299939
0.314381
0.329364
0.344798
0.360555
0.376461
0.392313
0.407885
0.422963
0.437384
0.451094
0.46421
0.477084
0.49037
0.50509
0.522711
0.545232
0.57529
0.616488
0.673237
0.751236
0.858032
1.00418
1.20601
1.49276
1.92669
2.66424
4.14445
7.33726
0.215972
0.168766
0.155786
0.154912
0.15911
0.16594
0.174317
0.183677
0.193703
0.204223
0.215158
0.226491
0.238247
0.250477
0.263241
0.276599
0.290603
0.305279
0.320627
0.336609
0.353143
0.3701
0.387303
0.404531
0.421534
0.438063
0.453911
0.468984
0.483369
0.497404
0.511738
0.527393
0.54582
0.568983
0.599438
0.640658
0.696925
0.773689
0.878077
1.01986
1.21359
1.48385
1.8787
2.50615
3.61512
5.63899
0.228382
0.16967
0.154098
0.152563
0.156751
0.163866
0.172671
0.182526
0.193076
0.204133
0.215614
0.227507
0.239846
0.252691
0.266118
0.280202
0.295007
0.310576
0.326921
0.344014
0.361781
0.380094
0.398771
0.417576
0.436229
0.454431
0.471919
0.488539
0.504332
0.519605
0.534995
0.551504
0.570558
0.594057
0.624468
0.664954
0.719674
0.793648
0.893328
1.0273
1.20777
1.45405
1.80069
2.31706
3.142
4.45799
0.242593
0.171037
0.15295
0.150774
0.154913
0.16223
0.171353
0.181582
0.192539
0.204028
0.215966
0.22835
0.24122
0.254651
0.268731
0.28355
0.299185
0.315693
0.333097
0.351383
0.370482
0.390272
0.41057
0.431123
0.45162
0.471703
0.491034
0.509377
0.526708
0.543293
0.55974
0.577029
0.596536
0.620074
0.649959
0.689089
0.741334
0.81121
0.904375
1.0281
1.19224
1.41137
1.70945
2.12957
2.74793
3.64167
0.259199
0.173188
0.15258
0.149743
0.153755
0.16115
0.170445
0.1809
0.192122
0.203917
0.216208
0.228997
0.242337
0.25631
0.271018
0.286563
0.303035
0.320503
0.339004
0.358531
0.379027
0.400377
0.422398
0.444833
0.467337
0.48949
0.510856
0.531097
0.550103
0.568084
0.585617
0.603651
0.623502
0.646871
0.675892
0.713187
0.76227
0.827128
0.912608
1.02473
1.17127
1.36301
1.61625
1.95743
2.4281
3.06493
0.27878
0.176399
0.15319
0.149625
0.153378
0.160681
0.169968
0.180475
0.191808
0.203775
0.216308
0.229414
0.243154
0.25762
0.272922
0.289173
0.306475
0.324906
0.344512
0.365299
0.387217
0.410161
0.43396
0.458359
0.482994
0.507379
0.530963
0.55328
0.574115
0.593617
0.612329
0.631166
0.651377
0.674535
0.702569
0.737824
0.783393
0.842794
0.920118
1.02029
1.1494
1.31538
1.52929
1.80743
2.17292
2.64603
0.30171
0.180843
0.154936
0.15052
0.153818
0.160813
0.169883
0.180255
0.191539
0.203546
0.216213
0.229553
0.24363
0.258541
0.274402
0.291335
0.309449
0.32883
0.349532
0.371567
0.394895
0.419422
0.444992
0.471376
0.498209
0.524948
0.550916
0.575495
0.598354
0.619573
0.639669
0.659522
0.680308
0.703456
0.730679
0.764062
0.806171
0.860219
0.929618
1.01839
1.13133
1.27433
1.45496
1.68349
1.97339
2.33734
0.327844
0.186552
0.157927
0.15247
0.155051
0.161479
0.170106
0.180155
0.191236
0.203164
0.215873
0.229376
0.243738
0.259054
0.275446
0.293038
0.311945
0.332256
0.35403
0.377282
0.401979
0.428033
0.455312
0.483629
0.512655
0.541812
0.570298
0.597335
0.622466
0.645715
0.66757
0.688878
0.710729
0.734389
0.761334
0.793351
0.83261
0.881992
0.944357
1.02303
1.12184
1.24522
1.39843
1.58816
1.82275
2.11079
0.356126
0.193476
0.162282
0.155508
0.157036
0.162603
0.170551
0.180095
0.190836
0.20258
0.215257
0.228873
0.243483
0.25918
0.276084
0.294322
0.314008
0.335233
0.358053
0.382486
0.408498
0.436002
0.464884
0.495015
0.526142
0.557695
0.588774
0.618462
0.646195
0.671946
0.696175
0.719676
0.743421
0.768494
0.796118
0.827772
0.865257
0.911164
0.967952
1.03842
1.12568
1.23303
1.36412
1.52345
1.71654
1.94951
0.384318
0.201793
0.168283
0.159751
0.159789
0.164157
0.171181
0.180045
0.190323
0.201802
0.214392
0.228087
0.242928
0.258998
0.276413
0.295298
0.315764
0.337896
0.361748
0.387338
0.414625
0.443513
0.473891
0.505682
0.538727
0.572528
0.606174
0.638684
0.669443
0.698381
0.7259
0.752679
0.779512
0.807286
0.836972
0.869713
0.906944
0.950886
1.00391
1.06847
1.14703
1.24194
1.35555
1.49092
1.6519
1.84312
0.409161
0.212497
0.17663
0.165552
0.163481
0.166235
0.172062
0.180071
0.189777
0.200921
0.213385
0.22714
0.242211
0.258663
0.276605
0.296157
0.317421
0.340472
0.365362
0.392105
0.420657
0.450908
0.482729
0.516046
0.550759
0.586509
0.622547
0.658016
0.692333
0.725389
0.757456
0.788968
0.820436
0.852575
0.886163
0.921852
0.960634
1.00425
1.05544
1.11635
1.18885
1.27443
1.37465
1.49117
1.6265
1.78452
0.427542
0.228053
0.188745
0.17364
0.168506
0.169073
0.173368
0.180326
0.189346
0.200094
0.2124
0.226204
0.241513
0.258369
0.27687
0.297122
0.319212
0.343206
0.369147
0.397049
0.426877
0.458525
0.49185
0.526703
0.562897
0.600211
0.638357
0.676899
0.715436
0.753822
0.792103
0.83018
0.868125
0.906675
0.946677
0.987622
1.02986
1.07493
1.12622
1.18578
1.25465
1.33359
1.42335
1.52376
1.63739
1.76794
0.43977
0.252945
0.206976
0.185138
0.175437
0.173014
0.175348
0.181027
0.18924
0.199525
0.211639
0.225478
0.241027
0.258315
0.277417
0.298412
0.321371
0.346348
0.373383
0.402491
0.433662
0.466847
0.501948
0.538648
0.576368
0.614919
0.654916
0.696744
0.740297
0.785438
0.831986
0.878652
0.924937
0.972211
1.02231
1.07124
1.11911
1.16717
1.22019
1.28086
1.34913
1.42507
1.50677
1.59113
1.68415
1.78926
0.456846
0.293942
0.234418
0.201411
0.184948
0.178501
0.178398
0.182583
0.189892
0.199673
0.211582
0.22545
0.24125
0.259018
0.278798
0.300623
0.324542
0.350605
0.378858
0.409325
0.442058
0.477083
0.514382
0.553381
0.592832
0.632356
0.674093
0.719584
0.768917
0.82212
0.87937
0.936331
0.99213
1.04998
1.10828
1.16268
1.2143
1.26668
1.32415
1.39108
1.46749
1.55141
1.6314
1.69685
1.76965
1.84887
0.511899
0.358114
0.273891
0.223648
0.197754
0.186159
0.183175
0.185709
0.192076
0.201367
0.213108
0.22705
0.243155
0.261506
0.282092
0.304887
0.329915
0.357223
0.38688
0.418961
0.45373
0.491025
0.530676
0.571797
0.612588
0.653121
0.696886
0.746373
0.801722
0.863599
0.929444
0.991364
1.04809
1.10501
1.15823
1.21421
1.27057
1.32971
1.39269
1.46332
1.54331
1.63296
1.72727
1.81155
1.88885
1.94571
0.650084
0.452749
0.322786
0.2513
0.213824
0.196158
0.189973
0.190795
0.196271
0.205175
0.216876
0.23102
0.247557
0.26661
0.288105
0.311947
0.338116
0.366632
0.397544
0.430813
0.466451
0.504275
0.543694
0.584269
0.626203
0.670316
0.717567
0.769127
0.824405
0.884991
0.943893
1.00047
1.05154
1.10054
1.15342
1.21312
1.27683
1.34298
1.41161
1.4874
1.57331
1.66727
1.76506
1.86445
1.96324
2.04824
0.809551
0.490861
0.357926
0.280714
0.230922
0.206859
0.197024
0.195608
0.19973
0.207877
0.219251
0.233416
0.250195
0.269554
0.291445
0.31578
0.342468
0.371457
0.402708
0.436045
0.470819
0.507041
0.544851
0.584929
0.627958
0.673859
0.722114
0.77236
0.823742
0.876248
0.929635
0.982066
1.03098
1.07804
1.12883
1.1874
1.25352
1.32567
1.40291
1.48698
1.58056
1.68378
1.79267
1.90064
2.00155
2.09929
0.935372
0.509629
0.389008
0.298437
0.243927
0.21592
0.203149
0.199594
0.20218
0.209247
0.219883
0.233578
0.250022
0.26904
0.290559
0.3145
0.340758
0.369263
0.399912
0.432597
0.467207
0.503726
0.542308
0.583481
0.627553
0.674009
0.721806
0.770139
0.818428
0.866452
0.914431
0.961731
1.00741
1.0527
1.10151
1.158
1.22431
1.30063
1.38614
1.4805
1.58412
1.69679
1.81552
1.93331
2.04378
2.14768
0.905217
0.476582
0.377803
0.299778
0.250188
0.222411
0.208668
0.203988
0.205565
0.211801
0.221777
0.234939
0.250932
0.269543
0.290679
0.314268
0.340221
0.368453
0.398856
0.43135
0.46588
0.502514
0.541502
0.583201
0.627632
0.674097
0.721469
0.768807
0.815499
0.861122
0.905525
0.94862
0.990709
1.03343
1.08013
1.13499
1.20155
1.28165
1.37522
1.48095
1.59697
1.72097
1.84918
1.97528
2.09322
2.20232
0.764178
0.406408
0.341686
0.287046
0.248217
0.224415
0.211866
0.207329
0.208666
0.214547
0.224154
0.236969
0.252649
0.270982
0.291864
0.315229
0.341015
0.36916
0.399594
0.432274
0.467177
0.504355
0.543964
0.58617
0.630833
0.677293
0.724532
0.771538
0.817461
0.861587
0.9035
0.943329
0.982084
1.02199
1.06661
1.12044
1.18798
1.27242
1.37476
1.49347
1.625
1.76456
1.90588
2.04142
2.16476
2.27469
0.657955
0.362038
0.309764
0.27048
0.241705
0.223226
0.213254
0.209902
0.211741
0.217798
0.22743
0.240208
0.255842
0.274146
0.295017
0.318402
0.344261
0.372561
0.403271
0.436378
0.471873
0.509771
0.550104
0.592852
0.637766
0.684233
0.731329
0.777985
0.823128
0.865817
0.90552
0.94252
0.978263
1.01552
1.05832
1.11172
1.18099
1.27052
1.38251
1.51604
1.66653
1.82699
1.98809
2.1393
2.27197
2.38374
0.620437
0.346752
0.289444
0.256354
0.234327
0.22063
0.213631
0.212057
0.214963
0.221678
0.231738
0.244823
0.26071
0.279251
0.300363
0.324004
0.350154
0.378801
0.409936
0.443556
0.479648
0.518181
0.559083
0.602192
0.647157
0.693356
0.739884
0.785624
0.829387
0.870142
0.907387
0.941585
0.974517
1.00939
1.05076
1.10418
1.17569
1.27071
1.3928
1.54228
1.71505
1.90184
2.09101
2.2683
2.42111
2.54378
0.627404
0.346823
0.278368
0.246199
0.227918
0.217779
0.213494
0.213863
0.21815
0.225869
0.236689
0.250379
0.266779
0.285783
0.307329
0.33139
0.357957
0.387029
0.418605
0.452674
0.489199
0.528095
0.569202
0.612245
0.656773
0.702106
0.747314
0.79126
0.83275
0.870812
0.905091
0.936284
0.966469
0.999201
1.03941
1.09312
1.16695
1.26725
1.39898
1.5642
1.76052
1.9795
2.20592
2.42329
2.61381
2.76504
0.66291
0.354282
0.273141
0.239482
0.222944
0.215173
0.213069
0.21525
0.220998
0.229895
0.241679
0.256176
0.273269
0.292881
0.31497
0.339518
0.36652
0.395977
0.427877
0.462189
0.498838
0.537678
0.578466
0.620826
0.664212
0.707874
0.750854
0.792037
0.830321
0.864903
0.895669
0.923589
0.951003
0.98172
1.02092
1.0749
1.15068
1.25536
1.39518
1.57427
1.79304
2.04635
2.32119
2.59586
2.8488
3.05605
0.717325
0.364765
0.271268
0.235231
0.219261
0.212937
0.212447
0.216154
0.223263
0.233347
0.246157
0.261539
0.279394
0.299661
0.322304
0.347305
0.374657
0.404347
0.436345
0.470585
0.506941
0.545203
0.585047
0.626008
0.667456
0.708587
0.748438
0.785971
0.820246
0.850703
0.877519
0.901944
0.926547
0.955292
0.993456
1.04743
1.12442
1.232
1.37744
1.56686
1.80422
2.09004
2.41862
2.77204
3.11846
3.4201
0.782581
0.375621
0.271074
0.232586
0.216578
0.211064
0.21169
0.216583
0.224842
0.23599
0.249756
0.265977
0.284552
0.305415
0.328524
0.353854
0.381379
0.411067
0.442853
0.476629
0.512215
0.549332
0.58758
0.626418
0.665158
0.702969
0.738929
0.77212
0.801813
0.82773
0.850346
0.871177
0.892961
0.919724
0.956709
1.01023
1.08746
1.19614
1.34419
1.53928
1.78885
2.10051
2.48096
2.92688
3.40321
3.84864
0.852096
0.38545
0.271595
0.230966
0.214653
0.209539
0.210881
0.216625
0.225768
0.23777
0.252323
0.269237
0.288389
0.309697
0.333101
0.358555
0.386009
0.415396
0.446613
0.479502
0.513824
0.549235
0.585271
0.621337
0.656713
0.690583
0.722102
0.750514
0.775325
0.796543
0.814926
0.832205
0.851224
0.875981
0.911574
0.964101
1.04053
1.14853
1.29623
1.4922
1.74643
2.07344
2.49572
3.03598
3.67928
4.32729
0.921118
0.393751
0.272404
0.230057
0.213352
0.208377
0.210129
0.216422
0.226168
0.238772
0.25388
0.271268
0.290784
0.312318
0.335784
0.361104
0.388195
0.41695
0.447223
0.478802
0.511391
0.544592
0.577891
0.610663
0.642191
0.671709
0.698488
0.721954
0.741855
0.758463
0.772777
0.786684
0.803062
0.825798
0.859764
0.910751
0.985428
1.09122
1.23617
1.42911
1.68141
2.0129
2.46236
3.08824
3.91951
4.84445
0.986547
0.400535
0.273395
0.229728
0.212621
0.207619
0.209547
0.216128
0.226212
0.239153
0.254558
0.272166
0.291792
0.313293
0.33655
0.361448
0.387865
0.415653
0.444618
0.474497
0.504946
0.53552
0.56568
0.594799
0.622193
0.647176
0.66916
0.687766
0.702966
0.715261
0.725832
0.736656
0.750573
0.771291
0.803408
0.852334
0.924423
1.02684
1.16743
1.35496
1.60117
1.92903
2.39038
3.08139
4.09658
5.35691
1.04649
0.406064
0.274599
0.22993
0.212438
0.207299
0.209224
0.215876
0.226058
0.239086
0.254531
0.272097
0.291567
0.312763
0.33553
0.359716
0.385156
0.41166
0.438989
0.466838
0.494822
0.522466
0.549227
0.574507
0.597681
0.618161
0.635514
0.649553
0.660457
0.668888
0.676156
0.684256
0.695914
0.714612
0.744623
0.791058
0.859941
0.958185
1.09347
1.27431
1.51218
1.83166
2.28918
3.00527
4.14096
5.70026
1.0999
0.410672
0.27607
0.23063
0.21277
0.207417
0.209206
0.215754
0.225831
0.238723
0.253969
0.271246
0.290305
0.310935
0.332946
0.356148
0.380336
0.405279
0.430701
0.456265
0.481562
0.506094
0.52934
0.550757
0.569814
0.586007
0.599063
0.608978
0.616095
0.621213
0.625671
0.631392
0.640928
0.657495
0.685047
0.728382
0.793277
0.886547
1.01597
1.19027
1.42076
1.72888
2.16693
2.85398
3.99523
5.6897
1.14637
0.414716
0.277837
0.231764
0.213549
0.207931
0.209484
0.215792
0.225599
0.238166
0.253009
0.269779
0.288198
0.308029
0.329049
0.351035
0.373739
0.396898
0.420209
0.443317
0.465819
0.487177
0.506925
0.524588
0.539725
0.551998
0.561267
0.567653
0.571609
0.573991
0.576106
0.579755
0.587272
0.601579
0.626289
0.665865
0.725811
0.812828
0.934799
1.10073
1.3217
1.61661
2.02999
2.66634
3.71392
5.35847
1.18601
0.418597
0.279876
0.233224
0.214659
0.208746
0.209997
0.215966
0.225375
0.237467
0.251739
0.26782
0.285411
0.304246
0.324081
0.34467
0.365716
0.386935
0.408003
0.428556
0.448164
0.466385
0.482798
0.496992
0.508626
0.517483
0.523539
0.527009
0.528407
0.528588
0.528785
0.530637
0.53623
0.548171
0.569706
0.604913
0.658949
0.738275
0.85074
1.00546
1.21311
1.48936
1.86801
2.43137
3.347
4.83773
1.21956
0.422782
0.282094
0.234844
0.215943
0.209726
0.210637
0.216199
0.225118
0.236623
0.250195
0.265447
0.28206
0.299748
0.318239
0.337258
0.35651
0.375689
0.394462
0.412463
0.429296
0.444577
0.457931
0.469027
0.477619
0.483592
0.487005
0.488138
0.487524
0.48598
0.484628
0.484922
0.488689
0.498204
0.51632
0.546676
0.593969
0.664246
0.765085
0.905488
1.09568
1.34832
1.68603
2.16349
2.90609
4.1255
1.24586
0.4268
0.283991
0.236283
0.21714
0.21066
0.211229
0.216352
0.224721
0.235558
0.248334
0.26265
0.278173
0.294604
0.311654
0.329034
0.346445
0.363576
0.380095
0.395656
0.409905
0.4225
0.433129
0.441538
0.447563
0.451165
0.452467
0.451781
0.449628
0.44676
0.444171
0.443121
0.445172
0.452266
0.466847
0.492064
0.532048
0.592238
0.679649
0.802881
0.971732
1.19696
1.49283
1.88885
2.45784
3.35019
1.26255
0.428869
0.285031
0.237218
0.217989
0.21132
0.211575
0.216253
0.224046
0.234171
0.246095
0.259414
0.273789
0.28891
0.304483
0.320214
0.335804
0.350946
0.365324
0.378618
0.390514
0.400719
0.408984
0.41512
0.419031
0.420738
0.420401
0.418339
0.415044
0.411185
0.407624
0.405426
0.4059
0.410663
0.421749
0.441792
0.474278
0.523871
0.59673
0.70067
0.844896
1.03925
1.29389
1.62273
2.0568
2.6709
1.2698
0.428719
0.284982
0.237437
0.218293
0.211521
0.211504
0.215752
0.222965
0.232362
0.243414
0.255715
0.268923
0.28273
0.296839
0.31096
0.3248
0.338065
0.35046
0.361697
0.371502
0.379631
0.38589
0.390148
0.392362
0.392592
0.391018
0.387951
0.383837
0.379261
0.374952
0.371795
0.370864
0.37347
0.381261
0.39636
0.421584
0.460723
0.518862
0.602632
0.720181
0.880579
1.09267
1.36447
1.70616
2.1415
1.26778
0.426261
0.283707
0.236788
0.217895
0.211109
0.210869
0.214715
0.221362
0.230039
0.240224
0.251515
0.263575
0.276098
0.288796
0.301384
0.313584
0.325119
0.335719
0.345129
0.353115
0.35948
0.364074
0.366815
0.367698
0.366808
0.364332
0.36056
0.355887
0.350816
0.345952
0.34202
0.339883
0.340583
0.345414
0.356032
0.374614
0.40408
0.448363
0.512666
0.603594
0.728903
0.896627
1.11367
1.38471
1.71378
1.25673
0.421475
0.281127
0.235168
0.216679
0.209964
0.209553
0.213031
0.219138
0.22712
0.236463
0.246776
0.25773
0.26903
0.280396
0.291557
0.302251
0.312224
0.321232
0.329052
0.335488
0.340381
0.343623
0.345165
0.34503
0.343319
0.340212
0.335974
0.330951
0.325564
0.320314
0.315785
0.312661
0.311753
0.314054
0.320812
0.333648
0.354702
0.386831
0.433816
0.500525
0.592879
0.717445
0.880459
1.08639
1.33674
1.23703
0.414411
0.277215
0.232517
0.214569
0.208002
0.20747
0.210618
0.216217
0.223536
0.232077
0.241461
0.251372
0.261526
0.271658
0.281515
0.290853
0.29944
0.307061
0.313522
0.318661
0.322351
0.324517
0.325136
0.324248
0.321958
0.318438
0.313924
0.308713
0.303159
0.29767
0.292714
0.288824
0.286626
0.286865
0.290461
0.298577
0.312719
0.334855
0.367552
0.414097
0.478534
0.565505
0.679769
0.8253
1.00418
1.20929
0.405192
0.272
0.228823
0.211533
0.205177
0.204568
0.20742
0.212548
0.219244
0.22703
0.235543
0.244483
0.253582
0.26259
0.271273
0.279408
0.286786
0.293218
0.298537
0.302609
0.305336
0.306666
0.306594
0.305171
0.302501
0.298742
0.294101
0.288833
0.283231
0.27763
0.272401
0.26796
0.264783
0.263422
0.264543
0.26896
0.277699
0.292062
0.313698
0.344677
0.387512
0.445092
0.520457
0.616329
0.734491
1.17427
0.394012
0.26556
0.224119
0.207576
0.201482
0.200829
0.203418
0.208109
0.214224
0.221305
0.229012
0.237059
0.245196
0.253192
0.260833
0.267915
0.274253
0.279681
0.284056
0.287267
0.289239
0.289937
0.289369
0.287589
0.284697
0.280835
0.276185
0.270963
0.265413
0.259808
0.254444
0.249645
0.245772
0.243233
0.242502
0.244142
0.248838
0.257423
0.270919
0.290562
0.317804
0.354276
0.401665
0.461478
0.53476
1.13294
0.381128
0.258024
0.218482
0.202749
0.196946
0.196274
0.198625
0.202909
0.208482
0.214911
0.221874
0.229106
0.236376
0.243471
0.250194
0.256366
0.261819
0.266409
0.270016
0.272546
0.273941
0.274179
0.273274
0.271282
0.268294
0.264438
0.259871
0.254777
0.249359
0.243842
0.238461
0.233471
0.229147
0.22579
0.223738
0.223378
0.225159
0.229608
0.237342
0.249071
0.265594
0.287763
0.316418
0.352261
0.395733
1.08642
0.366851
0.249558
0.212024
0.197133
0.191637
0.190957
0.193086
0.196989
0.202056
0.20788
0.214161
0.220653
0.227144
0.23344
0.239363
0.244752
0.249461
0.253361
0.256351
0.258353
0.25932
0.259238
0.258127
0.256038
0.253054
0.249289
0.244878
0.239976
0.234756
0.229401
0.224102
0.21906
0.214488
0.210609
0.207665
0.205923
0.205679
0.207262
0.211039
0.21741
0.226798
0.23962
0.256251
0.276966
0.30192
1.03598
0.35153
0.240361
0.204888
0.190844
0.18565
0.184962
0.186877
0.190418
0.195009
0.200272
0.205926
0.211747
0.21754
0.22313
0.228358
0.233079
0.237164
0.240501
0.243003
0.244603
0.245265
0.244978
0.243763
0.241669
0.238768
0.235159
0.230959
0.226302
0.221331
0.216198
0.211061
0.20608
0.201421
0.197253
0.193752
0.191105
0.189506
0.189165
0.190297
0.193126
0.197867
0.204712
0.213803
0.225197
0.239012
0.982947
0.335539
0.230651
0.197238
0.184018
0.179106
0.178398
0.1801
0.18329
0.187431
0.192169
0.197247
0.202457
0.207625
0.212591
0.217215
0.221365
0.22493
0.22781
0.229929
0.231232
0.231686
0.231285
0.230048
0.228017
0.225259
0.221856
0.217911
0.213537
0.208854
0.203992
0.199079
0.194247
0.189626
0.185348
0.181545
0.178347
0.175889
0.174302
0.173716
0.174255
0.176023
0.179104
0.183536
0.189314
0.196381
0.928678
0.319258
0.220657
0.189252
0.176809
0.172144
0.171396
0.172878
0.175724
0.179434
0.183678
0.188221
0.192874
0.197478
0.201892
0.205987
0.20965
0.212779
0.215289
0.217111
0.218198
0.218521
0.218075
0.216876
0.214962
0.212389
0.20923
0.20557
0.201506
0.197143
0.192586
0.187945
0.183329
0.178842
0.17459
0.170671
0.167185
0.164222
0.16187
0.16021
0.159307
0.159215
0.159959
0.161531
0.163921
0.16699
0.874462
0.303051
0.210602
0.181109
0.169376
0.164913
0.164098
0.165347
0.167852
0.171145
0.174922
0.178966
0.183106
0.187199
0.191118
0.19475
0.197992
0.200755
0.202962
0.204554
0.205487
0.205736
0.205296
0.20418
0.20242
0.200062
0.19717
0.193816
0.190082
0.186057
0.181832
0.177499
0.173147
0.168865
0.164737
0.160842
0.157253
0.154039
0.151259
0.148965
0.147194
0.145971
0.145299
0.145163
0.14552
0.146254
0.821456
0.287246
0.200697
0.172985
0.16188
0.157568
0.156653
0.157655
0.159817
0.162703
0.166034
0.169609
0.173274
0.1769
0.180374
0.183593
0.186468
0.188918
0.190876
0.192287
0.193113
0.19333
0.192931
0.191927
0.190343
0.18822
0.185608
0.182571
0.179177
0.175503
0.171626
0.167623
0.163572
0.159545
0.155613
0.151839
0.148283
0.144995
0.14202
0.139392
0.137136
0.135262
0.133767
0.132631
0.131808
0.131212
0.770628
0.272124
0.191128
0.165041
0.154475
0.150257
0.149211
0.149949
0.151765
0.154253
0.157154
0.160286
0.163508
0.166703
0.169771
0.17262
0.175169
0.177349
0.179096
0.180363
0.181114
0.181325
0.18099
0.180115
0.17872
0.176838
0.174512
0.171794
0.168744
0.165425
0.161903
0.158245
0.154517
0.15078
0.147093
0.143511
0.14008
0.136842
0.133832
0.131076
0.128589
0.126378
0.124437
0.122751
0.121278
0.119957
0.72272
0.257903
0.18205
0.15742
0.1473
0.143121
0.141911
0.14237
0.143838
0.145935
0.148423
0.151134
0.153939
0.156734
0.159428
0.16194
0.164198
0.166137
0.167703
0.168851
0.169547
0.169769
0.169509
0.16877
0.167567
0.165925
0.163881
0.161479
0.158767
0.1558
0.152635
0.149327
0.145934
0.142508
0.1391
0.135755
0.132514
0.129412
0.126476
0.123727
0.121179
0.118837
0.116695
0.114743
0.112947
0.111264
0.678245
0.24474
0.173585
0.150238
0.140475
0.136285
0.134883
0.13505
0.136168
0.137883
0.139972
0.142282
0.144695
0.147116
0.149465
0.151667
0.153658
0.155381
0.156785
0.15783
0.158484
0.158725
0.158543
0.157938
0.156921
0.155513
0.153742
0.151643
0.14926
0.146636
0.14382
0.140861
0.137806
0.134701
0.131591
0.128514
0.125504
0.122593
0.119803
0.117154
0.114657
0.112316
0.110131
0.10809
0.106172
0.104347
0.637504
0.232727
0.165815
0.143586
0.134099
0.129853
0.128236
0.128103
0.128873
0.130214
0.131921
0.133849
0.135892
0.137963
0.13999
0.141905
0.143651
0.145175
0.146432
0.147384
0.148001
0.148262
0.148155
0.147678
0.146837
0.145649
0.144135
0.142324
0.140253
0.137957
0.135479