/*--------------------------------*- C++ -*----------------------------------*\
  =========                 |
  \\      /  F ield         | OpenFOAM: The Open Source CFD Toolbox
   \\    /   O peration     | Website:  https://openfoam.org
    \\  /    A nd           | Version:  7
     \\/     M anipulation  |
\*---------------------------------------------------------------------------*/
FoamFile
{
    version     2.0;
    format      ascii;
    class       scalarField;
    location    "0.01/lagrangian/dsmc";
    object      Ei;
}
// * * * * * * * * * * * * * * * * * * * * * * * * * * * * * * * * * * * * * //


345926
(
6.49572e-21
4.41977e-22
6.67175e-22
7.74304e-22
2.1515e-21
3.73913e-21
6.05388e-22
2.96372e-21
4.37755e-21
9.1867e-22
1.09403e-22
1.77728e-21
3.31596e-21
8.06647e-22
1.7875e-21
1.41419e-21
3.53248e-21
5.04911e-21
1.30459e-21
6.44604e-22
1.08097e-21
2.67436e-22
1.00442e-21
1.8411e-21
2.26362e-21
4.14884e-21
2.66444e-21
3.94738e-21
8.00925e-22
1.81808e-22
1.59273e-22
3.84828e-21
2.45643e-21
1.87421e-21
1.94642e-21
5.07486e-21
1.82295e-21
3.38118e-21
5.5149e-22
5.86762e-22
1.27044e-22
6.43581e-22
2.48208e-21
1.25797e-21
1.10444e-21
7.56506e-22
1.57918e-21
9.8074e-22
3.79797e-22
3.71416e-21
1.48169e-21
2.97969e-21
1.81203e-22
7.47745e-22
7.70467e-22
1.41184e-21
4.15575e-22
7.08817e-22
2.19837e-22
4.6059e-21
3.25195e-21
7.97361e-22
2.1141e-21
1.19344e-21
1.2139e-21
1.47201e-22
1.60101e-21
1.06604e-21
2.17627e-23
6.53831e-22
3.9272e-21
1.96724e-21
4.3522e-22
3.73649e-21
3.8136e-22
1.92381e-22
9.39179e-23
1.0976e-21
1.08586e-22
1.08394e-21
1.18292e-21
1.82191e-21
1.69916e-23
1.64315e-22
2.84398e-21
5.06116e-22
3.86198e-21
5.37249e-22
3.66897e-21
2.82368e-21
6.88058e-22
4.60512e-22
1.81457e-21
2.87109e-22
5.23869e-22
7.31079e-21
2.7705e-21
5.28489e-21
1.30626e-21
3.43038e-21
3.08092e-21
2.69428e-21
1.30362e-21
7.85337e-21
1.19872e-21
2.14111e-21
5.03368e-22
1.4445e-21
1.08069e-21
2.5161e-21
3.19807e-21
4.68405e-21
6.26058e-22
1.36165e-21
8.35715e-23
1.75402e-22
1.39195e-22
5.55471e-22
2.76276e-21
4.00623e-22
8.46077e-22
1.48949e-21
3.13894e-21
4.22687e-22
1.81333e-21
3.70484e-21
4.95452e-22
1.27708e-21
2.03132e-22
1.06691e-21
1.401e-21
5.08227e-22
1.61559e-22
1.50672e-21
1.20764e-21
1.94418e-21
1.52509e-22
2.66976e-21
7.01633e-22
8.42289e-22
2.94528e-21
1.0546e-21
3.59876e-21
1.02877e-21
2.58953e-22
7.24307e-22
3.65528e-22
4.40934e-22
3.87976e-21
1.04262e-21
9.54754e-22
2.61433e-22
3.5702e-22
1.11166e-21
6.27082e-22
5.75505e-22
4.7312e-21
1.25347e-21
1.85525e-22
5.51977e-22
6.45093e-21
1.53833e-21
5.14494e-22
1.14856e-21
4.43367e-22
2.06167e-21
2.43031e-21
4.02077e-22
1.6124e-21
3.29886e-21
1.91683e-21
3.25434e-21
1.98529e-22
5.81655e-21
2.67611e-23
1.37403e-21
5.13099e-22
3.64893e-22
1.89313e-21
5.33294e-22
1.79618e-21
9.79308e-22
4.51997e-21
1.4829e-21
1.46719e-22
1.69382e-22
6.34483e-22
5.87672e-22
2.94331e-21
4.04534e-21
4.6107e-21
2.51377e-22
2.14035e-21
2.09041e-22
1.5244e-21
4.08086e-21
2.3874e-21
4.06985e-21
2.99483e-22
3.73905e-21
3.52127e-22
1.00337e-21
1.39701e-21
8.1968e-21
3.63457e-22
2.82565e-22
7.69325e-22
1.25237e-21
2.12145e-22
2.24128e-21
8.89179e-22
2.71569e-21
1.19873e-21
7.71052e-22
1.05839e-21
1.69097e-21
4.28652e-21
1.57412e-21
1.47529e-21
2.94739e-23
2.79641e-22
3.57585e-22
1.0863e-21
1.75218e-21
8.66325e-22
3.01703e-21
2.2953e-21
4.18503e-21
8.65921e-22
3.34645e-21
1.03248e-21
3.16776e-22
3.28285e-21
1.95117e-21
7.37355e-21
1.48898e-21
3.89437e-21
2.44985e-22
5.70726e-22
1.7557e-21
3.29482e-21
1.61989e-21
1.67919e-21
5.12626e-21
3.2098e-21
4.71088e-22
6.67185e-22
1.97856e-21
8.26925e-22
1.12611e-21
5.31303e-23
1.12643e-21
9.88843e-22
5.5077e-22
8.19307e-22
2.99901e-21
2.4887e-21
3.35163e-21
2.085e-21
5.84824e-23
3.16679e-21
5.23394e-21
1.36319e-21
6.76891e-22
2.33402e-21
7.67113e-21
3.72482e-22
3.23716e-21
1.51887e-21
1.36134e-21
1.54605e-22
1.16214e-21
5.10811e-21
9.92761e-22
5.07802e-22
1.19e-22
6.3396e-22
1.1045e-21
1.50036e-21
2.18383e-22
6.4855e-22
1.0777e-21
1.07687e-21
4.58151e-22
8.84088e-22
3.92689e-22
1.90839e-21
4.30885e-23
5.76268e-22
1.7772e-22
1.42975e-21
1.17206e-21
8.84421e-22
2.16285e-21
6.46634e-23
1.78042e-21
2.18209e-21
1.85381e-21
7.15929e-22
7.48715e-21
3.90279e-21
1.28139e-21
8.329e-22
1.12141e-21
8.47755e-22
9.0748e-22
1.89044e-21
1.34659e-21
9.28513e-22
5.79677e-22
2.43546e-21
3.15105e-21
1.06867e-21
1.79174e-21
1.33352e-21
1.95955e-21
4.21483e-21
6.49849e-22
4.56525e-21
2.31086e-21
5.95473e-22
2.41273e-21
2.83973e-21
1.63268e-22
5.76232e-22
2.8493e-21
1.95444e-21
4.27223e-21
2.53401e-22
6.4934e-22
1.46596e-21
1.57929e-22
6.95907e-21
1.01601e-22
3.37276e-21
2.31077e-21
1.14716e-21
7.19214e-21
1.94325e-22
1.8288e-21
1.24488e-21
1.43625e-21
2.5344e-21
9.96458e-22
4.6018e-22
1.77737e-22
1.52812e-21
1.01924e-21
1.86759e-22
2.40896e-21
1.9892e-21
7.15111e-22
4.24349e-21
2.22498e-22
1.35944e-22
9.88936e-22
3.98372e-21
2.67084e-22
2.33828e-21
3.52899e-22
4.63193e-21
7.48209e-21
5.81294e-22
3.24741e-21
4.20452e-22
2.21216e-21
4.43496e-22
2.48255e-21
3.64612e-22
1.01653e-21
1.24552e-21
2.09867e-22
1.20234e-21
6.96261e-23
3.68375e-22
7.51122e-21
1.35587e-21
6.31409e-24
1.43617e-21
5.48986e-21
1.42104e-22
8.74919e-22
2.12554e-21
3.35194e-22
5.56429e-21
2.43732e-21
1.87547e-21
3.53387e-21
2.57219e-22
1.86888e-21
5.37148e-22
2.98961e-22
2.53676e-21
2.08109e-21
2.30471e-24
1.09965e-22
9.31333e-23
1.87112e-21
2.19242e-21
2.38946e-22
1.72498e-21
5.39145e-22
1.04118e-21
5.44053e-22
2.06951e-22
1.1636e-21
2.56685e-21
4.21078e-21
1.148e-21
1.27554e-21
1.63527e-21
6.33225e-21
5.60539e-22
3.95431e-22
6.97852e-22
1.62862e-22
1.03186e-21
6.0275e-22
1.15215e-21
1.01089e-21
4.95223e-21
3.07885e-21
5.84268e-21
2.97248e-22
3.79491e-22
6.7393e-23
1.34829e-21
4.88524e-22
1.93952e-21
2.98292e-22
8.48882e-22
1.60407e-21
2.39734e-21
3.86736e-21
1.21749e-21
1.48439e-22
2.16081e-21
4.42167e-22
1.24953e-21
4.22654e-22
3.40878e-21
4.05671e-22
4.31145e-21
1.56261e-21
2.35363e-21
1.95359e-21
2.32599e-21
6.456e-22
3.85799e-21
2.60035e-21
2.19777e-22
3.95168e-22
1.79515e-22
7.84758e-22
1.32602e-21
8.34197e-22
1.68652e-21
5.66208e-22
5.42704e-22
2.69897e-21
7.32556e-22
3.01504e-21
3.30331e-21
2.89641e-22
1.06648e-21
1.64715e-21
3.28901e-21
1.57298e-22
7.56086e-22
1.83858e-21
5.0408e-22
1.70599e-21
3.17138e-22
1.67817e-21
1.20713e-21
9.80459e-22
3.22988e-21
2.62636e-21
4.2501e-21
3.55811e-22
8.46579e-22
6.12143e-22
5.3765e-22
1.77089e-22
2.37641e-21
1.30689e-22
7.29184e-22
6.27126e-22
3.16525e-21
1.34106e-21
1.59066e-22
7.4972e-22
1.02999e-21
4.26103e-21
2.4207e-21
9.40136e-22
3.61932e-21
2.8005e-21
3.12243e-21
3.55513e-22
7.81103e-22
3.05598e-22
7.17012e-22
8.56983e-23
1.86783e-21
5.44891e-22
4.72876e-21
6.66214e-22
1.23989e-21
3.02469e-22
2.51882e-22
6.49136e-22
4.17248e-21
2.84548e-21
6.02957e-22
4.70292e-22
1.54281e-21
6.34654e-22
2.07224e-21
1.87498e-21
2.32672e-22
9.80147e-21
1.20866e-21
9.04285e-22
1.20898e-22
2.51902e-21
5.14963e-21
3.02623e-21
4.32036e-22
1.08796e-23
1.0139e-22
5.21539e-22
3.39507e-21
2.2851e-21
7.4142e-22
6.35774e-22
4.7078e-22
3.36299e-21
2.67422e-21
1.92268e-22
1.27824e-21
2.57085e-21
1.87316e-21
3.11158e-22
1.13522e-21
4.03708e-23
2.05627e-21
4.447e-21
2.90345e-22
2.58446e-22
9.44063e-22
2.1356e-21
1.50537e-21
1.50351e-21
4.54113e-22
1.28114e-21
1.31227e-21
2.73555e-21
1.03716e-21
7.58537e-21
2.22943e-21
4.96607e-22
4.62103e-22
8.6788e-23
7.42607e-21
1.77667e-21
3.37424e-21
3.13106e-22
3.58691e-21
2.66163e-21
2.06952e-21
3.39749e-21
1.88515e-22
1.01252e-21
2.40884e-21
7.0509e-22
9.13129e-22
7.51359e-22
3.55032e-23
1.48664e-22
4.41353e-21
2.77686e-21
1.56902e-21
9.30056e-22
2.50965e-21
4.03373e-21
2.14995e-21
1.53314e-21
5.00479e-22
2.93583e-22
1.01052e-21
3.8038e-21
3.58392e-21
1.71363e-21
1.39764e-21
2.85383e-21
1.98589e-21
1.98833e-21
5.61465e-23
5.41134e-22
3.27931e-21
2.4629e-22
9.76658e-22
1.91273e-23
3.69082e-21
1.22575e-21
8.56165e-22
4.08553e-21
2.0097e-21
1.12557e-21
4.57646e-22
2.26516e-21
1.06702e-21
1.77219e-22
3.07067e-22
1.03404e-21
6.45435e-22
7.01498e-22
1.03863e-22
4.43375e-21
9.25522e-23
1.7651e-21
7.0257e-22
2.4805e-21
5.82914e-22
4.02775e-21
2.66945e-21
1.41435e-21
1.08796e-21
4.34746e-22
9.65085e-22
3.83615e-23
2.02912e-21
4.41333e-22
2.85883e-21
2.44961e-21
7.77436e-21
4.69896e-22
2.49956e-21
1.86892e-21
3.72956e-22
2.69181e-22
1.45989e-21
6.54386e-22
3.01738e-22
5.97892e-22
2.2347e-22
1.3824e-21
3.83594e-24
3.61313e-21
4.86754e-22
3.8944e-21
3.33964e-22
1.16104e-22
1.04342e-21
5.06744e-22
2.56828e-21
2.39169e-22
2.86215e-21
1.41018e-21
1.04846e-21
7.12618e-22
2.87792e-22
1.11236e-21
4.53296e-21
8.07572e-22
6.77192e-22
2.56691e-21
6.89605e-22
5.04733e-22
2.16497e-21
3.12006e-21
8.35469e-22
2.89807e-22
5.61573e-22
3.73977e-21
1.55307e-21
2.43838e-21
1.36294e-21
3.32951e-21
1.81614e-21
2.63609e-21
1.28886e-21
4.28026e-22
4.09872e-21
2.14722e-21
9.17699e-22
9.78804e-22
8.24709e-22
1.63037e-21
1.02978e-21
5.00181e-22
8.08316e-22
7.0207e-21
3.03718e-21
4.93823e-21
5.01683e-21
9.70958e-22
6.37981e-23
3.74111e-22
1.15263e-21
1.0119e-21
2.29203e-21
3.68713e-21
3.30341e-22
1.23539e-23
5.18177e-22
3.41976e-21
3.11448e-21
2.57708e-23
8.86331e-22
1.1982e-21
2.83067e-21
5.90857e-21
9.10669e-22
9.41295e-22
5.93261e-22
3.64171e-21
1.79844e-21
3.65324e-22
4.40645e-22
4.37879e-22
1.44105e-21
4.23843e-21
1.34941e-21
3.15034e-22
3.55188e-23
8.99153e-22
4.85844e-22
2.7966e-21
4.1058e-21
8.18865e-22
7.71933e-22
1.15046e-21
2.19408e-21
1.19939e-21
9.45854e-22
2.17003e-22
2.37561e-21
6.78157e-22
3.54437e-22
1.6527e-22
2.73472e-21
4.06097e-22
3.78386e-21
1.84062e-21
2.60964e-21
1.26307e-21
4.26137e-22
4.33836e-21
3.27244e-21
2.47461e-21
1.96388e-21
3.32815e-21
7.11991e-22
5.28236e-21
2.5009e-21
3.28141e-21
8.93373e-22
7.69984e-22
7.59874e-22
1.74964e-22
3.23872e-21
2.5134e-21
6.93392e-22
1.01469e-21
3.54025e-21
9.24963e-22
1.092e-21
1.86534e-21
3.81783e-22
2.19081e-21
2.16437e-21
6.2362e-22
3.26871e-21
1.07572e-21
1.91973e-22
1.2469e-21
8.45548e-21
1.93838e-21
7.25429e-21
6.35367e-22
6.69632e-21
1.22576e-22
1.11412e-22
7.49158e-22
2.49319e-22
7.60391e-22
1.98513e-21
6.90277e-22
5.72793e-21
2.26367e-21
1.60478e-21
7.55873e-22
2.14095e-21
9.28328e-22
1.49689e-21
6.62339e-22
1.07255e-22
9.24764e-22
2.22846e-21
5.90738e-22
3.96946e-23
1.42312e-21
3.2664e-21
3.97859e-22
1.2995e-21
3.46628e-21
1.75626e-21
2.71938e-22
2.02213e-21
8.29702e-22
4.24356e-21
9.27286e-22
1.22025e-21
2.50801e-23
7.85593e-21
2.1952e-22
2.33147e-21
3.15348e-22
4.31907e-24
2.65449e-21
2.38005e-21
1.46059e-21
5.00034e-21
1.80282e-21
3.46775e-21
2.69579e-21
2.76781e-21
1.63467e-21
1.5519e-21
9.33657e-23
5.38851e-21
1.70869e-23
1.46292e-22
1.32349e-21
2.77155e-22
1.54269e-21
3.64741e-24
5.60125e-22
2.1554e-21
1.42166e-21
1.07458e-21
2.70724e-22
5.06678e-22
1.47304e-21
2.08813e-21
6.4103e-21
1.53996e-21
3.2932e-21
3.33852e-21
2.81774e-21
1.92217e-21
4.84298e-22
1.10745e-21
1.14638e-21
5.44437e-22
2.92294e-21
3.18039e-23
5.02979e-21
3.24123e-22
1.20217e-22
6.01531e-23
8.07901e-22
3.27559e-21
1.36873e-21
7.41751e-23
1.13754e-21
1.16662e-22
2.73372e-21
1.75813e-21
2.78675e-21
5.59989e-22
4.23588e-21
2.63156e-21
4.38381e-21
3.76979e-23
1.46116e-21
3.06748e-21
1.67858e-21
5.3443e-22
5.85297e-22
1.44843e-22
1.46754e-21
2.08582e-21
1.03631e-21
1.21702e-21
2.33221e-22
4.04747e-21
3.99202e-21
1.13414e-21
2.25678e-21
2.11718e-22
8.52149e-21
2.6334e-22
3.88434e-22
1.80692e-21
3.30824e-21
1.03255e-21
1.00876e-21
4.2591e-22
1.90038e-21
6.42949e-22
1.25402e-21
4.25071e-22
1.3044e-21
1.5651e-21
5.38403e-22
1.89429e-22
1.41906e-22
4.90049e-21
6.74405e-21
3.22015e-21
1.70562e-21
1.12891e-21
1.75528e-21
5.98428e-22
4.09315e-22
3.7654e-21
2.74389e-22
8.40971e-22
2.22942e-22
7.86372e-21
1.40014e-21
4.56391e-22
1.89069e-21
3.95878e-21
4.73833e-22
5.56054e-22
2.42001e-21
2.32343e-21
1.01163e-21
3.55804e-21
7.21474e-22
4.21525e-21
2.57424e-22
2.73022e-22
7.41088e-22
1.45515e-21
1.72986e-21
2.30084e-22
9.67182e-23
2.3387e-21
2.27466e-21
1.61662e-22
3.90704e-22
7.68501e-22
3.03694e-22
4.3604e-22
1.51852e-21
3.22952e-22
2.49627e-21
1.34025e-21
3.42881e-22
8.49488e-21
1.33972e-21
1.13639e-21
1.17688e-22
1.50558e-21
6.49688e-21
1.74571e-22
7.69248e-22
3.55998e-22
3.8082e-21
1.60896e-21
1.85975e-21
1.92654e-21
5.19222e-22
5.55073e-21
1.26362e-21
7.25202e-22
4.43933e-22
1.77131e-21
1.52926e-21
2.74109e-21
1.00054e-21
2.20204e-21
1.12562e-21
1.60327e-21
8.33616e-22
3.79201e-22
9.34373e-22
1.21065e-21
1.43278e-21
1.31539e-23
2.70281e-23
5.75001e-22
1.16191e-21
2.33907e-21
4.05756e-22
3.01588e-21
2.05106e-21
3.20627e-21
6.03421e-22
4.36324e-21
1.18355e-22
9.45775e-22
2.79685e-21
8.64107e-22
1.27473e-21
9.21517e-22
7.78223e-22
2.13163e-22
4.12824e-22
5.99326e-22
1.4635e-21
1.12438e-22
1.03919e-21
1.41316e-22
4.55467e-22
4.75451e-22
1.57795e-22
1.58705e-22
1.86351e-21
1.2782e-21
2.50392e-21
1.11402e-21
1.09794e-21
2.60033e-22
1.34178e-21
2.46054e-21
6.98894e-22
9.38485e-23
2.28088e-21
3.79134e-21
9.38223e-22
3.27558e-22
1.90227e-21
2.89718e-21
2.99929e-21
9.24439e-22
1.30314e-21
1.67369e-21
9.55692e-22
5.49655e-22
1.07734e-21
1.84559e-21
3.13348e-22
1.93016e-21
1.3038e-20
1.66354e-21
4.27099e-22
1.25551e-21
5.9172e-22
6.42592e-22
8.7965e-22
1.80266e-21
5.75117e-22
9.31794e-22
6.68295e-21
4.84217e-22
5.55274e-23
2.64201e-21
1.8076e-21
1.90768e-22
1.9294e-21
2.28223e-21
2.04877e-22
1.80283e-21
6.09555e-21
3.46567e-21
2.52289e-21
1.38114e-21
1.47472e-21
9.4724e-22
5.07528e-22
1.18445e-21
1.8684e-22
2.94709e-21
9.27682e-23
1.54897e-21
2.9574e-22
3.09808e-21
7.2289e-22
1.16651e-21
3.16758e-21
4.40263e-21
1.49392e-21
5.18622e-21
1.27497e-21
1.56756e-21
9.4169e-22
1.13219e-21
1.86561e-22
4.95495e-22
2.63526e-21
1.17511e-21
1.06859e-21
1.45934e-21
5.86463e-21
2.40352e-21
4.48175e-21
2.45932e-21
1.63995e-21
1.64419e-21
1.90875e-21
2.24077e-21
1.51082e-21
1.32462e-21
3.77602e-21
2.16218e-22
1.08206e-22
2.46977e-22
1.58992e-21
9.08645e-22
4.33204e-22
9.97475e-22
6.91853e-22
1.95188e-22
2.37245e-22
4.09183e-22
3.09182e-21
9.94789e-22
2.5629e-21
4.89564e-22
7.80663e-22
9.31756e-22
1.01152e-21
7.05661e-22
6.03863e-22
1.24459e-21
1.48075e-21
2.6116e-21
2.95804e-21
1.68081e-21
1.29486e-21
7.56536e-22
1.43404e-21
1.45078e-22
5.97678e-22
3.49425e-23
4.13472e-21
6.21041e-22
3.9443e-22
4.53429e-22
8.57784e-22
1.32208e-21
6.77239e-22
1.55173e-21
2.91066e-21
1.15074e-21
7.5162e-22
1.27855e-21
1.2169e-21
1.57168e-21
3.94278e-22
3.49493e-21
3.22629e-21
5.70882e-22
2.36441e-21
1.21369e-21
2.79822e-21
1.45586e-21
1.93408e-21
1.11321e-21
2.2719e-22
2.64504e-22
4.00755e-22
3.33942e-21
2.41229e-21
4.21528e-21
9.99761e-22
4.78142e-23
4.13032e-22
9.67718e-22
2.68798e-21
7.27918e-21
7.1396e-23
5.41809e-22
2.14849e-21
4.54674e-21
4.19897e-21
9.17686e-22
9.08462e-22
1.78993e-21
1.03905e-21
2.73019e-21
2.2095e-22
7.3478e-22
1.62643e-22
4.79945e-22
1.89315e-22
1.2058e-21
5.17431e-22
4.49535e-21
2.46659e-22
9.51965e-22
4.45793e-21
2.09717e-22
3.11163e-22
4.90707e-22
1.79721e-22
4.53011e-22
5.72062e-22
1.95354e-21
3.67326e-21
1.67342e-21
2.0578e-21
4.37053e-21
3.66343e-21
9.53522e-22
6.94501e-23
1.54555e-21
1.78535e-22
2.93756e-22
3.36129e-21
1.95916e-22
1.78902e-21
1.99056e-22
5.56106e-22
1.31825e-21
1.12436e-22
3.34067e-22
4.42715e-22
4.80743e-22
1.49874e-20
4.46222e-22
6.40328e-21
1.16664e-21
7.88135e-23
2.71284e-21
1.29867e-21
1.69125e-21
1.43349e-21
7.33937e-22
5.1088e-21
1.73887e-22
9.44763e-22
1.10452e-21
2.35771e-22
1.67475e-21
2.69544e-21
2.4592e-21
9.50897e-22
1.0063e-21
2.47681e-21
1.99336e-21
5.61493e-22
2.07852e-22
4.17326e-22
4.56818e-21
2.29886e-21
6.89529e-22
9.46056e-22
8.25298e-22
6.25108e-22
1.55126e-21
5.34486e-21
7.90863e-22
3.67637e-23
1.35426e-21
2.69696e-21
6.65996e-22
2.91251e-21
2.71239e-21
2.65959e-21
1.949e-21
2.6765e-21
3.76556e-22
1.08692e-21
1.8376e-21
2.84088e-21
3.22567e-21
3.69537e-21
1.1826e-21
1.07566e-22
3.51827e-21
2.76824e-21
8.0681e-22
2.02011e-21
1.87815e-21
5.72286e-21
1.97715e-21
3.3545e-21
2.25938e-22
2.99113e-21
2.69778e-22
4.6227e-21
9.16112e-22
2.45443e-21
4.04172e-21
3.21947e-21
6.48943e-22
1.63504e-21
3.25209e-21
1.05123e-21
5.60555e-22
4.06454e-21
1.37984e-21
1.11335e-21
5.22281e-22
9.25239e-23
5.80178e-22
8.06152e-22
8.56386e-21
1.01879e-21
3.49642e-22
1.3644e-21
1.71516e-21
4.24737e-22
7.60388e-22
2.81705e-22
2.36507e-22
1.23701e-21
2.79664e-21
7.50554e-22
2.92468e-21
8.76128e-22
4.62227e-22
2.00071e-21
1.19076e-21
5.01558e-22
4.61088e-22
1.62216e-21
1.4981e-21
2.79717e-23
1.06885e-21
4.54579e-21
3.43651e-22
1.15338e-21
4.57806e-22
1.21231e-21
2.07362e-21
4.17654e-23
1.23158e-21
9.22808e-22
1.26082e-21
1.0959e-22
3.32487e-21
4.35772e-21
1.37239e-21
2.38121e-22
7.1493e-22
4.32572e-22
8.45335e-22
8.66773e-22
1.95697e-22
1.99192e-21
2.8502e-21
7.58952e-22
5.3371e-22
2.3002e-22
9.59688e-22
2.25025e-21
3.16862e-22
1.48848e-21
3.67213e-22
6.51957e-22
2.67117e-22
1.61352e-21
3.04209e-22
9.06419e-22
1.30342e-22
4.22284e-21
3.34676e-21
5.49616e-22
2.84702e-21
4.15608e-22
1.16464e-21
8.99825e-22
2.21323e-21
9.09517e-21
1.1044e-22
7.9974e-22
1.13218e-21
6.70288e-22
1.86055e-21
1.34046e-22
9.28908e-22
7.24067e-22
9.21423e-22
3.56353e-21
1.26928e-21
6.46535e-21
2.25299e-22
4.22483e-22
1.89015e-22
2.9975e-21
4.1876e-22
3.02469e-21
1.02349e-21
5.55286e-22
9.60625e-23
2.40531e-21
9.61262e-22
7.6255e-21
3.37558e-22
8.86049e-23
9.62382e-22
9.29173e-22
2.24243e-21
1.06055e-21
4.77065e-22
2.88392e-22
3.08556e-21
2.1254e-21
1.72904e-22
3.18706e-21
1.15758e-21
6.74173e-22
2.5303e-21
8.22044e-22
1.07433e-21
5.005e-22
6.22536e-22
1.89327e-21
4.94673e-22
1.66729e-21
1.99044e-23
5.75565e-22
2.06536e-21
3.91797e-23
1.67345e-21
2.89701e-21
2.88758e-21
1.96785e-21
4.11927e-22
6.65794e-22
4.59879e-21
1.09754e-21
3.30583e-22
3.16417e-21
1.11093e-21
6.92366e-22
1.8448e-21
4.45587e-23
2.98163e-22
4.84981e-21
2.15427e-21
1.04708e-21
2.27214e-22
1.13164e-21
1.04663e-21
1.32785e-21
5.52255e-21
2.05226e-22
7.99906e-22
4.7897e-22
1.37854e-23
5.89212e-22
1.10568e-21
7.46766e-22
1.59891e-22
1.43211e-21
9.8178e-22
1.01808e-21
6.90345e-22
3.14694e-21
2.55975e-22
8.89642e-22
6.47679e-22
3.48275e-22
2.46913e-21
2.16466e-22
7.31287e-22
4.16539e-21
4.05135e-21
2.42897e-21
2.90073e-21
4.90326e-22
7.4179e-22
8.98835e-22
9.77827e-22
9.32618e-22
2.32501e-21
5.71577e-22
1.99513e-21
9.80738e-22
1.29514e-21
1.75513e-22
2.58657e-22
2.11902e-21
1.83583e-21
1.76543e-21
4.15884e-21
4.6449e-21
9.75233e-22
1.74615e-21
1.15516e-22
2.12954e-21
2.20596e-22
3.78284e-21
5.70306e-22
5.7371e-22
4.80933e-22
2.15741e-21
2.55636e-22
1.65305e-22
1.54882e-21
3.75182e-22
5.28327e-22
1.82278e-22
1.85465e-21
1.12436e-22
1.85903e-21
4.21591e-21
1.88414e-23
1.51107e-21
2.23255e-22
3.45785e-21
1.39795e-21
1.85794e-21
8.01967e-22
1.38923e-21
1.31504e-21
5.25068e-22
8.47516e-22
4.0231e-21
3.07326e-22
2.21535e-21
5.72794e-22
1.61409e-21
1.3698e-21
9.84765e-23
2.30638e-21
2.18199e-21
9.44328e-22
2.14352e-21
7.4572e-21
6.80162e-22
9.85952e-23
2.81658e-21
4.08158e-21
2.80965e-21
1.95455e-22
2.38563e-22
1.89473e-22
1.23198e-21
2.27919e-21
1.29653e-22
2.34653e-21
1.59595e-23
1.59818e-21
2.69787e-21
1.44469e-22
9.99398e-22
8.3203e-23
1.07647e-21
4.98005e-21
4.95283e-21
3.917e-21
9.48732e-22
4.7778e-22
5.45075e-22
2.20627e-21
1.58499e-22
3.72694e-22
1.4271e-21
2.9451e-22
1.46894e-21
2.99758e-21
1.58305e-22
3.53854e-21
2.83408e-21
1.55337e-21
8.18003e-22
1.28676e-21
8.75641e-22
8.36938e-22
2.22318e-21
2.0936e-21
2.20171e-21
1.07153e-21
3.24229e-21
3.03033e-23
1.6555e-22
8.50755e-23
3.80908e-21
1.10253e-21
2.587e-21
5.39442e-22
1.51163e-21
1.56969e-21
2.50452e-21
5.42349e-21
1.90897e-21
2.94192e-22
5.98374e-22
1.42038e-21
1.61415e-21
2.52567e-21
3.27952e-22
2.64633e-22
3.07629e-21
2.71989e-22
7.00097e-22
5.33918e-22
1.64621e-21
5.99447e-22
3.06902e-21
5.60407e-21
2.1479e-21
2.43911e-22
4.73774e-21
4.6827e-21
1.78006e-22
1.79989e-21
1.01127e-21
3.09298e-21
2.20009e-21
3.1948e-21
1.6104e-21
2.57424e-22
6.70848e-23
4.07815e-21
1.34659e-22
9.34099e-22
5.22369e-23
4.9911e-22
2.22496e-22
4.44463e-22
2.78533e-21
5.33728e-22
1.4165e-21
2.11863e-21
1.64795e-21
2.53333e-21
2.07757e-21
5.02846e-21
4.16383e-22
2.2134e-21
4.31777e-21
2.30006e-21
2.98108e-21
7.58882e-22
3.61789e-21
1.42883e-21
1.15406e-21
2.96131e-21
7.9403e-22
6.46152e-21
1.76854e-21
2.37822e-21
8.41662e-22
5.79928e-21
2.10417e-21
8.45845e-22
4.52685e-23
8.01182e-22
1.54225e-21
5.31535e-21
3.45542e-22
6.42847e-22
5.34404e-22
3.20474e-21
1.57025e-21
1.80282e-21
1.44804e-21
1.33209e-21
4.20147e-22
6.77893e-21
2.49384e-21
2.54482e-21
5.11489e-22
2.13523e-21
1.46899e-21
4.6573e-21
8.79655e-22
1.25035e-21
4.2931e-22
4.2575e-22
4.7046e-21
3.81209e-21
4.13269e-21
7.2438e-22
4.34676e-22
5.33312e-22
5.34789e-22
6.12641e-21
4.23213e-22
2.54905e-22
3.30562e-22
2.72891e-21
1.26905e-21
2.19273e-21
3.72032e-22
2.60934e-22
3.61199e-21
1.82991e-21
2.23578e-21
2.89739e-23
2.46081e-21
2.66663e-21
6.68251e-22
1.03681e-21
6.15101e-21
4.31022e-21
7.45292e-22
1.27467e-22
1.11683e-21
4.33583e-21
1.35576e-21
3.18928e-22
6.70556e-22
6.39704e-22
6.33639e-22
4.80279e-22
2.94035e-22
7.68604e-22
1.60786e-23
2.62966e-21
2.05865e-21
3.40268e-22
4.89777e-21
1.91345e-21
3.04671e-22
1.5236e-21
4.29815e-22
1.41948e-21
2.77662e-22
2.60849e-22
1.27018e-22
2.06937e-22
3.0316e-21
7.1797e-22
1.01066e-22
1.86517e-21
8.81972e-22
1.05533e-21
3.49928e-23
3.51941e-21
2.57444e-22
8.3821e-22
4.03344e-22
3.01499e-22
1.40919e-21
1.17508e-22
3.16803e-21
6.00382e-22
9.16231e-22
1.42486e-21
1.5498e-21
3.02648e-21
2.77714e-22
2.24704e-21
1.49675e-21
4.2847e-21
2.10237e-22
2.3073e-21
1.70586e-21
1.64503e-21
3.25705e-21
7.67586e-22
6.03711e-21
4.3166e-22
3.90564e-21
5.13559e-22
1.04859e-21
1.65033e-21
8.34589e-25
2.09699e-21
1.27128e-21
6.3462e-22
1.57177e-21
3.17044e-21
2.51549e-21
5.52721e-21
3.89929e-21
1.21804e-21
3.31235e-21
6.85003e-23
3.38304e-21
1.29795e-21
1.52549e-22
2.72313e-21
1.31394e-20
4.65044e-21
2.03417e-22
2.70012e-21
2.07906e-21
3.78037e-22
4.59243e-22
5.22882e-22
3.78591e-23
7.81607e-22
5.5984e-22
1.22538e-22
1.92928e-21
3.04378e-21
3.12288e-21
9.13655e-22
1.98401e-21
1.43347e-21
1.46899e-21
2.43956e-21
1.5441e-21
3.75703e-21
5.13115e-21
8.08388e-22
3.46673e-22
1.81226e-21
9.50194e-22
1.61184e-22
2.2512e-22
7.72543e-22
8.33435e-22
1.31089e-21
4.46092e-21
1.59626e-22
1.46647e-21
6.1461e-22
1.46841e-21
4.93437e-23
2.09573e-21
2.21896e-21
4.44248e-22
1.23912e-22
5.64241e-23
4.52573e-23
4.11068e-21
4.96463e-21
7.74359e-22
5.14976e-22
8.0216e-22
1.30226e-22
1.18532e-21
5.87507e-23
1.86329e-22
5.38149e-23
2.06877e-21
1.0814e-21
5.11321e-21
3.14125e-22
8.70203e-22
7.53836e-22
5.24476e-22
3.06735e-21
3.94706e-22
2.87894e-22
5.9048e-22
1.45519e-21
4.38524e-22
2.98736e-21
9.1951e-22
2.80172e-21
1.9495e-21
3.55116e-22
1.09431e-22
3.84589e-21
4.05529e-22
2.96143e-22
3.34645e-21
1.62922e-21
9.51331e-22
3.53912e-22
3.01577e-21
7.91668e-23
6.72381e-22
4.61134e-22
3.84963e-21
2.61631e-22
3.98502e-22
3.27472e-21
1.26491e-21
4.6191e-21
6.86153e-21
6.19157e-22
6.11544e-21
3.26235e-22
2.40504e-21
1.24034e-22
4.51823e-21
3.44379e-21
8.64266e-22
2.556e-22
1.07301e-21
1.70507e-22
5.65151e-22
2.57515e-23
4.27638e-21
4.02591e-21
5.17262e-22
2.70991e-21
8.19317e-23
9.25446e-22
2.19232e-22
1.36178e-21
7.00016e-22
1.06246e-21
1.77632e-22
3.59059e-21
6.86216e-22
2.57465e-22
3.02031e-21
3.67821e-21
2.64487e-21
3.31986e-22
8.11027e-22
4.95797e-21
5.9675e-21
1.03685e-21
2.52779e-21
2.00932e-21
6.01791e-22
1.4199e-21
8.67272e-22
1.75467e-21
1.47261e-21
4.27999e-21
1.86867e-21
3.55436e-22
2.07173e-21
8.89615e-22
2.8749e-21
3.73177e-21
1.96009e-21
8.09345e-22
8.83144e-22
3.3002e-22
2.88171e-21
5.10089e-22
1.12139e-21
7.89109e-22
2.40985e-22
1.43094e-21
3.70837e-22
1.35895e-21
7.28485e-22
7.26792e-22
6.08784e-22
3.13639e-21
4.27331e-22
1.84589e-21
1.82202e-21
5.63137e-23
1.12196e-21
2.07097e-22
9.90598e-22
1.11613e-21
2.21696e-21
6.75272e-22
1.51136e-22
3.39818e-22
1.842e-22
3.42325e-22
2.22752e-21
9.69822e-22
5.10012e-22
7.857e-22
4.00839e-22
3.06815e-22
6.54007e-22
8.22421e-22
1.87485e-21
2.844e-21
4.52567e-22
4.35751e-21
2.54238e-21
6.63624e-22
9.54856e-22
6.46925e-21
9.89221e-22
5.01149e-21
3.57905e-22
1.24299e-21
2.1901e-21
2.07861e-21
2.95031e-21
6.845e-22
4.10231e-21
1.47669e-21
4.82269e-22
4.75348e-22
7.36407e-22
1.01797e-21
2.16751e-21
5.29727e-22
3.93148e-21
1.10353e-22
4.4478e-23
1.3326e-22
3.38782e-22
2.46815e-21
1.91571e-22
2.00013e-21
3.81008e-23
4.89949e-23
1.02343e-21
2.86197e-22
3.5862e-22
4.16649e-22
5.81931e-21
5.78532e-21
2.00125e-21
3.30499e-21
8.45099e-22
6.34366e-22
5.02763e-21
5.49948e-22
2.12897e-22
6.8958e-22
7.23773e-22
5.00468e-21
2.04961e-22
1.49844e-22
1.30493e-21
2.17982e-21
1.96437e-21
1.69414e-21
3.59401e-21
8.39548e-22
1.49583e-21
2.72439e-23
1.31754e-22
3.737e-21
1.04219e-21
8.4e-22
2.79507e-21
1.12525e-21
7.68512e-22
1.70276e-21
6.11576e-21
2.90577e-21
5.12634e-22
2.3985e-21
9.80797e-22
1.11107e-21
2.81597e-22
7.50189e-22
2.02729e-21
2.66726e-21
6.97463e-22
1.00549e-21
2.61457e-22
3.88109e-23
2.22595e-21
5.02989e-22
1.11184e-21
4.26209e-22
3.26437e-21
2.20365e-21
1.93309e-22
1.47389e-21
1.78192e-21
4.30745e-22
5.83465e-22
9.26261e-22
7.72411e-21
2.48937e-21
4.09057e-22
3.87242e-22
4.3333e-22
4.60372e-22
6.02321e-22
2.90245e-21
9.04272e-22
3.46832e-22
7.2496e-22
3.37291e-21
7.64781e-23
3.07768e-21
5.49046e-21
4.642e-21
5.18788e-22
3.26157e-22
8.80377e-22
1.29452e-21
7.49188e-22
2.71238e-21
1.21914e-23
1.23095e-21
1.05332e-20
2.77421e-22
7.48527e-21
8.63383e-22
2.29417e-21
2.00857e-22
1.76237e-21
3.34733e-21
8.48382e-22
1.53335e-21
1.4316e-21
1.36566e-21
3.73636e-21
3.62156e-21
1.59547e-21
3.30612e-21
4.21861e-22
4.11428e-21
4.98589e-22
1.06416e-21
7.20366e-22
7.21326e-22
4.1217e-22
6.46962e-22
2.25284e-21
2.63933e-21
7.77547e-22
1.14175e-21
1.0697e-21
2.06435e-21
3.1324e-22
4.52809e-22
7.13771e-22
7.83317e-22
7.97135e-22
2.18638e-21
2.23402e-21
1.18596e-21
1.45334e-23
2.01898e-21
5.74044e-21
4.95492e-22
4.88016e-22
4.22018e-22
1.78592e-21
2.48802e-22
4.05385e-22
7.7743e-22
3.63928e-22
2.73935e-21
1.60305e-22
2.90801e-21
1.18088e-21
1.26765e-21
1.46559e-21
9.06212e-21
1.09602e-21
2.16034e-21
6.74491e-22
1.1683e-21
7.56791e-22
2.86387e-22
7.44476e-23
5.04997e-22
2.29754e-22
3.44103e-22
3.38421e-21
8.96747e-22
1.15253e-22
2.25806e-22
3.34645e-22
9.05473e-22
3.81829e-24
4.23655e-23
1.37775e-21
1.82421e-21
7.45931e-22
6.97971e-22
5.97174e-23
2.12683e-21
7.73713e-22
1.93018e-23
2.54189e-21
3.05042e-24
1.76958e-22
4.7619e-21
3.78635e-21
1.0407e-21
3.64304e-21
2.79949e-21
5.93683e-22
1.27592e-21
5.17428e-22
5.08667e-21
1.14927e-21
2.18862e-23
2.33825e-21
5.16532e-21
5.10192e-22
1.68635e-21
3.10255e-21
2.06882e-21
4.58365e-22
5.3515e-22
3.82577e-21
7.43686e-22
6.86868e-22
2.57103e-21
1.07973e-21
1.03599e-21
1.24575e-23
4.12277e-22
2.29884e-21
4.02197e-22
1.56804e-21
6.29517e-23
1.02557e-20
5.20749e-22
1.14958e-21
1.52131e-21
2.40086e-21
4.11485e-22
1.29225e-21
2.05473e-22
1.16807e-21
2.70566e-21
2.98488e-21
5.80247e-22
1.30558e-21
1.83417e-21
3.48648e-22
9.97693e-22
5.39858e-22
2.33902e-21
1.31261e-21
7.66975e-22
5.07659e-22
6.57503e-21
9.59094e-22
2.51011e-21
3.58683e-24
7.04733e-22
1.79246e-21
1.74983e-21
9.51568e-22
8.23684e-23
6.55792e-22
1.9387e-22
4.21028e-21
1.43106e-21
3.36928e-23
1.18873e-21
2.94119e-22
1.50915e-22
2.64847e-22
2.92528e-21
1.85379e-21
1.64363e-21
2.06729e-23
5.01591e-22
9.05093e-23
3.45049e-21
3.94877e-22
2.29602e-21
1.12117e-21
7.65258e-22
3.64481e-22
1.47537e-21
6.55799e-22
3.23122e-21
1.63816e-21
1.06277e-20
4.69822e-22
2.34221e-21
5.8275e-23
7.38837e-22
4.34792e-22
5.12244e-22
6.55166e-21
2.01359e-21
8.70263e-22
4.4051e-21
1.29271e-21
8.28146e-22
9.19951e-23
9.4122e-22
3.85352e-21
4.54079e-21
3.00602e-21
3.61308e-22
4.25214e-22
9.11313e-22
5.97633e-23
1.11175e-21
1.19861e-21
4.5589e-22
1.70499e-21
4.46386e-22
4.62145e-22
9.66312e-22
2.60815e-21
9.39173e-22
3.77696e-21
2.35754e-21
2.32107e-21
1.95128e-21
1.99558e-22
3.09737e-22
2.93867e-21
7.91427e-22
3.08112e-22
2.72741e-23
8.5983e-21
1.42851e-21
6.53168e-22
1.24318e-21
2.76868e-22
2.59223e-21
2.04586e-23
1.87463e-21
1.7525e-21
3.50832e-21
1.48803e-21
4.11045e-21
1.27334e-22
2.26511e-21
2.9145e-21
7.90007e-22
3.16131e-22
7.32982e-21
4.42206e-22
1.14488e-21
2.75409e-21
2.67052e-22
2.50244e-22
1.53581e-21
2.40996e-21
4.10292e-21
8.13857e-22
5.78702e-22
4.44975e-22
7.76786e-22
1.03067e-21
6.80803e-22
1.79279e-21
1.07201e-21
6.89405e-22
3.24613e-21
2.11335e-22
2.4457e-22
2.02977e-21
5.97475e-21
7.67033e-23
7.93624e-23
1.33185e-21
8.73865e-22
4.96427e-21
1.85568e-21
2.21401e-22
1.30517e-21
2.36498e-21
4.3994e-24
2.98152e-21
2.00999e-21
9.4277e-22
1.38009e-22
7.06817e-23
1.91137e-22
1.41946e-21
1.73508e-21
4.05734e-21
4.73967e-22
2.11446e-21
6.35138e-23
2.09132e-21
2.31095e-21
1.0148e-21
2.87175e-22
1.53053e-21
1.85609e-21
9.82364e-21
2.45983e-21
1.63629e-21
4.46312e-21
5.54238e-22
1.21419e-22
3.7849e-21
1.02456e-21
3.46304e-22
8.24182e-21
2.54197e-22
1.86584e-21
4.89977e-22
1.96838e-21
1.45164e-21
4.07744e-21
7.27166e-22
7.09557e-22
2.22512e-21
1.06766e-21
1.2074e-21
1.14938e-22
4.33477e-22
8.06651e-23
3.7536e-22
2.11825e-21
1.70258e-21
1.77185e-22
4.03669e-21
1.75153e-21
2.77379e-21
1.52475e-21
6.83715e-21
1.1569e-21
2.80201e-22
5.85808e-21
2.99258e-21
5.87028e-22
9.62518e-22
2.42399e-21
1.02951e-20
1.07036e-21
2.41508e-21
2.37178e-21
4.20838e-21
1.65051e-21
8.31107e-22
1.45817e-22
2.71985e-22
7.50751e-22
5.78862e-21
5.1706e-23
2.86381e-21
4.92414e-21
2.33102e-21
1.05612e-21
5.05252e-23
3.55041e-21
3.64568e-22
7.55774e-22
1.08945e-21
1.64524e-21
1.50637e-21
7.09538e-22
1.34905e-22
3.40644e-23
5.00273e-22
5.3217e-22
3.11508e-22
6.40936e-21
1.54378e-22
4.55334e-23
5.03315e-22
4.55867e-21
1.12246e-21
3.14882e-21
4.12584e-22
2.09209e-22
2.51609e-21
4.66811e-22
2.27602e-22
6.72882e-22
1.07099e-21
6.0495e-21
8.03895e-23
3.7744e-22
1.40635e-21
4.91119e-22
6.39427e-22
3.26378e-21
9.14171e-22
5.7002e-22
2.0116e-21
4.1321e-22
2.11584e-21
1.40399e-21
3.39425e-21
8.71224e-21
1.60571e-21
1.95627e-21
2.4152e-22
1.11348e-22
4.42166e-22
3.06894e-21
5.25144e-22
2.41187e-22
1.38673e-21
1.19882e-21
3.52156e-21
8.86345e-22
8.05113e-22
6.68326e-23
5.59113e-21
7.26493e-22
9.2362e-22
9.82662e-22
1.02916e-21
3.05584e-21
1.09044e-21
8.38015e-23
1.07317e-21
5.20133e-22
8.10144e-22
4.04721e-22
9.37183e-22
3.92987e-21
2.1567e-21
2.61529e-23
7.21251e-22