/*--------------------------------*- C++ -*----------------------------------*\
  =========                 |
  \\      /  F ield         | OpenFOAM: The Open Source CFD Toolbox
   \\    /   O peration     | Website:  https://openfoam.org
    \\  /    A nd           | Version:  7
     \\/     M anipulation  |
\*---------------------------------------------------------------------------*/
FoamFile
{
    version     2.0;
    format      ascii;
    class       volScalarField;
    location    "0.00108";
    object      rhoM;
}
// * * * * * * * * * * * * * * * * * * * * * * * * * * * * * * * * * * * * * //

dimensions      [1 -3 0 0 0 0 0];

internalField   nonuniform List<scalar> 
500
(
0.00445071
0.00401893
0.00405214
0.00410196
0.0039525
0.00443411
0.00474964
0.00413518
0.00401893
0.00426804
0.00425143
0.00443411
0.00393589
0.00383625
0.00431786
0.00415179
0.0044175
0.00410196
0.00440089
0.00430125
0.00425143
0.00381964
0.0039525
0.00431786
0.00423482
0.00401893
0.004185
0.00383625
0.00370339
0.00451714
0.00431786
0.00479946
0.00440089
0.00413518
0.00408536
0.00435107
0.004185
0.00408536
0.00436768
0.00435107
0.00378643
0.00471643
0.00461679
0.00406875
0.00446732
0.00413518
0.00468321
0.0044175
0.00450054
0.00398571
0.00388607
0.00426804
0.00428464
0.00405214
0.00415179
0.00426804
0.00415179
0.00413518
0.00433446
0.00446732
0.00345429
0.00465
0.004185
0.00416839
0.00408536
0.00426804
0.00468321
0.00383625
0.00428464
0.00465
0.00451714
0.00433446
0.00443411
0.00410196
0.00460018
0.00451714
0.00400232
0.00405214
0.0039525
0.00383625
0.00440089
0.00406875
0.0048825
0.00383625
0.00433446
0.00436768
0.00425143
0.00451714
0.00433446
0.00415179
0.00438429
0.00396911
0.00408536
0.00416839
0.00416839
0.00386946
0.00446732
0.00362036
0.00443411
0.00398571
0.00416839
0.00448393
0.00403554
0.00446732
0.00446732
0.00411857
0.00403554
0.00436768
0.00411857
0.00413518
0.00411857
0.00421821
0.0039525
0.004185
0.00416839
0.00461679
0.00396911
0.00440089
0.00416839
0.004185
0.00478286
0.00430125
0.00385286
0.00428464
0.00400232
0.00421821
0.00398571
0.00438429
0.00425143
0.00428464
0.00446732
0.00372
0.00448393
0.00431786
0.00456696
0.00365357
0.00385286
0.00408536
0.00401893
0.0039525
0.00420161
0.00408536
0.00483268
0.0044175
0.00435107
0.00398571
0.00425143
0.00357054
0.0044175
0.00421821
0.0044175
0.00428464
0.00463339
0.0039525
0.00408536
0.00413518
0.00430125
0.00420161
0.00478286
0.00431786
0.00396911
0.00425143
0.00440089
0.00421821
0.00428464
0.00460018
0.004185
0.00408536
0.004185
0.004185
0.00385286
0.0044175
0.00431786
0.00416839
0.0034875
0.00381964
0.00468321
0.00423482
0.00358714
0.00473304
0.00375321
0.00421821
0.00410196
0.00391929
0.00445071
0.00455036
0.00436768
0.00378643
0.00405214
0.00393589
0.00415179
0.00458357
0.00436768
0.004185
0.00451714
0.00396911
0.00428464
0.00408536
0.0039525
0.00411857
0.00433446
0.00438429
0.00381964
0.00425143
0.00400232
0.00383625
0.00386946
0.00381964
0.00360375
0.00401893
0.00330482
0.00350411
0.00357054
0.00378643
0.00345429
0.00333804
0.00340446
0.00298929
0.00332143
0.00297268
0.003255
0.00372
0.00307232
0.00297268
0.00313875
0.00267375
0.00257411
0.00240804
0.00288964
0.00270696
0.00245786
0.00245786
0.00287304
0.00274018
0.00227518
0.00257411
0.00252429
0.00245786
0.00237482
0.00222536
0.00199286
0.00212571
0.00212571
0.00215893
0.00210911
0.00182679
0.00205929
0.00210911
0.00219214
0.00219214
0.00227518
0.00227518
0.00215893
0.00262393
0.00205929
0.00210911
0.00194304
0.00217554
0.00215893
0.00182679
0.0020925
0.00249107
0.00192643
0.00205929
0.00194304
0.00234161
0.00204268
0.00219214
0.0020925
0.00217554
0.00204268
0.00237482
0.00240804
0.00197625
0.00204268
0.00189321
0.00229179
0.00227518
0.00229179
0.00222536
0.00240804
0.00297268
0.00275679
0.00328821
0.00285643
0.00274018
0.00315536
0.00338786
0.00313875
0.00279
0.00293946
0.00260732
0.00297268
0.00337125
0.00270696
0.00295607
0.00328821
0.00307232
0.00279
0.00290625
0.0025575
0.00134518
0.00134518
0.00126214
0.00101304
0.00112929
0.00144482
0.00111268
0.00127875
0.00102964
0.00129536
0.00132857
0.00111268
0.00119571
0.00131196
0.00122893
0.00107946
0.00136179
0.000996429
0.00134518
0.00124554
0.00111268
0.00112929
0.00126214
0.00111268
0.00127875
0.00093
0.00101304
0.00117911
0.00122893
0.00147804
0.00134518
0.00141161
0.00142821
0.00114589
0.00121232
0.00144482
0.00106286
0.00122893
0.00156107
0.00122893
0.00132857
0.00121232
0.00107946
0.00111268
0.00119571
0.00121232
0.00132857
0.00119571
0.00129536
0.00101304
0.00126214
0.00107946
0.00114589
0.00142821
0.00122893
0.00117911
0.00134518
0.00121232
0.00132857
0.00147804
0.00127875
0.00106286
0.00131196
0.00141161
0.00126214
0.00126214
0.000946607
0.00101304
0.00114589
0.00129536
0.00134518
0.001395
0.00161089
0.000963214
0.00126214
0.00101304
0.00129536
0.00124554
0.00109607
0.00124554
0.00106286
0.00121232
0.00109607
0.0011625
0.00147804
0.00141161
0.0011625
0.00106286
0.00142821
0.00117911
0.000996429
0.00119571
0.00107946
0.00102964
0.00132857
0.00119571
0.00127875
0.00126214
0.00129536
0.00107946
0.00106286
0.00134518
0.00109607
0.00101304
0.00104625
0.0011625
0.00147804
0.00117911
0.00132857
0.00124554
0.00114589
0.00101304
0.00134518
0.00114589
0.000996429
0.00121232
0.00127875
0.00126214
0.00106286
0.00112929
0.00142821
0.00111268
0.000979821
0.00126214
0.00122893
0.00132857
0.001395
0.00114589
0.00129536
0.00109607
0.00126214
0.00141161
0.00107946
0.00124554
0.00111268
0.000946607
0.00156107
0.0011625
0.00112929
0.00127875
0.000963214
0.00122893
0.00136179
0.00131196
0.00129536
0.00154446
0.00136179
0.0011625
0.00119571
0.00114589
0.0011625
0.00141161
0.00102964
0.00129536
0.00149464
0.00111268
0.00141161
0.00129536
0.00132857
0.00122893
0.00134518
0.00119571
0.00111268
0.00134518
0.00102964
0.00146143
0.00114589
0.00131196
0.00114589
0.00112929
0.00112929
0.00132857
0.001395
0.00114589
0.00117911
0.00121232
0.0011625
0.00134518
0.00126214
0.00134518
0.00111268
0.00112929
0.00132857
0.00119571
0.00134518
0.00119571
0.0011625
0.00152786
0.00121232
0.00142821
0.00093
0.0011625
0.00111268
0.00117911
0.00129536
0.00112929
0.00136179
0.00112929
0.00121232
)
;

boundaryField
{
    sides
    {
        type            symmetry;
    }
    empty
    {
        type            empty;
    }
}


// ************************************************************************* //
