/*--------------------------------*- C++ -*----------------------------------*\
  =========                 |
  \\      /  F ield         | OpenFOAM: The Open Source CFD Toolbox
   \\    /   O peration     | Website:  https://openfoam.org
    \\  /    A nd           | Version:  7
     \\/     M anipulation  |
\*---------------------------------------------------------------------------*/
FoamFile
{
    version     2.0;
    format      ascii;
    class       volScalarField;
    location    "0.0018";
    object      dsmcRhoN;
}
// * * * * * * * * * * * * * * * * * * * * * * * * * * * * * * * * * * * * * //

dimensions      [0 -3 0 0 0 0 0];

internalField   nonuniform List<scalar> 
500
(
281
262
266
261
277
258
243
281
242
274
246
245
253
269
258
237
241
263
230
264
255
243
254
246
252
254
267
250
228
211
250
256
274
255
239
271
239
257
258
271
269
250
252
274
242
258
245
257
270
243
255
256
235
263
216
253
279
248
240
255
289
233
274
261
268
258
253
246
245
263
265
226
246
264
262
227
245
267
250
258
235
244
277
274
248
242
255
212
231
249
256
262
236
241
269
247
271
235
281
254
279
262
258
272
299
239
271
249
244
255
256
257
276
265
228
248
277
257
273
254
258
255
244
255
229
252
249
240
249
251
247
252
259
263
261
271
263
274
264
246
263
247
251
256
250
248
247
246
251
243
283
240
264
226
246
258
250
231
266
268
242
245
246
235
242
235
244
242
261
245
223
241
252
263
217
240
255
226
232
223
233
217
222
223
207
233
231
223
215
219
213
203
213
201
206
173
191
211
166
190
193
200
170
169
187
162
176
169
181
173
150
170
169
160
161
166
163
158
170
146
140
176
161
133
150
138
122
121
135
133
142
130
137
117
124
140
150
128
125
125
131
141
123
119
100
148
149
138
123
125
132
129
143
119
116
112
121
154
142
122
125
130
118
151
145
141
140
119
136
118
141
119
127
115
132
134
123
121
124
151
135
147
119
138
119
141
122
127
112
124
110
116
151
132
145
140
159
147
149
159
156
158
131
173
158
150
191
154
160
186
182
187
200
176
185
168
175
177
179
191
173
191
178
192
181
189
179
193
186
184
177
187
183
198
130
85
65
67
77
77
68
73
86
68
66
85
77
77
85
65
69
80
75
71
73
75
69
77
88
83
70
76
75
76
83
79
92
50
63
54
64
63
75
66
67
61
81
64
81
70
76
65
64
62
61
71
85
77
83
77
74
69
75
81
71
85
61
81
75
63
76
71
64
63
68
69
75
81
85
56
82
84
81
62
71
76
58
68
67
59
80
76
70
69
64
77
79
66
64
78
72
78
88
79
86
62
54
67
78
63
75
83
89
76
72
75
68
79
71
65
68
74
81
73
85
80
92
77
82
73
91
69
85
95
67
71
76
65
66
82
62
79
73
68
69
68
68
90
79
80
74
81
72
77
68
78
81
82
78
75
79
72
60
80
60
81
70
86
62
67
)
;

boundaryField
{
    sides
    {
        type            symmetry;
    }
    empty
    {
        type            empty;
    }
}


// ************************************************************************* //
