/*--------------------------------*- C++ -*----------------------------------*\
  =========                 |
  \\      /  F ield         | OpenFOAM: The Open Source CFD Toolbox
   \\    /   O peration     | Website:  https://openfoam.org
    \\  /    A nd           | Version:  7
     \\/     M anipulation  |
\*---------------------------------------------------------------------------*/
FoamFile
{
    version     2.0;
    format      ascii;
    class       volScalarField;
    location    "0.65";
    object      p;
}
// * * * * * * * * * * * * * * * * * * * * * * * * * * * * * * * * * * * * * //

dimensions      [1 -1 -2 0 0 0 0];

internalField   nonuniform List<scalar> 
2268
(
507.485
506.013
510.73
519.224
530.553
543.624
558.271
574.517
592.403
611.874
632.786
654.937
678.051
701.88
726.131
750.437
774.441
797.634
819.335
837.881
850.406
858.525
871.435
448.471
446.344
450.266
458.838
470.089
483.224
498.047
514.52
532.644
552.329
573.426
595.737
619.018
643.103
667.641
692.366
716.938
740.854
763.267
782.565
794.955
798.017
809.675
388.063
386.385
390.87
398.975
409.985
423.048
437.936
454.564
472.901
492.812
514.12
536.642
560.191
584.484
609.32
634.398
659.377
683.705
706.385
725.708
738.651
739.567
750.271
327.188
326.205
331.326
339.313
350.133
363.058
377.912
394.609
413.109
433.232
454.776
477.541
501.325
525.906
551.035
576.407
601.667
626.198
648.934
668.084
681.453
682.514
693.424
266.394
266.162
271.703
279.679
290.305
303.064
317.807
334.504
353.136
373.467
395.263
418.308
442.372
467.265
492.713
518.389
543.94
568.67
591.541
610.813
624.872
627.245
638.668
205.506
206.323
211.885
219.876
230.341
242.911
257.483
274.128
292.888
313.439
335.518
358.885
383.27
408.513
434.328
460.375
486.321
511.361
534.562
554.363
569.152
573.737
586.428
144.186
146.135
151.52
159.514
169.894
182.337
196.77
213.29
232.215
253.057
275.517
299.296
324.039
349.657
375.88
402.373
428.847
454.341
478.084
498.857
515.003
522.171
536.946
82.1534
85.5618
90.5093
98.0034
107.892
120.168
134.689
151.061
170.335
191.759
214.967
239.485
264.707
290.749
317.395
344.374
371.451
397.529
422.015
444.153
462.452
473.086
489.519
662.367
536.264
441.044
390.99
359.823
359.265
372.558
384.062
392.842
408.167
438.108
489.314
629.328
899.614
1219.18
1454.23
1558.38
1548.34
1471.78
624.64
468.896
366.086
333.739
326.785
327.604
329.635
332.664
333.823
334.02
350.696
385.912
503.427
751.253
1063
1306.39
1432.66
1454.12
1403.21
574.907
419.451
340.169
329.375
327.291
326.855
325.757
325.334
325.019
321.703
315.43
305.301
376.528
601.098
912.299
1163.7
1310.71
1362.72
1328.73
556.943
408.864
333.896
327.885
327.712
326.974
326.015
325.633
325.599
325.444
324.278
306.183
302.457
467.209
784.109
1044.21
1202.37
1273.25
1250.22
548.791
407.745
337.067
327.753
328.055
326.942
325.912
325.484
325.454
325.601
325.588
322.946
305.163
374.965
674.11
940.726
1099.96
1182.26
1172.46
543.088
395.504
333.555
327.051
328.232
326.698
325.752
325.327
325.287
325.413
325.596
325.376
321.841
338.374
582.341
848.933
1001.49
1087.04
1092.94
432.585
323.348
317.817
323.728
326.988
326.193
325.468
325.144
325.148
325.288
325.497
325.653
324.977
332.821
510.922
767.457
908.588
991.436
1011.9
334.999
288.491
305.589
322.898
325.84
325.619
325.115
324.929
325.006
325.196
325.41
325.55
326.045
333.143
460.69
695.193
822.553
900.01
931.558
23.8752
25.2547
27.8426
31.3579
36.0958
42.7113
52.0605
64.3613
79.4513
97.7376
119.521
144.43
170.989
198.155
225.735
253.559
281.685
308.764
334.521
359.043
381.308
397.665
416.507
-0.18372
-0.145776
-0.103571
-0.0682999
-0.0122494
0.525315
2.22151
5.04056
9.28213
15.4629
24.3233
37.2197
54.6001
75.4671
99.8249
128.842
160.222
188.402
214.912
241.874
266.724
288.167
308.66
-0.281271
-0.288956
-0.290295
-0.284377
-0.272621
-0.251075
-0.237839
-0.243653
-0.259882
-0.27197
-0.240938
0.284307
2.69138
7.98394
16.7627
31.6244
51.967
72.6016
96.8308
127.095
154.038
177.915
201.88
-0.440982
-0.436619
-0.423045
-0.41259
-0.4081
-0.41363
-0.425488
-0.435886
-0.444029
-0.445864
-0.43291
-0.40451
-0.427811
-0.530191
-0.58202
-0.163191
2.08294
7.68136
18.6037
37.1875
53.7966
73.6225
102.686
-0.573689
-0.573792
-0.567718
-0.562245
-0.556273
-0.556716
-0.56133
-0.566882
-0.572594
-0.576775
-0.580225
-0.595673
-0.624584
-0.643923
-0.638924
-0.639782
-0.699959
-0.840737
-0.925764
-0.848074
1.6912
9.25186
25.6561
-0.716793
-0.715789
-0.712436
-0.708666
-0.705269
-0.704536
-0.706431
-0.709847
-0.714142
-0.718637
-0.724187
-0.736209
-0.755254
-0.771961
-0.78204
-0.795318
-0.816355
-0.828975
-0.828543
-0.810586
-0.814685
-0.875722
-0.883543
-0.859062
-0.858368
-0.856478
-0.854169
-0.852403
-0.852161
-0.853611
-0.856345
-0.860012
-0.864386
-0.869883
-0.878544
-0.89164
-0.906381
-0.919603
-0.933581
-0.949793
-0.963368
-0.964181
-0.94995
-0.934695
-0.927688
-0.898445
-1.00172
-1.00125
-1.00024
-0.999012
-0.998227
-0.998432
-0.999785
-1.00215
-1.00539
-1.00948
-1.01471
-1.02194
-1.03167
-1.04271
-1.05336
-1.06403
-1.07515
-1.08393
-1.08491
-1.07497
-1.05875
-1.03848
-1.00165
-1.14436
-1.14421
-1.14379
-1.1433
-1.14315
-1.14368
-1.14501
-1.14714
-1.15003
-1.15372
-1.1584
-1.16444
-1.1719
-1.18013
-1.18822
-1.19598
-1.20304
-1.20758
-1.20678
-1.19911
-1.18598
-1.16781
-1.14065
-1.28675
-1.28697
-1.287
-1.28701
-1.2873
-1.28808
-1.28944
-1.29143
-1.29405
-1.29734
-1.3014
-1.30637
-1.31222
-1.31854
-1.32478
-1.33054
-1.33522
-1.33761
-1.33622
-1.33025
-1.32009
-1.30612
-1.2876
-1.42877
-1.42933
-1.42975
-1.43013
-1.43073
-1.4317
-1.43312
-1.43502
-1.43743
-1.44037
-1.4439
-1.44805
-1.45276
-1.45777
-1.4627
-1.46716
-1.47062
-1.47227
-1.47125
-1.4671
-1.45998
-1.45039
-1.4388
-1.57034
-1.5712
-1.57195
-1.57263
-1.57347
-1.57459
-1.57607
-1.57793
-1.58019
-1.58286
-1.58598
-1.58953
-1.59347
-1.5976
-1.60168
-1.60539
-1.60831
-1.60993
-1.60977
-1.60757
-1.60347
-1.59801
-1.59202
-1.71145
-1.71256
-1.71359
-1.71451
-1.71554
-1.71681
-1.71834
-1.72019
-1.72234
-1.72483
-1.72765
-1.73081
-1.73424
-1.73784
-1.74143
-1.74478
-1.74761
-1.7496
-1.75049
-1.75019
-1.74886
-1.747
-1.74547
-1.85211
-1.8534
-1.85465
-1.85578
-1.85699
-1.85837
-1.85998
-1.86183
-1.86393
-1.8663
-1.86893
-1.87184
-1.87497
-1.87828
-1.88165
-1.88493
-1.88795
-1.89051
-1.8925
-1.89394
-1.89502
-1.89617
-1.89817
-1.99233
-1.99374
-1.99515
-1.99646
-1.99782
-1.99932
-2.001
-2.00288
-2.00497
-2.00728
-2.00981
-2.01257
-2.01556
-2.01875
-2.02208
-2.02547
-2.02883
-2.03205
-2.03512
-2.0381
-2.04121
-2.04483
-2.04962
-2.13214
-2.1336
-2.13513
-2.13658
-2.13806
-2.13967
-2.14144
-2.14338
-2.14549
-2.14779
-2.15028
-2.15299
-2.15593
-2.1591
-2.16251
-2.16612
-2.1699
-2.17381
-2.17788
-2.18221
-2.18702
-2.19263
-2.19961
-2.27157
-2.27303
-2.27462
-2.27618
-2.27777
-2.27948
-2.28134
-2.28334
-2.2855
-2.28783
-2.29034
-2.29306
-2.29602
-2.29925
-2.3028
-2.30669
-2.31091
-2.3155
-2.32048
-2.326
-2.33224
-2.33947
-2.34821
-2.41064
-2.41206
-2.41367
-2.4153
-2.41698
-2.41878
-2.42071
-2.4228
-2.42503
-2.42742
-2.42999
-2.43276
-2.43578
-2.43912
-2.44284
-2.44701
-2.45167
-2.45688
-2.46272
-2.46929
-2.47677
-2.48538
-2.49557
-2.54935
-2.55072
-2.55232
-2.55398
-2.55572
-2.55759
-2.55961
-2.56177
-2.56408
-2.56655
-2.5692
-2.57205
-2.57518
-2.57864
-2.58254
-2.58697
-2.59202
-2.59779
-2.60436
-2.61187
-2.62044
-2.63028
-2.64175
-2.68772
-2.68901
-2.69058
-2.69226
-2.69404
-2.69597
-2.69805
-2.70028
-2.70267
-2.70523
-2.70797
-2.71093
-2.71417
-2.71776
-2.72183
-2.72649
-2.73186
-2.73808
-2.74527
-2.75356
-2.76309
-2.77399
-2.78665
-2.82575
-2.82697
-2.82848
-2.83016
-2.83197
-2.83393
-2.83606
-2.83835
-2.84082
-2.84346
-2.8463
-2.84937
-2.85273
-2.85646
-2.86068
-2.86553
-2.87115
-2.87772
-2.88538
-2.89429
-2.90458
-2.91639
-2.93007
-2.96345
-2.96459
-2.96605
-2.9677
-2.96952
-2.9715
-2.97366
-2.976
-2.97852
-2.98124
-2.98417
-2.98735
-2.99083
-2.9947
-2.99907
-3.00408
-3.0099
-3.01671
-3.02471
-3.03407
-3.04493
-3.05743
-3.07193
-3.10081
-3.10188
-3.10328
-3.1049
-3.10671
-3.1087
-3.11087
-3.11324
-3.11581
-3.11859
-3.12159
-3.12487
-3.12846
-3.13246
-3.13696
-3.14212
-3.14809
-3.15509
-3.16332
-3.17298
-3.18423
-3.19722
-3.21233
-3.23785
-3.23885
-3.24019
-3.24178
-3.24356
-3.24553
-3.24771
-3.25009
-3.25268
-3.2555
-3.25856
-3.26191
-3.2656
-3.26971
-3.27433
-3.27961
-3.28572
-3.29285
-3.30123
-3.31109
-3.3226
-3.33591
-3.35141
-3.37456
-3.3755
-3.37679
-3.37833
-3.38007
-3.38202
-3.38418
-3.38655
-3.38914
-3.39198
-3.39507
-3.39847
-3.40223
-3.40641
-3.41113
-3.41651
-3.42272
-3.42995
-3.43844
-3.44841
-3.46007
-3.47358
-3.4893
-3.51095
-3.51184
-3.51307
-3.51456
-3.51626
-3.51817
-3.5203
-3.52264
-3.52522
-3.52804
-3.53113
-3.53455
-3.53833
-3.54257
-3.54734
-3.55278
-3.55904
-3.56633
-3.57486
-3.58489
-3.59663
-3.61025
-3.62598
-3.64703
-3.64786
-3.64904
-3.65048
-3.65213
-3.654
-3.65607
-3.65837
-3.6609
-3.66368
-3.66675
-3.67015
-3.67392
-3.67815
-3.68293
-3.68837
-3.69463
-3.70191
-3.71043
-3.72044
-3.73218
-3.74594
-3.76121
-3.7828
-3.78358
-3.78471
-3.7861
-3.78769
-3.7895
-3.79151
-3.79375
-3.79621
-3.79893
-3.80194
-3.80528
-3.809
-3.81318
-3.81789
-3.82328
-3.82947
-3.83666
-3.84507
-3.85495
-3.86651
-3.87995
-3.89549
-3.91827
-3.91901
-3.92009
-3.92142
-3.92295
-3.92469
-3.92662
-3.92878
-3.93116
-3.93379
-3.93671
-3.93996
-3.94359
-3.94766
-3.95226
-3.95751
-3.96356
-3.97057
-3.97877
-3.9884
-3.99968
-4.01277
-4.02807
-4.05346
-4.05416
-4.05519
-4.05646
-4.05792
-4.05957
-4.06142
-4.06348
-4.06576
-4.06829
-4.07109
-4.07421
-4.0777
-4.08162
-4.08605
-4.09111
-4.09692
-4.10367
-4.11155
-4.12081
-4.13166
-4.14427
-4.15904
-4.18837
-4.18903
-4.19002
-4.19123
-4.19261
-4.19418
-4.19593
-4.19787
-4.20003
-4.20242
-4.20509
-4.20805
-4.21137
-4.21509
-4.21931
-4.2241
-4.22961
-4.236
-4.24347
-4.25223
-4.26251
-4.27447
-4.28849
-4.32302
-4.32364
-4.32458
-4.32573
-4.32704
-4.32851
-4.33015
-4.33197
-4.33399
-4.33623
-4.33873
-4.34151
-4.34462
-4.34812
-4.35207
-4.35655
-4.3617
-4.36766
-4.37461
-4.38277
-4.39233
-4.40348
-4.41656
-4.45742
-4.45802
-4.45891
-4.46
-4.46123
-4.46259
-4.46411
-4.46579
-4.46765
-4.46973
-4.47204
-4.47462
-4.4775
-4.48074
-4.48439
-4.48852
-4.49325
-4.49871
-4.50507
-4.51253
-4.52127
-4.53146
-4.54345
-4.59159
-4.59219
-4.59304
-4.59406
-4.5952
-4.59645
-4.59783
-4.59936
-4.60106
-4.60295
-4.60505
-4.60741
-4.61004
-4.61299
-4.61631
-4.62006
-4.62433
-4.62925
-4.63497
-4.64166
-4.64949
-4.65863
-4.66939
-4.72555
-4.72617
-4.72699
-4.72795
-4.72898
-4.73011
-4.73134
-4.7327
-4.73422
-4.73591
-4.7378
-4.73991
-4.74228
-4.74493
-4.7479
-4.75124
-4.75503
-4.75938
-4.76441
-4.77029
-4.77716
-4.78517
-4.79462
-4.85932
-4.86002
-4.86082
-4.86169
-4.86261
-4.86359
-4.86466
-4.86585
-4.86717
-4.86865
-4.87031
-4.87217
-4.87425
-4.87658
-4.87919
-4.88211
-4.88541
-4.88917
-4.89351
-4.89855
-4.90444
-4.91128
-4.91938
-4.99291
-4.99377
-4.99455
-4.99532
-4.9961
-4.99692
-4.99782
-4.99881
-4.99994
-5.0012
-5.00262
-5.00422
-5.00601
-5.00801
-5.01024
-5.01273
-5.01553
-5.0187
-5.02235
-5.02656
-5.03146
-5.03714
-5.04386
-5.12636
-5.12745
-5.12824
-5.12889
-5.1295
-5.13014
-5.13084
-5.13164
-5.13255
-5.13359
-5.13477
-5.13609
-5.13758
-5.13924
-5.14109
-5.14315
-5.14545
-5.14805
-5.15101
-5.15441
-5.15834
-5.16288
-5.16825
-5.25968
-5.26114
-5.26197
-5.26243
-5.26281
-5.26324
-5.26374
-5.26434
-5.26504
-5.26586
-5.26679
-5.26784
-5.26901
-5.27033
-5.27179
-5.27342
-5.27523
-5.27725
-5.27955
-5.28217
-5.28518
-5.28862
-5.29265
-5.3929
-5.39489
-5.39582
-5.39591
-5.39597
-5.39616
-5.39647
-5.39688
-5.39739
-5.39798
-5.39866
-5.39944
-5.4003
-5.40127
-5.40235
-5.40354
-5.40486
-5.40634
-5.408
-5.40988
-5.41201
-5.4144
-5.41714
-5.52645
-5.52882
-5.52986
-5.52922
-5.52886
-5.52885
-5.52901
-5.52927
-5.5296
-5.52999
-5.53043
-5.53092
-5.53148
-5.5321
-5.53279
-5.53355
-5.5344
-5.53533
-5.53638
-5.53755
-5.53885
-5.54024
-5.54164
-5.66081
-5.66307
-5.66405
-5.66289
-5.66242
-5.66234
-5.66239
-5.66249
-5.66262
-5.66276
-5.66291
-5.66307
-5.66325
-5.66346
-5.66369
-5.66395
-5.66424
-5.66456
-5.66492
-5.66531
-5.66569
-5.66598
-5.6658
445.062
449.612
445.295
426.747
325.281
331.459
331.471
320.949
215.435
222.912
228.943
233.371
125.305
138.367
149.566
159.87
44.9642
57.1486
69.4331
82.3389
-0.451308
0.554463
3.50503
9.82077
-0.815898
-0.731794
-0.646766
-0.615208
-0.953
-0.940066
-0.969137
-0.960944
-1.10919
-1.09204
-1.0836
-1.07533
-1.27083
-1.26021
-1.25084
-1.2437
-1.42985
-1.42441
-1.41933
-1.41592
-1.58862
-1.58727
-1.58652
-1.58678
-1.74625
-1.74798
-1.75066
-1.75407
-1.90214
-1.90619
-1.91131
-1.91698
-2.0561
-2.06195
-2.06888
-2.07608
-2.20805
-2.21532
-2.22368
-2.23208
-2.35811
-2.36646
-2.37597
-2.38542
-2.5066
-2.51574
-2.52613
-2.5365
-2.65378
-2.66358
-2.67465
-2.68576
-2.79963
-2.81009
-2.82178
-2.83354
-2.94397
-2.9551
-2.96745
-2.97982
-3.08663
-3.09841
-3.11141
-3.12438
-3.22764
-3.23994
-3.25353
-3.26702
-3.36714
-3.37983
-3.39383
-3.4077
-3.5053
-3.51821
-3.53245
-3.54651
-3.64214
-3.65516
-3.66947
-3.68352
-3.77754
-3.79061
-3.80486
-3.81876
-3.91155
-3.92448
-3.93855
-3.95217
-4.04382
-4.05654
-4.07035
-4.08362
-4.17433
-4.18669
-4.20014
-4.21298
-4.3031
-4.31499
-4.32789
-4.34021
-4.43029
-4.44152
-4.45375
-4.46541
-4.55612
-4.56655
-4.57795
-4.58881
-4.68086
-4.69037
-4.70079
-4.71073
-4.80479
-4.81329
-4.82264
-4.83155
-4.92818
-4.93561
-4.94381
-4.95163
-5.05126
-5.05759
-5.0646
-5.07128
-5.17423
-5.17942
-5.18522
-5.19075
-5.29719
-5.30123
-5.30579
-5.3102
-5.42017
-5.42298
-5.4263
-5.42962
-5.54295
-5.5442
-5.54621
-5.54867
-5.6644
-5.66301
-5.66386
-5.66661
326.307
302.452
317.938
324.004
324.851
324.873
324.586
324.593
324.793
325.063
325.296
325.444
326.472
332.979
414.11
599.167
704.273
771.255
813.588
292.925
317.297
325.164
324.551
324.359
324.375
324.233
324.343
324.632
324.942
325.19
325.366
326.163
333.043
391.635
504.384
570.499
625.207
677.987
243.114
306.189
323.704
324.538
324.4
324.315
324.237
324.371
324.642
324.907
325.131
325.348
325.553
323.91
365.812
427.222
469.402
511.729
564.264
179.045
246.031
314.572
323.739
324.303
324.33
324.372
324.5
324.697
324.897
325.116
325.18
322.218
297.292
325.522
366.605
398.424
427.389
471.487
102.998
157.595
255.093
315.547
323.711
324.205
324.362
324.456
324.622
324.84
325.26
324.194
288.321
268.766
289.874
314.902
337.277
353.561
388.495
28.3873
59.156
132.498
240.657
309.084
323.836
324.04
324.202
324.403
324.606
324.135
300.915
233.901
247.848
263.073
266.751
278.392
286.415
311.932
-0.815
4.89766
26.0251
100.078
201.169
281.293
317.143
324.085
323.908
322.704
300.967
220.262
211.631
235.969
230.191
220.728
226.812
232.204
247.734
-0.905154
-1.0442
-1.03419
11.5986
60.4454
144.119
234.091
295.395
318.816
299.675
213.005
189.247
224.052
223.557
196.808
192.007
198.983
200.003
208.633
-1.04832
-0.993591
-1.26186
-2.12239
1.58445
25.7038
82.2898
161.857
222.178
187.747
159.79
201.765
231.875
209.746
187.635
189.807
193.567
185.529
200.636
-1.23083
-1.18479
-1.11468
-1.41622
-2.13519
-1.9308
5.91004
27.5739
64.6514
86.3816
121.927
167.65
200.527
207.714
208.705
198.282
187.436
180.024
173.245
-1.41257
-1.40527
-1.38797
-1.40923
-1.44607
-1.82421
-2.73248
-2.95584
3.71715
19.5213
38.3551
68.8899
102.297
152.911
190.759
189.636
179.184
174.145
168.841
-1.58866
-1.59666
-1.6143
-1.64295
-1.64181
-1.6285
-1.88411
-2.4316
-2.79202
-1.9019
0.64728
8.38847
20.0649
65.7077
107.377
144.623
161.237
167.142
166.423
-1.75981
-1.77135
-1.79217
-1.82579
-1.85243
-1.85441
-1.875
-1.88402
-1.95531
-1.89683
-1.65207
0.453557
5.27983
10.2228
40.086
96.6806
128.312
145.023
154.678
-1.92558
-1.93879
-1.9569
-1.98163
-2.00712
-2.03005
-2.05095
-2.03604
-1.99755
-1.85669
-1.61736
-1.01346
0.598737
5.33838
22.2791
62.5348
99.6447
119.193
125.516
-2.08652
-2.10077
-2.11727
-2.13574
-2.15355
-2.17229
-2.19501
-2.20752
-2.18834
-2.07965
-1.93099
-1.91916
-1.62086
1.28029
13.8256
47.2094
75.6827
87.9151
88.4785
-2.24386
-2.25885
-2.27489
-2.29159
-2.3081
-2.32679
-2.35345
-2.39171
-2.44437
-2.50702
-2.6567
-3.10777
-3.65825
-2.83985
2.94414
23.7889
50.3445
58.3915
50.9349
-2.39853
-2.41456
-2.43128
-2.44907
-2.46922
-2.4964
-2.53965
-2.61277
-2.73623
-2.93653
-3.27309
-3.83846
-4.45922
-4.31446
-0.520168
12.1583
27.4171
36.2453
25.314
-2.55104
-2.56866
-2.58719
-2.60789
-2.63386
-2.67223
-2.73523
-2.84046
-3.01264
-3.28273
-3.68473
-4.21855
-4.76268
-5.17974
-4.25171
3.28089
13.1988
18.0784
11.2001
-2.70172
-2.72132
-2.74245
-2.76704
-2.79929
-2.8477
-2.92558
-3.05095
-3.24582
-3.53285
-3.92265
-4.37837
-4.79334
-5.09543
-4.73586
-3.7082
2.58932
7.20193
5.88815
-2.85077
-2.87245
-2.89642
-2.9251
-2.96277
-3.01844
-3.10396
-3.23581
-3.42958
-3.69607
-4.02887
-4.38058
-4.65559
-4.78564
-4.6264
-4.20365
-2.26709
0.232989
3.12098
-2.99814
-3.02171
-3.04839
-3.08083
-3.12191
-3.182
-3.26773
-3.39515
-3.5713
-3.79774
-4.05995
-4.31644
-4.50006
-4.58088
-4.51997
-4.32562
-4.23932
-1.6381
3.15508
-3.14366
-3.16873
-3.19737
-3.2319
-3.27586
-3.33587
-3.41907
-3.53405
-3.6846
-3.86669
-4.06342
-4.24063
-4.35708
-4.41608
-4.39182
-4.23215
-4.55283
-6.64828
4.61706
-3.28707
-3.31318
-3.34306
-3.37877
-3.42334
-3.48141
-3.55826
-3.6586
-3.78328
-3.92606
-4.07028
-4.18814
-4.26359
-4.29762
-4.23753
-4.02024
-4.30645
-8.24722
2.27799
-3.42826
-3.45488
-3.4852
-3.52098
-3.56458
-3.61923
-3.68835
-3.77449
-3.87697
-3.98941
-4.0973
-4.18011
-4.23899
-4.25599
-4.15053
-3.92778
-4.74238
-8.7199
3.65615
-3.56724
-3.59383
-3.62381
-3.65866
-3.70015
-3.7505
-3.81186
-3.88553
-3.97053
-4.06171
-4.14821
-4.21734
-4.27292
-4.28761
-4.19075
-4.08234
-6.42553
-7.27515
5.47961
-3.70411
-3.73017
-3.75914
-3.79225
-3.83083
-3.87647
-3.93054
-3.99377
-4.06544
-4.14213
-4.21709
-4.28541
-4.34859
-4.37188
-4.3059
-4.37514
-5.928
-6.14473
4.89545
-3.83894
-3.86408
-3.89152
-3.92227
-3.95741
-3.99817
-4.04554
-4.10003
-4.16125
-4.22737
-4.29507
-4.36559
-4.43725
-4.48007
-4.49739
-4.89477
-4.55314
-6.90191
1.59311
-3.97175
-3.99567
-4.02125
-4.04926
-4.08064
-4.11646
-4.15759
-4.20444
-4.25687
-4.31405
-4.3748
-4.44173
-4.50888
-4.56711
-4.64725
-4.88186
-5.11648
-8.05155
-3.19073
-4.10247
-4.125
-4.14856
-4.1737
-4.20121
-4.23214
-4.26733
-4.30718
-4.35157
-4.39994
-4.45175
-4.50709
-4.55909
-4.60459
-4.64284
-4.65522
-4.81208
-7.11025
-5.84517
-4.23099
-4.25206
-4.27359
-4.29592
-4.31972
-4.34599
-4.37559
-4.40893
-4.44579
-4.48547
-4.5272
-4.56964
-4.60906
-4.64253
-4.65654
-4.62511
-4.73371
-5.17249
-5.57423
-4.35731
-4.37685
-4.39642
-4.41615
-4.43658
-4.45864
-4.48318
-4.51064
-4.54077
-4.57265
-4.60527
-4.63761
-4.66769
-4.69307
-4.70726
-4.7003
-4.75286
-5.06114
-5.69967
-4.48147
-4.49943
-4.51711
-4.53449
-4.552
-4.57048
-4.59068
-4.61309
-4.63751
-4.66282
-4.68765
-4.71088
-4.73131
-4.74784
-4.75604
-4.73017
-4.65334
-4.59908
-4.51216
-4.60371
-4.61998
-4.63582
-4.65106
-4.66607
-4.68163
-4.69839
-4.71684
-4.7366
-4.75625
-4.77368
-4.78762
-4.79935
-4.81094
-4.81734
-4.78625
-4.68476
-4.38512
-1.60144
-4.72428
-4.73887
-4.75284
-4.76605
-4.77883
-4.79197
-4.80624
-4.82181
-4.83806
-4.85284
-4.86325
-4.86941
-4.88013
-4.90442
-4.92545
-4.91707
-4.8902
-4.88473
-5.97137
-4.84365
-4.85646
-4.86856
-4.87979
-4.89047
-4.90146
-4.91372
-4.92738
-4.9417
-4.95359
-4.95959
-4.96768
-4.99357
-5.02697
-5.05076
-5.053
-5.07461
-5.17385
-5.4367
-4.9622
-4.9732
-4.98346
-4.99276
-5.00141
-5.01033
-5.0206
-5.03289
-5.04709
-5.06065
-5.0703
-5.08556
-5.11742
-5.14414
-5.16119
-5.16664
-5.19486
-5.24794
-5.27901
-5.08029
-5.08952
-5.09802
-5.1055
-5.11221
-5.11906
-5.12723
-5.13767
-5.15117
-5.16757
-5.18583
-5.20337
-5.22052
-5.23726
-5.24788
-5.25328
-5.27252
-5.27371
-5.21745
-5.19822
-5.20576
-5.21264
-5.21848
-5.22341
-5.22822
-5.23409
-5.24193
-5.25246
-5.26663
-5.2845
-5.30036
-5.30819
-5.31586
-5.32154
-5.32955
-5.33654
-5.31062
-5.22594
-5.31618
-5.32219
-5.32764
-5.3321
-5.33554
-5.33859
-5.34222
-5.34718
-5.35374
-5.3621
-5.37195
-5.3805
-5.38516
-5.39117
-5.40007
-5.40847
-5.40968
-5.37743
-5.29055
-5.43427
-5.43907
-5.44349
-5.44708
-5.44966
-5.45161
-5.45362
-5.45618
-5.45921
-5.46234
-5.4652
-5.46698
-5.46793
-5.47312
-5.48322
-5.49215
-5.49616
-5.47217
-5.40096
-5.5524
-5.55681
-5.56114
-5.56498
-5.56805
-5.57033
-5.572
-5.57306
-5.57303
-5.5711
-5.56638
-5.55855
-5.55083
-5.55237
-5.56877
-5.58229
-5.59751
-5.59293
-5.55341
-5.67053
-5.67461
-5.67882
-5.68307
-5.68701
-5.69026
-5.6924
-5.69287
-5.69079
-5.68506
-5.67386
-5.65098
-5.60648
-5.60838
-5.65932
-5.68414
-5.71358
-5.73759
-5.71373
)
;

boundaryField
{
    leftWall
    {
        type            calculated;
        value           nonuniform List<scalar> 
50
(
507.485
448.471
388.063
327.188
266.394
205.506
144.186
82.1534
23.8752
-0.18372
-0.281271
-0.440982
-0.573689
-0.716793
-0.859062
-1.00172
-1.14436
-1.28675
-1.42877
-1.57034
-1.71145
-1.85211
-1.99233
-2.13214
-2.27157
-2.41064
-2.54935
-2.68772
-2.82575
-2.96345
-3.10081
-3.23785
-3.37456
-3.51095
-3.64703
-3.7828
-3.91827
-4.05346
-4.18837
-4.32302
-4.45742
-4.59159
-4.72555
-4.85932
-4.99291
-5.12636
-5.25968
-5.3929
-5.52645
-5.66081
)
;
    }
    rightWall
    {
        type            calculated;
        value           nonuniform List<scalar> 
50
(
1471.78
1403.21
1328.73
1250.22
1172.46
1092.94
1011.9
931.558
813.588
677.987
564.264
471.487
388.495
311.932
247.734
208.633
200.636
173.245
168.841
166.423
154.678
125.516
88.4785
50.9349
25.314
11.2001
5.88815
3.12098
3.15508
4.61706
2.27799
3.65615
5.47961
4.89545
1.59311
-3.19073
-5.84517
-5.57423
-5.69967
-4.51216
-1.60144
-5.97137
-5.4367
-5.27901
-5.21745
-5.22594
-5.29055
-5.40096
-5.55341
-5.71373
)
;
    }
    lowerWall
    {
        type            calculated;
        value           nonuniform List<scalar> 
62
(
536.914
535.442
540.159
548.654
559.982
573.053
587.7
603.946
621.832
641.303
662.215
684.366
707.48
731.309
755.56
779.866
803.871
827.064
848.764
866.739
878.529
886.719
900.743
871.435
809.675
750.271
693.424
638.668
586.428
536.946
489.519
507.64
512.19
507.873
489.341
662.367
624.64
574.907
556.943
548.791
543.088
432.585
334.999
664.298
545.551
464.308
414.255
382.904
383.416
399.835
412.895
422.132
437.528
467.473
518.685
658.72
929.01
1247.99
1482.37
1586.28
1575.91
1498.64
)
;
    }
    atmosphere
    {
        type            calculated;
        value           nonuniform List<scalar> 
46
(
-5.72904
-5.72926
-5.72959
-5.72976
-5.72986
-5.72992
-5.72994
-5.72994
-5.72992
-5.72989
-5.72984
-5.72979
-5.72972
-5.72966
-5.72959
-5.72953
-5.72947
-5.72941
-5.72935
-5.7293
-5.72923
-5.72917
-5.7291
-5.72906
-5.72905
-5.72904
-5.72904
-5.72904
-5.72904
-5.72904
-5.72904
-5.72904
-5.72904
-5.72904
-5.72904
-5.72904
-5.72904
-5.72904
-5.72904
-5.72904
-5.72927
-5.73249
-5.73926
-5.74619
-5.7424
-5.81009
)
;
    }
    defaultFaces
    {
        type            empty;
    }
}


// ************************************************************************* //
