/*--------------------------------*- C++ -*----------------------------------*\
  =========                 |
  \\      /  F ield         | OpenFOAM: The Open Source CFD Toolbox
   \\    /   O peration     | Website:  https://openfoam.org
    \\  /    A nd           | Version:  7
     \\/     M anipulation  |
\*---------------------------------------------------------------------------*/
FoamFile
{
    version     2.0;
    format      ascii;
    class       volScalarField;
    location    "0.0012";
    object      iDofMean;
}
// * * * * * * * * * * * * * * * * * * * * * * * * * * * * * * * * * * * * * //

dimensions      [0 -3 0 0 0 0 0];

internalField   nonuniform List<scalar> 
1000
(
1.09571e+20
1.24388e+20
1.30571e+20
1.39667e+20
1.397e+20
1.5565e+20
1.65396e+20
1.62521e+20
1.72238e+20
1.76254e+20
1.81237e+20
1.90617e+20
1.82108e+20
1.93121e+20
1.92358e+20
2.09842e+20
2.14167e+20
2.18413e+20
2.12942e+20
2.11967e+20
2.14779e+20
2.08971e+20
2.12175e+20
2.16638e+20
2.22317e+20
2.34867e+20
2.24646e+20
2.39687e+20
2.26171e+20
2.34329e+20
2.28325e+20
2.28679e+20
2.35454e+20
2.37583e+20
2.40425e+20
2.44196e+20
2.44433e+20
2.42712e+20
2.31146e+20
2.36583e+20
2.44375e+20
2.49863e+20
2.47313e+20
2.47112e+20
2.41737e+20
2.44e+20
2.35446e+20
2.51267e+20
2.42513e+20
2.377e+20
2.35113e+20
2.33813e+20
2.33562e+20
2.30817e+20
2.30504e+20
2.36571e+20
2.41421e+20
2.44479e+20
2.55017e+20
2.46138e+20
2.34029e+20
2.30613e+20
2.48879e+20
2.62246e+20
2.36571e+20
2.39888e+20
2.44104e+20
2.435e+20
2.49704e+20
2.47429e+20
2.45867e+20
2.43887e+20
2.50242e+20
2.43304e+20
2.59446e+20
2.63179e+20
2.45975e+20
2.39854e+20
2.54804e+20
2.59154e+20
2.66092e+20
2.55775e+20
2.509e+20
2.41713e+20
2.45542e+20
2.40721e+20
2.41792e+20
2.47054e+20
2.53908e+20
2.48633e+20
2.53e+20
2.45758e+20
2.40608e+20
2.42075e+20
2.33408e+20
2.45408e+20
2.42612e+20
2.44417e+20
2.37229e+20
2.28704e+20
2.37267e+20
2.32546e+20
2.39425e+20
2.36733e+20
2.39258e+20
2.36158e+20
2.43379e+20
2.56458e+20
2.47992e+20
2.43267e+20
2.28321e+20
2.31046e+20
2.49375e+20
2.4055e+20
2.44458e+20
2.35079e+20
2.40458e+20
2.40521e+20
2.429e+20
2.50275e+20
2.50788e+20
2.44121e+20
2.42746e+20
2.37308e+20
2.42696e+20
2.52433e+20
2.44975e+20
2.40538e+20
2.3875e+20
2.367e+20
2.393e+20
2.43283e+20
2.33204e+20
2.51113e+20
2.41779e+20
2.31292e+20
2.34479e+20
2.523e+20
2.4295e+20
2.35817e+20
2.39983e+20
2.46463e+20
2.47692e+20
2.37242e+20
2.4305e+20
2.46567e+20
2.49033e+20
2.5555e+20
2.39217e+20
2.44617e+20
2.43813e+20
2.44729e+20
2.41479e+20
2.40433e+20
2.46396e+20
2.49983e+20
2.51804e+20
2.39867e+20
2.445e+20
2.55404e+20
2.5455e+20
2.55617e+20
2.52879e+20
2.42129e+20
2.47333e+20
2.42754e+20
2.36596e+20
2.3855e+20
2.51317e+20
2.47487e+20
2.445e+20
2.51412e+20
2.59588e+20
2.40183e+20
2.44429e+20
2.49913e+20
2.47042e+20
2.33246e+20
2.61587e+20
2.53729e+20
2.43779e+20
2.40471e+20
2.29767e+20
2.32846e+20
2.30821e+20
2.26058e+20
2.40858e+20
2.30733e+20
2.32125e+20
2.38208e+20
2.50167e+20
2.24425e+20
2.30467e+20
2.38763e+20
2.59467e+20
2.48738e+20
2.43871e+20
2.55417e+20
2.59808e+20
2.43738e+20
2.44596e+20
2.40667e+20
2.45721e+20
2.39871e+20
2.28933e+20
2.28837e+20
2.20729e+20
2.31267e+20
2.40421e+20
2.43912e+20
2.44842e+20
2.48337e+20
2.56804e+20
2.44742e+20
2.54054e+20
2.51204e+20
2.67171e+20
2.50967e+20
2.49996e+20
2.35433e+20
2.295e+20
2.37354e+20
2.35342e+20
2.33642e+20
2.30196e+20
2.36567e+20
2.51475e+20
2.43263e+20
2.38058e+20
2.50133e+20
2.59479e+20
2.46975e+20
2.437e+20
2.38138e+20
2.38212e+20
2.42192e+20
2.39367e+20
2.45533e+20
2.4885e+20
2.58467e+20
2.58075e+20
2.58963e+20
2.58446e+20
2.52663e+20
2.60654e+20
2.66071e+20
2.62996e+20
2.49725e+20
2.45925e+20
2.54842e+20
2.52704e+20
2.62162e+20
2.53096e+20
2.42912e+20
2.51267e+20
2.52712e+20
2.41183e+20
2.42204e+20
2.41108e+20
2.52387e+20
2.57896e+20
2.59258e+20
2.61525e+20
2.428e+20
2.37233e+20
2.48342e+20
2.49338e+20
2.37708e+20
2.4595e+20
2.5255e+20
2.58713e+20
2.57133e+20
2.514e+20
2.48758e+20
2.40279e+20
2.45842e+20
2.50396e+20
2.59846e+20
2.55171e+20
2.59367e+20
2.49217e+20
2.55704e+20
2.54504e+20
2.48792e+20
2.41162e+20
2.34633e+20
2.3915e+20
2.44967e+20
2.33029e+20
2.37058e+20
2.49229e+20
2.49129e+20
2.47112e+20
2.43042e+20
2.481e+20
2.46821e+20
2.55158e+20
2.52625e+20
2.48633e+20
2.38196e+20
2.33821e+20
2.30546e+20
2.28342e+20
2.29812e+20
2.34737e+20
2.44438e+20
2.40513e+20
2.43779e+20
2.43929e+20
2.33196e+20
2.3025e+20
2.34258e+20
2.41292e+20
2.44983e+20
2.49842e+20
2.52567e+20
2.511e+20
2.49246e+20
2.52067e+20
2.4925e+20
2.52192e+20
2.55842e+20
2.53783e+20
2.3695e+20
2.50642e+20
2.37962e+20
2.39871e+20
2.47354e+20
2.43821e+20
2.4025e+20
2.46396e+20
2.44821e+20
2.48146e+20
2.46962e+20
2.47937e+20
2.44113e+20
2.55162e+20
2.42858e+20
2.50996e+20
2.50388e+20
2.57012e+20
2.58817e+20
2.45075e+20
2.59171e+20
2.52371e+20
2.4915e+20
2.44712e+20
2.45971e+20
2.46504e+20
2.48108e+20
2.35108e+20
2.34929e+20
2.41304e+20
2.44571e+20
2.51133e+20
2.586e+20
2.62108e+20
2.47504e+20
2.51879e+20
2.42254e+20
2.42775e+20
2.50175e+20
2.4485e+20
2.42279e+20
2.38092e+20
2.49433e+20
2.46642e+20
2.52604e+20
2.48775e+20
2.467e+20
2.46642e+20
2.51079e+20
2.458e+20
2.32192e+20
2.53225e+20
2.37858e+20
2.35275e+20
2.34254e+20
2.30529e+20
2.37e+20
2.39092e+20
2.448e+20
2.46442e+20
2.61475e+20
2.53304e+20
2.36775e+20
2.317e+20
2.38296e+20
2.39412e+20
2.33096e+20
2.36333e+20
2.36296e+20
2.32533e+20
2.39458e+20
2.33842e+20
2.26621e+20
2.39421e+20
2.31592e+20
2.32296e+20
2.31563e+20
2.38233e+20
2.29025e+20
2.38708e+20
2.4375e+20
2.39292e+20
2.2975e+20
2.43217e+20
2.39446e+20
2.51667e+20
2.44608e+20
2.45717e+20
2.43442e+20
2.40558e+20
2.43675e+20
2.39221e+20
2.3525e+20
2.396e+20
2.42621e+20
2.48671e+20
2.47192e+20
2.39104e+20
2.48246e+20
2.52946e+20
2.53371e+20
2.6525e+20
2.60433e+20
2.55992e+20
2.55454e+20
2.58017e+20
2.66396e+20
2.59621e+20
2.53292e+20
2.34746e+20
2.50829e+20
2.57754e+20
2.4215e+20
2.32146e+20
2.39854e+20
2.38167e+20
2.2775e+20
2.15471e+20
2.18033e+20
2.44671e+20
2.37817e+20
2.41e+20
2.50542e+20
2.55075e+20
2.62104e+20
2.52808e+20
2.53454e+20
2.46458e+20
2.43779e+20
2.45121e+20
2.60996e+20
2.63267e+20
2.54437e+20
2.63246e+20
2.76387e+20
2.62192e+20
2.78688e+20
2.79358e+20
2.79833e+20
2.86129e+20
2.93867e+20
2.91429e+20
2.91371e+20
2.799e+20
2.92717e+20
3.04758e+20
2.94804e+20
3.07283e+20
3.13279e+20
3.18629e+20
3.23396e+20
3.11629e+20
3.33329e+20
3.35496e+20
3.33821e+20
3.25075e+20
3.36838e+20
3.33929e+20
3.31408e+20
3.458e+20
3.75983e+20
3.70162e+20
3.67867e+20
3.77696e+20
3.82717e+20
4.08787e+20
4.11871e+20
4.09654e+20
4.15542e+20
4.5585e+20
4.67175e+20
4.69179e+20
4.84471e+20
4.76517e+20
4.88467e+20
5.06096e+20
5.31887e+20
5.62454e+20
5.5495e+20
5.64071e+20
5.92217e+20
6.09613e+20
6.35908e+20
6.41375e+20
6.36883e+20
6.60571e+20
6.57042e+20
6.59133e+20
6.64588e+20
6.93387e+20
6.70429e+20
6.91288e+20
7.02575e+20
7.162e+20
7.11304e+20
7.39304e+20
7.29025e+20
7.52588e+20
7.42979e+20
7.49887e+20
7.7355e+20
8.01263e+20
8.06146e+20
8.12458e+20
8.17037e+20
8.10992e+20
8.186e+20
8.19096e+20
8.16763e+20
8.06067e+20
8.06729e+20
8.0875e+20
8.14558e+20
8.37271e+20
8.57487e+20
8.24542e+20
8.25575e+20
8.60592e+20
8.89629e+20
8.61396e+20
8.56667e+20
8.45796e+20
8.23692e+20
8.09808e+20
8.23492e+20
8.35179e+20
8.34712e+20
8.36558e+20
8.47325e+20
8.52763e+20
8.31121e+20
8.38858e+20
8.60792e+20
8.21888e+20
8.11571e+20
8.08804e+20
8.03263e+20
8.33533e+20
8.08679e+20
8.28396e+20
8.29904e+20
8.10725e+20
8.17679e+20
8.32721e+20
8.32358e+20
8.3975e+20
8.16013e+20
8.27637e+20
8.35796e+20
8.323e+20
8.39308e+20
8.21612e+20
8.449e+20
8.65079e+20
8.59908e+20
8.38487e+20
8.49012e+20
8.34129e+20
8.32917e+20
8.28204e+20
8.50879e+20
8.25504e+20
8.35321e+20
8.44217e+20
8.40904e+20
8.63396e+20
8.57408e+20
8.67129e+20
8.55337e+20
8.614e+20
8.62229e+20
8.55617e+20
8.35321e+20
8.42821e+20
8.41358e+20
8.38167e+20
8.41592e+20
8.52187e+20
8.41362e+20
8.53358e+20
8.38037e+20
8.38338e+20
8.38279e+20
8.58888e+20
8.53396e+20
8.59662e+20
8.5545e+20
8.44e+20
8.43412e+20
8.19467e+20
8.38392e+20
8.64275e+20
8.57525e+20
8.68829e+20
8.62025e+20
8.68725e+20
8.61533e+20
8.45992e+20
8.50554e+20
8.57958e+20
8.60913e+20
8.61996e+20
8.71983e+20
8.44658e+20
8.43679e+20
8.43987e+20
8.44679e+20
8.44717e+20
8.44738e+20
8.58258e+20
8.56133e+20
8.51275e+20
8.55625e+20
8.44717e+20
8.24892e+20
8.2525e+20
8.265e+20
8.31608e+20
8.39287e+20
8.39487e+20
8.29858e+20
8.16625e+20
8.22658e+20
8.58246e+20
8.55208e+20
8.57342e+20
8.67458e+20
8.72096e+20
8.47392e+20
8.31804e+20
8.23704e+20
8.02204e+20
8.04892e+20
8.27929e+20
8.36546e+20
8.57404e+20
8.46433e+20
8.38058e+20
8.15871e+20
8.26404e+20
8.18525e+20
8.15758e+20
7.96708e+20
8.22508e+20
8.12437e+20
8.18187e+20
8.11171e+20
7.98708e+20
8.15946e+20
8.37717e+20
8.25875e+20
8.23271e+20
8.24579e+20
8.3095e+20
8.16829e+20
8.16442e+20
8.44142e+20
8.69217e+20
8.57771e+20
8.80117e+20
8.73112e+20
8.56537e+20
8.649e+20
8.82079e+20
8.85033e+20
8.68587e+20
8.65608e+20
8.59129e+20
8.55087e+20
8.18692e+20
8.1315e+20
8.29075e+20
8.19667e+20
8.24237e+20
8.54588e+20
8.51167e+20
8.55337e+20
8.55788e+20
8.70529e+20
8.92113e+20
8.93683e+20
8.87146e+20
8.976e+20
8.71638e+20
8.54596e+20
8.60875e+20
8.53792e+20
8.46617e+20
8.50387e+20
8.39696e+20
8.45292e+20
8.48767e+20
8.61021e+20
8.60517e+20
8.37996e+20
8.52538e+20
8.39217e+20
8.41167e+20
8.42146e+20
8.458e+20
8.49442e+20
8.29563e+20
8.43183e+20
8.39546e+20
8.55179e+20
8.69292e+20
8.77325e+20
8.58725e+20
8.31075e+20
8.22162e+20
8.72304e+20
8.557e+20
8.36171e+20
8.42675e+20
8.50767e+20
8.60225e+20
8.68567e+20
8.63354e+20
8.42063e+20
8.42162e+20
8.18883e+20
8.20925e+20
8.21921e+20
8.148e+20
8.28888e+20
8.38858e+20
8.29096e+20
8.50533e+20
8.63112e+20
8.65279e+20
8.57279e+20
8.52492e+20
8.57842e+20
8.37167e+20
8.34446e+20
8.45363e+20
8.42812e+20
8.37738e+20
8.51417e+20
8.74513e+20
8.60037e+20
8.54913e+20
8.50783e+20
8.57913e+20
8.46846e+20
8.24329e+20
8.27412e+20
8.21963e+20
8.44633e+20
8.36983e+20
8.38383e+20
8.54188e+20
8.40233e+20
8.2635e+20
8.37396e+20
8.08696e+20
8.20167e+20
8.23487e+20
8.28788e+20
8.66017e+20
8.29533e+20
8.4565e+20
8.5035e+20
8.40596e+20
8.36379e+20
8.56125e+20
8.47004e+20
8.35321e+20
8.55567e+20
8.58621e+20
8.29817e+20
8.57008e+20
8.49596e+20
8.41396e+20
8.36446e+20
8.33712e+20
8.14788e+20
8.20192e+20
8.46171e+20
8.696e+20
8.90679e+20
8.86433e+20
8.87858e+20
8.76608e+20
8.68258e+20
8.80779e+20
8.60512e+20
8.52071e+20
8.55271e+20
8.53233e+20
8.70633e+20
8.46592e+20
8.27421e+20
8.35613e+20
8.43754e+20
8.5185e+20
8.484e+20
8.55058e+20
8.38004e+20
8.55654e+20
8.61137e+20
8.36575e+20
8.21396e+20
8.54408e+20
8.47938e+20
8.35575e+20
8.49575e+20
8.56321e+20
8.68496e+20
8.67371e+20
8.65338e+20
8.55929e+20
8.30933e+20
8.63887e+20
8.4625e+20
8.52783e+20
8.53892e+20
8.52071e+20
8.66921e+20
8.59808e+20
8.42204e+20
8.43942e+20
8.49717e+20
8.38417e+20
8.58817e+20
8.53333e+20
8.53875e+20
8.69342e+20
8.63533e+20
8.44363e+20
8.46092e+20
8.52996e+20
8.57875e+20
8.40979e+20
8.70421e+20
8.60388e+20
8.51133e+20
8.56342e+20
8.73825e+20
8.5945e+20
8.67446e+20
8.51008e+20
8.46887e+20
8.45158e+20
8.35154e+20
8.30571e+20
8.22062e+20
8.32021e+20
8.11854e+20
8.09108e+20
8.12621e+20
8.14517e+20
8.32417e+20
8.36429e+20
8.278e+20
8.24096e+20
8.29621e+20
8.35683e+20
8.35446e+20
8.68712e+20
8.65383e+20
8.46129e+20
8.34417e+20
8.30654e+20
8.40138e+20
8.53025e+20
8.434e+20
8.33887e+20
8.367e+20
8.33442e+20
8.29504e+20
8.55487e+20
8.55029e+20
8.38108e+20
8.51863e+20
8.33258e+20
8.44721e+20
8.61967e+20
8.50929e+20
8.29942e+20
7.99429e+20
8.06079e+20
8.09612e+20
8.34925e+20
8.372e+20
8.33463e+20
8.47575e+20
8.49596e+20
8.41867e+20
8.29317e+20
8.44617e+20
8.56446e+20
8.70604e+20
8.74e+20
8.72967e+20
8.60192e+20
8.60379e+20
8.46067e+20
8.48225e+20
8.36567e+20
8.38321e+20
8.40296e+20
8.40946e+20
8.55379e+20
8.62162e+20
8.45137e+20
8.53708e+20
8.52754e+20
8.68592e+20
8.48221e+20
8.34838e+20
8.37354e+20
8.33942e+20
8.30617e+20
8.20467e+20
8.30054e+20
8.47862e+20
8.57613e+20
8.76383e+20
8.84221e+20
8.6065e+20
8.44575e+20
8.61979e+20
8.48933e+20
8.45458e+20
8.65313e+20
8.63213e+20
8.468e+20
8.38271e+20
8.40729e+20
8.51492e+20
8.66254e+20
8.65742e+20
8.596e+20
8.49171e+20
8.34983e+20
8.283e+20
8.33275e+20
8.35342e+20
8.43879e+20
8.25588e+20
8.19179e+20
8.13829e+20
8.10488e+20
8.17683e+20
8.21692e+20
8.23462e+20
8.07263e+20
8.17396e+20
8.10746e+20
7.89296e+20
7.92383e+20
7.72546e+20
7.616e+20
7.19675e+20
7.29883e+20
7.40438e+20
7.25183e+20
7.12358e+20
7.01442e+20
6.82208e+20
6.74796e+20
6.36392e+20
6.45783e+20
6.20237e+20
6.07604e+20
5.88829e+20
5.86496e+20
5.74508e+20
5.59479e+20
5.4445e+20
5.30729e+20
4.6965e+20
4.49696e+20
4.27575e+20
3.89042e+20
3.41867e+20
)
;

boundaryField
{
    sides
    {
        type            calculated;
        value           nonuniform List<scalar> 2(3.41867e+20 1.09571e+20);
    }
    empty
    {
        type            empty;
    }
}


// ************************************************************************* //
