/*--------------------------------*- C++ -*----------------------------------*\
  =========                 |
  \\      /  F ield         | OpenFOAM: The Open Source CFD Toolbox
   \\    /   O peration     | Website:  https://openfoam.org
    \\  /    A nd           | Version:  7
     \\/     M anipulation  |
\*---------------------------------------------------------------------------*/
FoamFile
{
    version     2.0;
    format      ascii;
    class       volScalarField;
    location    "0.0012";
    object      internalEMean;
}
// * * * * * * * * * * * * * * * * * * * * * * * * * * * * * * * * * * * * * //

dimensions      [1 -1 -2 0 0 0 0];

internalField   nonuniform List<scalar> 
1000
(
0.180624
0.21444
0.216082
0.217341
0.219947
0.261831
0.276951
0.283923
0.29569
0.304736
0.314021
0.349276
0.342466
0.36224
0.346771
0.379706
0.382159
0.394773
0.405984
0.403345
0.377467
0.381189
0.386002
0.400995
0.432544
0.441206
0.424745
0.443168
0.448992
0.485137
0.468424
0.463163
0.477361
0.474075
0.474925
0.498309
0.46927
0.503292
0.473299
0.486173
0.498834
0.50094
0.479828
0.485213
0.475361
0.508532
0.49761
0.517782
0.492807
0.481002
0.469186
0.475313
0.498318
0.479841
0.506153
0.533135
0.484265
0.490943
0.526211
0.491393
0.474461
0.459161
0.502924
0.544894
0.479444
0.439823
0.484504
0.497343
0.527717
0.522725
0.50571
0.483784
0.484207
0.495829
0.522305
0.539867
0.501903
0.467589
0.516865
0.509292
0.539727
0.530676
0.496674
0.478769
0.480668
0.483048
0.505047
0.513854
0.501905
0.52508
0.537856
0.503814
0.475307
0.503439
0.488244
0.535054
0.536417
0.494889
0.477645
0.45297
0.48316
0.501554
0.499454
0.474522
0.487218
0.467306
0.476906
0.525372
0.51267
0.515556
0.477556
0.498605
0.51671
0.507299
0.545908
0.509357
0.49821
0.48668
0.480247
0.498808
0.4998
0.488377
0.475896
0.480895
0.46804
0.476982
0.457958
0.451066
0.447077
0.448333
0.471588
0.497787
0.485864
0.514301
0.495252
0.502981
0.499189
0.52278
0.498571
0.469911
0.475417
0.526835
0.517971
0.485611
0.509747
0.493742
0.482241
0.491792
0.495248
0.510391
0.485809
0.49478
0.491204
0.488721
0.548744
0.528228
0.532999
0.484105
0.501321
0.511833
0.529027
0.522071
0.517964
0.485994
0.483155
0.493354
0.488556
0.484468
0.527095
0.522986
0.508987
0.487886
0.508771
0.48966
0.528395
0.539337
0.538105
0.473279
0.508797
0.528034
0.519222
0.506319
0.476978
0.485248
0.470993
0.470104
0.539158
0.494174
0.51514
0.494067
0.506401
0.479301
0.479382
0.484006
0.512245
0.494025
0.464238
0.49691
0.508501
0.493646
0.483793
0.474482
0.501509
0.524966
0.465724
0.451372
0.462174
0.47778
0.514392
0.52733
0.520567
0.517357
0.524066
0.49571
0.513219
0.518382
0.563787
0.499988
0.481999
0.460575
0.4829
0.503523
0.496359
0.518508
0.501799
0.48895
0.541769
0.485861
0.475725
0.530283
0.524257
0.531151
0.527307
0.495334
0.50505
0.484543
0.501634
0.498992
0.522737
0.538718
0.514212
0.530047
0.525438
0.491857
0.508041
0.510327
0.534788
0.530636
0.488075
0.516081
0.539407
0.555559
0.526252
0.505338
0.543072
0.548171
0.506893
0.49926
0.472167
0.52334
0.496844
0.523662
0.536565
0.50857
0.501379
0.50821
0.525805
0.481948
0.534556
0.509031
0.520939
0.53393
0.536697
0.516541
0.503307
0.495617
0.489415
0.531167
0.534572
0.530716
0.523418
0.519192
0.504365
0.510847
0.487258
0.441801
0.442027
0.509075
0.477296
0.485632
0.508077
0.504187
0.515475
0.510153
0.494253
0.481908
0.538248
0.55349
0.532739
0.51137
0.506505
0.488719
0.466191
0.461935
0.504763
0.508146
0.540377
0.552745
0.535834
0.493793
0.475086
0.499903
0.510309
0.527981
0.527833
0.524683
0.502785
0.467611
0.486838
0.485174
0.468963
0.525581
0.516028
0.496511
0.529185
0.517121
0.503228
0.509305
0.496662
0.484757
0.497958
0.505776
0.485308
0.468768
0.459722
0.500136
0.55213
0.502818
0.52378
0.532309
0.556523
0.556512
0.493637
0.518479
0.521723
0.523781
0.510075
0.486226
0.489759
0.515449
0.473889
0.473392
0.488955
0.503928
0.508334
0.5207
0.506021
0.508561
0.486136
0.480983
0.46147
0.507329
0.504738
0.522946
0.477464
0.525585
0.49703
0.508476
0.503479
0.527986
0.51985
0.553118
0.526537
0.504618
0.561907
0.50648
0.513313
0.503439
0.456942
0.486701
0.471969
0.472717
0.491606
0.530724
0.515802
0.49704
0.488409
0.491404
0.485046
0.487178
0.522354
0.513454
0.522796
0.515873
0.52219
0.494449
0.52058
0.497151
0.481903
0.508881
0.520919
0.488448
0.477077
0.473738
0.48715
0.450445
0.478108
0.463747
0.487377
0.517384
0.487224
0.489227
0.504773
0.493888
0.480851
0.472128
0.459103
0.521133
0.516665
0.519734
0.497556
0.501114
0.499799
0.527609
0.575926
0.527087
0.532676
0.510642
0.504241
0.526735
0.517691
0.527466
0.474561
0.511543
0.520357
0.500241
0.490886
0.501623
0.525806
0.470936
0.483246
0.491992
0.539537
0.505174
0.529766
0.525219
0.546388
0.539123
0.522782
0.518312
0.504888
0.524075
0.555491
0.56954
0.529357
0.531282
0.552702
0.561983
0.559415
0.595657
0.595629
0.608404
0.61839
0.631392
0.624615
0.618582
0.623975
0.652364
0.669463
0.671869
0.683654
0.694347
0.685848
0.744593
0.712491
0.763287
0.76079
0.763688
0.740981
0.760597
0.75232
0.766003
0.793894
0.84067
0.819331
0.820505
0.824509
0.852597
0.874945
0.884669
0.86985
0.837349
0.916982
0.929716
0.911849
0.903857
0.863728
0.896945
0.907175
0.963059
1.01923
0.983267
1.02526
1.08914
1.12934
1.12197
1.18609
1.16212
1.24471
1.26827
1.28957
1.27309
1.33769
1.25969
1.31663
1.41311
1.37841
1.44359
1.50433
1.48314
1.53536
1.51463
1.52725
1.57905
1.6452
1.66841
1.68256
1.65644
1.67676
1.68702
1.63103
1.59619
1.62039
1.68042
1.72462
1.72083
1.72169
1.74815
1.72514
1.71541
1.74103
1.791
1.72952
1.70962
1.72241
1.68642
1.68855
1.73149
1.73069
1.74217
1.724
1.75468
1.75973
1.71218
1.70961
1.72493
1.60852
1.67731
1.68132
1.63512
1.69677
1.67773
1.71807
1.69401
1.7456
1.73783
1.72651
1.69465
1.69701
1.65309
1.71184
1.71961
1.73602
1.7255
1.66581
1.73903
1.74349
1.72838
1.76623
1.73446
1.68567
1.64613
1.67022
1.72286
1.7035
1.70214
1.74843
1.70532
1.78822
1.72805
1.72742
1.74472
1.73719
1.72344
1.69181
1.67694
1.74171
1.75885
1.72053
1.74893
1.80344
1.7581
1.75403
1.75728
1.72768
1.72953
1.77716
1.75416
1.7611
1.73115
1.75161
1.75529
1.699
1.72942
1.75708
1.71015
1.73823
1.76918
1.76005
1.74851
1.72834
1.74558
1.76447
1.70242
1.71429
1.73295
1.7178
1.75067
1.78279
1.70006
1.72213
1.7356
1.71359
1.73453
1.74175
1.73494
1.73245
1.67798
1.69125
1.72695
1.73138
1.70521
1.68716
1.72885
1.66078
1.65775
1.75899
1.71492
1.72333
1.70016
1.70392
1.70365
1.7128
1.71645
1.6804
1.68451
1.70984
1.709
1.72469
1.72157
1.69003
1.68437
1.70279
1.72163
1.68002
1.67443
1.68348
1.68712
1.69344
1.72838
1.63582
1.73127
1.81441
1.77715
1.7399
1.74442
1.77016
1.72372
1.72938
1.7251
1.74074
1.76786
1.77758
1.75146
1.7129
1.7688
1.81505
1.79655
1.76381
1.73074
1.72381
1.75163
1.68114
1.68513
1.74431
1.67243
1.72217
1.74132
1.78234
1.74645
1.79777
1.76227
1.78113
1.77842
1.75057
1.77139
1.75878
1.7425
1.8195
1.77623
1.82062
1.7646
1.77838
1.73757
1.74893
1.77247
1.75485
1.76936
1.73587
1.71401
1.74245
1.74684
1.77349
1.78006
1.74398
1.72906
1.75251
1.748
1.77706
1.76012
1.75653
1.69606
1.7002
1.79355
1.69934
1.69198
1.76567
1.75176
1.75753
1.7475
1.74652
1.73485
1.73252
1.69474
1.76254
1.68884
1.6173
1.68101
1.75142
1.73423
1.70352
1.6989
1.7575
1.77728
1.72582
1.74965
1.6728
1.69066
1.72475
1.7746
1.74699
1.73815
1.72752
1.75262
1.72008
1.75553
1.79177
1.78094
1.74804
1.74248
1.66208
1.73665
1.73857
1.74127
1.81009
1.80698
1.75051
1.8341
1.77852
1.76025
1.7522
1.71167
1.82669
1.73061
1.75885
1.827
1.77588
1.76505
1.76878
1.73848
1.77393
1.77009
1.78907
1.7291
1.75051
1.75185
1.74706
1.7406
1.79058
1.76013
1.71235
1.74125
1.7759
1.88361
1.8023
1.78886
1.80511
1.8119
1.82834
1.83439
1.82037
1.80997
1.78941
1.84235
1.77313
1.80573
1.75682
1.78144
1.81502
1.72565
1.77005
1.70755
1.75624
1.82839
1.75251
1.76842
1.8374
1.77612
1.73397
1.7476
1.77463
1.7548
1.78566
1.77082
1.73473
1.69116
1.83746
1.81464
1.75176
1.79159
1.80673
1.80876
1.80179
1.76257
1.71706
1.75234
1.79706
1.7904
1.76573
1.79256
1.79621
1.78885
1.72478
1.78671
1.77659
1.75227
1.77944
1.81014
1.85719
1.78875
1.77998
1.80034
1.76949
1.882
1.78048
1.76577
1.7921
1.80122
1.72256
1.75375
1.78059
1.7455
1.82737
1.75593
1.6932
1.68282
1.69302
1.73021
1.74285
1.74978
1.7347
1.682
1.73047
1.73598
1.73213
1.75713
1.70884
1.78826
1.74135
1.75051
1.77114
1.78913
1.75248
1.73034
1.76449
1.73458
1.70963
1.76199
1.71898
1.72648
1.79926
1.71461
1.7792
1.69202
1.7157
1.70715
1.78244
1.80985
1.78361
1.79346
1.76542
1.75865
1.72039
1.71655
1.76981
1.79343
1.76332
1.77892
1.74348
1.75344
1.73054
1.74427
1.75662
1.75524
1.7349
1.72324
1.73876
1.77844
1.7729
1.79457
1.80783
1.74517
1.74888
1.76639
1.76473
1.68253
1.72709
1.78713
1.78554
1.73144
1.70583
1.73766
1.73534
1.73422
1.72826
1.80529
1.76878
1.72783
1.81113
1.83493
1.75314
1.72204
1.76068
1.71835
1.74923
1.79107
1.74015
1.76487
1.71238
1.69069
1.74467
1.78631
1.80585
1.74342
1.70145
1.77038
1.68699
1.67788
1.67048
1.66242
1.59418
1.62429
1.64581
1.54691
1.53875
1.50774
1.55039
1.41933
1.49627
1.51315
1.50211
1.44096
1.35989
1.30076
1.31978
1.22983
1.25999
1.1851
1.17702
1.1567
1.10764
1.04693
1.00053
0.976819
0.913921
0.801181
0.74335
0.70319
0.632727
0.549099
)
;

boundaryField
{
    sides
    {
        type            calculated;
        value           nonuniform List<scalar> 2(0.549099 0.180624);
    }
    empty
    {
        type            empty;
    }
}


// ************************************************************************* //
