/*--------------------------------*- C++ -*----------------------------------*\
  =========                 |
  \\      /  F ield         | OpenFOAM: The Open Source CFD Toolbox
   \\    /   O peration     | Website:  https://openfoam.org
    \\  /    A nd           | Version:  7
     \\/     M anipulation  |
\*---------------------------------------------------------------------------*/
FoamFile
{
    version     2.0;
    format      ascii;
    class       volScalarField;
    location    "0.0012";
    object      internalT;
}
// * * * * * * * * * * * * * * * * * * * * * * * * * * * * * * * * * * * * * //

dimensions      [1 2 -2 0 0 0 0];

internalField   nonuniform List<scalar> 
1000
(
238.797
249.733
239.728
225.422
228.07
243.68
242.563
253.069
248.688
250.456
250.991
265.433
272.417
271.715
261.143
262.121
258.487
261.828
276.182
275.649
254.585
264.242
263.537
268.134
281.842
272.124
273.89
267.836
287.573
299.905
297.188
293.396
293.688
289.053
286.149
295.602
278.105
300.382
296.617
297.682
295.696
290.423
281.051
284.436
284.856
301.908
306.157
298.51
294.367
293.133
289.078
294.482
309.065
301.146
318.09
326.454
290.573
290.895
298.908
289.199
293.682
288.422
292.725
300.988
293.578
265.593
287.52
295.872
306.141
306.033
297.954
287.348
280.297
295.208
291.624
297.154
295.58
282.399
293.844
284.679
293.826
300.551
286.759
286.928
283.574
290.685
302.578
301.296
286.346
305.923
307.958
296.967
286.16
301.262
303.017
315.831
320.284
293.308
291.664
286.907
294.985
312.432
302.185
290.364
294.987
286.645
283.854
296.754
299.466
307.001
302.988
312.611
300.152
305.495
323.49
313.873
300.136
293.115
286.407
288.711
288.693
289.799
283.993
293.551
279.362
273.717
270.801
271.646
271.26
274.377
285.474
296.4
301.804
296.685
296.725
315.02
308.395
300.157
297.274
288.661
286.972
309.65
302.929
296.513
303.812
290.076
280.513
278.774
299.901
302.248
288.64
292.868
294.665
294.451
322.614
306.096
306.627
292.359
297.018
290.3
301.059
295.861
296.711
290.757
282.976
294.4
299.125
294.193
303.818
306.114
301.56
281.111
283.913
295.324
313.149
312.621
315.532
293.934
281.757
301.466
308.534
305.006
300.717
301.885
295.587
301.245
324.266
310.253
321.477
300.452
293.232
309.374
301.315
293.651
285.985
287.709
275.758
281.822
283.521
293.386
286.522
285.594
295.654
317.03
294.69
285.729
303.314
299.268
309.933
313.18
307.991
301.783
295.618
293.404
292.633
298.93
305.684
288.596
279.293
283.386
304.804
307.304
305.523
321.478
315.775
299.404
312.08
289.323
289.481
307.102
292.677
311.538
313.44
301.312
307.126
289.814
303.578
294.394
304.293
301.928
288.631
296.499
294.509
281.997
282.345
277.842
294.564
307.809
287.495
293.355
309.208
306.977
301.2
301.355
313.09
314.221
304.45
298.601
283.681
300.374
279.076
292.593
297.205
303.423
306.152
296.442
305.481
293.699
314.842
291.974
291.686
300.796
309.251
300.797
303.433
292.036
283.137
296.116
303.474
296.411
304.241
294.128
287.076
297.441
292.682
272.761
267.747
301.038
296.705
296.755
295.31
293.166
302.176
304.065
288.582
282.832
305.576
317.38
310.385
310.991
313.796
307.078
295.75
291.175
311.495
301.139
325.466
328.454
318.21
306.74
298.895
309.127
306.364
312.197
306.04
300.931
290.056
271.771
279.779
281.974
269.373
297.588
294.549
303.542
305.844
314.796
303.902
298.267
295.078
292.286
292.756
299.266
283.307
274.962
268.596
296.787
313.452
299.919
302.293
307.962
313.672
311.479
291.78
289.796
299.466
304.533
301.942
286.352
287.809
300.948
291.981
291.897
293.529
298.476
293.218
291.679
279.662
297.651
279.584
287.61
275.351
293.759
298.615
312.671
290.498
305.235
291.919
291.592
293.171
310.027
305.322
319.12
310.308
314.82
321.443
308.454
316.048
311.319
287.132
297.482
285.954
279.728
288.968
294.025
294.976
304.09
305.355
298.723
293.483
302.761
320.174
314.769
325.682
312.075
323.484
316.059
314.972
310.965
300.514
318.342
316.748
308.946
289.513
281.54
294.905
284.01
284.76
280.556
280.534
306.399
287.237
291.113
303.964
293.605
291.178
290.721
277.568
311.148
300.975
304.574
301.44
292.416
286.229
301.649
314.527
293.179
301.428
289.567
283.098
286.425
288.853
301.662
292.847
295.427
292.443
299.255
306.313
302.954
319.809
299.536
324.882
326.875
319.437
307.713
318.429
303.674
310.299
297.962
299.554
296.236
296.755
311.418
328.279
316.109
291.273
302.476
304.142
294.544
309.074
309.617
308.859
314.948
313.074
311.24
310.474
307.537
322.932
322.841
318.213
330.139
322.288
321.064
311.809
333.527
331.198
331.712
328.492
331.397
330.195
327.1
326.358
334.822
332.571
323.894
320.637
323.1
316.228
322.71
310.048
311.147
307.591
291.903
291.397
288.282
281.534
270.258
262.57
265.997
259.66
262.289
262.501
256.663
263.297
266.41
268.358
255.583
267.887
264.325
272.957
279.618
283.411
277.494
279.464
272.18
275.901
291.359
278.799
293.992
294.758
294.704
295.528
295.309
295.026
295.701
297.434
299.802
299.996
293.685
299.503
298.535
288.453
283.097
291.203
301.742
308.905
306.029
297.875
295.324
303.081
300.994
293.06
291.63
290.85
289.091
294.997
296.584
302.05
304.585
300.182
302.344
298.53
299.981
298.926
298.423
295.225
290.281
283.505
299.388
301.13
294.876
294.88
300.533
300.435
295.688
311.902
307.872
300.341
294.928
292.739
293.459
299.618
298.04
302.149
297.81
293.701
298.159
291.951
291.162
305.139
295.935
292.743
286.292
292.134
293.311
298.929
295.182
300.014
293.769
300.024
291.954
288.576
295.484
292.138
289.548
286.43
290.81
299.355
302.826
297.357
301.035
306.559
302.697
297.75
303.756
298.532
298.872
299.734
297.759
296.759
293.148
300.635
301.478
300.337
298.813
294.501
288.891
289.813
297.302
293.488
293.997
295.943
297.293
297.916
286.454
288.088
287.888
294.604
300.59
305.993
291.554
295.325
297.628
289.224
293.485
296.39
293.729
297.095
294.67
296.871
302.679
301.593
294.317
291.131
301.787
294.601
291.908
296.892
290.482
291.18
283.914
283.03
291.234
298.286
301.86
303.442
303.168
299.164
295.936
291.388
294.631
292.123
299.064
298.48
304.687
298.331
304.449
296.492
300.817
299.822
308.655
296.683
307.362
313.751
311.713
306.146
306.454
308.591
305.691
306.84
296.037
290.104
298.554
292.574
290.587
289.688
296.251
298.076
294.054
294.16
289.639
290.655
296.741
297.461
300.198
304.772
295.568
302.67
295.168
303.335
295.777
304.309
293.249
289.216
288.268
285.845
285.876
292.296
295.365
306.166
301.366
311.514
300.592
306.796
297.771
298.491
298.203
295.411
305.858
294.952
295.859
300.071
300.478
303.744
303.562
304.536
297.054
302.387
296.094
296.13
290.622
296.311
295.628
299.564
297.846
287.676
293.12
303.526
298.271
295.962
291.447
293.043
298.445
298.008
299.797
311.015
297.649
287.531
293.779
302.447
303.004
290.136
285.133
294.229
300.317
293.258
295.454
289.453
293.498
295.548
305.01
302.084
295.728
286.156
295.2
291.457
298.907
302.542
304.643
307.182
305.064
292.917
297.846
300.9
300.864
306.967
311.53
306.866
317.276
318.581
310.899
308.228
299.174
305.551
302.212
301.289
311.233
306.036
305.704
299.284
297.324
307.631
299.701
301.836
301.846
295.887
298.697
300.783
301.444
311.117
312.93
302.43
298.091
295.833
306.348
294.528
291.863
298.293
302.296
300.702
308.803
309.479
306.56
303.8
306.538
303.398
316.136
304.557
305.845
308.648
294.644
299.872
295.171
297.325
307.569
303.46
311.874
311.52
303.427
300.609
297.979
300.205
292.689
298.222
296.439
293.59
294.825
308.11
310.626
297.565
303.936
307.159
302.237
303.563
303.162
294.726
298.739
310.491
301.992
299.745
304.107
299.304
300.083
295.904
305.903
301.708
295.885
306.51
301.251
312.687
304.437
301.103
298.453
298.246
314.286
303.075
302.034
307.164
312.426
300.431
309.037
310.01
311.45
327.164
313.015
301.13
292.848
293.21
302.775
306.358
305.527
300.696
291.644
288.559
290.591
296.545
305.048
298.008
308.338
295.714
300.662
307.674
309.755
304.597
302.176
298.781
293.872
295.493
299.627
298.839
296.071
302.378
291.889
310.544
306.6
308.327
305.451
309.252
313.155
309.999
306.521
301.012
302.61
300.506
294.404
299.345
298.407
292.259
295.193
293.608
295.221
296.294
297.885
304.175
303.301
299.081
296.841
294.46
298.812
303.88
304.507
307.1
291.051
298.674
306.5
305.292
292.263
301.204
315.531
311.609
295.821
288.131
287.222
284.296
291.893
296.427
303.386
301.819
296.044
303.195
307.928
299.903
297.581
303.369
292.332
292.515
299.688
293.249
301.067
297.077
295.68
303.299
309.769
309.99
305.904
300.875
315.123
301.518
297.249
294.496
292.445
286.067
287.858
294.063
283.903
281.306
282.715
294.891
285.689
296.963
296.034
300.055
293.022
280.839
276.201
283.318
279.941
282.636
276.785
280.614
284.563
273.576
263.979
259.054
259.898
249.449
247.117
239.453
238.236
235.595
232.67
)
;

boundaryField
{
    sides
    {
        type            calculated;
        value           nonuniform List<scalar> 2(232.67 238.797);
    }
    empty
    {
        type            empty;
    }
}


// ************************************************************************* //
