/*--------------------------------*- C++ -*----------------------------------*\
  =========                 |
  \\      /  F ield         | OpenFOAM: The Open Source CFD Toolbox
   \\    /   O peration     | Website:  https://openfoam.org
    \\  /    A nd           | Version:  7
     \\/     M anipulation  |
\*---------------------------------------------------------------------------*/
FoamFile
{
    version     2.0;
    format      ascii;
    class       volScalarField;
    location    "0.0012";
    object      linearKE;
}
// * * * * * * * * * * * * * * * * * * * * * * * * * * * * * * * * * * * * * //

dimensions      [1 -1 -2 0 0 0 0];

internalField   nonuniform List<scalar> 
1000
(
0.267081
0.465645
0.268409
0.437268
0.326486
0.332994
0.244119
0.344069
0.374841
0.290912
0.176029
0.343352
0.486493
0.377849
0.292214
0.356193
0.500714
0.287206
0.450026
0.426964
0.376426
0.553499
0.382462
0.378272
0.59312
0.304291
0.507015
0.522557
0.600485
0.640942
0.740319
0.516191
0.469486
0.603353
0.646645
0.685205
0.597031
0.457215
0.577908
0.781508
0.73486
0.612491
0.812038
0.707033
0.898931
0.438358
0.563974
0.773338
0.43675
0.879617
0.684122
0.695689
0.801455
0.881491
0.99027
0.793253
0.458556
0.728232
0.634559
0.847386
0.577768
0.645087
0.89309
0.990583
0.646958
0.613255
0.617866
0.791896
0.870901
0.571366
0.572317
0.742939
0.672853
0.643371
0.837209
0.789745
0.862935
0.58859
0.828019
0.797505
0.885387
0.620762
0.983711
0.734973
1.13654
0.642389
0.752283
0.931276
1.00477
0.596966
0.874105
0.659137
0.809336
0.591756
0.853328
1.0057
0.889809
0.52449
0.607665
0.756712
0.868855
0.793996
0.795418
0.785936
0.514816
0.722915
0.721148
0.804931
0.69913
0.84038
0.82343
0.726086
0.811431
0.918587
0.708982
0.555147
0.63539
0.786811
0.750018
0.679793
0.664349
0.574242
0.844037
0.882586
0.750048
1.0343
0.606856
0.598857
0.683681
0.784505
0.644268
0.845536
0.569278
0.664399
0.784285
1.01494
0.628891
0.770017
0.760648
0.787533
0.888019
0.875384
0.749316
0.814072
0.580251
0.528066
0.939576
0.848806
0.535139
0.75199
0.712266
0.86435
0.705412
0.765202
0.807853
0.882155
0.53588
0.800382
0.729975
0.837786
0.829974
0.931926
0.653147
0.504673
0.684563
0.821877
0.855034
1.0695
0.985271
0.5411
0.65185
0.626161
0.663197
0.984908
0.73266
0.62155
0.511433
0.713748
0.91035
0.766841
0.813183
0.821388
0.86792
0.713053
0.783533
0.611548
0.741974
0.859095
0.878757
0.565533
0.796919
0.40947
0.55798
0.859281
0.887537
0.650845
0.756149
1.08332
0.857657
0.708688
0.911234
0.767814
1.0137
0.667402
0.714172
0.619204
0.858692
0.844399
0.684661
0.626701
0.758889
0.514943
0.741894
0.735539
0.661623
0.618722
0.846775
0.968776
0.659482
0.621407
0.668602
0.673409
0.922208
0.6852
0.603588
0.643518
0.918127
0.747691
0.892444
0.694096
0.58498
0.740944
1.02603
0.727801
0.787981
0.898841
0.717164
0.815885
1.07733
0.95513
0.728748
0.726955
1.01812
1.15596
0.75752
0.637195
0.786592
0.836292
0.709471
1.03373
0.663906
0.885011
0.904543
0.780116
0.87727
0.545118
0.91131
0.762132
0.861063
0.67213
0.634213
0.601084
0.693338
0.754672
0.507711
0.933529
0.888727
0.744265
0.695716
1.20823
0.637337
0.889443
0.908251
0.796217
1.01813
0.724894
0.714804
0.830512
0.791653
0.776873
0.712744
1.11031
0.947717
0.800327
0.528415
0.862979
0.775208
0.646858
0.658685
0.776102
0.976211
0.599743
0.719415
0.562835
0.737898
0.779636
0.549963
0.748927
0.743343
0.753693
0.636181
0.626987
0.695179
0.954441
0.653998
1.08182
0.787792
0.7224
0.97853
0.662529
0.628739
0.530056
0.930002
0.724307
0.989537
1.04679
0.652794
0.858624
0.523234
0.818354
1.01171
0.509805
0.639563
0.662616
0.793627
0.624846
0.847128
0.643506
0.699384
0.548603
0.709841
0.647021
0.949088
0.812376
0.686881
0.87424
0.673599
0.776063
0.778141
0.589154
0.733197
0.765444
0.815464
0.682481
0.764397
0.903066
0.816114
0.647502
0.623554
0.873039
0.755534
0.798709
0.625469
0.800336
0.853889
0.813557
1.04033
0.710657
0.807731
0.524625
0.595213
0.913815
0.576911
0.646822
0.750363
0.634113
0.962748
0.48381
0.919373
0.948671
0.787837
0.683063
0.980447
0.765022
0.72978
0.608213
0.791609
0.623451
0.840009
0.905083
0.618853
0.74449
0.619874
0.927704
0.760878
0.997036
0.796275
0.736558
0.546687
0.877451
0.669881
0.751716
0.691829
0.623015
0.717692
0.827251
0.833456
0.50955
1.02297
0.685736
0.465245
0.389111
0.702521
0.991064
0.534841
0.623001
0.574948
0.81113
0.863838
0.535257
0.675839
0.760016
0.83141
0.817973
0.785903
0.761033
0.654788
0.811865
0.729076
0.623702
0.579349
0.642849
0.879032
0.860359
0.884002
0.940744
0.805815
0.690588
0.556668
0.830347
0.728835
0.680789
0.718904
0.734721
1.05587
0.695378
0.70589
0.614056
0.759198
0.939347
0.880895
0.783508
0.920877
0.710256
1.15492
1.13694
1.34061
1.15714
1.45857
1.53737
1.42139
1.6313
1.26298
1.0049
1.38686
1.0889
1.43278
1.66439
1.59908
1.63439
1.32319
1.75784
1.56993
1.34922
1.44655
1.45554
1.58119
1.82589
1.48769
1.49329
1.78019
1.66438
1.07819
1.0674
1.19029
1.80797
1.36819
1.30397
1.44242
1.461
1.37779
1.46468
1.49664
1.5519
1.61183
1.693
1.76868
1.51636
1.48556
1.98931
1.61434
1.48994
2.11288
1.66814
1.76617
1.44986
1.60848
1.43636
1.4505
1.802
1.73828
1.69792
1.82293
1.48401
1.67646
1.89203
1.15743
1.61469
1.56477
1.61926
1.64426
1.59689
1.78612
1.59221
1.42809
1.82452
1.39793
1.30073
1.62897
1.94539
1.60927
1.61232
1.5765
1.61306
2.03118
1.84794
1.9551
1.91667
2.13936
1.73162
1.79834
1.74073
1.92848
2.10934
2.11351
1.59897
2.24888
2.28976
2.46795
2.28506
2.35088
2.56674
2.03278
2.0375
2.33739
2.50471
2.6235
2.28837
2.08331
2.5375
2.48195
2.36101
2.7026
2.89721
2.29321
2.66959
2.34707
2.98088
2.67588
2.88473
2.62345
2.98627
2.51967
2.727
2.41604
2.38296
2.29544
2.65189
2.97039
2.77433
2.49421
2.67928
2.819
2.74669
2.4836
2.26428
2.9888
2.33199
2.55053
2.46413
2.31602
2.55917
2.65532
2.75176
2.59537
2.6238
2.43544
2.75563
2.75271
2.49303
2.53197
2.29328
2.54163
2.46723
2.89149
2.59869
2.98636
2.41595
2.44745
2.35342
2.58882
2.94236
2.50136
2.34808
2.88337
2.23845
2.78105
2.78699
2.82003
2.40826
2.6545
1.86181
2.77665
2.64491
2.86617
2.69792
2.2648
2.07786
2.71521
2.34718
2.19914
2.63911
2.84566
2.79589
1.99702
2.94034
2.8289
2.74121
2.64768
2.50459
2.59596
3.02541
2.67825
2.84811
2.63778
2.64872
2.54198
2.58795
2.36761
2.27395
2.27878
2.34007
2.47495
2.64044
2.81701
2.83343
2.99784
2.56203
2.91867
2.71886
2.6642
2.53972
2.4263
2.41323
2.52819
2.91214
2.08564
2.58503
2.48295
2.67582
2.85987
2.82506
2.5164
2.52444
2.30285
2.12118
2.71491
2.8088
2.5164
2.67006
2.69851
2.98813
2.33697
2.16078
2.77833
2.64099
2.58912
2.55379
2.31304
2.89975
2.36245
2.9792
2.94241
2.68814
2.70572
2.21648
2.84386
2.72335
2.94369
2.524
2.55958
2.25499
2.5991
2.46449
2.36516
2.58614
2.63218
2.90553
2.95942
2.3303
2.79146
2.67882
2.94559
2.74709
3.05942
2.56842
2.37981
2.90883
2.27441
2.91282
2.29607
2.46949
2.55033
2.77205
2.81307
2.29993
2.96998
2.67323
2.81377
2.51262
2.91983
2.73096
2.46418
2.71927
2.93898
2.50258
2.78433
3.07688
2.63664
2.52555
2.76808
2.37593
2.41185
2.91075
2.73716
2.0645
2.85945
2.47604
2.86196
2.33569
2.6392
2.53954
2.71177
2.55367
2.85645
2.93837
2.88652
2.82162
2.6049
2.96427
2.37455
2.56027
2.43987
2.06788
3.02904
2.87568
2.73729
2.3305
2.61065
2.29449
2.92482
2.66642
2.47059
2.62931
2.50066
2.54601
2.81331
2.40889
2.64936
2.42799
2.59898
2.69794
2.48417
2.52995
3.0957
2.4438
2.33021
2.50696
2.7306
2.20077
2.52384
2.72996
2.68374
2.31275
2.94055
2.62339
2.6672
2.73113
2.53208
2.79761
2.40924
2.70477
2.66712
2.55622
2.58993
2.6283
2.96946
2.47608
2.72172
2.79436
2.48558
2.85418
2.96558
2.85966
2.75175
2.37187
3.03567
2.40397
2.86663
2.78469
2.41374
2.76795
2.54507
3.40007
2.7054
2.59663
2.52641
2.38343
2.84676
2.7056
2.92394
2.24368
2.89095
2.34174
2.63482
2.61145
2.94944
2.6354
2.47648
3.2795
2.734
2.89544
2.6535
2.828
2.84898
2.79674
2.57008
2.87711
2.20765
2.61692
2.676
2.88788
2.62765
2.49975
2.25348
2.53288
3.22785
2.60446
2.51492
3.27817
2.53922
2.03314
2.60309
2.67424
2.01913
2.86736
2.49691
2.46832
2.42922
3.23839
2.75521
2.75759
2.94407
2.50789
2.8137
2.79595
2.38615
2.28522
2.81963
2.40402
1.90306
2.58932
2.6757
2.66342
2.81249
3.27261
2.49428
2.85461
3.02297
2.58489
2.88761
2.40561
2.8936
2.02922
2.48954
3.03949
2.34231
2.60436
2.29311
2.15091
2.90799
2.63972
3.08174
2.87818
2.49634
2.30804
2.43979
2.36898
3.11405
2.50109
2.77737
2.30877
2.17621
2.73293
2.80152
2.66847
2.75786
2.66003
2.64526
2.6239
2.47509
2.88734
2.65375
2.46121
2.51908
2.90309
2.53949
2.78306
2.59407
2.73757
2.01745
2.96786
2.7938
2.7783
2.13874
2.78039
2.73778
2.63084
2.46474
2.84743
2.49341
2.74957
2.88921
2.39515
2.4937
2.84553
2.25133
2.16846
2.69928
2.42976
2.86613
2.67326
2.65592
3.00185
2.58677
2.38565
3.22463
2.7788
2.56094
2.83065
2.94109
2.90684
2.53265
2.31613
1.98382
2.30596
2.48822
2.31223
2.44349
2.25345
2.11565
2.81055
2.41978
2.15087
1.99389
1.90346
1.93373
2.0532
2.19584
2.07773
1.51037
1.87578
1.94071
1.60964
2.22387
1.53155
1.34284
1.54693
1.76325
1.60227
1.49544
1.69936
1.32798
1.50581
1.3353
1.21065
1.47145
1.4337
1.18433
1.28586
1.24677
0.991691
0.954793
1.24448
0.907909
1.09456
1.24203
0.933071
0.848446
0.763943
)
;

boundaryField
{
    sides
    {
        type            zeroGradient;
    }
    empty
    {
        type            empty;
    }
}


// ************************************************************************* //
