/*--------------------------------*- C++ -*----------------------------------*\
  =========                 |
  \\      /  F ield         | OpenFOAM: The Open Source CFD Toolbox
   \\    /   O peration     | Website:  https://openfoam.org
    \\  /    A nd           | Version:  7
     \\/     M anipulation  |
\*---------------------------------------------------------------------------*/
FoamFile
{
    version     2.0;
    format      ascii;
    class       volScalarField;
    location    "0.0012";
    object      rhoMMean;
}
// * * * * * * * * * * * * * * * * * * * * * * * * * * * * * * * * * * * * * //

dimensions      [1 -3 0 0 0 0 0];

internalField   nonuniform List<scalar> 
1000
(
2.54752e-06
2.89201e-06
3.03577e-06
3.24725e-06
3.24803e-06
3.61886e-06
3.84545e-06
3.77861e-06
4.00452e-06
4.09791e-06
4.21377e-06
4.43184e-06
4.23402e-06
4.49006e-06
4.47233e-06
4.87882e-06
4.97938e-06
5.07809e-06
4.95089e-06
4.92822e-06
4.99362e-06
4.85857e-06
4.93307e-06
5.03682e-06
5.16886e-06
5.46065e-06
5.22302e-06
5.57273e-06
5.25847e-06
5.44815e-06
5.30856e-06
5.31679e-06
5.47431e-06
5.52381e-06
5.58988e-06
5.67755e-06
5.68308e-06
5.64307e-06
5.37414e-06
5.50056e-06
5.68172e-06
5.8093e-06
5.75002e-06
5.74537e-06
5.6204e-06
5.673e-06
5.47412e-06
5.84195e-06
5.63842e-06
5.52653e-06
5.46637e-06
5.43614e-06
5.43033e-06
5.36649e-06
5.35922e-06
5.50027e-06
5.61303e-06
5.68414e-06
5.92914e-06
5.7227e-06
5.44118e-06
5.36174e-06
5.78644e-06
6.09722e-06
5.50027e-06
5.57738e-06
5.67542e-06
5.66138e-06
5.80562e-06
5.75273e-06
5.7164e-06
5.67038e-06
5.81812e-06
5.65682e-06
6.03212e-06
6.11892e-06
5.71892e-06
5.57661e-06
5.9242e-06
6.02533e-06
6.18663e-06
5.94677e-06
5.83343e-06
5.61982e-06
5.70884e-06
5.59676e-06
5.62166e-06
5.74401e-06
5.90337e-06
5.78072e-06
5.88225e-06
5.71388e-06
5.59414e-06
5.62824e-06
5.42674e-06
5.70574e-06
5.64074e-06
5.68269e-06
5.51558e-06
5.31737e-06
5.51645e-06
5.40669e-06
5.56663e-06
5.50405e-06
5.56276e-06
5.49068e-06
5.65857e-06
5.96266e-06
5.76581e-06
5.65595e-06
5.30846e-06
5.37182e-06
5.79797e-06
5.59279e-06
5.68366e-06
5.46559e-06
5.59066e-06
5.59211e-06
5.64743e-06
5.81889e-06
5.83081e-06
5.67581e-06
5.64384e-06
5.51742e-06
5.64268e-06
5.86908e-06
5.69567e-06
5.5925e-06
5.55094e-06
5.50328e-06
5.56372e-06
5.65634e-06
5.422e-06
5.83837e-06
5.62137e-06
5.37753e-06
5.45164e-06
5.86598e-06
5.64859e-06
5.48274e-06
5.57961e-06
5.73025e-06
5.75883e-06
5.51587e-06
5.65091e-06
5.73268e-06
5.79002e-06
5.94154e-06
5.56179e-06
5.68734e-06
5.66864e-06
5.68995e-06
5.61439e-06
5.59007e-06
5.7287e-06
5.81211e-06
5.85445e-06
5.5769e-06
5.68463e-06
5.93815e-06
5.91829e-06
5.94309e-06
5.87944e-06
5.6295e-06
5.7505e-06
5.64403e-06
5.50085e-06
5.54629e-06
5.84311e-06
5.75408e-06
5.68463e-06
5.84534e-06
6.03541e-06
5.58426e-06
5.68298e-06
5.81047e-06
5.74372e-06
5.42297e-06
6.08191e-06
5.8992e-06
5.66787e-06
5.59095e-06
5.34207e-06
5.41367e-06
5.36658e-06
5.25586e-06
5.59996e-06
5.36455e-06
5.39691e-06
5.53834e-06
5.81637e-06
5.21788e-06
5.35835e-06
5.55123e-06
6.0326e-06
5.78315e-06
5.67e-06
5.93844e-06
6.04054e-06
5.6669e-06
5.68685e-06
5.5955e-06
5.71301e-06
5.577e-06
5.3227e-06
5.32047e-06
5.13195e-06
5.37695e-06
5.58978e-06
5.67097e-06
5.69257e-06
5.77385e-06
5.9707e-06
5.69024e-06
5.90676e-06
5.8405e-06
6.21172e-06
5.83497e-06
5.8124e-06
5.47382e-06
5.33588e-06
5.51848e-06
5.47169e-06
5.43217e-06
5.35205e-06
5.50018e-06
5.84679e-06
5.65585e-06
5.53486e-06
5.8156e-06
6.03289e-06
5.74217e-06
5.66602e-06
5.5367e-06
5.53844e-06
5.63096e-06
5.56527e-06
5.70865e-06
5.78576e-06
6.00935e-06
6.00024e-06
6.02088e-06
6.00887e-06
5.8744e-06
6.06021e-06
6.18615e-06
6.11465e-06
5.80611e-06
5.71776e-06
5.92507e-06
5.87537e-06
6.09528e-06
5.88448e-06
5.64772e-06
5.84195e-06
5.87557e-06
5.60751e-06
5.63125e-06
5.60577e-06
5.86801e-06
5.99608e-06
6.02776e-06
6.08046e-06
5.6451e-06
5.51568e-06
5.77394e-06
5.7971e-06
5.52672e-06
5.71834e-06
5.87179e-06
6.01507e-06
5.97835e-06
5.84505e-06
5.78363e-06
5.58649e-06
5.71582e-06
5.8217e-06
6.04142e-06
5.93272e-06
6.03028e-06
5.79429e-06
5.94512e-06
5.91722e-06
5.78441e-06
5.60703e-06
5.45523e-06
5.56024e-06
5.69548e-06
5.41793e-06
5.51161e-06
5.79458e-06
5.79225e-06
5.74537e-06
5.65072e-06
5.76832e-06
5.73858e-06
5.93243e-06
5.87353e-06
5.78072e-06
5.53805e-06
5.43633e-06
5.36019e-06
5.30894e-06
5.34314e-06
5.45765e-06
5.68317e-06
5.59192e-06
5.66787e-06
5.67135e-06
5.4218e-06
5.35331e-06
5.44651e-06
5.61003e-06
5.69586e-06
5.80882e-06
5.87217e-06
5.83807e-06
5.79497e-06
5.86055e-06
5.79506e-06
5.86346e-06
5.94832e-06
5.90046e-06
5.50909e-06
5.82742e-06
5.53263e-06
5.577e-06
5.75098e-06
5.66883e-06
5.58581e-06
5.7287e-06
5.69208e-06
5.76939e-06
5.74188e-06
5.76455e-06
5.67562e-06
5.93253e-06
5.64646e-06
5.83565e-06
5.82151e-06
5.97554e-06
6.01749e-06
5.69799e-06
6.02572e-06
5.86762e-06
5.79274e-06
5.68957e-06
5.71882e-06
5.73122e-06
5.76852e-06
5.46627e-06
5.4621e-06
5.61032e-06
5.68627e-06
5.83885e-06
6.01245e-06
6.09402e-06
5.75447e-06
5.85619e-06
5.63241e-06
5.64452e-06
5.81657e-06
5.69276e-06
5.63299e-06
5.53563e-06
5.79932e-06
5.73442e-06
5.87305e-06
5.78402e-06
5.73578e-06
5.73442e-06
5.83759e-06
5.71485e-06
5.39846e-06
5.88748e-06
5.53021e-06
5.47014e-06
5.44641e-06
5.3598e-06
5.51025e-06
5.55888e-06
5.6916e-06
5.72977e-06
6.07929e-06
5.88932e-06
5.50502e-06
5.38702e-06
5.54038e-06
5.56634e-06
5.41948e-06
5.49475e-06
5.49388e-06
5.4064e-06
5.56741e-06
5.43682e-06
5.26893e-06
5.56653e-06
5.38451e-06
5.40088e-06
5.38383e-06
5.53892e-06
5.32483e-06
5.54997e-06
5.66719e-06
5.56353e-06
5.34169e-06
5.65479e-06
5.56712e-06
5.85125e-06
5.68714e-06
5.71291e-06
5.66002e-06
5.59298e-06
5.66544e-06
5.56188e-06
5.46956e-06
5.5707e-06
5.64093e-06
5.7816e-06
5.74721e-06
5.55917e-06
5.77172e-06
5.88099e-06
5.89087e-06
6.16706e-06
6.05507e-06
5.95181e-06
5.93931e-06
5.99889e-06
6.1937e-06
6.03618e-06
5.88903e-06
5.45784e-06
5.83178e-06
5.99278e-06
5.62999e-06
5.39739e-06
5.57661e-06
5.53738e-06
5.29519e-06
5.0097e-06
5.06927e-06
5.6886e-06
5.52924e-06
5.60325e-06
5.82509e-06
5.93049e-06
6.09392e-06
5.87779e-06
5.89281e-06
5.73016e-06
5.66787e-06
5.69906e-06
6.06815e-06
6.12095e-06
5.91567e-06
6.12047e-06
6.42601e-06
6.09596e-06
6.47948e-06
6.49508e-06
6.50612e-06
6.6525e-06
6.8324e-06
6.77573e-06
6.77437e-06
6.50767e-06
6.80566e-06
7.08563e-06
6.8542e-06
7.14434e-06
7.28374e-06
7.40813e-06
7.51895e-06
7.24538e-06
7.7499e-06
7.80028e-06
7.76133e-06
7.55799e-06
7.83147e-06
7.76385e-06
7.70524e-06
8.03985e-06
8.74161e-06
8.60628e-06
8.5529e-06
8.78143e-06
8.89816e-06
9.50431e-06
9.576e-06
9.52446e-06
9.66134e-06
1.05985e-05
1.08618e-05
1.09084e-05
1.12639e-05
1.1079e-05
1.13569e-05
1.17667e-05
1.23664e-05
1.30771e-05
1.29026e-05
1.31146e-05
1.3769e-05
1.41735e-05
1.47849e-05
1.4912e-05
1.48075e-05
1.53583e-05
1.52762e-05
1.53249e-05
1.54517e-05
1.61213e-05
1.55875e-05
1.60724e-05
1.63349e-05
1.66517e-05
1.65378e-05
1.71888e-05
1.69498e-05
1.74977e-05
1.72743e-05
1.74349e-05
1.7985e-05
1.86294e-05
1.87429e-05
1.88897e-05
1.89961e-05
1.88556e-05
1.90325e-05
1.9044e-05
1.89897e-05
1.87411e-05
1.87565e-05
1.88034e-05
1.89385e-05
1.94665e-05
1.99366e-05
1.91706e-05
1.91946e-05
2.00088e-05
2.06839e-05
2.00275e-05
1.99175e-05
1.96648e-05
1.91508e-05
1.8828e-05
1.91462e-05
1.94179e-05
1.94071e-05
1.945e-05
1.97003e-05
1.98267e-05
1.93236e-05
1.95035e-05
2.00134e-05
1.91089e-05
1.8869e-05
1.88047e-05
1.86759e-05
1.93796e-05
1.88018e-05
1.92602e-05
1.92953e-05
1.88494e-05
1.9011e-05
1.93608e-05
1.93523e-05
1.95242e-05
1.89723e-05
1.92426e-05
1.94323e-05
1.9351e-05
1.95139e-05
1.91025e-05
1.96439e-05
2.01131e-05
1.99929e-05
1.94948e-05
1.97395e-05
1.93935e-05
1.93653e-05
1.92557e-05
1.97829e-05
1.9193e-05
1.94212e-05
1.9628e-05
1.9551e-05
2.0074e-05
1.99347e-05
2.01608e-05
1.98866e-05
2.00276e-05
2.00468e-05
1.98931e-05
1.94212e-05
1.95956e-05
1.95616e-05
1.94874e-05
1.9567e-05
1.98134e-05
1.95617e-05
1.98406e-05
1.94844e-05
1.94913e-05
1.949e-05
1.99691e-05
1.98415e-05
1.99872e-05
1.98892e-05
1.9623e-05
1.96093e-05
1.90526e-05
1.94926e-05
2.00944e-05
1.99375e-05
2.02003e-05
2.00421e-05
2.01979e-05
2.00307e-05
1.96693e-05
1.97754e-05
1.99475e-05
2.00162e-05
2.00414e-05
2.02736e-05
1.96383e-05
1.96155e-05
1.96227e-05
1.96388e-05
1.96397e-05
1.96401e-05
1.99545e-05
1.99051e-05
1.97921e-05
1.98933e-05
1.96397e-05
1.91787e-05
1.91871e-05
1.92161e-05
1.93349e-05
1.95134e-05
1.95181e-05
1.92942e-05
1.89865e-05
1.91268e-05
1.99542e-05
1.98836e-05
1.99332e-05
2.01684e-05
2.02762e-05
1.97019e-05
1.93394e-05
1.91511e-05
1.86512e-05
1.87137e-05
1.92494e-05
1.94497e-05
1.99346e-05
1.96796e-05
1.94849e-05
1.8969e-05
1.92139e-05
1.90307e-05
1.89664e-05
1.85235e-05
1.91233e-05
1.88892e-05
1.90229e-05
1.88597e-05
1.857e-05
1.89707e-05
1.94769e-05
1.92016e-05
1.9141e-05
1.91715e-05
1.93196e-05
1.89913e-05
1.89823e-05
1.96263e-05
2.02093e-05
1.99432e-05
2.04627e-05
2.02999e-05
1.99145e-05
2.01089e-05
2.05083e-05
2.0577e-05
2.01947e-05
2.01254e-05
1.99748e-05
1.98808e-05
1.90346e-05
1.89057e-05
1.9276e-05
1.90572e-05
1.91635e-05
1.98692e-05
1.97896e-05
1.98866e-05
1.98971e-05
2.02398e-05
2.07416e-05
2.07781e-05
2.06261e-05
2.08692e-05
2.02656e-05
1.98694e-05
2.00153e-05
1.98507e-05
1.96838e-05
1.97715e-05
1.95229e-05
1.9653e-05
1.97338e-05
2.00187e-05
2.0007e-05
1.94834e-05
1.98215e-05
1.95118e-05
1.95571e-05
1.95799e-05
1.96649e-05
1.97495e-05
1.92873e-05
1.9604e-05
1.95194e-05
1.98829e-05
2.0211e-05
2.03978e-05
1.99654e-05
1.93225e-05
1.91153e-05
2.02811e-05
1.9895e-05
1.9441e-05
1.95922e-05
1.97803e-05
2.00002e-05
2.01942e-05
2.0073e-05
1.9578e-05
1.95803e-05
1.9039e-05
1.90865e-05
1.91097e-05
1.89441e-05
1.92716e-05
1.95035e-05
1.92765e-05
1.97749e-05
2.00674e-05
2.01177e-05
1.99317e-05
1.98204e-05
1.99448e-05
1.94641e-05
1.94009e-05
1.96547e-05
1.95954e-05
1.94774e-05
1.97954e-05
2.03324e-05
1.99959e-05
1.98767e-05
1.97807e-05
1.99465e-05
1.96892e-05
1.91657e-05
1.92373e-05
1.91106e-05
1.96377e-05
1.94599e-05
1.94924e-05
1.98599e-05
1.95354e-05
1.92126e-05
1.94695e-05
1.88022e-05
1.90689e-05
1.91461e-05
1.92693e-05
2.01349e-05
1.92867e-05
1.96614e-05
1.97706e-05
1.95439e-05
1.94458e-05
1.99049e-05
1.96928e-05
1.94212e-05
1.98919e-05
1.99629e-05
1.92932e-05
1.99254e-05
1.97531e-05
1.95625e-05
1.94474e-05
1.93838e-05
1.89438e-05
1.90695e-05
1.96735e-05
2.02182e-05
2.07083e-05
2.06096e-05
2.06427e-05
2.03811e-05
2.0187e-05
2.04781e-05
2.00069e-05
1.98106e-05
1.9885e-05
1.98377e-05
2.02422e-05
1.96833e-05
1.92375e-05
1.9428e-05
1.96173e-05
1.98055e-05
1.97253e-05
1.98801e-05
1.94836e-05
1.9894e-05
2.00214e-05
1.94504e-05
1.90975e-05
1.9865e-05
1.97145e-05
1.94271e-05
1.97526e-05
1.99095e-05
2.01925e-05
2.01664e-05
2.01191e-05
1.99004e-05
1.93192e-05
2.00854e-05
1.96753e-05
1.98272e-05
1.9853e-05
1.98106e-05
2.01559e-05
1.99905e-05
1.95812e-05
1.96216e-05
1.97559e-05
1.94932e-05
1.99675e-05
1.984e-05
1.98526e-05
2.02122e-05
2.00771e-05
1.96314e-05
1.96716e-05
1.98322e-05
1.99456e-05
1.95528e-05
2.02373e-05
2.0004e-05
1.97888e-05
1.99099e-05
2.03164e-05
1.99822e-05
2.01681e-05
1.97859e-05
1.96901e-05
1.96499e-05
1.94173e-05
1.93108e-05
1.9113e-05
1.93445e-05
1.88756e-05
1.88118e-05
1.88934e-05
1.89375e-05
1.93537e-05
1.9447e-05
1.92464e-05
1.91602e-05
1.92887e-05
1.94296e-05
1.94241e-05
2.01976e-05
2.01202e-05
1.96725e-05
1.94002e-05
1.93127e-05
1.95332e-05
1.98328e-05
1.96091e-05
1.93879e-05
1.94533e-05
1.93775e-05
1.9286e-05
1.98901e-05
1.98794e-05
1.9486e-05
1.98058e-05
1.93733e-05
1.96398e-05
2.00407e-05
1.97841e-05
1.92961e-05
1.85867e-05
1.87413e-05
1.88235e-05
1.9412e-05
1.94649e-05
1.9378e-05
1.97061e-05
1.97531e-05
1.95734e-05
1.92816e-05
1.96373e-05
1.99124e-05
2.02415e-05
2.03205e-05
2.02965e-05
1.99995e-05
2.00038e-05
1.96711e-05
1.97212e-05
1.94502e-05
1.9491e-05
1.95369e-05
1.9552e-05
1.98876e-05
2.00453e-05
1.96494e-05
1.98487e-05
1.98265e-05
2.01948e-05
1.97211e-05
1.941e-05
1.94685e-05
1.93891e-05
1.93118e-05
1.90758e-05
1.92988e-05
1.97128e-05
1.99395e-05
2.03759e-05
2.05581e-05
2.00101e-05
1.96364e-05
2.0041e-05
1.97377e-05
1.96569e-05
2.01185e-05
2.00697e-05
1.96881e-05
1.94898e-05
1.9547e-05
1.97972e-05
2.01404e-05
2.01285e-05
1.99857e-05
1.97432e-05
1.94134e-05
1.9258e-05
1.93736e-05
1.94217e-05
1.96202e-05
1.91949e-05
1.90459e-05
1.89215e-05
1.88438e-05
1.90111e-05
1.91043e-05
1.91455e-05
1.87689e-05
1.90045e-05
1.88498e-05
1.83511e-05
1.84229e-05
1.79617e-05
1.77072e-05
1.67324e-05
1.69698e-05
1.72152e-05
1.68605e-05
1.65623e-05
1.63085e-05
1.58613e-05
1.5689e-05
1.47961e-05
1.50145e-05
1.44205e-05
1.41268e-05
1.36903e-05
1.3636e-05
1.33573e-05
1.30079e-05
1.26585e-05
1.23395e-05
1.09194e-05
1.04554e-05
9.94112e-06
9.04522e-06
7.9484e-06
)
;

boundaryField
{
    sides
    {
        type            calculated;
        value           nonuniform List<scalar> 2(7.9484e-06 2.54752e-06);
    }
    empty
    {
        type            empty;
    }
}


// ************************************************************************* //
