/*--------------------------------*- C++ -*----------------------------------*\
  =========                 |
  \\      /  F ield         | OpenFOAM: The Open Source CFD Toolbox
   \\    /   O peration     | Website:  https://openfoam.org
    \\  /    A nd           | Version:  7
     \\/     M anipulation  |
\*---------------------------------------------------------------------------*/
FoamFile
{
    version     2.0;
    format      ascii;
    class       volVectorField;
    location    "0.0012";
    object      UMean;
}
// * * * * * * * * * * * * * * * * * * * * * * * * * * * * * * * * * * * * * //

dimensions      [0 1 -1 0 0 0 0];

internalField   nonuniform List<vector> 
1000
(
(-288.157 14.786 13.9341)
(-245.006 8.57236 2.50543)
(-224.862 7.40927 -6.21877)
(-199.687 14.5804 -6.96709)
(-189.528 43.2288 -11.4774)
(-163.098 21.118 8.07898)
(-147.678 5.49839 -0.845003)
(-144.946 21.8913 4.69433)
(-130.547 31.6629 -10.0616)
(-122.504 20.5035 -1.19696)
(-112.113 21.8593 -13.3265)
(-99.4707 -1.81907 -16.6059)
(-99.195 -1.31912 -14.4706)
(-89.7829 -9.37536 -27.4885)
(-86.8099 -24.0293 -10.1913)
(-74.6374 2.51108 -21.9177)
(-70.3493 -3.50086 -33.2606)
(-65.1806 6.93117 -22.6613)
(-63.7969 13.6264 -31.4015)
(-60.4524 -1.24435 -14.1966)
(-55.8223 -2.76212 -8.55668)
(-54.7074 -23.7242 -0.26046)
(-50.5112 -30.8688 2.3185)
(-44.7674 -29.5333 -0.281845)
(-40.6265 -21.3992 4.17102)
(-36.6011 -8.68357 6.91903)
(-36.0105 -3.216 -2.85013)
(-32.4352 -0.777511 -3.09177)
(-33.0909 -21.5084 -5.2546)
(-30.1922 -14.8104 -5.88426)
(-29.7565 7.54627 -21.0086)
(-27.9156 8.21325 -8.81775)
(-24.5613 -5.18273 -8.86447)
(-21.433 -9.82333 13.3409)
(-20.6701 -9.58847 5.65332)
(-20.093 -9.46741 1.10962)
(-19.2836 -2.17809 -3.27586)
(-18.6966 -12.0892 -18.7687)
(-16.8059 -11.4071 -11.3053)
(-16.1776 -3.24687 -14.2006)
(-15.4711 5.65375 -6.79288)
(-14.4145 -5.26619 -20.2231)
(-15.4192 18.6406 -37.4774)
(-15.4619 0.56293 -35.8237)
(-16.1467 4.61808 -22.5272)
(-14.5024 1.67861 -13.1664)
(-13.9012 9.07985 -14.5434)
(-12.0481 18.5076 0.207576)
(-9.95283 25.9641 3.56947)
(-9.79007 4.74406 8.62214)
(-9.75009 -1.12694 -1.14703)
(-9.02126 -1.42312 3.20691)
(-9.50488 3.77601 19.4537)
(-10.5361 -6.60115 17.3219)
(-12.6243 10.28 6.38572)
(-13.6256 0.00178718 10.5995)
(-12.0832 -14.6765 25.486)
(-9.83141 -1.70037 23.5792)
(-9.10351 3.34859 21.123)
(-10.5091 13.0006 10.6239)
(-9.83638 4.98566 1.87565)
(-10.273 7.63907 -6.38433)
(-9.86244 -18.2433 -6.99456)
(-10.0997 -7.90011 -0.647059)
(-11.4541 -0.486518 0.0121141)
(-10.0865 21.1531 15.373)
(-7.04913 17.107 20.8593)
(-6.2632 13.984 12.5372)
(-6.27825 15.8592 20.213)
(-5.49073 9.14572 17.8675)
(-4.50487 5.70745 16.9367)
(-2.88217 2.52716 11.4809)
(-2.45936 -4.24509 14.7558)
(-1.71925 -3.64554 7.28405)
(-2.61295 2.28222 16.0468)
(-3.0668 10.5346 13.8459)
(-4.53869 14.235 9.27269)
(-4.64909 6.74843 12.8666)
(-4.42817 -5.87292 -8.56887)
(-5.56568 -8.31719 -9.10278)
(-5.70844 -2.11643 -0.143499)
(-7.29421 1.23486 8.56221)
(-7.47053 -34.9066 28.3719)
(-9.34778 -17.6103 -0.0366716)
(-11.6021 -12.2066 20.4045)
(-13.2297 1.03036 22.0967)
(-12.6329 7.66331 4.36192)
(-11.2448 13.7109 9.18251)
(-11.8566 18.9537 12.0509)
(-11.0962 2.46212 18.2945)
(-9.91808 9.48523 16.3317)
(-12.0628 20.8455 -1.32303)
(-12.3525 10.6971 3.0626)
(-11.7509 17.4586 -14.6622)
(-10.8639 12.6184 -18.9756)
(-11.2315 12.4567 -32.2026)
(-11.0018 -6.07412 -41.5429)
(-11.1947 -12.7914 -13.708)
(-10.115 2.27817 -5.20002)
(-8.8456 -8.73032 -0.203315)
(-9.46168 -5.50683 8.24786)
(-8.35734 -23.92 16.3809)
(-8.50633 -34.4502 24.6581)
(-8.35871 -23.8779 13.3565)
(-8.0579 -28.9356 -2.81964)
(-7.94873 -18.9159 18.2748)
(-6.65139 -4.96465 23.5093)
(-7.02137 -8.40467 20.5469)
(-6.45293 -4.05859 11.2702)
(-5.62402 -14.181 15.325)
(-6.86535 -21.1486 23.6166)
(-5.29338 -22.2025 30.5729)
(-5.89046 -36.0175 32.8338)
(-6.03445 -18.8987 18.8155)
(-6.51474 -4.6789 -18.8728)
(-6.66769 -16.4292 0.00437888)
(-4.94387 -26.7951 -7.92153)
(-3.90511 -20.3889 2.17012)
(-1.87003 -9.08952 9.78893)
(-0.861721 -12.6747 7.42372)
(0.155173 -1.10417 10.9968)
(1.43514 2.02347 10.1962)
(0.516964 -0.301147 -1.03597)
(-0.431591 21.0672 5.91785)
(-0.760623 2.99712 14.0503)
(-1.62515 3.14724 16.2309)
(-1.65931 20.1345 17.4805)
(-0.753705 28.0442 7.85222)
(-0.247335 8.75251 -5.43892)
(0.835776 25.1473 -0.448692)
(1.1001 13.9447 11.4348)
(0.727986 22.9371 11.4741)
(3.08116 34.6727 -2.04672)
(3.34296 24.8085 -5.32738)
(2.04199 15.0051 -23.5933)
(0.523002 20.2947 -24.3877)
(0.597125 19.6111 -32.2397)
(0.886179 21.5753 -38.816)
(0.922952 11.2033 -8.02678)
(1.94699 19.4285 -3.23009)
(-0.195035 17.946 -8.28772)
(-1.31893 3.40762 -7.66576)
(-1.07913 -2.1407 -5.3484)
(-1.3272 2.15249 5.77653)
(-0.478673 -1.20214 2.83517)
(1.02557 4.07565 15.4838)
(0.616369 -1.63437 8.22821)
(-0.893835 5.42165 -10.5773)
(-0.764963 -6.66888 -2.20847)
(0.398867 -14.6541 -5.83104)
(0.691697 -15.4175 -1.93018)
(-0.379501 -0.545867 1.82554)
(-0.271357 -15.3335 -7.35405)
(0.839 -6.86011 -6.51758)
(-0.0810368 -9.15478 -6.81985)
(-0.384877 7.43185 -21.5707)
(-1.13225 9.57684 -17.7956)
(-0.060564 -21.0936 -15.1754)
(-0.979944 3.27937 -14.2755)
(-0.118792 23.237 -1.36341)
(-0.914094 12.8264 -5.73397)
(-1.55719 2.33425 -22.687)
(-2.70192 -16.8661 -5.4566)
(-2.47893 -33.2727 5.24557)
(-1.95784 -11.3077 2.42126)
(-2.65221 -22.9769 13.2346)
(-3.20308 -3.88157 29.7307)
(-4.82169 6.88326 16.9012)
(-4.84513 18.0088 17.0848)
(-3.77 12.7982 5.26371)
(-1.80417 6.32641 -16.6799)
(-0.292356 18.5932 3.74133)
(0.382333 18.585 1.11807)
(-0.126197 13.975 0.70328)
(-0.344942 16.736 16.0193)
(-0.414489 -6.26704 15.9611)
(1.2022 -6.51014 27.2963)
(1.24304 -22.0411 25.9431)
(0.643577 -12.0814 32.6314)
(0.539431 -0.837302 18.1744)
(1.73958 -8.41818 13.9829)
(-0.199707 13.2971 -10.707)
(-0.209073 15.2863 -21.3224)
(-0.95871 2.44097 -8.78142)
(0.467889 17.5143 -8.48856)
(2.81591 15.0956 7.03423)
(2.32462 13.9689 1.87756)
(2.78646 3.65268 -0.872984)
(1.95327 9.86533 29.0645)
(2.21228 13.1105 16.7099)
(2.69897 8.15809 17.4744)
(4.74397 2.14879 27.2727)
(6.19598 2.10661 26.2098)
(6.94027 4.71823 32.1744)
(6.35263 6.7401 24.0125)
(6.50413 22.3389 16.7491)
(7.19843 30.9905 28.3143)
(5.68512 18.6079 15.2589)
(3.18143 13.6449 7.69834)
(2.81058 6.16996 2.46229)
(0.438237 -12.0181 -3.20691)
(0.529374 -9.60031 -16.8386)
(-0.308098 -9.17043 -18.5666)
(-1.63049 -12.9473 -10.9683)
(-0.690557 1.81921 -17.2064)
(0.508903 19.7863 -3.97918)
(0.720493 -3.39883 -3.29474)
(1.46986 -19.7249 -4.86428)
(1.16184 2.39084 6.82224)
(1.82441 11.09 30.4587)
(1.58389 13.9995 37.0475)
(2.19633 7.71933 32.9993)
(3.63407 24.6863 29.2849)
(4.18092 24.3179 7.47625)
(5.03376 20.4212 -8.87344)
(6.78823 6.55251 -1.34407)
(6.42853 1.26183 4.48342)
(6.25274 14.8068 18.4762)
(5.56774 8.2126 18.1154)
(8.83047 2.51006 30.8656)
(9.89537 15.9394 16.5211)
(9.77636 31.5189 14.1046)
(9.77682 -1.86541 -9.10174)
(9.69385 -28.0592 0.687058)
(10.1478 -9.8601 3.67414)
(9.80831 5.41296 1.93746)
(10.5274 1.96714 19.9279)
(10.3311 2.23625 17.0142)
(7.89598 8.263 16.9403)
(8.21081 17.5257 2.42538)
(8.25465 17.0808 -4.6764)
(10.6725 25.1786 -8.47138)
(9.76339 32.2634 9.57142)
(9.01098 10.6363 14.2844)
(9.07327 8.88915 9.77724)
(9.82774 10.2786 1.74472)
(9.89976 6.48827 -14.4016)
(9.70429 15.797 -3.48017)
(10.4382 12.5856 -17.4986)
(7.21089 18.5419 -14.7548)
(7.27883 15.3403 4.46177)
(6.65354 5.34973 -1.06545)
(6.59296 2.67646 9.10599)
(3.99591 -1.58857 6.67374)
(2.96553 -26.9023 18.3385)
(3.16629 -40.0424 11.266)
(3.44305 -48.4076 24.7485)
(1.9144 -39.0012 31.2419)
(3.40475 -22.8931 12.2515)
(3.78909 -0.566354 8.28396)
(2.61225 2.01433 8.03529)
(3.16 -5.15533 31.2756)
(2.37911 1.92422 13.0136)
(1.95285 0.213806 6.9888)
(0.995083 -1.94737 -4.87184)
(0.923626 10.1765 -5.47149)
(1.19784 2.51239 -13.6213)
(1.83427 1.65553 -2.78263)
(1.12683 -11.7986 4.9397)
(0.425155 -24.411 23.2984)
(0.343468 -10.8173 14.416)
(1.08521 1.7095 13.3692)
(1.04837 7.67506 -0.628717)
(-0.280007 -1.71941 -10.1285)
(1.60696 5.50276 5.69526)
(0.495597 29.444 -10.5243)
(1.07334 24.6711 -16.1308)
(1.30577 1.30367 -9.54206)
(0.873995 -6.39366 -7.06948)
(0.000738833 -5.38886 3.44513)
(-1.38072 -6.16674 -4.13703)
(-2.11246 -3.44299 -7.64145)
(-2.91038 -2.65788 -3.82473)
(-2.24205 -12.5313 2.51493)
(-4.11125 5.36092 7.91382)
(-5.14787 0.754033 -22.1826)
(-4.74376 0.273664 -50.9516)
(-4.14881 -7.94282 -32.3195)
(-4.34002 -5.83824 -33.4925)
(-4.5682 -12.6766 -12.5472)
(-5.04593 -4.67057 -7.39817)
(-8.04781 12.0133 -13.7353)
(-8.557 9.17848 -5.00699)
(-9.04583 -2.37139 -21.4087)
(-9.17737 11.1909 -28.6114)
(-10.0129 1.44215 -24.0981)
(-9.89987 13.2611 -6.97759)
(-9.37864 12.4542 14.9359)
(-9.32537 -8.5916 -1.47862)
(-7.26593 -4.53123 -16.993)
(-7.64321 -7.52592 -12.4947)
(-8.64871 -5.44082 -10.7608)
(-7.91549 -0.478084 11.8829)
(-6.8464 -9.21825 -1.39681)
(-5.75261 -4.69505 -15.7862)
(-6.6983 -1.89798 -23.9706)
(-6.8395 1.66802 -27.0204)
(-6.85112 -18.2563 -28.8547)
(-7.46897 -37.7954 4.65389)
(-7.11473 -33.0702 9.00954)
(-6.81825 -22.3415 -0.539007)
(-5.30681 -16.6587 14.1572)
(-5.58779 -2.63371 9.82157)
(-6.4082 -13.4366 5.35939)
(-5.58132 -6.04177 -14.3429)
(-4.70643 -24.2562 -10.3034)
(-5.34732 -15.3444 -0.0224729)
(-5.20356 -22.0905 -11.345)
(-6.30056 -30.5788 -28.4279)
(-6.84407 -22.5698 -29.3878)
(-4.18608 -6.39779 -18.6675)
(-4.06495 -16.2964 -15.5996)
(-4.28213 -9.5219 -4.49186)
(-3.44027 -12.3455 5.83985)
(-3.20438 -13.6948 -12.5111)
(-4.32484 -10.1852 -13.0438)
(-6.20056 -22.4026 -15.3479)
(-7.09473 -41.6666 -2.8603)
(-6.75926 -30.7825 1.51085)
(-6.65395 -31.7806 15.9487)
(-8.24987 -31.4178 8.38121)
(-7.99436 -11.2038 -20.5581)
(-5.79893 -17.5077 -12.5417)
(-5.38686 -24.9723 -12.3746)
(-4.82966 -16.5569 -22.1537)
(-5.33914 -2.39175 -7.05981)
(-3.97194 -6.28209 -12.7041)
(-4.79947 -5.29671 -6.49979)
(-5.54175 8.04131 -14.4935)
(-4.44069 14.1489 -11.3965)
(-2.94561 10.9334 18.9804)
(-3.13797 26.2345 30.5574)
(-3.49442 21.7637 19.4776)
(-3.31758 23.9114 15.725)
(-3.68855 2.37155 32.1557)
(-4.55055 3.21936 5.48714)
(-4.32346 9.94377 -23.5243)
(-4.87126 -22.1077 -3.23043)
(-4.89249 -21.6311 -2.96946)
(-4.80086 -12.7752 2.26126)
(-3.90285 -6.71489 -1.70704)
(-5.7453 -10.9938 2.97502)
(-5.95231 -23.9574 1.38565)
(-4.88635 -29.9811 -2.00961)
(-4.06853 -34.5772 -7.56391)
(-5.44958 -15.1149 -19.9143)
(-5.27102 1.27854 -16.6225)
(-4.09671 10.768 -6.08017)
(-3.98554 4.40868 -20.3704)
(-4.16176 -6.5244 1.22144)
(-4.03904 -9.49909 -20.4091)
(-4.08499 -6.55811 -11.3483)
(-4.34294 1.51474 -24.0547)
(-3.68399 17.6905 -26.9522)
(-3.53525 21.4183 -6.48634)
(-5.65758 22.3031 -16.6837)
(-6.42368 18.1177 -19.0558)
(-7.34599 11.8265 -12.502)
(-6.80718 18.3405 -5.49958)
(-7.03988 3.61216 0.74563)
(-5.44051 -18.6077 18.0271)
(-5.44488 7.35118 25.7474)
(-4.90956 1.73809 18.7751)
(-5.16984 -8.62293 37.806)
(-4.58184 -5.02532 19.8271)
(-3.62286 -4.57513 32.4092)
(-2.51906 -21.3686 19.7843)
(-1.91122 -11.6933 32.1708)
(-0.29065 0.555779 41.2323)
(-1.17591 -12.3234 34.6372)
(-1.31842 -21.2891 22.023)
(-0.314405 -26.7028 21.7329)
(-1.6269 -22.6797 34.1512)
(-3.62655 -35.8023 41.6445)
(-4.2195 -27.8309 29.6937)
(-3.61603 -22.5184 30.8354)
(-2.68537 -29.948 28.6174)
(-2.19877 -14.3224 11.2219)
(-0.493786 3.19577 27.2606)
(-0.767888 8.35241 28.3265)
(-2.30526 -6.30195 10.79)
(-2.45776 -3.13114 8.4181)
(-1.25166 11.1239 15.5147)
(-1.19631 15.9912 10.13)
(-2.5375 -12.9965 4.51301)
(-3.96288 11.6395 13.8256)
(-4.46237 6.99664 6.2263)
(-4.18817 -10.3354 17.131)
(-4.26484 -4.02091 20.3797)
(-4.57626 9.85999 20.9987)
(-4.29651 6.40471 11.4487)
(-4.65887 14.948 7.23536)
(-4.49271 13.8261 8.98752)
(-1.75885 7.35478 2.88512)
(-0.272525 14.3538 3.42883)
(-0.956346 16.6653 4.34384)
(-1.22681 0.6487 -1.4179)
(0.297711 1.23422 1.47352)
(1.73362 13.4368 14.4889)
(0.665813 4.17741 25.6894)
(2.87481 -15.9025 6.03844)
(5.25527 -12.7109 10.2519)
(6.42119 -2.9378 14.3107)
(6.61209 -18.5197 28.4548)
(6.80311 -15.4062 10.6882)
(8.88483 3.16544 5.08879)
(10.7595 -5.80551 17.8266)
(11.024 -12.9387 -2.53662)
(10.9477 -8.25428 -3.83969)
(11.5219 -4.17329 -15.8589)
(11.7442 -2.13407 -22.2608)
(12.7612 -11.2539 -23.8304)
(13.0731 -6.91305 -18.412)
(12.5311 -10.7039 -14.8584)
(12.619 -10.5644 -14.8636)
(11.1343 -16.3462 -23.9062)
(11.5438 -4.79001 -10.6854)
(11.1476 -8.57331 -11.5394)
(10.458 -4.42554 -13.5482)
(10.6138 -0.74313 -0.652687)
(11.7148 0.791596 -0.782379)
(12.2913 6.23149 15.0839)
(10.7813 14.9312 20.0014)
(10.0326 -6.8618 7.09837)
(9.8215 -12.2597 3.06359)
(9.0982 -11.3799 0.494516)
(6.93755 -6.54228 -10.778)
(7.52872 -13.4771 -20.2873)
(9.24821 -9.33493 -22.4368)
(9.29572 -8.75079 3.36032)
(9.93042 -7.49116 -20.2494)
(10.2137 5.05077 -22.6754)
(11.8882 9.67434 -8.80952)
(10.4385 11.0518 -0.783337)
(9.05463 28.801 8.4046)
(7.81545 2.09863 -8.12362)
(9.15953 2.9937 -0.552206)
(8.93354 0.882743 0.708845)
(10.727 5.9983 15.8462)
(11.8918 19.9665 10.2408)
(10.2891 7.6434 24.2409)
(10.4022 11.5701 28.252)
(9.16035 16.4609 32.3405)
(9.19268 21.9901 26.7779)
(7.63203 13.973 14.1332)
(5.0611 13.6986 -0.203182)
(2.38774 6.8266 6.03151)
(-0.599099 13.7401 -7.10629)
(-3.83278 21.7193 -11.9855)
(-9.90598 9.23152 -3.97645)
(-13.8121 20.2408 3.13834)
(-18.7269 13.4631 1.63295)
(-22.1657 28.7864 -1.61763)
(-22.7998 19.6482 -2.7518)
(-24.2228 2.40583 8.85832)
(-27.9723 0.247989 8.33217)
(-31.5486 19.8019 5.68198)
(-34.7663 13.848 0.688727)
(-41.649 9.0919 15.5809)
(-44.5296 13.6267 17.1252)
(-48.6271 7.08034 -4.44475)
(-52.2049 -4.91869 13.8369)
(-55.9545 -4.33577 8.51385)
(-58.4882 -21.6405 5.02313)
(-60.7527 -26.5069 13.2686)
(-64.0267 -13.8839 26.296)
(-70.0094 -7.82281 -1.6216)
(-71.8811 -1.59647 3.77303)
(-72.302 1.55957 19.4226)
(-80.5489 -2.39781 24.3985)
(-82.3819 4.47327 14.4154)
(-86.4596 -1.70753 23.9528)
(-88.0187 13.9568 19.2574)
(-89.5084 18.6536 21.213)
(-95.4624 13.5171 18.9691)
(-94.1785 15.3876 3.6488)
(-98.3014 4.75162 -2.57362)
(-102.55 12.6726 -1.48572)
(-107.731 5.17059 11.6561)
(-109.259 12.0278 12.6957)
(-114.62 15.2304 14.0643)
(-119.601 -1.52127 17.2205)
(-118.614 0.695164 11.7484)
(-113.128 -5.4176 -3.8999)
(-120.676 -4.11541 -11.6541)
(-126.034 -12.0579 -3.04945)
(-129.018 -13.9291 -6.52296)
(-132.653 -1.61012 -11.9918)
(-128.244 -8.27097 -9.45334)
(-133.691 -8.0256 -14.4378)
(-140.72 -12.8592 -17.3145)
(-144.334 -13.5162 -5.97179)
(-137.391 -7.10712 -10.6353)
(-139.145 -9.51 1.09757)
(-144.806 1.3637 0.583353)
(-145.13 0.38863 -9.58023)
(-153.687 -9.94522 -9.83878)
(-155.056 0.267655 -3.16087)
(-153.726 7.61773 -3.11382)
(-151.378 7.68459 -8.82377)
(-143.42 -0.348507 -10.3584)
(-142.215 -3.09507 -6.18457)
(-136.121 12.5549 -1.89803)
(-124.229 8.00391 -1.76672)
(-116.637 13.4645 -9.62033)
(-109.006 6.29183 -12.584)
(-103.815 5.81969 -1.1828)
(-99.9763 -3.71249 2.43836)
(-92.5725 9.85721 -1.06397)
(-89.2779 2.86593 6.2957)
(-85.3254 -16.8629 4.10913)
(-81.1543 -13.472 -6.45614)
(-74.2329 -16.9489 -13.5433)
(-73.7143 -9.6299 -4.55803)
(-67.5095 2.17215 2.58569)
(-63.5835 4.5683 4.24284)
(-58.8781 3.00202 2.23423)
(-55.3155 5.61053 11.1831)
(-50.1323 9.53764 -3.3396)
(-47.9623 -8.58254 -8.91893)
(-43.5735 -10.0822 5.77306)
(-41.0223 -11.4341 -5.36379)
(-37.4468 -15.3215 -17.142)
(-33.0994 -17.9871 -12.7474)
(-29.4938 3.89702 -11.9912)
(-27.393 3.20209 -8.17711)
(-25.9719 9.12349 -7.75524)
(-24.3213 -7.02519 -3.93508)
(-22.5676 -6.15162 -0.616612)
(-20.882 -18.899 7.53449)
(-18.6588 -15.4362 10.6927)
(-17.0444 -19.1677 16.4713)
(-15.4557 -21.6438 11.9952)
(-13.4724 -1.19927 16.0337)
(-12.022 11.2194 -0.900677)
(-10.0624 -1.0917 -7.59573)
(-8.50586 -2.51148 4.1056)
(-7.0267 1.54349 10.485)
(-7.58045 -3.22329 0.0290994)
(-6.89675 -1.68535 -3.8806)
(-6.07748 -1.94192 -4.60532)
(-5.62909 -11.1798 2.23328)
(-5.26775 1.58441 1.45728)
(-4.10363 4.30171 5.21688)
(-2.88036 7.52371 0.969633)
(-3.02241 9.88039 3.05692)
(-2.61435 10.685 -0.889434)
(-2.72973 8.34559 -13.437)
(-1.5028 6.05022 -22.0367)
(-0.568031 7.55419 -14.3131)
(-0.134679 15.1305 -6.30565)
(-0.225639 12.5914 -6.92824)
(0.0337693 10.7804 -8.21768)
(0.2188 3.88033 5.62031)
(0.197299 5.75985 7.37862)
(0.431639 9.82181 3.66881)
(0.53013 5.86674 -12.5481)
(0.646677 12.662 -1.08083)
(-0.176174 9.32432 4.17849)
(-0.655351 8.03086 -1.69565)
(-0.639617 -4.8325 7.20407)
(-0.212367 -6.39164 26.8087)
(0.0744328 -7.13353 29.9942)
(0.388515 4.12519 23.3216)
(0.860425 -1.29128 24.1171)
(1.91522 -0.684021 6.10085)
(1.79949 4.83691 8.18099)
(2.04791 -11.9749 8.60587)
(0.851433 -20.5755 4.37287)
(0.537978 -11.0994 15.4047)
(0.53265 -9.80512 18.1509)
(0.735624 -11.2768 -4.16199)
(0.636497 -18.6343 -14.354)
(0.430835 -10.4403 -20.0658)
(0.204179 -7.80149 -13.6239)
(0.514026 6.58102 1.13222)
(0.534657 15.7404 8.04712)
(1.08987 6.29272 14.8798)
(1.46016 -2.50191 11.0348)
(1.35183 9.16643 17.7553)
(2.61162 0.695825 15.9232)
(2.6717 2.28875 6.23636)
(3.74561 6.40632 -1.7318)
(3.55537 -0.400936 -1.1159)
(3.35821 2.17319 -6.98615)
(2.67431 4.50369 -21.3593)
(3.03117 -2.54586 -17.6031)
(2.7183 -8.99215 -25.511)
(2.75634 -2.86139 -19.3836)
(2.0863 5.43938 -22.6792)
(2.11682 2.80984 -7.6146)
(2.3562 9.00239 -7.69144)
(2.94376 2.91386 9.50067)
(3.30223 18.7309 5.24863)
(2.34441 12.1359 6.00084)
(2.01506 5.20511 1.06097)
(1.87862 6.97784 -6.81098)
(1.83401 4.67146 -22.4039)
(1.96541 9.14658 -16.5067)
(2.51778 8.68832 -10.0274)
(2.83034 -1.39953 -16.1569)
(2.67134 -12.6668 -10.6995)
(1.46722 -8.88391 0.414751)
(1.90295 -8.13976 0.959559)
(1.59363 -7.19734 16.7139)
(1.35029 1.49814 21.141)
(1.81343 8.76068 22.1904)
(1.11709 0.827428 21.0024)
(0.856224 0.469226 18.0539)
(0.621733 -6.55729 0.782411)
(0.979729 -2.6945 3.77892)
(2.16346 3.69689 -0.627641)
(3.37154 10.1884 0.756168)
(3.00814 10.5334 -7.5522)
(2.40412 14.5286 -7.13124)
(2.21334 10.1737 -9.70186)
(1.87018 5.68133 2.05658)
(2.01334 5.63136 -2.69891)
(2.80234 9.06287 -12.2667)
(2.67454 2.04604 -10.1475)
(3.67045 2.53427 8.59596)
(3.84993 0.644957 -2.46304)
(3.00159 7.93599 -10.8977)
(3.17553 -0.312226 6.13589)
(3.42138 -4.30837 7.12019)
(3.50201 -1.71998 5.23282)
(2.44569 -5.83118 9.45392)
(1.90089 -8.23865 16.6026)
(1.61778 -3.83558 15.9067)
(2.21145 -1.6556 -4.33058)
(1.6421 -5.4693 0.0797791)
(1.71652 7.34156 4.99612)
(0.223348 11.4852 7.16808)
(0.299971 5.16299 -6.30174)
(0.500336 2.56552 -17.4631)
(0.146211 0.578043 -9.45539)
(0.477514 6.29564 -10.8396)
(0.187524 1.49918 -5.96626)
(0.0735457 -5.31167 -7.77389)
(0.368702 1.20768 -2.32119)
(1.3409 -5.64974 -4.46458)
(2.81807 -3.08129 -8.93594)
(3.20703 -0.570652 -5.08333)
(3.13562 -6.92583 -5.94793)
(2.87325 -1.92426 -16.3858)
(2.94245 -2.15103 -19.8393)
(1.95192 -4.53344 -24.8666)
(1.66457 -8.83292 -19.7864)
(1.53234 -19.7913 -7.34413)
(1.48054 -19.6097 -11.0025)
(1.12313 -27.3078 -14.0096)
(0.720886 -10.7992 8.33476)
(0.960346 -13.7296 -9.72451)
(1.79933 -5.35751 -1.027)
(1.69532 -9.40689 22.7187)
(2.61957 -6.07309 33.2447)
(2.78695 -3.73537 23.2994)
(3.20073 -9.53472 17.5696)
(3.86663 -8.53614 10.4404)
(4.09399 -0.00376928 12.2732)
(3.78424 2.97013 9.64656)
(3.31998 12.2459 1.00392)
(3.10316 18.7604 -4.79045)
(3.52689 10.6008 2.64888)
(4.25489 10.6978 4.15995)
(5.75856 11.501 1.89831)
(6.01812 2.8145 18.8891)
(6.18729 6.54151 25.2286)
(6.91035 7.097 23.8234)
(7.30466 1.47346 14.7305)
(6.76877 -1.30088 7.60913)
(5.55175 4.57685 5.27537)
(4.7596 13.4868 -0.152222)
(6.03321 18.378 -4.28512)
(7.01665 11.3849 -17.3935)
(7.50742 11.2649 -22.5544)
(7.88064 15.3559 -13.5124)
(8.25238 -9.05098 -6.24052)
(8.72628 -19.2737 4.86256)
(8.13631 -9.63797 -3.32501)
(7.79981 -15.2067 4.06158)
(7.99895 -7.57747 -12.6946)
(6.67271 -6.74851 -3.19387)
(5.8982 -4.187 -7.21991)
(5.91854 2.19785 1.39238)
(6.38374 -3.37056 -8.64426)
(7.03737 11.1968 -10.3823)
(6.63745 6.29265 -3.35412)
(6.309 -1.03984 4.94687)
(5.67109 -3.15533 -2.09812)
(6.49911 -4.83763 -3.6289)
(7.21134 0.264688 -5.47859)
(7.57964 3.14021 -17.4305)
(8.34728 -4.386 -13.1114)
(8.83857 -1.3796 -15.8138)
(9.93144 1.79737 -9.94391)
(9.84675 9.00858 -8.8002)
(9.3952 13.1469 12.4897)
(8.2867 6.63867 14.7675)
(8.95379 1.78358 10.6726)
(8.8725 12.0556 9.39998)
(8.85176 -0.255503 1.51455)
(7.85128 2.53886 -3.74179)
(7.05143 -6.21379 4.07996)
(5.29516 7.48552 -2.0457)
(4.39091 7.8772 -6.64258)
(4.67387 5.17404 -11.7967)
(4.07799 7.35394 -19.0082)
(3.59067 -1.65801 -13.198)
(3.79703 0.424237 -11.3805)
(4.00431 -18.727 -12.5784)
(4.11098 -31.1607 -5.56416)
(5.41331 -20.1453 -1.83802)
(4.69366 -11.7959 -7.84042)
(4.36561 -3.98154 -1.20916)
(4.41004 3.17237 -1.28013)
(3.59541 -2.45779 0.212222)
(4.12337 2.79844 -0.350935)
(4.12619 -1.78417 4.48257)
(4.48235 -9.78819 12.149)
(4.22268 -5.57472 11.2602)
(3.1841 -3.47168 19.8126)
(3.12343 3.85381 18.2299)
(2.72785 11.3261 3.25398)
(2.48757 17.2174 -5.18792)
(2.44968 18.6554 7.02379)
(2.42798 0.308009 3.61193)
(1.80367 0.415074 4.07495)
(1.44352 0.62551 8.86495)
(1.24382 -2.74442 15.1188)
(0.834639 2.35875 16.5563)
(1.1186 -0.229001 6.36657)
(2.13046 -7.77669 4.56716)
(2.8023 -1.00337 2.54407)
(2.53503 7.541 2.64124)
(2.96823 8.66315 -6.8805)
(3.24673 18.9574 -16.8728)
(2.93995 17.7664 -11.1259)
(2.18136 16.4493 -6.58229)
(2.0209 12.8272 -9.19126)
(1.85472 -8.0951 -8.6545)
(3.17133 -13.5764 -19.113)
(2.35598 1.61087 -16.7102)
(2.49734 10.1612 -3.73441)
(2.97907 -3.92099 4.51529)
(2.35003 -6.1673 5.35652)
(1.99177 -22.0191 11.9912)
(0.978238 -16.7544 0.982796)
(0.426343 -10.1571 -0.758882)
(0.522663 -9.95323 11.5141)
(0.148157 1.70831 13.5693)
(0.0808016 11.0206 5.02012)
(0.0678049 20.2229 -2.1055)
(0.478583 20.7069 8.21592)
(1.00407 4.74341 4.93964)
(0.18765 -5.0451 5.86261)
(0.500011 -2.75248 7.02078)
(-0.105288 -1.63735 1.65374)
(0.789689 -1.45345 1.50875)
(0.568921 2.37108 2.12216)
(1.12405 0.00613733 -1.20404)
(0.501252 -5.98016 -3.49944)
(0.831124 -0.983437 1.60236)
(0.249659 -0.439371 -15.8219)
(-0.0129529 0.0912109 -10.7435)
(-0.221056 17.2292 4.48358)
(-0.242076 18.656 7.253)
(-0.660819 13.3687 -2.62328)
(-0.514505 15.2587 -10.4312)
(-0.0326255 2.22474 -4.7529)
(0.36303 4.31805 -3.3376)
(0.735356 -11.6407 -6.48682)
(1.31008 -12.686 -9.07178)
(1.36974 -7.4209 -2.20327)
(1.14108 -0.963597 -2.05499)
(0.433114 -4.1062 -7.15876)
(0.954444 -12.346 -9.30785)
(1.77637 -22.2905 -2.21852)
(1.52421 -13.8565 -6.68421)
(2.276 -11.7804 1.97785)
(3.5616 -1.89199 3.38146)
(3.23639 -7.45614 -15.0107)
(3.43877 -3.2816 -11.4718)
(3.99496 -0.446295 -10.0827)
(4.39752 8.18126 -8.95701)
(4.38213 15.5609 -5.93141)
(3.83882 8.11633 -4.57587)
(2.68411 1.35751 5.06302)
(1.86644 3.15467 12.9621)
(2.07977 -6.72746 6.85124)
(2.29858 -7.48706 -2.04217)
(2.89535 -4.25865 -13.7152)
(2.92932 14.9178 -3.68689)
(3.27032 8.29477 -7.11486)
(3.8809 -0.925628 -3.3565)
(3.62515 -5.75099 -1.26966)
(3.19476 -0.0525628 2.41073)
(3.42159 6.23276 3.1068)
(3.6574 -0.0317912 -7.36139)
(3.88487 -1.77797 -6.28059)
(3.76324 -1.50075 6.27953)
(4.03917 -8.5066 -6.66498)
(2.70647 -4.27574 -10.6481)
(2.43615 4.5964 -6.48158)
(2.50504 5.45204 -13.0514)
(2.21158 6.40016 -22.8105)
(2.5126 7.0581 -4.28487)
(2.41769 2.52312 -2.37621)
(2.54583 6.07127 -16.4666)
(1.82211 7.93092 -16.3484)
(1.47519 -12.045 -5.4524)
(1.83406 -17.8388 -9.96852)
(1.16388 -5.85773 -4.43725)
(0.592186 -14.4205 -3.89484)
(0.373895 -10.3588 0.783099)
(-0.853768 -12.9871 1.55049)
(0.0705529 -15.111 5.29804)
(0.152538 -18.2351 -2.76162)
(1.15178 -14.0131 0.0188419)
(1.09647 -15.077 3.12246)
(1.17659 -10.4794 1.31745)
(1.03377 -15.9185 4.35952)
(1.09213 -1.50687 14.7461)
(1.86744 3.38255 27.1907)
(1.38441 14.4983 29.521)
(1.00586 12.3766 37.1943)
(0.673783 10.1476 31.3543)
(0.42447 12.8961 31.6372)
(0.768739 5.90036 15.8508)
(0.176423 1.44706 13.891)
(-0.688288 1.36217 6.4238)
(-1.00879 0.557384 2.26005)
(-1.83277 2.47526 1.45918)
(-1.97143 -2.27683 2.39202)
(-2.48058 2.50687 -8.46585)
(-3.44976 1.4199 -10.2428)
(-3.38289 -4.89792 -12.8548)
(-3.31155 -0.694678 -9.39384)
(-3.33312 4.88579 0.203276)
(-3.61129 4.16874 -2.70575)
(-3.31396 2.50361 -9.75836)
(-2.23358 8.79288 6.2821)
(-2.81987 1.46676 -1.19253)
(-2.46112 16.1472 -14.3254)
(-1.44621 5.01173 -8.23866)
(-1.56145 -12.7473 -6.45773)
(-1.48845 -19.676 -15.0301)
(-2.34999 -24.5608 -12.9915)
(-2.40364 -13.2282 -2.55619)
(-3.43456 -5.8896 -5.19723)
(-3.96336 -5.83686 -8.51405)
(-3.53138 -6.671 -8.56868)
(-3.23146 -12.9371 0.0870769)
(-2.80801 -19.3177 -4.15033)
(-2.29964 -4.44002 8.94741)
(-2.03097 -12.6347 10.7262)
(-2.3411 -8.16308 9.68633)
(-1.75818 -5.82351 9.81064)
(-1.83226 -11.8814 1.62559)
(-2.53156 -0.286279 -0.466117)
(-3.87443 -9.73705 -11.9445)
(-3.27616 -7.90788 -5.33266)
(-4.58844 3.57455 -3.62489)
(-4.40023 13.0668 5.80808)
(-4.39183 7.71337 5.28711)
(-4.94855 9.44698 4.72508)
(-5.09922 12.4843 1.01939)
(-3.98942 8.99551 -1.61423)
(-3.38639 8.98047 10.2254)
(-3.41809 5.16097 17.1986)
(-2.47451 -1.71009 7.88743)
(-1.3293 -20.0028 6.09152)
(-1.4761 -10.4331 8.56267)
(-0.971221 -11.0272 -4.54239)
(-0.499639 -10.6038 -10.3976)
(-1.50972 -2.95521 1.48138)
(-2.0092 -2.69026 -4.13222)
(-1.97968 -9.50225 -14.1895)
(-2.64828 -10.1428 -5.4298)
(-2.54488 -8.39935 -9.9545)
(-2.89797 -3.91289 -14.1811)
(-2.71538 -11.067 -11.3528)
(-2.6565 -16.8517 -18.9821)
(-3.12507 -15.6594 -16.1271)
(-2.64133 -8.29001 -2.49623)
(-3.00458 -1.24564 3.6497)
(-2.9036 5.03309 3.92545)
(-3.06745 1.81203 8.48569)
(-2.14341 -8.77634 8.57447)
(-1.48412 -5.89544 14.4629)
(-1.06991 -10.9209 24.7245)
(-1.25771 -17.433 15.2525)
(-2.00608 -13.8555 9.70553)
(-2.88645 -10.2399 -6.35034)
(-2.56331 -11.7996 -10.7972)
(-2.51125 -0.473592 -5.82741)
(-1.97544 2.70008 0.522061)
(-2.0324 -10.7409 6.74888)
(-2.03868 -15.7975 15.834)
(-1.97714 -14.0482 14.2927)
(-1.53724 -24.1879 22.4206)
(-1.53326 -20.0071 21.2566)
(-0.547889 -15.8994 4.59947)
(0.0178881 -9.7289 2.00513)
(0.0544503 5.96981 1.50039)
(0.840427 13.1116 3.78503)
(0.159608 8.0179 -1.36591)
(0.00732923 8.11416 -11.3541)
(0.806916 -0.947475 -21.0651)
(1.0179 5.5557 -10.0158)
(0.906469 7.40443 -6.89317)
(0.746522 1.66503 5.06194)
(0.259753 -5.98513 6.16256)
(-0.0710306 -15.3075 0.741328)
(0.477562 -17.6872 0.36198)
(0.632616 -3.81605 -3.84668)
(0.0797213 2.04775 -4.89263)
(-0.103302 1.9619 -0.178851)
(-0.0267534 -9.1169 -4.55014)
(-0.382541 -7.99312 8.80725)
(-0.168546 -5.30185 -6.72827)
(0.100779 -3.5271 -25.1254)
(0.157901 -1.76221 -11.9104)
(-0.87763 12.2173 -9.73189)
(-0.929813 14.4246 -10.8806)
(-0.211165 10.9014 -16.9469)
(-0.625637 12.1229 -16.9017)
(-0.660199 10.3714 -16.7801)
(-0.43345 22.4968 -5.9851)
(-0.345501 14.6573 -10.086)
(-0.989925 4.70609 -6.95796)
(-0.703521 1.03814 -5.35969)
(-0.445244 -1.95972 -12.1542)
(-0.647873 -11.369 -6.22517)
(-0.117125 -20.6946 -11.5435)
(-0.647093 -9.9855 -7.05607)
(-0.179984 -7.74587 -0.622824)
(0.276258 -1.07101 -0.210318)
(1.06852 0.380313 -6.8712)
(1.56581 -9.69858 3.08225)
(1.13029 2.08582 -12.0224)
(0.762039 7.96741 -16.093)
(-0.409192 7.87257 -23.8289)
(-1.35207 4.80649 -20.1811)
(-1.06797 -3.56138 -7.26478)
(-1.22339 -5.13205 -5.07255)
(-1.53447 -11.6498 -1.08051)
(-2.09003 -19.188 1.36531)
(-2.74002 -12.7097 2.57385)
(-2.85363 -11.6464 3.58805)
(-3.50571 -2.64216 2.204)
(-3.68812 -7.62118 -7.11544)
(-3.58956 0.712494 6.08285)
(-3.24303 -1.05027 8.73748)
(-2.12077 -4.54315 18.3621)
(-1.79467 -11.9703 15.9586)
(-1.41631 4.1248 16.6442)
(-0.436899 -1.3193 14.1307)
(-0.220526 3.89863 3.98472)
(0.285912 6.5823 6.96005)
(0.796283 -5.76766 7.67207)
(1.48366 -12.1326 23.5547)
(1.28042 -11.7796 20.8432)
(2.93563 -2.64118 8.57032)
(3.95955 8.66039 0.949191)
(6.06593 -2.11277 -4.64368)
(8.25527 -1.14348 -20.7729)
(9.59521 11.7192 -2.54747)
(11.0487 6.12539 2.02203)
(12.6224 -0.905572 0.994846)
(14.4747 2.90727 18.1631)
(16.5708 7.61922 19.1276)
(18.9736 13.9206 -4.75391)
(21.3594 6.07863 -8.037)
(23.7265 2.07821 5.45011)
(26.3756 8.35004 -3.16448)
(29.4478 12.7522 -10.3017)
(35.2009 17.2663 -9.87819)
(38.6394 8.18169 -1.22073)
(41.2051 11.2942 -3.94664)
(45.7232 10.2734 -8.50277)
(49.7027 16.4226 0.647602)
(54.0821 26.5964 2.65362)
(59.7873 15.3913 -0.733655)
(64.4997 18.8009 -9.5203)
(73.6961 19.8426 -3.14326)
(77.0892 14.2986 -11.5433)
(85.8258 22.9382 -10.5143)
(93.5402 19.5278 3.97123)
(102.122 17.8562 3.90586)
(108.593 6.93317 1.63793)
(117.264 2.29899 4.70133)
(126.977 -1.8045 6.17342)
(138.142 3.87775 2.46609)
(148.881 7.38383 3.60533)
(177.038 8.20111 0.888217)
(194.189 -2.88878 -11.4587)
(213.482 2.3378 -9.53152)
(246.837 5.60227 -8.05792)
(293.648 4.50835 -2.5228)
)
;

boundaryField
{
    sides
    {
        type            calculated;
        value           nonuniform List<vector> 2((293.648 4.50835 -2.5228) (-288.157 14.786 13.9341));
    }
    empty
    {
        type            empty;
    }
}


// ************************************************************************* //
