/*--------------------------------*- C++ -*----------------------------------*\
  =========                 |
  \\      /  F ield         | OpenFOAM: The Open Source CFD Toolbox
   \\    /   O peration     | Website:  https://openfoam.org
    \\  /    A nd           | Version:  7
     \\/     M anipulation  |
\*---------------------------------------------------------------------------*/
FoamFile
{
    version     2.0;
    format      ascii;
    class       volScalarField;
    location    "0.00324";
    object      dsmcRhoN;
}
// * * * * * * * * * * * * * * * * * * * * * * * * * * * * * * * * * * * * * //

dimensions      [0 -3 0 0 0 0 0];

internalField   nonuniform List<scalar> 
500
(
262
248
266
257
248
243
245
256
276
222
258
274
224
261
249
238
245
260
262
271
267
267
255
260
271
257
251
259
259
257
230
251
240
255
250
236
252
234
243
259
239
262
251
241
230
243
275
252
294
260
263
251
275
272
268
249
234
236
239
280
222
248
281
258
269
254
276
257
265
289
233
252
277
271
228
245
245
268
255
229
279
238
249
217
258
241
259
251
268
248
267
253
279
256
249
250
258
235
261
269
225
264
228
231
220
254
255
252
224
274
233
232
258
250
209
253
274
237
247
230
227
200
251
217
230
230
219
235
227
234
200
244
228
219
206
215
224
209
194
216
198
192
248
213
220
189
205
178
204
181
215
195
203
173
173
182
204
188
232
200
198
186
189
159
188
193
181
190
175
186
179
179
183
174
185
168
158
165
161
157
175
196
148
160
171
149
151
141
153
175
154
147
163
153
158
140
156
133
135
153
139
145
151
150
137
168
143
121
144
139
130
142
134
126
118
126
121
130
160
128
128
115
135
132
120
133
138
133
124
145
125
155
119
126
126
113
130
116
135
116
136
116
106
119
139
105
129
135
121
146
140
125
124
116
124
109
127
133
129
138
135
118
121
129
147
127
129
133
126
125
145
137
134
134
111
140
135
126
110
124
139
115
126
142
129
119
119
116
127
120
155
124
120
128
114
128
125
109
139
129
133
129
133
126
133
124
125
126
140
126
122
115
110
142
122
139
141
141
131
113
141
152
132
130
135
139
120
130
151
118
139
149
134
135
126
118
149
153
140
154
158
151
161
180
174
162
166
163
167
175
160
202
184
174
199
191
177
165
181
185
183
171
187
189
174
153
186
173
181
207
192
184
195
195
177
181
170
184
160
166
168
183
200
200
179
170
178
171
150
182
170
156
192
169
196
174
183
170
184
158
190
198
131
84
68
86
89
72
70
63
71
72
84
61
77
62
62
73
74
74
78
83
72
83
76
67
71
78
97
74
66
77
70
65
67
100
75
85
74
73
64
74
78
77
68
79
75
66
78
66
77
67
67
80
81
70
79
81
71
70
75
70
71
77
87
83
73
59
72
76
69
71
71
64
78
70
82
88
90
91
76
69
70
64
71
82
69
63
78
74
71
71
76
95
63
83
82
65
82
71
)
;

boundaryField
{
    sides
    {
        type            symmetry;
    }
    empty
    {
        type            empty;
    }
}


// ************************************************************************* //
