/*--------------------------------*- C++ -*----------------------------------*\
  =========                 |
  \\      /  F ield         | OpenFOAM: The Open Source CFD Toolbox
   \\    /   O peration     | Website:  https://openfoam.org
    \\  /    A nd           | Version:  7
     \\/     M anipulation  |
\*---------------------------------------------------------------------------*/
FoamFile
{
    version     2.0;
    format      ascii;
    class       volScalarField;
    location    "0.00324";
    object      linearKE;
}
// * * * * * * * * * * * * * * * * * * * * * * * * * * * * * * * * * * * * * //

dimensions      [1 -1 -2 0 0 0 0];

internalField   nonuniform List<scalar> 
500
(
1638.81
1764.48
1536.39
1711.33
1722.41
1702.21
1608.45
1586.56
1581.62
1861.6
1924.94
1690.2
1716.71
1711.94
1639.97
1721.45
1687.69
1561.18
1708.52
1847.16
1537.61
1578.91
1755.12
1695.13
1735.68
1604.61
1700.86
1716.48
1587.89
1786.65
1518.02
1651.99
1664.89
1678.06
1629.82
1872.67
1728.57
1711.75
1719.89
1880.87
1812.09
1731.48
1592.08
1718.98
1555.03
1719.44
1841.8
2028.42
1798.41
1757.82
1716.11
1667.78
1538.05
1571.1
1726.72
1773.02
1665.93
1887.53
1865.32
1549.01
1854.74
1863.06
1684.87
1514.77
1601.29
1728.84
1563.86
1727.28
1655.93
1495.48
1748.08
1853.53
1573.37
1634.23
1829.89
1736.87
1590.9
1690.53
1644.07
1696.95
1510.39
1556.32
1713.3
1672.35
1808.95
1916.63
1614.56
1534.07
1706.11
1616.91
1745.35
1626.99
1674.19
1760.76
1846.54
1728.21
1783.79
1541.27
1493.85
1810.64
1455.03
1475.16
1812.08
1595.04
1627.06
1642.64
1650.39
1747.88
1639.01
1685.89
1720.58
1702.33
1282.02
1490.72
1479.05
1406.32
1280.53
1634.22
1479.42
1525.18
1409.83
1221.24
1661.52
1581.23
1667.36
1517.96
1478.27
1537.26
1714.59
1170.92
1440.67
1430.14
1270.67
1273.06
1344.53
1220.33
1513
1556.89
1476.21
1521.94
1386.31
1389.54
1250.32
1349.47
1211.32
1281.22
1271.27
1095.15
1216.29
1159.78
1343.68
1227.1
1139.59
1200.12
1227.82
1275.72
1271.47
1329.92
1126.91
1085.51
1182.97
1144.12
1168.74
1257.7
1033.61
1199.3
1079.89
1220.01
1137.57
1339.61
1116.37
1007.32
1046.44
1081.4
1037.05
1078.68
1126.23
1032.21
1062.97
983.81
872.769
953.388
1033.69
1007.29
842.78
995.691
1015.21
920.863
1035.61
883.455
1011.61
1012.02
1065.72
1083.62
827.815
990.452
965.705
1016.24
974.032
966.706
892.277
900.821
1001.86
846.508
822.182
737.138
801.615
781.164
923.081
1098.29
812.659
853.046
718.249
928.884
794.551
729.802
927.77
865.215
789.996
928.091
775.652
823.729
760.132
763.403
797.86
696.005
726.81
727.675
817.517
920.734
837.668
753.424
721.057
941.086
691.109
780.361
851.466
793.408
854.653
718.464
700.075
737.582
880.512
836.348
815.712
929.584
856.802
732.88
814.433
607.724
715.185
811.045
819.376
942.388
797.395
707.336
694.597
892.611
895.105
863.49
937.556
853.261
899.015
785.409
711.152
755.017
773.202
611.549
824.76
744.92
890.468
978.163
883.153
819.711
806.179
622.103
777.984
822.257
747.697
867.678
919.706
703.094
857.787
781.54
794.097
896.788
940.2
825.295
936.731
807.276
721.104
931.741
770.389
850.724
777.837
803.739
831.887
673.577
859.382
819.476
686.306
713.404
797.362
760.988
879.88
915.79
779.923
846.98
592.251
956.871
1096.71
853.597
722.604
891.032
817.66
735.77
817.167
632.932
835.131
738.575
772.351
982.093
857.809
853.926
839.925
942.326
801.275
698.472
809.246
920.185
799.197
861.682
806.832
792.021
838.056
802.922
761.412
784.349
795.845
817.829
870.237
826.207
942.075
928.986
823.127
747.914
834.304
907.198
806.527
690.83
903.291
882.16
799.464
874.042
947.926
835.745
837.425
957.819
770.154
936.828
987.972
894.05
976.624
1006.98
804.49
960.189
958.686
885.364
983.085
819.823
773.318
815.644
894.442
742.476
927.988
943.985
1010.11
976.822
836.682
792.359
879.587
807.982
985.348
982.88
836.96
818.024
725.353
790.447
888.913
910.79
869.21
946.321
725.661
795.575
748.07
836.83
838.264
828.747
935.872
743.602
821.487
1039.53
702.718
305.206
207.506
144.55
163.379
158.284
170.706
170.669
155.449
145.523
173.242
133.415
166.522
175.445
169.765
139.399
157.642
219.256
138.509
235.396
157.774
186.403
168.232
217.688
144.797
214.359
149.549
189.702
161.881
190.904
182.039
185.44
173.37
159.747
136.615
188.108
119.381
136.53
200.892
138.768
165.34
158.509
144.984
161.297
150.889
161.705
145.628
171.467
161.398
180.044
150.021
182.191
177.841
164.15
159.794
173.345
174.132
198.721
130.701
211.291
171.205
169.282
181.034
118.967
162.412
131.197
188.037
173.094
156.893
159.792
182.605
143.682
154.803
199.149
150.106
149.146
151.838
163.422
176.984
139.072
169.714
170.681
192.811
165.864
138.717
176.282
142.798
184.98
171.179
119.641
175.218
180.477
180.572
167.309
166.033
155.504
191.374
170.339
)
;

boundaryField
{
    sides
    {
        type            symmetry;
    }
    empty
    {
        type            empty;
    }
}


// ************************************************************************* //
