/*--------------------------------*- C++ -*----------------------------------*\
  =========                 |
  \\      /  F ield         | OpenFOAM: The Open Source CFD Toolbox
   \\    /   O peration     | Website:  https://openfoam.org
    \\  /    A nd           | Version:  7
     \\/     M anipulation  |
\*---------------------------------------------------------------------------*/
FoamFile
{
    version     2.0;
    format      ascii;
    class       volScalarField;
    location    "0.0018";
    object      p;
}
// * * * * * * * * * * * * * * * * * * * * * * * * * * * * * * * * * * * * * //

dimensions      [1 -1 -2 0 0 0 0];

internalField   nonuniform List<scalar> 
1000
(
0.135598
0.167091
0.179847
0.208334
0.213607
0.228188
0.242751
0.255816
0.269938
0.27694
0.296657
0.298655
0.297891
0.315035
0.32985
0.351194
0.350444
0.34721
0.340736
0.354695
0.365768
0.366652
0.369329
0.375558
0.37902
0.389585
0.386019
0.413615
0.416728
0.417461
0.425906
0.431171
0.42551
0.432428
0.434276
0.447469
0.433175
0.436473
0.417833
0.44092
0.456366
0.467044
0.46684
0.466628
0.462937
0.473546
0.464323
0.487131
0.462674
0.451954
0.463465
0.473822
0.475519
0.483628
0.476392
0.472098
0.474047
0.490052
0.491173
0.487955
0.475096
0.483393
0.508045
0.525669
0.48818
0.485303
0.49859
0.496735
0.497155
0.478898
0.494326
0.495018
0.50231
0.488182
0.505932
0.507704
0.510058
0.49756
0.510669
0.507136
0.510517
0.504292
0.497167
0.493539
0.514189
0.511128
0.496306
0.517257
0.522095
0.503911
0.53281
0.52543
0.526738
0.520853
0.522775
0.523242
0.514017
0.513541
0.496878
0.47826
0.504264
0.504959
0.504354
0.487788
0.490663
0.492047
0.491383
0.501882
0.490211
0.490243
0.496419
0.498608
0.50355
0.493703
0.501998
0.500835
0.497262
0.481298
0.487643
0.494098
0.485975
0.501142
0.498316
0.498199
0.486053
0.488679
0.498199
0.497987
0.497118
0.491252
0.488636
0.513029
0.493918
0.507205
0.499219
0.496074
0.498277
0.518996
0.52318
0.509408
0.51598
0.503928
0.503025
0.491953
0.498555
0.500226
0.505356
0.498951
0.512009
0.518513
0.510538
0.505363
0.496585
0.500139
0.508914
0.510947
0.517805
0.498864
0.489565
0.502698
0.510223
0.519758
0.51409
0.506175
0.503488
0.51397
0.497626
0.499591
0.507363
0.516087
0.498548
0.511635
0.507513
0.487323
0.487363
0.48535
0.491696
0.493885
0.493373
0.493903
0.504356
0.506887
0.493853
0.507921
0.513185
0.490841
0.500854
0.498675
0.494469
0.488873
0.502908
0.480115
0.477111
0.492536
0.525539
0.517961
0.480994
0.501026
0.500366
0.488574
0.507287
0.514371
0.492022
0.494888
0.497368
0.484451
0.49168
0.501854
0.511841
0.522511
0.516349
0.521799
0.528291
0.508962
0.500638
0.506501
0.52818
0.516571
0.50325
0.507437
0.503435
0.520853
0.519881
0.495208
0.508238
0.513357
0.525246
0.496825
0.490087
0.492733
0.52393
0.505696
0.519155
0.507908
0.524631
0.537312
0.53652
0.540674
0.527491
0.541019
0.528251
0.52089
0.537596
0.52335
0.526295
0.520321
0.527491
0.523855
0.537179
0.537216
0.524886
0.534538
0.527675
0.525885
0.530654
0.543519
0.530777
0.525813
0.528809
0.527911
0.538178
0.535215
0.555125
0.531138
0.519136
0.525606
0.535347
0.531672
0.533962
0.523419
0.525842
0.518216
0.517804
0.505814
0.504245
0.49857
0.514724
0.521265
0.498227
0.510331
0.495863
0.513438
0.521539
0.502006
0.508024
0.50013
0.4954
0.503851
0.515574
0.50548
0.513661
0.506106
0.519046
0.506256
0.524536
0.503847
0.533172
0.519132
0.508724
0.499213
0.481236
0.5053
0.488572
0.489512
0.483031
0.4975
0.496377
0.513045
0.506387
0.495509
0.490837
0.492183
0.499071
0.490927
0.50235
0.505881
0.491942
0.488799
0.505204
0.504613
0.521833
0.519142
0.528801
0.503065
0.496215
0.488254
0.498686
0.507175
0.499559
0.504859
0.503184
0.492597
0.499298
0.497846
0.518323
0.523712
0.518868
0.505679
0.516773
0.51047
0.516859
0.514365
0.510601
0.507716
0.496371
0.478322
0.496862
0.499306
0.492405
0.50771
0.503177
0.495062
0.499571
0.504523
0.514787
0.505818
0.503855
0.508048
0.499682
0.494428
0.498603
0.501004
0.495558
0.510348
0.491265
0.528714
0.504299
0.517786
0.533854
0.532812
0.513641
0.515255
0.496723
0.477488
0.504914
0.503207
0.493288
0.498055
0.499476
0.512418
0.493626
0.496621
0.494502
0.516541
0.492227
0.49492
0.503427
0.500432
0.499062
0.494145
0.49045
0.504357
0.506192
0.508154
0.485502
0.483559
0.492429
0.484932
0.492496
0.470483
0.467012
0.452637
0.480954
0.505917
0.497256
0.484133
0.498134
0.484939
0.506543
0.487894
0.481704
0.509211
0.484178
0.495066
0.509199
0.509568
0.502581
0.505115
0.503429
0.514653
0.513807
0.522034
0.520841
0.532559
0.547567
0.543152
0.55576
0.561599
0.56781
0.570896
0.576647
0.568692
0.569112
0.593372
0.626321
0.615569
0.603753
0.638666
0.615358
0.60033
0.612413
0.6054
0.639573
0.627215
0.659016
0.654445
0.659928
0.663391
0.655781
0.682957
0.678896
0.682675
0.680895
0.683745
0.693939
0.7071
0.727438
0.728331
0.708915
0.736505
0.737855
0.735009
0.769238
0.762908
0.76154
0.76912
0.755906
0.77686
0.794468
0.767492
0.788373
0.814586
0.795365
0.812111
0.820776
0.825222
0.820223
0.809875
0.823796
0.849518
0.840111
0.842393
0.855437
0.892033
0.872187
0.856262
0.885721
0.870103
0.898327
0.912855
0.890379
0.890406
0.943335
0.937379
0.925415
0.929023
0.924967
0.918691
0.911889
0.963465
0.973823
0.961702
0.984567
1.03475
1.06094
1.10155
1.10342
1.11821
1.13931
1.14509
1.15798
1.1747
1.2002
1.20611
1.23996
1.23805
1.2692
1.26321
1.30442
1.31563
1.32736
1.34985
1.36246
1.37947
1.40661
1.43617
1.43509
1.45399
1.46109
1.47388
1.49372
1.5073
1.50506
1.5191
1.52118
1.53598
1.55121
1.58173
1.55799
1.58906
1.60757
1.61237
1.62553
1.61174
1.63034
1.63043
1.62012
1.62786
1.63457
1.65814
1.65206
1.66223
1.68799
1.65614
1.69398
1.69186
1.6581
1.67542
1.67103
1.67086
1.68589
1.67811
1.70761
1.6737
1.711
1.72258
1.70837
1.71586
1.71805
1.71044
1.71183
1.72202
1.72067
1.7416
1.72591
1.72528
1.74896
1.74156
1.72017
1.70433
1.71593
1.71398
1.72089
1.74655
1.71289
1.72727
1.74197
1.73251
1.74098
1.72779
1.72759
1.73398
1.73788
1.73132
1.71281
1.70736
1.69572
1.71282
1.71644
1.73725
1.73102
1.72925
1.73638
1.69751
1.72089
1.72555
1.74965
1.74534
1.72278
1.73894
1.75597
1.73019
1.70787
1.74008
1.75321
1.74404
1.75605
1.7404
1.75662
1.75206
1.72768
1.74522
1.77918
1.7651
1.74558
1.76281
1.74481
1.75834
1.73178
1.70725
1.72314
1.7302
1.7473
1.72802
1.70201
1.71187
1.72558
1.6922
1.70371
1.72295
1.74261
1.72093
1.70231
1.70311
1.66062
1.67009
1.75038
1.74554
1.72847
1.73245
1.74304
1.73107
1.70901
1.71444
1.72715
1.74067
1.7157
1.72243
1.74501
1.73696
1.73304
1.72412
1.74624
1.70785
1.72351
1.70088
1.72194
1.73573
1.7221
1.70537
1.72908
1.74091
1.72821
1.73503
1.75432
1.73684
1.73572
1.71992
1.72928
1.75881
1.75632
1.74643
1.7427
1.73247
1.74105
1.74961
1.75449
1.76596
1.77171
1.7542
1.76761
1.76352
1.73234
1.73074
1.74398
1.75907
1.74025
1.77624
1.7816
1.76434
1.75671
1.74276
1.75366
1.76646
1.75309
1.7672
1.7471
1.76467
1.79635
1.74888
1.73009
1.73407
1.75572
1.74255
1.76067
1.77077
1.78017
1.79342
1.73752
1.73649
1.75022
1.74962
1.76988
1.76666
1.73652
1.74846
1.7512
1.78112
1.77456
1.76121
1.78577
1.75216
1.7409
1.78661
1.74925
1.75431
1.75514
1.76229
1.76385
1.76482
1.77627
1.74355
1.74727
1.74776
1.74573
1.74311
1.73752
1.75935
1.73889
1.71684
1.73731
1.71883
1.73425
1.73402
1.728
1.70853
1.70676
1.71167
1.73124
1.72272
1.73826
1.72785
1.73062
1.75878
1.73559
1.74968
1.77684
1.75839
1.72387
1.73899
1.73922
1.76755
1.75327
1.7558
1.73821
1.75145
1.761
1.76323
1.74581
1.73456
1.75933
1.73283
1.78687
1.73149
1.74538
1.78466
1.73366
1.75805
1.77649
1.76404
1.76233
1.76449
1.77456
1.74359
1.76638
1.75698
1.77261
1.72826
1.77246
1.75356
1.74699
1.76045
1.77856
1.78747
1.79561
1.80591
1.76617
1.79157
1.7988
1.78217
1.78311
1.8013
1.77807
1.78487
1.79055
1.80022
1.78502
1.79477
1.77939
1.77007
1.7885
1.78598
1.78395
1.8062
1.78778
1.7913
1.8288
1.80762
1.81482
1.79762
1.80285
1.80348
1.78996
1.8058
1.77811
1.77066
1.8509
1.79229
1.76685
1.80792
1.77822
1.78517
1.81115
1.78907
1.78265
1.75633
1.76902
1.79561
1.7695
1.78659
1.78356
1.76416
1.76142
1.78148
1.74065
1.76673
1.73607
1.74952
1.77129
1.76814
1.76841
1.78035
1.76292
1.78487
1.74342
1.75557
1.76097
1.75851
1.74903
1.75897
1.75242
1.73956
1.76851
1.78647
1.75882
1.7718
1.75851
1.75553
1.73738
1.75841
1.79073
1.74996
1.75817
1.74741
1.75369
1.74133
1.73167
1.72508
1.76738
1.7391
1.74979
1.77083
1.76747
1.74494
1.7408
1.72069
1.72518
1.71208
1.72543
1.73647
1.73954
1.74725
1.75414
1.7087
1.72932
1.7319
1.75433
1.78233
1.74856
1.76319
1.76064
1.75543
1.77424
1.77371
1.77387
1.7834
1.74447
1.76317
1.7409
1.73218
1.75451
1.73158
1.73158
1.73354
1.75809
1.74024
1.75297
1.74989
1.75014
1.72888
1.74
1.76083
1.75694
1.75319
1.74068
1.74106
1.753
1.72811
1.75225
1.73819
1.75382
1.75358
1.7339
1.7074
1.71077
1.70263
1.70993
1.71221
1.70962
1.72073
1.71717
1.68889
1.64833
1.65617
1.65482
1.66936
1.63051
1.62224
1.59166
1.61805
1.59473
1.58981
1.59482
1.55973
1.50987
1.499
1.51029
1.50013
1.4487
1.45431
1.43383
1.40738
1.392
1.37308
1.35341
1.34856
1.34618
1.27654
1.27642
1.27288
1.24875
1.22298
1.20434
1.16483
1.14988
1.10362
1.08403
1.04484
1.00763
0.985716
0.944055
0.892183
0.866807
0.843296
0.809653
0.720244
0.658535
0.616196
0.530591
0.443996
)
;

boundaryField
{
    sides
    {
        type            calculated;
        value           nonuniform List<scalar> 2(0.443996 0.135598);
    }
    empty
    {
        type            empty;
    }
}


// ************************************************************************* //
