/*--------------------------------*- C++ -*----------------------------------*\
  =========                 |
  \\      /  F ield         | OpenFOAM: The Open Source CFD Toolbox
   \\    /   O peration     | Website:  https://openfoam.org
    \\  /    A nd           | Version:  7
     \\/     M anipulation  |
\*---------------------------------------------------------------------------*/
FoamFile
{
    version     2.0;
    format      ascii;
    class       volScalarField;
    location    "0.05";
    object      alpha.water;
}
// * * * * * * * * * * * * * * * * * * * * * * * * * * * * * * * * * * * * * //

dimensions      [0 0 0 0 0 0 0];

internalField   nonuniform List<scalar> 
1935
(
1.26293e-39
2.117e-40
1.92709e-41
1.14177e-42
7.11033e-44
4.34154e-45
2.54086e-46
1.42312e-47
7.59523e-49
3.84442e-50
1.83608e-51
8.22821e-53
3.43847e-54
1.33018e-55
4.71831e-57
1.51949e-58
5.30634e-60
1.90389e-61
6.38394e-63
1.99579e-64
5.80476e-66
1.56821e-67
3.92144e-69
8.20935e-71
1.57805e-72
2.78391e-74
4.50325e-76
6.67649e-78
9.07146e-80
1.12987e-81
1.29089e-83
1.35444e-85
1.30731e-87
1.1635e-89
9.57804e-92
7.3222e-94
5.2245e-96
3.50107e-98
2.22045e-100
1.34736e-102
1.0626e-104
7.90976e-107
4.52931e-108
5.11601e-41
1.9392e-42
6.86232e-44
2.46814e-45
7.93295e-42
2.81551e-43
9.82494e-45
3.48989e-46
6.32396e-43
2.14625e-44
7.41101e-46
2.61452e-47
3.69398e-44
1.23544e-45
4.22637e-47
1.48627e-48
2.21031e-45
7.11797e-47
2.35347e-48
8.11887e-50
1.30027e-46
4.0625e-48
1.30895e-49
4.42043e-51
7.35855e-48
2.24037e-49
7.063e-51
2.34707e-52
3.98951e-49
1.18537e-50
3.66167e-52
1.20043e-53
2.06478e-50
6.00172e-52
1.82082e-53
5.90235e-55
1.01573e-51
2.89676e-53
8.65459e-55
2.78182e-56
4.72731e-53
1.32736e-54
3.91785e-56
1.25278e-57
2.071e-54
5.74932e-56
1.68278e-57
5.37338e-59
8.49247e-56
2.3429e-57
6.83058e-59
2.18781e-60
3.23861e-57
8.93625e-59
2.60915e-60
8.42716e-62
1.13997e-58
3.16753e-60
9.32986e-62
3.05933e-63
3.68292e-60
1.04319e-61
3.1264e-63
1.04191e-64
1.32041e-61
3.51505e-63
1.03106e-64
3.33576e-66
4.72055e-63
1.25051e-64
3.65916e-66
1.06742e-67
1.57918e-64
4.18981e-66
1.23044e-67
3.60597e-69
4.94336e-66
1.31679e-67
3.88134e-69
1.15239e-70
1.44507e-67
3.86337e-69
1.06623e-70
3.22759e-72
3.92246e-69
9.90731e-71
2.73485e-72
8.42707e-74
9.09109e-71
2.32606e-72
6.5461e-74
2.0609e-75
1.94347e-72
5.07098e-74
1.46109e-75
4.70781e-77
3.82939e-74
1.02597e-75
3.0314e-77
1.00564e-78
6.96463e-76
1.91973e-77
5.85672e-79
2.00688e-80
1.16779e-77
3.32982e-79
1.05269e-80
3.7408e-82
1.80486e-79
5.34924e-81
1.76036e-82
6.51368e-84
2.57145e-81
7.96101e-83
2.73973e-84
1.05997e-85
3.37892e-83
1.0983e-84
3.97136e-86
1.61328e-87
4.0985e-85
1.40607e-86
5.36761e-88
2.29919e-89
4.59525e-87
1.67293e-88
6.77504e-90
3.07314e-91
4.77142e-89
1.85362e-90
8.00253e-92
3.8603e-93
4.59962e-91
1.9177e-92
8.86866e-94
4.56878e-95
4.12967e-93
1.85868e-94
9.25124e-96
5.11057e-97
3.46703e-95
1.69458e-96
9.11881e-98
5.42294e-99
2.73506e-97
1.46048e-98
8.53238e-100
5.48244e-101
2.03942e-99
1.19683e-100
7.61929e-102
5.31399e-103
1.44746e-101
9.39751e-103
6.5472e-104
5.68651e-105
9.88076e-104
8.09172e-105
6.89949e-106
6.34981e-107
9.12288e-106
7.88345e-107
6.96586e-108
6.64765e-109
7.40882e-108
6.84173e-109
6.43032e-110
6.49227e-111
4.07457e-109
3.75887e-110
3.69897e-111
3.72579e-112
9.38522e-47
2.59483e-48
8.42579e-50
2.6651e-51
8.23229e-53
2.47809e-54
7.25669e-56
2.06374e-57
5.69044e-59
1.51876e-60
3.91711e-62
9.74681e-64
2.33599e-65
5.38388e-67
1.19136e-68
2.52712e-70
5.13023e-72
9.95077e-74
1.84093e-75
3.24261e-77
5.42754e-79
8.61526e-81
1.29396e-82
1.83442e-84
2.44814e-86
3.06659e-88
3.59383e-90
3.92694e-92
3.9867e-94
3.7476e-96
3.25209e-98
2.59906e-100
1.90997e-102
1.28911e-104
7.97505e-107
4.49455e-109
2.26642e-111
9.74367e-114
3.15016e-116
9.79808e-119
1.22589e-47
3.64406e-49
1.16354e-50
3.63483e-52
1.10846e-53
3.2953e-55
9.53467e-57
2.68085e-58
7.31317e-60
1.93244e-61
4.93819e-63
1.21841e-64
2.89794e-66
6.63389e-68
1.45931e-69
3.07995e-71
6.22678e-73
1.20392e-74
2.22231e-76
3.90947e-78
6.54209e-80
1.03925e-81
1.56381e-83
2.22363e-85
2.98002e-87
3.75323e-89
4.42865e-91
4.87967e-93
5.00402e-95
4.76096e-97
4.19136e-99
3.40749e-101
2.55478e-103
1.76429e-105
1.11917e-107
6.47111e-110
3.34212e-112
1.46569e-114
4.80472e-117
8.08147e-120
8.77736e-49
2.70279e-50
8.54203e-52
2.63785e-53
7.94687e-55
2.33262e-56
6.66231e-58
1.84903e-59
4.97939e-61
1.29915e-62
3.27884e-64
7.99239e-66
1.87867e-67
4.25174e-69
9.25008e-71
1.93155e-72
3.86504e-74
7.39907e-76
1.3528e-77
2.35804e-79
3.91109e-81
6.16014e-83
9.19324e-85
1.29684e-86
1.72465e-88
2.15606e-90
2.52595e-92
2.76431e-94
2.81676e-96
2.66468e-98
2.33489e-100
1.89234e-102
1.41784e-104
9.8196e-107
6.27761e-109
3.68138e-111
1.943e-113
8.77629e-116
2.9796e-118
4.88293e-121
4.88429e-50
1.54657e-51
4.8767e-53
1.49902e-54
4.48914e-56
1.30852e-57
3.70889e-59
1.02108e-60
2.72695e-62
7.05472e-64
1.76535e-65
4.26654e-67
9.94385e-69
2.23154e-70
4.81459e-72
9.97111e-74
1.97909e-75
3.75851e-77
6.81791e-79
1.17921e-80
1.94091e-82
3.03388e-84
4.49368e-86
6.29161e-88
8.30469e-90
1.03046e-91
1.19822e-93
1.30148e-95
1.31634e-97
1.23627e-99
1.07592e-101
8.66872e-104
6.46723e-106
4.47154e-108
2.86533e-110
1.69401e-112
9.08352e-115
4.20615e-117
1.47532e-119
2.59044e-122
2.6303e-51
8.41982e-53
2.63697e-54
8.07889e-56
2.40841e-57
6.97785e-59
1.96433e-60
5.36888e-62
1.42311e-63
3.65357e-65
9.07219e-67
2.17568e-68
5.03178e-70
1.12059e-71
2.39944e-73
4.93229e-75
9.71795e-77
1.83224e-78
3.30011e-80
5.66802e-82
9.26527e-84
1.4385e-85
2.11646e-87
2.94375e-89
3.8603e-91
4.75892e-93
5.49817e-95
5.9343e-97
5.96532e-99
5.57039e-101
4.82383e-103
3.87243e-105
2.88485e-107
1.99856e-109
1.28955e-111
7.72882e-114
4.23691e-116
2.02416e-118
7.37474e-121
1.33652e-123
1.40361e-52
4.36489e-54
1.33629e-55
4.05468e-57
1.19475e-58
3.43826e-60
9.63001e-62
2.6176e-63
6.89522e-65
1.75885e-66
4.33884e-68
1.03366e-69
2.37472e-71
5.25351e-73
1.11748e-74
2.28207e-76
4.46719e-78
8.36864e-80
1.49779e-81
2.55647e-83
4.15325e-85
6.40901e-87
9.37283e-89
1.29586e-90
1.68924e-92
2.07016e-94
2.37769e-96
2.55144e-98
2.55046e-100
2.36937e-102
2.043e-104
1.63547e-106
1.21798e-108
8.46728e-111
5.51264e-113
3.35851e-115
1.8887e-117
9.34568e-120
3.54999e-122
6.65073e-125
7.37425e-54
2.24734e-55
6.70932e-57
1.97166e-58
5.61791e-60
1.58936e-61
4.4008e-63
1.18281e-64
3.10123e-66
7.87367e-68
1.9323e-69
4.57824e-71
1.04597e-72
2.30104e-74
4.86713e-76
9.88372e-78
1.92396e-79
3.58426e-81
6.37965e-83
1.08295e-84
1.74982e-86
2.68566e-88
3.90657e-90
5.37226e-92
6.96566e-94
8.49078e-96
9.70021e-98
1.03545e-99
1.02984e-101
9.52367e-104
8.18228e-106
6.53754e-108
4.87279e-110
3.40474e-112
2.24148e-114
1.39209e-116
8.05909e-119
4.14648e-121
1.64795e-123
3.19502e-126
3.74774e-55
1.12444e-56
3.29194e-58
9.4545e-60
2.63118e-61
7.22598e-63
1.93805e-64
5.05613e-66
1.31197e-67
3.29458e-69
8.02461e-71
1.89352e-72
4.30834e-74
9.43516e-76
1.98648e-77
4.0151e-79
7.77905e-81
1.44239e-82
2.55523e-84
4.31712e-86
6.94281e-88
1.06059e-89
1.53549e-91
2.10161e-93
2.712e-95
3.29e-97
3.74067e-99
3.97417e-101
3.93499e-103
3.62465e-105
3.10518e-107
2.47856e-109
1.8513e-111
1.30237e-113
8.69026e-116
5.51859e-118
3.301e-120
1.77295e-122
7.3975e-125
1.48519e-127
1.8353e-56
5.42843e-58
1.56206e-59
4.40151e-61
1.20036e-62
3.22359e-64
8.44949e-66
2.15366e-67
5.42473e-69
1.3227e-70
3.15995e-72
7.38484e-74
1.66369e-75
3.62717e-77
7.61082e-79
1.53294e-80
2.95867e-82
5.46473e-84
9.64311e-86
1.6228e-87
2.59942e-89
3.95499e-91
5.70269e-93
7.77318e-95
9.98909e-97
1.2067e-98
1.36619e-100
1.44543e-102
1.42558e-104
1.30882e-106
1.11888e-108
8.93107e-111
6.69398e-113
4.75015e-115
3.22066e-117
2.09798e-119
1.30157e-121
7.32635e-124
3.21948e-126
6.69419e-129
8.64235e-58
2.52535e-59
7.15511e-61
1.98069e-62
5.29959e-64
1.39581e-65
3.58744e-67
8.96432e-69
2.21054e-70
5.27948e-72
1.23174e-73
2.80295e-75
6.14995e-77
1.32561e-78
2.75773e-80
5.50813e-82
1.06016e-83
1.95274e-85
3.43573e-87
5.76343e-89
9.20187e-91
1.39539e-92
2.00516e-94
2.72364e-96
3.48755e-98
4.19763e-100
4.73491e-102
4.9914e-104
4.90646e-106
4.49264e-108
3.83569e-110
3.06502e-112
2.30865e-114
1.65586e-116
1.14386e-118
7.66946e-121
4.95414e-123
2.93383e-125
1.36179e-127
2.93112e-130
3.90254e-59
1.12922e-60
3.15698e-62
8.60251e-64
2.26243e-65
5.85242e-67
1.47674e-68
3.62258e-70
8.77296e-72
2.05803e-73
4.71384e-75
1.05268e-76
2.26811e-78
4.77751e-80
9.7082e-82
1.89612e-83
3.62298e-85
6.62397e-87
1.15732e-88
1.93696e-90
3.08532e-92
4.66697e-94
6.6881e-96
9.05841e-98
1.15643e-99
1.38757e-101
1.56025e-103
1.63971e-105
1.60737e-107
1.4689e-109
1.25355e-111
1.00393e-113
7.61141e-116
5.52999e-118
3.90333e-120
2.7033e-122
1.82531e-124
1.14147e-126
5.61095e-129
1.24869e-131
1.68518e-60
4.84116e-62
1.33863e-63
3.59833e-65
9.32056e-67
2.37242e-68
5.88755e-70
1.42017e-71
3.38178e-73
7.8012e-75
1.75766e-76
3.86242e-78
8.19117e-80
1.69703e-81
3.39253e-83
6.52081e-85
1.2201e-86
2.18592e-88
3.74821e-90
6.23425e-92
9.86833e-94
1.48347e-95
2.1194e-97
2.86436e-99
3.64835e-101
4.36687e-103
4.89771e-105
5.13414e-107
5.02202e-109
4.58354e-111
3.91339e-113
3.14506e-115
2.40425e-117
1.77359e-119
1.28306e-121
9.21203e-124
6.5268e-126
4.32485e-128
2.25615e-130
5.18868e-133
6.93945e-62
1.98495e-63
5.44242e-65
1.44654e-66
3.69827e-68
9.28121e-70
2.26954e-71
5.39262e-73
1.26476e-74
2.87359e-76
6.37728e-78
1.38056e-79
2.88483e-81
5.89168e-83
1.16138e-84
2.20176e-86
4.06083e-88
7.1746e-90
1.21343e-91
1.98269e-93
3.08544e-95
4.56277e-97
6.46717e-99
8.69483e-101
1.10181e-102
1.31225e-104
1.46678e-106
1.53465e-108
1.49891e-110
1.36737e-112
1.16917e-114
9.44184e-117
7.29129e-119
5.47493e-121
4.07218e-123
3.04205e-125
2.27358e-127
1.60423e-129
8.91133e-132
2.12381e-134
2.71763e-63
7.76454e-65
2.11692e-66
5.57747e-68
1.41068e-69
3.498e-71
8.44511e-73
1.98032e-74
4.58255e-76
1.02717e-77
2.24891e-79
4.80325e-81
9.90364e-83
1.99609e-84
3.88393e-86
7.26995e-88
1.3245e-89
2.31226e-91
3.86522e-93
6.23993e-95
9.59834e-97
1.40378e-98
1.96296e-100
2.60309e-102
3.25642e-104
3.83232e-106
4.25148e-108
4.43223e-110
4.31729e-112
3.93406e-114
3.3692e-116
2.73697e-118
2.13961e-120
1.64053e-122
1.25957e-124
9.83293e-127
7.8021e-129
5.89639e-131
3.50259e-133
8.65713e-136
1.00942e-64
2.89078e-66
7.86082e-68
2.0586e-69
5.16371e-71
1.268e-72
3.02879e-74
7.0229e-76
1.60639e-77
3.55842e-79
7.6986e-81
1.62476e-82
3.31039e-84
6.59379e-86
1.2681e-87
2.34652e-89
4.22713e-91
7.29864e-93
1.20704e-94
1.92872e-96
2.93745e-98
4.25515e-100
5.89307e-102
7.74231e-104
9.60064e-106
1.12066e-107
1.2325e-109
1.2739e-111
1.23263e-113
1.11888e-115
9.58429e-118
7.83268e-120
6.20869e-122
4.87544e-124
3.87876e-126
3.17659e-128
2.67037e-130
2.15361e-132
1.36408e-134
3.49152e-137
3.53528e-66
1.02202e-67
2.78104e-69
7.26015e-71
1.81079e-72
4.41401e-74
1.04546e-75
2.40193e-77
5.44112e-79
1.19328e-80
2.55541e-82
5.33757e-84
1.07627e-85
2.12162e-87
4.03837e-89
7.3968e-91
1.31917e-92
2.25535e-94
3.69409e-96
5.84767e-98
8.82537e-100
1.26725e-101
1.74046e-103
2.26852e-105
2.79193e-107
3.23614e-109
3.53586e-111
3.63363e-113
3.50078e-115
3.17109e-117
2.7199e-119
2.23693e-121
1.79695e-123
1.44317e-125
1.18726e-127
1.01757e-129
9.05118e-132
7.78258e-134
5.25117e-136
1.39096e-138
1.16559e-67
3.41853e-69
9.35636e-71
2.44246e-72
6.07417e-74
1.4735e-75
3.46854e-77
7.9129e-79
1.77876e-80
3.86928e-82
8.21607e-84
1.70125e-85
3.4002e-87
6.64327e-89
1.25326e-90
2.2752e-92
4.02212e-94
6.81708e-96
1.10712e-97
1.73804e-99
2.60195e-101
3.70704e-103
5.05309e-105
6.53889e-107
7.99278e-109
9.2057e-111
1.0001e-112
1.02284e-114
9.82037e-117
8.88343e-119
7.63392e-121
6.32087e-123
5.14702e-125
4.22782e-127
3.59587e-129
3.22396e-131
3.03339e-133
2.77972e-135
1.99703e-137
5.47113e-140
3.65824e-69
1.07568e-70
2.9866e-72
7.82643e-74
1.94637e-75
4.71118e-77
1.10481e-78
2.50825e-80
5.60657e-82
1.21198e-83
2.55637e-85
5.25626e-87
1.04295e-88
2.02265e-90
3.78719e-92
6.82368e-94
1.19724e-95
2.01409e-97
3.24695e-99
5.06055e-101
7.52257e-103
1.06443e-104
1.44134e-106
1.85334e-108
2.25183e-110
2.57904e-112
2.78777e-114
2.83918e-116
2.71802e-118
2.45662e-120
2.11608e-122
1.7647e-124
1.45711e-126
1.22442e-128
1.07677e-130
1.00983e-132
1.00474e-134
9.80787e-137
7.49825e-139
2.12333e-141
1.07665e-70
3.23542e-72
8.98718e-74
2.38562e-75
5.95098e-77
1.44116e-78
3.37526e-80
7.64304e-82
1.70234e-83
3.66417e-85
7.69115e-87
1.57304e-88
3.10366e-90
5.9837e-92
1.1136e-93
1.99408e-95
3.4769e-97
5.81262e-99
9.3125e-101
1.44251e-102
2.1314e-104
2.99818e-106
4.03674e-108
5.16222e-110
6.23954e-112
7.11169e-114
7.65406e-116
7.76764e-118
7.41909e-120
6.70362e-122
5.79086e-124
4.86599e-126
4.07538e-128
3.50404e-130
3.18625e-132
3.12528e-134
3.28719e-136
3.41648e-138
2.77788e-140
8.12579e-143
3.14762e-72
9.15623e-74
2.58784e-75
6.87538e-77
1.73452e-78
4.21441e-80
9.88245e-82
2.23718e-83
4.97576e-85
1.06851e-86
2.23606e-88
4.55697e-90
8.95501e-92
1.71897e-93
3.18431e-95
5.67462e-97
9.84546e-99
1.63768e-100
2.61051e-102
4.02331e-104
5.91504e-106
8.27972e-108
1.10946e-109
1.41224e-111
1.69948e-113
1.92914e-115
2.06877e-117
2.09343e-119
1.99611e-121
1.80408e-123
1.56365e-125
1.32444e-127
1.12549e-129
9.90335e-132
9.31169e-134
9.55127e-136
1.06167e-137
1.17427e-139
1.01484e-141
3.06456e-144
9.5685e-74
2.4766e-75
7.04516e-77
1.89696e-78
4.79693e-80
1.17748e-81
2.77153e-83
6.28699e-85
1.39929e-86
3.00388e-88
6.27886e-90
1.27724e-91
2.50396e-93
4.79296e-95
8.85057e-97
1.57179e-98
2.7171e-100
4.50241e-102
7.14899e-104
1.09745e-105
1.60708e-107
2.24071e-109
2.99089e-111
3.79288e-113
4.54799e-115
5.14546e-117
5.50186e-119
5.55504e-121
5.29107e-123
4.7859e-125
4.16396e-127
3.55663e-129
3.06752e-131
2.76279e-133
2.68622e-135
2.88096e-137
3.38313e-139
3.98025e-141
3.65407e-143
1.13839e-145
2.65192e-75
7.16224e-77
1.81124e-78
4.9735e-80
1.27156e-81
3.13177e-83
7.44288e-85
1.69573e-86
3.78492e-88
8.13848e-90
1.7023e-91
3.46242e-93
6.78274e-95
1.29664e-96
2.39021e-98
4.23599e-100
7.30532e-102
1.20741e-103
1.91188e-105
2.92656e-107
4.273e-109
5.9401e-111
7.90544e-113
9.99627e-115
1.19532e-116
1.34888e-118
1.43913e-120
1.45075e-122
1.38113e-124
1.25095e-126
1.09306e-128
9.41863e-131
8.24719e-133
7.60431e-135
7.64565e-137
8.57255e-139
1.06317e-140
1.32983e-142
1.29611e-144
4.16356e-147
6.6496e-77
1.9194e-78
4.90248e-80
1.23616e-81
3.21417e-83
7.99436e-85
1.90945e-86
4.38948e-88
9.84589e-90
2.12471e-91
4.4553e-93
9.07639e-95
1.77954e-96
3.40267e-98
6.27056e-100
1.11048e-101
1.91303e-103
3.15748e-105
4.99171e-107
7.62729e-109
1.11151e-110
1.54207e-112
2.04808e-114
2.58447e-116
3.0843e-118
3.47419e-120
3.70104e-122
3.72744e-124
3.54893e-126
3.22043e-128
2.8274e-130
2.4587e-132
2.18634e-134
2.06413e-136
2.14614e-138
2.51531e-140
3.29351e-142
4.37762e-144
4.52691e-146
1.49306e-148
1.56526e-78
4.62185e-80
1.25389e-81
3.06018e-83
7.73267e-85
1.95256e-86
4.70404e-88
1.08924e-89
2.4635e-91
5.34534e-93
1.12567e-94
2.30072e-96
4.52179e-98
8.66098e-100
1.59785e-101
2.83139e-103
4.87853e-105
8.05058e-107
1.27212e-108
1.9424e-110
2.82804e-112
3.91938e-114
5.19947e-116
6.55328e-118
7.81133e-120
8.78918e-122
9.3553e-124
9.41914e-126
8.97413e-128
8.16296e-130
7.20415e-132
6.32473e-134
5.71305e-136
5.52357e-138
5.939e-140
7.27471e-142
1.00534e-143
1.41927e-145
1.55668e-147
5.38817e-150
3.45631e-80
1.04759e-81
2.90023e-83
7.52152e-85
1.78522e-86
4.55567e-88
1.11268e-89
2.59697e-91
5.9276e-93
1.29624e-94
2.74611e-96
5.64016e-98
1.1129e-99
2.13838e-101
3.95486e-103
7.0214e-105
1.2115e-106
2.0012e-108
3.16419e-110
4.83296e-112
7.03708e-114
9.75145e-116
1.29327e-117
1.62937e-119
1.94134e-121
2.18355e-123
2.32382e-125
2.3404e-127
2.23259e-129
2.03668e-131
1.80764e-133
1.60276e-135
1.47104e-137
1.4567e-139
1.61971e-141
2.0732e-143
3.0229e-145
4.53071e-147
5.23017e-149
6.60198e-151
7.15592e-82
2.23437e-83
6.33302e-85
1.67396e-86
4.13724e-88
1.01678e-89
2.52315e-91
5.96311e-93
1.37201e-94
3.03129e-96
6.4709e-98
1.33761e-99
2.65369e-101
5.12225e-103
9.5096e-105
1.69367e-106
2.92997e-108
4.85007e-110
7.68176e-112
1.17488e-113
1.71246e-115
2.37485e-117
3.1514e-119
3.97207e-121
4.73411e-123
5.3265e-125
5.6714e-127
5.71708e-129
5.46348e-131
5.00098e-133
4.46564e-135
4.00025e-137
3.73148e-139
3.78514e-141
4.35229e-143
5.82033e-145
8.95116e-147
1.41957e-148
1.75574e-150
1.28384e-151
1.38896e-83
4.48405e-85
1.30551e-86
3.52781e-88
8.88065e-90
2.17507e-91
5.48977e-93
1.31678e-94
3.06397e-96
6.83713e-98
1.47363e-99
3.07031e-101
6.13291e-103
1.1908e-104
2.22203e-106
3.97486e-108
6.90221e-110
1.14623e-111
1.82043e-113
2.79073e-115
4.07568e-117
5.66154e-119
7.52331e-121
9.49378e-123
1.13271e-124
1.27573e-126
1.35985e-128
1.37284e-130
1.31499e-132
1.20833e-134
1.086e-136
9.8316e-139
9.32307e-141
9.68869e-143
1.15203e-144
1.60934e-146
2.60673e-148
4.46218e-150
4.28695e-151
5.57854e-153
2.52789e-85
8.46887e-87
2.54118e-88
7.04192e-90
1.81069e-91
4.46616e-93
1.14837e-94
2.79854e-96
6.6025e-98
1.48905e-99
3.24557e-101
6.82514e-103
1.37447e-104
2.68797e-106
5.04749e-108
9.07936e-110
1.5843e-111
2.64226e-113
4.21216e-115
6.47843e-117
9.48847e-119
1.32135e-120
1.75974e-122
2.22495e-124
2.65925e-126
2.99998e-128
3.20331e-130
3.24055e-132
3.11276e-134
2.87264e-136
2.59963e-138
2.37923e-140
2.29407e-142
2.44267e-144
3.00341e-146
4.38091e-148
7.50152e-150
5.48507e-151
4.72814e-152
1.89178e-154
4.31591e-87
1.50604e-88
4.6731e-90
1.33207e-91
3.50856e-93
8.82897e-95
2.31264e-96
5.73356e-98
1.37326e-99
3.13546e-101
6.91897e-103
1.47043e-104
2.98916e-106
5.89486e-108
1.11524e-109
2.01946e-111
3.5448e-113
5.94325e-115
9.51907e-117
1.4702e-118
2.16133e-120
3.01985e-122
4.03367e-124
5.11361e-126
6.12659e-128
6.92741e-130
7.41395e-132
7.51954e-134
7.24692e-136
6.7197e-138
6.12528e-140
5.669e-142
5.55909e-144
6.06532e-146
7.71352e-148
1.16597e-149
6.31286e-151
9.94506e-152
1.65908e-153
6.24779e-156
6.918e-89
2.52384e-90
8.12535e-92
2.38978e-93
6.46601e-95
1.67731e-96
4.49064e-98
1.13385e-99
2.7602e-101
6.39063e-103
1.42906e-104
3.07297e-106
6.31318e-108
1.25689e-109
2.39831e-111
4.37642e-113
7.73545e-115
1.30505e-116
2.10201e-118
3.26296e-120
4.8187e-122
6.76037e-124
9.06333e-126
1.15284e-127
1.38545e-129
1.57106e-131
1.6862e-133
1.7155e-135
1.65955e-137
1.54676e-139
1.42068e-141
1.33e-143
1.32665e-145
1.48374e-147
1.9208e-149
7.02877e-151
1.42865e-151
3.61364e-153
5.2608e-155
2.02681e-157
1.0423e-90
3.99029e-92
1.33735e-93
4.07068e-95
1.13457e-96
3.0789e-98
8.42098e-100
2.16737e-101
5.36804e-103
1.26245e-104
2.86259e-106
6.23553e-108
1.29604e-109
2.60768e-111
5.02368e-113
9.24712e-115
1.64738e-116
2.79922e-118
4.53794e-120
7.08573e-122
1.052e-123
1.48303e-125
1.99697e-127
2.55026e-129
3.07609e-131
3.50024e-133
3.76947e-135
3.84867e-137
3.7388e-139
3.50405e-141
3.24399e-143
3.0727e-145
3.11854e-147
3.53952e-149
7.86293e-151
1.87434e-151
5.3181e-153
1.06988e-154
1.63526e-156
6.46035e-159
1.47838e-92
5.96119e-94
2.0867e-95
6.59291e-97
1.8982e-98
5.46299e-100
1.52727e-101
4.01015e-103
1.01147e-104
2.41863e-106
5.56874e-108
1.22986e-109
2.58877e-111
5.26919e-113
1.02586e-114
1.90654e-116
3.42642e-118
5.86889e-120
9.58388e-122
1.50644e-123
2.25014e-125
3.18965e-127
4.31665e-129
5.53807e-131
6.70833e-133
7.66369e-135
8.2851e-137
8.49321e-139
8.2888e-141
7.81425e-143
7.29396e-145
6.99192e-147
7.18244e-149
9.48272e-151
2.46834e-151
7.29851e-153
1.46756e-154
3.09661e-156
4.99693e-158
2.02342e-160
1.978e-94
8.43123e-96
3.09245e-97
1.01709e-98
3.04976e-100
9.38263e-102
2.68277e-103
7.19114e-105
1.84893e-106
4.50224e-108
1.0531e-109
2.36047e-111
5.03665e-113
1.03803e-114
2.04417e-116
3.83907e-118
6.9661e-120
1.20371e-121
1.98154e-123
3.13769e-125
4.71839e-127
6.72977e-129
9.15911e-131
1.18116e-132
1.4376e-134
1.64969e-136
1.79117e-138
1.84431e-140
1.8089e-142
1.71597e-144
1.61538e-146
1.56404e-148
1.77897e-150
3.24977e-151
1.07611e-152
1.8898e-154
3.94962e-156
8.81574e-158
1.50137e-159
6.22819e-162
2.50256e-96
1.13163e-97
4.3627e-99
1.49876e-100
4.95237e-102
1.5618e-103
4.57006e-105
1.25161e-106
3.28316e-108
8.15208e-110
1.93854e-111
4.414e-113
9.55581e-115
1.99585e-116
3.97895e-118
7.55749e-120
1.38563e-121
2.41723e-123
4.01418e-125
6.40757e-127
9.70681e-129
1.39386e-130
1.90881e-132
2.47568e-134
3.02906e-136
3.49309e-138
3.81068e-140
3.94268e-142
3.8876e-144
3.71199e-146
3.5231e-148
3.60178e-150
4.11639e-151
1.77251e-152
2.64596e-154
4.75759e-156
1.04608e-157
2.46951e-159
4.43635e-161
1.88439e-163
3.00293e-98
1.44544e-99
5.87831e-101
2.21279e-102
7.7964e-104
2.52208e-105
7.55865e-107
2.11734e-108
5.67095e-110
1.43759e-111
3.47821e-113
8.0523e-115
1.77016e-116
3.7499e-118
7.57413e-120
1.45603e-121
2.69932e-123
4.75732e-125
7.97487e-127
1.28403e-128
1.96071e-130
2.83614e-132
3.91011e-134
5.10275e-136
6.27913e-138
7.27985e-140
7.98254e-142
8.30179e-144
8.23206e-146
7.9148e-148
7.65661e-150
4.89777e-151
3.21848e-152
4.20857e-154
6.28851e-156
1.17928e-157
2.72808e-159
6.80858e-161
1.28952e-162
5.60574e-165
3.42943e-100
1.76442e-101
7.95246e-103
3.28622e-104
1.1906e-105
3.95506e-107
1.21551e-108
3.48547e-110
9.55572e-112
2.47119e-113
6.09142e-115
1.43501e-116
3.20592e-118
6.89349e-120
1.4117e-121
2.74857e-123
5.1558e-125
9.18572e-127
1.5553e-128
2.52736e-130
3.89213e-132
5.67405e-134
7.87908e-136
1.03506e-137
1.28151e-139
1.49428e-141
1.64751e-143
1.72282e-145
1.71887e-147
1.6505e-149
5.58895e-151
6.14797e-152
7.57135e-154
9.53584e-156
1.47209e-157
2.88009e-159
7.00764e-161
1.84815e-162
3.6884e-164
1.6402e-166
3.74825e-102
2.22593e-103
1.10965e-104
4.72926e-106
1.76502e-107
6.0302e-109
1.90267e-110
5.59389e-112
1.57156e-113
4.14803e-115
1.04279e-116
2.50181e-118
5.6845e-120
1.24157e-121
2.57963e-123
5.09014e-125
9.66684e-127
1.74204e-128
2.98081e-130
4.89109e-132
7.60009e-134
1.11715e-135
1.56314e-137
2.06794e-139
2.577e-141
3.02315e-143
3.35252e-145
3.52633e-147
3.51329e-149
6.45315e-151
1.15133e-151
1.49267e-153
1.65057e-155
2.12863e-157
3.39741e-159
6.93332e-161
1.77374e-162
4.94111e-164
1.03854e-165
4.72216e-168
4.50387e-104
2.89411e-105
1.49676e-106
6.5983e-108
2.54241e-109
8.94846e-111
2.90318e-112
8.78123e-114
2.5237e-115
6.81027e-117
1.74757e-118
4.27324e-120
9.88206e-122
2.19386e-123
4.62756e-125
9.25948e-127
1.78134e-128
3.24864e-130
5.62032e-132
9.31643e-134
1.4613e-135
2.16667e-137
3.05597e-139
4.07278e-141
5.11015e-143
6.03319e-145
6.73139e-147
7.09248e-149
8.04782e-151
1.96182e-151
3.08857e-153
3.15595e-155
3.54459e-157
4.68749e-159
7.73442e-161
1.64605e-162
4.42607e-164
1.3017e-165
2.87987e-167
1.33831e-169
5.3793e-106
3.61924e-107
1.95131e-108
8.93018e-110
3.56101e-111
1.29432e-112
4.33662e-114
1.34584e-115
3.96562e-117
1.09515e-118
2.87096e-120
7.16061e-122
1.68654e-123
3.80818e-125
8.15965e-127
1.65654e-128
3.22986e-130
5.96377e-132
1.04365e-133
1.74838e-135
2.7693e-137
4.14322e-139
5.89262e-141
7.9139e-143
1.00006e-144
1.18861e-146
1.33158e-148
1.54768e-150
2.90424e-151
6.4178e-153
6.3782e-155
6.56775e-157
7.51421e-159
1.01901e-160
1.738e-162
3.85632e-164
1.08942e-165
3.38079e-167
7.86844e-169
3.73545e-171
6.14045e-108
4.35493e-109
2.45942e-110
1.17254e-111
4.85967e-113
1.83114e-114
6.3205e-116
2.01786e-117
6.10303e-119
1.72653e-120
4.62803e-122
1.1783e-123
2.82849e-125
6.49994e-127
1.41553e-128
2.91723e-130
5.76739e-132
1.07867e-133
1.91016e-135
3.23527e-137
5.17653e-139
7.81746e-141
1.12146e-142
1.51822e-144
1.93282e-146
2.31057e-148
2.76565e-150
3.74851e-151
1.28781e-152
1.3037e-154
1.29339e-156
1.35015e-158
1.57378e-160
2.18854e-162
3.85781e-164
8.92135e-166
2.6466e-167
8.66113e-169
2.11921e-170
1.02729e-172
6.69065e-110
5.03537e-111
2.99307e-112
1.49708e-113
6.46273e-115
2.5223e-116
8.99468e-118
2.95852e-119
9.1965e-121
2.66808e-122
7.31986e-124
1.90398e-125
4.66172e-127
1.091e-128
2.41631e-130
5.0578e-132
1.01442e-133
1.92264e-135
3.44673e-137
5.90436e-139
9.54669e-141
1.45574e-142
2.10713e-144
2.87635e-146
3.68837e-148
4.59245e-150
4.38598e-151
2.41667e-152
2.59629e-154
2.58588e-156
2.59246e-158
2.74431e-160
3.25941e-162
4.64789e-164
8.466e-166
2.0397e-167
6.35033e-169
2.18984e-170
5.62863e-172
2.78459e-174
6.90547e-112
5.54751e-113
3.48656e-114
1.82457e-115
8.20323e-117
3.33476e-118
1.23371e-119
4.19406e-121
1.34396e-122
4.00872e-124
1.12816e-125
3.00443e-127
7.51597e-129
1.7944e-130
4.04809e-132
8.61768e-134
1.75546e-135
3.37361e-137
6.12584e-139
1.06186e-140
1.73578e-142
2.67371e-144
3.90643e-146
5.37853e-148
7.05376e-150
4.86389e-151
4.15524e-152
4.8998e-154
5.0495e-156
5.07236e-158
5.14147e-160
5.52047e-162
6.68181e-164
9.77086e-166
1.83874e-167
4.61335e-169
1.50622e-170
5.46723e-172
1.47453e-173
7.43918e-176
2.92928e-113
1.81225e-114
9.35821e-116
4.16346e-117
1.67005e-118
6.10669e-120
2.05638e-121
6.52849e-123
1.93175e-124
5.39673e-126
1.4271e-127
3.54877e-129
8.44358e-131
1.90259e-132
4.04779e-134
8.24045e-136
1.61651e-137
3.15605e-139
5.81511e-141
1.02169e-142
1.69108e-144
2.63513e-146
3.89579e-148
5.88557e-150
5.45606e-151
6.4962e-152
8.60256e-154
9.35692e-156
9.71371e-158
9.84901e-160
1.00964e-161
1.09988e-163
1.35702e-165
2.03524e-167
3.95687e-169
1.03348e-170
3.53555e-172
1.34901e-173
3.81091e-175
1.95723e-177
)
;

boundaryField
{
    leftWall
    {
        type            zeroGradient;
    }
    rightWall
    {
        type            zeroGradient;
    }
    lowerWall
    {
        type            zeroGradient;
    }
    atmosphere
    {
        type            inletOutlet;
        inletValue      uniform 0;
        value           nonuniform List<scalar> 
45
(
4.52931e-108
4.07457e-109
3.75887e-110
3.69897e-111
3.72579e-112
2.92928e-113
1.81225e-114
9.35821e-116
4.16346e-117
1.67005e-118
6.10669e-120
2.05638e-121
6.52849e-123
1.93175e-124
5.39673e-126
1.4271e-127
3.54877e-129
8.44358e-131
1.90259e-132
4.04779e-134
8.24045e-136
1.61651e-137
3.15605e-139
5.81511e-141
1.02169e-142
1.69108e-144
2.63513e-146
3.89579e-148
5.88557e-150
5.45606e-151
6.4962e-152
8.60256e-154
9.35692e-156
9.71371e-158
9.84901e-160
1.00964e-161
1.09988e-163
1.35702e-165
2.03524e-167
3.95687e-169
1.03348e-170
3.53555e-172
1.34901e-173
3.81091e-175
1.95723e-177
)
;
    }
    defaultFaces
    {
        type            empty;
    }
    procBoundary3to1
    {
        type            processor;
        value           nonuniform List<scalar> 
45
(
4.25537e-38
1.42767e-39
5.38843e-41
1.92802e-42
6.97022e-44
2.60347e-45
7.4745e-47
2.42703e-48
7.73848e-50
2.41079e-51
7.32996e-53
2.17052e-54
6.24745e-56
1.74466e-57
4.71856e-59
1.23377e-60
3.11347e-62
7.57041e-64
1.77074e-65
3.97795e-67
8.56933e-69
1.76735e-70
3.48399e-72
6.55371e-74
1.17434e-75
2.00076e-77
3.23461e-79
4.95153e-81
7.1602e-83
9.75572e-85
1.24886e-86
1.49745e-88
1.67626e-90
1.74581e-92
1.686e-94
1.50516e-96
1.23878e-98
9.37659e-101
6.50911e-103
4.12417e-105
2.36061e-107
1.19283e-109
5.04833e-112
1.57745e-114
2.46592e-117
)
;
    }
    procBoundary3to2
    {
        type            processor;
        value           nonuniform List<scalar> 
43
(
1.1534e-37
9.21711e-39
6.39508e-40
4.17023e-41
2.71452e-42
1.71195e-43
1.03383e-44
5.96238e-46
3.26805e-47
1.69341e-48
8.24761e-50
3.75127e-51
1.58151e-52
6.12444e-54
2.15154e-55
6.73909e-57
2.31226e-58
8.37688e-60
2.82571e-61
8.8525e-63
2.56978e-64
6.90777e-66
1.71705e-67
3.883e-69
7.22653e-71
1.22691e-72
1.89846e-74
2.67542e-76
3.43249e-78
4.00891e-80
4.26372e-82
4.13285e-84
3.65602e-86
2.95772e-88
2.19449e-90
1.49895e-92
9.47335e-95
5.57564e-97
3.08133e-99
1.61564e-101
1.04256e-103
7.10007e-106
4.88774e-107
)
;
    }
}


// ************************************************************************* //
