/*--------------------------------*- C++ -*----------------------------------*\
  =========                 |
  \\      /  F ield         | OpenFOAM: The Open Source CFD Toolbox
   \\    /   O peration     | Website:  https://openfoam.org
    \\  /    A nd           | Version:  7
     \\/     M anipulation  |
\*---------------------------------------------------------------------------*/
FoamFile
{
    version     2.0;
    format      ascii;
    class       surfaceScalarField;
    location    "0.05";
    object      phi;
}
// * * * * * * * * * * * * * * * * * * * * * * * * * * * * * * * * * * * * * //

dimensions      [0 3 -1 0 0 0 0];

internalField   nonuniform List<scalar> 
3782
(
1.23034e-05
1.08121e-06
1.21785e-05
5.87674e-07
1.20242e-05
8.67845e-08
1.18396e-05
-4.19276e-07
1.16232e-05
-9.27261e-07
1.13741e-05
-1.43322e-06
1.10921e-05
-1.93266e-06
1.07781e-05
-2.42064e-06
1.04334e-05
-2.89191e-06
1.00606e-05
-3.34112e-06
9.66313e-06
-3.76305e-06
9.24502e-06
-4.15292e-06
8.81092e-06
-4.50654e-06
8.36579e-06
-4.82054e-06
7.91467e-06
-5.09246e-06
7.46243e-06
-5.32082e-06
7.01362e-06
-5.50502e-06
6.57231e-06
-5.64533e-06
6.14203e-06
-5.74271e-06
5.72574e-06
-5.79868e-06
5.3258e-06
-5.81521e-06
4.944e-06
-5.79457e-06
4.58166e-06
-5.73918e-06
4.2396e-06
-5.65156e-06
3.91829e-06
-5.53419e-06
3.61787e-06
-5.38947e-06
3.33823e-06
-5.2197e-06
3.07904e-06
-5.02696e-06
2.83985e-06
-4.81317e-06
2.62007e-06
-4.58003e-06
2.41909e-06
-4.32901e-06
2.23625e-06
-4.06137e-06
2.07089e-06
-3.77816e-06
1.92241e-06
-3.48018e-06
1.79023e-06
-3.16806e-06
1.6739e-06
-2.84228e-06
1.57309e-06
-2.50335e-06
1.48767e-06
-2.15222e-06
1.41776e-06
-1.79146e-06
1.36366e-06
-1.42774e-06
1.32568e-06
-1.0768e-06
1.30302e-06
-7.71899e-07
-5.78328e-07
1.16809e-06
1.11569e-05
1.24747e-06
1.07472e-05
1.31981e-06
1.03959e-05
1.01061e-05
1.38496e-06
6.97919e-07
1.10467e-05
7.99749e-07
1.06454e-05
8.93157e-07
1.03025e-05
1.00209e-05
9.78365e-07
2.22168e-07
1.09113e-05
3.47457e-07
1.05201e-05
4.62869e-07
1.01871e-05
9.91484e-06
5.689e-07
-2.57437e-07
1.07495e-05
-1.07628e-07
1.03703e-05
3.06601e-08
1.00488e-05
9.78732e-06
1.58188e-07
-7.37997e-07
1.05603e-05
-5.62956e-07
1.01953e-05
-4.01257e-07
9.88708e-06
9.6379e-06
-2.51834e-07
-1.21601e-06
1.0343e-05
-1.01542e-06
9.99469e-06
-8.30145e-07
9.7018e-06
9.4665e-06
-6.58752e-07
-1.68752e-06
1.00979e-05
-1.4615e-06
9.76866e-06
-1.25284e-06
9.49313e-06
9.2734e-06
-1.05973e-06
-2.1482e-06
9.82542e-06
-1.89737e-06
9.51782e-06
-1.66594e-06
9.26171e-06
9.05919e-06
-1.45173e-06
-2.59349e-06
9.52699e-06
-2.31904e-06
9.24337e-06
-2.06594e-06
9.00861e-06
8.82487e-06
-1.83162e-06
-3.01874e-06
9.20462e-06
-2.72246e-06
8.94709e-06
-2.44924e-06
8.73541e-06
8.57184e-06
-2.1962e-06
-3.41943e-06
8.86101e-06
-3.10363e-06
8.63131e-06
-2.81233e-06
8.44413e-06
8.30189e-06
-2.54236e-06
-3.79132e-06
8.49944e-06
-3.45882e-06
8.29883e-06
-3.15186e-06
8.1372e-06
8.01714e-06
-2.86709e-06
-4.13069e-06
8.12362e-06
-3.78466e-06
7.95284e-06
-3.46481e-06
7.81737e-06
7.72002e-06
-3.16765e-06
-4.43443e-06
7.73754e-06
-4.07832e-06
7.59677e-06
-3.74855e-06
7.48764e-06
7.41313e-06
-3.44164e-06
-4.70018e-06
7.34528e-06
-4.33755e-06
7.23416e-06
-4.00098e-06
7.15111e-06
7.09924e-06
-3.68705e-06
-4.92639e-06
6.95086e-06
-4.56074e-06
6.86854e-06
-4.22049e-06
6.81088e-06
6.7811e-06
-3.90232e-06
-5.11224e-06
6.55807e-06
-4.74697e-06
6.50328e-06
-4.40605e-06
6.46998e-06
6.46145e-06
-4.08638e-06
-5.25766e-06
6.17039e-06
-4.89591e-06
6.14153e-06
-4.55718e-06
6.13126e-06
6.14287e-06
-4.23859e-06
-5.36322e-06
5.79089e-06
-5.00781e-06
5.78613e-06
-4.67388e-06
5.79733e-06
5.82779e-06
-4.35878e-06
-5.43001e-06
5.42222e-06
-5.08341e-06
5.43953e-06
-4.75659e-06
5.47051e-06
5.51837e-06
-4.44717e-06
-5.45953e-06
5.06652e-06
-5.12384e-06
5.10384e-06
-4.80613e-06
5.15281e-06
5.21656e-06
-4.50432e-06
-5.4536e-06
4.72554e-06
-5.13052e-06
4.78076e-06
-4.82363e-06
4.84592e-06
4.92401e-06
-4.53107e-06
-5.41423e-06
4.40057e-06
-5.10513e-06
4.47166e-06
-4.81042e-06
4.55122e-06
4.64209e-06
-4.52849e-06
-5.34355e-06
4.09255e-06
-5.04944e-06
4.17755e-06
-4.76799e-06
4.26978e-06
4.37194e-06
-4.49783e-06
-5.24372e-06
3.80206e-06
-4.96531e-06
3.89914e-06
-4.69794e-06
4.00242e-06
4.11443e-06
-4.44042e-06
-5.11686e-06
3.52943e-06
-4.8546e-06
3.63688e-06
-4.60187e-06
3.7497e-06
3.87022e-06
-4.35766e-06
-4.965e-06
3.27472e-06
-4.71914e-06
3.39102e-06
-4.48141e-06
3.51198e-06
3.63979e-06
-4.25097e-06
-4.79008e-06
3.03783e-06
-4.56065e-06
3.16158e-06
-4.33811e-06
3.28944e-06
3.42342e-06
-4.12174e-06
-4.59384e-06
2.8185e-06
-4.38076e-06
2.94849e-06
-4.17346e-06
3.08213e-06
3.22128e-06
-3.97132e-06
-4.3779e-06
2.61637e-06
-4.18095e-06
2.75153e-06
-3.98882e-06
2.88999e-06
3.03343e-06
-3.80097e-06
-4.14365e-06
2.43101e-06
-3.96257e-06
2.57044e-06
-3.78546e-06
2.71287e-06
2.85983e-06
-3.61187e-06
-3.89232e-06
2.26196e-06
-3.72678e-06
2.4049e-06
-3.5645e-06
2.55057e-06
2.70041e-06
-3.40508e-06
-3.62494e-06
2.10876e-06
-3.4746e-06
2.25455e-06
-3.32692e-06
2.40288e-06
2.55505e-06
-3.18156e-06
-3.34234e-06
1.97094e-06
-3.20687e-06
2.11907e-06
-3.07357e-06
2.26956e-06
2.42361e-06
-2.94213e-06
-3.04521e-06
1.8481e-06
-2.92431e-06
1.99817e-06
-2.80517e-06
2.15042e-06
2.30598e-06
-2.68755e-06
-2.73409e-06
1.73992e-06
-2.62753e-06
1.89161e-06
-2.52241e-06
2.0453e-06
2.20208e-06
-2.41851e-06
-2.4096e-06
1.64618e-06
-2.31723e-06
1.79924e-06
-2.22604e-06
1.95411e-06
2.11187e-06
-2.13583e-06
-2.07285e-06
1.56681e-06
-1.99464e-06
1.72103e-06
-1.91738e-06
1.87685e-06
2.03537e-06
-1.84087e-06
-1.72655e-06
1.5019e-06
-1.66256e-06
1.65704e-06
-1.59926e-06
1.81356e-06
1.97262e-06
-1.53651e-06
-1.37743e-06
1.45158e-06
-1.32768e-06
1.60729e-06
-1.27832e-06
1.76421e-06
1.92354e-06
-1.22924e-06
-1.04092e-06
1.4157e-06
-1.00505e-06
1.57142e-06
-9.69169e-07
1.72833e-06
1.88762e-06
-9.33247e-07
-7.49319e-07
1.39312e-06
-7.25934e-07
1.54804e-06
-7.0214e-07
1.70454e-06
1.86355e-06
-6.7807e-07
-5.64788e-07
-5.49742e-07
-5.33998e-07
-5.17886e-07
1.44944e-06
1.10046e-05
1.50495e-06
1.06964e-05
1.55137e-06
1.03711e-05
1.58877e-06
1.00393e-05
1.6174e-06
9.70971e-06
1.63761e-06
9.38828e-06
1.64985e-06
9.07853e-06
1.65459e-06
8.78228e-06
1.65233e-06
8.50027e-06
1.64357e-06
8.23259e-06
1.62882e-06
7.979e-06
1.60859e-06
7.73907e-06
1.58334e-06
7.51229e-06
1.55353e-06
7.29815e-06
1.51958e-06
7.09611e-06
1.48191e-06
6.90565e-06
1.44087e-06
6.72626e-06
1.39681e-06
6.55746e-06
1.35006e-06
6.39877e-06
1.30088e-06
6.24975e-06
1.24953e-06
6.10996e-06
1.19623e-06
5.97904e-06
1.14119e-06
5.85665e-06
1.08457e-06
5.74255e-06
1.02655e-06
5.63664e-06
9.67242e-07
5.5391e-06
9.06756e-07
5.45057e-06
8.45156e-07
5.37245e-06
7.82467e-07
5.3074e-06
7.18664e-07
5.25986e-06
6.53661e-07
5.23658e-06
5.87318e-07
5.2471e-06
5.19446e-07
5.30373e-06
4.49851e-07
5.42115e-06
3.7838e-07
5.61532e-06
3.05002e-07
5.90124e-06
2.29911e-07
6.28809e-06
1.53587e-07
6.76754e-06
7.66055e-08
7.28626e-06
7.60455e-06
1.06429e-06
1.09186e-05
1.14031e-06
1.06204e-05
1.20634e-06
1.03051e-05
1.26248e-06
9.98315e-06
1.30902e-06
9.66319e-06
1.34633e-06
9.35098e-06
1.37488e-06
9.04998e-06
1.39519e-06
8.76198e-06
1.40777e-06
8.48769e-06
1.41316e-06
8.22719e-06
1.4119e-06
7.98025e-06
1.40452e-06
7.74644e-06
1.39151e-06
7.5253e-06
1.37336e-06
7.31632e-06
1.35051e-06
7.11898e-06
1.32337e-06
6.93281e-06
1.29235e-06
6.75731e-06
1.2578e-06
6.59204e-06
1.22005e-06
6.43654e-06
1.17941e-06
6.2904e-06
1.13616e-06
6.15323e-06
1.09054e-06
6.02466e-06
1.04277e-06
5.90441e-06
9.93078e-07
5.79224e-06
9.4163e-07
5.68809e-06
8.88585e-07
5.59215e-06
8.34071e-07
5.50508e-06
7.78182e-07
5.42834e-06
7.20974e-07
5.36462e-06
6.62454e-07
5.31839e-06
6.02579e-07
5.29647e-06
5.4126e-07
5.30844e-06
4.78374e-07
5.36663e-06
4.13804e-07
5.48573e-06
3.47486e-07
5.68164e-06
2.79494e-07
5.96924e-06
2.10123e-07
6.35747e-06
1.39956e-07
6.83773e-06
6.96258e-08
7.35663e-06
7.67418e-06
6.76914e-07
1.08106e-05
7.73914e-07
1.05234e-05
8.59868e-07
1.02191e-05
9.34951e-07
9.90807e-06
9.99496e-07
9.59864e-06
1.05395e-06
9.29652e-06
1.09882e-06
9.00511e-06
1.13467e-06
8.72614e-06
1.16205e-06
8.46031e-06
1.18154e-06
8.2077e-06
1.19372e-06
7.96808e-06
1.19912e-06
7.74105e-06
1.19829e-06
7.52615e-06
1.19172e-06
7.3229e-06
1.17989e-06
7.13083e-06
1.16324e-06
6.94948e-06
1.14219e-06
6.7784e-06
1.1171e-06
6.61714e-06
1.08835e-06
6.46531e-06
1.05625e-06
6.32251e-06
1.02111e-06
6.18838e-06
9.83197e-07
6.06258e-06
9.42765e-07
5.94483e-06
9.00044e-07
5.83495e-06
8.55239e-07
5.73289e-06
8.0853e-07
5.63885e-06
7.60069e-07
5.55354e-06
7.09979e-07
5.47844e-06
6.58343e-07
5.41626e-06
6.05204e-07
5.37154e-06
5.50561e-07
5.35113e-06
4.94376e-07
5.36464e-06
4.36589e-07
5.42442e-06
3.77161e-07
5.54516e-06
3.1612e-07
5.74269e-06
2.53638e-07
6.03173e-06
1.90115e-07
6.421e-06
1.26213e-07
6.90163e-06
6.26078e-08
7.42025e-06
7.73679e-06
2.8884e-07
1.068e-05
4.07182e-07
1.0405e-05
5.13286e-07
1.0113e-05
6.0742e-07
9.81393e-06
6.90006e-07
9.51605e-06
7.61569e-07
9.22496e-06
8.22694e-07
8.94398e-06
8.73991e-07
8.67485e-06
9.16079e-07
8.41823e-06
9.49572e-07
8.17422e-06
9.75071e-07
7.94259e-06
9.93159e-07
7.72297e-06
1.0044e-06
7.51493e-06
1.00931e-06
7.318e-06
1.0084e-06
7.13176e-06
1.00215e-06
6.95577e-06
9.90972e-07
6.78959e-06
9.75292e-07
6.63284e-06
9.55482e-07
6.48514e-06
9.31892e-07
6.34611e-06
9.04846e-07
6.21542e-06
8.74642e-07
6.09278e-06
8.41554e-07
5.97791e-06
8.05834e-07
5.87067e-06
7.67709e-07
5.77101e-06
7.27383e-07
5.67918e-06
6.85031e-07
5.5959e-06
6.40801e-07
5.52268e-06
5.94806e-07
5.46227e-06
5.47122e-07
5.41923e-06
4.97791e-07
5.40047e-06
4.46823e-07
5.41562e-06
3.94223e-07
5.47704e-06
3.40027e-07
5.59937e-06
2.84352e-07
5.79837e-06
2.27466e-07
6.08862e-06
1.6987e-07
6.4786e-06
1.12313e-07
6.9592e-06
5.55051e-08
7.47707e-06
7.7923e-06
-9.82252e-08
1.05264e-05
4.16729e-08
1.02651e-05
1.68041e-07
9.98668e-06
2.81253e-07
9.70073e-06
3.8184e-07
9.41547e-06
4.70424e-07
9.13638e-06
5.47672e-07
8.86675e-06
6.14265e-07
8.60826e-06
6.70884e-07
8.36162e-06
7.18191e-07
8.12692e-06
7.56832e-07
7.90396e-06
7.87425e-07
7.69239e-06
8.10563e-07
7.4918e-06
8.26808e-07
7.30178e-06
8.36688e-07
7.1219e-06
8.40698e-07
6.95177e-06
8.39301e-07
6.79101e-06
8.32931e-07
6.63923e-06
8.21989e-07
6.49609e-06
8.06848e-07
6.36125e-06
7.87854e-07
6.23442e-06
7.65329e-07
6.1153e-06
7.39568e-07
6.00367e-06
7.10844e-07
5.89939e-06
6.79405e-07
5.80245e-06
6.45478e-07
5.71311e-06
6.0926e-07
5.63212e-06
5.70924e-07
5.56102e-06
5.30611e-07
5.50259e-06
4.88431e-07
5.46143e-06
4.44464e-07
5.44446e-06
3.98772e-07
5.46132e-06
3.51421e-07
5.5244e-06
3.02518e-07
5.64829e-06
2.52267e-07
5.84864e-06
2.01033e-07
6.13987e-06
1.49414e-07
6.53022e-06
9.82483e-08
7.01037e-06
4.8295e-08
7.52704e-06
7.8406e-06
-4.82172e-07
1.03498e-05
-3.20769e-07
1.01038e-05
-1.74232e-07
9.84015e-06
-4.20655e-08
9.56858e-06
7.63682e-08
9.29705e-06
1.81785e-07
9.03098e-06
2.74937e-07
8.77361e-06
3.56592e-07
8.52663e-06
4.27497e-07
8.29074e-06
4.88372e-07
8.06606e-06
5.39913e-07
7.85243e-06
5.8278e-07
7.64953e-06
6.17604e-07
7.45699e-06
6.44978e-07
7.27442e-06
6.6546e-07
7.10143e-06
6.79572e-07
6.93768e-06
6.87805e-07
6.78279e-06
6.90616e-07
6.63643e-06
6.8843e-07
6.49828e-06
6.81643e-07
6.36805e-06
6.70624e-07
6.24544e-06
6.55714e-07
6.13021e-06
6.3723e-07
6.02216e-06
6.15466e-07
5.92115e-06
5.90691e-07
5.82722e-06
5.6315e-07
5.74066e-06
5.33065e-07
5.66222e-06
5.00631e-07
5.59347e-06
4.66017e-07
5.53722e-06
4.29364e-07
5.49809e-06
3.90792e-07
5.48304e-06
3.50411e-07
5.50172e-06
3.08346e-07
5.56648e-06
2.64776e-07
5.69187e-06
2.19988e-07
5.89344e-06
1.74439e-07
6.18543e-06
1.28829e-07
6.57585e-06
8.4084e-08
7.05513e-06
4.10239e-08
7.57012e-06
7.88164e-06
-8.60509e-07
1.01506e-05
-6.77959e-07
9.92122e-06
-5.11618e-07
9.67383e-06
-3.60855e-07
9.41783e-06
-2.24924e-07
9.16115e-06
-1.03014e-07
8.9091e-06
5.72162e-09
8.66491e-06
1.0212e-07
8.43026e-06
1.86993e-07
8.20589e-06
2.61123e-07
7.99195e-06
3.25262e-07
7.7883e-06
3.80116e-07
7.59468e-06
4.26355e-07
7.41076e-06
4.64606e-07
7.23617e-06
4.95459e-07
7.07059e-06
5.19463e-07
6.91368e-06
5.37136e-07
6.76512e-06
5.48958e-07
6.62461e-06
5.55378e-07
6.49187e-06
5.56814e-07
6.36662e-06
5.53655e-07
6.2486e-06
5.46264e-07
6.13761e-06
5.34976e-07
6.03345e-06
5.20106e-07
5.93603e-06
5.01941e-07
5.84539e-06
4.80747e-07
5.76186e-06
4.56766e-07
5.68621e-06
4.30216e-07
5.62002e-06
4.01292e-07
5.56615e-06
3.70166e-07
5.52923e-06
3.36996e-07
5.51622e-06
3.01938e-07
5.53679e-06
2.65175e-07
5.60326e-06
2.26956e-07
5.7301e-06
1.87649e-07
5.93276e-06
1.47803e-07
6.22529e-06
1.08214e-07
6.61545e-06
6.99002e-08
7.09346e-06
3.3743e-08
7.60629e-06
7.91539e-06
-1.23053e-06
9.92941e-06
-1.02748e-06
9.71818e-06
-8.41961e-07
9.48833e-06
-6.73205e-07
9.2491e-06
-5.20349e-07
9.00832e-06
-3.82472e-07
8.77126e-06
-2.58643e-07
8.54111e-06
-1.47954e-07
8.3196e-06
-4.95305e-08
8.10749e-06
3.74702e-08
7.90496e-06
1.13844e-07
7.71194e-06
1.80341e-07
7.52819e-06
2.3767e-07
7.35343e-06
2.86497e-07
7.18735e-06
3.27441e-07
7.02965e-06
3.6108e-07
6.88004e-06
3.87959e-07
6.73825e-06
4.08582e-07
6.604e-06
4.23419e-07
6.47704e-06
4.32909e-07
6.35713e-06
4.37461e-07
6.24406e-06
4.37457e-07
6.13762e-06
4.33252e-07
6.03766e-06
4.25178e-07
5.94411e-06
4.1354e-07
5.85704e-06
3.98624e-07
5.77678e-06
3.80691e-07
5.70415e-06
3.59981e-07
5.64074e-06
3.36713e-07
5.58943e-06
3.11089e-07
5.55486e-06
2.83304e-07
5.54402e-06
2.53559e-07
5.56655e-06
2.22092e-07
5.63474e-06
1.89222e-07
5.76299e-06
1.55393e-07
5.96661e-06
1.21246e-07
6.25945e-06
8.76699e-08
6.64905e-06
5.57708e-08
7.12538e-06
2.64928e-08
7.63559e-06
7.94189e-06
-1.58947e-06
9.68728e-06
-1.36686e-06
9.49559e-06
-1.16304e-06
9.28452e-06
-9.77101e-07
9.06319e-06
-8.08078e-07
8.83932e-06
-6.54944e-07
8.61816e-06
-5.16684e-07
8.40289e-06
-3.92312e-07
8.19526e-06
-2.80887e-07
7.99608e-06
-1.81516e-07
7.80561e-06
-9.3362e-08
7.62379e-06
-1.56345e-08
7.45047e-06
5.24085e-08
7.28539e-06
1.1146e-07
7.1283e-06
1.62169e-07
6.97894e-06
2.05143e-07
6.83707e-06
2.40952e-07
6.70244e-06
2.70124e-07
6.57484e-06
2.93148e-07
6.45403e-06
3.10485e-07
6.33981e-06
3.22563e-07
6.23199e-06
3.29781e-07
6.13041e-06
3.32512e-07
6.03494e-06
3.31104e-07
5.94553e-06
3.25881e-07
5.86227e-06
3.17145e-07
5.78552e-06
3.05175e-07
5.71612e-06
2.90234e-07
5.65569e-06
2.72563e-07
5.6071e-06
2.52392e-07
5.57504e-06
2.29951e-07
5.56647e-06
2.05485e-07
5.59103e-06
1.79287e-07
5.66095e-06
1.51739e-07
5.79056e-06
1.23365e-07
5.995e-06
9.48894e-08
6.28795e-06
6.72923e-08
6.67666e-06
4.17637e-08
7.15092e-06
1.93076e-08
7.65807e-06
7.96122e-06
-1.93451e-06
9.4256e-06
-1.6936e-06
9.2547e-06
-1.47261e-06
9.06355e-06
-1.27053e-06
8.86113e-06
-1.08628e-06
8.6551e-06
-9.18758e-07
8.45066e-06
-7.66864e-07
8.25102e-06
-6.29543e-07
8.05796e-06
-5.05794e-07
7.87235e-06
-3.94675e-07
7.6945e-06
-2.95303e-07
7.52443e-06
-2.06854e-07
7.36203e-06
-1.28558e-07
7.2071e-06
-5.96988e-08
7.05944e-06
3.9913e-10
6.91885e-06
5.23666e-08
6.78511e-06
9.67904e-08
6.65803e-06
1.34218e-07
6.53742e-06
1.65163e-07
6.4231e-06
1.90105e-07
6.31488e-06
2.09487e-07
6.21263e-06
2.23727e-07
6.11619e-06
2.33214e-07
6.02547e-06
2.38312e-07
5.94044e-06
2.3936e-07
5.86123e-06
2.36677e-07
5.78821e-06
2.3056e-07
5.72224e-06
2.2129e-07
5.66496e-06
2.0913e-07
5.61926e-06
1.94339e-07
5.58983e-06
1.77177e-07
5.58364e-06
1.57933e-07
5.61028e-06
1.36952e-07
5.68195e-06
1.14678e-07
5.81285e-06
9.17091e-08
6.01799e-06
6.88534e-08
6.31082e-06
4.71751e-08
6.69836e-06
2.79427e-08
7.17018e-06
1.22148e-08
7.67382e-06
7.97344e-06
-2.26287e-06
9.14613e-06
-2.00523e-06
8.99707e-06
-1.76846e-06
8.8268e-06
-1.55149e-06
8.64418e-06
-1.35315e-06
8.45679e-06
-1.17226e-06
8.2698e-06
-1.00767e-06
8.08645e-06
-8.58249e-07
7.90856e-06
-7.22955e-07
7.73707e-06
-6.00801e-07
7.57236e-06
-4.90868e-07
7.41451e-06
-3.923e-07
7.26347e-06
-3.04302e-07
7.11911e-06
-2.26129e-07
6.98127e-06
-1.57089e-07
6.84982e-06
-9.65342e-08
6.72457e-06
-4.3863e-08
6.60537e-06
1.49046e-09
6.49208e-06
4.00553e-08
6.38455e-06
7.23234e-08
6.28263e-06
9.8756e-08
6.18621e-06
1.19786e-07
6.09517e-06
1.35818e-07
6.00945e-06
1.4723e-07
5.92904e-06
1.54378e-07
5.85409e-06
1.57593e-07
5.785e-06
1.5719e-07
5.72264e-06
1.53466e-07
5.66868e-06
1.46707e-07
5.62603e-06
1.37195e-07
5.59935e-06
1.25224e-07
5.59562e-06
1.1112e-07
5.6244e-06
9.52789e-08
5.6978e-06
7.82065e-08
5.82994e-06
6.05704e-08
6.03564e-06
4.32566e-08
6.32815e-06
2.74099e-08
6.71423e-06
1.43696e-08
7.18324e-06
5.22609e-09
7.68299e-06
7.97868e-06
-2.5719e-06
8.85097e-06
-2.29937e-06
8.72456e-06
-2.04847e-06
8.57592e-06
-1.81806e-06
8.41379e-06
-1.60694e-06
8.24568e-06
-1.41386e-06
8.07674e-06
-1.23762e-06
7.91023e-06
-1.07707e-06
7.74803e-06
-9.31108e-07
7.59113e-06
-7.9872e-07
7.43998e-06
-6.78959e-07
7.29476e-06
-5.70945e-07
7.15546e-06
-4.7386e-07
7.02203e-06
-3.86941e-07
6.89437e-06
-3.09478e-07
6.77236e-06
-2.40809e-07
6.65591e-06
-1.80316e-07
6.5449e-06
-1.27422e-07
6.43921e-06
-8.15893e-08
6.33874e-06
-4.23128e-08
6.24338e-06
-9.11788e-09
6.15303e-06
1.84402e-08
6.06763e-06
4.07776e-08
5.98712e-06
5.82852e-08
5.91154e-06
7.13308e-08
5.84105e-06
8.02614e-08
5.77607e-06
8.54061e-08
5.7175e-06
8.70789e-08
5.66701e-06
8.55841e-08
5.62752e-06
8.12272e-08
5.60371e-06
7.43312e-08
5.60252e-06
6.52619e-08
5.63348e-06
5.44618e-08
5.70862e-06
4.24938e-08
5.84192e-06
3.00924e-08
6.04806e-06
1.82177e-08
6.34005e-06
8.09141e-09
6.72437e-06
1.11692e-09
7.19023e-06
-1.62493e-09
7.68575e-06
7.97707e-06
-2.85914e-06
8.54249e-06
-2.57381e-06
8.43925e-06
-2.31061e-06
8.31275e-06
-2.06841e-06
8.17161e-06
-1.84597e-06
8.02325e-06
-1.64202e-06
7.8728e-06
-1.45532e-06
7.72355e-06
-1.2847e-06
7.57742e-06
-1.12904e-06
7.43548e-06
-9.87304e-07
7.29826e-06
-8.58523e-07
7.16599e-06
-7.41801e-07
7.03875e-06
-6.36305e-07
6.91655e-06
-5.4126e-07
6.79934e-06
-4.55944e-07
6.68706e-06
-3.79684e-07
6.57967e-06
-3.11851e-07
6.47708e-06
-2.5186e-07
6.37924e-06
-1.99161e-07
6.28606e-06
-1.5324e-07
6.19747e-06
-1.13613e-07
6.11342e-06
-7.9828e-08
6.03386e-06
-5.146e-08
5.95877e-06
-2.81075e-08
5.8882e-06
-9.39124e-09
5.82234e-06
5.04732e-09
5.76163e-06
1.55494e-08
5.707e-06
2.24432e-08
5.66012e-06
2.60508e-08
5.62392e-06
2.66996e-08
5.60307e-06
2.47407e-08
5.60449e-06
2.05757e-08
5.63766e-06
1.4692e-08
5.71452e-06
7.70724e-09
5.84892e-06
4.19305e-10
6.05537e-06
-6.14388e-09
6.34663e-06
-1.06967e-08
6.72895e-06
-1.17925e-08
7.19135e-06
-8.37266e-09
7.68236e-06
7.96872e-06
-3.12239e-06
8.22327e-06
-2.82653e-06
8.14342e-06
-2.55306e-06
8.0393e-06
-2.30085e-06
7.91942e-06
-2.06868e-06
7.7911e-06
-1.85529e-06
7.65942e-06
-1.65942e-06
7.5277e-06
-1.4799e-06
7.39791e-06
-1.3156e-06
7.2712e-06
-1.16548e-06
7.14815e-06
-1.02855e-06
7.02908e-06
-9.03921e-07
6.91414e-06
-7.90748e-07
6.80339e-06
-6.8825e-07
6.69685e-06
-5.95698e-07
6.59453e-06
-5.12415e-07
6.49641e-06
-4.37765e-07
6.40246e-06
-3.71157e-07
6.31265e-06
-3.12034e-07
6.22695e-06
-2.59875e-07
6.14533e-06
-2.14191e-07
6.06775e-06
-1.74522e-07
5.9942e-06
-1.40435e-07
5.92469e-06
-1.11522e-07
5.85929e-06
-8.73949e-08
5.79821e-06
-6.76866e-08
5.74193e-06
-5.20461e-08
5.69136e-06
-4.01329e-08
5.6482e-06
-3.16094e-08
5.6154e-06
-2.61281e-08
5.59759e-06
-2.3312e-08
5.60168e-06
-2.27262e-08
5.63708e-06
-2.38414e-08
5.71565e-06
-2.59895e-08
5.85109e-06
-2.83143e-08
6.05771e-06
-2.97237e-08
6.34806e-06
-2.88678e-08
6.72811e-06
-2.42445e-08
7.18675e-06
-1.47479e-08
7.67289e-06
7.95398e-06
-3.35977e-06
7.89603e-06
-3.05578e-06
7.83946e-06
-2.77417e-06
7.75772e-06
-2.51387e-06
7.65913e-06
-2.27367e-06
7.55092e-06
-2.05236e-06
7.43812e-06
-1.8487e-06
7.32405e-06
-1.66152e-06
7.21075e-06
-1.48971e-06
7.0994e-06
-1.33222e-06
6.99068e-06
-1.18809e-06
6.88496e-06
-1.05641e-06
6.78248e-06
-9.36343e-07
6.68334e-06
-8.27113e-07
6.58764e-06
-7.2799e-07
6.49543e-06
-6.38293e-07
6.40673e-06
-5.57388e-07
6.32157e-06
-4.8468e-07
6.23996e-06
-4.1961e-07
6.1619e-06
-3.61654e-07
6.08739e-06
-3.10319e-07
6.01643e-06
-2.6514e-07
5.94903e-06
-2.2568e-07
5.88524e-06
-1.91524e-07
5.82514e-06
-1.6228e-07
5.76897e-06
-1.37573e-07
5.71722e-06
-1.17043e-07
5.67083e-06
-1.0034e-07
5.6315e-06
-8.71136e-08
5.60218e-06
-7.69986e-08
5.58749e-06
-6.95947e-08
5.59429e-06
-6.44365e-08
5.63194e-06
-6.09562e-08
5.71218e-06
-5.8439e-08
5.84859e-06
-5.59746e-08
6.05527e-06
-5.24123e-08
6.34452e-06
-4.63429e-08
6.72206e-06
-3.62082e-08
7.17664e-06
-2.08531e-08
7.65756e-06
7.93314e-06
-3.56979e-06
7.56352e-06
-3.26014e-06
7.52985e-06
-2.97259e-06
7.4702e-06
-2.70615e-06
7.39272e-06
-2.4597e-06
7.30449e-06
-2.23205e-06
7.2105e-06
-2.02204e-06
7.11406e-06
-1.82851e-06
7.01723e-06
-1.65037e-06
6.92127e-06
-1.4866e-06
6.82692e-06
-1.33624e-06
6.73462e-06
-1.19842e-06
6.64467e-06
-1.07229e-06
6.55723e-06
-9.57096e-07
6.47246e-06
-8.52104e-07
6.39045e-06
-7.56643e-07
6.31129e-06
-6.70081e-07
6.23503e-06
-5.91825e-07
6.16172e-06
-5.21318e-07
6.09141e-06
-4.58037e-07
6.02412e-06
-4.01486e-07
5.95989e-06
-3.51202e-07
5.89876e-06
-3.06743e-07
5.84078e-06
-2.67692e-07
5.78609e-06
-2.33652e-07
5.73493e-06
-2.04244e-07
5.68782e-06
-1.79102e-07
5.64569e-06
-1.57867e-07
5.61028e-06
-1.40178e-07
5.5845e-06
-1.25655e-07
5.57298e-06
-1.13877e-07
5.58253e-06
-1.04351e-07
5.62243e-06
-9.64736e-08
5.70433e-06
-8.94876e-08
5.84162e-06
-8.24333e-08
6.04823e-06
-7.41064e-08
6.33621e-06
-6.30427e-08
6.71102e-06
-4.76322e-08
7.16125e-06
-2.66731e-08
7.63663e-06
7.90648e-06
-3.75133e-06
7.22849e-06
-3.43848e-06
7.21704e-06
-3.1472e-06
7.17894e-06
-2.87662e-06
7.12216e-06
-2.62571e-06
7.0536e-06
-2.39337e-06
6.97818e-06
-2.17847e-06
6.89918e-06
-1.97993e-06
6.8187e-06
-1.79668e-06
6.73804e-06
-1.62775e-06
6.658e-06
-1.47221e-06
6.57909e-06
-1.32918e-06
6.50165e-06
-1.19786e-06
6.42593e-06
-1.0775e-06
6.35211e-06
-9.67372e-07
6.28035e-06
-8.66827e-07
6.21076e-06
-7.75238e-07
6.14346e-06
-6.92018e-07
6.07852e-06
-6.16614e-07
6.01602e-06
-5.48508e-07
5.95603e-06
-4.87208e-07
5.89861e-06
-4.32249e-07
5.84381e-06
-3.83192e-07
5.79173e-06
-3.39619e-07
5.74252e-06
-3.01131e-07
5.69645e-06
-2.67346e-07
5.65404e-06
-2.37894e-07
5.61625e-06
-2.12411e-07
5.5848e-06
-1.90525e-07
5.56262e-06
-1.71845e-07
5.55431e-06
-1.55931e-07
5.56663e-06
-1.42265e-07
5.60878e-06
-1.30212e-07
5.69229e-06
-1.18977e-07
5.83041e-06
-1.07556e-07
6.03683e-06
-9.46952e-08
6.32337e-06
-7.88805e-08
6.69522e-06
-5.84574e-08
7.14085e-06
-3.21802e-08
7.61037e-06
7.87431e-06
-3.90366e-06
6.89359e-06
-3.59003e-06
6.90342e-06
-3.2972e-06
6.88614e-06
-3.02445e-06
6.84944e-06
-2.77087e-06
6.80005e-06
-2.53547e-06
6.74279e-06
-2.31718e-06
6.68091e-06
-2.11499e-06
6.61652e-06
-1.92789e-06
6.55095e-06
-1.75494e-06
6.48506e-06
-1.59525e-06
6.41941e-06
-1.44799e-06
6.3544e-06
-1.31237e-06
6.29032e-06
-1.18766e-06
6.22742e-06
-1.07317e-06
6.16587e-06
-9.68253e-07
6.10586e-06
-8.72294e-07
6.04751e-06
-7.84719e-07
5.99096e-06
-7.04986e-07
5.93631e-06
-6.32582e-07
5.88364e-06
-5.67023e-07
5.83306e-06
-5.07847e-07
5.78465e-06
-4.54618e-07
5.73851e-06
-4.06921e-07
5.69483e-06
-3.64356e-07
5.65389e-06
-3.26541e-07
5.61623e-06
-2.93106e-07
5.58282e-06
-2.6368e-07
5.55539e-06
-2.37887e-07
5.53684e-06
-2.15322e-07
5.53176e-06
-1.95532e-07
5.54686e-06
-1.77977e-07
5.59125e-06
-1.61994e-07
5.67633e-06
-1.46753e-07
5.81519e-06
-1.3121e-07
6.0213e-06
-1.14068e-07
6.30624e-06
-9.37709e-08
6.67494e-06
-6.86243e-08
7.11572e-06
-3.73439e-08
7.57911e-06
7.83697e-06
-4.02647e-06
6.56128e-06
-3.71432e-06
6.59129e-06
-3.42203e-06
6.59387e-06
-3.14904e-06
6.57646e-06
-2.89456e-06
6.54559e-06
-2.6577e-06
6.50595e-06
-2.4375e-06
6.46072e-06
-2.23301e-06
6.41204e-06
-2.04331e-06
6.36125e-06
-1.86749e-06
6.30925e-06
-1.70473e-06
6.25665e-06
-1.55422e-06
6.2039e-06
-1.41522e-06
6.15133e-06
-1.28701e-06
6.09922e-06
-1.16894e-06
6.04782e-06
-1.06038e-06
5.99731e-06
-9.60726e-07
5.94788e-06
-8.69429e-07
5.89968e-06
-7.85955e-07
5.85285e-06
-7.09804e-07
5.80751e-06
-6.40498e-07
5.76377e-06
-5.77584e-07
5.72175e-06
-5.20633e-07
5.68157e-06
-4.6923e-07
5.64344e-06
-4.22982e-07
5.60766e-06
-3.81508e-07
5.57477e-06
-3.44436e-07
5.54576e-06
-3.11396e-07
5.52236e-06
-2.82005e-07
5.50747e-06
-2.55852e-07
5.50562e-06
-2.32467e-07
5.52349e-06
-2.11294e-07
5.57009e-06
-1.91646e-07
5.6567e-06
-1.72663e-07
5.79622e-06
-1.53266e-07
6.00192e-06
-1.32121e-07
6.28511e-06
-1.07633e-07
6.65047e-06
-7.80775e-08
7.08617e-06
-4.21369e-08
7.54317e-06
7.79483e-06
-4.11975e-06
6.23387e-06
-3.81122e-06
6.28277e-06
-3.52145e-06
6.30412e-06
-3.25004e-06
6.30507e-06
-2.99635e-06
6.29192e-06
-2.7596e-06
6.26921e-06
-2.53893e-06
6.24007e-06
-2.33349e-06
6.2066e-06
-2.14242e-06
6.17018e-06
-1.96488e-06
6.13172e-06
-1.80011e-06
6.09188e-06
-1.64734e-06
6.05114e-06
-1.50587e-06
6.00987e-06
-1.37503e-06
5.96839e-06
-1.25417e-06
5.92698e-06
-1.14271e-06
5.88586e-06
-1.04006e-06
5.84525e-06
-9.45691e-07
5.80533e-06
-8.59084e-07
5.76627e-06
-7.79752e-07
5.7282e-06
-7.07232e-07
5.69127e-06
-6.41079e-07
5.65561e-06
-5.80872e-07
5.62138e-06
-5.26204e-07
5.58879e-06
-4.76687e-07
5.55815e-06
-4.31943e-07
5.53004e-06
-3.91603e-07
5.50543e-06
-3.55296e-07
5.48607e-06
-3.22637e-07
5.47482e-06
-2.93209e-07
5.47621e-06
-2.66532e-07
5.49683e-06
-2.42033e-07
5.54561e-06
-2.19007e-07
5.63369e-06
-1.96566e-07
5.7738e-06
-1.73604e-07
5.97898e-06
-1.48754e-07
6.26028e-06
-1.20393e-07
6.62211e-06
-8.67675e-08
7.05255e-06
-4.65361e-08
7.50295e-06
7.74829e-06
-4.18384e-06
5.91341e-06
-3.88087e-06
5.9798e-06
-3.59545e-06
6.01872e-06
-3.32733e-06
6.03698e-06
-3.07603e-06
6.04063e-06
-2.84087e-06
6.03407e-06
-2.62113e-06
6.02034e-06
-2.41603e-06
6.00151e-06
-2.2248e-06
5.97895e-06
-2.04668e-06
5.95361e-06
-1.88094e-06
5.92615e-06
-1.7269e-06
5.8971e-06
-1.58388e-06
5.86686e-06
-1.45126e-06
5.83578e-06
-1.32843e-06
5.80416e-06
-1.21481e-06
5.77227e-06
-1.10988e-06
5.74034e-06
-1.01309e-06
5.70857e-06
-9.23973e-07
5.67717e-06
-8.42045e-07
5.64629e-06
-7.66857e-07
5.6161e-06
-6.9798e-07
5.58675e-06
-6.35002e-07
5.55842e-06
-5.77526e-07
5.53132e-06
-5.2517e-07
5.50581e-06
-4.77564e-07
5.48245e-06
-4.34341e-07
5.46223e-06
-3.95133e-07
5.44688e-06
-3.59555e-07
5.43926e-06
-3.27184e-07
5.44386e-06
-2.97534e-07
5.4672e-06
-2.70021e-07
5.51812e-06
-2.43921e-07
5.60761e-06
-2.18328e-07
5.74822e-06
-1.92109e-07
5.95277e-06
-1.63876e-07
6.23205e-06
-1.3198e-07
6.59022e-06
-9.46495e-08
7.01522e-06
-5.05208e-08
7.45881e-06
7.69776e-06
-4.21934e-06
5.60169e-06
-3.92365e-06
5.68413e-06
-3.64424e-06
5.73931e-06
-3.38099e-06
5.77374e-06
-3.13356e-06
5.79321e-06
-2.90141e-06
5.80193e-06
-2.68392e-06
5.80285e-06
-2.4804e-06
5.798e-06
-2.29017e-06
5.78873e-06
-2.11256e-06
5.776e-06
-1.94689e-06
5.76049e-06
-1.79254e-06
5.74275e-06
-1.64889e-06
5.7232e-06
-1.51534e-06
5.70223e-06
-1.39133e-06
5.68016e-06
-1.27632e-06
5.65728e-06
-1.1698e-06
5.63384e-06
-1.07128e-06
5.61007e-06
-9.80272e-07
5.58619e-06
-8.96339e-07
5.56238e-06
-8.19044e-07
5.53882e-06
-7.4797e-07
5.51569e-06
-6.82719e-07
5.49318e-06
-6.22905e-07
5.47153e-06
-5.68157e-07
5.45108e-06
-5.18111e-07
5.43241e-06
-4.72407e-07
5.41654e-06
-4.3068e-07
5.40517e-06
-3.92546e-07
5.40114e-06
-3.57582e-07
5.40891e-06
-3.25296e-07
5.43493e-06
-2.95097e-07
5.48794e-06
-2.66246e-07
5.57878e-06
-2.37823e-07
5.71981e-06
-2.08677e-07
5.92364e-06
-1.774e-07
6.20078e-06
-1.42329e-07
6.55515e-06
-1.01679e-07
6.97457e-06
-5.40676e-08
7.41119e-06
7.64369e-06
-4.22705e-06
5.30026e-06
-3.94017e-06
5.39726e-06
-3.66823e-06
5.46738e-06
-3.41128e-06
5.5168e-06
-3.16909e-06
5.55103e-06
-2.94125e-06
5.5741e-06
-2.72723e-06
5.58885e-06
-2.52647e-06
5.59725e-06
-2.33837e-06
5.60064e-06
-2.16232e-06
5.59995e-06
-1.99772e-06
5.5959e-06
-1.844e-06
5.58903e-06
-1.7006e-06
5.5798e-06
-1.56696e-06
5.56861e-06
-1.44257e-06
5.55578e-06
-1.32692e-06
5.54164e-06
-1.21953e-06
5.52646e-06
-1.11993e-06
5.51049e-06
-1.02768e-06
5.49396e-06
-9.42337e-07
5.47706e-06
-8.635e-07
5.46001e-06
-7.90766e-07
5.44298e-06
-7.23751e-07
5.42619e-06
-6.62082e-07
5.40988e-06
-6.054e-07
5.39441e-06
-5.5335e-07
5.38038e-06
-5.05579e-07
5.36878e-06
-4.61729e-07
5.36133e-06
-4.21419e-07
5.36085e-06
-3.84226e-07
5.37173e-06
-3.49657e-07
5.40038e-06
-3.17113e-07
5.45541e-06
-2.85851e-07
5.54753e-06
-2.54937e-07
5.68891e-06
-2.23209e-07
5.89192e-06
-1.89246e-07
6.16682e-06
-1.51376e-07
6.51728e-06
-1.07809e-07
6.93099e-06
-5.71491e-08
7.36052e-06
7.58653e-06
-4.20797e-06
5.01041e-06
-3.9312e-06
5.12049e-06
-3.66802e-06
5.20421e-06
-3.41863e-06
5.26741e-06
-3.1829e-06
5.31531e-06
-2.96056e-06
5.35176e-06
-2.75117e-06
5.37948e-06
-2.55427e-06
5.40036e-06
-2.36934e-06
5.41571e-06
-2.19585e-06
5.42647e-06
-2.03327e-06
5.43333e-06
-1.8811e-06
5.43686e-06
-1.73881e-06
5.43752e-06
-1.6059e-06
5.43571e-06
-1.48191e-06
5.4318e-06
-1.36636e-06
5.42611e-06
-1.2588e-06
5.41892e-06
-1.15879e-06
5.41051e-06
-1.06592e-06
5.40111e-06
-9.79781e-07
5.39095e-06
-8.99975e-07
5.38023e-06
-8.26124e-07
5.36915e-06
-7.57861e-07
5.35795e-06
-6.94829e-07
5.34687e-06
-6.3668e-07
5.33628e-06
-5.83072e-07
5.32679e-06
-5.33661e-07
5.31938e-06
-4.88096e-07
5.31578e-06
-4.46001e-07
5.31877e-06
-4.06956e-07
5.3327e-06
-3.70469e-07
5.36391e-06
-3.35939e-07
5.42089e-06
-3.02619e-07
5.51422e-06
-2.69567e-07
5.65587e-06
-2.35617e-07
5.85798e-06
-1.9934e-07
6.13055e-06
-1.59062e-07
6.477e-06
-1.12995e-07
6.88491e-06
-5.97393e-08
7.30724e-06
7.52677e-06
-4.16318e-06
4.73318e-06
-3.89761e-06
4.85492e-06
-3.64431e-06
4.95092e-06
-3.40357e-06
5.02668e-06
-3.17541e-06
5.08716e-06
-2.95964e-06
5.13599e-06
-2.75593e-06
5.17578e-06
-2.5639e-06
5.20835e-06
-2.38312e-06
5.23494e-06
-2.21314e-06
5.25649e-06
-2.0535e-06
5.27369e-06
-1.90373e-06
5.28709e-06
-1.76339e-06
5.29718e-06
-1.63202e-06
5.30435e-06
-1.50918e-06
5.30898e-06
-1.39446e-06
5.31139e-06
-1.28742e-06
5.3119e-06
-1.18767e-06
5.31078e-06
-1.09481e-06
5.30828e-06
-1.00846e-06
5.30462e-06
-9.2826e-07
5.30005e-06
-8.53837e-07
5.29475e-06
-7.84847e-07
5.28898e-06
-7.20949e-07
5.28299e-06
-6.6181e-07
5.27716e-06
-6.07098e-07
5.27209e-06
-5.56482e-07
5.26878e-06
-5.09619e-07
5.26893e-06
-4.6614e-07
5.2753e-06
-4.25632e-07
5.29221e-06
-3.87605e-07
5.32589e-06
-3.51459e-07
5.38476e-06
-3.16446e-07
5.47922e-06
-2.81624e-07
5.62106e-06
-2.45823e-07
5.82218e-06
-2.07618e-07
6.09235e-06
-1.65338e-07
6.43472e-06
-1.17203e-07
6.83677e-06