/*--------------------------------*- C++ -*----------------------------------*\
  =========                 |
  \\      /  F ield         | OpenFOAM: The Open Source CFD Toolbox
   \\    /   O peration     | Website:  https://openfoam.org
    \\  /    A nd           | Version:  7
     \\/     M anipulation  |
\*---------------------------------------------------------------------------*/
FoamFile
{
    version     2.0;
    format      ascii;
    class       labelField;
    location    "0.015/lagrangian/dsmc";
    object      origId;
}
// * * * * * * * * * * * * * * * * * * * * * * * * * * * * * * * * * * * * * //


196354
(
0
13
18
19
29
40
41
44
48
50
55
57
61
66
67
69
71
74
75
76
78
82
83
85
86
87
88
93
95
97
99
100
103
105
106
110
113
118
122
123
128
129
131
133
135
139
143
148
149
150
151
154
156
160
161
164
165
168
171
172
174
176
178
185
188
189
201
212
223
224
226
234
235
237
238
239
241
242
244
249
256
258
260
265
266
267
270
274
277
281
283
285
287
291
292
294
301
304
305
306
307
315
316
319
324
325
331
334
335
337
338
339
344
347
348
351
353
354
359
360
366
373
380
382
386
388
392
393
405
406
410
430
434
440
441
442
446
447
450
453
456
462
465
466
468
472
473
474
483
484
486
488
500
506
507
508
517
519
522
526
531
534
540
546
549
550
566
567
576
579
582
587
588
590
593
594
599
609
614
617
618
629
635
636
637
640
646
647
654
656
657
662
663
674
676
681
683
684
698
703
706
708
710
713
714
715
717
726
735
737
740
741
746
747
748
752
753
757
763
764
765
767
773
777
780
782
788
790
795
796
804
806
808
813
817
822
823
824
825
827
835
843
845
859
865
866
868
871
879
884
887
889
891
893
902
904
907
910
915
916
920
923
924
926
927
929
932
935
940
947
948
953
958
960
961
964
969
970
971
975
979
984
985
996
998
1006
1015
1017
1021
1023
1031
1032
1034
1037
1038
1042
1046
1049
1050
1052
1054
1058
1059
1061
1065
1071
1075
1078
1083
1084
1086
1087
1090
1092
1106
1107
1113
1114
1118
1121
1123
1127
1131
1135
1137
1143
1153
1171
1175
1181
1187
1191
1195
1196
1197
1199
1205
1206
1208
1209
1210
1213
1214
1215
1216
1217
1219
1221
1223
1225
1227
1230
1231
1233
1235
1237
1242
1244
1246
1250
1256
1258
1259
1260
1263
1264
1270
1272
1274
1289
1290
1295
1300
1302
1306
1311
1322
1324
1325
1330
1332
1338
1341
1344
1345
1348
1349
1351
1355
1366
1372
1373
1375
1379
1380
1381
1383
1389
1393
1396
1400
1410
1411
1413
1417
1420
1422
1428
1432
1434
1436
1437
1442
1448
1451
1453
1454
1455
1459
1461
1463
1465
1466
1467
1470
1473
1474
1481
1484
1487
1489
1490
1491
1492
1493
1498
1507
1509
1510
1513
1514
1517
1530
1536
1544
1549
1550
1551
1552
1554
1558
1562
1568
1571
1572
1583
1588
1595
1599
1604
1608
1609
1612
1616
1620
1621
1625
1628
1629
1642
1644
1646
1647
1650
1654
1657
1662
1665
1666
1667
1668
1669
1671
1672
1679
1683
1684
1686
1688
1690
1697
1704
1707
1708
1711
1712
1719
1722
1724
1726
1734
1736
1737
1739
1740
1744
1746
1747
1748
1751
1752
1753
1755
1759
1762
1764
1766
1767
1772
1776
1777
1778
1780
1784
1786
1787
1790
1793
1794
1797
1798
1808
1809
1822
1826
1833
1836
1841
1845
1849
1850
1851
1868
1869
1871
1872
1875
1879
1885
1889
1890
1891
1898
1902
1905
1906
1911
1917
1919
1931
1933
1934
1935
1938
1945
1951
1955
1961
1971
1972
1973
1976
1978
1985
1987
1992
1998
2000
2010
2018
2019
2024
2025
2028
2031
2032
2037
2038
2039
2051
2052
2053
2056
2058
2059
2069
2076
2078
2083
2084
2087
2088
2091
2100
2102
2104
2105
2106
2109
2110
2113
2115
2125
2126
2129
2138
2142
2143
2146
2149
2154
2155
2159
2160
2161
2162
2170
2172
2173
2176
2177
2178
2180
2183
2184
2189
2197
2200
2201
2202
2209
2215
2217
2224
2225
2233
2236
2237
2241
2242
2244
2247
2250
2257
2260
2263
2265
2272
2274
2275
2276
2279
2280
2285
2286
2291
2292
2301
2302
2307
2312
2313
2314
2319
2320
2323
2328
2333
2336
2343
2345
2347
2350
2365
2366
2371
2373
2375
2383
2386
2389
2390
2392
2395
2397
2399
2403
2405
2407
2411
2412
2417
2419
2423
2424
2425
2428
2431
2433
2445
2449
2453
2454
2464
2465
2480
2481
2483
2486
2488
2491
2493
2496
2507
2513
2518
2520
2521
2525
2526
2528
2531
2541
2544
2547
2555
2557
2558
2560
2562
2567
2577
2582
2583
2597
2600
2602
2605
2609
2614
2617
2620
2622
2626
2631
2632
2633
2635
2636
2639
2640
2641
2642
2645
2653
2654
2657
2659
2664
2665
2680
2683
2684
2687
2693
2695
2696
2697
2699
2703
2704
2705
2707
2718
2724
2727
2732
2744
2750
2751
2754
2756
2770
2771
2773
2779
2782
2784
2787
2789
2791
2794
2798
2805
2821
2823
2824
2831
2833
2837
2838
2843
2846
2847
2849
2852
2853
2858
2860
2864
2874
2875
2885
2893
2894
2896
2898
2912
2917
2919
2921
2922
2925
2937
2938
2940
2941
2943
2947
2949
2950
2961
2970
2978
2986
2989
2993
3004
3006
3008
3009
3010
3019
3020
3024
3030
3031
3034
3047
3051
3054
3058
3060
3064
3065
3068
3070
3075
3077
3078
3079
3082
3084
3086
3088
3090
3097
3113
3115
3119
3125
3126
3137
3141
3143
3148
3149
3150
3153
3155
3157
3169
3171
3172
3175
3179
3182
3183
3184
3185
3186
3188
3202
3205
3206
3212
3213
3215
3219
3225
3226
3227
3230
3231
3232
3243
3245
3246
3249
3250
3268
3273
3274
3276
3282
3286
3288
3289
3292
3293
3296
3299
3300
3302
3304
3308
3309
3311
3314
3323
3326
3327
3328
3329
3331
3334
3337
3341
3346
3347
3348
3350
3355
3357
3360
3361
3364
3369
3371
3375
3376
3380
3381
3389
3391
3395
3396
3406
3412
3414
3420
3424
3432
3433
3436
3439
3445
3446
3448
3452
3453
3455
3457
3461
3469
3477
3495
3498
3499
3503
3505
3513
3517
3518
3531
3535
3541
3542
3543
3544
3545
3547
3548
3553
3559
3563
3564
3565
3566
3567
3571
3572
3573
3574
3579
3584
3587
3590
3596
3599
3601
3607
3609
3617
3620
3625
3632
3633
3636
3637
3639
3646
3648
3649
3650
3653
3670
3681
3685
3686
3688
3691
3692
3693
3698
3699
3701
3704
3707
3709
3710
3720
3725
3728
3729
3730
3732
3737
3738
3752
3757
3764
3766
3767
3768
3773
3774
3778
3782
3785
3792
3797
3806
3808
3819
3822
3825
3832
3838
3841
3847
3849
3851
3852
3853
3858
3862
3864
3869
3874
3876
3877
3880
3885
3886
3888
3894
3895
3902
3903
3910
3912
3915
3920
3929
3931
3934
3936
3939
3940
3942
3944
3948
3950
3953
3954
3957
3958
3960
3972
3978
3981
3984
3991
3994
3995
3998
4008
4009
4010
4012
4017
4018
4019
4020
4023
4025
4026
4031
4032
4034
4035
4048
4056
4057
4061
4064
4065
4066
4067
4069
4072
4078
4079
4080
4081
4088
4089
4093
4094
4097
4098
4100
4101
4103
4106
4107
4108
4114
4121
4128
4132
4135
4137
4142
4147
4152
4158
4159
4173
4178
4179
4185
4188
4193
4194
4198
4199
4200
4204
4210
4213
4214
4217
4221
4227
4230
4235
4242
4245
4247
4248
4254
4258
4261
4269
4281
4284
4285
4287
4291
4295
4300
4303
4304
4306
4308
4309
4313
4320
4321
4329
4331
4334
4341
4345
4347
4348
4349
4352
4353
4355
4356
4372
4377
4382
4396
4406
4417
4419
4420
4421
4434
4448
4450
4461
4462
4472
4476
4478
4481
4483
4488
4489
4499
4503
4507
4511
4517
4520
4527
4534
4536
4539
4540
4543
4551
4553
4556
4561
4567
4568
4570
4574
4575
4576
4577
4579
4584
4590
4600
4603
4604
4606
4616
4621
4624
4638
4642
4645
4652
4658
4659
4660
4661
4666
4667
4671
4675
4677
4682
4699
4702
4710
4711
4715
4719
4721
4722
4723
4726
4727
4729
4734
4735
4738
4739
4740
4746
4747
4749
4752
4756
4758
4767
4776
4778
4779
4782
4787
4790
4791
4796
4798
4799
4806
4811
4812
4813
4817
4818
4821
4825
4826
4828
4829
4833
4835
4836
4845
4847
4848
4850
4851
4852
4857
4861
4862
4866
4872
4876
4879
4880
4884
4887
4889
4892
4893
4896
4897
4902
4905
4907
4913
4915
4920
4921
4923
4924
4925
4926
4927
4928
4930
4938
4941
4951
4961
4963
4967
4970
4974
4981
4989
4992
4993
4996
4999
5004
5005
5006
5007
5008
5011
5012
5013
5018
5021
5022
5024
5027
5030
5031
5036
5040
5044
5046
5048
5054
5055
5056
5057
5065
5066
5068
5071
5074
5076
5077
5078
5081
5083
5089
5090
5091
5094
5096
5097
5103
5104
5105
5109
5114
5120
5123
5126
5129
5132
5133
5144
5148
5153
5156
5163
5172
5175
5177
5181
5186
5187
5191
5194
5196
5200
5207
5210
5211
5218
5219
5220
5223
5226
5235
5245
5250
5255
5267
5271
5273
5287
5289
5294
5296
5300
5303
5306
5311
5312
5314
5315
5317
5321
5325
5327
5328
5330
5332
5337
5342
5352
5354
5355
5360
5362
5363
5364
5365
5368
5372
5373
5380
5383
5386
5387
5388
5390
5403
5404
5407
5411
5412
5416
5425
5430
5432
5433
5446
5451
5452
5458
5460
5461
5465
5468
5470
5471
5476
5478
5483
5488
5491
5498
5502
5506
5510
5513
5517
5519
5521
5527
5528
5530
5535
5541
5544
5546
5547
5548
5552
5560
5565
5567
5569
5570
5574
5576
5578
5585
5587
5592
5600
5608
5609
5614
5621
5628
5629
5633
5639
5647
5648
5651
5653
5667
5669
5670
5671
5673
5674
5676
5679
5682
5689
5695
5696
5697
5703
5706
5710
5716
5718
5720
5726
5727
5733
5741
5748
5749
5754
5755
5756
5757
5759
5769
5772
5778
5779
5781
5782
5786
5789
5790
5795
5798
5801
5807
5808
5816
5818
5821
5823
5825
5826
5829
5831
5834
5839
5845
5846
5850
5851
5860
5861
5867
5868
5870
5876
5877
5878
5879
5880
5882
5884
5888
5900
5906
5914
5917
5918
5919
5921
5933
5935
5937
5940
5944
5945
5951
5966
5976
5977
5983
5987
5995
5996
6001
6004
6006
6009
6015
6017
6020
6025
6026
6027
6032
6034
6037
6050
6052
6057
6060
6086
6095
6107
6113
6115
6118
6120
6126
6129
6135
6136
6139
6144
6148
6149
6155
6156
6158
6159
6160
6162
6163
6176
6187
6188
6191
6193
6202
6203
6205
6207
6208
6209
6212
6214
6219
6221
6222
6245
6246
6247
6250
6255
6257
6264
6268
6271
6274
6276
6280
6282
6283
6284
6286
6289
6291
6297
6309
6314
6319
6320
6325
6326
6330
6334
6335
6338
6342
6346
6351
6355
6358
6359
6364
6372
6373
6376
6377
6379
6382
6383
6384
6388
6396
6398
6400
6405
6414
6417
6418
6421
6422
6423
6428
6431
6432
6433
6434
6437
6438
6445
6452
6459
6466
6467
6468
6471
6474
6476
6478
6484
6485
6486
6490
6493
6494
6498
6499
6500
6503
6505
6506
6507
6508
6515
6519
6524
6528
6529
6539
6542
6544
6546
6548
6550
6555
6557
6566
6570
6571
6579
6588
6594
6608
6609
6612
6613
6616
6620
6625
6626
6629
6632
6640
6641
6647
6650
6651
6652
6658
6670
6671
6672
6674
6678
6680
6683
6687
6689
6693
6695
6696
6701
6704
6707
6710
6712
6713
6714
6718
6722
6725
6727
6728
6734
6739
6741
6743
6748
6749
6750
6754
6755
6757
6759
6760
6761
6763
6765
6774
6782
6783
6806
6807
6809
6810
6812
6814
6818
6822
6823
6824
6833
6835
6841
6842
6848
6849
6853
6855
6857
6858
6859
6866
6867
6868
6870
6871
6879
6882
6892
6896
6899
6904
6905
6907
6909
6910
6916
6919
6920
6924
6931
6937
6939
6943
6947
6949
6955
6957
6958
6967
6976
6978
6980
6981
6983
6989
6999
7001
7003
7006
7008
7010
7012
7014
7018
7020
7021
7027
7029
7038
7039
7044
7046
7047
7050
7056
7059
7060
7061
7066
7067
7068
7069
7088
7089
7090
7091
7097
7099
7105
7106
7110
7111
7112
7113
7114
7115
7119
7121
7122
7137
7144
7145
7149
7154
7156
7157
7160
7163
7167
7190
7191
7196
7197
7198
7199
7201
7202
7206
7217
7226
7228
7233
7238
7239
7242
7243
7248
7249
7250
7251
7252
7255
7261
7262
7265
7266
7271
7279
7282
7283
7284
7289
7294
7297
7305
7310
7312
7320
7324
7325
7326
7331
7336
7339
7340
7343
7344
7350
7353
7355
7356
7359
7364
7369
7372
7375
7377
7379
7380
7385
7388
7390
7391
7392
7393
7401
7407
7408
7410
7412
7413
7416
7419
7439
7447
7448
7450
7452
7458
7459
7460
7461
7462
7463
7468
7470
7478
7480
7482
7485
7492
7494
7498
7501
7503
7504
7506
7507
7510
7512
7514
7519
7521
7524
7525
7526
7527
7531
7532
7533
7538
7546
7548
7551
7552
7554
7561
7570
7571
7580
7583
7585
7593
7594
7603
7604
7606
7608
7612
7613
7616
7617
7619
7623
7627
7637
7640
7641
7645
7649
7650
7652
7660
7661
7663
7666
7683
7685
7691
7698
7702
7704
7705
7706
7712
7722
7725
7726
7728
7729
7731
7735
7743
7744
7751
7758
7764
7765
7768
7771
7774
7775
7776
7777
7786
7787
7792
7798
7799
7802
7803
7804
7805
7806
7809
7812
7813
7823
7824
7827
7829
7832
7836
7838
7839
7842
7845
7846
7862
7863
7877
7880
7883
7888
7889
7896
7905
7907
7909
7911
7917
7921
7922
7924
7925
7928
7930
7944
7950
7953
7954
7957
7958
7961
7962
7964
7965
7966
7970
7971
7972
7975
7977
7982
7983
7984
7996
7998
8002
8004
8005
8006
8007
8008
8009
8011
8012
8015
8023
8031
8034
8036
8038
8040
8044
8048
8050
8061
8062
8063
8066
8070
8073
8075
8083
8094
8099
8105
8106
8113
8118
8121
8126
8131
8137
8150
8152
8156
8159
8164
8165
8167
8171
8177
8181
8186
8190
8193
8194
8196
8197
8199
8203
8205
8211
8213
8216
8222
8227
8236
8237
8238
8240
8241
8243
8248
8252
8254
8257
8258
8261
8264
8267
8270
8274
8281
8282
8286
8288
8292
8295
8300
8304
8305
8308
8309
8311
8313
8317
8326
8327
8329
8336
8340
8342
8350
8352
8356
8361
8363
8366
8368
8370
8373
8377
8378
8384
8385
8392
8393
8403
8410
8411
8415
8416
8418
8422
8430
8433
8437
8438
8443
8444
8446
8447
8448
8461
8463
8471
8474
8475
8479
8481
8490
8491
8497
8502
8509
8515
8516
8525
8528
8531
8532
8538
8539
8543
8549
8550
8551
8557
8558
8564
8565
8566
8568
8569
8573
8577
8587
8590
8592
8596
8598
8599
8606
8607
8609
8611
8612
8614
8615
8618
8623
8626
8627
8631
8632
8637
8641
8642
8644
8646
8649
8651
8653
8655
8657
8664
8665
8674
8675
8678
8686
8687
8690
8693
8696
8698
8699
8701
8703
8706
8709
8719
8722
8723
8727
8729
8730
8731
8732
8733
8736
8737
8738
8741
8744
8745
8747
8748
8756
8758
8759
8773
8774
8784
8786
8787
8792
8795
8796
8798
8799
8800
8805
8810
8813
8814
8818
8819
8820
8821
8822
8831
8833
8836
8840
8842
8846
8850
8851
8853
8855
8859
8860
8863
8865
8866
8870
8871
8872
8875
8877
8880
8882
8885
8895
8897
8898
8899
8901
8905
8911
8918
8920
8923
8924
8928
8936
8939
8944
8950
8953
8956
8958
8959
8963
8964
8965
8967
8971
8972
8980
8984
8988
8989
8993
8995
8996
8997
9002
9007
9012
9014
9016
9018
9019
9020
9023
9024
9029
9030
9031
9036
9044
9046
9047
9049
9055
9056
9059
9060
9063
9067
9068
9069
9074
9075
9077
9078
9080
9085
9086
9089
9091
9099
9100
9111
9112
9116
9118
9121
9123
9128
9131
9135
9136
9138
9139
9145
9146
9155
9157
9158
9161
9163
9172
9179
9180
9181
9186
9189
9191
9192
9193
9196
9202
9203
9204
9205
9206
9207
9208
9211
9212
9219
9222
9226
9240
9242
9246
9249
9251
9254
9257
9262
9263
9267
9269
9271
9280
9282
9283
9286
9287
9289
9290
9296
9298
9301
9302
9303
9306
9311
9315
9316
9319
9320
9325
9327
9330
9333
9338
9339
9347
9351
9358
9362
9369
9372
9382
9383
9391
9396
9402
9403
9407
9411
9412
9417
9418
9425
9429
9430
9431
9433
9438
9440
9449
9451
9453
9457
9461
9463
9464
9466
9468
9472
9475
9480
9483
9485
9490
9493
9494
9495
9501
9503
9511
9513
9514
9516
9519
9522
9523
9529
9531
9543
9556
9557
9560
9566
9567
9568
9569
9571
9574
9575
9576
9577
9584
9586
9591
9594
9597
9601
9603
9609
9612
9616
9617
9620
9626
9627
9638
9641
9644
9649
9654
9656
9662
9667
9676
9677
9678
9685
9688
9692
9694
9698
9702
9703
9709
9710
9711
9715
9716
9718
9722
9725
9734
9735
9741
9742
9747
9750
9751
9756
9759
9761
9762
9764
9766
9770
9776
9783
9796
9797
9799
9800
9801
9802
9805
9807
9809
9810
9818
9819
9821
9828
9829
9831
9832
9833
9839
9844
9848
9849
9855
9864
9867
9868
9873
9874
9877
9878
9879
9882
9883
9891
9895
9901
9903
9904
9908
9910
9911
9918
9924
9925
9926
9930
9934
9935
9936
9938
9942
9947
9949
9957
9958
9973
9977
9980
9984
9986
9989
9994
9996
9999
10004
10006
10007
10010
10012
10013
10020
10021
10025
10027
10028
10034
10037
10040
10041
10046
10052
10054
10055
10056
10057
10058
10060
10061
10070
10073
10075
10077
10078
10089
10093
10111
10119
10121
10122
10123
10126
10131
10132
10142
10151
10155
10159
10161
10165
10174
10177
10180
10186
10188
10189
10190
10192
10194
10196
10204
10209
10210
10213
10217
10229
10238
10239
10240
10244
10256
10257
10258
10259
10264
10267
10273
10275
10276
10288
10290
10295
10304
10307
10309
10314
10318
10322
10326
10327
10328
10334
10341
10342
10343
10344
10350
10357
10368
10369
10373
10377
10380
10383
10384
10389
10391
10393
10394
10395
10401
10402
10403
10404
10410
10413
10422
10428
10430
10431
10433
10439
10440
10444
10448
10450
10451
10453
10454
10456
10458
10460
10461
10463
10464
10467
10468
10475
10479
10480
10482
10483
10484
10487
10488
10490
10497
10508
10510
10511
10515
10518
10519
10523
10524
10526
10529
10534
10535
10537
10538
10540
10541
10542
10545
10547
10551
10555
10556
10558
10559
10564
10570
10574
10577
10579
10580
10585
10588
10589
10591
10592
10595
10597
10600
10602
10603
10606
10610
10611
10614
10621
10628
10630
10631
10634
10644
10646
10647
10653
10655
10656
10660
10661
10671
10672
10674
10675
10682
10683
10684
10687
10694
10695
10701
10702
10704
10707
10711
10712
10716
10717
10718
10720
10723
10725
10728
10733
10734
10744
10746
10747
10755
10756
10763
10770
10771
10781
10784
10786
10788
10791
10794
10795
10798
10802
10805
10812
10814
10821
10822
10823
10832
10836
10837
10838
10842
10844
10846
10854
10866
10867
10871
10879
10882
10883
10885
10891
10895
10898
10901
10903
10910
10917
10925
10930
10931
10934
10935
10937
10940
10949
10961
10966
10970
10972
10978
10980
10982
10985
10988
10991
10994
11001
11002
11013
11016
11019
11022
11026
11029
11032
11033
11034
11038
11044
11047
11056
11058
11060
11062
11066
11067
11068
11070
11073
11075
11077
11079
11085
11087
11088
11089
11090
11093
11099
11100
11101
11105
11109
11114
11115
11117
11119
11124
11128
11131
11132
11134
11135
11139
11140
11143
11147
11150
11152
11156
11162
11166
11171
11172
11173
11176
11183
11184
11189
11197
11199
11200
11202
11203
11205
11207
11213
11214
11215
11216
11217
11224
11227
11228
11231
11233
11237
11239
11240
11242
11250
11251
11252
11257
11266
11268
11269
11270
11275
11276
11282
11286
11288
11292
11294
11296
11306
11309
11317
11319
11327
11331
11343
11344
11346
11348
11355
11357
11359
11360
11362
11364
11366
11381
11382
11384
11389
11390
11393
11398
11401
11404
11405
11411
11417
11430
11431
11433
11441
11448
11449
11455
11456
11461
11466
11467
11470
11471
11483
11487
11489
11491
11496
11497
11500
11502
11509
11511
11518
11526
11531
11537
11540
11541
11543
11544
11549
11551
11558
11564
11565
11567
11568
11573
11579
11580
11583
11587
11588
11590
11591
11595
11598
11604
11608
11611
11614
11617
11629
11635
11639
11644
11646
11650
11656
11659
11661
11666
11672
11677
11683
11691
11692
11693
11698
11704
11708
11717
11718
11722
11727
11728
11730
11734
11735
11736
11739
11741
11746
11754
11755
11756
11759
11760
11764
11765
11771
11772
11775
11780
11784
11787
11788
11793
11794
11805
11806
11813
11817
11830
11842
11846
11847
11858
11881
11886
11888
11898
11905
11907
11909
11921
11923
11926
11927
11938
11942
11944
11946
11947
11950
11953
11961
11963
11968
11975
11977
11981
11983
11985
11986
11988
11997
11999
12002
12017
12030
12040
12041
12051
12058
12068
12071
12077
12079
12088
12093
12097
12098
12099
12106
12112
12119
12122
12132
12137
12140
12144
12147
12157
12161
12163
12173
12181
12185
12192
12197
12199
12201
12206
12207
12209
12212
12213
12222
12224
12226
12228
12231
12232
12235
12236
12239
12244
12247
12249
12253
12257
12263
12267
12269
12270
12272
12273
12274
12275
12276
12278
12291
12294
12300
12301
12313
12315
12323
12333
12335
12337
12341
12343
12345
12356
12357
12358
12366
12367
12379
12385
12387
12389
12390
12393
12397
12400
12404
12405
12407
12408
12410
12416
12423
12427
12434
12436
12444
12447
12450
12452
12453
12454
12460
12465
12466
12467
12474
12476
12478
12481
12483
12484
12491
12492
12493
12494
12495
12496
12500
12502
12508
12509
12511
12512
12514
12515
12519
12521
12522
12523
12524
12527
12528
12533
12536
12540
12542
12544
12548
12554
12558
12560
12561
12577
12582
12584
12588
12592
12593
12597
12598
12604
12607
12613
12616
12617
12623
12631
12636
12639
12642
12646
12647
12649
12652
12655
12657
12658
12660
12661
12663
12667
12668
12674
12676
12678
12681
12685
12687
12692
12695
12701
12702
12706
12709
12710
12713
12714
12716
12718
12719
12728
12730
12731
12734
12742
12748
12762
12764
12765
12766
12777
12778
12780
12790
12791
12793
12798
12802
12804
12805
12808
12810
12812
12816
12824
12826
12830
12831
12833
12842
12843
12849
12852
12866
12867
12868
12877
12878
12879
12887
12891
12892
12897
12899
12900
12903
12904
12905
12907
12911
12912
12913
12918
12926
12927
12929
12933
12934
12943
12947
12949
12954
12957
12960
12962
12966
12972
12973
12976
12977
12978
12981
12986
12987
12990
12993
12994
12996
12998
13002
13007
13012
13014
13016
13019
13020
13029
13030
13033
13035
13037
13045
13049
13050
13051
13057
13060
13061
13063
13066
13067
13072
13077
13083
13085
13086
13087
13088
13091
13093
13095
13097
13108
13109
13112
13113
13115
13118
13120
13123
13124
13125
13129
13130
13131
13133
13143
13148
13150
13151
13153
13156
13163
13170
13179
13180
13183
13185
13186
13189
13192
13193
13195
13196
13204
13208
13222
13226
13228
13246
13248
13250
13251
13252
13253
13260
13264
13266
13268
13273
13275
13279
13280
13288
13289
13293
13295
13297
13298
13302
13310
13311
13312
13313
13317
13318
13321
13324
13325
13326
13330
13332
13333
13338
13341
13349
13350
13355
13358
13368
13371
13374
13375
13376
13382
13383
13385
13386
13388
13396
13397
13400
13404
13409
13419
13420
13421
13431
13436
13438
13443
13444
13445
13450
13454
13456
13457
13469
13470
13475
13477
13479
13480
13488
13490
13491
13494
13502
13512
13517
13521
13522
13523
13524
13526
13528
13533
13535
13539
13548
13549
13551
13552
13558
13562
13573
13575
13577
13584
13591
13597
13598
13600
13602
13604
13609
13611
13612
13613
13618
13631
13633
13634
13635
13640
13643
13644
13645
13650
13653
13654
13657
13659
13664
13666
13670
13674
13677
13682
13686
13687
13693
13695
13697
13698
13699
13701
13702
13706
13708
13709
13710
13712
13718
13721
13722
13724
13733
13734
13737
13739
13741
13746
13748
13751
13752
13753
13755
13756
13757
13758
13766
13767
13773
13780
13789
13793
13794
13795
13800
13801
13805
13810
13814
13817
13821
13822
13831
13834
13835
13836
13840
13842
13845
13856
13857
13858
13862
13867
13870
13871
13878
13880
13882
13883
13887
13891
13895
13899
13905
13909
13911
13913
13923
13924
13925
13926
13933
13938
13944
13945
13950
13960
13962
13963
13968
13971
13973
13981
13985
13990
13992
13996
14002
14006
14013
14019
14020
14024
14029
14032
14033
14036
14040
14047
14055
14057
14058
14060
14061
14062
14063
14068
14071
14074
14082
14084
14089
14090
14095
14103
14104
14105
14107
14112
14114
14116
14118
14120
14125
14132
14136
14140
14146
14152
14153
14160
14161
14162
14163
14169
14176
14177
14178
14184
14187
14192
14195
14199
14204
14206
14208
14211
14212
14215
14222
14229
14230
14233
14235
14236
14239
14243
14245
14247
14250
14252
14260
14261
14271
14281
14292
14293
14301
14302
14303
14305
14306
14307
14313
14320
14322
14323
14324
14325
14331
14333
14342
14349
14354
14356
14365
14366
14367
14380
14388
14390
14394
14395
14396
14398
14405
14418
14419
14420
14426
14429
14438
14440
14445
14448
14450
14452
14455
14456
14457
14463
14464
14466
14475
14477
14479
14485
14486
14490
14492
14493
14495
14498
14507
14508
14509
14510
14512
14519
14520
14525
14526
14529
14532
14538
14539
14543
14547
14551
14552
14554
14564
14568
14571
14574
14576
14582
14588
14594
14598
14599
14601
14602
14603
14610
14613
14614
14617
14623
14629
14638
14642
14646
14647
14648
14652
14653
14666
14667
14668
14673
14678
14685
14694
14696
14697
14700
14706
14708
14709
14713
14717
14721
14727
14729
14732
14734
14737
14739
14740
14746
14749
14750
14755
14756
14758
14762
14766
14767
14784
14788
14790
14800
14810
14820
14830
14834
14838
14840
14843
14845
14855
14856
14861
14866
14869
14871
14872
14877
14881
14885
14889
14893
14899
14902
14904
14915
14918
14920
14926
14929
14933
14936
14941
14945
14948
14951
14952
14957
14961
14969
14972
14975
14976
14987
14989
14990
14991
14993
14995
14996
14997
14999
15004
15009
15011
15012
15016
15021
15022
15038
15045
15047
15048
15049
15050
15051
15054
15059
15062
15066
15068
15079
15085
15096
15099
15108
15112
15113
15115
15118
15122
15124
15125
15127
15131
15136
15139
15143
15157
15160
15161
15166
15167
15170
15172
15174
15176
15185
15197
15199
15201
15202
15210
15212
15213
15218
15221
15222
15225
15226
15229
15231
15232
15237
15239
15245
15248
15250
15252
15254
15259
15262
15264
15265
15270
15272
15273
15274
15278
15280
15284
15291
15293
15294
15295
15298
15299
15301
15305
15308
15312
15317
15318
15322
15326
15333
15335
15337
15344
15345
15348
15355
15357
15358
15363
15366
15369
15373
15374
15378
15382
15383
15388
15391
15393
15397
15401
15404
15414
15417
15424
15427
15431
15432
15439
15449
15450
15451
15456
15459
15473
15475
15476
15482
15484
15489
15492
15501
15503
15506
15507
15508
15512
15514
15515
15518
15523
15527
15529
15530
15533
15534
15538
15539
15540
15541
15542
15546
15549
15554
15555
15562
15567
15572
15573
15574
15577
15580
15587
15590
15591
15593
15594
15602
15607
15609
15614
15615
15623
15625
15627
15628
15629
15638
15641
15643
15644
15652
15653
15654
15657
15662
15663
15664
15670
15673
15674
15676
15678
15683
15687
15690
15692
15696
15703
15706
15720
15721
15724
15727
15728
15736
15737
15739
15743
15747
15752
15756
15763
15765
15766
15768
15778
15781
15785
15793
15796
15797
15808
15812
15817
15821
15822
15823
15828
15829
15843
15847
15848
15851
15852
15855
15857
15863
15867
15870
15876
15881
15885
15887
15889
15891
15892
15893
15896
15899
15903
15904
15912
15919
15926
15935
15936
15938
15941
15942
15944
15950
15951
15953
15958
15961
15967
15969
15978
15979
15982
15985
15996
16000
16002
16005
16006
16007
16008
16010
16014
16022
16025
16029
16040
16042
16053
16055
16063
16066
16069
16071
16073
16075
16086
16087
16088
16089
16094
16095
16098
16104
16109
16110
16113
16114
16119
16120
16128
16131
16133
16136
16138
16139
16142
16143
16145
16152
16154
16157
16170
16172
16176
16178
16179
16181
16183
16186
16188
16190
16191
16192
16194
16202
16203
16209
16211
16215
16217
16224
16225
16226
16230
16231
16235
16237
16238
16239
16243
16244
16246
16250
16252
16254
16255
16257
16262
16263
16264
16266
16271
16278
16281
16282
16283
16286
16287
16292
16295
16297
16303
16304
16305
16307
16308
16309
16314
16316
16325
16331
16332
16333
16335
16336
16337
16338
16343
16344
16345
16348
16353
16360
16362
16363
16365
16367
16374
16375
16384
16397
16400
16419
16420
16426
16432
16438
16439
16442
16449
16450
16452
16453
16463
16464
16468
16469
16470
16472
16475
16476
16477
16480
16482
16483
16484
16485
16488
16489
16491
16497
16500
16501
16502
16503
16506
16507
16509
16516
16519
16521
16522
16525
16530
16533
16535
16537
16538
16539
16540
16542
16543
16544
16551
16553
16554
16560
16563
16565
16566
16567
16574
16576
16577
16583
16586
16591
16595
16598
16600
16603
16608
16611
16614
16619
16621
16623
16630
16634
16637
16639
16640
16644
16645
16648
16650
16653
16660
16661
16664
16665
16666
16667
16668
16669
16671
16673
16674
16676
16678
16690
16691
16699
16704
16705
16708
16711
16713
16715
16717
16719
16721
16730
16735
16736
16744
16746
16754
16760
16762
16772
16778
16779
16782
16783
16785
16788
16791
16793
16802
16803
16808
16810
16811
16818
16820
16827
16831
16836
16838
16840
16844
16852
16857
16860
16862
16865
16867
16868
16874
16881
16883
16884
16893
16901
16903
16904
16906
16907
16909
16910
16911
16932
16935
16941
16944
16952
16955
16957
16963
16964
16965
16966
16978
16981
16985
16987
16988
16989
16994
16997
16999
17001
17003
17009
17018
17023
17033
17037
17040
17041
17044
17046
17047
17048
17063
17072
17076
17078
17079
17092
17094
17098
17099
17100
17102
17103
17104
17107
17109
17111
17117
17118
17119
17121
17122
17123
17139
17142
17143
17150
17154
17156
17166
17167
17170
17171
17173
17174
17180
17181
17182
17188
17189
17192
17196
17199
17201
17202
17203
17205
17206
17207
17208
17217
17218
17221
17226
17228
17229
17232
17234
17237
17238
17239
17240
17251
17268
17270
17271
17272
17275
17277
17279
17280
17282
17284
17285
17288
17292
17297
17299
17302
17303
17306
17309
17312
17313
17327
17329
17331
17333
17338
17348
17352
17353
17359
17363
17365
17366
17370
17382
17386
17393
17397
17398
17399
17405
17406
17410
17411
17416
17424
17430
17435
17437
17438
17443
17446
17448
17450
17458
17464
17465
17468
17469
17470
17471
17472
17477
17480
17486
17487
17491
17492
17493
17496
17498
17504
17514
17515
17526
17534
17535
17536
17538
17540
17554
17555
17556
17557
17558
17559
17561
17565
17567
17572
17574
17577
17580
17583
17584
17585
17587
17588
17593
17598
17602
17606
17609
17610
17614
17617
17622
17632
17633
17635
17637
17638
17639
17640
17646
17650
17651
17657
17663
17670
17675
17685
17689
17691
17693
17694
17698
17709
17711
17713
17717
17718
17719
17720
17727
17731
17738
17744
17745
17748
17749
17750
17751
17754
17756
17757
17758
17760
17761
17765
17767
17768
17769
17770
17772
17781
17788
17789
17797
17799
17802
17803
17815
17818
17820
17825
17829
17830
17832
17836
17840
17848
17850
17852
17857
17858
17859
17860
17865
17869
17870
17875
17877
17879
17888
17892
17893
17894
17897
17905
17906
17912
17916
17919
17920
17923
17926
17930
17933
17942
17949
17961
17963
17964
17967
17973
17974
17976
17982
17987
17991
17993
17995
17997
18005
18006
18010
18016
18019
18021
18023
18025
18028
18029
18031
18034
18041
18053
18057
18062
18063
18065
18067
18069
18071
18073
18075
18076
18079
18080
18084
18086
18089
18091
18092
18094
18095
18097
18102
18116
18117
18122
18126
18129
18130
18133
18138
18139
18151
18154
18157
18159
18168
18169
18171
18176
18177
18185
18189
18191
18198
18200
18203
18205
18207
18219
18231
18236
18253
18254
18255
18262
18265
18266
18269
18273
18274
18279
18283
18289
18297
18299
18300
18304
18309
18310
18315
18319
18321
18322
18327
18329
18331
18332
18338
18340
18344
18346
18348
18353
18354
18355
18358
18363
18364
18368
18376
18377
18381
18385
18389
18390
18391
18397
18400
18403
18404
18405
18407
18413
18422
18424
18426
18427
18428
18433
18434
18438
18439
18445
18447
18448
18449
18450
18454
18456
18457
18458
18459
18461
18469
18480
18483
18498
18499
18502
18503
18513
18514
18515
18518
18520
18521
18525
18527
18531
18532
18535
18538
18539
18547
18550
18551
18552
18553
18554
18557
18560
18561
18563
18565
18567
18576
18578
18579
18580
18581
18582
18588
18589
18591
18592
18594
18595
18597
18618
18619
18620
18621
18624
18626
18632
18634
18639
18645
18651
18652
18656
18657
18661
18668
18671
18672
18674
18675
18676
18684
18686
18688
18690
18691
18693
18699
18709
18712
18722
18726
18731
18742
18746
18751
18754
18757
18758
18759
18763
18778
18783
18784
18788
18797
18800
18802
18806
18822
18823
18824
18826
18827
18829
18831
18832
18840
18843
18845
18846
18856
18859
18865
18871
18872
18875
18881
18885
18888
18890
18892
18896
18899
18902
18903
18904
18909
18912
18923
18928
18935
18937
18941
18950
18953
18958
18962
18976
18977
18980
18983
18992
18995
18998
19004
19005
19007
19010
19012
19013
19014
19016
19020
19021
19025
19027
19028
19029
19033
19037
19038
19048
19055
19056
19057
19062
19063
19068
19080
19084
19087
19094
19095
19099
19107
19112
19115
19121
19122