-3.5 	900 	7.48688e-13 	1129.9
-3.486 	900 	7.90198e-13 	1129.9
-3.472 	900 	7.79533e-13 	1129.9
-3.458 	900 	6.79898e-13 	1129.9
-3.444 	900 	6.32422e-13 	1129.9
-3.43 	900 	6.1169e-13 	1129.9
-3.416 	900 	6.47692e-13 	1129.9
-3.402 	900 	6.61715e-13 	1129.9
-3.388 	900 	6.55627e-13 	1129.9
-3.374 	900 	7.15625e-13 	1129.9
-3.36 	900 	8.07293e-13 	1129.9
-3.346 	900 	7.94935e-13 	1129.9
-3.332 	900 	6.52657e-13 	1129.9
-3.318 	900 	6.42509e-13 	1129.9
-3.304 	900 	6.02749e-13 	1129.9
-3.29 	900 	4.4323e-13 	1129.9
-3.276 	900 	4.36335e-13 	1129.9
-3.262 	900 	5.26785e-13 	1129.9
-3.248 	900 	5.30095e-13 	1129.9
-3.234 	900 	5.52801e-13 	1129.9
-3.22 	900 	7.16219e-13 	1129.9
-3.206 	900 	8.36942e-13 	1129.9
-3.192 	900 	7.65061e-13 	1129.9
-3.178 	900 	7.16013e-13 	1129.9
-3.164 	900 	7.86853e-13 	1129.9
-3.15 	900 	8.06481e-13 	1129.9
-3.136 	900 	7.47195e-13 	1129.9
-3.122 	900 	5.90935e-13 	1129.9
-3.108 	900 	4.42852e-13 	1129.9
-3.094 	900 	4.18037e-13 	1129.9
-3.08 	900 	4.34458e-13 	1129.9
-3.066 	900 	4.58185e-13 	1129.9
-3.052 	900 	4.94978e-13 	1129.9
-3.038 	900 	4.63368e-13 	1129.9
-3.024 	900 	3.34406e-13 	1129.9
-3.01 	900 	2.23436e-13 	1129.9
-2.996 	900 	1.80137e-13 	1129.9
-2.982 	900 	2.05749e-13 	1129.9
-2.968 	900 	1.95059e-13 	1129.9
-2.954 	900 	1.56905e-13 	1129.9
-2.94 	900 	2.05331e-13 	1129.9
-2.926 	900 	2.971e-13 	1129.9
-2.912 	900 	3.17843e-13 	1129.9
-2.898 	900 	3.75711e-13 	1129.9
-2.884 	900 	4.5783e-13 	1129.9
-2.87 	900 	3.45426e-13 	1129.9
-2.856 	900 	3.41212e-13 	1129.9
-2.842 	900 	4.17956e-13 	1129.9
-2.828 	900 	3.56841e-13 	1129.9
-2.814 	900 	4.14853e-13 	1129.9
-2.8 	900 	6.40774e-13 	1129.9
-2.786 	900 	7.8558e-13 	1129.9
-2.772 	900 	8.47134e-13 	1129.9
-2.758 	900 	9.16348e-13 	1129.9
-2.744 	900 	8.9327e-13 	1129.9
-2.73 	900 	7.96898e-13 	1129.9
-2.716 	900 	6.78136e-13 	1129.9
-2.702 	900 	6.03603e-13 	1129.9
-2.688 	900 	6.06203e-13 	1129.9
-2.674 	900 	6.03878e-13 	1129.9
-2.66 	900 	5.49882e-13 	1129.9
-2.646 	900 	5.95229e-13 	1129.9
-2.632 	900 	7.34677e-13 	1129.9
-2.618 	900 	8.4178e-13 	1129.9
-2.604 	900 	8.8322e-13 	1129.9
-2.59 	900 	7.75065e-13 	1129.9
-2.576 	900 	6.40929e-13 	1129.9
-2.562 	900 	5.12073e-13 	1129.9
-2.548 	900 	2.54632e-13 	1129.9
-2.534 	900 	4.92057e-14 	1129.9
-2.52 	900 	7.02002e-14 	1129.9
-2.506 	900 	2.5987e-13 	1129.9
-2.492 	900 	4.87974e-13 	1129.9
-2.478 	900 	6.30994e-13 	1129.9
-2.464 	900 	8.19545e-13 	1129.9
-2.45 	900 	8.84687e-13 	1129.9
-2.436 	900 	6.88132e-13 	1129.9
-2.422 	900 	5.64276e-13 	1129.9
-2.408 	900 	5.46044e-13 	1129.9
-2.394 	900 	4.61755e-13 	1129.9
-2.38 	900 	3.26839e-13 	1129.9
-2.366 	900 	2.68781e-13 	1129.9
-2.352 	900 	2.83917e-13 	1129.9
-2.338 	900 	3.37676e-13 	1129.9
-2.324 	900 	4.57047e-13 	1129.9
-2.31 	900 	7.00084e-13 	1129.9
-2.296 	900 	9.92362e-13 	1129.9
-2.282 	900 	1.00357e-12 	1129.9
-2.268 	900 	6.89324e-13 	1129.9
-2.254 	900 	3.07118e-13 	1129.9
-2.24 	900 	1.28394e-13 	1129.9
-2.226 	900 	2.03133e-13 	1129.9
-2.212 	900 	2.77226e-13 	1129.9
-2.198 	900 	3.07424e-13 	1129.9
-2.184 	900 	3.28905e-13 	1129.9
-2.17 	900 	2.85221e-13 	1129.9
-2.156 	900 	3.68864e-13 	1129.9
-2.142 	900 	4.1978e-13 	1129.9
-2.128 	900 	3.51859e-13 	1129.9
-2.114 	900 	3.48233e-13 	1129.9
-2.1 	900 	4.52019e-13 	1129.9
-2.086 	900 	5.57044e-13 	1129.9
-2.072 	900 	4.2959e-13 	1129.9
-2.058 	900 	2.91127e-13 	1129.9
-2.044 	900 	2.82884e-13 	1129.9
-2.03 	900 	2.66912e-13 	1129.9
-2.016 	900 	3.43217e-13 	1129.9
-2.002 	900 	4.68287e-13 	1129.9
-1.988 	900 	5.05502e-13 	1129.9
-1.974 	900 	4.31285e-13 	1129.9
-1.96 	900 	1.93995e-13 	1129.9
-1.946 	900 	5.6744e-14 	1129.9
-1.932 	900 	1.20212e-13 	1129.9
-1.918 	900 	2.08222e-13 	1129.9
-1.904 	900 	2.75772e-13 	1129.9
-1.89 	900 	3.53749e-13 	1129.9
-1.876 	900 	2.78179e-13 	1129.9
-1.862 	900 	1.08771e-13 	1129.9
-1.848 	900 	8.96685e-14 	1129.9
-1.834 	900 	7.26776e-14 	1129.9
-1.82 	900 	3.05747e-13 	1129.9
-1.806 	900 	1.44023e-12 	1129.9
-1.792 	900 	5.85432e-12 	1129.9
-1.778 	900 	2.12488e-11 	1129.9
-1.764 	900 	7.134e-11 	1129.9
-1.75 	900 	2.35412e-10 	1129.9
-1.736 	900 	7.71374e-10 	1129.9
-1.722 	900 	2.50233e-09 	1129.9
-1.708 	900 	8.00592e-09 	1129.9
-1.694 	900 	2.52842e-08 	1129.9
-1.68 	900 	7.88734e-08 	1129.9
-1.666 	900 	2.4295e-07 	1129.9
-1.652 	900 	7.38921e-07 	1129.9
-1.638 	900 	2.21907e-06 	1129.9
-1.624 	900 	6.58006e-06 	1129.9
-1.61 	900 	1.92667e-05 	1129.9
-1.596 	900 	5.57154e-05 	1129.9
-1.582 	900 	0.000159168 	1129.9
-1.568 	900 	0.00044942 	1129.9
-1.554 	900 	0.00125508 	1129.9
-1.54 	899.998 	0.00347029 	1129.89
-1.526 	899.995 	0.00951402 	1129.88
-1.512 	899.985 	0.0259139 	1129.83
-1.498 	899.957 	0.0703082 	1129.72
-1.484 	899.885 	0.190646 	1129.4
-1.47 	899.689 	0.518816 	1128.54
-1.456 	899.147 	1.4246 	1126.16
-1.442 	897.615 	3.98378 	1119.47
-1.428 	893.305 	11.1935 	1100.82
-1.414 	885.561 	24.1784 	1067.91
-1.4 	877.794 	37.252 	1035.55
-1.386 	872.452 	46.2825 	1013.69
-1.372 	868.661 	52.7006 	998.397
-1.358 	865.595 	57.9064 	986.146
-1.344 	862.851 	62.5746 	975.27
-1.33 	860.232 	67.0357 	964.974
-1.316 	857.646 	71.4496 	954.88
-1.302 	855.051 	75.8844 	944.828
-1.288 	852.438 	80.3583 	934.781
-1.274 	849.808 	84.8664 	924.75
-1.26 	847.17 	89.3971 	914.76
-1.246 	844.529 	93.9395 	904.839
-1.232 	841.889 	98.4868 	894.999
-1.218 	839.253 	103.035 	885.25
-1.204 	836.622 	107.581 	875.595
-1.19 	833.997 	112.124 	866.035
-1.176 	831.378 	116.666 	856.572
-1.162 	828.764 	121.203 	847.201
-1.148 	826.155 	125.739 	837.924
-1.134 	823.552 	130.273 	828.739
-1.12 	820.955 	134.804 	819.646
-1.106 	818.363 	139.333 	810.642
-1.092 	815.776 	143.86 	801.727
-1.078 	813.195 	148.384 	792.9
-1.064 	810.619 	152.907 	784.159
-1.05 	808.048 	157.43 	775.505
-1.036 	805.481 	161.95 	766.934
-1.022 	802.919 	166.469 	758.447
-1.008 	800.362 	170.987 	750.044
-0.994 	797.81 	175.504 	741.722
-0.98 	795.262 	180.019 	733.481
-0.966 	792.718 	184.534 	725.319
-0.952 	790.18 	189.049 	717.236
-0.938 	787.646 	193.563 	709.233
-0.924 	785.116 	198.077 	701.307
-0.91 	782.591 	202.589 	693.457
-0.896 	780.069 	207.102 	685.684
-0.882 	777.552 	211.614 	677.986
-0.868 	775.039 	216.126 	670.361
-0.854 	772.531 	220.638 	662.812
-0.84 	770.026 	225.149 	655.336
-0.826 	767.526 	229.661 	647.932
-0.812 	765.03 	234.173 	640.6
-0.798 	762.538 	238.683 	633.34
-0.784 	760.05 	243.195 	626.15
-0.77 	757.567 	247.705 	619.031
-0.756 	755.088 	252.216 	611.982
-0.742 	752.612 	256.726 	605.001
-0.728 	750.14 	261.236 	598.09
-0.714 	747.674 	265.746 	591.246
-0.7 	745.212 	270.256 	584.47
-0.686 	742.753 	274.765 	577.762
-0.672 	740.299 	279.274 	571.12
-0.658 	737.85 	283.782 	564.544
-0.644 	735.404 	288.289 	558.035
-0.63 	732.964 	292.796 	551.591
-0.616 	730.528 	297.301 	545.212
-0.602 	728.096 	301.806 	538.899
-0.588 	725.67 	306.309 	532.649
-0.574 	723.248 	310.812 	526.463
-0.56 	720.831 	315.312 	520.342
-0.546 	718.418 	319.812 	514.283
-0.532 	716.01 	324.309 	508.286
-0.518 	713.608 	328.805 	502.352
-0.504 	711.211 	333.3 	496.48
-0.49 	708.817 	337.793 	490.666
-0.476 	706.429 	342.286 	484.913
-0.462 	704.045 	346.777 	479.221
-0.448 	701.667 	351.266 	473.587
-0.434 	699.295 	355.75 	468.018
-0.42 	696.935 	360.219 	462.522
-0.406 	694.595 	364.656 	457.12
-0.392 	692.296 	369.024 	451.856
-0.378 	690.075 	373.251 	446.811
-0.364 	687.993 	377.222 	442.116
-0.35 	686.132 	380.776 	437.952
-0.336 	684.579 	383.728 	434.496
-0.322 	683.416 	385.981 	431.924
-0.308 	682.639 	387.49 	430.214
-0.294 	682.168 	388.316 	429.183
-0.28 	681.95 	388.72 	428.71
-0.266 	681.89 	388.89 	428.587
-0.252 	681.899 	388.892 	428.615
-0.238 	681.991 	388.7 	428.822
-0.224 	682.133 	388.361 	429.142
-0.21 	682.247 	388.09 	429.401
-0.196 	682.33 	387.964 	429.588
-0.182 	682.382 	387.916 	429.712
-0.168 	682.404 	387.889 	429.77
-0.154 	682.396 	387.859 	429.759
-0.14 	682.37 	387.851 	429.711
-0.126 	682.339 	387.892 	429.653
-0.112 	682.311 	387.978 	429.596
-0.098 	682.282 	388.08 	429.539
-0.084 	682.243 	388.152 	429.461
-0.07 	682.195 	388.2 	429.366
-0.056 	682.147 	388.245 	429.27
-0.042 	682.102 	388.304 	429.185
-0.028 	682.072 	388.392 	429.127
-0.014 	682.048 	388.48 	429.081
0 	682.015 	388.531 	429.019
0.014 	681.982 	388.553 	428.954
0.028 	681.951 	388.563 	428.902
0.042 	681.933 	388.58 	428.875
0.056 	681.93 	388.611 	428.877
0.07 	681.929 	388.639 	428.885
0.084 	681.918 	388.644 	428.875
0.098 	681.901 	388.63 	428.852
0.112 	681.891 	388.616 	428.84
0.126 	681.892 	388.611 	428.852
0.14 	681.9 	388.608 	428.886
0.154 	681.913 	388.592 	428.93
0.168 	681.928 	388.55 	428.973
0.182 	681.939 	388.49 	429.01
0.196 	681.951 	388.436 	429.051
0.21 	681.967 	388.401 	429.101
0.224 	681.983 	388.38 	429.151
0.238 	681.996 	388.356 	429.2
0.252 	682.007 	388.316 	429.24
0.266 	682.015 	388.26 	429.274
0.28 	682.024 	388.212 	429.311
0.294 	682.035 	388.186 	429.352
0.308 	682.042 	388.175 	429.386
0.322 	682.043 	388.167 	429.408
0.336 	682.039 	388.15 	429.42
0.35 	682.036 	388.122 	429.435
0.364 	682.042 	388.082 	429.469
0.378 	682.059 	388.033 	429.531
0.392 	682.082 	387.984 	429.602
0.406 	682.097 	387.945 	429.659
0.42 	682.097 	387.916 	429.685
0.434 	682.084 	387.904 	429.685
0.448 	682.064 	387.91 	429.67
0.462 	682.039 	387.938 	429.639
0.476 	682.007 	387.995 	429.592
0.49 	681.968 	388.059 	429.536
0.504 	681.926 	388.108 	429.476
0.518 	681.885 	388.143 	429.417
0.532 	681.845 	388.172 	429.365
0.546 	681.812 	388.204 	429.327
0.56 	681.789 	388.241 	429.313
0.574 	681.769 	388.261 	429.305
0.588 	681.75 	388.256 	429.296
0.602 	681.735 	388.243 	429.295
0.616 	681.718 	388.236 	429.291
0.63 	681.697 	388.249 	429.28
0.644 	681.675 	388.285 	429.265
0.658 	681.646 	388.322 	429.239
0.672 	681.611 	388.338 	429.206
0.686 	681.58 	388.34 	429.182
0.7 	681.555 	388.336 	429.171
0.714 	681.532 	388.341 	429.169
0.728 	681.508 	388.364 	429.178
0.742 	681.48 	388.379 	429.178
0.756 	681.447 	388.374 	429.164
0.77 	681.425 	388.363 	429.151
0.784 	681.417 	388.351 	429.154
0.798 	681.417 	388.341 	429.176
0.812 	681.417 	388.329 	429.209
0.826 	681.403 	388.322 	429.226
0.84 	681.351 	388.336 	429.206
0.854 	681.236 	388.365 	429.16
0.868 	681.013 	388.382 	429.125
0.882 	680.573 	388.378 	429.119
0.896 	679.678 	388.373 	429.124
0.91 	677.874 	388.382 	429.133
0.924 	674.327 	388.402 	429.153
0.938 	667.496 	388.43 	429.19
0.952 	654.628 	388.477 	429.271
0.966 	631.076 	388.592 	429.488
0.98 	591.105 	388.576 	429.671
0.994 	540.168 	390.512 	432.353
1.008 	500.801 	391.656 	433.805
1.022 	482.766 	388.973 	430.194
1.036 	476.243 	386.072 	426.281
1.05 	474.101 	384.739 	424.475
1.064 	473.787 	384.992 	424.839
1.078 	474.79 	386.958 	427.582
1.092 	476.402 	389.05 	430.506
1.106 	477.672 	389.878 	431.67
1.12 	478.61 	390.272 	432.235
1.134 	479.094 	390.465 	432.534
1.148 	479.132 	390.39 	432.471
1.162 	478.677 	389.882 	431.804
1.176 	477.31 	388.317 	429.683
1.19 	475.587 	386.356 	427.022
1.204 	474.532 	385.338 	425.678
1.218 	474.12 	385.092 	425.409
1.232 	474.073 	385.3 	425.773
1.246 	474.736 	386.678 	427.748
1.26 	476.083 	388.848 	430.791
1.274 	477.18 	390.121 	432.532
1.288 	477.822 	390.5 	432.964
1.302 	478.308 	390.707 	433.132
1.316 	478.543 	390.615 	432.89
1.33 	478.358 	389.679 	431.494
1.344 	477.491 	387.547 	428.476
1.358 	476.638 	385.842 	426.071
1.372 	476.337 	385.453 	425.485
1.386 	476.174 	385.425 	425.407
1.4 	476.072 	385.66 	425.694
1.414 	476.249 	386.728 	427.125
1.428 	476.867 	388.885 	430.065
1.442 	477.312 	390.555 	432.349
1.456 	477.182 	390.92 	432.828
1.47 	476.839 	390.838 	432.697
1.484 	476.503 	390.594 	432.35
1.498 	476.158 	389.945 	431.436
1.512 	475.592 	388.262 	429.101
1.526 	475.096 	386.408 	426.538
1.54 	475.077 	385.617 	425.453
1.554 	475.438 	385.579 	425.4
1.568 	475.966 	385.894 	425.815
1.582 	476.666 	386.966 	427.267
1.596 	477.267 	388.226 	428.983
1.61 	477.144 	387.889 	428.531
1.624 	472.264 	376.919 	413.619
1.638 	436.346 	291.959 	319.892
1.652 	357.472 	119.932 	179.686
1.666 	305.218 	11.9933 	114.501
1.68 	300.265 	0.710655 	109.413
1.694 	300.014 	0.0403457 	109.118
1.708 	300.001 	0.00228816 	109.101
1.722 	300 	0.000129773 	109.1
1.736 	300 	7.36398e-06 	109.1
1.75 	300 	4.181e-07 	109.1
1.764 	300 	2.37521e-08 	109.1
1.778 	300 	1.34982e-09 	109.1
1.792 	300 	7.64744e-11 	109.1
1.806 	300 	4.12849e-12 	109.1
1.82 	300 	2.42137e-13 	109.1
1.834 	300 	2.41568e-13 	109.1
1.848 	300 	1.70287e-13 	109.1
1.862 	300 	1.02244e-13 	109.1
1.876 	300 	7.1142e-14 	109.1
1.89 	300 	2.81404e-14 	109.1
1.904 	300 	3.31372e-14 	109.1
1.918 	300 	5.14093e-14 	109.1
1.932 	300 	1.53378e-13 	109.1
1.946 	300 	3.56143e-13 	109.1
1.96 	300 	4.86263e-13 	109.1
1.974 	300 	5.04796e-13 	109.1
1.988 	300 	5.19736e-13 	109.1
2.002 	300 	5.40229e-13 	109.1
2.016 	300 	5.87245e-13 	109.1
2.03 	300 	6.00656e-13 	109.1
2.044 	300 	5.45773e-13 	109.1
2.058 	300 	4.88165e-13 	109.1
2.072 	300 	4.09175e-13 	109.1
2.086 	300 	2.94287e-13 	109.1
2.1 	300 	2.50284e-13 	109.1
2.114 	300 	3.12327e-13 	109.1
2.128 	300 	3.98552e-13 	109.1
2.142 	300 	4.58785e-13 	109.1
2.156 	300 	4.65283e-13 	109.1
2.17 	300 	4.66045e-13 	109.1
2.184 	300 	4.7197e-13 	109.1
2.198 	300 	4.82074e-13 	109.1
2.212 	300 	5.15462e-13 	109.1
2.226 	300 	6.29249e-13 	109.1
2.24 	300 	7.24369e-13 	109.1
2.254 	300 	6.90824e-13 	109.1
2.268 	300 	6.17834e-13 	109.1
2.282 	300 	5.86713e-13 	109.1
2.296 	300 	5.41972e-13 	109.1
2.31 	300 	4.07064e-13 	109.1
2.324 	300 	3.04024e-13 	109.1
2.338 	300 	2.84994e-13 	109.1
2.352 	300 	1.94191e-13 	109.1
2.366 	300 	9.9704e-14 	109.1
2.38 	300 	1.38931e-13 	109.1
2.394 	300 	2.44759e-13 	109.1
2.408 	300 	3.33463e-13 	109.1
2.422 	300 	4.15968e-13 	109.1
2.436 	300 	5.16937e-13 	109.1
2.45 	300 	5.42427e-13 	109.1
2.464 	300 	4.63147e-13 	109.1
2.478 	300 	3.88362e-13 	109.1
2.492 	300 	3.49126e-13 	109.1
2.506 	300 	2.66879e-13 	109.1
2.52 	300 	1.52815e-13 	109.1
2.534 	300 	1.22601e-13 	109.1
2.548 	300 	1.88239e-13 	109.1
2.562 	300 	2.30048e-13 	109.1
2.576 	300 	1.51298e-13 	109.1
2.59 	300 	5.13555e-14 	109.1
2.604 	300 	4.92699e-14 	109.1
2.618 	300 	7.75934e-14 	109.1
2.632 	300 	1.18536e-13 	109.1
2.646 	300 	2.34117e-13 	109.1
2.66 	300 	3.25231e-13 	109.1
2.674 	300 	2.95555e-13 	109.1
2.688 	300 	2.00608e-13 	109.1
2.702 	300 	1.12747e-13 	109.1
2.716 	300 	4.72525e-14 	109.1
2.73 	300 	7.68185e-14 	109.1
2.744 	300 	9.94315e-14 	109.1
2.758 	300 	3.13553e-14 	109.1
2.772 	300 	5.37482e-14 	109.1
2.786 	300 	1.70188e-13 	109.1
2.8 	300 	2.69875e-13 	109.1
2.814 	300 	2.63314e-13 	109.1
2.828 	300 	2.10991e-13 	109.1
2.842 	300 	2.15773e-13 	109.1
2.856 	300 	2.22271e-13 	109.1
2.87 	300 	1.44083e-13 	109.1
2.884 	300 	5.70308e-14 	109.1
2.898 	300 	6.05633e-14 	109.1
2.912 	300 	5.84169e-14 	109.1
2.926 	300 	3.08141e-14 	109.1
2.94 	300 	4.52767e-14 	109.1
2.954 	300 	6.49654e-14 	109.1
2.968 	300 	8.34863e-14 	109.1
2.982 	300 	1.03266e-13 	109.1
2.996 	300 	5.2448e-14 	109.1
3.01 	300 	4.38339e-14 	109.1
3.024 	300 	1.24015e-13 	109.1
3.038 	300 	1.45499e-13 	109.1
3.052 	300 	9.47857e-14 	109.1
3.066 	300 	3.2365e-14 	109.1
3.08 	300 	4.91135e-14 	109.1
3.094 	300 	1.26441e-13 	109.1
3.108 	300 	1.23573e-13 	109.1
3.122 	300 	6.05208e-14 	109.1
3.136 	300 	3.45752e-14 	109.1
3.15 	300 	6.96371e-14 	109.1
3.164 	300 	1.33284e-13 	109.1
3.178 	300 	2.11037e-13 	109.1
3.192 	300 	3.36765e-13 	109.1
3.206 	300 	4.61858e-13 	109.1
3.22 	300 	5.76128e-13 	109.1
3.234 	300 	6.91867e-13 	109.1
3.248 	300 	7.40495e-13 	109.1
3.262 	300 	7.68021e-13 	109.1
3.276 	300 	8.50509e-13 	109.1
3.29 	300 	8.54476e-13 	109.1
3.304 	300 	8.11695e-13 	109.1
3.318 	300 	7.87824e-13 	109.1
3.332 	300 	7.32827e-13 	109.1
3.346 	300 	7.1912e-13 	109.1
3.36 	300 	6.75855e-13 	109.1
3.374 	300 	6.14868e-13 	109.1
3.388 	300 	5.8925e-13 	109.1
3.402 	300 	5.1063e-13 	109.1
3.416 	300 	3.99345e-13 	109.1
3.43 	300 	3.43758e-13 	109.1
3.444 	300 	3.58944e-13 	109.1
3.458 	300 	3.94061e-13 	109.1
3.472 	300 	4.19241e-13 	109.1
3.486 	300 	4.48792e-13 	109.1
3.5 	300 	4.67485e-13 	109.1
3.5 	300 	4.67485e-13 	109.1
