/*--------------------------------*- C++ -*----------------------------------*\
  =========                 |
  \\      /  F ield         | OpenFOAM: The Open Source CFD Toolbox
   \\    /   O peration     | Website:  https://openfoam.org
    \\  /    A nd           | Version:  7
     \\/     M anipulation  |
\*---------------------------------------------------------------------------*/
FoamFile
{
    version     2.0;
    format      ascii;
    class       scalarField;
    location    "0.0018/lagrangian/dsmc";
    object      Ei;
}
// * * * * * * * * * * * * * * * * * * * * * * * * * * * * * * * * * * * * * //


31784
(
3.12624e-22
1.93228e-20
9.58356e-21
4.54728e-21
2.13862e-21
1.71613e-21
7.66275e-21
9.71385e-21
2.32114e-20
1.63567e-20
2.29907e-20
1.58753e-20
2.3107e-22
1.55756e-20
1.94723e-21
1.352e-20
3.05419e-21
4.12635e-22
5.323e-20
2.88297e-20
1.20403e-20
5.87359e-21
3.48737e-20
4.05711e-21
7.04503e-21
1.50121e-21
1.80284e-22
4.95098e-21
1.25324e-20
1.76984e-20
4.31714e-21
2.34497e-20
9.05797e-24
1.39829e-21
7.93564e-22
1.51037e-20
9.75678e-21
2.53832e-21
1.52954e-21
6.83135e-21
2.44891e-20
2.45935e-20
2.12917e-21
2.72436e-20
5.09658e-20
1.70464e-20
2.98854e-20
2.94432e-21
1.3382e-20
2.78216e-20
2.59331e-21
2.0827e-21
6.28376e-21
1.23094e-20
1.00275e-20
2.20054e-20
1.52779e-20
1.4494e-20
4.16498e-21
2.52171e-21
4.55906e-21
2.29863e-20
5.97065e-21
2.2091e-20
1.39755e-21
3.51116e-20
2.41782e-21
1.17897e-20
2.43571e-21
4.62024e-21
9.08849e-21
4.14221e-21
1.14428e-20
2.15368e-20
5.60143e-21
5.58219e-21
2.83713e-20
3.4827e-20
2.56048e-20
2.38946e-22
6.45112e-22
8.26888e-21
1.21988e-20
1.04315e-20
2.42298e-20
1.67499e-22
9.08674e-23
2.61548e-21
1.38321e-20
8.00512e-21
3.63739e-21
7.81552e-21
1.65959e-21
1.25877e-20
2.40591e-22
1.1475e-20
5.66207e-21
2.13546e-21
9.41105e-21
2.26986e-21
3.13772e-21
1.5292e-20
1.11336e-20
1.05593e-21
4.47752e-20
6.16674e-21
9.72411e-21
1.14981e-20
2.41474e-21
1.70107e-20
3.15256e-22
1.20755e-20
1.4349e-21
6.23841e-21
1.96069e-21
2.86656e-21
1.38131e-20
2.727e-22
8.46316e-21
5.3745e-21
7.8102e-21
4.72174e-21
7.78951e-21
2.38092e-20
2.07157e-20
1.46602e-22
1.30069e-20
1.42322e-20
1.46849e-21
1.98782e-20
2.89943e-20
1.01044e-20
8.09886e-21
1.73312e-20
4.90635e-20
1.04388e-20
1.5056e-20
3.00126e-20
1.05544e-20
1.45598e-20
1.51917e-20
6.0503e-21
1.66874e-21
1.94478e-20
1.46147e-20
3.30953e-20
5.25431e-21
2.41871e-20
2.95682e-21
2.31871e-20
3.22516e-20
1.04723e-20
1.4029e-21
5.28364e-21
4.56018e-20
2.04594e-21
2.05205e-21
1.56058e-20
2.50474e-20
1.61495e-20
3.42204e-20
3.13335e-21
1.34295e-21
2.51412e-20
1.75757e-20
1.9571e-20
3.07006e-20
5.0627e-21
3.07409e-20
1.10118e-20
2.01825e-20
1.03579e-20
8.86886e-21
1.89036e-20
1.01118e-21
5.21506e-21
1.307e-20
1.96727e-20
3.76858e-20
2.00602e-20
5.92901e-21
1.68452e-20
2.56705e-20
2.90032e-21
4.57742e-21
1.65893e-20
8.17663e-21
2.42425e-21
1.08278e-20
9.52559e-21
1.71441e-21
3.42239e-20
9.06269e-21
6.16524e-21
9.31469e-21
1.09566e-20
9.37177e-21
1.49825e-20
5.48613e-21
5.35528e-22
9.48179e-21
9.70916e-21
4.56978e-21
4.70021e-24
1.15273e-20
3.74279e-22
4.30732e-21
6.19431e-21
2.55051e-20
3.97926e-20
4.55207e-21
4.56504e-21
1.8014e-21
2.32211e-23
6.59435e-21
1.10056e-21
5.3719e-20
2.18226e-21
7.68449e-21
2.81043e-20
5.94063e-20
1.16883e-20
3.86276e-21
1.10623e-22
4.63257e-21
1.27569e-20
4.97371e-21
2.06106e-20
1.84957e-21
6.36374e-22
3.20416e-20
1.14254e-22
1.50734e-20
1.04167e-20
3.23301e-22
2.56995e-20
4.09443e-21
4.3253e-22
3.73088e-21
9.3275e-21
1.49723e-20
1.16891e-20
4.96116e-20
4.49797e-20
1.81751e-20
6.51025e-21
1.13901e-22
6.58436e-22
2.51174e-20
6.73194e-21
3.06608e-22
1.09823e-20
2.36577e-20
1.50381e-22
2.70814e-20
1.80573e-20
9.79541e-22
3.59627e-21
1.08908e-20
5.62074e-21
5.00178e-21
5.15745e-21
7.045e-21
1.22357e-21
8.16345e-22
2.42592e-20
2.4745e-21
1.80094e-20
4.20268e-22
2.79962e-20
3.72346e-22
4.45742e-21
9.92394e-21
1.91935e-21
1.45742e-20
9.42445e-21
5.90179e-20
2.79295e-20
4.3914e-22
1.46115e-20
6.6912e-21
1.3779e-20
1.08533e-20
1.40151e-20
2.98932e-20
1.71446e-21
2.39289e-21
2.47965e-20
2.17846e-20
2.38393e-20
2.15303e-20
2.34199e-20
9.59952e-21
2.54278e-22
3.29132e-21
9.04807e-21
2.94583e-20
4.14848e-22
3.09096e-21
4.20848e-21
9.06786e-21
4.31376e-21
1.87417e-20
1.2245e-21
2.33574e-21
1.92735e-20
9.3016e-21
2.59335e-20
1.49237e-20
2.97897e-20
3.72467e-21
7.79073e-21
1.16225e-20
7.18829e-21
1.30208e-20
1.90442e-20
1.66661e-20
1.47165e-20
2.98098e-20
2.50029e-20
2.71197e-21
1.63573e-20
2.87633e-20
8.48437e-21
2.85682e-21
8.7182e-21
1.76147e-20
1.42909e-20
5.15421e-21
8.65629e-24
1.19957e-21
2.55905e-20
4.00822e-21
1.8904e-20
2.12381e-22
2.35619e-22
1.15778e-20
1.7775e-20
1.24915e-20
1.53159e-20
7.86687e-21
3.14359e-22
1.75003e-20
1.06783e-20
2.8149e-20
8.57122e-21
9.33047e-21
5.4498e-21
1.22162e-21
4.73863e-20
1.34805e-21
1.13303e-21
3.31778e-20
1.59434e-20
2.79352e-22
1.74982e-20
3.30637e-20
1.25428e-20
6.62323e-22
1.56539e-20
1.92108e-20
5.03622e-21
9.76206e-21
2.05677e-21
8.35782e-21
1.22016e-20
4.84361e-21
9.01754e-21
3.2233e-20
2.84972e-21
6.64427e-21
2.82738e-21
8.38326e-22
2.00138e-20
1.11963e-20
5.22264e-21
4.48591e-21
2.91859e-21
2.53909e-20
1.06418e-20
4.06467e-21
1.07096e-20
3.05363e-21
1.34901e-21
1.78536e-21
7.66158e-21
3.54397e-21
1.09374e-20
9.11887e-21
3.2762e-20
2.95009e-20
1.64214e-20
7.14136e-21
8.79856e-21
3.9479e-21
2.41052e-20
3.22879e-22
9.55068e-21
5.52263e-21
2.19256e-20
2.28377e-20
4.11645e-21
2.95816e-20
2.42228e-21
7.62959e-21
1.41708e-20
1.17765e-20
6.09967e-21
1.69445e-20
1.16096e-21
1.05101e-20
1.32664e-20
5.79376e-22
6.42757e-22
7.09547e-21
6.45034e-21
2.71843e-20
1.94808e-21
1.47377e-20
5.03012e-21
1.1189e-20
2.71329e-21
1.01313e-20
6.93906e-22
9.43193e-21
8.56959e-21
3.00473e-20
7.55474e-21
1.81752e-22
2.2932e-20
1.14362e-21
7.71679e-22
1.44187e-20
2.29249e-20
1.04219e-20
5.12774e-21
3.42998e-20
3.50888e-21
2.27746e-20
1.0631e-20
5.30894e-21
2.40947e-20
9.72241e-21
7.0198e-22
4.84536e-21
1.05856e-20
1.14803e-20
9.7293e-21
5.96351e-20
2.07059e-20
7.04433e-21
9.63169e-21
9.75435e-21
2.49238e-21
1.2428e-20
4.78888e-20
9.57657e-22
8.54828e-21
2.97403e-21
3.23587e-21
9.5967e-22
2.93172e-20
3.39488e-21
6.33146e-21
1.23754e-21
8.42373e-21
1.55128e-21
3.36509e-20
2.78033e-22
2.80022e-21
1.32119e-20
1.07342e-20
1.09879e-20
2.35415e-21
2.21199e-20
1.08867e-20
2.2043e-20
4.64318e-21
8.54058e-21
2.09996e-21
1.09849e-21
1.04756e-20
2.55429e-21
3.19851e-20
1.1009e-20
6.85474e-21
2.75299e-21
3.90157e-21
1.07846e-20
1.19722e-20
1.92736e-20
6.48753e-21
1.74522e-20
2.50376e-20
1.57732e-20
2.22258e-20
3.4547e-20
9.1618e-21
1.26364e-20
1.17011e-20
1.8022e-21
1.43498e-20
4.02793e-21
2.41019e-20
8.65199e-21
3.38875e-21
1.59984e-20
1.85693e-21
4.40393e-21
3.45079e-20
2.77824e-20
4.56709e-21
3.13119e-21
5.86691e-21
5.95399e-21
1.97228e-21
2.298e-21
5.69383e-21
2.16634e-20
1.37613e-20
4.30415e-21
2.3753e-20
1.3406e-20
3.51643e-21
1.76079e-20
6.34176e-21
1.68863e-20
2.37377e-20
1.76392e-21
6.90424e-21
2.99614e-20
5.841e-21
1.62248e-20
1.47081e-20
1.54033e-21
2.16075e-21
8.9124e-21
8.26686e-21
1.68356e-20
3.63173e-21
2.44341e-21
8.42477e-21
7.12766e-21
5.19282e-21
4.95612e-21
3.39429e-21
5.31794e-20
1.78619e-21
3.63708e-20
5.69891e-21
2.32998e-21
4.10408e-21
1.26177e-20
9.4356e-21
9.98478e-21
1.05296e-20
2.4613e-20
9.53382e-21
9.08277e-21
1.58232e-20
2.10381e-20
5.20255e-21
8.90436e-21
1.70441e-20
8.28483e-21
9.54308e-21
1.87472e-20
6.07424e-21
1.829e-21
7.52937e-21
1.69203e-21
1.28513e-20
2.43866e-20
1.19251e-20
1.58531e-21
2.82768e-20
4.65738e-21
1.77736e-20
3.13276e-21
1.51238e-20
1.29721e-21
1.55051e-21
8.44558e-21
3.76632e-21
8.23931e-21
1.82139e-20
2.8462e-21
6.13602e-21
2.33342e-20
8.55098e-21
3.00604e-21
1.58272e-20
3.3189e-21
7.29719e-21
4.75306e-21
3.49667e-20
6.85012e-21
2.39213e-20
2.39486e-21
1.44662e-20
6.6347e-21
4.01025e-21
1.62989e-20
1.06049e-20
8.36982e-21
2.36049e-21
2.25503e-21
3.6146e-21
5.25366e-21
6.5689e-22
5.03915e-21
9.41951e-21
1.00941e-20
1.09903e-20
6.08098e-21
5.40886e-22
1.59225e-21
2.8384e-21
2.15748e-20
1.04332e-20
8.81874e-21
7.43946e-21
9.32196e-21
7.44957e-21
4.33994e-21
7.66175e-21
2.40761e-20
9.76376e-21
1.50243e-20
2.17084e-20
2.13535e-21
2.39262e-21
7.57213e-20
1.04739e-20
1.47131e-20
1.54822e-21
1.04216e-21
3.46711e-22
1.83202e-20
5.68755e-20
3.49366e-20
1.57393e-20
1.19344e-20
8.21107e-20
2.14473e-22
3.56072e-21
1.88481e-20
3.84438e-21
1.08396e-20
3.02746e-21
1.86291e-20
9.26731e-21
5.09005e-21
5.68252e-21
1.77534e-20
2.7338e-20
2.70194e-20
2.10679e-20
6.91071e-21
6.45745e-21
1.44685e-20
2.00992e-20
1.26392e-20
3.58905e-21
3.3754e-20
2.528e-20
1.93885e-20
1.20297e-20
2.62969e-21
2.23065e-21
1.30622e-20
9.8749e-21
1.07724e-20
3.20885e-20
3.44967e-21
1.04521e-20
1.77837e-20
6.57529e-21
2.43357e-21
1.73019e-20
1.07931e-20
1.19798e-20
2.46122e-20
6.00648e-21
2.25816e-20
3.87614e-21
1.32224e-20
3.03547e-20
3.20731e-21
2.63954e-21
3.01749e-21
3.57557e-21
8.20164e-21
9.08301e-23
9.59348e-21
2.22944e-20
6.7276e-20
9.15253e-21
8.65972e-21
2.68237e-20
9.86921e-22
7.24977e-21
5.88335e-21
2.75224e-20
7.89553e-22
8.78711e-21
6.4676e-21
8.43341e-22
2.6707e-21
1.38849e-20
2.46569e-20
1.33483e-21
4.6784e-21
1.52104e-20
7.64296e-21
6.11755e-21
3.48797e-21
2.41998e-20
6.07828e-21
4.15113e-21
4.04121e-20
7.04115e-21
4.98794e-21
6.72335e-21
3.76032e-21
2.70362e-21
1.49888e-20
5.51656e-21
3.89147e-21
1.3556e-20
4.19625e-22
5.43344e-21
4.59008e-21
4.16692e-20
1.86066e-20
1.44455e-20
3.22262e-21
1.21075e-20
4.27119e-21
1.85395e-20
9.05068e-21
6.5629e-21
2.68409e-21
4.35551e-21
1.34669e-20
1.44816e-21
3.97005e-20
5.99378e-21
4.40461e-21
2.8185e-21
1.22525e-20
1.09302e-20
1.12086e-20
1.76404e-20
2.58523e-20
9.54443e-21
2.20594e-20
3.42685e-21
1.38611e-20
1.52954e-20
5.11035e-20
9.73634e-22
9.24341e-21
2.61713e-20
1.31658e-20
4.30173e-20
6.26913e-21
1.16049e-21
9.29482e-21
5.062e-22
4.2348e-20
1.8943e-20
2.2094e-21
6.42749e-21
7.59742e-21
3.1881e-20
8.7297e-21
8.50187e-21
9.4871e-21
2.48784e-21
2.31716e-21
5.49735e-23
2.77812e-21
1.07e-20
3.13034e-20
2.45814e-20
4.89508e-21
1.94322e-20
7.93463e-21
2.30665e-20
1.8014e-20
8.12561e-21
8.08717e-21
5.86058e-21
4.56106e-21
3.83082e-20
1.61235e-21
1.2188e-20
3.73586e-21
1.48356e-21
1.66816e-20
1.76877e-20
4.73747e-22
5.80151e-21
1.66612e-20
1.22802e-20
1.26892e-20
2.00704e-20
6.30892e-21
2.16722e-20
6.22361e-21
4.03784e-21
8.99232e-21
4.07756e-21
1.16176e-20
2.58657e-21
9.7054e-21
2.42282e-20
5.70303e-21
2.75827e-20
2.10648e-24
8.88821e-21
4.34109e-21
3.47427e-21
1.37992e-21
1.20482e-21
4.64486e-21
2.6916e-21
4.1423e-20
2.75644e-21
3.14651e-21
2.09383e-20
9.75078e-21
3.54218e-20
7.98182e-21
9.60585e-21
1.07e-20
2.08353e-20
9.09685e-23
1.41006e-20
4.10588e-21
6.22884e-21
2.03214e-20
1.26489e-20
5.552e-21
2.28656e-20
6.20933e-21
1.49507e-20
1.42554e-20
6.51689e-21
6.51843e-23
6.39181e-21
1.72118e-20
1.6099e-20
7.30197e-21
3.99681e-21
1.27107e-20
1.50245e-20
2.29453e-20
1.68118e-20
2.53609e-21
2.2725e-21
3.92341e-20
2.22635e-21
3.89917e-20
2.79745e-20
8.63621e-22
9.80645e-21
8.00038e-21
8.63277e-22
1.78969e-21
3.58838e-21
4.4443e-21
2.0345e-20
1.73058e-20
1.56029e-20
1.28031e-20
4.86885e-21
7.52506e-21
2.5618e-20
1.30811e-20
8.23495e-21
3.04411e-22
6.45587e-22
6.69162e-21
6.98098e-21
5.44251e-21
8.93962e-22
4.88324e-21
1.76777e-20
1.63614e-21
1.61742e-20
1.80091e-20
1.62727e-20
1.36253e-21
2.37262e-21
4.67484e-20
1.43267e-20
1.24049e-20
4.90385e-21
2.50556e-20
3.28072e-22
1.31569e-20
1.68354e-20
1.13755e-19
1.13097e-20
5.56179e-21
2.78427e-21
1.88353e-20
1.30881e-21
3.04095e-20
3.02179e-20
4.58577e-20
8.09766e-22
7.57756e-22
1.96493e-21
1.74892e-20
1.07805e-20
7.69885e-22
4.64267e-21
6.07546e-21
3.40125e-21
5.03915e-21
3.97709e-21
1.24865e-20
1.84461e-20
1.24872e-20
1.35848e-20
1.63567e-20
4.77376e-20
1.04758e-20
3.06972e-20
1.18202e-20
5.71866e-21
1.53835e-20
2.32823e-21
2.3309e-20
7.42124e-23
7.94306e-21
1.29288e-20
8.71129e-21
6.77475e-21
3.09121e-20
5.04098e-23
1.294e-20
3.31596e-20
1.59807e-21
2.27994e-20
3.08554e-20
7.92989e-21
2.55222e-20
5.83004e-21
2.01132e-20
1.62071e-20
5.23575e-21
2.1798e-21
8.92831e-21
1.40648e-20
7.33753e-21
1.30485e-20
5.31444e-21
3.16795e-22
1.4904e-20
3.96785e-21
6.83869e-22
1.20872e-21
2.99926e-21
1.32248e-20
3.92034e-21
1.44047e-20
1.74204e-21
2.71568e-20
5.81479e-21
7.22545e-21
1.36643e-20
2.88829e-20
2.58807e-20
2.18803e-20
2.48534e-21
1.16318e-20
9.12027e-21
3.13298e-20
3.03611e-21
3.2638e-20
2.02239e-20
6.09924e-22
3.49772e-20
1.49474e-20
7.07436e-21
1.30293e-21
2.55014e-20
1.10622e-20
1.27305e-20
5.67529e-23
3.17075e-20
3.09625e-20
1.32071e-20
2.90216e-20
7.19853e-21
2.02052e-20
2.40577e-20
3.49312e-22
6.31168e-21
4.15429e-21
7.7985e-21
2.0695e-21
3.46512e-21
8.64199e-22
2.81823e-20
9.84583e-21
2.1097e-21
1.40169e-23
1.75798e-20
3.14394e-20
5.28037e-20
7.94163e-22
2.25844e-22
2.23932e-21
1.21846e-20
1.95874e-20
1.08552e-20
1.11952e-20
2.54407e-20
1.08106e-21
1.76286e-20
1.73548e-20
1.5942e-20
3.61477e-20
2.48254e-21
1.09063e-20
7.0454e-22
3.54626e-21
5.17308e-21
6.51061e-21
2.06834e-21
1.62084e-20
2.53825e-21
1.74757e-20
7.52967e-21
8.0488e-21
5.85268e-21
3.21484e-20
5.78772e-21
7.82177e-21
3.16435e-21
6.58734e-23
2.39837e-20
1.81776e-20
3.57968e-21
2.03397e-20
2.39419e-21
2.62659e-22
3.84008e-21
5.19114e-21
2.15993e-21
3.93855e-21
1.58821e-20
2.93477e-20
4.32942e-21
2.59627e-20
1.4392e-20
6.44003e-21
5.71107e-21
2.31353e-20
1.05789e-20
7.85626e-21
6.35769e-21
1.64873e-21
1.28089e-20
2.31223e-20
6.71558e-21
3.75457e-20
9.10802e-22
1.51504e-20
2.31808e-21
3.36998e-21
5.01486e-21
1.65653e-20
8.03519e-21
2.21765e-21
3.48796e-20
8.74274e-21
1.83621e-21
3.17211e-21
2.10201e-20
2.02243e-20
4.11935e-21
5.79433e-21
5.37142e-20
5.39004e-21
6.02905e-21
1.53732e-20
1.64727e-21
1.45249e-20
7.10717e-22
3.79336e-20
6.40037e-21
4.90369e-22
2.61438e-21
2.59184e-21
5.88975e-22
7.60501e-21
1.5375e-20
7.73791e-21
2.29629e-20
4.2728e-20
1.64748e-20
4.56211e-21
1.79308e-21
2.16151e-20
6.14786e-21
3.72679e-21
3.12116e-20
1.18147e-21
8.8242e-21
1.40694e-20
2.15037e-20
4.2964e-20
3.23521e-21
1.96127e-20
5.41403e-20
2.76432e-20
2.44598e-21
2.38914e-20
6.88148e-21
1.86914e-21
4.88352e-21
1.20953e-20
4.99437e-21
5.12966e-21
7.23275e-21
8.67061e-22
2.66404e-20
4.40665e-20
6.32574e-21
2.53875e-21
1.2741e-20
4.62105e-21
1.12571e-20
1.18031e-20
4.68509e-21
1.51821e-21
8.78747e-21
9.58961e-21
1.2682e-20
3.10035e-20
3.55893e-21
5.26239e-21
1.20114e-20
1.56945e-20
2.09923e-20
2.94757e-21
1.98779e-21
2.03995e-20
5.93144e-21
2.36736e-21
1.27636e-20
7.56372e-21
1.59237e-20
2.06727e-20
1.87811e-21
1.63518e-20
2.1983e-20
4.46605e-20
1.88676e-20
3.34718e-20
1.13415e-21
4.4143e-21
7.53534e-21
3.70052e-22
7.71249e-22
2.68892e-21
3.47319e-21
1.82975e-20
4.6738e-20
6.28153e-21
7.64884e-21
3.69188e-20
1.42656e-20
5.71164e-22
1.50712e-20
4.41403e-21
1.36187e-21
6.89936e-21
9.48238e-22
3.40912e-21
1.14319e-20
7.50178e-21
3.10521e-21
1.98639e-20
1.42552e-20
1.01102e-20
1.4158e-20
2.3426e-20
2.55955e-22
1.6532e-20
9.67019e-21
1.33241e-21
1.9688e-21
1.03619e-20
5.73417e-21
1.89487e-20
4.55506e-22
7.69376e-21
4.22632e-21
1.22168e-20
4.92167e-21
6.79557e-21
5.06069e-22
8.31604e-21
1.56975e-20
3.11605e-20
3.0829e-20
2.82083e-22
7.16024e-21
9.99107e-22
3.1481e-20
2.67156e-21
1.87331e-20
1.16125e-20
8.95491e-21
4.44321e-22
3.44537e-20
2.5746e-20
1.08075e-21
1.93366e-20
7.90564e-22
5.30567e-22
4.02602e-20
6.16127e-21
1.08295e-20
7.45499e-20
1.47249e-20
1.7976e-20
2.87993e-21
1.44402e-21
2.24094e-20
1.70021e-21
3.04201e-20
2.77892e-21
1.93664e-20
2.12077e-20
9.81418e-21
5.96473e-21
4.71197e-20
3.64497e-21
3.37227e-21
7.34452e-21
5.52337e-20
2.74534e-21
1.56577e-20
1.2248e-20
8.64953e-21
1.55953e-20
4.67466e-20
4.86661e-20
4.80356e-22
7.41138e-21
1.40241e-20
1.15761e-20
3.36361e-21
5.84973e-21
1.715e-20
4.30343e-20
1.24311e-20
2.08135e-20
3.84399e-22
3.24854e-20
3.01058e-22
3.60696e-20
9.65267e-21
5.13453e-21
2.84113e-20
7.85538e-21
2.12541e-20
1.92905e-20
1.97911e-20
2.02574e-22
1.60176e-20
8.48779e-21
6.22289e-21
1.37097e-20
5.48763e-21
9.84738e-21
5.74205e-21
5.10514e-21
3.32584e-20
2.07703e-20
2.52835e-20
5.36828e-21
2.45317e-21
6.00782e-21
3.52346e-21
2.40368e-20
3.38439e-20
9.74935e-21
7.92021e-21
5.36011e-21
2.15119e-20
8.31535e-21
4.57333e-21
4.01887e-21
1.38398e-20
4.171e-20
4.83573e-21
2.03707e-20
1.48817e-20
1.3589e-20
1.47309e-20
1.15945e-20
8.54121e-21
3.17117e-20
1.79214e-20
8.19574e-21
3.18156e-21
4.58137e-21
1.43177e-20
2.74173e-21
2.13084e-21
1.05768e-20
1.38549e-21
6.20546e-21
3.88114e-20
1.4094e-20
1.86611e-20
2.52908e-20
2.72229e-20
3.22039e-20
1.23906e-21
3.47139e-20
5.61438e-20
3.33834e-21
3.16689e-21
4.64675e-20
9.09645e-21
1.75335e-20
2.80964e-21
1.70262e-20
1.70099e-20
1.07097e-20
1.19711e-20
6.57416e-21
4.12392e-21
5.49367e-21
5.42874e-21
1.45058e-21
3.33517e-20
1.88311e-20
3.31083e-20
6.01244e-20
8.56992e-21
3.02882e-20
6.71438e-21
3.12439e-21
7.56005e-22
7.0364e-21
7.36627e-21
4.65959e-21
2.11607e-21
1.85658e-21
1.62721e-20
1.0504e-20
1.03637e-20
2.46971e-23
2.2793e-20
3.56829e-21
2.25829e-20
8.56147e-22
5.5678e-22
5.38246e-21
1.0484e-20
7.4594e-21
6.883e-21
1.01922e-21
7.95963e-24
1.1029e-20
7.8969e-21
2.87893e-20
1.76124e-20
3.0682e-20
3.20247e-20
2.68421e-20
1.18142e-20
6.76297e-21
2.09223e-20
6.95928e-20
1.5684e-21
1.92658e-21
3.34562e-21
5.73629e-22
1.44824e-21
2.86774e-20
1.26171e-20
1.0213e-20
2.30977e-20
4.4799e-21
2.11042e-20
3.81724e-20
4.79181e-21
5.0535e-21
4.78486e-21
4.64538e-20
3.74665e-20
1.92726e-23
1.24646e-20
5.52448e-21
3.55909e-20
1.4838e-20
1.00708e-20
3.42906e-21
1.24624e-20
2.56213e-20
1.22931e-20
5.22129e-21
4.41006e-24
8.74366e-21
1.68397e-20
2.1582e-20
2.52724e-20
3.83401e-21
1.4454e-20
6.25888e-21
4.31372e-22
8.22427e-21
3.03982e-21
2.30337e-21
2.16003e-21
1.27762e-20
7.36129e-21
1.08524e-20
1.78063e-20
2.78718e-21
1.98651e-22
5.74771e-21
1.78027e-21
1.30659e-21
4.52064e-21
9.40125e-22
5.83468e-21
1.41391e-20
4.29063e-22
1.94149e-21
1.73925e-21
3.18731e-20
1.13486e-20
3.65334e-21
1.59797e-20
4.15775e-21
6.49202e-21
5.63264e-21
4.45414e-21
5.38796e-21
3.35997e-21
1.50065e-20
1.45732e-21
1.08111e-20
1.31638e-20
9.30914e-21
7.5478e-21
1.16578e-20
3.04332e-20
8.24346e-21
2.2453e-21
5.59491e-21
6.95394e-21
8.62342e-21
2.44743e-20
4.45649e-21
6.1672e-21
3.02932e-21
2.98488e-22
1.40024e-20
6.04301e-21
5.51473e-21
9.38486e-21
2.86966e-21
1.88493e-21
1.15506e-20
1.1892e-20
3.03211e-20
1.7012e-20
6.00582e-21
2.41286e-20
2.75424e-20
3.0651e-21
4.48328e-21
1.03067e-20
6.20194e-21
9.63682e-21
1.49241e-20
1.74141e-20
1.07523e-21
4.52587e-21
1.16979e-20
3.24869e-20
5.34774e-21
1.29259e-21
8.99829e-21
1.60024e-20
1.21732e-20
5.73658e-21
5.90506e-21
1.80909e-21
9.45338e-21
3.79612e-21
1.28854e-20
7.32364e-21
1.13964e-20
1.55249e-21
1.42117e-21
7.99694e-22
1.06272e-20
1.07257e-20
3.81466e-20
1.40791e-20
1.56808e-21
5.57554e-21
5.23112e-20
1.87443e-20
2.23641e-20
1.13662e-21
5.57324e-21
5.18064e-21
5.48193e-22
7.77056e-21
1.5362e-20
3.34359e-20
9.5369e-22
5.99622e-21
1.72839e-20
1.43911e-21
1.04945e-20
9.5474e-21
6.55767e-21
3.77838e-20
5.10914e-21
1.97059e-21
7.19663e-21
8.56549e-21
1.60806e-20
7.57723e-21
6.03768e-22
3.90834e-22
2.86952e-21
4.33896e-21
7.60613e-21
1.63785e-20
3.25764e-20
1.20025e-20
9.91616e-21
3.71721e-21
2.23103e-21
2.54057e-21
9.44754e-21
2.95039e-20
5.13566e-22
9.45013e-21
1.96241e-20
5.2749e-21
2.7841e-21
2.90087e-20
1.32388e-20
6.50747e-21
9.63062e-21
1.22819e-20
6.5813e-21
2.49387e-20
3.99509e-21
7.25537e-21
5.01656e-21
1.19386e-20
1.55104e-20
4.61398e-21
1.94201e-21
7.33311e-21
1.4039e-21
2.25524e-22
8.65529e-22
1.62668e-21
2.81675e-20
9.42664e-22
1.47418e-20
2.9469e-21
1.51337e-20
3.28254e-22
3.51225e-21
3.77219e-20
1.60079e-21
1.85508e-21
5.3586e-22
3.10709e-20
4.48392e-21
1.60832e-20
2.59762e-21
3.32073e-21
4.18307e-21
3.45469e-20
5.54066e-21
1.67106e-21
5.1438e-21
1.69045e-20
1.58309e-21
3.7459e-20
8.13722e-21
2.80451e-21
3.89788e-21
1.0356e-20
7.3545e-21
2.26154e-20
5.61359e-22
9.31788e-21
6.25305e-21
1.39287e-20
1.15546e-22
3.35967e-21
1.13266e-20
1.89723e-21
9.24801e-21
8.16156e-21
9.52014e-21
2.92486e-20
6.9462e-21
6.53355e-21
1.46871e-20
1.54553e-20
2.24999e-22
6.3112e-21
8.87512e-21
8.64791e-21
1.81148e-21
3.00762e-20
1.63768e-20
1.78947e-20
3.02863e-20
9.2921e-21
1.36153e-20
3.45243e-21
5.91076e-21
6.62327e-21
7.04863e-21
3.50392e-20
7.05497e-21
7.87283e-21
2.19701e-20
1.3491e-20
6.25651e-21
4.54673e-21
8.01733e-21
2.94672e-22
1.37787e-20
4.36074e-21
1.11053e-20
1.18034e-20
2.93711e-20
6.76881e-21
3.43353e-21
2.92367e-20
1.79021e-20
4.40832e-21
6.70781e-21
9.92948e-20
1.54568e-20
9.7791e-22
4.66242e-21
9.3788e-21
1.58016e-20
5.4155e-21
5.95557e-21
1.70508e-20
2.91439e-20
1.16547e-20
2.97978e-21
1.39165e-20
1.76507e-20
8.5765e-20
5.4675e-21
6.0138e-21
8.00995e-21
2.15429e-21
7.67882e-21
3.86189e-21
5.05945e-21
3.4484e-21
6.46341e-21
1.71124e-20
4.79148e-20
1.16992e-20
5.34098e-22
3.34392e-20
5.07579e-22
7.98061e-21
8.05926e-22
8.09445e-22
1.0378e-20
5.40359e-21
1.89635e-20
1.13689e-21
2.93741e-20
1.79417e-21
1.49629e-22
2.36459e-21
1.38271e-20
6.96504e-21
6.69477e-22
3.12166e-21
1.11466e-20
2.00695e-20
5.48062e-21
9.67934e-22
2.17656e-20
8.188e-21
3.53417e-20
2.00822e-21
2.54385e-20
1.02376e-20
2.05914e-20
1.5539e-21
8.00472e-21
5.53143e-22
4.80534e-21
1.09292e-20
2.07968e-20
3.3155e-20
1.95776e-20
1.18323e-20
2.47151e-20
6.5017e-21
2.70449e-21
5.31966e-21
3.05342e-20
3.6924e-20
4.61013e-20
2.64925e-20
1.29727e-20
1.69459e-20
8.9345e-21
1.83061e-20
3.25034e-21
1.64095e-20
1.74304e-20
2.10193e-21
1.1407e-21
1.02575e-22
1.58163e-21
4.38732e-21
4.38588e-20
1.16943e-20
1.37701e-21
3.22818e-20
2.07074e-22
1.2163e-21
1.06039e-20
1.04134e-20
7.4073e-21
3.25657e-21
6.01478e-20
4.90341e-21
9.03813e-21
4.83005e-21
1.12362e-20
1.67257e-21
8.41674e-21
3.9068e-21
2.60092e-20
1.09074e-20
6.93268e-21
2.30367e-20
1.10735e-20
3.11245e-21
6.08942e-21
1.92086e-20
7.89125e-21
7.44005e-21
1.424e-20
4.50121e-21
5.69954e-22
4.38835e-21
1.12589e-20
7.89584e-21
2.02173e-20
1.32709e-20
2.13765e-21
6.88462e-22
2.33734e-20
7.35629e-22
9.54854e-22
7.13969e-21
3.27417e-21
5.21437e-21
6.78758e-21
6.70259e-21
4.4548e-21
5.63411e-22
2.05445e-21
2.7648e-20
3.31609e-20
1.59488e-21
9.63204e-21
1.51745e-20
5.8768e-20
9.30961e-21
9.11845e-21
1.06941e-21
3.55179e-20
3.49528e-20
9.3593e-22
1.43433e-20
1.55521e-20
1.40489e-20
5.14116e-21
1.32136e-20
3.0417e-20
9.57504e-21
4.5019e-21
8.40718e-23
1.53625e-20
6.01102e-21
1.4211e-20
1.66835e-20
2.50465e-20
1.1204e-20
1.39866e-20
3.30198e-21
7.95353e-21
1.39752e-20
2.80211e-21
2.61868e-20
3.55013e-20
4.67182e-21
2.93862e-21
6.20777e-22
2.46689e-21
9.09951e-21
1.74504e-21
1.6093e-20
8.02871e-21
5.02596e-21
5.1208e-20
6.48765e-21
3.24175e-20
1.85364e-21
8.40571e-21
6.82563e-22
6.07808e-21
5.38553e-21
1.25735e-20
1.04572e-20
1.09054e-20
2.0075e-20
4.57715e-21
6.51835e-21
6.46572e-20
1.9428e-20
5.02459e-21
1.0378e-20
2.86508e-20
1.6693e-20
2.07682e-20
2.96252e-20
3.46427e-21
1.14685e-20
3.37802e-21
1.51003e-20
3.22927e-21
1.14969e-20
6.80311e-21
7.71316e-21
4.15311e-21
1.24815e-20
1.06135e-20
5.95155e-22
6.06509e-22
2.72455e-20
3.92095e-21
1.81008e-20
3.55274e-21
7.90465e-21
2.55051e-20
6.21848e-21
2.12509e-22
1.93076e-20
9.53185e-21
6.48342e-21
8.17672e-21
1.58543e-20
6.82841e-21
2.33861e-20
1.52684e-20
6.64115e-21
8.47382e-22
1.36986e-20
1.29295e-20
2.12652e-21
1.2255e-21
2.91316e-20
8.42418e-21
7.09508e-22
3.15298e-21
1.72895e-21
3.41533e-21
1.42153e-20
1.89511e-20
9.69043e-21
2.85111e-22
2.07306e-22
9.66688e-22
3.85034e-20
7.20068e-21
2.27117e-20
1.44803e-21
1.40426e-21
6.97364e-21
2.04196e-20
2.42184e-21
8.63909e-21
1.0279e-21
3.25042e-21
9.8386e-21
1.87224e-20
1.1506e-21
1.0537e-20
1.25713e-20
1.32081e-21
2.57144e-21
9.58032e-21
3.89891e-21
3.48841e-21
9.17282e-21
2.2679e-20
1.30827e-21
6.31959e-21
4.08817e-21
3.22332e-20
1.3139e-20
2.70567e-20
3.19604e-21
1.77856e-21
1.94918e-20
1.11628e-20
6.94628e-21
2.25392e-21
1.38395e-20
1.19091e-20
1.71533e-21
1.88729e-20
2.52131e-21
7.12387e-21
8.31242e-21
1.79015e-20
1.50276e-21
9.26935e-21
1.65885e-20
3.43503e-21
3.51585e-22
1.3886e-20
1.78803e-21
1.2086e-21
2.59092e-21
8.26956e-21
4.43164e-22
5.34574e-21
1.23673e-20
4.16887e-21
8.96896e-21
5.1761e-21
4.83508e-21
9.09334e-21
6.03312e-21
4.86214e-21
1.07766e-20
4.23331e-21
6.68352e-20
4.59663e-21
8.2352e-21
1.4708e-21
5.74141e-21
1.56767e-21
1.42202e-20
2.49555e-21
1.90446e-20
9.1824e-21
6.83485e-21
5.70151e-21
2.95104e-20
1.27522e-20
9.6089e-22
9.97809e-21
3.74089e-20
1.33028e-20
3.52691e-20
1.75353e-20
2.10941e-21
3.51527e-21
2.69327e-21
2.14082e-22
5.63287e-20
6.19912e-21
3.55465e-21
1.82281e-20
6.58021e-21
2.47958e-20
8.8458e-21
2.2536e-21
8.55311e-21
1.41296e-21
2.73981e-20
1.04987e-23
2.1146e-22
5.9241e-21
1.08411e-20
8.56915e-21
1.33457e-20
2.99295e-20
6.91405e-21
1.51854e-20
1.61699e-20
2.86735e-20
1.35896e-20
3.25481e-20
8.21934e-21
1.90179e-21
3.17917e-20
7.02666e-21
3.29213e-20
7.86157e-21
4.30809e-21
8.8955e-21
2.37278e-21
1.31747e-21
2.83119e-20
3.1205e-20
2.75245e-20
7.60515e-21
5.2774e-21
2.08043e-21
1.81336e-20
1.67917e-20
3.31924e-20
3.17648e-22
1.69693e-20
2.30165e-20
2.09292e-20
9.19549e-21
1.22432e-20
2.46173e-21
1.31059e-21
6.62008e-21
1.38886e-20
8.49815e-21
5.3187e-22
2.06818e-21
5.82871e-23
6.2798e-21
1.52416e-20
1.16176e-20
7.97502e-21
2.25793e-20
6.36676e-21
6.36641e-20
5.8351e-22
1.25332e-21
1.91632e-20
3.51131e-20
1.8776e-20
1.32624e-20
4.01111e-21
7.74519e-21
2.05022e-22
2.90918e-21
6.86606e-21
2.85497e-20
1.40864e-20
6.60392e-22
6.89286e-21
1.84753e-21
2.99845e-21
5.59069e-21
1.67147e-21
2.29232e-20
9.98163e-21
2.2747e-20
1.80812e-20
2.75925e-20
6.90762e-21
7.36189e-21
2.72589e-20
7.51073e-21
1.85029e-21
3.03567e-21
1.71509e-21
4.9971e-20
3.36873e-20
3.13159e-21
7.12359e-21
7.81735e-22
5.20083e-22
2.95343e-20
3.43765e-22
1.20243e-20
5.21316e-21
3.65868e-20
1.31592e-20
3.83805e-21
3.41208e-21
5.58599e-21
2.65918e-21
1.04068e-20
1.52441e-20
1.47489e-20
3.73695e-21
4.16505e-21
6.16477e-21
9.32581e-21
1.84015e-22
2.01403e-20
1.62872e-20
3.87249e-21
3.15975e-20
1.68e-20
1.12525e-20
3.0113e-21
1.69283e-20
9.24597e-21
5.94879e-21
2.90077e-21
1.27234e-21
1.81226e-21
2.26411e-20
1.12136e-21
6.14422e-22
4.40801e-20
2.76116e-21
2.4888e-21
2.15395e-21
1.06939e-20
1.42305e-20
3.15642e-20
1.22731e-20
1.03282e-20
9.56818e-23
1.50323e-20
3.63099e-21
8.01399e-21
9.25807e-21
8.94379e-21
9.84091e-21
2.00431e-21
1.55525e-21
5.40824e-21
8.90603e-21
2.36283e-21
1.43108e-21
4.76423e-21
1.57976e-20
2.91361e-21
2.59061e-21
1.2603e-20
1.52471e-20
8.65705e-21
2.17972e-20
3.00561e-21
4.21281e-21
1.24619e-21
5.15975e-23
3.89437e-21
5.65832e-21
9.84245e-21
3.2291e-21
3.50633e-21
1.66136e-20
3.19977e-21
6.28855e-21
1.98735e-21
1.51664e-20
6.55497e-22
7.70662e-21
1.55301e-20
1.07657e-20
2.74801e-20
7.85107e-22
6.40864e-21
3.14861e-20
5.17347e-21
6.293e-21
2.73974e-21
3.47947e-21
2.63948e-20
6.13477e-21
5.26632e-21
6.05437e-21
1.72825e-20
1.86327e-21
2.30352e-20
4.89723e-20
8.58154e-21
5.16271e-21
3.48659e-21
3.60654e-22
1.00906e-20
9.5488e-22
1.06355e-20
5.50673e-22
1.79527e-20
1.8911e-20
1.11367e-20
2.70788e-20
9.66827e-21
3.41609e-20
4.0606e-21
2.09198e-21
1.10581e-20
2.08192e-20
1.09194e-20
8.51485e-21
1.65198e-20
1.0731e-20
1.93884e-20
2.10996e-22
4.53308e-20
2.89227e-20
1.35979e-21
2.03635e-20
1.92184e-20
9.82181e-21
3.99961e-21
1.77689e-20
2.58304e-20
1.77653e-20
1.3907e-20
1.79167e-20
1.86664e-20
3.98721e-20
6.90696e-21
8.78908e-21
5.23738e-20
4.46515e-20
9.69703e-21
6.81458e-21
5.48217e-21
1.29814e-20
1.47055e-21
8.062e-21
1.34404e-21
6.91075e-21
2.26388e-20
6.77629e-21
5.63496e-21
7.97079e-21
9.31629e-21
2.55043e-20
8.34898e-21
3.80846e-21
1.30103e-20
1.40517e-20
2.61688e-20
4.8131e-21
5.15201e-20
2.7991e-20
2.99018e-20
6.80557e-21
8.88955e-21
1.27851e-20
3.55556e-20
1.68381e-20
1.04356e-20
1.40274e-21
2.81749e-20
7.33496e-21
3.78506e-21
1.5442e-20
3.22294e-21
3.70525e-20
3.6444e-20
1.44544e-20
1.25083e-21
2.47607e-21
6.53114e-21
8.12191e-22
3.30561e-20
1.14953e-21
1.23529e-21
1.90617e-20
3.27243e-21
3.01533e-20
3.54088e-20
1.05373e-20
1.13322e-20
7.57129e-21
2.93458e-20
6.66813e-21
3.06193e-21
7.58271e-21
2.4131e-20
3.05226e-21
8.7558e-21
1.79171e-20
2.28369e-20
1.43978e-20
1.54271e-21
4.28694e-21
5.3992e-21
1.39338e-20
1.23306e-20
2.58866e-21
3.7463e-22
3.89308e-21
5.1481e-21
5.41684e-21
3.51335e-21
2.62429e-20
2.68043e-20
5.25048e-21
9.43096e-21
2.37759e-20
1.44872e-20
1.1521e-22
3.01385e-21
3.24235e-20
2.17258e-20
2.92035e-20
6.86812e-21
9.50203e-21
6.80986e-21
5.17764e-20
1.15702e-20
4.33426e-21
5.7445e-22
2.88279e-20
2.04134e-22
1.88144e-20
1.07521e-20
7.76385e-21
3.09536e-20
4.26306e-20
2.29188e-21
1.32947e-20
3.17343e-21
3.60691e-20
4.90314e-21
1.25799e-20
1.16336e-20
9.55258e-21
2.81606e-21
2.60206e-21
3.51284e-21
6.46379e-21
5.11558e-21
5.00312e-21
6.91681e-20
1.76067e-20
1.08656e-20
7.15686e-21
5.7486e-21
6.92265e-21
2.09364e-20
8.59116e-21
1.8436e-20
7.75887e-21
1.46489e-20
4.85565e-21
2.77511e-21
2.48309e-20
4.63324e-20
6.33024e-21
8.15832e-21
2.6478e-20
6.99987e-21
9.05752e-22
1.07002e-20
1.86256e-20
1.04704e-20
2.45492e-20
2.68414e-20
8.8675e-23
3.27893e-21
6.05602e-21
4.58204e-21
1.4637e-20
1.32542e-20
2.25876e-22
4.90726e-22
5.94776e-21
3.11513e-21
5.59101e-21
1.32851e-20
2.27689e-20
4.17299e-20
5.33119e-21
3.87333e-20
1.39634e-21
6.02809e-21
6.75309e-20
1.88858e-21
1.58768e-21
3.2045e-21
4.51679e-20
6.17462e-21
4.07575e-21
1.32512e-20
3.54074e-21
5.59177e-21
1.9339e-20
1.40868e-20
3.56169e-20
1.57175e-20
1.93194e-20
1.73451e-20
9.41292e-21
7.45961e-21
8.96812e-21
9.52126e-21
1.90641e-20
6.62577e-21
2.69348e-21
1.1736e-20
1.94515e-20
3.66866e-21
3.40813e-21
4.31719e-22
5.97782e-21
3.4712e-20
6.15393e-22
1.48551e-20
2.32763e-20
1.21594e-20
6.7824e-21
2.33371e-21
1.35042e-21
1.09778e-20
1.41314e-20
1.77344e-20
3.4074e-22
6.24821e-20
2.02713e-20
1.48937e-20
1.59782e-20
1.69139e-20
5.56003e-21
1.85784e-20
6.51617e-21
4.70898e-22
9.75551e-21
1.30441e-20
4.82658e-21
1.62018e-21
1.98485e-20
5.30726e-21
1.317e-20
4.5879e-21
2.06974e-20
7.99053e-21
1.26716e-20
3.97732e-21
9.19108e-21
1.62531e-20
1.08288e-20
6.0291e-21
1.28693e-20
2.1071e-21
8.49991e-22
2.05884e-21
6.87206e-22
3.64509e-20
3.92281e-21
1.28321e-20
3.4365e-20
2.81229e-21
1.28351e-20
5.53706e-22
1.91968e-21
1.15116e-20
1.4821e-20