/*--------------------------------*- C++ -*----------------------------------*\
  =========                 |
  \\      /  F ield         | OpenFOAM: The Open Source CFD Toolbox
   \\    /   O peration     | Website:  https://openfoam.org
    \\  /    A nd           | Version:  7
     \\/     M anipulation  |
\*---------------------------------------------------------------------------*/
FoamFile
{
    version     2.0;
    format      ascii;
    class       volScalarField;
    location    "0.007";
    object      linearKEMean;
}
// * * * * * * * * * * * * * * * * * * * * * * * * * * * * * * * * * * * * * //

dimensions      [1 -1 -2 0 0 0 0];

internalField   nonuniform List<scalar> 
1000
(
0.645627
0.678851
0.693155
0.719366
0.744465
0.763768
0.772415
0.797606
0.798445
0.817469
0.814217
0.816308
0.821658
0.833196
0.843841
0.862473
0.869055
0.870551
0.904093
0.90488
0.895287
0.919777
0.929296
0.940293
0.93491
0.953797
0.958537
0.964587
0.960872
0.970906
0.9689
0.98643
1.01411
1.02945
1.01597
1.02264
1.01916
1.01825
1.04569
1.07134
1.08842
1.08946
1.07303
1.07731
1.0864
1.08582
1.09402
1.12352
1.10252
1.11386
1.13012
1.14397
1.1426
1.15679
1.1586
1.15554
1.18182
1.17641
1.17388
1.1734
1.18113
1.1913
1.20096
1.20121
1.19013
1.21634
1.2364
1.23621
1.2398
1.24983
1.23839
1.25718
1.24768
1.24976
1.27252
1.27558
1.27078
1.27567
1.28377
1.28619
1.29264
1.29912
1.30417
1.32116
1.3251
1.31906
1.32381
1.32319
1.34636
1.33818
1.31948
1.33742
1.3526
1.37634
1.36267
1.38483
1.3851
1.38646
1.3869
1.39816
1.40202
1.38229
1.395
1.41992
1.42273
1.41642
1.4211
1.41965
1.4261
1.40778
1.42865
1.44285
1.43846
1.42749
1.45294
1.4537
1.45289
1.47409
1.48567
1.48679
1.49121
1.47445
1.47741
1.48029
1.49468
1.47485
1.49726
1.4969
1.50479
1.50318
1.52565
1.51526
1.51523
1.52749
1.51997
1.53417
1.53135
1.53333
1.54337
1.55467
1.5392
1.54967
1.55333
1.56549
1.57021
1.55824
1.57599
1.56633
1.58111
1.57532
1.57879
1.58973
1.57764
1.58803
1.59302
1.59769
1.5804
1.57786
1.59058
1.58263
1.5929
1.59686
1.63339
1.60621
1.60744
1.60887
1.61469
1.60444
1.61397
1.62649
1.60633
1.61145
1.61699
1.63467
1.62725
1.63958
1.65497
1.64543
1.63923
1.6305
1.63001
1.64653
1.66004
1.65432
1.66921
1.66402
1.65968
1.67863
1.63412
1.67337
1.67313
1.66255
1.66577
1.65683
1.66767
1.68481
1.67174
1.68096
1.67887
1.69372
1.68458
1.68897
1.67986
1.69847
1.68376
1.68951
1.68739
1.69007
1.68164
1.68441
1.69583
1.69016
1.6983
1.70007
1.69164
1.6922
1.69229
1.69126
1.70337
1.70758
1.69241
1.69527
1.70318
1.69931
1.71152
1.69348
1.69952
1.6934
1.68552
1.71623
1.70429
1.71632
1.69538
1.71763
1.72652
1.71059
1.71093
1.71032
1.71339
1.72193
1.72023
1.71415
1.70533
1.71319
1.7084
1.72579
1.71632
1.72122
1.72366
1.72309
1.71619
1.71718
1.71234
1.71638
1.72048
1.70954
1.7122
1.7141
1.71876
1.73519
1.72147
1.72315
1.72118
1.71262
1.71373
1.72197
1.73882
1.72631
1.7225
1.7179
1.72417
1.69962
1.70987
1.73825
1.72311
1.71941
1.71469
1.71661
1.71457
1.71093
1.71599
1.72043
1.74151
1.71403
1.71452
1.71621
1.71854
1.72241
1.71374
1.72033
1.70275
1.70894
1.73418
1.73496
1.72601
1.71258
1.72188
1.73817
1.72227
1.7124
1.71264
1.72613
1.71352
1.7213
1.72019
1.72242
1.70223
1.70916
1.70275
1.71698
1.72632
1.71089
1.70135
1.73315
1.73836
1.71453
1.72019
1.7097
1.70304
1.72101
1.72568
1.73509
1.71413
1.71419
1.71388
1.71579
1.71053
1.71809
1.6977
1.69806
1.70748
1.70668
1.7043
1.70782
1.71145
1.72733
1.70527
1.71253
1.71396
1.70199
1.73105
1.72202
1.714
1.72739
1.71956
1.7051
1.72774
1.7277
1.71769
1.71238
1.73949
1.74763
1.73945
1.70142
1.70622
1.71607
1.7278
1.7124
1.67959
1.71338
1.72275
1.71997
1.70624
1.72675
1.71991
1.71703
1.72866
1.72392
1.74802
1.74076
1.7164
1.7085
1.71982
1.71539
1.72084
1.71314
1.6992
1.70411
1.70096
1.7174
1.71631
1.71787
1.72098
1.708
1.71183
1.6993
1.70452
1.72312
1.71647
1.72916
1.70938
1.68949
1.72708
1.71845
1.71073
1.70535
1.70661
1.70463
1.69639
1.71936
1.71738
1.71847
1.7175
1.71152
1.71834
1.71443
1.71177
1.70219
1.71152
1.7056
1.70689
1.70633
1.68675
1.69348
1.69751
1.69795
1.70356
1.71251
1.70729
1.70117
1.71916
1.70626
1.71139
1.71985
1.72863
1.73454
1.70861
1.68858
1.70379
1.71354
1.70433
1.7044
1.69381
1.71309
1.69308
1.70098
1.71298
1.70125
1.70563
1.73324
1.71983
1.71298
1.71947
1.69963
1.71167
1.69865
1.71823
1.70806
1.71143
1.68549
1.67421
1.69026
1.70738
1.69714
1.70449
1.70345
1.71573
1.72238
1.70939
1.71248
1.69862
1.72858
1.71171
1.70374
1.70133
1.6937
1.72519
1.7085
1.71128
1.71514
1.70051
1.72472
1.7193
1.68747
1.70121
1.71333
1.71278
1.71245
1.72509
1.72694
1.69843
1.71024
1.69974
1.70375
1.70301
1.71588
1.71804
1.71605
1.70025
1.70039
1.72777
1.7185
1.72139
1.70382
1.72533
1.699
1.71994
1.70175
1.7123
1.7143
1.70378
1.71596
1.71277
1.69461
1.69889
1.72078
1.7083
1.70398
1.71994
1.69164
1.69693
1.70002
1.71295
1.71017
1.7101
1.70567
1.71212
1.7107
1.70877
1.70168
1.69036
1.72075
1.70348
1.70644
1.69815
1.70402
1.72426
1.71914
1.71699
1.71141
1.71597
1.704
1.7381
1.72255
1.70875
1.7213
1.72273
1.70689
1.7277
1.71426
1.70304
1.71434
1.71503
1.71253
1.70528
1.71872
1.70964
1.73064
1.68994
1.71181
1.72111
1.7279
1.72857
1.72008
1.71571
1.70943
1.70845
1.71215
1.70787
1.71449
1.72152
1.7287
1.72484
1.72929
1.70338
1.71766
1.71162
1.71175
1.73513
1.72138
1.72032
1.72667
1.71072
1.72924
1.71967
1.72085
1.72849
1.73141
1.73901
1.74587
1.71128
1.72258
1.7132
1.7254
1.71108
1.71377
1.73565
1.72781
1.72181
1.71775
1.73095
1.71641
1.71585
1.73473
1.71262
1.71057
1.71118
1.71708
1.73558
1.72409
1.70637
1.70575
1.71573
1.73055
1.72215
1.72641
1.72147
1.72471
1.71856
1.73254
1.71399
1.73628
1.71633
1.72319
1.73145
1.73781
1.73037
1.72559
1.70488
1.71792
1.74074
1.73048
1.72889
1.72481
1.71009
1.70243
1.69978
1.75447
1.73361
1.7422
1.72712
1.72642
1.72179
1.72826
1.74159
1.73292
1.73285
1.70703
1.72703
1.73791
1.7377
1.71833
1.72524
1.73421
1.75345
1.74169
1.74722
1.74494
1.7365
1.72179
1.72018
1.72058
1.72564
1.73223
1.75343
1.74511
1.72154
1.7521
1.75324
1.72933
1.72625
1.73466
1.73651
1.72939
1.73525
1.73263
1.72185
1.73451
1.731
1.73188
1.71944
1.72976
1.72872
1.71838
1.72758
1.73782
1.72406
1.7551
1.73131
1.73405
1.74603
1.74646
1.76198
1.73008
1.74144
1.74919
1.74367
1.76573
1.75049
1.73202
1.74746
1.74328
1.72054
1.73364
1.74182
1.73812
1.74182
1.72939
1.73352
1.7418
1.74129
1.74352
1.7505
1.75944
1.7471
1.74405
1.72213
1.7368
1.74659
1.74937
1.73723
1.73154
1.74065
1.73268
1.73856
1.73513
1.74921
1.73828
1.75841
1.75977
1.7311
1.74979
1.74453
1.77382
1.75838
1.75427
1.74385
1.74255
1.73411
1.73591
1.76239
1.75431
1.74861
1.73132
1.72292
1.74716
1.74534
1.76393
1.75766
1.75085
1.74602
1.73377
1.75816
1.76212
1.74732
1.74415
1.72714
1.74932
1.73711
1.74283
1.73716
1.74826
1.75165
1.73174
1.73847
1.76276
1.73897
1.73446
1.7552
1.75446
1.73275
1.74551
1.74418
1.74925
1.73568
1.73786
1.73485
1.72889
1.73557
1.75839
1.74519
1.72732
1.73731
1.72492
1.71168
1.73462
1.7241
1.72773
1.6983
1.72323
1.7404
1.72712
1.71432
1.7331
1.72332
1.71557
1.71042
1.71287
1.69803
1.73078
1.70526
1.70263
1.70579
1.69766
1.72792
1.71349
1.71811
1.71283
1.70121
1.69882
1.69058
1.70765
1.68004
1.69957
1.69475
1.67
1.66445
1.67836
1.68258
1.68865
1.68455
1.66243
1.66948
1.67059
1.65437
1.63777
1.65098
1.66299
1.66012
1.64302
1.61917
1.66674
1.65237
1.65411
1.64389
1.64547
1.63022
1.60851
1.62102
1.62871
1.62023
1.61541
1.63194
1.62716
1.61167
1.60983
1.61532
1.6184
1.62169
1.63862
1.61067
1.60998
1.58803
1.59038
1.60729
1.59342
1.5914
1.59946
1.58879
1.56873
1.56613
1.55868
1.56813
1.54793
1.5579
1.57006
1.54084
1.57468
1.5643
1.53302
1.54853
1.5466
1.55812
1.53956
1.52992
1.52612
1.51402
1.51951
1.51352
1.49964
1.51037
1.51062
1.50887
1.50315
1.51506
1.48869
1.49891
1.47788
1.46327
1.47399
1.47729
1.47725
1.45817
1.45122
1.44628
1.45515
1.45074
1.45717
1.43952
1.43856
1.4376
1.41633
1.43952
1.43652
1.40988
1.39515
1.39819
1.40944
1.38938
1.39399
1.3817
1.37905
1.35753
1.36153
1.35519
1.35156
1.33843
1.35842
1.36228
1.34615
1.34964
1.34866
1.33673
1.33643
1.32597
1.30246
1.32096
1.30859
1.31014
1.30648
1.29315
1.27809
1.27154
1.28359
1.28277
1.27227
1.2577
1.27628
1.2661
1.24613
1.24401
1.23771
1.22202
1.21063
1.20427
1.20292
1.19721
1.19584
1.20931
1.18099
1.17854
1.1838
1.16231
1.15862
1.16976
1.15944
1.15107
1.14332
1.12873
1.1418
1.13113
1.1254
1.12445
1.09342
1.08515
1.07109
1.07253
1.06274
1.04445
1.03865
1.03981
1.03551
1.03237
1.02883
1.01743
1.02059
0.99817
0.986085
0.986317
0.984763
0.993769
0.961502
0.940189
0.941509
0.944506
0.935738
0.932964
0.917721
0.899128
0.897529
0.884794
0.881428
0.873073
0.869503
0.860203
0.85504
0.831321
0.810854
0.80059
0.807526
0.79249
0.782894
0.763471
0.742851
0.718209
0.705148
0.695831
0.686363
0.660825
0.637663
)
;

boundaryField
{
    sides
    {
        type            calculated;
        value           nonuniform List<scalar> 2(0.637663 0.645627);
    }
    empty
    {
        type            empty;
    }
}


// ************************************************************************* //
