/*--------------------------------*- C++ -*----------------------------------*\
  =========                 |
  \\      /  F ield         | OpenFOAM: The Open Source CFD Toolbox
   \\    /   O peration     | Website:  https://openfoam.org
    \\  /    A nd           | Version:  7
     \\/     M anipulation  |
\*---------------------------------------------------------------------------*/
FoamFile
{
    version     2.0;
    format      ascii;
    class       volScalarField;
    location    "0.007";
    object      linearKE;
}
// * * * * * * * * * * * * * * * * * * * * * * * * * * * * * * * * * * * * * //

dimensions      [1 -1 -2 0 0 0 0];

internalField   nonuniform List<scalar> 
1000
(
0.754688
0.579991
0.619568
0.665238
0.766282
0.830665
0.739268
0.671099
0.740827
0.484901
0.607325
1.01234
0.766433
0.856399
0.648926
0.815849
0.660265
0.63794
0.779515
0.693073
0.933237
0.781797
0.818699
0.830667
0.737719
0.793543
0.737294
0.946329
0.496404
0.688653
0.759555
0.575957
0.892859
0.849451
0.696114
0.716214
0.731201
1.02996
0.872221
0.731625
0.8195
0.778527
0.78242
0.901577
0.7787
0.795946
1.00964
0.63216
0.753444
0.743579
0.721551
0.617489
0.838251
0.945452
0.872682
1.01968
0.853787
0.527822
1.10529
0.716383
0.853801
0.862338
0.697559
0.925083
0.957522
0.749944
0.855132
0.941035
0.924613
0.888675
0.63059
0.830771
0.709091
0.890433
0.984649
1.01447
0.902302
0.665548
0.77857
0.739381
0.703635
0.916894
0.828441
0.834527
1.0748
0.720822
1.07771
1.08381
0.847907
0.836922
0.996174
0.650091
0.995386
0.845995
0.959781
0.966947
0.999387
1.08016
1.16614
0.948835
1.16973
1.10081
0.778999
0.997535
1.06546
0.73053
0.815777
0.926338
0.831165
0.821701
0.792473
0.942569
0.962249
1.06164
1.13349
1.08969
1.15125
0.826074
0.87912
0.782541
1.02879
1.05005
1.02415
0.980911
0.925673
1.07494
1.03827
1.10504
1.29142
1.15046
1.11523
1.43442
0.860366
0.99536
1.15646
1.32
1.03118
0.959183
1.16298
1.10696
1.10599
0.882055
1.18236
0.782841
1.27867
1.20917
1.1575
1.01901
1.15491
0.973978
1.12914
1.04611
1.07179
1.20391
1.38042
1.13853
1.33388
1.17756
1.42009
0.928845
1.16253
1.12274
1.02232
0.929514
1.1589
1.20221
1.32686
1.20712
1.12149
1.31183
1.58556
0.945009
1.24605
1.30094
1.1374
1.10443
1.76889
1.11032
1.23396
1.16438
1.43771
1.27013
1.53315
1.15205
1.20459
1.39218
1.11106
1.23538
1.26731
1.29243
1.27653
1.59531
1.25306
1.11728
1.56905
1.68805
1.4892
1.48112
1.20959
1.2011
1.41618
1.33153
1.20444
1.32945
1.5084
1.72332
1.21448
1.19738
1.13843
1.74237
1.4718
1.33512
1.42726
1.58318
1.4156
1.4072
1.56135
1.39692
1.22225
1.5215
1.14118
1.24196
1.30045
1.58483
1.71408
1.45513
1.60654
1.76023
1.28343
1.45118
1.56952
1.40982
1.24271
1.53051
1.90699
1.54762
1.50452
1.34709
1.27971
1.64014
1.48949
1.95275
1.70074
1.59908
1.23205
1.5849
1.56092
1.81468
1.93826
1.7418
1.5265
1.67746
2.16359
1.72209
1.38454
1.47354
1.61414
1.42688
1.7396
1.90415
2.27472
1.52508
1.65748
1.42358
1.58666
1.74599
1.56384
1.7274
1.70529
1.95551
2.11891
1.79094
1.72416
1.77194
1.78483
1.82893
1.62095
2.06789
1.54386
1.9481
1.77672
1.42724
1.9723
1.68765
1.647
1.66183
1.95031
1.26576
1.48591
1.65886
1.66839
1.83505
1.68566
1.82707
2.00439
2.10078
2.23901
1.54742
1.61545
1.69275
1.60812
1.8028
1.73714
1.54461
2.09283
1.73754
1.82272
1.21474
1.71292
1.3247
1.77076
1.73381
1.85311
2.09498
1.36853
1.72
1.4847
1.69032
1.65469
1.60477
1.52215
1.55743
1.65296
1.77236
1.5491
1.64938
1.4832
1.7709
1.58153
1.61096
1.88684
1.51438
1.55896
1.95517
1.37857
1.72884
1.42877
1.82724
2.01097
1.60659
1.96795
1.28677
1.77224
1.88224
1.87267
1.7959
1.60754
1.40088
1.4173
1.75873
1.60069
1.69116
1.84781
1.76534
1.42754
1.58557
1.91397
1.78122
1.85411
1.92713
1.79645
1.75869
1.89206
1.58986
2.23603
1.42191
1.79722
1.7908
1.75555
1.52331
1.80525
1.74159
1.92822
1.67528
2.0338
1.70516
1.83665
1.90061
1.47673
1.29881
1.63334
1.50523
1.63455
1.58637
1.59249
1.75819
1.44289
1.74943
1.70846
1.52755
1.71833
2.00725
1.5484
1.59068
1.57161
1.77049
1.69486
1.66932
1.48852
1.72202
1.65484
2.05614
1.62588
1.66788
1.77072
1.50058
1.96491
2.19523
1.58511
1.62902
1.6932
2.09417
1.63629
1.7763
1.44003
1.50465
1.84239
1.55937
2.02784
1.77344
1.70552
1.87264
1.6115
1.87223
1.89046
1.56876
1.92359
1.52499
2.04918
1.58727
1.81067
1.89122
1.46222
1.84507
1.88576
1.68444
1.52441
1.81903
2.00916
1.83518
2.01154
1.78066
1.5113
1.79456
1.48026
1.85018
1.76745
1.68222
1.58173
2.25371
1.81284
1.4662
1.54974
1.8149
1.63002
1.3336
1.35525
1.63572
1.92557
1.45931
1.86524
1.86334
1.67826
2.14246
2.07061
1.55078
1.87867
1.41509
1.43599
1.75047
1.63384
1.65365
1.75578
1.5114
1.19133
1.55086
1.76032
1.93898
1.72678
1.71653
1.72451
1.78002
1.53842
2.08022
1.56788
1.99552
1.61068
1.5361
1.48285
1.58443
2.14413
2.09201
1.95601
1.57373
1.82063
1.96703
1.82564
1.44625
1.86834
1.88251
1.42286
1.5141
1.62881
1.9907
1.8923
2.12317
2.16256
2.21538
1.86407
1.46231
1.71552
1.65089
1.84761
1.82107
1.34683
1.44453
1.95486
1.47671
1.68681
1.63643
1.76047
1.7928
1.47139
1.70861
1.6511
1.71928
1.7467
1.89161
1.69317
1.46328
1.55375
1.99871
2.19653
1.57239
1.76802
1.72488
1.51022
1.84968
1.92413
1.5406
1.63405
2.28095
1.79642
2.27159
1.6671
1.84789
1.68944
1.84569
1.65133
2.15209
1.88899
1.76427
1.83186
1.80068
1.44707
1.96036
1.48531
1.57581
1.69285
1.57073
1.46554
2.38003
1.89705
1.67227
1.59742
1.84985
1.84588
1.89913
1.76497
1.45775
2.01774
1.45125
1.73322
1.52751
1.72492
1.53485
2.0902
1.88146
1.6124
2.2383
1.42298
2.00637
1.2432
1.49269
1.89938
1.54115
1.8239
1.84742
1.64636
2.03947
2.02242
1.45995
1.60196
1.91683
1.8514
1.41435
1.45685
1.8971
1.72881
1.3984
1.3543
1.76286
1.56452
1.6333
1.79407
1.85462
2.09639
1.61868
1.69826
1.97752
1.51018
1.62784
2.01125
1.41848
1.43497
1.79185
1.71982
1.85038
1.70135
1.8347
1.60355
2.08778
1.93057
1.83384
1.45079
1.49511
2.09311
1.78359
1.47574
2.17034
1.75328
1.97266
1.34093
1.47298
1.86307
1.46671
1.78424
1.41628
1.48132
1.88416
1.69201
2.00448
1.63699
1.6801
1.63384
1.55221
1.80293
1.44556
1.99393
1.98747
1.97981
1.6128
1.53406
1.41846
1.88552
1.72546
1.65641
1.86847
1.84006
1.79772
1.92027
1.75734
1.4604
1.55481
1.84896
1.73439
1.49112
1.5871
1.68349
1.78214
1.55142
1.78609
1.62154
1.65745
1.79006
1.90293
1.7939
2.11555
1.52886
1.60999
1.83251
1.74391
2.05577
1.75186
1.82143
1.84741
1.83825
1.79734
1.66658
1.85958
1.73694
1.51614
2.11726
1.78077
1.87716
1.52527
2.08278
1.65676
1.83157
1.76507
1.73967
1.70364
1.6307
1.45201
2.02858
1.81455
1.54479
1.87868
1.77618
1.55171
1.36002
1.88293
1.74316
1.85157
1.88932
1.6343
1.79062
1.54947
1.74695
1.54044
1.79825
1.61641
1.91656
1.51746
1.78875
1.55085
1.79396
1.75185
1.35977
1.35621
1.68689
1.65779
1.81319
1.43442
1.70466
1.59728
1.59566
1.62509
2.03464
1.69348
1.38424
1.6428
2.12629
1.81555
1.53605
1.9187
2.09964
1.48565
1.64778
1.63462
1.43416
1.34468
1.39618
1.9661
1.424
1.39841
1.71294
1.50145
1.91545
1.86289
1.45382
1.23378
1.47221
1.30047
1.63332
1.36943
1.69611
1.70306
1.41109
1.39986
1.63965
1.69042
1.55845
1.66442
1.75026
1.76662
1.32927
1.77852
1.53316
1.80208
1.39823
1.7983
1.61921
1.15437
1.3513
1.62324
1.64424
1.51152
1.50568
1.61234
1.63796
1.48397
1.33477
1.32751
1.85704
1.36073
1.34339
1.61322
1.36155
1.25184
1.25361
1.29067
1.36933
1.49796
1.50444
1.75915
1.19905
1.42145
1.21151
0.9864
1.40392
1.16495
1.22813
1.26565
1.0706
1.31298
1.17746
1.56565
1.42741
1.08043
1.31064
0.974006
1.43726
1.02308
1.30335
1.1668
1.4086
1.36378
1.37549
1.1188
0.922265
1.16788
1.13928
1.39409
1.32218
0.926914
0.904297
1.04206
1.26171
1.29627
1.19733
1.36427
0.979434
1.63512
1.14845
1.12742
1.02052
1.12214
0.904935
1.37712
1.36704
0.931467
1.21185
1.24895
1.15314
1.04621
1.38827
1.09153
0.711059
1.21785
0.989939
1.16051
1.11179
1.22047
0.852881
0.95634
1.07111
1.26522
1.12492
1.00456
0.867521
1.08103
0.988065
0.758371
1.05198
0.955777
0.953243
0.968228
0.931504
1.04394
1.03356
0.874176
0.939697
0.89101
1.10512
1.20207
0.954946
1.2411
0.928457
1.24835
0.915583
0.953728
1.1617
0.880045
0.881389
0.913091
0.552582
1.05601
1.03862
0.995758
0.888413
1.04452
0.953474
0.930451
0.936648
0.795366
1.10999
1.07076
1.11562
0.728434
0.967999
0.740471
0.833169
1.00726
1.15301
0.983669
0.975754
0.866497
0.890249
1.00703
1.00007
1.06936
0.742069
0.998314
0.661807
1.03106
0.58463
0.81761
1.2556
0.714707
0.830886
0.802563
0.778519
0.826257
1.21885
0.930881
0.734118
1.03368
1.0187
0.766733
0.732108
0.59709
0.931966
0.831198
0.766276
0.748516
0.84097
0.973143
0.916459
0.951282
0.873669
0.867152
0.835798
1.00292
0.84726
0.715832
0.624222
0.616284
0.861352
0.81182
0.96651
0.584166
0.83301
0.985396
0.604619
0.546841
0.537614
0.810253
0.918593
0.678853
0.791413
0.844017
0.889043
0.665754
0.663869
0.681263
0.828527
0.760058
0.67961
0.566604
0.769215
0.841099
0.702437
0.614898
0.864027
0.740472
0.753818
0.642606
0.693446
0.703728
0.584405
0.70927
0.62556
0.625435
0.418704
0.904322
0.729545
0.608861
0.581663
0.56244
)
;

boundaryField
{
    sides
    {
        type            zeroGradient;
    }
    empty
    {
        type            empty;
    }
}


// ************************************************************************* //
