/*--------------------------------*- C++ -*----------------------------------*\
  =========                 |
  \\      /  F ield         | OpenFOAM: The Open Source CFD Toolbox
   \\    /   O peration     | Website:  https://openfoam.org
    \\  /    A nd           | Version:  7
     \\/     M anipulation  |
\*---------------------------------------------------------------------------*/
FoamFile
{
    version     2.0;
    format      ascii;
    class       volVectorField;
    location    "0.007";
    object      momentum;
}
// * * * * * * * * * * * * * * * * * * * * * * * * * * * * * * * * * * * * * //

dimensions      [1 -2 -1 0 0 0 0];

internalField   nonuniform List<vector> 
1000
(
(-0.00171951 -9.11401e-05 -5.82647e-05)
(-0.00137724 0.000105949 -0.000381614)
(-0.00170944 0.000141821 0.000103621)
(-0.0015553 0.000240257 5.69678e-05)
(-0.00166372 -0.000117649 0.000382447)
(-0.00166222 -0.000156981 1.68222e-05)
(-0.00177239 -0.000251385 -0.000257097)
(-0.00118544 0.000250336 0.000136458)
(-0.00159976 -0.000118636 -0.000486271)
(-0.00103431 0.000256777 -0.000191847)
(-0.00142271 -7.05033e-05 -0.000307329)
(-0.00234275 0.000397942 5.27689e-05)
(-0.00140831 3.95452e-05 0.000293087)
(-0.00168356 8.42897e-05 0.000361853)
(-0.00151417 -0.00025155 0.000107446)
(-0.00169409 -0.000178301 0.000118049)
(-0.00142842 9.96038e-05 -4.93615e-05)
(-0.00144133 0.000264459 -0.000122066)
(-0.00159351 0.000348179 -0.000206718)
(-0.00147136 -0.00011482 1.88476e-05)
(-0.00173251 -0.000239558 0.000389504)
(-0.00140467 -6.06851e-05 0.000137131)
(-0.00159601 -0.000199943 -0.000280571)
(-0.00213054 -2.03195e-06 -0.0003056)
(-0.00160706 -4.21295e-05 0.000152286)
(-0.00186844 0.000231962 -0.000254535)
(-0.00139121 -1.09186e-05 -2.78735e-05)
(-0.00179895 6.62233e-05 4.80159e-05)
(-0.00126983 0.000137587 0.000324282)
(-0.00126598 -0.000283134 0.000245161)
(-0.00165176 0.000447911 0.000261136)
(-0.00113018 -6.47044e-05 0.000171105)
(-0.00146171 -4.871e-05 -5.42748e-05)
(-0.00160137 -0.000167458 -7.20852e-05)
(-0.00122072 0.000283993 0.000165963)
(-0.00111551 0.000625136 -0.000197539)
(-0.00121042 -9.15043e-05 0.0001478)
(-0.0020018 0.000253639 2.5452e-05)
(-0.00175367 0.000276046 0.000147236)
(-0.00159065 -0.000192765 0.000236993)
(-0.00164912 7.68553e-05 2.30974e-06)
(-0.0015686 -0.000227865 -0.000224325)
(-0.00142386 -8.29403e-06 -0.000281995)
(-0.00152656 4.46792e-05 -5.79633e-05)
(-0.00139006 1.228e-05 -0.000391431)
(-0.00168085 0.000186269 0.000167888)
(-0.00197201 -4.20505e-05 0.00035585)
(-0.00154338 3.76028e-05 -0.00036975)
(-0.00124179 -0.000130023 -0.000369507)
(-0.00153143 -2.18953e-05 0.000268064)
(-0.00155919 -7.01661e-05 -3.486e-05)
(-0.000907883 0.000173131 -6.94305e-05)
(-0.00141453 0.000103599 -0.000162849)
(-0.00147189 -0.000197379 0.000162861)
(-0.00166055 0.000114231 -0.00048804)
(-0.00147689 -0.00048694 -0.000193603)
(-0.00150477 0.000416979 0.000144232)
(-0.000927641 -7.41448e-05 0.000201583)
(-0.00240158 -0.000168134 0.000210676)
(-0.00107333 3.9744e-05 -0.000235289)
(-0.00145558 -0.000230201 0.000248873)
(-0.0012996 -0.000185307 0.000438837)
(-0.00121721 -4.01329e-05 -0.000145896)
(-0.00147008 0.000493219 0.000125023)
(-0.00152517 -0.000115632 0.00035078)
(-0.00111236 0.000150202 0.000232973)
(-0.0013676 0.00011272 -0.000195444)
(-0.00152413 -7.09635e-05 6.09849e-05)
(-0.00166137 -0.000155571 -0.000213275)
(-0.00126214 -7.34755e-05 2.91787e-05)
(-0.00119863 -0.000322827 0.000246509)
(-0.00126024 8.46342e-05 -0.000243614)
(-0.00153176 -0.000475604 0.000250921)
(-0.000987642 -0.000214109 -0.000194849)
(-0.0015056 0.000327585 -0.000282891)
(-0.00215421 0.00030208 -0.000330557)
(-0.0012878 -0.00045463 0.000141892)
(-0.000825914 0.000136906 -0.000331827)
(-0.00141183 -0.000317553 0.000428985)
(-0.000776164 2.84204e-05 -0.000129348)
(-0.000766179 -0.000144459 -0.00013751)
(-0.00158747 3.90651e-05 -5.22209e-05)
(-0.00141806 -0.000315607 -8.0613e-05)
(-0.00121758 4.42581e-06 0.000178888)
(-0.00196005 -0.00064848 7.30013e-05)
(-0.000950286 -0.000347752 -0.000206373)
(-0.00163501 0.000233612 7.5806e-05)
(-0.0019112 8.37078e-06 -0.000440771)
(-0.00131492 0.000298194 7.52306e-05)
(-0.00145905 -0.000119472 -0.000287255)
(-0.00172127 -0.000201767 -0.000265299)
(-0.00079868 0.0001463 -4.96581e-05)
(-0.00129582 2.93751e-05 -3.17144e-05)
(-0.000897166 -0.000285123 -5.87549e-05)
(-0.00161855 -8.6495e-06 3.01284e-05)
(-0.00171587 -1.69882e-05 -0.000101248)
(-0.001602 -7.68507e-05 -0.000119902)
(-0.0018183 -0.000174508 -0.000197152)
(-0.00148788 5.85917e-05 0.000438574)
(-0.0012236 0.000185177 2.4912e-06)
(-0.00163303 0.00013178 -0.00051405)
(-0.00174414 -0.000238869 0.000213284)
(-0.0011122 -0.000275953 -3.00661e-05)
(-0.00131897 8.45955e-05 0.00047475)
(-0.00135519 5.69306e-05 -0.000446753)
(-0.000496433 -5.48895e-05 0.000121636)
(-0.000766708 5.29623e-05 0.000112314)
(-0.00145326 0.000121562 8.13228e-05)
(-0.000878175 -0.000138404 0.000101579)
(-0.000991282 -0.000166893 -0.000412861)
(-0.0010967 5.00062e-05 -8.97761e-05)
(-0.00104222 -0.000407606 -0.000288899)
(-0.00148717 5.9146e-05 -1.56067e-05)
(-0.00138346 -0.000370185 3.39509e-05)
(-0.00153535 0.000573916 0.000105094)
(-0.00156042 0.000408142 0.00041175)
(-0.00137956 -0.000240643 0.000312764)
(-0.000954854 0.000468352 -6.21246e-05)
(-0.000645645 -0.00016818 4.18674e-05)
(-0.000823583 -0.000389415 -0.00024952)
(-0.00136118 7.78796e-05 0.000189087)
(-0.00160998 -8.22435e-05 0.000239557)
(-0.00114958 -0.000155221 0.000393144)
(-0.0011908 -0.000251163 0.000163833)
(-0.00124188 0.000188386 0.000173804)
(-0.00102173 1.45777e-06 -0.000389529)
(-0.000996141 0.000367154 -1.26851e-05)
(-0.000918233 -0.000569969 -9.75478e-05)
(-0.00204401 -0.000166683 7.18833e-05)
(-0.00146576 -0.000192039 0.000186362)
(-0.0014396 -0.000128545 3.18526e-05)
(-0.00193621 0.000160809 0.000434727)
(-0.000847074 -0.000157535 -3.66704e-05)
(-0.00105211 1.98057e-05 2.4678e-05)
(-0.00129517 -1.00547e-05 0.000125308)
(-0.00154386 1.17177e-05 0.000850974)
(-0.00109396 -0.000171426 0.000514385)
(-0.00108756 -0.000246497 0.000179319)
(-0.000968186 -0.000134938 -5.12042e-05)
(-0.00124291 -2.85188e-05 -0.000468672)
(-0.00163555 2.03545e-05 -0.000246568)
(-0.000972182 0.000248198 2.55191e-05)
(-0.00146221 0.000485074 -0.000457143)
(-0.00106941 -0.000327053 -0.000159164)
(-0.00145146 0.000323218 0.000233011)
(-0.00127458 -0.000467868 1.80343e-06)
(-0.00150774 -0.000113476 8.80205e-05)
(-0.0011622 -0.000303942 -0.000103731)
(-0.00109889 -0.000284098 -2.2661e-06)
(-0.00128709 -0.000202061 0.000153032)
(-0.000704337 -0.00024729 -0.000103635)
(-0.0014717 0.000141148 -0.000108979)
(-0.00123713 6.80709e-05 -0.000187847)
(-0.00115193 -0.000159693 0.000152962)
(-0.00139727 0.000588116 0.000145684)
(-0.00119854 0.000235729 -8.9804e-05)
(-0.000463079 -0.000180345 0.000722717)
(-0.000481872 0.000344134 -0.000101801)
(-0.00104392 -4.02262e-05 -0.000136714)
(-0.000740771 -0.000329078 0.000264072)
(-0.00132446 0.000173257 0.00030859)
(-0.000748845 -0.000716927 9.16705e-05)
(-0.000476751 3.70754e-05 -6.45879e-05)
(-0.000903023 5.67907e-05 -6.34725e-05)
(-0.00101173 -0.000144331 0.00063936)
(-0.000770456 -0.000110929 0.000230387)
(-0.000396574 -0.00086251 -0.00030798)
(-0.00116513 0.0001402 0.000145681)
(-0.000905899 0.000189918 3.23243e-05)
(-0.00117772 0.000176433 -0.000341877)
(-0.000971252 2.94973e-05 -0.000749178)
(-0.000662518 0.000193152 1.63288e-06)
(-0.000875048 0.000187652 0.000556829)
(-0.000622285 -6.08684e-05 0.000208139)
(-0.000564408 0.000257623 0.000653192)
(-0.000975195 -0.000174712 0.000426917)
(-0.00171937 -0.000765341 0.000121119)
(-0.000248497 -1.2656e-05 -0.00014985)
(-0.00114297 0.000203706 0.000121455)
(-0.000874782 0.000102074 0.000568171)
(-0.00134324 -0.000127994 2.17686e-05)
(-0.000665873 -0.000135217 -0.000319783)
(-0.000952385 -0.000192206 0.000466288)
(-0.000943202 -0.000369041 0.000502484)
(-0.000582833 -6.35202e-05 0.000304971)
(-0.00111263 -8.52052e-05 -0.000221171)
(-0.000522603 -0.000225867 0.000231633)
(-0.000358228 5.42268e-05 -2.86279e-07)
(-0.000797936 0.00016871 0.00010495)
(-0.000534908 0.000577403 0.000155052)
(-0.000736495 0.000291466 -8.58936e-05)
(-0.000581979 0.000702673 4.27196e-05)
(-0.000828691 0.00020802 0.000439889)
(0.000148125 5.99931e-05 -0.000241737)
(-0.00131726 0.000502259 0.000172263)
(-0.000559908 -0.000196254 5.62165e-05)
(-0.00120899 -1.31387e-05 -0.000442067)
(-0.00037414 -0.000198082 0.000292644)
(-0.000360453 0.000557075 0.000475835)
(-0.000549913 -0.000142624 0.000279585)
(-0.000921371 -0.000196327 -0.000355335)
(-0.000794363 -0.00054474 -0.00024119)
(-2.94745e-06 8.69462e-05 -0.000572607)
(-0.00072281 -0.000272106 -0.000523993)
(-0.000532696 7.81023e-05 8.43241e-05)
(-0.000950364 0.000158419 -9.814e-05)
(-0.000615726 0.000498121 0.000364684)
(-0.000491787 0.000119862 4.79117e-05)
(-0.000384941 -0.000487327 0.000288259)
(-0.000623235 0.000267588 -0.000717205)
(-0.000990627 -0.000393614 -0.000313177)
(-0.000656368 -0.000111687 3.22441e-05)
(0.000218941 0.000412812 -8.58862e-05)
(-0.000754967 3.7618e-05 0.000218709)
(-0.000387742 0.000352097 -6.15944e-08)
(-0.000434807 0.000236047 0.000290889)
(-0.000660321 -0.000132877 0.000373848)
(-5.9091e-05 -0.000627397 0.000244483)
(-0.000475437 0.000314762 -0.000422713)
(-0.000653442 -0.00023081 0.000157723)
(-0.000296724 -0.000505786 0.00054417)
(9.80206e-05 -0.000252807 0.000315493)
(-0.000240143 6.31897e-05 -0.000299028)
(9.56977e-05 0.000157647 -7.88191e-05)
(-0.000522432 0.000179075 6.6305e-05)
(1.80105e-06 0.000678296 0.00044807)
(-4.74523e-05 0.00020728 -0.000466627)
(-0.000777776 0.000147933 -0.000729961)
(-0.000372995 0.000483608 0.000287578)
(-0.000588321 0.00014281 9.70611e-05)
(-0.00126962 -3.26638e-05 0.000277169)
(-0.000453633 -0.000326063 0.000326716)
(-8.54267e-05 -2.41593e-05 0.000707479)
(-8.7099e-05 -0.000232652 -0.000464294)
(-0.000968478 -0.000627486 0.000111961)
(-0.000335013 -1.20247e-05 2.15536e-05)
(-0.000650433 4.20458e-05 -0.00033884)
(-2.70484e-05 0.000150509 0.000219747)
(3.09993e-05 0.000521162 -0.000492322)
(-0.000106713 0.000313898 -0.000159093)
(-0.000330451 6.58344e-05 -9.06116e-05)
(0.000644561 -0.000740891 0.000553102)
(-0.000139527 0.000115225 6.85374e-05)
(-0.000350751 -0.000158993 0.000150848)
(-0.000392068 0.000318774 -0.00010695)
(-0.000162539 3.38981e-05 0.000414896)
(0.000499716 0.000336712 -7.2901e-05)
(-0.000388781 -2.35746e-05 -0.000415485)
(-0.000439389 -0.000199309 -5.53208e-05)
(-0.000294576 -0.000288944 -0.000127662)
(0.000191048 0.000170677 -0.000229997)
(0.00024743 -0.000404665 -0.000262323)
(-0.000787359 0.000157944 0.000661907)
(0.00040086 0.000257979 0.000259854)
(0.000120353 -0.000145118 0.000837654)
(0.000832846 -0.000381551 -1.57263e-05)
(0.000117528 -0.00023312 0.000714595)
(-0.000198522 -9.76365e-05 -0.000825216)
(-0.000106407 0.000212877 -0.000566307)
(5.81368e-05 -0.000205405 -0.000136627)
(0.000597039 -6.04478e-05 0.000133502)
(-0.000335583 -0.000109007 2.83733e-05)
(-0.000182523 -0.000392583 -0.000130003)
(-0.000497191 -8.25594e-06 -0.000755754)
(-0.000164586 0.00040853 -0.000582256)
(0.000515288 0.000109366 -0.000574071)
(3.87661e-05 -0.00029827 1.80001e-05)
(5.00166e-05 0.000171289 -2.32852e-05)
(0.000199652 -0.000220481 0.00107975)
(-0.000236234 -0.000142109 0.000158583)
(-8.07249e-05 0.000341726 0.000143185)
(-0.000237959 6.36266e-05 -0.00045903)
(-0.000851522 -0.000299478 -0.0004062)
(-2.43773e-05 -0.000253647 0.000343655)
(-0.000204697 -0.0003435 -0.000355294)
(-0.000126823 -0.000123534 0.000397753)
(0.000550433 0.000486585 -0.000151613)
(0.000109249 0.00070823 -0.000686916)
(-5.46349e-05 -0.000660909 -0.000125224)
(-5.02176e-05 -0.000542204 0.000481074)
(-0.000155136 -0.000221264 -0.000605167)
(-0.000535641 -5.93392e-05 0.000305507)
(-4.22127e-05 0.000535387 0.000193008)
(-0.000524278 -0.00103497 0.000657283)
(0.000364752 -0.00014776 0.000615517)
(-0.000182226 0.000132568 0.000326297)
(0.000595046 0.000341892 7.2947e-05)
(0.000515434 -0.000221118 -0.000202735)
(8.3898e-05 -0.000268861 -0.000157936)
(5.02056e-05 0.000101423 2.9513e-05)
(-0.000101505 -0.000152944 -0.000201782)
(0.000485612 -0.000294825 -0.00014034)
(0.000617064 0.000217039 -0.000283798)
(0.000228034 0.000330777 -7.30706e-06)
(0.000387643 0.000178215 -9.91768e-05)
(-0.000155747 -0.000445143 -0.000326517)
(-4.41043e-05 -0.000350456 -0.000124269)
(-0.000267856 -0.00018682 -0.000474668)
(0.00095222 0.000578388 0.0003841)
(-0.000655757 -0.000340344 -7.85891e-06)
(8.97189e-05 -0.000668382 0.00106569)
(-0.000327428 0.000402154 9.18608e-05)
(-0.000108909 -0.000437394 -0.000743249)
(-8.06435e-05 0.00012731 0.000544391)
(-0.000129138 0.000169112 0.000368022)
(-0.000400082 0.00033821 -0.000958012)
(0.000241059 0.000477915 -0.000354242)
(-0.000329506 -0.000235894 9.95507e-05)
(3.83441e-06 4.92797e-05 0.000155089)
(-3.12213e-05 1.75646e-05 7.48077e-05)
(0.000347237 -0.00031896 0.000165501)
(0.000419417 -0.000187245 0.000510069)
(-0.000762296 -0.000341913 7.57732e-05)
(0.00037205 0.000449443 -0.000243095)
(0.000326895 -7.73636e-05 -0.000247239)
(-0.000156883 0.000383228 0.000151464)
(0.000713252 0.000273702 0.000473739)
(0.000319987 -0.00027802 -0.000410416)
(-6.79153e-06 -0.000567792 -0.000260746)
(0.000302402 -0.000546295 0.000323624)
(-2.96958e-05 -0.000621839 0.000323895)
(-0.000382151 0.000186759 0.000459764)
(0.000329291 0.000446924 0.000303248)
(-0.000523356 0.000473768 -0.000592974)
(-5.93497e-05 0.000178277 0.000125801)
(2.76242e-05 -0.00048758 0.000172503)
(1.33415e-05 0.000212947 -8.65006e-05)
(0.000360669 -0.000159917 -0.000183135)
(-0.000370434 -0.00122825 0.000175948)
(0.00059792 4.54019e-05 0.000288208)
(8.69359e-05 -0.000203256 -6.75182e-05)
(-0.000132295 -2.91356e-05 2.67783e-05)
(0.000176996 0.000302348 -0.000436063)
(0.000275258 1.01168e-05 0.000555357)
(3.34624e-05 -0.000167218 0.000431972)
(0.000495096 -3.00319e-05 -0.000184024)
(-0.00015209 0.000374833 0.00012266)
(-0.000106671 -0.000199952 4.73191e-05)
(-0.000696505 0.000632176 0.000451866)
(-0.000101035 -0.000219919 0.000365173)
(-0.000340129 -1.32941e-05 0.000786441)
(-0.000320445 0.000527294 -0.000332971)
(-0.000527557 6.50746e-06 -0.000265756)
(0.000159661 0.000299849 -0.000248559)
(0.000519302 3.77158e-05 -0.000215444)
(-0.00015959 0.000913642 -4.19077e-05)
(0.000870674 0.00064534 -0.000406011)
(-9.01698e-05 -0.000545072 -0.000782165)
(0.000286216 0.000195438 0.000349125)
(-5.24791e-05 -1.40545e-05 -0.000210482)
(-7.00558e-05 -0.000328806 9.58776e-05)
(0.000284685 0.000741044 -2.74012e-05)
(-0.000220184 -8.41282e-05 0.000354889)
(2.38501e-05 9.30381e-05 0.000750619)
(0.000316709 0.000278738 0.000222185)
(-0.00038625 -0.000161662 0.000457429)
(-0.000134936 0.000134964 0.000154134)
(0.000391536 0.000592683 0.000395362)
(-6.25347e-07 -0.000626784 2.67306e-05)
(0.000289656 -0.000257109 -6.59452e-05)
(-0.000379012 0.000188422 0.000579417)
(0.000406989 0.000553647 -0.000210803)
(-0.000426348 0.000264633 0.000160303)
(-0.000556461 -0.000371471 -0.000443597)
(0.000567647 0.000227652 -0.000410512)
(-5.25693e-05 -0.000345709 -0.000161602)
(-3.86885e-05 0.000403173 -0.000370313)
(-0.000226779 -0.000140681 -0.00058938)
(-0.000314964 0.000586098 -5.80804e-05)
(0.000148675 5.2472e-05 -9.29721e-05)
(0.000172201 -0.000156397 -0.000103066)
(0.000492224 -0.00033797 0.000198506)
(-0.000656064 0.00115264 2.2568e-07)
(-7.76643e-05 -0.000505568 0.000254385)
(0.000288687 0.000342981 -0.000295533)
(0.000326508 -0.000515439 4.82017e-05)
(0.000673103 0.000250328 -0.00022339)
(-0.000254504 -0.000484571 -0.000229907)
(2.03454e-05 -0.000301892 0.000103934)
(-0.000406599 6.62314e-05 8.26055e-05)
(0.000327218 -0.00012381 0.000458585)
(0.000412262 -0.000286991 0.000144927)
(-2.35296e-05 0.000718122 -0.000367823)
(-4.55231e-05 4.82206e-05 0.000347241)
(-0.000181172 0.000142389 -8.27819e-06)
(0.000183351 -0.0003708 8.79418e-06)
(6.99401e-05 0.000384569 0.000214782)
(-0.000688083 1.94765e-05 5.13821e-05)
(-0.000821161 -2.1314e-05 0.000687004)
(9.26929e-05 -0.000763658 2.99201e-05)
(6.83821e-05 -0.000256148 -4.60486e-05)
(-0.000142293 0.000234474 3.79866e-05)
(2.42726e-07 0.000631481 0.000271086)
(-0.000189919 -0.000135668 -0.000190866)
(0.000380032 0.000695185 5.56162e-05)
(0.000468285 -0.000112042 0.000344173)
(-5.20749e-05 -0.000253154 0.000268886)
(0.000494422 0.000277905 0.000432056)
(0.000528468 -0.00029662 0.000255339)
(0.000545339 -9.21581e-05 0.000602497)
(0.000142269 0.000640472 9.96185e-05)
(0.000329767 -1.58497e-05 -6.09027e-05)
(-0.000264525 4.95146e-05 -0.000381262)
(0.000540699 0.000458054 -4.02838e-05)
(-0.000154292 0.000153707 0.000451195)
(-0.00019329 -0.000187165 -0.000286759)
(-0.000190424 5.60013e-05 0.000508147)
(-1.01214e-05 -0.000466707 -0.000271443)
(0.00022281 0.000671622 -0.000855459)
(-0.000187999 0.000735046 0.000124487)
(-0.000578049 -0.000677017 -0.000375315)
(-0.00068321 -0.000184033 -0.000188472)
(-0.000722765 -0.00033056 -1.86756e-05)
(-0.000852749 0.00041019 -7.00829e-05)
(0.000515895 -0.000346385 9.02408e-05)
(4.73897e-05 0.000676243 -0.000205133)
(1.74346e-05 3.87534e-05 0.000245634)
(-4.23225e-05 7.08228e-05 1.12516e-05)
(-0.000196434 -5.08116e-05 -0.000649297)
(6.48284e-05 -2.30746e-05 -0.000294005)
(-0.000343506 6.82842e-05 -0.00071543)
(-1.76945e-05 -9.96701e-05 0.0005071)
(-0.000307509 0.00113211 4.01261e-05)
(0.000232974 -0.000256076 -0.000314954)
(0.000269202 0.00021076 0.000171389)
(-0.000173072 0.000177462 -0.000257125)
(0.000200962 -0.000205299 0.000145056)
(-0.000140599 -0.00051931 -4.44195e-05)
(-0.000350908 -0.000362199 0.000265888)
(0.000154638 0.000193209 -0.000540983)
(7.55026e-05 -8.44946e-05 -0.000189447)
(-0.00035491 0.000372243 0.000279477)
(-0.00017932 -0.000529569 -3.7879e-06)
(-2.22698e-06 0.00013087 -2.97799e-05)
(-2.40368e-05 -0.00027066 -0.00055649)
(-0.000222429 -0.000557633 -0.000191948)
(-0.000356408 -0.000266173 -0.000367064)
(-0.000231387 0.000235727 6.79807e-05)
(0.000630653 0.000591427 -0.000368478)
(0.000346312 -6.26715e-05 -0.000590038)
(-0.000133538 0.000420342 -0.000203159)
(-0.000488114 0.000215381 0.000607323)
(0.000585841 -0.000359334 0.000299946)
(0.000315798 2.32105e-05 -5.56329e-05)
(0.000229424 -0.00028617 0.000215659)
(-0.00022812 0.000185877 0.000340198)
(7.02285e-05 0.000587807 0.000429099)
(0.00038848 0.000370743 -0.000189848)
(0.000241898 8.4926e-05 -0.000420006)
(0.000469225 0.000271498 -0.000235461)
(-0.00066357 0.000411305 0.000381159)
(-0.00074207 0.000121941 -0.000384855)
(0.000132413 0.00031933 0.00031176)
(-0.000210168 -3.21041e-05 -0.000389467)
(8.83389e-05 -9.35711e-06 -0.000623708)
(0.000209046 -0.000373521 -0.000537993)
(-0.000172488 -4.58288e-05 0.000166463)
(0.000170815 -0.00013249 -0.000285521)
(0.00016073 0.000124246 0.000720461)
(-6.51101e-06 -0.00026651 -0.000137639)
(2.79588e-05 -0.000303846 -0.000420387)
(0.000412029 -0.000308483 -0.00102318)
(-4.96703e-05 -0.000203063 0.000188137)
(-0.000258113 -0.000370677 0.000338705)
(0.000203257 0.000753989 0.000869113)
(0.000187527 0.000653733 -3.08532e-05)
(-0.000138786 0.000456438 -0.000303577)
(0.000457738 -8.31921e-05 -0.000515838)
(0.000526235 -0.000490889 0.000276384)
(0.000288768 -0.000388715 0.00026557)
(-2.19653e-05 0.000873628 0.00011291)
(-0.000462268 -0.000504203 7.93502e-05)
(-0.000440435 -0.00029369 0.000264634)
(0.000413677 0.000280402 -0.000511404)
(0.000357149 0.000512033 -0.00088879)
(-8.16919e-05 -5.49323e-05 -0.000388685)
(-9.47159e-05 -0.000234273 0.000429248)
(-0.000402821 0.000125947 -0.000543522)
(-8.52902e-05 -0.000112207 6.58966e-05)
(0.000144701 0.000189685 -0.000156393)
(0.00054051 -0.000227306 -0.000174356)
(-0.000126796 -0.000333075 -0.000632043)
(-0.000536745 -0.000134468 3.12739e-05)
(0.000789787 -0.000569726 7.62702e-05)
(-0.000312912 -8.51232e-05 7.93786e-05)
(-0.000827323 -0.000593164 0.000630091)
(8.27196e-05 2.56184e-05 0.000383868)
(0.00034556 0.000185847 0.000492927)
(-6.79263e-05 6.44086e-05 -0.000375913)
(-7.47323e-05 -0.000407965 0.000231819)
(0.000110779 8.22599e-05 0.000442131)
(0.000454789 0.00019487 9.5713e-06)
(-0.000204932 0.000176833 -0.000376635)
(-0.000350636 -0.000269914 5.60757e-05)
(0.000380781 -0.000355051 0.000105349)
(0.000259741 -0.000673146 3.90811e-05)
(0.000232923 -3.73863e-05 -0.000290967)
(-0.000374348 0.00041707 -3.04472e-05)
(-0.000154025 0.0003602 -6.1766e-06)
(0.000609017 0.000760114 -0.000599074)
(0.000341609 -0.000314595 -0.000176139)
(0.000277965 -0.000102154 7.81964e-06)
(-0.000465921 7.31516e-05 0.00020597)
(-8.56779e-05 0.000367399 0.000551618)
(-0.000101725 0.000470182 -2.03153e-06)
(0.000174503 0.000284708 1.45134e-05)
(0.000506855 -0.000305917 0.000439027)
(-0.000352393 7.72988e-05 0.00037662)
(0.00137771 -0.000407547 -0.000622005)
(-0.000525042 0.000237486 -0.000252962)
(2.13224e-05 -0.00010485 0.000186107)
(-0.000126022 -0.000117109 0.000611146)
(-9.94725e-05 -6.06446e-05 -0.00023229)
(-8.33748e-05 -0.000253391 0.00058707)
(-0.000675883 -3.31002e-05 0.000301661)
(-0.000470204 0.000155054 -8.80824e-05)
(-0.000629071 -0.000125444 -4.33062e-05)
(-0.000313987 -0.000551267 0.000289413)
(0.000822883 -2.13548e-05 -0.000441525)
(-0.000373812 0.000301837 0.000388812)
(-0.000481416 0.000684378 0.00049181)
(0.000201584 -8.67747e-05 0.00078882)
(-8.7581e-05 -0.000106614 -5.87175e-05)
(0.000126646 0.000249307 0.000579005)
(-0.000170836 -0.000107851 0.000220065)
(0.000418962 6.13653e-06 -0.0009331)
(-8.96655e-05 0.000283247 -0.00013806)
(0.000364514 0.0004374 0.000108284)
(-7.68189e-05 -0.000270667 -0.000615568)
(0.000272805 0.000525087 -0.000242108)
(-0.000244279 0.000322913 0.000428183)
(-0.00048525 -0.000285862 -0.000269973)
(-0.000389304 -0.000527539 0.00029654)
(5.06381e-05 -2.97612e-05 0.000164514)
(-0.000241455 1.09587e-05 -0.000168608)
(0.00058756 -8.02427e-05 -0.000272057)
(2.89493e-05 -0.000185275 -0.000657402)
(-0.000205024 0.000225612 -0.000128121)
(-0.000396146 1.87508e-05 0.000329077)
(-0.000182317 0.000605605 7.43227e-05)
(6.01697e-05 0.000337677 0.000126386)
(-0.000126546 0.000247078 0.000304915)
(0.000225602 5.06654e-05 -0.000138185)
(-2.31456e-05 -0.000388601 0.000448447)
(-0.000207102 -0.00013036 -0.000106239)
(-0.000145334 0.000283073 -6.4854e-05)
(5.67195e-05 -0.00023249 -0.000467955)
(0.000645332 -0.000411948 9.42808e-05)
(-0.000216646 0.0009797 -0.000105468)
(-0.000372934 -0.000128349 -0.000135375)
(-0.00104858 0.000172275 0.000146916)
(0.000502827 -6.33559e-05 0.000377398)
(0.000354369 -0.000591118 0.000542424)
(-0.00056289 -9.85966e-05 0.00070806)
(0.000166314 -0.000194256 -0.000173058)
(0.000863872 -0.000546324 0.000382951)
(0.000434761 9.51989e-05 -0.000494816)
(0.000480505 0.000309843 0.000250978)
(-0.000264077 0.000305103 0.000483966)
(0.000326479 0.000112317 0.000466944)
(-0.000498773 -9.87039e-05 0.000219905)
(-2.18787e-05 0.000779858 0.000192592)
(0.000142206 -0.000292231 -0.00017425)
(-5.91046e-05 0.00030742 -0.000325419)
(0.000404557 -0.000280159 0.000217176)
(-0.000600259 0.000183832 -0.000214325)
(-0.000194091 -0.000417463 3.6273e-05)
(0.000123899 4.60623e-05 -0.00024217)
(0.000425483 -0.0003223 -0.000141561)
(0.000272972 0.000511548 0.000117878)
(-0.000212647 7.43327e-05 0.000611567)
(-0.000447305 -0.000212782 -0.000175084)
(-0.000407236 0.000302319 -0.000261023)
(-0.000171735 6.97376e-06 0.000291177)
(-0.00047909 0.000397595 0.00040046)
(-0.00027999 -0.0001409 -0.000538849)
(0.000477982 -0.000506073 0.00013551)
(-3.17501e-06 7.9177e-05 0.000690586)
(-0.000218368 0.000324017 -0.000322725)
(-0.000142512 0.00021935 -0.000725609)
(0.00019429 6.76102e-05 0.000461911)
(-8.95514e-05 -0.000186657 -0.00108975)
(-0.000260646 -3.90759e-05 -5.05144e-05)
(0.000104243 0.000268214 -0.000139778)
(0.000379732 -1.87206e-05 -8.62685e-05)
(-4.47096e-05 0.000412413 0.000201008)
(-0.000105478 -0.000147408 8.32049e-05)
(0.000393393 -0.000423637 -0.000398657)
(-0.0003156 -0.000409793 -5.98095e-05)
(-7.80702e-05 -4.21121e-06 2.13152e-05)
(0.00032071 -0.00071113 8.59646e-05)
(0.000108496 0.000339485 -0.000205678)
(-0.000374066 -0.000175082 0.000270377)
(-7.11601e-05 -0.000285509 -0.000475123)
(-0.000220849 -0.000324158 0.000323505)
(-8.52144e-05 -0.000168435 -6.68302e-05)
(-6.09539e-05 0.000239144 0.000729708)
(-0.000567027 -0.000419391 -0.000258711)
(-0.000140027 0.000740698 -1.65659e-05)
(-0.000200584 0.000264854 -0.000553145)
(-0.000184242 0.000187729 -5.09559e-05)
(-0.000594968 6.72149e-05 -0.000469233)
(-0.000543869 -0.000212811 -0.000147976)
(-7.79429e-05 0.000303549 0.000195153)
(5.85928e-05 -0.000249059 -0.000655093)
(3.84976e-05 0.000559978 1.78302e-05)
(0.00032084 -0.000785033 0.000629774)
(7.77172e-05 0.000227716 0.000167833)
(0.000496397 0.000500587 -8.5653e-05)
(-0.00056916 -0.000219357 8.77507e-05)
(7.08746e-05 0.000634861 -0.000212402)
(5.50978e-05 0.000303151 0.000679385)
(0.000123336 6.07245e-05 3.28744e-05)
(0.000302985 -0.000981434 -0.000155376)
(-9.08653e-06 -4.13375e-05 -0.000137338)
(-0.000368366 0.00016935 2.38995e-05)
(-0.000240306 0.000360665 -0.000102047)
(0.000464235 0.000191669 -0.000155489)
(-0.000478215 -0.000161688 0.000204316)
(-0.000323479 3.4564e-05 0.000682296)
(-0.000105271 0.000335387 1.50908e-05)
(0.000337707 0.000704051 0.000433203)
(-0.000102211 -0.000175932 0.000128117)
(6.15991e-05 0.000260204 -0.00011495)
(0.000171274 -0.000133024 -0.000368562)
(8.8949e-05 -0.000303704 -0.000208162)
(-0.000544158 -0.000652841 2.05729e-05)
(2.20841e-05 -5.02483e-05 -0.000167759)
(-6.54047e-05 5.75563e-05 0.000111465)
(-0.000152594 -0.000373316 0.000335249)
(-0.000283878 -0.000131944 -0.000150076)
(-0.000297395 0.000263379 0.000360771)
(-0.000218749 0.000217196 -0.000137138)
(0.000645349 -6.55198e-05 0.00051453)
(0.000641685 -0.000247522 -4.01929e-05)
(0.000125669 2.84906e-05 -0.000190931)
(-0.000529105 0.000188484 -0.000488602)
(-0.000220491 0.000443141 0.000167311)
(-5.22174e-05 -9.76057e-05 -0.000697828)
(-0.000425673 1.92338e-05 0.000475358)
(0.000382148 -0.000212781 -0.000529088)
(-0.000438181 -0.00036008 -0.000427098)
(-0.000343776 0.000247245 -6.82519e-05)
(0.000223895 0.000431053 -0.000782939)
(-0.00015133 0.00044971 -0.000181112)
(-0.000183805 0.000204706 0.000286496)
(-4.18477e-05 -0.000188549 0.000232952)
(-0.000150445 5.9743e-05 -0.000426527)
(0.000621312 0.000181247 -4.12603e-05)
(-0.000423241 -0.000229347 -0.000238587)
(0.000673054 0.000216834 0.000355584)
(0.000363728 -0.000551918 -2.00637e-05)
(-0.000128434 -5.85474e-05 -0.00104717)
(-3.84171e-05 5.28966e-05 -1.40126e-05)
(-0.000276695 -5.80271e-05 -2.92755e-05)
(-0.000176101 -0.000372544 0.000416592)
(-0.000510908 0.000353563 -0.000154764)
(-0.000425394 8.67554e-05 0.000717468)
(9.27119e-05 0.000551776 0.00050751)
(-0.000369818 0.000218032 -0.000399534)
(9.2235e-06 0.000721988 0.00019058)
(-0.000325603 -0.00068594 -0.000136912)
(-0.000452581 0.000652554 9.21122e-05)
(-0.000212587 0.000664158 0.00041281)
(0.000631742 0.00023734 0.000133343)
(0.000473771 -4.27623e-05 0.000349803)
(-1.58647e-06 0.000328376 0.000252086)
(0.000234152 -9.44987e-05 -0.000764559)
(-0.000253537 -0.000308397 0.000289806)
(-7.76266e-05 0.000162576 0.000231309)
(0.00043098 -0.000401791 -7.48536e-05)
(-0.000501242 0.00026467 0.000294434)
(0.000298481 -3.16711e-05 -0.000451905)
(0.000105761 -0.000128702 -0.000293129)
(0.000395404 0.000508238 -0.000357669)
(0.000441712 0.000267802 -0.000867649)
(-0.000224663 -0.00026992 4.50543e-05)
(-0.000437267 0.000174549 -5.22365e-06)
(-0.000438921 0.000235631 0.000247836)
(-0.000288748 0.000605251 0.000177529)
(9.04972e-05 -0.00013186 -6.66391e-05)
(-0.000100956 -0.000122131 -0.000916662)
(2.31205e-05 0.000744322 -0.000102164)
(-0.000516369 0.00021447 0.000106295)
(-0.000233718 0.000359568 -0.000146828)
(-0.000806636 0.00057268 -0.000488232)
(-0.000360176 0.000193373 -0.000232938)
(0.000151089 -4.77876e-05 -0.000797951)
(0.000187676 0.000321581 0.0001303)
(-0.000177496 -0.000270732 0.000188479)
(4.96189e-05 -0.000502566 0.000282986)
(0.000149758 2.65759e-05 7.82042e-05)
(-9.96839e-06 0.000111464 0.0012032)
(-6.17966e-05 7.17238e-06 0.000234321)
(0.000381246 -0.000218735 -5.70211e-05)
(8.87659e-05 -9.54969e-05 0.00045322)
(0.0001866 3.93886e-05 -0.000100902)
(0.00037768 0.000274851 0.000413505)
(0.000308269 0.00052369 0.000119227)
(-0.000392486 -0.000369787 -0.000418373)
(0.000199464 0.000752537 9.99069e-05)
(-0.000140005 0.000354413 -0.000106012)
(7.33432e-05 -0.000359443 0.0001733)
(0.000432403 5.00788e-05 -0.000379692)
(-7.04914e-05 9.46686e-05 0.000190315)
(-0.000151466 0.000646151 0.00036568)
(4.34147e-05 -7.09301e-05 2.8896e-05)
(-0.000242327 0.000866974 -0.000115776)
(-1.51418e-05 -6.24425e-06 -0.000880761)
(0.000527972 -0.000193226 -1.1993e-05)
(-5.91218e-05 7.09858e-05 -0.000254565)
(0.000180816 -0.000388737 -9.46152e-07)
(-1.67181e-05 5.8855e-05 2.89282e-05)
(7.69115e-05 6.30458e-05 -0.000218204)
(-0.000343098 0.000343374 5.80331e-05)
(-0.000242651 0.000193163 -6.57848e-05)
(-0.000434755 1.4957e-05 0.000341606)
(0.00022291 -0.000452008 -0.000686511)
(2.05479e-05 -0.000155816 -0.000224703)
(-3.7123e-05 0.000937054 0.000157189)
(4.57575e-06 -0.00027061 -5.94235e-05)
(-0.000334997 -0.000184025 5.38246e-05)
(0.000302261 0.000647053 -4.98776e-05)
(8.40577e-05 -0.000218201 -0.000361795)
(2.10184e-05 -0.000484119 -6.84045e-05)
(0.000433932 -0.000332454 -0.0002417)
(0.000237157 -0.000297194 0.000414067)
(6.16384e-05 0.000428621 0.000288497)
(-0.000331045 -0.000348519 -0.000105108)
(-0.000329283 0.000298948 -0.000283454)
(-0.000219559 0.000152167 -0.00051257)
(-6.62027e-05 0.000252508 -0.000139815)
(-0.000499003 -0.000237977 0.00024497)
(0.000167183 0.000255367 -0.000353001)
(0.000227088 -0.000271099 0.000422068)
(0.000134006 0.000100163 -0.000160986)
(0.000285092 -0.000230347 -0.000321373)
(0.000640422 5.85545e-05 -2.34037e-05)
(-0.000570603 0.000653732 0.000337716)
(2.49474e-05 0.000108671 0.000821157)
(-0.000478188 0.000115557 -0.000266984)
(-0.000858312 -6.55661e-05 0.000351342)
(-0.000744265 -0.000276702 8.83337e-05)
(-0.000383187 -0.000131388 -6.20905e-05)
(0.000208846 0.000564782 -0.000103675)
(0.00059203 -1.66578e-05 0.000422388)
(-0.000370292 0.000532112 0.000203081)
(0.000644137 -0.000213589 -0.000171019)
(-8.28749e-05 -0.000618821 0.00047996)