/*--------------------------------*- C++ -*----------------------------------*\
  =========                 |
  \\      /  F ield         | OpenFOAM: The Open Source CFD Toolbox
   \\    /   O peration     | Website:  https://openfoam.org
    \\  /    A nd           | Version:  7
     \\/     M anipulation  |
\*---------------------------------------------------------------------------*/
FoamFile
{
    version     2.0;
    format      ascii;
    class       volScalarField;
    location    "0.007";
    object      rhoNMean;
}
// * * * * * * * * * * * * * * * * * * * * * * * * * * * * * * * * * * * * * //

dimensions      [0 -3 0 0 0 0 0];

internalField   nonuniform List<scalar> 
1000
(
9.62707e+19
1.04733e+20
1.08201e+20
1.12973e+20
1.19429e+20
1.24467e+20
1.25928e+20
1.29103e+20
1.31052e+20
1.35145e+20
1.3339e+20
1.34745e+20
1.36087e+20
1.37773e+20
1.40113e+20
1.42956e+20
1.44603e+20
1.47659e+20
1.50617e+20
1.51755e+20
1.48426e+20
1.52507e+20
1.55406e+20
1.5692e+20
1.56291e+20
1.5736e+20
1.59776e+20
1.6207e+20
1.62956e+20
1.65485e+20
1.63797e+20
1.6505e+20
1.68556e+20
1.72238e+20
1.69716e+20
1.70255e+20
1.70511e+20
1.71409e+20
1.74015e+20
1.80781e+20
1.85182e+20
1.85266e+20
1.83089e+20
1.82069e+20
1.83359e+20
1.83414e+20
1.84382e+20
1.88482e+20
1.83378e+20
1.86454e+20
1.88497e+20
1.93084e+20
1.92312e+20
1.94526e+20
1.969e+20
1.97362e+20
1.99844e+20
1.99199e+20
1.98635e+20
1.99016e+20
1.98877e+20
2.00145e+20
2.0248e+20
2.00352e+20
1.99057e+20
2.03704e+20
2.06319e+20
2.06353e+20
2.08265e+20
2.11184e+20
2.07296e+20
2.10461e+20
2.08896e+20
2.08389e+20
2.11621e+20
2.13424e+20
2.12761e+20
2.13255e+20
2.11569e+20
2.13604e+20
2.16483e+20
2.17304e+20
2.15635e+20
2.23148e+20
2.22823e+20
2.196e+20
2.2031e+20
2.20806e+20
2.21314e+20
2.20288e+20
2.20931e+20
2.25125e+20
2.2715e+20
2.28411e+20
2.2554e+20
2.31531e+20
2.3662e+20
2.35225e+20
2.32696e+20
2.29206e+20
2.30282e+20
2.27859e+20
2.30478e+20
2.36011e+20
2.36159e+20
2.3326e+20
2.33753e+20
2.35423e+20
2.34901e+20
2.3379e+20
2.38212e+20
2.42239e+20
2.43206e+20
2.42121e+20
2.45848e+20
2.43386e+20
2.43758e+20
2.4874e+20
2.47445e+20
2.46593e+20
2.47127e+20
2.45104e+20
2.46479e+20
2.48389e+20
2.4903e+20
2.49361e+20
2.48517e+20
2.42704e+20
2.46109e+20
2.48856e+20
2.50844e+20
2.50646e+20
2.49491e+20
2.50024e+20
2.4735e+20
2.49868e+20
2.50222e+20
2.52105e+20
2.522e+20
2.52362e+20
2.509e+20
2.50928e+20
2.49644e+20
2.5091e+20
2.57112e+20
2.5842e+20
2.56519e+20
2.57623e+20
2.57537e+20
2.59775e+20
2.59404e+20
2.62717e+20
2.59355e+20
2.59527e+20
2.61959e+20
2.60116e+20
2.60731e+20
2.59939e+20
2.59355e+20
2.55912e+20
2.57893e+20
2.56951e+20
2.62644e+20
2.60467e+20
2.61597e+20
2.61398e+20
2.62322e+20
2.60186e+20
2.60197e+20
2.64149e+20
2.62455e+20
2.62168e+20
2.63558e+20
2.64181e+20
2.63808e+20
2.66773e+20
2.66216e+20
2.6605e+20
2.64337e+20
2.63063e+20
2.62873e+20
2.61948e+20
2.65903e+20
2.6805e+20
2.6784e+20
2.6868e+20
2.68326e+20
2.69235e+20
2.64375e+20
2.67262e+20
2.70995e+20
2.71657e+20
2.73678e+20
2.72637e+20
2.75372e+20
2.76157e+20
2.74321e+20
2.72576e+20
2.71051e+20
2.74957e+20
2.7203e+20
2.72327e+20
2.69978e+20
2.74705e+20
2.70334e+20
2.71606e+20
2.73783e+20
2.76628e+20
2.76292e+20
2.77829e+20
2.76248e+20
2.74254e+20
2.75617e+20
2.76524e+20
2.74564e+20
2.75502e+20
2.72779e+20
2.69497e+20
2.74986e+20
2.74692e+20
2.73012e+20
2.74699e+20
2.76049e+20
2.75799e+20
2.75134e+20
2.69441e+20
2.69711e+20
2.68439e+20
2.6573e+20
2.752e+20
2.78586e+20
2.84202e+20
2.80241e+20
2.74731e+20
2.75252e+20
2.72395e+20
2.76984e+20
2.75623e+20
2.78221e+20
2.76556e+20
2.77505e+20
2.76919e+20
2.77235e+20
2.78823e+20
2.75415e+20
2.78152e+20
2.75977e+20
2.79414e+20
2.75723e+20
2.76938e+20
2.74426e+20
2.73433e+20
2.73625e+20
2.73986e+20
2.7079e+20
2.72223e+20
2.71426e+20
2.74742e+20
2.76678e+20
2.78352e+20
2.74917e+20
2.77034e+20
2.7568e+20
2.70142e+20
2.6943e+20
2.73487e+20
2.727e+20
2.72259e+20
2.71305e+20
2.73147e+20
2.75896e+20
2.72173e+20
2.72953e+20
2.7865e+20
2.77769e+20
2.75976e+20
2.76052e+20
2.74978e+20
2.7444e+20
2.75995e+20
2.79444e+20
2.76939e+20
2.8256e+20
2.76514e+20
2.75406e+20
2.81927e+20
2.81866e+20
2.83443e+20
2.79429e+20
2.79091e+20
2.77651e+20
2.79375e+20
2.81229e+20
2.80779e+20
2.82663e+20
2.81934e+20
2.79043e+20
2.79313e+20
2.78943e+20
2.76238e+20
2.75575e+20
2.78894e+20
2.78542e+20
2.82004e+20
2.82286e+20
2.8457e+20
2.80387e+20
2.82949e+20
2.83911e+20
2.81701e+20
2.82299e+20
2.80365e+20
2.75969e+20
2.78066e+20
2.78851e+20
2.76369e+20
2.76139e+20
2.73482e+20
2.75991e+20
2.77847e+20
2.80119e+20
2.83105e+20
2.80818e+20
2.82851e+20
2.84417e+20
2.82994e+20
2.81985e+20
2.90411e+20
2.84053e+20
2.81634e+20
2.77754e+20
2.76469e+20
2.76848e+20
2.76001e+20
2.78335e+20
2.76414e+20
2.71503e+20
2.75512e+20
2.73699e+20
2.73462e+20
2.78825e+20
2.77558e+20
2.77179e+20
2.81891e+20
2.79026e+20
2.7775e+20
2.81882e+20
2.7855e+20
2.75736e+20
2.77577e+20
2.81309e+20
2.80331e+20
2.8033e+20
2.73595e+20
2.7462e+20
2.74449e+20
2.76053e+20
2.76344e+20
2.73034e+20
2.79309e+20
2.80672e+20
2.7993e+20
2.79244e+20
2.8074e+20
2.8187e+20
2.79131e+20
2.79442e+20
2.82613e+20
2.82459e+20
2.79242e+20
2.78159e+20
2.79184e+20
2.79328e+20
2.7914e+20
2.75102e+20
2.73129e+20
2.71685e+20
2.74843e+20
2.76013e+20
2.77599e+20
2.76381e+20
2.78929e+20
2.775e+20
2.72813e+20
2.72978e+20
2.71262e+20
2.71753e+20
2.72914e+20
2.73365e+20
2.77603e+20
2.76859e+20
2.75734e+20
2.80221e+20
2.77985e+20
2.76011e+20
2.75218e+20
2.7596e+20
2.74493e+20
2.76636e+20
2.78425e+20
2.7807e+20
2.81458e+20
2.7955e+20
2.79405e+20
2.77955e+20
2.79808e+20
2.7948e+20
2.71817e+20
2.72953e+20
2.73892e+20
2.78022e+20
2.77526e+20
2.77753e+20
2.81395e+20
2.82454e+20
2.8346e+20
2.84063e+20
2.82408e+20
2.83973e+20
2.86834e+20
2.85827e+20
2.83155e+20
2.81554e+20
2.83476e+20
2.81941e+20
2.80558e+20
2.75052e+20
2.72154e+20
2.70404e+20
2.69639e+20
2.68395e+20
2.7176e+20
2.74183e+20
2.78973e+20
2.77076e+20
2.76904e+20
2.74884e+20
2.79724e+20
2.76993e+20
2.77996e+20
2.75668e+20
2.81167e+20
2.80365e+20
2.79351e+20
2.78069e+20
2.79671e+20
2.79927e+20
2.76525e+20
2.79011e+20
2.75997e+20
2.7528e+20
2.77388e+20
2.79078e+20
2.76906e+20
2.76497e+20
2.77868e+20
2.78982e+20
2.78113e+20
2.77156e+20
2.76233e+20
2.77025e+20
2.81602e+20
2.77809e+20
2.7324e+20
2.75004e+20
2.73806e+20
2.78396e+20
2.7685e+20
2.73134e+20
2.72989e+20
2.71601e+20
2.75677e+20
2.75753e+20
2.7219e+20
2.72628e+20
2.74421e+20
2.76366e+20
2.72484e+20
2.7323e+20
2.7383e+20
2.6934e+20
2.70701e+20
2.73824e+20
2.73776e+20
2.74033e+20
2.7681e+20
2.80553e+20
2.79965e+20
2.77039e+20
2.75465e+20
2.76515e+20
2.76298e+20
2.75254e+20
2.71409e+20
2.74609e+20
2.72199e+20
2.7809e+20
2.7631e+20
2.79792e+20
2.83356e+20
2.7986e+20
2.81905e+20
2.83273e+20
2.82116e+20
2.80433e+20
2.8127e+20
2.78834e+20
2.79824e+20
2.80528e+20
2.78175e+20
2.77948e+20
2.76694e+20
2.80644e+20
2.78191e+20
2.76961e+20
2.7209e+20
2.74546e+20
2.74141e+20
2.74375e+20
2.71937e+20
2.70526e+20
2.77456e+20
2.73448e+20
2.70007e+20
2.71048e+20
2.70582e+20
2.73065e+20
2.72836e+20
2.73324e+20
2.72925e+20
2.75146e+20
2.69694e+20
2.73326e+20
2.71614e+20
2.72817e+20
2.72187e+20
2.73137e+20
2.70128e+20
2.72986e+20
2.72183e+20
2.7028e+20
2.71481e+20
2.74814e+20
2.7284e+20
2.72852e+20
2.74379e+20
2.75053e+20
2.77388e+20
2.70555e+20
2.76643e+20
2.78562e+20
2.8203e+20
2.78734e+20
2.76291e+20
2.77637e+20
2.73489e+20
2.74927e+20
2.77158e+20
2.74027e+20
2.74015e+20
2.75396e+20
2.74763e+20
2.73249e+20
2.71974e+20
2.7184e+20
2.76101e+20
2.75569e+20
2.73432e+20
2.81116e+20
2.7637e+20
2.7963e+20
2.77257e+20
2.7332e+20
2.76523e+20
2.78991e+20
2.77935e+20
2.80942e+20
2.81439e+20
2.85547e+20
2.82405e+20
2.76165e+20
2.78806e+20
2.78842e+20
2.81241e+20
2.79049e+20
2.82331e+20
2.84376e+20
2.80259e+20
2.79157e+20
2.76838e+20
2.78267e+20
2.76882e+20
2.74364e+20
2.78159e+20
2.74145e+20
2.76149e+20
2.76745e+20
2.76579e+20
2.77902e+20
2.78406e+20
2.75427e+20
2.73364e+20
2.76048e+20
2.76881e+20
2.75975e+20
2.78084e+20
2.76238e+20
2.76029e+20
2.7395e+20
2.75378e+20
2.7188e+20
2.77826e+20
2.77908e+20
2.82669e+20
2.8129e+20
2.85568e+20
2.83467e+20
2.83844e+20
2.81829e+20
2.83593e+20
2.85884e+20
2.84491e+20
2.8731e+20
2.81015e+20
2.80829e+20
2.78772e+20
2.76657e+20
2.82072e+20
2.82918e+20
2.84267e+20
2.79121e+20
2.80734e+20
2.78092e+20
2.75098e+20
2.79002e+20
2.78568e+20
2.783e+20
2.73352e+20
2.76765e+20
2.79944e+20
2.7756e+20
2.73082e+20
2.69638e+20
2.68232e+20
2.73055e+20
2.74601e+20
2.76757e+20
2.75587e+20
2.73407e+20
2.71767e+20
2.70517e+20
2.72558e+20
2.71544e+20
2.75535e+20
2.76818e+20
2.72795e+20
2.72461e+20
2.77823e+20
2.79428e+20
2.74155e+20
2.74053e+20
2.75234e+20
2.77528e+20
2.74387e+20
2.74254e+20
2.76032e+20
2.74297e+20
2.74152e+20
2.74948e+20
2.74422e+20
2.75583e+20
2.74857e+20
2.76973e+20
2.74112e+20
2.75246e+20
2.82104e+20
2.80787e+20
2.82058e+20
2.79821e+20
2.81733e+20
2.81939e+20
2.7777e+20
2.77399e+20
2.72685e+20
2.75155e+20
2.77351e+20
2.77516e+20
2.81029e+20
2.80525e+20
2.77756e+20
2.77079e+20
2.73625e+20
2.72819e+20
2.71989e+20
2.75152e+20
2.7479e+20
2.78659e+20
2.787e+20
2.79788e+20
2.80503e+20
2.793e+20
2.801e+20
2.77978e+20
2.75208e+20
2.73549e+20
2.77965e+20
2.7639e+20
2.79062e+20
2.80109e+20
2.80013e+20
2.81166e+20
2.81702e+20
2.78573e+20
2.78422e+20
2.78418e+20
2.78029e+20
2.83336e+20
2.81539e+20
2.86045e+20
2.84566e+20
2.76995e+20
2.78315e+20
2.77206e+20
2.81565e+20
2.78991e+20
2.82121e+20
2.82219e+20
2.76869e+20
2.78395e+20
2.78487e+20
2.85356e+20
2.81426e+20
2.80394e+20
2.73543e+20
2.7541e+20
2.79738e+20
2.77279e+20
2.78676e+20
2.7939e+20
2.80243e+20
2.79304e+20
2.74143e+20
2.77427e+20
2.81228e+20
2.80753e+20
2.77013e+20
2.79106e+20
2.83876e+20
2.81689e+20
2.85406e+20
2.82888e+20
2.81709e+20
2.78448e+20
2.79849e+20
2.79489e+20
2.81312e+20
2.77112e+20
2.76161e+20
2.78117e+20
2.75379e+20
2.71571e+20
2.72838e+20
2.78693e+20
2.80076e+20
2.75583e+20
2.75137e+20
2.75996e+20
2.76092e+20
2.76054e+20
2.78963e+20
2.74518e+20
2.73185e+20
2.73596e+20
2.74883e+20
2.74928e+20
2.78798e+20
2.75839e+20
2.79924e+20
2.75412e+20
2.7747e+20
2.81226e+20
2.75148e+20
2.7435e+20
2.77495e+20
2.74446e+20
2.74136e+20
2.75424e+20
2.76991e+20
2.7258e+20
2.75325e+20
2.71199e+20
2.70115e+20
2.71443e+20
2.7585e+20
2.7428e+20
2.71652e+20
2.73573e+20
2.67861e+20
2.63621e+20
2.67356e+20
2.68115e+20
2.69929e+20
2.6624e+20
2.70957e+20
2.69715e+20
2.67568e+20
2.67798e+20
2.69446e+20
2.69084e+20
2.72416e+20
2.72377e+20
2.69994e+20
2.71036e+20
2.69021e+20
2.68622e+20
2.6696e+20
2.70958e+20
2.71442e+20
2.66978e+20
2.67236e+20
2.6547e+20
2.68263e+20
2.66448e+20
2.66596e+20
2.66394e+20
2.66955e+20
2.63848e+20
2.61721e+20
2.66165e+20
2.65832e+20
2.66819e+20
2.63233e+20
2.64264e+20
2.67673e+20
2.6293e+20
2.61682e+20
2.66494e+20
2.645e+20
2.65012e+20
2.68005e+20
2.63926e+20
2.66307e+20
2.6362e+20
2.64277e+20
2.66344e+20
2.6406e+20
2.65241e+20
2.63495e+20
2.61289e+20
2.59534e+20
2.58511e+20
2.59823e+20
2.57811e+20
2.51265e+20
2.52608e+20
2.55221e+20
2.54472e+20
2.60606e+20
2.58725e+20
2.52223e+20
2.53016e+20
2.56529e+20
2.57478e+20
2.55417e+20
2.5433e+20
2.52137e+20
2.52598e+20
2.50594e+20
2.47791e+20
2.44494e+20
2.48238e+20
2.48224e+20
2.45749e+20
2.45663e+20
2.50128e+20
2.47356e+20
2.50172e+20
2.45658e+20
2.40854e+20
2.42457e+20
2.45616e+20
2.45511e+20
2.40664e+20
2.38843e+20
2.38429e+20
2.38956e+20
2.40256e+20
2.44747e+20
2.39561e+20
2.38659e+20
2.37244e+20
2.35257e+20
2.40861e+20
2.4161e+20
2.34997e+20
2.35124e+20
2.35394e+20
2.36672e+20
2.32942e+20
2.32682e+20
2.30072e+20
2.33853e+20
2.28081e+20
2.27886e+20
2.26027e+20
2.27892e+20
2.24844e+20
2.24543e+20
2.27503e+20
2.26342e+20
2.25679e+20
2.21631e+20
2.16259e+20
2.19629e+20
2.1956e+20
2.15588e+20
2.15451e+20
2.1926e+20
2.17031e+20
2.1633e+20
2.12732e+20
2.1232e+20
2.12113e+20
2.15166e+20
2.15365e+20
2.13503e+20
2.12609e+20
2.16352e+20
2.14806e+20
2.13421e+20
2.09889e+20
2.08234e+20
2.05717e+20
2.02656e+20
1.98803e+20
1.99301e+20
1.99301e+20
2.03075e+20
2.02963e+20
1.99662e+20
1.96982e+20
1.9666e+20
1.95268e+20
1.94196e+20
1.94622e+20
1.9507e+20
1.9048e+20
1.90615e+20
1.87371e+20
1.88811e+20
1.87302e+20
1.86102e+20
1.85575e+20
1.81731e+20
1.81488e+20
1.79504e+20
1.78835e+20
1.78383e+20
1.74747e+20
1.74518e+20
1.76242e+20
1.74298e+20
1.73241e+20
1.71413e+20
1.6863e+20
1.67743e+20
1.65141e+20
1.62941e+20
1.62615e+20
1.65049e+20
1.66154e+20
1.60775e+20
1.58469e+20
1.56338e+20
1.5823e+20
1.57635e+20
1.5559e+20
1.50764e+20
1.48242e+20
1.49419e+20
1.47925e+20
1.47234e+20
1.44915e+20
1.43488e+20
1.40731e+20
1.38983e+20
1.34124e+20
1.29919e+20
1.29414e+20
1.3055e+20
1.27062e+20
1.26115e+20
1.22615e+20
1.17291e+20
1.1302e+20
1.10866e+20
1.08756e+20
1.06193e+20
1.00023e+20
9.35486e+19
)
;

boundaryField
{
    sides
    {
        type            calculated;
        value           nonuniform List<scalar> 2(9.35486e+19 9.62707e+19);
    }
    empty
    {
        type            empty;
    }
}


// ************************************************************************* //
