/*--------------------------------*- C++ -*----------------------------------*\
  =========                 |
  \\      /  F ield         | OpenFOAM: The Open Source CFD Toolbox
   \\    /   O peration     | Website:  https://openfoam.org
    \\  /    A nd           | Version:  7
     \\/     M anipulation  |
\*---------------------------------------------------------------------------*/
FoamFile
{
    version     2.0;
    format      ascii;
    class       volScalarField;
    location    "0.02";
    object      internalE;
}
// * * * * * * * * * * * * * * * * * * * * * * * * * * * * * * * * * * * * * //

dimensions      [1 -1 -2 0 0 0 0];

internalField   nonuniform List<scalar> 
1000
(
0.282259
0.258616
0.237825
0.246685
0.265232
0.275245
0.259002
0.260857
0.269392
0.283113
0.297379
0.265077
0.253302
0.2609
0.25322
0.257669
0.280663
0.283996
0.279056
0.245955
0.282922
0.279841
0.292133
0.284699
0.287276
0.267786
0.255089
0.269646
0.277513
0.261044
0.258001
0.278196
0.262341
0.249705
0.300321
0.261817
0.265156
0.286909
0.269869
0.25555
0.278405
0.293013
0.271372
0.266862
0.275082
0.274035
0.269433
0.25477
0.265539
0.255192
0.265961
0.265505
0.256723
0.263178
0.263548
0.255242
0.288568
0.278098
0.241178
0.269483
0.268075
0.269414
0.261459
0.273719
0.254312
0.268208
0.268689
0.269501
0.286943
0.277903
0.275696
0.244762
0.268642
0.264518
0.263225
0.268371
0.268296
0.275445
0.259504
0.289781
0.246899
0.245116
0.288298
0.254677
0.255574
0.275649
0.300227
0.270009
0.278178
0.287083
0.273179
0.280551
0.258851
0.272434
0.264773
0.251326
0.252424
0.263167
0.268324
0.257953
0.25855
0.272909
0.251662
0.277194
0.269823
0.248674
0.28277
0.261932
0.297262
0.268586
0.241092
0.261683
0.277339
0.259958
0.271573
0.257947
0.264993
0.266607
0.258206
0.264488
0.277227
0.258061
0.285754
0.270468
0.271938
0.259756
0.255969
0.270992
0.268488
0.264312
0.267761
0.27004
0.286405
0.284624
0.279859
0.258818
0.264586
0.256586
0.267905
0.269071
0.267196
0.267755
0.268712
0.2801
0.279394
0.286997
0.248916
0.240991
0.269835
0.272246
0.261067
0.259271
0.267727
0.265023
0.275152
0.274036
0.285424
0.293586
0.258574
0.281615
0.260897
0.246459
0.280042
0.286798
0.2864
0.260064
0.287189
0.278285
0.263381
0.28472
0.284176
0.260909
0.273991
0.278347
0.276068
0.272283
0.292469
0.256574
0.276938
0.267023
0.28085
0.256927
0.265886
0.269081
0.259587
0.264866
0.273535
0.268976
0.273244
0.253186
0.269693
0.278947
0.269405
0.279367
0.251148
0.275564
0.270907
0.262552
0.257705
0.275637
0.264962
0.27347
0.242795
0.281286
0.268478
0.251649
0.263331
0.276567
0.278001
0.266861
0.269493
0.265359
0.27258
0.249816
0.290533
0.272989
0.278591
0.271868
0.267656
0.251767
0.269581
0.259654
0.270421
0.267176
0.25601
0.274659
0.270438
0.261505
0.265796
0.280565
0.258902
0.255109
0.295957
0.267515
0.29515
0.269649
0.295144
0.262656
0.27836
0.263546
0.286828
0.285922
0.272607
0.26246
0.244148
0.265353
0.257995
0.287762
0.29219
0.271567
0.250672
0.284435
0.262911
0.265127
0.259935
0.268849
0.25517
0.262621
0.275069
0.264638
0.287002
0.258981
0.271321
0.268827
0.246929
0.269084
0.2638
0.25878
0.269336
0.282814
0.270545
0.26778
0.2551
0.228351
0.269639
0.249265
0.278665
0.258324
0.284276
0.267945
0.251706
0.283527
0.283095
0.279091
0.267153
0.253796
0.245665
0.284508
0.271843
0.272209
0.260624
0.26488
0.263224
0.263818
0.27562
0.280093
0.239885
0.248911
0.244321
0.277686
0.262043
0.255964
0.269866
0.271783
0.261743
0.276285
0.244673
0.254321
0.280917
0.271016
0.252665
0.268965
0.278915
0.256207
0.264406
0.245011
0.265267
0.264224
0.266978
0.269061
0.279834
0.258449
0.260434
0.305229
0.283858
0.265954
0.254197
0.261469
0.25314
0.260298
0.27089
0.261939
0.265649
0.269506
0.267997
0.255991
0.28489
0.267379
0.264189
0.251883
0.247673
0.267995
0.257739
0.272267
0.282791
0.252561
0.248421
0.249008
0.257785
0.267266
0.259111
0.263977
0.268187
0.276297
0.279112
0.286604
0.269878
0.264309
0.253454
0.261067
0.249957
0.258225
0.268293
0.254181
0.2599
0.265848
0.274252
0.241967
0.272838
0.275016
0.273458
0.265386
0.257634
0.242253
0.270048
0.27643
0.243976
0.27455
0.266648
0.271641
0.254575
0.252157
0.26993
0.260914
0.29197
0.26714
0.252853
0.260504
0.286461
0.272799
0.246878
0.251419
0.280207
0.250135
0.28322
0.261512
0.259321
0.24464
0.265234
0.27405
0.267261
0.285474
0.257959
0.25012
0.275866
0.269199
0.255971
0.244963
0.271225
0.26173
0.250937
0.277994
0.273331
0.265014
0.265715
0.259608
0.280747
0.285698
0.253294
0.289391
0.282982
0.264901
0.266916
0.247493
0.24413
0.277628
0.287442
0.25271
0.239677
0.25871
0.260738
0.252209
0.266112
0.257616
0.2656
0.268971
0.269816
0.280905
0.263912
0.275134
0.271967
0.26977
0.261641
0.270732
0.270011
0.257154
0.266858
0.283229
0.253577
0.269859
0.279254
0.264121
0.263685
0.263297
0.257664
0.266867
0.260094
0.269253
0.261586
0.286398
0.249771
0.249991
0.278817
0.229494
0.271808
0.264664
0.270081
0.262287
0.26201
0.273273
0.263455
0.258856
0.261283
0.274082
0.266194
0.269868
0.265051
0.260395
0.260086
0.277221
0.255537
0.25446
0.239753
0.262608
0.255245
0.261771
0.285319
0.260838
0.276776
0.27587
0.262733
0.266299
0.244745
0.278377
0.244832
0.258528
0.271745
0.261233
0.274084
0.2682
0.266054
0.274807
0.239851
0.254646
0.278753
0.270208
0.264448
0.263792
0.249264
0.26559
0.257965
0.251803
0.261588
0.243338
0.241975
0.241374
0.25522
0.258336
0.245948
0.248474
0.272851
0.248083
0.257174
0.241317
0.276271
0.256777
0.249557
0.257198
0.286039
0.264493
0.296325
0.275245
0.272123
0.26355
0.255606
0.301406
0.263101
0.248886
0.235026
0.264983
0.243445
0.261771
0.246792
0.265554
0.243438
0.266024
0.270541
0.251575
0.251188
0.253419
0.256006
0.244872
0.2835
0.266582
0.270176
0.271819
0.281358
0.245102
0.265435
0.276061
0.273443
0.267988
0.25028
0.243427
0.265555
0.2649
0.246341
0.251422
0.257776
0.2554
0.263298
0.243737
0.309089
0.240975
0.264182
0.275949
0.273276
0.259172
0.275775
0.270592
0.246377
0.242486
0.25667
0.264379
0.242912
0.258234
0.269035
0.252875
0.267246
0.264264
0.270299
0.260387
0.250211
0.250266
0.239728
0.23718
0.267993
0.252107
0.233901
0.280414
0.249281
0.249991
0.262855
0.269623
0.268701
0.228599
0.269131
0.256785
0.249171
0.253444
0.273112
0.252314
0.261935
0.276993
0.253573
0.279144
0.263484
0.258256
0.254911
0.265002
0.259988
0.260143
0.246322
0.236093
0.256381
0.268542
0.246725
0.251586
0.252613
0.244505
0.23718
0.253795
0.258303
0.245305
0.259016
0.262114
0.249463
0.248096
0.269375
0.26593
0.271079
0.270834
0.240867
0.247537
0.251234
0.251837
0.281295
0.266223
0.234719
0.249766
0.242091
0.250193
0.251568
0.248781
0.259489
0.264101
0.257384
0.230303
0.251694
0.253504
0.268356
0.260288
0.26503
0.254537
0.233121
0.263712
0.251845
0.257091
0.264519
0.239983
0.249502
0.263258
0.271438
0.267831
0.262379
0.241823
0.242017
0.252787
0.263524
0.274925
0.249289
0.255453
0.266441
0.231374
0.252193
0.267604
0.237923
0.248624
0.257359
0.268263
0.263779
0.249161
0.264518
0.269669
0.259275
0.274341
0.248629
0.261792
0.266463
0.241272
0.265245
0.230362
0.237194
0.26415
0.269826
0.258171
0.245053
0.242974
0.240234
0.268811
0.25405
0.266329
0.24526
0.252984
0.264841
0.244829
0.251582
0.240148
0.264796
0.259199
0.270396
0.240378
0.252781
0.244345
0.252965
0.254595
0.253206
0.244668
0.257821
0.235514
0.234701
0.268622
0.247669
0.24473
0.249895
0.255301
0.239897
0.240392
0.250949
0.271328
0.230388
0.256337
0.24247
0.251102
0.269066
0.237071
0.262047
0.239462
0.241247
0.248271
0.259339
0.22304
0.230826
0.243378
0.246982
0.253198
0.244404
0.233119
0.261678
0.240904
0.234999
0.265249
0.226591
0.24199
0.266314
0.244037
0.264343
0.240711
0.266092
0.256029
0.264441
0.240338
0.257957
0.240974
0.240516
0.244778
0.250389
0.259795
0.234449
0.235791
0.231866
0.239546
0.241132
0.230052
0.249485
0.227541
0.232395
0.258108
0.248346
0.24887
0.246896
0.247926
0.247689
0.252206
0.227036
0.252598
0.243261
0.246401
0.240427
0.235173
0.247234
0.231619
0.225826
0.227543
0.238882
0.233645
0.232004
0.243637
0.239906
0.241611
0.245071
0.239982
0.235138
0.223779
0.263027
0.220223
0.251507
0.240582
0.237052
0.232986
0.2263
0.236748
0.237338
0.230518
0.227181
0.239063
0.239363
0.226213
0.23782
0.214667
0.228288
0.222978
0.238805
0.20571
0.22837
0.23279
0.235199
0.221897
0.233854
0.251889
0.218656
0.227721
0.242639
0.223613
0.217473
0.225117
0.2401
0.219093
0.242758
0.236189
0.232179
0.242027
0.217224
0.214331
0.219788
0.228052
0.230836
0.216826
0.234262
0.218864
0.214058
0.238622
0.216757
0.221138
0.25153
0.21374
0.22011
0.235099
0.225357
0.201706
0.221135
0.191188
0.228936
0.236296
0.213759
0.211693
0.205547
0.205247
0.21122
0.214123
0.209154
0.204967
0.234955
0.212135
0.213344
0.219945
0.193068
0.207828
0.225734
0.222165
0.197888
0.219759
0.20616
0.209324
0.217261
0.209493
0.201205
0.218699
0.207814
0.214827
0.195527
0.20163
0.22138
0.207461
0.194217
0.200398
0.213354
0.211934
0.221696
0.218555
0.187207
0.205195
0.19483
0.221635
0.203124
0.206348
0.206049
0.214926
0.196933
0.180701
0.185365
0.186834
0.218053
0.223821
0.192967
0.21745
0.198757
0.216597
0.208394
0.200285
0.208037
0.206715
0.206076
0.191333
0.190999
0.20707
0.189674
0.194269
0.195104
0.195087
0.216066
0.200704
0.192359
0.198868
0.194224
0.191603
0.196116
0.216266
0.176153
0.198678
0.197742
0.187356
0.197329
0.191866
0.188749
0.20861
0.175807
0.172945
0.191861
0.185946
0.178174
0.176882
0.178251
0.196448
0.185005
0.196132
0.178224
0.196698
0.190961
0.186107
0.182105
0.184802
0.192409
0.17971
0.170296
0.18585
0.189684
0.158951
0.181829
0.176079
0.187491
0.192718
0.200837
0.180907
0.184373
0.180223
0.182938
0.19127
0.183974
0.188976
0.197818
0.186955
0.171288
0.199312
0.175008
0.183599
0.185345
0.195291
0.183026
0.207863
)
;

boundaryField
{
    sides
    {
        type            symmetry;
    }
    empty
    {
        type            empty;
    }
}


// ************************************************************************* //
