/*--------------------------------*- C++ -*----------------------------------*\
  =========                 |
  \\      /  F ield         | OpenFOAM: The Open Source CFD Toolbox
   \\    /   O peration     | Website:  https://openfoam.org
    \\  /    A nd           | Version:  7
     \\/     M anipulation  |
\*---------------------------------------------------------------------------*/
FoamFile
{
    version     2.0;
    format      ascii;
    class       volScalarField;
    location    "0.02";
    object      rhoM;
}
// * * * * * * * * * * * * * * * * * * * * * * * * * * * * * * * * * * * * * //

dimensions      [1 -3 0 0 0 0 0];

internalField   nonuniform List<scalar> 
1000
(
7.77015e-06
8.0352e-06
7.254e-06
7.37955e-06
8.01427e-06
8.47463e-06
7.84688e-06
8.00033e-06
7.46325e-06
8.30025e-06
8.3979e-06
7.99335e-06
7.5609e-06
7.40048e-06
7.93755e-06
7.63065e-06
8.32815e-06
8.07705e-06
8.32118e-06
7.46325e-06
7.77015e-06
7.80503e-06
8.3142e-06
7.96545e-06
8.26537e-06
7.77713e-06
7.60973e-06
7.63763e-06
7.812e-06
7.74923e-06
7.77015e-06
7.87478e-06
7.9236e-06
7.6725e-06
8.13285e-06
8.01428e-06
7.7841e-06
8.11193e-06
8.3421e-06
7.77713e-06
8.13285e-06
8.23748e-06
7.84687e-06
8.16075e-06
7.6725e-06
8.07008e-06
7.73527e-06
7.6167e-06
7.6725e-06
7.43535e-06
7.79805e-06
7.7841e-06
7.71435e-06
7.68645e-06
7.7841e-06
7.67948e-06
8.20957e-06
7.9794e-06
7.68645e-06
7.4772e-06
7.53997e-06
7.93755e-06
7.53997e-06
7.97243e-06
7.44232e-06
7.68645e-06
7.77015e-06
7.70738e-06
8.30722e-06
7.7562e-06
8.12587e-06
7.44233e-06
7.9794e-06
7.51905e-06
7.60972e-06
7.74923e-06
7.53997e-06
8.11193e-06
7.77015e-06
8.32118e-06
7.73527e-06
7.47023e-06
8.0352e-06
7.52603e-06
7.93755e-06
7.6446e-06
8.53042e-06
7.63763e-06
8.07705e-06
8.21655e-06
7.71435e-06
8.05613e-06
7.84687e-06
7.93058e-06
7.81898e-06
7.40745e-06
7.58183e-06
7.8678e-06
7.62368e-06
7.79805e-06
7.72133e-06
7.95847e-06
7.57485e-06
7.812e-06
7.82595e-06
7.69342e-06
7.87478e-06
7.57485e-06
8.2026e-06
7.77015e-06
7.4772e-06
7.73528e-06
8.01428e-06
7.56787e-06
7.83293e-06
7.60275e-06
7.72133e-06
7.88872e-06
7.63763e-06
7.66553e-06
8.33513e-06
7.93057e-06
8.22353e-06
7.81898e-06
7.6446e-06
7.60275e-06
7.73528e-06
7.69343e-06
7.84688e-06
7.7562e-06
7.7283e-06
7.8957e-06
8.33513e-06
7.84687e-06
7.71435e-06
7.82595e-06
7.5888e-06
7.74922e-06
8.02125e-06
7.5609e-06
7.9794e-06
7.58182e-06
7.84688e-06
8.10495e-06
8.0631e-06
8.27932e-06
7.59578e-06
7.32375e-06
7.8399e-06
7.66552e-06
7.7562e-06
7.84688e-06
7.67948e-06
7.6725e-06
7.83293e-06
7.80503e-06
8.24445e-06
8.13982e-06
7.57485e-06
8.02125e-06
7.9236e-06
7.4772e-06
8.51648e-06
7.9236e-06
8.38395e-06
7.4493e-06
8.22353e-06
8.02125e-06
7.4214e-06
7.81897e-06
8.01428e-06
7.49115e-06
7.98638e-06
8.1468e-06
7.9794e-06
8.0073e-06
8.0073e-06
7.51207e-06
7.51905e-06
7.74922e-06
7.9515e-06
7.49115e-06
7.7004e-06
7.74922e-06
7.47023e-06
7.73527e-06
7.95848e-06
7.82595e-06
7.49813e-06
7.5051e-06
7.84688e-06
7.76317e-06
7.93058e-06
7.81897e-06
7.56788e-06
7.86082e-06
7.65158e-06
8.00032e-06
7.69343e-06
7.9515e-06
7.83293e-06
7.94452e-06
7.56788e-06
8.16772e-06
7.9794e-06
7.46325e-06
7.56788e-06
7.87477e-06
7.87478e-06
7.67947e-06
7.88873e-06
7.63065e-06
7.90268e-06
7.4493e-06
7.7562e-06
7.812e-06
7.8678e-06
7.79805e-06
7.80503e-06
7.68645e-06
7.90965e-06
7.4772e-06
7.79805e-06
7.77015e-06
7.5888e-06
7.71435e-06
7.76318e-06
7.90268e-06
7.7004e-06
7.6446e-06
7.58183e-06
7.34468e-06
8.02823e-06
7.55393e-06
7.97243e-06
7.57485e-06
8.23748e-06
7.7841e-06
7.8957e-06
7.43535e-06
7.84688e-06
7.79805e-06
7.74225e-06
7.80503e-06
7.62368e-06
7.67948e-06
7.63763e-06
8.21655e-06
7.8678e-06
7.69343e-06
7.6446e-06
7.97243e-06
7.533e-06
7.37955e-06
7.60973e-06
7.88873e-06
7.65158e-06
7.7283e-06
7.86083e-06
8.0352e-06
8.15378e-06
8.00033e-06
7.812e-06
7.7562e-06
7.1703e-06
7.73528e-06
7.65855e-06
7.51208e-06
7.8957e-06
7.76318e-06
7.8399e-06
7.6446e-06
7.44233e-06
7.24703e-06
7.74923e-06
7.37258e-06
7.70738e-06
7.55393e-06
8.04915e-06
7.95848e-06
7.6167e-06
7.73528e-06
7.87478e-06
8.18168e-06
7.58183e-06
7.254e-06
7.27493e-06
7.83293e-06
7.79805e-06
7.52603e-06
7.62368e-06
7.8957e-06
7.76318e-06
7.48418e-06
7.7562e-06
8.2026e-06
7.4214e-06
7.46325e-06
7.43535e-06
7.8678e-06
7.41443e-06
7.3935e-06
7.55393e-06
7.73528e-06
7.49115e-06
7.74923e-06
7.1982e-06
7.1703e-06
7.74225e-06
7.52603e-06
7.46325e-06
7.73528e-06
7.94453e-06
7.63065e-06
7.86083e-06
7.3377e-06
7.55393e-06
7.5609e-06
7.31678e-06
7.29585e-06
7.72133e-06
7.533e-06
7.69343e-06
7.8957e-06
7.71435e-06
7.44233e-06
7.26795e-06
7.31678e-06
7.60973e-06
7.51905e-06
7.72133e-06
7.254e-06
7.24005e-06
7.254e-06
7.73528e-06
7.74225e-06
7.51905e-06
7.56788e-06
7.4214e-06
7.33073e-06
7.37955e-06
7.5888e-06
7.52603e-06
7.68645e-06
7.67948e-06
7.49115e-06
7.533e-06
7.17728e-06
7.0866e-06
7.41443e-06
7.2819e-06
7.5888e-06
7.59578e-06
7.37258e-06
7.5051e-06
7.90965e-06
7.5888e-06
7.533e-06
7.28888e-06
7.1424e-06
7.60973e-06
7.56788e-06
7.65855e-06
7.2261e-06
7.34468e-06
7.54695e-06
7.91663e-06
7.1703e-06
7.40745e-06
7.41443e-06
7.67948e-06
7.45628e-06
7.49115e-06
7.10753e-06
7.44233e-06
7.93058e-06
7.17728e-06
7.43535e-06
7.29585e-06
7.49813e-06
7.20518e-06
7.12148e-06
7.812e-06
7.3935e-06
7.49813e-06
7.4493e-06
7.40048e-06
7.46325e-06
7.51208e-06
7.2261e-06
7.35863e-06
7.06568e-06
7.52603e-06
7.40745e-06
7.49115e-06
7.80503e-06
7.35863e-06
7.31678e-06
7.6167e-06
7.56788e-06
7.3098e-06
7.20518e-06
6.95408e-06
7.2261e-06
7.4493e-06
7.41443e-06
7.41443e-06
7.254e-06
7.4493e-06
7.24703e-06
7.254e-06
7.53998e-06
7.55393e-06
7.35165e-06
7.14938e-06
7.14938e-06
7.57485e-06
7.51208e-06
7.31678e-06
7.58183e-06
7.32375e-06
7.3377e-06
7.59578e-06
6.81458e-06
7.17728e-06
7.42838e-06
7.6725e-06
7.14938e-06
6.89828e-06
7.24005e-06
7.49813e-06
6.89828e-06
7.2819e-06
7.14938e-06
7.13543e-06
7.42838e-06
7.20518e-06
7.70738e-06
7.2261e-06
7.46325e-06
7.27493e-06
7.29585e-06
7.30283e-06
7.52603e-06
7.533e-06
7.05173e-06
7.29585e-06
7.65158e-06
7.0866e-06
7.254e-06
7.46325e-06
7.35863e-06
7.13543e-06
7.12845e-06
7.2819e-06
7.254e-06
7.00988e-06
7.16333e-06
7.42838e-06
7.44233e-06
6.82853e-06
7.02383e-06
7.19123e-06
6.77273e-06
7.17728e-06
6.975e-06
7.17728e-06
7.13543e-06
7.37258e-06
7.14938e-06
7.21913e-06
7.07963e-06
7.13543e-06
7.37955e-06
7.26098e-06
7.30283e-06
6.8634e-06
7.04475e-06
6.975e-06
7.47023e-06
6.98198e-06
6.96803e-06
7.0308e-06
6.89828e-06
6.88433e-06
7.00988e-06
7.254e-06
7.03778e-06
7.3377e-06
7.23308e-06
6.90525e-06
7.01685e-06
6.63323e-06
7.34468e-06
6.73785e-06
6.90525e-06
7.17728e-06
6.92618e-06
7.1424e-06
7.1424e-06
7.07963e-06
7.34468e-06
6.77273e-06
6.96105e-06
7.57485e-06
7.10753e-06
6.98198e-06
7.07265e-06
7.19123e-06
7.02383e-06
6.8634e-06
6.64718e-06
6.76575e-06
6.67508e-06
6.84248e-06
6.6681e-06
6.6681e-06
6.93315e-06
6.5565e-06
6.91223e-06
7.14938e-06
6.27053e-06
6.7518e-06
6.57045e-06
7.12845e-06
6.89828e-06
6.73088e-06
7.0029e-06
7.16333e-06
7.05173e-06
7.4493e-06
7.17728e-06
7.1703e-06
6.73088e-06
6.696e-06
7.0587e-06
6.68205e-06
6.696e-06
6.4449e-06
6.91223e-06
6.60533e-06
6.64718e-06
6.63323e-06
6.90525e-06
6.84945e-06
6.95408e-06
6.94013e-06
6.76575e-06
6.48675e-06
6.6402e-06
6.8634e-06
6.54953e-06
7.0866e-06
6.73088e-06
6.8634e-06
7.00988e-06
6.81458e-06
6.47978e-06
6.82155e-06
6.85643e-06
7.1982e-06
6.74483e-06
6.5565e-06
6.38213e-06
7.06568e-06
6.96803e-06
6.67508e-06
6.8076e-06
6.7239e-06
6.60533e-06
6.80063e-06
6.48675e-06
7.2819e-06
6.3891e-06
6.90525e-06
6.76575e-06
6.76575e-06
6.51465e-06
6.87735e-06
6.93315e-06
6.3333e-06
6.61928e-06
6.8076e-06
6.6123e-06
6.31935e-06
6.9192e-06
6.82853e-06
6.8634e-06
6.73785e-06
6.61928e-06
6.8913e-06
6.41003e-06
6.5565e-06
6.6681e-06
6.45188e-06
6.41003e-06
6.87735e-06
6.696e-06
6.24263e-06
7.24005e-06
6.6681e-06
6.417e-06
6.70298e-06
6.59138e-06
6.57743e-06
6.20078e-06
6.60533e-06
6.45885e-06
6.57045e-06
6.5286e-06
6.7797e-06
6.4449e-06
6.6123e-06
6.59138e-06
6.35423e-06
6.975e-06
6.54953e-06
6.80063e-06
6.74483e-06
6.77273e-06
6.52163e-06
6.42398e-06
6.71693e-06
6.23565e-06
6.63323e-06
6.68205e-06
6.24263e-06
6.31238e-06
6.3333e-06
6.25658e-06
6.5007e-06
6.43095e-06
6.27053e-06
6.26355e-06
6.49373e-06
6.45885e-06
6.25658e-06
6.43095e-06
6.3891e-06
6.3333e-06
6.3891e-06
6.45188e-06
6.06825e-06
6.20775e-06
6.35423e-06
6.40305e-06
6.6681e-06
6.696e-06
6.20775e-06
6.34028e-06
6.43095e-06
6.3891e-06
6.61928e-06
6.13103e-06
6.38213e-06
6.40305e-06
6.6123e-06
6.09615e-06
6.3612e-06
6.3891e-06
6.63323e-06
6.59138e-06
6.5286e-06
6.38213e-06
6.1659e-06
6.54953e-06
6.3612e-06
6.43793e-06
6.77273e-06
6.4728e-06
6.62625e-06
6.27053e-06
6.38213e-06
6.35423e-06
6.5844e-06
6.1659e-06
6.07523e-06
6.09615e-06
6.59138e-06
6.59138e-06
6.03338e-06
6.03338e-06
6.4728e-06
5.78925e-06
6.32633e-06
6.1101e-06
6.17288e-06
6.20775e-06
6.04733e-06
6.28448e-06
6.93315e-06
5.8032e-06
6.51465e-06
6.47978e-06
6.73785e-06
6.4728e-06
6.29145e-06
6.43793e-06
6.29843e-06
5.92875e-06
6.18683e-06
5.90783e-06
6.07523e-06
6.1938e-06
6.56348e-06
6.03338e-06
5.90783e-06
5.93573e-06
6.06128e-06
6.23565e-06
6.2496e-06
6.417e-06
6.03338e-06
5.92178e-06
6.32633e-06
6.13103e-06
6.06825e-06
5.9985e-06
6.24263e-06
6.17985e-06
6.5286e-06
5.87295e-06
5.97758e-06
5.99153e-06
5.95665e-06
6.34725e-06
6.2775e-06
5.99153e-06
6.27053e-06
5.99153e-06
5.83808e-06
6.1659e-06
6.04035e-06
5.75438e-06
6.14498e-06
6.1101e-06
5.8032e-06
5.83808e-06
6.06128e-06
6.17985e-06
5.59395e-06
5.99153e-06
6.07523e-06
5.97758e-06
6.3054e-06
5.75438e-06
6.3612e-06
6.1659e-06
5.85203e-06
5.95665e-06
6.2217e-06
5.68463e-06
5.7474e-06
5.34983e-06
6.138e-06
6.15195e-06
5.87295e-06
5.82413e-06
6.13103e-06
5.8869e-06
5.83808e-06
5.9427e-06
5.79623e-06
6.04035e-06
6.14498e-06
5.92875e-06
6.17288e-06
5.859e-06
6.17985e-06
5.81018e-06
6.03338e-06
5.67068e-06
5.9148e-06
6.00548e-06
5.71253e-06
5.8311e-06
5.859e-06
6.138e-06
5.58698e-06
5.79623e-06
5.6916e-06
5.74043e-06
5.6358e-06
5.81715e-06
5.95665e-06
5.4405e-06
5.45445e-06
6.20078e-06
5.89387e-06
6.26355e-06
5.55907e-06
5.87993e-06
5.86597e-06
5.8032e-06
5.41957e-06
5.9985e-06
5.859e-06
5.62883e-06
5.76832e-06
5.71253e-06
5.7474e-06
5.58698e-06
5.67067e-06
5.73345e-06
5.74042e-06
5.62185e-06
5.58e-06
5.79623e-06
5.64277e-06
5.73345e-06
5.9427e-06
5.65673e-06
5.65672e-06
5.4405e-06
5.72647e-06
5.25915e-06
5.78925e-06
5.72648e-06
5.81715e-06
5.76135e-06
5.6079e-06
5.69858e-06
5.5242e-06
5.6916e-06
5.5521e-06
5.60093e-06
5.53815e-06
5.23823e-06
5.64277e-06
5.39865e-06
5.48932e-06
5.41958e-06
5.6637e-06
5.22428e-06
5.3568e-06
5.50328e-06
5.12662e-06
5.4963e-06
5.70555e-06
5.5521e-06
5.18242e-06
5.48933e-06
5.64975e-06
5.53815e-06
5.3847e-06
5.5242e-06
5.4405e-06
5.37773e-06
5.51723e-06
5.23125e-06
5.4405e-06
5.7753e-06
5.53118e-06
5.23125e-06
5.39865e-06
5.5521e-06
5.37075e-06
5.22428e-06
5.14755e-06
5.37773e-06
5.2173e-06
5.64278e-06
5.3847e-06
5.29403e-06
5.6358e-06
5.31495e-06
5.18242e-06
5.53815e-06
5.23125e-06
5.06385e-06
5.64975e-06
4.7988e-06
5.45445e-06
5.32193e-06
5.25217e-06
5.28705e-06
4.88948e-06
5.05688e-06
5.2452e-06
4.95923e-06
5.00108e-06
5.19638e-06
5.20335e-06
5.36378e-06
5.09873e-06
5.0499e-06
5.022e-06
5.05688e-06
5.301e-06
5.301e-06
5.01502e-06
4.91738e-06
4.8546e-06
5.02898e-06
5.11267e-06
5.1615e-06
5.14755e-06
5.1894e-06
5.06385e-06
4.97318e-06
4.93133e-06
4.7988e-06
5.03595e-06
4.79183e-06
4.94528e-06
4.94528e-06
5.09873e-06
5.31495e-06
5.39865e-06
5.2173e-06
4.95923e-06
4.90342e-06
4.70813e-06
5.02897e-06
4.8267e-06
5.2173e-06
4.87553e-06
5.05687e-06
4.98713e-06
4.7988e-06
4.87553e-06
4.63837e-06
5.3568e-06
5.32192e-06
4.79183e-06
5.23125e-06
4.94528e-06
5.18242e-06
5.2173e-06
4.95922e-06
4.61745e-06
4.88947e-06
4.8267e-06
4.64535e-06
4.77788e-06
4.8825e-06
4.78485e-06
4.56165e-06
4.72905e-06
4.8267e-06
4.9662e-06
4.74997e-06
4.74998e-06
4.9662e-06
4.72208e-06
4.72905e-06
4.83368e-06
5.022e-06
4.66628e-06
4.80577e-06
5.07083e-06
4.70115e-06
4.92435e-06
5.00107e-06
4.69418e-06
4.91737e-06
4.6035e-06
4.6314e-06
4.79183e-06
4.72905e-06
4.33148e-06
4.4361e-06
4.72905e-06
4.56862e-06
4.81275e-06
4.94527e-06
4.79183e-06
5.00805e-06
4.72208e-06
4.62443e-06
4.2129e-06
4.6035e-06
4.79183e-06
4.67325e-06
4.41518e-06
4.72905e-06
4.86158e-06
4.27568e-06
4.67325e-06
4.56165e-06
4.67325e-06
4.72905e-06
5.02898e-06
4.59652e-06
4.45005e-06
4.48493e-06
4.47098e-06
4.75695e-06
4.6872e-06
4.83368e-06
4.6314e-06
4.5756e-06
4.58955e-06
4.75695e-06
4.55468e-06
4.48492e-06
4.4919e-06
4.86855e-06
4.5477e-06
4.84762e-06
)
;

boundaryField
{
    sides
    {
        type            symmetry;
    }
    empty
    {
        type            empty;
    }
}


// ************************************************************************* //
