/*--------------------------------*- C++ -*----------------------------------*\
  =========                 |
  \\      /  F ield         | OpenFOAM: The Open Source CFD Toolbox
   \\    /   O peration     | Website:  https://openfoam.org
    \\  /    A nd           | Version:  7
     \\/     M anipulation  |
\*---------------------------------------------------------------------------*/
FoamFile
{
    version     2.0;
    format      ascii;
    class       volScalarField;
    location    "0.006";
    object      linearKE;
}
// * * * * * * * * * * * * * * * * * * * * * * * * * * * * * * * * * * * * * //

dimensions      [1 -1 -2 0 0 0 0];

internalField   nonuniform List<scalar> 
1000
(
0.687968
0.637121
0.94657
0.565608
0.596294
0.597083
0.614037
0.68744
0.866411
0.861268
0.816945
0.580824
0.675396
0.908108
0.813322
0.459224
0.720738
0.745245
1.21916
0.512119
0.822839
0.782534
0.741822
0.829411
0.797178
0.844121
0.710236
0.622227
0.609989
0.787909
0.697706
0.811455
0.67644
0.734113
0.730872
0.758066
0.774086
0.789971
0.89797
0.950076
0.551404
0.871066
0.805043
0.717473
0.916963
0.731653
1.11596
0.827538
0.690425
1.05699
0.813887
0.78804
0.71456
0.715141
0.860156
0.865606
0.76425
0.924531
0.780343
0.9801
0.566489
1.05204
0.854002
0.738321
0.912255
0.92293
1.02459
1.07238
0.889769
1.04966
1.03959
0.999036
1.07973
0.743899
1.09433
1.02186
0.735805
0.750403
0.832033
0.870827
0.687851
0.994984
1.06487
1.1256
1.04418
0.953133
0.828653
1.14115
1.19386
1.0279
0.955025
0.829527
1.00298
1.04493
0.816594
1.00941
0.735883
1.2202
0.809038
1.32545
0.777577
0.780892
1.20208
1.02634
0.921495
0.973445
1.38456
1.08195
0.826257
1.07843
1.18265
1.17018
0.929841
0.879333
0.999509
1.02255
0.827838
1.18305
1.2036
1.20178
0.659457
1.02595
0.924186
0.967464
1.29693
1.0552
1.11812
0.850514
0.911137
1.02049
0.995006
1.10818
1.22392
1.13411
1.38603
1.14145
1.34637
1.46666
1.37433
1.08306
1.03354
1.12069
1.0898
1.21496
1.27624
1.25899
1.43053
1.20964
1.28783
1.20814
1.26639
0.969236
1.24074
1.42769
1.28863
1.17819
1.19024
1.3833
1.27619
1.61356
1.06331
1.43467
1.39616
1.5779
1.3351
1.35284
1.16068
0.9409
1.27331
1.44271
1.21815
1.71904
1.29239
1.53579
1.39259
1.24037
1.25113
1.72171
1.36711
1.76966
1.22909
1.65295
1.48274
1.33713
1.48344
1.65404
1.1955
1.70712
1.59461
1.43036
1.73135
1.42283
1.65487
1.34271
1.81485
1.63658
1.38825
1.44923
1.41983
1.4824
1.63292
1.52741
1.5531
1.82966
1.53012
1.63853
1.56987
1.82638
1.31849
1.46957
1.38448
1.71494
1.82812
1.77806
1.74369
1.19965
1.91128
1.57518
1.94037
1.76966
2.10783
1.75878
1.76533
1.83275
1.85939
1.43122
1.33579
1.78692
1.4715
2.09172
1.54027
1.6481
1.56543
1.76957
1.77713
1.83307
1.79035
1.71087
1.57702
1.92021
2.03718
1.96276
1.46813
1.70589
1.45206
1.3512
1.32547
1.49319
1.85096
1.76592
1.55199
1.64488
1.54814
1.38604
1.39831
2.1758
1.44881
2.33235
1.71382
1.89057
1.92653
1.46738
1.75369
1.66941
1.68888
2.11865
1.99327
1.54067
1.60644
1.52057
2.03853
1.67826
1.71527
1.5632
1.86994
1.76142
1.54062
1.56846
2.07085
1.86252
1.74708
1.73253
1.96974
1.54137
1.4432
1.69114
1.68928
1.5206
1.58865
1.41281
1.32656
2.09066
1.32507
1.58773
2.40702
1.76023
1.56879
1.46036
1.77644
1.83773
1.9291
1.41095
1.67575
2.0549
1.8005
1.47154
1.65738
1.73697
1.94733
1.61225
1.55317
1.59738
1.77468
1.77393
1.97201
1.64424
1.72465
1.61426
1.56843
1.40295
1.47704
1.79652
1.77431
1.93464
1.47476
1.84804
1.65548
1.82585
1.4948
1.8982
1.87525
1.4766
1.8087
1.86549
1.92826
2.02739
1.88821
1.46193
1.48069
1.83772
1.7418
2.01925
1.61627
1.52999
1.57169
1.78618
1.38194
1.83498
2.01241
1.55404
1.77677
1.71263
1.6095
1.36645
1.36614
1.59255
1.43872
1.74308
1.56108
1.75898
1.79711
1.69727
1.739
2.05403
1.90611
1.49899
1.49448
1.61975
1.62955
2.17656
1.84901
1.80709
1.52834
1.49906
1.71457
1.49691
1.72971
2.0383
1.73144
1.52573
1.66958
1.83907
1.45906
1.72443
1.6267
1.63406
2.04781
1.79841
2.13209
1.7115
1.62078
1.78683
1.44806
1.97447
1.70651
1.64803
1.70802
2.06845
1.20075
1.32727
1.59154
1.88608
1.64286
1.931
2.03994
1.63329
2.02599
1.56247
2.02554
1.69686
1.91189
1.56068
1.55779
1.87319
1.6327
1.50006
1.83907
1.47059
1.48676
1.90104
1.88926
1.65918
1.48422
1.63909
1.82549
1.4747
1.99998
1.65378
1.80979
1.69711
2.08655
1.58076
1.86861
1.31978
1.99597
1.3676
1.85429
1.64055
1.40785
1.59051
1.54775
1.82715
1.42827
1.66024
2.00783
1.75875
2.01758
2.01682
2.12681
1.22219
1.68219
1.50931
1.96112
1.45616
1.80614
2.33204
1.4749
1.89208
1.56707
1.83971
1.50073
1.60226
1.88092
1.611
1.60238
2.08248
1.85206
2.04384
2.15917
1.91706
1.96598
1.58495
2.21967
1.77254
1.66505
1.98643
1.41773
1.55226
1.6901
1.81596
1.50957
1.90623
1.67718
1.71067
1.62564
1.59504
1.61532
2.03823
1.48369
1.64745
2.09003
1.8062
1.62353
1.65771
1.83989
1.72275
1.43911
1.86482
1.57333
1.31291
1.79011
1.39247
1.37383
1.61037
1.90149
1.85205
2.15991
1.56502
1.769
1.86564
1.60472
1.65018
1.74876
1.74657
1.70746
1.3604
2.01514
1.76888
1.89833
1.80002
1.62837
1.98857
1.77068
1.95677
1.80364
1.29672
2.26294
1.76511
2.06123
1.6097
1.97951
1.66091
1.95477
1.61964
1.34051
1.77289
1.83592
1.83854
1.47005
1.58527
2.12823
1.22708
1.70025
1.2855
1.66254
1.59456
1.79402
1.69599
1.80993
1.53537
1.84764
1.9938
1.79213
1.52384
1.95345
1.83415
1.55146
1.55064
1.6144
1.63749
1.70183
1.59074
1.7953
1.61869
1.57221
1.75181
1.69602
1.72237
1.94296
2.05259
1.70515
1.81299
1.64881
1.8061
1.952
1.38359
1.7398
1.81737
1.6913
1.76898
1.6059
1.52883
1.80137
1.37566
2.04924
1.93366
2.10791
1.50568
1.66679
1.74439
1.53624
1.66829
1.77082
1.98395
1.88683
1.62261
1.76568
1.51255
1.53385
1.31616
1.78593
1.45325
1.37466
1.68614
1.82926
1.64992
1.4617
1.87834
1.77967
1.63112
1.91246
1.78836
1.61533
1.92733
1.51421
1.52567
1.6536
1.64047
1.66278
1.81308
1.89012
1.71366
1.88646
1.61109
1.43997
1.90652
1.43051
2.04448
1.45558
1.72212
1.70924
1.42483
1.86104
1.97966
1.53433
1.86874
1.64009
1.74043
1.73255
1.96974
2.00911
1.79246
1.69872
1.81404
1.85134
1.91317
1.47275
1.27671
1.61492
1.81587
2.11277
1.8966
1.95555
1.63445
2.07992
1.80251
1.86354
1.79965
1.91896
1.87358
1.84939
1.90093
1.47965
2.00712
2.14026
1.58669
1.88437
1.61845
2.02888
1.76878
1.61124
1.30608
1.30035
2.22993
1.8589
1.39049
1.62169
1.72515
1.98217
1.7455
1.80042
1.60473
1.6523
1.68834
1.95451
1.55448
1.71795
1.51535
1.75593
1.68393
1.67778
1.42058
1.79228
1.90973
1.86581
1.6739
1.51822
1.83884
1.40806
1.43197
1.56328
1.8656
1.88031
1.67979
1.77031
2.05252
1.51333
1.56007
1.81784
1.50669
1.8609
1.89266
1.82848
1.58899
1.99323
1.87673
1.76853
1.59231
1.68513
1.67538
1.57002
1.75397
1.4746
1.74519
1.85917
1.8492
1.95871
1.52762
2.1293
1.76267
1.59051
1.88767
2.01889
1.72106
1.73532
1.69052
1.66483
2.17561
1.46602
1.59443
1.86914
1.74286
1.60709
1.82927
1.63506
2.33194
1.48973
1.76934
1.47346
1.3883
1.82224
1.73888
1.86206
2.20353
1.49538
1.93387
1.53756
1.66629
1.66185
1.56062
1.86038
1.75057
1.91053
1.73898
1.73251
1.80834
1.7989
1.85317
1.9238
1.90665
1.90163
2.21403
1.48786
1.51388
1.68666
1.97888
1.76419
2.00106
1.55147
1.59994
1.59289
1.25938
1.78117
1.69336
2.08711
2.024
1.60275
1.57517
1.61661
1.68121
1.34949
1.52917
1.4459
1.41832
1.40968
1.48767
1.48832
1.70245
1.4689
1.79796
1.74683
1.1336
1.73671
1.55766
1.70251
1.44918
1.759
1.45359
1.60513
1.6618
1.53777
1.65305
1.74322
1.54896
1.70459
1.29059
1.27691
1.65551
1.93333
1.34171
1.34199
1.36827
1.56595
1.41674
1.72113
1.27253
1.46122
1.19431
1.27961
1.1858
1.15061
0.981746
1.04994
1.69581
0.992941
1.12759
1.44331
1.35628
0.874131
1.17354
1.34707
1.46969
1.52788
1.17952
1.28596
1.35498
1.20265
1.28093
1.10625
1.17845
1.34779
1.34084
1.08304
1.17218
1.39344
1.18105
1.22718
1.37712
1.50117
1.05643
1.35195
0.910038
0.825779
1.34712
1.16004
1.32499
0.809419
1.0454
1.32051
1.26752
1.684
1.07366
1.10818
1.0768
1.43217
0.986843
1.16466
1.00491
1.10787
1.05864
1.10615
0.838082
1.06048
1.01926
1.11742
1.3802
0.884154
1.1908
1.20491
1.40116
1.23399
0.852067
1.09399
0.765104
1.11041
0.757864
0.97937
1.17931
0.908944
1.04812
0.92973
1.15238
1.0148
1.01777
0.928872
0.726622
0.993458
1.02237
1.04923
1.17215
1.26523
1.17727
0.738268
0.917763
1.20494
0.99263
1.10994
0.63643
0.650146
0.935758
0.960487
1.07348
0.812836
0.82949
0.779035
0.931036
0.792162
0.966161
0.976089
0.929738
0.998097
0.796308
0.818839
0.699377
0.916654
0.926348
0.929394
0.864859
0.845367
0.892142
0.798912
0.879568
0.655639
1.08263
1.12042
0.701297
0.778239
0.860719
1.12966
0.675146
1.03969
0.866369
1.18304
1.05564
0.858958
0.628751
0.821366
0.572439
0.925068
0.766113
0.655283
0.470401
0.923018
0.836433
0.94121
0.737316
0.701564
0.604087
0.813128
0.851882
0.72348
0.935164
0.700798
0.885892
0.57485
0.825333
0.661245
0.726379
0.731864
0.778214
0.697244
0.636469
0.813439
0.843592
0.75933
0.739039
0.723904
0.657376
0.771165
0.592475
0.669314
0.745194
0.643544
0.92647
0.824189
0.858368
0.66149
0.750978
0.493693
0.659596
)
;

boundaryField
{
    sides
    {
        type            zeroGradient;
    }
    empty
    {
        type            empty;
    }
}


// ************************************************************************* //
