/*--------------------------------*- C++ -*----------------------------------*\
  =========                 |
  \\      /  F ield         | OpenFOAM: The Open Source CFD Toolbox
   \\    /   O peration     | Website:  https://openfoam.org
    \\  /    A nd           | Version:  7
     \\/     M anipulation  |
\*---------------------------------------------------------------------------*/
FoamFile
{
    version     2.0;
    format      ascii;
    class       volScalarField;
    location    "0.006";
    object      rhoMMean;
}
// * * * * * * * * * * * * * * * * * * * * * * * * * * * * * * * * * * * * * //

dimensions      [1 -3 0 0 0 0 0];

internalField   nonuniform List<scalar> 
1000
(
4.50934e-06
4.96248e-06
5.14139e-06
5.36312e-06
5.67986e-06
5.9087e-06
6.02295e-06
6.16115e-06
6.21118e-06
6.46296e-06
6.41807e-06
6.49239e-06
6.47536e-06
6.51413e-06
6.68873e-06
6.86117e-06
6.90252e-06
7.10088e-06
7.23986e-06
7.30449e-06
7.14029e-06
7.34799e-06
7.4883e-06
7.54933e-06
7.49919e-06
7.59578e-06
7.71873e-06
7.80685e-06
7.8901e-06
8.03766e-06
7.939e-06
7.98068e-06
8.1572e-06
8.32594e-06
8.20113e-06
8.22829e-06
8.24058e-06
8.28688e-06
8.368e-06
8.73917e-06
9.00287e-06
8.98855e-06
8.89471e-06
8.80541e-06
8.89109e-06
8.85469e-06
8.92339e-06
9.14779e-06
8.82711e-06
9.03801e-06
9.12617e-06
9.31659e-06
9.29498e-06
9.40908e-06
9.57621e-06
9.584e-06
9.70786e-06
9.68215e-06
9.69847e-06
9.67622e-06
9.60919e-06
9.67983e-06
9.82148e-06
9.71588e-06
9.61085e-06
9.82142e-06
1.00344e-05
9.99103e-06
1.01063e-05
1.0281e-05
1.0112e-05
1.02603e-05
1.01901e-05
1.018e-05
1.03357e-05
1.04711e-05
1.03801e-05
1.03593e-05
1.02908e-05
1.04359e-05
1.0624e-05
1.06408e-05
1.05107e-05
1.08879e-05
1.08412e-05
1.06854e-05
1.0718e-05
1.0727e-05
1.07723e-05
1.0722e-05
1.07318e-05
1.09642e-05
1.10562e-05
1.10988e-05
1.09785e-05
1.1281e-05
1.14929e-05
1.15084e-05
1.1275e-05
1.10744e-05
1.11459e-05
1.1044e-05
1.11474e-05
1.14207e-05
1.14501e-05
1.13201e-05
1.13319e-05
1.14823e-05
1.14623e-05
1.13728e-05
1.15892e-05
1.18126e-05
1.18206e-05
1.17607e-05
1.18812e-05
1.18011e-05
1.18089e-05
1.21097e-05
1.20559e-05
1.20073e-05
1.1953e-05
1.18532e-05
1.19665e-05
1.20783e-05
1.20588e-05
1.20764e-05
1.20052e-05
1.18234e-05
1.19201e-05
1.20224e-05
1.21876e-05
1.22158e-05
1.20761e-05
1.21107e-05
1.20034e-05
1.20887e-05
1.20262e-05
1.21171e-05
1.21558e-05
1.22012e-05
1.2074e-05
1.21111e-05
1.20476e-05
1.20761e-05
1.23744e-05
1.24571e-05
1.23442e-05
1.24164e-05
1.2376e-05
1.24359e-05
1.24385e-05
1.26119e-05
1.24433e-05
1.24498e-05
1.25567e-05
1.24089e-05
1.24704e-05
1.23757e-05
1.24129e-05
1.22394e-05
1.23602e-05
1.22829e-05
1.2568e-05
1.24284e-05
1.24977e-05
1.24516e-05
1.25353e-05
1.24264e-05
1.23953e-05
1.2563e-05
1.24964e-05
1.25692e-05
1.25462e-05
1.25958e-05
1.25879e-05
1.27681e-05
1.26673e-05
1.26732e-05
1.25052e-05
1.251e-05
1.24012e-05
1.23364e-05
1.25374e-05
1.26703e-05
1.26718e-05
1.27069e-05
1.26608e-05
1.26796e-05
1.24646e-05
1.26492e-05
1.2788e-05
1.28499e-05
1.30096e-05
1.29162e-05
1.30064e-05
1.30791e-05
1.28631e-05
1.28895e-05
1.28682e-05
1.29505e-05
1.28414e-05
1.28337e-05
1.27048e-05
1.29306e-05
1.27865e-05
1.28393e-05
1.29182e-05
1.31509e-05
1.30468e-05
1.31972e-05
1.31311e-05
1.30061e-05
1.30076e-05
1.30389e-05
1.28755e-05
1.29749e-05
1.28603e-05
1.27091e-05
1.29847e-05
1.29259e-05
1.28105e-05
1.27842e-05
1.29323e-05
1.29746e-05
1.28197e-05
1.26033e-05
1.26308e-05
1.25663e-05
1.24593e-05
1.2931e-05
1.30455e-05
1.33049e-05
1.31596e-05
1.27982e-05
1.28146e-05
1.26942e-05
1.29267e-05
1.28593e-05
1.29878e-05
1.29e-05
1.29527e-05
1.29136e-05
1.29208e-05
1.29116e-05
1.27691e-05
1.29558e-05
1.28324e-05
1.30249e-05
1.28748e-05
1.2889e-05
1.27844e-05
1.27012e-05
1.27267e-05
1.27667e-05
1.26652e-05
1.27991e-05
1.27321e-05
1.27901e-05
1.28665e-05
1.2925e-05
1.2722e-05
1.28952e-05
1.28642e-05
1.259e-05
1.25873e-05
1.26891e-05
1.25663e-05
1.26403e-05
1.25868e-05
1.27118e-05
1.28095e-05
1.26305e-05
1.26579e-05
1.2904e-05
1.2846e-05
1.27882e-05
1.28363e-05
1.28052e-05
1.28101e-05
1.28283e-05
1.30066e-05
1.29199e-05
1.32386e-05
1.27903e-05
1.27833e-05
1.30998e-05
1.30257e-05
1.31109e-05
1.29967e-05
1.30013e-05
1.29061e-05
1.29583e-05
1.30625e-05
1.29898e-05
1.31629e-05
1.30744e-05
1.29782e-05
1.29482e-05
1.29437e-05
1.28751e-05
1.28174e-05
1.29675e-05
1.29272e-05
1.29982e-05
1.31139e-05
1.32216e-05
1.29862e-05
1.31285e-05
1.3152e-05
1.30604e-05
1.31136e-05
1.2969e-05
1.27963e-05
1.28975e-05
1.29171e-05
1.28439e-05
1.28488e-05
1.26662e-05
1.27852e-05
1.29165e-05
1.31203e-05
1.31336e-05
1.30745e-05
1.32437e-05
1.3318e-05
1.32144e-05
1.31319e-05
1.36097e-05
1.32849e-05
1.3137e-05
1.29531e-05
1.29229e-05
1.29256e-05
1.2849e-05
1.29699e-05
1.29067e-05
1.26843e-05
1.27982e-05
1.27746e-05
1.28358e-05
1.30108e-05
1.28879e-05
1.28913e-05
1.31488e-05
1.30065e-05
1.29145e-05
1.31163e-05
1.30002e-05
1.29545e-05
1.29281e-05
1.30535e-05
1.3018e-05
1.30342e-05
1.26596e-05
1.28152e-05
1.27152e-05
1.28613e-05
1.28813e-05
1.26699e-05
1.29566e-05
1.30662e-05
1.30265e-05
1.30139e-05
1.30637e-05
1.3091e-05
1.29793e-05
1.30113e-05
1.32021e-05
1.31721e-05
1.2932e-05
1.29036e-05
1.29607e-05
1.29833e-05
1.29082e-05
1.27607e-05
1.27295e-05
1.25871e-05
1.27878e-05
1.28854e-05
1.29639e-05
1.28387e-05
1.29877e-05
1.2875e-05
1.26652e-05
1.26767e-05
1.26194e-05
1.26284e-05
1.26625e-05
1.27514e-05
1.30186e-05
1.29601e-05
1.28603e-05
1.30555e-05
1.2903e-05
1.28399e-05
1.27243e-05
1.28339e-05
1.27311e-05
1.29007e-05
1.30505e-05
1.29605e-05
1.31861e-05
1.3033e-05
1.29937e-05
1.30073e-05
1.30275e-05
1.29764e-05
1.26214e-05
1.26944e-05
1.27729e-05
1.28647e-05
1.29198e-05
1.29769e-05
1.31041e-05
1.31072e-05
1.31524e-05
1.32134e-05
1.3171e-05
1.32116e-05
1.33207e-05
1.33684e-05
1.31707e-05
1.30663e-05
1.3153e-05
1.30506e-05
1.3017e-05
1.27108e-05
1.25689e-05
1.24903e-05
1.24405e-05
1.23569e-05
1.25862e-05
1.26812e-05
1.29461e-05
1.28277e-05
1.28262e-05
1.2788e-05
1.29618e-05
1.28222e-05
1.29594e-05
1.29101e-05
1.30799e-05
1.29732e-05
1.29398e-05
1.28424e-05
1.29714e-05
1.30006e-05
1.28183e-05
1.2982e-05
1.27606e-05
1.26942e-05
1.28786e-05
1.29303e-05
1.28276e-05
1.279e-05
1.29186e-05
1.29874e-05
1.29095e-05
1.2807e-05
1.28232e-05
1.28553e-05
1.31612e-05
1.29415e-05
1.27088e-05
1.28598e-05
1.27391e-05
1.28943e-05
1.28734e-05
1.27477e-05
1.26481e-05
1.25505e-05
1.27807e-05
1.28089e-05
1.25817e-05
1.26397e-05
1.26768e-05
1.27645e-05
1.25528e-05
1.26182e-05
1.26618e-05
1.25659e-05
1.25993e-05
1.28222e-05
1.26631e-05
1.2657e-05
1.28647e-05
1.30446e-05
1.30976e-05
1.29874e-05
1.28509e-05
1.2885e-05
1.28573e-05
1.27952e-05
1.26254e-05
1.27317e-05
1.26982e-05
1.29293e-05
1.28478e-05
1.30465e-05
1.32081e-05
1.30468e-05
1.31542e-05
1.32266e-05
1.31344e-05
1.29931e-05
1.30242e-05
1.29864e-05
1.29961e-05
1.30855e-05
1.29738e-05
1.29438e-05
1.28608e-05
1.30187e-05
1.29416e-05
1.28428e-05
1.25896e-05
1.27182e-05
1.27007e-05
1.27116e-05
1.26755e-05
1.25777e-05
1.28742e-05
1.26195e-05
1.24806e-05
1.25882e-05
1.25648e-05
1.26743e-05
1.27118e-05
1.28064e-05
1.27151e-05
1.28011e-05
1.25619e-05
1.27528e-05
1.26407e-05
1.27019e-05
1.26447e-05
1.26419e-05
1.25666e-05
1.26419e-05
1.25744e-05
1.24942e-05
1.25664e-05
1.27472e-05
1.26112e-05
1.26636e-05
1.27944e-05
1.27698e-05
1.28568e-05
1.24691e-05
1.27247e-05
1.28342e-05
1.30951e-05
1.29518e-05
1.28273e-05
1.28903e-05
1.2714e-05
1.27802e-05
1.2899e-05
1.27016e-05
1.27122e-05
1.28538e-05
1.28034e-05
1.26586e-05
1.25773e-05
1.26142e-05
1.28182e-05
1.28137e-05
1.27105e-05
1.30242e-05
1.28374e-05
1.29639e-05
1.2805e-05
1.26841e-05
1.28758e-05
1.30279e-05
1.29919e-05
1.31144e-05
1.31103e-05
1.33138e-05
1.31282e-05
1.28615e-05
1.29225e-05
1.30005e-05
1.31245e-05
1.29819e-05
1.31203e-05
1.32049e-05
1.30836e-05
1.2985e-05
1.28756e-05
1.29315e-05
1.28296e-05
1.28331e-05
1.30294e-05
1.27819e-05
1.28362e-05
1.28581e-05
1.28085e-05
1.28571e-05
1.29395e-05
1.27931e-05
1.26616e-05
1.28307e-05
1.29254e-05
1.28808e-05
1.29574e-05
1.28877e-05
1.29027e-05
1.28343e-05
1.28254e-05
1.25982e-05
1.29209e-05
1.29399e-05
1.32052e-05
1.30722e-05
1.33135e-05
1.32827e-05
1.32381e-05
1.31724e-05
1.32277e-05
1.32857e-05
1.32769e-05
1.3304e-05
1.29689e-05
1.30214e-05
1.29611e-05
1.28474e-05
1.3056e-05
1.31462e-05
1.32195e-05
1.3058e-05
1.31461e-05
1.29194e-05
1.27901e-05
1.30317e-05
1.30285e-05
1.30273e-05
1.27642e-05
1.2925e-05
1.30582e-05
1.28335e-05
1.26875e-05
1.25427e-05
1.25444e-05
1.27261e-05
1.27966e-05
1.29035e-05
1.28512e-05
1.26882e-05
1.26359e-05
1.25842e-05
1.26931e-05
1.26566e-05
1.28898e-05
1.29388e-05
1.26939e-05
1.26626e-05
1.27403e-05
1.29635e-05
1.27752e-05
1.28486e-05
1.27981e-05
1.28944e-05
1.27519e-05
1.267e-05
1.27862e-05
1.27433e-05
1.27444e-05
1.27779e-05
1.28476e-05
1.28969e-05
1.28559e-05
1.29178e-05
1.27546e-05
1.27395e-05
1.30819e-05
1.3053e-05
1.31923e-05
1.30728e-05
1.31103e-05
1.31195e-05
1.29133e-05
1.28489e-05
1.25466e-05
1.28004e-05
1.28513e-05
1.2894e-05
1.29783e-05
1.29925e-05
1.29234e-05
1.28301e-05
1.26659e-05
1.26392e-05
1.25934e-05
1.27504e-05
1.27588e-05
1.29377e-05
1.29613e-05
1.31124e-05
1.3099e-05
1.29751e-05
1.30308e-05
1.29212e-05
1.28592e-05
1.28437e-05
1.30024e-05
1.29688e-05
1.29412e-05
1.29951e-05
1.30658e-05
1.31347e-05
1.31129e-05
1.30258e-05
1.29252e-05
1.28865e-05
1.28682e-05
1.31632e-05
1.31054e-05
1.33655e-05
1.32044e-05
1.29206e-05
1.29317e-05
1.28794e-05
1.31282e-05
1.29459e-05
1.31537e-05
1.32042e-05
1.29473e-05
1.3044e-05
1.30042e-05
1.32811e-05
1.30366e-05
1.30464e-05
1.26954e-05
1.28257e-05
1.30156e-05
1.29435e-05
1.30502e-05
1.3053e-05
1.30773e-05
1.29628e-05
1.27426e-05
1.29443e-05
1.3059e-05
1.29957e-05
1.29026e-05
1.3008e-05
1.32221e-05
1.31281e-05
1.33199e-05
1.31362e-05
1.31664e-05
1.30268e-05
1.3033e-05
1.30211e-05
1.31352e-05
1.29001e-05
1.28411e-05
1.29531e-05
1.27716e-05
1.26033e-05
1.27072e-05
1.29735e-05
1.30952e-05
1.28903e-05
1.28047e-05
1.29244e-05
1.28637e-05
1.2871e-05
1.30337e-05
1.28054e-05
1.27638e-05
1.28591e-05
1.28562e-05
1.28782e-05
1.30751e-05
1.29195e-05
1.31095e-05
1.28492e-05
1.29743e-05
1.31387e-05
1.28289e-05
1.28564e-05
1.29479e-05
1.28122e-05
1.29077e-05
1.29639e-05
1.30301e-05
1.27307e-05
1.28858e-05
1.27207e-05
1.26928e-05
1.2756e-05
1.30018e-05
1.29156e-05
1.28698e-05
1.29671e-05
1.26876e-05
1.25007e-05
1.26824e-05
1.27052e-05
1.27768e-05
1.26264e-05
1.28243e-05
1.2706e-05
1.25965e-05
1.25557e-05
1.2592e-05
1.26685e-05
1.28877e-05
1.29197e-05
1.28045e-05
1.28166e-05
1.26971e-05
1.26675e-05
1.26448e-05
1.28582e-05
1.28635e-05
1.27434e-05
1.27887e-05
1.27604e-05
1.28442e-05
1.27662e-05
1.26965e-05
1.26934e-05
1.27686e-05
1.2653e-05
1.25193e-05
1.27458e-05
1.27816e-05
1.28107e-05
1.25935e-05
1.26182e-05
1.28161e-05
1.26423e-05
1.25263e-05
1.27614e-05
1.26616e-05
1.26876e-05
1.2845e-05
1.26335e-05
1.27523e-05
1.26577e-05
1.27041e-05
1.27996e-05
1.27074e-05
1.27261e-05
1.26231e-05
1.25785e-05
1.24634e-05
1.24363e-05
1.25019e-05
1.24704e-05
1.21255e-05
1.22037e-05
1.22925e-05
1.23168e-05
1.25449e-05
1.24304e-05
1.21733e-05
1.21901e-05
1.23852e-05
1.24214e-05
1.23605e-05
1.2282e-05
1.21147e-05
1.21267e-05
1.21084e-05
1.19181e-05
1.17835e-05
1.19906e-05
1.20293e-05
1.19365e-05
1.18796e-05
1.2092e-05
1.19368e-05
1.2084e-05
1.18768e-05
1.17022e-05
1.1726e-05
1.19039e-05
1.19248e-05
1.17072e-05
1.16252e-05
1.1573e-05
1.14958e-05
1.15647e-05
1.17843e-05
1.15932e-05
1.15585e-05
1.14849e-05
1.13664e-05
1.16248e-05
1.16743e-05
1.14408e-05
1.13694e-05
1.1417e-05
1.15252e-05
1.13787e-05
1.13098e-05
1.11744e-05
1.13266e-05
1.10881e-05
1.1058e-05
1.09628e-05
1.11372e-05
1.09352e-05
1.0929e-05
1.10883e-05
1.10301e-05
1.10211e-05
1.07651e-05
1.04818e-05
1.06134e-05
1.05737e-05
1.04701e-05
1.04457e-05
1.06757e-05
1.05979e-05
1.05311e-05
1.0356e-05
1.02715e-05
1.02503e-05
1.04692e-05
1.03938e-05
1.03031e-05
1.03388e-05
1.04962e-05
1.04266e-05
1.03017e-05
1.01604e-05
1.00473e-05
9.96625e-06
9.78352e-06
9.60907e-06
9.62038e-06
9.6435e-06
9.85447e-06
9.82878e-06
9.66115e-06
9.55261e-06
9.56433e-06
9.5399e-06
9.52148e-06
9.55342e-06
9.53312e-06
9.31412e-06
9.32083e-06
9.07727e-06
9.15951e-06
9.05059e-06
8.99882e-06
8.92879e-06
8.79565e-06
8.7328e-06
8.70858e-06
8.71949e-06
8.70468e-06
8.48276e-06
8.40416e-06
8.57072e-06
8.44047e-06
8.33172e-06
8.28363e-06
8.15436e-06
8.13487e-06
8.0109e-06
7.89617e-06
7.88332e-06
7.93902e-06
8.06029e-06
7.79648e-06
7.66306e-06
7.54587e-06
7.58698e-06
7.56369e-06
7.47172e-06
7.2918e-06
7.20434e-06
7.26078e-06
7.16943e-06
7.08042e-06
6.96708e-06
6.91122e-06
6.73512e-06
6.67984e-06
6.41187e-06
6.20037e-06
6.17524e-06
6.20544e-06
6.03556e-06
5.97975e-06
5.85553e-06
5.59895e-06
5.34944e-06
5.23154e-06
5.12874e-06
5.02456e-06
4.70898e-06
4.38675e-06
)
;

boundaryField
{
    sides
    {
        type            calculated;
        value           nonuniform List<scalar> 2(4.38675e-06 4.50934e-06);
    }
    empty
    {
        type            empty;
    }
}


// ************************************************************************* //
