/*--------------------------------*- C++ -*----------------------------------*\
  =========                 |
  \\      /  F ield         | OpenFOAM: The Open Source CFD Toolbox
   \\    /   O peration     | Website:  https://openfoam.org
    \\  /    A nd           | Version:  7
     \\/     M anipulation  |
\*---------------------------------------------------------------------------*/
FoamFile
{
    version     2.0;
    format      ascii;
    class       volScalarField;
    location    "0.00108";
    object      dsmcRhoN;
}
// * * * * * * * * * * * * * * * * * * * * * * * * * * * * * * * * * * * * * //

dimensions      [0 -3 0 0 0 0 0];

internalField   nonuniform List<scalar> 
125
(
268
242
244
247
238
267
286
249
242
257
256
267
237
231
260
250
266
247
265
259
256
230
238
260
255
242
252
231
223
272
260
289
265
249
246
262
252
246
263
262
228
284
278
245
269
249
282
266
271
240
234
257
258
244
250
257
250
249
261
269
208
280
252
251
246
257
282
231
258
280
272
261
267
247
277
272
241
244
238
231
265
245
294
231
261
263
256
272
261
250
264
239
246
251
251
233
269
218
267
240
251
270
243
269
269
248
243
263
248
249
248
254
238
252
251
278
239
265
251
252
288
259
232
258
241
)
;

boundaryField
{
    sides
    {
        type            symmetry;
    }
    empty
    {
        type            empty;
    }
    procBoundary0to1
    {
        type            processor;
        value           uniform 254;
    }
}


// ************************************************************************* //
