/*--------------------------------*- C++ -*----------------------------------*\
  =========                 |
  \\      /  F ield         | OpenFOAM: The Open Source CFD Toolbox
   \\    /   O peration     | Website:  https://openfoam.org
    \\  /    A nd           | Version:  7
     \\/     M anipulation  |
\*---------------------------------------------------------------------------*/
FoamFile
{
    version     2.0;
    format      ascii;
    class       volScalarField;
    location    "0.00108";
    object      dsmcSigmaTcRMax;
}
// * * * * * * * * * * * * * * * * * * * * * * * * * * * * * * * * * * * * * //

dimensions      [0 3 -1 0 0 0 0];

internalField   nonuniform List<scalar> 
125
(
9.72887e-16
1.00024e-15
9.94451e-16
9.75179e-16
1.0044e-15
9.80114e-16
9.80728e-16
9.59045e-16
9.94414e-16
9.77123e-16
1.00029e-15
9.91487e-16
1.01603e-15
1.02571e-15
9.68362e-16
9.74031e-16
9.66313e-16
9.62345e-16
9.92083e-16
1.02e-15
9.77764e-16
9.82038e-16
1.01718e-15
9.98748e-16
1.00593e-15
9.95682e-16
9.87789e-16
9.7834e-16
9.72002e-16
9.72717e-16
9.69503e-16
1.00609e-15
9.89245e-16
9.82772e-16
9.79577e-16
9.83294e-16
9.92116e-16
9.57872e-16
9.80528e-16
9.67716e-16
9.9732e-16
9.90387e-16
9.92906e-16
9.68447e-16
9.53082e-16
1.01874e-15
1.0012e-15
9.98755e-16
1.00033e-15
9.72812e-16
9.90546e-16
9.97573e-16
1.0001e-15
1.02319e-15
9.7807e-16
1.00819e-15
9.71482e-16
9.82918e-16
1.02371e-15
9.6539e-16
9.80028e-16
9.88278e-16
9.72431e-16
9.58276e-16
9.65648e-16
9.65349e-16
9.82506e-16
9.83159e-16
9.78886e-16
1.00382e-15
9.71375e-16
9.88154e-16
9.9841e-16
9.6046e-16
1.01025e-15
9.76144e-16
9.73743e-16
9.78652e-16
9.70471e-16
9.79073e-16
9.65444e-16
9.77572e-16
9.82212e-16
9.80517e-16
9.76162e-16
1.03763e-15
9.73229e-16
9.59221e-16
9.63156e-16
9.47839e-16
9.84184e-16
1.00878e-15
1.00102e-15
9.66142e-16
9.93514e-16
9.79908e-16
9.71884e-16
9.77986e-16
9.85471e-16
9.93435e-16
9.89744e-16
9.85541e-16
9.49273e-16
9.59713e-16
9.75404e-16
9.93597e-16
9.5944e-16
9.47391e-16
9.87958e-16
9.46335e-16
9.73015e-16
9.59053e-16
1.00786e-15
9.86038e-16
9.67534e-16
9.70735e-16
9.81608e-16
9.60796e-16
9.59826e-16
9.71937e-16
1.01709e-15
1.00033e-15
9.61209e-16
9.80457e-16
9.7568e-16
)
;

boundaryField
{
    sides
    {
        type            symmetry;
    }
    empty
    {
        type            empty;
    }
    procBoundary0to1
    {
        type            processor;
        value           uniform 1.00056e-15;
    }
}


// ************************************************************************* //
