/*--------------------------------*- C++ -*----------------------------------*\
  =========                 |
  \\      /  F ield         | OpenFOAM: The Open Source CFD Toolbox
   \\    /   O peration     | Website:  https://openfoam.org
    \\  /    A nd           | Version:  7
     \\/     M anipulation  |
\*---------------------------------------------------------------------------*/
FoamFile
{
    version     2.0;
    format      ascii;
    class       volScalarField;
    location    "0.00108";
    object      internalE;
}
// * * * * * * * * * * * * * * * * * * * * * * * * * * * * * * * * * * * * * //

dimensions      [1 -1 -2 0 0 0 0];

internalField   nonuniform List<scalar> 
125
(
1231.78
1092.64
1070.77
1100.55
1285.04
1008.35
1096.07
1057.25
1137.31
1221.55
1126.24
1232.32
853.365
1071.6
1105.8
1031.2
1130.75
1181.55
1099.74
1161.84
1298.49
1102.35
1166.49
1166.67
991.291
1045.65
1038.27
1149.61
961.733
1065.23
1246.25
1187.17
1151.87
1398.8
1081.86
1251.9
1121.16
1269.03
1247.76
1135.75
1113.42
1265.51
984.816
1208.56
1136.15
1271.4
1201.86
1028.55
1178.98
1150.85
1120.3
916.836
1073.87
1196.05
895.486
1129.61
1007.43
1291.19
993.256
1246.8
1162.17
1206.69
1115.83
1196.83
1133.77
1201.82
1255.72
1122.42
1157.62
998.155
1310.99
1134.82
1065.89
1089.1
1051.5
1282.75
1248.71
1224.55
1079.84
1224.88
957.363
1193.5
1128.95
862.672
1090.48
1213.4
1089.88
1254.93
1080.48
1123.42
1195.72
1223.19
1077.52
1212.52
1304.87
1227.75
898.579
1217.29
1160.61
1170.86
1094.36
991.211
951.118
1044.31
1321.76
1094.27
1261.69
1048.95
1123.4
1102.97
1154.43
1130.14
1253.06
1173.14
1048.71
1053.26
982.054
1038.57
1181.83
1051.61
1079.76
1018.13
963.379
1262.68
1081.19
)
;

boundaryField
{
    sides
    {
        type            symmetry;
    }
    empty
    {
        type            empty;
    }
    procBoundary0to1
    {
        type            processor;
        value           uniform 1083.28;
    }
}


// ************************************************************************* //
