/*--------------------------------*- C++ -*----------------------------------*\
  =========                 |
  \\      /  F ield         | OpenFOAM: The Open Source CFD Toolbox
   \\    /   O peration     | Website:  https://openfoam.org
    \\  /    A nd           | Version:  7
     \\/     M anipulation  |
\*---------------------------------------------------------------------------*/
FoamFile
{
    version     2.0;
    format      ascii;
    class       volVectorField;
    location    "0.00108";
    object      momentum;
}
// * * * * * * * * * * * * * * * * * * * * * * * * * * * * * * * * * * * * * //

dimensions      [1 -2 -1 0 0 0 0];

internalField   nonuniform List<vector> 
125
(
(-0.0742307 -0.091159 -0.151804)
(-0.0134417 0.194785 0.203761)
(-0.24054 -0.00670664 -0.0537801)
(-0.15111 0.0431708 0.0286397)
(-0.262392 -0.195342 -0.0339371)
(-0.016772 0.234309 -0.0154609)
(0.10271 -0.0200365 -0.210402)
(0.100804 0.177059 -0.0430957)
(0.204045 0.0676725 0.0711687)
(0.0903333 0.123472 -0.0912775)
(0.0759163 -0.201688 0.0973791)
(0.135203 -0.0660679 0.339)
(0.00676248 0.0145772 -0.101266)
(-0.0779059 0.0236145 0.0604696)
(-0.0412399 -0.0117496 0.0308189)
(-0.0513268 -0.234689 -0.0797023)
(-0.141255 -0.103768 0.166506)
(0.0594809 -0.0526675 -0.0020523)
(-0.0382049 -0.0263856 -0.0590284)
(-0.181582 0.176728 0.0290785)
(-0.0721952 -0.301657 -0.00228551)
(-0.0197965 0.0689914 -0.116288)
(-0.0237539 0.0427983 -0.0444012)
(0.0466042 0.154837 0.132959)
(0.064774 0.191064 0.0278318)
(-0.0798473 0.152303 -0.0348504)
(-0.158258 -0.0012002 0.0836926)
(0.206758 -0.0341374 0.0842066)
(-0.0607887 0.328015 -0.0263125)
(0.0952862 0.137533 -0.122821)
(-0.0328075 -0.131813 -0.127373)
(0.117335 -0.144106 0.132295)
(-0.0265735 0.105948 -0.0202084)
(-0.253918 0.142818 -0.285042)
(-0.269886 -0.104926 -0.174328)
(-0.0801657 0.128924 -0.00195606)
(0.12804 0.0159987 -0.13876)
(0.000312847 0.033096 0.0226497)
(-0.108442 0.00993442 0.196046)
(-0.168429 0.297091 0.0250501)
(0.0546605 0.0684122 -0.231888)
(-0.0492542 -0.0396888 -0.121963)
(-0.0379008 -0.082081 -0.167679)
(-0.18585 0.114257 0.304177)
(-0.0327281 0.0762298 -0.104494)
(-0.0433405 0.30426 0.0805313)
(0.0692102 0.247975 0.1116)
(0.0696353 0.139469 0.0666817)
(0.0348029 0.0795065 -0.13483)
(0.166091 -0.10849 0.0366976)
(0.197282 0.238819 -0.367729)
(-0.273308 -0.124581 -0.0629439)
(-0.0848769 -0.129326 -0.277709)
(-0.0998901 0.162896 0.0156886)
(-0.167815 -0.122636 -0.0134084)
(0.0461618 -0.0627661 -0.0521615)
(0.0269823 -0.106631 -0.14618)
(0.0552884 -0.16682 0.0493578)
(-0.0849683 0.0199789 0.146254)
(0.0777674 0.1232 0.109905)
(0.255706 -0.196092 0.280884)
(0.12764 -0.0848969 0.139466)
(0.0693692 -0.0867645 0.0180832)
(0.0881715 0.0842131 -0.175803)
(0.274367 -0.32294 -0.259274)
(0.0113911 0.161394 0.0795939)
(0.0298885 -0.0467994 0.0615392)
(0.0343038 -0.178208 0.190788)
(-0.0837864 0.0805707 -0.194076)
(-0.0121708 -0.0629599 -0.326943)
(-0.0701213 -0.000111281 -0.0185234)
(0.224723 -0.00597684 0.00789206)
(-0.158621 -0.0598669 -0.166296)
(-0.00112759 0.046376 0.0484488)
(-0.163328 -0.289611 0.122312)
(-0.136028 -0.1302 -0.105206)
(0.125925 -0.0805366 -0.0823035)
(-0.0413804 -0.0584234 0.0525747)
(0.0724425 -0.0122067 0.0290102)
(-0.117837 0.00701303 -0.148446)
(0.0655626 -0.027791 0.218348)
(0.0434511 0.130389 0.180456)
(0.16002 0.172197 0.294674)
(0.0043127 0.127666 0.0833245)
(0.0357524 0.0315873 -0.105702)
(-0.109735 0.00473971 0.478591)
(0.0548986 0.176773 -0.208214)
(0.235595 -0.0621612 0.239561)
(0.0881979 -0.12862 0.0713719)
(-0.0999367 -0.0290986 0.0447269)
(-0.123366 -0.0664163 0.110831)
(0.0638828 -0.0412861 -0.144682)
(-0.119364 0.0925538 0.0211228)
(0.013778 0.0677678 0.252794)
(-0.0123238 0.151559 0.21887)
(-0.115523 -0.198922 -0.193733)
(-0.225067 0.0912829 0.0414641)
(0.168548 -0.295411 0.109513)
(-0.0621517 0.109825 0.109205)
(0.0364744 0.250756 -0.0232439)
(0.0325651 0.158439 0.175916)
(0.0776598 -0.126715 0.0520853)
(0.0187181 0.0537513 -0.257195)
(0.197212 -0.24464 -0.24622)
(0.29549 0.0297362 -0.0199107)
(0.117422 0.0151687 -0.301269)
(0.143162 -0.0324081 -0.055993)
(-0.0963217 0.168675 -0.15892)
(0.132502 -0.113074 -0.0666665)
(-0.000887298 0.0285062 0.00829585)
(-0.297885 -0.162753 0.16099)
(0.0938171 0.0789007 0.251617)
(-0.0522703 -0.00156135 -0.324887)
(-0.0537069 0.0542936 -0.120023)
(-0.306031 0.0547415 0.041376)
(0.0582578 0.0918631 0.111156)
(0.0780892 -0.0534757 -0.0811132)
(0.0591844 0.0157364 -0.195335)
(0.0695455 -0.300463 -0.000810689)
(-0.223485 -0.055171 -0.0887035)
(0.1444 -0.114606 0.0366841)
(-0.15825 0.0759392 -0.035498)
(0.107773 -0.0306404 -0.0553554)
(-0.0152318 -0.0153707 -0.0346031)
(-0.187217 0.0348568 0.000500664)
)
;

boundaryField
{
    sides
    {
        type            symmetry;
    }
    empty
    {
        type            empty;
    }
    procBoundary0to1
    {
        type            processor;
        value           uniform (0.222074 0.11605 -0.100982);
    }
}


// ************************************************************************* //
