/*--------------------------------*- C++ -*----------------------------------*\
  =========                 |
  \\      /  F ield         | OpenFOAM: The Open Source CFD Toolbox
   \\    /   O peration     | Website:  https://openfoam.org
    \\  /    A nd           | Version:  7
     \\/     M anipulation  |
\*---------------------------------------------------------------------------*/
FoamFile
{
    version     2.0;
    format      ascii;
    class       scalarField;
    location    "0.02/lagrangian/dsmc";
    object      Ei;
}
// * * * * * * * * * * * * * * * * * * * * * * * * * * * * * * * * * * * * * //


188156
(
8.13913e-22
4.77725e-22
4.77823e-21
1.47562e-21
1.20738e-20
1.2166e-21
6.18535e-21
2.5421e-21
1.62124e-21
4.24744e-21
1.0609e-21
1.42718e-21
2.59298e-21
1.80456e-21
1.33919e-21
2.34533e-21
4.81586e-21
7.52385e-24
1.43625e-21
2.43585e-21
2.57719e-21
5.41798e-22
1.32311e-21
2.58222e-21
3.94557e-21
3.63576e-22
2.81899e-22
7.85989e-23
2.97733e-21
1.94967e-21
4.73738e-21
2.96424e-21
1.33582e-22
1.23205e-21
2.91625e-21
5.02174e-22
3.14314e-22
8.87526e-22
2.42816e-21
1.43714e-22
1.36469e-21
1.3604e-21
2.04826e-21
1.66853e-21
4.43175e-22
1.58472e-21
4.32939e-21
1.12209e-21
2.69156e-22
6.47644e-22
2.28704e-22
1.86639e-21
4.60046e-21
4.97246e-22
1.67152e-21
6.77605e-22
1.35726e-21
2.47761e-21
3.75074e-22
1.3852e-21
5.22443e-22
8.82416e-22
1.02166e-20
4.20245e-22
1.04618e-21
1.2538e-22
7.80352e-24
2.07513e-21
1.7017e-21
4.14666e-21
2.24354e-21
6.58921e-22
1.96044e-22
1.54572e-21
2.13117e-22
1.77797e-21
2.45633e-21
8.4468e-22
3.27499e-21
3.36664e-22
4.88889e-21
2.26483e-22
3.33356e-21
3.11564e-21
2.18419e-21
1.72839e-21
2.46737e-21
2.0071e-22
2.43549e-21
9.69865e-22
1.81857e-21
5.95978e-22
1.69371e-22
6.89234e-22
2.42828e-22
1.52885e-21
2.60933e-21
1.79529e-21
4.09678e-21
1.701e-21
8.94961e-22
1.10317e-21
1.80351e-21
1.12102e-21
6.82554e-22
2.02901e-22
8.43173e-22
1.41576e-21
1.37121e-21
9.77563e-22
3.67413e-21
9.38571e-22
1.74638e-21
7.30391e-22
3.74845e-22
1.64811e-21
2.74499e-21
2.3964e-21
5.02727e-21
7.13824e-22
2.75852e-21
8.34382e-22
1.52585e-21
2.12793e-21
3.72831e-21
8.68482e-22
1.4364e-21
8.68813e-22
9.49189e-22
7.79202e-22
2.15199e-21
5.98565e-22
5.55109e-21
6.63989e-22
1.33081e-21
3.91298e-21
2.23302e-21
1.46114e-21
8.0815e-22
8.32972e-22
2.12195e-21
8.17334e-22
3.78296e-22
1.33361e-21
6.72903e-22
2.49091e-21
5.24205e-22
4.70754e-22
4.26291e-24
5.4879e-21
1.40569e-22
3.25767e-23
4.30232e-21
4.20385e-22
4.7269e-21
1.73959e-21
3.78879e-21
1.52879e-22
1.42016e-22
3.08771e-21
1.4787e-21
4.35575e-21
2.68361e-21
1.81737e-21
5.12653e-22
1.07132e-21
1.27874e-21
3.0926e-22
2.65896e-21
1.19341e-21
1.08548e-21
5.53535e-23
3.82103e-22
2.30971e-22
2.45016e-21
3.62207e-21
5.19405e-22
1.13859e-22
1.86069e-21
6.0832e-22
2.43241e-22
4.79315e-21
8.80208e-24
3.88336e-22
2.5479e-21
1.15425e-21
3.12689e-21
4.07156e-22
3.85267e-22
5.74823e-21
1.59567e-21
1.51484e-21
7.22353e-23
2.13501e-21
4.8166e-22
1.14606e-22
2.7889e-21
1.02995e-21
1.01959e-22
1.16969e-22
2.29529e-21
1.28125e-21
2.11117e-22
2.08448e-21
1.18927e-21
1.76343e-22
1.38595e-21
1.58124e-21
7.76785e-22
2.17442e-21
1.39989e-21
1.93817e-21
6.2625e-22
4.08167e-23
8.5103e-21
1.95335e-21
4.66201e-22
1.03027e-22
1.99765e-21
1.40523e-21
4.10757e-21
5.30118e-21
1.49829e-21
9.24866e-23
2.29182e-21
1.0604e-22
1.93212e-21
1.26256e-21
4.36923e-21
3.73721e-21
1.31529e-21
5.29696e-22
2.12668e-21
7.22924e-21
2.42794e-21
6.49432e-22
4.36156e-22
1.52701e-21
3.84874e-23
1.03129e-21
4.99473e-22
5.18869e-21
3.04628e-21
3.03269e-22
5.82678e-22
1.57498e-21
7.89328e-21
1.91782e-21
4.00683e-22
1.78645e-21
7.77731e-22
2.86407e-21
4.45273e-21
1.35883e-21
1.95053e-22
2.69827e-21
1.15293e-21
7.40551e-22
1.72926e-22
8.21754e-21
1.30634e-21
5.17269e-21
5.79862e-21
1.50188e-21
1.39525e-21
1.30962e-21
2.36837e-22
1.71437e-21
1.63049e-21
2.21757e-23
4.02527e-21
2.5479e-21
3.24505e-21
1.25041e-21
1.15014e-21
6.8887e-22
2.6554e-21
9.64738e-22
2.04311e-21
3.66301e-22
1.49793e-21
1.43774e-21
7.19407e-23
2.6792e-21
5.12514e-23
7.16673e-22
3.33127e-22
1.77339e-21
2.98493e-24
1.20617e-22
3.15308e-22
7.80757e-22
7.02202e-21
9.75093e-23
4.80609e-22
7.20735e-22
5.58465e-22
7.32887e-22
6.5533e-22
1.05352e-20
4.03104e-21
3.57189e-21
2.22509e-21
5.62458e-21
4.16634e-22
1.63824e-22
4.36713e-22
4.82257e-21
3.18794e-22
1.33995e-21
8.42735e-22
1.17436e-21
4.06062e-21
2.67229e-21
4.07622e-22
1.45638e-21
5.21349e-22
1.43118e-21
1.47249e-21
2.5618e-21
1.22907e-21
6.43899e-21
4.71628e-21
1.4077e-21
2.27558e-21
1.32054e-21
1.3463e-21
7.61718e-22
2.08652e-21
1.58192e-21
2.04852e-21
3.69469e-21
5.92507e-21
9.04046e-21
8.00274e-22
1.69294e-22
1.03594e-21
1.33213e-21
1.39223e-21
3.74614e-21
1.0393e-21
3.51728e-21
1.69936e-21
2.80442e-21
2.95503e-23
1.42895e-22
1.64456e-22
5.07853e-21
1.47423e-21
6.17295e-22
2.83573e-22
1.54822e-21
1.4023e-21
3.01243e-21
8.28922e-22
8.18016e-22
4.9521e-22
7.50473e-22
4.01722e-23
4.63552e-21
4.45635e-21
1.58949e-21
4.56341e-21
2.30178e-22
3.16986e-21
8.26614e-22
2.87018e-21
1.75782e-21
4.80753e-22
2.08181e-21
2.99236e-21
1.33175e-21
7.39552e-21
8.00362e-22
1.05803e-20
4.21513e-21
4.5046e-22
3.19105e-21
1.18128e-21
2.33594e-21
6.50458e-22
2.49019e-21
1.48115e-21
3.41767e-21
2.38515e-21
4.73919e-21
1.09078e-21
1.12843e-21
2.56205e-21
2.29471e-21
2.18814e-21
6.54951e-21
1.3022e-21
2.43028e-21
8.49003e-23
2.09598e-21
3.78351e-21
3.70183e-21
1.41123e-21
3.99237e-21
3.96883e-21
1.16047e-22
2.24384e-21
2.7104e-21
1.9288e-21
4.66009e-22
9.49027e-22
1.64968e-22
1.11889e-21
1.83921e-21
5.02817e-21
1.781e-21
1.10667e-21
2.82063e-21
1.03418e-22
1.44812e-21
1.46098e-22
1.10087e-21
2.26055e-21
9.69315e-22
1.81623e-21
5.86934e-22
1.81853e-21
1.71229e-21
2.91863e-21
8.42168e-21
1.99631e-21
1.87816e-21
3.27476e-22
3.41e-21
1.35886e-24
5.34471e-21
2.40247e-22
2.93334e-21
1.137e-20
7.24615e-22
5.38796e-21
1.21915e-21
1.30887e-21
2.31756e-21
1.03133e-21
5.18585e-22
1.75965e-21
4.33216e-21
1.86058e-21
7.49906e-21
4.10502e-22
9.1188e-22
1.5952e-21
1.2724e-22
1.40398e-21
2.34565e-22
5.21915e-23
2.79216e-21
1.29564e-21
2.21699e-21
6.09602e-22
4.86003e-22
1.41448e-21
1.79426e-23
1.54596e-21
8.87911e-22
1.99508e-22
3.98535e-21
5.97586e-23
7.11187e-22
1.24223e-21
3.55279e-22
1.44732e-21
3.41289e-22
3.11186e-21
1.19985e-21
1.44895e-21
2.04866e-21
1.20839e-21
2.06303e-22
2.14527e-22
1.06715e-21
7.5504e-22
7.01521e-21
8.48168e-22
3.18605e-22
2.20987e-23
2.61118e-21
4.46587e-22
3.41612e-21
9.21272e-22
9.40366e-22
2.61207e-21
1.73287e-21
1.43146e-22
9.31514e-22
2.31773e-21
3.36085e-21
9.05296e-22
6.87131e-22
5.72378e-22
1.87554e-21
2.18542e-22
5.90783e-22
1.08763e-23
1.27814e-21
6.40662e-22
5.27608e-21
3.7988e-22
3.68596e-21
8.60868e-23
3.30113e-22
1.09897e-22
7.96554e-22
6.86035e-22
3.24885e-24
9.22093e-23
1.56832e-21
2.88576e-22
9.35015e-22
1.43698e-21
9.54096e-22
3.96656e-22
3.23949e-21
2.78274e-21
9.20408e-22
2.16084e-23
6.15177e-22
4.95199e-21
1.20225e-21
4.42701e-21
2.89812e-22
6.64183e-22
4.22538e-21
1.90757e-21
2.72776e-21
9.92573e-22
5.74949e-21
2.00411e-21
3.52222e-21
5.19968e-21
6.76997e-22
1.15599e-21
1.30335e-21
2.70806e-22
8.0225e-21
4.80995e-22
3.68753e-22
4.70264e-22
3.31835e-21
1.08963e-21
3.68845e-21
4.47796e-21
5.13702e-23
2.96662e-21
2.05455e-21
2.7742e-21
5.07128e-21
8.51928e-21
1.54678e-21
9.94489e-22
2.57687e-21
8.95474e-22
3.16591e-21
5.88369e-22
2.78609e-21
6.02995e-21
1.0557e-21
1.18371e-22
2.6061e-21
9.37989e-22
8.43514e-21
4.31369e-21
5.16089e-21
3.01741e-21
3.11935e-22
2.59248e-21
1.2259e-21
4.24523e-22
1.84876e-21
5.60954e-22
1.78856e-21
2.40959e-21
3.91039e-21
2.45525e-21
3.09775e-21
2.63167e-21
4.4564e-21
1.21001e-21
2.06347e-21
1.96758e-21
2.09363e-21
7.03444e-21
1.65001e-21
8.16437e-22
4.17318e-22
9.78345e-23
1.0027e-21
5.17309e-22
1.9559e-21
2.79518e-22
1.34934e-21
3.2502e-22
1.92866e-21
8.41051e-22
3.89745e-21
2.00713e-22
6.83747e-22
8.84399e-22
5.21986e-21
1.06253e-21
5.41066e-22
1.50922e-21
3.89226e-21
1.23681e-21
3.9053e-21
1.2241e-21
1.78018e-21
4.46485e-22
2.18602e-21
2.14751e-21
4.12291e-21
1.24052e-22
4.4635e-21
1.57312e-21
2.51903e-21
3.29809e-21
5.42453e-23
2.75193e-23
4.28688e-21
2.64129e-21
1.20368e-20
3.40046e-22
8.63873e-22
7.07558e-23
1.12701e-22
3.96183e-21
8.74489e-22
9.2776e-22
4.30668e-21
1.1172e-21
1.45488e-21
4.51972e-23
2.83603e-21
7.39251e-22
6.47157e-21
7.49433e-22
8.9784e-23
5.09889e-21
2.18276e-21
4.67574e-22
2.99686e-22
7.16515e-22
1.75898e-22
4.23809e-21
5.37803e-21
4.14516e-23
4.54487e-22
4.77002e-22
4.84717e-21
1.13269e-22
1.35833e-21
3.20026e-21
2.18919e-21
1.51408e-21
6.84584e-22
4.40767e-22
1.94459e-21
1.15811e-21
1.97302e-22
2.02646e-21
5.0033e-21
8.32487e-22
9.41094e-22
2.23317e-21
2.59496e-22
1.93062e-21
1.17386e-21
4.9102e-22
3.73818e-21
7.22963e-22
3.88859e-21
3.67848e-21
3.94156e-22
3.97608e-22
4.97568e-21
1.66555e-22
4.2286e-22
1.66084e-21
3.58257e-22
1.17621e-21
1.16301e-21
1.74755e-22
4.07894e-21
7.90381e-23
3.36775e-22
1.44397e-21
5.74518e-22
3.34965e-21
8.16614e-22
3.11633e-21
3.21505e-21
1.65629e-21
6.39476e-22
1.85648e-21
7.02783e-22
1.01696e-20
1.70195e-21
1.33497e-21
2.89599e-21
2.96601e-21
1.78681e-21
1.38219e-21
1.13246e-21
2.76963e-22
1.70746e-21
7.86118e-22
1.54008e-21
5.41173e-22
6.29072e-23
2.15776e-21
6.73764e-22
6.31763e-21
2.94266e-21
1.00559e-21
8.17876e-23
3.66564e-22
1.3826e-21
2.2768e-21
3.32667e-21
1.4601e-21
2.52025e-22
2.18369e-21
1.32309e-21
1.61015e-21
2.90051e-23
4.22377e-22
2.42202e-22
7.05246e-22
3.72375e-21
2.34186e-21
2.40142e-21
2.4597e-21
4.1344e-22
5.08278e-22
3.06522e-21
3.84388e-21
8.00721e-21
6.11799e-23
7.83111e-21
6.39923e-22
1.43195e-21
2.05302e-21
4.64481e-22
6.61777e-22
2.23069e-21
9.03991e-21
8.18587e-23
3.16073e-21
3.94309e-22
4.34853e-21
2.21115e-21
3.81518e-21
7.95028e-22
4.56526e-21
1.64225e-21
3.64309e-21
1.31433e-21
1.14103e-21
1.5506e-21
1.12196e-21
3.59445e-22
1.4704e-21
1.51364e-21
3.84823e-21
3.55349e-22
2.97609e-22
2.34154e-21
7.72283e-22
1.22508e-21
1.64235e-22
1.49828e-22
5.81415e-23
2.4449e-21
2.68176e-23
1.2774e-21
8.29885e-22
6.77072e-21
2.23654e-21
4.51432e-22
8.93766e-22
5.63591e-22
9.81813e-22
2.49939e-21
6.86227e-24
4.40216e-21
2.42622e-21
1.06755e-21
6.58517e-22
1.19431e-21
5.09515e-22
5.36732e-21
4.2425e-22
1.0289e-21
3.13484e-22
1.92518e-21
2.07088e-21
5.15308e-21
1.58292e-21
1.51024e-21
3.97745e-22
4.55664e-22
8.62835e-22
1.25194e-21
4.89996e-22
7.69584e-22
3.23962e-21
1.39381e-21
2.14891e-22
3.77225e-21
1.13116e-21
1.21851e-21
1.76459e-23
1.84778e-21
1.4119e-22
2.74911e-21
6.62373e-22
2.47268e-21
1.28375e-21
2.38371e-22
4.35698e-22
8.06969e-21
3.38206e-21
3.93022e-22
1.47176e-21
4.51545e-22
9.13588e-22
2.04902e-21
1.97336e-21
1.41985e-21
4.83997e-21
6.56081e-21
7.81473e-22
7.0996e-21
2.25145e-21
9.20717e-22
7.73825e-22
1.21595e-21
4.62804e-22
7.38121e-22
9.41702e-22
4.55978e-21
1.69263e-21
2.04476e-21
6.96238e-22
3.90066e-22
3.03331e-22
4.17813e-21
3.6279e-21
9.94674e-22
4.76958e-21
4.11499e-21
7.66492e-22
2.21188e-21
2.19851e-22
2.09737e-22
9.9427e-22
1.62212e-21
7.95974e-23
1.67101e-21
4.55629e-22
7.98289e-22
7.80427e-22
9.56055e-22
5.61217e-22
6.62303e-21
1.27147e-21
1.976e-22
2.55104e-21
2.07822e-21
2.15293e-21
3.48103e-22
4.79555e-21
3.42769e-22
4.65066e-21
5.76078e-22
2.85071e-22
1.17274e-21
7.80071e-22
1.4278e-21
2.42583e-22
1.47869e-21
1.82758e-21
8.93557e-23
3.17991e-22
5.37229e-22
5.70271e-22
2.38245e-21
8.43372e-22
3.3168e-21
2.13144e-21
3.92101e-21
1.93107e-21
1.02174e-21
1.32908e-21
2.57072e-21
1.18276e-21
4.02042e-21
5.90015e-21
2.85805e-21
2.10964e-21
1.58407e-21
6.79054e-22
9.09193e-21
1.34594e-21
7.35902e-23
1.24871e-21
2.65491e-21
6.66921e-23
1.99547e-21
2.21101e-21
1.50372e-21
9.57561e-22
1.73036e-22
1.41288e-22
1.55896e-22
1.38317e-21
1.52969e-22
2.14267e-22
2.43702e-21
1.90823e-21
6.45066e-23
2.14066e-21
4.51714e-21
1.73899e-21
1.40405e-21
1.82092e-21
5.96283e-22
3.25287e-22
1.89575e-22
1.59815e-21
3.91584e-21
3.58634e-22
7.63121e-22
3.21498e-22
1.0193e-21
1.92194e-21
6.81792e-22
1.58371e-22
1.70538e-21
1.21977e-22
3.60213e-21
2.5355e-22
3.59109e-21
1.79891e-21
1.06954e-21
1.52383e-21
2.16564e-22
1.09682e-21
2.92143e-21
6.72259e-22
5.85873e-22
2.91867e-21
3.88015e-21
1.41023e-21
2.10717e-21
8.84633e-22
2.30769e-23
6.82919e-22
3.08305e-22
7.91682e-22
1.01188e-21
1.75804e-21
1.48787e-21
1.50713e-21
1.52994e-22
6.40662e-23
6.26989e-22
9.89943e-22
5.49222e-22
1.3393e-21
2.7122e-21
1.68446e-21
2.50049e-21
4.37018e-21
5.95823e-21
1.76171e-21
3.4777e-21
2.5713e-21
9.31093e-23
1.22678e-21
3.97835e-21
6.99877e-23
9.55074e-22
7.53303e-21
6.81507e-22
7.35682e-21
2.17182e-21
1.15186e-21
4.03732e-21
1.89253e-22
1.36011e-21
4.97902e-22
1.71473e-21
3.10604e-21
9.75128e-22
1.93209e-21
3.38409e-22
5.5991e-21
9.47627e-22
4.63468e-24
2.05683e-23
1.87168e-21
2.52628e-22
1.28308e-21
1.81765e-21
3.69017e-22
3.94151e-21
3.49295e-22
8.5178e-22
1.02353e-22
1.39654e-21
4.3307e-21
7.62371e-22
1.17835e-21
1.58384e-21
2.34215e-21
5.19483e-21
5.94933e-22
1.42768e-21
2.78838e-22
1.469e-21
8.86051e-22
1.42988e-21
3.48892e-21
1.85396e-23
2.26347e-22
6.50284e-22
1.67549e-21
1.86299e-21
5.97993e-23
5.50088e-21
1.47175e-21
5.97882e-21
1.4818e-21
8.41639e-22
1.35598e-22
8.95986e-22
1.82477e-21
5.58405e-21
4.13697e-21
6.92818e-22
2.52855e-21
8.9389e-22
1.05577e-23
1.68416e-21
5.6585e-22
1.43968e-21
1.0972e-21
1.14369e-21
9.22114e-22
2.30692e-22
1.83109e-21
1.51217e-21
1.04033e-22
4.66222e-22
5.9503e-24
1.24516e-21
3.31696e-21
8.7248e-22
6.75699e-22
4.82879e-22
7.71172e-22
6.17631e-22
1.66562e-21
1.00155e-22
1.5119e-21
4.63836e-21
4.90232e-23
2.45839e-23
8.47829e-22
2.48466e-21
2.16934e-22
1.1565e-21
2.12093e-21
1.03387e-21
1.45603e-21
2.83504e-21
3.75723e-21
5.07857e-22
4.7195e-21
3.9257e-22
2.46164e-21
4.82991e-22
3.26192e-21
2.00758e-21
2.18818e-22
1.59582e-21
9.2372e-22
5.86213e-22
1.31148e-21
6.6841e-22
5.80018e-21
8.45049e-22
3.46792e-22
3.92527e-21
4.13971e-22
1.00924e-21
2.00225e-21
8.55389e-22
1.44469e-22
6.95985e-22
7.47726e-22
2.08499e-21
7.78263e-21
2.04739e-21
2.27152e-22
4.71602e-21
1.40254e-21
4.19451e-21
1.54373e-21
3.37953e-22
3.86306e-21
6.97956e-22
3.9508e-21
1.2462e-21
4.15732e-23
2.09525e-21
1.53773e-21
7.31938e-22
7.46858e-22
3.62022e-21
3.51494e-21
3.65612e-21
2.22358e-21
8.26823e-22
1.37024e-21
1.12505e-21
2.9788e-21
1.91933e-21
3.83629e-21
5.45762e-21
1.39241e-21
1.50918e-21
5.061e-22
4.31553e-21
7.92471e-22
2.27912e-22
1.55382e-21
8.69997e-22
4.53048e-22
1.37945e-22
1.04887e-21
1.13685e-21
2.47228e-21
2.51663e-21
2.54577e-21
1.51248e-21
1.97867e-23
8.53001e-22
3.35319e-22
4.97094e-21
7.02195e-22
6.85471e-22
2.49177e-21
4.92207e-22
1.06463e-21
9.23686e-22
3.56117e-23
1.24734e-20
4.186e-21
7.97478e-22
6.93802e-22
4.44481e-22
5.49847e-22
3.0233e-22
8.17076e-22
2.73543e-21
3.74251e-21
3.74189e-21
3.74325e-21
1.48106e-21
4.95037e-23
1.59365e-21
3.10334e-21
2.3383e-21
4.29288e-21
2.07793e-21
3.92637e-21
5.31811e-21
4.61407e-21
6.87718e-22
2.44631e-21
3.66964e-22
9.71298e-22
2.62353e-21
1.23737e-21
7.20024e-22
3.79923e-21
6.4954e-22
1.86227e-21
1.18039e-21
5.07227e-22
1.41541e-21
3.92207e-22
1.66549e-23
9.69101e-22
3.14915e-21
4.00365e-21
7.96039e-22
3.32165e-22
6.58167e-22
2.07381e-21
2.72489e-21
6.76575e-22
6.41879e-22
7.62691e-21
3.62757e-21
1.68588e-21
8.22726e-21
5.42039e-21
9.88777e-22
1.68338e-21
2.08961e-22
2.61862e-22
1.3368e-21
6.84972e-22
1.45892e-22
2.6162e-21
3.18647e-22
1.24277e-22
4.2724e-21
6.91329e-21
8.93222e-23
3.01776e-22
1.51039e-21
3.89945e-21
1.25771e-21
3.40366e-21
1.62261e-21
2.04463e-21
1.35188e-21
2.05861e-21
1.68032e-21
5.57396e-22
3.60837e-21
3.89672e-21
1.00028e-21
1.85164e-22
7.48558e-21
5.04256e-21
3.42613e-22
2.3039e-21
7.63824e-23
2.62085e-22
4.58848e-22
3.76557e-22
2.03233e-21
3.04098e-21
3.82683e-21
1.41319e-21
1.02763e-21
5.10771e-21
3.30048e-21
1.12268e-21
1.40946e-22
1.92396e-21
1.96308e-21
2.5311e-22
2.78372e-21
4.75601e-23
6.47504e-21
3.3355e-23
2.83283e-21
1.40027e-21
2.94808e-22
2.61862e-21
3.01526e-21
1.89577e-21
2.34884e-22
1.94266e-22
1.20049e-21
3.58023e-21
7.56498e-22
4.09591e-22
5.26825e-21
9.14309e-22
4.12323e-22
4.65319e-21
3.49016e-21
1.55506e-21
1.84164e-23
1.02091e-21
5.02766e-22
1.10451e-21
6.40639e-22
5.14527e-22
4.23576e-21
5.44201e-21
1.87136e-21
5.09554e-22
1.6367e-21
1.44262e-21
2.18602e-21
1.72013e-21
5.8486e-21
1.12711e-21
1.75258e-22
1.30819e-21
1.44769e-21
2.34322e-22
3.87979e-22
7.1016e-22
6.33831e-22
3.58171e-22
2.82561e-22
3.10711e-22
1.21447e-21
1.03749e-21
2.51522e-22
4.45758e-22
1.13615e-21
1.63717e-21
2.65288e-22
1.97467e-21
9.07747e-22
5.12306e-21
4.62305e-21
1.50222e-21
2.28111e-21
9.33287e-22
1.36929e-21
1.09647e-22
1.1042e-21
2.91914e-21
2.48166e-22
4.1334e-21
3.85563e-21
4.07394e-21
4.06217e-21
6.96258e-21
4.24588e-21
2.57491e-21
2.37651e-22
3.24898e-21
1.4826e-21
1.13061e-21
2.7604e-21
2.30187e-21
8.67361e-22
6.10708e-22
5.47506e-22
4.55099e-22
4.18809e-21
1.5109e-22
1.16032e-21
1.40685e-21
5.30437e-22
1.46408e-21
1.0334e-21
2.05605e-21
3.11815e-21
1.00518e-21
3.98672e-21
3.05834e-21
6.14332e-21
4.1879e-21
6.76984e-22
1.37715e-21
1.02188e-21
6.47547e-22
1.04457e-21
1.63732e-21
1.98704e-21
2.1153e-21
4.24895e-22
1.68197e-21
2.34031e-23
1.09601e-21
4.04493e-21
1.19757e-21
4.45526e-21
5.00677e-21
4.44382e-21
6.63908e-21
1.71378e-21
2.81108e-21
5.53456e-21
4.01886e-22
2.59084e-21
8.25982e-21
1.44737e-21
1.52607e-21
3.63911e-21
1.76544e-21
3.37301e-22
3.17017e-21
1.11684e-21
1.40908e-21
2.09724e-21
9.74667e-22
4.6495e-21
2.43429e-22
1.93411e-21
1.91981e-21
4.03165e-22
6.68815e-22
2.01819e-21
1.6861e-21
3.51218e-21
1.58555e-23
9.92615e-22
4.2754e-21
3.10457e-21
8.16579e-21
4.11342e-21
5.43088e-22
3.46304e-21
3.07299e-22
6.27523e-22
6.29915e-22
1.82904e-21
2.5262e-21
1.84125e-21
1.901e-21
1.56766e-21
1.78445e-21
1.55112e-22
6.88752e-22
1.23407e-21
1.82505e-21
6.38918e-22
2.47148e-21
6.53303e-22
4.50147e-21
1.86833e-21
1.84974e-21
1.05017e-21
4.58576e-22
4.17441e-21
2.99102e-21
4.16917e-21
7.22586e-22
5.68717e-21
3.31073e-21
4.41077e-21
1.57515e-21
2.45892e-22
6.55859e-22
3.03739e-22
1.88431e-22
1.05547e-21
3.88572e-22
1.09345e-21
8.07818e-21
8.41015e-21
4.07318e-21
1.016e-21
3.57538e-22
1.40185e-22
6.4111e-22
8.44969e-21
4.29769e-21
2.17895e-22
7.22772e-22
2.94299e-21
1.31201e-21
4.81794e-23
8.89816e-22
4.63284e-21
5.33679e-21
3.51876e-21
3.09048e-21
2.01998e-22
9.36655e-22
6.47407e-22
9.71197e-22
3.81111e-21
1.66912e-21
3.29002e-21
3.93956e-21
1.38021e-21
2.29545e-21
9.35838e-23
1.87441e-21
1.83104e-21
4.09113e-21
1.0413e-21
2.82197e-21
3.40614e-21
9.32016e-22
2.80546e-21
9.65181e-23
1.57321e-21
5.50269e-21
1.18542e-21
8.53536e-21
1.34367e-21
2.8884e-21
5.33399e-21
9.07612e-22
2.37796e-22
4.42057e-22
5.51253e-22
4.71472e-21
3.37375e-21
4.24615e-22
2.43656e-21
2.17119e-21
4.10527e-22
8.6592e-21
3.82166e-22
3.97263e-21
1.12657e-20
3.48376e-22
8.24243e-22
8.79602e-22
2.56324e-21
4.06797e-21
3.09283e-21
4.00502e-22
6.74041e-22
2.8762e-21
4.37959e-21
7.69111e-21
2.11649e-21
9.84009e-22
1.22184e-21
6.46617e-21
4.30949e-21
6.21653e-22
1.69413e-21
1.87671e-21
1.72377e-23
1.23984e-22
1.59748e-21
2.7776e-21
8.74048e-22
1.69373e-21
3.4215e-21
1.99253e-21
9.89832e-22
1.10539e-21
9.88324e-23
7.64435e-22
2.60543e-21
8.98022e-22
2.94641e-21
2.67466e-21
2.8543e-21
3.82631e-22
6.66879e-22
5.30359e-22
1.02404e-21
5.07926e-22
9.71761e-22
7.0177e-21
1.2151e-21
3.21274e-21
1.77856e-21
5.30407e-22
1.60103e-21
1.64752e-21
1.09649e-21
2.06126e-21
3.3283e-22
2.06037e-21
2.20055e-22
1.37875e-21
1.62868e-21
3.02782e-21
6.76922e-22
2.66431e-21
9.06805e-21
3.63608e-21
5.04381e-21
1.22668e-21
4.24786e-21
2.26627e-21
1.64139e-21
1.75341e-21
4.27576e-22
8.16606e-22
2.31671e-21
7.85926e-22
3.19145e-21
1.58683e-21
1.31376e-21
1.00735e-21
3.059e-21
1.58322e-22
3.59778e-21
6.13302e-22
1.07019e-21
2.60958e-21
4.89145e-21
1.58693e-21
1.87395e-22
3.37594e-22
2.59905e-21
4.49546e-21
2.66243e-21
3.40373e-22
1.22664e-21
1.78448e-21
8.25575e-22
7.21882e-21
4.01474e-21
2.18932e-21
1.88209e-21
2.72257e-21
6.70246e-21
5.12556e-21
2.30735e-22
7.53336e-22
1.88942e-21
1.61152e-22
2.02432e-21
1.96476e-21
7.54613e-23
3.07708e-21
1.84885e-21
3.15928e-22
8.11961e-22
3.0421e-22
1.60231e-22
2.19469e-22
3.45376e-22
3.94365e-21
2.14223e-21
3.35147e-22
8.40822e-22
3.1264e-21
1.44569e-23
6.82709e-21
4.26385e-23
7.99803e-22
1.55453e-21
9.49447e-22
1.70656e-21
3.72188e-21
7.60525e-23
1.17738e-21
8.9714e-21
4.80951e-21
2.33853e-21
2.20109e-21
3.49159e-21
1.37084e-21
7.25805e-22
2.29351e-21
2.98291e-21
5.39961e-21
1.62034e-21
7.48533e-23
1.04475e-22
8.56094e-22
2.84854e-21
6.13858e-22
6.43008e-22
2.49747e-21
1.05652e-21
2.89389e-21
7.62396e-22
8.32595e-22
4.13348e-21
1.81568e-21
3.12789e-22
1.84054e-21
7.43619e-21
6.37483e-22
3.21023e-21
1.60392e-22
2.60745e-21
3.28256e-21
1.63284e-21
3.41384e-22
8.50389e-22
8.2285e-22
6.62122e-22
9.28493e-22
5.71936e-21
4.9478e-22
1.96887e-21
2.01396e-21
4.88664e-22
1.03452e-21
2.25436e-21
1.36165e-21
2.52322e-21
3.35391e-22
1.75159e-21
1.69007e-21
1.34194e-21
3.41902e-22
9.33903e-21
4.17825e-22
5.66946e-23
3.88614e-22
4.14549e-21
1.07418e-21
3.68297e-21
1.58475e-21
6.88816e-23
1.97049e-21
3.65337e-21
8.81097e-23
2.18586e-21
7.46493e-22
5.48004e-22
1.12598e-21
2.87139e-23
1.98907e-21
3.59819e-25
9.89053e-22
2.7559e-22
4.93024e-22
2.14646e-21
1.79483e-21
2.45934e-22
8.80681e-22
7.11103e-22
2.06448e-21
3.51243e-21
8.89772e-22
1.96252e-21
3.36203e-21
7.90859e-22
2.10019e-22
1.77139e-21
2.03705e-21
1.19243e-22
2.55593e-21
2.19464e-22
2.31578e-21
1.16706e-21
8.00265e-22
2.16095e-21
4.82187e-22
2.48422e-21
9.3498e-21
3.05237e-21
2.77436e-21
2.56726e-21
4.81827e-22
1.34953e-21
5.1095e-23
1.55736e-21
3.84234e-21
3.21608e-21
9.12903e-22
1.60751e-21
3.27116e-21
1.86596e-21
2.1696e-21
2.48299e-21
3.51774e-22
1.87035e-21
1.99314e-21
6.86164e-22
1.99381e-21
3.27712e-21
1.50807e-21
9.79322e-22
1.63511e-21
3.29508e-23
5.33527e-21
7.44597e-22
2.23811e-21
6.03134e-21
5.81393e-23
2.97945e-21
4.79204e-21
1.62605e-21
3.27318e-21
6.31836e-22
3.59057e-21
2.77546e-22
1.03642e-21
1.56419e-22
7.14684e-21
1.83024e-21
1.86406e-21
2.31436e-21
2.05089e-22
1.10677e-21
7.70466e-22
1.01531e-21
3.77321e-22
4.8865e-21
5.20869e-21
1.33166e-21
1.83914e-21
1.71639e-21
2.43886e-21
7.76031e-21
1.27319e-21
1.19562e-21
1.50636e-21
8.42598e-21
2.33086e-21
2.83458e-22
2.90644e-21
1.4985e-21
4.35115e-21
6.59121e-22
1.83569e-21
1.6581e-21
1.49604e-21
1.43103e-21
1.97644e-21
6.23059e-21
6.52051e-22
1.86865e-22
7.09693e-22
4.20499e-22
2.59705e-22
1.82432e-21
2.41589e-21
3.95227e-21
2.43449e-21
6.70044e-21
2.6863e-22
4.01413e-22
2.6624e-21
7.92848e-21
4.75354e-21
1.50647e-21
1.0214e-22
8.45641e-22
7.19821e-22
1.05544e-21
2.96864e-21
2.00834e-21
3.25646e-21
2.14159e-21
3.85929e-21
2.96869e-21
2.25908e-21
1.47821e-21
3.06042e-21
8.97156e-22
7.76492e-22
1.25917e-21
3.68868e-21
3.82903e-21
1.19887e-21
3.29399e-21
3.45856e-23
4.04166e-21
4.66579e-21
3.74656e-21
2.24183e-22
9.80619e-21
1.13125e-21
8.21809e-22
1.22389e-21
5.15713e-22
1.24851e-21
6.1946e-21
1.14022e-20
2.45209e-21
1.26267e-21
9.28714e-21
2.09508e-22
2.71201e-21
1.03133e-22
2.07776e-21
1.87081e-22
7.52565e-21
5.57426e-21
1.4211e-22
1.3031e-21
5.18809e-23
2.90769e-21
2.25012e-21
4.709e-21
4.02598e-22
5.93988e-21
1.47429e-21
9.65585e-22
1.71206e-21
6.22556e-22
3.40531e-21
2.64831e-22
1.96362e-21
7.68714e-22
2.13156e-21
3.52601e-22
4.34213e-22
2.102e-22
2.57902e-21
4.58922e-22
1.96397e-22
1.38159e-22
4.1373e-22
2.21158e-21
1.57735e-21
3.2459e-22
7.9087e-22
5.5081e-23
3.41555e-21
6.49735e-23
1.14346e-21
1.36501e-21
2.35749e-21
3.75742e-21
1.55265e-22
4.07271e-21
6.48072e-22
3.35705e-21
2.66432e-22
1.16251e-21
1.13986e-21
6.44958e-22
1.62153e-21
2.97922e-21
1.31383e-21
1.45046e-21
5.16584e-22
3.12238e-21
1.87093e-22
5.35659e-22
1.64841e-21
1.51949e-21
3.99405e-21
1.29743e-21
1.07487e-21
4.31967e-22
1.51143e-21
1.36387e-21
2.66206e-21
1.43344e-21
7.78724e-22
1.10208e-21
2.49212e-21
3.28593e-22
8.35276e-22
6.7331e-22
4.54499e-21
4.5304e-22
1.27344e-21
8.08726e-22
1.9929e-21
3.23961e-22
3.6413e-22
9.87274e-22
1.17291e-21
2.34002e-21
1.59308e-21
1.91705e-21
1.61255e-22
1.71392e-21
7.53239e-21
1.03625e-21
3.86552e-21
7.72942e-22
6.48526e-22
1.06502e-21
7.11989e-21
2.65383e-21
1.69284e-22
7.20367e-22
3.05594e-22
5.50807e-23
3.65295e-21
4.92092e-23
3.26645e-21
8.01586e-22
3.72796e-21
5.70303e-22
8.92215e-22
2.52566e-22
7.44635e-23
1.13894e-21
4.54678e-21
3.37183e-22
2.18433e-21
9.34827e-22
1.10947e-21
3.76553e-21
1.26846e-21
4.49889e-22
6.27938e-21
7.63767e-22
1.16407e-21
6.50989e-22
3.70171e-21
1.69492e-21
1.32676e-22
5.04244e-21
1.72696e-21
2.17207e-23
2.12225e-23
1.56017e-21
3.07344e-21
1.61083e-22
1.44218e-21
2.30162e-21
3.2159e-21
1.79312e-22
2.02995e-22
5.48951e-21
1.54662e-21
6.8179e-22
1.39973e-21
2.31857e-21
4.01125e-21
5.01522e-22
1.03281e-21
1.16265e-21
1.7966e-21
1.14344e-21
2.02343e-21
1.55139e-21
8.98432e-22
1.64731e-21
5.28056e-21
8.63474e-22
5.71019e-21
1.03731e-21
3.30577e-21
2.47597e-21
1.35274e-22
2.30652e-21
1.85519e-22
5.91263e-23
5.29967e-21
2.52947e-21
1.34512e-21
3.16681e-22
6.37405e-22
4.29616e-21
4.04098e-21
5.02943e-22
4.5065e-21
5.94156e-21
8.32022e-22
3.02237e-22
2.11847e-22
1.65552e-21
1.3147e-22
5.78446e-22
6.52121e-22
3.28673e-21
7.40721e-22
6.13712e-23
3.92803e-21
6.97341e-22
4.44555e-22
3.83874e-22
9.27864e-22
9.6386e-22
3.08697e-21
1.47427e-21
3.38008e-21
6.64174e-21
1.96489e-22
1.73941e-21
5.32014e-21
1.22829e-21
9.94853e-21
6.65006e-21
3.34997e-22
7.84864e-22
1.14114e-21
2.33119e-22
1.13512e-22
1.66239e-21
3.56362e-21
1.87258e-21
1.01302e-21
2.54446e-22
2.55517e-21
2.29191e-21
1.46199e-21
1.83781e-22
2.79548e-21
3.64356e-21
4.40274e-21
5.84665e-22
1.09866e-21
1.60623e-21
7.18821e-22
4.88369e-21
7.72637e-22
2.58937e-21
5.9705e-22
3.50252e-21
6.84639e-21
9.14897e-23
1.97447e-21
2.16311e-21
9.4187e-23
3.31637e-22
8.65575e-23
6.50711e-23
1.37586e-22
4.13369e-21
5.29833e-22
1.3087e-21
6.50078e-22
4.06336e-21
1.49234e-21
5.01279e-21
9.82076e-22
1.07414e-21
1.37312e-21
2.61947e-21
6.6644e-22
6.28925e-22
4.05539e-21
9.80601e-22
2.19977e-21
4.42447e-22
3.775e-22
1.62102e-22
2.06329e-21
4.39623e-21
3.39693e-21
1.05021e-21
1.14099e-21
1.61929e-21
5.02305e-22
6.82288e-22
5.59002e-22
2.28272e-22
8.52407e-21
1.32776e-21
1.96527e-21
1.73218e-21
1.59939e-22
1.15504e-21
3.24692e-22
7.27598e-21
1.71267e-21
1.65623e-21
2.41679e-21
9.56671e-23
4.30538e-22
1.22986e-21
1.10592e-21
1.02739e-20
1.0765e-21
3.61836e-21
2.32698e-21
2.5658e-22
4.44364e-21
1.7631e-21
4.34378e-21
3.52218e-21
3.25237e-21
4.0515e-22
2.78427e-21
5.86646e-21
2.32063e-21
3.0816e-21
5.45017e-21
6.64745e-22
1.02367e-21
1.33936e-23
3.10077e-21
5.20937e-22
1.12594e-21
1.34732e-21
5.41792e-22
1.53961e-21
4.25245e-22
1.14986e-22
1.9476e-21
4.71341e-22
3.5689e-21
8.51584e-22
2.70388e-21
2.51951e-21
6.06788e-22
1.08951e-21
6.87919e-22
4.07581e-22
3.43825e-21
1.31436e-21
3.46373e-21
1.11501e-21
1.88874e-21
2.82354e-21
9.14097e-22
7.84416e-21
2.57374e-22
7.88371e-22
2.95835e-21
1.21262e-21
7.507e-22
3.16999e-22
1.89413e-22
2.92249e-21
1.8327e-21
9.54226e-22
2.65272e-21
5.98078e-22
1.76507e-21
1.95707e-21
7.39375e-22
4.73641e-22
1.04555e-21
1.60954e-21
3.65263e-22
1.62467e-21
5.53561e-22
5.57361e-22
4.1657e-21
9.44026e-22
2.21876e-22
4.90469e-21
1.74755e-21
3.8279e-21
6.92888e-22
9.9768e-23
2.92006e-23
1.54293e-21
1.37922e-21
8.35181e-22
7.13376e-22
2.11769e-21
2.79134e-21
4.57699e-21
4.01546e-21
4.6721e-21
5.16963e-23
9.70547e-22
9.71614e-22
1.32778e-21
4.55971e-22
3.80051e-21
2.18314e-21
1.98666e-21
4.87323e-22
7.18278e-22
1.06905e-21
5.26239e-22
7.80896e-21
1.95088e-21
1.49158e-22
1.30785e-21
1.14695e-21
2.65945e-22
1.1362e-21
8.73844e-22
1.11206e-21
5.65768e-21
1.29206e-21
5.726e-21
1.37445e-21
9.99858e-21
8.87083e-22
1.76482e-21
3.16914e-22
1.56059e-22
2.95956e-21
1.65403e-21
1.10705e-20
2.99587e-22
6.36805e-22
2.87745e-23
2.06725e-21
1.67772e-21
7.20996e-22
9.95828e-22
1.63442e-21
2.55283e-21
1.12974e-21
1.66149e-21
6.65826e-22
1.53663e-21
1.04062e-22
2.49359e-21
1.22917e-21
3.46676e-21
2.08075e-21
4.50318e-22
7.637e-23
9.43218e-22
1.02599e-21
4.92092e-22
9.23989e-22
6.24817e-22
1.30752e-21
4.64358e-21
1.96539e-22
9.51389e-22
2.20373e-22
3.24375e-22
6.16903e-21
1.56219e-21
1.71359e-22
3.906e-22
4.25033e-22
1.61995e-21
6.90383e-22
3.52569e-22
1.63121e-21
4.015e-22
1.79063e-22
1.87155e-21
8.94902e-22
1.80039e-21
1.18476e-21
1.20063e-21
1.48933e-22
2.8281e-21
4.12779e-21
8.44256e-22
1.37595e-21
2.21809e-21
2.83842e-21
2.40043e-21
3.30006e-21
1.65726e-21
1.97816e-22
2.21622e-21
9.24287e-23
4.00362e-21
6.94109e-22
9.79066e-22
2.45329e-21
1.21114e-21
3.43366e-21
1.88647e-21
1.79962e-22
2.63e-21
2.97294e-21
1.37543e-21
5.97088e-21
2.30282e-21
2.66529e-21
2.27517e-22
1.52378e-21
6.63616e-21
1.23941e-21
2.07539e-21
2.69439e-24
1.118e-21
1.39587e-22
1.49012e-21
1.38763e-21
4.00266e-21
6.52535e-23
1.52446e-21
6.23718e-22
2.71339e-21
4.64883e-21
4.29401e-21
1.35956e-21
1.68015e-21
1.03592e-21
1.49556e-21
7.98951e-22
1.84916e-21
5.78398e-21
1.52731e-22
2.1255e-21
7.88242e-22
5.79202e-22
7.43151e-22
1.87704e-21
1.05883e-21
5.27904e-21
4.24772e-22
3.80214e-23
9.35108e-22
1.39057e-21
4.45565e-22
2.11648e-21
1.85304e-21
1.61042e-21
1.15179e-21
4.26648e-22
4.69535e-21
9.68459e-22
1.22538e-21
2.24007e-21
2.5951e-21
1.49409e-21
2.11974e-21
1.151e-21
1.22489e-21
1.99721e-21
8.54539e-22
1.68333e-21
1.17032e-21
1.32075e-21
2.51725e-22
7.11152e-22
1.86691e-21
3.82511e-21
2.77096e-21
7.46757e-22
3.55517e-21
6.65405e-22
8.28227e-22
2.53253e-22
6.11083e-22
8.47317e-22
1.34013e-21
1.23748e-21
4.39737e-22
2.93864e-21
4.81539e-22
2.7113e-21
1.44297e-21
4.09281e-21
2.51633e-22
3.59886e-21
1.81016e-21
2.05173e-22
1.51679e-22
1.92694e-22
2.08525e-21
5.98266e-22
3.718e-21
3.37731e-22
7.49314e-23
1.74294e-21
4.54303e-22
2.22327e-21
6.23138e-22
3.59909e-21
8.18202e-23
3.70342e-21
6.1838e-22
8.81892e-22
1.14309e-21
6.81184e-21
9.54559e-22
1.40373e-22
4.92453e-22
6.51218e-21
7.48925e-23
3.33418e-22
1.81679e-21
1.48634e-21
2.8583e-22
6.53702e-22
1.34565e-22
2.42509e-21
9.12244e-22
4.16952e-21
4.94346e-23
2.9872e-21
2.00465e-21
1.47267e-21
7.61529e-22
1.19531e-21
1.25707e-21
1.48294e-21
2.74614e-21
4.33615e-21
7.49894e-22
2.13188e-21
2.74952e-21
2.77681e-21
1.99098e-21
1.74069e-21
8.49377e-21
2.3228e-21
2.83898e-21
8.1784e-21
6.13369e-21
1.91429e-22
2.66448e-21
3.00347e-21
1.17479e-21