/*--------------------------------*- C++ -*----------------------------------*\
  =========                 |
  \\      /  F ield         | OpenFOAM: The Open Source CFD Toolbox
   \\    /   O peration     | Website:  https://openfoam.org
    \\  /    A nd           | Version:  7
     \\/     M anipulation  |
\*---------------------------------------------------------------------------*/
FoamFile
{
    version     2.0;
    format      ascii;
    class       volScalarField;
    location    "0.2/fluid";
    object      rho;
}
// * * * * * * * * * * * * * * * * * * * * * * * * * * * * * * * * * * * * * //

dimensions      [1 -3 0 0 0 0 0];

internalField   nonuniform List<scalar> 
200
(
0.000988892067988707
0.000989695149179125
0.000994884600766656
0.000998788448994806
0.00100044542800952
0.000999800421399389
0.000999447861181531
0.000999506817449559
0.000999918949857355
0.00100064798473887
0.0010003559089819
0.0010003001245974
0.00100002072063692
0.000995598431117302
0.000987020226541639
0.00098328101730674
0.000983910964175237
0.00098483908625874
0.000990889298758039
0.00100212054244671
0.00100375544352711
0.00100627673283333
0.00100652586372217
0.00100350610295564
0.000993126279149237
0.000983987061702231
0.000984262092245352
0.000981274012935575
0.000978528635107481
0.000979453264048008
0.000979603241181744
0.000979444865499033
0.000982014563688042
0.00098707883895709
0.000988301554851362
0.000987715479117959
0.000986873195654069
0.000985519724121044
0.000984345722152171
0.000983136270343032
0.00098370216246429
0.000986090379488365
0.000997634216352392
0.00101252072181963
0.00101570941472182
0.0010164315608171
0.00101009821979516
0.000995205005144488
0.000988203824833125
0.000990984694220667
0.000990147250521618
0.000989072102703638
0.000989921943925315
0.000991843477555503
0.000991558181118518
0.000991295993027831
0.000991694745557954
0.000994014298626791
0.000995645903766987
0.000993394572745913
0.000989627908416706
0.000988047331921799
0.000987984655642986
0.000987480999073462
0.000987327497950243
0.000988387882014859
0.000988787014637449
0.000987864598341899
0.000987116269556202
0.000987161800212366
0.000989060457919267
0.000993360498148988
0.000995836411815661
0.000994803512350866
0.000993407803687869
0.000990992140575993
0.000990569454021305
0.000990310955103547
0.000989306127730749
0.000988928538991956
0.000990942117041298
0.000993939618927699
0.000995242536422023
0.000993679159063203
0.000991733373440495
0.000990259013223271
0.00099074921475985
0.000989690186224526
0.000988656646670727
0.000989241180617787
0.000990804761528069
0.000992268134240124
0.000993291847951534
0.000994402977753857
0.000995791273265452
0.000998315155508058
0.000999822464522838
0.000998429855953088
0.00099561814728369
0.000990595728905985
0.000988990152000942
0.000986826144074048
0.000984910372737206
0.000985334096490633
0.000989743800856647
0.000995609590424036
0.000997184299146608
0.000994241083614338
0.000991169079998637
0.000986576857389251
0.000985220307922958
0.000981948305731128
0.000980288739875291
0.000982236196988833
0.000988767606374846
0.000994100867953247
0.000992374297460324
0.000992358350187022
0.000989682903145432
0.000984008403764748
0.000980501117149978
0.000975334898481667
0.000972919121049593
0.00097803326625405
0.000990799248502943
0.001003195498808
0.000999297351565416
0.000997296844498939
0.000989545773900871
0.000987002237535348
0.000987258794611148
0.000989097827409057
0.000990877225202446
0.000994007095975546
0.000996480935472594
0.000995498158673983
0.000993678243366027
0.000994795615570809
0.000999427102240324
0.00100245782342758
0.00100014746757886
0.000997569185789482
0.000999365596604533
0.00100116032029767
0.00100016019800462
0.000996499453861919
0.000991801559303016
0.000990718229159873
0.000992507579263076
0.000995167066380206
0.000992809795935241
0.000989954635725674
0.00098805896536015
0.000984483788110881
0.000982269014609917
0.000984209108172076
0.00098739070245278
0.000989114270980171
0.000989024488662185
0.000995008268495954
0.00100884445775134
0.00101483714870693
0.00101094906307692
0.00100289608751989
0.000996655442324312
0.000995131926841743
0.000990869486730233
0.000987175001310842
0.00098798252180413
0.000987250519142004
0.000982443363164034
0.000977116880607565
0.000974855994595857
0.000974270528588036
0.000972041616964253
0.000973859342034892
0.000982664095250159
0.000990779656712495
0.000992628100539336
0.000989328112341701
0.000992827234759325
0.00100091259753235
0.00100628911973288
0.00100176689601417
0.000992169335126048
0.00098447396935423
0.000982603127393323
0.000990080776979057
0.000995948820161089
0.000997846032027762
0.000994013190289327
0.000995216916618741
0.000997404565443025
0.000998851641380921
0.000996228512109255
0.000994365025659791
0.000993125227878975
0.00099740019756688
0.00100290867304485
0.00106303924068173
)
;

boundaryField
{
    fluidSide
    {
        type            calculated;
        value           uniform 0.000988892067988707;
    }
    fluidBound
    {
        type            calculated;
        value           uniform 0.000987442999535302;
    }
    nullDims
    {
        type            empty;
    }
}


// ************************************************************************* //
