/*--------------------------------*- C++ -*----------------------------------*\
  =========                 |
  \\      /  F ield         | OpenFOAM: The Open Source CFD Toolbox
   \\    /   O peration     | Website:  https://openfoam.org
    \\  /    A nd           | Version:  7
     \\/     M anipulation  |
\*---------------------------------------------------------------------------*/
FoamFile
{
    version     2.0;
    format      ascii;
    class       volScalarField;
    location    "0.2/fluid";
    object      T;
}
// * * * * * * * * * * * * * * * * * * * * * * * * * * * * * * * * * * * * * //

dimensions      [0 0 0 1 0 0 0];

internalField   nonuniform List<scalar> 
200
(
0.00339761011730816
0.00339857089831094
0.00340477625734952
0.00340941314196346
0.0034113742009002
0.00341059892589437
0.00341017395558507
0.00341024347300966
0.00341073443554826
0.00341160256630413
0.00341125328894495
0.00341118599124455
0.00341085242624986
0.00340558018745572
0.00339527589403403
0.00339077972100538
0.00339154079840938
0.00339266151879562
0.00339994905440317
0.00341333881013689
0.00341528653000096
0.003418290958971
0.00341859119356349
0.00341501112466502
0.00340263873777933
0.00339163980044333
0.00339196878378497
0.00338836646624973
0.00338504706559205
0.00338616406268864
0.00338634183484733
0.00338614878668087
0.0033892521445683
0.00339534611328914
0.00339681451173426
0.00339611032414955
0.00339509772535277
0.00339346920882827
0.00339205449141236
0.00339059655665456
0.00339127774360962
0.00339415534995236
0.00340805389273981
0.0034256864775851
0.00342946226700423
0.00343030868571202
0.00342284303425454
0.00340506383579496
0.00339667119486422
0.00340000785152818
0.00339900000688655
0.00339771297257092
0.00339873561845446
0.00340105021599877
0.00340071790451191
0.00340041581452534
0.00340089955734481
0.00340368440177647
0.00340563436791584
0.00340293693626363
0.00339841376546914
0.00339650621668894
0.00339641900397696
0.00339580743766317
0.00339561884309228
0.00339689155617318
0.00339737218141081
0.00339626772218012
0.00339537480658539
0.0033954337663379
0.00339772172840631
0.00340288151893789
0.00340585073049766
0.00340462055146021
0.00340295689710246
0.00340006633273032
0.00339956551037203
0.0033992623674268
0.00339806276802806
0.00339761254393765
0.00340003047505418
0.00340362213968014
0.00340517758791728
0.00340330439663187
0.00340097002134199
0.00339919687702566
0.00339977733792648
0.00339849722865344
0.00339725060676265
0.00339794793501
0.00339981819986455
0.0034015693428696
0.00340279402306915
0.00340412316839827
0.0034057825888917
0.00340879838628864
0.00341059774980907
0.00340893788047703
0.00340558219498478
0.00339956637578168
0.00339763924580864
0.00339503752749157
0.00339273334825941
0.00339324555937341
0.00339854945494984
0.00340557389488611
0.00340745321837582
0.00340393835733276
0.00340026043003964
0.00339474762259904
0.00339311376253546
0.00338916455994795
0.00338715382143446
0.00338950157648498
0.0033973573994835
0.00340374689700665
0.00340167969837493
0.00340165640537778
0.00339844546628332
0.00339160669129477
0.00338737937189258
0.00338114600622456
0.00337821313953236
0.00338440490608002
0.00339979455267947
0.00341458372787918
0.00340995033069749
0.00340756644390779
0.00339827730721239
0.00339522948628098
0.0033955450942814
0.00339775990084922
0.00339989608873324
0.00340363975968941
0.00340659890920445
0.00340541846658919
0.00340323909538607
0.00340457350848615
0.00341009975763018
0.00341370884895438
0.00341095899563923
0.00340788465443954
0.00341003335742844
0.00341217627405845
0.00341098703377911
0.00340662268012472
0.00340099916652852
0.0033997004669694
0.00340184844683477
0.00340503102972743
0.00340220894824735
0.00339878500550485
0.00339650787227547
0.00339220001686651
0.00338952896157993
0.00339186224417534
0.00339569025281474
0.00339775761385063
0.00339764713187203
0.00340483444224394
0.00342126972384125
0.00342836042523461
0.00342376238126641
0.00341420376423514
0.00340674596667067
0.0034049161789746
0.00339981036472947
0.00339537038169811
0.0033963427374908
0.00339545951382952
0.00338967318744212
0.00338323653336664
0.00338049749825249
0.00337978079624772
0.00337708340319157
0.00337929245419388
0.00338992823685386
0.00339968927773666
0.0034018910470467
0.00339792188271607
0.00340208843834612
0.00341172923700314
0.00341811702186462
0.00341270743162246
0.00340117735548937
0.00339188629608028
0.00338958103933818
0.00339849589860746
0.00340540198602294
0.0034075653255376
0.00340289121999558
0.00340414612895343
0.00340657479881045
0.00340812392832956
0.00340474974323551
0.00340237013022862
0.00340085703367192
0.00340600135434985
0.00341284744790844
0.00348375915571249
)
;

boundaryField
{
    fluidSide
    {
        type            zeroGradient;
    }
    fluidBound
    {
        type            codedFixedValue;
        value           uniform 0.00347299484121927;
        name            HPCFluidT;
    }
    nullDims
    {
        type            empty;
    }
}


// ************************************************************************* //
