/*--------------------------------*- C++ -*----------------------------------*\
  =========                 |
  \\      /  F ield         | OpenFOAM: The Open Source CFD Toolbox
   \\    /   O peration     | Website:  https://openfoam.org
    \\  /    A nd           | Version:  7
     \\/     M anipulation  |
\*---------------------------------------------------------------------------*/
FoamFile
{
    version     2.0;
    format      ascii;
    class       volVectorField;
    location    "0.001";
    object      fDMean;
}
// * * * * * * * * * * * * * * * * * * * * * * * * * * * * * * * * * * * * * //

dimensions      [1 -1 -2 0 0 0 0];

internalField   uniform (0 0 0);

boundaryField
{
    flow
    {
        type            calculated;
        value           uniform (0 0 0);
    }
    obstacle
    {
        type            calculated;
        value           nonuniform List<vector> 
30
(
(0.4524682949 -0.4402406483 -0.03396689789)
(0.4015830713 -0.4801177727 -0.03276611257)
(0.3468539271 -0.3259107084 0.00573197698)
(0.5661847926 -0.5403062846 0.003381816584)
(0.4337714685 -0.4841766353 0.003828813451)
(0.5104812703 -0.5663699322 0.0009309354435)
(0.5276630782 -0.5597981678 0.02647113778)
(0.5447777279 -0.5802943949 0.03021906582)
(0.4545291891 -0.4590932415 -0.01329994405)
(0.4069301631 -0.4444380465 0.007668951506)
(0.4942121335 -0.4907102937 0.01087655236)
(0.6150765567 -0.5918782756 -0.01034226715)
(0.591607067 -0.5535665674 -0.007035145024)
(0.5327978393 -0.6088187872 0.004242884219)
(0.4737657099 -0.5490367084 0.0241241186)
(0.4885999342 -0.5740905331 -0.02829795817)
(0.6352977495 -0.6344782134 -0.01810322591)
(0.5208651169 -0.5671155081 -0.02495070342)
(0.5360085878 -0.5833406928 0.003440526735)
(0.531176317 -0.5775376862 0.02650031231)
(0.635509972 -0.627091812 -0.04220235689)
(0.5701178019 -0.5279853545 -0.002123508686)
(0.6350478066 -0.6468134007 0.05069483989)
(0.6524043133 -0.6446237861 -0.04434437435)
(0.5390544681 -0.6140650115 0.00712783776)
(0.675026487 -0.7534963574 0.01890366244)
(0.6349138919 -0.6363525071 0.01116915623)
(0.6016549369 -0.725874554 -0.01017391442)
(0.7061318809 -0.7345447546 -0.00576903588)
(0.6368600336 -0.7702416485 0.01448990593)
)
;
    }
    frontAndBack
    {
        type            empty;
    }
    procBoundary1to0
    {
        type            processor;
        value           uniform (0 0 0);
    }
    procBoundary1to3
    {
        type            processor;
        value           uniform (0 0 0);
    }
}


// ************************************************************************* //
