/*--------------------------------*- C++ -*----------------------------------*\
  =========                 |
  \\      /  F ield         | OpenFOAM: The Open Source CFD Toolbox
   \\    /   O peration     | Website:  https://openfoam.org
    \\  /    A nd           | Version:  7
     \\/     M anipulation  |
\*---------------------------------------------------------------------------*/
FoamFile
{
    version     2.0;
    format      ascii;
    class       volScalarField;
    location    "0.001";
    object      iDofMean;
}
// * * * * * * * * * * * * * * * * * * * * * * * * * * * * * * * * * * * * * //

dimensions      [0 -3 0 0 0 0 0];

internalField   nonuniform List<scalar> 
546
(
5.746668365e+20
5.663899262e+20
5.719692207e+20
5.768522411e+20
5.446919302e+20
5.499540372e+20
5.469429754e+20
5.373114667e+20
5.516949233e+20
5.506922124e+20
5.092457797e+20
5.199916989e+20
5.428154821e+20
5.239539126e+20
5.349332838e+20
5.327852002e+20
5.036621996e+20
5.014725826e+20
5.119610221e+20
5.239312745e+20
5.185471014e+20
4.959938336e+20
4.780748101e+20
5.02202742e+20
4.96542644e+20
4.883638579e+20
4.545384488e+20
4.727325502e+20
4.150494128e+20
3.432441216e+20
5.139606977e+20
5.145013591e+20
5.21197333e+20
4.989079149e+20
4.807655097e+20
5.005848574e+20
5.041411912e+20
5.060025862e+20
5.121349418e+20
5.170185168e+20
4.827134839e+20
4.717747305e+20
4.836833257e+20
4.804109368e+20
4.85634824e+20
4.716880611e+20
4.83737325e+20
4.721038384e+20
4.6192788e+20
4.841581615e+20
4.822177854e+20
4.694786072e+20
4.467273965e+20
4.628079428e+20
4.407904875e+20
4.347482086e+20
4.211686752e+20
3.915104866e+20
3.92806558e+20
3.259223731e+20
4.749257077e+20
4.868847088e+20
4.854521027e+20
4.739051734e+20
4.63940335e+20
4.773440826e+20
4.82458708e+20
4.66795544e+20
4.63423736e+20
4.630253171e+20
4.650414252e+20
4.600621066e+20
4.60119014e+20
4.377110487e+20
4.69935315e+20
4.377620095e+20
4.347383988e+20
4.42068788e+20
4.340168302e+20
4.355234108e+20
4.415773193e+20
4.361754818e+20
4.333539263e+20
4.249781424e+20
4.193389741e+20
4.054134163e+20
3.924551485e+20
3.911189198e+20
3.745154794e+20
3.336145973e+20
4.56529908e+20
4.606692302e+20
4.594058966e+20
4.628947922e+20
4.498885401e+20
4.560594454e+20
4.677690609e+20
4.659915396e+20
4.65806867e+20
4.555796356e+20
4.620880131e+20
4.57280358e+20
4.773863906e+20
4.484728095e+20
4.574357056e+20
4.43206309e+20
4.46429014e+20
4.470404602e+20
4.437340102e+20
4.415180478e+20
4.264882987e+20
4.207966506e+20
4.307327258e+20
4.241686599e+20
4.082320992e+20
3.894825368e+20
3.872445861e+20
4.022505946e+20
3.6378923e+20
3.302528094e+20
4.33153782e+20
4.44352355e+20
4.512095377e+20
4.538112267e+20
4.506281082e+20
4.586676289e+20
4.629820193e+20
4.642889418e+20
4.386391688e+20
4.502956032e+20
4.47272534e+20
4.596228835e+20
4.608569364e+20
4.433646928e+20
4.313365211e+20
4.400808778e+20
4.387030425e+20
4.300752703e+20
4.288998043e+20
4.25879864e+20
4.38790845e+20
4.232890812e+20
4.185896149e+20
4.128359098e+20
4.039309082e+20
4.084347893e+20
4.005481487e+20
3.755122022e+20
3.618133419e+20
3.28144572e+20
3.883308461e+20
4.01277613e+20
4.217481829e+20
4.340842937e+20
4.478085051e+20
4.389199568e+20
4.506389609e+20
4.579042003e+20
4.504118381e+20
4.425617017e+20
4.479019495e+20
4.451285107e+20
4.607093513e+20
4.474313481e+20
4.504359239e+20
4.444161534e+20
4.496820547e+20
4.287939108e+20
4.305021053e+20
4.313532289e+20
4.246481741e+20
4.139026923e+20
4.336748918e+20
4.233052126e+20
4.114443788e+20
4.13268988e+20
3.916791093e+20
3.756240777e+20
3.642973142e+20
3.464919473e+20
3.514943783e+20
3.69999835e+20
3.74801262e+20
3.96511366e+20
4.252054536e+20
4.35799452e+20
4.333211337e+20
4.443780073e+20
4.511267775e+20
4.560119654e+20
4.431087069e+20
4.309757575e+20
4.356691961e+20
4.363720281e+20
4.309865317e+20
4.36048063e+20
4.36822378e+20
4.441702164e+20
4.346370772e+20
4.236383945e+20
4.177082786e+20
4.186754346e+20
4.128122769e+20
4.029062645e+20
3.819349441e+20
4.15246618e+20
4.02765413e+20
3.963211602e+20
3.793705212e+20
3.624461958e+20
3.265030113e+20
3.436035607e+20
3.574523036e+20
3.749952459e+20
3.907693124e+20
4.082272303e+20
4.142198988e+20
4.205416391e+20
4.293926193e+20
4.232509668e+20
4.357977999e+20
4.477638511e+20
4.509687802e+20
4.511012579e+20
4.478360066e+20
4.415931843e+20
4.493770814e+20
4.402748835e+20
4.420800203e+20
4.260362444e+20
4.305891441e+20
4.226527115e+20
4.170917838e+20
4.179626295e+20
4.011541866e+20
4.086545227e+20
4.044837829e+20
3.92069864e+20
3.816286756e+20
3.723036316e+20
2.993131222e+20
3.232187665e+20
3.400578088e+20
3.516440614e+20
3.600310122e+20
3.724112876e+20
3.890644642e+20
3.977457473e+20
4.079920988e+20
4.195041074e+20
4.301814739e+20
4.317077965e+20
4.42605664e+20
4.431167266e+20
4.399362527e+20
4.434583571e+20
4.362632609e+20
4.473479877e+20
4.450778756e+20
4.444893008e+20
4.388434207e+20
4.382436721e+20
4.31160678e+20
4.237369357e+20
4.071976332e+20
4.060176911e+20
4.144060319e+20
4.090190999e+20
3.889112347e+20
3.668336091e+20
2.758023926e+20
2.876470743e+20
3.08410758e+20
3.203562271e+20
3.301709485e+20
3.424171817e+20
3.576671022e+20
3.724432538e+20
3.823496045e+20
3.935643125e+20
4.038912636e+20
4.11210704e+20
4.093991681e+20
4.217915785e+20
4.30336551e+20
4.312590969e+20
4.37432326e+20
4.412487198e+20
4.428036419e+20
4.494935233e+20
4.364249713e+20
4.274254559e+20
4.319630862e+20
4.34044342e+20
4.288669321e+20
4.237064607e+20
4.179536453e+20
4.086834716e+20
3.950647148e+20
3.725315493e+20
2.626112581e+20
2.636915506e+20
2.798601079e+20
2.981978335e+20
3.101563859e+20
3.215051429e+20
3.34154282e+20
3.442558035e+20
3.587089416e+20
3.744457245e+20
3.856382024e+20
3.964723189e+20
3.972480544e+20
4.151460675e+20
4.212368388e+20
4.210762404e+20
4.304179498e+20
4.31459135e+20
4.414597765e+20
4.421957006e+20
4.416298951e+20
4.476300625e+20
4.364030783e+20
4.331269289e+20
4.236401637e+20
4.201906804e+20
4.128539493e+20
3.997333819e+20
4.01782738e+20
4.093972515e+20
2.303064399e+20
2.487758493e+20
2.537228337e+20
2.654419496e+20
2.804349913e+20
2.960753558e+20
3.103129334e+20
3.282230032e+20
3.343533359e+20
3.463923207e+20
3.627371572e+20
3.786105705e+20
3.861792231e+20
3.960030281e+20
4.119871245e+20
4.185557313e+20
4.249792793e+20
4.244372922e+20
4.234726553e+20
4.347936271e+20
4.358992178e+20
4.244557469e+20
4.22976107e+20
4.17908664e+20
4.136222053e+20
4.171143763e+20
4.069227769e+20
4.085715955e+20
4.048877014e+20
4.1384164e+20
2.284668584e+20
2.303798129e+20
2.383318919e+20
2.514495897e+20
2.650889526e+20
2.767002834e+20
2.883957962e+20
3.096363162e+20
3.201975378e+20
3.295794889e+20
3.455492594e+20
3.520619506e+20
3.656649864e+20
3.749258476e+20
3.833880182e+20
3.968793504e+20
4.088157296e+20
4.199781636e+20
4.239895266e+20
4.273394299e+20
4.285913018e+20
4.324633526e+20
4.36510066e+20
4.200133177e+20
4.126966252e+20
4.171693031e+20
4.316452303e+20
4.288771115e+20
4.192834577e+20
3.993688634e+20
2.137502187e+20
2.246395288e+20
2.389238511e+20
2.508073156e+20
2.516380572e+20
2.626812973e+20
2.68262058e+20
2.753005931e+20
2.881205889e+20
3.054170515e+20
3.197432127e+20
3.378603969e+20
3.447571942e+20
3.507242821e+20
3.64838598e+20
3.809497364e+20
3.963118543e+20
4.018341195e+20
4.027978034e+20
4.1003317e+20
4.165516225e+20
4.201072533e+20
4.246879184e+20
4.358252028e+20
4.267435552e+20
4.27222241e+20
4.196720224e+20
4.239545584e+20
4.117750828e+20
4.114485075e+20
2.228135167e+20
2.258599062e+20
2.272668096e+20
2.314015199e+20
2.342582078e+20
2.442377186e+20
2.503341197e+20
2.647539481e+20
2.735358246e+20
2.792851112e+20
2.893375914e+20
3.000871871e+20
3.091401577e+20
3.257292284e+20
3.393393976e+20
3.442511248e+20
3.558013313e+20
3.690313373e+20
3.853275566e+20
4.019013179e+20
4.054057287e+20
4.256224241e+20
4.298233309e+20
4.289715871e+20
4.331681239e+20
4.264531678e+20
4.190068479e+20
4.029777894e+20
4.162349483e+20
4.136707055e+20
2.140194255e+20
2.138369423e+20
2.158829766e+20
2.205746446e+20
2.280643229e+20
2.321748717e+20
2.335325439e+20
2.405865191e+20
2.520399811e+20
2.589175716e+20
2.771366065e+20
2.953045277e+20
3.069755839e+20
3.118926793e+20
3.214399543e+20
3.32606373e+20
3.455339242e+20
3.61138167e+20
3.643425787e+20
3.756291695e+20
3.773832635e+20
3.810238122e+20
4.037183172e+20
4.165595271e+20
4.082865425e+20
4.194765339e+20
4.235522286e+20
4.299958727e+20
4.20017359e+20
2.099813232e+20
2.137917447e+20
2.143803124e+20
2.199323724e+20
2.262616256e+20
2.287283423e+20
2.292617483e+20
2.39782511e+20
2.499428216e+20
2.60118488e+20
2.656618769e+20
2.754418742e+20
2.929550667e+20
2.965187358e+20
3.00490609e+20
3.101738401e+20
3.180863902e+20
3.283353815e+20
3.464071446e+20
3.578537645e+20
3.688135343e+20
3.759328823e+20
3.789506472e+20
3.900624806e+20
2.112376232e+20
2.132945546e+20
2.142892387e+20
2.189689624e+20
2.176641461e+20
2.189010827e+20
2.216118714e+20
2.245064293e+20
2.281133397e+20
2.320170429e+20
2.355467489e+20
2.409384341e+20
2.406117937e+20
2.568440429e+20
2.692915862e+20
2.844646526e+20
3.002454948e+20
3.123952753e+20
3.284717106e+20
2.043728491e+20
2.077350653e+20
2.104642745e+20
2.066281613e+20
2.052301568e+20
2.111231065e+20
2.104421043e+20
2.11642356e+20
2.0780906e+20
2.099201817e+20
2.153086126e+20
2.24247945e+20
2.378076879e+20
2.491074778e+20
2.025332677e+20
2.000964159e+20
1.975777759e+20
2.001136855e+20
2.061083955e+20
2.073039828e+20
2.134926716e+20
2.19256753e+20
1.948160068e+20
1.994184322e+20
)
;

boundaryField
{
    flow
    {
        type            calculated;
        value           nonuniform List<scalar> 
15
(
3.432441216e+20
3.259223731e+20
3.336145973e+20
3.302528094e+20
3.28144572e+20
3.464919473e+20
3.624461958e+20
3.723036316e+20
3.668336091e+20
3.725315493e+20
4.093972515e+20
4.1384164e+20
3.993688634e+20
4.114485075e+20
4.136707055e+20
)
;
    }
    obstacle
    {
        type            calculated;
        value           nonuniform List<scalar> 
30
(
242.4728347
233.8025437
246.2783897
272.9613488
216.9164675
243.3591316
245.1924265
244.427023
252.27553
241.6578718
212.6260912
215.7747612
229.2689137
237.5939291
239.4400767
241.7018007
199.7732239
239.4504984
227.7932456
214.9027532
228.818805
210.4896784
202.5466608
241.5437609
209.8383994
206.3443027
225.7936021
196.9277957
183.0455814
149.6917703
)
;
    }
    frontAndBack
    {
        type            empty;
    }
    procBoundary1to0
    {
        type            processor;
        value           nonuniform List<scalar> 
21
(
5.948939957e+20
5.144968961e+20
4.835852135e+20
4.35658743e+20
4.102701855e+20
3.767305645e+20
3.396721781e+20
3.133482524e+20
2.84084599e+20
2.663126086e+20
2.496541514e+20
2.271162397e+20
2.196332953e+20
2.072953456e+20
2.19321506e+20
2.121058107e+20
2.083197977e+20
2.127293893e+20
2.038656662e+20
2.009704783e+20
1.963827214e+20
)
;
    }
    procBoundary1to3
    {
        type            processor;
        value           nonuniform List<scalar> 
36
(
4.157219652e+20
3.988130386e+20
3.984917274e+20
4.10359531e+20
4.076206484e+20
4.157219652e+20
4.202996287e+20
3.376283806e+20
3.426311936e+20
3.477737176e+20
3.603882739e+20
3.988130386e+20
3.752219707e+20
2.620418106e+20
2.699465161e+20
2.745261415e+20
2.905096694e+20
3.376283806e+20
3.020079e+20
2.225844748e+20
2.256281678e+20
2.270738443e+20
2.30836296e+20
2.352987547e+20
2.620418106e+20
2.383953107e+20
1.999000789e+20
2.015817364e+20
2.052763799e+20
2.078628791e+20
2.070630192e+20
2.225844748e+20
2.075277464e+20
2.018153828e+20
1.999000789e+20
2.008648006e+20
)
;
    }
}


// ************************************************************************* //
