/*--------------------------------*- C++ -*----------------------------------*\
  =========                 |
  \\      /  F ield         | OpenFOAM: The Open Source CFD Toolbox
   \\    /   O peration     | Website:  https://openfoam.org
    \\  /    A nd           | Version:  7
     \\/     M anipulation  |
\*---------------------------------------------------------------------------*/
FoamFile
{
    version     2.0;
    format      ascii;
    class       volScalarField;
    location    "0.001";
    object      iDof;
}
// * * * * * * * * * * * * * * * * * * * * * * * * * * * * * * * * * * * * * //

dimensions      [0 -3 0 0 0 0 0];

internalField   nonuniform List<scalar> 
546
(
4.262441401e+20
5.649887541e+20
5.919592285e+20
5.275807836e+20
6.471221167e+20
7.219078232e+20
6.101131526e+20
5.675325763e+20
5.24288912e+20
7.205498243e+20
5.3258258e+20
5.856311954e+20
7.625194828e+20
4.463402947e+20
5.749820323e+20
4.78896717e+20
5.337019978e+20
3.84407642e+20
4.651841695e+20
4.430818658e+20
6.046123559e+20
5.568197641e+20
5.884326855e+20
5.666375232e+20
8.43904713e+20
6.042747398e+20
4.434521452e+20
3.076593334e+20
3.669506506e+20
3.98856051e+20
6.057153574e+20
4.745905535e+20
7.741005295e+20
5.046424887e+20
5.546761e+20
7.451951729e+20
4.458519192e+20
4.729438136e+20
7.387707397e+20
6.965314962e+20
6.294157764e+20
6.100324952e+20
3.935584424e+20
6.199170755e+20
6.999781258e+20
7.057425303e+20
5.337019978e+20
5.637978745e+20
5.68558429e+20
5.473364229e+20
3.417374188e+20
6.363654452e+20
6.419265666e+20
4.856893056e+20
3.538955248e+20
3.845384711e+20
3.325891092e+20
6.153186673e+20
4.798585431e+20
4.843252048e+20
4.486780422e+20
5.649887541e+20
6.602622164e+20
7.110871431e+20
5.08453092e+20
3.725975862e+20
7.274426045e+20
4.492966229e+20
5.242889124e+20
4.323298946e+20
3.873327852e+20
4.636246963e+20
6.887272742e+20
3.967469283e+20
6.749789075e+20
9.57793434e+20
3.812157127e+20
5.894250506e+20
5.427148645e+20
7.558455364e+20
6.046123553e+20
5.303045372e+20
6.686735069e+20
5.936202624e+20
4.900091882e+20
4.39472538e+20
3.048733498e+20
5.314115758e+20
4.5163157e+20
3.133868975e+20
4.711119443e+20
2.937941519e+20
3.870502648e+20
5.963956688e+20
5.315645958e+20
3.260228879e+20
5.162495907e+20
5.91179767e+20
1.906505135e+20
3.842932396e+20
6.778323746e+20
3.41618197e+20
5.165454557e+20
6.19917076e+20
3.499890632e+20
6.049221688e+20
5.082876169e+20
3.844076417e+20
5.42714864e+20
4.691455054e+20
3.417374188e+20
6.098502183e+20
4.546979843e+20
4.58706566e+20
5.716773862e+20
3.845384708e+20
4.434521455e+20
3.635973946e+20
3.387236778e+20
2.279177428e+20
5.384136507e+20
5.875883039e+20
5.91959228e+20
5.73457373e+20
4.622300833e+20
2.328734915e+20
4.223860287e+20
5.91179767e+20
5.957828546e+20
6.484948413e+20
4.357493837e+20
3.904207972e+20
6.149350667e+20
4.711369778e+20
3.999875008e+20
3.024610844e+20
5.845307599e+20
4.356619947e+20
3.359663447e+20
3.909545875e+20
4.731748868e+20
3.977284026e+20
3.20963283e+20
4.317238272e+20
3.538955254e+20
6.317417723e+20
3.880206256e+20
5.034425473e+20
5.363124899e+20
3.418766161e+20
5.832814557e+20
4.067919033e+20
3.642826024e+20
5.505190789e+20
4.622300837e+20
3.725975864e+20
6.101131526e+20
6.148269577e+20
4.527949695e+20
4.803665491e+20
3.873327852e+20
5.368285953e+20
9.838961052e+20
5.45527026e+20
4.999843755e+20
2.77255994e+20
4.574588552e+20
6.919337551e+20
4.393406046e+20
6.25527341e+20
3.680249126e+20
4.507588578e+20
5.081918678e+20
6.206030016e+20
4.900091848e+20
5.493406725e+20
4.711679067e+20
5.593806071e+20
3.104967035e+20
1.709383065e+20
4.03810238e+20
4.067919027e+20
3.187472766e+20
4.358276035e+20
5.777876042e+20
4.424596339e+20
5.866472621e+20
4.492966229e+20
5.719515404e+20
5.04384877e+20
2.904995893e+20
4.880259965e+20
4.181558454e+20
5.207303438e+20
5.249835943e+20
8.065628911e+20
4.574588552e+20
5.381706984e+20
4.651841711e+20
4.170182301e+20
6.571873483e+20
4.772740863e+20
4.279510451e+20
5.126720484e+20
5.989001262e+20
3.296044064e+20
4.157363883e+20
5.873496375e+20
3.66950653e+20
6.552635202e+20
2.467729232e+20
3.841923528e+20
2.276766265e+20
3.670127193e+20
3.928955708e+20
5.821837284e+20
4.693178097e+20
5.438853857e+20
2.38313142e+20
4.083115671e+20
4.357493833e+20
3.660194968e+20
4.427532477e+20
4.959336608e+20
7.249773469e+20
4.032814469e+20
4.574588545e+20
6.919337517e+20
5.685584266e+20
7.297818942e+20
4.731748836e+20
2.916674922e+20
5.081918617e+20
3.50775609e+20
3.538955229e+20
6.866758346e+20
4.988836571e+20
2.796903011e+20
3.951776227e+20
3.988560485e+20
6.057153574e+20
4.06791903e+20
2.276766262e+20
2.523212443e+20
3.235610586e+20
3.725975864e+20
3.754542478e+20
4.965910043e+20
3.098070844e+20
3.362565844e+20
5.809991769e+20
3.904207972e+20
5.165454565e+20
3.2235688e+20
5.749820328e+20
6.301272551e+20
4.320444737e+20
3.075261144e+20
4.134970393e+20
4.691455034e+20
5.783248626e+20
3.712131782e+20
4.814449258e+20
4.047410873e+20
4.355637205e+20
4.39472538e+20
4.157363883e+20
5.034425464e+20
5.080855149e+20
6.267737962e+20
2.467729232e+20
3.841923525e+20
4.3258559e+20
3.89951014e+20
4.16007075e+20
3.958849353e+20
2.58124795e+20
3.3106067e+20
4.28963655e+20
3.362565834e+20
3.147078894e+20
4.880259958e+20
4.673506485e+20
4.959336608e+20
3.999874995e+20
6.553323506e+20
5.082876202e+20
5.381707002e+20
4.393406042e+20
4.691455073e+20
4.731748876e+20
3.181827215e+20
4.012041048e+20
4.047410873e+20
4.900091899e+20
4.120055044e+20
5.265994205e+20
4.754735161e+20
5.363124879e+20
3.133868952e+20
2.916407275e+20
2.25995501e+20
2.504442879e+20
3.211361284e+20
4.16007075e+20
3.260228886e+20
4.693178118e+20
2.837662895e+20
5.48120227e+20
5.284032032e+20
4.599576803e+20
4.392233962e+20
4.919480549e+20
4.959336608e+20
3.999875027e+20
4.536916273e+20
4.574588508e+20
5.125435198e+20
1.550613897e+20
6.255273379e+20
4.205999001e+20
5.833349944e+20
4.546979854e+20
6.206030006e+20
5.172319181e+20
5.493406725e+20
5.820309436e+20
5.873496375e+20
5.363124928e+20
4.558354923e+20
2.019051197e+20
1.807964021e+20
2.504442902e+20
3.211361299e+20
3.004495539e+20
3.725975848e+20
3.519883546e+20
4.96590999e+20
3.336383965e+20
4.323298969e+20
3.6312449e+20
5.612298995e+20
4.673506522e+20
3.719502456e+20
3.749882808e+20
5.797170794e+20
4.066300962e+20
5.12543524e+20
5.168712991e+20
4.691455034e+20
4.994623771e+20
5.303045313e+20
5.616857371e+20
7.285339572e+20
5.989001262e+20
4.944066096e+20
4.434521475e+20
3.91566425e+20
4.516315688e+20
5.982840727e+20
4.038102368e+20
2.033959502e+20
2.504442884e+20
3.211361299e+20
2.311150415e+20
2.561608414e+20
3.754542506e+20
3.783550526e+20
2.621444564e+20
2.401832742e+20
5.083742782e+20
2.928155952e+20
2.951688306e+20
3.223568795e+20
5.249835931e+20
3.528712629e+20
4.828732353e+20
4.100348192e+20
4.651841692e+20
6.515909824e+20
5.257498795e+20
4.242436323e+20
2.942163435e+20
4.856893048e+20
5.172319181e+20
6.592088013e+20
7.760412513e+20
5.873496375e+20
5.64539461e+20
4.273457662e+20
1.794712164e+20
1.581968513e+20
1.821413007e+20
2.752595379e+20
2.773380498e+20
3.260228867e+20
2.581247934e+20
3.783550498e+20
2.621444564e+20
3.122382565e+20
4.599576803e+20
5.368285953e+20
6.395324664e+20
5.703237054e+20
3.249898433e+20
4.788967178e+20
5.082876161e+20
3.331532879e+20
5.42714864e+20
4.430818643e+20
4.994623771e+20
4.772740823e+20
6.954204483e+20
4.047410873e+20
4.08340988e+20
6.042747398e+20
8.314727692e+20
3.076593312e+20
5.363124879e+20
5.982840782e+20
1.570373155e+20
2.033959531e+20
1.366059765e+20
2.064446549e+20
3.004495562e+20
2.561608414e+20
3.989201383e+20
2.128247171e+20
3.336383991e+20
2.642016016e+20
3.389161881e+20
3.660194997e+20
3.443636385e+20
3.223568795e+20
3.749882838e+20
5.54511989e+20
2.795581889e+20
4.356619954e+20
4.910277382e+20
5.212727859e+20
4.994623813e+20
5.037893133e+20
5.349388064e+20
5.126720439e+20
5.98900121e+20
8.789450838e+20
5.820309436e+20
5.873496375e+20
5.645394661e+20
3.988560521e+20
1.346034123e+20
1.129977501e+20
1.593736381e+20
1.835063599e+20
1.155575207e+20
3.958849368e+20
2.346589066e+20
9.458876315e+19
2.621444584e+20
2.40183276e+20
1.936663917e+20
2.196116964e+20
3.197662332e+20
3.223568795e+20
1.249960936e+20
4.788967178e+20
2.541438101e+20
4.612891716e+20
3.618099093e+20
4.43081868e+20
4.468873976e+20
2.386370432e+20
4.546979854e+20
5.126720439e+20
4.08340988e+20
5.493406677e+20
4.988836615e+20
4.195354554e+20
4.516315688e+20
1.794712164e+20
2.48595052e+20
2.73211953e+20
1.835063599e+20
2.080035373e+20
3.027355376e+20
2.815906837e+20
2.601190947e+20
2.621444544e+20
2.161649484e+20
2.420829934e+20
3.904207996e+20
2.95168833e+20
3.967469286e+20
3.749882808e+20
3.780763531e+20
3.049725697e+20
3.587804668e+20
3.359663444e+20
4.952091425e+20
5.257498707e+20
6.363654376e+20
3.477102212e+20
4.587065696e+20
1.570373155e+20
1.129977509e+20
1.366059745e+20
2.52321243e+20
2.080035373e+20
2.328734922e+20
1.642612346e+20
2.601190987e+20
2.621444564e+20
3.122382565e+20
2.420829896e+20
1.464077987e+20
4.427532494e+20
1.983734643e+20
2.249929703e+20
3.528712686e+20
3.812157121e+20
3.587804638e+20
2.325920846e+20
2.467729243e+20
2.711946022e+20
2.049089647e+20
2.981978349e+20
1.848920332e+20
2.561608395e+20
1.877271225e+20
2.837662873e+20
3.813010275e+20
2.642016016e+20
1.452497949e+20
1.952103983e+20
1.967792204e+20
9.918673216e+19
1.346034123e+20
1.807964001e+20
2.049089632e+20
1.835063599e+20
2.311150432e+20
1.164367461e+20
1.642612334e+20
2.128247171e+20
1.794712177e+20
1.355973021e+20
)
;

boundaryField
{
    flow
    {
        type            zeroGradient;
    }
    obstacle
    {
        type            calculated;
        value           nonuniform List<scalar> 
30
(
472.863612
169.5046666
273.8417063
868.6478244
711.9506496
528.6995701
2.225073859e-308
163.6709282
120.0410065
474.5428755
382.8483208
255.547767
140.1507597
67.11280495
75.03711578
249.9413119
122.0263734
2.225073859e-308
466.3353521
2.225073859e-308
595.0839
189.1172907
89.5770847
363.8156758
346.378105
2.225073859e-308
2.225073859e-308
2.225073859e-308
389.9781796
103.6039061
)
;
    }
    frontAndBack
    {
        type            empty;
    }
    procBoundary1to0
    {
        type            processor;
        value           nonuniform List<scalar> 
21
(
5.567666177e+20
4.231426294e+20
4.676839589e+20
3.563306353e+20
5.122252886e+20
4.454132945e+20
3.340599706e+20
2.895186412e+20
3.340599706e+20
2.672479765e+20
3.340599706e+20
2.449773128e+20
1.113533235e+20
1.558946518e+20
2.449773118e+20
2.895186412e+20
2.227066471e+20
2.227066471e+20
2.227066487e+20
2.227066471e+20
3.117893059e+20
)
;
    }
    procBoundary1to3
    {
        type            processor;
        value           nonuniform List<scalar> 
36
(
5.982840782e+20
5.172319272e+20
4.669395758e+20
2.49441833e+20
5.034425464e+20
5.982840782e+20
3.669506496e+20
4.691455034e+20
4.468873938e+20
2.916674972e+20
5.081918661e+20
5.172319272e+20
4.047410873e+20
1.74994531e+20
2.52050902e+20
4.066300929e+20
2.050174096e+20
4.691455034e+20
3.876534743e+20
3.098070848e+20
3.602749113e+20
1.694580927e+20
1.464077987e+20
2.95168833e+20
1.74994531e+20
2.479668304e+20
2.276766275e+20
1.376297699e+20
2.311150415e+20
1.630114445e+20
7.039767198e+19
3.098070848e+20
1.655303355e+20
1.794712164e+20
2.276766275e+20
1.129977501e+20
)
;
    }
}


// ************************************************************************* //
