/*--------------------------------*- C++ -*----------------------------------*\
  =========                 |
  \\      /  F ield         | OpenFOAM: The Open Source CFD Toolbox
   \\    /   O peration     | Website:  https://openfoam.org
    \\  /    A nd           | Version:  7
     \\/     M anipulation  |
\*---------------------------------------------------------------------------*/
FoamFile
{
    version     2.0;
    format      ascii;
    class       volScalarField;
    location    "0.001";
    object      internalEMean;
}
// * * * * * * * * * * * * * * * * * * * * * * * * * * * * * * * * * * * * * //

dimensions      [1 -1 -2 0 0 0 0];

internalField   nonuniform List<scalar> 
546
(
0.429882916
0.4676806303
0.4050354365
0.4860465733
0.5326658096
0.5546256348
0.5289661547
0.5256839685
0.528665978
0.5241692386
0.5010673617
0.5760624979
0.5304694109
0.5889842069
0.6619883803
0.6382202167
0.6399383767
0.6478608476
0.6474373467
0.7097602036
0.7366232953
0.6056215409
0.6571156299
0.7224474336
0.7710603767
0.7310500699
0.6973722734
0.8054314354
0.8557800396
0.9250461902
0.4249200997
0.3929700987
0.3863677577
0.4382811533
0.3852632521
0.4435167181
0.4959162647
0.4757352935
0.5044031682
0.456885887
0.5024628861
0.6063508264
0.620243536
0.5615323433
0.6300760399
0.5755309931
0.5521202573
0.6478989306
0.6311052749
0.6175640032
0.6511353869
0.6255392263
0.7129207601
0.7081556548
0.6778171406
0.8211323954
0.7293459843
0.6777171733
0.730057195
0.8556512243
0.3854433972
0.367112948
0.3858437752
0.4320887324
0.4511878807
0.4368615216
0.5332010213
0.4915967657
0.4815519266
0.5295887768
0.5066929638
0.5221300813
0.5636439508
0.5289614288
0.4996378596
0.5393128423
0.5507057247
0.481924218
0.5327699534
0.5831138635
0.636068824
0.6190915667
0.6088096796
0.66608457
0.6312102501
0.7016834896
0.6880913226
0.7607746226
0.719875246
0.6174524018
0.3905546004
0.357528494
0.391603262
0.3930139305
0.4013894617
0.4623376261
0.484036222
0.4596930565
0.4246768646
0.4599110418
0.4673956134
0.4834199905
0.5106202548
0.491996643
0.5026234475
0.5539365338
0.5622371287
0.557111952
0.5781090362
0.5021482514
0.5217752519
0.5386511176
0.5725527144
0.5947905056
0.6320493424
0.6523580007
0.685885796
0.7115126054
0.7058257487
0.7220726476
0.2897695499
0.2780391973
0.3289699886
0.3166646049
0.3613451128
0.4301886274
0.437720114
0.3940380477
0.3935097253
0.4214963461
0.4237175882
0.4737016844
0.4582982409
0.4552297
0.4774690577
0.4629379971
0.5348622449
0.5623580364
0.5411168537
0.5386399687
0.5135858779
0.4795647732
0.5325051274
0.6088833733
0.628819627
0.6501445455
0.6550963515
0.6674361802
0.6231885197
0.7685389542
0.2456680518
0.2213346748
0.3217725962
0.3080247365
0.3115584118
0.3635796297
0.3522446616
0.3438976163
0.3786663019
0.4113203564
0.3742228031
0.3502888892
0.4173038305
0.4198253309
0.4318128851
0.4607485322
0.569481477
0.5255011662
0.5297558631
0.4994339206
0.4994070022
0.4590753286
0.5189791338
0.5592857557
0.5566051338
0.6028180383
0.6557328973
0.6416406683
0.6361573477
0.6860085723
0.2827406728
0.2943079264
0.338519061
0.3118719323
0.3549137206
0.3593900023
0.3645480343
0.3308865226
0.3321796963
0.3706151714
0.3920676903
0.374677579
0.3655130226
0.4234457347
0.4472821416
0.4731709118
0.4884825779
0.507655409
0.4900650792
0.5260526122
0.5227322158
0.5173256791
0.5024831301
0.5065599356
0.5732051839
0.5291748844
0.6562326107
0.6284671671
0.6039464776
0.671773789
0.2347161513
0.2403760386
0.2983179967
0.2773079873
0.2883993956
0.3057487413
0.3287773649
0.3323717501
0.3425015452
0.3489197361
0.3765461247
0.3703589322
0.3711430662
0.3643873932
0.417614904
0.3864461327
0.4412131671
0.4194252914
0.458535168
0.4403573582
0.4770756863
0.5004514997
0.5055420196
0.5268328333
0.5403439854
0.5368783718
0.5520428812
0.5676384334
0.6145815928
0.7032573427
0.2784539848
0.221707667
0.2559063853
0.2850176812
0.3030572305
0.294878114
0.3394463105
0.3272979514
0.2844976973
0.2742934909
0.313061726
0.3589693339
0.3738363749
0.3397894719
0.3548068001
0.3741048306
0.3951946
0.4029584852
0.4276872638
0.4626529358
0.4509411547
0.5328492338
0.4673052614
0.5131535739
0.5267955704
0.5569227159
0.5268805448
0.6092148791
0.6742817293
0.6873117152
0.2638791804
0.2262342737
0.2537674448
0.244491485
0.2690155608
0.2549743689
0.2972776502
0.316915044
0.2914687517
0.3130610533
0.3213727832
0.3391031141
0.2897230616
0.305071388
0.3400656627
0.3676543129
0.3978031545
0.3739348064
0.4065555141
0.4456536245
0.4341356304
0.4643396086
0.4968832929
0.4907468748
0.5528394899
0.6052649882
0.5475771582
0.582614009
0.6853855902
0.6481267323
0.2463942974
0.2533048401
0.2710111122
0.2172655192
0.236790686
0.2614600689
0.2812713283
0.244279831
0.2810921097
0.3328612089
0.3105024399
0.3317773936
0.300873278
0.3123968513
0.3506651678
0.3694992473
0.4265364481
0.4028154623
0.3869888111
0.3924405691
0.3743651484
0.4414162663
0.4597392884
0.4769045817
0.4970766345
0.5626860079
0.5400248488
0.5459571462
0.627623239
0.747600947
0.2327942924
0.2544862192
0.2482549203
0.187608042
0.2239033269
0.2586007646
0.229432984
0.2527316764
0.2682279987
0.304405128
0.292022348
0.2720642135
0.2831420697
0.2822844454
0.2844003882
0.2966909575
0.3634593277
0.4088990741
0.3546623814
0.3372056231
0.3295323474
0.3624120247
0.4019722735
0.4436645979
0.4740396818
0.5259489958
0.5772359849
0.521844018
0.5779242784
0.7048781948
0.2222645451
0.2447889219
0.2366335129
0.2398454517
0.2312523461
0.2214477368
0.2090022283
0.225099816
0.230876449
0.2519963157
0.2212546191
0.2505590891
0.2737212208
0.2969368113
0.2924016149
0.2892659225
0.3185526495
0.3251793634
0.3218786014
0.385244187
0.3391121372
0.3674781928
0.4145466643
0.4542528064
0.4890594331
0.5049166661
0.544322212
0.5443808762
0.5734971239
0.7053147714
0.2347821833
0.2335820393
0.2278236691
0.231407614
0.2790971559
0.2123330042
0.2095540275
0.2396237744
0.2450163786
0.2619197724
0.2475406399
0.2594570382
0.2676477288
0.2688716767
0.2798928784
0.2609215483
0.3215659606
0.3129060366
0.3158968618
0.3293556172
0.3275865197
0.3633926466
0.3894568294
0.402064609
0.4720205251
0.4672037371
0.4017070835
0.4958466056
0.4971498687
0.6022261859
0.2467445143
0.2398274178
0.2275877523
0.2265284646
0.2188751763
0.2172214678
0.2451317553
0.2526453286
0.2592544786
0.2482496056
0.27136336
0.2722604463
0.2783084243
0.2750791814
0.2959279206
0.288804812
0.3087211241
0.3304538593
0.2879951768
0.310693704
0.3895678489
0.3445384498
0.3620111647
0.3679080981
0.4129438283
0.4727206467
0.4247592927
0.4685079343
0.4511784926
0.5583662452
0.1975359877
0.1930737659
0.2434854413
0.223244782
0.1901832399
0.1807023868
0.2066076219
0.2379278659
0.265337588
0.2754111991
0.2928601192
0.2815023999
0.2778658937
0.2975082539
0.2806964719
0.2532858977
0.2447271879
0.2917165786
0.2912126092
0.3168288684
0.3708815417
0.348089638
0.353116599
0.3827136214
0.3773615406
0.4224879059
0.4852727779
0.4727960601
0.4455613025
0.2003773701
0.1791882375
0.217039792
0.2252906885
0.2031525635
0.2133989579
0.2125615522
0.2683414418
0.2689516487
0.2702133854
0.2920522802
0.2578298878
0.2568030774
0.2846780125
0.2532563141
0.2932992177
0.2342477235
0.2810665188
0.3105876099
0.3165864044
0.3041129765
0.3336637573
0.3268808518
0.3997998998
0.2417543123
0.2524504551
0.2397772259
0.2148312493
0.2319811841
0.2246988475
0.2458433652
0.2694909629
0.2293267349
0.2545885537
0.2951368338
0.2343392096
0.2387260299
0.2596208431
0.281021376
0.2788024938
0.2817787531
0.2537389414
0.2875870766
0.2529561603
0.2318794597
0.2563942306
0.2380989661
0.2474436319
0.2225256516
0.2090007684
0.2264507692
0.2257725923
0.2212061499
0.2560103387
0.2416313305
0.2357693424
0.2686980017
0.19582698
0.2177208824
0.2360273482
0.2556417555
0.2877554727
0.2659293391
0.2404145211
0.2146172962
0.1859732438
0.1981431282
)
;

boundaryField
{
    flow
    {
        type            calculated;
        value           nonuniform List<scalar> 
15
(
0.9250461902
0.8556512243
0.6174524018
0.7220726476
0.7685389542
0.6860085723
0.671773789
0.7032573427
0.6873117152
0.6481267323
0.747600947
0.7048781948
0.7053147714
0.6022261859
0.5583662452
)
;
    }
    obstacle
    {
        type            calculated;
        value           nonuniform List<scalar> 
30
(
1.521470907e-19
2.037833037e-19
1.49394342e-19
2.236868469e-19
1.916114702e-19
2.149777584e-19
4.849864606e-19
2.366708079e-19
1.904284839e-19
1.803704553e-19
1.837265574e-19
2.202392251e-19
2.512052835e-19
2.720771495e-19
2.332535198e-19
2.479024951e-19
2.840672522e-19
3.158164706e-19
2.563316664e-19
3.18548842e-19
2.284975998e-19
2.796140544e-19
2.963286572e-19
4.44578641e-19
3.107904787e-19
3.096808569e-19
3.186895431e-19
3.280971968e-19
3.417474339e-19
3.136328041e-19
)
;
    }
    frontAndBack
    {
        type            empty;
    }
    procBoundary1to0
    {
        type            processor;
        value           nonuniform List<scalar> 
21
(
0.4296862993
0.3904017763
0.3968236214
0.341729549
0.2868994494
0.2541733629
0.2656574009
0.2249523793
0.2251184931
0.2481998908
0.2116926609
0.2266683545
0.2087713262
0.2353987523
0.2427775517
0.1985775386
0.1663486916
0.2106210702
0.2050975955
0.2063110476
0.1961837361
)
;
    }
    procBoundary1to3
    {
        type            processor;
        value           nonuniform List<scalar> 
36
(
0.5501836949
0.4225902104
0.3950720638
0.4458950511
0.4984268864
0.5501836949
0.5024143806
0.3174755938
0.3239571325
0.329137768
0.3300223888
0.4225902104
0.4150577178
0.2660881574
0.2593142714
0.2780893106
0.2803878467
0.3174755938
0.2951717883
0.1969736624
0.243894144
0.234743536
0.2259696069
0.2213643296
0.2660881574
0.2377780971
0.2534247743
0.2678274278
0.2954829222
0.2706832222
0.2426586415
0.1969736624
0.2393901871
0.2124518633
0.2534247743
0.2123637747
)
;
    }
}


// ************************************************************************* //
