/*--------------------------------*- C++ -*----------------------------------*\
  =========                 |
  \\      /  F ield         | OpenFOAM: The Open Source CFD Toolbox
   \\    /   O peration     | Website:  https://openfoam.org
    \\  /    A nd           | Version:  7
     \\/     M anipulation  |
\*---------------------------------------------------------------------------*/
FoamFile
{
    version     2.0;
    format      ascii;
    class       volScalarField;
    location    "0.001";
    object      internalT;
}
// * * * * * * * * * * * * * * * * * * * * * * * * * * * * * * * * * * * * * //

dimensions      [1 2 -2 0 0 0 0];

internalField   nonuniform List<scalar> 
546
(
700.9526746
682.9673914
671.686396
692.7667689
700.5674788
697.5557129
691.5956806
667.3580379
660.1347136
678.1237475
695.962101
688.3838971
679.7649977
670.8464942
675.3704142
695.1020901
713.3654766
687.5580654
673.6374185
660.8022626
672.2649353
670.48327
687.2551242
688.9148876
646.7083958
668.179963
668.0267611
675.7124254
669.1834447
702.3910538
779.6216259
730.0120321
766.0288085
754.5809831
760.4565217
759.6362978
768.150267
753.0189865
765.5175338
749.3195105
747.0123937
764.0235933
764.4097265
763.5539563
754.2216891
722.241256
746.0179586
768.6497442
744.3106194
732.7803248
734.4248144
722.6074584
720.234356
713.9460224
724.0840457
706.8097056
707.2912872
715.0079232
725.290269
730.288237
734.6399998
754.2187185
749.6528404
746.6543108
730.8538708
748.6389258
749.5077539
761.5589936
755.8148839
767.9489936
776.7938981
788.5499787
794.4036624
805.8763498
784.1237994
766.751038
766.5293629
775.9364759
796.8863709
781.6184207
783.8625527
764.3167723
763.1435871
765.6471412
765.1239688
762.7046728
729.0986361
728.0574796
749.6563844
729.9139705
703.9218922
716.3701309
750.1633354
741.1724693
767.011303
746.4925278
738.5427343
767.9724455
761.1753311
778.8204789
789.977574
786.8234314
791.6846796
793.2943439
797.3306765
772.0647203
773.4403197
786.7678645
764.6058217
767.9430617
739.414626
749.7994411
751.7777234
783.9100699
798.8172691
757.2033903
745.1128022
750.7874288
767.3101465
763.7452504
666.173609
693.1881128
686.9304434
720.5575551
712.9528436
730.9500906
735.3184992
748.578293
793.1096658
749.5724631
769.8918321
780.9388912
808.2527445
787.7717273
761.8031916
763.468167
785.8175136
744.8932014
767.8326392
755.1595237
787.0630492
788.761562
779.2125837
762.923265
792.2004988
775.2920969
763.0904158
748.5579551
790.3552568
749.4555031
594.5911511
634.2067343
661.9443409
668.8872124
665.6299602
689.3130128
718.59261
715.3271438
723.2406296
725.4611567
724.8850323
748.05835
768.849334
752.4690424
763.3980204
754.8551453
753.5094349
768.8100378
773.2853182
789.3527523
796.1268176
827.912505
786.2391532
794.9521211
774.8441833
788.7109055
757.9687455
731.8960715
748.7594008
758.042144
579.061413
606.5304056
619.2996751
609.1013268
635.7709896
650.0882641
666.0410776
697.6662913
689.3570685
723.0031015
712.737955
709.0049256
706.4597041
727.4750684
747.9997082
728.8393452
735.0420188
753.7457679
762.245747
767.1272257
785.1920569
766.345711
771.2113452
769.4772106
756.0978906
746.000479
776.6118317
781.5182958
748.0892997
734.6254525
537.7775908
553.9473596
581.4101666
599.8137524
592.2322446
627.2322525
622.943551
631.4026171
671.7991797
689.0361119
695.0722075
683.8920757
680.4562339
728.1131901
708.5344903
717.9668413
733.7285537
739.1581406
731.7624071
711.1865041
733.9439065
755.0165528
773.755829
787.964048
767.2885113
758.6775292
781.2460247
781.7469884
761.8665203
750.4712391
465.1172867
477.3073915
535.6514987
544.186034
554.4363327
591.5537803
609.9484714
628.6909748
642.3483528
645.4567042
658.5890688
679.8458093
701.8912689
695.335796
701.7647107
701.4524928
703.1032577
707.9729467
709.4815267
737.09165
725.424343
724.8075405
728.346789
727.7395604
753.030497
732.2389766
733.9694195
756.9421959
768.4937378
731.4093756
435.2734621
457.4280156
486.5397412
500.4171793
518.8799834
533.9636101
562.2471609
592.1837207
608.1264913
625.3935565
637.1446424
632.7868531
643.4692848
647.6718961
675.178372
696.094112
713.2829233
712.2887346
703.9289087
714.3253685
711.9050217
715.0643983
721.5158079
721.1400953
729.109424
735.7505464
720.9304426
712.5441964
713.6999759
715.3088451
419.7641883
425.468173
447.4319783
468.412268
489.2650059
512.305723
540.2635187
542.4721504
563.4171285
583.7573042
583.9828391
608.9680933
599.0513891
621.6818184
622.8784235
648.4714589
668.7903217
650.6697746
667.4492114
663.3712705
692.7014559
699.6265478
717.6303802
681.9406798
702.4052297
713.7885931
722.1646403
702.3735781
685.4938624
699.1468102
384.8164115
408.0239946
412.8974306
428.5044892
444.9590297
456.7837346
476.4105855
495.0895023
496.2041042
524.0772784
540.5512022
550.4734734
584.2183777
585.9750498
617.5348432
626.6274074
628.7354393
639.0486243
647.4651629
661.4812423
683.7907848
682.1288022
689.5651719
694.2550949
673.1096908
695.054971
717.4724481
683.0453484
694.0878891
688.9882912
350.5143125
361.6152377
378.5030985
386.9585789
401.1824021
410.020775
426.9818609
441.4734469
468.6878011
469.5980593
478.7021552
524.6957894
530.4885466
546.6576575
570.130422
593.5582974
609.175303
635.7905913
655.97553
649.6495707
630.7584031
631.5356188
650.5980971
654.8965427
663.5186701
667.8718292
686.7079306
712.8746515
701.3569781
711.1073936
354.8178678
359.012751
373.9920873
370.8807876
386.3190902
402.4579705
411.4169615
435.54847
470.1659269
475.3606858
489.2848139
489.438788
503.5226743
516.4317759
539.0303202
551.3767712
566.6453084
577.8810247
594.3462787
615.544707
634.6792661
642.0505863
629.4617082
647.4902674
651.2498488
643.6807264
650.6437485
644.8656116
660.409804
655.3426111
339.0338916
346.0095445
356.9780045
357.7677305
368.0929581
379.9795731
400.0064943
416.1771759
416.8440302
431.345459
466.8500745
472.8521761
487.4730856
505.4992313
511.8689616
517.020114
522.9038324
549.8054365
564.7151459
566.0568714
579.4464507
592.9607612
618.9966273
618.3004795
626.6066798
624.4409029
650.9518231
626.7581089
618.4865154
624.6703179
329.1337645
332.699496
326.1682779
350.5716643
357.3463084
360.4777798
366.5552069
380.353896
411.4829988
409.3772635
413.4670871
449.708067
453.210934
475.0367143
482.7052967
498.0842144
494.5190185
519.6933643
532.2630978
543.2752121
566.2099004
572.3948762
582.8529166
592.2140366
591.9590323
605.1586194
609.222742
619.8744041
618.2763233
318.8947017
331.7808066
340.3072456
328.6109344
340.2906958
343.7966109
351.6107177
359.0269374
376.8758566
394.3504157
398.3764416
411.140737
416.5835486
436.6628326
461.3913356
483.1300943
495.9042638
496.7566611
510.521021
508.7799677
527.3553504
542.3198618
546.131226
563.5102162
305.0808818
300.8196604
310.9602414
313.1251123
328.6512962
325.6820158
339.0376428
351.0029234
355.4400127
369.5853764
390.0239585
382.2016082
399.6419576
414.7788238
423.4357332
431.8523897
459.1652535
481.8340153
497.189361
304.1713632
308.0607814
312.2403191
317.0571213
314.7923834
321.9753716
329.0867903
327.6595496
337.478078
343.6284702
357.5926453
365.7250352
377.8826592
387.1558109
307.1735963
308.8167088
310.127851
322.3621578
323.5801974
326.5819827
326.8500439
329.8982255
302.8772552
303.4581328
)
;

boundaryField
{
    flow
    {
        type            calculated;
        value           nonuniform List<scalar> 
15
(
702.3910538
730.288237
729.9139705
763.7452504
749.4555031
758.042144
734.6254525
750.4712391
731.4093756
715.3088451
699.1468102
688.9882912
711.1073936
655.3426111
624.6703179
)
;
    }
    obstacle
    {
        type            calculated;
        value           nonuniform List<scalar> 
30
(
633.3068446
592.6179547
670.7303342
679.5988133
591.9670681
631.5250374
668.152032
572.4633593
636.4337177
638.0531217
613.6490926
671.8282542
642.6841293
607.7195257
630.2764901
645.8483308
594.3421097
617.6927909
617.1412817
610.9283003
612.7314451
632.7617338
604.8890817
590.1403016
593.4651932
602.1408664
651.3738508
614.4024197
614.6408154
687.7218181
)
;
    }
    frontAndBack
    {
        type            empty;
    }
    procBoundary1to0
    {
        type            processor;
        value           nonuniform List<scalar> 
21
(
705.8329477
782.5634945
736.5655515
710.2953488
641.4530834
591.411121
554.396917
491.6900896
443.7177822
408.0722901
406.4348911
372.5601296
336.1113927
343.1377107
338.4943753
323.3146829
325.9228202
304.8850306
295.8856084
303.5317212
303.1575168
)
;
    }
    procBoundary1to3
    {
        type            processor;
        value           nonuniform List<scalar> 
36
(
632.7450703
566.2206483
586.9758783
576.6788096
605.0550378
632.7450703
619.2155237
503.22224
516.3450652
507.365275
540.094378
566.2206483
560.8872822
405.3057098
411.2878713
414.1775699
434.1899752
503.22224
461.7105487
327.8648335
333.5847277
353.341785
360.4794532
365.0487925
405.3057098
369.7721347
306.827537
296.3263638
302.071746
304.2822935
310.7028985
327.8648335
317.4058851
294.1510336
306.827537
291.4999367
)
;
    }
}


// ************************************************************************* //
