/*--------------------------------*- C++ -*----------------------------------*\
  =========                 |
  \\      /  F ield         | OpenFOAM: The Open Source CFD Toolbox
   \\    /   O peration     | Website:  https://openfoam.org
    \\  /    A nd           | Version:  7
     \\/     M anipulation  |
\*---------------------------------------------------------------------------*/
FoamFile
{
    version     2.0;
    format      ascii;
    class       volScalarField;
    location    "0.001";
    object      linearKEMean;
}
// * * * * * * * * * * * * * * * * * * * * * * * * * * * * * * * * * * * * * //

dimensions      [1 -1 -2 0 0 0 0];

internalField   nonuniform List<scalar> 
546
(
1.250711056
1.269989637
1.274026825
1.411134582
1.445086969
1.568342055
1.486258238
1.442999142
1.319126792
1.448409196
1.518952143
1.663922524
1.534832645
1.593971506
1.586854566
1.680836779
1.708869991
1.628960588
1.61624587
1.680305413
1.891318358
1.766799175
1.747176415
1.681325883
1.862010553
2.000333562
1.894836224
2.111059282
2.03597502
2.147390742
1.548753902
1.516066275
1.558571038
1.498368346
1.52544971
1.550184534
1.664185016
1.629220993
1.707942506
1.750031011
1.713961415
1.796090671
1.800250299
1.806895435
1.889426879
1.886212046
1.847457576
1.895589201
1.916352279
1.967891148
1.908508176
2.051150546
2.174580399
2.37403107
2.17613276
2.250458395
2.36883621
2.249819636
2.322563899
2.448527701
1.570552155
1.601631566
1.609357231
1.68019604
1.788867892
1.733024409
1.824295146
1.993009128
1.872513384
1.951200209
1.951392691
1.919487429
2.040737348
1.895288139
1.895245375
1.965277929
2.1018605
2.032518409
2.131183372
2.211237588
2.385621339
2.427585377
2.35043154
2.312018952
2.272710118
2.424890856
2.418263158
2.538346294
2.520758045
2.408589063
1.607990968
1.635915405
1.764532519
1.815486397
1.822987131
1.914053095
1.95049817
2.024621898
1.947590747
1.897063012
2.044829162
2.069529105
2.115307337
2.164957148
2.254304066
2.35033926
2.328075547
2.385142245
2.508020531
2.468043042
2.350724162
2.379304382
2.377633583
2.391698298
2.508477552
2.518716033
2.665109644
2.793568315
2.716166817
2.729413099
1.539446387
1.58222831
1.585280533
1.549311463
1.647184459
1.760310024
1.801718364
1.881030431
1.874634913
1.92444844
2.096487279
2.168979034
2.207402226
2.205137537
2.2952904
2.22307544
2.322523128
2.299525458
2.370850263
2.346453982
2.379620225
2.381243879
2.535289464
2.605523824
2.642751407
2.65956803
2.713265541
2.722794241
2.849108763
3.011826751
1.312691752
1.39334994
1.546075959
1.679947255
1.702120508
1.707712602
1.771968747
1.764184887
1.876186537
2.097540821
2.114761481
1.991545715
2.142641488
2.337066624
2.287303381
2.366116061
2.438984757
2.449879812
2.404257397
2.362660616
2.378526304
2.432336088
2.684715754
2.780093121
2.775962179
2.817360525
2.813582832
2.781590194
2.815312256
2.87034086
1.547070607
1.564827003
1.472362894
1.549120459
1.64536918
1.698957832
1.794587657
1.869492502
1.935506896
1.923159374
2.113883872
2.177488592
2.136143572
2.23514238
2.428827024
2.464753088
2.577314605
2.677690728
2.619722603
2.621552272
2.685562942
2.658114871
2.768957924
2.789386227
2.975375073
2.875231602
2.912194534
2.938413184
3.011475042
3.135943244
1.373537976
1.457021867
1.563907508
1.584270762
1.71970843
1.821674187
1.87518968
1.900702941
2.023970489
2.045164778
2.087500846
2.157048675
2.155181463
2.241228471
2.420193263
2.488820949
2.477562092
2.586891115
2.588035139
2.573124122
2.681018872
2.780861698
2.715982777
2.739826836
2.712706959
2.8823851
2.860096391
2.86757018
2.880019742
3.202060185
1.379812697
1.455371
1.6303071
1.671151728
1.669302443
1.897324347
1.946863295
1.912766519
1.839190545
1.933420119
2.05345448
2.186422629
2.259357329
2.189652999
2.196758575
2.354510233
2.441387387
2.518567361
2.585325634
2.621454383
2.517390516
2.658892647
2.792355678
2.882961676
2.931778886
2.896123582
3.009018141
3.166818241
3.29069947
3.391488759
1.583313476
1.541247679
1.559827825
1.658403526
1.74789267
1.74215996
1.856567975
1.814313745
1.836130597
1.893161651
1.974010338
2.117250603
2.059844112
2.221528695
2.331441736
2.374216789
2.413841115
2.368121271
2.412595292
2.578643554
2.736635695
2.748600387
2.906109446
2.888728387
3.067439113
3.064697158
3.061389663
3.251997218
3.140187133
3.2279335
1.359196476
1.372945215
1.469399332
1.466468895
1.545605415
1.662575993
1.735227756
1.79708101
1.873409065
1.912635298
1.952600284
2.0151645
2.068398615
2.1752096
2.28298258
2.306129805
2.404303893
2.523483229
2.578389273
2.609059083
2.568073134
2.710868448
2.725499612
2.742266381
2.857691434
2.95365054
3.055647067
3.167744424
3.485524396
3.529912424
1.305194353
1.373517849
1.403164169
1.379875559
1.512666784
1.5611363
1.600481447
1.645175686
1.783777152
1.829707995
1.842705378
1.878030063
2.014930552
2.00848701
1.972998102
2.182046374
2.304168545
2.341155461
2.418144174
2.378330746
2.461795533
2.500682555
2.633512869
2.834316567
2.840955661
3.006552674
3.042464278
3.103988231
3.382604445
3.589989525
1.322191843
1.359964614
1.35763006
1.515966533
1.516305344
1.610738579
1.596741667
1.616343745
1.682912563
1.760804266
1.744467602
1.86382971
1.833338959
2.033149167
2.086983118
2.08343113
2.223796799
2.282214835
2.398380718
2.492510332
2.436355906
2.670507915
2.657348324
2.8263558
2.873276473
2.942118833
3.126408477
3.156356508
3.224327749
3.344930489
1.316471457
1.350533543
1.426467507
1.467812511
1.502000927
1.485828218
1.573788282
1.647403055
1.723326647
1.888569413
1.898430335
1.945136997
1.973097318
1.918760433
1.987848243
2.083770829
2.189277178
2.271044681
2.350695355
2.63126377
2.67887396
2.567533679
2.591167319
2.651826785
2.880312935
2.815643569
2.770713767
2.892016725
3.182170824
3.501922505
1.423972172
1.401191451
1.403824877
1.441071662
1.511566767
1.545361482
1.636161323
1.630985351
1.658609243
1.63816604
1.721926989
1.802480396
1.863119286
2.004724947
2.094383768
2.17342232
2.175207499
2.151724637
2.317713471
2.250999598
2.448453908
2.513980885
2.572225834
2.743754148
2.685435428
2.789395411
2.83430956
2.967328847
3.05424814
3.09343876
1.259417662
1.375022518
1.402677415
1.497040521
1.567335219
1.516238057
1.634633846
1.689199015
1.800953824
1.888541884
1.799955855
1.896524489
1.931831808
1.99076511
2.047882868
2.072563438
2.052930183
2.165985311
2.157178282
2.259233418
2.371766157
2.484509839
2.349798241
2.401588334
2.653806901
2.784525001
2.99712559
3.003458858
3.101901261
1.437536536
1.402751967
1.469145864
1.504791382
1.431289432
1.508605075
1.558450264
1.686952059
1.672122509
1.69486013
1.787513764
1.771523865
1.814945869
1.831744568
1.881452398
2.038024887
2.06898483
2.246319808
2.330611966
2.377046626
2.338404504
2.384867358
2.526055469
2.497468187
1.367287058
1.458423434
1.408136483
1.466175185
1.522126234
1.556072185
1.556664626
1.658868421
1.651162031
1.651751071
1.694290345
1.748789764
1.773576814
1.802341051
1.93620881
1.966690353
2.070121782
2.061511853
2.122491713
1.317753186
1.387251829
1.408898558
1.380497591
1.445004563
1.446069402
1.480636284
1.520990259
1.563766468
1.691177494
1.75378142
1.779780129
1.835388218
1.925559036
1.290879458
1.3195772
1.355033802
1.410046562
1.4658818
1.557463191
1.605066634
1.589745695
1.198985471
1.248630811
)
;

boundaryField
{
    flow
    {
        type            calculated;
        value           nonuniform List<scalar> 
15
(
2.147390742
2.448527701
2.408589063
2.729413099
3.011826751
2.87034086
3.135943244
3.202060185
3.391488759
3.2279335
3.529912424
3.589989525
3.344930489
3.501922505
3.09343876
)
;
    }
    obstacle
    {
        type            calculated;
        value           nonuniform List<scalar> 
30
(
4.118664833e-19
4.275283563e-19
3.182234268e-19
5.616656911e-19
4.116582679e-19
5.533295712e-19
6.531492328e-19
4.965866974e-19
4.674592576e-19
4.735184213e-19
4.489346425e-19
5.64292863e-19
6.121838913e-19
6.239249009e-19
5.286358081e-19
5.308099756e-19
6.272551644e-19
5.783063531e-19
6.653549731e-19
6.531961281e-19
6.831040166e-19
5.523098958e-19
7.374727654e-19
8.289450004e-19
5.525904913e-19
6.824315582e-19
6.887097639e-19
7.31244527e-19
7.268344638e-19
6.89793402e-19
)
;
    }
    frontAndBack
    {
        type            empty;
    }
    procBoundary1to0
    {
        type            processor;
        value           nonuniform List<scalar> 
21
(
1.189175435
1.493516414
1.572872949
1.588369075
1.439818546
1.329952318
1.439732968
1.239104166
1.336436427
1.426412972
1.368897076
1.255932093
1.357650356
1.217067725
1.462970722
1.250918033
1.338227312
1.32095106
1.311477982
1.354734891
1.204733306
)
;
    }
    procBoundary1to3
    {
        type            processor;
        value           nonuniform List<scalar> 
36
(
3.307092077
2.574628763
2.565952615
2.559716081
2.805027078
3.307092077
2.953971339
2.090413407
2.152970773
2.303272879
2.342614867
2.574628763
2.470356067
1.965497531
1.953968374
1.957247108
1.993507236
2.090413407
2.121837174
1.622333331
1.615303073
1.694669381
1.681095903
1.659132704
1.965497531
1.767063131
1.348127511
1.438362888
1.537893263
1.599784123
1.615061844
1.622333331
1.612544261
1.427675401
1.348127511
1.458663413
)
;
    }
}


// ************************************************************************* //
