/*--------------------------------*- C++ -*----------------------------------*\
  =========                 |
  \\      /  F ield         | OpenFOAM: The Open Source CFD Toolbox
   \\    /   O peration     | Website:  https://openfoam.org
    \\  /    A nd           | Version:  7
     \\/     M anipulation  |
\*---------------------------------------------------------------------------*/
FoamFile
{
    version     2.0;
    format      ascii;
    class       volScalarField;
    location    "0.001";
    object      p;
}
// * * * * * * * * * * * * * * * * * * * * * * * * * * * * * * * * * * * * * //

dimensions      [1 -1 -2 0 0 0 0];

internalField   nonuniform List<scalar> 
546
(
3.86712805
3.735595202
3.71514462
3.633040667
3.459116871
3.524474162
3.364453389
3.377596242
3.385161602
3.357770243
3.213118479
3.19282489
3.380843163
3.205663937
3.233981482
3.244527642
2.995647724
3.016521119
3.043075305
3.042403067
3.171337702
3.008605675
2.894540688
2.983882214
2.830545729
2.879631384
2.699603079
2.810220913
2.393479686
1.983613374
3.729617672
3.677061371
3.734589657
3.44853625
3.357299764
3.413094063
3.432950188
3.388521437
3.557831417
3.549316914
3.326802301
3.257930085
3.22908462
3.216752285
3.248455117
3.081333335
3.099542588
3.116468895
3.02871298
3.145515407
3.214937329
3.06225842
2.879684171
2.997905259
2.86711237
2.779418769
2.714870335
2.478025922
2.384224339
1.860652173
3.401103013
3.412327225
3.386475338
3.293725061
3.217910849
3.373064827
3.31957741
3.244653413
3.244202284
3.250751568
3.275513865
3.25567353
3.259313721
2.943335432
3.195522406
2.982137473
3.084404038
3.026207089
3.000174064
3.057697321
3.005552951
2.857853197
2.846812998
2.858248165
2.771399405
2.609096871
2.578552809
2.551113918
2.282008125
1.864633078
3.227840425
3.184767833
3.215288044
3.196549307
3.150683525
3.176279163
3.293762551
3.242025337
3.20993306
3.164238336
3.16176515
3.120693853
3.273434802
3.02408734
3.141508834
3.054949668
3.094391978
3.04824902
3.065130129
3.011628968
2.939158581
2.849109948
2.894840587
2.786600451
2.703524932
2.475983839
2.444820502
2.52030544
2.15307233
1.797956824
2.93884443
2.965828667
2.963989191
3.045369755
3.01764871
3.064865701
3.062072612
3.143597053
2.885445474
2.925625605
2.98820868
3.05427596
3.075748008
2.920997667
2.861468896
2.974354039
3.033535178
2.907963854
2.891726708
2.854660794
2.91809845
2.853957348
2.755760811
2.698013082
2.560570068
2.52907793
2.513143982
2.265875674
2.109958877
1.804991931
2.523948044
2.6265045
2.717776827
2.784546182
2.917820417
2.837963618
2.864751973
2.936638253
2.81115832
2.814056234
2.895488564
2.835190144
2.980060648
2.812466432
2.832037153
2.802889121
2.945143692
2.787124856
2.864765096
2.861768051
2.827598578
2.705933511
2.825490903
2.703431501
2.451768233
2.588167001
2.413490757
2.326975055
2.11486348
1.917233114
2.163157379
2.345053753
2.344870909
2.541646404
2.733269608
2.759810712
2.712676324
2.812337577
2.805261266
2.802962131
2.752194668
2.686560324
2.732875462
2.702965794
2.666761455
2.7005699
2.676981823
2.784456587
2.796991375
2.698164838
2.706954571
2.6403
2.659417316
2.561098089
2.308903462
2.605759281
2.475702091
2.399484795
2.198809602
2.012332131
1.977437165
2.124082763
2.195824511
2.321914531
2.455791938
2.514396685
2.491549428
2.537766548
2.644136451
2.549543743
2.542207102
2.670282959
2.755486521
2.765686208
2.715754967
2.678315007
2.732950277
2.687032499
2.786461004
2.61314329
2.644817466
2.601625348
2.501021706
2.515031671
2.345827851
2.439992724
2.397916136
2.334335586
2.188520968
2.119073825
1.668448646
1.838301932
2.051875184
2.094482898
2.099645546
2.201013586
2.316129549
2.331821679
2.435050769
2.496783315
2.490278015
2.511721678
2.560664914
2.599597914
2.51145152
2.643330511
2.568710481
2.621362404
2.647479086
2.605969466
2.611827781
2.513890986
2.502655
2.471000018
2.39810865
2.402095559
2.420286806
2.354788298
2.201364724
1.990102418
1.440051241
1.465656036
1.75867355
1.87828848
1.891419519
1.955126174
2.100662746
2.176564816
2.180651808
2.251148676
2.325349449
2.357101616
2.314448602
2.377759532
2.469045255
2.438744555
2.532320377
2.577291313
2.569396488
2.659239069
2.452569529
2.466682165
2.518764088
2.470054966
2.423149349
2.37634636
2.419230935
2.260531403
2.12232076
1.997874281
1.244013599
1.252937263
1.446820264
1.62662197
1.696159843
1.721715284
1.878736049
1.90740713
1.980553795
2.099433072
2.157859
2.216497364
2.129851719
2.298437657
2.354424582
2.321129054
2.440577626
2.427254428
2.492994057
2.468117251
2.489845894
2.496278978
2.42924372
2.436785666
2.332272278
2.345454753
2.301289729
2.174827814
2.147406588
2.196841304
0.9462830244
1.123975245
1.141594503
1.280634775
1.421403064
1.54303396
1.664156313
1.802517045
1.818147653
1.883140124
2.048757066
2.132323827
2.102472727
2.189203404
2.241266622
2.312744093
2.319030572
2.347158665
2.339417351
2.441397301
2.41888233
2.367508956
2.348402858
2.324689444
2.220590044
2.298200054
2.192917425
2.23158953
2.199503999
2.193725054
0.8978448882
0.9546296531
1.024121372
1.120032854
1.240449278
1.337755938
1.405207966
1.535919581
1.629653589
1.627949054
1.80982125
1.885740221
1.931472956
1.962680785
2.035493048
2.13374877
2.235515542
2.247184018
2.317872236
2.314465382
2.36081569
2.350170584
2.448117412
2.26723425
2.205721261
2.243526429
2.413419342
2.317121266
2.278053083
2.124014168
0.692752331
0.8064995068
0.9518657312
1.059558402
1.074031815
1.197085045
1.24848795
1.330461619
1.40492187
1.520873623
1.615074316
1.771612438
1.787036174
1.785152825
1.872425924
1.986932342
2.107350818
2.113025759
2.097239603
2.132958383
2.20167748
2.235064692
2.308584636
2.360729177
2.238395629
2.294174051
2.221952473
2.265973729
2.137649099
2.160347732
0.6754314684
0.7011386038
0.7907601965
0.8547031858
0.9079161715
0.9845460547
1.036772404
1.179831243
1.224272118
1.303927223
1.469074472
1.550306063
1.604912027
1.66724691
1.783042143
1.775721432
1.857792015
1.9173013
1.994316809
2.043505721
2.040973488
2.171098562
2.213686013
2.241860699
2.212782447
2.12401543
2.148823939
2.078335455
2.163789057
2.112924455
0.6209121126
0.6281781646
0.6718966053
0.735279152
0.799244907
0.8553818165
0.8658314346
0.9395455585
1.072477941
1.083537715
1.232907417
1.388084111
1.496266784
1.50317059
1.56159547
1.665982216
1.717927717
1.813641975
1.847520732
1.982511365
1.914377692
1.920174389
2.079947262
2.185938119
2.094456578
2.178529541
2.085105489
2.170280752
2.16157293
0.553314749
0.5713143409
0.5964535732
0.6676700361
0.7135505425
0.772363605
0.7958540536
0.8428171922
0.9742626079
1.020471529
1.09369201
1.172185899
1.323531416
1.351165644
1.356312305
1.479981401
1.50581299
1.614323653
1.726089893
1.807406427
1.854127549
1.873565833
1.890680676
1.978742987
0.5375972506
0.5394868254
0.5992196002
0.6193034686
0.6279134447
0.6802079379
0.7085670879
0.7333618011
0.7716947569
0.8356009308
0.8932308719
0.972389472
1.031829819
1.171372486
1.220346473
1.297886526
1.382939096
1.487797358
1.618644363
0.4632763198
0.5059856821
0.511788252
0.5497900861
0.5530653587
0.6140125891
0.6565122812
0.6772084934
0.6828914981
0.7244130669
0.7918765228
0.8267534417
0.9464803114
1.039374531
0.4489919667
0.4750517747
0.4747984697
0.4814180567
0.5428386252
0.5615309748
0.6193596735
0.6293333246
0.4265637666
0.4450113543
)
;

boundaryField
{
    flow
    {
        type            calculated;
        value           nonuniform List<scalar> 
15
(
1.983613374
1.860652173
1.864633078
1.797956824
1.804991931
1.917233114
2.012332131
2.119073825
1.990102418
1.997874281
2.196841304
2.193725054
2.124014168
2.160347732
2.112924455
)
;
    }
    obstacle
    {
        type            calculated;
        value           nonuniform List<scalar> 
30
(
2.981818386
3.029552071
3.080362767
3.171750265
2.853426754
2.912314277
2.779339934
2.808403684
2.960600392
2.862996396
2.747761819
2.685303755
2.803505663
2.743122864
2.792751411
2.762289559
2.579229283
2.485285599
2.662908106
2.61374353
2.666258172
2.722721627
2.413107434
2.528746626
2.458385015
2.450330234
2.279128102
2.276221146
2.176733606
1.870324398
)
;
    }
    frontAndBack
    {
        type            empty;
    }
    procBoundary1to0
    {
        type            processor;
        value           nonuniform List<scalar> 
21
(
4.048306615
3.745635021
3.57010604
3.13662297
2.779165802
2.462356819
2.124437946
1.955657293
1.5674313
1.306546806
1.065805798
0.9273334259
0.7602319534
0.6611503756
0.63433042
0.5520963525
0.5656250759
0.5191179356
0.4577414127
0.4455265359
0.4437074001
)
;
    }
    procBoundary1to3
    {
        type            processor;
        value           nonuniform List<scalar> 
36
(
2.161051428
2.053561106
2.011449534
2.079552421
2.041970293
2.161051428
2.059238037
1.670403866
1.7115579
1.702456179
1.785403011
2.053561106
1.898612014
1.132540636
1.17407869
1.193143543
1.290191933
1.670403866
1.388152739
0.6406555023
0.6802115156
0.735337057
0.7445934759
0.8276984478
1.132540636
0.8683725617
0.4734892318
0.4696676923
0.5016962928
0.5210665648
0.5399516295
0.6406555023
0.5500160752
0.4523387583
0.4734892318
0.4501023407
)
;
    }
}


// ************************************************************************* //
