/*--------------------------------*- C++ -*----------------------------------*\
  =========                 |
  \\      /  F ield         | OpenFOAM: The Open Source CFD Toolbox
   \\    /   O peration     | Website:  https://openfoam.org
    \\  /    A nd           | Version:  7
     \\/     M anipulation  |
\*---------------------------------------------------------------------------*/
FoamFile
{
    version     2.0;
    format      ascii;
    class       volScalarField;
    location    "0.001";
    object      p;
}
// * * * * * * * * * * * * * * * * * * * * * * * * * * * * * * * * * * * * * //

dimensions      [1 -1 -2 0 0 0 0];

internalField   nonuniform List<scalar> 
546
(
0.7367873832
0.755452911
0.7397460044
0.8256749829
0.823247824
0.9254506466
0.8660196812
0.8453818344
0.7806646331
0.8395269913
0.8691643948
0.9666919977
0.8951066417
0.9351901038
0.9190601445
0.9802959701
1.011477935
0.9432542732
0.9497779004
0.9972891491
1.116555782
1.048213442
1.048891763
1.003867817
1.102346221
1.18373617
1.122928603
1.240283243
1.191058131
1.280351427
0.8255029926
0.7941449364
0.8157268962
0.7916729841
0.8221920698
0.8180862337
0.8936271669
0.8594434096
0.8640453156
0.8907571913
0.9208160322
0.9815364146
0.994806555
0.9803166788
1.038364148
1.017423861
0.991133024
1.035471988
1.046387376
1.045003451
1.04855287
1.126203399
1.170150351
1.274650794
1.152501872
1.255031082
1.322848148
1.241627273
1.302298612
1.37598901
0.8186276276
0.8256952261
0.8211358728
0.8549685817
0.8974883927
0.8826787204
0.9335878811
0.9515225098
0.8976436419
0.9359482532
0.9597252072
0.9732550688
1.032916582
0.9498061796
0.9605856615
1.014012865
1.090110229
1.012673358
1.078841751
1.138162596
1.196062492
1.192611715
1.146629598
1.184481747
1.191519179
1.270125177
1.289812934
1.380484876
1.365545433
1.328558415
0.7886412966
0.7695505168
0.8165404049
0.8426836035
0.8326163298
0.8891863043
0.9562360947
0.9859172596
0.8742697716
0.9032236175
0.9989322254
0.9854341028
0.9993007972
1.032567209
1.046317926
1.079749219
1.135243248
1.130049825
1.252373532
1.227163742
1.147679253
1.116200548
1.140869087
1.199562929
1.246387552
1.268796758
1.361595982
1.441685044
1.464644335
1.477523529
0.7116838589
0.7079782627
0.7607493321
0.75278644
0.7831139898
0.8097073486
0.8379347999
0.8851900728
0.8425319601
0.9325195947
0.9806400172
0.9842195694
1.013250798
0.9684170511
1.06540049
0.9816908742
1.040148713
1.089839067
1.170166123
1.110794569
1.109981049
1.101785286
1.218460543
1.281668902
1.276689256
1.28710951
1.330971728
1.389896735
1.450268706
1.594893909
0.6020783275
0.6580509746
0.7564322803
0.7659910987
0.7775153455
0.7988113518
0.7993278889
0.7621989704
0.8144285792
0.927411831
0.9188676322
0.8577968666
0.9583771537
1.04083814
0.9900226639
1.034350283
1.129659855
1.138592987
1.10067613
1.059480359
1.071671333
1.106244646
1.228268955
1.2652886
1.257691983
1.33852469
1.392530261
1.367297135
1.420480468
1.52302778
0.6735673416
0.6828378692
0.6882528875
0.6957625422
0.758874945
0.7760170761
0.8325153783
0.8229148672
0.8512530706
0.8169132346
0.900217951
0.9543795466
0.899427104
0.9691318765
1.049614088
1.07043588
1.116446465
1.214518007
1.075980722
1.101474778
1.117470574
1.115476649
1.272617896
1.302461185
1.337687717
1.322902975
1.423158119
1.366984483
1.459846249
1.665996996
0.6375514262
0.6501496396
0.6852473217
0.7114541632
0.7480215444
0.803775641
0.8666386421
0.8589226576
0.9194254741
0.8289536233
0.872293979
0.9051635445
0.918299117
0.9551268348
1.054350494
1.050986354
1.06844975
1.077021318
1.052810952
1.050567238
1.138442064
1.199500789
1.211009207
1.21656719
1.288721925
1.266088785
1.317564603
1.351324372
1.378091015
1.660604221
0.6432058264
0.6391740348
0.7121139643
0.758432278
0.7455144329
0.8617179625
0.9244994523
0.8663138805
0.735255559
0.7636766097
0.7820180723
0.9197825787
0.9427050415
0.8657422808
0.8892526038
0.9846808973
1.090057675
1.032444744
1.067255277
1.01542072
1.068488286
1.182986161
1.250540927
1.261678017
1.366091853
1.385488037
1.353806278
1.4682171
1.56029091
1.697058747
0.7147574753
0.6768967173
0.6845640539
0.7405816047
0.7649375919
0.8094614475
0.8767165891
0.8235647108
0.7604747313
0.7983926867
0.8411454343
0.8733099479
0.8060724705
0.8632127856
0.9219766398
0.9942787898
1.01541188
1.018379882
1.054304301
1.08713951
1.145850763
1.192362208
1.267998331
1.239622196
1.321734228
1.410131032
1.389087316
1.509595916
1.603029936
1.669803794
0.6269968948
0.5848313191
0.6907725482
0.6850967195
0.6902345521
0.7197159413
0.7632918832
0.7664842624
0.8187793449
0.860859514
0.8568390604
0.8586638358
0.8042633325
0.8764964814
0.9015390018
0.9711073332
1.028228032
1.091197757
1.074110127
1.14131858
1.053830599
1.183365416
1.219031883
1.224303817
1.296500461
1.345366459
1.429936951
1.490086051
1.717685341
1.779950051
0.5625552223
0.6217979109
0.658371904
0.5871152336
0.6463193393
0.6788096606
0.6614276972
0.6967486374
0.7623100654
0.8354281752
0.7830836106
0.7688595519
0.7993759265
0.8296248045
0.7825453937
0.8821391361
1.000342878
0.9911630109
1.055528441
1.035208652
1.063236066
1.082177025
1.150618807
1.208327505
1.235387371
1.330141831
1.363747926
1.424498828
1.619608242
1.821329147
0.6041042734
0.6205602424
0.6188109116
0.6521357561
0.6615300358
0.6838293799
0.644930945
0.6990428088
0.708820321
0.7510572785
0.7183702098
0.8216358854
0.7681109787
0.8576259361
0.8535475414
0.8561361711
0.9496459556
0.9918593618
1.043229755
1.147363781
1.010762443
1.138503538
1.145941855
1.206376412
1.169860506
1.248234377
1.385980709
1.440805117
1.526429177
1.713943789
0.6361593662
0.6013421188
0.6184909053
0.6547665855
0.6902343981
0.6623663974
0.6628723068
0.7191125595
0.7355890284
0.7917412744
0.7858344718
0.8024006179
0.780453912
0.8166121628
0.8562545232
0.8822712354
0.9326109728
0.8962605645
0.9506504491
1.059236599
1.087213672
1.10171649
1.074343233
1.123228178
1.300619685
1.243599918
1.225842909
1.382318926
1.559140048
1.811226903
0.6508563082
0.6236523089
0.6103658506
0.6123384048
0.6549045644
0.67553309
0.706733292
0.716944903
0.7367502378
0.7439177472
0.7414455699
0.7798690628
0.7838711727
0.8202758024
0.8979767547
0.9632972751
0.9081332635
0.8976947789
0.9254781182
0.9484251348
1.103474678
1.102929287
1.101679322
1.214871279
1.20413476
1.316057016
1.328064025
1.362433698
1.434042463
1.550629824
0.5585079751
0.5752352063
0.5972833602
0.6281362765
0.6315966622
0.6021536134
0.6747709652
0.6800597457
0.7899925668
0.8391831678
0.7926701679
0.8223966555
0.8268269001
0.8207867259
0.8643250328
0.8556407268
0.8485302858
0.8845906338
0.8969711678
0.9654419878
0.9668539588
1.10776692
1.015618107
1.097167405
1.153880753
1.207451464
1.423962024
1.342129874
1.382386678
0.5636039063
0.5840200863
0.6468425916
0.6907481124
0.6268549773
0.6254903329
0.6242526144
0.7944470122
0.7742559462
0.7685364388
0.8034776788
0.75795935
0.7926895961
0.7864703289
0.8080480226
0.8542417086
0.8688677895
0.9294033143
0.9667346394
0.9703463297
0.908699567
1.037781127
1.070818116
1.151534373
0.6248499612
0.6834087621
0.6237958325
0.6392838745
0.6541929117
0.6916460635
0.6695755669
0.7747364238
0.718750147
0.7627243589
0.8027590122
0.7885836806
0.80862631
0.7683054865
0.7919661236
0.848129437
0.9109480299
0.8366652116
0.9067939767
0.6098012604
0.6407863896
0.6613238799
0.661902297
0.6908287881
0.6690624237
0.7133358458
0.682636752
0.6917860113
0.7574619833
0.7905529909
0.7921421027
0.7652028011
0.8325268526
0.5638482155
0.5948654289
0.5966146327
0.6324913907
0.6977105167
0.7480392635
0.7562138284
0.688669897
0.5532912467
0.5812978095
)
;

boundaryField
{
    flow
    {
        type            calculated;
        value           nonuniform List<scalar> 
15
(
1.280351427
1.37598901
1.328558415
1.477523529
1.594893909
1.52302778
1.665996996
1.660604221
1.697058747
1.669803794
1.779950051
1.821329147
1.713943789
1.811226903
1.550629824
)
;
    }
    obstacle
    {
        type            calculated;
        value           nonuniform List<scalar> 
30
(
0.5423472242
0.5676955035
0.4045779723
0.668435202
0.5799470335
0.6791936198
0.677292762
0.701520194
0.5610908295
0.5346154637
0.6019012582
0.7309040397
0.6878234203
0.7259720178
0.652948325
0.6809878407
0.7772860497
0.6826013281
0.7021930713
0.6953371141
0.770206261
0.6575520346
0.7891362356
0.7915134248
0.732658816
0.9025313026
0.7789971282
0.8568607348
0.8922761284
0.9088278062
)
;
    }
    frontAndBack
    {
        type            empty;
    }
    procBoundary1to0
    {
        type            processor;
        value           nonuniform List<scalar> 
21
(
0.6966425749
0.7912873447
0.8077403975
0.8088635531
0.720597533
0.6031598565
0.6195470101
0.5664012689
0.5895603386
0.6406351078
0.6226999989
0.5762167295
0.588665137
0.6021820568
0.658554487
0.5386874399
0.5394572502
0.5754092134
0.5776449314
0.6292258761
0.5746164658
)
;
    }
    procBoundary1to3
    {
        type            processor;
        value           nonuniform List<scalar> 
36
(
1.650874589
1.199472889
1.147965317
1.221949495
1.346046629
1.650874589
1.46051187
0.9232540051
0.9414479558
1.021823322
1.015961474
1.199472889
1.088010831
0.8292257798
0.7521536663
0.8160159942
0.8836454154
0.9232540051
0.9323412363
0.7151780017
0.7346298121
0.7919801281
0.7338653736
0.7203292672
0.8292257798
0.7616070125
0.6459531759
0.6591502412
0.7244589502
0.7586575787
0.739554346
0.7151780017
0.7036864921
0.6379792615
0.6459531759
0.6397991368
)
;
    }
}


// ************************************************************************* //
