/*--------------------------------*- C++ -*----------------------------------*\
  =========                 |
  \\      /  F ield         | OpenFOAM: The Open Source CFD Toolbox
   \\    /   O peration     | Website:  https://openfoam.org
    \\  /    A nd           | Version:  7
     \\/     M anipulation  |
\*---------------------------------------------------------------------------*/
FoamFile
{
    version     2.0;
    format      ascii;
    class       volScalarField;
    location    "0.001";
    object      rhoMMean;
}
// * * * * * * * * * * * * * * * * * * * * * * * * * * * * * * * * * * * * * //

dimensions      [1 -3 0 0 0 0 0];

internalField   nonuniform List<scalar> 
546
(
2.699899031e-06
2.757024439e-06
2.529731388e-06
3.018971848e-06
3.072836722e-06
3.336439058e-06
3.210942453e-06
3.118605222e-06
2.930610105e-06
2.944824204e-06
3.159420757e-06
3.4632472e-06
3.217716609e-06
3.54046247e-06
3.497792197e-06
3.578341474e-06
3.602711115e-06
3.405401695e-06
3.759924446e-06
3.830910312e-06
4.00499746e-06
3.767482827e-06
3.986962037e-06
4.184859874e-06
4.402386827e-06
4.53214295e-06
4.363366229e-06
4.782596781e-06
4.890166152e-06
5.57443838e-06
2.715195814e-06
2.705417914e-06
2.704060193e-06
2.761824386e-06
2.513126936e-06
2.497761947e-06
2.904855255e-06
2.744650914e-06
2.834839203e-06
2.869972045e-06
3.005182421e-06
3.311017739e-06
3.484101558e-06
3.190144352e-06
3.396015875e-06
3.338443961e-06
3.259428399e-06
3.382218324e-06
3.604225751e-06
3.543389279e-06
3.50101521e-06
3.765351006e-06
3.994234533e-06
4.16457587e-06
3.849259555e-06
4.423467987e-06
4.365528062e-06
4.044668602e-06
4.625905794e-06
5.316167121e-06
2.51061702e-06
2.391533214e-06
2.460905199e-06
2.718229698e-06
2.778708628e-06
2.70782967e-06
2.954915975e-06
2.883452356e-06
2.830437085e-06
2.919008345e-06
2.965853132e-06
3.012506878e-06
3.226627754e-06
3.02195589e-06
2.950024814e-06
3.038284102e-06
3.247811485e-06
3.033817377e-06
3.341647898e-06
3.616586925e-06
3.687439801e-06
3.632284867e-06
3.514252131e-06
4.020311576e-06
3.929664074e-06
4.118040062e-06
4.276060479e-06
4.373674455e-06
4.47132134e-06
4.592662192e-06
2.498413875e-06
2.385530771e-06
2.544649216e-06
2.503866287e-06
2.460598185e-06
2.644678105e-06
2.782963095e-06
2.884738763e-06
2.668165375e-06
2.793637479e-06
3.015582306e-06
2.956124256e-06
2.939396012e-06
2.901262005e-06
2.990715043e-06
3.167220237e-06
3.414613183e-06
3.396753546e-06
3.752763708e-06
3.626110057e-06
3.425924458e-06
3.304874318e-06
3.354139059e-06
3.630335439e-06
3.737657785e-06
3.810416977e-06
4.165435248e-06
4.406581146e-06
4.596419338e-06
5.010112894e-06
2.166005812e-06
2.152279006e-06
2.275331899e-06
2.24457088e-06
2.323228489e-06
2.500860096e-06
2.611991086e-06
2.654469041e-06
2.529830316e-06
2.827593147e-06
2.840960098e-06
2.889632671e-06
2.944043448e-06
2.791890779e-06
3.002529174e-06
2.799904439e-06
3.170544654e-06
3.259086924e-06
3.480872868e-06
3.382720494e-06
3.415495678e-06
3.391712211e-06
3.709850897e-06
3.968520366e-06
3.789408206e-06
3.864268287e-06
4.006435463e-06
4.298259896e-06
4.571066435e-06
5.257786006e-06
1.860840136e-06
1.9927976e-06
2.257686508e-06
2.246700475e-06
2.38385505e-06
2.422570823e-06
2.294518707e-06
2.244212984e-06
2.274665575e-06
2.72993847e-06
2.588458822e-06
2.492032519e-06
2.811900785e-06
3.048624224e-06
2.840280742e-06
2.922940063e-06
3.22639987e-06
3.268885725e-06
3.14752706e-06
3.096538092e-06
3.064497707e-06
3.199404705e-06
3.677345363e-06
3.764034915e-06
3.709088046e-06
3.852280581e-06
4.199485185e-06
4.215972204e-06
4.36470297e-06
4.698621116e-06
2.085511176e-06
2.115629768e-06
2.135282542e-06
2.115638395e-06
2.235548526e-06
2.270654403e-06
2.435654775e-06
2.214508802e-06
2.343529017e-06
2.296347135e-06
2.627888819e-06
2.737646735e-06
2.628315614e-06
2.849582742e-06
2.875998125e-06
2.978986603e-06
3.179950006e-06
3.318559393e-06
3.028009886e-06
3.22209344e-06
3.246295201e-06
3.273528033e-06
3.542516699e-06
3.606922545e-06
3.778441296e-06
3.70975143e-06
4.207978402e-06
4.073700459e-06
4.296490835e-06
5.123886657e-06
1.873934353e-06
1.953228498e-06
2.22086801e-06
2.114304765e-06
2.236040801e-06
2.425180401e-06
2.582643705e-06
2.449375065e-06
2.445287301e-06
2.303544467e-06
2.471109576e-06
2.534892915e-06
2.658193094e-06
2.659154135e-06
2.950363811e-06
2.824488987e-06
3.050176548e-06
3.079646441e-06
3.001629784e-06
2.898882906e-06
3.216614468e-06
3.313881501e-06
3.320748159e-06
3.478202975e-06
3.610583683e-06
3.611046383e-06
3.741554259e-06
3.878290878e-06
4.053207032e-06
5.213755099e-06
2.180765975e-06
2.068518747e-06
2.216048548e-06
2.323816268e-06
2.326799218e-06
2.519625508e-06
2.584435091e-06
2.474471355e-06
2.112751337e-06
2.16615627e-06
2.194511358e-06
2.604075972e-06
2.566253418e-06
2.42578214e-06
2.521628203e-06
2.711301975e-06
2.897187058e-06
2.850184831e-06
2.992667248e-06
2.928693454e-06
3.002029158e-06
3.367237088e-06
3.360927441e-06
3.453801945e-06
3.736088103e-06
3.904269633e-06
3.71830302e-06
4.088539708e-06
4.64637316e-06
5.297170192e-06
2.132192986e-06
1.939421075e-06
2.128198613e-06
2.163962502e-06
2.126008317e-06
2.218266715e-06
2.507254365e-06
2.500544752e-06
2.2820957e-06
2.347210739e-06
2.380722577e-06
2.501176175e-06
2.297934114e-06
2.463156193e-06
2.533442324e-06
2.745823897e-06
2.838652171e-06
2.821928306e-06
2.944293263e-06
3.017330703e-06
3.184782443e-06
3.277590669e-06
3.494702263e-06
3.400812162e-06
3.643328851e-06
3.941256191e-06
3.766739602e-06
4.258515896e-06
4.748711744e-06
4.992845258e-06
1.909731682e-06
1.85882068e-06
2.150302361e-06
2.035633748e-06
2.079737699e-06
2.143263292e-06
2.216276868e-06
2.144600622e-06
2.28778281e-06
2.388076485e-06
2.377200731e-06
2.402645678e-06
2.336330186e-06
2.491646094e-06
2.648986734e-06
2.752486107e-06
2.883863291e-06
3.002341552e-06
3.006049046e-06
3.074529418e-06
2.873506447e-06
3.173131839e-06
3.215289281e-06
3.28824665e-06
3.565425526e-06
3.76853854e-06
3.959851405e-06
4.012565193e-06
4.712120033e-06
5.450420993e-06
1.79912627e-06
1.898137583e-06
2.140752258e-06
1.791163373e-06
1.88419311e-06
1.952198498e-06
1.868517509e-06
2.067155568e-06
2.24646549e-06
2.346082379e-06
2.218650933e-06
2.258074827e-06
2.278831297e-06
2.320026267e-06
2.285510573e-06
2.504189249e-06
2.799165339e-06
2.718713317e-06
2.779310529e-06
2.807266608e-06
2.766099404e-06
2.895428802e-06
3.057162388e-06
3.216345745e-06
3.401760884e-06
3.676592128e-06
3.820353554e-06
4.071027739e-06
4.546546776e-06
5.305127891e-06
1.952321094e-06
1.924456546e-06
1.945672534e-06
1.972920458e-06
1.860863433e-06
1.88566283e-06
1.791658767e-06
1.918561382e-06
1.943653867e-06
2.215297765e-06
2.047562134e-06
2.243139244e-06
2.12967509e-06
2.361996636e-06
2.337777439e-06
2.419302014e-06
2.664948413e-06
2.669548604e-06
2.77603098e-06
3.104545895e-06
2.573516744e-06
2.966889509e-06
3.134986408e-06
3.346128403e-06
3.301436888e-06
3.620017665e-06
3.911101013e-06
4.099459377e-06
4.454071261e-06
5.170346455e-06
2.049629939e-06
1.841404569e-06
1.870236438e-06
1.968783752e-06
2.083372675e-06
1.881519065e-06
1.821438363e-06
2.066372862e-06
2.040683063e-06
2.242416378e-06
2.221688071e-06
2.303764779e-06
2.272445301e-06
2.275706145e-06
2.295101273e-06
2.374609879e-06
2.489537849e-06
2.481314925e-06
2.658286665e-06
2.921720909e-06
2.907036646e-06
3.006695203e-06
2.979351311e-06
3.0730048e-06
3.43413682e-06
3.424603486e-06
3.290319009e-06
3.858882609e-06
4.311106723e-06
5.187820956e-06
1.99090069e-06
1.934491226e-06
1.884911121e-06
1.82282923e-06
1.84884454e-06
2.050359813e-06
2.060384499e-06
2.072370751e-06
2.062869063e-06
2.152292408e-06
2.192603754e-06
2.171174965e-06
2.277322492e-06
2.34006893e-06
2.53935616e-06
2.609509727e-06
2.537526299e-06
2.494584697e-06
2.54346321e-06
2.704291799e-06
3.062405222e-06
3.082757869e-06
2.872541685e-06
3.185030118e-06
3.291464141e-06
3.580069125e-06
3.668425186e-06
3.860973049e-06
3.982666733e-06
4.421319338e-06
1.775158326e-06
1.811395969e-06
1.871578364e-06
1.826636528e-06
1.845478567e-06
1.82753388e-06
2.011918534e-06
2.0202391e-06
2.210700441e-06
2.403965108e-06
2.264979772e-06
2.334542608e-06
2.332139754e-06
2.267466721e-06
2.361377702e-06
2.293108211e-06
2.327491709e-06
2.445573235e-06
2.486652314e-06
2.62431083e-06
2.703941094e-06
3.063903952e-06
2.94552927e-06
3.074425172e-06
3.144594203e-06
3.322483223e-06
4.012194244e-06
3.69586459e-06
3.830547588e-06
1.797807594e-06
1.810319792e-06
1.884595105e-06
2.013770809e-06
1.863304008e-06
1.855387399e-06
1.773142744e-06
2.221445919e-06
2.214463849e-06
2.197203815e-06
2.250490656e-06
2.1572672e-06
2.157757469e-06
2.172784555e-06
2.127447512e-06
2.30180899e-06
2.469972842e-06
2.583789822e-06
2.701357033e-06
2.730782338e-06
2.643535543e-06
2.945188867e-06
2.916797682e-06
3.149515464e-06
1.925509903e-06
1.996610144e-06
1.845875481e-06
1.93574022e-06
2.037399271e-06
1.959485124e-06
1.933669175e-06
2.131115102e-06
2.035161347e-06
2.138987696e-06
2.222840871e-06
2.060040692e-06
2.181931797e-06
2.16073783e-06
2.203976638e-06
2.403585166e-06
2.55892165e-06
2.308693342e-06
2.513720864e-06
1.875759584e-06
1.899804971e-06
1.929350866e-06
2.045444007e-06
2.071778095e-06
2.012067943e-06
2.105414119e-06
2.013954607e-06
1.930998486e-06
2.169681196e-06
2.21288934e-06
2.167632856e-06
2.109691176e-06
2.420989929e-06
1.769486138e-06
1.9311998e-06
1.923913934e-06
1.940625174e-06
2.225286571e-06
2.315246889e-06
2.234360611e-06
1.95504616e-06
1.87604584e-06
1.813074238e-06
)
;

boundaryField
{
    flow
    {
        type            calculated;
        value           nonuniform List<scalar> 
15
(
5.57443838e-06
5.316167121e-06
4.592662192e-06
5.010112894e-06
5.257786006e-06
4.698621116e-06
5.123886657e-06
5.213755099e-06
5.297170192e-06
4.992845258e-06
5.450420993e-06
5.305127891e-06
5.170346455e-06
5.187820956e-06
4.421319338e-06
)
;
    }
    obstacle
    {
        type            calculated;
        value           nonuniform List<scalar> 
30
(
9.221573799e-25
1.24164073e-24
8.889101452e-25
1.383952093e-24
1.161599928e-24
1.38089872e-24
1.907062751e-24
1.398831635e-24
1.17888873e-24
1.14819441e-24
1.208427721e-24
1.500665946e-24
1.582222175e-24
1.99039517e-24
1.439964873e-24
1.372939954e-24
1.607440628e-24
1.843173767e-24
1.601495787e-24
1.73281599e-24
1.508291966e-24
1.385081088e-24
1.724864828e-24
2.382780615e-24
1.721717453e-24
1.890572487e-24
1.81784607e-24
1.978736945e-24
2.070350503e-24
2.052385051e-24
)
;
    }
    frontAndBack
    {
        type            empty;
    }
    procBoundary1to0
    {
        type            processor;
        value           nonuniform List<scalar> 
21
(
2.590582068e-06
2.535383335e-06
2.50626444e-06
2.332469073e-06
2.193402136e-06
1.940024774e-06
2.008858498e-06
1.732536562e-06
1.904566311e-06
2.035618483e-06
1.851488636e-06
1.810173443e-06
1.843143373e-06
1.968712047e-06
1.979039414e-06
1.687082581e-06
1.699506048e-06
1.818300001e-06
1.895817962e-06
1.995072511e-06
1.913696393e-06
)
;
    }
    procBoundary1to3
    {
        type            processor;
        value           nonuniform List<scalar> 
36
(
4.676195763e-06
3.390170533e-06
3.32771685e-06
3.611754219e-06
3.810625997e-06
4.676195763e-06
4.096048238e-06
2.642338506e-06
2.646552843e-06
2.851869106e-06
3.015596625e-06
3.390170533e-06
3.194880436e-06
2.363194145e-06
2.279186413e-06
2.411881667e-06
2.477044945e-06
2.642338506e-06
2.469669473e-06
1.948905812e-06
2.114319432e-06
2.227992397e-06
2.066159562e-06
2.119063295e-06
2.363194145e-06
2.173793284e-06
2.06884105e-06
2.177246991e-06
2.269035245e-06
2.385907693e-06
2.238891892e-06
1.948905812e-06
2.080556462e-06
1.980497626e-06
2.06884105e-06
2.015084357e-06
)
;
    }
}


// ************************************************************************* //
