/*--------------------------------*- C++ -*----------------------------------*\
  =========                 |
  \\      /  F ield         | OpenFOAM: The Open Source CFD Toolbox
   \\    /   O peration     | Website:  https://openfoam.org
    \\  /    A nd           | Version:  7
     \\/     M anipulation  |
\*---------------------------------------------------------------------------*/
FoamFile
{
    version     2.0;
    format      ascii;
    class       volScalarField;
    location    "0.001";
    object      rhoN;
}
// * * * * * * * * * * * * * * * * * * * * * * * * * * * * * * * * * * * * * //

dimensions      [0 -3 0 0 0 0 0];

internalField   nonuniform List<scalar> 
546
(
2.131220701e+20
2.824943771e+20
2.959796142e+20
2.637903918e+20
3.235610583e+20
3.609539116e+20
3.050565763e+20
2.837662882e+20
2.62144456e+20
3.602749121e+20
2.6629129e+20
2.928155977e+20
3.812597414e+20
2.231701474e+20
2.874910162e+20
2.394483585e+20
2.668509989e+20
1.92203821e+20
2.325920848e+20
2.215409329e+20
3.023061779e+20
2.78409882e+20
2.942163428e+20
2.833187616e+20
4.219523565e+20
3.021373699e+20
2.217260726e+20
1.538296667e+20
1.834753253e+20
1.994280255e+20
3.028576787e+20
2.372952767e+20
3.870502648e+20
2.523212443e+20
2.7733805e+20
3.725975864e+20
2.229259596e+20
2.364719068e+20
3.693853698e+20
3.482657481e+20
3.147078882e+20
3.050162476e+20
1.967792212e+20
3.099585378e+20
3.499890629e+20
3.528712651e+20
2.668509989e+20
2.818989373e+20
2.842792145e+20
2.736682115e+20
1.708687094e+20
3.181827226e+20
3.209632833e+20
2.428446528e+20
1.769477624e+20
1.922692356e+20
1.662945546e+20
3.076593336e+20
2.399292716e+20
2.421626024e+20
2.243390211e+20
2.824943771e+20
3.301311082e+20
3.555435716e+20
2.54226546e+20
1.862987931e+20
3.637213023e+20
2.246483115e+20
2.621444562e+20
2.161649473e+20
1.936663926e+20
2.318123482e+20
3.443636371e+20
1.983734642e+20
3.374894538e+20
4.78896717e+20
1.906078563e+20
2.947125253e+20
2.713574322e+20
3.779227682e+20
3.023061777e+20
2.651522686e+20
3.343367534e+20
2.968101312e+20
2.450045941e+20
2.19736269e+20
1.524366749e+20
2.657057879e+20
2.25815785e+20
1.566934488e+20
2.355559722e+20
1.46897076e+20
1.935251324e+20
2.981978344e+20
2.657822979e+20
1.630114439e+20
2.581247953e+20
2.955898835e+20
9.532525673e+19
1.921466198e+20
3.389161873e+20
1.708090985e+20
2.582727278e+20
3.09958538e+20
1.749945316e+20
3.024610844e+20
2.541438085e+20
1.922038209e+20
2.71357432e+20
2.345727527e+20
1.708687094e+20
3.049251091e+20
2.273489921e+20
2.29353283e+20
2.858386931e+20
1.922692354e+20
2.217260728e+20
1.817986973e+20
1.693618389e+20
1.139588714e+20
2.692068253e+20
2.937941519e+20
2.95979614e+20
2.867286865e+20
2.311150417e+20
1.164367458e+20
2.111930144e+20
2.955898835e+20
2.978914273e+20
3.242474207e+20
2.178746918e+20
1.952103986e+20
3.074675334e+20
2.355684889e+20
1.999937504e+20
1.512305422e+20
2.9226538e+20
2.178309973e+20
1.679831723e+20
1.954772937e+20
2.365874434e+20
1.988642013e+20
1.604816415e+20
2.158619136e+20
1.769477627e+20
3.158708862e+20
1.940103128e+20
2.517212737e+20
2.681562449e+20
1.709383081e+20
2.916407279e+20
2.033959516e+20
1.821413012e+20
2.752595395e+20
2.311150418e+20
1.862987932e+20
3.050565763e+20
3.074134789e+20
2.263974847e+20
2.401832746e+20
1.936663926e+20
2.684142977e+20
4.919480526e+20
2.72763513e+20
2.499921878e+20
1.38627997e+20
2.287294276e+20
3.459668776e+20
2.196703023e+20
3.127636705e+20
1.840124563e+20
2.253794289e+20
2.540959339e+20
3.103015008e+20
2.450045924e+20
2.746703363e+20
2.355839534e+20
2.796903036e+20
1.552483518e+20
8.546915325e+19
2.01905119e+20
2.033959513e+20
1.593736383e+20
2.179138018e+20
2.888938021e+20
2.212298169e+20
2.933236311e+20
2.246483115e+20
2.859757702e+20
2.521924385e+20
1.452497947e+20
2.440129983e+20
2.090779227e+20
2.603651719e+20
2.624917972e+20
4.032814456e+20
2.287294276e+20
2.690853492e+20
2.325920855e+20
2.085091151e+20
3.285936741e+20
2.386370432e+20
2.139755226e+20
2.563360242e+20
2.994500631e+20
1.648022032e+20
2.078681941e+20
2.936748187e+20
1.834753265e+20
3.276317601e+20
1.233864616e+20
1.920961764e+20
1.138383132e+20
1.835063596e+20
1.964477854e+20
2.910918642e+20
2.346589049e+20
2.719426928e+20
1.19156571e+20
2.041557835e+20
2.178746917e+20
1.830097484e+20
2.213766239e+20
2.479668304e+20
3.624886734e+20
2.016407234e+20
2.287294272e+20
3.459668759e+20
2.842792133e+20
3.648909471e+20
2.365874418e+20
1.458337461e+20
2.540959309e+20
1.753878045e+20
1.769477615e+20
3.433379173e+20
2.494418286e+20
1.398451505e+20
1.975888113e+20
1.994280242e+20
3.028576787e+20
2.033959515e+20
1.138383131e+20
1.261606222e+20
1.617805293e+20
1.862987932e+20
1.877271239e+20
2.482955022e+20
1.549035422e+20
1.681282922e+20
2.904995884e+20
1.952103986e+20
2.582727282e+20
1.6117844e+20
2.874910164e+20
3.150636276e+20
2.160222368e+20
1.537630572e+20
2.067485196e+20
2.345727517e+20
2.891624313e+20
1.856065891e+20
2.407224629e+20
2.023705437e+20
2.177818603e+20
2.19736269e+20
2.078681941e+20
2.517212732e+20
2.540427574e+20
3.133868981e+20
1.233864616e+20
1.920961763e+20
2.16292795e+20
1.94975507e+20
2.080035375e+20
1.979424676e+20
1.290623975e+20
1.65530335e+20
2.144818275e+20
1.681282917e+20
1.573539447e+20
2.440129979e+20
2.336753243e+20
2.479668304e+20
1.999937497e+20
3.276661753e+20
2.541438101e+20
2.690853501e+20
2.196703021e+20
2.345727537e+20
2.365874438e+20
1.590913608e+20
2.006020524e+20
2.023705437e+20
2.450045949e+20
2.060027522e+20
2.632997103e+20
2.37736758e+20
2.68156244e+20
1.566934476e+20
1.458203637e+20
1.129977505e+20
1.252221439e+20
1.605680642e+20
2.080035375e+20
1.630114443e+20
2.346589059e+20
1.418831447e+20
2.740601135e+20
2.642016016e+20
2.299788401e+20
2.196116981e+20
2.459740275e+20
2.479668304e+20
1.999937513e+20
2.268458137e+20
2.287294254e+20
2.562717599e+20
7.753069486e+19
3.127636689e+20
2.1029995e+20
2.916674972e+20
2.273489927e+20
3.103015003e+20
2.586159591e+20
2.746703363e+20
2.910154718e+20
2.936748187e+20
2.681562464e+20
2.279177462e+20
1.009525599e+20
9.039820105e+19
1.252221451e+20
1.605680649e+20
1.50224777e+20
1.862987924e+20
1.759941773e+20
2.482954995e+20
1.668191983e+20
2.161649484e+20
1.81562245e+20
2.806149497e+20
2.336753261e+20
1.859751228e+20
1.874941404e+20
2.898585397e+20
2.033150481e+20
2.56271762e+20
2.584356495e+20
2.345727517e+20
2.497311886e+20
2.651522657e+20
2.808428686e+20
3.642669786e+20
2.994500631e+20
2.472033048e+20
2.217260738e+20
1.957832125e+20
2.258157844e+20
2.991420364e+20
2.019051184e+20
1.016979751e+20
1.252221442e+20
1.605680649e+20
1.155575207e+20
1.280804207e+20
1.877271253e+20
1.891775263e+20
1.310722282e+20
1.200916371e+20
2.541871391e+20
1.464077976e+20
1.475844153e+20
1.611784398e+20
2.624917965e+20
1.764356314e+20
2.414366177e+20
2.050174096e+20
2.325920846e+20
3.257954912e+20
2.628749398e+20
2.121218161e+20
1.471081718e+20
2.428446524e+20
2.586159591e+20
3.296044006e+20
3.880206256e+20
2.936748187e+20
2.822697305e+20
2.136728831e+20
8.973560819e+19
7.909842564e+19
9.107065033e+19
1.376297689e+20
1.386690249e+20
1.630114433e+20
1.290623967e+20
1.891775249e+20
1.310722282e+20
1.561191282e+20
2.299788401e+20
2.684142977e+20
3.197662332e+20
2.851618527e+20
1.624949217e+20
2.394483589e+20
2.541438081e+20
1.665766439e+20
2.71357432e+20
2.215409322e+20
2.497311886e+20
2.386370411e+20
3.477102242e+20
2.023705437e+20
2.04170494e+20
3.021373699e+20
4.157363846e+20
1.538296656e+20
2.68156244e+20
2.991420391e+20
7.851865773e+19
1.016979766e+20
6.830298825e+19
1.032223275e+20
1.502247781e+20
1.280804207e+20
1.994600691e+20
1.064123585e+20
1.668191995e+20
1.321008008e+20
1.69458094e+20
1.830097498e+20
1.721818192e+20
1.611784398e+20
1.874941419e+20
2.772559945e+20
1.397790944e+20
2.178309977e+20
2.455138691e+20
2.60636393e+20
2.497311907e+20
2.518946567e+20
2.674694032e+20
2.56336022e+20
2.994500605e+20
4.394725419e+20
2.910154718e+20
2.936748187e+20
2.82269733e+20
1.994280261e+20
6.730170614e+19
5.649887505e+19
7.968681904e+19
9.175317996e+19
5.777876037e+19
1.979424684e+20
1.173294533e+20
4.729438158e+19
1.310722292e+20
1.20091638e+20
9.683319584e+19
1.098058482e+20
1.598831166e+20
1.611784398e+20
6.249804679e+19
2.394483589e+20
1.270719051e+20
2.306445858e+20
1.809049547e+20
2.21540934e+20
2.234436988e+20
1.193185216e+20
2.273489927e+20
2.56336022e+20
2.04170494e+20
2.746703339e+20
2.494418308e+20
2.097677277e+20
2.258157844e+20
8.973560819e+19
1.24297526e+20
1.366059765e+20
9.175317996e+19
1.040017687e+20
1.513677688e+20
1.407953419e+20
1.300595474e+20
1.310722272e+20
1.080824742e+20
1.210414967e+20
1.952103998e+20
1.475844165e+20
1.983734643e+20
1.874941404e+20
1.890381765e+20
1.524862848e+20
1.793902334e+20
1.679831722e+20
2.476045712e+20
2.628749353e+20
3.181827188e+20
1.738551106e+20
2.293532848e+20
7.851865773e+19
5.649887545e+19
6.830298725e+19
1.261606215e+20
1.040017687e+20
1.164367461e+20
8.213061732e+19
1.300595493e+20
1.310722282e+20
1.561191282e+20
1.210414948e+20
7.320389936e+19
2.213766247e+20
9.918673216e+19
1.124964851e+20
1.764356343e+20
1.90607856e+20
1.793902319e+20
1.162960423e+20
1.233864621e+20
1.355973011e+20
1.024544824e+20
1.490989174e+20
9.24460166e+19
1.280804198e+20
9.386356124e+19
1.418831437e+20
1.906505138e+20
1.321008008e+20
7.262489744e+19
9.760519915e+19
9.838961021e+19
4.959336608e+19
6.730170614e+19
9.039820007e+19
1.024544816e+20
9.175317996e+19
1.155575216e+20
5.821837305e+19
8.21306167e+19
1.064123585e+20
8.973560883e+19
6.779865104e+19
)
;

boundaryField
{
    flow
    {
        type            zeroGradient;
    }
    obstacle
    {
        type            calculated;
        value           nonuniform List<scalar> 
30
(
236.431806
84.75233332
136.9208532
434.3239122
355.9753248
264.349785
2.225073859e-308
81.8354641
60.02050323
237.2714377
191.4241604
127.7738835
70.07537984
33.55640248
37.51855789
124.970656
61.01318672
2.225073859e-308
233.1676761
2.225073859e-308
297.54195
94.55864537
44.78854235
181.9078379
173.1890525
2.225073859e-308
2.225073859e-308
2.225073859e-308
194.9890898
51.80195303
)
;
    }
    frontAndBack
    {
        type            empty;
    }
    procBoundary1to0
    {
        type            processor;
        value           nonuniform List<scalar> 
21
(
2.783833088e+20
2.115713147e+20
2.338419794e+20
1.781653177e+20
2.561126443e+20
2.227066472e+20
1.670299853e+20
1.447593206e+20
1.670299853e+20
1.336239882e+20
1.670299853e+20
1.224886564e+20
5.567666177e+19
7.794732592e+19
1.224886559e+20
1.447593206e+20
1.113533235e+20
1.113533235e+20
1.113533243e+20
1.113533235e+20
1.55894653e+20
)
;
    }
    procBoundary1to3
    {
        type            processor;
        value           nonuniform List<scalar> 
36
(
2.991420391e+20
2.586159636e+20
2.334697879e+20
1.247209165e+20
2.517212732e+20
2.991420391e+20
1.834753248e+20
2.345727517e+20
2.234436969e+20
1.458337486e+20
2.54095933e+20
2.586159636e+20
2.023705437e+20
8.749726551e+19
1.26025451e+20
2.033150464e+20
1.025087048e+20
2.345727517e+20
1.938267371e+20
1.549035424e+20
1.801374556e+20
8.472904636e+19
7.320389936e+19
1.475844165e+20
8.749726551e+19
1.239834152e+20
1.138383137e+20
6.881488497e+19
1.155575207e+20
8.150572227e+19
3.519883599e+19
1.549035424e+20
8.276516776e+19
8.973560819e+19
1.138383137e+20
5.649887505e+19
)
;
    }
}


// ************************************************************************* //
