/*--------------------------------*- C++ -*----------------------------------*\
  =========                 |
  \\      /  F ield         | OpenFOAM: The Open Source CFD Toolbox
   \\    /   O peration     | Website:  https://openfoam.org
    \\  /    A nd           | Version:  7
     \\/     M anipulation  |
\*---------------------------------------------------------------------------*/
FoamFile
{
    version     2.0;
    format      ascii;
    class       volScalarField;
    location    "0.001";
    object      dsmcSigmaTcRMax;
}
// * * * * * * * * * * * * * * * * * * * * * * * * * * * * * * * * * * * * * //

dimensions      [0 3 -1 0 0 0 0];

internalField   nonuniform List<scalar> 
5120
(
5.483063749e-16
5.630604648e-16
5.837829316e-16
5.652505722e-16
6.060694852e-16
6.232739753e-16
5.778735803e-16
6.031888521e-16
5.927775207e-16
5.466230722e-16
5.691475513e-16
5.844821181e-16
5.953645765e-16
5.671351734e-16
5.929539116e-16
5.327851134e-16
6.565950096e-16
5.465525639e-16
5.756845388e-16
5.571081565e-16
5.475332475e-16
5.559718449e-16
5.407401735e-16
6.092303794e-16
5.661628246e-16
6.353820236e-16
6.204189979e-16
5.361300595e-16
5.593845237e-16
5.694209108e-16
5.73128748e-16
5.62578343e-16
5.764755374e-16
5.548066822e-16
5.76923207e-16
5.662051621e-16
5.326108646e-16
5.966101239e-16
5.800488325e-16
5.677119056e-16
5.596486549e-16
5.311167058e-16
5.385433681e-16
5.647862757e-16
5.80853206e-16
5.524148902e-16
5.800903948e-16
5.525591132e-16
5.534389431e-16
5.959174914e-16
5.491691082e-16
5.7387127e-16
5.646759693e-16
5.44866888e-16
5.80722523e-16
5.965569281e-16
5.821963498e-16
5.548455177e-16
5.463505457e-16
5.342488223e-16
5.98346563e-16
5.558746692e-16
5.976657916e-16
5.41308552e-16
6.031555086e-16
5.743003969e-16
5.698263927e-16
6.022774352e-16
5.812721203e-16
5.536521734e-16
6.212767349e-16
5.717500515e-16
6.022264028e-16
5.459992071e-16
5.634984011e-16
6.058094491e-16
5.701541366e-16
6.065316314e-16
6.03132776e-16
6.040308636e-16
5.442061411e-16
5.440843194e-16
5.809013811e-16
5.706961604e-16
5.665873065e-16
5.925601762e-16
5.554008405e-16
5.536409719e-16
6.232193271e-16
5.536984837e-16
5.856724207e-16
4.969456435e-16
5.4199041e-16
5.731788263e-16
5.746638246e-16
5.7538515e-16
5.406667512e-16
5.230714509e-16
6.008913992e-16
5.302388676e-16
5.600889073e-16
5.589670313e-16
5.958089259e-16
5.796861634e-16
5.783708751e-16
5.625919904e-16
5.331174479e-16
6.065714027e-16
5.653711689e-16
6.116480345e-16
5.863470727e-16
5.633459113e-16
5.474890936e-16
5.512085356e-16
5.440287883e-16
5.495436588e-16
5.666134683e-16
5.571960271e-16
5.418431095e-16
5.698294511e-16
6.13386749e-16
5.976569505e-16
5.506045362e-16
5.480582146e-16
5.819272811e-16
5.555096876e-16
5.693728696e-16
5.621441863e-16
5.789970883e-16
5.455783313e-16
5.618540517e-16
5.808889953e-16
5.481403583e-16
5.790983155e-16
5.584943956e-16
5.18690404e-16
5.751466655e-16
5.863685749e-16
5.985517172e-16
5.734408937e-16
5.679517855e-16
5.653660791e-16
5.824185823e-16
5.210185496e-16
6.444582264e-16
5.607162822e-16
5.893737661e-16
5.316695205e-16
5.985885932e-16
5.609658488e-16
6.283826652e-16
6.027631567e-16
5.92962247e-16
6.219499549e-16
5.673002295e-16
5.950279672e-16
5.670779133e-16
5.790835847e-16
5.596254817e-16
6.012136859e-16
5.74555079e-16
5.358340241e-16
5.859278386e-16
6.218563516e-16
6.000502813e-16
5.363491456e-16
5.158208684e-16
5.384997369e-16
5.73262842e-16
5.526664959e-16
5.635729875e-16
5.530442705e-16
5.564175482e-16
5.688415111e-16
6.021869516e-16
5.694558067e-16
5.638356447e-16
5.565035314e-16
5.840569807e-16
5.660329119e-16
6.042177457e-16
5.445792927e-16
5.211798031e-16
5.305702297e-16
5.515908687e-16
5.311453475e-16
5.744608037e-16
6.341767241e-16
5.36952388e-16
6.04231138e-16
5.716859409e-16
5.672842331e-16
5.363428249e-16
5.63258219e-16
5.170624451e-16
6.384754105e-16
5.754605581e-16
5.306045674e-16
5.919897092e-16
5.726341925e-16
5.630493722e-16
6.534671634e-16
5.93368645e-16
5.623886649e-16
5.891979142e-16
5.553227399e-16
6.046015301e-16
5.653548463e-16
5.997466541e-16
5.565378852e-16
5.539396321e-16
5.632863258e-16
5.95677471e-16
5.79231311e-16
5.55677215e-16
5.535115377e-16
6.046961904e-16
5.382298911e-16
5.683865115e-16
5.409308354e-16
5.541548643e-16
5.88892952e-16
6.162980004e-16
5.477348005e-16
5.915194625e-16
6.381728622e-16
5.561907481e-16
6.41226055e-16
5.726594644e-16
5.921657281e-16
5.749867211e-16
5.865740432e-16
5.809267434e-16
6.057766538e-16
5.749054249e-16
6.265724099e-16
5.643448353e-16
5.753094391e-16
5.579675246e-16
5.556943064e-16
5.580571274e-16
5.285511365e-16
5.665795094e-16
5.805599141e-16
5.824745487e-16
5.809033701e-16
5.486562702e-16
5.771042068e-16
5.713211164e-16
5.641782444e-16
5.862535833e-16
5.412251149e-16
6.182525042e-16
5.612493187e-16
5.335248997e-16
5.721838644e-16
6.178768096e-16
5.624114478e-16
5.964431238e-16
5.36744701e-16
5.478151769e-16
5.643523918e-16
5.648937693e-16
5.228866615e-16
5.428152862e-16
6.000630453e-16
5.705016752e-16
5.689090608e-16
6.039697893e-16
5.47527165e-16
5.638361924e-16
5.28558816e-16
5.385567198e-16
5.836810649e-16
5.780372686e-16
5.666733894e-16
5.423317487e-16
5.583582411e-16
6.474175434e-16
5.716861184e-16
5.458363198e-16
5.500465562e-16
5.463357927e-16
5.753977818e-16
5.855725276e-16
5.342071422e-16
6.149356251e-16
5.5364981e-16
5.336439432e-16
5.958957151e-16
5.398229063e-16
6.117439549e-16
5.308922793e-16
5.292904116e-16
5.526278351e-16
5.96093674e-16
6.181633911e-16
6.265171912e-16
5.348191548e-16
5.958435984e-16
5.606387834e-16
5.463162117e-16
5.7072652e-16
6.066289781e-16
6.087970956e-16
5.472822036e-16
5.869788134e-16
5.917893828e-16
5.314685997e-16
6.095504172e-16
5.931491149e-16
5.611744319e-16
5.474033201e-16
5.80008925e-16
5.324903797e-16
6.317606026e-16
5.726646694e-16
5.37534213e-16
5.434882812e-16
5.259992918e-16
5.687832681e-16
5.853160945e-16
5.962425976e-16
5.760782272e-16
5.467210314e-16
6.143994813e-16
5.922520802e-16
5.570992946e-16
5.530857664e-16
5.837177353e-16
5.487716607e-16
6.229653914e-16
6.636940058e-16
5.850559419e-16
6.261601876e-16
5.760690702e-16
5.502000006e-16
5.644757917e-16
6.501444249e-16
5.345952394e-16
5.701355434e-16
5.701503636e-16
5.325297128e-16
5.477401171e-16
5.776803576e-16
5.642565007e-16
5.739091443e-16
5.326587254e-16
5.698011884e-16
5.337704231e-16
5.313178915e-16
6.163297483e-16
6.031505936e-16
5.435502941e-16
5.53365848e-16
5.627538159e-16
5.527303339e-16
5.224778308e-16
6.094193468e-16
5.81340216e-16
6.298577625e-16
5.303679802e-16
5.830682714e-16
5.630132986e-16
6.028166489e-16
6.014109056e-16
5.437936269e-16
6.01876348e-16
5.440164609e-16
5.854585971e-16
6.392269122e-16
6.128725387e-16
5.486146506e-16
5.928363478e-16
5.67193376e-16
5.520207154e-16
5.641677208e-16
5.432429552e-16
6.157446237e-16
6.800170079e-16
5.33741044e-16
5.885517247e-16
6.052574236e-16
5.83195895e-16
5.652433075e-16
5.45689828e-16
5.545007154e-16
6.160046322e-16
6.143274789e-16
5.779718907e-16
6.00930022e-16
5.532816782e-16
5.559642132e-16
5.722728079e-16
5.353492181e-16
6.399275775e-16
5.410763548e-16
5.683740837e-16
5.7556988e-16
6.42452594e-16
6.131268288e-16
5.99152073e-16
5.63547685e-16
5.915764367e-16
5.63699332e-16
5.806203123e-16
5.837694523e-16
5.739509348e-16
5.674565603e-16
5.649482059e-16
5.745011503e-16
5.306335226e-16
5.441486641e-16
5.404394772e-16
5.579592768e-16
5.510584235e-16
5.860819247e-16
6.023747024e-16
6.210724849e-16
6.244484463e-16
5.861183805e-16
5.716706061e-16
5.927352535e-16
5.682906321e-16
5.372274609e-16
5.922668577e-16
5.571771576e-16
5.749931471e-16
5.881880384e-16
5.629235873e-16
5.450180638e-16
5.544994321e-16
6.091207973e-16
5.353704047e-16
5.738142139e-16
5.767761498e-16
5.827274729e-16
5.760902179e-16
5.791967657e-16
5.884467536e-16
5.560793167e-16
6.111270593e-16
5.990103304e-16
5.581095974e-16
5.439424108e-16
5.819575786e-16
5.575759669e-16
5.62222664e-16
5.282607213e-16
6.877764382e-16
6.336615472e-16
5.525448902e-16
5.567212049e-16
5.445497074e-16
5.198528644e-16
5.512414505e-16
5.475566865e-16
5.25791695e-16
6.816503041e-16
5.420321042e-16
5.484211675e-16
5.218111179e-16
5.644239117e-16
5.290630032e-16
6.114246861e-16
5.433542997e-16
5.592248212e-16
5.83977674e-16
5.742733994e-16
5.373559399e-16
5.836956772e-16
5.863777102e-16
5.988035967e-16
5.732411642e-16
5.826362024e-16
5.631505368e-16
5.762190717e-16
6.098117801e-16
5.615549019e-16
5.344857222e-16
5.770018164e-16
5.464580928e-16
5.489422804e-16
5.574347771e-16
5.546065412e-16
5.582079327e-16
5.595994074e-16
5.557922346e-16
6.023568249e-16
6.156528391e-16
5.488325496e-16
5.497324328e-16
5.62379552e-16
5.650707594e-16
5.877794869e-16
5.57435249e-16
5.898953394e-16
5.273926925e-16
5.420963065e-16
5.672095851e-16
5.492824003e-16
5.578861533e-16
5.600897624e-16
5.882733787e-16
5.438548125e-16
5.935001161e-16
5.617949535e-16
5.417956783e-16
5.532618374e-16
5.681625695e-16
5.758426804e-16
5.649132287e-16
5.346438955e-16
5.676671102e-16
5.583259821e-16
6.070450491e-16
5.449745808e-16
5.284493901e-16
5.550214948e-16
5.551829388e-16
5.616421738e-16
5.371029188e-16
6.335617713e-16
5.873927212e-16
5.665062059e-16
5.495299074e-16
5.348044954e-16
5.768213684e-16
5.640238361e-16
5.557079216e-16
5.911587748e-16
5.54961025e-16
5.852353299e-16
6.313579584e-16
5.480250252e-16
6.079221137e-16
5.356469205e-16
5.935446433e-16
6.614425916e-16
6.52870973e-16
5.32511242e-16
5.573225399e-16
6.230148038e-16
5.577394322e-16
6.069788506e-16
5.809785103e-16
5.38843569e-16
5.98884209e-16
5.887075721e-16
5.649773087e-16
5.466018422e-16
5.499536453e-16
6.427033763e-16
5.815447367e-16
5.839255747e-16
5.390124967e-16
5.615444079e-16
5.346527446e-16
5.572178106e-16
6.260055063e-16
5.829664021e-16
5.727378431e-16
5.658381708e-16
5.630874925e-16
5.506149086e-16
5.234363908e-16
5.528774912e-16
5.793324945e-16
5.980549183e-16
6.310033417e-16
5.839051729e-16
5.301293167e-16
6.216861397e-16
5.575388906e-16
6.171603836e-16
6.416235989e-16
6.208328632e-16
5.45778399e-16
5.711536541e-16
5.415291756e-16
5.395675839e-16
5.583878479e-16
5.817217922e-16
5.903166587e-16
6.231957794e-16
5.733924199e-16
6.006893797e-16
6.137105963e-16
5.408773313e-16
5.60654029e-16
5.499119193e-16
6.043784519e-16
5.571578628e-16
6.010102113e-16
6.231909824e-16
5.557511458e-16
6.049947474e-16
6.528865122e-16
5.535355047e-16
5.700531412e-16
5.693223883e-16
5.67665089e-16
5.56827876e-16
6.043192018e-16
6.025536356e-16
5.886219964e-16
5.877689304e-16
5.315639796e-16
5.31069878e-16
5.582475393e-16
5.758622258e-16
5.416936937e-16
5.843297336e-16
5.731033267e-16
5.758416871e-16
5.521028088e-16
5.355457565e-16
5.832298218e-16
5.990165538e-16
5.2979164e-16
5.70539122e-16
5.745071526e-16
5.521223835e-16
5.758007322e-16
6.282588365e-16
5.683375706e-16
6.200897585e-16
5.605334912e-16
5.804095854e-16
6.213521118e-16
5.808956277e-16
5.535620378e-16
6.064861428e-16
5.766345803e-16
5.611990797e-16
5.823417933e-16
5.563466214e-16
5.643439762e-16
6.00917597e-16
5.545865843e-16
5.581313348e-16
5.871520458e-16
6.231623457e-16
5.593272927e-16
6.287789407e-16
5.574871661e-16
6.281108996e-16
5.587903376e-16
5.872244021e-16
6.409345085e-16
6.383911253e-16
6.067532547e-16
6.353274921e-16
5.603312578e-16
5.676705842e-16
6.631055097e-16
6.913645996e-16
6.711155773e-16
6.291452391e-16
5.968244242e-16
5.242668543e-16
5.404088236e-16
5.792815337e-16
5.669539667e-16
5.532104432e-16
5.466368267e-16
6.084972218e-16
5.476139131e-16
5.650903997e-16
6.020085e-16
6.231622988e-16
5.785773579e-16
5.413295615e-16
5.397358237e-16
5.612760734e-16
5.7339594e-16
5.838618054e-16
5.898751599e-16
6.504857296e-16
6.492016933e-16
5.897010242e-16
5.537900753e-16
6.120312405e-16
5.484399069e-16
5.25355895e-16
5.953855661e-16
5.799221331e-16
5.904021108e-16
6.196716924e-16
5.829704613e-16
5.642527676e-16
5.094018802e-16
5.368996689e-16
5.490863976e-16
5.734613344e-16
6.188929695e-16
5.580606142e-16
5.531619909e-16
5.813822814e-16
6.891963412e-16
5.448077031e-16
5.717115876e-16
5.441937683e-16
5.909679491e-16
5.90924095e-16
5.372968591e-16
5.429603558e-16
5.682596504e-16
6.107742103e-16
5.485549392e-16
5.853032683e-16
5.65164385e-16
5.574715159e-16
5.465264664e-16
6.008033867e-16
5.544903606e-16
6.044504446e-16
5.99631744e-16
5.982371823e-16
6.779590411e-16
5.652895143e-16
5.716052484e-16
5.661313834e-16
5.467066978e-16
5.900465644e-16
5.750908104e-16
6.011411193e-16
5.742049967e-16
5.40151642e-16
5.742348049e-16
5.318359625e-16
5.418636024e-16
5.640567387e-16
5.265566703e-16
5.446193021e-16
5.542018298e-16
5.483266041e-16
5.77837254e-16
6.241599163e-16
5.663775123e-16
6.270285155e-16
5.411941979e-16
5.727060048e-16
5.726757777e-16
5.870350956e-16
5.634896545e-16
5.463639642e-16
5.93181635e-16
5.817438809e-16
5.56944575e-16
6.113047859e-16
5.705133099e-16
5.950570613e-16
5.373023341e-16
5.450853285e-16
5.710707187e-16
6.02307598e-16
5.8250552e-16
6.036383172e-16
7.580522843e-16
6.036722831e-16
6.077893826e-16
5.793992655e-16
5.688067328e-16
5.129326292e-16
5.305501835e-16
6.221686976e-16
5.810879768e-16
5.694339193e-16
5.800704969e-16
5.592861689e-16
5.442092112e-16
6.076029649e-16
5.632692679e-16
5.545453362e-16
5.447670168e-16
5.899056122e-16
5.691490892e-16
6.193675055e-16
6.536726033e-16
5.11570438e-16
5.936050436e-16
5.465158944e-16
5.793298125e-16
5.548376421e-16
6.008310439e-16
5.461394422e-16
5.92971917e-16
5.576689947e-16
5.873235709e-16
5.583274839e-16
5.653713635e-16
5.669550882e-16
5.733413829e-16
5.605792011e-16
5.951085734e-16
5.819723137e-16
6.357245465e-16
5.613379042e-16
6.606817556e-16
5.471406274e-16
5.387378088e-16
5.62384953e-16
5.347422532e-16
5.841361435e-16
5.350498111e-16
5.508547694e-16
5.56351843e-16
6.194540633e-16
5.657994679e-16
5.777288678e-16
5.103908816e-16
5.724046211e-16
5.447071287e-16
5.889454008e-16
5.633065015e-16
5.382825825e-16
5.826794098e-16
5.627527428e-16
6.038715411e-16
5.346735625e-16
5.393037455e-16
5.89155326e-16
5.754481612e-16
5.531989091e-16
5.78888465e-16
5.924944273e-16
5.658433674e-16
5.797155741e-16
5.419959828e-16
5.402830304e-16
5.971941533e-16
5.578545807e-16
5.641412495e-16
6.507504451e-16
5.860787822e-16
5.509243239e-16
7.747726076e-16
6.508203091e-16
6.992963555e-16
5.855616063e-16
5.604990777e-16
5.625496934e-16
6.043310183e-16
5.306832469e-16
5.239503064e-16
5.529724557e-16
5.827595384e-16
5.770978698e-16
5.592612374e-16
6.250035093e-16
5.766775735e-16
5.409014918e-16
5.939552373e-16
6.038847435e-16
5.272268034e-16
5.44155175e-16
5.49024983e-16
5.936781842e-16
5.966267629e-16
5.724994122e-16
5.896891849e-16
6.16577326e-16
5.991880108e-16
5.967496861e-16
5.733211842e-16
5.79586704e-16
5.615760989e-16
5.971701167e-16
5.748181364e-16
5.709314741e-16
6.08960017e-16
5.795462522e-16
5.804947601e-16
5.514560298e-16
5.5958894e-16
5.447636507e-16
6.241527131e-16
5.686622478e-16
7.180821195e-16
5.959279166e-16
6.046007135e-16
5.277220617e-16
5.993508183e-16
5.154849128e-16
5.59817812e-16
5.693207568e-16
5.584186199e-16
5.242813711e-16
6.200915456e-16
5.62859483e-16
5.424436665e-16
5.411259366e-16
6.116561695e-16
5.821554468e-16
5.616067574e-16
5.680362216e-16
5.636270426e-16
5.743896165e-16
6.089349647e-16
5.52818543e-16
5.964437168e-16
5.931681763e-16
5.642751006e-16
5.409087507e-16
5.624311201e-16
5.993916071e-16
5.47677661e-16
5.594551349e-16
6.012405463e-16
6.010534001e-16
5.633275072e-16
6.008662765e-16
6.185966893e-16
5.74597782e-16
5.108400158e-16
5.612433483e-16
5.454837722e-16
5.596423258e-16
6.013159235e-16
5.389318816e-16
5.98905922e-16
5.47563195e-16
5.700632996e-16
5.583519833e-16
5.528828244e-16
6.413011598e-16
6.52966149e-16
5.777348175e-16
5.724212043e-16
5.571787912e-16
5.629755562e-16
5.747927414e-16
5.853753708e-16
5.611266093e-16
5.559312656e-16
5.722244804e-16
5.413381988e-16
5.997565411e-16
6.524644509e-16
5.837762195e-16
5.97640947e-16
6.340560697e-16
5.919791185e-16
5.467406318e-16
5.992474504e-16
5.970303268e-16
5.600073352e-16
5.827773763e-16
5.862779615e-16
5.572484891e-16
5.878116175e-16
6.297401664e-16
5.325538191e-16
6.458479216e-16
5.692763332e-16
5.913138054e-16
5.894735652e-16
5.604371355e-16
5.353086601e-16
5.563505704e-16
6.208989938e-16
5.645301949e-16
6.416236076e-16
5.682741052e-16
6.078072226e-16
7.2774407e-16
6.043439621e-16
6.107359234e-16
6.03646315e-16
6.407351408e-16
6.067671065e-16
6.916144382e-16
5.763930039e-16
6.131923146e-16
5.526737603e-16
7.014398544e-16
6.247256991e-16
5.717592137e-16
6.535308365e-16
5.779281547e-16
5.441426884e-16
5.652327171e-16
5.207682667e-16
5.466450312e-16
5.690641449e-16
5.481975355e-16
5.358629059e-16
5.528459869e-16
6.253192382e-16
6.481354606e-16
6.722460073e-16
6.799503866e-16
5.838076742e-16
6.218103493e-16
5.835774555e-16
6.945351853e-16
6.045074483e-16
7.180736373e-16
6.660702921e-16
5.608621409e-16
5.434793485e-16
5.685903857e-16
5.782926834e-16
6.019027324e-16
5.731319522e-16
5.67126461e-16
5.379276503e-16
5.725569403e-16
6.038588426e-16
5.618295081e-16
5.672939058e-16
5.574454598e-16
5.650823295e-16
5.753715415e-16
6.098779137e-16
5.829975524e-16
6.310502128e-16
6.442646256e-16
5.708368465e-16
5.526231579e-16
5.531438796e-16
5.217160498e-16
5.831057093e-16
5.539131435e-16
5.337355191e-16
5.672537043e-16
6.429470829e-16
5.538715893e-16
5.267327803e-16
5.913899535e-16
5.677833188e-16
5.964026911e-16
5.583406822e-16
5.574906951e-16
6.024893883e-16
6.162797291e-16
5.544667671e-16
6.536466694e-16
6.690542254e-16
6.005894228e-16
5.528843104e-16
5.873617286e-16
6.068655573e-16
5.47384152e-16
5.671557787e-16
5.371715715e-16
6.074238353e-16
6.546294388e-16
5.879127136e-16
5.555347652e-16
5.423585486e-16
6.121851755e-16
5.744406524e-16
5.756696164e-16
5.637456749e-16
7.307081859e-16
5.632277166e-16
6.977283547e-16
6.772595577e-16
5.613454685e-16
5.309483647e-16
5.661060734e-16
5.309543966e-16
5.5209002e-16
5.473382153e-16
5.535112662e-16
5.889864708e-16
5.682266289e-16
5.585147132e-16
5.420222707e-16
5.99327631e-16
6.076268433e-16
6.039672439e-16
5.586725483e-16
5.393399068e-16
5.636980328e-16
5.84401112e-16
5.961484328e-16
7.259940002e-16
5.669116713e-16
5.9781269e-16
5.549909053e-16
5.709358791e-16
5.668884008e-16
5.907034544e-16
6.018729457e-16
5.786857384e-16
5.413842027e-16
5.9085678e-16
5.630913869e-16
5.934198262e-16
5.943229348e-16
5.513186865e-16
6.256647275e-16
5.729988047e-16
5.601413621e-16
5.59814965e-16
5.949679818e-16
5.32298404e-16
6.166414226e-16
5.645689392e-16
5.612575468e-16
5.864362853e-16
5.470625113e-16
6.105334072e-16
5.777581109e-16
5.62861853e-16
5.86730952e-16
5.476410029e-16
5.285028227e-16
5.589004715e-16
5.414917715e-16
5.252750842e-16
6.661135989e-16
5.669752673e-16
5.98142898e-16
5.81934919e-16
5.899237659e-16
6.828829776e-16
5.85083982e-16
5.697664542e-16
5.783757446e-16
5.318641601e-16
6.184931811e-16
6.26370356e-16
5.534711879e-16
5.377693165e-16
6.265365378e-16
5.767057526e-16
5.941122817e-16
5.432221504e-16
5.649833383e-16
5.838708332e-16
5.504039936e-16
6.120654754e-16
5.560961546e-16
5.577531862e-16
5.518468627e-16
7.13187719e-16
5.61009937e-16
5.571325733e-16
5.700792061e-16
5.674839107e-16
5.780204821e-16
6.044624725e-16
5.926594064e-16
5.855259026e-16
5.936541549e-16
6.344588611e-16
5.794615875e-16
5.380822977e-16
5.759075639e-16
5.576201406e-16
5.870680573e-16
5.770932647e-16
5.705667797e-16
5.626435099e-16
5.736082896e-16
5.592843203e-16
5.805284072e-16
5.874538973e-16
5.735249823e-16
5.759658523e-16
6.309041123e-16
5.81284955e-16
5.867496267e-16
5.727805815e-16
5.489378515e-16
5.544799545e-16
5.318981623e-16
5.607421293e-16
6.000034092e-16
5.766500738e-16
5.556383648e-16
5.474431941e-16
5.289287083e-16
5.348054336e-16
6.557139779e-16
7.129967207e-16
5.309426469e-16
6.154250362e-16
5.723279734e-16
5.288082696e-16
6.332225098e-16
5.461912865e-16
5.822221086e-16
5.816274543e-16
5.468604291e-16
5.862884912e-16
5.306869513e-16
5.540529085e-16
5.60434568e-16
5.551135071e-16
6.47871747e-16
5.271589944e-16
5.371908721e-16
5.487502892e-16
5.871653268e-16
6.428926999e-16
5.81825734e-16
5.452068508e-16
5.561700485e-16
5.682554126e-16
5.472683271e-16
5.556546592e-16
5.621835494e-16
5.563848704e-16
5.640567595e-16
5.549302437e-16
5.627071754e-16
5.348430713e-16
5.871618297e-16
6.086540976e-16
5.614316351e-16
5.869174694e-16
5.913845943e-16
5.384898022e-16
6.354053717e-16
7.244457239e-16
5.39508692e-16
5.794423433e-16
6.170190907e-16
5.390316691e-16
6.030035407e-16
5.249458686e-16
5.623412558e-16
5.501401782e-16
5.819083738e-16
5.421106351e-16
5.747681743e-16
5.329927943e-16
5.897438388e-16
5.829902175e-16
5.525354505e-16
5.504757777e-16
6.286228515e-16
6.18590953e-16
6.000885397e-16
7.0119465e-16
5.619912763e-16
5.657257786e-16
5.584988868e-16
5.579805743e-16
5.299247283e-16
5.560504005e-16
5.794675744e-16
5.858442219e-16
5.52682128e-16
5.802442026e-16
6.42479044e-16
5.801558856e-16
6.763997125e-16
5.723912427e-16
6.600212617e-16
6.000508712e-16
6.038096283e-16
5.894805195e-16
5.970525845e-16
6.955568114e-16
5.285325398e-16
5.549128748e-16
5.918635657e-16
6.115767325e-16
5.621954845e-16
5.74628816e-16
5.830968565e-16
6.541389564e-16
5.687733913e-16
5.827646368e-16
6.229610339e-16
6.878222846e-16
5.996422455e-16
6.280511669e-16
5.650706548e-16
6.170704519e-16
5.572464482e-16
5.841887424e-16
5.653888222e-16
6.021365901e-16
6.011388987e-16
5.552250272e-16
5.954345991e-16
5.632616537e-16
7.486468411e-16
5.44531776e-16
5.846497405e-16
6.119309789e-16
5.975164496e-16
5.903880586e-16
6.563390999e-16
7.358856078e-16
6.34237353e-16
6.019772789e-16
6.773032221e-16
6.537957377e-16
6.707089323e-16
7.397161535e-16
6.743830033e-16
7.245940159e-16
5.839125657e-16
5.200989466e-16
5.922246727e-16
5.22066927e-16
5.778252333e-16
5.637612643e-16
5.975667741e-16
5.859783733e-16
6.590879807e-16
5.461793866e-16
6.592142396e-16
6.205636944e-16
5.89566178e-16
6.34674661e-16
5.614692438e-16
6.113173892e-16
5.906023027e-16
5.826244428e-16
6.291055987e-16
6.38545586e-16
5.355295963e-16
5.445174763e-16
5.413481224e-16
5.466290808e-16
5.749215982e-16
5.933927e-16
5.423684837e-16
5.776262146e-16
5.531754308e-16
6.022448618e-16
6.164047533e-16
5.514935911e-16
5.591982747e-16
5.517405537e-16
5.628183078e-16
6.677676531e-16
6.829957462e-16
6.339821388e-16
6.129349051e-16
7.727591987e-16
5.828871512e-16
5.447206757e-16
5.452652878e-16
5.615793709e-16
5.771714061e-16
5.404790374e-16
5.460493086e-16
5.771055473e-16
5.313775911e-16
5.583887006e-16
5.585235479e-16
5.917499487e-16
5.733068571e-16
6.119996744e-16
5.650038496e-16
5.454447569e-16
6.093282231e-16
6.215454385e-16
5.496733283e-16
6.30750931e-16
5.498263477e-16
5.762010253e-16
5.140857634e-16
6.087816823e-16
5.382341872e-16
5.744648052e-16
5.769553036e-16
5.664468253e-16
5.720007543e-16
5.588824564e-16
5.574369306e-16
5.802289337e-16
5.923830701e-16
5.742514986e-16
5.758107324e-16
5.519409294e-16
6.369954149e-16
5.771418616e-16
5.781667993e-16
7.175013541e-16
6.014021459e-16
6.176733324e-16
6.237319086e-16
5.679547077e-16
5.352099257e-16
5.516986963e-16
5.62928702e-16
5.63868564e-16
6.459510778e-16
5.478226772e-16
5.897421524e-16
5.466186604e-16
5.712677421e-16
5.719659391e-16
5.966375129e-16
5.739893857e-16
5.724217053e-16
6.058943921e-16
6.357833018e-16
6.634111371e-16
5.754984483e-16
6.253784678e-16
5.382435498e-16
5.569537332e-16
6.032828709e-16
5.430932741e-16
5.271349039e-16
5.484826064e-16
5.634708823e-16
5.533902758e-16
5.643245257e-16
5.403075066e-16
5.336202812e-16
5.421132136e-16
5.536889486e-16
6.072195054e-16
5.856291337e-16
6.247461198e-16
6.511998579e-16
5.428015485e-16
5.479415086e-16
5.476601653e-16
5.292722499e-16
5.751008768e-16
5.550257476e-16
5.551294977e-16
5.21934237e-16
5.662604587e-16
6.346761075e-16
5.494234197e-16
5.74631034e-16
5.837035404e-16
5.542551659e-16
5.483026802e-16
5.443606276e-16
5.812889238e-16
5.568645139e-16
5.457563833e-16
5.786408696e-16
7.324164228e-16
5.48618362e-16
5.803931511e-16
5.707815319e-16
5.653471759e-16
5.619464001e-16
5.642504416e-16
5.463138592e-16
5.624227956e-16
5.487976634e-16
5.258250485e-16
6.161008618e-16
5.699019004e-16
6.042493937e-16
5.687630681e-16
6.395908248e-16
5.564265557e-16
6.689683948e-16
5.658332912e-16
8.022095105e-16
7.227422029e-16
5.479673144e-16
5.728786095e-16
6.394721482e-16
5.936320301e-16
5.824839934e-16
5.598277729e-16
6.080974182e-16
5.618664864e-16
5.34282144e-16
5.595605857e-16
5.869977166e-16
5.998634813e-16
5.192661108e-16
5.687847954e-16
5.861725678e-16
5.890718676e-16
5.768695202e-16
5.311410346e-16
5.748146174e-16
6.594049894e-16
5.872573194e-16
5.602517713e-16
6.212828039e-16
5.545371742e-16
5.795120445e-16
5.861198333e-16
5.95487041e-16
5.676899356e-16
6.083492783e-16
5.948795996e-16
5.361691333e-16
5.832528504e-16
6.089237078e-16
5.704707342e-16
5.484658318e-16
5.506512995e-16
5.900736186e-16
6.215182149e-16
5.774872361e-16
6.939529372e-16
5.641682986e-16
6.252110294e-16
5.832081831e-16
5.44454805e-16
5.580146158e-16
5.649304164e-16
5.684822769e-16
6.121869724e-16
5.602138289e-16
5.811401638e-16
5.600945591e-16
5.967196747e-16
5.8668289e-16
5.449081563e-16
5.453495522e-16
6.1575656e-16
5.644594158e-16
5.442848311e-16
5.19336031e-16
6.276376071e-16
5.82812635e-16
5.689727096e-16
5.740314534e-16
5.200177572e-16
6.320528665e-16
5.2581772e-16
5.93090456e-16
5.582022118e-16
5.624938832e-16
5.922253454e-16
6.110322613e-16
5.780389675e-16
6.014306495e-16
5.808659957e-16
5.909631178e-16
6.477541837e-16
6.783100596e-16
5.463165465e-16
6.601713247e-16
6.675312278e-16
5.559810752e-16
5.710917869e-16
5.658000836e-16
5.48453167e-16
5.330816154e-16
6.010077724e-16
5.6289085e-16
5.532725122e-16
5.622814523e-16
5.61007398e-16
5.915080873e-16
6.405331984e-16
5.776663694e-16
6.206358824e-16
5.708908125e-16
5.843124064e-16
5.669400826e-16
6.140595823e-16
6.243540046e-16
6.565672772e-16
5.661232361e-16
5.855710546e-16
5.271545431e-16
6.020920106e-16
5.563347791e-16
5.502307943e-16
5.500399327e-16
5.583413462e-16
5.496185128e-16
6.382815941e-16
5.850625696e-16
5.464782691e-16
5.533842887e-16
5.314138427e-16
5.844236716e-16
5.894014801e-16
5.927648081e-16
5.597462474e-16
6.190668936e-16
5.468218065e-16
5.425162309e-16
5.276084028e-16
5.603223753e-16
6.085758784e-16
6.234074852e-16
5.909834878e-16
5.840942014e-16
5.078886802e-16
5.245912945e-16
5.463283741e-16
5.800317071e-16
5.37891193e-16
6.167163714e-16
5.663546591e-16
6.167294776e-16
6.697840195e-16
5.868973068e-16
5.662310925e-16
5.884582023e-16
6.06954625e-16
5.800903975e-16
6.471233778e-16
5.475979256e-16
5.588043255e-16
5.713462729e-16
5.777040331e-16
5.791040643e-16
6.562714675e-16
6.591691139e-16
6.039949808e-16
7.233012381e-16
6.041116012e-16
6.249905471e-16
6.205501513e-16
5.765577647e-16
6.751403148e-16
7.155114935e-16
5.974725292e-16
6.253427892e-16
6.696482949e-16
6.094401741e-16
5.943943034e-16
5.352536183e-16
5.788277213e-16
5.724223405e-16
5.794886355e-16
5.796107695e-16
5.959653002e-16
5.264531001e-16
5.37770783e-16
5.382366131e-16
5.53583928e-16
6.112886876e-16
5.834548121e-16
5.895867534e-16
5.938621516e-16
6.676255272e-16
6.274110652e-16
6.596849537e-16
7.2479559e-16
5.911334581e-16
5.993958287e-16
5.473971111e-16
5.509960408e-16
5.828541309e-16
5.375783219e-16
5.383391585e-16
5.365157751e-16
5.642474339e-16
5.643996616e-16
5.684716661e-16
5.771902589e-16
6.088260485e-16
6.409592748e-16
5.38224897e-16
5.38201856e-16
5.636978017e-16
5.916904052e-16
6.392333524e-16
6.719447262e-16
6.012978172e-16
5.839587528e-16
5.692490579e-16
5.463295607e-16
5.732261253e-16
5.738932918e-16
5.634659047e-16
5.940684599e-16
5.492388227e-16
5.920806311e-16
5.574961483e-16
6.146177636e-16
5.831395283e-16
6.111166683e-16
5.946490517e-16
6.191329318e-16
5.670485887e-16
6.514053174e-16
6.529157039e-16
6.628491297e-16
5.742804589e-16
5.784949252e-16
5.459271091e-16
5.474882016e-16
5.128525734e-16
5.975960505e-16
5.72437067e-16
5.474532033e-16
6.374788772e-16
5.294092592e-16
5.458990089e-16
5.496159898e-16
5.559714253e-16
5.681747339e-16
6.100103441e-16
5.648229952e-16
5.403314127e-16
6.433859619e-16
6.234468321e-16
7.594807258e-16
5.576560603e-16
5.975313623e-16
5.8844069e-16
5.506067201e-16
5.879788527e-16
5.309984185e-16
5.443851706e-16
5.834191516e-16
5.360382368e-16
5.883629436e-16
5.732663331e-16
5.695169086e-16
5.424996889e-16
5.554032794e-16
5.801918278e-16
6.424960557e-16
6.174589897e-16
6.412792436e-16
7.573958524e-16
6.462941895e-16
6.181378893e-16
5.878275645e-16
5.369380891e-16
5.829568727e-16
6.121657784e-16
6.136692388e-16
6.10657508e-16
5.678721047e-16
5.589548528e-16
5.866419927e-16
6.014943775e-16
5.686942934e-16
5.841168225e-16
5.715607989e-16
5.865776613e-16
6.223702847e-16
5.656732986e-16
5.373643127e-16
5.640814362e-16
6.598473329e-16
5.954488985e-16
5.833074989e-16
5.870634836e-16
5.709926039e-16
6.146771292e-16
5.738425454e-16
5.970498235e-16
5.722796256e-16
5.776748704e-16
5.588443656e-16
6.074270033e-16
5.55418253e-16
5.862634752e-16
5.818684646e-16
5.760099433e-16
5.373646332e-16
5.558688669e-16
5.476131163e-16
5.973431025e-16
5.992507604e-16
5.622995806e-16
5.511651166e-16
5.715884481e-16
5.590875525e-16
5.648782667e-16
5.37215928e-16
5.928633152e-16
5.791035744e-16
5.67108666e-16
5.939832463e-16
5.213977898e-16
5.654560672e-16
5.647005011e-16
6.35888731e-16
6.020491631e-16
5.561373192e-16
5.661357068e-16
5.672354876e-16
6.692374486e-16
6.923851631e-16
5.431731431e-16
6.625377816e-16
6.520749929e-16
6.068112834e-16
5.825313692e-16
5.929038657e-16
5.401534398e-16
5.56110948e-16
5.572468775e-16
6.288564405e-16
5.703845313e-16
5.953327771e-16
5.953279654e-16
5.356717867e-16
6.433241926e-16
5.717697029e-16
5.744552058e-16
6.061975151e-16
7.204936628e-16
7.427353147e-16
5.333016334e-16
6.297226596e-16
5.445618809e-16
6.002489283e-16
5.384547392e-16
5.451720049e-16
5.942915406e-16
6.300052635e-16
5.595161478e-16
6.754188448e-16
5.519532551e-16
6.397902531e-16
5.953648988e-16
5.646187664e-16
5.881691531e-16
5.495710272e-16
5.656003417e-16
6.245961135e-16
6.16651379e-16
7.173287991e-16
5.561378603e-16
5.461820895e-16
5.722007721e-16
5.953725069e-16
6.316269485e-16
6.063168281e-16
5.588119785e-16
5.391350582e-16
5.702351557e-16
5.987295418e-16
5.836994872e-16
6.351753993e-16
6.18765782e-16
6.228794289e-16
5.454713769e-16
6.632183186e-16
5.809682704e-16
6.668346757e-16
5.325282183e-16
6.221140404e-16
5.489178146e-16
5.591823025e-16
5.569955517e-16