/*--------------------------------*- C++ -*----------------------------------*\
  =========                 |
  \\      /  F ield         | OpenFOAM: The Open Source CFD Toolbox
   \\    /   O peration     | Website:  https://openfoam.org
    \\  /    A nd           | Version:  7
     \\/     M anipulation  |
\*---------------------------------------------------------------------------*/
FoamFile
{
    version     2.0;
    format      ascii;
    class       volScalarField;
    location    "0.001";
    object      rhoMMean;
}
// * * * * * * * * * * * * * * * * * * * * * * * * * * * * * * * * * * * * * //

dimensions      [1 -3 0 0 0 0 0];

internalField   nonuniform List<scalar> 
5120
(
4.47647248e-06
4.18789232e-06
4.30819824e-06
4.3451048e-06
4.25331136e-06
4.38279936e-06
4.24852576e-06
4.25951104e-06
4.21519904e-06
4.38753504e-06
4.274324e-06
4.29208096e-06
4.36865232e-06
4.33124176e-06
4.25679216e-06
4.60630736e-06
4.48268464e-06
4.36948e-06
4.40357888e-06
4.25147056e-06
4.3048408e-06
4.42583056e-06
4.36802704e-06
4.33154112e-06
4.46273328e-06
4.46307024e-06
4.3581688e-06
4.5823768e-06
4.31737776e-06
4.1747856e-06
4.2224584e-06
4.37281264e-06
4.22792736e-06
4.26638688e-06
4.42903552e-06
4.58835568e-06
4.44982304e-06
4.29525424e-06
4.47547648e-06
4.50472704e-06
4.36963888e-06
4.34482384e-06
4.35523296e-06
4.4550896e-06
4.27881024e-06
4.32591888e-06
4.2567016e-06
4.40209728e-06
4.42554736e-06
4.15231696e-06
4.1126424e-06
4.45014464e-06
4.48898128e-06
4.2483848e-06
4.34845584e-06
4.53503888e-06
4.29093888e-06
4.44820352e-06
4.5709336e-06
4.48473984e-06
4.461244e-06
4.32934112e-06
4.49618768e-06
4.3392216e-06
4.2821992e-06
4.32857152e-06
4.48297504e-06
4.45979184e-06
4.48989184e-06
4.23277872e-06
4.38404992e-06
4.41304752e-06
4.40404144e-06
4.36050848e-06
4.27006464e-06
4.29729536e-06
4.468992e-06
4.34305904e-06
4.54736304e-06
4.46374208e-06
4.38557168e-06
4.34376416e-06
4.32381456e-06
4.22836512e-06
4.5122336e-06
4.29223808e-06
4.34505824e-06
4.48170528e-06
4.41419472e-06
4.2033288e-06
4.31385168e-06
4.25577184e-06
4.36532096e-06
4.25380768e-06
4.22367184e-06
4.35761024e-06
4.37454704e-06
4.33820848e-06
4.23795168e-06
4.3917368e-06
4.69421984e-06
4.5696408e-06
4.24338608e-06
4.34611744e-06
4.44654976e-06
4.58940976e-06
4.21731792e-06
4.08004304e-06
4.27667008e-06
4.40340976e-06
4.2556544e-06
4.24560144e-06
4.47347728e-06
4.18321392e-06
4.39038512e-06
4.54877504e-06
4.28726672e-06
4.38880352e-06
4.49755904e-06
4.35132032e-06
4.58908432e-06
4.53318352e-06
4.32406784e-06
4.45981664e-06
4.37561568e-06
4.40986272e-06
4.33821024e-06
4.11101728e-06
4.23727136e-06
4.26680672e-06
4.38693072e-06
4.17392032e-06
4.16595328e-06
4.15926672e-06
4.1675088e-06
4.2321864e-06
4.40796896e-06
4.44641568e-06
4.39825424e-06
4.47230448e-06
4.20802384e-06
4.40394832e-06
4.41275632e-06
4.2948904e-06
4.35080912e-06
4.31497792e-06
4.41623584e-06
4.17160464e-06
4.2207496e-06
4.21257072e-06
4.185952e-06
4.52899968e-06
4.44718064e-06
4.31034608e-06
4.26292144e-06
4.42383728e-06
4.3363656e-06
4.40617264e-06
4.33861808e-06
4.47351104e-06
4.31015648e-06
4.51291872e-06
4.28538832e-06
4.14260736e-06
4.23855136e-06
4.56640816e-06
4.19900192e-06
4.23282016e-06
4.29988096e-06
4.39821328e-06
4.17411424e-06
4.35129984e-06
4.44734976e-06
4.34896784e-06
4.39373776e-06
4.28512608e-06
4.39074592e-06
4.37123024e-06
4.218228e-06
4.5462176e-06
4.28082912e-06
4.27901824e-06
4.38082112e-06
4.26285696e-06
4.28391312e-06
4.28038192e-06
4.38662704e-06
4.3738176e-06
4.32661968e-06
4.48819456e-06
4.47511264e-06
4.25985104e-06
4.25234352e-06
4.1783792e-06
4.14964208e-06
4.3716736e-06
4.25264464e-06
4.36841648e-06
4.36685328e-06
4.40406528e-06
4.594836e-06
4.40407184e-06
4.37310304e-06
4.40072672e-06
4.3714912e-06
4.2364048e-06
4.25116176e-06
4.27295344e-06
4.3948768e-06
4.26044896e-06
4.24064416e-06
4.29073728e-06
4.25447136e-06
4.42188976e-06
4.28617552e-06
4.30961104e-06
4.28023888e-06
4.3335352e-06
4.13880752e-06
4.4482808e-06
4.23597936e-06
4.3513336e-06
4.20157856e-06
4.2436128e-06
4.32975328e-06
4.2331512e-06
4.49078832e-06
4.48858704e-06
4.431308e-06
4.40770336e-06
4.52618128e-06
4.3064792e-06
4.26756864e-06
4.32201648e-06
4.24610112e-06
4.04179792e-06
4.50533264e-06
4.27505776e-06
4.38548112e-06
4.19575856e-06
4.26317856e-06
4.31595088e-06
4.48106336e-06
4.56680144e-06
4.47508144e-06
4.31259904e-06
4.53549408e-06
4.26899984e-06
4.3808856e-06
4.34296208e-06
4.60483648e-06
4.32553792e-06
4.0105256e-06
4.26094144e-06
4.44054736e-06
4.28431424e-06
4.48774656e-06
4.23645776e-06
4.35899136e-06
4.37216048e-06
4.32136512e-06
4.57544672e-06
4.32314528e-06
4.24598368e-06
4.27607984e-06
4.50743776e-06
4.53496448e-06
4.35613664e-06
4.5295912e-06
4.37909776e-06
4.55214912e-06
4.4278088e-06
4.48736304e-06
4.14065856e-06
4.38444416e-06
4.32118576e-06
4.31215696e-06
4.56941616e-06
4.46222288e-06
4.44799552e-06
4.40907856e-06
4.445172e-06
4.42163344e-06
4.5018232e-06
4.3867808e-06
4.47727072e-06
4.70642704e-06
4.44927808e-06
4.28836688e-06
4.3536976e-06
4.46773584e-06
4.48442544e-06
4.57486592e-06
4.39156976e-06
4.50449552e-06
4.39939504e-06
4.6539776e-06
4.45087968e-06
4.72517824e-06
4.5306128e-06
4.47672192e-06
4.32457472e-06
4.63718976e-06
4.67564544e-06
4.32629216e-06
4.31880176e-06
4.48572128e-06
4.55832832e-06
4.46759664e-06
4.4864576e-06
4.28805728e-06
4.54087376e-06
4.20966432e-06
4.47637168e-06
4.47175952e-06
4.22954096e-06
4.43179792e-06
4.46763552e-06
4.60070128e-06
4.24923856e-06
4.58955456e-06
4.67138048e-06
4.42724336e-06
4.83504976e-06
4.43149728e-06
4.51040784e-06
4.43335296e-06
4.35263456e-06
4.24750544e-06
4.2109456e-06
4.22581968e-06
4.21674128e-06
4.24509488e-06
4.10108048e-06
4.14134144e-06
4.61126464e-06
4.65633904e-06
4.26693568e-06
4.41564816e-06
4.63633856e-06
4.6761648e-06
4.39358992e-06
4.48699056e-06
4.56739552e-06
4.44730832e-06
4.25882688e-06
4.43494944e-06
4.38199088e-06
4.50289136e-06
4.24998896e-06
4.0319816e-06
3.96544224e-06
4.20559328e-06
4.2873816e-06
4.59876576e-06
4.45162368e-06
4.5340048e-06
4.40449712e-06
4.64665504e-06
4.746964e-06
4.65868208e-06
4.6603768e-06
4.5521824e-06
4.4092088e-06
4.50352432e-06
4.37844048e-06
4.2338456e-06
4.33371712e-06
4.05508528e-06
4.27083424e-06
4.16247504e-06
4.36408192e-06
4.225044e-06
4.11283632e-06
4.25651248e-06
4.15609552e-06
4.31216768e-06
4.07672704e-06
4.5131416e-06
4.3325952e-06
4.53439136e-06
4.71610928e-06
4.45121488e-06
4.41338368e-06
4.36948e-06
4.04769952e-06
4.22611776e-06
4.25880976e-06
4.1405616e-06
4.39111584e-06
4.36360576e-06
4.38416864e-06
4.0178712e-06
4.25805728e-06
3.89489168e-06
4.37909008e-06
4.5590544e-06
4.40899824e-06
4.01998704e-06
4.25809136e-06
4.5288976e-06
4.27158208e-06
4.38262512e-06
4.38923056e-06
4.29997408e-06
4.59938032e-06
4.25609648e-06
4.2005984e-06
4.25113104e-06
4.19514224e-06
4.46906544e-06
4.17524176e-06
4.29515776e-06
4.42035008e-06
4.34496688e-06
4.42324272e-06
4.470576e-06
4.5489416e-06
4.48993712e-06
4.316448e-06
4.45683728e-06
4.46150544e-06
4.65218e-06
4.3380304e-06
4.2770984e-06
4.60813792e-06
4.44669248e-06
4.3368064e-06
4.19689376e-06
4.17721024e-06
4.15676224e-06
4.33403536e-06
4.2645832e-06
4.22772624e-06
4.25114176e-06
4.46902224e-06
4.36036112e-06
4.48573024e-06
4.49887968e-06
4.33815216e-06
4.56669344e-06
4.60357056e-06
4.40993792e-06
4.4306896e-06
4.25628096e-06
4.18607584e-06
4.11093616e-06
4.33449024e-06
4.26162992e-06
4.10719776e-06
4.30501168e-06
4.25828144e-06
4.22511152e-06
3.9976064e-06
4.43710928e-06
4.41069856e-06
4.34948384e-06
4.34691232e-06
4.26977888e-06
4.60160336e-06
4.5427944e-06
4.35853568e-06
4.27662224e-06
4.22826096e-06
4.39933184e-06
4.20238192e-06
4.22163072e-06
4.2614048e-06
4.02986704e-06
4.32548448e-06
4.19824688e-06
4.35345152e-06
4.53056368e-06
4.2789328e-06
4.46971376e-06
4.34330464e-06
4.49228912e-06
4.13083072e-06
4.33104144e-06
4.32826448e-06
4.1154488e-06
4.1130592e-06
4.3024008e-06
4.55700992e-06
4.53842272e-06
4.31182944e-06
4.21362352e-06
4.27666192e-06
4.17727856e-06
4.2806344e-06
4.32163296e-06
4.21820496e-06
4.22887248e-06
4.3161392e-06
4.31813504e-06
4.2658304e-06
4.55535024e-06
4.29816832e-06
4.33163504e-06
4.50229808e-06
4.2866248e-06
4.00037952e-06
4.2774584e-06
4.3119592e-06
4.24362224e-06
4.38098896e-06
4.32718816e-06
4.24041648e-06
4.33175504e-06
4.46982688e-06
4.55851712e-06
4.13965104e-06
4.30710144e-06
4.17779152e-06
4.03204224e-06
4.25292016e-06
4.25466224e-06
4.291808e-06
4.1507136e-06
4.50676336e-06
4.40776352e-06
4.16939056e-06
4.37890256e-06
4.5570312e-06
4.53646576e-06
4.3134464e-06
4.32532816e-06
4.228984e-06
4.00568272e-06
4.51625808e-06
4.54743744e-06
4.25832928e-06
4.58074016e-06
4.56224608e-06
4.42924944e-06
4.41165776e-06
4.29147664e-06
4.52926496e-06
4.48226176e-06
4.59804096e-06
4.26355776e-06
4.44005152e-06
4.45687184e-06
4.4216736e-06
4.48928928e-06
4.4203176e-06
4.36255296e-06
4.27068816e-06
4.12448784e-06
4.19652944e-06
4.30077872e-06
4.28154064e-06
4.37312352e-06
4.23132832e-06
4.22625488e-06
4.06649088e-06
4.44601504e-06
4.40006352e-06
4.47515744e-06
4.49544704e-06
4.18986976e-06
4.46519424e-06
4.67958064e-06
4.43365488e-06
4.421824e-06
4.41423872e-06
4.33567584e-06
4.20089568e-06
4.31954144e-06
4.04143792e-06
4.32927408e-06
4.56485392e-06
4.27028368e-06
4.17478688e-06
4.05757264e-06
4.346284e-06
4.2412472e-06
4.49432256e-06
4.41111536e-06
4.41983536e-06
4.37418832e-06
4.36233088e-06
4.44335808e-06
4.19195696e-06
4.3418896e-06
4.23515168e-06
4.51734848e-06
4.39578864e-06
4.48440112e-06
4.40896624e-06
4.20984672e-06
4.51367376e-06
4.39327648e-06
4.03849184e-06
4.46449632e-06
4.4647184e-06
4.23574192e-06
4.27508128e-06
4.59420688e-06
4.483116e-06
4.53319936e-06
4.39414304e-06
4.47368016e-06
4.61577392e-06
4.43306208e-06
4.27689424e-06
4.6877728e-06
4.43296096e-06
4.33744704e-06
4.35722112e-06
4.43165056e-06
4.50282256e-06
4.23089568e-06
4.372632e-06
4.63007056e-06
4.32519584e-06
4.53185312e-06
4.44073024e-06
4.49902016e-06
4.61297472e-06
4.35525856e-06
4.38098208e-06
4.5579768e-06
4.5291936e-06
4.4212128e-06
4.4524488e-06
4.54447296e-06
4.57051552e-06
4.43531632e-06
4.53505456e-06
4.54475952e-06
4.5946152e-06
4.49340512e-06
4.31258192e-06
4.46335344e-06
4.47132048e-06
4.50651056e-06
4.456332e-06
4.74036144e-06
4.79373472e-06
4.52700944e-06
4.44711136e-06
4.50249584e-06
4.79591424e-06
4.44078576e-06
4.26872992e-06
4.28981264e-06
4.48474448e-06
4.35748288e-06
4.3630864e-06
4.34686832e-06
4.42916528e-06
4.3127472e-06
4.27821568e-06
4.56698896e-06
4.37038032e-06
4.3609744e-06
4.29317344e-06
4.49807456e-06
4.4502544e-06
4.3984328e-06
4.15354784e-06
4.46745056e-06
4.3894792e-06
4.34577792e-06
4.52182064e-06
4.4824352e-06
4.49978976e-06
4.39533248e-06
4.56669552e-06
4.17345008e-06
4.23881184e-06
4.48281616e-06
4.42925072e-06
4.6524824e-06
4.27701344e-06
4.3196952e-06
4.55671264e-06
4.48346192e-06
4.45445792e-06
4.39989216e-06
4.42897008e-06
4.48941776e-06
4.25838816e-06
4.29726544e-06
4.31640832e-06
4.33159536e-06
4.294084e-06
4.25319136e-06
4.33609776e-06
4.1534488e-06
4.10664384e-06
4.02871728e-06
4.02457792e-06
4.2087448e-06
4.37298176e-06
4.4698312e-06
4.31251536e-06
4.6367832e-06
4.33621056e-06
4.42195296e-06
4.54910992e-06
4.48020576e-06
4.06746896e-06
4.15057488e-06
4.27472848e-06
4.16988432e-06
4.17395616e-06
4.23051344e-06
4.20915824e-06
4.36245728e-06
4.1219296e-06
4.36786304e-06
4.20907968e-06
4.0781728e-06
4.29872352e-06
4.37040592e-06
4.46428832e-06
4.36950048e-06
4.60495648e-06
4.14257152e-06
4.17616304e-06
4.25010384e-06
4.20403056e-06
4.38982e-06
4.36773104e-06
4.22479504e-06
4.2793488e-06
4.19463616e-06
4.04728144e-06
4.09841584e-06
4.13517632e-06
4.3981616e-06
4.23649872e-06
4.34523248e-06
4.35345072e-06
4.34532352e-06
4.27845744e-06
4.30607168e-06
4.57950288e-06
4.50799984e-06
4.29446416e-06
4.29626688e-06
4.35109184e-06
4.12725072e-06
4.37942624e-06
4.33278784e-06
4.28479984e-06
4.36120848e-06
4.23271936e-06
4.30078432e-06
4.046244e-06
4.18539632e-06
4.2447848e-06
4.30166496e-06
4.47439808e-06
4.53630944e-06
4.15386432e-06
4.17482704e-06
4.49904576e-06
4.29293344e-06
4.4281672e-06
4.30149328e-06
4.45674368e-06
4.36893712e-06
4.29539776e-06
4.14720416e-06
4.31776128e-06
4.354568e-06
4.44421232e-06
4.44653952e-06
4.1535368e-06
4.18973312e-06
3.99303088e-06
4.5450312e-06
4.37839824e-06
4.30605296e-06
4.2410896e-06
4.285812e-06
4.15051888e-06
4.4617112e-06
4.38151856e-06
4.20359792e-06
4.02219216e-06
4.16428208e-06
4.08381856e-06
4.23209328e-06
4.46127344e-06
4.05986624e-06
4.20218464e-06
4.28772288e-06
4.32171792e-06
4.24254e-06
4.16802896e-06
4.23106784e-06
4.30782032e-06
4.3102624e-06
4.40349856e-06
4.57801744e-06
4.20755792e-06
4.36527264e-06
4.35424208e-06
4.4137296e-06
4.32595344e-06
4.1606752e-06
4.28454352e-06
4.50282768e-06
4.20651024e-06
4.17495216e-06
4.15777872e-06
4.23667984e-06
4.16702528e-06
4.02993232e-06
4.43538208e-06
4.18160288e-06
4.06793872e-06
4.28870224e-06
4.2063928e-06
4.55774576e-06
4.63222992e-06
4.2953192e-06
4.34742352e-06
4.26638256e-06
4.10712512e-06
4.2896136e-06
4.49502336e-06
4.3782128e-06
4.1858944e-06
4.21646752e-06
4.24394432e-06
4.27080176e-06
4.2879808e-06
4.04432928e-06
4.12780256e-06
4.12859952e-06
4.19971344e-06
4.34220576e-06
4.55948704e-06
4.44654128e-06
4.46404064e-06
4.22867008e-06
4.18842064e-06
4.1115768e-06
4.28121264e-06
4.17871872e-06
4.22414288e-06
4.38064128e-06
4.26265024e-06
4.31835584e-06
4.05692688e-06
4.39849472e-06
4.22925904e-06
4.26993344e-06
4.42735056e-06
4.26708944e-06
4.27749904e-06
4.20399472e-06
4.28140272e-06
4.63889136e-06
4.42627088e-06
4.33135872e-06
4.22863888e-06
4.35220992e-06
4.59289744e-06
4.441452e-06
4.30387856e-06
4.2651624e-06
4.2713544e-06
4.26436544e-06
4.30562544e-06
4.28525296e-06
4.29739616e-06
4.16481504e-06
4.17457504e-06
4.18437648e-06
3.93308208e-06
4.2051512e-06
4.50096944e-06
4.36774128e-06
4.39216944e-06
4.40876464e-06
4.2422184e-06
4.39724848e-06
4.25891824e-06
4.21157648e-06
4.4246616e-06
4.34338576e-06
4.20023024e-06
4.29845488e-06
4.37720272e-06
4.19970576e-06
4.5684304e-06
4.3139256e-06
4.34669872e-06
4.3712272e-06
4.291972e-06
3.90068432e-06
4.4077456e-06
4.60376784e-06
4.49928064e-06
4.36259392e-06
4.46694528e-06
4.42704816e-06
4.39162832e-06
4.3816056e-06
4.4341456e-06
4.14883872e-06
4.34831232e-06
4.3380552e-06
4.55922992e-06
4.37575664e-06
4.38544784e-06
4.37719504e-06
4.36609488e-06
4.5312112e-06
4.36730864e-06
4.21201552e-06
4.284128e-06
4.60839888e-06
4.5300952e-06
4.57587728e-06
4.3839376e-06
4.41382144e-06
4.42088352e-06
4.3616368e-06
4.46288064e-06
4.61724784e-06
4.45296608e-06
4.35314832e-06
4.35334096e-06
4.345464e-06
4.35806336e-06
4.36084112e-06
4.36945312e-06
4.38928272e-06
4.52209184e-06
4.43298224e-06
4.44919904e-06
4.46497424e-06
4.5018104e-06
4.26932528e-06
4.3758104e-06
4.36791296e-06
4.44376256e-06
4.52541168e-06
4.77516416e-06
4.62010896e-06
4.5144712e-06
4.4815592e-06
4.33577792e-06
4.46408592e-06
4.367292e-06
4.47621408e-06
4.44860496e-06
4.59979712e-06
4.38577152e-06
4.20714704e-06
4.3521096e-06
4.46518096e-06
4.34739152e-06
4.16897072e-06
4.50137984e-06
4.55332144e-06
4.37955216e-06
4.48137296e-06
4.06822576e-06
4.26626432e-06
4.5443136e-06
4.37088432e-06
4.29788304e-06
4.28892768e-06
4.48025488e-06
4.36146e-06
4.24904208e-06
4.44368736e-06
4.44388e-06
4.2635792e-06
4.46889968e-06
4.7202752e-06
4.31704e-06
4.24331728e-06
4.38567328e-06
4.29409168e-06
4.31436976e-06
4.5711352e-06
4.28811664e-06
4.44750304e-06
4.26519056e-06
4.74644336e-06
4.41303904e-06
4.1775592e-06
4.37528256e-06
4.24566592e-06
4.68491424e-06
4.49928496e-06
4.48732288e-06
4.30502576e-06
4.36550672e-06
4.66850992e-06
4.40025952e-06
4.54132224e-06
4.38859552e-06
4.4441576e-06
4.17199408e-06
4.30732096e-06
4.33690288e-06
4.2651056e-06
4.35832256e-06
4.30943296e-06
4.28948592e-06
4.197932e-06
4.34873472e-06
4.35905504e-06
4.42107104e-06
4.42571696e-06
4.30399136e-06
4.43253424e-06
4.27735472e-06
4.44888896e-06
4.42876256e-06
4.27630192e-06
4.2666752e-06
4.12181808e-06
4.3784464e-06
4.5207384e-06
4.09999136e-06
4.26469088e-06
4.12927088e-06
4.26694336e-06
4.15936496e-06
4.11765008e-06
4.38411232e-06
4.21393744e-06
4.16236656e-06
4.31431808e-06
4.2320736e-06
4.33424848e-06
4.17498976e-06
4.46990464e-06
4.65760496e-06
4.43543376e-06
4.30504368e-06
4.37527184e-06
4.45422688e-06
4.42734848e-06
4.35162656e-06
4.1771808e-06
4.1157008e-06
4.27360736e-06
4.1315952e-06
4.26415872e-06
4.11053936e-06
4.45233648e-06
4.30724624e-06
4.39348144e-06
4.34097568e-06
4.33696224e-06
4.2504464e-06
4.49941904e-06
4.5651008e-06
4.35360656e-06
4.16453616e-06
4.16755232e-06
4.53490944e-06
4.43546624e-06
4.28145824e-06
4.40001904e-06
4.15408768e-06
4.08669632e-06
3.857584e-06
4.0979512e-06
4.37976448e-06
4.19058592e-06
3.99448688e-06
4.12770688e-06
4.0461616e-06
4.2282152e-06
4.13681936e-06
4.31390208e-06
4.32371072e-06
4.29592864e-06
4.4035144e-06
4.3440824e-06
4.28529184e-06
4.16553216e-06
4.24859408e-06
4.38725568e-06
4.42992848e-06
4.16202272e-06
4.1756552e-06
4.2717448e-06
4.31462048e-06
4.26988304e-06
4.25482672e-06
4.43220112e-06
4.04806768e-06
4.26617248e-06
4.47333632e-06
4.253952e-06
4.49327744e-06
4.21814944e-06
4.32257344e-06
4.12540784e-06
4.19141072e-06
4.48615904e-06
4.30814992e-06
4.38167872e-06
4.42671632e-06
4.19898784e-06
4.1380328e-06
4.1959392e-06
4.07997344e-06
4.44626832e-06
4.33690032e-06
4.49287344e-06
4.24203904e-06
4.21693952e-06
4.4559792e-06
4.31888544e-06
4.83583136e-06
4.1063824e-06
4.26775696e-06
4.15806304e-06
4.29713216e-06
4.4035344e-06
4.33190752e-06
4.15173264e-06
4.18834672e-06
4.2852e-06
4.32342208e-06
4.326492e-06
4.21615616e-06
4.15139744e-06
4.54559664e-06
4.4640496e-06
4.15567696e-06
4.17054416e-06
4.19109552e-06
4.5094216e-06
4.48237712e-06
4.38228432e-06
4.15912912e-06
4.29191008e-06
4.448452e-06
4.09399024e-06
4.44089968e-06
4.31809312e-06
4.14325872e-06
4.2304216e-06
3.92292192e-06
4.3561064e-06
4.4127704e-06
4.29461056e-06
4.22380928e-06
4.14518448e-06
4.04530784e-06
4.4694968e-06
4.61693952e-06
4.61969936e-06
4.44705296e-06
4.38367024e-06
4.20363376e-06
4.29662992e-06
4.38791088e-06
4.27692976e-06
4.41305904e-06
4.17631968e-06
4.263088e-06
4.0729896e-06
4.05306304e-06
4.19913008e-06
4.27251696e-06
4.21663152e-06
4.42117008e-06
4.32080656e-06
4.14957424e-06
4.3064288e-06
4.3804256e-06
4.44267984e-06
4.4359856e-06
4.31345232e-06
4.4052176e-06
4.3622856e-06
4.19777104e-06
4.19133472e-06
4.29926512e-06
4.12113856e-06
4.24276768e-06
4.166544e-06
4.19120704e-06
4.26832592e-06
4.30220608e-06
4.12119408e-06
4.38295184e-06
4.5587264e-06
4.15845776e-06
4.24904208e-06
4.1879824e-06
4.3434336e-06
4.33053488e-06
4.30698784e-06
4.311164e-06
4.40060416e-06
4.28215824e-06
4.31626992e-06
4.24975152e-06
4.2556288e-06
4.14975136e-06
4.25962128e-06
4.40825472e-06
4.1963928e-06
4.330628e-06
4.25830752e-06
4.41775328e-06
4.4024616e-06
4.3849408e-06
4.30163328e-06
4.15410816e-06
4.51410048e-06
4.52580336e-06
4.29467296e-06
4.35988064e-06
4.2815944e-06
4.46054144e-06
4.53032496e-06
4.57284784e-06
4.28481216e-06
4.50162544e-06
4.27486688e-06
4.51820144e-06
4.343036e-06
4.138632e-06
4.35962992e-06
4.4134328e-06
4.31512784e-06
4.3390896e-06
4.25073296e-06
4.35734832e-06
4.41870784e-06
4.2690528e-06
4.26290736e-06
4.45589248e-06
4.255668e-06
4.46377712e-06
4.32757984e-06
4.36457488e-06
4.35412592e-06
4.57895584e-06
4.43421184e-06
4.18802896e-06
4.28434544e-06
4.36053792e-06
4.5327688e-06
4.51137904e-06
4.23358384e-06
4.2176984e-06
4.54825904e-06
4.80524192e-06
4.40083984e-06
4.3812904e-06
4.36576768e-06
4.3911e-06
4.32227872e-06
4.43820864e-06
4.47084384e-06
4.56044848e-06
4.42437584e-06
4.32101152e-06
4.42310992e-06
4.48162112e-06
4.5006752e-06
4.50856144e-06
4.57193216e-06
4.35510784e-06
4.46016128e-06
4.26960288e-06
4.63765824e-06
4.36677776e-06
4.56440544e-06
4.46732928e-06
4.3321224e-06
4.5425976e-06
4.4200912e-06
4.29073088e-06
4.44296816e-06
4.61418432e-06
4.29540976e-06
4.48568368e-06
4.21324256e-06
4.45237456e-06
4.46309248e-06
4.30373936e-06
4.35662144e-06
4.18342912e-06
4.31187168e-06
4.35609056e-06
4.256676e-06
4.53598992e-06
4.50137264e-06
4.70532688e-06
4.24955888e-06
4.37672608e-06
4.36607776e-06
4.36114864e-06
4.14074096e-06
4.54725888e-06
4.17870928e-06
4.58356752e-06
4.38234032e-06
4.50514688e-06
4.22155296e-06
4.326864e-06
4.33133312e-06
4.40555248e-06
4.536136e-06
4.43579168e-06
4.63352272e-06
4.34027904e-06
4.42480896e-06
4.54404672e-06
4.41144256e-06
4.31206896e-06
4.35127424e-06
4.1582728e-06
4.29220736e-06
4.3645304e-06
4.23681568e-06
4.28960976e-06
4.24800256e-06
4.41318128e-06
4.53861664e-06
4.0330416e-06
4.31860912e-06
4.4455688e-06
4.45750176e-06
4.52608048e-06
4.34918016e-06
4.46859856e-06
4.4076256e-06
4.66251952e-06
4.3954632e-06
4.37145488e-06
4.32760544e-06
4.28871584e-06
4.31548368e-06
4.28086544e-06
4.29773616e-06
4.06953648e-06
4.0044728e-06
4.15692448e-06
4.18734864e-06
3.90777712e-06
3.79171056e-06
4.20996208e-06
4.2902312e-06
4.3467056e-06
4.39330208e-06
4.25496032e-06
4.24760624e-06
4.5013384e-06
4.3156224e-06
4.39605088e-06
4.2394184e-06
4.21246736e-06
4.25531232e-06
4.46007296e-06
4.25054336e-06
4.1781712e-06
4.20997824e-06
4.03062e-06
4.06938064e-06
4.06874976e-06
4.15565776e-06
4.35298816e-06
4.08607872e-06
4.2769656e-06
4.64476816e-06
4.29437696e-06
4.37178672e-06
4.43087792e-06
4.09202944e-06
4.23401344e-06
4.2584664e-06
4.112012e-06
4.07044448e-06
4.10136624e-06
4.1502528e-06
4.12999056e-06
4.3219968e-06
4.02291824e-06
3.98094496e-06
4.29041824e-06
4.35316368e-06
4.22540752e-06
4.13548e-06
4.23835872e-06
4.41243424e-06
4.26304912e-06
4.37108032e-06
4.24237216e-06
4.2093376e-06
4.55190864e-06
4.10160624e-06
4.43971584e-06
4.36691312e-06
4.22312384e-06
4.20179856e-06
4.1317656e-06
4.09396256e-06
3.94998016e-06
4.16624032e-06
4.2023384e-06
4.21438672e-06
4.19778816e-06
4.3603184e-06
4.48614064e-06
4.4047184e-06
4.3625064e-06
4.2895504e-06
4.48596896e-06
4.41749536e-06
4.23877216e-06
4.25573728e-06
4.40742528e-06
4.4617424e-06
4.3962016e-06
4.3840128e-06
4.17205216e-06
4.12960064e-06
4.16642352e-06
4.17319216e-06
4.3244168e-06
4.29765712e-06
4.3237424e-06
4.20084608e-06
4.26094272e-06
4.2781696e-06
4.26297568e-06
4.2987992e-06
4.87364896e-06
4.28119168e-06
4.36172304e-06
4.17133504e-06
4.00363056e-06
4.28578464e-06
4.57565296e-06
4.41730528e-06
4.02083264e-06
4.26616304e-06
4.60385792e-06
4.40660144e-06
4.0849376e-06
4.17606992e-06
4.26780656e-06
4.24292272e-06
4.3099096e-06
4.32278096e-06
4.41610384e-06
4.5446976e-06
4.65030416e-06
4.45494992e-06
4.28737776e-06
4.47648528e-06
4.25549504e-06
4.38626016e-06
4.35318928e-06
4.192736e-06
4.18097888e-06
4.39895344e-06
4.148336e-06
4.28801072e-06
4.04878608e-06
4.26803248e-06
4.0804864e-06
4.24591024e-06
4.19801408e-06
4.05039024e-06
4.40329696e-06
4.49166176e-06
4.66046096e-06
4.31060832e-06
4.49749072e-06
4.08692352e-06
4.13913168e-06
4.31262768e-06
4.20538272e-06
4.24682464e-06
4.30543792e-06
4.17221152e-06
4.05198208e-06
4.36456928e-06
4.3808224e-06
4.33263664e-06
4.5578312e-06
4.28132496e-06
4.09572432e-06
4.29889392e-06
4.38294544e-06
4.46018816e-06
4.31309872e-06
4.0887096e-06
4.29958928e-06
4.48318048e-06
4.27170512e-06
4.24276128e-06
4.16403776e-06
4.3458672e-06
4.24908656e-06
4.33513088e-06
3.98501392e-06
4.18851248e-06
4.22000048e-06
4.2290592e-06
4.53889072e-06
4.30875728e-06
4.51338512e-06
4.3982504e-06
4.22752288e-06
4.37147536e-06
4.41804464e-06
4.39952144e-06
4.27391792e-06
4.29358432e-06
4.32189904e-06
4.530164e-06
4.42093648e-06
4.20725984e-06
4.34140752e-06
4.13576448e-06
4.33803984e-06
4.06215504e-06
4.40869552e-06
4.09609456e-06
4.41387312e-06
4.11920896e-06
4.40488448e-06
4.33408528e-06
4.24672464e-06
4.4949136e-06
4.58588624e-06
4.38321408e-06
4.3435784e-06
4.28696816e-06
4.05944464e-06
4.31522864e-06
4.3684712e-06
4.39501776e-06
4.77732192e-06
4.08682496e-06
4.36018432e-06
4.31890896e-06
4.02813776e-06
4.29453248e-06
4.4632112e-06
4.21520672e-06
4.15942208e-06
4.4109168e-06
4.49710208e-06
4.34075568e-06
4.39393504e-06
4.43073056e-06
4.26188272e-06
4.39358016e-06
4.14651232e-06
4.28548144e-06
4.46805104e-06
4.06183808e-06
4.52758512e-06
4.43607232e-06
4.61618272e-06
4.32164576e-06
4.43726944e-06
4.29973408e-06
4.3239192e-06
4.21284576e-06
4.11875152e-06
4.17485008e-06
4.48460144e-06
4.43995072e-06
4.62336848e-06
4.39091504e-06
4.23653504e-06
4.5064072e-06
4.44070496e-06
4.526848e-06
4.3818e-06
4.47394624e-06
4.42597152e-06
4.68094144e-06
4.3700288e-06
4.35356304e-06
4.49372592e-06
4.32285232e-06
4.60004448e-06
4.2631448e-06
4.46518352e-06
4.54267952e-06
4.50379248e-06
4.57254672e-06
4.39179872e-06
4.333856e-06
4.32738288e-06
4.39765552e-06
4.23642192e-06
4.33998736e-06
4.42923792e-06
4.5664816e-06
4.34046656e-06
4.55988384e-06
4.41228352e-06
4.2983144e-06
4.28845872e-06
4.42637888e-06
4.42306464e-06
4.36787712e-06
4.5355688e-06
4.49531296e-06
4.7551544e-06
4.71647664e-06
4.37116064e-06
4.37800992e-06
4.5652584e-06
4.09076144e-06
4.16607408e-06
4.26718336e-06
4.52345088e-06
4.26867312e-06
4.39811504e-06
4.54932048e-06
4.17586784e-06
4.35906656e-06
4.53308656e-06
4.13457072e-06
4.5068928e-06
4.29782064e-06
4.23423728e-06
4.45571568e-06
4.43451424e-06
4.5962664e-06
4.74485536e-06
4.3175072e-06
4.32359712e-06
4.38757008e-06
4.39746928e-06
4.35452016e-06
4.37551616e-06
4.42789168e-06
4.42292624e-06
4.31493648e-06
4.54387968e-06
4.17630352e-06
4.49506272e-06
4.3232816e-06
4.44170352e-06
4.30898496e-06
4.5197048e-06
4.569136e-06
4.50283152e-06
4.35302144e-06
4.51157248e-06
4.2342424e-06
4.2232968e-06
4.14328816e-06
4.12173184e-06
4.38471712e-06
4.41939808e-06
4.17075984e-06
4.27058048e-06
4.10433024e-06
4.23432144e-06
4.10149648e-06
4.16059792e-06
4.14933072e-06
4.46789904e-06
4.1984984e-06
4.14682672e-06
4.4156456e-06
4.34809536e-06
4.49328208e-06
4.334216e-06
4.24377472e-06
4.38510704e-06
4.30296288e-06
4.17014816e-06
4.12665328e-06
4.12494272e-06
4.36157536e-06
4.04985808e-06
4.09627056e-06
4.21009232e-06
4.09584176e-06
3.90347328e-06
4.16643504e-06
4.4613064e-06
4.48176384e-06
4.28611872e-06
4.30467088e-06
4.13583408e-06
4.36864288e-06
4.55878272e-06
4.36481696e-06
4.3807848e-06
4.03989136e-06
4.16003072e-06
4.09374384e-06
4.37174656e-06
4.323812e-06
4.31077232e-06
4.08066704e-06
4.15115616e-06
3.96119824e-06
4.23579104e-06
4.25341088e-06
4.13981888e-06
4.38668768e-06
4.23409888e-06
4.1878808e-06
4.34600512e-06
4.69326272e-06
4.49954208e-06
4.23456784e-06
4.21623824e-06
4.01355024e-06
4.53359008e-06
4.43296688e-06
4.29396352e-06
4.08667328e-06
4.10887712e-06
4.40284432e-06
4.09355376e-06
4.2380128e-06
4.2024832e-06
4.01091808e-06
4.21114896e-06
4.3127152e-06
4.40318336e-06
4.41946336e-06
4.5097176e-06
4.25500224e-06
4.48692912e-06
4.3065424e-06
4.38509632e-06
4.03134608e-06
4.17589648e-06
4.566968e-06
4.21194928e-06
4.22266896e-06
4.41635328e-06
4.32162352e-06
4.4875936e-06
4.25657344e-06
4.20058816e-06
3.99052176e-06
4.37658048e-06
4.149496e-06
4.28979216e-06
4.43686624e-06
4.51747072e-06
4.6387496e-06
4.68708048e-06
4.14326336e-06
4.43634944e-06
4.14583024e-06
4.05602832e-06
4.42030528e-06
4.3561952e-06
4.3148712e-06
4.19439952e-06
4.12010368e-06
4.23994624e-06
4.27660768e-06
4.15613696e-06
4.19026784e-06
4.42169584e-06
4.17882464e-06
4.00189488e-06
4.31820592e-06
4.50535744e-06
4.36327264e-06
4.60020288e-06
4.37172736e-06
4.1717024e-06
4.32439584e-06
3.89811408e-06
4.36147664e-06
4.38365872e-06
4.22051856e-06
4.3070032e-06
4.26617504e-06
4.43635376e-06
4.12319248e-06
4.28835968e-06
4.23064288e-06
4.09127776e-06
4.15514736e-06
4.15873536e-06
4.16646624e-06
4.26264208e-06
4.5327176e-06
4.2845376e-06
4.2898416e-06
4.3147328e-06
4.3582944e-06
4.21122448e-06
4.38054128e-06
4.15736944e-06
4.29037424e-06
4.12366144e-06
4.43251632e-06
4.19610704e-06
4.15381696e-06
4.1723072e-06
4.34607648e-06
4.38355152e-06
4.32088896e-06
4.206424e-06
4.43895472e-06
4.50914016e-06
4.37876848e-06
4.37360272e-06
4.26876832e-06
4.27043232e-06
4.56318352e-06
4.18731568e-06
4.29299152e-06
4.20767408e-06
4.1707e-06
4.31933392e-06
4.43917728e-06
4.25283728e-06
4.12923248e-06
4.23333184e-06
4.4568488e-06
4.13493248e-06
4.39447664e-06
4.44625168e-06
4.3724248e-06
4.39468672e-06
4.31996384e-06
4.67351472e-06
4.23216928e-06
4.22339328e-06
4.04217888e-06
4.41498272e-06
4.29888672e-06
4.280496e-06
4.2889328e-06
4.35082064e-06
4.34104016e-06
4.27550832e-06
4.15918512e-06
4.07070672e-06
4.37654288e-06
4.48561024e-06
4.53719776e-06
4.34934032e-06
4.36200368e-06
4.52610096e-06
4.44975808e-06
4.58637568e-06
4.36033072e-06
4.29912288e-06
4.42342128e-06
4.08446688e-06
4.49610992e-06
4.40242704e-06
4.35123408e-06
4.40295744e-06
4.30840496e-06
4.38200672e-06
4.3599016e-06
4.1045088e-06
4.26452048e-06
4.5013824e-06
4.31816064e-06
4.26720944e-06
4.35148304e-06
4.50954592e-06
4.1894328e-06
4.35576384e-06
4.40415504e-06
4.2963848e-06
4.23145904e-06
4.29515216e-06
4.3124e-06
4.50526816e-06
4.50811648e-06
4.2938256e-06
4.22358336e-06
4.48193168e-06
4.33795312e-06
4.34406656e-06
4.20915696e-06
4.55577088e-06
4.39476784e-06
4.39537264e-06
4.292476e-06
4.4790496e-06
4.48131792e-06
4.64548528e-06
4.20934912e-06
4.42926784e-06
4.37095776e-06
4.47329664e-06
4.517024e-06
4.5301576e-06
4.27138816e-06
4.22155296e-06
4.2054224e-06
4.05123424e-06
4.34144592e-06
4.4834056e-06
4.69167264e-06
4.50142896e-06
4.4815968e-06
4.50425888e-06
4.37485584e-06
4.36070704e-06
4.45803392e-06
4.3735024e-06
4.39102736e-06
4.319468e-06
4.3758544e-06
4.204936e-06
4.07723616e-06
4.55776624e-06
4.35397728e-06
4.44202048e-06
4.51051328e-06
4.34597184e-06
4.46377664e-06
4.2533592e-06
4.23202832e-06
4.3616808e-06
4.21812128e-06
4.5049e-06
4.34780192e-06
4.45877408e-06
4.4460424e-06
4.4262504e-06
4.33257808e-06
4.3148648e-06
4.32176704e-06
4.387872e-06
4.50637728e-06
4.4255256e-06
4.32718352e-06
4.30601408e-06
4.51660832e-06
4.36274256e-06
4.44324704e-06
4.3190264e-06
3.97993792e-06
4.30228512e-06
4.0672272e-06
4.22470832e-06
4.46179328e-06
4.34764992e-06
4.61570432e-06
4.748276e-06
4.37622768e-06
4.53895616e-06
4.26315808e-06
4.24468144e-06
4.5024096e-06
4.35547472e-06
4.18725808e-06
4.41364592e-06
4.11338848e-06
4.25496592e-06
4.25473488e-06
4.2760072e-06
4.24864704e-06
4.35153088e-06
4.29399984e-06
4.243372e-06
4.30647664e-06
4.43958688e-06
4.45610304e-06
4.31046224e-06
4.39806848e-06
4.01773584e-06
4.14804176e-06
4.04549104e-06
4.28586928e-06
4.28277584e-06