/*--------------------------------*- C++ -*----------------------------------*\
  =========                 |
  \\      /  F ield         | OpenFOAM: The Open Source CFD Toolbox
   \\    /   O peration     | Website:  https://openfoam.org
    \\  /    A nd           | Version:  7
     \\/     M anipulation  |
\*---------------------------------------------------------------------------*/
FoamFile
{
    version     2.0;
    format      ascii;
    class       volScalarField;
    location    "0.00216";
    object      internalE;
}
// * * * * * * * * * * * * * * * * * * * * * * * * * * * * * * * * * * * * * //

dimensions      [1 -1 -2 0 0 0 0];

internalField   nonuniform List<scalar> 
500
(
1006.52
1071.63
1221.14
1332.83
989.28
1073.78
1273.16
1025.85
1262.44
1341.29
1134.02
1256.63
1046.31
1171.13
1303.3
1286.2
1128.42
1054.29
1006.64
1148.77
1152.39
1274.84
1170.59
1038.03
1289.54
884.997
1188.15
960.931
1258.29
1113.04
1075.44
1233.69
1167.08
1065.85
1159.51
1233.25
1114.39
1105.71
1128.32
1118.1
1150.21
1174.95
1075.87
1010.46
1220.33
1006.66
1149.31
1115.11
1081.7
1173.81
1205.86
1173.67
1206.51
1002.38
1095.54
1122.31
1016.43
1145.02
1055.42
998.209
1071.22
1153.03
1313.62
1208.56
1208.58
1027.81
1075.33
1169.23
1069.62
1148.35
1093.01
1208.82
1024.84
1063.61
1243.81
1035.69
1034.58
1131.21
1160.14
1212.83
1158.32
1206.26
1225.78
1085.48
1080.66
1116.51
1194.04
1146.09
1274.35
1098.53
1157.76
1294.72
1071.79
1095.33
1314.08
1177.58
1067.74
1118.48
1046.55
1124.31
1010.8
1214.05
1120.64
957.753
1171.42
1215.45
1068.76
1045.94
1211.17
1148.83
993.813
1069.25
1017.75
1159.11
1162.6
1200.43
1325.9
1299.94
1159.44
1027.94
1132.09
1133.65
1096.99
1235.63
1096.83
1030.26
1073.16
1078.46
1009.73
928.319
1125.69
1150.16
1097.93
996.704
1132.76
1218.18
1254
1186.34
1032.29
1174.22
1181.72
1064.24
1143.44
1149
1030.52
1248.66
1113.02
961.202
1059.13
1131.05
1115.38
1259.27
1233.46
1193.68
1100.39
1120.11
1067.47
994.366
1159.12
993.25
1036.25
957.523
1009.22
959.384
814.732
1050.14
844.531
940.812
901.254
902.648
974.608
1025.74
843.173
988.811
977.516
887.348
1001.8
782.982
718.214
809.658
918.918
789.435
791.639
910.96
733.212
902.277
713.812
847.792
796.07
777.813
739.731
754.818
672.273
748.616
794.152
740.382
645.02
611.616
705.021
581.74
604.961
710.348
727.927
622.493
538.931
611.332
622.255
482.826
643.936
592.509
494.222
587.516
498.116
491.066
718.918
569.291
521.133
497.311
448.944
449.126
566.916
434.731
490.305
599.407
425.936
454.883
440.798
487.898
449.304
507.049
449.41
379.911
418.337
480.163
439.421
415.446
417.101
443.039
420.49
431.901
351.032
364.608
462.404
397.342
469.745
459.035
467.525
488.322
465.703
391.774
422.211
429.218
349.757
498.661
514.736
440.347
432.56
445.399
480.149
362.578
453.556
358.54
411.109
442.678
491.169
438.632
453.639
448.884
394.198
369.869
408.407
511.842
391.304
443.531
367.096
456.667
369.458
412.853
443.146
437.305
390.876
372.202
493.315
357.823
499.352
378.464
547.715
405.078
374.447
450.186
378.087
401.068
419.027
459.032
488.987
484.859
388.442
453.478
417.307
491.324
530.826
427.885
310.433
390.339
496.144
386.695
387.141
465.612
482.434
421.96
420.109
394.259
462.855
457.803
393.998
389.337
474.678
506.184
400.489
431.252
508.218
327.704
332.474
364.545
449.342
373.155
402.653
429.888
421.042
366.28
457.762
420.048
410.546
415.458
574.854
460.672
434.63
394.432
414.279
390.079
523.853
469.372
372.51
459.675
464.257
409.437
449.356
468.581
452.169
434.149
447.784
219.292
118.221
108.687
109.329
141.755
100.881
93.1567
114.838
111.524
109.648
82.0557
93.9032
88.0236
133.782
122.01
96.1776
129.483
127.109
84.7072
86.6825
123.056
106.456
113.839
74.8223
100.06
75.5729
108.748
111.997
105.347
135.612
90.8744
103.958
98.7913
93.2707
110.073
97.0372
98.706
94.6546
120.983
122.736
118.358
116.859
84.002
99.0103
83.7251
119.326
126.428
126.103
125.883
107.463
104.12
147.776
122.56
121.255
93.0727
117.538
105.725
92.8258
99.2852
89.0817
100.048
122.756
116.399
88.4903
111.61
101.459
87.853
93.6128
134.18
125.118
115.156
112.007
107.973
111.312
98.5722
107.196
100.437
86.6819
123.274
97.3338
130.882
107.996
102.836
102.673
101.887
104.483
89.0125
89.4601
107.365
115.374
125.134
82.5089
104.829
99.673
112.939
122.119
91.5726
131.661
122.01
94.2151
116.649
123.1
119.414
139.101
118.072
117.305
121.323
79.6294
94.6148
85.7112
104.611
91.1822
114.743
115.028
95.8653
117.003
136.235
102.19
101.301
105.215
101.707
145.239
111.133
112.168
104.764
95.4619
125.974
113.287
126.055
112.435
129.033
124.916
163.519
84.157
131.982
97.1353
114.922
130.568
118.93
98.7222
94.2517
79.9696
111.605
128.401
136.898
130.085
77.3022
128.822
106.513
)
;

boundaryField
{
    sides
    {
        type            symmetry;
    }
    empty
    {
        type            empty;
    }
}


// ************************************************************************* //
