/*--------------------------------*- C++ -*----------------------------------*\
  =========                 |
  \\      /  F ield         | OpenFOAM: The Open Source CFD Toolbox
   \\    /   O peration     | Website:  https://openfoam.org
    \\  /    A nd           | Version:  7
     \\/     M anipulation  |
\*---------------------------------------------------------------------------*/
FoamFile
{
    version     2.0;
    format      ascii;
    class       volScalarField;
    location    "0.05";
    object      p;
}
// * * * * * * * * * * * * * * * * * * * * * * * * * * * * * * * * * * * * * //

dimensions      [1 -1 -2 0 0 0 0];

internalField   nonuniform List<scalar> 
1935
(
1236
1236.5
1234.89
1230.31
1222.2
1210.4
1194.95
1175.98
1153.65
1128.06
1099.27
1067.28
1032.01
993.352
951.093
904.94
854.476
799.116
738.025
670.114
593.831
507.222
410.487
304.994
192.773
91.3754
32.1657
9.85694
4.42377
3.42247
2.92839
2.67054
2.54429
2.45554
2.3804
2.31584
2.25948
2.2099
2.16674
2.12994
2.09962
2.0759
2.05879
2.04805
1188.47
1188.67
1186.47
1181.28
1172.77
1160.76
1145.2
1126.18
1103.79
1078.13
1049.23
1017.1
981.646
942.747
900.183
853.64
802.662
746.617
684.607
615.461
537.432
448.673
349.547
239.521
120.031
29.4126
2.9955
1.62049
2.25507
2.42836
2.52728
2.53025
2.4786
2.40485
2.33347
2.26995
2.21368
2.16399
2.12067
2.08374
2.05333
2.02952
2.01225
2.00115
1141.77
1141.91
1139.23
1133.29
1124.14
1111.69
1095.85
1076.63
1054.09
1028.27
999.202
966.864
931.172
891.979
849.052
802.048
750.478
693.664
630.667
560.275
480.779
390.837
290.867
177.14
60.938
6.49071
2.12277
2.42282
2.44121
2.41031
2.4341
2.44361
2.40464
2.34206
2.27799
2.218
2.16324
2.11414
2.07092
2.03379
2.00298
1.97862
1.96067
1.94892
1096.15
1096.53
1093.85
1087.52
1077.83
1064.87
1048.62
1029.07
1006.26
980.204
950.92
918.366
882.45
843.016
799.816
752.494
700.552
643.314
579.877
509.115
429.647
340.675
242.258
128.773
28.897
3.68141
2.70888
2.50512
2.42699
2.39327
2.38387
2.36949
2.32976
2.27498
2.21697
2.16047
2.10755
2.05926
2.01617
1.97866
1.94707
1.9217
1.90269
1.89032
1051.82
1052.44
1050.04
1043.7
1033.76
1020.44
1003.81
983.918
960.801
934.493
904.993
872.255
836.186
796.622
753.315
705.914
653.942
596.774
533.611
463.515
385.516
299.297
204.616
96.7892
17.3196
3.81333
2.76943
2.48457
2.39903
2.35725
2.33035
2.30044
2.25788
2.20643
2.15202
2.09817
2.04689
1.99937
1.9563
1.91819
1.88556
1.85889
1.83864
1.82569
1008.93
1009.7
1007.63
1001.54
991.627
978.166
961.307
941.158
917.801
891.289
861.631
828.789
792.674
753.127
709.911
662.695
611.05
554.433
492.183
423.596
348.102
265.797
176.21
76.7699
13.789
3.74157
2.66769
2.4378
2.36566
2.31599
2.2739
2.23314
2.18712
2.13641
2.08387
2.03179
1.98174
1.93478
1.89159
1.85275
1.81889
1.7907
1.76897
1.75519
967.54
968.397
966.624
960.898
951.227
937.848
920.951
900.701
877.228
850.62
820.91
788.081
752.056
712.693
669.773
623.003
572.013
516.356
455.523
389.037
316.677
238.849
154.819
63.3159
11.7945
3.47377
2.5487
2.37974
2.32085
2.2637
2.21208
2.16436
2.11533
2.06437
2.0127
1.96171
1.91252
1.86592
1.82249
1.7828
1.74757
1.71762
1.69398
1.67862
927.684
928.578
927.066
921.744
912.449
899.332
882.585
862.408
838.975
812.412
782.787
750.111
714.33
675.323
632.899
586.811
536.755
482.379
423.316
359.293
290.348
217.068
138.363
53.4041
9.99812
3.14329
2.43305
2.31334
2.26135
2.20025
2.14392
2.09223
2.04113
1.98971
1.93849
1.88823
1.83965
1.79327
1.74952
1.70893
1.67219
1.64015
1.6139
1.59563
889.345
890.254
888.971
884.059
875.216
862.495
846.058
826.119
802.886
776.521
747.131
714.758
679.376
640.891
599.147
553.944
505.041
452.178
395.109
333.714
268.212
199.231
125.224
45.5925
8.38502
2.87972
2.32342
2.23878
2.18995
2.12758
2.06956
2.01599
1.96375
1.91212
1.86126
1.81161
1.76354
1.71733
1.67327
1.63178
1.59345
1.55895
1.5291
1.50594
852.485
853.4
852.321
847.81
839.456
827.218
811.213
791.652
768.764
742.745
713.735
681.81
646.973
609.162
568.256
524.101
476.516
425.317
370.353
311.619
249.429
184.348
114.317
39.1874
7.00348
2.6625
2.21884
2.15742
2.10972
2.04763
1.98964
1.93556
1.88303
1.83157
1.78124
1.73222
1.68466
1.63868
1.5944
1.55209
1.51216
1.47491
1.44048
1.40997
816.738
817.652
816.75
812.611
804.749
793.036
777.544
758.47
736.05
710.507
682.011
650.667
616.51
579.507
539.574
496.597
450.45
401.011
348.201
292.088
233.03
171.45
104.77
33.733
5.84463
2.47355
2.11694
2.06968
2.02209
1.96125
1.9043
1.85067
1.79858
1.74773
1.69815
1.64988
1.60294
1.55729
1.51296
1.47007
1.42872
1.3887
1.34912
1.30842
781.928
782.838
782.083
778.278
770.883
759.71
744.78
726.271
704.42
679.464
651.599
620.956
587.596
551.517
512.667
470.971
426.347
378.72
328.066
274.496
218.377
159.956
96.2198
29.0554
4.89975
2.3058
2.01554
1.9761
1.92827
1.86924
1.81396
1.76149
1.71041
1.66059
1.612
1.56465
1.51848
1.47337
1.42927
1.38616
1.34396
1.30213
1.25922
1.21199
748.175
749.077
748.448
744.943
737.991
727.353
713.014
695.124
673.916
649.637
622.498
592.654
560.189
525.126
487.443
447.099
404.045
358.247
309.713
258.582
205.206
149.662
88.5948
25.1403
4.16033
2.1544
1.91376
1.87793
1.82988
1.77294
1.71969
1.66884
1.61922
1.57073
1.52338
1.47714
1.43192
1.3876
1.34406
1.3012
1.25883
1.21637
1.17252
1.12499
715.447
716.338
715.817
712.581
706.043
695.931
682.192
664.955
644.446
620.911
594.573
565.605
534.111
500.135
463.683
424.738
383.28
339.302
292.837
244.039
193.235
140.347
81.7725
21.8742
3.57755
2.01238
1.81017
1.77577
1.72777
1.67311
1.62213
1.57322
1.52533
1.47843
1.43253
1.38759
1.34355
1.30027
1.25761
1.21541
1.17345
1.13118
1.08761
1.04122
683.711
684.587
684.157
681.162
675.01
665.403
652.263
635.698
615.921
593.178
567.698
539.664
509.197
476.361
441.182
403.664
363.808
321.629
277.175
230.607
182.229
131.827
75.6289
19.1402
3.1086
1.87463
1.70372
1.66993
1.62246
1.57029
1.52177
1.47502
1.42911
1.38401
1.33973
1.29629
1.25363
1.21162
1.17009
1.12888
1.08775
1.04623
1.00353
0.958602
652.937
653.794
653.439
650.66
644.865
635.742
623.192
607.304
588.279
566.359
541.775
514.717
485.318
453.657
419.776
383.697
345.438
305.028
262.525
218.094
172.018
123.964
70.0567
16.8437
2.72117
1.73742
1.59369
1.56056
1.51426
1.46488
1.419
1.37462
1.33086
1.28772
1.24525
1.20349
1.16238
1.12181
1.08162
1.04164
1.00162
0.961207
0.919805
0.876711
623.096
623.93
623.639
621.053
615.591
606.928
594.954
579.742
561.478
540.4
516.737
490.683
462.378
431.914
399.345
364.707
328.03
289.353
248.742
206.363
162.481
116.663
64.9722
14.9067
2.39179
1.5977
1.4795
1.44781
1.40342
1.35717
1.31416
1.27232
1.23087
1.18985
1.14934
1.10938
1.06996
1.03097
0.992248
0.953638
0.91494
0.875854
0.835961
0.794903
594.164
594.973
594.733
592.324
587.172
578.951
567.538
552.993
535.494
515.267
492.54
467.507
440.312
411.056
379.803
346.598
311.482
274.501
235.725
195.322
153.538
109.855
60.3123
13.2544
2.10165
1.45376
1.361
1.33194
1.29024
1.2475
1.20758
1.16844
1.12945
1.09067
1.05222
1.01417
0.976513
0.939167
0.902002
0.864869
0.827612
0.789982
0.751689
0.712697
566.118
566.899
566.704
564.457
559.597
551.8
540.934
527.049
510.31
490.938
469.153
445.149
419.073
391.028
361.087
329.303
295.723
260.399
223.403
184.903
145.129
103.487
56.0202
11.8184
1.83838
1.30653
1.23876
1.2135
1.17521
1.1363
1.09965
1.06334
1.02689
0.990425
0.954101
0.918007
0.882156
0.846497
0.810928
0.775334
0.7396
0.703517
0.666869
0.629926
538.937
539.688
539.533
537.437
532.856
525.467
515.134
501.898
485.914
467.393
446.551
423.578
398.62
371.784
343.146
312.765
280.693
246.985
211.713
175.047
137.2
97.5087
52.0393
10.5545
1.59773
1.15875
1.11395
1.09329
1.05895
1.02407
0.990778
0.957346
0.923465
0.889341
0.855154
0.821022
0.786987
0.75303
0.719081
0.685062
0.65091
0.616455
0.581548
0.546429
512.599
513.321
513.201
511.248
506.933
499.939
490.126
477.527
462.288
444.613
424.709
402.762
378.916
353.28
325.93
296.929
266.334
234.198
200.598
165.699
129.698
91.8712
48.3231
9.43861
1.37838
1.01222
0.987784
0.9723
0.94221
0.911362
0.881381
0.850779
0.819424
0.787593
0.755508
0.723313
0.691084
0.658833
0.626522
0.594101
0.561562
0.528839
0.495631
0.462136
0.429043
487.082
487.775
487.687
485.869
481.81
475.197
465.891
453.917
439.412
422.571
403.596
382.664
359.92
335.467
309.386
281.739
252.585
221.979
189.996
156.799
122.571
86.5316
44.8442
8.44965
1.17741
0.868134
0.861694
0.85165
0.825761
0.798705
0.771832
0.743906
0.714953
0.68532
0.655265
0.624962
0.594515
0.56397
0.533308
0.502502
0.471579
0.440558
0.409241
0.377458
0.345933
462.363
463.026
462.968
461.278
457.463
451.22
442.406
431.043
417.259
401.24
383.179
363.249
341.588
318.3
293.462
267.139
239.389
210.269
179.85
148.295
115.772
81.4538
41.5756
7.55239
0.992918
0.732331
0.73837
0.732655
0.710396
0.686592
0.662453
0.636944
0.610207
0.582635
0.554514
0.526041
0.497347
0.468498
0.439493
0.410316
0.381005
0.351631
0.322111
0.292271
0.262396
438.417
439.05
439.018
437.448
433.868
427.981
419.647
408.88
395.803
380.59
363.427
344.48
323.883
301.735
278.114
253.083
226.7
199.021
170.117
140.147
109.267
76.612
38.4915
6.72686
0.828816
0.610548
0.62022
0.616352
0.596658
0.57538
0.553484
0.530067
0.505316
0.479642
0.453343
0.426628
0.399644
0.372468
0.345112
0.317567
0.289873
0.262108
0.234273
0.20627
0.178252
415.219
415.822
415.81
414.355
411
405.457
397.589
387.405
375.019
360.597
344.314
326.33
306.774
285.741
263.308
239.536
214.484
188.206
160.771
132.336
103.045
71.9987
35.5909
5.99162
0.683172
0.497675
0.506596
0.502755
0.484671
0.4652
0.445059
0.423392
0.400385
0.376436
0.351836
0.326796
0.301465
0.275925
0.25019
0.22426
0.198173
0.172004
0.145786
0.119497
0.0932239
392.744
393.316
393.322
391.975
388.836
383.627
376.213
366.599
354.889
341.239
325.818
308.776
290.236
270.293
249.019
226.477
202.722
177.806
151.799
124.854
97.1036
67.6181
32.8849
5.34641
0.547661
0.387392
0.395701
0.391437
0.37428
0.356029
0.337216
0.316985
0.295491
0.273095
0.250067
0.226608
0.20286
0.178901
0.154744
0.130393
0.105886
0.0812899
0.0566559
0.0320007
0.00739515
370.968
371.509
371.532
370.287
367.358
362.474
355.501
346.442
335.392
322.497
307.917
291.795
274.249
255.37
235.228
213.885
191.394
167.807
143.19
117.693
91.4367
63.4667
30.3663
4.76327
0.420648
0.281285
0.287715
0.282211
0.265321
0.247772
0.229913
0.210848
0.190661
0.169659
0.14808
0.126103
0.103858
0.0814149
0.0587808
0.0359594
0.0129905
-0.0100638
-0.0331459
-0.0562176
-0.0792262
349.869
350.378
350.416
349.271
346.545
341.976
335.433
326.914
316.507
304.348
290.588
275.363
258.787
240.946
221.911
201.738
180.481
158.187
134.921
110.83
86.0228
59.5227
28.0085
4.22027
0.302755
0.182925
0.183215
0.174811
0.157491
0.140211
0.123012
0.104898
0.0858499
0.0661067
0.0458637
0.0252755
0.00445582
-0.0165405
-0.0377118
-0.0590555
-0.0805322
-0.102081
-0.123642
-0.145173
-0.166642
329.421
329.901
329.953
328.904
326.373
322.109
315.983
307.989
298.206
286.764
273.802
259.453
243.823
226.997
209.041
190.011
169.954
148.917
126.963
104.234
80.829
55.7559
25.7931
3.7256
0.190804
0.0855365
0.0794637
0.06805
0.0501272
0.0329475
0.0162594
-0.00103376
-0.0190587
-0.0376447
-0.0566407
-0.0759189
-0.0953834
-0.114996
-0.134761
-0.154679
-0.174707
-0.194785
-0.214857
-0.234888
-0.25487
309.598
310.05
310.115
309.157
306.815
302.845
297.122
289.636
280.461
269.716
257.534
244.039
229.333
213.496
196.594
178.677
159.788
139.971
119.286
97.8754
75.8273
52.1434
23.7074
3.27787
0.0764992
-0.0182837
-0.0264962
-0.0393375
-0.0574712
-0.0744534
-0.0906274
-0.107147
-0.124209
-0.141701
-0.159513
-0.17754
-0.195705
-0.213985
-0.232395
-0.250933
-0.269555
-0.288201
-0.306821
-0.325397
-0.34394
290.372
290.795
290.871
290.001
287.838
284.152
278.819
271.827
263.243
253.178
241.757
229.096
215.293
200.423
184.547
167.714
149.961
131.328
111.874
91.7397
71.0078
48.6781
21.741
2.8592
-0.0400177
-0.126718
-0.134668
-0.147723
-0.165677
-0.182278
-0.197871
-0.21361
-0.229729
-0.24616
-0.262822
-0.279637
-0.296542
-0.313529
-0.330623
-0.347823
-0.365081
-0.382338
-0.399555
-0.41673
-0.433884
271.712
272.107
272.191
271.402
269.413
266
261.046
254.535
246.528
237.127
226.45
214.605
201.684
187.756
172.88
157.101
140.452
122.971
104.716
85.8239
66.3727
45.3634
19.8911
2.46289
-0.157245
-0.236652
-0.244089
-0.257052
-0.274603
-0.290685
-0.305627
-0.320558
-0.33573
-0.351105
-0.366633
-0.382255
-0.397923
-0.413643
-0.429449
-0.445343
-0.461278
-0.477195
-0.493067
-0.5089
-0.524718
253.587
253.953
254.045
253.333
251.51
248.363
243.777
237.736
230.292
221.539
211.588
200.54
188.478
175.468
161.564
146.809
131.237
114.88
97.7962
80.1194
61.9171
42.1939
18.1502
2.08648
-0.274107
-0.346788
-0.354383
-0.367298
-0.384343
-0.399813
-0.41404
-0.428122
-0.442326
-0.456636
-0.471026
-0.485455
-0.499892
-0.514356
-0.528891
-0.543499
-0.55814
-0.572762
-0.587345
-0.601896
-0.616431
235.967
236.305
236.402
235.764
234.103
231.214
226.986
221.401
214.505
206.384
197.14
186.867
175.642
163.525
150.566
136.808
122.284
107.027
91.0914
74.6034
57.6184
39.1481
16.5031
1.72877
-0.391521
-0.458146
-0.465876
-0.478633
-0.495057
-0.509823
-0.523261
-0.536441
-0.549638
-0.562857
-0.57609
-0.589313
-0.602512
-0.615719
-0.628982
-0.642313
-0.655678
-0.669037
-0.682373
-0.695689
-0.708985
218.822
219.132
219.234
218.668
217.162
214.522
210.641
205.499
199.135
191.628
183.07
173.551
163.142
151.895
139.858
127.072
113.572
99.3897
84.5766
69.2484
53.4483
36.2016
14.9343
1.38596
-0.510044
-0.571162
-0.57881
-0.591216
-0.606896
-0.620853
-0.633414
-0.645619
-0.657755
-0.669842
-0.681888
-0.693883
-0.705831
-0.717772
-0.729758
-0.74181
-0.753907
-0.76602
-0.778133
-0.790243
-0.802329
202.119
202.403
202.508
202.01
200.654
198.254
194.708
189.994
184.147
177.235
169.345
160.56
150.945
140.548
129.414
117.58
105.083
91.9513
78.233
64.0339
49.3885
33.3433
13.4397
1.05748
-0.6297
-0.685848
-0.693251
-0.705144
-0.719954
-0.732993
-0.744583
-0.75573
-0.766737
-0.777641
-0.788459
-0.799196
-0.809871
-0.820532
-0.831234
-0.842003
-0.852833
-0.863706
-0.874607
-0.88552
-0.896412
185.825
186.082
186.19
185.757
184.544
182.376
179.153
174.852
169.506
163.174
155.933
147.863
139.022
129.457
119.207
108.309
96.7946
84.6909
72.0407
58.9434
45.4292
30.5701
12.0192
0.743692
-0.750478
-0.802172
-0.80924
-0.820489
-0.834312
-0.846336
-0.856865
-0.866871
-0.876671
-0.886325
-0.89586
-0.905295
-0.914662
-0.924018
-0.933416
-0.942893
-0.952452
-0.962081
-0.971767
-0.981485
-0.991186
169.904
170.136
170.246
169.874
168.799
166.855
163.943
160.041
155.178
149.409
142.802
135.428
127.344
118.593
109.21
99.2289
88.6776
77.58
65.9754
53.9597
41.5602
27.8748
10.6662
0.442332
-0.872654
-0.920206
-0.926866
-0.937357
-0.950086
-0.961008
-0.970401
-0.979189
-0.987699
-0.996018
-1.00419
-1.01226
-1.02026
-1.02827
-1.03633
-1.04449
-1.05276
-1.06113
-1.06959
-1.0781
-1.08661
154.32
154.527
154.639
154.326
153.383
151.653
149.041
145.525
141.131
135.909
129.919
123.227
115.884
107.928
99.3948
90.3124
80.7048
70.5939
60.0181
49.0697
37.7714
25.2482
9.37256
0.150968
-0.996494
-1.04006
-1.04625
-1.05587
-1.0674
-1.07712
-1.0853
-1.0928
-1.09994
-1.10683
-1.11355
-1.12016
-1.12673
-1.13332
-1.14
-1.1468
-1.15375
-1.16083
-1.16805
-1.17535
-1.18267
139.035
139.219
139.332
139.073
138.256
136.733
134.413
131.27
127.332
122.643
117.258
111.233
104.615
97.4407
89.7394
81.5375
72.8561
63.7169
54.1577
44.2648
34.0551
22.685
8.13764
-0.130426
-1.12179
-1.1617
-1.16749
-1.17618
-1.18636
-1.19474
-1.20161
-1.20775
-1.21345
-1.21883
-1.22398
-1.22904
-1.23408
-1.23919
-1.24443
-1.24983
-1.25541
-1.26118
-1.26712
-1.27319
-1.27931
124.015
124.178
124.292
124.086
123.386
122.062
120.027
117.251
113.756
109.586
104.79
99.4187
93.5132
87.1045
80.2197
72.8826
65.114
56.9352
48.3818
39.5331
30.3998
20.1841
6.97136
-0.39929
-1.24809
-1.28499
-1.2905
-1.2984
-1.30715
-1.31405
-1.31943
-1.32406
-1.32823
-1.33202
-1.33554
-1.33894
-1.34236
-1.3459
-1.34962
-1.35355
-1.35772
-1.36214
-1.36678
-1.37159
-1.3765
109.226
109.369
109.49
109.341
108.757
107.622
105.865
103.451
100.387
96.7158
92.4913
87.7609
82.5562
76.9001
70.8167
64.3312
57.4642
50.2337
42.6727
34.8536
26.7954
17.7529
5.87742
-0.650337
-1.37565
-1.40997
-1.41536
-1.4226
-1.43002
-1.4353
-1.439
-1.44191
-1.44436
-1.44642
-1.44821
-1.44987
-1.45158
-1.45345
-1.45556
-1.45794
-1.46065
-1.46367
-1.46698
-1.47052
-1.47422
94.5912
94.7298
94.8731
94.7948
94.3348
93.3887
91.8997
89.8346
87.1916
84.0073
80.339
76.2345
71.7175
66.8017
61.5073
55.8604
49.882
43.587
37.0027
30.2029
23.2289
15.3792
4.86562
-0.886765
-1.50317
-1.53726
-1.54276
-1.54899
-1.55512
-1.55867
-1.56057
-1.56159
-1.56207
-1.56212
-1.56194
-1.56171
-1.56163
-1.56178
-1.56222
-1.563
-1.56418
-1.56576
-1.56771
-1.56996
-1.57241
79.9848
80.1724
80.3689
80.3749
80.051
79.2982
78.0612
76.321
74.0872
71.392
68.2803
64.7911
60.9446
56.7518
52.2318
47.411
42.3085
36.9365
31.3272
25.5526
)
;

boundaryField
{
    leftWall
    {
        type            calculated;
        value           nonuniform List<scalar> 
44
(
1236
1188.47
1141.77
1096.15
1051.82
1008.93
967.54
927.684
889.345
852.485
816.738
781.928
748.175
715.447
683.711
652.937
623.096
594.164
566.118
538.937
512.599
487.082
462.363
438.417
415.219
392.744
370.968
349.869
329.421
309.598
290.372
271.712
253.587
235.967
218.822
202.119
185.825
169.904
154.32
139.035
124.015
109.226
94.5912
79.9848
)
;
    }
    rightWall
    {
        type            calculated;
        value           nonuniform 0();
    }
    lowerWall
    {
        type            calculated;
        value           nonuniform List<scalar> 
44
(
1259.54
1260.04
1258.43
1253.85
1245.75
1233.94
1218.49
1199.53
1177.2
1151.61
1122.82
1090.82
1055.56
1016.9
974.636
928.484
878.019
822.66
761.569
693.658
617.375
530.766
434.031
328.537
216.244
114.285
51.0368
16.0218
4.86666
3.64231
3.02731
2.71575
2.57346
2.48042
2.40423
2.33944
2.28303
2.23344
2.19028
2.15349
2.12317
2.09945
2.08233
2.07159
)
;
    }
    atmosphere
    {
        type            calculated;
        value           nonuniform 0();
    }
    defaultFaces
    {
        type            empty;
    }
    procBoundary0to1
    {
        type            processor;
        value           nonuniform List<scalar> 
44
(
2.04316
1.99592
1.94377
1.88583
1.82197
1.75174
1.67444
1.58919
1.49481
1.38774
1.25929
1.15367
1.0712
0.990091
0.909835
0.830881
0.752063
0.672763
0.592525
0.511125
0.511125
0.395462
0.314639
0.232962
0.150399
0.0670232
-0.0171753
-0.102211
-0.1881
-0.274859
-0.362512
-0.451084
-0.540586
-0.631003
-0.722293
-0.814402
-0.90727
-1.00084
-1.09508
-1.18994
-1.28539
-1.38141
-1.47794
-1.57485
)
;
    }
    procBoundary0to2
    {
        type            processor;
        value           nonuniform List<scalar> 
46
(
19.6491
13.0082
3.94044
-1.1144
-1.6356
-1.66764
-1.67274
-1.67816
-1.68261
-1.68431
-1.68416
-1.68305
-1.68132
-1.67915
-1.67677
-1.67447
-1.67246
-1.6708
-1.66952
-1.66866
-1.66827
-1.66836
-1.66889
-1.66977
-1.67085
65.4807
65.7067
65.9169
65.9927
65.7918
65.2147
64.2155
62.7863
60.9484
58.7361
56.1807
53.3031
50.1154
46.6303
42.8697
38.8605
34.6235
30.1759
25.5416
19.6491
20.7877
)
;
    }
}


// ************************************************************************* //
