/*--------------------------------*- C++ -*----------------------------------*\
  =========                 |
  \\      /  F ield         | OpenFOAM: The Open Source CFD Toolbox
   \\    /   O peration     | Website:  https://openfoam.org
    \\  /    A nd           | Version:  7
     \\/     M anipulation  |
\*---------------------------------------------------------------------------*/
FoamFile
{
    version     2.0;
    format      ascii;
    class       volScalarField;
    location    "0.05";
    object      p_rgh;
}
// * * * * * * * * * * * * * * * * * * * * * * * * * * * * * * * * * * * * * //

dimensions      [1 -1 -2 0 0 0 0];

internalField   nonuniform List<scalar> 
1935
(
1259.54
1260.04
1258.43
1253.85
1245.75
1233.94
1218.49
1199.53
1177.2
1151.61
1122.82
1090.82
1055.56
1016.9
974.636
928.484
878.019
822.66
761.569
693.658
617.375
530.766
434.031
328.537
216.244
114.285
51.0368
16.0218
4.86666
3.64231
3.02731
2.71575
2.57346
2.48042
2.40423
2.33944
2.28303
2.23344
2.19028
2.15349
2.12317
2.09945
2.08233
2.07159
1259.1
1259.3
1257.11
1251.91
1243.4
1231.39
1215.83
1196.81
1174.42
1148.76
1119.86
1087.73
1052.28
1013.38
970.814
924.27
873.293
817.248
755.238
686.092
608.063
519.303
420.178
310.151
189.622
80.9809
16.5114
3.10231
2.76991
2.80651
2.77671
2.64137
2.55484
2.47702
2.40445
2.34065
2.28432
2.23462
2.1913
2.15437
2.12396
2.10015
2.08288
2.07178
1259.49
1259.63
1256.95
1251
1241.86
1229.41
1213.57
1194.35
1171.8
1145.99
1116.92
1084.58
1048.89
1009.7
966.769
919.765
868.196
811.382
748.385
677.993
598.497
508.555
408.584
294.857
166.67
46.4393
4.42124
3.20688
2.79556
2.60683
2.58217
2.57136
2.52503
2.46041
2.39586
2.33575
2.28097
2.23185
2.18863
2.15151
2.12069
2.09634
2.07839
2.06664
1260.96
1261.33
1258.66
1252.32
1242.63
1229.68
1213.43
1193.88
1171.06
1145.01
1115.72
1083.17
1047.25
1007.82
964.62
917.299
865.357
808.118
744.681
673.92
594.451
505.479
407.062
293.577
148.415
22.4379
4.14214
3.00543
2.68972
2.58989
2.55847
2.53703
2.4953
2.43997
2.38181
2.32528
2.27236
2.22407
2.18098
2.14346
2.11187
2.0865
2.06749
2.05512
1263.72
1264.33
1261.93
1255.6
1245.65
1232.33
1215.7
1195.81
1172.69
1146.38
1116.88
1084.15
1048.08
1008.51
965.207
917.806
865.834
808.665
745.502
675.406
597.407
511.189
416.507
308.681
128.052
10.6169
3.78855
2.88915
2.65808
2.58169
2.54574
2.51328
2.47001
2.41838
2.36393
2.31006
2.25878
2.21126
2.16819
2.13009
2.09745
2.07078
2.05053
2.03758
1267.91
1268.68
1266.61
1260.52
1250.61
1237.14
1220.29
1200.14
1176.78
1150.27
1120.61
1087.77
1051.65
1012.11
968.889
921.673
870.029
813.411
751.162
682.575
607.08
524.776
435.189
329.347
110.309
6.44848
3.47237
2.81552
2.65025
2.58069
2.53421
2.49243
2.44617
2.3954
2.34286
2.29077
2.24072
2.19376
2.15057
2.11173
2.07787
2.04968
2.02795
2.01417
1273.61
1274.46
1272.69
1266.96
1257.29
1243.91
1227.02
1206.77
1183.29
1156.69
1126.98
1094.15
1058.12
1018.76
975.838
929.068
878.079
822.421
761.588
695.103
622.742
544.914
460.884
348.57
94.8378
5.60192
3.22645
2.76011
2.64153
2.57266
2.51873
2.47054
2.42142
2.37044
2.31877
2.26778
2.21859
2.17198
2.12855
2.08886
2.05363
2.02368
2.00005
1.98469
1280.84
1281.73
1280.22
1274.9
1265.6
1252.48
1235.74
1215.56
1192.13
1165.56
1135.94
1103.26
1067.48
1028.47
986.052
939.964
889.907
835.531
776.469
712.445
643.5
570.22
491.516
368.748
82.2711
4.88762
3.04513
2.71397
2.6231
2.55496
2.49736
2.44543
2.39429
2.34287
2.29164
2.24138
2.1928
2.14642
2.10267
2.06208
2.02534
1.99331
1.96705
1.94879
1289.58
1290.49
1289.21
1284.3
1275.46
1262.73
1246.3
1226.36
1203.13
1176.76
1147.37
1115
1079.62
1041.13
999.387
954.183
905.281
852.417
795.348
733.954
668.451
599.47
525.463
388.569
72.1246
4.37684
2.90967
2.67028
2.59541
2.52869
2.46995
2.41626
2.364
2.31236
2.2615
2.21185
2.16377
2.11757
2.07351
2.03202
1.99368
1.95919
1.92934
1.90618
1299.81
1300.73
1299.65
1295.14
1286.78
1274.54
1258.54
1238.98
1216.09
1190.07
1161.06
1129.14
1094.3
1056.49
1015.58
971.427
923.842
872.643
817.679
758.945
696.755
631.674
561.643
408.101
63.836
3.99167
2.8041
2.62605
2.56033
2.49546
2.43705
2.3829
2.33036
2.2789
2.22857
2.17954
2.13199
2.086
2.04172
1.99942
1.95949
1.92223
1.88781
1.8573
1311.57
1312.49
1311.59
1307.45
1299.58
1287.87
1272.38
1253.3
1230.89
1205.34
1176.85
1145.5
1111.35
1074.34
1034.41
991.432
945.286
895.846
843.036
786.923
727.866
666.285
599.606
427.248
56.781
3.69384
2.71691
2.57951
2.51907
2.4564
2.39918
2.34551
2.29341
2.24257
2.19299
2.14472
2.09777
2.05213
2.0078
1.9649
1.92355
1.88353
1.84395
1.80325
1324.92
1325.83
1325.07
1321.27
1313.87
1302.7
1287.77
1269.26
1247.41
1222.45
1194.59
1163.94
1130.59
1094.51
1055.66
1013.96
969.335
921.709
871.055
817.485
761.366
702.945
639.209
445.611
50.5425
3.45554
2.64057
2.52996
2.47271
2.41243
2.35698
2.30448
2.2534
2.20357
2.15499
2.10764
2.06146
2.01636
1.97226
1.92915
1.88694
1.84512
1.80221
1.75498
1339.76
1340.67
1340.04
1336.53
1329.58
1318.94
1304.6
1286.71
1265.51
1241.23
1214.09
1184.24
1151.78
1116.71
1079.03
1038.69
995.635
949.836
901.302
850.172
796.795
741.252
680.184
462.958
44.9787
3.26011
2.57059
2.47761
2.42248
2.36465
2.3113
2.26043
2.2108
2.16232
2.11497
2.06872
2.02351
1.97919
1.93565
1.89279
1.85042
1.80796
1.76411
1.71658
1356.09
1356.98
1356.46
1353.22
1346.68
1336.57
1322.83
1305.6
1285.09
1261.55
1235.21
1206.25
1174.75
1140.78
1104.32
1065.38
1023.92
979.943
933.479
884.68
833.876
780.988
722.414
479.249
39.769
3.09186
2.50337
2.42254
2.36914
2.31383
2.26278
2.21386
2.16598
2.11908
2.07317
2.02823
1.98419
1.94091
1.89825
1.85605
1.81409
1.77182
1.72825
1.68186
1373.86
1374.74
1374.31
1371.31
1365.16
1355.55
1342.41
1325.85
1306.07
1283.33
1257.85
1229.81
1199.35
1166.51
1131.33
1093.81
1053.96
1011.78
967.324
920.755
872.378
821.975
765.777
494.291
34.8163
2.94114
2.43659
2.36478
2.31314
2.2605
2.21192
2.16517
2.11926
2.07415
2.02988
1.98644
1.94378
1.90177
1.86024
1.81903
1.7779
1.73638
1.69368
1.64875
1393.05
1393.91
1393.55
1390.78
1384.98
1375.86
1363.31
1347.42
1328.39
1306.47
1281.89
1254.83
1225.43
1193.77
1159.89
1123.81
1085.55
1045.14
1002.64
958.209
912.133
864.08
810.172
507.832
30.2056
2.80178
2.36878
2.30434
2.25477
2.20504
2.15912
2.11473
2.07098
2.02783
1.98537
1.9436
1.9025
1.86193
1.82174
1.78175
1.74174
1.70132
1.65992
1.61683
1413.64
1414.48
1414.19
1411.6
1406.14
1397.47
1385.5
1370.29
1352.02
1330.95
1307.28
1281.23
1252.92
1222.46
1189.89
1155.25
1118.58
1079.9
1039.29
996.91
953.028
907.209
855.519
519.632
26.0654
2.6689
2.2989
2.24123
2.19426
2.14775
2.10471
2.06286
2.02142
1.9804
1.93988
1.89993
1.86051
1.82151
1.78279
1.74418
1.70549
1.6664
1.62651
1.58545
1435.61
1436.42
1436.18
1433.77
1428.62
1420.4
1408.98
1394.44
1376.94
1356.71
1333.99
1308.95
1281.76
1252.5
1221.25
1188.04
1152.93
1115.95
1077.17
1036.77
994.984
951.3
901.758
529.784
22.2518
2.53851
2.22631
2.17565
2.13191
2.08897
2.04903
2.00989
1.97089
1.93211
1.89366
1.85561
1.81796
1.78061
1.74345
1.70631
1.66906
1.63143
1.59313
1.55414
1458.94
1459.72
1459.52
1457.27
1452.41
1444.62
1433.75
1419.87
1403.13
1383.76
1361.97
1337.97
1311.89
1283.85
1253.9
1222.12
1188.54
1153.22
1116.22
1077.72
1037.95
996.304
948.838
538.306
18.6001
2.41026
2.15135
2.10811
2.06819
2.02913
1.99247
1.95616
1.9197
1.88324
1.84692
1.81082
1.77497
1.73931
1.70374
1.66815
1.63242
1.59633
1.55969
1.52274
1483.6
1484.35
1484.2
1482.1
1477.52
1470.13
1459.8
1446.56
1430.58
1412.06
1391.22
1368.24
1343.29
1316.45
1287.81
1257.43
1225.36
1191.65
1156.38
1119.71
1081.87
1042.17
996.705
545.117
15.2724
2.28709
2.0751
2.03939
2.00375
1.96875
1.93545
1.90201
1.86813
1.83401
1.79982
1.76569
1.73165
1.6977
1.66375
1.62973
1.59558
1.56112
1.52621
1.4911
1509.59
1510.32
1510.2
1508.24
1503.93
1496.93
1487.12
1474.52
1459.28
1441.61
1421.71
1399.76
1375.91
1350.28
1322.93
1293.93
1263.33
1231.19
1197.59
1162.69
1126.69
1088.87
1045.32
550.06
12.4921
2.17049
1.99869
1.97046
1.93931
1.90837
1.87838
1.84778
1.81642
1.78459
1.7525
1.72031
1.68808
1.65583
1.62352
1.5911
1.55856
1.52584
1.49263
1.45913
1.42604
1536.89
1537.59
1537.5
1535.68
1531.62
1525.01
1515.7
1503.73
1489.22
1472.38
1453.41
1432.48
1409.73
1385.28
1359.2
1331.55
1302.4
1271.79
1239.81
1206.61
1172.38
1136.34
1094.66
553.331
10.1763
2.06016
1.9233
1.90241
1.87565
1.84852
1.82164
1.79372
1.76477
1.73513
1.70508
1.67477
1.64433
1.61378
1.58312
1.55231
1.52139
1.49037
1.45905
1.42727
1.39575
1565.48
1566.14
1566.09
1564.4
1560.58
1554.34
1545.52
1534.16
1520.38
1504.36
1486.3
1466.37
1444.71
1421.42
1396.58
1370.26
1342.51
1313.39
1282.97
1251.41
1218.89
1184.57
1144.69
555.059
7.99436
1.9605
1.85146
1.83654
1.81358
1.78972
1.76557
1.74006
1.71333
1.68575
1.65763
1.62916
1.60047
1.57162
1.54261
1.51343
1.48412
1.45475
1.42523
1.39539
1.36551
1595.34
1595.97
1595.94
1594.37
1590.79
1584.9
1576.57
1565.8
1552.72
1537.51
1520.35
1501.4
1480.8
1458.65
1435.03
1410
1383.62
1355.94
1327.04
1297.07
1266.19
1233.53
1195.41
555.177
6.18155
1.87725
1.78556
1.7739
1.75363
1.7323
1.7104
1.68699
1.66224
1.63656
1.61026
1.58355
1.55656
1.52939
1.50203
1.47449
1.44679
1.41903
1.39119
1.36319
1.33517
1626.44
1627.04
1627.03
1625.58
1622.22
1616.68
1608.81
1598.63
1586.24
1571.82
1555.53
1537.55
1517.99
1496.96
1474.53
1450.76
1425.71
1399.43
1371.99
1343.56
1314.27
1283.22
1246.81
553.43
5.05184
1.80537
1.72494
1.71448
1.69593
1.67642
1.65628
1.63461
1.61161
1.58766
1.56306
1.53802
1.51269
1.48715
1.46141
1.43548
1.40939
1.38322
1.35701
1.33072
1.30444
1658.77
1659.34
1659.35
1658
1654.86
1649.65
1642.24
1632.62
1620.91
1607.27
1591.84
1574.8
1556.26
1536.32
1515.05
1492.5
1468.75
1443.83
1417.82
1390.88
1363.13
1333.64
1298.91
550.368
4.20383
1.73872
1.66775
1.65788
1.64033
1.62206
1.60324
1.58301
1.56152
1.53912
1.51609
1.49263
1.46889
1.44493
1.42077
1.39642
1.37191
1.34732
1.32268
1.29803
1.27342
1692.31
1692.85
1692.87
1691.63
1688.7
1683.81
1676.84
1667.78
1656.73
1643.84
1629.26
1613.13
1595.59
1576.71
1556.57
1535.22
1512.73
1489.15
1464.53
1439.03
1412.78
1384.81
1351.71
545.946
3.44206
1.6778
1.61409
1.60388
1.58668
1.56911
1.55125
1.53219
1.512
1.491
1.46942
1.44744
1.4252
1.40275
1.38012
1.3573
1.33433
1.31128
1.28819
1.26512
1.24211
1727.04
1727.55
1727.58
1726.44
1723.71
1719.14
1712.6
1704.08
1693.67
1681.52
1667.75
1652.53
1635.95
1618.11
1599.08
1578.91
1557.65
1535.35
1512.09
1488
1463.19
1436.69
1405.18
540.247
2.76358
1.62494
1.56455
1.55224
1.53468
1.51738
1.50018
1.48207
1.46302
1.44327
1.42303
1.40244
1.38162
1.36063
1.33946
1.31811
1.29663
1.27509
1.25353
1.23199
1.21052
1762.93
1763.41
1763.47
1762.42
1759.89
1755.62
1749.5
1741.5
1731.72
1720.28
1707.32
1692.97
1677.34
1660.51
1642.55
1623.52
1603.47
1582.43
1560.48
1537.75
1514.34
1489.27
1459.31
533.201
2.55862
1.57453
1.51639
1.50177
1.48365
1.46646
1.44977
1.43248
1.41445
1.39587
1.37687
1.35759
1.33813
1.31852
1.29875
1.27883
1.25881
1.23873
1.21866
1.19862
1.17864
1799.98
1800.43
1800.5
1799.54
1797.2
1793.23
1787.5
1780.02
1770.84
1760.1
1747.92
1734.42
1719.71
1703.88
1686.98
1669.06
1650.17
1630.35
1609.67
1588.26
1566.21
1542.53
1514.09
524.861
2.39803
1.51928
1.46666
1.4512
1.43292
1.41593
1.39975
1.38323
1.36617
1.34868
1.33087
1.31284
1.29468
1.2764
1.25799
1.23945
1.22083
1.20218
1.18356
1.16498
1.14644
1838.15
1838.57
1838.65
1837.78
1835.62
1831.93
1826.6
1819.61
1811.02
1800.96
1789.54
1776.88
1763.07
1748.2
1732.33
1715.49
1697.74
1679.11
1659.65
1639.52
1618.79
1596.46
1569.52
515.304
2.24296
1.46091
1.41534
1.40018
1.38211
1.3655
1.34991
1.33417
1.31805
1.30162
1.28496
1.26814
1.25124
1.23425
1.21716
1.19996
1.1827
1.16544
1.14822
1.13105
1.11389
1877.42
1877.82
1877.9
1877.11
1875.12
1871.71
1866.75
1860.24
1852.24
1842.84
1832.16
1820.31
1807.39
1793.46
1778.59
1762.81
1746.16
1728.68
1710.42
1691.53
1672.08
1651.07
1625.6
504.633
2.0302
1.40243
1.3634
1.34875
1.33111
1.31502
1.30008
1.28515
1.26998
1.2546
1.23908
1.22345
1.20779
1.19207
1.17626
1.16037
1.14443
1.12851
1.11264
1.09681
1.08099
1917.76
1918.13
1918.22
1917.51
1915.69
1912.54
1907.95
1901.91
1894.47
1885.72
1875.76
1864.72
1852.65
1839.64
1825.74
1810.99
1795.41
1779.06
1761.97
1744.3
1726.09
1706.37
1682.33
492.844
1.85972
1.34509
1.31119
1.29695
1.27984
1.26436
1.25014
1.23605
1.22185
1.20754
1.19315
1.17872
1.16428
1.14982
1.13529
1.12068
1.10604
1.09141
1.07683
1.06228
1.04775
1959.15
1959.49
1959.59
1958.95
1957.29
1954.4
1950.17
1944.59
1937.69
1929.57
1920.33
1910.05
1898.83
1886.71
1873.75
1860
1845.47
1830.21
1814.28
1797.79
1780.81
1762.34
1739.69
479.913
1.71764
1.28779
1.2584
1.2446
1.22813
1.21336
1.19993
1.18675
1.17355
1.16033
1.1471
1.13387
1.12067
1.10747
1.0942
1.08087
1.06751
1.05415
1.04081
1.0275
1.0142
2001.57
2001.88
2001.98
2001.41
1999.91
1997.27
1993.39
1988.24
1981.88
1974.37
1965.82
1956.3
1945.89
1934.64
1922.6
1909.82
1896.32
1882.14
1867.32
1851.99
1836.19
1818.95
1797.68
465.807
1.59198
1.23005
1.20477
1.19157
1.17585
1.16189
1.14933
1.13713
1.12499
1.1129
1.10086
1.08886
1.07691
1.06497
1.05299
1.04094
1.02884
1.01673
1.00461
0.992503
0.980416
2044.98
2045.26
2045.36
2044.87
2043.51
2041.11
2037.57
2032.85
2027
2020.09
2012.2
2003.42
1993.8
1983.41
1972.27
1960.44
1947.94
1934.81
1921.09
1906.89
1892.25
1876.2
1856.3
450.487
1.477
1.17179
1.15023
1.13774
1.1229
1.10986
1.09827
1.08713
1.07612
1.06522
1.0544
1.04366
1.03299
1.02232
1.01162
1.00085
0.990024
0.979151
0.96825
0.957337
0.946445
2089.35
2089.61
2089.72
2089.28
2088.07
2085.9
2082.68
2078.38
2073.03
2066.7
2059.46
2051.39
2042.55
2032.98
2022.73
2011.84
2000.32
1988.22
1975.57
1962.47
1948.96
1934.1
1915.55
433.903
1.36963
1.11301
1.09475
1.08306
1.06922
1.05719
1.04666
1.03666
1.02686
1.0172
1.00767
0.998232
0.988864
0.979509
0.97011
0.960634
0.951075
0.941446
0.93176
0.922041
0.91234
2134.66
2134.9
2135.01
2134.63
2133.56
2131.61
2128.7
2124.8
2119.94
2114.17
2107.56
2100.19
2092.1
2083.35
2073.97
2063.99
2053.44
2042.34
2030.74
2018.72
2006.32
1992.63
1975.43
415.994
1.26783
1.05357
1.03822
1.02741
1.01467
1.00375
0.994358
0.985571
0.977061
0.968742
0.960568
0.952502
0.944497
0.936493
0.928431
0.920272
0.912004
0.903632
0.895172
0.886655
0.878145
2180.88
2181.09
2181.2
2180.89
2179.94
2178.21
2175.6
2172.09
2167.69
2162.47
2156.48
2149.79
2142.44
2134.49
2125.96
2116.87
2107.27
2097.16
2086.58
2075.63
2064.33
2051.81
2035.93
396.689
1.17029
0.993316
0.980537
0.970694
0.959165
0.949445
0.941261
0.93376
0.926619
0.91973
0.913015
0.906404
0.899833
0.89324
0.886563
0.879761
0.872815
0.865727
0.858514
0.851211
0.843895
2227.97
2228.16
2228.27
2228.01
2227.19
2225.67
2223.35
2220.21
2216.27
2211.58
2206.19
2200.17
2193.55
2186.38
2178.68
2170.47
2161.79
2152.65
2143.09
2133.2
2122.99
2111.62
2097.07
375.889
1.07657
0.932252
0.921605
0.912761
0.90258
0.894198
0.887329
0.88119
0.875486
0.870109
0.864953
0.859901
0.854854
0.849742
0.844507
0.839109
0.833526
0.827756
0.821816
0.815745
0.809628
2275.91
2276.07
2276.18
2275.98
2275.28
2273.95
2271.92
2269.14
2265.65
2261.48
2256.68
2251.31
2245.4
2239
2232.11
2224.77
2217
2208.83
2200.27
2191.42
2182.29
2172.07
2158.86
353.457
0.986656
0.870458
0.861491
0.853494
0.844745
0.837845
0.832464
0.827835
0.823665
0.819871
0.81635
0.81295
0.809528
0.805989
0.802274
0.798343
0.794171
0.789754
0.785114
0.780298
0.775389
2324.66
2324.8
2324.92
2324.77
2324.19
2323.05
2321.29
2318.88
2315.82
2312.15
2307.92
2303.19
2297.99
2292.33
2286.25
2279.76
2272.89
2265.66
2258.1
2250.28
2242.23
2233.18
2221.31
329.239
0.900275
0.807879
0.800132
0.792835
0.785408
0.780135
0.776426
0.773515
0.771072
0.769007
0.767224
0.765559
0.763848
0.761976
0.759871
0.757486
0.754783
0.751758
0.748447
0.744907
0.741205
2374.15
2374.29
2374.43
2374.35
2373.89
2372.95
2371.46
2369.39
2366.75
2363.57
2359.9
2355.79
2351.28
2346.36
2341.07
2335.42
2329.44
2323.15
2316.56
2309.76
2302.79
2294.94
2284.42
303.12
0.818399
0.743859
0.736831
0.730571
0.724441
0.720888
0.718993
0.717964
0.717491
0.717434
0.717623
0.717846
0.717931
0.717781
0.717342
0.716558
0.71538
0.713796
0.71185
0.709598
0.707149
2424.26
2424.45
2424.65
2424.66
2424.33
2423.58
2422.34
2420.6
2418.37
2415.67
2412.56
2409.07
2405.23
2401.03
2396.51
2391.69
2386.59
2381.22
2375.61
2369.84
)
;

boundaryField
{
    leftWall
    {
        type            fixedFluxPressure;
        gradient        uniform 0;
        value           nonuniform List<scalar> 
44
(
1259.54
1259.1
1259.49
1260.96
1263.72
1267.91
1273.61
1280.84
1289.58
1299.81
1311.57
1324.92
1339.76
1356.09
1373.86
1393.05
1413.64
1435.61
1458.94
1483.6
1509.59
1536.89
1565.48
1595.34
1626.44
1658.77
1692.31
1727.04
1762.93
1799.98
1838.15
1877.42
1917.76
1959.15
2001.57
2044.98
2089.35
2134.66
2180.88
2227.97
2275.91
2324.66
2374.15
2424.26
)
;
    }
    rightWall
    {
        type            fixedFluxPressure;
        gradient        nonuniform 0();
        value           nonuniform 0();
    }
    lowerWall
    {
        type            fixedFluxPressure;
        gradient        uniform 0;
        value           nonuniform List<scalar> 
44
(
1259.54
1260.04
1258.43
1253.85
1245.75
1233.94
1218.49
1199.53
1177.2
1151.61
1122.82
1090.82
1055.56
1016.9
974.636
928.484
878.019
822.66
761.569
693.658
617.375
530.766
434.031
328.537
216.244
114.285
51.0368
16.0218
4.86666
3.64231
3.02731
2.71575
2.57346
2.48042
2.40423
2.33944
2.28303
2.23344
2.19028
2.15349
2.12317
2.09945
2.08233
2.07159
)
;
    }
    atmosphere
    {
        type            totalPressure;
        rho             rho;
        psi             none;
        gamma           1;
        p0              nonuniform 0();
        value           nonuniform 0();
    }
    defaultFaces
    {
        type            empty;
    }
    procBoundary0to1
    {
        type            processor;
        value           nonuniform List<scalar> 
44
(
2.06671
2.06655
2.06148
2.05063
2.03386
2.01072
1.98051
1.94234
1.89505
1.83507
1.75412
1.69666
1.66279
1.63073
1.59998
1.571
1.54261
1.51421
1.48534
1.45579
1.45579
1.39246
1.36445
1.33608
1.30732
1.27824
1.24885
1.21913
1.18907
1.15865
1.12787
1.09669
1.06512
1.03317
1.00089
0.968344
0.935587
0.902683
0.869681
0.836624
0.803546
0.770477
0.737492
0.704707
)
;
    }
    procBoundary0to2
    {
        type            processor;
        value           nonuniform List<scalar> 
46
(
2363.93
2357.29
2348.22
274.997
0.736074
0.677578
0.671563
0.666125
0.661672
0.659977
0.660126
0.661237
0.66296
0.665133
0.667513
0.669809
0.671825
0.673486
0.674765
0.675622
0.676014
0.675927
0.67539
0.674513
0.673429
2475.06
2475.3
2475.52
2475.6
2475.4
2474.82
2473.82
2472.39
2470.55
2468.34
2465.79
2462.91
2459.72
2456.24
2452.48
2448.47
2444.23
2439.78
2435.15
2363.93
2430.39
)
;
    }
}


// ************************************************************************* //
