/*--------------------------------*- C++ -*----------------------------------*\
  =========                 |
  \\      /  F ield         | OpenFOAM: The Open Source CFD Toolbox
   \\    /   O peration     | Website:  https://openfoam.org
    \\  /    A nd           | Version:  7
     \\/     M anipulation  |
\*---------------------------------------------------------------------------*/
FoamFile
{
    version     2.0;
    format      ascii;
    class       surfaceScalarField;
    location    "0.35";
    object      alphaPhi0.water;
}
// * * * * * * * * * * * * * * * * * * * * * * * * * * * * * * * * * * * * * //

dimensions      [0 3 -1 0 0 0 0];

internalField   nonuniform List<scalar> 
4432
(
-5.30381e-06
5.30381e-06
-5.58267e-06
2.78864e-07
-2.42799e-06
-3.15468e-06
1.97853e-06
-4.40652e-06
6.82855e-06
-4.85001e-06
1.17178e-05
-4.88924e-06
1.64999e-05
-4.78209e-06
2.11331e-05
-4.63323e-06
2.56011e-05
-4.46796e-06
2.98813e-05
-4.28028e-06
3.39309e-05
-4.04957e-06
3.76754e-05
-3.74452e-06
4.09968e-05
-3.32142e-06
4.37061e-05
-2.70928e-06
4.54999e-05
-1.79373e-06
4.57609e-05
-2.61012e-07
4.34111e-05
2.34972e-06
3.75109e-05
5.90022e-06
2.73684e-05
1.01425e-05
1.33118e-05
1.40566e-05
-2.61959e-06
1.60582e-05
-1.22614e-05
9.56601e-06
-1.2335e-05
-3.03725e-06
8.34106e-06
-1.68974e-06
-1.06863e-06
1.59634e-06
-6.44075e-06
5.91205e-06
-8.72224e-06
1.06065e-05
-9.54448e-06
1.53748e-05
-9.65756e-06
2.00757e-05
-9.48299e-06
2.46477e-05
-9.20524e-06
2.90586e-05
-8.87878e-06
3.32756e-05
-8.49731e-06
3.725e-05
-8.02396e-06
4.09056e-05
-7.40012e-06
4.41269e-05
-6.54269e-06
4.67458e-05
-5.32827e-06
4.8525e-05
-3.57291e-06
4.92162e-05
-9.52223e-07
4.85063e-05
3.05964e-06
4.55315e-05
8.87505e-06
3.90708e-05
1.66031e-05
2.8057e-05
2.50704e-05
1.32347e-05
3.08805e-05
9.02609e-07
2.25516e-05
-1.21416e-05
-8.92622e-07
9.23368e-06
1.03854e-06
-2.99979e-06
4.4437e-06
-9.84591e-06
8.65779e-06
-1.29363e-05
1.31867e-05
-1.40734e-05
1.77844e-05
-1.42553e-05
2.23279e-05
-1.40264e-05
2.67561e-05
-1.36335e-05
3.10316e-05
-1.31543e-05
3.51167e-05
-1.25824e-05
3.89597e-05
-1.18669e-05
4.24848e-05
-1.09252e-05
4.55823e-05
-9.64018e-06
4.81e-05
-7.84602e-06
4.98326e-05
-5.30544e-06
5.0542e-05
-1.66168e-06
4.99789e-05
3.62275e-06
4.77356e-05
1.11184e-05
4.31964e-05
2.11423e-05
3.55153e-05
3.27515e-05
2.41855e-05
4.22103e-05
1.08585e-05
3.59689e-05
-1.303e-06
7.77173e-07
8.45651e-06
3.16632e-06
-5.38893e-06
6.74564e-06
-1.34252e-05
1.09201e-05
-1.71108e-05
1.53176e-05
-1.84708e-05
1.97532e-05
-1.86909e-05
2.41331e-05
-1.84064e-05
2.8406e-05
-1.79064e-05
3.25349e-05
-1.72831e-05
3.64802e-05
-1.65277e-05
4.01894e-05
-1.55762e-05
4.35888e-05
-1.43246e-05
4.65751e-05
-1.26265e-05
4.90115e-05
-1.02824e-05
5.07252e-05
-7.01909e-06
5.15182e-05
-2.45472e-06
5.11868e-05
3.95421e-06
4.94887e-05
1.28165e-05
4.60945e-05
2.45364e-05
4.04222e-05
3.84238e-05
3.15015e-05
5.1131e-05
1.81865e-05
4.92816e-05
1.67624e-05
1.84784e-06
6.60867e-06
4.82383e-06
-8.36492e-06
8.64629e-06
-1.72477e-05
1.28407e-05
-2.13052e-05
1.7142e-05
-2.27722e-05
2.14328e-05
-2.29816e-05
2.56554e-05
-2.26291e-05
2.97737e-05
-2.20247e-05
3.37552e-05
-2.12646e-05
3.75613e-05
-2.03337e-05
4.11403e-05
-1.91553e-05
4.44219e-05
-1.76062e-05
4.73108e-05
-1.55155e-05
4.9686e-05
-1.26575e-05
5.14054e-05
-8.73846e-06
5.23154e-05
-3.36477e-06
5.22679e-05
4.00167e-06
5.11113e-05
1.39732e-05
4.86414e-05
2.70063e-05
4.43852e-05
4.26799e-05
3.71718e-05
5.83445e-05
2.41246e-05
6.23288e-05
4.07662e-05
2.51593e-06
4.09275e-06
6.11022e-06
-1.19592e-05
1.02225e-05
-2.13599e-05
1.44728e-05
-2.55555e-05
1.8701e-05
-2.70003e-05
2.28603e-05
-2.7141e-05
2.69324e-05
-2.67012e-05
3.08993e-05
-2.59916e-05
3.47352e-05
-2.51006e-05
3.84042e-05
-2.40027e-05
4.18572e-05
-2.26083e-05
4.50283e-05
-2.07773e-05
4.7831e-05
-1.83182e-05
5.01601e-05
-1.49867e-05
5.19027e-05
-1.04811e-05
5.29498e-05
-4.41187e-06
5.32102e-05
3.7413e-06
5.26037e-05
1.45797e-05
5.10086e-05
2.86014e-05
4.80174e-05
4.56711e-05
4.23683e-05
6.39937e-05
2.98841e-05
7.48129e-05
7.05306e-05
2.99171e-06
1.10103e-06
7.14944e-06
-1.61169e-05
1.15501e-05
-2.57606e-05
1.58632e-05
-2.98685e-05
2.00241e-05
-3.11612e-05
2.40561e-05
-3.1173e-05
2.79803e-05
-3.06254e-05
3.1797e-05
-2.98082e-05
3.5488e-05
-2.87916e-05
3.9021e-05
-2.75357e-05
4.23504e-05
-2.59377e-05
4.5416e-05
-2.38428e-05
4.81401e-05
-2.10423e-05
5.0433e-05
-1.72795e-05
5.2209e-05
-1.22571e-05
5.34026e-05
-5.60542e-06
5.39798e-05
3.16411e-06
5.39324e-05
1.4627e-05
5.32295e-05
2.93043e-05
5.15795e-05
4.7321e-05
4.78534e-05
6.77198e-05
3.66509e-05
8.60154e-05
0.000107071
3.39967e-06
-2.29864e-06
8.0507e-06
-2.0768e-05
1.27053e-05
-3.04152e-05
1.70617e-05
-3.42249e-05
2.1144e-05
-3.52435e-05
2.50434e-05
-3.50724e-05
2.88175e-05
-3.43995e-05
3.2483e-05
-3.34736e-05
3.60287e-05
-3.23373e-05
3.94256e-05
-3.09326e-05
4.26324e-05
-2.91445e-05
4.55952e-05
-2.68056e-05
4.82454e-05
-2.36925e-05
5.0507e-05
-1.95411e-05
5.23195e-05
-1.40696e-05
5.36584e-05
-6.94438e-06
5.45465e-05
2.27602e-06
5.5053e-05
1.41205e-05
5.52657e-05
2.90917e-05
5.51215e-05
4.74652e-05
5.39043e-05
6.8937e-05
4.52431e-05
9.46766e-05
0.00015221
-2.31605e-24
5.25541e-24
-5.7345e-24
7.78292e-24
-4.63229e-23
3.31353e-24
-1.54227e-22
3.30832e-24
-1.07219e-21
-1.75671e-22
-3.23573e-21
-1.27883e-21
-1.4124e-21
-1.36907e-20
-1.2509e-22
-7.00794e-21
2.77816e-23
-1.02636e-21
5.62022e-24
-5.32222e-23
8.3836e-25
-3.28805e-24
6.47121e-26
-2.96331e-25
1.19222e-27
-9.18662e-27
1.28298e-29
1.42152e-29
4.02214e-31
8.98826e-31
7.30168e-33
4.12696e-32
9.59774e-35
1.14408e-33
2.71183e-35
1.68491e-35
2.91051e-37
-2.95126e-23
1.76942e-22
-8.1329e-23
1.60951e-22
-1.05539e-21
3.39726e-22
-2.58961e-20
1.29853e-21
-1.13685e-19
-3.38107e-20
-1.32358e-19
-2.27782e-19
-7.51507e-20
-3.18495e-19
-1.0794e-20
-2.19793e-19
1.64571e-21
-5.7675e-20
4.48956e-22
-7.15034e-21
5.9107e-23
-4.76078e-22
5.37202e-24
-2.34136e-23
1.12433e-25
-1.06256e-24
9.33404e-28
2.93011e-27
3.21824e-29
2.41189e-28
5.73517e-31
1.15778e-29
6.75494e-33
3.35956e-31
6.51272e-35
5.53905e-33
3.85909e-35
-1.37016e-21
5.66121e-21
-3.62925e-21
8.49804e-21
-7.52062e-20
3.02821e-20
-1.51506e-18
6.47665e-20
-4.52711e-18
-2.47606e-18
-4.73016e-18
-6.24704e-18
-2.76671e-18
-9.69621e-18
-4.20842e-19
-8.90171e-18
6.07682e-20
-3.17707e-18
1.91593e-20
-4.42605e-19
2.37832e-21
-3.02192e-20
2.5061e-22
-1.3327e-21
6.3272e-24
-6.30789e-23
3.92768e-26
1.47688e-25
1.23301e-27
1.45038e-26
2.60592e-29
6.93816e-28
3.98535e-31
2.03163e-29
3.75855e-33
3.5258e-31
2.77462e-33
-2.44451e-20
1.10763e-19
-1.4039e-19
3.25248e-19
-2.80722e-18
1.45836e-18
-4.08934e-17
1.17665e-18
-1.1779e-16
-8.3001e-17
-9.29198e-17
-5.11791e-17
-5.5977e-17
-3.13745e-17
-8.67655e-18
-9.424e-17
1.78855e-18
-6.00682e-17
6.2936e-19
-1.3882e-17
7.07475e-20
-1.33952e-18
8.3102e-21
-4.89732e-20
2.59718e-22
-2.49967e-21
1.29586e-24
5.28648e-24
4.15161e-26
6.08208e-25
1.08156e-27
2.95982e-26
1.77664e-29
8.93734e-28
1.82231e-31
1.62117e-29
1.39284e-31
-2.44061e-19
9.52866e-19
-6.56213e-18
7.76846e-18
-8.85242e-17
5.47507e-17
-4.64568e-16
-3.70679e-18
-2.76054e-15
1.20928e-15
-1.86268e-15
-1.50073e-15
-9.24106e-16
-1.91889e-15
-1.09201e-16
-1.90056e-15
3.60601e-17
-5.35769e-16
1.48727e-17
-1.35004e-16
1.70206e-18
-2.79916e-17
2.1548e-19
-1.29304e-18
8.51803e-21
-7.42263e-20
3.78006e-23
1.61117e-22
1.41724e-24
2.1051e-23
3.9086e-26
1.06735e-24
6.81246e-28
3.34048e-26
7.33554e-30
6.3488e-28
5.8471e-30
-4.57465e-19
2.20659e-18
-1.68152e-17
1.87779e-17
-9.23205e-16
1.93725e-16
-2.65588e-15
-2.36188e-16
-4.86713e-14
4.48101e-14
-2.82929e-14
-2.93892e-14
-1.22894e-14
-2.8175e-14
-8.6983e-16
-2.41765e-14
9.67102e-16
-7.14593e-15
2.31585e-16
-7.51185e-16
3.13753e-17
-4.83235e-17
4.63107e-18
-2.60332e-17
2.33576e-19
-1.70916e-18
1.04611e-21
4.66077e-21
4.51432e-23
6.60005e-22
1.32691e-24
3.5299e-23
2.45668e-26
1.15929e-24
2.73234e-28
2.32156e-26
2.27179e-28
-1.76043e-18
4.71904e-18
-7.08194e-17
8.70894e-17
-5.09348e-16
3.12733e-16
-2.76383e-14
2.06521e-15
-6.20241e-13
8.4064e-13
-3.13131e-13
-4.8773e-13
-1.1652e-13
-4.5015e-13
1.03917e-14
-3.3907e-13
1.94156e-14
-7.74789e-14
5.20712e-15
-3.44926e-15
4.87316e-16
1.08778e-15
7.90263e-17
-1.8619e-16
5.44881e-18
-3.49346e-17
2.96887e-20
1.32909e-19
1.39405e-21
1.95878e-20
4.39244e-23
1.11597e-21
8.69802e-25
3.89647e-23
1.00021e-26
8.29644e-25
8.62979e-27
5.46009e-19
6.78505e-18
-7.02775e-18
1.2194e-15
-3.70986e-17
-2.13351e-16
-1.10508e-12
1.1182e-12
-4.48131e-12
7.55453e-12
-1.63244e-12
-4.08863e-12
-1.7808e-13
-4.94585e-12
7.52257e-13
-3.60692e-12
4.13048e-13
-6.17462e-13
1.13497e-13
6.51032e-14
1.77379e-14
5.2774e-14
1.91692e-15
7.12246e-15
1.0418e-16
2.94725e-16
8.61605e-19
3.59559e-18
4.36793e-20
5.79745e-19
1.49266e-21
3.54787e-20
3.19931e-23
1.33709e-21
3.82641e-25
3.06835e-23
3.41735e-25
8.52771e-06
-1.08263e-05
1.99744e-05
-3.22146e-05
3.05314e-05
-4.09719e-05
3.97642e-05
-4.34573e-05
4.80929e-05
-4.35719e-05
5.59125e-05
-4.28918e-05
6.34376e-05
-4.19243e-05
7.0741e-05
-4.07769e-05
7.78132e-05
-3.94093e-05
8.46012e-05
-3.77205e-05
9.10309e-05
-3.55742e-05
9.70113e-05
-3.2786e-05
0.000102425
-2.91065e-05
0.000107148
-2.42636e-05
0.000111124
-1.80456e-05
0.000114427
-1.02477e-05
0.000117278
-5.74972e-07
0.000120075
1.13236e-05
0.000123447
2.57197e-05
0.000128273
4.26395e-05
0.000135526
6.16842e-05
0.000148288
8.19138e-05
0.000107906
0.000192237
1.0837e-05
-2.16633e-05
2.43131e-05
-4.56886e-05
3.52092e-05
-5.18644e-05
4.3821e-05
-5.20653e-05
5.12962e-05
-5.10437e-05
5.83077e-05
-4.99002e-05
6.51165e-05
-4.87304e-05
7.17802e-05
-4.74383e-05
7.82718e-05
-4.58989e-05
8.45314e-05
-4.39784e-05
9.04979e-05
-4.15394e-05
9.61146e-05
-3.84019e-05
0.000101298
-3.42897e-05
0.000105945
-2.89107e-05
0.000110069
-2.21691e-05
0.000113867
-1.40461e-05
0.000117701
-4.40882e-06
0.000122143
6.88189e-06
0.000128003
1.98597e-05
0.000136534
3.41085e-05
0.000149564
4.86541e-05
0.000169201
6.22767e-05
7.6983e-05
0.000200124
1.43457e-05
-3.60004e-05
3.00257e-05
-6.13161e-05
3.95773e-05
-6.13445e-05
4.64149e-05
-5.88344e-05
5.25761e-05
-5.71422e-05
5.86742e-05
-5.59419e-05
6.47708e-05
-5.47766e-05
7.08144e-05
-5.34372e-05
7.67313e-05
-5.17769e-05
8.24424e-05
-4.96572e-05
8.79042e-05
-4.6975e-05
9.31338e-05
-4.36114e-05
9.80901e-05
-3.92342e-05
0.000102653
-3.34688e-05
0.000106971
-2.64823e-05
0.000111363
-1.84367e-05
0.000116083
-9.12862e-06
0.000121453
1.47157e-06
0.000128288
1.30247e-05
0.000137475
2.49214e-05
0.00014991
3.62198e-05
0.000165722
4.64644e-05
5.52709e-05
0.000187434
2.05596e-05
-4.11582e-05
2.89264e-05
-3.85502e-05
3.16864e-05
-2.32531e-05
3.56515e-05
-2.23697e-05
4.06502e-05
-2.32072e-05
4.57951e-05
-2.43163e-05
5.06138e-05
-2.48001e-05
5.5077e-05
-2.46193e-05
5.92539e-05
-2.38547e-05
6.28308e-05
-2.24727e-05
6.62317e-05
-2.06845e-05
6.97819e-05
-1.89762e-05
7.32128e-05
-1.70823e-05
7.57443e-05
-1.41735e-05
7.95929e-05
-1.10662e-05
8.79963e-05
-8.74927e-06
0.000100202
-6.35289e-06
0.000113782
-2.58535e-06
0.000124598
4.30032e-06
0.000135084
1.44348e-05
0.000147067
2.42354e-05
0.000161052
3.24791e-05
3.89227e-05
0.000177401
9.93113e-06
3.21729e-13
3.3592e-06
2.32281e-13
2.48003e-06
2.15321e-13
2.96604e-06
2.72506e-13
3.95675e-06
2.23446e-11
4.9626e-06
1.2437e-10
5.72042e-06
6.57415e-11
6.2211e-06
2.14248e-11
6.59566e-06
5.5544e-12
6.543e-06
1.28062e-12
6.51078e-06
2.87641e-13
6.69381e-06
7.07075e-14
6.8439e-06
2.12356e-14
6.22773e-06
7.66952e-15
6.43057e-06
2.87003e-15
9.64213e-06
9.36919e-16
1.7748e-05
2.14219e-16
3.53823e-05
8.01426e-18
6.809e-05
-1.71388e-14
0.000109427
8.68323e-07
0.000138821
7.82862e-06
0.000155337
1.59648e-05
2.36082e-05
0.000170652
-1.46482e-13
6.60093e-13
-1.06031e-13
5.46845e-13
-1.37023e-13
7.42099e-13
-1.88108e-13
8.96432e-13
-1.7063e-11
8.51674e-13
-1.05609e-10
6.92562e-13
-6.20192e-11
5.18399e-13
-2.23575e-11
3.68205e-13
-6.39636e-12
2.40801e-13
-1.6309e-12
1.55378e-13
-4.07239e-13
9.74849e-14
-1.12189e-13
5.8122e-14
-3.84455e-14
3.27346e-14
-1.6508e-14
1.7339e-14
-7.71743e-15
8.25612e-15
-3.30986e-15
3.29666e-15
-1.08894e-15
9.08134e-16
-7.11654e-17
-4.66728e-16
4.53836e-15
-2.13345e-14
2.61519e-06
-1.95442e-12
1.67412e-05
1.33619e-08
4.43536e-05
1.70681e-07
2.63236e-07
7.74496e-05
4.99811e-14
5.60889e-13
-6.06172e-14
7.02069e-13
-3.05925e-13
1.15284e-12
-4.94117e-13
1.20388e-12
-5.84833e-13
1.08328e-12
-5.77313e-13
8.61607e-13
-5.08991e-13
6.34982e-13
-4.16934e-13
4.44864e-13
-3.11087e-13
2.99453e-13
-2.28521e-13
1.9413e-13
-1.6421e-13
1.20845e-13
-1.13574e-13
7.19483e-14
-7.53022e-14
4.09435e-14
-4.78656e-14
2.22725e-14
-2.80741e-14
1.10155e-14
-1.42057e-14
4.68173e-15
-5.08795e-15
1.2901e-15
8.73443e-15
-1.42891e-14
2.77856e-13
-2.86552e-13
4.188e-13
-1.90228e-12
1.34009e-08
-3.83123e-11
1.84105e-07
-2.26527e-11
5.21779e-13
4.4734e-07
1.09049e-13
2.73192e-13
-3.03799e-14
5.2474e-13
-3.3957e-13
9.15667e-13
-5.70692e-13
9.24647e-13
-6.63665e-13
8.04674e-13
-6.51375e-13
6.32899e-13
-5.75942e-13
4.64861e-13
-4.73697e-13
3.25378e-13
-3.6943e-13
2.19104e-13
-2.76231e-13
1.41995e-13
-1.99019e-13
8.79742e-14
-1.38456e-13
5.1732e-14
-9.32254e-14
2.874e-14
-6.09459e-14
1.5268e-14
-3.69753e-14
7.1743e-15
-1.97756e-14
2.98754e-15
-7.07541e-15
8.42829e-16
1.07316e-12
-1.09741e-12
3.16569e-11
-7.3113e-12
5.61104e-11
-8.54497e-12
1.49423e-11
-1.26409e-11
5.53557e-12
-1.3028e-11
-1.02112e-11
-2.12214e-11
-1.21665e-16
1.0053e-13
-5.0417e-14
2.29738e-13
-2.31256e-13
4.18048e-13
-3.68187e-13
4.35683e-13
-4.24575e-13
3.80468e-13
-4.16571e-13
3.0002e-13
-3.69781e-13
2.20911e-13
-3.06188e-13
1.54728e-13
-2.4061e-13
1.0368e-13
-1.8081e-13
6.57769e-14
-1.29918e-13
3.84746e-14
-8.90958e-14
2.0094e-14
-5.82527e-14
8.62976e-15
-3.68775e-14
3.02383e-15
-2.10045e-14
-3.46018e-16
-1.08452e-14
-5.83089e-16
-3.91185e-15
-1.60453e-16
4.41266e-11
-5.23455e-12
1.52863e-10
-2.07922e-11
1.70749e-10
-2.23187e-11
1.8044e-10
-1.90391e-11
1.87667e-10
-1.61433e-11
-1.12194e-11
9.69576e-11
-3.90682e-15
2.67294e-14
-2.68395e-14
6.22814e-14
-9.23819e-14
1.16107e-13
-1.4415e-13
1.27795e-13
-1.67408e-13
1.15985e-13
-1.65755e-13
9.40804e-14
-1.48304e-13
7.05951e-14
-1.23515e-13
4.97151e-14
-9.70195e-14
3.24701e-14
-7.15717e-14
1.84761e-14
-4.85515e-14
7.59371e-15
-2.9465e-14
7.5595e-17
-1.47864e-14
-4.2576e-15
-6.10808e-15
-5.05981e-15
1.14857e-15
-8.34779e-15
2.57741e-15
-4.75651e-15
4.18106e-15
-1.76409e-15
9.16832e-11
-1.36713e-12
1.74861e-10
-2.33546e-11
1.77841e-10
-1.6471e-11
1.73628e-10
-1.07145e-11
1.65658e-10
-5.15071e-12
-2.09609e-12
5.27191e-11
-1.2823e-15
5.16096e-15
-6.73351e-15
1.01964e-14
-2.14707e-14
1.90579e-14
-3.43956e-14
2.45711e-14
-4.14794e-14
2.56551e-14
-4.24313e-14
2.27278e-14
-3.8868e-14
1.7784e-14
-3.26872e-14
1.2348e-14
-2.51143e-14
6.92534e-15
-1.66523e-14
1.79872e-15
-7.93701e-15
-2.41273e-15
-9.1553e-17
-7.37859e-15
7.25163e-15
-7.70094e-15
9.96974e-15
-7.4657e-15
2.22351e-14
-1.8181e-14
1.93615e-14
-1.85312e-14
2.74548e-14
-1.0099e-14
6.17425e-12
-1.72236e-14
2.63091e-11
-1.12415e-14
2.66447e-11
-8.71232e-15
8.86098e-12
-9.11904e-15
2.50841e-12
-9.50904e-15
-9.72353e-15
4.49047e-13
-2.51607e-16
1.2183e-15
-9.30821e-16
1.63418e-15
-2.83121e-15
2.77633e-15
-5.2478e-15
5.28549e-15
-7.28885e-15
6.82286e-15
-8.18044e-15
6.42994e-15
-7.8515e-15
4.90187e-15
-6.53818e-15
2.9124e-15
-4.32881e-15
6.2145e-16
-1.31316e-15
-1.38674e-15
3.90713e-15
-4.25328e-15
7.76904e-15
-5.85431e-15
8.96081e-15
-6.14075e-15
1.01998e-14
-6.3667e-15
2.76496e-14
-7.97643e-15
3.32125e-14
-5.54069e-15
2.08317e-14
-6.6039e-15
1.09153e-14
-5.86638e-15
1.00834e-14
-7.11645e-15
1.12321e-14
-6.57083e-15
1.28375e-14
-7.36174e-15
1.45717e-14
-7.89834e-15
-7.96961e-15
1.74099e-14
-5.17872e-17
4.8228e-16
-1.18351e-16
6.65861e-16
-3.20138e-16
1.11191e-15
-8.74313e-16
2.11075e-15
-1.50785e-15
2.59767e-15
-1.81078e-15
2.21456e-15
-1.70278e-15
1.44013e-15
-1.21936e-15
5.34529e-16
-3.08419e-16
-5.56368e-16
9.35387e-16
-1.50644e-15
2.89201e-15
-1.41913e-15
3.16961e-15
-1.36739e-15
4.22367e-15
-1.35014e-15
4.93682e-15
-1.88269e-15
6.83855e-15
-3.52929e-15
7.85369e-15
-4.71428e-15
7.95978e-15
-4.87969e-15
7.55423e-15
-4.55609e-15
8.22687e-15
-4.46478e-15
1.01001e-14
-4.93573e-15
1.51177e-14
-5.62835e-15
2.51229e-14
-6.84216e-15
-6.95042e-15
3.32172e-14
-1.6213e-17
1.64283e-16
-3.64437e-17
2.35384e-16
-9.65016e-17
3.99961e-16
-2.64151e-16
7.2822e-16
-4.37589e-16
8.30204e-16
-4.79002e-16
6.20299e-16
-3.86908e-16
3.13361e-16
-1.74149e-16
4.3922e-18
2.13924e-16
-5.7196e-16
6.88159e-16
-4.70793e-16
6.14765e-16
-4.31187e-16
4.97003e-16
-2.6162e-16
5.83151e-16
-3.04087e-16
1.22311e-15
-5.62662e-16
2.85851e-15
-1.52962e-15
3.97943e-15
-1.77497e-15
4.75874e-15
-1.62742e-15
5.69978e-15
-1.2798e-15
7.39659e-15
-1.24596e-15
9.86456e-15
-1.45375e-15
1.17086e-14
-2.15299e-15
1.3511e-14
-3.38633e-15
-7.82433e-15
2.07628e-14
-4.03585e-18
4.64711e-17
-9.32459e-18
6.86167e-17
-2.53565e-17
1.17294e-16
-6.73084e-17
1.99298e-16
-1.04401e-16
2.07224e-16
-1.01145e-16
1.32118e-16
-6.40273e-17
4.1596e-17
-1.09688e-18
-3.30113e-17
1.50683e-16
-1.71126e-16
1.63831e-16
-1.16628e-16
7.93214e-17
-8.88801e-17
7.54373e-17
-5.77513e-17
1.17761e-16
-6.75866e-17
3.08888e-16
-1.15385e-16
8.04778e-16
-2.75477e-16
9.16256e-16
-2.60769e-16
8.58256e-16
-1.71344e-16
8.10189e-16
-1.67563e-16
9.57494e-16
-2.70139e-16
1.71916e-15
-6.94751e-16
3.76595e-15
-1.79679e-15
7.97747e-15
-3.76085e-15
-1.06079e-14
2.20462e-14
-7.76861e-19
1.02827e-17
-1.88319e-18
1.54783e-17
-5.25952e-18
2.61552e-17
-1.32475e-17
4.0371e-17
-1.90113e-17
3.78088e-17
-1.59175e-17
1.99898e-17
-6.3515e-18
1.27471e-18
1.26604e-17
-3.52765e-18
2.19804e-17
-1.01311e-17
1.56686e-17
-1.66648e-17
1.45235e-17
-1.54611e-17
1.28171e-17
-9.14986e-18
1.94856e-17
-9.1695e-18
4.43564e-17
-1.39946e-17
8.96093e-17
-2.25325e-17
9.18174e-17
-2.02187e-17
7.18553e-17
-1.84695e-17
8.83179e-17
-3.21756e-17
2.57943e-16
-1.3183e-16
9.69767e-16
-5.66079e-16
2.99808e-15
-1.86332e-15
7.48886e-15
-4.29759e-15
-1.3763e-14
2.54721e-14
-1.09031e-19
1.58167e-18
-2.80716e-19
2.39404e-18
-7.9885e-19
3.90716e-18
-1.86972e-18
5.37558e-18
-2.46321e-18
4.50606e-18
-1.739e-18
1.90986e-18
-1.42667e-19
-4.03727e-19
5.27495e-19
-7.61645e-19
1.30402e-18
-1.79407e-18
1.97001e-18
-2.44977e-18
2.09453e-18
-2.12113e-18
1.50713e-18
-1.0277e-18
1.73997e-18
-8.04472e-19
3.73883e-18
-1.13029e-18
5.56406e-18
-1.2736e-18
5.60758e-18
-1.42765e-18
6.27177e-18
-2.24078e-18
2.07867e-17
-1.12953e-17
1.3336e-16
-8.46304e-17
6.97977e-16
-4.6913e-16
2.54693e-15
-1.76891e-15
6.92282e-15
-4.47701e-15
-1.69754e-14
2.56272e-14
-9.85548e-21
1.26182e-19
-2.71271e-20
1.88351e-19
-7.75138e-20
2.89651e-19
-1.66663e-19
3.56251e-19
-2.01607e-19
2.68519e-19
-1.16686e-19
8.7699e-20
3.5855e-20
-2.51767e-21
4.9344e-20
-8.39093e-20
1.59367e-19
-1.94749e-19
2.14732e-19
-2.59449e-19
1.98698e-19
-2.23588e-19
1.04155e-19
-9.23911e-20
1.16222e-19
-5.48533e-20
2.08908e-19
-7.35e-20
2.67339e-19
-1.06612e-19
3.65003e-19
-1.39628e-19
8.85551e-19
-4.57624e-19
7.6881e-18
-5.06414e-18
7.33529e-17
-5.13053e-17
4.62103e-16
-3.43043e-16
1.87145e-15
-1.403e-15
5.86928e-15
-4.67067e-15
-2.32725e-14
2.57932e-14
-4.23609e-22
1.91901e-25
-1.23938e-21
1.21954e-24
-3.4991e-21
2.83862e-24
-7.00525e-21
1.38119e-24
-7.89356e-21
-5.06694e-25
-3.63091e-21
-1.94068e-23
1.73583e-21
-8.24942e-22
5.19633e-21
-6.08648e-21
1.1969e-20
-1.42819e-20
1.63906e-20
-1.86542e-20
1.53857e-20
-1.66451e-20
5.90672e-21
-5.99447e-21
6.0911e-21
-2.82558e-21
1.12578e-20
-3.25126e-21
1.94507e-20
-4.90793e-21
3.25225e-20
-1.36486e-20
1.93438e-19
-1.44278e-19
2.96935e-18
-2.19103e-18
3.54009e-17
-2.72076e-17
2.66917e-16
-2.24368e-16
1.24612e-15
-1.13197e-15
5.35495e-15
-5.21793e-15
-3.34436e-14
2.8139e-14
-3.33937e-28
4.74569e-26
-4.22022e-27
3.10784e-25
-1.89587e-26
7.73423e-25
-1.59002e-26
5.0172e-25
4.00666e-26
-6.29002e-25
1.00259e-24
-1.83918e-23
3.41667e-23
-5.38103e-23
2.47269e-22
-2.58242e-22
6.02131e-22
-5.50762e-22
8.37527e-22
-6.84005e-22
8.53585e-22
-6.05542e-22
2.48241e-22
-2.1492e-22
2.39747e-22
-1.02046e-22
3.64955e-22
-1.07529e-22
7.82374e-22
-2.903e-22
3.61654e-21
-3.16054e-21
5.6856e-20
-5.21606e-20
1.03145e-18
-8.74133e-19
1.49769e-17
-1.34485e-17
1.42898e-16
-1.42028e-16
8.91288e-16
-1.00024e-15
5.44635e-15
-6.96861e-15
-4.31051e-14
2.76343e-14
-4.28371e-29
6.00272e-27
-4.84758e-28
4.06814e-26
-2.40717e-27
1.06578e-25
-2.93586e-27
6.66064e-26
1.67984e-26
-3.21493e-25
3.4991e-25
-3.18982e-24
9.71337e-25
-4.65326e-24
6.57143e-24
-8.69019e-24
1.51527e-23
-1.01222e-23
2.13204e-23
-7.02544e-24
2.17685e-23
-2.27527e-24
6.54472e-24
-1.69155e-24
6.53606e-24
-2.6001e-24
9.06424e-24
-5.81804e-24
5.07838e-23
-6.76259e-23
8.53737e-22
-1.25905e-21
1.70906e-20
-2.12001e-20
3.32625e-19
-3.76448e-19
5.96986e-18
-6.71292e-18
7.45385e-17
-9.14741e-17
6.8255e-16
-9.72397e-16
6.01358e-15
-9.57922e-15
-5.17653e-14
2.63196e-14
-4.18587e-30
6.86348e-48
-2.36126e-29
4.40833e-45
-9.69016e-29
-2.70291e-37
-1.37884e-28
-4.52287e-33
1.77515e-27
-1.29641e-28
1.79058e-26
-4.97265e-26
4.14099e-26
-3.74217e-25
1.06189e-25
-7.98121e-25
1.59876e-25
-9.52329e-25
1.12291e-25
-6.29527e-25
5.00139e-26
-1.18313e-25
6.26893e-26
-4.66036e-26
1.5931e-25
-7.63202e-26
6.15324e-25
-1.28596e-24
1.22266e-23
-3.04719e-23
2.8594e-22
-6.03531e-22
5.69481e-21
-1.08941e-20
1.16917e-19
-1.96146e-19
2.37418e-18
-3.60754e-18
3.83142e-17
-6.02193e-17
5.29636e-16
-9.43662e-16
5.91626e-15
-1.16755e-14
-5.81651e-14
2.39622e-14
-4.99808e-51
4.15961e-47
-7.64198e-49
2.60105e-44
-2.70204e-37
-8.65096e-41
-4.52265e-33
-5.06558e-37
5.57234e-32
-8.13155e-34
1.09603e-28
-3.72269e-30
1.6396e-27
-2.79057e-28
5.04284e-27
-1.21411e-27
8.64042e-27
-1.83868e-27
5.88498e-27
-1.90976e-27
1.05591e-27
-1.51278e-27
1.20846e-27
-1.98843e-27
4.4087e-27
-2.25803e-26
1.4231e-25
-6.32365e-25
4.35628e-24
-1.51624e-23
1.0501e-22
-3.29525e-22
2.2792e-21
-6.50716e-21
4.72709e-20
-1.18707e-19
9.69397e-19
-2.1069e-18
1.87518e-17
-3.87908e-17
3.71314e-16
-8.21512e-16
4.81849e-15
-1.19773e-14
-5.94823e-14
1.9529e-14
-3.63284e-50
2.51945e-46
-2.53585e-48
1.53536e-43
-8.5819e-41
1.65004e-43
-5.05408e-37
-1.02244e-41
-5.55227e-34
-5.77506e-37
-5.94776e-32
-1.02776e-33
-8.47024e-32
-9.32268e-31
2.18679e-30
-1.34744e-29
6.93884e-30
-4.1501e-29
1.29053e-29
-6.43401e-29
1.64657e-29
-7.97398e-29
4.35289e-29
-3.16483e-28
1.23708e-27
-9.84108e-27
4.83701e-26
-2.88374e-25
1.45295e-24
-7.52614e-24
3.92188e-23
-1.78839e-22
9.33321e-22
-3.83207e-21
1.9675e-20
-7.30142e-20
3.87699e-19
-1.27634e-18
8.0126e-18
-2.3853e-17
2.00135e-16
-5.92614e-16
3.12865e-15
-1.02857e-14
-5.37881e-14
1.29843e-14
-2.62614e-49
-1.45819e-49
-2.48089e-47
-7.92345e-51
-1.35086e-44
-1.10151e-45
-1.87227e-39
-5.91079e-42
-4.24632e-37
-5.61313e-39
-1.60177e-34
-5.8741e-36
-1.15581e-32
-7.59002e-33
-5.25094e-32
-2.82205e-31
-3.29734e-32
-1.06532e-30
9.47669e-32
-1.74207e-30
3.70596e-31
-3.25144e-30
4.70639e-30
-8.8254e-29
2.75413e-28
-3.51878e-27
1.12292e-26
-1.10499e-25
3.88625e-25
-3.1028e-24
1.16325e-23
-7.99039e-23
3.01651e-22
-1.88121e-21
6.67366e-21
-3.91951e-20
1.29538e-19
-7.24744e-19
2.62701e-18
-1.38169e-17
7.11736e-17
-3.84096e-16
1.16124e-15
-7.78634e-15
-4.41258e-14
5.26507e-15
1.70956e-52
-3.32084e-49
1.77526e-54
-4.4288e-50
-1.0698e-45
-9.29158e-48
-5.80844e-42
-2.89082e-44
-4.88946e-39
-2.092e-41
-3.36261e-36
-1.31791e-38
-3.38573e-34
-1.37242e-35
-3.13491e-33
-1.3692e-33
-5.22766e-33
-6.73546e-33
-6.15389e-33
-1.97478e-32
-1.43503e-32
-6.02348e-31
-1.77133e-31
-2.86563e-29
1.01918e-29
-1.03259e-27
8.9588e-28
-3.44834e-26
4.187e-26
-1.01961e-24
1.49108e-24
-2.78122e-23
4.35098e-23
-7.04962e-22
1.02726e-21
-1.61498e-20
1.95458e-20
-3.30798e-19
3.38674e-19
-7.22689e-18
6.65147e-18
-2.5095e-16
1.01059e-17
-5.67923e-15
-3.4114e-14
-6.35137e-16
4.09388e-52
-1.73569e-49
8.95791e-54
-4.96121e-50
-8.64775e-48
-5.91902e-49
-2.68536e-44
-2.01155e-45
-5.36328e-42
-2.22129e-42
-9.60566e-39
-2.89944e-40
-1.67589e-36
-2.28364e-38
-1.84949e-35
-1.3822e-36
-5.1326e-35
-7.223e-35
-2.83377e-34
-4.15909e-33
-1.33824e-32
-2.16994e-31
-5.48335e-31
-7.93425e-30
-1.95616e-29
-2.87173e-28
-6.29443e-28
-9.77818e-27
-1.87998e-26
-3.0073e-25
-5.53864e-25
-8.46617e-24
-1.60508e-23
-2.20752e-22
-4.10416e-22
-5.26626e-21
-9.41055e-21
-1.16874e-19
-4.64029e-19
-3.13242e-18
-4.2321e-17
-1.41701e-16
-7.44708e-16
-3.61284e-15
-2.3738e-14
-3.5511e-15
2.07667e-52
-2.26616e-50
5.31093e-55
-1.52315e-50
-9.25535e-49
-2.35205e-49
-2.2715e-45
-4.73956e-46
-3.79966e-44
-5.85946e-43
-4.70426e-42
-7.05969e-41
-4.06148e-40
-5.70881e-39
-2.61516e-38
-3.84171e-37
-1.78483e-36
-2.2352e-35
-1.41932e-34
-1.10783e-33
-6.60042e-33
-4.98503e-32
-2.68712e-31
-2.09304e-30
-1.0893e-29
-7.95679e-29
-4.08733e-28
-2.76311e-27
-1.40901e-26
-8.83944e-26
-4.56572e-25
-2.58517e-24
-1.38178e-23
-6.95788e-23
-3.51307e-22
-1.74403e-21
-8.654e-21
-4.22196e-20
-5.05839e-19
-1.25813e-18
-4.81991e-17
-6.09502e-17
-8.60031e-16
-1.79747e-15
-1.40683e-14
-4.76374e-15
1.23895e-53
-1.05233e-51
-2.85807e-54
-4.57081e-52
-1.81963e-49
-4.36441e-50
-4.002e-46
-7.20513e-47
-8.07172e-45
-7.21188e-44
-1.21947e-42
-1.03212e-41
-1.26351e-40
-9.14705e-40
-1.08312e-38
-6.67165e-38
-7.10976e-37
-4.16081e-36
-3.8818e-35
-2.27835e-34
-2.04581e-33
-1.11326e-32
-9.86415e-32
-4.90852e-31
-4.27593e-30
-1.96684e-29
-1.7138e-28
-7.18041e-28
-6.32277e-27
-2.39842e-26
-2.15896e-25
-7.44073e-25
-7.14589e-24
-2.22115e-23
-2.12732e-22
-6.37046e-22
-5.69003e-21
-1.80996e-20
-3.0514e-19
-5.98419e-19
-2.78598e-17
-2.03332e-17
-5.75866e-16
-6.80916e-16
-6.73358e-15
-4.49422e-15
4.60938e-55
-5.08124e-53
-2.03899e-55
-4.92879e-54
-3.95334e-50
-3.6703e-51
-6.51861e-47
-6.8072e-48
-1.14784e-45
-6.59179e-45
-1.93634e-43
-1.15522e-42
-2.17834e-41
-1.11998e-40
-1.93692e-39
-8.89047e-39
-1.44951e-37
-5.99194e-37
-9.43183e-36
-3.51014e-35
-5.39085e-34
-1.82824e-33
-2.77168e-32
-8.50927e-32
-1.29683e-30
-3.60423e-30
-5.51105e-29
-1.40395e-28
-2.13068e-27
-5.03561e-27
-8.01219e-26
-1.73217e-25
-3.29032e-24
-6.28767e-24
-9.6145e-23
-2.36445e-22
-3.7181e-21
-8.00758e-21
-2.54618e-19
-2.40854e-19
-1.0739e-17
-6.44054e-18
-2.91689e-16
-2.00603e-16
-2.45252e-15
-2.90863e-15
1.6551e-56
-1.31246e-54
-5.11789e-57
-2.08317e-55
-8.90894e-51
-7.18219e-52
-9.21642e-48
-6.6961e-49
-1.23713e-46
-4.97034e-46
-2.34446e-44
-8.62053e-44
-2.87544e-42
-9.09469e-42
-2.80248e-40
-7.74542e-40
-2.26112e-38
-5.48777e-38
-1.5787e-36
-3.31846e-36
-9.64555e-35
-1.83423e-34
-5.27916e-33
-9.19144e-33
-2.67084e-31
-4.5742e-31
-1.27297e-29
-2.32351e-29
-5.54613e-28
-1.17522e-27
-2.2327e-26
-5.49115e-26
-1.22287e-24
-2.3094e-24
-7.70447e-23
-8.57705e-23
-3.52391e-21
-2.7597e-21
-1.30869e-19
-7.62695e-20
-3.99188e-18
-1.82802e-18
-1.08192e-16
-4.72819e-17
-7.25194e-16
-1.33703e-15
3.74376e-58
-2.21083e-56
-9.49057e-55
7.41115e-55
-7.46716e-52
3.00349e-53
-6.32558e-49
-3.49126e-50
-9.47916e-48
-2.10074e-47
-1.86438e-45
-4.17254e-45
-2.46981e-43
-4.7784e-43
-2.57118e-41
-4.40168e-41
-2.13642e-39
-3.5489e-39
-1.57802e-37
-2.56428e-37
-1.0261e-35
-1.80821e-35
-6.42244e-34
-1.27133e-33
-3.71516e-32
-8.65605e-32
-2.44156e-30
-5.40467e-30
-2.64709e-28
-3.01685e-28
-1.92245e-26
-1.4766e-26
-1.04523e-24
-6.24964e-25
-4.60709e-23
-2.26875e-23
-1.66709e-21
-7.03318e-22
-5.0547e-20
-1.8569e-20
-1.28753e-18
-4.18977e-19
-2.94703e-17
-8.70223e-18
-1.84083e-16
-5.12539e-16
6.68028e-60
1.28607e-58
8.61264e-56
1.98722e-54
-1.90398e-52
3.70158e-52
-4.29094e-50
7.76255e-51
-4.41766e-49
-6.26109e-49
-9.45078e-47
-1.46397e-46
-1.3084e-44
-1.87288e-44
-1.49233e-42
-2.07852e-42
-1.45829e-40
-2.11283e-40
-1.32076e-38
-2.0861e-38
-1.07203e-36
-1.97296e-36
-1.47694e-34
-1.71113e-34
-2.45412e-32
-1.32885e-32
-2.28783e-30
-9.0425e-31
-1.5982e-28
-5.30979e-29
-8.96402e-27
-2.665e-27
-4.14896e-25
-1.13729e-25
-1.60435e-23
-4.1172e-24
-5.21866e-22
-1.26375e-22
-1.43734e-20
-3.2899e-21
-3.3649e-19
-7.27272e-20
-6.53835e-18
-1.414e-18
-3.24682e-17
-1.59825e-16
-8.92647e-62
-3.6566e-60
1.36927e-54
-3.96704e-59
6.01786e-53
-5.10162e-56
-6.51995e-51
-3.40996e-53
-1.44216e-50
-1.79346e-50
-3.31644e-48
-3.80374e-48
-5.38136e-46
-5.85916e-46
-7.41642e-44
-8.22672e-44
-8.48024e-42
-1.09636e-41
-2.64194e-39
-1.34353e-39
-6.24778e-37
-1.48778e-37
-8.18002e-35
-1.45445e-35
-7.95174e-33
-1.23058e-33
-6.17416e-31
-8.89e-32
-3.93455e-29
-5.44053e-30
-2.08375e-27
-2.8095e-28
-9.23473e-26
-1.2227e-26
-3.44062e-24
-4.48654e-25
-1.08155e-22
-1.38996e-23
-2.87722e-21
-3.64184e-22
-6.51752e-20
-8.08513e-21
-1.28292e-18
-1.56649e-19
-3.62875e-18
-3.32137e-17
2.78693e-63
2.32346e-63
-4.523e-59
5.56239e-60
-5.00502e-56
-1.01123e-57
-3.30684e-53
-1.08126e-54
-3.68577e-52
-2.7353e-52
-1.10122e-49
-6.62259e-50
-1.5241e-47
-1.27401e-47
-4.22162e-45
-2.25351e-45
-2.69153e-42
-3.64385e-43
-5.79844e-40
-5.28424e-41
-8.65247e-38
-6.71114e-39
-1.00276e-35
-7.31846e-37
-9.38409e-34
-6.76008e-35
-7.21301e-32
-5.24956e-33
-4.59409e-30
-3.4144e-31
-2.43806e-28
-1.85813e-29
-1.08269e-26
-8.46685e-28
-4.03822e-25
-3.23638e-26
-1.26946e-23
-1.04037e-24
-3.37402e-22
-2.8197e-23
-7.62003e-21
-6.4594e-22
-1.51254e-19
-1.28486e-20
-3.06689e-19
-3.94755e-18
-4.04989e-67
3.10395e-62
-2.13469e-60
2.84855e-59
-5.09907e-57
4.0834e-57
-1.27355e-54
1.83085e-55
-5.2675e-54
-1.82412e-54
-1.40856e-51
-5.2693e-52
-1.88651e-48
-1.30377e-49
-7.52094e-46
-2.96616e-47
-1.85127e-43
-6.01986e-45
-3.41901e-41
-1.05946e-42
-5.00831e-39
-1.58437e-40
-5.94658e-37
-1.98684e-38
-5.78957e-35
-2.07397e-36
-4.64815e-33
-1.7962e-34
-3.09065e-31
-1.28988e-32
-1.70831e-29
-7.68798e-31
-7.87812e-28
-3.81104e-29
-3.04275e-26
-1.57569e-27
-9.87757e-25
-5.45132e-26
-2.70476e-23
-1.5834e-24
-6.2761e-22
-3.87379e-23
-1.27856e-20
-8.17193e-22
-2.04617e-20
-3.51264e-19
5.8689e-62
-7.83556e-68
3.62261e-59
-6.4247e-65
2.23291e-57
-3.14341e-62
-2.82383e-56
-1.35959e-59
-6.01623e-55
-4.88521e-57
-1.89724e-52
-1.7371e-54
-6.88303e-50
-5.65095e-52
-1.98038e-47
-1.65211e-49
-4.6336e-45
-4.20176e-47
-8.89244e-43
-9.07313e-45
-1.40138e-40
-1.63677e-42
-1.81514e-38
-2.44357e-40
-1.93472e-36
-3.00492e-38
-1.69986e-34
-3.0387e-36
-1.23356e-32
-2.52767e-34
-7.41318e-31
-1.73233e-32
-3.70118e-29
-9.80635e-31
-1.54081e-27
-4.59968e-29
-5.37034e-26
-1.79422e-27
-1.5732e-24
-5.84254e-26
-3.88825e-23
-1.59474e-24