/*--------------------------------*- C++ -*----------------------------------*\
  =========                 |
  \\      /  F ield         | OpenFOAM: The Open Source CFD Toolbox
   \\    /   O peration     | Website:  https://openfoam.org
    \\  /    A nd           | Version:  7
     \\/     M anipulation  |
\*---------------------------------------------------------------------------*/
FoamFile
{
    version     2.0;
    format      ascii;
    class       volScalarField;
    location    "0.35";
    object      nut;
}
// * * * * * * * * * * * * * * * * * * * * * * * * * * * * * * * * * * * * * //

dimensions      [0 2 -1 0 0 0 0];

internalField   nonuniform List<scalar> 
2268
(
6.8742e-05
6.7696e-05
8.52472e-05
9.77842e-05
0.000107901
0.00011611
0.000123302
0.000129765
0.000135612
0.000140863
0.000145495
0.000149452
0.000152657
0.000155002
0.000156321
0.000156242
0.000155243
0.000152823
0.000148651
0.00014268
0.000134412
0.00012127
0.000104833
0.000133361
0.000460122
0.0006786
0.000842003
0.000969285
0.00107435
0.00116223
0.00123618
0.00129807
0.00134891
0.00138927
0.00141945
0.00143959
0.00144973
0.00144957
0.00143631
0.00137424
0.00127512
0.00115226
0.0010271
0.000916507
0.000818681
0.000309433
0.000143534
0.000729047
0.00114698
0.00149008
0.00178473
0.00204089
0.0022635
0.00245546
0.00261848
0.00275366
0.00286194
0.00294412
0.00300083
0.00303228
0.00303725
0.00300833
0.00290536
0.00271742
0.00244395
0.00211087
0.0017704
0.00142766
0.000372124
0.000152016
0.000880248
0.00144774
0.00194437
0.00239134
0.00279382
0.00315317
0.00346952
0.0037427
0.00397283
0.00416055
0.00430684
0.00441266
0.0044783
0.00450153
0.00447155
0.00435013
0.00411111
0.00373464
0.00323025
0.00264936
0.00197461
0.000426517
0.000160739
0.000966557
0.00164582
0.00226648
0.00284436
0.00337799
0.00386331
0.00429656
0.00467513
0.00499786
0.00526495
0.00547744
0.00563657
0.00574266
0.00579265
0.00577353
0.00564821
0.00538211
0.00494066
0.00431267
0.00351729
0.00247576
0.000465271
0.000167849
0.00102333
0.00178235
0.00250211
0.00319147
0.00384062
0.00443877
0.00497769
0.0054522
0.00585997
0.00620089
0.00647621
0.0066875
0.00683521
0.00691569
0.0069146
0.00679548
0.00651896
0.00603913
0.00532328
0.00434307
0.00293865
0.000499594
0.00017327
0.00106237
0.00187923
0.00267953
0.00346488
0.00421603
0.0049146
0.00554757
0.00610733
0.00659069
0.00699757
0.00732967
0.00758903
0.00777637
0.00788779
0.00790827
0.0078021
0.00752761
0.00702881
0.00625123
0.00511646
0.00338209
0.000533904
0.000177478
0.00108563
0.00194564
0.00281443
0.00368508
0.00452785
0.00531621
0.00603245
0.00666697
0.00721617
0.00768042
0.00806214
0.00836408
0.00858738
0.00872821
0.00877132
0.00868232
0.00842003
0.00791829
0.00710279
0.00585422
0.0038593
0.000575641
0.000291361
8.42061e-05
9.649e-05
0.000104673
0.000111041
0.00011455
0.000115255
0.000113835
0.000110568
0.000106905
0.000102264
9.67745e-05
9.07873e-05
8.49076e-05
7.95571e-05
7.39652e-05
6.90776e-05
0.000295493
0.000158283
0.000214326
0.000543732
0.000702964
0.000871811
0.000998259
0.00107168
0.00112098
0.00114834
0.00115088
0.00111905
0.001057
0.000974342
0.000879956
0.000777818
0.000677433
0.000585357
0.000496226
0.000434576
0.000144962
0.0002557
0.000990939
0.00134926
0.00164922
0.00186004
0.00200497
0.00211714
0.00219962
0.00224392
0.00223073
0.00214847
0.0020053
0.00181539
0.00159668
0.001373
0.00115763
0.000941578
0.000679083
0.000160251
0.00028703
0.00132712
0.001818
0.00215932
0.00238928
0.00256735
0.00272602
0.00286845
0.00298317
0.00303566
0.00299627
0.00286054
0.00263426
0.00233888
0.0020106
0.00167442
0.00132259
0.000887207
0.000173511
0.00031203
0.00154778
0.00209246
0.00243075
0.00265245
0.0028378
0.00302034
0.00320873
0.00339598
0.00353393
0.00358089
0.00351236
0.00331339
0.0029934
0.00259105
0.00214551
0.00166053
0.00106523
0.00018469
0.0003328
0.00165986
0.00220254
0.002541
0.00276067
0.00294049
0.00312179
0.00332735
0.0035625
0.00377715
0.00392757
0.0039663
0.00384916
0.00355856
0.00312119
0.00258551
0.00197337
0.00122436
0.000194397
0.000351754
0.00166549
0.00221297
0.00258804
0.00282569
0.00299437
0.00314932
0.00333572
0.00357256
0.00383134
0.00407456
0.00423646
0.0042403
0.0040289
0.00360142
0.00300356
0.00227446
0.00137427
0.000203229
0.000375235
0.00154799
0.002208
0.0026437
0.00291947
0.00308373
0.00319482
0.00332965
0.00351737
0.00377178
0.00407089
0.00434531
0.00448937
0.00439702
0.0040258
0.0034024
0.00257327
0.00152325
0.000211751
0.000181663
0.00109475
0.0019977
0.00295163
0.00393568
0.00490304
0.005814
0.00664359
0.00737947
0.008018
0.0085608
0.00901203
0.00937616
0.00965584
0.00984855
0.00994013
0.00989564
0.00966794
0.00918631
0.00835543
0.00703627
0.00499679
0.00178137
0.000186247
0.00104542
0.00197769
0.0030434
0.0041786
0.00530009
0.00634981
0.00729767
0.00813247
0.00885386
0.00946719
0.00998009
0.0103999
0.0107317
0.0109754
0.0111201
0.0111353
0.0109626
0.0105392
0.00976578
0.00851116
0.00661617
0.00398941
0.000195656
0.00093586
0.00187635
0.00307265
0.00437513
0.00564624
0.00681445
0.00785292
0.00875696
0.00953229
0.0101892
0.0107394
0.0111933
0.0115585
0.0118379
0.0120251
0.0120969
0.012005
0.0116914
0.0110713
0.0100428
0.00851525
0.00653942
0.000221419
0.000811193
0.00177041
0.00313467
0.00460956
0.00600715
0.00726217
0.00836037
0.00930619
0.0101117
0.010792
0.011362
0.0118349
0.0122208
0.0125249
0.0127451
0.012867
0.012859
0.0126702
0.0122407
0.0115027
0.0104136
0.00904615
0.00026624
0.000775868
0.00183919
0.00339302
0.00498701
0.00644937
0.00774262
0.0088646
0.00982554
0.0106415
0.0113304
0.0119095
0.0123937
0.0127942
0.013117
0.013362
0.0135218
0.0135788
0.0134995
0.013237
0.012757
0.0120543
0.0111761
0.000307716
0.00101805
0.0023503
0.00398165
0.00555568
0.00699816
0.00827816
0.0093897
0.0103426
0.0111543
0.0118436
0.0124286
0.0129248
0.0133426
0.0136851
0.0139515
0.014138
0.0142374
0.0142331
0.0140731
0.0137545
0.0133171
0.0127776
0.000334262
0.00179528
0.0033384
0.00479725
0.00622797
0.0075868
0.00881189
0.00988317
0.010807
0.0115996
0.0122795
0.012863
0.0133628
0.0137868
0.0141363
0.0144106
0.0146075
0.0147253
0.0147595
0.0146886
0.0144983
0.0142346
0.0139087
0.000333813
0.00218167
0.00395678
0.00540784
0.00680796
0.00812663
0.00930689
0.0103309
0.0112079
0.011957
0.0125988
0.0131503
0.0136235
0.0140259
0.0143611
0.0146303
0.0148348
0.0149753
0.0150445
0.0150366
0.0149458
0.0147842
0.0145689
0.000318287
0.00225486
0.00419838
0.00583747
0.00731684
0.00864027
0.00979051
0.0107695
0.0115957
0.0122932
0.0128855
0.0133915
0.0138246
0.014193
0.0145018
0.0147538
0.0149515
0.0150972
0.0151872
0.0152094
0.0151474
0.0150186
0.0148572
0.000314985
0.00219652
0.00432976
0.00616411
0.00773772
0.00907862
0.010206
0.0111444
0.0119231
0.0125717
0.0131162
0.0135771
0.0139691
0.0143011
0.0145782
0.0148034
0.0149783
0.0151037
0.0151765
0.0151851
0.0151167
0.0149838
0.0148258
0.000315295
0.00216991
0.00444935
0.00643379
0.00808035
0.00943214
0.0105361
0.011436
0.0121711
0.0127755
0.0132771
0.0136972
0.0140506
0.014346
0.0145876
0.0147766
0.0149124
0.0149935
0.0150159
0.0149714
0.0148542
0.0146783
0.014484
0.000317065
0.00217934
0.00456921
0.00665479
0.00834553
0.00969621
0.010774
0.0116369
0.0123323
0.0128977
0.0133621
0.0137465
0.014065
0.0143249
0.0145284
0.0146739
0.0147582
0.0147773
0.014727
0.0146035
0.0144087
0.0141615
0.013904
0.000318788
0.0022178
0.00468609
0.00682803
0.00853584
0.00987386
0.0109228
0.0117506
0.0124104
0.0129419
0.0133744
0.0137284
0.0140163
0.0142431
0.0144083
0.0145072
0.0145335
0.0144815
0.0143478
0.0141332
0.0138471
0.0135147
0.0131808
0.000319662
0.00226926
0.00478951
0.0069539
0.00865818
0.00997508
0.010994
0.0117893
0.0124175
0.0129199
0.0133259
0.0136547
0.0139167
0.0141147
0.0142446
0.0142984
0.0142671
0.0141436
0.0139259
0.0136194
0.0132403
0.0128201
0.0124068
0.000319324
0.00231931
0.00486966
0.0070342
0.00872187
0.0100129
0.0110023
0.0117682
0.0123691
0.0128473
0.0132318
0.0135407
0.0137827
0.0139577
0.0140586
0.0140739
0.0139919
0.0138045
0.0135108
0.0131206
0.0126562
0.0121546
0.0116671
0.00031767
0.00235775
0.00492073
0.00707221
0.0087364
0.0100002
0.0109619
0.011702
0.01228
0.0127385
0.0131064
0.0134009
0.0136293
0.0137889
0.0138698
0.0138572
0.0137366
0.0134986
0.0131435
0.0126845
0.0121493
0.0115802
0.0110317
0.000314746
0.00237911
0.00494107
0.00707204
0.00871
0.00994724
0.0108843
0.0116024
0.0121616
0.0126046
0.0129603
0.0132457
0.0134667
0.0136193
0.0136906
0.013663
0.0135188
0.013247
0.0128482
0.0123386
0.0117509
0.0111329
0.0105424
0.000310676
0.00238216
0.00493212
0.00703801
0.00864911
0.00986191
0.0107778
0.0114779
0.0120221
0.0124533
0.0128005
0.0130809
0.0133003
0.0134535
0.0135256
0.0134959
0.0133437
0.0130555
0.0126312
0.0120893
0.0114678
0.0108207
0.0102093
0.000305631
0.00236855
0.00489695
0.00697408
0.00855858
0.00974959
0.010648
0.011334
0.0118667
0.012289
0.0126307
0.0129094
0.0131315
0.0132914
0.013373
0.0133529
0.013207
0.0129183
0.0124853
0.0119282
0.0112905
0.010633
0.0100205
0.000299819
0.00234124
0.00483898
0.00688375
0.00844212
0.00961415
0.0104988
0.0111743
0.0116987
0.012115
0.0124532
0.0127324
0.0129598
0.0131308
0.0132285
0.0132275
0.0131
0.0128248
0.0123982
0.0118414
0.0112035
0.0105521
0.00995488
0.000293485
0.00230319
0.00476121
0.00677006
0.00830288
0.0094587
0.0103332
0.0110016
0.0115208
0.0119332
0.0122698
0.0125507
0.012785
0.0129693
0.0130875
0.0131125
0.0130132
0.012764
0.0123577
0.0118158
0.0111921
0.0105607
0.00999107
0.000286898
0.00225613
0.004666
0.00663581
0.00814393
0.0092862
0.0101537
0.0108183
0.011335
0.0117457
0.0120819
0.0123653
0.012607
0.0128057
0.0129466
0.0130025
0.0129393
0.0127269
0.012354
0.0118408
0.0112444
0.0106442
0.0101107
0.000280344
0.00220208
0.00455594
0.0064842
0.00796862
0.00909977
0.0099631
0.0106266
0.0111432
0.011554
0.011891
0.0121774
0.0124264
0.0126394
0.012804
0.0128936
0.0128726
0.0127067
0.0123794
0.0119079
0.0113505
0.01079
0.0102982
0.000274109
0.00214311
0.00443433
0.00631917
0.00778084
0.00890293
0.0097644
0.010429
0.0109472
0.0113596
0.0116984
0.0119879
0.0122438
0.0124704
0.0126584
0.0127832
0.012809
0.0126978
0.0124274
0.0120098
0.0115011
0.0109868
0.0105402
0.00026847
0.00208166
0.00430534
0.00614563
0.00758547
0.00869998
0.00956105
0.010228
0.010749
0.0111638
0.0115048
0.0117975
0.0120596
0.0122987
0.0125089
0.0126692
0.0127446
0.0126949
0.0124914
0.0121384
0.0116872
0.0112236
0.0108242
0.000263684
0.00202045
0.00417408
0.00596959
0.00738833
0.00849586
0.00935687
0.0100263
0.0105503
0.0109676
0.0113108
0.0116062
0.0118737
0.0121237
0.0123545
0.0125493
0.0126756
0.012692
0.0125637
0.0122851
0.0118991
0.0114896
0.0111384
0.000259987
0.0019623
0.00404615
0.00579796
0.00719604
0.0082963
0.00915645
0.00982738
0.0103532
0.0107721
0.0111166
0.011414
0.0116856
0.0119446
0.0121937
0.0124208
0.0125974
0.0126826
0.0126358
0.0124403
0.0121265
0.0117738
0.0114724
0.0002576
0.00190982
0.00392729
0.00563806
0.00701599
0.00810786
0.00896493
0.0096348
0.0101601
0.0105786
0.0109228
0.0112205
0.0114944
0.0117604
0.0120248
0.012281
0.0125056
0.0126603
0.0127008
0.0125988
0.0123691
0.01208
0.0118251
0.000256733
0.00186507
0.00382296
0.00549732
0.00685616
0.00793769
0.00878807
0.00945276
0.00997372
0.0103884
0.0107296
0.0110255
0.0112996
0.0115697
0.011846
0.012127
0.0123959
0.0126187
0.0127502
0.0127518
0.0126189
0.0124021
0.0121914
0.000257592
0.00182943
0.00373819
0.00538304
0.00672461
0.00779322
0.00863199
0.00928586
0.00979714
0.0102036
0.0105382
0.0108292
0.0111006
0.0113717
0.0116557
0.011956
0.0122627
0.0125485
0.0127706
0.0128826
0.0128601
0.012729
0.0125666
0.000260371
0.0018039
0.00367723
0.00530225
0.00662907
0.00768169
0.00850273
0.00913879
0.00963382
0.0100265
0.01035
0.0106325
0.0108979
0.0111663
0.0114531
0.0117661
0.012102
0.0124417
0.0127481
0.0129721
0.0130723
0.0130455
0.0129446
0.000265247
0.00178941
0.00364384
0.00526126
0.00657659
0.00760963
0.00840578
0.00901589
0.00948712
0.00985971
0.010167
0.0104367
0.0106923
0.010954
0.0112383
0.0115567
0.0119116
0.0122926
0.0126713
0.0130015
0.0132313
0.0133289
0.0133132
0.000272357
0.00178696
0.0036423
0.00526591
0.00657318
0.00758224
0.00834532
0.00892057
0.00935991
0.00970563
0.00999125
0.0102437
0.0104855
0.0107362
0.0110127
0.0113287
0.0116916
0.0120989
0.0125324
0.0129545
0.0133109
0.0135486
0.0136478
0.00028176
0.00179838
0.00367715
0.00532184
0.00662369
0.00760296
0.00832371
0.00885474
0.0092541
0.00956639
0.00982503
0.0100557
0.0102795
0.0105148
0.0107781
0.0110842
0.011444
0.0118616
0.012329
0.0128201
0.0132874
0.0136683
0.0139094
0.000293414
0.00182671
0.00375419
0.005435
0.00673178
0.00767298
0.00834095
0.00881836
0.0091703
0.00944338
0.00967038
0.00987527
0.0100771
0.0102926
0.0105374
0.0108264
0.0111726
0.0115847
0.0120634
0.0125953
0.0131453
0.0136542
0.0140488
0.000307173
0.00187644
0.0038815
0.00561235
0.00689985
0.00779094
0.00839427
0.00880921
0.00910765
0.00933718
0.00952901
0.00970478
0.0098812
0.0100729
0.0102942
0.0105594
0.0108821
0.0112743
0.0117428
0.0122849
0.0128806
0.0134838
0.0140197
0.000322878
0.00195245
0.00407121
0.00586274
0.00712875
0.00795236
0.008478
0.00882291
0.00906388
0.00924755
0.00940232
0.00954682
0.00969512
0.00985963
0.0100528
0.0102879
0.0105785
0.0109378
0.0113766
0.0119
0.0125013
0.0131522
0.0137915
0.000340348
0.0020657
0.00434338
0.00619789
0.00741689
0.00814891
0.00858343
0.00885315
0.00903561
0.00917361
0.00929134
0.00940387
0.00952238
0.00965694
0.00981807
0.0100174
0.0102679
0.0105829
0.010975
0.0114541
0.0120231
0.0126702
0.013356
0.00035955
0.00223767
0.00473303
0.00663264
0.007758
0.00836751
0.00869912
0.00889243
0.00901892
0.0091142
0.00919698
0.0092784
0.00936673
0.00946965
0.00959561
0.00975444
0.00995759
0.0102178
0.010548
0.0109602
0.011463
0.0120569
0.0127237
0.00038079
0.00251541
0.00530491
0.00718226
0.00813674
0.00858938
0.00881184
0.00893312
0.00901012
0.00906833
0.00912023
0.00917305
0.00923229
0.00930332
0.00939236
0.00950707
0.00965683
0.00985265
0.0101066
0.0104307
0.0108361
0.0113303
0.0119111
0.000405092
0.00302841
0.00618475
0.00784957
0.00852124
0.00879022
0.00890833
0.00896874
0.00900635
0.00903524
0.00906194
0.00909023
0.00912312
0.00916379
0.00921612
0.00928516
0.00937741
0.00950095
0.00966518
0.00988013
0.0101558
0.0105017
0.0109249
0.000434952
0.00433226
0.00760514
0.00858355
0.00885604
0.00894414
0.00897862
0.0089954
0.00900584
0.00901411
0.0090221
0.00903094
0.00904162
0.00905526
0.00907331
0.00909773
0.00913122
0.0091773
0.00924032
0.0093252
0.00943679
0.00957962
0.00975883
0.00065734
0.000618574
0.000573747
0.000525936
0.00260752
0.00212852
0.00189321
0.0017823
0.0053746
0.00465754
0.00413914
0.00376725
0.00814409
0.00747892
0.00688932
0.00637396
0.0105196
0.00999364
0.00946653
0.00894425
0.0123315
0.0119494
0.0115295
0.0110757
0.0136172
0.0133413
0.0130045
0.0126217
0.0143827
0.0141991
0.0139565
0.0136372
0.0147223
0.0145688
0.0143723
0.0141304
0.0147127
0.0145853
0.0144254
0.0142245
0.0143574
0.0142269
0.0140744
0.0138911
0.0137419
0.0135877
0.0134177
0.0132243
0.012971
0.0127811
0.0125782
0.0123552
0.0121445
0.0119143
0.0116715
0.0114091
0.0113535
0.0110843
0.0108024
0.0105009
0.0106746
0.0103742
0.0100623
0.00973277
0.0101551
0.00983683
0.00951092
0.0091719
0.00980728
0.00948643
0.00916384
0.00883425
0.00961759
0.0093078
0.0090027
0.00869577
0.00956169
0.00927312
0.00899468
0.00871709
0.00961471
0.00935396
0.00910693
0.00886081
0.00975525
0.00952596
0.00931185
0.00909683
0.00996557
0.00976909
0.00958706
0.00940123
0.0102308
0.0100668
0.00991437
0.00975485
0.010538
0.0104047
0.0102786
0.010142
0.0108759
0.0107701
0.0106664
0.0105488
0.011235
0.0111516
0.0110684
0.0109665
0.0116087
0.0115438
0.0114794
0.0113954
0.0119901
0.0119383
0.0118885
0.0118219
0.0123762
0.0123311
0.0122896
0.0122361
0.0127677
0.0127244
0.0126844
0.012638
0.0131635
0.0131227
0.0130815
0.0130374
0.0135523
0.0135238
0.0134869
0.0134468
0.0139034
0.0139061
0.0138892
0.0138647
0.0141653
0.0142224
0.0142487
0.0142604
0.0142758
0.0144068
0.0144998
0.0145714
0.0141788
0.0143912
0.0145659
0.0147164
0.0138388
0.0141222
0.0143778
0.014614
0.013244
0.0135689
0.013884
0.0141936
0.0123973
0.0127177
0.0130479
0.0133928
0.0112975
0.0115542
0.0118336
0.012144
0.00992185
0.0100381
0.0101709
0.010328
0.000680742
0.00146668
0.00205907
0.00266332
0.00311933
0.00334848
0.00340067
0.00344922
0.00353304
0.00371006
0.00400059
0.00436592
0.00469238
0.00480947
0.00458641
0.00399071
0.00304668
0.00176649
0.000226229
0.00173474
0.00184321
0.00211772
0.00256761
0.00298601
0.00336538
0.00363241
0.00372902
0.00370465
0.00370117
0.00382113
0.00412059
0.00455639
0.00493121
0.00500192
0.00459647
0.00362666
0.00208598
0.000243449
0.00332462
0.00309198
0.00301335
0.00306068
0.0032082
0.0034432
0.00370991
0.00391823
0.00399724
0.00394644
0.00389369
0.00398881
0.00431432
0.00476413
0.0050884
0.00498284
0.00415948
0.00244526
0.000263625
0.00560612
0.0050098
0.00457419
0.00426098
0.0040636
0.00398399
0.00400565
0.00410234
0.00420985
0.00423172
0.00415812
0.00410358
0.004221
0.00455039
0.00495988
0.00512651
0.0045768
0.00282963
0.000287713
0.00807518
0.00725143
0.00654749
0.00593501
0.0054119
0.00499753
0.00471378
0.00456113
0.00450318
0.00449024
0.0044427
0.00435467
0.00433583
0.00448923
0.00481959
0.00511379
0.00484618
0.00320728
0.000316366
0.0102659
0.00937737
0.00854332
0.0077531
0.00700628
0.00632505
0.00574843
0.00531243
0.00502331
0.00484625
0.00472741
0.004618
0.0045464
0.0046033
0.00482095
0.00510055
0.00501019
0.00354789
0.000349473
0.011922
0.0110862
0.0102446
0.0094015
0.00855649
0.00772489
0.00694363
0.00626474
0.0057322
0.00535253
0.0050907
0.00490118
0.00477311
0.00477769
0.00494
0.00517187
0.00514613
0.00384047
0.000385864
0.013037
0.012302
0.0115148
0.0106988
0.00985411
0.00898232
0.00810138
0.00726516
0.0065371
0.00596004
0.00553426
0.00522908
0.00502695
0.00496855
0.00509202
0.00529976
0.00528972
0.00408615
0.000423221
0.0136587
0.0130582
0.0123743
0.0116162
0.0108302
0.00999382
0.00908094
0.00816775
0.00731634
0.00658706
0.00601158
0.00558589
0.00530257
0.00518378
0.00525296
0.00543463
0.00542766
0.00428196
0.000458486
0.0138192
0.0133158
0.0127552
0.0121225
0.0114409
0.0107031
0.00983004
0.00888397
0.00797055
0.00714779
0.00646255
0.00593487
0.00557876
0.00541854
0.00543371
0.00555892
0.00553565
0.00441899
0.000488794
0.0135266
0.0130969
0.0126353
0.0121322
0.0115943
0.0109956
0.0102467
0.00935012
0.00843506
0.00757838
0.00683396
0.00623968
0.00583494
0.00566051
0.00563551
0.0056733
0.0056015
0.00449133
0.000512404
0.0128559
0.0124632
0.0120862
0.0117113
0.0113252
0.0108858
0.0103178
0.00954096
0.00868268
0.00784757
0.00709429
0.00647492
0.0060535
0.00589847
0.00585236
0.00577834
0.00562513
0.00450148
0.000528964
0.011946
0.0115533
0.0112349
0.0109839
0.0107605
0.0104977
0.0101129
0.00948267
0.00872692
0.00795744
0.00723711
0.00663141
0.00622792
0.00612523
0.0060736
0.00586771
0.00560873
0.00445733
0.000538989
0.0109405
0.0105272
0.0102474
0.0101029
0.010031
0.00993908
0.00972467
0.00924932
0.00861455
0.00793479
0.00727646
0.00671684
0.00636744
0.00634993
0.00629018
0.00593063
0.00555554
0.00436965
0.000543432
0.00997571
0.00954148
0.00929144
0.00922792
0.00927815
0.00932231
0.00924833
0.00891769
0.00840154
0.00781772
0.00723826
0.0067501
0.00648929
0.00658215
0.00648802
0.00596159
0.00547418
0.00425157
0.000543511
0.00917526
0.00873692
0.00851623
0.00850878
0.00863232
0.0087533
0.00877185
0.0085498
0.00813295
0.00764393
0.00715244
0.00675404
0.00660856
0.00681719
0.00664935
0.00595753
0.00537144
0.00411401
0.00054036
0.00861811
0.00819661
0.00800701
0.00803409
0.00817858
0.00830664
0.00835284
0.00819238
0.00785154
0.00744994
0.00704871
0.00675105
0.00673402
0.00704201
0.0067493
0.00589783
0.00524351
0.00396152
0.000534665
0.00831447
0.0079185
0.00775725
0.00780801
0.00793487
0.00800798
0.00801854
0.00787799
0.00759475
0.00726956
0.00695568
0.00676408
0.0068915
0.00724866
0.00674482
0.00575754
0.00508623
0.00379606
0.000526742
0.0082243
0.00784531
0.00770229
0.00777333
0.00786767
0.00784583
0.00778107
0.00763684
0.00739297
0.00713099
0.00689724
0.00680854
0.00711119
0.00741593
0.00659126
0.00555485
0.00491252
0.00362431
0.000517
0.00829472
0.0079143
0.00777443
0.00786375
0.00793311
0.00780284
0.00764533
0.0074865
0.00726778
0.00706071
0.00689449
0.00687448
0.00726181
0.00740879
0.00635923
0.00534596
0.00474563
0.00345783
0.000506183
0.00848256
0.00808229
0.00792788
0.00803349
0.00810231
0.00786696
0.00761349
0.00740795
0.00722653
0.00708566
0.00699058
0.00699288
0.00727195
0.00723538
0.00612313
0.00516123
0.00460096
0.00330661
0.000495156
0.00875751
0.00832527
0.00813428
0.0082485
0.00834652
0.00804215
0.00768291
0.00740927
0.00723283
0.0071738
0.00717496
0.00721087
0.00737157
0.00708236
0.00591354
0.00501528
0.00448576
0.00317609
0.000484619
0.00909743
0.00863065
0.00837939
0.0084807
0.0086218
0.00830821
0.00784843
0.00748852
0.00725936
0.00719439
0.00730106
0.00749508
0.00765075
0.00710878
0.00581124
0.00492886
0.00440583
0.00306934
0.000475079
0.00948474
0.00899114
0.00866544
0.00871244
0.00889996
0.00864976
0.00809641
0.0076391
0.0073276
0.00720116
0.00729901
0.0076478
0.00792137
0.00726051
0.00582902
0.00490675
0.00436261
0.00298748
0.000466928
0.00990489
0.00939892
0.00900434
0.00895863
0.00913368
0.00901828
0.00841196
0.0078504
0.00744656
0.00724334
0.00728842
0.0076514
0.00802423
0.00740621
0.0059094
0.00493015
0.00434748
0.00292646
0.000460337
0.0103458
0.00984243
0.00939727
0.0092377
0.00933436
0.00929315
0.00874414
0.00809751
0.00760602
0.00732528
0.00730646
0.00762277
0.00804528
0.00743949
0.00597593
0.00497108
0.00434377
0.00287499
0.000455076
0.0107991
0.0103091
0.00982439
0.00955385
0.00949861
0.00946802
0.00907039
0.00836205
0.00779047
0.00743851
0.00735118
0.00756415
0.00802035
0.00739148
0.00597477
0.00500229
0.00433501
0.00281714
0.000450423
0.0112711
0.0108129
0.0102959
0.00990319
0.00971708
0.00958751
0.00928318
0.00862555
0.00798148
0.00757151
0.00742587
0.0075587
0.00799595
0.00720578
0.00586093
0.00501238
0.00431054
0.00271812
0.000445362
0.0117455
0.0113422
0.0108241
0.0103168
0.00996116
0.00968434
0.00931378
0.00879342
0.00816689
0.00771817
0.00752047
0.00758937
0.00798086
0.00688987
0.00573027
0.00501845
0.00425362
0.00255304
0.000439745
0.0122074
0.0118779
0.0113974
0.0108111
0.0102442
0.00976517
0.00933632
0.00891197
0.00838033
0.00788215
0.00762665
0.0075746
0.00767736
0.00653284
0.0057157
0.00503733
0.00416367
0.00235207
0.000433002
0.0126504
0.0124042
0.0120005
0.0114056
0.0106769
0.00996742
0.00939393
0.00895088
0.00854401
0.00806505
0.00776611
0.00752872
0.00717161
0.00636182
0.00582271
0.00507073
0.00405095
0.00214721
0.000424651
0.013081
0.0129138
0.0126088
0.0120853
0.0113289
0.0104506
0.00963176
0.00897021
0.00845116
0.00803146
0.00767498
0.00735419
0.00693581
0.00653955
0.00597228
0.00510681
0.00392862
0.00196377
0.000414367
0.0135148
0.0134142
0.0132011
0.0127823
0.0121097
0.011228
0.0102786
0.00942025
0.00874025
0.00821898
0.00781742
0.00750317
0.00722596
0.00682737
0.00608596
0.00512786
0.00380741
0.0018138
0.000402059
0.0139608
0.0139231
0.0137833
0.0134542
0.0128888
0.0121059
0.0112007
0.0103131
0.00952466
0.00889058
0.00839749
0.0080092
0.00760161
0.00698874
0.00612977
0.00512055
0.00369234
0.00169795
0.000387953
0.0144019
0.0144429
0.0143715
0.0141058
0.01361
0.0129014
0.0120534
0.0111697
0.0103239
0.00958531
0.00895157
0.00837759
0.00775269
0.00698829
0.00610944
0.00508162
0.00358246
0.0016103
0.000372619
0.0147841
0.0149382
0.0149557
0.0147506
0.0142889
0.0135896
0.0127222
0.011765
0.0108383
0.00998917
0.0092099
0.00846486
0.00770183
0.00689879
0.00605028
0.00501365
0.00347327
0.00154283
0.000356886
0.0150257
0.0153328
0.0154786
0.0153647
0.0149428
0.0142223
0.0132686
0.0121951
0.0111395
0.0101548
0.00924567
0.00839388
0.00758099
0.00679544
0.00597538
0.00491915
0.00336023
0.00148827
0.000341642
0.0150361
0.0155293
0.0158456
0.0158714
0.015532
0.0148197
0.0137887
0.0126116
0.0114194
0.0102911
0.00926156
0.00833486
0.00750063
0.00672502
0.00589729
0.00480126
0.00324177
0.00144174
0.000327621
0.0147258
0.0154258
0.0159551
0.0161714
0.0159628
0.0153001
0.0142785
0.013063
0.0117826
0.0105394
0.00940142
0.00839755
0.00751908
0.00670672
0.00582213
0.00466774
0.00312149
0.0014014
0.000315285
0.0139981
0.014898
0.0156943
0.0161774
0.0161555
0.0155884
0.0146469
0.0134757
0.0121905
0.0108973
0.00968344
0.00859865
0.00764005
0.0067382
0.00575411
0.00453
0.00300489
0.00136635
0.00030478
0.0127238
0.0137246
0.0148169
0.0157302
0.0160771
0.0156613
0.014831
0.0137529
0.0125289
0.011254
0.0100155
0.00887084
0.00782332
0.006809
0.00571004
0.00441679
0.00291229
0.00134207
0.000296147
0.0106549
0.0113628
0.0125179
0.0140034
0.0157752
0.0156224
0.0149043
0.0139078
0.0127413
0.0114938
0.0102484
0.009062
0.00794097
0.00683153
0.00564175
0.00430227
0.00282392
0.00131735
0.000288966
)
;

boundaryField
{
    leftWall
    {
        type            nutkWallFunction;
        Cmu             0.09;
        kappa           0.41;
        E               9.8;
        value           nonuniform List<scalar> 
50
(
1.27109e-05
1.55938e-05
1.67119e-05
1.76797e-05
1.86221e-05
1.93722e-05
1.99388e-05
2.03762e-05
2.08046e-05
2.12671e-05
2.20935e-05
2.42765e-05
2.84679e-05
3.36269e-05
3.74856e-05
3.86943e-05
3.67857e-05
3.60463e-05
3.60277e-05
3.62806e-05
3.65646e-05
3.67486e-05
3.67711e-05
3.66115e-05
3.62715e-05
3.57649e-05
3.51115e-05
3.43353e-05
3.34661e-05
3.25398e-05
3.15965e-05
3.06775e-05
2.98235e-05
2.90724e-05
2.84586e-05
2.8014e-05
2.77686e-05
2.77521e-05
2.7994e-05
2.85228e-05
2.93635e-05
3.05345e-05
3.20415e-05
3.3875e-05
3.60148e-05
3.84307e-05
4.11039e-05
4.40568e-05
4.74114e-05
5.14954e-05
)
;
    }
    rightWall
    {
        type            nutkWallFunction;
        Cmu             0.09;
        kappa           0.41;
        E               9.8;
        value           nonuniform List<scalar> 
50
(
1.01111e-05
1.18438e-05
1.41081e-05
1.60258e-05
1.76054e-05
1.89468e-05
2.01387e-05
2.12567e-05
2.30749e-05
2.51619e-05
2.7484e-05
3.01358e-05
3.31858e-05
3.66245e-05
4.03435e-05
4.41384e-05
4.77455e-05
5.09117e-05
5.3466e-05
5.53482e-05
5.65824e-05
5.72411e-05
5.7425e-05
5.72345e-05
5.67449e-05
5.60154e-05
5.51164e-05
5.41365e-05
5.31601e-05
5.22474e-05
5.14343e-05
5.07335e-05
5.01238e-05
4.95415e-05
4.88886e-05
4.81043e-05
4.72064e-05
4.61575e-05
4.49371e-05
4.3545e-05
4.20049e-05
4.0365e-05
3.86937e-05
3.70673e-05
3.55538e-05
3.4201e-05
3.30326e-05
3.20488e-05
3.12468e-05
3.0579e-05
)
;
    }
    lowerWall
    {
        type            nutkWallFunction;
        Cmu             0.09;
        kappa           0.41;
        E               9.8;
        value           nonuniform List<scalar> 
62
(
6.16338e-06
8.20275e-06
1.02361e-05
1.16575e-05
1.27848e-05
1.37005e-05
1.45038e-05
1.52272e-05
1.5883e-05
1.64731e-05
1.69943e-05
1.74404e-05
1.78028e-05
1.80697e-05
1.82229e-05
1.82219e-05
1.81125e-05
1.78499e-05
1.73971e-05
1.6749e-05
1.58538e-05
1.43931e-05
1.2551e-05
1.2551e-05
3.4203e-05
4.05099e-05
4.59064e-05
4.96762e-05
5.30097e-05
5.63197e-05
6.02896e-05
6.79074e-05
6.41821e-05
5.97702e-05
5.50129e-05
0
2.18736e-05
2.78857e-05
3.23312e-05
3.59169e-05
3.89733e-05
4.1829e-05
4.48767e-05
0
2.35706e-06
4.29162e-06
5.53041e-06
6.46201e-06
6.94642e-06
7.00669e-06
6.7553e-06
6.22954e-06
5.6261e-06
4.90866e-06
4.08197e-06
3.19359e-06
2.31872e-06
1.50967e-06
6.38631e-07
0
0
0
)
;
    }
    atmosphere
    {
        type            calculated;
        value           nonuniform List<scalar> 
46
(
0.009
0.009
0.009
0.009
0.009
0.009
0.009
0.009
0.009
0.009
0.009
0.009
0.009
0.009
0.009
0.009
0.009
0.009
0.009
0.009
0.009
0.009
0.009
0.009
0.009
0.009
0.009
0.009
0.009
0.009
0.009
0.0157752
0.0156224
0.0149043
0.0139078
0.0127413
0.0114938
0.0102484
0.009062
0.00794097
0.00683153
0.00564175
0.00430227
0.00282392
0.00131735
0.000288966
)
;
    }
    defaultFaces
    {
        type            empty;
    }
}


// ************************************************************************* //
