/*--------------------------------*- C++ -*----------------------------------*\
  =========                 |
  \\      /  F ield         | OpenFOAM: The Open Source CFD Toolbox
   \\    /   O peration     | Website:  https://openfoam.org
    \\  /    A nd           | Version:  7
     \\/     M anipulation  |
\*---------------------------------------------------------------------------*/
FoamFile
{
    version     2.0;
    format      ascii;
    class       volScalarField;
    location    "0.35";
    object      p;
}
// * * * * * * * * * * * * * * * * * * * * * * * * * * * * * * * * * * * * * //

dimensions      [1 -1 -2 0 0 0 0];

internalField   nonuniform List<scalar> 
2268
(
980.514
982.845
993.439
1007.97
1021.88
1033.77
1043.29
1050.66
1056.29
1060.65
1064.28
1067.9
1072.49
1079.44
1090.79
1109.82
1139.51
1182.85
1239.25
1300.92
1353.15
1366.02
1411.77
920.869
921.59
930.399
942.979
955.37
966.232
975.112
982.097
987.524
991.837
995.606
999.588
1004.82
1012.75
1025.4
1045.42
1077.14
1123.25
1184.65
1252.96
1309.8
1312.67
1354.2
860.287
861.426
868.461
878.552
888.79
897.993
905.671
911.811
916.678
920.694
924.446
928.729
934.632
943.656
957.835
979.789
1013.22
1061.05
1124.15
1194.63
1255.49
1264.44
1306.89
799.32
801.449
807.415
815.489
823.725
831.197
837.487
842.561
846.645
850.147
853.658
857.995
864.266
873.968
889.098
912.098
946.054
993.647
1055.39
1124.43
1187.07
1211.61
1270.95
738.143
741.372
746.682
753.181
759.726
765.626
770.58
774.57
777.805
780.682
783.791
787.946
794.24
804.124
819.487
842.555
875.91
921.741
980.298
1046.1
1108
1149.87
1228.08
676.667
680.919
685.727
690.889
695.958
700.446
704.159
707.112
709.503
711.717
714.332
718.143
724.204
733.878
748.917
771.318
803.224
846.31
900.534
961.524
1019.3
1076.07
1164.21
614.931
620.014
624.325
628.233
631.953
635.157
637.723
639.698
641.275
642.82
644.893
648.257
653.899
663.072
677.368
698.564
728.391
768.015
816.928
871.026
919.784
983.688
1055.03
553.02
558.745
562.442
565.077
567.532
569.589
571.136
572.229
573.056
573.964
575.485
578.338
583.426
591.86
605.066
624.597
651.803
687.31
729.845
774.298
807.887
852.613
866.587
28.9582
28.9316
28.9244
28.9262
28.9445
28.9708
28.9937
29.0032
28.9954
28.9686
28.9247
28.8682
28.8054
28.7425
28.6845
28.6356
28.5981
28.5745
28.5653
28.9035
28.8752
28.8657
28.8636
28.8799
28.9049
28.9271
28.9366
28.9294
28.9037
28.8613
28.8064
28.7448
28.6827
28.6251
28.5762
28.5389
28.5148
28.5045
28.8491
28.8108
28.8023
28.798
28.814
28.8385
28.8611
28.8706
28.864
28.8394
28.7982
28.7446
28.684
28.6222
28.5643
28.5146
28.4763
28.4513
28.4406
28.7952
28.7365
28.7333
28.7291
28.7478
28.7744
28.7989
28.809
28.803
28.7787
28.7377
28.6841
28.623
28.5603
28.5011
28.4499
28.4101
28.3844
28.3737
28.7426
28.6513
28.6604
28.6573
28.6814
28.7126
28.7412
28.7525
28.7471
28.7226
28.6804
28.6252
28.5621
28.4971
28.4355
28.382
28.3404
28.3139
28.3034
28.6918
28.5537
28.5851
28.5825
28.6142
28.653
28.6875
28.7002
28.6957
28.6707
28.6265
28.5682
28.5015
28.4327
28.3675
28.3108
28.2669
28.2396
28.2294
28.678
28.4504
28.5136
28.5047
28.546
28.5936
28.6361
28.6507
28.6478
28.6225
28.5759
28.5134
28.4414
28.3672
28.297
28.2362
28.1896
28.1612
28.1513
28.5126
28.3409
28.4686
28.4389
28.4849
28.5295
28.582
28.5998
28.6006
28.5761
28.5272
28.46
28.3817
28.3006
28.2241
28.1582
28.1081
28.0785
28.0689
456.04
462.299
464.753
465.393
465.992
466.465
466.627
466.517
466.305
466.304
466.991
469.006
473.077
480.058
491.099
507.457
529.974
558.4
590.01
616.871
620.599
567.688
307.176
324.036
329.734
329.097
326.501
324.428
322.667
320.963
319.309
317.811
316.692
316.341
317.272
319.871
324.486
332.004
343.672
360.205
381.016
403.163
418.727
410.502
352.645
251.136
192.894
194.859
187.791
181.712
177.351
173.968
171.072
168.491
166.245
164.451
163.441
163.708
165.105
166.999
170.154
176.454
187.03
202.031
219.723
236.413
242.867
226.441
199.698
73.8689
69.9829
56.2462
51.6358
49.092
47.1911
45.4704
43.8448
42.4103
41.2079
40.4514
40.5939
41.144
40.7401
39.8097
40.235
42.512
46.593
54.7635
68.3546
82.9687
83.2513
67.9829
12.7022
6.05457
1.68726
1.18705
1.05896
1.11057
1.081
0.94984
0.768343
0.550147
0.370596
0.383475
0.439838
0.116259
-0.400017
-0.595019
-0.729067
-1.42727
-4.18262
-7.82106
-10.6479
-17.1221
-29.1641
-2.49876
-1.88778
-1.78124
-1.89875
-1.94918
-1.96722
-1.98894
-2.0143
-2.03862
-2.0614
-2.07926
-2.09472
-2.12647
-2.19141
-2.2875
-2.42909
-2.63646
-2.91739
-3.28202
-4.24531
-7.62165
-11.7869
-15.6603
-2.17677
-2.1417
-2.07212
-2.04526
-2.02308
-2.0071
-2.0049
-2.01503
-2.03461
-2.0623
-2.09705
-2.13877
-2.18952
-2.25045
-2.3192
-2.3943
-2.47391
-2.54461
-2.5894
-2.7635
-3.34989
-4.08683
-4.43425
-2.35396
-2.29918
-2.24861
-2.22274
-2.21456
-2.21362
-2.22041
-2.23555
-2.25825
-2.28793
-2.32445
-2.36837
-2.42118
-2.48426
-2.55804
-2.64273
-2.73806
-2.83982
-2.9344
-3.0221
-3.14149
-3.31874
-3.43317
-2.47713
-2.43914
-2.41374
-2.39851
-2.39516
-2.39922
-2.4101
-2.42821
-2.45336
-2.48537
-2.52433
-2.5708
-2.62589
-2.69075
-2.76607
-2.85242
-2.95019
-3.05881
-3.17579
-3.30595
-3.47554
-3.68286
-3.87984
-2.63008
-2.60238
-2.58489
-2.57536
-2.57446
-2.58069
-2.59361
-2.61343
-2.64025
-2.67414
-2.71526
-2.76397
-2.82085
-2.88653
-2.96148
-3.04622
-3.14135
-3.24758
-3.36624
-3.50294
-3.66708
-3.85025
-4.02825
-2.78857
-2.77159
-2.75917
-2.75325
-2.7546
-2.7627
-2.77733
-2.79868
-2.82697
-2.86242
-2.90518
-2.95544
-3.01342
-3.0794
-3.15376
-3.23704
-3.33003
-3.43379
-3.55002
-3.68187
-3.83241
-3.99669
-4.16409
-2.9495
-2.94056
-2.93257
-2.92983
-2.93333
-2.94311
-2.95921
-2.9819
-3.01148
-3.04818
-3.09215
-3.14338
-3.2019
-3.26782
-3.34145
-3.42341
-3.51458
-3.61613
-3.7295
-3.85644
-3.99813
-4.15187
-4.31238
-3.11104
-3.10782
-3.10332
-3.10322
-3.10857
-3.11979
-3.13716
-3.16102
-3.19172
-3.22946
-3.27431
-3.32615
-3.38484
-3.45042
-3.5232
-3.60388
-3.69341
-3.79295
-3.90372
-4.02681
-4.16274
-4.30978
-4.46463
-3.27108
-3.27157
-3.26988
-3.272
-3.27901
-3.29153
-3.31004
-3.33496
-3.36665
-3.4053
-3.45085
-3.50308
-3.56177
-3.62691
-3.69889
-3.7785
-3.86679
-3.96487
-4.07377
-4.19426
-4.32664
-4.46979
-4.62157
-3.42821
-3.43084
-3.43141
-3.43544
-3.44394
-3.45767
-3.47725
-3.50316
-3.53578
-3.57525
-3.62143
-3.67399
-3.73267
-3.79749
-3.86895
-3.94796
-4.03567
-4.13316
-4.24134
-4.36083
-4.49194
-4.63405
-4.78588
-3.58144
-3.58511
-3.58754
-3.5932
-3.60306
-3.61794
-3.63852
-3.66538
-3.6989
-3.73915
-3.78594
-3.83888
-3.8977
-3.9625
-4.0339
-4.11297
-4.20096
-4.29895
-4.40778
-4.52804
-4.66019
-4.80413
-4.95928
-3.73012
-3.73416
-3.73813
-3.7452
-3.75628
-3.77223
-3.79379
-3.82158
-3.85596
-3.89699
-3.94441
-3.99782
-4.057
-4.12214
-4.19404
-4.27391
-4.36307
-4.46264
-4.57344
-4.69615
-4.83148
-4.97984
-5.14133
-3.87395
-3.878
-3.88321
-3.89147
-3.90364
-3.92057
-3.94306
-3.97175
-4.00699
-4.04879
-4.09686
-4.15084
-4.21058
-4.27643
-4.34932
-4.43061
-4.5217
-4.62374
-4.73757
-4.86404
-5.00421
-5.159
-5.32915
-4.01278
-4.01674
-4.02289
-4.03213
-4.04524
-4.06307
-4.08643
-4.11597
-4.15202
-4.19457
-4.24331
-4.29791
-4.35835
-4.42514
-4.49938
-4.58253
-4.67604
-4.78106
-4.89853
-5.02953
-5.17553
-5.33791
-5.51797
-4.1466
-4.15046
-4.1573
-4.16734
-4.18125
-4.19986
-4.224
-4.25431
-4.29111
-4.33433
-4.3837
-4.43893
-4.50013
-4.56796
-4.64369
-4.72887
-4.82494
-4.93306
-5.0543
-5.19
-5.34206
-5.51227
-5.70232
-4.27545
-4.27923
-4.28658
-4.29725
-4.31182
-4.3311
-4.3559
-4.38685
-4.42425
-4.46804
-4.51793
-4.57372
-4.63562
-4.70445
-4.78161
-4.86869
-4.96714
-5.07812
-5.20279
-5.34279
-5.50042
-5.67778
-5.87683
-4.39939
-4.40314
-4.41086
-4.422
-4.43709
-4.45689
-4.4822
-4.51362
-4.55145
-4.59562
-4.64587
-4.70204
-4.76446
-4.83408
-4.91239
-5.00103
-5.10139
-5.21461
-5.34199
-5.48541
-5.64754
-5.83063
-6.0368
-4.51856
-4.52222
-4.53029
-4.54173
-4.55719
-4.57735
-4.60298
-4.63466
-4.67268
-4.71699
-4.76734
-4.82363
-4.88627
-4.9563
-5.03529
-5.12488
-5.22643
-5.34104
-5.47009
-5.6157
-5.78075
-5.9676
-6.17839
-4.63309
-4.63668
-4.6449
-4.65653
-4.67222
-4.69259
-4.71833
-4.75003
-4.78798
-4.83213
-4.88225
-4.9383
-5.00072
-5.07065
-5.14966
-5.23941
-5.34118
-5.45609
-5.58554
-5.73181
-5.89791
-6.08614
-6.29871
-4.74306
-4.74665
-4.75478
-4.76653
-4.78232
-4.80271
-4.82835
-4.85981
-4.89738
-4.94102
-4.99054
-5.04591
-5.10762
-5.1768
-5.25504
-5.34397
-5.44485
-5.55877
-5.68717
-5.83239
-5.99745
-6.18455
-6.39567
-4.84853
-4.85216
-4.86012
-4.87187
-4.88761
-4.90783
-4.93315
-4.96408
-5.00093
-5.04369
-5.09219
-5.14642
-5.20685
-5.27459
-5.35119
-5.43823
-5.53698
-5.64851
-5.77427
-5.91657
-6.07844
-6.26206
-6.46773
-4.94962
-4.95328
-4.96106
-4.9727
-4.98824
-5.00811
-5.03284
-5.06295
-5.09873
-5.14019
-5.18722
-5.23981
-5.29839
-5.36398
-5.43806
-5.52213
-5.61745
-5.7251
-5.84654
-5.98399
-6.1402
-6.31679
-6.51602
-5.04649
-5.05017
-5.05775
-5.06916
-5.08437
-5.1037
-5.12762
-5.15659
-5.19091
-5.23064
-5.27572
-5.32614
-5.38227
-5.44503
-5.51574
-5.5958
-5.68643
-5.78875
-5.9042
-6.03486
-6.1832
-6.35047
-6.53943
-5.13933
-5.14304
-5.15029
-5.16144
-5.17619
-5.19481
-5.21769
-5.24522
-5.27771
-5.31529
-5.35791
-5.40561
-5.45871
-5.51798
-5.58453
-5.65963
-5.74444
-5.84008
-5.94796
-6.07
-6.20833
-6.3638
-6.53926
-5.22833
-5.23207
-5.23899
-5.24978
-5.26396
-5.28171
-5.30333
-5.32916
-5.35949
-5.39448
-5.43418
-5.47863
-5.52811
-5.58324
-5.64493
-5.71425
-5.79226
-5.88005
-5.97897
-6.09074
-6.2171
-6.35845
-6.51744
-5.31372
-5.31749
-5.32405
-5.33441
-5.34791
-5.36465
-5.38484
-5.40875
-5.43664
-5.4687
-5.50503
-5.54574
-5.59106
-5.64148
-5.69769
-5.76054
-5.83094
-5.90991
-5.99871
-6.09883
-6.2116
-6.33695
-6.47702
-5.39571
-5.39955
-5.4057
-5.4156
-5.42832
-5.44392
-5.46254
-5.48435
-5.50959
-5.53845
-5.57108
-5.60763
-5.64833
-5.69353
-5.74373
-5.79954
-5.86169
-5.9311
-6.00888
-6.09631
-6.19431
-6.30239
-6.42198
-5.47452
-5.4785
-5.48418
-5.49362
-5.50544
-5.51978
-5.5367
-5.55629
-5.57874
-5.60423
-5.63293
-5.66502
-5.70073
-5.74033
-5.78411
-5.83246
-5.88592
-5.94523
-6.01136
-6.08537
-6.1679
-6.2581
-6.35666
-5.55048
-5.55473
-5.55978
-5.56874
-5.57955
-5.59251
-5.60761
-5.62489
-5.64448
-5.66651
-5.69116
-5.71863
-5.74913
-5.78286
-5.81995
-5.86059
-5.90508
-5.95399
-6.00813
-6.06838
-6.13515
-6.20747
-6.28537
-5.62374
-5.62882
-5.6328
-5.64131
-5.65099
-5.66241
-5.67559
-5.6905
-5.7072
-5.72577
-5.74637
-5.76917
-5.79438
-5.82211
-5.85239
-5.88521
-5.92067
-5.95914
-6.00124
-6.04771
-6.09887
-6.15378
-6.2121
-5.69364
-5.70153
-5.70366
-5.71173
-5.72012
-5.72986
-5.74101
-5.75351
-5.76734
-5.78252
-5.79914
-5.81734
-5.83728
-5.85903
-5.88252
-5.90759
-5.93416
-5.96238
-5.99272
-6.02577
-6.06182
-6.10016
-6.14034
-5.75949
-5.77305
-5.77262
-5.78029
-5.78722
-5.79513
-5.80415
-5.81421
-5.8252
-5.8371
-5.84988
-5.86363
-5.87845
-5.89435
-5.91122
-5.92878
-5.9468
-5.96525
-5.98443
-6.00479
-6.02662
-6.04954
-6.07327
-5.82203
-5.84386
-5.83969
-5.84708
-5.85241
-5.85833
-5.86515
-5.87273
-5.88094
-5.88966
-5.89878
-5.9083
-5.91822
-5.92854
-5.93909
-5.94954
-5.95957
-5.96899
-5.97793
-5.98668
-5.99554
-6.00445
-6.01353
-5.88405
-5.91644
-5.90546
-5.91284
-5.91659
-5.92036
-5.92486
-5.92993
-5.93539
-5.94105
-5.94671
-5.95226
-5.95764
-5.96278
-5.96749
-5.97143
-5.97422
-5.97556
-5.97537
-5.97381
-5.97111
-5.96746
-5.9634
-5.94148
-5.99865
-5.97428
-5.98032
-5.98222
-5.98362
-5.98564
-5.98818
-5.99097
-5.99374
-5.99623
-5.99824
-5.99961
-6.00024
-5.99989
-5.99822
-5.9948
-5.98922
-5.98124
-5.97079
-5.95797
-5.94309
-5.92691
-5.97285
-6.10063
-6.05182
-6.04958
-6.04805
-6.0467
-6.04613
-6.04614
-6.04634
-6.04641
-6.04604
-6.04497
-6.043
-6.0399
-6.03543
-6.0292
-6.02077
-6.00965
-5.99542
-5.97781
-5.95671
-5.93238
-5.9062
-5.96602
-6.19802
-6.1208
-6.10492
-6.09844
-6.09413
-6.09089
-6.08817
-6.08552
-6.0826
-6.07912
-6.07481
-6.06941
-6.06263
-6.05417
-6.04365
-6.03065
-6.01471
-5.99536
-5.97216
-5.94481
-5.91337
-5.87895
-233.526
-179.224
-50.4177
-9.62501
140.071
110.801
84.1465
34.4986
157.708
118.673
83.9416
55.0561
44.8446
34.6429
31.0681
27.2125
-43.6738
-44.0395
-35.8637
-26.1957
-19.8694
-23.5622
-24.9577
-20.5899
-5.28232
-5.88786
-6.23942
-6.61309
-3.47434
-3.53739
-3.71494
-4.10401
-4.02235
-4.06939
-4.08664
-4.13526
-4.1446
-4.22211
-4.30917
-4.40459
-4.28372
-4.36333
-4.44882
-4.53661
-4.43187
-4.51034
-4.59296
-4.67584
-4.58179
-4.65932
-4.74077
-4.82256
-4.73832
-4.81654
-4.89881
-4.98188
-4.90466
-4.98526
-5.07035
-5.15685
-5.08267
-5.16746
-5.25745
-5.34952
-5.27184
-5.36245
-5.45916
-5.55867
-5.46865
-5.56632
-5.67103
-5.77927
-5.66741
-5.77276
-5.88613
-6.00375
-5.86159
-5.97457
-6.09661
-6.22365
-6.04491
-6.16484
-6.29496
-6.43083
-6.21196
-6.33768
-6.47473
-6.61819
-6.35844
-6.4884
-6.6307
-6.77989
-6.48126
-6.61369
-6.75926
-6.91187
-6.57833
-6.71147
-6.85821
-7.01197
-6.64823
-6.7803
-6.92618
-7.07884
-6.69089
-6.81964
-6.96241
-7.11162
-6.70608
-6.82926
-6.96613
-7.10902
-6.69469
-6.80981
-6.93774
-7.07096
-6.65848
-6.76292
-6.87882
-6.99883
-6.60089
-6.69233
-6.79342
-6.89722
-6.52688
-6.60379
-6.68826
-6.77404
-6.44193
-6.5038
-6.57112
-6.63861
-6.35151
-6.39877
-6.44958
-6.49977
-6.2605
-6.29434
-6.33009
-6.36477
-6.17285
-6.19489
-6.21759
-6.23903
-6.09195
-6.10403
-6.11585
-6.12641
-6.02061
-6.02459
-6.02766
-6.02947
-5.96055
-5.95802
-5.95426
-5.94936
-5.91461
-5.90641
-5.89752
-5.88814
-5.8876
-5.87539
-5.86265
-5.84921
-5.85329
-5.83698
-5.82071
-5.8044
12.3574
27.8458
28.4901
28.4924
28.4281
28.4406
28.5067
28.5202
28.5279
28.5063
28.4538
28.3786
28.2892
28.1955
28.1067
28.0309
27.9744
27.9423
27.9326
-24.8342
-18.4283
7.85253
27.4394
28.1982
28.4941
28.5359
28.46
28.4585
28.4281
28.3639
28.274
28.1649
28.0477
27.9351
27.8392
27.7695
27.7319
27.7223
8.91937
-16.4645
-25.9143
-19.3141
2.61053
25.3627
28.3015
28.4492
28.4596
28.3789
28.2812
28.1697
28.0365
27.8891
27.7441
27.6198
27.5311
27.4863
27.4776
10.579
-11.8798
-19.4801
-18.0051
-18.7936
-14.6218
8.37021
27.113
28.4142
28.3409
28.2104
28.0598
27.8944
27.7103
27.5244
27.3631
27.2487
27.194
27.1871
-19.3774
-29.5577
-31.1968
-26.2538
-22.3923
-18.7307
-14.4631
-0.711043
23.6772
28.0446
28.0999
27.9437
27.7291
27.4957
27.2599
27.0541
26.9078
26.8407
26.8365
-20.7239
-33.6746
-39.2005
-36.8095
-35.6571
-31.4894
-23.5974
-16.2203
-0.0982689
22.7971
27.5622
27.744
27.5086
27.2165
26.9226
26.6689
26.4885
26.4077
26.4079
-7.41992
-6.85504
-4.99582
-6.71139
-24.8206
-38.1983
-36.9226
-28.8946
-16.9101
4.79056
24.5138
27.0589
27.1404
26.8136
26.4645
26.1714
25.9638
25.8726
25.8798
-4.85586
-5.1774
-5.44797
-5.5748
-4.06042
-2.8996
-29.3247
-41.1841
-30.3746
-12.2212
14.0575
25.3291
26.4505
26.1992
25.8247
25.5172
25.3024
25.2108
25.23
-4.29094
-4.42768
-4.68789
-5.20349
-5.65726
-6.05249
-10.6921
-34.41
-41.0773
-24.6727
0.570051
21.3513
25.0603
25.2599
24.9505
24.6687
24.4768
24.4012
24.4387
-4.55805
-4.7393
-4.8872
-5.06687
-5.15486
-5.25884
-5.96669
-15.8841
-41.4815
-33.9844
-10.1027
15.8218
22.9449
23.9438
23.8025
23.6062
23.4744
23.433
23.4948
-4.68535
-4.87143
-5.04374
-5.21429
-5.32856
-5.31545
-5.34848
-6.41454
-29.4417
-40.5665
-18.2977
10.8395
20.8658
22.4431
22.4327
22.3537
22.3058
22.3113
22.4006
-4.81464
-5.00126
-5.16994
-5.31613
-5.40832
-5.40094
-5.29531
-5.74862
-16.9167
-41.8642
-24.6836
5.78404
18.8035
20.8518
20.9347
20.9663
21.003
21.0574
21.1728
-4.95941
-5.14755
-5.31516
-5.44857
-5.5249
-5.51588
-5.37475
-5.69807
-11.3101
-38.0879
-26.6493
2.73522
16.712
19.0404
19.3054
19.4807
19.6017
19.7021
19.8393
-5.12129
-5.3154
-5.48937
-5.62349
-5.69547
-5.68476
-5.53946
-5.77232
-8.77654
-32.669
-25.6418
2.36307
15.1099
17.1634
17.6265
17.9477
18.1415
18.2812
18.434
-5.30259
-5.50763
-5.69424
-5.83706
-5.91008
-5.89819
-5.75123
-5.90027
-7.71311
-28.5381
-23.445
3.31379
13.9514
15.5476
16.0677
16.4377
16.6678
16.8321
16.9918
-5.50508
-5.72583
-5.92981
-6.08554
-6.16134
-6.13937
-5.95772
-6.04881
-8.21247
-28.1002
-20.3405
4.14468
13.0574
14.2824
14.6369
14.9754
15.2113
15.3845
15.5427
-5.7271
-5.96817
-6.19371
-6.36528
-6.44622
-6.4137
-6.19136
-6.23722
-9.34025
-27.5347
-16.783
3.99016
11.8459
12.8643
13.1791
13.5329
13.7769
13.9553
14.1083
-5.96289
-6.22791
-6.47879
-6.66956
-6.7619
-6.73092
-6.49921
-6.56962
-11.5761
-22.2469
-9.62262
4.20072
9.79209
10.827
11.639
12.0976
12.3679
12.5573
12.7054
-6.20382
-6.49508
-6.77478
-6.98987
-7.1028
-7.09354
-6.91876
-7.30278
-12.6397
-10.1476
3.95162
4.99622
7.5879
9.17642
10.2482
10.7252
11.0139
11.21
11.3502
-6.44034
-6.75856
-7.06913
-7.3138
-7.45262
-7.4702
-7.3673
-8.33724
-13.2197
1.0662
14.192
7.05419
6.82173
8.41087
9.13622
9.48687
9.75028
9.93083
10.0559
-6.66318
-7.00783
-7.34992
-7.62674
-7.79196
-7.8281
-7.74117
-9.07917
-16.7191
-7.78562
5.33003
6.34702
6.27912
7.50728
8.092
8.35286
8.56934
8.71983
8.8257
-6.86412
-7.23357
-7.60689
-7.92098
-8.13518
-8.25451
-7.98871
-9.94774
-16.2215
-3.18536
4.27647
5.91025
5.91237
6.44245
6.99898
7.25894
7.44038
7.56377
7.65164
-7.03605
-7.42543
-7.82528
-8.18045
-8.45445
-8.70752
-8.75388
-9.68408
-14.5583
-2.64244
4.25023
5.92233
5.799
5.74655
6.03742
6.22228
6.35478
6.4509
6.52282
-7.17398
-7.57554
-7.99407
-8.37783
-8.65779
-8.54158
-7.76484
-8.47385
-13.0612
-9.27188
3.3022
5.6137
5.59181
5.21906
5.18139
5.23396
5.30335
5.3704
5.42904
-7.27621
-7.68482
-8.11948
-8.51631
-8.79588
-8.82931
-9.25328
-7.77512
-12.583
-13.7753
-0.495016
4.36599
4.93887
4.42925
4.23283
4.2189
4.25338
4.30549
4.36023
-7.34153
-7.75252
-8.20304
-8.62193
-8.96776
-9.18919
-9.41865
-7.01712
-12.1517
-18.2002
-9.73902
2.0826
3.90003
3.26521
3.07274
3.11548
3.17514
3.2422
3.31057
-7.36859
-7.77691
-8.23605
-8.68538
-9.09069
-9.40902
-9.19085
-8.04067
-9.80874
-20.8851
-20.9838
-2.59855
1.91034
1.56789
1.7131
1.92608
2.07088
2.18167
2.28933
-7.35531
-7.7532
-8.21668
-8.70039
-9.13556
-9.51182
-9.59141
-9.63596
-6.36435
-19.935
-24.119
-9.69062
-2.12366
-0.491278
0.257455
0.703496
0.979087
1.14697
1.32116
-7.3007
-7.67777
-8.13362
-8.64906
-9.15133
-9.59318
-10.1567
-10.3476
-8.10088
-12.9603
-16.4358
-12.6296
-5.34363
-2.07698
-1.09474
-0.435549
-0.0340558
0.189591
0.42139
-7.20545
-7.54792
-7.9726
-8.48484
-9.03464
-9.52519
-10.2833
-11.4757
-13.0634
-11.4512
-8.17532
-9.44487
-6.17246
-3.12698
-2.13618
-1.37605
-0.908564
-0.650672
-0.394609
-7.07492
-7.36909
-7.73512
-8.18621
-8.69938
-9.2179
-9.94989
-11.1779
-12.6823
-13.9653
-11.8273
-9.40818
-6.46469
-3.93626
-2.89738
-2.1029
-1.62652
-1.35786
-1.1172
-6.91959
-7.15731
-7.44775
-7.80109
-8.21188
-8.65451
-9.15018
-9.76457
-10.5418
-11.0067
-10.5279
-8.68261
-6.30794
-4.40512
-3.3773
-2.64304
-2.19977
-1.94127
-1.74574
-6.75185
-6.93199
-7.14455
-7.39339
-7.67514
-7.97588
-8.27
-8.54309
-8.77597
-8.83063
-8.44264
-7.30957
-5.75656
-4.47012
-3.63105
-3.03352
-2.65337
-2.42553
-2.29001
-6.58285
-6.70993
-6.85228
-7.00918
-7.17468
-7.33837
-7.48332
-7.58616
-7.59358
-7.40693
-6.94082
-6.18084
-5.2389
-4.40325
-3.78614
-3.33018
-3.02428
-2.84065
-2.76567
-6.42132
-6.50318
-6.5877
-6.67185
-6.74883
-6.80989
-6.84604
-6.83983
-6.74822
-6.51142
-6.10477
-5.55881
-4.94518
-4.3806
-3.93081
-3.5866
-3.35029
-3.21347
-3.18902
-6.27341
-6.31893
-6.35917
-6.39042
-6.40666
-6.40103
-6.36751
-6.29401
-6.15981
-5.94054
-5.62882
-5.24114
-4.81948
-4.42394
-4.09247
-3.83407
-3.65742
-3.56265
-3.57404
-6.14294
-6.16046
-6.16873
-6.16493
-6.14455
-6.10224
-6.03341
-5.93232
-5.79082
-5.60165
-5.36502
-5.08962
-4.79698
-4.51807
-4.27651
-4.08676
-3.95978
-3.89917
-3.93217
-6.03185
-6.0285
-6.01468
-5.99027
-5.95243
-5.8962
-5.81804
-5.71575
-5.58755
-5.43292
-5.25427
-5.05757
-4.85375
-4.6585
-4.48674
-4.35205
-4.26501
-4.22974
-4.27289
-5.94124
-5.92297
-5.89369
-5.85895
-5.81826
-5.76418
-5.6939
-5.60636
-5.50229
-5.38364
-5.25336
-5.11543
-4.97568
-4.84235
-4.72478
-4.63338
-4.57685
-4.55835
-4.60331
-5.87317
-5.84292
-5.79647
-5.75602
-5.7271
-5.68841
-5.63788
-5.57519
-5.50152
-5.4193
-5.3314
-5.24066
-5.15036
-5.06495
-4.98988
-4.93214
-4.8981
-4.88932
-4.92967
-5.82536
-5.77847
-5.697
-5.65085
-5.65759
-5.64978
-5.6294
-5.59961
-5.56174
-5.51754
-5.46919
-5.41877
-5.36839
-5.32046
-5.27778
-5.24429
-5.22423
-5.21815
-5.25
-5.77629
-5.71578
-5.60596
-5.58691
-5.63587
-5.65692
-5.66426
-5.66618
-5.6642
-5.65879
-5.65047
-5.63989
-5.62787
-5.61531
-5.60314
-5.59281
-5.58608
-5.57988
-5.58505
)
;

boundaryField
{
    leftWall
    {
        type            calculated;
        value           nonuniform List<scalar> 
50
(
980.514
920.869
860.287
799.32
738.143
676.667
614.931
553.02
456.04
324.036
192.894
73.8689
12.7022
-2.49876
-2.17677
-2.35396
-2.47713
-2.63008
-2.78857
-2.9495
-3.11104
-3.27108
-3.42821
-3.58144
-3.73012
-3.87395
-4.01278
-4.1466
-4.27545
-4.39939
-4.51856
-4.63309
-4.74306
-4.84853
-4.94962
-5.04649
-5.13933
-5.22833
-5.31372
-5.39571
-5.47452
-5.55048
-5.62374
-5.69364
-5.75949
-5.82203
-5.88405
-5.94148
-5.97285
-5.96602
)
;
    }
    rightWall
    {
        type            calculated;
        value           nonuniform List<scalar> 
50
(
28.5653
28.5045
28.4406
28.3737
28.3034
28.2294
28.1513
28.0689
27.9326
27.7223
27.4776
27.1871
26.8365
26.4079
25.8798
25.23
24.4387
23.4948
22.4006
21.1728
19.8393
18.434
16.9918
15.5427
14.1083
12.7054
11.3502
10.0559
8.8257
7.65164
6.52282
5.42904
4.36023
3.31057
2.28933
1.32116
0.42139
-0.394609
-1.1172
-1.74574
-2.29001
-2.76567
-3.18902
-3.57404
-3.93217
-4.27289
-4.60331
-4.92967
-5.25
-5.58505
)
;
    }
    lowerWall
    {
        type            calculated;
        value           nonuniform List<scalar> 
62
(
1009.94
1012.27
1022.87
1037.4
1051.31
1063.2
1072.72
1080.09
1085.72
1090.08
1093.71
1097.33
1101.92
1108.87
1120.22
1139.24
1168.94
1212.28
1268.68
1330.35
1382.41
1393.15
1438.9
1411.77
1354.2
1306.89
1270.95
1228.08
1164.21
1055.03
866.587
-171.243
-116.939
12.0032
52.9322
28.9582
28.9035
28.8491
28.7952
28.7426
28.6918
28.678
28.5126
28.9876
28.961
28.9538
28.9556
28.974
29.0002
29.0231
29.0326
29.0249
28.998
28.9541
28.8976
28.8348
28.7719
28.714
28.665
28.6275
28.6039
28.5948
)
;
    }
    atmosphere
    {
        type            calculated;
        value           nonuniform List<scalar> 
46
(
-6.00815
-6.15375
-6.12543
-6.11641
-6.10994
-6.10486
-6.10049
-6.09632
-6.09202
-6.08731
-6.08195
-6.07569
-6.06825
-6.05934
-6.04863
-6.03579
-6.0205
-6.00238
-5.98107
-5.95618
-5.9274
-5.89463
-5.85827
-5.82985
-5.81415
-5.8012
-5.79059
-5.77514
-5.75246
-5.73778
-5.72904
-5.72904
-5.72904
-5.72904
-5.72904
-5.72904
-5.72904
-5.72905
-5.72904
-5.72904
-5.72904
-5.72904
-5.72904
-5.72904
-5.72904
-5.72904
)
;
    }
    defaultFaces
    {
        type            empty;
    }
}


// ************************************************************************* //
