/*--------------------------------*- C++ -*----------------------------------*\
  =========                 |
  \\      /  F ield         | OpenFOAM: The Open Source CFD Toolbox
   \\    /   O peration     | Website:  https://openfoam.org
    \\  /    A nd           | Version:  7
     \\/     M anipulation  |
\*---------------------------------------------------------------------------*/
FoamFile
{
    version     2.0;
    format      ascii;
    class       volVectorField;
    location    "0.35";
    object      U;
}
// * * * * * * * * * * * * * * * * * * * * * * * * * * * * * * * * * * * * * //

dimensions      [0 1 -1 0 0 0 0];

internalField   nonuniform List<vector> 
2268
(
(-0.051966 0.0174191 0)
(-0.0747821 0.00167871 0)
(-0.0488758 -0.0135112 0)
(-0.00489731 -0.0177724 0)
(0.048722 -0.019166 0)
(0.104298 -0.0189779 0)
(0.159398 -0.0182826 0)
(0.21299 -0.0175106 0)
(0.264714 -0.0167491 0)
(0.314381 -0.0159621 0)
(0.361654 -0.015066 0)
(0.405892 -0.0139431 0)
(0.446024 -0.0124374 0)
(0.480415 -0.0102894 0)
(0.506187 -0.00710357 0)
(0.52047 -0.00113914 0)
(0.511472 0.00823743 0)
(0.468622 0.0223226 0)
(0.382625 0.0397304 0)
(0.245257 0.0548076 0)
(0.0749407 0.0608483 0)
(-0.162027 0.013489 0)
(-0.0911062 -0.0735102 0)
(-0.042187 0.0392163 0)
(-0.0333082 0.000398234 0)
(-0.00401775 -0.0255296 0)
(0.0404534 -0.0362664 0)
(0.0924698 -0.0401418 0)
(0.146638 -0.0406825 0)
(0.200617 -0.0399166 0)
(0.253357 -0.0387034 0)
(0.304377 -0.0372921 0)
(0.353348 -0.0356593 0)
(0.399836 -0.0336492 0)
(0.443161 -0.0310117 0)
(0.482267 -0.0273909 0)
(0.515592 -0.022234 0)
(0.540903 -0.0146883 0)
(0.554823 -0.00277184 0)
(0.556272 0.0154794 0)
(0.538599 0.0419494 0)
(0.490915 0.0760477 0)
(0.395342 0.111181 0)
(0.250532 0.133023 0)
(0.0172268 0.0915255 0)
(0.0155812 -0.0861532 0)
(-0.019224 0.0501618 0)
(-0.00425323 -0.00978567 0)
(0.0280741 -0.0430515 0)
(0.072502 -0.0580142 0)
(0.122889 -0.0635749 0)
(0.175091 -0.0645099 0)
(0.227157 -0.0634667 0)
(0.278145 -0.0616481 0)
(0.327548 -0.0594384 0)
(0.374977 -0.0568178 0)
(0.419951 -0.0535569 0)
(0.461774 -0.0492765 0)
(0.499421 -0.0434347 0)
(0.531427 -0.0352482 0)
(0.55582 -0.0235674 0)
(0.569855 -0.00660273 0)
(0.571305 0.0184276 0)
(0.556768 0.054326 0)
(0.521422 0.102299 0)
(0.455465 0.15659 0)
(0.35326 0.197563 0)
(0.17112 0.158213 0)
(0.0996693 -0.0452403 0)
(-0.00128255 0.0502757 0)
(0.0180942 -0.0210777 0)
(0.0538568 -0.0616794 0)
(0.0989128 -0.0803243 0)
(0.14814 -0.0872805 0)
(0.198543 -0.0884635 0)
(0.248677 -0.0870918 0)
(0.297797 -0.0846481 0)
(0.345446 -0.081618 0)
(0.391218 -0.0779755 0)
(0.434613 -0.0734199 0)
(0.474936 -0.0674512 0)
(0.511204 -0.05936 0)
(0.542064 -0.0481605 0)
(0.56578 -0.0324806 0)
(0.580149 -0.0103603 0)
(0.583076 0.02108 0)
(0.572215 0.0649743 0)
(0.544969 0.123308 0)
(0.49607 0.191781 0)
(0.419647 0.251037 0)
(0.277438 0.227665 0)
(0.162707 0.0362544 0)
(0.00866836 0.042416 0)
(0.0347324 -0.0354129 0)
(0.0748819 -0.0815552 0)
(0.121255 -0.102822 0)
(0.169812 -0.110666 0)
(0.21868 -0.111905 0)
(0.266991 -0.110175 0)
(0.31427 -0.107135 0)
(0.360157 -0.103322 0)
(0.404264 -0.0986872 0)
(0.446097 -0.092861 0)
(0.484979 -0.0852355 0)
(0.519986 -0.0749568 0)
(0.549886 -0.0608781 0)
(0.573178 -0.0414775 0)
(0.58813 -0.014695 0)
(0.593102 0.0223361 0)
(0.586538 0.0728505 0)
(0.566904 0.139153 0)
(0.531005 0.218296 0)
(0.471532 0.29402 0)
(0.358653 0.29801 0)
(0.216134 0.153818 0)
(0.0133066 0.0302507 0)
(0.0469333 -0.0531576 0)
(0.0920809 -0.102874 0)
(0.14021 -0.125498 0)
(0.188412 -0.133561 0)
(0.235932 -0.134574 0)
(0.282523 -0.132412 0)
(0.328009 -0.128792 0)
(0.372155 -0.124242 0)
(0.414616 -0.118669 0)
(0.454918 -0.111633 0)
(0.492421 -0.102431 0)
(0.526271 -0.0900887 0)
(0.555361 -0.0733382 0)
(0.578423 -0.0505811 0)
(0.59415 -0.0197416 0)
(0.601438 0.0219693 0)
(0.599458 0.0777582 0)
(0.587469 0.150166 0)
(0.563601 0.237731 0)
(0.518943 0.328498 0)
(0.432782 0.367257 0)
(0.268659 0.299606 0)
(0.0158959 0.0152226 0)
(0.0564274 -0.0740726 0)
(0.106473 -0.125754 0)
(0.156431 -0.148478 0)
(0.204347 -0.156043 0)
(0.250565 -0.156503 0)
(0.295468 -0.153803 0)
(0.339179 -0.1496 0)
(0.381594 -0.14435 0)
(0.422417 -0.137893 0)
(0.461205 -0.129718 0)
(0.49737 -0.119038 0)
(0.530135 -0.104777 0)
(0.558522 -0.0855837 0)
(0.581476 -0.0598478 0)
(0.598088 -0.0255629 0)
(0.607802 0.0199153 0)
(0.610522 0.079686 0)
(0.606351 0.156473 0)
(0.594811 0.250349 0)
(0.566721 0.354121 0)
(0.513715 0.433956 0)
(0.329692 0.473034 0)
(0.0182475 -0.00201062 0)
(0.0646236 -0.0977157 0)
(0.119073 -0.150047 0)
(0.170606 -0.171712 0)
(0.218056 -0.178084 0)
(0.26287 -0.177661 0)
(0.306041 -0.174305 0)
(0.347963 -0.169505 0)
(0.388637 -0.163587 0)
(0.427818 -0.156298 0)
(0.465097 -0.14706 0)
(0.499942 -0.135011 0)
(0.531668 -0.118992 0)
(0.559411 -0.0975936 0)
(0.582316 -0.0692582 0)
(0.599835 -0.0321393 0)
(0.611951 0.0161741 0)
(0.619304 0.0785732 0)
(0.623012 0.157776 0)
(0.624363 0.254955 0)
(0.617057 0.366982 0)
(0.603944 0.484554 0)
(0.416492 0.709785 0)
(0.0134929 0.00366367 0)
(-0.0751011 0.0322337 0)
(-0.196274 0.0242133 0)
(-0.241137 0.00660737 0)
(-0.233524 -0.0070349 0)
(-0.192194 -0.0150535 0)
(-0.132577 -0.0188831 0)
(-0.0639758 -0.0203183 0)
(0.00596417 -0.0194695 0)
(0.0708685 -0.0169961 0)
(0.124598 -0.0129747 0)
(0.163476 -0.0081586 0)
(0.184623 -0.00304689 0)
(0.186895 0.00183048 0)
(0.171251 0.00600836 0)
(0.14142 0.0095187 0)
(0.100768 0.0122419 0)
(0.0569032 0.0122205 0)
(0.0178717 0.00806925 0)
(-0.0262831 0.0207956 0)
(-0.137194 0.0759179 0)
(-0.235751 0.0493039 0)
(-0.25635 0.0111565 0)
(-0.239728 -0.0170218 0)
(-0.197497 -0.0342249 0)
(-0.138336 -0.0432832 0)
(-0.0708083 -0.0466602 0)
(-0.0022695 -0.0452356 0)
(0.0614453 -0.0398065 0)
(0.114896 -0.0310055 0)
(0.154598 -0.0200143 0)
(0.177662 -0.00791775 0)
(0.183365 0.00395461 0)
(0.172336 0.0144599 0)
(0.14618 0.0226312 0)
(0.108001 0.0274133 0)
(0.0639518 0.0274761 0)
(0.0212487 0.0237559 0)
(-0.0613818 0.0622015 0)
(-0.167726 0.120507 0)
(-0.245523 0.0681621 0)
(-0.257592 0.0113426 0)
(-0.238338 -0.0295163 0)
(-0.195318 -0.0547729 0)
(-0.136921 -0.0686507 0)
(-0.0706408 -0.0737187 0)
(-0.0035924 -0.0715858 0)
(0.058565 -0.0632759 0)
(0.110961 -0.049924 0)
(0.150327 -0.0330283 0)
(0.17394 -0.0141906 0)
(0.180687 0.00464199 0)
(0.170685 0.0216671 0)
(0.145941 0.0353991 0)
(0.109688 0.0443273 0)
(0.0672814 0.046602 0)
(0.0235435 0.0424196 0)
(-0.081751 0.109945 0)
(-0.184819 0.16519 0)
(-0.252545 0.0829457 0)
(-0.255975 0.00974568 0)
(-0.233826 -0.0431494 0)
(-0.189994 -0.0761637 0)
(-0.132023 -0.094835 0)
(-0.0664025 -0.101457 0)
(-0.00018235 -0.0984646 0)
(0.0610339 -0.0871103 0)
(0.11265 -0.0690734 0)
(0.151565 -0.0462704 0)
(0.175196 -0.0206939 0)
(0.182361 0.00515896 0)
(0.172875 0.028826 0)
(0.148681 0.0480939 0)
(0.112891 0.0609284 0)
(0.0705704 0.0653947 0)
(0.0255304 0.0619945 0)
(-0.0889033 0.161399 0)
(-0.190529 0.210896 0)
(-0.253482 0.0927783 0)
(-0.246998 0.00598052 0)
(-0.223027 -0.0577632 0)
(-0.179548 -0.0978861 0)
(-0.122685 -0.121364 0)
(-0.0577834 -0.129487 0)
(0.00788591 -0.125567 0)
(0.0686464 -0.111095 0)
(0.11984 -0.0883103 0)
(0.158354 -0.0595789 0)
(0.181677 -0.0272747 0)
(0.188627 0.0056199 0)
(0.178863 0.0359998 0)
(0.15421 0.0608933 0)
(0.117626 0.077743 0)
(0.074128 0.0846671 0)
(0.0272408 0.0826801 0)
(-0.0822183 0.185177 0)
(-0.181346 0.258024 0)
(-0.235734 0.0946683 0)
(-0.219345 -0.000253291 0)
(-0.197493 -0.0726026 0)
(-0.158379 -0.11815 0)
(-0.105594 -0.146884 0)
(-0.0429463 -0.156921 0)
(0.02149 -0.15234 0)
(0.0818075 -0.1348 0)
(0.132778 -0.10725 0)
(0.170946 -0.072597 0)
(0.193713 -0.0335955 0)
(0.19987 0.00634398 0)
(0.188986 0.0434972 0)
(0.162804 0.0741439 0)
(0.124197 0.0951899 0)
(0.0783177 0.104801 0)
(0.028855 0.104491 0)
(-0.0582569 0.3872 0)
(-0.128145 0.317956 0)
(-0.167329 0.0834088 0)
(-0.150325 -0.00938899 0)
(-0.141085 -0.0869933 0)
(-0.115631 -0.135416 0)
(-0.074465 -0.170142 0)
(-0.0181903 -0.182624 0)
(0.042653 -0.178362 0)
(0.101655 -0.158253 0)
(0.152192 -0.125995 0)
(0.189908 -0.0852657 0)
(0.211852 -0.0394173 0)
(0.216646 0.00768129 0)
(0.203796 0.0517524 0)
(0.174995 0.0883398 0)
(0.133122 0.113762 0)
(0.0836198 0.126171 0)
(0.0306277 0.127549 0)
(0.240976 0.168026 0)
(-0.017324 0.435507 0)
(0.0245346 0.066242 0)
(-0.00359315 -0.0128891 0)
(-0.0294132 -0.095511 0)
(-0.0334375 -0.151296 0)
(-0.0184375 -0.193258 0)
(0.0230569 -0.207836 0)
(0.0746668 -0.20424 0)
(0.129908 -0.182018 0)
(0.179174 -0.14518 0)
(0.216175 -0.0981937 0)
(0.236992 -0.0450589 0)
(0.239781 0.00974421 0)
(0.224048 0.0612005 0)
(0.191476 0.104173 0)
(0.145064 0.1343 0)
(0.0906913 0.149588 0)
(0.0329574 0.152148 0)
(0.0226031 -0.0332469 0)
(0.0770714 -0.139589 0)
(0.137462 -0.190318 0)
(0.190441 -0.208198 0)
(0.236448 -0.211582 0)
(0.278734 -0.209303 0)
(0.319118 -0.20478 0)
(0.358272 -0.199052 0)
(0.396298 -0.192152 0)
(0.43299 -0.183659 0)
(0.46799 -0.172892 0)
(0.500866 -0.158902 0)
(0.531078 -0.140414 0)
(0.557929 -0.115959 0)
(0.580825 -0.0841516 0)
(0.59973 -0.0435367 0)
(0.61541 0.00778251 0)
(0.629579 0.0720787 0)
(0.64506 0.151498 0)
(0.666389 0.247297 0)
(0.698838 0.359044 0)
(0.764675 0.492662 0)
(0.865734 0.769547 0)
(0.0288646 -0.084678 0)
(0.0975997 -0.206114 0)
(0.164509 -0.248383 0)
(0.215443 -0.256724 0)
(0.256592 -0.254323 0)
(0.294095 -0.249213 0)
(0.330304 -0.243271 0)
(0.365791 -0.236547 0)
(0.400516 -0.228581 0)
(0.434193 -0.218727 0)
(0.466469 -0.206231 0)
(0.497046 -0.190113 0)
(0.525587 -0.168976 0)
(0.55155 -0.141281 0)
(0.574532 -0.106093 0)
(0.594968 -0.0628215 0)
(0.614354 -0.0105104 0)
(0.635209 0.0519874 0)
(0.661244 0.125256 0)
(0.697999 0.208254 0)
(0.752892 0.297552 0)
(0.832648 0.390291 0)
(0.964017 0.495101 0)
(0.035112 -0.15596 0)
(0.13172 -0.287482 0)
(0.197802 -0.307329 0)
(0.237703 -0.30103 0)
(0.270255 -0.292854 0)
(0.30219 -0.28604 0)
(0.334431 -0.279506 0)
(0.366674 -0.272227 0)
(0.398473 -0.263416 0)
(0.429378 -0.252331 0)
(0.459006 -0.238277 0)
(0.487174 -0.220416 0)
(0.513775 -0.19728 0)
(0.53845 -0.167171 0)
(0.560998 -0.129778 0)
(0.582225 -0.0856254 0)
(0.604016 -0.0346413 0)
(0.628964 0.0235315 0)
(0.660105 0.0881465 0)
(0.701264 0.156896 0)
(0.757523 0.223906 0)
(0.830218 0.283079 0)
(0.930396 0.328639 0)
(0.0632021 -0.248348 0)
(0.191776 -0.384602 0)
(0.231415 -0.360226 0)
(0.248713 -0.335778 0)
(0.272985 -0.323744 0)
(0.301564 -0.3165 0)
(0.331502 -0.309715 0)
(0.361506 -0.301877 0)
(0.390883 -0.292179 0)
(0.419166 -0.279888 0)
(0.446005 -0.264444 0)
(0.471229 -0.245228 0)
(0.494806 -0.220777 0)
(0.516881 -0.189232 0)
(0.538091 -0.150858 0)
(0.559765 -0.107231 0)
(0.583842 -0.0589195 0)
(0.612297 -0.00617456 0)
(0.647053 0.049458 0)
(0.690968 0.104668 0)
(0.747019 0.154342 0)
(0.814525 0.198838 0)
(0.895671 0.234981 0)
(0.17502 -0.373809 0)
(0.272403 -0.4733 0)
(0.245008 -0.362826 0)
(0.240336 -0.338682 0)
(0.265005 -0.334717 0)
(0.294708 -0.331085 0)
(0.324373 -0.325207 0)
(0.353024 -0.317207 0)
(0.38021 -0.306821 0)
(0.405667 -0.293361 0)
(0.429126 -0.276437 0)
(0.450209 -0.255914 0)
(0.468656 -0.230423 0)
(0.485365 -0.197588 0)
(0.5027 -0.158568 0)
(0.523419 -0.116825 0)
(0.550271 -0.0730249 0)
(0.58621 -0.0268157 0)
(0.631644 0.0213591 0)
(0.685313 0.0668192 0)
(0.741895 0.105542 0)
(0.802538 0.138738 0)
(0.872209 0.164402 0)
(0.367948 -0.596852 0)
(0.19618 -0.432566 0)
(0.179691 -0.317834 0)
(0.229 -0.346946 0)
(0.261621 -0.355224 0)
(0.291431 -0.352823 0)
(0.32011 -0.346321 0)
(0.347256 -0.337726 0)
(0.372348 -0.32683 0)
(0.395299 -0.312926 0)
(0.416095 -0.295186 0)
(0.433853 -0.273092 0)
(0.447633 -0.246361 0)
(0.460372 -0.214086 0)
(0.476348 -0.177446 0)
(0.4942 -0.137827 0)
(0.515573 -0.0948236 0)
(0.545559 -0.0489896 0)
(0.592478 -0.00130216 0)
(0.662124 0.0432744 0)
(0.730671 0.0761797 0)
(0.798668 0.0988852 0)
(0.868198 0.115424 0)
(-0.0923283 -0.991061 0)
(-0.0141291 -0.45143 0)
(0.0881424 -0.356455 0)
(0.176006 -0.415781 0)
(0.241012 -0.446345 0)
(0.298132 -0.446804 0)
(0.350893 -0.436724 0)
(0.398998 -0.422827 0)
(0.442948 -0.405781 0)
(0.48366 -0.384897 0)
(0.521964 -0.359141 0)
(0.558523 -0.32863 0)
(0.593591 -0.295798 0)
(0.627463 -0.262911 0)
(0.660619 -0.230904 0)
(0.692465 -0.202186 0)
(0.721686 -0.17989 0)
(0.747851 -0.165663 0)
(0.780194 -0.153464 0)
(0.760345 -0.0929375 0)
(0.737658 -0.00317205 0)
(0.78695 0.0471761 0)
(0.856306 0.0781874 0)
(-0.099834 -0.660767 0)
(-0.0306584 -0.566247 0)
(0.0792558 -0.505432 0)
(0.172412 -0.492814 0)
(0.245177 -0.485378 0)
(0.306898 -0.472606 0)
(0.364125 -0.456872 0)
(0.418232 -0.439808 0)
(0.469539 -0.42128 0)
(0.518642 -0.40046 0)
(0.566368 -0.376413 0)
(0.613584 -0.348715 0)
(0.660824 -0.317868 0)
(0.708146 -0.284464 0)
(0.755375 -0.248742 0)
(0.801931 -0.211291 0)
(0.846535 -0.172841 0)
(0.887222 -0.13302 0)
(0.925015 -0.0906984 0)
(0.955779 -0.0589046 0)
(0.994883 -0.0738965 0)
(1.04187 -0.121612 0)
(1.08073 -0.147432 0)
(-0.00695613 -0.644373 0)
(0.0200704 -0.646559 0)
(0.0997755 -0.598661 0)
(0.174686 -0.570856 0)
(0.2413 -0.551952 0)
(0.301508 -0.533585 0)
(0.358555 -0.514508 0)
(0.41372 -0.494857 0)
(0.467372 -0.474299 0)
(0.519928 -0.452131 0)
(0.572019 -0.427602 0)
(0.624377 -0.40024 0)
(0.677572 -0.370021 0)
(0.731851 -0.337097 0)
(0.787257 -0.301592 0)
(0.843675 -0.26379 0)
(0.90075 -0.224068 0)
(0.958169 -0.182456 0)
(1.01735 -0.138733 0)
(1.08132 -0.0984221 0)
(1.15015 -0.0756486 0)
(1.21326 -0.0683833 0)
(1.26159 -0.0515164 0)
(0.0132669 -0.672779 0)
(0.0480851 -0.70389 0)
(0.107327 -0.665509 0)
(0.167473 -0.635972 0)
(0.225589 -0.613058 0)
(0.281393 -0.592093 0)
(0.335877 -0.571463 0)
(0.389629 -0.550706 0)
(0.442877 -0.529348 0)
(0.495888 -0.506787 0)
(0.549099 -0.482426 0)
(0.603072 -0.455845 0)
(0.658353 -0.426885 0)
(0.715374 -0.395553 0)
(0.774501 -0.361945 0)
(0.836082 -0.326325 0)
(0.900454 -0.289149 0)
(0.968103 -0.251004 0)
(1.04022 -0.212966 0)
(1.11798 -0.178762 0)
(1.1984 -0.15513 0)
(1.27374 -0.139556 0)
(1.33898 -0.117479 0)
(0.0184951 -0.69879 0)
(0.0543143 -0.752007 0)
(0.101273 -0.718838 0)
(0.150806 -0.69045 0)
(0.201109 -0.666924 0)
(0.251418 -0.645364 0)
(0.301781 -0.624433 0)
(0.352324 -0.603541 0)
(0.403122 -0.582213 0)
(0.454323 -0.559958 0)
(0.506229 -0.536324 0)
(0.559279 -0.510984 0)
(0.613983 -0.483787 0)
(0.670876 -0.454724 0)
(0.73052 -0.423913 0)
(0.793516 -0.391644 0)
(0.860491 -0.358423 0)
(0.9321 -0.32502 0)
(1.00905 -0.292672 0)
(1.09141 -0.26371 0)
(1.17671 -0.240603 0)
(1.2608 -0.220513 0)
(1.34133 -0.194221 0)
(0.021374 -0.734564 0)
(0.0521593 -0.791838 0)
(0.088294 -0.762245 0)
(0.129062 -0.736365 0)
(0.172107 -0.714027 0)
(0.216427 -0.693194 0)
(0.261692 -0.672877 0)
(0.307789 -0.652565 0)
(0.354685 -0.631867 0)
(0.402455 -0.610419 0)
(0.451319 -0.587913 0)
(0.501638 -0.564147 0)
(0.553888 -0.539049 0)
(0.608626 -0.512674 0)
(0.666482 -0.485198 0)
(0.728135 -0.45694 0)
(0.794272 -0.428393 0)
(0.865526 -0.400254 0)
(0.942354 -0.373466 0)
(1.02465 -0.349227 0)
(1.11098 -0.328131 0)
(1.1995 -0.30774 0)
(1.28933 -0.281815 0)
(0.019621 -0.768783 0)
(0.0449163 -0.822004 0)
(0.0725071 -0.797039 0)
(0.105874 -0.774733 0)
(0.142153 -0.754571 0)
(0.180346 -0.735243 0)
(0.220015 -0.716137 0)
(0.260953 -0.696901 0)
(0.303076 -0.677263 0)
(0.346425 -0.656993 0)
(0.391176 -0.635924 0)
(0.437644 -0.613989 0)
(0.486266 -0.591229 0)
(0.537581 -0.567789 0)
(0.592205 -0.543912 0)
(0.650804 -0.519942 0)
(0.714038 -0.496334 0)
(0.782493 -0.473644 0)
(0.856579 -0.452503 0)
(0.936338 -0.433457 0)
(1.02119 -0.41637 0)
(1.1106 -0.399222 0)
(1.2045 -0.377334 0)
(0.015714 -0.798166 0)
(0.0358106 -0.844267 0)
(0.0568219 -0.82475 0)
(0.0837836 -0.806375 0)
(0.113781 -0.788784 0)
(0.145973 -0.771359 0)
(0.179938 -0.753825 0)
(0.215459 -0.736 0)
(0.25245 -0.717738 0)
(0.290944 -0.698936 0)
(0.331101 -0.679563 0)
(0.37321 -0.659681 0)
(0.417674 -0.639446 0)
(0.464995 -0.619097 0)
(0.515744 -0.598938 0)
(0.570535 -0.579333 0)
(0.629978 -0.560697 0)
(0.694624 -0.543479 0)
(0.764908 -0.528108 0)
(0.841078 -0.514826 0)
(0.923128 -0.503265 0)
(1.01128 -0.491711 0)
(1.10607 -0.476293 0)
(0.0114783 -0.821364 0)
(0.026843 -0.860555 0)
(0.0428108 -0.8466 0)
(0.0641997 -0.831995 0)
(0.0884766 -0.817036 0)
(0.11502 -0.801688 0)
(0.143487 -0.785943 0)
(0.173701 -0.769765 0)
(0.205601 -0.753125 0)
(0.239237 -0.736039 0)
(0.274774 -0.718598 0)
(0.312488 -0.700981 0)
(0.352755 -0.683449 0)
(0.396037 -0.666325 0)
(0.442854 -0.649966 0)
(0.493762 -0.634751 0)
(0.549314 -0.621069 0)
(0.610031 -0.609305 0)
(0.676375 -0.599797 0)
(0.748746 -0.592684 0)
(0.827479 -0.587598 0)
(0.913227 -0.583091 0)
(1.00696 -0.575814 0)
(0.00772244 -0.838306 0)
(0.0190356 -0.872452 0)
(0.031125 -0.863551 0)
(0.0477066 -0.85229 0)
(0.0669108 -0.839851 0)
(0.0883332 -0.826626 0)
(0.111737 -0.812792 0)
(0.137009 -0.798432 0)
(0.164135 -0.783618 0)
(0.193198 -0.76847 0)
(0.224376 -0.753185 0)
(0.257945 -0.738044 0)
(0.294262 -0.723398 0)
(0.333751 -0.709637 0)
(0.376881 -0.697163 0)
(0.424148 -0.686366 0)
(0.476046 -0.67762 0)
(0.533055 -0.671282 0)
(0.595631 -0.667665 0)
(0.66424 -0.666929 0)
(0.739381 -0.668819 0)
(0.821933 -0.672163 0)
(0.913146 -0.674021 0)
(0.00486862 -0.849899 0)
(0.0128396 -0.881122 0)
(0.0218777 -0.876402 0)
(0.0343845 -0.867979 0)
(0.0492146 -0.857869 0)
(0.0661463 -0.846733 0)
(0.0850516 -0.834868 0)
(0.105892 -0.822444 0)
(0.128709 -0.80962 0)
(0.153624 -0.796604 0)
(0.180839 -0.783679 0)
(0.210629 -0.771211 0)
(0.243335 -0.759621 0)
(0.279342 -0.749354 0)
(0.319068 -0.740839 0)
(0.362941 -0.73447 0)
(0.411389 -0.730612 0)
(0.464823 -0.729609 0)
(0.523649 -0.731786 0)
(0.588315 -0.737384 0)
(0.659346 -0.746331 0)
(0.737696 -0.757757 0)
(0.824779 -0.76909 0)
(0.00296377 -0.8574 0)
(0.0082979 -0.887374 0)
(0.0148841 -0.88585 0)
(0.0240255 -0.879783 0)
(0.0351846 -0.871779 0)
(0.0482864 -0.862647 0)
(0.0633037 -0.852753 0)
(0.0802724 -0.842335 0)
(0.0992899 -0.83162 0)
(0.120517 -0.820885 0)
(0.144173 -0.810484 0)
(0.170535 -0.800844 0)
(0.199919 -0.792438 0)
(0.23267 -0.785743 0)
(0.269144 -0.781204 0)
(0.309694 -0.779207 0)
(0.35466 -0.780096 0)
(0.40436 -0.784204 0)
(0.459104 -0.791882 0)
(0.519245 -0.803475 0)
(0.585234 -0.819131 0)
(0.657988 -0.838316 0)
(0.738979 -0.858832 0)
(0.00184627 -0.862078 0)
(0.0052209 -0.891769 0)
(0.00983413 -0.892536 0)
(0.016276 -0.888395 0)
(0.0244283 -0.882261 0)
(0.0343347 -0.875006 0)
(0.0460559 -0.867039 0)
(0.0596937 -0.858643 0)
(0.0753949 -0.850098 0)
(0.0933512 -0.841733 0)
(0.113796 -0.833952 0)
(0.136993 -0.827222 0)
(0.163231 -0.822045 0)
(0.192802 -0.818914 0)
(0.22599 -0.818265 0)
(0.263063 -0.820463 0)
(0.304259 -0.825818 0)
(0.349779 -0.834638 0)
(0.399802 -0.847296 0)
(0.454535 -0.864243 0)
(0.514278 -0.885862 0)
(0.579832 -0.911986 0)
(0.652635 -0.94083 0)
(0.00130796 -0.865023 0)
(0.00332065 -0.894721 0)
(0.00638375 -0.897044 0)
(0.0107189 -0.894449 0)
(0.0164574 -0.889938 0)
(0.0237397 -0.884401 0)
(0.0326981 -0.878269 0)
(0.043488 -0.871857 0)
(0.0562934 -0.865478 0)
(0.0713255 -0.859496 0)
(0.0888173 -0.854342 0)
(0.109014 -0.850506 0)
(0.132161 -0.848497 0)
(0.158489 -0.848801 0)
(0.188205 -0.851829 0)
(0.221483 -0.857906 0)
(0.258452 -0.86729 0)
(0.299186 -0.880248 0)
(0.343714 -0.897157 0)
(0.39207 -0.918562 0)
(0.444358 -0.945078 0)
(0.501205 -0.976924 0)
(0.563941 -1.0128 0)
(0.00115265 -0.867057 0)
(0.00229335 -0.896587 0)
(0.00418992 -0.899899 0)
(0.00691744 -0.898499 0)
(0.0107482 -0.895354 0)
(0.0158964 -0.891347 0)
(0.0225498 -0.886916 0)
(0.030902 -0.882392 0)
(0.0411593 -0.878104 0)
(0.0535381 -0.874433 0)
(0.068259 -0.871819 0)
(0.0855351 -0.870753 0)
(0.105561 -0.871733 0)
(0.128499 -0.875219 0)
(0.154476 -0.881584 0)
(0.183573 -0.891092 0)
(0.215814 -0.903933 0)
(0.251147 -0.920316 0)
(0.289453 -0.940596 0)
(0.330581 -0.96539 0)
(0.374412 -0.995518 0)
(0.42137 -1.0316 0)
(0.472621 -1.07292 0)
(0.00119395 -0.868702 0)
(0.00185767 -0.897712 0)
(0.00292741 -0.901538 0)
(0.00444616 -0.901003 0)
(0.00678352 -0.898964 0)
(0.0102041 -0.896277 0)
(0.0149327 -0.893377 0)
(0.0211857 -0.890592 0)
(0.0291762 -0.888253 0)
(0.0391121 -0.886737 0)
(0.0511888 -0.88648 0)
(0.0655781 -0.887954 0)
(0.0824166 -0.891633 0)
(0.101798 -0.897938 0)
(0.123768 -0.907186 0)
(0.148324 -0.919573 0)
(0.175395 -0.935206 0)
(0.20482 -0.954214 0)
(0.236338 -0.976907 0)
(0.269622 -1.00393 0)
(0.304325 -1.03627 0)
(0.340649 -1.07494 0)
(0.379552 -1.11993 0)
(0.00133629 -0.870298 0)
(0.00180111 -0.898348 0)
(0.00228722 -0.902312 0)
(0.00290738 -0.902332 0)
(0.00408366 -0.901138 0)
(0.00610494 -0.899549 0)
(0.00921872 -0.897976 0)
(0.0136492 -0.896735 0)
(0.0196024 -0.896142 0)
(0.0272654 -0.896556 0)
(0.0367989 -0.898389 0)
(0.0483259 -0.902085 0)
(0.0619222 -0.908081 0)
(0.0776118 -0.916749 0)
(0.0953688 -0.928346 0)
(0.115116 -0.942989 0)
(0.136704 -0.960694 0)
(0.159881 -0.981494 0)
(0.184266 -1.00562 0)
(0.20937 -1.03369 0)
(0.23463 -1.06683 0)
(0.260021 -1.10641 0)
(0.286255 -1.15321 0)
(0.00149217 -0.871977 0)
(0.00192528 -0.898714 0)
(0.00200115 -0.902484 0)
(0.00196538 -0.902768 0)
(0.0022331 -0.902168 0)
(0.0031131 -0.901446 0)
(0.00486122 -0.900979 0)
(0.00769664 -0.901053 0)
(0.0118065 -0.901955 0)
(0.0173466 -0.904015 0)
(0.0244362 -0.90761 0)
(0.0331458 -0.913144 0)
(0.0434895 -0.921007 0)
(0.0554251 -0.931521 0)
(0.0688619 -0.944878 0)
(0.0836608 -0.961117 0)
(0.0996119 -0.980157 0)
(0.116391 -1.00192 0)
(0.133526 -1.02652 0)
(0.150391 -1.05453 0)
(0.16623 -1.08709 0)
(0.180788 -1.12593 0)
(0.194518 -1.17265 0)
(0.00159859 -0.873784 0)
(0.00208435 -0.898944 0)
(0.00186105 -0.90222 0)
(0.00134334 -0.902515 0)
(0.000889091 -0.902276 0)
(0.000828781 -0.902194 0)
(0.00141365 -0.9026 0)
(0.00284506 -0.903737 0)
(0.00528267 -0.905856 0)
(0.00884579 -0.909242 0)
(0.0136071 -0.914228 0)
(0.0195832 -0.921172 0)
(0.0267283 -0.930414 0)
(0.0349385 -0.942221 0)
(0.0440657 -0.956724 0)
(0.0539201 -0.973889 0)
(0.0642449 -0.993537 0)
(0.0746672 -1.01547 0)
(0.0846442 -1.03966 0)
(0.0934557 -1.06655 0)
(0.10018 -1.09729 0)
(0.104334 -1.13384 0)
(0.106111 -1.17866 0)
(0.00162326 -0.875694 0)
(0.00219137 -0.89909 0)
(0.00172218 -0.901626 0)
(0.000827036 -0.901719 0)
(-0.000211526 -0.90163 0)
(-0.0010546 -0.901971 0)
(-0.00146623 -0.903017 0)
(-0.0012711 -0.90496 0)
(-0.000343769 -0.907999 0)
(0.00139395 -0.912372 0)
(0.00396762 -0.91836 0)
(0.00734104 -0.926267 0)
(0.0114121 -0.936383 0)
(0.016021 -0.948921 0)
(0.020968 -0.963958 0)
(0.0260205 -0.981391 0)
(0.0308866 -1.00095 0)
(0.035161 -1.02231 0)
(0.0382585 -1.04528 0)
(0.0393992 -1.07013 0)
(0.0375437 -1.09794 0)
(0.0319648 -1.13085 0)
(0.0225936 -1.17191 0)
(0.00156886 -0.877647 0)
(0.00219985 -0.899129 0)
(0.0014865 -0.900764 0)
(0.000271565 -0.900481 0)
(-0.00125192 -0.900358 0)
(-0.00275187 -0.900925 0)
(-0.00401683 -0.902387 0)
(-0.00490394 -0.90488 0)
(-0.0053261 -0.908545 0)
(-0.00524818 -0.913563 0)
(-0.00469134 -0.920161 0)
(-0.00374134 -0.928587 0)
(-0.00255156 -0.939078 0)
(-0.00133163 -0.951798 0)
(-0.000326276 -0.966775 0)
(0.000194143 -0.983845 0)
(-9.03942e-05 -1.00266 0)
(-0.00160449 -1.02276 0)
(-0.00494429 -1.0438 0)
(-0.0109397 -1.06582 0)
(-0.0207155 -1.08974 0)
(-0.0350269 -1.11776 0)
(-0.0545716 -1.15348 0)
(0.00145495 -0.879553 0)
(0.00209296 -0.899009 0)
(0.00109599 -0.89966 0)
(-0.000407075 -0.898866 0)
(-0.00234213 -0.89856 0)
(-0.00439349 -0.899178 0)
(-0.00638214 -0.900854 0)
(-0.00820285 -0.903655 0)
(-0.00980946 -0.907662 0)
(-0.0112099 -0.912998 0)
(-0.0124696 -0.919829 0)
(-0.013719 -0.92835 0)
(-0.0151561 -0.938744 0)
(-0.0170331 -0.951129 0)
(-0.0196337 -0.965488 0)
(-0.0232616 -0.981611 0)
(-0.0282605 -0.999078 0)
(-0.0350649 -1.01732 0)
(-0.0442667 -1.03579 0)
(-0.0567071 -1.05431 0)
(-0.0735447 -1.07355 0)
(-0.0956228 -1.09561 0)
(-0.124145 -1.12462 0)
(0.00129516 -0.881323 0)
(0.00186662 -0.898679 0)
(0.000526979 -0.898302 0)
(-0.00124013 -0.896916 0)
(-0.00352949 -0.896318 0)
(-0.00603696 -0.896845 0)
(-0.00862467 -0.898554 0)
(-0.0112297 -0.901443 0)
(-0.0138483 -0.90553 0)
(-0.0165302 -0.910878 0)
(-0.0193809 -0.917595 0)
(-0.0225695 -0.925821 0)
(-0.0263308 -0.935687 0)
(-0.0309512 -0.947267 0)
(-0.0367462 -0.960505 0)
(-0.0440481 -0.975154 0)
(-0.0532221 -0.990736 0)
(-0.0647073 -1.00658 0)
(-0.0790799 -1.02197 0)
(-0.0971651 -1.03645 0)
(-0.12012 -1.05037 0)
(-0.148882 -1.06562 0)
(-0.185087 -1.08653 0)
(0.00109988 -0.882887 0)
(0.00154714 -0.898068 0)
(-0.000204142 -0.896671 0)
(-0.00222615 -0.894664 0)
(-0.00481312 -0.893707 0)
(-0.00768104 -0.894035 0)
(-0.010741 -0.895626 0)
(-0.0139762 -0.898409 0)
(-0.0174257 -0.902342 0)
(-0.0211781 -0.907428 0)
(-0.0253743 -0.91372 0)
(-0.0302151 -0.921304 0)
(-0.0359632 -0.930263 0)
(-0.04293 -0.940628 0)
(-0.0514544 -0.952308 0)
(-0.0618919 -0.965024 0)
(-0.0746253 -0.978258 0)
(-0.0900957 -0.991251 0)
(-0.108857 -1.00312 0)
(-0.131696 -1.01314 0)
(-0.159737 -1.02129 0)
(-0.193981 -1.02908 0)
(-0.236409 -1.04072 0)
(0.000937405 -0.884201 0)
(0.00118745 -0.897083 0)
(-0.00107183 -0.894745 0)
(-0.00332913 -0.892142 0)
(-0.0061537 -0.890806 0)
(-0.0092802 -0.890864 0)
(-0.012679 -0.892215 0)
(-0.0163829 -0.894727 0)
(-0.0204731 -0.8983 0)
(-0.0250737 -0.902885 0)
(-0.0303551 -0.908482 0)
(-0.0365423 -0.915129 0)
(-0.0439167 -0.922861 0)
(-0.0528052 -0.931668 0)
(-0.0635605 -0.941427 0)
(-0.0765532 -0.951835 0)
(-0.0921789 -0.962338 0)
(-0.110876 -0.972113 0)
(-0.133171 -0.980129 0)
(-0.159795 -0.985397 0)
(-0.191801 -0.987496 0)
(-0.230207 -0.987425 0)
(-0.277195 -0.988976 0)
(0.000908961 -0.88527 0)
(0.000857614 -0.895605 0)
(-0.00204445 -0.892497 0)
(-0.004498 -0.889389 0)
(-0.00748933 -0.887701 0)
(-0.010761 -0.887453 0)
(-0.0143555 -0.888473 0)
(-0.0183584 -0.890577 0)
(-0.0228911 -0.893617 0)
(-0.0281086 -0.897496 0)
(-0.0342045 -0.902173 0)
(-0.0414197 -0.907639 0)
(-0.0500462 -0.913886 0)
(-0.0604162 -0.920865 0)
(-0.072887 -0.928423 0)
(-0.0878344 -0.936232 0)
(-0.105658 -0.943717 0)
(-0.126788 -0.950007 0)
(-0.151715 -0.95395 0)
(-0.1811 -0.954317 0)
(-0.215888 -0.950277 0)
(-0.257049 -0.942253 0)
(-0.306788 -0.933402 0)
(0.00108038 -0.886233 0)
(0.000600726 -0.893463 0)
(-0.00312019 -0.889897 0)
(-0.00568504 -0.886458 0)
(-0.00875195 -0.884495 0)
(-0.0120391 -0.883935 0)
(-0.0156749 -0.88456 0)
(-0.019799 -0.886145 0)
(-0.0245694 -0.888507 0)
(-0.030166 -0.891516 0)
(-0.0367978 -0.895091 0)
(-0.0447146 -0.899184 0)
(-0.0542106 -0.903751 0)
(-0.0656156 -0.908703 0)
(-0.079282 -0.913859 0)
(-0.0955812 -0.918872 0)
(-0.114906 -0.923152 0)
(-0.137668 -0.925794 0)
(-0.164316 -0.925563 0)
(-0.195423 -0.921023 0)
(-0.231798 -0.910965 0)
(-0.274304 -0.895219 0)
(-0.325002 -0.876195 0)
(0.00133297 -0.887398 0)
(0.000413075 -0.890457 0)
(-0.00436696 -0.88694 0)
(-0.00686435 -0.883431 0)
(-0.00988203 -0.88131 0)
(-0.0130345 -0.880462 0)
(-0.0165459 -0.880646 0)
(-0.0206072 -0.881624 0)
(-0.0254059 -0.883194 0)
(-0.0311386 -0.885202 0)
(-0.0380225 -0.887537 0)
(-0.0463087 -0.89012 0)
(-0.0562868 -0.892869 0)
(-0.0682777 -0.895665 0)
(-0.0826223 -0.898297 0)
(-0.0996795 -0.900403 0)
(-0.119825 -0.901386 0)
(-0.143444 -0.900326 0)
(-0.170929 -0.895935 0)
(-0.202756 -0.886624 0)
(-0.239575 -0.870855 0)
(-0.282097 -0.847898 0)
(-0.332128 -0.819397 0)
(0.00115923 -0.888895 0)
(0.000295288 -0.886429 0)
(-0.00593296 -0.883705 0)
(-0.00804004 -0.880463 0)
(-0.0108362 -0.878318 0)
(-0.0136821 -0.877209 0)
(-0.0168946 -0.876919 0)
(-0.0207065 -0.877223 0)
(-0.0253234 -0.877914 0)
(-0.0309481 -0.878827 0)
(-0.0377973 -0.879829 0)
(-0.0461162 -0.880813 0)
(-0.0561844 -0.881666 0)
(-0.0683097 -0.882238 0)
(-0.082818 -0.882294 0)
(-0.100051 -0.88146 0)
(-0.120363 -0.879138 0)
(-0.144103 -0.874416 0)
(-0.171604 -0.865984 0)
(-0.203232 -0.852155 0)
(-0.239466 -0.831129 0)
(-0.280836 -0.801681 0)
(-0.328835 -0.764721 0)
(-0.000637856 -0.889963 0)
(0.000225468 -0.881382 0)
(-0.00799877 -0.880432 0)
(-0.00922688 -0.877804 0)
(-0.0115779 -0.87574 0)
(-0.01393 -0.874379 0)
(-0.0166698 -0.873581 0)
(-0.0200527 -0.873157 0)
(-0.0242851 -0.872912 0)
(-0.0295627 -0.872674 0)
(-0.0360918 -0.872297 0)
(-0.0441048 -0.871648 0)
(-0.0538667 -0.870583 0)
(-0.0656698 -0.868923 0)
(-0.0798243 -0.866413 0)
(-0.0966557 -0.862669 0)
(-0.116496 -0.857103 0)
(-0.139661 -0.848827 0)
(-0.166426 -0.836549 0)
(-0.197046 -0.81854 0)
(-0.231822 -0.792812 0)
(-0.271094 -0.757717 0)
(-0.316021 -0.71349 0)
(-0.00624377 -0.888958 0)
(-6.67275e-05 -0.875581 0)
(-0.0106664 -0.877491 0)
(-0.0103879 -0.875738 0)
(-0.0120444 -0.873767 0)
(-0.0137249 -0.872121 0)
(-0.0158395 -0.870775 0)
(-0.0186381 -0.869586 0)
(-0.022305 -0.868379 0)
(-0.0270132 -0.866982 0)
(-0.0329481 -0.865233 0)
(-0.0403218 -0.862973 0)
(-0.0493801 -0.860029 0)
(-0.0603978 -0.856193 0)
(-0.0736704 -0.851187 0)
(-0.0895102 -0.84462 0)
(-0.108235 -0.835922 0)
(-0.13014 -0.824248 0)
(-0.155459 -0.808358 0)
(-0.184352 -0.786542 0)
(-0.216955 -0.756706 0)
(-0.253411 -0.716861 0)
(-0.294554 -0.66661 0)
(-0.0184145 -0.885284 0)
(-0.000891954 -0.869548 0)
(-0.0139124 -0.875274 0)
(-0.0113818 -0.874489 0)
(-0.0121163 -0.872497 0)
(-0.013002 -0.870477 0)
(-0.0143904 -0.86853 0)
(-0.0164942 -0.866558 0)
(-0.0194544 -0.8644 0)
(-0.0234049 -0.86188 0)
(-0.0284986 -0.858821 0)
(-0.0349194 -0.855036 0)
(-0.042888 -0.85032 0)
(-0.0526575 -0.84443 0)
(-0.0645076 -0.837063 0)
(-0.0787405 -0.82782 0)
(-0.0956701 -0.816149 0)
(-0.115589 -0.801256 0)
(-0.138721 -0.781989 0)
(-0.165178 -0.756717 0)
(-0.194968 -0.72333 0)
(-0.228057 -0.679594 0)
(-0.264959 -0.624527 0)
(-0.0398424 -0.879157 0)
(-0.00148143 -0.865643 0)
(-0.0175127 -0.874552 0)
(-0.0120138 -0.87451 0)
(-0.0116345 -0.872231 0)
(-0.0116852 -0.869662 0)
(-0.0123223 -0.867039 0)
(-0.0136868 -0.864275 0)
(-0.0158581 -0.861211 0)
(-0.0189162 -0.857658 0)
(-0.0229706 -0.853412 0)
(-0.0281679 -0.848257 0)
(-0.0346948 -0.841948 0)
(-0.0427752 -0.834207 0)
(-0.0526652 -0.824696 0)
(-0.0646527 -0.812996 0)
(-0.0790497 -0.798562 0)
(-0.0961633 -0.780651 0)
(-0.116244 -0.758208 0)
(-0.139417 -0.729735 0)
(-0.16565 -0.693201 0)
(-0.194794 -0.646241 0)
(-0.227075 -0.587339 0)
(-0.0740988 -0.864651 0)
(0.000419902 -0.870257 0)
(-0.0208014 -0.877444 0)
(-0.0121341 -0.876963 0)
(-0.0104119 -0.873867 0)
(-0.00966504 -0.87047 0)