/*--------------------------------*- C++ -*----------------------------------*\
  =========                 |
  \\      /  F ield         | OpenFOAM: The Open Source CFD Toolbox
   \\    /   O peration     | Website:  https://openfoam.org
    \\  /    A nd           | Version:  7
     \\/     M anipulation  |
\*---------------------------------------------------------------------------*/
FoamFile
{
    version     2.0;
    format      ascii;
    class       scalarField;
    location    "0.0125/lagrangian/dsmc";
    object      Ei;
}
// * * * * * * * * * * * * * * * * * * * * * * * * * * * * * * * * * * * * * //


238255
(
9.31376e-22
1.08079e-21
3.96131e-21
2.07488e-21
7.71052e-23
1.71872e-21
1.03178e-22
1.11471e-21
1.81629e-21
2.67968e-21
1.63225e-21
2.63791e-21
3.52513e-21
1.75488e-21
1.61245e-21
1.36709e-21
5.08135e-22
2.74022e-21
7.67393e-22
4.24064e-23
2.33982e-23
2.4273e-21
1.42365e-21
2.69368e-21
1.06212e-21
2.3016e-21
4.83769e-22
5.84655e-21
5.76626e-22
1.03714e-21
7.30208e-22
4.54434e-22
9.7709e-22
2.14665e-22
7.22046e-24
5.10677e-21
9.97579e-22
1.14134e-21
5.81605e-22
4.25537e-21
1.1364e-22
1.10836e-21
2.1374e-21
1.507e-21
5.06206e-22
1.1979e-21
1.0838e-22
6.28338e-22
8.01324e-22
2.17733e-21
4.47061e-21
1.57318e-22
8.47351e-22
2.31708e-22
2.65782e-21
2.59294e-22
6.48051e-22
8.30404e-22
2.07467e-21
3.26482e-21
4.44053e-21
6.77799e-23
5.33468e-21
1.37721e-22
1.12165e-21
1.07094e-22
2.46226e-21
6.21282e-22
1.91995e-21
4.49912e-23
4.1422e-21
1.56752e-21
7.78978e-21
4.16662e-22
3.54733e-21
4.37586e-21
2.74167e-22
2.09218e-21
3.66082e-21
8.02196e-22
2.94554e-21
7.42462e-22
1.58062e-21
1.32832e-21
1.60538e-21
8.90571e-22
5.71727e-23
9.16259e-22
3.55948e-21
1.0214e-21
2.03057e-22
1.82434e-22
8.66738e-22
1.07543e-21
6.34696e-22
5.51391e-22
2.05342e-21
1.04395e-21
2.78918e-21
3.40152e-21
8.7037e-22
9.29951e-23
3.68673e-22
5.67728e-23
5.97089e-22
1.06978e-21
1.33549e-21
1.13816e-21
1.36977e-21
1.21701e-21
2.26563e-21
4.41321e-21
9.69685e-22
7.84743e-21
2.71284e-21
1.80562e-21
1.09938e-21
2.4891e-22
1.0594e-21
3.28376e-22
2.86617e-22
1.11469e-21
4.19741e-21
1.75707e-21
5.48784e-21
3.40916e-21
1.28294e-22
1.18071e-21
5.42637e-22
2.72558e-21
1.28287e-22
6.36117e-21
7.53741e-22
2.96411e-21
2.92086e-21
1.41489e-22
9.0319e-22
1.02203e-22
3.54276e-23
2.56473e-21
2.57522e-21
6.58325e-22
1.64039e-21
1.99218e-21
1.79764e-22
7.09481e-22
1.16802e-21
9.08467e-22
4.74704e-22
1.87521e-21
2.86735e-22
4.96646e-21
1.40992e-21
3.80755e-21
1.60764e-21
2.12154e-21
8.1519e-21
1.20187e-21
1.73237e-21
1.03351e-21
8.46017e-22
3.79845e-22
1.02867e-21
1.04597e-21
2.98625e-21
2.15837e-21
6.25386e-22
4.22188e-22
6.61545e-21
1.43306e-21
2.84961e-22
2.54388e-22
2.11768e-21
2.91811e-24
1.09882e-21
6.51585e-22
4.35132e-22
6.95425e-23
2.69771e-21
1.35929e-21
4.29435e-22
1.6506e-22
5.20554e-22
4.73322e-22
2.9582e-21
6.95854e-23
1.13662e-22
9.85315e-22
2.05377e-21
1.43279e-21
3.52926e-21
8.76773e-22
4.52555e-21
8.52706e-22
1.54364e-21
6.70042e-22
8.40309e-22
5.03807e-21
1.37139e-21
1.45047e-21
3.47437e-21
3.05124e-21
7.46191e-21
2.46438e-21
3.26896e-21
1.83783e-21
1.0528e-21
7.72309e-22
3.04206e-21
4.79149e-22
1.28145e-22
3.80237e-22
5.53329e-21
4.68695e-22
7.93495e-23
8.74601e-23
2.54624e-21
5.3349e-22
1.46012e-21
2.81263e-21
6.4385e-22
2.74036e-22
4.6251e-22
1.09005e-21
5.68868e-21
3.04813e-21
1.29699e-20
2.89295e-21
4.70542e-21
9.93729e-22
3.13129e-22
6.11284e-21
2.13746e-21
4.0275e-21
2.35796e-21
1.63189e-21
2.53421e-21
9.48278e-22
3.94532e-21
1.36426e-21
8.50511e-23
1.59362e-21
1.65048e-22
1.5197e-21
3.10923e-22
2.36624e-21
2.10603e-22
1.31304e-21
2.36697e-22
1.4319e-21
1.66129e-21
1.36082e-21
4.61314e-22
8.95165e-23
1.54045e-21
5.74562e-22
4.61133e-22
2.73673e-21
1.68989e-22
6.34241e-22
4.88924e-21
1.13311e-21
3.23608e-21
4.46811e-22
1.22563e-21
2.93031e-21
1.55007e-21
4.06277e-21
2.00057e-21
8.23365e-22
9.08391e-23
6.87789e-23
4.7457e-22
2.28529e-21
6.43521e-22
2.5922e-21
5.38709e-22
1.88594e-21
3.6086e-21
2.98796e-21
4.85949e-22
2.79537e-21
6.93867e-22
4.21755e-22
2.91438e-22
2.27845e-21
1.98517e-21
7.66271e-23
8.38786e-22
1.23213e-21
2.28115e-21
1.32609e-21
8.23863e-22
3.7958e-22
1.34273e-21
5.83138e-21
6.76419e-22
8.199e-22
2.84292e-22
6.6173e-23
1.29399e-21
7.98364e-22
1.20044e-22
1.64401e-21
4.07097e-23
4.50389e-21
7.31961e-22
2.22255e-21
5.47114e-23
2.84044e-22
5.58884e-21
1.82546e-21
2.23985e-22
7.07351e-22
3.19128e-21
1.00783e-22
9.36123e-22
7.305e-22
7.43781e-22
2.68831e-21
1.24462e-21
2.4006e-21
1.88118e-21
9.82684e-22
1.13097e-21
2.07198e-22
8.51076e-21
1.85978e-21
8.53599e-22
1.33428e-21
2.39179e-21
1.62288e-21
1.39595e-21
1.47605e-22
1.20468e-21
1.89265e-21
1.07474e-21
6.05073e-21
2.09241e-21
2.35228e-21
3.09489e-21
2.30231e-21
8.26816e-22
4.08933e-21
5.06976e-22
4.24891e-21
3.73826e-21
2.14555e-21
3.23051e-21
6.02e-23
3.52456e-21
4.31901e-21
2.53751e-22
6.82237e-22
2.29187e-23
1.20978e-21
9.55979e-22
3.09782e-22
3.26848e-23
1.28086e-23
2.51995e-21
6.30405e-22
9.67834e-22
1.09854e-21
7.88414e-24
1.80151e-22
1.88591e-21
1.31657e-21
4.11608e-21
1.74138e-22
6.73054e-24
7.7451e-23
1.4045e-21
1.11726e-21
8.78686e-23
4.66935e-22
2.7534e-21
3.9827e-21
2.69655e-22
6.65775e-22
1.70761e-21
4.47914e-22
3.19576e-22
2.4795e-22
2.32164e-22
2.27595e-21
1.9128e-21
1.70771e-21
1.84777e-21
3.60057e-21
2.10913e-23
1.8596e-21
3.56397e-21
2.51568e-22
2.77934e-21
1.51043e-21
5.36829e-22
1.97779e-21
9.65096e-22
7.47538e-22
3.11849e-21
8.86017e-23
1.02616e-21
1.23936e-22
4.78406e-22
1.78074e-22
4.07361e-23
4.28526e-21
9.34386e-22
1.44816e-21
9.21591e-22
2.16262e-21
1.69759e-21
1.62644e-21
4.06407e-21
3.90825e-22
2.9752e-21
1.42611e-22
2.96248e-22
7.73517e-22
6.4116e-22
1.83166e-21
7.21273e-24
2.27517e-21
4.80444e-21
1.22642e-22
4.71867e-22
6.87259e-22
2.05636e-21
2.15226e-21
5.51897e-21
1.81862e-21
3.47634e-22
9.10205e-22
1.34725e-21
8.92081e-23
4.4646e-21
2.62893e-22
2.3564e-21
2.40569e-22
1.86431e-21
8.96399e-23
6.05151e-22
1.54747e-21
3.14099e-21
9.97651e-22
3.96918e-22
1.37196e-21
1.83117e-21
4.55547e-22
5.45629e-22
2.11265e-21
5.91609e-22
3.73558e-22
4.44496e-22
2.30904e-22
8.08311e-21
3.02513e-22
1.37252e-21
4.37376e-23
1.14851e-21
5.91776e-23
8.95785e-22
1.03151e-22
5.52435e-22
1.78391e-21
4.56658e-21
6.09409e-22
2.77389e-21
2.69622e-21
3.64827e-22
1.52472e-22
2.6017e-22
3.03769e-21
6.80743e-22
1.30669e-21
4.67e-22
2.95374e-21
1.38839e-21
4.14208e-21
3.29382e-21
4.18158e-24
2.0069e-21
8.05493e-22
2.19612e-21
1.71837e-21
5.90823e-22
5.70009e-22
1.79734e-21
2.33458e-21
5.94631e-22
4.13633e-22
1.34957e-22
6.81549e-22
4.44242e-23
6.3245e-22
3.74475e-24
1.0886e-21
4.2095e-22
9.37984e-23
2.34311e-21
9.64099e-22
5.20519e-21
9.81117e-22
8.69175e-23
1.57849e-21
8.40576e-22
1.07772e-23
1.05402e-21
8.5211e-22
3.84244e-22
2.1296e-21
1.28176e-21
2.03105e-21
4.84231e-23
4.82665e-21
2.3427e-22
7.67756e-22
1.4494e-22
7.1464e-23
1.77677e-21
1.61788e-21
3.45475e-21
1.79466e-21
3.4356e-21
4.58321e-22
2.04792e-21
1.61685e-23
1.21587e-21
1.61313e-21
2.4653e-22
5.2999e-23
1.89993e-23
1.22612e-23
6.6522e-22
2.45401e-22
3.79265e-22
7.77846e-23
2.52872e-22
5.19287e-22
5.56308e-22
8.68044e-23
7.06705e-21
1.182e-21
6.11873e-22
3.71826e-21
2.18855e-21
4.16334e-22
7.30999e-22
6.09104e-22
4.43279e-21
1.83176e-21
8.81299e-22
2.73264e-22
2.45121e-21
3.89162e-23
2.03653e-21
3.25717e-22
6.37917e-22
3.1731e-22
7.89178e-23
2.9791e-22
1.92032e-22
2.05936e-21
3.13069e-22
4.6171e-21
4.00675e-22
1.0632e-21
4.59743e-22
1.83396e-21
1.52349e-21
1.24766e-21
8.72487e-22
3.48412e-22
1.48742e-21
4.79489e-22
2.36991e-21
1.56303e-21
7.5807e-21
3.06342e-21
1.64647e-21
1.67658e-21
5.09856e-22
1.50726e-21
9.34432e-22
4.65617e-22
2.72671e-22
5.13321e-22
4.28829e-22
6.99495e-22
5.07262e-22
4.89826e-23
4.24436e-21
3.7098e-22
4.59097e-22
3.98898e-22
2.05403e-22
1.54871e-23
2.92241e-21
1.25865e-21
5.67908e-22
1.49556e-21
2.87915e-21
3.05143e-21
1.47446e-21
2.62252e-21
1.7968e-21
3.75607e-22
1.89729e-21
1.46375e-21
3.74893e-22
1.20326e-21
3.52224e-21
7.77536e-22
2.05595e-22
3.62858e-22
4.57649e-21
6.60533e-22
4.12515e-21
4.16561e-22
3.11117e-21
1.30856e-21
1.72649e-22
2.79027e-21
1.00802e-21
2.72246e-22
7.43903e-22
7.58449e-22
5.82252e-23
6.15511e-22
2.88929e-21
5.74033e-22
2.40535e-21
1.39575e-21
2.52835e-21
4.6946e-23
9.28639e-22
3.75954e-21
4.26506e-22
1.28719e-21
2.31125e-21
3.14214e-23
1.31785e-21
1.57471e-21
2.55336e-21
4.23429e-22
2.09258e-21
4.412e-21
5.03583e-22
7.14806e-23
4.18819e-21
4.51513e-22
3.91012e-22
4.60214e-22
3.99979e-22
3.21801e-22
9.79308e-22
6.65619e-22
2.49802e-21
9.04277e-22
1.93261e-21
6.14557e-22
7.1929e-22
1.25448e-21
5.91444e-22
4.84879e-21
2.38604e-22
1.67689e-22
5.45334e-22
2.56392e-21
2.42798e-21
3.70725e-22
1.93832e-21
1.26828e-21
2.32639e-22
4.02014e-22
9.9826e-23
2.95113e-21
2.45627e-23
2.11862e-21
3.00754e-22
1.3195e-23
4.69693e-22
2.37877e-21
4.48386e-22
4.57749e-22
5.92687e-21
2.24478e-21
8.95962e-22
1.44266e-22
2.7427e-21
2.58824e-22
4.9206e-22
9.19225e-22
2.05468e-21
9.0826e-23
4.20351e-22
2.2391e-21
3.55696e-22
2.98182e-21
1.81985e-22
3.64734e-21
6.97673e-22
7.81354e-22
8.7589e-22
3.28517e-21
1.28825e-21
6.45402e-21
5.66421e-23
1.1006e-21
3.28998e-22
2.57519e-22
2.54422e-21
7.3374e-22
1.87912e-21
2.42492e-21
1.57528e-21
2.02864e-21
7.65479e-22
1.99028e-22
2.99595e-21
6.18464e-22
1.0902e-21
9.63429e-23
1.37558e-21
5.40513e-21
2.75653e-21
5.35096e-22
1.53473e-21
6.96781e-22
2.59542e-21
1.92022e-21
2.04686e-21
1.74122e-21
1.73613e-21
2.12924e-21
3.02352e-21
4.09175e-21
8.48267e-22
3.83147e-22
1.06351e-23
1.99882e-21
5.69995e-22
2.41812e-22
7.30375e-22
7.13657e-22
9.12704e-23
9.36958e-23
4.66445e-23
2.97496e-22
2.83926e-21
2.74334e-21
3.43454e-21
9.06555e-22
6.53891e-21
7.76342e-22
5.70492e-21
3.22237e-22
2.55347e-22
6.40112e-22
1.27898e-21
1.33455e-21
2.09507e-22
3.72419e-23
2.03446e-22
4.31692e-21
9.37813e-22
6.36138e-23
9.0737e-23
5.90103e-23
3.3678e-22
5.8854e-22
1.0029e-21
2.8275e-21
2.25268e-22
3.72428e-22
7.66195e-22
5.49828e-21
2.8717e-22
3.06675e-21
6.06759e-21
1.38442e-22
8.52776e-22
4.23331e-22
1.67015e-22
2.21137e-22
8.38208e-22
1.66423e-21
1.46119e-22
2.29341e-21
3.3536e-21
1.55542e-23
2.37163e-21
5.23796e-22
4.53811e-22
4.09275e-22
4.96763e-21
8.50346e-23
8.08575e-22
1.68821e-21
1.85385e-21
7.20323e-22
2.07571e-21
3.94915e-22
3.9863e-21
5.09524e-22
1.388e-21
2.73376e-22
1.98933e-21
2.68596e-22
1.8239e-22
5.29858e-22
1.56815e-21
2.04981e-22
3.2573e-21
3.02869e-22
6.32318e-22
5.3079e-22
7.8771e-22
3.30178e-22
2.0823e-22
4.08592e-22
1.24847e-22
2.20184e-21
1.45961e-21
7.75473e-22
5.03622e-22
4.84894e-22
7.54841e-23
1.53676e-21
2.03077e-22
3.30404e-21
1.95511e-22
5.58431e-22
1.34174e-22
1.43003e-21
2.11171e-21
2.7969e-22
3.2668e-22
1.36689e-22
5.32898e-22
8.49641e-22
1.01352e-21
1.68499e-21
6.58175e-22
3.89902e-24
7.49867e-21
6.25054e-22
7.45486e-22
9.8271e-22
3.85518e-21
7.20212e-21
1.50179e-21
7.41993e-22
8.2797e-22
7.06996e-22
1.02132e-21
1.2851e-21
2.85958e-21
2.99356e-21
2.53476e-21
1.18293e-22
1.59439e-22
1.38556e-22
9.75579e-22
2.53749e-21
2.53215e-23
2.47028e-21
3.32323e-21
5.37867e-23
1.00356e-21
5.29983e-22
2.89542e-21
1.14136e-22
1.11803e-21
7.18772e-22
1.05739e-22
1.03594e-21
1.09515e-21
9.67145e-23
5.76207e-22
4.00947e-21
2.75611e-21
3.52867e-21
2.1047e-21
3.72479e-21
2.42155e-21
8.71607e-22
8.27682e-22
1.09218e-21
3.7259e-21
2.99458e-22
2.12021e-23
3.60998e-22
4.28371e-21
1.90063e-22
9.49547e-22
5.39534e-23
9.87693e-22
6.31115e-22
2.1798e-21
2.32255e-21
1.70012e-21
1.17996e-21
6.10272e-22
1.4274e-21
1.21302e-21
5.406e-22
6.06307e-22
5.6884e-22
4.28876e-22
1.3464e-21
1.80021e-21
1.2238e-21
1.235e-21
3.52075e-21
2.5158e-21
1.38475e-21
1.77689e-22
8.04489e-22
4.09261e-21
1.66181e-21
6.45954e-22
3.59749e-21
1.8202e-22
2.86505e-21
6.23753e-22
4.18786e-21
1.53643e-21
1.26522e-21
2.13535e-21
2.04104e-21
4.537e-21
2.88255e-21
1.12405e-21
1.27567e-22
1.58484e-21
1.55768e-21
3.68624e-22
1.0847e-21
2.19595e-21
7.23709e-22
1.84938e-21
1.74542e-21
8.82248e-22
2.06419e-22
1.35875e-21
4.7762e-22
2.1516e-21
4.20036e-22
2.67063e-21
1.04063e-22
1.27266e-21
3.25824e-21
8.87324e-22
2.35792e-21
1.34352e-21
3.20647e-21
2.05367e-21
2.14931e-22
3.04679e-21
6.15895e-22
1.32637e-21
4.27404e-21
2.86277e-22
1.5562e-21
2.61462e-21
5.45494e-23
3.92273e-22
6.77286e-22
7.64672e-22
5.50326e-22
1.76129e-21
5.93641e-22
2.02597e-21
4.45217e-22
1.15549e-22
1.0238e-21
6.70417e-22
2.09363e-21
6.24381e-21
2.45681e-21
4.97258e-22
9.68572e-22
3.20591e-21
2.11974e-21
3.63536e-21
4.13055e-22
9.83951e-23
1.62884e-22
7.04237e-22
1.52852e-21
1.61404e-21
1.75126e-21
1.30109e-21
2.32265e-21
3.97385e-21
1.03001e-21
7.76377e-22
3.76912e-23
1.33202e-21
1.19546e-21
5.70799e-22
2.08175e-21
2.30976e-21
1.36547e-21
4.22192e-22
1.3916e-21
2.83291e-22
2.13246e-21
7.10769e-22
6.323e-22
4.10399e-22
1.87281e-21
5.0848e-22
4.93162e-21
5.53205e-22
1.16946e-21
1.14683e-21
1.27078e-21
3.23829e-21
1.47533e-21
2.9011e-23
2.62503e-21
1.91828e-21
7.17631e-21
1.13561e-21
7.55936e-22
7.65455e-23
4.35686e-21
3.64038e-24
3.00471e-22
5.3052e-22
3.70627e-21
1.59469e-21
1.21094e-22
1.6108e-21
4.2463e-22
9.4448e-22
1.86221e-21
4.75674e-21
1.13434e-22
1.13979e-21
5.91869e-22
2.07594e-21
3.83163e-22
1.29124e-21
1.25272e-21
4.24409e-23
5.07232e-21
9.72061e-23
4.1062e-23
2.26938e-22
6.09205e-22
7.59966e-22
1.19841e-21
1.24268e-21
1.54901e-21
1.83705e-21
2.02777e-21
1.18245e-21
3.92028e-21
4.1658e-22
1.3763e-22
2.19053e-21
1.27332e-21
1.912e-21
1.64175e-21
6.98789e-22
5.45163e-22
9.10055e-22
9.93259e-23
3.49298e-22
1.28865e-21
6.55207e-22
3.31274e-21
1.36542e-21
7.12255e-22
3.05162e-22
1.7283e-22
1.87607e-21
1.01492e-21
1.78237e-21
1.52088e-21
5.68854e-22
1.42566e-21
1.40331e-21
5.12442e-21
7.66717e-22
8.23191e-22
2.25694e-21
2.00501e-21
6.42139e-22
9.83531e-22
9.58172e-22
6.00703e-22
3.8142e-22
1.14472e-21
6.10313e-21
2.51237e-21
1.30551e-21
1.7239e-21
4.58464e-22
2.07912e-21
8.05465e-22
2.07681e-22
4.76806e-21
1.86639e-21
2.51396e-22
2.85654e-22
4.66316e-22
7.0362e-22
4.61448e-22
2.62829e-21
1.09188e-21
3.68631e-22
7.74649e-22
1.96028e-21
2.20556e-22
2.63236e-22
3.22264e-21
3.23777e-21
5.26857e-21
9.39832e-23
3.37466e-22
3.64447e-21
1.96609e-21
5.0589e-22
3.8567e-23
7.40304e-22
9.0001e-22
2.06088e-21
3.13737e-21
2.18212e-21
5.26469e-24
2.49895e-21
1.34699e-21
3.5252e-22
1.12372e-21
1.39739e-21
5.84127e-23
4.04484e-21
8.90386e-22
1.35952e-21
1.819e-21
2.84829e-21
1.32729e-21
1.67752e-24
3.84718e-21
1.25894e-21
3.90007e-21
4.74464e-21
7.41157e-22
5.13152e-21
3.46097e-21
6.93811e-22
4.76052e-22
1.35081e-21
3.1484e-22
9.38587e-22
1.60355e-21
1.62965e-22
5.92016e-24
2.38329e-21
4.46594e-21
1.21396e-21
1.05187e-21
4.0084e-22
1.35251e-22
1.04805e-21
7.00742e-21
2.21237e-21
2.43262e-22
3.91789e-21
8.0245e-23
1.33341e-23
2.15446e-21
2.95606e-21
2.09437e-21
1.92139e-22
4.9805e-21
6.3735e-21
7.74918e-22
3.08347e-22
6.75479e-22
9.96539e-22
3.40299e-22
9.21739e-22
3.89775e-22
3.37247e-21
4.79971e-22
4.53468e-21
1.5341e-21
3.72439e-22
1.45556e-22
6.15958e-22
1.69128e-22
3.7281e-22
6.18255e-22
6.70483e-22
4.40065e-22
4.31253e-21
6.95597e-22
1.94522e-21
1.09129e-21
1.11318e-21
1.76353e-21
3.55753e-22
2.68203e-21
1.32721e-21
1.80971e-21
1.94143e-21
4.28377e-22
2.13777e-22
1.02626e-21
1.45467e-21
1.3701e-21
1.90722e-21
3.5572e-22
5.70823e-22
6.64117e-23
4.05109e-22
4.31703e-21
6.04243e-22
2.02206e-21
3.45989e-22
8.58825e-22
2.87044e-21
9.65024e-22
5.40453e-22
1.81405e-21
2.27364e-21
1.29405e-22
1.88952e-21
1.08456e-21
4.2559e-21
7.14391e-22
1.01553e-21
2.0729e-22
3.69405e-21
2.44591e-21
1.22433e-21
2.17497e-21
1.42292e-21
1.08057e-23
3.43117e-22
2.55429e-22
1.71238e-21
1.46633e-21
2.10686e-21
1.22466e-22
1.26296e-21
5.41507e-22
4.35986e-22
4.47143e-23
3.07621e-21
1.33798e-21
1.38215e-21
3.17204e-22
1.47136e-21
5.6721e-22
5.91175e-21
3.56551e-23
5.07658e-22
3.69732e-21
1.35754e-21
3.26184e-22
1.96607e-22
7.13226e-22
2.62132e-21
1.61444e-21
4.43842e-22
1.45768e-21
1.02627e-21
1.65376e-21
6.06061e-22
2.02283e-21
1.026e-21
1.66756e-21
3.47004e-22
5.02003e-21
3.59849e-22
1.51772e-22
8.75567e-22
1.27809e-21
8.21158e-23
1.57207e-22
1.13067e-22
1.77695e-21
2.20191e-21
3.08081e-23
1.34743e-21
1.72696e-21
1.82908e-21
3.8804e-22
4.744e-21
2.5746e-21
1.34199e-21
6.04977e-22
1.20607e-21
3.11596e-21
2.97313e-22
8.97453e-21
2.37778e-22
1.41719e-21
2.19204e-22
4.20936e-21
6.4829e-22
8.07137e-22
4.37993e-21
1.54081e-21
2.33705e-21
1.8598e-21
6.40083e-23
4.10073e-22
1.44692e-21
9.04603e-22
3.83441e-23
1.27987e-21
1.17919e-21
1.83669e-22
8.17623e-23
1.12279e-21
1.90956e-21
7.16974e-22
3.14731e-22
4.80611e-22
2.39413e-21
2.34336e-22
1.47955e-21
8.439e-22
4.58787e-23
1.87891e-21
8.28326e-22
5.49066e-22
5.85238e-21
3.12413e-21
7.11112e-22
9.55466e-23
8.33812e-22
1.69406e-21
3.06057e-22
9.13403e-23
3.18625e-22
3.64234e-22
1.27757e-21
8.5645e-22
1.4455e-21
4.03753e-22
3.95091e-23
5.73581e-21
1.69195e-22
1.68804e-21
3.22826e-21
3.83528e-22
1.63572e-21
1.6373e-23
1.45507e-21
2.67898e-21
1.99702e-22
2.26261e-21
8.27627e-22
4.09068e-22
2.61004e-21
7.81382e-22
1.21073e-22
8.20932e-22
4.66529e-22
1.6797e-21
9.13709e-22
1.24099e-21
8.42335e-22
3.25163e-21
6.06669e-21
5.1734e-22
3.93321e-22
8.66319e-23
7.63887e-22
6.51381e-22
2.93174e-21
7.63427e-23
3.42974e-22
2.87996e-22
6.47603e-22
5.00106e-22
1.44344e-21
2.4011e-21
5.9952e-22
2.9382e-21
2.08015e-22
2.2657e-21
3.71266e-22
3.8235e-21
3.90871e-21
5.29283e-22
5.47762e-21
1.39365e-21
1.99332e-21
3.69011e-22
1.29699e-23
8.03519e-22
3.83932e-21
1.33063e-21
1.5143e-21
1.03089e-21
8.69583e-22
5.41232e-21
4.7892e-22
1.27938e-22
5.12837e-22
7.45631e-22
3.95887e-21
4.75455e-21
3.60232e-21
4.13959e-22
1.12811e-21
2.94747e-21
1.25874e-21
1.14016e-23
2.01524e-21
6.64221e-22
2.24329e-21
9.13582e-23
2.42677e-22
4.32144e-22
6.19737e-22
2.23876e-22
1.33768e-22
4.56463e-21
2.7244e-21
2.95702e-21
1.19042e-21
7.33106e-23
1.09264e-21
1.04847e-21
4.20839e-22
9.66634e-22
1.0684e-21
4.44617e-22
2.76707e-21
8.88948e-23
1.21148e-21
1.7827e-21
2.40028e-22
4.9086e-21
1.33384e-21
9.74428e-22
9.16142e-22
2.6261e-22
1.18223e-21
1.01907e-22
4.12344e-22
1.1386e-21
1.57694e-21
1.53503e-21
3.65999e-21
4.82892e-22
5.63232e-21
1.44201e-21
2.24998e-21
2.70529e-21
4.608e-21
2.26352e-21
1.07056e-22
2.35227e-22
7.93097e-22
2.98296e-21
2.74678e-22
1.24858e-21
1.22126e-22
3.1606e-22
3.49546e-22
4.25786e-21
4.81561e-22
9.01198e-22
8.79054e-22
2.83395e-21
7.89368e-22
5.46467e-22
3.53372e-21
6.00229e-22
4.48858e-22
4.48186e-22
8.54566e-22
1.65315e-21
9.05139e-22
1.47591e-21
1.89744e-22
1.79415e-21
2.11261e-22
1.23e-21
4.23195e-21
2.83193e-21
2.34765e-21
2.7604e-22
2.30431e-21
1.64862e-21
3.38369e-22
2.38896e-23
6.27636e-22
2.32692e-21
1.06241e-21
8.04066e-22
1.44861e-21
7.71426e-22
8.50841e-22
1.15228e-22
1.65224e-21
3.09191e-22
1.03229e-21
5.45601e-21
7.91597e-22
3.36451e-22
1.95499e-21
1.70759e-21
7.46039e-22
2.3423e-21
2.61124e-21
9.67525e-22
1.10363e-21
7.53646e-22
4.17396e-21
1.529e-21
3.06329e-23
2.78843e-22
3.98484e-22
1.2543e-21
1.74687e-21
1.59051e-21
6.06033e-22
8.48855e-22
5.45739e-22
4.13538e-21
5.09749e-21
2.73142e-22
2.99267e-21
6.82029e-22
2.27873e-21
2.33231e-22
1.72518e-22
2.01272e-21
6.14542e-22
3.7508e-22
9.01476e-22
2.88831e-22
9.26635e-23
1.42028e-21
1.17436e-21
2.28467e-21
1.43227e-21
1.14817e-21
4.33493e-23
2.01689e-21
4.94667e-23
1.36208e-21
1.51324e-22
1.01498e-21
6.18457e-22
4.98396e-21
2.0195e-21
2.5478e-22
4.01586e-23
2.0994e-21
4.69382e-22
1.2467e-21
1.50818e-21
7.82778e-23
2.27441e-22
3.47093e-21
1.51922e-21
8.67834e-22
6.0379e-22
1.22891e-21
5.5847e-23
6.4472e-22
1.15214e-21
1.0259e-21
6.29247e-22
1.85514e-21
6.80495e-22
1.61781e-21
2.12218e-22
5.51412e-22
8.41272e-22
4.26926e-21
1.51045e-22
1.46084e-21
2.22865e-21
1.61831e-22
2.01878e-21
1.52024e-21
1.38632e-21
6.70119e-22
7.09848e-22
8.40692e-22
2.20256e-21
3.93336e-21
4.43785e-23
5.88821e-21
1.63563e-21
3.0593e-21
9.96296e-23
1.02937e-20
2.74088e-21
6.36441e-22
2.63585e-21
3.89083e-21
5.16721e-22
4.02896e-21
1.86951e-21
3.22592e-21
1.96205e-21
4.86189e-21
2.54137e-21
4.91538e-22
2.28093e-22
1.24405e-25
2.11408e-22
9.06183e-22
4.47567e-22
3.08339e-22
3.05845e-21
7.19651e-23
2.91564e-21
6.63143e-22
2.71132e-21
2.23249e-21
5.7751e-22
8.72194e-22
3.34584e-21
9.56305e-23
1.44984e-21
1.56704e-21
2.96878e-21
1.61275e-21
2.82143e-21
3.43302e-21
1.18344e-21
5.5566e-22
3.32906e-21
1.1578e-21
4.11219e-22
9.27141e-21
1.71502e-21
1.35285e-21
2.05626e-21
1.61525e-21
9.70664e-22
1.63806e-22
1.25435e-21
5.16178e-22
1.02655e-21
2.93616e-22
1.18393e-21
2.53846e-21
2.26542e-22
3.7956e-22
1.8675e-22
6.38263e-22
3.53258e-22
2.40418e-21
9.24838e-23
3.18804e-22
2.19331e-22
2.16113e-21
1.02651e-21
3.57276e-21
2.12199e-21
4.53035e-24
1.95626e-21
1.39243e-24
2.0787e-21
1.2665e-21
2.83431e-22
5.99754e-21
1.49643e-21
6.49444e-22
2.33615e-22
2.04435e-22
1.4779e-21
5.49852e-22
1.42795e-21
1.65884e-21
6.58663e-22
2.74859e-22
2.84505e-22
1.84299e-21
2.65583e-22
1.15078e-21
6.62725e-22
3.35623e-21
8.0048e-22
2.7264e-21
1.12042e-21
1.6676e-21
4.58089e-21
9.22249e-22
1.49113e-21
6.0075e-21
4.45171e-21
2.0839e-21
1.69656e-21
6.05513e-22
1.85708e-21
1.36878e-21
7.61365e-22
4.92146e-22
7.90087e-22
3.45446e-21
6.17851e-22
3.42981e-21
1.51384e-21
5.60524e-22
4.54277e-21
5.09242e-21
3.96367e-23
1.71967e-21
9.00143e-23
3.9465e-21
2.18597e-22
4.28682e-22
2.08476e-22
3.19023e-22
1.13219e-21
1.88112e-22
4.82685e-21
1.74473e-21
7.363e-22
2.00319e-22
8.23788e-22
9.09857e-22
3.62701e-21
3.46536e-21
3.112e-22
2.21486e-21
6.25204e-22
6.89781e-23
3.45472e-21
1.42315e-22
3.70881e-21
1.91878e-22
2.24125e-21
1.83815e-22
1.10622e-21
2.21507e-21
1.67488e-21
4.96514e-23
3.8039e-22
3.71639e-21
2.26163e-22
1.87599e-21
7.38998e-22
2.12419e-22
4.37995e-21
1.63333e-22
2.3726e-21
4.33371e-22
2.33154e-21
4.40734e-22
1.9724e-21
3.77631e-21
2.46805e-22
4.48514e-22
6.52372e-21
1.36627e-21
1.16293e-21
1.13149e-21
1.49987e-22
2.69637e-21
1.5057e-21
2.27755e-21
7.09567e-22
1.03859e-21
8.74532e-23
2.14778e-22
4.98846e-21
2.24072e-22
4.52873e-22
1.80455e-21
1.47496e-22
2.63469e-21
2.53251e-21
1.61716e-21
1.982e-21
2.99038e-21
4.09476e-22
4.04728e-21
4.04155e-22
4.22596e-22
6.30503e-22
3.79288e-22
7.29818e-22
8.51003e-23
1.03723e-22
9.60594e-22
6.20955e-23
1.27653e-21
1.76975e-21
5.83387e-22
2.60526e-22
3.50872e-22
6.61913e-22
2.53781e-21
3.40928e-21
4.0976e-21
1.99451e-21
5.29882e-22
3.7157e-22
2.08092e-22
8.0227e-23
1.12339e-21
3.22666e-21
1.20365e-21
1.94174e-21
1.8096e-21
2.54946e-21
2.05842e-21
1.41382e-21
4.71573e-23
3.06897e-21
8.80447e-23
1.16166e-21
5.87941e-22
4.62652e-22
7.33725e-22
3.312e-21
1.07066e-22
2.06443e-21
1.64623e-21
2.19137e-21
3.68343e-22
5.78642e-22
1.84438e-21
1.48178e-21
7.68089e-22
1.58079e-21
2.46541e-21
2.27215e-22
1.79022e-21
1.20176e-21
3.09445e-22
1.66344e-21
2.91971e-21
4.23274e-21
3.87981e-22
3.02937e-21
6.83878e-22
3.07576e-22
1.9082e-21
1.16727e-21
6.89073e-22
7.35532e-21
5.12203e-22
7.39164e-22
1.10504e-21
1.29813e-21
6.41896e-22
5.21295e-22
2.72041e-22
2.05127e-21
1.37806e-21
3.52216e-22
1.26356e-22
7.09295e-22
5.40432e-22
5.78015e-21
1.70731e-21
3.56544e-21
2.19551e-21
3.77717e-22
1.14619e-21
4.2574e-21
8.43801e-22
1.34495e-22
3.21031e-21
3.42659e-21
4.93099e-21
1.87558e-21
2.72354e-22
1.11886e-21
6.71738e-22
2.21556e-21
7.19797e-22
1.13382e-21
1.41275e-21
3.88124e-21
1.41994e-22
5.1387e-22
7.4352e-22
2.94929e-22
1.49262e-21
8.028e-21
9.1943e-22
1.98515e-21
5.15021e-21
2.55446e-22
3.55325e-22
1.25009e-21
1.16391e-21
4.66521e-21
3.27965e-24
4.29584e-23
4.54537e-22
3.39767e-22
1.45188e-22
2.53418e-21
8.5376e-22
2.19435e-21
9.67491e-22
1.38026e-21
1.80116e-21
9.22641e-22
2.27373e-21
2.54951e-23
2.52091e-22
6.48764e-23
1.14835e-20
3.6188e-22
8.35798e-22
1.5613e-21
5.61769e-22
9.45923e-22
1.21195e-21
2.47732e-21
4.84649e-22
1.63708e-21
1.66114e-21
4.16695e-21
2.11064e-22
1.65145e-21
2.34203e-21
1.66792e-21
1.16569e-21
1.56574e-21
3.63616e-22
1.52992e-21
1.71693e-21
4.8913e-22
1.01336e-21
9.76078e-23
2.9781e-22
2.62598e-21
5.63908e-22
1.74726e-21
2.75337e-21
6.18988e-22
2.5235e-21
2.69865e-22
2.52894e-21
5.89717e-22
1.03636e-21
1.29553e-21
1.69532e-21
2.29652e-21
3.16966e-22
4.74327e-22
1.90094e-21
3.0379e-21
2.10519e-21
4.27417e-22
7.90539e-22
1.53896e-21
1.57748e-22
4.67097e-22
3.93277e-21
2.50207e-22
2.79806e-21
1.06026e-21
1.63075e-21
8.58059e-22
4.89734e-21
3.57218e-21
1.78911e-22
3.31197e-21
1.51153e-21
3.32818e-21
2.00619e-21
1.56243e-21
1.31523e-21
3.76775e-21
5.59868e-23
3.51506e-23
3.48911e-21
2.39472e-22
1.39458e-21
2.56014e-21
4.31814e-23
8.56655e-22
9.46121e-22
2.16328e-22
2.29572e-21
1.90761e-21
5.74738e-22
1.20586e-21
4.32799e-22
9.5802e-22
6.11464e-21
3.59694e-22
2.29073e-21
7.46977e-23
3.86946e-23
1.0839e-22
2.29688e-21
6.62457e-22
1.03163e-21
1.47374e-21
7.01078e-22
3.43625e-22
8.94101e-22
2.94474e-22
2.56974e-22
1.69695e-21
2.02353e-22
5.44357e-22
6.29954e-22
4.76041e-22
2.69626e-21
1.43013e-21
1.80853e-21
3.28596e-21
1.33577e-21
3.35967e-22
1.84543e-21
1.42981e-23
2.24151e-21
1.77111e-22
4.73365e-21
1.1068e-21
1.55604e-21
5.64478e-22
6.38376e-22
6.05437e-22
1.01232e-21
6.78037e-22
1.14241e-22
2.06365e-21
2.09834e-21
4.00738e-21
2.74145e-22
1.02713e-21
8.10318e-22
3.61528e-22
1.48075e-21
2.03599e-21
4.32569e-22
5.29428e-22
8.71533e-21
5.11408e-23
1.45229e-21
3.60506e-22
1.61399e-23
6.12483e-23
2.25494e-21
2.54137e-21
1.55685e-21
4.31496e-21
6.61532e-22
1.49394e-21
1.23608e-21
1.84319e-21
1.19274e-22
1.32482e-21
1.2231e-21
1.19372e-21
3.44189e-22
1.99145e-21
4.23663e-22
1.2096e-21
1.5009e-21
2.3436e-21
1.06096e-22
7.98827e-22
1.29118e-21
4.30594e-21
7.49281e-22
4.67538e-22
1.36011e-21
8.17083e-22
1.09922e-21
2.15501e-21
1.49234e-21
2.61124e-22
1.6015e-21
1.98324e-21
2.50646e-22
1.01924e-21
5.82492e-23
7.52107e-21
4.12716e-22
1.22787e-21
4.71773e-21
6.36356e-22
6.09846e-22
2.1951e-23
3.95472e-22
5.094e-21
3.35539e-21
3.34148e-21
9.24304e-22
1.77582e-22
6.92157e-22
2.1266e-21
2.22591e-21
1.23989e-21
4.04624e-21
3.52061e-22
1.43102e-21
1.10401e-21
3.66259e-22
2.98597e-22
1.96757e-21
2.28917e-21
2.66665e-22
3.97464e-21
7.71186e-23
6.79942e-22
7.50182e-22
1.69165e-21
3.45543e-22
1.11701e-21
7.35136e-22
5.67792e-21
3.89576e-21
2.74935e-22
1.16887e-21
5.04563e-22
1.84573e-21
2.43642e-22
2.71305e-21
5.58999e-21
4.79645e-21
2.5415e-22
9.77374e-22
5.66531e-22
1.00674e-21
4.31755e-21
3.53647e-21
3.93768e-21
5.22364e-21
3.96638e-21
2.0268e-21
1.83771e-21
1.78002e-23
2.67856e-21
1.57439e-22
5.67367e-22
1.22349e-21
5.60213e-22
1.08395e-21
3.73542e-22
5.88778e-22
2.03971e-21
1.18929e-21
7.1786e-22
6.32557e-22
1.13094e-21
3.90933e-22
1.09874e-21
1.10876e-21
5.19278e-23
2.18834e-22
4.71414e-22
2.07672e-21
1.72178e-21
1.67872e-21
7.77065e-22
6.73563e-23
2.2897e-21
3.84631e-22
2.63492e-22
8.17832e-22
1.59731e-21
1.32759e-21
7.24184e-22
1.63166e-21
1.73911e-21
5.62235e-22
3.72248e-21
2.03765e-21
1.40292e-21
4.77632e-22
1.94994e-22
1.32322e-21
3.16438e-22
2.69253e-21
5.26042e-21
5.62893e-22
1.89758e-21
2.01484e-21
3.52997e-21
2.30633e-21
1.35415e-21
1.85576e-21
3.01319e-21
1.04379e-21
2.70055e-21
1.18082e-21
5.823e-22
2.95794e-22
1.27393e-21
1.33223e-21
5.80207e-21
8.94929e-22
1.347e-21
1.66445e-21
1.50344e-21
4.11112e-21
7.25839e-22
8.55708e-22
8.82033e-23
7.10471e-22
4.27011e-21
7.80111e-22
3.98981e-22
1.4017e-21
2.68896e-21
2.25045e-21
2.11587e-23
5.23435e-22
3.49089e-21
1.4309e-22
1.7183e-21
4.55022e-22
1.71238e-21
5.35976e-22
4.49907e-22
9.64287e-22
2.04795e-21
1.51942e-21
2.82832e-22
3.48035e-22
4.78389e-22
8.58309e-22
1.88153e-21
1.42776e-21
3.9878e-21
4.27531e-21
1.27803e-21
4.36825e-21
4.70634e-23
2.25958e-22
1.91131e-21
1.2989e-21
1.54897e-21
1.60293e-21
3.35556e-22
3.61381e-22
5.19589e-21
4.47773e-22
7.77611e-22
2.40461e-21
2.48212e-21
9.70151e-22
4.42174e-21
8.70822e-22
1.72431e-21
9.88648e-22
7.72926e-22
5.83591e-22
9.33509e-22
6.46939e-22
6.53878e-22
4.53504e-22
2.60394e-22
2.03966e-21
1.7248e-21
8.56216e-22
4.79209e-21
8.50848e-22
2.75726e-22
6.0193e-24
8.38844e-22
1.04055e-21
9.5314e-22
6.77803e-22
2.38355e-21
2.2474e-21
2.95509e-21
1.84828e-21
1.96257e-21
2.88755e-22
4.11487e-21
6.45793e-22
1.87531e-21
1.96341e-21
2.66661e-21
4.13146e-21
8.04796e-22
4.62065e-21
4.55154e-22
3.57096e-22
4.04319e-22
1.53072e-21
9.68322e-22
1.59643e-21
1.29011e-21
1.35947e-21
3.6334e-21
1.0985e-21
2.81923e-21
9.65863e-23
2.16326e-21
1.3069e-21
1.82401e-22
8.90312e-22
4.57594e-22
3.88624e-21
4.73306e-22
3.03248e-22
6.1975e-23
1.57247e-21
5.89711e-21
6.59499e-22
2.26216e-22
1.74338e-21
6.78561e-21
4.92085e-24
2.30637e-21
1.2722e-21
2.57096e-21
3.46136e-21
1.89179e-21
1.97385e-21
1.97867e-21
1.16649e-21
4.67298e-22
2.29539e-21
6.86389e-22
2.36696e-21
9.19073e-22
9.00954e-22
2.78804e-21
2.29067e-22
2.44142e-21
1.38559e-21
9.85732e-22
1.71645e-23
1.05087e-21
1.16444e-21
1.94991e-21
6.85583e-22
2.72651e-22
1.00093e-21
2.44666e-21
8.69373e-22
4.74471e-22
1.72238e-21
9.66262e-22
5.97638e-22
5.81583e-21
2.55149e-21
1.93915e-21
3.41241e-22
1.80725e-22
2.86152e-22
4.80017e-22
1.26505e-21
1.22622e-21
1.57441e-21
3.89287e-21
1.68402e-21
2.29524e-21
1.69691e-21
3.79992e-21
1.33975e-21
3.21283e-21
1.00785e-22
9.32153e-23
3.82912e-21
1.35363e-22
1.0083e-21
8.11894e-23
1.05698e-21
1.27336e-21
8.26356e-22
2.34281e-21
3.37764e-21
2.34664e-22
4.18126e-22
5.67896e-22
1.32249e-23
1.76608e-22
1.22775e-21
8.71006e-22
8.56939e-23
1.20254e-21
1.6498e-21
1.85539e-21
1.06935e-21
1.08281e-21
3.7823e-22
9.58568e-22
3.58965e-21
4.29286e-21
3.87657e-21
1.03966e-21
1.02629e-21
1.32476e-21
1.07965e-21
2.666e-21
1.98681e-21
1.09115e-21
2.10151e-21
4.1557e-21
2.18253e-21
2.19065e-21
2.03504e-21
2.11284e-22
2.39533e-22
9.78872e-22
5.05025e-22
2.27949e-21
1.43766e-21
3.35514e-21
1.08717e-22
1.7324e-21
1.61943e-23
6.04275e-22
1.54027e-21
1.11838e-21
1.23016e-21
5.97156e-22
8.02473e-22
1.45665e-22
2.09744e-21
1.79125e-21
7.12827e-22
1.09796e-21
1.07197e-21
3.63863e-21
8.19585e-22
1.87251e-21
6.7046e-23
3.47836e-22
3.83872e-22
1.25448e-21
1.0177e-21
5.86412e-23
4.93554e-22
2.99639e-22
3.83571e-22
8.45584e-22
1.77724e-22
1.39412e-21
5.7706e-21
3.15832e-22
2.05152e-21
5.89752e-21
1.70843e-21
1.91328e-21
5.33566e-22
2.46297e-21
1.36828e-21
5.07049e-22
1.36702e-22
5.47063e-22
2.37934e-21
1.9187e-21
1.41403e-21
5.80161e-22
2.53186e-21
5.93715e-22
1.16802e-21
4.79844e-21
1.88258e-22
1.64467e-21
7.45079e-22
3.87314e-21
5.39068e-22
8.86332e-22
5.37434e-22
6.37412e-22