/*--------------------------------*- C++ -*----------------------------------*\
  =========                 |
  \\      /  F ield         | OpenFOAM: The Open Source CFD Toolbox
   \\    /   O peration     | Website:  https://openfoam.org
    \\  /    A nd           | Version:  7
     \\/     M anipulation  |
\*---------------------------------------------------------------------------*/
FoamFile
{
    version     2.0;
    format      ascii;
    class       volScalarField;
    location    "0.0025";
    object      dsmcRhoN;
}
// * * * * * * * * * * * * * * * * * * * * * * * * * * * * * * * * * * * * * //

dimensions      [0 -3 0 0 0 0 0];

internalField   nonuniform List<scalar> 
250
(
1174
1106
1133
1167
1193
1157
1079
1106
1173
1041
1144
1146
1142
1216
1115
1088
1067
1186
1141
1094
1089
1154
1142
1117
1084
1127
1125
1090
1065
1133
1102
1055
1059
1061
1080
1138
1089
1108
1050
1010
1100
1077
1080
1071
1083
1008
1105
1099
1057
1009
1059
1065
1066
1055
1097
1050
1021
1148
1029
1049
1056
1088
1017
1077
1067
1092
978
986
1004
1033
1005
1047
1020
1068
974
1051
1033
1023
1043
968
1044
1034
982
1004
1018
1026
1057
1058
1027
1018
1014
974
1009
1024
987
1015
970
968
991
970
1001
941
953
1005
1007
1034
1041
945
990
1009
992
995
1028
999
997
972
996
997
922
912
962
982
971
965
961
974
974
941
965
960
968
968
955
893
947
939
911
960
906
947
897
936
931
949
954
968
935
917
945
925
923
879
931
888
865
946
949
866
900
922
957
940
923
899
918
870
893
939
888
941
887
912
906
872
827
866
883
917
938
871
896
904
871
872
870
866
917
845
848
860
825
922
877
892
830
810
803
905
865
880
886
862
897
857
848
856
897
841
833
807
880
859
875
895
877
785
896
851
850
848
830
864
826
844
803
860
861
830
826
790
867
889
800
833
843
831
790
863
835
862
782
822
836
818
820
835
801
842
771
848
)
;

boundaryField
{
    sides
    {
        type            symmetry;
    }
    empty
    {
        type            empty;
    }
    procBoundary1to0
    {
        type            processor;
        value           uniform 1101;
    }
    procBoundary1to2
    {
        type            processor;
        value           uniform 803;
    }
}


// ************************************************************************* //
