/*--------------------------------*- C++ -*----------------------------------*\
  =========                 |
  \\      /  F ield         | OpenFOAM: The Open Source CFD Toolbox
   \\    /   O peration     | Website:  https://openfoam.org
    \\  /    A nd           | Version:  7
     \\/     M anipulation  |
\*---------------------------------------------------------------------------*/
FoamFile
{
    version     2.0;
    format      ascii;
    class       volScalarField;
    location    "0.0025";
    object      iDof;
}
// * * * * * * * * * * * * * * * * * * * * * * * * * * * * * * * * * * * * * //

dimensions      [0 -3 0 0 0 0 0];

internalField   nonuniform List<scalar> 
250
(
3.522e+20
3.318e+20
3.399e+20
3.501e+20
3.579e+20
3.471e+20
3.237e+20
3.318e+20
3.519e+20
3.123e+20
3.432e+20
3.438e+20
3.426e+20
3.648e+20
3.345e+20
3.264e+20
3.201e+20
3.558e+20
3.423e+20
3.282e+20
3.267e+20
3.462e+20
3.426e+20
3.351e+20
3.252e+20
3.381e+20
3.375e+20
3.27e+20
3.195e+20
3.399e+20
3.306e+20
3.165e+20
3.177e+20
3.183e+20
3.24e+20
3.414e+20
3.267e+20
3.324e+20
3.15e+20
3.03e+20
3.3e+20
3.231e+20
3.24e+20
3.213e+20
3.249e+20
3.024e+20
3.315e+20
3.297e+20
3.171e+20
3.027e+20
3.177e+20
3.195e+20
3.198e+20
3.165e+20
3.291e+20
3.15e+20
3.063e+20
3.444e+20
3.087e+20
3.147e+20
3.168e+20
3.264e+20
3.051e+20
3.231e+20
3.201e+20
3.276e+20
2.934e+20
2.958e+20
3.012e+20
3.099e+20
3.015e+20
3.141e+20
3.06e+20
3.204e+20
2.922e+20
3.153e+20
3.099e+20
3.069e+20
3.129e+20
2.904e+20
3.132e+20
3.102e+20
2.946e+20
3.012e+20
3.054e+20
3.078e+20
3.171e+20
3.174e+20
3.081e+20
3.054e+20
3.042e+20
2.922e+20
3.027e+20
3.072e+20
2.961e+20
3.045e+20
2.91e+20
2.904e+20
2.973e+20
2.91e+20
3.003e+20
2.823e+20
2.859e+20
3.015e+20
3.021e+20
3.102e+20
3.123e+20
2.835e+20
2.97e+20
3.027e+20
2.976e+20
2.985e+20
3.084e+20
2.997e+20
2.991e+20
2.916e+20
2.988e+20
2.991e+20
2.766e+20
2.736e+20
2.886e+20
2.946e+20
2.913e+20
2.895e+20
2.883e+20
2.922e+20
2.922e+20
2.823e+20
2.895e+20
2.88e+20
2.904e+20
2.904e+20
2.865e+20
2.679e+20
2.841e+20
2.817e+20
2.733e+20
2.88e+20
2.718e+20
2.841e+20
2.691e+20
2.808e+20
2.793e+20
2.847e+20
2.862e+20
2.904e+20
2.805e+20
2.751e+20
2.835e+20
2.775e+20
2.769e+20
2.637e+20
2.793e+20
2.664e+20
2.595e+20
2.838e+20
2.847e+20
2.598e+20
2.7e+20
2.766e+20
2.871e+20
2.82e+20
2.769e+20
2.697e+20
2.754e+20
2.61e+20
2.679e+20
2.817e+20
2.664e+20
2.823e+20
2.661e+20
2.736e+20
2.718e+20
2.616e+20
2.481e+20
2.598e+20
2.649e+20
2.751e+20
2.814e+20
2.613e+20
2.688e+20
2.712e+20
2.613e+20
2.616e+20
2.61e+20
2.598e+20
2.751e+20
2.535e+20
2.544e+20
2.58e+20
2.475e+20
2.766e+20
2.631e+20
2.676e+20
2.49e+20
2.43e+20
2.409e+20
2.715e+20
2.595e+20
2.64e+20
2.658e+20
2.586e+20
2.691e+20
2.571e+20
2.544e+20
2.568e+20
2.691e+20
2.523e+20
2.499e+20
2.421e+20
2.64e+20
2.577e+20
2.625e+20
2.685e+20
2.631e+20
2.355e+20
2.688e+20
2.553e+20
2.55e+20
2.544e+20
2.49e+20
2.592e+20
2.478e+20
2.532e+20
2.409e+20
2.58e+20
2.583e+20
2.49e+20
2.478e+20
2.37e+20
2.601e+20
2.667e+20
2.4e+20
2.499e+20
2.529e+20
2.493e+20
2.37e+20
2.589e+20
2.505e+20
2.586e+20
2.346e+20
2.466e+20
2.508e+20
2.454e+20
2.46e+20
2.505e+20
2.403e+20
2.526e+20
2.313e+20
2.544e+20
)
;

boundaryField
{
    sides
    {
        type            symmetry;
    }
    empty
    {
        type            empty;
    }
    procBoundary1to0
    {
        type            processor;
        value           uniform 3.303e+20;
    }
    procBoundary1to2
    {
        type            processor;
        value           uniform 2.409e+20;
    }
}


// ************************************************************************* //
